<event>
 4    1  0.2051373E-002  0.6155856E+02  0.7818608E-02  0.1391405E+00
         -1   -1    0    0  501    0 -0.00000000000E+00  0.00000000000E+00  0.12441063049E+02  0.12441064069E+02  0.50400000000E-02 0. -1.
          1   -1    0    0    0  501  0.00000000000E+00 -0.00000000000E+00 -0.76148151553E+02  0.76148151720E+02  0.50400000000E-02 0. -1.
          2    1    1    2    0  502  0.24107724363E+02  0.42812468533E+01 -0.50130803248E+01  0.24992847565E+02  0.25500000000E-02 0. -1.
         -2    1    1    2  502    0 -0.24107724363E+02 -0.42812468533E+01 -0.58694008180E+02  0.63596368224E+02  0.25500000000E-02 0. -1.
<mgrwt>
<rscale>  0 0.61558558E+02</rscale>
<asrwt>0</asrwt>
<pdfrwt beam="2">  1        1 0.11715100E-01 0.61558558E+02</pdfrwt>
<pdfrwt beam="1">  1       -1 0.19140098E-02 0.61558558E+02</pdfrwt>
<totfact> 0.28593807E+05</totfact>
</mgrwt>
</event>
<event>
 4    1  0.2051373E-002  0.5337080E+02  0.7818608E-02  0.1427964E+00
          1   -1    0    0    0  501  0.00000000000E+00  0.00000000000E+00  0.51795465470E+02  0.51795465715E+02  0.50400000000E-02 0. -1.
         -1   -1    0    0  501    0 -0.00000000000E+00 -0.00000000000E+00 -0.13748513171E+02  0.13748514095E+02  0.50400000000E-02 0. -1.
          2    1    1    2    0  502 -0.96335586440E+01  0.20238338483E+02  0.12388933881E+01  0.22448399944E+02  0.25500000000E-02 0.  1.
         -2    1    1    2  502    0  0.96335586440E+01 -0.20238338483E+02  0.36808058910E+02  0.43095579866E+02  0.25500000000E-02 0.  1.
<mgrwt>
<rscale>  0 0.53370804E+02</rscale>
<asrwt>0</asrwt>
<pdfrwt beam="1">  1        1 0.79685330E-02 0.53370804E+02</pdfrwt>
<pdfrwt beam="2">  1       -1 0.21151560E-02 0.53370804E+02</pdfrwt>
<totfact> 0.39582601E+05</totfact>
</mgrwt>
</event>
<event>
 4    1  0.2051373E-002  0.5170067E+02  0.7818608E-02  0.1436379E+00
          1   -1    0    0    0  501  0.00000000000E+00  0.00000000000E+00  0.34731316604E+03  0.34731316608E+03  0.50400000000E-02 0.  1.
         -1   -1    0    0  501    0 -0.00000000000E+00 -0.00000000000E+00 -0.19240230674E+01  0.19240296686E+01  0.50400000000E-02 0.  1.
          2    1    1    2    0  502 -0.21448263617E+02 -0.28546260843E+01  0.77149668583E+02  0.80126451757E+02  0.25500000000E-02 0. -1.
         -2    1    1    2  502    0  0.21448263617E+02  0.28546260843E+01  0.26823947439E+03  0.26911074399E+03  0.25500000000E-02 0. -1.
<mgrwt>
<rscale>  0 0.51700665E+02</rscale>
<asrwt>0</asrwt>
<pdfrwt beam="1">  1        1 0.53432791E-01 0.51700665E+02</pdfrwt>
<pdfrwt beam="2">  1       -1 0.29600408E-03 0.51700665E+02</pdfrwt>
<totfact> 0.56926645E+05</totfact>
</mgrwt>
</event>
<event>
 4    1  0.2051373E-002  0.6435118E+02  0.7818608E-02  0.1380429E+00
          1   -1    0    0    0  501  0.00000000000E+00  0.00000000000E+00  0.30346836088E+01  0.30346877940E+01  0.50400000000E-02 0. -1.
         -1   -1    0    0  501    0 -0.00000000000E+00 -0.00000000000E+00 -0.34114521515E+03  0.34114521518E+03  0.50400000000E-02 0. -1.
          2    1    1    2    0  502  0.17718536672E+02 -0.17586085694E+02 -0.60486527684E+02  0.65435747031E+02  0.25500000000E-02 0.  1.
         -2    1    1    2  502    0 -0.17718536672E+02  0.17586085694E+02 -0.27762400385E+03  0.27874415595E+03  0.25500000000E-02 0.  1.
<mgrwt>
<rscale>  0 0.64351178E+02</rscale>
<asrwt>0</asrwt>
<pdfrwt beam="1">  1        1 0.46687500E-03 0.64351178E+02</pdfrwt>
<pdfrwt beam="2">  1       -1 0.52483849E-01 0.64351178E+02</pdfrwt>
<totfact> 0.14119071E+05</totfact>
</mgrwt>
</event>
<event>
 4    1  0.2051373E-002  0.5598385E+02  0.7818608E-02  0.1415503E+00
         -1   -1    0    0  501    0 -0.00000000000E+00  0.00000000000E+00  0.39852975660E+02  0.39852975979E+02  0.50400000000E-02 0.  1.
          1   -1    0    0    0  501  0.00000000000E+00 -0.00000000000E+00 -0.19660964005E+02  0.19660964651E+02  0.50400000000E-02 0.  1.
          2    1    1    2    0  502 -0.37322679173E+01  0.25321628696E+02 -0.19514304981E+01  0.25669491446E+02  0.25500000000E-02 0.  1.
         -2    1    1    2  502    0  0.37322679173E+01 -0.25321628696E+02  0.22143442153E+02  0.33844449183E+02  0.25500000000E-02 0.  1.
<mgrwt>
<rscale>  0 0.55983853E+02</rscale>
<asrwt>0</asrwt>
<pdfrwt beam="2">  1        1 0.30247638E-02 0.55983853E+02</pdfrwt>
<pdfrwt beam="1">  1       -1 0.61312271E-02 0.55983853E+02</pdfrwt>
<totfact> 0.31703970E+05</totfact>
</mgrwt>
</event>
<event>
 4    1  0.2051373E-002  0.4852672E+02  0.7818608E-02  0.1453454E+00
          1   -1    0    0    0  501  0.00000000000E+00  0.00000000000E+00  0.11642274406E+02  0.11642275497E+02  0.50400000000E-02 0.  1.
         -1   -1    0    0  501    0 -0.00000000000E+00 -0.00000000000E+00 -0.50566628158E+02  0.50566628409E+02  0.50400000000E-02 0.  1.
          2    1    1    2    0  502  0.40157113021E+01  0.22875800906E+02 -0.10462694868E+02  0.25473440969E+02  0.25500000000E-02 0. -1.
         -2    1    1    2  502    0 -0.40157113021E+01 -0.22875800906E+02 -0.28461658883E+02  0.36735462938E+02  0.25500000000E-02 0. -1.
<mgrwt>
<rscale>  0 0.48526719E+02</rscale>
<asrwt>0</asrwt>
<pdfrwt beam="1">  1        1 0.17911193E-02 0.48526719E+02</pdfrwt>
<pdfrwt beam="2">  1       -1 0.77794812E-02 0.48526719E+02</pdfrwt>
<totfact> 0.43925559E+05</totfact>
</mgrwt>
</event>
<event>
 4    1  0.2051373E-002  0.4111302E+02  0.7818608E-02  0.1500177E+00
         -1   -1    0    0  501    0 -0.00000000000E+00  0.00000000000E+00  0.53378532552E+03  0.53378532555E+03  0.50400000000E-02 0.  1.
          1   -1    0    0    0  501  0.00000000000E+00 -0.00000000000E+00 -0.79163988413E+00  0.79165592763E+00  0.50400000000E-02 0.  1.
          2    1    1    2    0  502  0.31206894510E+00 -0.20454336743E+02  0.24019178948E+03  0.24106134700E+03  0.25500000000E-02 0. -1.
         -2    1    1    2  502    0 -0.31206894510E+00  0.20454336743E+02  0.29280189616E+03  0.29351563447E+03  0.25500000000E-02 0. -1.
<mgrwt>
<rscale>  0 0.41113017E+02</rscale>
<asrwt>0</asrwt>
<pdfrwt beam="2">  1        1 0.12179177E-03 0.41113017E+02</pdfrwt>
<pdfrwt beam="1">  1       -1 0.82120968E-01 0.41113017E+02</pdfrwt>
<totfact> 0.33794445E+05</totfact>
</mgrwt>
</event>
<event>
 4    1  0.2051373E-002  0.6768936E+02  0.7818608E-02  0.1368132E+00
          1   -1    0    0    0  501  0.00000000000E+00  0.00000000000E+00  0.34197960130E+03  0.34197960134E+03  0.50400000000E-02 0.  1.
         -1   -1    0    0  501    0 -0.00000000000E+00 -0.00000000000E+00 -0.33495031731E+01  0.33495069649E+01  0.50400000000E-02 0.  1.
          2    1    1    2    0  502  0.35147472161E+01  0.24826714653E+02  0.53343847666E+02  0.58943068284E+02  0.25500000000E-02 0.  1.
         -2    1    1    2  502    0 -0.35147472161E+01 -0.24826714653E+02  0.28528625046E+03  0.28638604002E+03  0.25500000000E-02 0.  1.
<mgrwt>
<rscale>  0 0.67689362E+02</rscale>
<asrwt>0</asrwt>
<pdfrwt beam="1">  1        1 0.52612239E-01 0.67689362E+02</pdfrwt>
<pdfrwt beam="2">  1       -1 0.51530855E-03 0.67689362E+02</pdfrwt>
<totfact> 0.28640581E+05</totfact>
</mgrwt>
</event>
<event>
 4    1  0.2051373E-002  0.7564911E+02  0.7818608E-02  0.1341873E+00
          1   -1    0    0    0  501  0.00000000000E+00  0.00000000000E+00  0.20828502698E+02  0.20828503308E+02  0.50400000000E-02 0. -1.
         -1   -1    0    0  501    0 -0.00000000000E+00 -0.00000000000E+00 -0.68689373110E+02  0.68689373294E+02  0.50400000000E-02 0. -1.
          2    1    1    2    0  502  0.24689128348E+02 -0.24721230625E+02 -0.41078704315E+02  0.53927286756E+02  0.25500000000E-02 0. -1.
         -2    1    1    2  502    0 -0.24689128348E+02  0.24721230625E+02 -0.67821660961E+01  0.35590589847E+02  0.25500000000E-02 0. -1.
<mgrwt>
<rscale>  0 0.75649107E+02</rscale>
<asrwt>0</asrwt>
<pdfrwt beam="1">  1        1 0.32043851E-02 0.75649107E+02</pdfrwt>
<pdfrwt beam="2">  1       -1 0.10567596E-01 0.75649107E+02</pdfrwt>
<totfact> 0.13951415E+05</totfact>
</mgrwt>
</event>
<event>
 4    1  0.2051373E-002  0.4616044E+02  0.7818608E-02  0.1467225E+00
          1   -1    0    0    0  501  0.00000000000E+00  0.00000000000E+00  0.18608214350E+02  0.18608215032E+02  0.50400000000E-02 0.  1.
         -1   -1    0    0  501    0 -0.00000000000E+00 -0.00000000000E+00 -0.28626951642E+02  0.28626952086E+02  0.50400000000E-02 0.  1.
          2    1    1    2    0  502 -0.19701382593E+02 -0.81496556591E+01  0.40358414457E+01  0.21699064176E+02  0.25500000000E-02 0.  1.
         -2    1    1    2  502    0  0.19701382593E+02  0.81496556591E+01 -0.14054578738E+02  0.25536102942E+02  0.25500000000E-02 0.  1.
<mgrwt>
<rscale>  0 0.46160437E+02</rscale>
<asrwt>0</asrwt>
<pdfrwt beam="1">  1        1 0.28628023E-02 0.46160437E+02</pdfrwt>
<pdfrwt beam="2">  1       -1 0.44041465E-02 0.46160437E+02</pdfrwt>
<totfact> 0.52437986E+05</totfact>
</mgrwt>
</event>
<event>
 4    1  0.2051373E-002  0.5438908E+02  0.7818608E-02  0.1423010E+00
         -1   -1    0    0  501    0 -0.00000000000E+00  0.00000000000E+00  0.10904388643E+03  0.10904388654E+03  0.50400000000E-02 0. -1.
          1   -1    0    0    0  501  0.00000000000E+00 -0.00000000000E+00 -0.67820653494E+01  0.67820672221E+01  0.50400000000E-02 0. -1.
          2    1    1    2    0  502  0.23173918671E+02  0.98213885649E+01  0.73061740068E+02  0.77275533309E+02  0.25500000000E-02 0. -1.
         -2    1    1    2  502    0 -0.23173918671E+02 -0.98213885649E+01  0.29200081010E+02  0.38550420457E+02  0.25500000000E-02 0. -1.
<mgrwt>
<rscale>  0 0.54389075E+02</rscale>
<asrwt>0</asrwt>
<pdfrwt beam="2">  1        1 0.10433948E-02 0.54389075E+02</pdfrwt>
<pdfrwt beam="1">  1       -1 0.16775983E-01 0.54389075E+02</pdfrwt>
<totfact> 0.29756525E+05</totfact>
</mgrwt>
</event>
<event>
 4    1  0.2051373E-002  0.4149582E+02  0.7818608E-02  0.1497484E+00
          1   -1    0    0    0  501  0.00000000000E+00  0.00000000000E+00  0.12981851549E+01  0.12981949383E+01  0.50400000000E-02 0.  1.
         -1   -1    0    0  501    0 -0.00000000000E+00 -0.00000000000E+00 -0.33159684153E+03  0.33159684156E+03  0.50400000000E-02 0.  1.
          2    1    1    2    0  502  0.17303632831E+02  0.10909372999E+02 -0.19299240032E+03  0.19407343125E+03  0.25500000000E-02 0.  1.
         -2    1    1    2  502    0 -0.17303632831E+02 -0.10909372999E+02 -0.13730625605E+03  0.13882160525E+03  0.25500000000E-02 0.  1.
<mgrwt>
<rscale>  0 0.41495818E+02</rscale>
<asrwt>0</asrwt>
<pdfrwt beam="1">  1        1 0.19972181E-03 0.41495818E+02</pdfrwt>
<pdfrwt beam="2">  1       -1 0.51014832E-01 0.41495818E+02</pdfrwt>
<totfact> 0.42538153E+05</totfact>
</mgrwt>
</event>
<event>
 4    1  0.2051373E-002  0.4131035E+02  0.7818608E-02  0.1498784E+00
         -1   -1    0    0  501    0 -0.00000000000E+00  0.00000000000E+00  0.76875595789E+01  0.76875612310E+01  0.50400000000E-02 0.  1.
          1   -1    0    0    0  501  0.00000000000E+00 -0.00000000000E+00 -0.55496969099E+02  0.55496969328E+02  0.50400000000E-02 0.  1.
          2    1    1    2    0  502 -0.71549725608E+01 -0.18955126237E+02 -0.30050562927E+02  0.36242610029E+02  0.25500000000E-02 0.  1.
         -2    1    1    2  502    0  0.71549725608E+01  0.18955126237E+02 -0.17758846593E+02  0.26941920530E+02  0.25500000000E-02 0.  1.
<mgrwt>
<rscale>  0 0.41310353E+02</rscale>
<asrwt>0</asrwt>
<pdfrwt beam="2">  1        1 0.85379951E-02 0.41310353E+02</pdfrwt>
<pdfrwt beam="1">  1       -1 0.11827017E-02 0.41310353E+02</pdfrwt>
<totfact> 0.76164822E+05</totfact>
</mgrwt>
</event>
<event>
 4    1  0.2051373E-002  0.4172947E+02  0.7818608E-02  0.1495857E+00
         -1   -1    0    0  501    0 -0.00000000000E+00  0.00000000000E+00  0.15205665255E+02  0.15205666091E+02  0.50400000000E-02 0. -1.
          1   -1    0    0    0  501  0.00000000000E+00 -0.00000000000E+00 -0.28629928795E+02  0.28629929238E+02  0.50400000000E-02 0. -1.
          2    1    1    2    0  502 -0.17465070688E+02  0.11394802957E+02 -0.59943391111E+01  0.21697980008E+02  0.25500000000E-02 0. -1.
         -2    1    1    2  502    0  0.17465070688E+02 -0.11394802957E+02 -0.74299244284E+01  0.22137615321E+02  0.25500000000E-02 0. -1.
<mgrwt>
<rscale>  0 0.41729469E+02</rscale>
<asrwt>0</asrwt>
<pdfrwt beam="2">  1        1 0.44046045E-02 0.41729469E+02</pdfrwt>
<pdfrwt beam="1">  1       -1 0.23393332E-02 0.41729469E+02</pdfrwt>
<totfact> 0.70258954E+05</totfact>
</mgrwt>
</event>
<event>
 4    1  0.2051373E-002  0.4879912E+02  0.7818608E-02  0.1451928E+00
          1   -1    0    0    0  501  0.00000000000E+00  0.00000000000E+00  0.43776422423E+00  0.43779323615E+00  0.50400000000E-02 0.  1.
         -1   -1    0    0  501    0 -0.00000000000E+00 -0.00000000000E+00 -0.13599074861E+04  0.13599074861E+04  0.50400000000E-02 0.  1.
          2    1    1    2    0  502 -0.20737622552E+02 -0.12856266819E+02 -0.68189289876E+03  0.68232928852E+03  0.25500000000E-02 0. -1.
         -2    1    1    2  502    0  0.20737622552E+02  0.12856266819E+02 -0.67757682308E+03  0.67801599079E+03  0.25500000000E-02 0. -1.
<mgrwt>
<rscale>  0 0.48799122E+02</rscale>
<asrwt>0</asrwt>
<pdfrwt beam="1">  1        1 0.67351663E-04 0.48799122E+02</pdfrwt>
<pdfrwt beam="2">  1       -1 0.20921316E+00 0.48799122E+02</pdfrwt>
<totfact> 0.81628606E+04</totfact>
</mgrwt>
</event>
<event>
 4    1  0.2051373E-002  0.4980920E+02  0.7818608E-02  0.1446373E+00
          1   -1    0    0    0  501  0.00000000000E+00  0.00000000000E+00  0.40663281894E+03  0.40663281897E+03  0.50400000000E-02 0.  1.
         -1   -1    0    0  501    0 -0.00000000000E+00 -0.00000000000E+00 -0.15253010459E+01  0.15253093726E+01  0.50400000000E-02 0.  1.
          2    1    1    2    0  502  0.10440613244E+02  0.17521126812E+02  0.85444208104E+02  0.87844800613E+02  0.25500000000E-02 0.  1.
         -2    1    1    2  502    0 -0.10440613244E+02 -0.17521126812E+02  0.31966330979E+03  0.32031332773E+03  0.25500000000E-02 0.  1.
<mgrwt>
<rscale>  0 0.49809203E+02</rscale>
<asrwt>0</asrwt>
<pdfrwt beam="1">  1        1 0.62558937E-01 0.49809203E+02</pdfrwt>
<pdfrwt beam="2">  1       -1 0.23466219E-03 0.49809203E+02</pdfrwt>
<totfact> 0.64041296E+05</totfact>
</mgrwt>
</event>
<event>
 4    1  0.2051373E-002  0.6867721E+02  0.7818608E-02  0.1364650E+00
          1   -1    0    0    0  501  0.00000000000E+00  0.00000000000E+00  0.12648566640E+04  0.12648566641E+04  0.50400000000E-02 0. -1.
         -1   -1    0    0  501    0 -0.00000000000E+00 -0.00000000000E+00 -0.93222499224E+00  0.93223861632E+00  0.50400000000E-02 0. -1.
          2    1    1    2    0  502  0.22934783703E+02  0.66648845757E+01  0.10866942437E+04  0.10869566708E+04  0.25500000000E-02 0. -1.
         -2    1    1    2  502    0 -0.22934783703E+02 -0.66648845757E+01  0.17723019536E+03  0.17883223183E+03  0.25500000000E-02 0. -1.
<mgrwt>
<rscale>  0 0.68677205E+02</rscale>
<asrwt>0</asrwt>
<pdfrwt beam="1">  1        1 0.19459340E+00 0.68677205E+02</pdfrwt>
<pdfrwt beam="2">  1       -1 0.14342023E-03 0.68677205E+02</pdfrwt>
<totfact> 0.25964205E+05</totfact>
</mgrwt>
</event>
<event>
 4    1  0.2051373E-002  0.4847096E+02  0.7818608E-02  0.1453768E+00
          1   -1    0    0    0  501  0.00000000000E+00  0.00000000000E+00  0.11526154697E+04  0.11526154697E+04  0.50400000000E-02 0. -1.
         -1   -1    0    0  501    0 -0.00000000000E+00 -0.00000000000E+00 -0.50957517063E+00  0.50960009431E+00  0.50400000000E-02 0. -1.
          2    1    1    2    0  502  0.17955188667E+02  0.10051077644E+02  0.27144258148E+03  0.27222139521E+03  0.25500000000E-02 0.  1.
         -2    1    1    2  502    0 -0.17955188667E+02 -0.10051077644E+02  0.88066331304E+03  0.88090367458E+03  0.25500000000E-02 0.  1.
<mgrwt>
<rscale>  0 0.48470965E+02</rscale>
<asrwt>0</asrwt>
<pdfrwt beam="1">  1        1 0.17732355E+00 0.48470965E+02</pdfrwt>
<pdfrwt beam="2">  1       -1 0.78398941E-04 0.48470965E+02</pdfrwt>
<totfact> 0.65374569E+05</totfact>
</mgrwt>
</event>
<event>
 4    1  0.2051373E-002  0.4039530E+02  0.7818608E-02  0.1505322E+00
         -1   -1    0    0  501    0 -0.00000000000E+00  0.00000000000E+00  0.87525602966E+02  0.87525603111E+02  0.50400000000E-02 0. -1.
          1   -1    0    0    0  501  0.00000000000E+00 -0.00000000000E+00 -0.46608637529E+01  0.46608664779E+01  0.50400000000E-02 0. -1.
          2    1    1    2    0  502 -0.19439234946E+02  0.53561846403E+01  0.38758825839E+02  0.43690034975E+02  0.25500000000E-02 0.  1.
         -2    1    1    2  502    0  0.19439234946E+02 -0.53561846403E+01  0.44105913374E+02  0.48496434614E+02  0.25500000000E-02 0.  1.
<mgrwt>
<rscale>  0 0.40395299E+02</rscale>
<asrwt>0</asrwt>
<pdfrwt beam="2">  1        1 0.71705626E-03 0.40395299E+02</pdfrwt>
<pdfrwt beam="1">  1       -1 0.13465476E-01 0.40395299E+02</pdfrwt>
<totfact> 0.64050092E+05</totfact>
</mgrwt>
</event>
<event>
 4    1  0.2051373E-002  0.1226205E+03  0.7818608E-02  0.1238836E+00
          1   -1    0    0    0  501  0.00000000000E+00  0.00000000000E+00  0.75274631479E+02  0.75274631648E+02  0.50400000000E-02 0.  1.
         -1   -1    0    0  501    0 -0.00000000000E+00 -0.00000000000E+00 -0.49936453916E+02  0.49936454170E+02  0.50400000000E-02 0.  1.
          2    1    1    2    0  502  0.75721884290E+01  0.26000339113E+02 -0.43498377661E+02  0.51239287048E+02  0.25500000000E-02 0. -1.
         -2    1    1    2  502    0 -0.75721884290E+01 -0.26000339113E+02  0.68836555224E+02  0.73971798769E+02  0.25500000000E-02 0. -1.
<mgrwt>
<rscale>  0 0.12262052E+03</rscale>
<asrwt>0</asrwt>
<pdfrwt beam="1">  1        1 0.11580713E-01 0.12262052E+03</pdfrwt>
<pdfrwt beam="2">  1       -1 0.76825314E-02 0.12262052E+03</pdfrwt>
<totfact> 0.43355526E+04</totfact>
</mgrwt>
</event>
<event>
 4    1  0.2051373E-002  0.6305380E+02  0.7818608E-02  0.1385446E+00
          1   -1    0    0    0  501  0.00000000000E+00  0.00000000000E+00  0.50211937756E+03  0.50211937759E+03  0.50400000000E-02 0.  1.
         -1   -1    0    0  501    0 -0.00000000000E+00 -0.00000000000E+00 -0.19794970817E+01  0.19795034979E+01  0.50400000000E-02 0.  1.
          2    1    1    2    0  502 -0.19677387468E+02  0.17549795651E+02  0.38825427732E+03  0.38914853048E+03  0.25500000000E-02 0.  1.
         -2    1    1    2  502    0  0.19677387468E+02 -0.17549795651E+02  0.11188560316E+03  0.11495035061E+03  0.25500000000E-02 0.  1.
<mgrwt>
<rscale>  0 0.63053801E+02</rscale>
<asrwt>0</asrwt>
<pdfrwt beam="1">  1        1 0.77249174E-01 0.63053801E+02</pdfrwt>
<pdfrwt beam="2">  1       -1 0.30453836E-03 0.63053801E+02</pdfrwt>
<totfact> 0.36358274E+05</totfact>
</mgrwt>
</event>
<event>
 4    1  0.2051373E-002  0.5578593E+02  0.7818608E-02  0.1416418E+00
          1   -1    0    0    0  501  0.00000000000E+00  0.00000000000E+00  0.42857343348E+02  0.42857343644E+02  0.50400000000E-02 0.  1.
         -1   -1    0    0  501    0 -0.00000000000E+00 -0.00000000000E+00 -0.18153658647E+02  0.18153659347E+02  0.50400000000E-02 0.  1.
          2    1    1    2    0  502 -0.19447010195E+02  0.18520139937E+02  0.20596915395E+02  0.33843976112E+02  0.25500000000E-02 0.  1.
         -2    1    1    2  502    0  0.19447010195E+02 -0.18520139937E+02  0.41067693051E+01  0.27167026879E+02  0.25500000000E-02 0.  1.
<mgrwt>
<rscale>  0 0.55785934E+02</rscale>
<asrwt>0</asrwt>
<pdfrwt beam="1">  1        1 0.65934374E-02 0.55785934E+02</pdfrwt>
<pdfrwt beam="2">  1       -1 0.27928707E-02 0.55785934E+02</pdfrwt>
<totfact> 0.34613731E+05</totfact>
</mgrwt>
</event>
<event>
 4    1  0.2051373E-002  0.7418892E+02  0.7818608E-02  0.1346401E+00
         -1   -1    0    0  501    0 -0.00000000000E+00  0.00000000000E+00  0.85604284700E+01  0.85604299536E+01  0.50400000000E-02 0.  1.
          1   -1    0    0    0  501  0.00000000000E+00 -0.00000000000E+00 -0.16073950013E+03  0.16073950021E+03  0.50400000000E-02 0.  1.
          2    1    1    2    0  502  0.25091881486E+02  0.19423128813E+02 -0.32245302968E+02  0.45239584651E+02  0.25500000000E-02 0. -1.
         -2    1    1    2  502    0 -0.25091881486E+02 -0.19423128813E+02 -0.11993376869E+03  0.12406034551E+03  0.25500000000E-02 0. -1.
<mgrwt>
<rscale>  0 0.74188924E+02</rscale>
<asrwt>0</asrwt>
<pdfrwt beam="2">  1        1 0.24729152E-01 0.74188924E+02</pdfrwt>
<pdfrwt beam="1">  1       -1 0.13169892E-02 0.74188924E+02</pdfrwt>
<totfact> 0.19658869E+05</totfact>
</mgrwt>
</event>
<event>
 4    1  0.2051373E-002  0.6491467E+02  0.7818608E-02  0.1378293E+00
          1   -1    0    0    0  501  0.00000000000E+00  0.00000000000E+00  0.16162052054E+03  0.16162052062E+03  0.50400000000E-02 0.  1.
         -1   -1    0    0  501    0 -0.00000000000E+00 -0.00000000000E+00 -0.65182212429E+01  0.65182231915E+01  0.50400000000E-02 0.  1.
          2    1    1    2    0  502  0.86701605542E+01  0.22510157183E+02  0.13379974592E+03  0.13595679783E+03  0.25500000000E-02 0. -1.
         -2    1    1    2  502    0 -0.86701605542E+01 -0.22510157183E+02  0.21302553378E+02  0.32181945984E+02  0.25500000000E-02 0. -1.
<mgrwt>
<rscale>  0 0.64914666E+02</rscale>
<asrwt>0</asrwt>
<pdfrwt beam="1">  1        1 0.24864693E-01 0.64914666E+02</pdfrwt>
<pdfrwt beam="2">  1       -1 0.10028035E-02 0.64914666E+02</pdfrwt>
<totfact> 0.27876737E+05</totfact>
</mgrwt>
</event>
<event>
 4    1  0.2051373E-002  0.9347427E+02  0.7818608E-02  0.1294650E+00
          1   -1    0    0    0  501  0.00000000000E+00  0.00000000000E+00  0.22882142891E+04  0.22882142891E+04  0.50400000000E-02 0. -1.
         -1   -1    0    0  501    0 -0.00000000000E+00 -0.00000000000E+00 -0.95460662790E+00  0.95461993255E+00  0.50400000000E-02 0. -1.
          2    1    1    2    0  502 -0.27452129341E+02  0.33977470501E+02  0.15506857613E+04  0.15513008793E+04  0.25500000000E-02 0.  1.
         -2    1    1    2  502    0  0.27452129341E+02 -0.33977470501E+02  0.73657392120E+03  0.73786802974E+03  0.25500000000E-02 0.  1.
<mgrwt>
<rscale>  0 0.93474269E+02</rscale>
<asrwt>0</asrwt>
<pdfrwt beam="1">  1        1 0.35203001E+00 0.93474269E+02</pdfrwt>
<pdfrwt beam="2">  1       -1 0.14686482E-03 0.93474269E+02</pdfrwt>
<totfact> 0.59164959E+04</totfact>
</mgrwt>
</event>
<event>
 4    1  0.2051373E-002  0.4435863E+02  0.7818608E-02  0.1478386E+00
         -1   -1    0    0  501    0 -0.00000000000E+00  0.00000000000E+00  0.41901876685E+00  0.41904907657E+00  0.50400000000E-02 0.  1.
          1   -1    0    0    0  501  0.00000000000E+00 -0.00000000000E+00 -0.11739433012E+04  0.11739433012E+04  0.50400000000E-02 0.  1.
          2    1    1    2    0  502  0.45937422845E+01  0.21348716375E+02 -0.48405046682E+03  0.48454279955E+03  0.25500000000E-02 0. -1.
         -2    1    1    2  502    0 -0.45937422845E+01 -0.21348716375E+02 -0.68947381558E+03  0.68981955071E+03  0.25500000000E-02 0. -1.
<mgrwt>
<rscale>  0 0.44358633E+02</rscale>
<asrwt>0</asrwt>
<pdfrwt beam="2">  1        1 0.18060403E+00 0.44358633E+02</pdfrwt>
<pdfrwt beam="1">  1       -1 0.64467698E-04 0.44358633E+02</pdfrwt>
<totfact> 0.80710710E+05</totfact>
</mgrwt>
</event>
<event>
 4    1  0.2051373E-002  0.5050943E+02  0.7818608E-02  0.1442613E+00
          1   -1    0    0    0  501  0.00000000000E+00  0.00000000000E+00  0.72337272640E+01  0.72337290198E+01  0.50400000000E-02 0. -1.
         -1   -1    0    0  501    0 -0.00000000000E+00 -0.00000000000E+00 -0.88170387317E+02  0.88170387461E+02  0.50400000000E-02 0. -1.
          2    1    1    2    0  502 -0.24514049633E+02  0.41357262254E+01 -0.48864156963E+02  0.54824708873E+02  0.25500000000E-02 0. -1.
         -2    1    1    2  502    0  0.24514049633E+02 -0.41357262254E+01 -0.32072503090E+02  0.40579407607E+02  0.25500000000E-02 0. -1.
<mgrwt>
<rscale>  0 0.50509430E+02</rscale>
<asrwt>0</asrwt>
<pdfrwt beam="1">  1        1 0.11128813E-02 0.50509430E+02</pdfrwt>
<pdfrwt beam="2">  1       -1 0.13564674E-01 0.50509430E+02</pdfrwt>
<totfact> 0.37035323E+05</totfact>
</mgrwt>
</event>
<event>
 4    1  0.2051373E-002  0.4013716E+02  0.7818608E-02  0.1507205E+00
         -1   -1    0    0  501    0 -0.00000000000E+00  0.00000000000E+00  0.11630704369E+02  0.11630705461E+02  0.50400000000E-02 0. -1.
          1   -1    0    0    0  501  0.00000000000E+00 -0.00000000000E+00 -0.34627989458E+02  0.34627989825E+02  0.50400000000E-02 0. -1.
          2    1    1    2    0  502 -0.20026188626E+02  0.23214996017E+00 -0.12977194880E+02  0.23864402736E+02  0.25500000000E-02 0.  1.
         -2    1    1    2  502    0  0.20026188626E+02 -0.23214996017E+00 -0.10020090210E+02  0.22394292550E+02  0.25500000000E-02 0.  1.
<mgrwt>
<rscale>  0 0.40137162E+02</rscale>
<asrwt>0</asrwt>
<pdfrwt beam="2">  1        1 0.53273831E-02 0.40137162E+02</pdfrwt>
<pdfrwt beam="1">  1       -1 0.17893393E-02 0.40137162E+02</pdfrwt>
<totfact> 0.78589597E+05</totfact>
</mgrwt>
</event>
<event>
 4    1  0.2051373E-002  0.5182457E+02  0.7818608E-02  0.1435742E+00
         -1   -1    0    0  501    0 -0.00000000000E+00  0.00000000000E+00  0.57225007966E+01  0.57225030160E+01  0.50400000000E-02 0. -1.
          1   -1    0    0    0  501  0.00000000000E+00 -0.00000000000E+00 -0.11733443016E+03  0.11733443027E+03  0.50400000000E-02 0. -1.
          2    1    1    2    0  502  0.19790137055E+02 -0.12990943980E+02 -0.30785512194E+02  0.38835060418E+02  0.25500000000E-02 0. -1.
         -2    1    1    2  502    0 -0.19790137055E+02  0.12990943980E+02 -0.80826417166E+02  0.84221872863E+02  0.25500000000E-02 0. -1.
<mgrwt>
<rscale>  0 0.51824570E+02</rscale>
<asrwt>0</asrwt>
<pdfrwt beam="2">  1        1 0.18051449E-01 0.51824570E+02</pdfrwt>
<pdfrwt beam="1">  1       -1 0.88038500E-03 0.51824570E+02</pdfrwt>
<totfact> 0.47161424E+05</totfact>
</mgrwt>
</event>
<event>
 4    1  0.2051373E-002  0.5720924E+02  0.7818608E-02  0.1409931E+00
         -1   -1    0    0  501    0 -0.00000000000E+00  0.00000000000E+00  0.20504781904E+02  0.20504782524E+02  0.50400000000E-02 0. -1.
          1   -1    0    0    0  501  0.00000000000E+00 -0.00000000000E+00 -0.39904070587E+02  0.39904070905E+02  0.50400000000E-02 0. -1.
          2    1    1    2    0  502 -0.19289684657E+02 -0.94769167748E+01  0.10232533637E+02  0.23803542527E+02  0.25500000000E-02 0.  1.
         -2    1    1    2  502    0  0.19289684657E+02  0.94769167748E+01 -0.29631822319E+02  0.36605310901E+02  0.25500000000E-02 0.  1.
<mgrwt>
<rscale>  0 0.57209240E+02</rscale>
<asrwt>0</asrwt>
<pdfrwt beam="2">  1        1 0.61390879E-02 0.57209240E+02</pdfrwt>
<pdfrwt beam="1">  1       -1 0.31545819E-02 0.57209240E+02</pdfrwt>
<totfact> 0.32173550E+05</totfact>
</mgrwt>
</event>
<event>
 4    1  0.2051373E-002  0.5550207E+02  0.7818608E-02  0.1417739E+00
         -1   -1    0    0  501    0 -0.00000000000E+00  0.00000000000E+00  0.84179770053E+01  0.84179785140E+01  0.50400000000E-02 0.  1.
          1   -1    0    0    0  501  0.00000000000E+00 -0.00000000000E+00 -0.91485159278E+02  0.91485159417E+02  0.50400000000E-02 0.  1.
          2    1    1    2    0  502 -0.17798720677E+02  0.21130802079E+02 -0.46232490192E+02  0.53858596437E+02  0.25500000000E-02 0. -1.
         -2    1    1    2  502    0  0.17798720677E+02 -0.21130802079E+02 -0.36834692081E+02  0.46044541495E+02  0.25500000000E-02 0. -1.
<mgrwt>
<rscale>  0 0.55502074E+02</rscale>
<asrwt>0</asrwt>
<pdfrwt beam="2">  1        1 0.14074639E-01 0.55502074E+02</pdfrwt>
<pdfrwt beam="1">  1       -1 0.12950736E-02 0.55502074E+02</pdfrwt>
<totfact> 0.38261706E+05</totfact>
</mgrwt>
</event>
<event>
 4    1  0.2051373E-002  0.4626327E+02  0.7818608E-02  0.1466606E+00
          1   -1    0    0    0  501  0.00000000000E+00  0.00000000000E+00  0.17165779698E+02  0.17165780437E+02  0.50400000000E-02 0. -1.
         -1   -1    0    0  501    0 -0.00000000000E+00 -0.00000000000E+00 -0.31170882977E+02  0.31170883384E+02  0.50400000000E-02 0. -1.
          2    1    1    2    0  502  0.63776742116E+01 -0.21903984470E+02 -0.10996606364E+02  0.25325572492E+02  0.25500000000E-02 0. -1.
         -2    1    1    2  502    0 -0.63776742116E+01  0.21903984470E+02 -0.30084969155E+01  0.23011091330E+02  0.25500000000E-02 0. -1.
<mgrwt>
<rscale>  0 0.46263270E+02</rscale>
<asrwt>0</asrwt>
<pdfrwt beam="1">  1        1 0.26408893E-02 0.46263270E+02</pdfrwt>
<pdfrwt beam="2">  1       -1 0.47955205E-02 0.46263270E+02</pdfrwt>
<totfact> 0.51765569E+05</totfact>
</mgrwt>
</event>
<event>
 4    1  0.2051373E-002  0.5937447E+02  0.7818608E-02  0.1400476E+00
          1   -1    0    0    0  501  0.00000000000E+00  0.00000000000E+00  0.12213208771E+04  0.12213208771E+04  0.50400000000E-02 0. -1.
         -1   -1    0    0  501    0 -0.00000000000E+00 -0.00000000000E+00 -0.72161320539E+00  0.72163080574E+00  0.50400000000E-02 0. -1.
          2    1    1    2    0  502  0.14690735888E+02 -0.17678058187E+02  0.22359957191E+03  0.22477789044E+03  0.25500000000E-02 0. -1.
         -2    1    1    2  502    0 -0.14690735888E+02  0.17678058187E+02  0.99699969202E+03  0.99726461752E+03  0.25500000000E-02 0. -1.
<mgrwt>
<rscale>  0 0.59374474E+02</rscale>
<asrwt>0</asrwt>
<pdfrwt beam="1">  1        1 0.18789403E+00 0.59374474E+02</pdfrwt>
<pdfrwt beam="2">  1       -1 0.11101965E-03 0.59374474E+02</pdfrwt>
<totfact> 0.38323809E+05</totfact>
</mgrwt>
</event>
<event>
 4    1  0.2051373E-002  0.6633961E+02  0.7818608E-02  0.1373002E+00
          1   -1    0    0    0  501  0.00000000000E+00  0.00000000000E+00  0.20892896686E+01  0.20892957476E+01  0.50400000000E-02 0.  1.
         -1   -1    0    0  501    0 -0.00000000000E+00 -0.00000000000E+00 -0.52660693642E+03  0.52660693644E+03  0.50400000000E-02 0.  1.
          2    1    1    2    0  502  0.30444316842E+02  0.11460271706E+02 -0.31393303366E+03  0.31561391587E+03  0.25500000000E-02 0. -1.
         -2    1    1    2  502    0 -0.30444316842E+02 -0.11460271706E+02 -0.21058461308E+03  0.21308231632E+03  0.25500000000E-02 0. -1.
<mgrwt>
<rscale>  0 0.66339612E+02</rscale>
<asrwt>0</asrwt>
<pdfrwt beam="1">  1        1 0.32143007E-03 0.66339612E+02</pdfrwt>
<pdfrwt beam="2">  1       -1 0.81016346E-01 0.66339612E+02</pdfrwt>
<totfact> 0.10369677E+05</totfact>
</mgrwt>
</event>
<event>
 4    1  0.2051373E-002  0.4199325E+02  0.7818608E-02  0.1494035E+00
          1   -1    0    0    0  501  0.00000000000E+00  0.00000000000E+00  0.23823643053E+03  0.23823643058E+03  0.50400000000E-02 0. -1.
         -1   -1    0    0  501    0 -0.00000000000E+00 -0.00000000000E+00 -0.18505035068E+01  0.18505103702E+01  0.50400000000E-02 0. -1.
          2    1    1    2    0  502  0.21695951227E+00  0.20864998273E+02  0.10483000296E+03  0.10688650406E+03  0.25500000000E-02 0. -1.
         -2    1    1    2  502    0 -0.21695951227E+00 -0.20864998273E+02  0.13155592406E+03  0.13320043689E+03  0.25500000000E-02 0. -1.
<mgrwt>
<rscale>  0 0.41993246E+02</rscale>
<asrwt>0</asrwt>
<pdfrwt beam="1">  1        1 0.36651740E-01 0.41993246E+02</pdfrwt>
<pdfrwt beam="2">  1       -1 0.28469353E-03 0.41993246E+02</pdfrwt>
<totfact> 0.89225285E+05</totfact>
</mgrwt>
</event>
<event>
 4    1  0.2051373E-002  0.5030592E+02  0.7818608E-02  0.1443698E+00
          1   -1    0    0    0  501  0.00000000000E+00  0.00000000000E+00  0.33629879837E+03  0.33629879841E+03  0.50400000000E-02 0.  1.
         -1   -1    0    0  501    0 -0.00000000000E+00 -0.00000000000E+00 -0.18812738725E+01  0.18812806236E+01  0.50400000000E-02 0.  1.
          2    1    1    2    0  502  0.33751973654E+01  0.24354258708E+02  0.13154200648E+03  0.13382010816E+03  0.25500000000E-02 0. -1.
         -2    1    1    2  502    0 -0.33751973654E+01 -0.24354258708E+02  0.20287551803E+03  0.20435997087E+03  0.25500000000E-02 0. -1.
<mgrwt>
<rscale>  0 0.50305916E+02</rscale>
<asrwt>0</asrwt>
<pdfrwt beam="1">  1        1 0.51738301E-01 0.50305916E+02</pdfrwt>
<pdfrwt beam="2">  1       -1 0.28942714E-03 0.50305916E+02</pdfrwt>
<totfact> 0.60622137E+05</totfact>
</mgrwt>
</event>
<event>
 4    1  0.2051373E-002  0.5399871E+02  0.7818608E-02  0.1424894E+00
          1   -1    0    0    0  501  0.00000000000E+00  0.00000000000E+00  0.32092089864E+03  0.32092089868E+03  0.50400000000E-02 0. -1.
         -1   -1    0    0  501    0 -0.00000000000E+00 -0.00000000000E+00 -0.22714760335E+01  0.22714816250E+01  0.50400000000E-02 0. -1.
          2    1    1    2    0  502 -0.22272998329E+02 -0.15204901415E+02  0.16710442332E+03  0.16926654655E+03  0.25500000000E-02 0.  1.
         -2    1    1    2  502    0  0.22272998329E+02  0.15204901415E+02  0.15154499928E+03  0.15392583375E+03  0.25500000000E-02 0.  1.
<mgrwt>
<rscale>  0 0.53998705E+02</rscale>
<asrwt>0</asrwt>
<pdfrwt beam="1">  1        1 0.49372458E-01 0.53998705E+02</pdfrwt>
<pdfrwt beam="2">  1       -1 0.34945820E-03 0.53998705E+02</pdfrwt>
<totfact> 0.50366574E+05</totfact>
</mgrwt>
</event>
<event>
 4    1  0.2051373E-002  0.4351110E+02  0.7818608E-02  0.1483856E+00
          1   -1    0    0    0  501  0.00000000000E+00  0.00000000000E+00  0.31976909109E+00  0.31980880729E+00  0.50400000000E-02 0.  1.
         -1   -1    0    0  501    0 -0.00000000000E+00 -0.00000000000E+00 -0.14800512609E+04  0.14800512609E+04  0.50400000000E-02 0.  1.
          2    1    1    2    0  502  0.16738793782E+02  0.13279997097E+02 -0.87914553501E+03  0.87940514968E+03  0.25500000000E-02 0.  1.
         -2    1    1    2  502    0 -0.16738793782E+02 -0.13279997097E+02 -0.60058595678E+03  0.60096592002E+03  0.25500000000E-02 0.  1.
<mgrwt>
<rscale>  0 0.43511104E+02</rscale>
<asrwt>0</asrwt>
<pdfrwt beam="1">  1        1 0.49199486E-04 0.43511104E+02</pdfrwt>
<pdfrwt beam="2">  1       -1 0.22769471E+00 0.43511104E+02</pdfrwt>
<totfact> 0.93216551E+04</totfact>
</mgrwt>
</event>
<event>
 4    1  0.2051373E-002  0.4269275E+02  0.7818608E-02  0.1489282E+00
          1   -1    0    0    0  501  0.00000000000E+00  0.00000000000E+00  0.23909893800E+03  0.23909893805E+03  0.50400000000E-02 0. -1.
         -1   -1    0    0  501    0 -0.00000000000E+00 -0.00000000000E+00 -0.19057669519E+01  0.19057736163E+01  0.50400000000E-02 0. -1.
          2    1    1    2    0  502  0.19743324887E+02 -0.81066513694E+01  0.11640309484E+03  0.11834355567E+03  0.25500000000E-02 0.  1.
         -2    1    1    2  502    0 -0.19743324887E+02  0.81066513694E+01  0.12079007621E+03  0.12266115600E+03  0.25500000000E-02 0.  1.
<mgrwt>
<rscale>  0 0.42692747E+02</rscale>
<asrwt>0</asrwt>
<pdfrwt beam="1">  1        1 0.36784470E-01 0.42692747E+02</pdfrwt>
<pdfrwt beam="2">  1       -1 0.29319529E-03 0.42692747E+02</pdfrwt>
<totfact> 0.85743049E+05</totfact>
</mgrwt>
</event>
<event>
 4    1  0.2051373E-002  0.4518438E+02  0.7818608E-02  0.1473194E+00
          1   -1    0    0    0  501  0.00000000000E+00  0.00000000000E+00  0.63528344857E+01  0.63528364849E+01  0.50400000000E-02 0. -1.
         -1   -1    0    0  501    0 -0.00000000000E+00 -0.00000000000E+00 -0.80343179627E+02  0.80343179785E+02  0.50400000000E-02 0. -1.
          2    1    1    2    0  502  0.64185050023E+01  0.21659837456E+02 -0.36520337202E+02  0.42942761916E+02  0.25500000000E-02 0. -1.
         -2    1    1    2  502    0 -0.64185050023E+01 -0.21659837456E+02 -0.37470007939E+02  0.43753254354E+02  0.25500000000E-02 0. -1.
<mgrwt>
<rscale>  0 0.45184379E+02</rscale>
<asrwt>0</asrwt>
<pdfrwt beam="1">  1        1 0.97735937E-03 0.45184379E+02</pdfrwt>
<pdfrwt beam="2">  1       -1 0.12360489E-01 0.45184379E+02</pdfrwt>
<totfact> 0.49382648E+05</totfact>
</mgrwt>
</event>
<event>
 4    1  0.2051373E-002  0.5079607E+02  0.7818608E-02  0.1441094E+00
          1   -1    0    0    0  501  0.00000000000E+00  0.00000000000E+00  0.73911871985E+02  0.73911872157E+02  0.50400000000E-02 0.  1.
         -1   -1    0    0  501    0 -0.00000000000E+00 -0.00000000000E+00 -0.87274235892E+01  0.87274250445E+01  0.50400000000E-02 0.  1.
          2    1    1    2    0  502  0.15486817892E+02 -0.19716836008E+02  0.25990779531E+02  0.36112543219E+02  0.25500000000E-02 0. -1.
         -2    1    1    2  502    0 -0.15486817892E+02  0.19716836008E+02  0.39193668864E+02  0.46526753982E+02  0.25500000000E-02 0. -1.
<mgrwt>
<rscale>  0 0.50796074E+02</rscale>
<asrwt>0</asrwt>
<pdfrwt beam="1">  1        1 0.11371057E-01 0.50796074E+02</pdfrwt>
<pdfrwt beam="2">  1       -1 0.13426807E-02 0.50796074E+02</pdfrwt>
<totfact> 0.46710840E+05</totfact>
</mgrwt>
</event>
<event>
 4    1  0.2051373E-002  0.4603757E+02  0.7818608E-02  0.1467966E+00
          1   -1    0    0    0  501  0.00000000000E+00  0.00000000000E+00  0.22336939415E+01  0.22336996275E+01  0.50400000000E-02 0.  1.
         -1   -1    0    0  501    0 -0.00000000000E+00 -0.00000000000E+00 -0.23721412686E+03  0.23721412692E+03  0.50400000000E-02 0.  1.
          2    1    1    2    0  502 -0.17235457911E+02  0.11012642659E+02 -0.17241709073E+03  0.17362601329E+03  0.25500000000E-02 0. -1.
         -2    1    1    2  502    0  0.17235457911E+02 -0.11012642659E+02 -0.62563342190E+02  0.65821813255E+02  0.25500000000E-02 0. -1.
<mgrwt>
<rscale>  0 0.46037569E+02</rscale>
<asrwt>0</asrwt>
<pdfrwt beam="1">  1        1 0.34364585E-03 0.46037569E+02</pdfrwt>
<pdfrwt beam="2">  1       -1 0.36494462E-01 0.46037569E+02</pdfrwt>
<totfact> 0.37354498E+05</totfact>
</mgrwt>
</event>
<event>
 4    1  0.2051373E-002  0.8855911E+02  0.7818608E-02  0.1306379E+00
          1   -1    0    0    0  501  0.00000000000E+00  0.00000000000E+00  0.14603849429E+03  0.14603849438E+03  0.50400000000E-02 0.  1.
         -1   -1    0    0  501    0 -0.00000000000E+00 -0.00000000000E+00 -0.13425768640E+02  0.13425769586E+02  0.50400000000E-02 0.  1.
          2    1    1    2    0  502  0.11148834592E+02 -0.21206970806E+02  0.13335856898E+03  0.13549369008E+03  0.25500000000E-02 0. -1.
         -2    1    1    2  502    0 -0.11148834592E+02  0.21206970806E+02 -0.74584333366E+00  0.23970573884E+02  0.25500000000E-02 0. -1.
<mgrwt>
<rscale>  0 0.88559113E+02</rscale>
<asrwt>0</asrwt>
<pdfrwt beam="1">  1        1 0.22467461E-01 0.88559113E+02</pdfrwt>
<pdfrwt beam="2">  1       -1 0.20655029E-02 0.88559113E+02</pdfrwt>
<totfact> 0.12068930E+05</totfact>
</mgrwt>
</event>
<event>
 4    1  0.2051373E-002  0.5097903E+02  0.7818608E-02  0.1440131E+00
         -1   -1    0    0  501    0 -0.00000000000E+00  0.00000000000E+00  0.24719807592E+03  0.24719807597E+03  0.50400000000E-02 0.  1.
          1   -1    0    0    0  501  0.00000000000E+00 -0.00000000000E+00 -0.26283162089E+01  0.26283210412E+01  0.50400000000E-02 0.  1.
          2    1    1    2    0  502 -0.24730877172E+02  0.41468305763E+01  0.99879657674E+02  0.10297940820E+03  0.25500000000E-02 0. -1.
         -2    1    1    2  502    0  0.24730877172E+02 -0.41468305763E+01  0.14469010204E+03  0.14684698881E+03  0.25500000000E-02 0. -1.
<mgrwt>
<rscale>  0 0.50979028E+02</rscale>
<asrwt>0</asrwt>
<pdfrwt beam="2">  1        1 0.40435671E-03 0.50979028E+02</pdfrwt>
<pdfrwt beam="1">  1       -1 0.38030474E-01 0.50979028E+02</pdfrwt>
<totfact> 0.28654619E+05</totfact>
</mgrwt>
</event>
<event>
 4    1  0.2051373E-002  0.4061443E+02  0.7818608E-02  0.1503738E+00
          1   -1    0    0    0  501  0.00000000000E+00  0.00000000000E+00  0.83091542243E+01  0.83091557528E+01  0.50400000000E-02 0. -1.
         -1   -1    0    0  501    0 -0.00000000000E+00 -0.00000000000E+00 -0.49629959818E+02  0.49629960074E+02  0.50400000000E-02 0. -1.
          2    1    1    2    0  502  0.17339764379E+02  0.10569510129E+02 -0.20706900271E+02  0.29002718811E+02  0.25500000000E-02 0.  1.
         -2    1    1    2  502    0 -0.17339764379E+02 -0.10569510129E+02 -0.20613905323E+02  0.28936397016E+02  0.25500000000E-02 0.  1.
<mgrwt>
<rscale>  0 0.40614433E+02</rscale>
<asrwt>0</asrwt>
<pdfrwt beam="1">  1        1 0.12783316E-02 0.40614433E+02</pdfrwt>
<pdfrwt beam="2">  1       -1 0.76353784E-02 0.40614433E+02</pdfrwt>
<totfact> 0.67866483E+05</totfact>
</mgrwt>
</event>
<event>
 4    1  0.2051373E-002  0.9530134E+02  0.7818608E-02  0.1290499E+00
          1   -1    0    0    0  501  0.00000000000E+00  0.00000000000E+00  0.27897506671E+03  0.27897506676E+03  0.50400000000E-02 0. -1.
         -1   -1    0    0  501    0 -0.00000000000E+00 -0.00000000000E+00 -0.81390282750E+01  0.81390298355E+01  0.50400000000E-02 0. -1.
          2    1    1    2    0  502  0.91748800850E+01  0.46728871790E+02  0.13035857365E+03  0.13878445019E+03  0.25500000000E-02 0.  1.
         -2    1    1    2  502    0 -0.91748800850E+01 -0.46728871790E+02  0.14047746478E+03  0.14832964640E+03  0.25500000000E-02 0.  1.
<mgrwt>
<rscale>  0 0.95301337E+02</rscale>
<asrwt>0</asrwt>
<pdfrwt beam="1">  1        1 0.42919240E-01 0.95301337E+02</pdfrwt>
<pdfrwt beam="2">  1       -1 0.12521583E-02 0.95301337E+02</pdfrwt>
<totfact> 0.11224207E+05</totfact>
</mgrwt>
</event>
<event>
 4    1  0.2051373E-002  0.4056960E+02  0.7818608E-02  0.1504061E+00
          1   -1    0    0    0  501  0.00000000000E+00  0.00000000000E+00  0.13136046301E+01  0.13136142988E+01  0.50400000000E-02 0.  1.
         -1   -1    0    0  501    0 -0.00000000000E+00 -0.00000000000E+00 -0.31323849188E+03  0.31323849192E+03  0.50400000000E-02 0.  1.
          2    1    1    2    0  502 -0.11882858197E+02  0.16264432750E+02 -0.13738830939E+03  0.13885705475E+03  0.25500000000E-02 0.  1.
         -2    1    1    2  502    0  0.11882858197E+02 -0.16264432750E+02 -0.17453657786E+03  0.17569505146E+03  0.25500000000E-02 0.  1.
<mgrwt>
<rscale>  0 0.40569597E+02</rscale>
<asrwt>0</asrwt>
<pdfrwt beam="1">  1        1 0.20209402E-03 0.40569597E+02</pdfrwt>
<pdfrwt beam="2">  1       -1 0.48190478E-01 0.40569597E+02</pdfrwt>
<totfact> 0.46001380E+05</totfact>
</mgrwt>
</event>
<event>
 4    1  0.2051373E-002  0.5137781E+02  0.7818608E-02  0.1438049E+00
          1   -1    0    0    0  501  0.00000000000E+00  0.00000000000E+00  0.31721590488E+01  0.31721630526E+01  0.50400000000E-02 0.  1.
         -1   -1    0    0  501    0 -0.00000000000E+00 -0.00000000000E+00 -0.20803477671E+03  0.20803477677E+03  0.50400000000E-02 0.  1.
          2    1    1    2    0  502  0.21457538743E+02 -0.30394210857E+01 -0.15913371923E+03  0.16060262966E+03  0.25500000000E-02 0. -1.
         -2    1    1    2  502    0 -0.21457538743E+02  0.30394210857E+01 -0.45728898430E+02  0.50604310168E+02  0.25500000000E-02 0. -1.
<mgrwt>
<rscale>  0 0.51377810E+02</rscale>
<asrwt>0</asrwt>
<pdfrwt beam="1">  1        1 0.48802495E-03 0.51377810E+02</pdfrwt>
<pdfrwt beam="2">  1       -1 0.32005340E-01 0.51377810E+02</pdfrwt>
<totfact> 0.29635870E+05</totfact>
</mgrwt>
</event>
<event>
 4    1  0.2051373E-002  0.5570301E+02  0.7818608E-02  0.1416803E+00
          1   -1    0    0    0  501  0.00000000000E+00  0.00000000000E+00  0.91549458994E+02  0.91549459133E+02  0.50400000000E-02 0.  1.
         -1   -1    0    0  501    0 -0.00000000000E+00 -0.00000000000E+00 -0.84730833273E+01  0.84730848262E+01  0.50400000000E-02 0.  1.
          2    1    1    2    0  502  0.50092801149E+01 -0.23891289748E+02  0.65617153646E+02  0.70010695413E+02  0.25500000000E-02 0.  1.
         -2    1    1    2  502    0 -0.50092801149E+01  0.23891289748E+02  0.17459222020E+02  0.30011848546E+02  0.25500000000E-02 0.  1.
<mgrwt>
<rscale>  0 0.55703008E+02</rscale>
<asrwt>0</asrwt>
<pdfrwt beam="1">  1        1 0.14084532E-01 0.55703008E+02</pdfrwt>
<pdfrwt beam="2">  1       -1 0.13035514E-02 0.55703008E+02</pdfrwt>
<totfact> 0.37912538E+05</totfact>
</mgrwt>
</event>
<event>
 4    1  0.2051373E-002  0.4093270E+02  0.7818608E-02  0.1501458E+00
          1   -1    0    0    0  501  0.00000000000E+00  0.00000000000E+00  0.94162387295E+03  0.94162387296E+03  0.50400000000E-02 0.  1.
         -1   -1    0    0  501    0 -0.00000000000E+00 -0.00000000000E+00 -0.44482512897E+00  0.44485368039E+00  0.50400000000E-02 0.  1.
          2    1    1    2    0  502 -0.14996045209E+02  0.13607525468E+02  0.53896127028E+03  0.53934154020E+03  0.25500000000E-02 0. -1.
         -2    1    1    2  502    0  0.14996045209E+02 -0.13607525468E+02  0.40221777754E+03  0.40272718644E+03  0.25500000000E-02 0. -1.
<mgrwt>
<rscale>  0 0.40932697E+02</rscale>
<asrwt>0</asrwt>
<pdfrwt beam="1">  1        1 0.14486522E+00 0.40932697E+02</pdfrwt>
<pdfrwt beam="2">  1       -1 0.68436827E-04 0.40932697E+02</pdfrwt>
<totfact> 0.10515403E+06</totfact>
</mgrwt>
</event>
<event>
 4    1  0.2051373E-002  0.4341001E+02  0.7818608E-02  0.1484519E+00
          1   -1    0    0    0  501  0.00000000000E+00  0.00000000000E+00  0.25794079689E+03  0.25794079694E+03  0.50400000000E-02 0. -1.
         -1   -1    0    0  501    0 -0.00000000000E+00 -0.00000000000E+00 -0.18264130075E+01  0.18264199614E+01  0.50400000000E-02 0. -1.
          2    1    1    2    0  502  0.12319689167E+02  0.16544802532E+02  0.87647380628E+02  0.90042037790E+02  0.25500000000E-02 0.  1.
         -2    1    1    2  502    0 -0.12319689167E+02 -0.16544802532E+02  0.16846700325E+03  0.16972517911E+03  0.25500000000E-02 0.  1.
<mgrwt>
<rscale>  0 0.43410014E+02</rscale>
<asrwt>0</asrwt>
<pdfrwt beam="1">  1        1 0.39683153E-01 0.43410014E+02</pdfrwt>
<pdfrwt beam="2">  1       -1 0.28098749E-03 0.43410014E+02</pdfrwt>
<totfact> 0.83394425E+05</totfact>
</mgrwt>
</event>
<event>
 4    1  0.2051373E-002  0.7548415E+02  0.7818608E-02  0.1342378E+00
         -1   -1    0    0  501    0 -0.00000000000E+00  0.00000000000E+00  0.25316819397E+01  0.25316869564E+01  0.50400000000E-02 0.  1.
          1   -1    0    0    0  501  0.00000000000E+00 -0.00000000000E+00 -0.56265470619E+03  0.56265470622E+03  0.50400000000E-02 0.  1.
          2    1    1    2    0  502 -0.62023565453E+01 -0.36847688229E+02 -0.31985298110E+03  0.32202818336E+03  0.25500000000E-02 0.  1.
         -2    1    1    2  502    0  0.62023565453E+01  0.36847688229E+02 -0.24027004315E+03  0.24315820981E+03  0.25500000000E-02 0.  1.
<mgrwt>
<rscale>  0 0.75484149E+02</rscale>
<asrwt>0</asrwt>
<pdfrwt beam="2">  1        1 0.86562164E-01 0.75484149E+02</pdfrwt>
<pdfrwt beam="1">  1       -1 0.38949036E-03 0.75484149E+02</pdfrwt>
<totfact> 0.23130363E+05</totfact>
</mgrwt>
</event>
<event>
 4    1  0.2051373E-002  0.7643330E+02  0.7818608E-02  0.1339489E+00
          1   -1    0    0    0  501  0.00000000000E+00  0.00000000000E+00  0.27134046518E+02  0.27134046986E+02  0.50400000000E-02 0.  1.
         -1   -1    0    0  501    0 -0.00000000000E+00 -0.00000000000E+00 -0.53825814785E+02  0.53825815021E+02  0.50400000000E-02 0.  1.
          2    1    1    2    0  502  0.10030076979E+01 -0.35519461478E+02 -0.28245722412E+02  0.45392279181E+02  0.25500000000E-02 0. -1.
         -2    1    1    2  502    0 -0.10030076979E+01  0.35519461478E+02  0.15539541446E+01  0.35567582827E+02  0.25500000000E-02 0. -1.
<mgrwt>
<rscale>  0 0.76433296E+02</rscale>
<asrwt>0</asrwt>
<pdfrwt beam="1">  1        1 0.41744688E-02 0.76433296E+02</pdfrwt>
<pdfrwt beam="2">  1       -1 0.82808946E-02 0.76433296E+02</pdfrwt>
<totfact> 0.14069781E+05</totfact>
</mgrwt>
</event>
<event>
 4    1  0.2051373E-002  0.7677096E+02  0.7818608E-02  0.1338473E+00
         -1   -1    0    0  501    0 -0.00000000000E+00  0.00000000000E+00  0.10742167916E+03  0.10742167928E+03  0.50400000000E-02 0.  1.
          1   -1    0    0    0  501  0.00000000000E+00 -0.00000000000E+00 -0.13716459988E+02  0.13716460914E+02  0.50400000000E-02 0.  1.
          2    1    1    2    0  502  0.18857160834E+02  0.30836846541E+02  0.67240213873E+02  0.76339701254E+02  0.25500000000E-02 0. -1.
         -2    1    1    2  502    0 -0.18857160834E+02 -0.30836846541E+02  0.26465005298E+02  0.44798438938E+02  0.25500000000E-02 0. -1.
<mgrwt>
<rscale>  0 0.76770964E+02</rscale>
<asrwt>0</asrwt>
<pdfrwt beam="2">  1        1 0.21102247E-02 0.76770964E+02</pdfrwt>
<pdfrwt beam="1">  1       -1 0.16526413E-01 0.76770964E+02</pdfrwt>
<totfact> 0.12486659E+05</totfact>
</mgrwt>
</event>
<event>
 4    1  0.2051373E-002  0.4033226E+02  0.7818608E-02  0.1505781E+00
         -1   -1    0    0  501    0 -0.00000000000E+00  0.00000000000E+00  0.31517009383E+01  0.31517049681E+01  0.50400000000E-02 0. -1.
          1   -1    0    0    0  501  0.00000000000E+00 -0.00000000000E+00 -0.12903268336E+03  0.12903268346E+03  0.50400000000E-02 0. -1.
          2    1    1    2    0  502  0.17446645429E+02 -0.99355762354E+01 -0.69134304018E+02  0.71990645992E+02  0.25500000000E-02 0.  1.
         -2    1    1    2  502    0 -0.17446645429E+02  0.99355762354E+01 -0.56746678402E+02  0.60193742432E+02  0.25500000000E-02 0.  1.
<mgrwt>
<rscale>  0 0.40332255E+02</rscale>
<asrwt>0</asrwt>
<pdfrwt beam="2">  1        1 0.19851178E-01 0.40332255E+02</pdfrwt>
<pdfrwt beam="1">  1       -1 0.48487749E-03 0.40332255E+02</pdfrwt>
<totfact> 0.89244791E+05</totfact>
</mgrwt>
</event>
<event>
 4    1  0.2051373E-002  0.6625695E+02  0.7818608E-02  0.1373305E+00
          1   -1    0    0    0  501  0.00000000000E+00  0.00000000000E+00  0.10774255341E+04  0.10774255341E+04  0.50400000000E-02 0.  1.
         -1   -1    0    0  501    0 -0.00000000000E+00 -0.00000000000E+00 -0.10186218294E+01  0.10186342979E+01  0.50400000000E-02 0.  1.
          2    1    1    2    0  502  0.53665760492E+01 -0.20288777491E+02  0.95542732823E+03  0.95565779135E+03  0.25500000000E-02 0. -1.
         -2    1    1    2  502    0 -0.53665760492E+01  0.20288777491E+02  0.12097958404E+03  0.12278637706E+03  0.25500000000E-02 0. -1.
<mgrwt>
<rscale>  0 0.66256951E+02</rscale>
<asrwt>0</asrwt>
<pdfrwt beam="1">  1        1 0.16575827E+00 0.66256951E+02</pdfrwt>
<pdfrwt beam="2">  1       -1 0.15671155E-03 0.66256951E+02</pdfrwt>
<totfact> 0.30521291E+05</totfact>
</mgrwt>
</event>
<event>
 4    1  0.2051373E-002  0.6760123E+02  0.7818608E-02  0.1368446E+00
         -1   -1    0    0  501    0 -0.00000000000E+00  0.00000000000E+00  0.19150089440E+02  0.19150090103E+02  0.50400000000E-02 0.  1.
          1   -1    0    0    0  501  0.00000000000E+00 -0.00000000000E+00 -0.59659332942E+02  0.59659333155E+02  0.50400000000E-02 0.  1.
          2    1    1    2    0  502  0.31626770388E+02 -0.62394847425E+01 -0.84059651122E+01  0.33314321710E+02  0.25500000000E-02 0. -1.
         -2    1    1    2  502    0 -0.31626770388E+02  0.62394847425E+01 -0.32103278389E+02  0.45495101548E+02  0.25500000000E-02 0. -1.
<mgrwt>
<rscale>  0 0.67601231E+02</rscale>
<asrwt>0</asrwt>
<pdfrwt beam="2">  1        1 0.91783589E-02 0.67601231E+02</pdfrwt>
<pdfrwt beam="1">  1       -1 0.29461677E-02 0.67601231E+02</pdfrwt>
<totfact> 0.21678424E+05</totfact>
</mgrwt>
</event>
<event>
 4    1  0.2051373E-002  0.4603193E+02  0.7818608E-02  0.1468000E+00
          1   -1    0    0    0  501  0.00000000000E+00  0.00000000000E+00  0.12507509456E+03  0.12507509466E+03  0.50400000000E-02 0. -1.
         -1   -1    0    0  501    0 -0.00000000000E+00 -0.00000000000E+00 -0.42353302990E+01  0.42353332977E+01  0.50400000000E-02 0. -1.
          2    1    1    2    0  502 -0.15478361805E+02  0.17015552139E+02  0.58197577603E+02  0.62578484674E+02  0.25500000000E-02 0. -1.
         -2    1    1    2  502    0  0.15478361805E+02 -0.17015552139E+02  0.62642186655E+02  0.66731943282E+02  0.25500000000E-02 0. -1.
<mgrwt>
<rscale>  0 0.46031925E+02</rscale>
<asrwt>0</asrwt>
<pdfrwt beam="1">  1        1 0.19242323E-01 0.46031925E+02</pdfrwt>
<pdfrwt beam="2">  1       -1 0.65158949E-03 0.46031925E+02</pdfrwt>
<totfact> 0.64094020E+05</totfact>
</mgrwt>
</event>
<event>
 4    1  0.2051373E-002  0.1505289E+03  0.7818608E-02  0.1199825E+00
         -1   -1    0    0  501    0 -0.00000000000E+00  0.00000000000E+00  0.64197626171E+02  0.64197626369E+02  0.50400000000E-02 0. -1.
          1   -1    0    0    0  501  0.00000000000E+00 -0.00000000000E+00 -0.88238998214E+02  0.88238998358E+02  0.50400000000E-02 0. -1.
          2    1    1    2    0  502  0.32568018513E+02 -0.66347004744E+02  0.23768630999E+01  0.73947618981E+02  0.25500000000E-02 0.  1.
         -2    1    1    2  502    0 -0.32568018513E+02  0.66347004744E+02 -0.26418235143E+02  0.78489005745E+02  0.25500000000E-02 0.  1.
<mgrwt>
<rscale>  0 0.15052886E+03</rscale>
<asrwt>0</asrwt>
<pdfrwt beam="2">  1        1 0.13575231E-01 0.15052886E+03</pdfrwt>
<pdfrwt beam="1">  1       -1 0.98765579E-02 0.15052886E+03</pdfrwt>
<totfact> 0.24631650E+04</totfact>
</mgrwt>
</event>
<event>
 4    1  0.2051373E-002  0.8203823E+02  0.7818608E-02  0.1323365E+00
          1   -1    0    0    0  501  0.00000000000E+00  0.00000000000E+00  0.44265649006E+03  0.44265649009E+03  0.50400000000E-02 0.  1.
         -1   -1    0    0  501    0 -0.00000000000E+00 -0.00000000000E+00 -0.38010667167E+01  0.38010700581E+01  0.50400000000E-02 0.  1.
          2    1    1    2    0  502  0.16003449243E+02  0.36424464575E+02  0.27377094266E+03  0.27664667188E+03  0.25500000000E-02 0. -1.
         -2    1    1    2  502    0 -0.16003449243E+02 -0.36424464575E+02  0.16508448068E+03  0.16981088827E+03  0.25500000000E-02 0. -1.
<mgrwt>
<rscale>  0 0.82038225E+02</rscale>
<asrwt>0</asrwt>
<pdfrwt beam="1">  1        1 0.68100971E-01 0.82038225E+02</pdfrwt>
<pdfrwt beam="2">  1       -1 0.58477999E-03 0.82038225E+02</pdfrwt>
<totfact> 0.18106068E+05</totfact>
</mgrwt>
</event>
<event>
 4    1  0.2051373E-002  0.5067947E+02  0.7818608E-02  0.1441711E+00
          1   -1    0    0    0  501  0.00000000000E+00  0.00000000000E+00  0.66775638644E+03  0.66775638646E+03  0.50400000000E-02 0. -1.
         -1   -1    0    0  501    0 -0.00000000000E+00 -0.00000000000E+00 -0.96157489270E+00  0.96158810094E+00  0.50400000000E-02 0. -1.
          2    1    1    2    0  502 -0.86601485452E+01 -0.23772507796E+02  0.35192642749E+03  0.35283472147E+03  0.25500000000E-02 0.  1.
         -2    1    1    2  502    0  0.86601485452E+01  0.23772507796E+02  0.31486838406E+03  0.31588325309E+03  0.25500000000E-02 0.  1.
<mgrwt>
<rscale>  0 0.50679471E+02</rscale>
<asrwt>0</asrwt>
<pdfrwt beam="1">  1        1 0.10273234E+00 0.50679471E+02</pdfrwt>
<pdfrwt beam="2">  1       -1 0.14793477E-03 0.50679471E+02</pdfrwt>
<totfact> 0.64176271E+05</totfact>
</mgrwt>
</event>
<event>
 4    1  0.2051373E-002  0.5719687E+02  0.7818608E-02  0.1409986E+00
         -1   -1    0    0  501    0 -0.00000000000E+00  0.00000000000E+00  0.15193895104E+02  0.15193895940E+02  0.50400000000E-02 0.  1.
          1   -1    0    0    0  501  0.00000000000E+00 -0.00000000000E+00 -0.53828883121E+02  0.53828883357E+02  0.50400000000E-02 0.  1.
          2    1    1    2    0  502 -0.26754585562E+02 -0.43668930186E+01 -0.83238801031E+01  0.28357795924E+02  0.25500000000E-02 0. -1.
         -2    1    1    2  502    0  0.26754585562E+02  0.43668930186E+01 -0.30311107914E+02  0.40664983372E+02  0.25500000000E-02 0. -1.
<mgrwt>
<rscale>  0 0.57196868E+02</rscale>
<asrwt>0</asrwt>
<pdfrwt beam="2">  1        1 0.82813666E-02 0.57196868E+02</pdfrwt>
<pdfrwt beam="1">  1       -1 0.23375224E-02 0.57196868E+02</pdfrwt>
<totfact> 0.33224267E+05</totfact>
</mgrwt>
</event>
<event>
 4    1  0.2051373E-002  0.6535233E+02  0.7818608E-02  0.1376651E+00
          1   -1    0    0    0  501  0.00000000000E+00  0.00000000000E+00  0.52141570908E+03  0.52141570911E+03  0.50400000000E-02 0. -1.
         -1   -1    0    0  501    0 -0.00000000000E+00 -0.00000000000E+00 -0.20477519370E+01  0.20477581393E+01  0.50400000000E-02 0. -1.
          2    1    1    2    0  502  0.82758030007E+01 -0.21551469095E+02  0.44491411567E+03  0.44551265422E+03  0.25500000000E-02 0. -1.
         -2    1    1    2  502    0 -0.82758030007E+01  0.21551469095E+02  0.74453841472E+02  0.77950813029E+02  0.25500000000E-02 0. -1.
<mgrwt>
<rscale>  0 0.65352327E+02</rscale>
<asrwt>0</asrwt>
<pdfrwt beam="1">  1        1 0.80217838E-01 0.65352327E+02</pdfrwt>
<pdfrwt beam="2">  1       -1 0.31503910E-03 0.65352327E+02</pdfrwt>
<totfact> 0.33311834E+05</totfact>
</mgrwt>
</event>
<event>
 4    1  0.2051373E-002  0.4064701E+02  0.7818608E-02  0.1503503E+00
          1   -1    0    0    0  501  0.00000000000E+00  0.00000000000E+00  0.67976605269E+02  0.67976605455E+02  0.50400000000E-02 0. -1.
         -1   -1    0    0  501    0 -0.00000000000E+00 -0.00000000000E+00 -0.60762783912E+01  0.60762804814E+01  0.50400000000E-02 0. -1.
          2    1    1    2    0  502 -0.19425759169E+02 -0.59444902292E+01  0.29875776375E+02  0.36128369793E+02  0.25500000000E-02 0.  1.
         -2    1    1    2  502    0  0.19425759169E+02  0.59444902292E+01  0.32024550502E+02  0.37924516144E+02  0.25500000000E-02 0.  1.
<mgrwt>
<rscale>  0 0.40647010E+02</rscale>
<asrwt>0</asrwt>
<pdfrwt beam="1">  1        1 0.10457940E-01 0.40647010E+02</pdfrwt>
<pdfrwt beam="2">  1       -1 0.93481219E-03 0.40647010E+02</pdfrwt>
<totfact> 0.80892574E+05</totfact>
</mgrwt>
</event>
<event>
 4    1  0.2051373E-002  0.9202692E+02  0.7818608E-02  0.1298016E+00
          1   -1    0    0    0  501  0.00000000000E+00  0.00000000000E+00  0.18810790550E+01  0.18810858069E+01  0.50400000000E-02 0.  1.
         -1   -1    0    0  501    0 -0.00000000000E+00 -0.00000000000E+00 -0.11255426479E+04  0.11255426479E+04  0.50400000000E-02 0.  1.
          2    1    1    2    0  502 -0.39383328054E+02  0.85037636764E+01 -0.28957186479E+03  0.29236146362E+03  0.25500000000E-02 0.  1.
         -2    1    1    2  502    0  0.39383328054E+02 -0.85037636764E+01 -0.83408970402E+03  0.83506227007E+03  0.25500000000E-02 0.  1.
<mgrwt>
<rscale>  0 0.92026920E+02</rscale>
<asrwt>0</asrwt>
<pdfrwt beam="1">  1        1 0.28939820E-03 0.92026920E+02</pdfrwt>
<pdfrwt beam="2">  1       -1 0.17315987E+00 0.92026920E+02</pdfrwt>
<totfact> 0.21484895E+04</totfact>
</mgrwt>
</event>
<event>
 4    1  0.2051373E-002  0.6121287E+02  0.7818608E-02  0.1392811E+00
         -1   -1    0    0  501    0 -0.00000000000E+00  0.00000000000E+00  0.23851132965E+02  0.23851133498E+02  0.50400000000E-02 0.  1.
          1   -1    0    0    0  501  0.00000000000E+00 -0.00000000000E+00 -0.39275027551E+02  0.39275027874E+02  0.50400000000E-02 0.  1.
          2    1    1    2    0  502 -0.15458963741E+02  0.26389051026E+02 -0.64950863188E+01  0.31265759655E+02  0.25500000000E-02 0. -1.
         -2    1    1    2  502    0  0.15458963741E+02 -0.26389051026E+02 -0.89288082665E+01  0.31860401717E+02  0.25500000000E-02 0. -1.
<mgrwt>
<rscale>  0 0.61212872E+02</rscale>
<asrwt>0</asrwt>
<pdfrwt beam="2">  1        1 0.60423120E-02 0.61212872E+02</pdfrwt>
<pdfrwt beam="1">  1       -1 0.36694051E-02 0.61212872E+02</pdfrwt>
<totfact> 0.26880499E+05</totfact>
</mgrwt>
</event>
<event>
 4    1  0.2051373E-002  0.4059683E+02  0.7818608E-02  0.1503865E+00
          1   -1    0    0    0  501  0.00000000000E+00  0.00000000000E+00  0.83691150428E+02  0.83691150579E+02  0.50400000000E-02 0.  1.
         -1   -1    0    0  501    0 -0.00000000000E+00 -0.00000000000E+00 -0.49231670757E+01  0.49231696555E+01  0.50400000000E-02 0.  1.
          2    1    1    2    0  502 -0.80739301429E+01 -0.18382836183E+02  0.32868953987E+02  0.38516037657E+02  0.25500000000E-02 0.  1.
         -2    1    1    2  502    0  0.80739301429E+01  0.18382836183E+02  0.45899029365E+02  0.50098282578E+02  0.25500000000E-02 0.  1.
<mgrwt>
<rscale>  0 0.40596829E+02</rscale>
<asrwt>0</asrwt>
<pdfrwt beam="1">  1        1 0.12875561E-01 0.40596829E+02</pdfrwt>
<pdfrwt beam="2">  1       -1 0.75741055E-03 0.40596829E+02</pdfrwt>
<totfact> 0.83018929E+05</totfact>
</mgrwt>
</event>
<event>
 4    1  0.2051373E-002  0.4317273E+02  0.7818608E-02  0.1486082E+00
          1   -1    0    0    0  501  0.00000000000E+00  0.00000000000E+00  0.81560166229E+00  0.81561723445E+00  0.50400000000E-02 0.  1.
         -1   -1    0    0  501    0 -0.00000000000E+00 -0.00000000000E+00 -0.57131639536E+03  0.57131639538E+03  0.50400000000E-02 0.  1.
          2    1    1    2    0  502 -0.13707515008E+02 -0.16325997799E+02 -0.33026268086E+03  0.33094995475E+03  0.25500000000E-02 0. -1.
         -2    1    1    2  502    0  0.13707515008E+02  0.16325997799E+02 -0.24023811284E+03  0.24118205787E+03  0.25500000000E-02 0. -1.
<mgrwt>
<rscale>  0 0.43172726E+02</rscale>
<asrwt>0</asrwt>
<pdfrwt beam="1">  1        1 0.12547883E-03 0.43172726E+02</pdfrwt>
<pdfrwt beam="2">  1       -1 0.87894512E-01 0.43172726E+02</pdfrwt>
<totfact> 0.28667346E+05</totfact>
</mgrwt>
</event>
<event>
 4    1  0.2051373E-002  0.4188026E+02  0.7818608E-02  0.1494814E+00
         -1   -1    0    0  501    0 -0.00000000000E+00  0.00000000000E+00  0.55518583025E+00  0.55520870645E+00  0.50400000000E-02 0.  1.
          1   -1    0    0    0  501  0.00000000000E+00 -0.00000000000E+00 -0.78978969820E+03  0.78978969821E+03  0.50400000000E-02 0.  1.
          2    1    1    2    0  502 -0.15488972553E+02 -0.14091577516E+02 -0.39290196172E+03  0.39345956889E+03  0.25500000000E-02 0. -1.
         -2    1    1    2  502    0  0.15488972553E+02  0.14091577516E+02 -0.39633255065E+03  0.39688533802E+03  0.25500000000E-02 0. -1.
<mgrwt>
<rscale>  0 0.41880262E+02</rscale>
<asrwt>0</asrwt>
<pdfrwt beam="2">  1        1 0.12150521E+00 0.41880262E+02</pdfrwt>
<pdfrwt beam="1">  1       -1 0.85415598E-04 0.41880262E+02</pdfrwt>
<totfact> 0.10193649E+06</totfact>
</mgrwt>
</event>
<event>
 4    1  0.2051373E-002  0.5841310E+02  0.7818608E-02  0.1404614E+00
         -1   -1    0    0  501    0 -0.00000000000E+00  0.00000000000E+00  0.25110849048E+03  0.25110849053E+03  0.50400000000E-02 0.  1.
          1   -1    0    0    0  501  0.00000000000E+00 -0.00000000000E+00 -0.33970262245E+01  0.33970299633E+01  0.50400000000E-02 0.  1.
          2    1    1    2    0  502 -0.23696752911E+02 -0.15532002202E+02  0.92972232812E+02  0.97193699752E+02  0.25500000000E-02 0. -1.
         -2    1    1    2  502    0  0.23696752911E+02  0.15532002202E+02  0.15473923144E+03  0.15731182074E+03  0.25500000000E-02 0. -1.
<mgrwt>
<rscale>  0 0.58413102E+02</rscale>
<asrwt>0</asrwt>
<pdfrwt beam="2">  1        1 0.52261965E-03 0.58413102E+02</pdfrwt>
<pdfrwt beam="1">  1       -1 0.38632080E-01 0.58413102E+02</pdfrwt>
<totfact> 0.20279731E+05</totfact>
</mgrwt>
</event>
<event>
 4    1  0.2051373E-002  0.5860896E+02  0.7818608E-02  0.1403764E+00
          1   -1    0    0    0  501  0.00000000000E+00  0.00000000000E+00  0.19103699933E+03  0.19103699940E+03  0.50400000000E-02 0. -1.
         -1   -1    0    0  501    0 -0.00000000000E+00 -0.00000000000E+00 -0.44952146175E+01  0.44952174429E+01  0.50400000000E-02 0. -1.
          2    1    1    2    0  502 -0.20175852791E+02 -0.20168369978E+02  0.11563211073E+03  0.11909917389E+03  0.25500000000E-02 0. -1.
         -2    1    1    2  502    0  0.20175852791E+02  0.20168369978E+02  0.70909673990E+02  0.76433042955E+02  0.25500000000E-02 0. -1.
<mgrwt>
<rscale>  0 0.58608962E+02</rscale>
<asrwt>0</asrwt>
<pdfrwt beam="1">  1        1 0.29390302E-01 0.58608962E+02</pdfrwt>
<pdfrwt beam="2">  1       -1 0.69157185E-03 0.58608962E+02</pdfrwt>
<totfact> 0.37314831E+05</totfact>
</mgrwt>
</event>
<event>
 4    1  0.2051373E-002  0.6161826E+02  0.7818608E-02  0.1391163E+00
         -1   -1    0    0  501    0 -0.00000000000E+00  0.00000000000E+00  0.57464782170E+00  0.57466992316E+00  0.50400000000E-02 0.  1.
          1   -1    0    0    0  501  0.00000000000E+00 -0.00000000000E+00 -0.16517669776E+04  0.16517669776E+04  0.50400000000E-02 0.  1.
          2    1    1    2    0  502  0.23199621707E+02 -0.15900444374E+02 -0.11628316038E+04  0.11631716921E+04  0.25500000000E-02 0. -1.
         -2    1    1    2  502    0 -0.23199621707E+02  0.15900444374E+02 -0.48836072597E+03  0.48916995539E+03  0.25500000000E-02 0. -1.
<mgrwt>
<rscale>  0 0.61618262E+02</rscale>
<asrwt>0</asrwt>
<pdfrwt beam="2">  1        1 0.25411420E+00 0.61618262E+02</pdfrwt>
<pdfrwt beam="1">  1       -1 0.88410380E-04 0.61618262E+02</pdfrwt>
<totfact> 0.28038463E+05</totfact>
</mgrwt>
</event>
<event>
 4    1  0.2051373E-002  0.5017749E+02  0.7818608E-02  0.1444387E+00
         -1   -1    0    0  501    0 -0.00000000000E+00  0.00000000000E+00  0.10210456554E+02  0.10210457797E+02  0.50400000000E-02 0. -1.
          1   -1    0    0    0  501  0.00000000000E+00 -0.00000000000E+00 -0.61647115419E+02  0.61647115625E+02  0.50400000000E-02 0. -1.
          2    1    1    2    0  502 -0.99339906621E+01  0.22554712647E+02 -0.18994316576E+02  0.31115644003E+02  0.25500000000E-02 0.  1.
         -2    1    1    2  502    0  0.99339906621E+01 -0.22554712647E+02 -0.32442342290E+02  0.40741929420E+02  0.25500000000E-02 0.  1.
<mgrwt>
<rscale>  0 0.50177495E+02</rscale>
<asrwt>0</asrwt>
<pdfrwt beam="2">  1        1 0.94841715E-02 0.50177495E+02</pdfrwt>
<pdfrwt beam="1">  1       -1 0.15708396E-02 0.50177495E+02</pdfrwt>
<totfact> 0.47216157E+05</totfact>
</mgrwt>
</event>
<event>
 4    1  0.2051373E-002  0.6118421E+02  0.7818608E-02  0.1392928E+00
         -1   -1    0    0  501    0 -0.00000000000E+00  0.00000000000E+00  0.11040938570E+01  0.11041053603E+01  0.50400000000E-02 0. -1.
          1   -1    0    0    0  501  0.00000000000E+00 -0.00000000000E+00 -0.84763795573E+03  0.84763795574E+03  0.50400000000E-02 0. -1.
          2    1    1    2    0  502 -0.10028399116E+02  0.27819958058E+02 -0.53192740508E+03  0.53274879929E+03  0.25500000000E-02 0.  1.
         -2    1    1    2  502    0  0.10028399116E+02 -0.27819958058E+02 -0.31460645679E+03  0.31599326182E+03  0.25500000000E-02 0.  1.
<mgrwt>
<rscale>  0 0.61184205E+02</rscale>
<asrwt>0</asrwt>
<pdfrwt beam="2">  1        1 0.13040532E+00 0.61184205E+02</pdfrwt>
<pdfrwt beam="1">  1       -1 0.16986216E-03 0.61184205E+02</pdfrwt>
<totfact> 0.39478327E+05</totfact>
</mgrwt>
</event>
<event>
 4    1  0.2051373E-002  0.6281312E+02  0.7818608E-02  0.1386392E+00
         -1   -1    0    0  501    0 -0.00000000000E+00  0.00000000000E+00  0.14944444849E+02  0.14944445698E+02  0.50400000000E-02 0.  1.
          1   -1    0    0    0  501  0.00000000000E+00 -0.00000000000E+00 -0.66002588128E+02  0.66002588320E+02  0.50400000000E-02 0.  1.
          2    1    1    2    0  502 -0.29816622296E+02  0.59316452565E+01 -0.35689090404E+02  0.46882049454E+02  0.25500000000E-02 0.  1.
         -2    1    1    2  502    0  0.29816622296E+02 -0.59316452565E+01 -0.15369052875E+02  0.34064984565E+02  0.25500000000E-02 0.  1.
<mgrwt>
<rscale>  0 0.62813122E+02</rscale>
<asrwt>0</asrwt>
<pdfrwt beam="2">  1        1 0.10154244E-01 0.62813122E+02</pdfrwt>
<pdfrwt beam="1">  1       -1 0.22991455E-02 0.62813122E+02</pdfrwt>
<totfact> 0.26645401E+05</totfact>
</mgrwt>
</event>
<event>
 4    1  0.2051373E-002  0.8522095E+02  0.7818608E-02  0.1314856E+00
          1   -1    0    0    0  501  0.00000000000E+00  0.00000000000E+00  0.17166645658E+03  0.17166645666E+03  0.50400000000E-02 0. -1.
         -1   -1    0    0  501    0 -0.00000000000E+00 -0.00000000000E+00 -0.10576628483E+02  0.10576629683E+02  0.50400000000E-02 0. -1.
          2    1    1    2    0  502 -0.18496637454E+02 -0.20517846224E+02  0.14992343033E+03  0.15244717963E+03  0.25500000000E-02 0. -1.
         -2    1    1    2  502    0  0.18496637454E+02  0.20517846224E+02  0.11166397774E+02  0.29795906707E+02  0.25500000000E-02 0. -1.
<mgrwt>
<rscale>  0 0.85220947E+02</rscale>
<asrwt>0</asrwt>
<pdfrwt beam="1">  1        1 0.26410223E-01 0.85220947E+02</pdfrwt>
<pdfrwt beam="2">  1       -1 0.16271738E-02 0.85220947E+02</pdfrwt>
<totfact> 0.13778679E+05</totfact>
</mgrwt>
</event>
<event>
 4    1  0.2051373E-002  0.4083926E+02  0.7818608E-02  0.1502125E+00
          1   -1    0    0    0  501  0.00000000000E+00  0.00000000000E+00  0.31137347780E+01  0.31137388570E+01  0.50400000000E-02 0. -1.
         -1   -1    0    0  501    0 -0.00000000000E+00 -0.00000000000E+00 -0.13391027756E+03  0.13391027765E+03  0.50400000000E-02 0. -1.
          2    1    1    2    0  502  0.96217380803E+00 -0.20245579250E+02 -0.73720331322E+02  0.76455846829E+02  0.25500000000E-02 0. -1.
         -2    1    1    2  502    0 -0.96217380803E+00  0.20245579250E+02 -0.57076211459E+02  0.60568169681E+02  0.25500000000E-02 0. -1.
<mgrwt>
<rscale>  0 0.40839264E+02</rscale>
<asrwt>0</asrwt>
<pdfrwt beam="1">  1        1 0.47903655E-03 0.40839264E+02</pdfrwt>
<pdfrwt beam="2">  1       -1 0.20601577E-01 0.40839264E+02</pdfrwt>
<totfact> 0.57915696E+05</totfact>
</mgrwt>
</event>
<event>
 4    1  0.2051373E-002  0.8483679E+02  0.7818608E-02  0.1315860E+00
          1   -1    0    0    0  501  0.00000000000E+00  0.00000000000E+00  0.47456486775E+03  0.47456486778E+03  0.50400000000E-02 0.  1.
         -1   -1    0    0  501    0 -0.00000000000E+00 -0.00000000000E+00 -0.37915141436E+01  0.37915174934E+01  0.50400000000E-02 0.  1.
          2    1    1    2    0  502 -0.36639499439E+02  0.14165174509E+02  0.14513199722E+03  0.15035425405E+03  0.25500000000E-02 0.  1.
         -2    1    1    2  502    0  0.36639499439E+02 -0.14165174509E+02  0.32564135639E+03  0.32800213122E+03  0.25500000000E-02 0.  1.
<mgrwt>
<rscale>  0 0.84836790E+02</rscale>
<asrwt>0</asrwt>
<pdfrwt beam="1">  1        1 0.73010006E-01 0.84836790E+02</pdfrwt>
<pdfrwt beam="2">  1       -1 0.58330992E-03 0.84836790E+02</pdfrwt>
<totfact> 0.16736874E+05</totfact>
</mgrwt>
</event>
<event>
 4    1  0.2051373E-002  0.4447467E+02  0.7818608E-02  0.1477648E+00
         -1   -1    0    0  501    0 -0.00000000000E+00  0.00000000000E+00  0.21424062405E+02  0.21424062998E+02  0.50400000000E-02 0.  1.
          1   -1    0    0    0  501  0.00000000000E+00 -0.00000000000E+00 -0.23081480892E+02  0.23081481442E+02  0.50400000000E-02 0.  1.
          2    1    1    2    0  502  0.66806698723E+01 -0.20255895005E+02  0.54658458143E+01  0.22018358462E+02  0.25500000000E-02 0. -1.
         -2    1    1    2  502    0 -0.66806698723E+01  0.20255895005E+02 -0.71232643008E+01  0.22487185978E+02  0.25500000000E-02 0. -1.
<mgrwt>
<rscale>  0 0.44474672E+02</rscale>
<asrwt>0</asrwt>
<pdfrwt beam="2">  1        1 0.35509972E-02 0.44474672E+02</pdfrwt>
<pdfrwt beam="1">  1       -1 0.32960097E-02 0.44474672E+02</pdfrwt>
<totfact> 0.58765068E+05</totfact>
</mgrwt>
</event>
<event>
 4    1  0.2051373E-002  0.4391144E+02  0.7818608E-02  0.1481254E+00
          1   -1    0    0    0  501  0.00000000000E+00  0.00000000000E+00  0.79244233183E+01  0.79244249210E+01  0.50400000000E-02 0. -1.
         -1   -1    0    0  501    0 -0.00000000000E+00 -0.00000000000E+00 -0.60831367720E+02  0.60831367929E+02  0.50400000000E-02 0. -1.
          2    1    1    2    0  502 -0.14175481645E+02  0.16758920451E+02 -0.25673922715E+02  0.33778040331E+02  0.25500000000E-02 0. -1.
         -2    1    1    2  502    0  0.14175481645E+02 -0.16758920451E+02 -0.27233021687E+02  0.34977752518E+02  0.25500000000E-02 0. -1.
<mgrwt>
<rscale>  0 0.43911437E+02</rscale>
<asrwt>0</asrwt>
<pdfrwt beam="1">  1        1 0.12191422E-02 0.43911437E+02</pdfrwt>
<pdfrwt beam="2">  1       -1 0.93586718E-02 0.43911437E+02</pdfrwt>
<totfact> 0.54907877E+05</totfact>
</mgrwt>
</event>
<event>
 4    1  0.2051373E-002  0.4766080E+02  0.7818608E-02  0.1458383E+00
         -1   -1    0    0  501    0 -0.00000000000E+00  0.00000000000E+00  0.16194094025E+02  0.16194094809E+02  0.50400000000E-02 0. -1.
          1   -1    0    0    0  501  0.00000000000E+00 -0.00000000000E+00 -0.35067588093E+02  0.35067588456E+02  0.50400000000E-02 0. -1.
          2    1    1    2    0  502  0.74138800751E+01  0.22606909205E+02 -0.79738849993E+01  0.25092246015E+02  0.25500000000E-02 0.  1.
         -2    1    1    2  502    0 -0.74138800751E+01 -0.22606909205E+02 -0.10899609069E+02  0.26169437249E+02  0.25500000000E-02 0.  1.
<mgrwt>
<rscale>  0 0.47660795E+02</rscale>
<asrwt>0</asrwt>
<pdfrwt beam="2">  1        1 0.53950136E-02 0.47660795E+02</pdfrwt>
<pdfrwt beam="1">  1       -1 0.24913992E-02 0.47660795E+02</pdfrwt>
<totfact> 0.50985242E+05</totfact>
</mgrwt>
</event>
<event>
 4    1  0.2051373E-002  0.1580820E+03  0.7818608E-02  0.1190879E+00
          1   -1    0    0    0  501  0.00000000000E+00  0.00000000000E+00  0.16541512693E+03  0.16541512701E+03  0.50400000000E-02 0.  1.
         -1   -1    0    0  501    0 -0.00000000000E+00 -0.00000000000E+00 -0.37768497876E+02  0.37768498212E+02  0.50400000000E-02 0.  1.
          2    1    1    2    0  502 -0.51706405753E+02  0.10080813240E+02 -0.11914927020E+02  0.54010560855E+02  0.25500000000E-02 0. -1.
         -2    1    1    2  502    0  0.51706405753E+02 -0.10080813240E+02  0.13956155607E+03  0.14917306436E+03  0.25500000000E-02 0. -1.
<mgrwt>
<rscale>  0 0.15808202E+03</rscale>
<asrwt>0</asrwt>
<pdfrwt beam="1">  1        1 0.25448481E-01 0.15808202E+03</pdfrwt>
<pdfrwt beam="2">  1       -1 0.58105382E-02 0.15808202E+03</pdfrwt>
<totfact> 0.24641141E+04</totfact>
</mgrwt>
</event>
<event>
 4    1  0.2051373E-002  0.2167960E+03  0.7818608E-02  0.1136295E+00
          1   -1    0    0    0  501  0.00000000000E+00  0.00000000000E+00  0.27336754427E+02  0.27336754892E+02  0.50400000000E-02 0.  1.
         -1   -1    0    0  501    0 -0.00000000000E+00 -0.00000000000E+00 -0.42982900253E+03  0.42982900256E+03  0.50400000000E-02 0.  1.
          2    1    1    2    0  502 -0.17911456446E+02  0.66332297184E+02 -0.24447241496E+02  0.72927783080E+02  0.25500000000E-02 0. -1.
         -2    1    1    2  502    0  0.17911456446E+02 -0.66332297184E+02 -0.37804500660E+03  0.38423797437E+03  0.25500000000E-02 0. -1.
<mgrwt>
<rscale>  0 0.21679603E+03</rscale>
<asrwt>0</asrwt>
<pdfrwt beam="1">  1        1 0.42056549E-02 0.21679603E+03</pdfrwt>
<pdfrwt beam="2">  1       -1 0.66127534E-01 0.21679603E+03</pdfrwt>
<totfact> 0.50089181E+03</totfact>
</mgrwt>
</event>
<event>
 4    1  0.2051373E-002  0.5056297E+02  0.7818608E-02  0.1442328E+00
         -1   -1    0    0  501    0 -0.00000000000E+00  0.00000000000E+00  0.16538128243E+01  0.16538205040E+01  0.50400000000E-02 0.  1.
          1   -1    0    0    0  501  0.00000000000E+00 -0.00000000000E+00 -0.38647181257E+03  0.38647181261E+03  0.50400000000E-02 0.  1.
          2    1    1    2    0  502  0.24743449070E+02  0.49045589189E+01 -0.17942629262E+03  0.18119074883E+03  0.25500000000E-02 0. -1.
         -2    1    1    2  502    0 -0.24743449070E+02 -0.49045589189E+01 -0.20539170713E+03  0.20693488428E+03  0.25500000000E-02 0. -1.
<mgrwt>
<rscale>  0 0.50562972E+02</rscale>
<asrwt>0</asrwt>
<pdfrwt beam="2">  1        1 0.59457130E-01 0.50562972E+02</pdfrwt>
<pdfrwt beam="1">  1       -1 0.25443364E-03 0.50562972E+02</pdfrwt>
<totfact> 0.61216790E+05</totfact>
</mgrwt>
</event>
<event>
 4    1  0.2051373E-002  0.4636349E+02  0.7818608E-02  0.1466005E+00
          1   -1    0    0    0  501  0.00000000000E+00  0.00000000000E+00  0.31982223994E+01  0.31982263706E+01  0.50400000000E-02 0.  1.
         -1   -1    0    0  501    0 -0.00000000000E+00 -0.00000000000E+00 -0.16802865783E+03  0.16802865791E+03  0.50400000000E-02 0.  1.
          2    1    1    2    0  502 -0.21291548621E+02 -0.19183882304E+01 -0.11552666678E+03  0.11748796109E+03  0.25500000000E-02 0. -1.
         -2    1    1    2  502    0  0.21291548621E+02  0.19183882304E+01 -0.49303768648E+02  0.53738923188E+02  0.25500000000E-02 0. -1.
<mgrwt>
<rscale>  0 0.46363493E+02</rscale>
<asrwt>0</asrwt>
<pdfrwt beam="1">  1        1 0.49203466E-03 0.46363493E+02</pdfrwt>
<pdfrwt beam="2">  1       -1 0.25850556E-01 0.46363493E+02</pdfrwt>
<totfact> 0.40406337E+05</totfact>
</mgrwt>
</event>
<event>
 4    1  0.2051373E-002  0.6260752E+02  0.7818608E-02  0.1387204E+00
          1   -1    0    0    0  501  0.00000000000E+00  0.00000000000E+00  0.19472360607E+01  0.19472425832E+01  0.50400000000E-02 0.  1.
         -1   -1    0    0  501    0 -0.00000000000E+00 -0.00000000000E+00 -0.50323834260E+03  0.50323834263E+03  0.50400000000E-02 0.  1.
          2    1    1    2    0  502 -0.22765301269E+02  0.21420965508E+02 -0.23712221023E+03  0.23917370110E+03  0.25500000000E-02 0.  1.
         -2    1    1    2  502    0  0.22765301269E+02 -0.21420965508E+02 -0.26416889631E+03  0.26601188411E+03  0.25500000000E-02 0.  1.
<mgrwt>
<rscale>  0 0.62607524E+02</rscale>
<asrwt>0</asrwt>
<pdfrwt beam="1">  1        1 0.29957568E-03 0.62607524E+02</pdfrwt>
<pdfrwt beam="2">  1       -1 0.77421180E-01 0.62607524E+02</pdfrwt>
<totfact> 0.12365076E+05</totfact>
</mgrwt>
</event>
<event>
 4    1  0.2051373E-002  0.9808966E+02  0.7818608E-02  0.1284365E+00
          1   -1    0    0    0  501  0.00000000000E+00  0.00000000000E+00  0.55603285616E+03  0.55603285619E+03  0.50400000000E-02 0. -1.
         -1   -1    0    0  501    0 -0.00000000000E+00 -0.00000000000E+00 -0.43259930717E+01  0.43259960076E+01  0.50400000000E-02 0. -1.
          2    1    1    2    0  502 -0.19302182525E+02 -0.35691108176E+02  0.43323508018E+03  0.43513108847E+03  0.25500000000E-02 0.  1.
         -2    1    1    2  502    0  0.19302182525E+02  0.35691108176E+02  0.11847178291E+03  0.12522776372E+03  0.25500000000E-02 0.  1.
<mgrwt>
<rscale>  0 0.98089655E+02</rscale>
<asrwt>0</asrwt>
<pdfrwt beam="1">  1        1 0.85543449E-01 0.98089655E+02</pdfrwt>
<pdfrwt beam="2">  1       -1 0.66553815E-03 0.98089655E+02</pdfrwt>
<totfact> 0.11593931E+05</totfact>
</mgrwt>
</event>
<event>
 4    1  0.2051373E-002  0.4200837E+02  0.7818608E-02  0.1493931E+00
         -1   -1    0    0  501    0 -0.00000000000E+00  0.00000000000E+00  0.88489025370E+01  0.88489039723E+01  0.50400000000E-02 0.  1.
          1   -1    0    0    0  501  0.00000000000E+00 -0.00000000000E+00 -0.49856559569E+02  0.49856559823E+02  0.50400000000E-02 0.  1.
          2    1    1    2    0  502 -0.65901585931E+01 -0.19035196917E+02 -0.28819302543E+02  0.35161358300E+02  0.25500000000E-02 0.  1.
         -2    1    1    2  502    0  0.65901585931E+01  0.19035196917E+02 -0.12188354489E+02  0.23544105496E+02  0.25500000000E-02 0.  1.
<mgrwt>
<rscale>  0 0.42008375E+02</rscale>
<asrwt>0</asrwt>
<pdfrwt beam="2">  1        1 0.76702399E-02 0.42008375E+02</pdfrwt>
<pdfrwt beam="1">  1       -1 0.13613698E-02 0.42008375E+02</pdfrwt>
<totfact> 0.72335794E+05</totfact>
</mgrwt>
</event>
<event>
 4    1  0.2051373E-002  0.6582017E+02  0.7818608E-02  0.1374913E+00
         -1   -1    0    0  501    0 -0.00000000000E+00  0.00000000000E+00  0.28785741815E+03  0.28785741819E+03  0.50400000000E-02 0. -1.
          1   -1    0    0    0  501  0.00000000000E+00 -0.00000000000E+00 -0.37625339357E+01  0.37625373113E+01  0.50400000000E-02 0. -1.
          2    1    1    2    0  502  0.26282213471E+00 -0.21652886387E+02  0.32248538582E+02  0.38844366536E+02  0.25500000000E-02 0.  1.
         -2    1    1    2  502    0 -0.26282213471E+00  0.21652886387E+02  0.25184634563E+03  0.25277558897E+03  0.25500000000E-02 0.  1.
<mgrwt>
<rscale>  0 0.65820173E+02</rscale>
<asrwt>0</asrwt>
<pdfrwt beam="2">  1        1 0.57885155E-03 0.65820173E+02</pdfrwt>
<pdfrwt beam="1">  1       -1 0.44285764E-01 0.65820173E+02</pdfrwt>
<totfact> 0.14279010E+05</totfact>
</mgrwt>
</event>
<event>
 4    1  0.2051373E-002  0.4914186E+02  0.7818608E-02  0.1450026E+00
          1   -1    0    0    0  501  0.00000000000E+00  0.00000000000E+00  0.19959745943E+01  0.19959809575E+01  0.50400000000E-02 0.  1.
         -1   -1    0    0  501    0 -0.00000000000E+00 -0.00000000000E+00 -0.30247360496E+03  0.30247360500E+03  0.50400000000E-02 0.  1.
          2    1    1    2    0  502  0.70295467395E+01  0.23473681759E+02 -0.13897973246E+03  0.14112333012E+03  0.25500000000E-02 0. -1.
         -2    1    1    2  502    0 -0.70295467395E+01 -0.23473681759E+02 -0.16149789790E+03  0.16334625584E+03  0.25500000000E-02 0. -1.
<mgrwt>
<rscale>  0 0.49141860E+02</rscale>
<asrwt>0</asrwt>
<pdfrwt beam="1">  1        1 0.30707375E-03 0.49141860E+02</pdfrwt>
<pdfrwt beam="2">  1       -1 0.46534365E-01 0.49141860E+02</pdfrwt>
<totfact> 0.29184152E+05</totfact>
</mgrwt>
</event>
<event>
 4    1  0.2051373E-002  0.6940837E+02  0.7818608E-02  0.1362117E+00
         -1   -1    0    0  501    0 -0.00000000000E+00  0.00000000000E+00  0.12126878725E+02  0.12126879772E+02  0.50400000000E-02 0.  1.
          1   -1    0    0    0  501  0.00000000000E+00 -0.00000000000E+00 -0.99314949871E+02  0.99314949999E+02  0.50400000000E-02 0.  1.
          2    1    1    2    0  502 -0.11983053438E+02 -0.26673151980E+02 -0.13584849486E+02  0.32242809250E+02  0.25500000000E-02 0. -1.
         -2    1    1    2  502    0  0.11983053438E+02  0.26673151980E+02 -0.73603221660E+02  0.79199020521E+02  0.25500000000E-02 0. -1.
<mgrwt>
<rscale>  0 0.69408369E+02</rscale>
<asrwt>0</asrwt>
<pdfrwt beam="2">  1        1 0.15279223E-01 0.69408369E+02</pdfrwt>
<pdfrwt beam="1">  1       -1 0.18656738E-02 0.69408369E+02</pdfrwt>
<totfact> 0.21659540E+05</totfact>
</mgrwt>
</event>
<event>
 4    1  0.2051373E-002  0.1019368E+03  0.7818608E-02  0.1276275E+00
         -1   -1    0    0  501    0 -0.00000000000E+00  0.00000000000E+00  0.86799947319E+00  0.86801410533E+00  0.50400000000E-02 0. -1.
          1   -1    0    0    0  501  0.00000000000E+00 -0.00000000000E+00 -0.29928056360E+04  0.29928056360E+04  0.50400000000E-02 0. -1.
          2    1    1    2    0  502  0.48447515201E+02  0.11455632622E+02 -0.18168496223E+04  0.18175315522E+04  0.25500000000E-02 0. -1.
         -2    1    1    2  502    0 -0.48447515201E+02 -0.11455632622E+02 -0.11750880142E+04  0.11761420979E+04  0.25500000000E-02 0. -1.
<mgrwt>
<rscale>  0 0.10193676E+03</rscale>
<asrwt>0</asrwt>
<pdfrwt beam="2">  1        1 0.46042338E+00 0.10193676E+03</pdfrwt>
<pdfrwt beam="1">  1       -1 0.13354190E-03 0.10193676E+03</pdfrwt>
<totfact> 0.23475442E+04</totfact>
</mgrwt>
</event>
<event>
 4    1  0.2051373E-002  0.4657652E+02  0.7818608E-02  0.1464733E+00
         -1   -1    0    0  501    0 -0.00000000000E+00  0.00000000000E+00  0.23940156929E+01  0.23940209981E+01  0.50400000000E-02 0.  1.
          1   -1    0    0    0  501  0.00000000000E+00 -0.00000000000E+00 -0.22654093499E+03  0.22654093504E+03  0.50400000000E-02 0.  1.
          2    1    1    2    0  502  0.18391401233E+02 -0.14182125700E+02 -0.12053971768E+03  0.12275666936E+03  0.25500000000E-02 0. -1.
         -2    1    1    2  502    0 -0.18391401233E+02  0.14182125700E+02 -0.10360720161E+03  0.10617828667E+03  0.25500000000E-02 0. -1.
<mgrwt>
<rscale>  0 0.46576525E+02</rscale>
<asrwt>0</asrwt>
<pdfrwt beam="2">  1        1 0.34852435E-01 0.46576525E+02</pdfrwt>
<pdfrwt beam="1">  1       -1 0.36831070E-03 0.46576525E+02</pdfrwt>
<totfact> 0.68534477E+05</totfact>
</mgrwt>
</event>
<event>
 4    1  0.2051373E-002  0.7666025E+02  0.7818608E-02  0.1338806E+00
          1   -1    0    0    0  501  0.00000000000E+00  0.00000000000E+00  0.34402360804E+02  0.34402361174E+02  0.50400000000E-02 0. -1.
         -1   -1    0    0  501    0 -0.00000000000E+00 -0.00000000000E+00 -0.42706331565E+02  0.42706331863E+02  0.50400000000E-02 0. -1.
          2    1    1    2    0  502 -0.26776158563E+02  0.24703059286E+02  0.78338792470E+01  0.37263567677E+02  0.25500000000E-02 0.  1.
         -2    1    1    2  502    0  0.26776158563E+02 -0.24703059286E+02 -0.16137850008E+02  0.39845125359E+02  0.25500000000E-02 0.  1.
<mgrwt>
<rscale>  0 0.76660254E+02</rscale>
<asrwt>0</asrwt>
<pdfrwt beam="1">  1        1 0.52926710E-02 0.76660254E+02</pdfrwt>
<pdfrwt beam="2">  1       -1 0.65702049E-02 0.76660254E+02</pdfrwt>
<totfact> 0.14404032E+05</totfact>
</mgrwt>
</event>
<event>
 4    1  0.2051373E-002  0.5403871E+02  0.7818608E-02  0.1424700E+00
         -1   -1    0    0  501    0 -0.00000000000E+00  0.00000000000E+00  0.65758175087E+00  0.65760106499E+00  0.50400000000E-02 0.  1.
          1   -1    0    0    0  501  0.00000000000E+00 -0.00000000000E+00 -0.11101811251E+04  0.11101811251E+04  0.50400000000E-02 0.  1.
          2    1    1    2    0  502  0.51882989133E+01  0.24324906688E+02 -0.33777193940E+03  0.33868643696E+03  0.25500000000E-02 0. -1.
         -2    1    1    2  502    0 -0.51882989133E+01 -0.24324906688E+02 -0.77175160390E+03  0.77215228917E+03  0.25500000000E-02 0. -1.
<mgrwt>
<rscale>  0 0.54038711E+02</rscale>
<asrwt>0</asrwt>
<pdfrwt beam="2">  1        1 0.17079560E+00 0.54038711E+02</pdfrwt>
<pdfrwt beam="1">  1       -1 0.10116880E-03 0.54038711E+02</pdfrwt>
<totfact> 0.50600668E+05</totfact>
</mgrwt>
</event>
<event>
 4    1  0.2051373E-002  0.5561006E+02  0.7818608E-02  0.1417236E+00
          1   -1    0    0    0  501  0.00000000000E+00  0.00000000000E+00  0.96551176087E+03  0.96551176088E+03  0.50400000000E-02 0. -1.
         -1   -1    0    0  501    0 -0.00000000000E+00 -0.00000000000E+00 -0.80072758951E+00  0.80074345092E+00  0.50400000000E-02 0. -1.
          2    1    1    2    0  502 -0.10472228669E+02 -0.21965171527E+02  0.24858838811E+03  0.24977654622E+03  0.25500000000E-02 0. -1.
         -2    1    1    2  502    0  0.10472228669E+02  0.21965171527E+02  0.71612264517E+03  0.71653595811E+03  0.25500000000E-02 0. -1.
<mgrwt>
<rscale>  0 0.55610056E+02</rscale>
<asrwt>0</asrwt>
<pdfrwt beam="1">  1        1 0.14854019E+00 0.55610056E+02</pdfrwt>
<pdfrwt beam="2">  1       -1 0.12319015E-03 0.55610056E+02</pdfrwt>
<totfact> 0.49092884E+05</totfact>
</mgrwt>
</event>
<event>
 4    1  0.2051373E-002  0.1088213E+03  0.7818608E-02  0.1262768E+00
          1   -1    0    0    0  501  0.00000000000E+00  0.00000000000E+00  0.11004343782E+03  0.11004343794E+03  0.50400000000E-02 0. -1.
         -1   -1    0    0  501    0 -0.00000000000E+00 -0.00000000000E+00 -0.26903203190E+02  0.26903203662E+02  0.50400000000E-02 0. -1.
          2    1    1    2    0  502  0.21893943053E+02  0.37962029987E+02  0.98501675024E+00  0.43834127431E+02  0.25500000000E-02 0.  1.
         -2    1    1    2  502    0 -0.21893943053E+02 -0.37962029987E+02  0.82155217882E+02  0.93112514169E+02  0.25500000000E-02 0.  1.
<mgrwt>
<rscale>  0 0.10882134E+03</rscale>
<asrwt>0</asrwt>
<pdfrwt beam="1">  1        1 0.16929760E-01 0.10882134E+03</pdfrwt>
<pdfrwt beam="2">  1       -1 0.41389544E-02 0.10882134E+03</pdfrwt>
<totfact> 0.65245271E+04</totfact>
</mgrwt>
</event>
<event>
 4    1  0.2051373E-002  0.4096814E+02  0.7818608E-02  0.1501205E+00
          1   -1    0    0    0  501  0.00000000000E+00  0.00000000000E+00  0.33795729779E+02  0.33795730154E+02  0.50400000000E-02 0.  1.
         -1   -1    0    0  501    0 -0.00000000000E+00 -0.00000000000E+00 -0.12415685895E+02  0.12415686918E+02  0.50400000000E-02 0.  1.
          2    1    1    2    0  502  0.19271690028E+02 -0.54569679791E+01  0.58487939125E+01  0.20865879631E+02  0.25500000000E-02 0. -1.
         -2    1    1    2  502    0 -0.19271690028E+02  0.54569679791E+01  0.15531249971E+02  0.25345537442E+02  0.25500000000E-02 0. -1.
<mgrwt>
<rscale>  0 0.40968144E+02</rscale>
<asrwt>0</asrwt>
<pdfrwt beam="1">  1        1 0.51993432E-02 0.40968144E+02</pdfrwt>
<pdfrwt beam="2">  1       -1 0.19101056E-02 0.40968144E+02</pdfrwt>
<totfact> 0.74530378E+05</totfact>
</mgrwt>
</event>
<event>
 4    1  0.2051373E-002  0.8433147E+02  0.7818608E-02  0.1317190E+00
         -1   -1    0    0  501    0 -0.00000000000E+00  0.00000000000E+00  0.51493182046E+01  0.51493206711E+01  0.50400000000E-02 0. -1.
          1   -1    0    0    0  501  0.00000000000E+00 -0.00000000000E+00 -0.34527845287E+03  0.34527845290E+03  0.50400000000E-02 0. -1.
          2    1    1    2    0  502 -0.29933782997E+02  0.17274340941E+02 -0.27044170742E+03  0.27264106686E+03  0.25500000000E-02 0.  1.
         -2    1    1    2  502    0  0.29933782997E+02 -0.17274340941E+02 -0.69687427245E+02  0.77786706718E+02  0.25500000000E-02 0.  1.
<mgrwt>
<rscale>  0 0.84331467E+02</rscale>
<asrwt>0</asrwt>
<pdfrwt beam="2">  1        1 0.53119744E-01 0.84331467E+02</pdfrwt>
<pdfrwt beam="1">  1       -1 0.79220326E-03 0.84331467E+02</pdfrwt>
<totfact> 0.16170334E+05</totfact>
</mgrwt>
</event>
<event>
 4    1  0.2051373E-002  0.5183889E+02  0.7818608E-02  0.1435668E+00
          1   -1    0    0    0  501  0.00000000000E+00  0.00000000000E+00  0.92924813354E+01  0.92924827022E+01  0.50400000000E-02 0.  1.
         -1   -1    0    0  501    0 -0.00000000000E+00 -0.00000000000E+00 -0.72296903615E+02  0.72296903791E+02  0.50400000000E-02 0.  1.
          2    1    1    2    0  502  0.10619368374E+02  0.22210590687E+02 -0.44263095764E+02  0.50648820089E+02  0.25500000000E-02 0. -1.
         -2    1    1    2  502    0 -0.10619368374E+02 -0.22210590687E+02 -0.18741326516E+02  0.30940566404E+02  0.25500000000E-02 0. -1.
<mgrwt>
<rscale>  0 0.51838892E+02</rscale>
<asrwt>0</asrwt>
<pdfrwt beam="1">  1        1 0.14296127E-02 0.51838892E+02</pdfrwt>
<pdfrwt beam="2">  1       -1 0.11122600E-01 0.51838892E+02</pdfrwt>
<totfact> 0.35738876E+05</totfact>
</mgrwt>
</event>
<event>
 4    1  0.2051373E-002  0.4813480E+02  0.7818608E-02  0.1455670E+00
          1   -1    0    0    0  501  0.00000000000E+00  0.00000000000E+00  0.53826622651E+02  0.53826622887E+02  0.50400000000E-02 0.  1.
         -1   -1    0    0  501    0 -0.00000000000E+00 -0.00000000000E+00 -0.10761210865E+02  0.10761212045E+02  0.50400000000E-02 0.  1.
          2    1    1    2    0  502  0.19151450963E+02  0.14420913640E+02  0.18686656661E+02  0.30396249240E+02  0.25500000000E-02 0. -1.
         -2    1    1    2  502    0 -0.19151450963E+02 -0.14420913640E+02  0.24378755126E+02  0.34191585692E+02  0.25500000000E-02 0. -1.
<mgrwt>
<rscale>  0 0.48134797E+02</rscale>
<asrwt>0</asrwt>
<pdfrwt beam="1">  1        1 0.82810189E-02 0.48134797E+02</pdfrwt>
<pdfrwt beam="2">  1       -1 0.16555710E-02 0.48134797E+02</pdfrwt>
<totfact> 0.51738539E+05</totfact>
</mgrwt>
</event>
<event>
 4    1  0.2051373E-002  0.8614364E+02  0.7818608E-02  0.1312469E+00
          1   -1    0    0    0  501  0.00000000000E+00  0.00000000000E+00  0.35373056065E+04  0.35373056065E+04  0.50400000000E-02 0.  1.
         -1   -1    0    0  501    0 -0.00000000000E+00 -0.00000000000E+00 -0.52444965537E+00  0.52447387220E+00  0.50400000000E-02 0.  1.
          2    1    1    2    0  502 -0.25857278758E+02  0.33818318261E+02  0.14993840597E+04  0.14999882786E+04  0.25500000000E-02 0. -1.
         -2    1    1    2  502    0  0.25857278758E+02 -0.33818318261E+02  0.20373970972E+04  0.20378418018E+04  0.25500000000E-02 0. -1.
<mgrwt>
<rscale>  0 0.86143637E+02</rscale>
<asrwt>0</asrwt>
<pdfrwt beam="1">  1        1 0.54418692E+00 0.86143637E+02</pdfrwt>
<pdfrwt beam="2">  1       -1 0.80688493E-04 0.86143637E+02</pdfrwt>
<totfact> 0.19158678E+04</totfact>
</mgrwt>
</event>
<event>
 4    1  0.2051373E-002  0.1475566E+03  0.7818608E-02  0.1203508E+00
          1   -1    0    0    0  501  0.00000000000E+00  0.00000000000E+00  0.41867690473E+02  0.41867690776E+02  0.50400000000E-02 0. -1.
         -1   -1    0    0  501    0 -0.00000000000E+00 -0.00000000000E+00 -0.13001049428E+03  0.13001049437E+03  0.50400000000E-02 0. -1.
          2    1    1    2    0  502 -0.41041229404E+02 -0.18100716653E+02  0.24160328003E+02  0.50948404391E+02  0.25500000000E-02 0. -1.
         -2    1    1    2  502    0  0.41041229404E+02  0.18100716653E+02 -0.11230313181E+03  0.12092978076E+03  0.25500000000E-02 0. -1.
<mgrwt>
<rscale>  0 0.14755662E+03</rscale>
<asrwt>0</asrwt>
<pdfrwt beam="1">  1        1 0.64411832E-02 0.14755662E+03</pdfrwt>
<pdfrwt beam="2">  1       -1 0.20001614E-01 0.14755662E+03</pdfrwt>
<totfact> 0.22011560E+04</totfact>
</mgrwt>
</event>
<event>
 4    1  0.2051373E-002  0.5861233E+02  0.7818608E-02  0.1403749E+00
         -1   -1    0    0  501    0 -0.00000000000E+00  0.00000000000E+00  0.22256219341E+01  0.22256276407E+01  0.50400000000E-02 0. -1.
          1   -1    0    0    0  501  0.00000000000E+00 -0.00000000000E+00 -0.38589224071E+03  0.38589224075E+03  0.50400000000E-02 0. -1.
          2    1    1    2    0  502 -0.21675641734E+02  0.17108304580E+02 -0.12684406734E+03  0.12981504133E+03  0.25500000000E-02 0. -1.
         -2    1    1    2  502    0  0.21675641734E+02 -0.17108304580E+02 -0.25682255144E+03  0.25830282706E+03  0.25500000000E-02 0. -1.
<mgrwt>
<rscale>  0 0.58612331E+02</rscale>
<asrwt>0</asrwt>
<pdfrwt beam="2">  1        1 0.59367984E-01 0.58612331E+02</pdfrwt>
<pdfrwt beam="1">  1       -1 0.34240412E-03 0.58612331E+02</pdfrwt>
<totfact> 0.42220716E+05</totfact>
</mgrwt>
</event>
<event>
 4    1  0.2051373E-002  0.1467750E+03  0.7818608E-02  0.1204493E+00
         -1   -1    0    0  501    0 -0.00000000000E+00  0.00000000000E+00  0.11355397176E+03  0.11355397188E+03  0.50400000000E-02 0. -1.
          1   -1    0    0    0  501  0.00000000000E+00 -0.00000000000E+00 -0.47428783371E+02  0.47428783638E+02  0.50400000000E-02 0. -1.
          2    1    1    2    0  502  0.52309491913E+02 -0.10133328508E+02 -0.22287857239E+02  0.57755656672E+02  0.25500000000E-02 0.  1.
         -2    1    1    2  502    0 -0.52309491913E+02  0.10133328508E+02  0.88413045632E+02  0.10322709884E+03  0.25500000000E-02 0.  1.
<mgrwt>
<rscale>  0 0.14677502E+03</rscale>
<asrwt>0</asrwt>
<pdfrwt beam="2">  1        1 0.72967360E-02 0.14677502E+03</pdfrwt>
<pdfrwt beam="1">  1       -1 0.17469842E-01 0.14677502E+03</pdfrwt>
<totfact> 0.23071631E+04</totfact>
</mgrwt>
</event>
<event>
 4    1  0.2051373E-002  0.6087007E+02  0.7818608E-02  0.1394216E+00
         -1   -1    0    0  501    0 -0.00000000000E+00  0.00000000000E+00  0.63502102050E+00  0.63504102078E+00  0.50400000000E-02 0.  1.
          1   -1    0    0    0  501  0.00000000000E+00 -0.00000000000E+00 -0.14586550925E+04  0.14586550925E+04  0.50400000000E-02 0.  1.
          2    1    1    2    0  502 -0.16556381688E-01 -0.20589004059E+02 -0.19166193640E+03  0.19276463689E+03  0.25500000000E-02 0.  1.
         -2    1    1    2  502    0  0.16556381688E-01  0.20589004059E+02 -0.12663581351E+04  0.12665254966E+04  0.25500000000E-02 0.  1.
<mgrwt>
<rscale>  0 0.60870066E+02</rscale>
<asrwt>0</asrwt>
<pdfrwt beam="2">  1        1 0.22440580E+00 0.60870066E+02</pdfrwt>
<pdfrwt beam="1">  1       -1 0.97698249E-04 0.60870066E+02</pdfrwt>
<totfact> 0.32249927E+05</totfact>
</mgrwt>
</event>
<event>
 4    1  0.2051373E-002  0.1327455E+03  0.7818608E-02  0.1223438E+00
         -1   -1    0    0  501    0 -0.00000000000E+00  0.00000000000E+00  0.19850586622E+01  0.19850650604E+01  0.50400000000E-02 0. -1.
          1   -1    0    0    0  501  0.00000000000E+00 -0.00000000000E+00 -0.22192467808E+04  0.22192467808E+04  0.50400000000E-02 0. -1.
          2    1    1    2    0  502 -0.53067544472E+02 -0.35447810878E+02 -0.80345150028E+03  0.80598202516E+03  0.25500000000E-02 0. -1.
         -2    1    1    2  502    0  0.53067544472E+02  0.35447810878E+02 -0.14138102219E+04  0.14152498207E+04  0.25500000000E-02 0. -1.
<mgrwt>
<rscale>  0 0.13274550E+03</rscale>
<asrwt>0</asrwt>
<pdfrwt beam="2">  1        1 0.34142060E+00 0.13274550E+03</pdfrwt>
<pdfrwt beam="1">  1       -1 0.30539591E-03 0.13274550E+03</pdfrwt>
<totfact> 0.24250576E+04</totfact>
</mgrwt>
</event>
<event>
 4    1  0.2051373E-002  0.5106470E+02  0.7818608E-02  0.1439682E+00
         -1   -1    0    0  501    0 -0.00000000000E+00  0.00000000000E+00  0.39083562479E+01  0.39083594976E+01  0.50400000000E-02 0.  1.
          1   -1    0    0    0  501  0.00000000000E+00 -0.00000000000E+00 -0.16679663424E+03  0.16679663432E+03  0.50400000000E-02 0.  1.
          2    1    1    2    0  502  0.24954249009E+02 -0.46817672124E+01 -0.90456045179E+02  0.93951740823E+02  0.25500000000E-02 0. -1.
         -2    1    1    2  502    0 -0.24954249009E+02  0.46817672124E+01 -0.72432232816E+02  0.76753252993E+02  0.25500000000E-02 0. -1.
<mgrwt>
<rscale>  0 0.51064702E+02</rscale>
<asrwt>0</asrwt>
<pdfrwt beam="2">  1        1 0.25661015E-01 0.51064702E+02</pdfrwt>
<pdfrwt beam="1">  1       -1 0.60128596E-03 0.51064702E+02</pdfrwt>
<totfact> 0.51700138E+05</totfact>
</mgrwt>
</event>
<event>
 4    1  0.2051373E-002  0.5486609E+02  0.7818608E-02  0.1420733E+00
          1   -1    0    0    0  501  0.00000000000E+00  0.00000000000E+00  0.61778177999E+02  0.61778178204E+02  0.50400000000E-02 0.  1.
         -1   -1    0    0  501    0 -0.00000000000E+00 -0.00000000000E+00 -0.12181841632E+02  0.12181842674E+02  0.50400000000E-02 0.  1.
          2    1    1    2    0  502  0.42386796718E+01 -0.22550320890E+02  0.45291661144E+01  0.23387961215E+02  0.25500000000E-02 0. -1.
         -2    1    1    2  502    0 -0.42386796718E+01  0.22550320890E+02  0.45067170253E+02  0.50572059664E+02  0.25500000000E-02 0. -1.
<mgrwt>
<rscale>  0 0.54866093E+02</rscale>
<asrwt>0</asrwt>
<pdfrwt beam="1">  1        1 0.95043352E-02 0.54866093E+02</pdfrwt>
<pdfrwt beam="2">  1       -1 0.18741296E-02 0.54866093E+02</pdfrwt>
<totfact> 0.37569828E+05</totfact>
</mgrwt>
</event>
<event>
 4    1  0.2051373E-002  0.5681296E+02  0.7818608E-02  0.1411715E+00
         -1   -1    0    0  501    0 -0.00000000000E+00  0.00000000000E+00  0.11044922913E+01  0.11045037904E+01  0.50400000000E-02 0.  1.
          1   -1    0    0    0  501  0.00000000000E+00 -0.00000000000E+00 -0.73058352492E+03  0.73058352494E+03  0.50400000000E-02 0.  1.
          2    1    1    2    0  502  0.56664716429E+01  0.23346791037E+02 -0.55994994469E+03  0.56046509447E+03  0.25500000000E-02 0. -1.
         -2    1    1    2  502    0 -0.56664716429E+01 -0.23346791037E+02 -0.16952908794E+03  0.17122293426E+03  0.25500000000E-02 0. -1.
<mgrwt>
<rscale>  0 0.56812959E+02</rscale>
<asrwt>0</asrwt>
<pdfrwt beam="2">  1        1 0.11239708E+00 0.56812959E+02</pdfrwt>
<pdfrwt beam="1">  1       -1 0.16992336E-03 0.56812959E+02</pdfrwt>
<totfact> 0.48175829E+05</totfact>
</mgrwt>
</event>
<event>
 4    1  0.2051373E-002  0.7154729E+02  0.7818608E-02  0.1354909E+00
         -1   -1    0    0  501    0 -0.00000000000E+00  0.00000000000E+00  0.97546797754E+00  0.97548099767E+00  0.50400000000E-02 0. -1.
          1   -1    0    0    0  501  0.00000000000E+00 -0.00000000000E+00 -0.13119293019E+04  0.13119293019E+04  0.50400000000E-02 0. -1.
          2    1    1    2    0  502 -0.69455206319E+01  0.32657281930E+02 -0.41975384103E+03  0.42107959507E+03  0.25500000000E-02 0.  1.
         -2    1    1    2  502    0  0.69455206319E+01 -0.32657281930E+02 -0.89119999292E+03  0.89182518786E+03  0.25500000000E-02 0.  1.
<mgrwt>
<rscale>  0 0.71547287E+02</rscale>
<asrwt>0</asrwt>
<pdfrwt beam="2">  1        1 0.20183387E+00 0.71547287E+02</pdfrwt>
<pdfrwt beam="1">  1       -1 0.15007405E-03 0.71547287E+02</pdfrwt>
<totfact> 0.22887543E+05</totfact>
</mgrwt>
</event>
<event>
 4    1  0.2051373E-002  0.4348646E+02  0.7818608E-02  0.1484018E+00
         -1   -1    0    0  501    0 -0.00000000000E+00  0.00000000000E+00  0.11974299800E+01  0.11974405867E+01  0.50400000000E-02 0.  1.
          1   -1    0    0    0  501  0.00000000000E+00 -0.00000000000E+00 -0.39481716557E+03  0.39481716561E+03  0.50400000000E-02 0.  1.
          2    1    1    2    0  502 -0.13618584191E+02 -0.16620656062E+02 -0.16652989087E+03  0.16791044221E+03  0.25500000000E-02 0.  1.
         -2    1    1    2  502    0  0.13618584191E+02  0.16620656062E+02 -0.22708984472E+03  0.22810416398E+03  0.25500000000E-02 0.  1.
<mgrwt>
<rscale>  0 0.43486458E+02</rscale>
<asrwt>0</asrwt>
<pdfrwt beam="2">  1        1 0.60740999E-01 0.43486458E+02</pdfrwt>
<pdfrwt beam="1">  1       -1 0.18422113E-03 0.43486458E+02</pdfrwt>
<totfact> 0.89107177E+05</totfact>
</mgrwt>
</event>
<event>
 4    1  0.2051373E-002  0.5536439E+02  0.7818608E-02  0.1418383E+00
          1   -1    0    0    0  501  0.00000000000E+00  0.00000000000E+00  0.18286557828E+01  0.18286627282E+01  0.50400000000E-02 0.  1.
         -1   -1    0    0  501    0 -0.00000000000E+00 -0.00000000000E+00 -0.41905235714E+03  0.41905235717E+03  0.50400000000E-02 0.  1.
          2    1    1    2    0  502 -0.25394812317E+02  0.60976663631E+00 -0.29224635600E+03  0.29334825874E+03  0.25500000000E-02 0. -1.
         -2    1    1    2  502    0  0.25394812317E+02 -0.60976663631E+00 -0.12497734536E+03  0.12753276116E+03  0.25500000000E-02 0. -1.
<mgrwt>
<rscale>  0 0.55364392E+02</rscale>
<asrwt>0</asrwt>
<pdfrwt beam="1">  1        1 0.28133253E-03 0.55364392E+02</pdfrwt>
<pdfrwt beam="2">  1       -1 0.64469518E-01 0.55364392E+02</pdfrwt>
<totfact> 0.18708735E+05</totfact>
</mgrwt>
</event>
<event>
 4    1  0.2051373E-002  0.4490291E+02  0.7818608E-02  0.1474949E+00
          1   -1    0    0    0  501  0.00000000000E+00  0.00000000000E+00  0.75861117861E+02  0.75861118028E+02  0.50400000000E-02 0. -1.
         -1   -1    0    0  501    0 -0.00000000000E+00 -0.00000000000E+00 -0.66446135385E+01  0.66446154500E+01  0.50400000000E-02 0. -1.
          2    1    1    2    0  502  0.21243409064E+02  0.60201747252E+01  0.27134887165E+02  0.34983239420E+02  0.25500000000E-02 0. -1.
         -2    1    1    2  502    0 -0.21243409064E+02 -0.60201747252E+01  0.42081617157E+02  0.47522494058E+02  0.25500000000E-02 0. -1.
<mgrwt>
<rscale>  0 0.44902913E+02</rscale>
<asrwt>0</asrwt>
<pdfrwt beam="1">  1        1 0.11670941E-01 0.44902913E+02</pdfrwt>
<pdfrwt beam="2">  1       -1 0.10222484E-02 0.44902913E+02</pdfrwt>
<totfact> 0.63923922E+05</totfact>
</mgrwt>
</event>
<event>
 4    1  0.2051373E-002  0.6465263E+02  0.7818608E-02  0.1379283E+00
          1   -1    0    0    0  501  0.00000000000E+00  0.00000000000E+00  0.22588376530E+03  0.22588376536E+03  0.50400000000E-02 0.  1.
         -1   -1    0    0  501    0 -0.00000000000E+00 -0.00000000000E+00 -0.46262303613E+01  0.46262331067E+01  0.50400000000E-02 0.  1.
          2    1    1    2    0  502 -0.27702086890E+02 -0.46855216102E+01  0.53624120685E+02  0.60538467577E+02  0.25500000000E-02 0.  1.
         -2    1    1    2  502    0  0.27702086890E+02  0.46855216102E+01  0.16763341426E+03  0.16997153089E+03  0.25500000000E-02 0.  1.
<mgrwt>
<rscale>  0 0.64652630E+02</rscale>
<asrwt>0</asrwt>
<pdfrwt beam="1">  1        1 0.34751345E-01 0.64652630E+02</pdfrwt>
<pdfrwt beam="2">  1       -1 0.71172803E-03 0.64652630E+02</pdfrwt>
<totfact> 0.29899569E+05</totfact>
</mgrwt>
</event>
<event>
 4    1  0.2051373E-002  0.4113475E+02  0.7818608E-02  0.1500023E+00
         -1   -1    0    0  501    0 -0.00000000000E+00  0.00000000000E+00  0.18322067886E+01  0.18322137206E+01  0.50400000000E-02 0.  1.
          1   -1    0    0    0  501  0.00000000000E+00 -0.00000000000E+00 -0.23087797163E+03  0.23087797168E+03  0.50400000000E-02 0.  1.
          2    1    1    2    0  502 -0.61149957852E+01  0.19282064317E+02 -0.13555833532E+03  0.13705930636E+03  0.25500000000E-02 0.  1.
         -2    1    1    2  502    0  0.61149957852E+01 -0.19282064317E+02 -0.93487429513E+02  0.95650879040E+02  0.25500000000E-02 0.  1.
<mgrwt>
<rscale>  0 0.41134754E+02</rscale>
<asrwt>0</asrwt>
<pdfrwt beam="2">  1        1 0.35519666E-01 0.41134754E+02</pdfrwt>
<pdfrwt beam="1">  1       -1 0.28187869E-03 0.41134754E+02</pdfrwt>
<totfact> 0.93338528E+05</totfact>
</mgrwt>
</event>
<event>
 4    1  0.2051373E-002  0.4142657E+02  0.7818608E-02  0.1497968E+00
          1   -1    0    0    0  501  0.00000000000E+00  0.00000000000E+00  0.13535826487E+04  0.13535826487E+04  0.50400000000E-02 0.  1.
         -1   -1    0    0  501    0 -0.00000000000E+00 -0.00000000000E+00 -0.31694633326E+00  0.31698640313E+00  0.50400000000E-02 0.  1.
          2    1    1    2    0  502  0.18127634382E+02  0.97686103192E+01  0.74973599316E+03  0.75001873065E+03  0.25500000000E-02 0. -1.
         -2    1    1    2  502    0 -0.18127634382E+02 -0.97686103192E+01  0.60352970917E+03  0.60388090442E+03  0.25500000000E-02 0. -1.
<mgrwt>
<rscale>  0 0.41426571E+02</rscale>
<asrwt>0</asrwt>
<pdfrwt beam="1">  1        1 0.20824511E+00 0.41426571E+02</pdfrwt>
<pdfrwt beam="2">  1       -1 0.48763678E-04 0.41426571E+02</pdfrwt>
<totfact> 0.88582700E+05</totfact>
</mgrwt>
</event>
<event>
 4    1  0.2051373E-002  0.4699447E+02  0.7818608E-02  0.1462261E+00
         -1   -1    0    0  501    0 -0.00000000000E+00  0.00000000000E+00  0.46056240657E+02  0.46056240933E+02  0.50400000000E-02 0.  1.
          1   -1    0    0    0  501  0.00000000000E+00 -0.00000000000E+00 -0.11987951175E+02  0.11987952235E+02  0.50400000000E-02 0.  1.
          2    1    1    2    0  502  0.62024073297E+01 -0.19883423781E+02  0.36001962812E+01  0.21137214048E+02  0.25500000000E-02 0. -1.
         -2    1    1    2  502    0 -0.62024073297E+01  0.19883423781E+02  0.30468093201E+02  0.36906979120E+02  0.25500000000E-02 0. -1.
<mgrwt>
<rscale>  0 0.46994468E+02</rscale>
<asrwt>0</asrwt>
<pdfrwt beam="2">  1        1 0.18443003E-02 0.46994468E+02</pdfrwt>
<pdfrwt beam="1">  1       -1 0.70855757E-02 0.46994468E+02</pdfrwt>
<totfact> 0.47991737E+05</totfact>
</mgrwt>
</event>
<event>
 4    1  0.2051373E-002  0.5064519E+02  0.7818608E-02  0.1441892E+00
          1   -1    0    0    0  501  0.00000000000E+00  0.00000000000E+00  0.21528702745E+01  0.21528761739E+01  0.50400000000E-02 0.  1.
         -1   -1    0    0  501    0 -0.00000000000E+00 -0.00000000000E+00 -0.29785022298E+03  0.29785022303E+03  0.50400000000E-02 0.  1.
          2    1    1    2    0  502  0.67049095428E+01 -0.23964080704E+02 -0.17563344511E+03  0.17738754190E+03  0.25500000000E-02 0.  1.
         -2    1    1    2  502    0 -0.67049095428E+01  0.23964080704E+02 -0.12006390760E+03  0.12261555730E+03  0.25500000000E-02 0.  1.
<mgrwt>
<rscale>  0 0.50645189E+02</rscale>
<asrwt>0</asrwt>
<pdfrwt beam="1">  1        1 0.33121150E-03 0.50645189E+02</pdfrwt>
<pdfrwt beam="2">  1       -1 0.45823079E-01 0.50645189E+02</pdfrwt>
<totfact> 0.27248072E+05</totfact>
</mgrwt>
</event>
<event>
 4    1  0.2051373E-002  0.5234066E+02  0.7818608E-02  0.1433111E+00
          1   -1    0    0    0  501  0.00000000000E+00  0.00000000000E+00  0.12023320187E+02  0.12023321243E+02  0.50400000000E-02 0. -1.
         -1   -1    0    0  501    0 -0.00000000000E+00 -0.00000000000E+00 -0.56963152082E+02  0.56963152305E+02  0.50400000000E-02 0. -1.
          2    1    1    2    0  502  0.15535547581E+02 -0.13709976718E+02 -0.43540631287E+02  0.48219324753E+02  0.25500000000E-02 0. -1.
         -2    1    1    2  502    0 -0.15535547581E+02  0.13709976718E+02 -0.13992006079E+01  0.20767148795E+02  0.25500000000E-02 0. -1.
<mgrwt>
<rscale>  0 0.52340663E+02</rscale>
<asrwt>0</asrwt>
<pdfrwt beam="1">  1        1 0.18497417E-02 0.52340663E+02</pdfrwt>
<pdfrwt beam="2">  1       -1 0.87635618E-02 0.52340663E+02</pdfrwt>
<totfact> 0.35971561E+05</totfact>
</mgrwt>
</event>
<event>
 4    1  0.2051373E-002  0.6371125E+02  0.7818608E-02  0.1382886E+00
          1   -1    0    0    0  501  0.00000000000E+00  0.00000000000E+00  0.75239935577E+01  0.75239952457E+01  0.50400000000E-02 0. -1.
         -1   -1    0    0  501    0 -0.00000000000E+00 -0.00000000000E+00 -0.13487259998E+03  0.13487260007E+03  0.50400000000E-02 0. -1.
          2    1    1    2    0  502  0.48934486521E+00  0.31785231704E+02 -0.59071940707E+02  0.67082297204E+02  0.25500000000E-02 0.  1.
         -2    1    1    2  502    0 -0.48934486521E+00 -0.31785231704E+02 -0.68276665712E+02  0.75314298112E+02  0.25500000000E-02 0.  1.
<mgrwt>
<rscale>  0 0.63711245E+02</rscale>
<asrwt>0</asrwt>
<pdfrwt beam="1">  1        1 0.11575377E-02 0.63711245E+02</pdfrwt>
<pdfrwt beam="2">  1       -1 0.20749629E-01 0.63711245E+02</pdfrwt>
<totfact> 0.19198175E+05</totfact>
</mgrwt>
</event>
<event>
 4    1  0.2051373E-002  0.4731956E+02  0.7818608E-02  0.1460360E+00
          1   -1    0    0    0  501  0.00000000000E+00  0.00000000000E+00  0.12844428027E+03  0.12844428037E+03  0.50400000000E-02 0. -1.
         -1   -1    0    0  501    0 -0.00000000000E+00 -0.00000000000E+00 -0.43581933868E+01  0.43581963010E+01  0.50400000000E-02 0. -1.
          2    1    1    2    0  502  0.18656999484E+02  0.10684351464E+02  0.34324483174E+02  0.40501964737E+02  0.25500000000E-02 0. -1.
         -2    1    1    2  502    0 -0.18656999484E+02 -0.10684351464E+02  0.89761603708E+02  0.92300511930E+02  0.25500000000E-02 0. -1.
<mgrwt>
<rscale>  0 0.47319561E+02</rscale>
<asrwt>0</asrwt>
<pdfrwt beam="1">  1        1 0.19760658E-01 0.47319561E+02</pdfrwt>
<pdfrwt beam="2">  1       -1 0.67049153E-03 0.47319561E+02</pdfrwt>
<totfact> 0.60063865E+05</totfact>
</mgrwt>
</event>
<event>
 4    1  0.2051373E-002  0.5357013E+02  0.7818608E-02  0.1426984E+00
         -1   -1    0    0  501    0 -0.00000000000E+00  0.00000000000E+00  0.74925413743E+02  0.74925413913E+02  0.50400000000E-02 0. -1.
          1   -1    0    0    0  501  0.00000000000E+00 -0.00000000000E+00 -0.95753849999E+01  0.95753863263E+01  0.50400000000E-02 0. -1.
          2    1    1    2    0  502 -0.26006780494E+02  0.63548466666E+01  0.31352423315E+02  0.41227553432E+02  0.25500000000E-02 0. -1.
         -2    1    1    2  502    0  0.26006780494E+02 -0.63548466666E+01  0.33997605429E+02  0.43273246807E+02  0.25500000000E-02 0. -1.
<mgrwt>
<rscale>  0 0.53570131E+02</rscale>
<asrwt>0</asrwt>
<pdfrwt beam="2">  1        1 0.14731362E-02 0.53570131E+02</pdfrwt>
<pdfrwt beam="1">  1       -1 0.11526987E-01 0.53570131E+02</pdfrwt>
<totfact> 0.32779652E+05</totfact>
</mgrwt>
</event>
<event>
 4    1  0.2051373E-002  0.7056874E+02  0.7818608E-02  0.1358170E+00
         -1   -1    0    0  501    0 -0.00000000000E+00  0.00000000000E+00  0.96486513635E+03  0.96486513637E+03  0.50400000000E-02 0.  1.
          1   -1    0    0    0  501  0.00000000000E+00 -0.00000000000E+00 -0.12903170186E+01  0.12903268617E+01  0.50400000000E-02 0.  1.
          2    1    1    2    0  502  0.19018190150E+02 -0.29678681036E+02  0.50330881952E+03  0.50454165683E+03  0.25500000000E-02 0.  1.
         -2    1    1    2  502    0 -0.19018190150E+02  0.29678681036E+02  0.46026599982E+03  0.46161380640E+03  0.25500000000E-02 0.  1.
<mgrwt>
<rscale>  0 0.70568737E+02</rscale>
<asrwt>0</asrwt>
<pdfrwt beam="2">  1        1 0.19851198E-03 0.70568737E+02</pdfrwt>
<pdfrwt beam="1">  1       -1 0.14844011E+00 0.70568737E+02</pdfrwt>
<totfact> 0.52098679E+04</totfact>
</mgrwt>
</event>
<event>
 4    1  0.2051373E-002  0.1104793E+03  0.7818608E-02  0.1259685E+00
          1   -1    0    0    0  501  0.00000000000E+00  0.00000000000E+00  0.70203119889E+02  0.70203120070E+02  0.50400000000E-02 0.  1.
         -1   -1    0    0  501    0 -0.00000000000E+00 -0.00000000000E+00 -0.43465565259E+02  0.43465565552E+02  0.50400000000E-02 0.  1.
          2    1    1    2    0  502  0.13488065119E+02 -0.50929518640E+02 -0.37139928271E+01  0.52816072542E+02  0.25500000000E-02 0. -1.
         -2    1    1    2  502    0 -0.13488065119E+02  0.50929518640E+02  0.30451547457E+02  0.60852613079E+02  0.25500000000E-02 0. -1.
<mgrwt>
<rscale>  0 0.11047929E+03</rscale>
<asrwt>0</asrwt>
<pdfrwt beam="1">  1        1 0.10800480E-01 0.11047929E+03</pdfrwt>
<pdfrwt beam="2">  1       -1 0.66870101E-02 0.11047929E+03</pdfrwt>
<totfact> 0.57679205E+04</totfact>
</mgrwt>
</event>
<event>
 4    1  0.2051373E-002  0.4887591E+02  0.7818608E-02  0.1451501E+00
          1   -1    0    0    0  501  0.00000000000E+00  0.00000000000E+00  0.30184157138E+01  0.30184199215E+01  0.50400000000E-02 0. -1.
         -1   -1    0    0  501    0 -0.00000000000E+00 -0.00000000000E+00 -0.19785652996E+03  0.19785653002E+03  0.50400000000E-02 0. -1.
          2    1    1    2    0  502  0.92358996725E+01 -0.18881803522E+02 -0.46187033221E+02  0.50745111994E+02  0.25500000000E-02 0. -1.
         -2    1    1    2  502    0 -0.92358996725E+01  0.18881803522E+02 -0.14865108102E+03  0.15012983795E+03  0.25500000000E-02 0. -1.
<mgrwt>
<rscale>  0 0.48875912E+02</rscale>
<asrwt>0</asrwt>
<pdfrwt beam="1">  1        1 0.46437213E-03 0.48875912E+02</pdfrwt>
<pdfrwt beam="2">  1       -1 0.30439456E-01 0.48875912E+02</pdfrwt>
<totfact> 0.34013251E+05</totfact>
</mgrwt>
</event>
<event>
 4    1  0.2051373E-002  0.5715047E+02  0.7818608E-02  0.1410194E+00
         -1   -1    0    0  501    0 -0.00000000000E+00  0.00000000000E+00  0.30303229393E+03  0.30303229397E+03  0.50400000000E-02 0.  1.
          1   -1    0    0    0  501  0.00000000000E+00 -0.00000000000E+00 -0.26945756267E+01  0.26945803402E+01  0.50400000000E-02 0.  1.
          2    1    1    2    0  502  0.26926571982E+02  0.21942693436E+01  0.19997649425E+03  0.20179309541E+03  0.25500000000E-02 0. -1.
         -2    1    1    2  502    0 -0.26926571982E+02 -0.21942693436E+01  0.10036122405E+03  0.10393377890E+03  0.25500000000E-02 0. -1.
<mgrwt>
<rscale>  0 0.57150474E+02</rscale>
<asrwt>0</asrwt>
<pdfrwt beam="2">  1        1 0.41455052E-03 0.57150474E+02</pdfrwt>
<pdfrwt beam="1">  1       -1 0.46620347E-01 0.57150474E+02</pdfrwt>
<totfact> 0.20013595E+05</totfact>
</mgrwt>
</event>
<event>
 4    1  0.2051373E-002  0.4459978E+02  0.7818608E-02  0.1476856E+00
         -1   -1    0    0  501    0 -0.00000000000E+00  0.00000000000E+00  0.48874470388E+00  0.48877068977E+00  0.50400000000E-02 0. -1.
          1   -1    0    0    0  501  0.00000000000E+00 -0.00000000000E+00 -0.10174470527E+04  0.10174470527E+04  0.50400000000E-02 0. -1.
          2    1    1    2    0  502 -0.22110016255E+02  0.25348092082E+01 -0.47614494685E+03  0.47666475482E+03  0.25500000000E-02 0.  1.
         -2    1    1    2  502    0  0.22110016255E+02 -0.25348092082E+01 -0.54081336116E+03  0.54127106859E+03  0.25500000000E-02 0.  1.
<mgrwt>
<rscale>  0 0.44599780E+02</rscale>
<asrwt>0</asrwt>
<pdfrwt beam="2">  1        1 0.15652862E+00 0.44599780E+02</pdfrwt>
<pdfrwt beam="1">  1       -1 0.75194307E-04 0.44599780E+02</pdfrwt>
<totfact> 0.83736770E+05</totfact>
</mgrwt>
</event>
<event>
 4    1  0.2051373E-002  0.8083785E+02  0.7818608E-02  0.1326690E+00
          1   -1    0    0    0  501  0.00000000000E+00  0.00000000000E+00  0.26679101220E+02  0.26679101696E+02  0.50400000000E-02 0. -1.
         -1   -1    0    0  501    0 -0.00000000000E+00 -0.00000000000E+00 -0.61234794684E+02  0.61234794891E+02  0.50400000000E-02 0. -1.
          2    1    1    2    0  502 -0.16264127319E+02 -0.35513815459E+02 -0.28576501275E+02  0.48398030513E+02  0.25500000000E-02 0. -1.
         -2    1    1    2  502    0  0.16264127319E+02  0.35513815459E+02 -0.59791921884E+01  0.39515866075E+02  0.25500000000E-02 0. -1.
<mgrwt>
<rscale>  0 0.80837845E+02</rscale>
<asrwt>0</asrwt>
<pdfrwt beam="1">  1        1 0.41044772E-02 0.80837845E+02</pdfrwt>
<pdfrwt beam="2">  1       -1 0.94207377E-02 0.80837845E+02</pdfrwt>
<totfact> 0.11992104E+05</totfact>
</mgrwt>
</event>
<event>
 4    1  0.2051373E-002  0.4821505E+02  0.7818608E-02  0.1455214E+00
         -1   -1    0    0  501    0 -0.00000000000E+00  0.00000000000E+00  0.33749003971E+01  0.33749041604E+01  0.50400000000E-02 0. -1.
          1   -1    0    0    0  501  0.00000000000E+00 -0.00000000000E+00 -0.17220428542E+03  0.17220428549E+03  0.50400000000E-02 0. -1.
          2    1    1    2    0  502 -0.38536660107E+01  0.22343116311E+02 -0.54583229962E+02  0.59104945544E+02  0.25500000000E-02 0.  1.
         -2    1    1    2  502    0  0.38536660107E+01 -0.22343116311E+02 -0.11424615506E+03  0.11647424411E+03  0.25500000000E-02 0.  1.
<mgrwt>
<rscale>  0 0.48215045E+02</rscale>
<asrwt>0</asrwt>
<pdfrwt beam="2">  1        1 0.26492960E-01 0.48215045E+02</pdfrwt>
<pdfrwt beam="1">  1       -1 0.51921587E-03 0.48215045E+02</pdfrwt>
<totfact> 0.60012257E+05</totfact>
</mgrwt>
</event>
<event>
 4    1  0.2051373E-002  0.7298141E+02  0.7818608E-02  0.1350238E+00
         -1   -1    0    0  501    0 -0.00000000000E+00  0.00000000000E+00  0.20023464471E+01  0.20023527900E+01  0.50400000000E-02 0.  1.
          1   -1    0    0    0  501  0.00000000000E+00 -0.00000000000E+00 -0.66500459958E+03  0.66500459960E+03  0.50400000000E-02 0.  1.
          2    1    1    2    0  502 -0.89598374101E+00  0.33323320154E+02 -0.19584162129E+03  0.19865846846E+03  0.25500000000E-02 0. -1.
         -2    1    1    2  502    0  0.89598374101E+00 -0.33323320154E+02 -0.46716063184E+03  0.46834848393E+03  0.25500000000E-02 0. -1.
<mgrwt>
<rscale>  0 0.72981415E+02</rscale>
<asrwt>0</asrwt>
<pdfrwt beam="2">  1        1 0.10230822E+00 0.72981415E+02</pdfrwt>
<pdfrwt beam="1">  1       -1 0.30805432E-03 0.72981415E+02</pdfrwt>
<totfact> 0.25448955E+05</totfact>
</mgrwt>
</event>
<event>
 4    1  0.2051373E-002  0.8600831E+02  0.7818608E-02  0.1312817E+00
         -1   -1    0    0  501    0 -0.00000000000E+00  0.00000000000E+00  0.55488634077E+03  0.55488634079E+03  0.50400000000E-02 0.  1.
          1   -1    0    0    0  501  0.00000000000E+00 -0.00000000000E+00 -0.33328562377E+01  0.33328600485E+01  0.50400000000E-02 0.  1.
          2    1    1    2    0  502 -0.22556424307E+02  0.25999269759E+02  0.44309585110E+03  0.44443074553E+03  0.25500000000E-02 0. -1.
         -2    1    1    2  502    0  0.22556424307E+02 -0.25999269759E+02  0.10845763343E+03  0.11378845531E+03  0.25500000000E-02 0. -1.
<mgrwt>
<rscale>  0 0.86008313E+02</rscale>
<asrwt>0</asrwt>
<pdfrwt beam="2">  1        1 0.51274727E-03 0.86008313E+02</pdfrwt>
<pdfrwt beam="1">  1       -1 0.85367153E-01 0.86008313E+02</pdfrwt>
<totfact> 0.51231119E+04</totfact>
</mgrwt>
</event>
<event>
 4    1  0.2051373E-002  0.4385519E+02  0.7818608E-02  0.1481618E+00
          1   -1    0    0    0  501  0.00000000000E+00  0.00000000000E+00  0.54894753087E+03  0.54894753089E+03  0.50400000000E-02 0. -1.
         -1   -1    0    0  501    0 -0.00000000000E+00 -0.00000000000E+00 -0.87588609758E+00  0.87590059797E+00  0.50400000000E-02 0. -1.
          2    1    1    2    0  502  0.21623620079E+02 -0.21085524959E+01  0.23686006484E+03  0.23785440350E+03  0.25500000000E-02 0.  1.
         -2    1    1    2  502    0 -0.21623620079E+02  0.21085524959E+01  0.31121157992E+03  0.31196902799E+03  0.25500000000E-02 0.  1.
<mgrwt>
<rscale>  0 0.43855194E+02</rscale>
<asrwt>0</asrwt>
<pdfrwt beam="1">  1        1 0.84453694E-01 0.43855194E+02</pdfrwt>
<pdfrwt beam="2">  1       -1 0.13475246E-03 0.43855194E+02</pdfrwt>
<totfact> 0.90797550E+05</totfact>
</mgrwt>
</event>
<event>
 4    1  0.2051373E-002  0.5107615E+02  0.7818608E-02  0.1439622E+00
         -1   -1    0    0  501    0 -0.00000000000E+00  0.00000000000E+00  0.77902691831E+01  0.77902708135E+01  0.50400000000E-02 0.  1.
          1   -1    0    0    0  501  0.00000000000E+00 -0.00000000000E+00 -0.83718968420E+02  0.83718968572E+02  0.50400000000E-02 0.  1.
          2    1    1    2    0  502  0.21406314499E+02 -0.71544713503E+01 -0.16556389081E+02  0.27991619936E+02  0.25500000000E-02 0.  1.
         -2    1    1    2  502    0 -0.21406314499E+02  0.71544713503E+01 -0.59372310156E+02  0.63517619449E+02  0.25500000000E-02 0.  1.
<mgrwt>
<rscale>  0 0.51076154E+02</rscale>
<asrwt>0</asrwt>
<pdfrwt beam="2">  1        1 0.12879841E-01 0.51076154E+02</pdfrwt>
<pdfrwt beam="1">  1       -1 0.11985031E-02 0.51076154E+02</pdfrwt>
<totfact> 0.46760085E+05</totfact>
</mgrwt>
</event>
<event>
 4    1  0.2051373E-002  0.5144419E+02  0.7818608E-02  0.1437704E+00
          1   -1    0    0    0  501  0.00000000000E+00  0.00000000000E+00  0.97143981900E+00  0.97145289312E+00  0.50400000000E-02 0.  1.
         -1   -1    0    0  501    0 -0.00000000000E+00 -0.00000000000E+00 -0.68107334756E+03  0.68107334758E+03  0.50400000000E-02 0.  1.
          2    1    1    2    0  502 -0.21300526455E+02  0.83703097230E+01 -0.18438894310E+03  0.18580381281E+03  0.25500000000E-02 0.  1.
         -2    1    1    2  502    0  0.21300526455E+02 -0.83703097230E+01 -0.49571296464E+03  0.49624098766E+03  0.25500000000E-02 0.  1.
<mgrwt>
<rscale>  0 0.51444192E+02</rscale>
<asrwt>0</asrwt>
<pdfrwt beam="1">  1        1 0.14945383E-03 0.51444192E+02</pdfrwt>
<pdfrwt beam="2">  1       -1 0.10478013E+00 0.51444192E+02</pdfrwt>
<totfact> 0.16302394E+05</totfact>
</mgrwt>
</event>
<event>
 4    1  0.2051373E-002  0.1327800E+03  0.7818608E-02  0.1223388E+00
         -1   -1    0    0  501    0 -0.00000000000E+00  0.00000000000E+00  0.28270186494E+01  0.28270231421E+01  0.50400000000E-02 0. -1.
          1   -1    0    0    0  501  0.00000000000E+00 -0.00000000000E+00 -0.15591086185E+04  0.15591086185E+04  0.50400000000E-02 0. -1.
          2    1    1    2    0  502 -0.23124354492E+02  0.16234330693E+02 -0.71425417334E+02  0.76810673162E+02  0.25500000000E-02 0. -1.
         -2    1    1    2  502    0  0.23124354492E+02 -0.16234330693E+02 -0.14848561825E+04  0.14851249685E+04  0.25500000000E-02 0. -1.
<mgrwt>
<rscale>  0 0.13278001E+03</rscale>
<asrwt>0</asrwt>
<pdfrwt beam="2">  1        1 0.23986218E+00 0.13278001E+03</pdfrwt>
<pdfrwt beam="1">  1       -1 0.43492754E-03 0.13278001E+03</pdfrwt>
<totfact> 0.38827153E+04</totfact>
</mgrwt>
</event>
<event>
 4    1  0.2051373E-002  0.4423267E+02  0.7818608E-02  0.1479190E+00
          1   -1    0    0    0  501  0.00000000000E+00  0.00000000000E+00  0.81402116409E+02  0.81402116565E+02  0.50400000000E-02 0. -1.
         -1   -1    0    0  501    0 -0.00000000000E+00 -0.00000000000E+00 -0.60088379645E+01  0.60088400782E+01  0.50400000000E-02 0. -1.
          2    1    1    2    0  502 -0.20490071146E+02 -0.35500578028E+01  0.52575229076E+02  0.56538488173E+02  0.25500000000E-02 0. -1.
         -2    1    1    2  502    0  0.20490071146E+02  0.35500578028E+01  0.22818049369E+02  0.30872468471E+02  0.25500000000E-02 0. -1.
<mgrwt>
<rscale>  0 0.44232668E+02</rscale>
<asrwt>0</asrwt>
<pdfrwt beam="1">  1        1 0.12523403E-01 0.44232668E+02</pdfrwt>
<pdfrwt beam="2">  1       -1 0.92443678E-03 0.44232668E+02</pdfrwt>
<totfact> 0.66912564E+05</totfact>
</mgrwt>
</event>
<event>
 4    1  0.2051373E-002  0.6204418E+02  0.7818608E-02  0.1389448E+00
         -1   -1    0    0  501    0 -0.00000000000E+00  0.00000000000E+00  0.39532801569E+02  0.39532801890E+02  0.50400000000E-02 0.  1.
          1   -1    0    0    0  501  0.00000000000E+00 -0.00000000000E+00 -0.24343581099E+02  0.24343581621E+02  0.50400000000E-02 0.  1.
          2    1    1    2    0  502 -0.13697943857E+01 -0.30290556893E+02  0.84542552997E+00  0.30333297289E+02  0.25500000000E-02 0. -1.
         -2    1    1    2  502    0  0.13697943857E+01  0.30290556893E+02  0.14343794940E+02  0.33543086223E+02  0.25500000000E-02 0. -1.
<mgrwt>
<rscale>  0 0.62044177E+02</rscale>
<asrwt>0</asrwt>
<pdfrwt beam="2">  1        1 0.37451664E-02 0.62044177E+02</pdfrwt>
<pdfrwt beam="1">  1       -1 0.60819695E-02 0.62044177E+02</pdfrwt>
<totfact> 0.24615701E+05</totfact>
</mgrwt>
</event>
<event>
 4    1  0.2051373E-002  0.6087287E+02  0.7818608E-02  0.1394205E+00
         -1   -1    0    0  501    0 -0.00000000000E+00  0.00000000000E+00  0.34525794293E+02  0.34525794660E+02  0.50400000000E-02 0.  1.
          1   -1    0    0    0  501  0.00000000000E+00 -0.00000000000E+00 -0.26831437174E+02  0.26831437647E+02  0.50400000000E-02 0.  1.
          2    1    1    2    0  502 -0.17567343151E+02 -0.23419166794E+02  0.12238550087E+02  0.31730916051E+02  0.25500000000E-02 0. -1.
         -2    1    1    2  502    0  0.17567343151E+02  0.23419166794E+02 -0.45441929685E+01  0.29626316257E+02  0.25500000000E-02 0. -1.
<mgrwt>
<rscale>  0 0.60872874E+02</rscale>
<asrwt>0</asrwt>
<pdfrwt beam="2">  1        1 0.41279135E-02 0.60872874E+02</pdfrwt>
<pdfrwt beam="1">  1       -1 0.53116607E-02 0.60872874E+02</pdfrwt>
<totfact> 0.26189923E+05</totfact>
</mgrwt>
</event>
<event>
 4    1  0.2051373E-002  0.4623165E+02  0.7818608E-02  0.1466796E+00
         -1   -1    0    0  501    0 -0.00000000000E+00  0.00000000000E+00  0.44988086927E+03  0.44988086930E+03  0.50400000000E-02 0.  1.
          1   -1    0    0    0  501  0.00000000000E+00 -0.00000000000E+00 -0.11877345555E+01  0.11877452488E+01  0.50400000000E-02 0.  1.
          2    1    1    2    0  502  0.14376863711E+02 -0.14288253047E+02  0.33277033258E+03  0.33338707629E+03  0.25500000000E-02 0. -1.
         -2    1    1    2  502    0 -0.14376863711E+02  0.14288253047E+02  0.11592280213E+03  0.11768153825E+03  0.25500000000E-02 0. -1.
<mgrwt>
<rscale>  0 0.46231655E+02</rscale>
<asrwt>0</asrwt>
<pdfrwt beam="2">  1        1 0.18272883E-03 0.46231655E+02</pdfrwt>
<pdfrwt beam="1">  1       -1 0.69212589E-01 0.46231655E+02</pdfrwt>
<totfact> 0.28155164E+05</totfact>
</mgrwt>
</event>
<event>
 4    1  0.2051373E-002  0.6468630E+02  0.7818608E-02  0.1379155E+00
         -1   -1    0    0  501    0 -0.00000000000E+00  0.00000000000E+00  0.20752575284E+03  0.20752575291E+03  0.50400000000E-02 0.  1.
          1   -1    0    0    0  501  0.00000000000E+00 -0.00000000000E+00 -0.50407187691E+01  0.50407212887E+01  0.50400000000E-02 0.  1.
          2    1    1    2    0  502  0.83581693161E+01  0.31035636847E+02  0.11309508332E+03  0.11757366893E+03  0.25500000000E-02 0.  1.
         -2    1    1    2  502    0 -0.83581693161E+01 -0.31035636847E+02  0.89389950760E+02  0.94992805265E+02  0.25500000000E-02 0.  1.
<mgrwt>
<rscale>  0 0.64686296E+02</rscale>
<asrwt>0</asrwt>
<pdfrwt beam="2">  1        1 0.77549546E-03 0.64686296E+02</pdfrwt>
<pdfrwt beam="1">  1       -1 0.31927036E-01 0.64686296E+02</pdfrwt>
<totfact> 0.16622093E+05</totfact>
</mgrwt>
</event>
<event>
 4    1  0.2051373E-002  0.7180003E+02  0.7818608E-02  0.1354077E+00
          1   -1    0    0    0  501  0.00000000000E+00  0.00000000000E+00  0.41578529947E+03  0.41578529950E+03  0.50400000000E-02 0. -1.
         -1   -1    0    0  501    0 -0.00000000000E+00 -0.00000000000E+00 -0.30997008253E+01  0.30997049227E+01  0.50400000000E-02 0. -1.
          2    1    1    2    0  502  0.24465795612E+02 -0.25595062748E+02  0.24092081225E+03  0.24350876817E+03  0.25500000000E-02 0. -1.
         -2    1    1    2  502    0 -0.24465795612E+02  0.25595062748E+02  0.17176478639E+03  0.17537623625E+03  0.25500000000E-02 0. -1.
<mgrwt>
<rscale>  0 0.71800025E+02</rscale>
<asrwt>0</asrwt>
<pdfrwt beam="1">  1        1 0.63966925E-01 0.71800025E+02</pdfrwt>
<pdfrwt beam="2">  1       -1 0.47687770E-03 0.71800025E+02</pdfrwt>
<totfact> 0.25394267E+05</totfact>
</mgrwt>
</event>
<event>
 4    1  0.2051373E-002  0.5542140E+02  0.7818608E-02  0.1418117E+00
         -1   -1    0    0  501    0 -0.00000000000E+00  0.00000000000E+00  0.39598397563E+02  0.39598397883E+02  0.50400000000E-02 0. -1.
          1   -1    0    0    0  501  0.00000000000E+00 -0.00000000000E+00 -0.19391765892E+02  0.19391766547E+02  0.50400000000E-02 0. -1.
          2    1    1    2    0  502  0.11182854496E+02 -0.16939095547E+02 -0.99766171144E+01  0.22616854074E+02  0.25500000000E-02 0. -1.
         -2    1    1    2  502    0 -0.11182854496E+02  0.16939095547E+02  0.30183248785E+02  0.36373310357E+02  0.25500000000E-02 0. -1.
<mgrwt>
<rscale>  0 0.55421400E+02</rscale>
<asrwt>0</asrwt>
<pdfrwt beam="2">  1        1 0.29833487E-02 0.55421400E+02</pdfrwt>
<pdfrwt beam="1">  1       -1 0.60920612E-02 0.55421400E+02</pdfrwt>
<totfact> 0.32525250E+05</totfact>
</mgrwt>
</event>
<event>
 4    1  0.2051373E-002  0.1093702E+03  0.7818608E-02  0.1261741E+00
          1   -1    0    0    0  501  0.00000000000E+00  0.00000000000E+00  0.25283824689E+02  0.25283825191E+02  0.50400000000E-02 0. -1.
         -1   -1    0    0  501    0 -0.00000000000E+00 -0.00000000000E+00 -0.11827565579E+03  0.11827565590E+03  0.50400000000E-02 0. -1.
          2    1    1    2    0  502 -0.11350182533E+02 -0.53148440361E+02 -0.54466942866E+02  0.76943038853E+02  0.25500000000E-02 0. -1.
         -2    1    1    2  502    0  0.11350182533E+02  0.53148440361E+02 -0.38524888240E+02  0.66616442240E+02  0.25500000000E-02 0. -1.
<mgrwt>
<rscale>  0 0.10937022E+03</rscale>
<asrwt>0</asrwt>
<pdfrwt beam="1">  1        1 0.38898193E-02 0.10937022E+03</pdfrwt>
<pdfrwt beam="2">  1       -1 0.18196254E-01 0.10937022E+03</pdfrwt>
<totfact> 0.49138118E+04</totfact>
</mgrwt>
</event>
<event>
 4    1  0.2051373E-002  0.4775996E+02  0.7818608E-02  0.1457812E+00
         -1   -1    0    0  501    0 -0.00000000000E+00  0.00000000000E+00  0.27575082321E+00  0.27579687834E+00  0.50400000000E-02 0.  1.
          1   -1    0    0    0  501  0.00000000000E+00 -0.00000000000E+00 -0.20678300673E+04  0.20678300673E+04  0.50400000000E-02 0.  1.
          2    1    1    2    0  502 -0.26027515850E+01  0.23562473721E+02 -0.11584464301E+04  0.11586889556E+04  0.25500000000E-02 0. -1.
         -2    1    1    2  502    0  0.26027515850E+01 -0.23562473721E+02 -0.90910788634E+03  0.90941690852E+03  0.25500000000E-02 0. -1.
<mgrwt>
<rscale>  0 0.47759961E+02</rscale>
<asrwt>0</asrwt>
<pdfrwt beam="2">  1        1 0.31811529E+00 0.47759961E+02</pdfrwt>
<pdfrwt beam="1">  1       -1 0.42428403E-04 0.47759961E+02</pdfrwt>
<totfact> 0.40133406E+05</totfact>
</mgrwt>
</event>
<event>
 4    1  0.2051373E-002  0.8053552E+02  0.7818608E-02  0.1327539E+00
          1   -1    0    0    0  501  0.00000000000E+00  0.00000000000E+00  0.54071184279E+03  0.54071184281E+03  0.50400000000E-02 0.  1.
         -1   -1    0    0  501    0 -0.00000000000E+00 -0.00000000000E+00 -0.29988085421E+01  0.29988127774E+01  0.50400000000E-02 0.  1.
          2    1    1    2    0  502 -0.22418635945E+02  0.22946979601E+02  0.43316631820E+03  0.43435264284E+03  0.25500000000E-02 0.  1.
         -2    1    1    2  502    0  0.22418635945E+02 -0.22946979601E+02  0.10454671605E+03  0.10935801275E+03  0.25500000000E-02 0.  1.
<mgrwt>
<rscale>  0 0.80535519E+02</rscale>
<asrwt>0</asrwt>
<pdfrwt beam="1">  1        1 0.83186259E-01 0.80535519E+02</pdfrwt>
<pdfrwt beam="2">  1       -1 0.46135648E-03 0.80535519E+02</pdfrwt>
<totfact> 0.19468530E+05</totfact>
</mgrwt>
</event>
<event>
 4    1  0.2051373E-002  0.5592592E+02  0.7818608E-02  0.1415770E+00
          1   -1    0    0    0  501  0.00000000000E+00  0.00000000000E+00  0.10891094300E+04  0.10891094300E+04  0.50400000000E-02 0.  1.
         -1   -1    0    0  501    0 -0.00000000000E+00 -0.00000000000E+00 -0.71794216145E+00  0.71795985180E+00  0.50400000000E-02 0.  1.
          2    1    1    2    0  502 -0.92733911869E+01  0.23913611845E+02  0.76125534521E+03  0.76168730935E+03  0.25500000000E-02 0. -1.
         -2    1    1    2  502    0  0.92733911869E+01 -0.23913611845E+02  0.32713614267E+03  0.32814008055E+03  0.25500000000E-02 0. -1.
<mgrwt>
<rscale>  0 0.55925923E+02</rscale>
<asrwt>0</asrwt>
<pdfrwt beam="1">  1        1 0.16755606E+00 0.55925923E+02</pdfrwt>
<pdfrwt beam="2">  1       -1 0.11045350E-03 0.55925923E+02</pdfrwt>
<totfact> 0.46746589E+05</totfact>
</mgrwt>
</event>
<event>
 4    1  0.2051373E-002  0.1290217E+03  0.7818608E-02  0.1228915E+00
          1   -1    0    0    0  501  0.00000000000E+00  0.00000000000E+00  0.57801617281E+03  0.57801617284E+03  0.50400000000E-02 0.  1.
         -1   -1    0    0  501    0 -0.00000000000E+00 -0.00000000000E+00 -0.71998887328E+01  0.71998904968E+01  0.50400000000E-02 0.  1.
          2    1    1    2    0  502 -0.17851346270E+02 -0.61660944745E+02  0.25639679208E+03  0.26431053264E+03  0.25500000000E-02 0.  1.
         -2    1    1    2  502    0  0.17851346270E+02  0.61660944745E+02  0.31441949201E+03  0.32090553069E+03  0.25500000000E-02 0.  1.
<mgrwt>
<rscale>  0 0.12902174E+03</rscale>
<asrwt>0</asrwt>
<pdfrwt beam="1">  1        1 0.88925579E-01 0.12902174E+03</pdfrwt>
<pdfrwt beam="2">  1       -1 0.11076752E-02 0.12902174E+03</pdfrwt>
<totfact> 0.55459754E+04</totfact>
</mgrwt>
</event>
<event>
 4    1  0.2051373E-002  0.7518812E+02  0.7818608E-02  0.1343289E+00
          1   -1    0    0    0  501  0.00000000000E+00  0.00000000000E+00  0.54511836519E+03  0.54511836521E+03  0.50400000000E-02 0. -1.
         -1   -1    0    0  501    0 -0.00000000000E+00 -0.00000000000E+00 -0.25926697950E+01  0.25926746937E+01  0.50400000000E-02 0. -1.
          2    1    1    2    0  502 -0.18483191433E+02 -0.32557369424E+02  0.29618257672E+03  0.29853932644E+03  0.25500000000E-02 0. -1.
         -2    1    1    2  502    0  0.18483191433E+02  0.32557369424E+02  0.24634311867E+03  0.24917171346E+03  0.25500000000E-02 0. -1.
<mgrwt>
<rscale>  0 0.75188118E+02</rscale>
<asrwt>0</asrwt>
<pdfrwt beam="1">  1        1 0.83864486E-01 0.75188118E+02</pdfrwt>
<pdfrwt beam="2">  1       -1 0.39887208E-03 0.75188118E+02</pdfrwt>
<totfact> 0.23304755E+05</totfact>
</mgrwt>
</event>
<event>
 4    1  0.2051373E-002  0.4321435E+02  0.7818608E-02  0.1485807E+00
         -1   -1    0    0  501    0 -0.00000000000E+00  0.00000000000E+00  0.33026154631E+00  0.33030000086E+00  0.50400000000E-02 0. -1.
          1   -1    0    0    0  501  0.00000000000E+00 -0.00000000000E+00 -0.14135546771E+04  0.14135546771E+04  0.50400000000E-02 0. -1.
          2    1    1    2    0  502  0.16181562393E+02  0.13761758720E+02 -0.83600736474E+03  0.83627719261E+03  0.25500000000E-02 0.  1.
         -2    1    1    2  502    0 -0.16181562393E+02 -0.13761758720E+02 -0.57721705084E+03  0.57760778453E+03  0.25500000000E-02 0.  1.
<mgrwt>
<rscale>  0 0.43214347E+02</rscale>
<asrwt>0</asrwt>
<pdfrwt beam="2">  1        1 0.21746511E+00 0.43214347E+02</pdfrwt>
<pdfrwt beam="1">  1       -1 0.50813559E-04 0.43214347E+02</pdfrwt>
<totfact> 0.77636666E+05</totfact>
</mgrwt>
</event>
<event>
 4    1  0.2051373E-002  0.6249980E+02  0.7818608E-02  0.1387631E+00
         -1   -1    0    0  501    0 -0.00000000000E+00  0.00000000000E+00  0.90029101271E+01  0.90029115378E+01  0.50400000000E-02 0.  1.
          1   -1    0    0    0  501  0.00000000000E+00 -0.00000000000E+00 -0.10847116970E+03  0.10847116982E+03  0.50400000000E-02 0.  1.
          2    1    1    2    0  502 -0.22393404076E+02 -0.19920774519E+02 -0.33106972491E+02  0.44658408364E+02  0.25500000000E-02 0. -1.
         -2    1    1    2  502    0  0.22393404076E+02  0.19920774519E+02 -0.66361287081E+02  0.72815672990E+02  0.25500000000E-02 0. -1.
<mgrwt>
<rscale>  0 0.62499801E+02</rscale>
<asrwt>0</asrwt>
<pdfrwt beam="2">  1        1 0.16687871E-01 0.62499801E+02</pdfrwt>
<pdfrwt beam="1">  1       -1 0.13850633E-02 0.62499801E+02</pdfrwt>
<totfact> 0.28858515E+05</totfact>
</mgrwt>
</event>
<event>
 4    1  0.2051373E-002  0.1169478E+03  0.7818608E-02  0.1248219E+00
         -1   -1    0    0  501    0 -0.00000000000E+00  0.00000000000E+00  0.28091923994E+01  0.28091969206E+01  0.50400000000E-02 0. -1.
          1   -1    0    0    0  501  0.00000000000E+00 -0.00000000000E+00 -0.12171446995E+04  0.12171446995E+04  0.50400000000E-02 0. -1.
          2    1    1    2    0  502  0.28171016222E+02 -0.40113342996E+02 -0.93975624477E+03  0.94103373268E+03  0.25500000000E-02 0. -1.
         -2    1    1    2  502    0 -0.28171016222E+02  0.40113342996E+02 -0.27457926234E+03  0.27892016376E+03  0.25500000000E-02 0. -1.
<mgrwt>
<rscale>  0 0.11694779E+03</rscale>
<asrwt>0</asrwt>
<pdfrwt beam="2">  1        1 0.18725261E+00 0.11694779E+03</pdfrwt>
<pdfrwt beam="1">  1       -1 0.43218477E-03 0.11694779E+03</pdfrwt>
<totfact> 0.64958073E+04</totfact>
</mgrwt>
</event>
<event>
 4    1  0.2051373E-002  0.5457944E+02  0.7818608E-02  0.1422098E+00
         -1   -1    0    0  501    0 -0.00000000000E+00  0.00000000000E+00  0.12089949596E+01  0.12090054648E+01  0.50400000000E-02 0.  1.
          1   -1    0    0    0  501  0.00000000000E+00 -0.00000000000E+00 -0.61598727386E+03  0.61598727389E+03  0.50400000000E-02 0.  1.
          2    1    1    2    0  502 -0.14541202029E+02  0.15928893251E+02 -0.49646059777E+03  0.49692886950E+03  0.25500000000E-02 0.  1.
         -2    1    1    2  502    0  0.14541202029E+02 -0.15928893251E+02 -0.11831768113E+03  0.12026740985E+03  0.25500000000E-02 0.  1.
<mgrwt>
<rscale>  0 0.54579438E+02</rscale>
<asrwt>0</asrwt>
<pdfrwt beam="2">  1        1 0.94767023E-01 0.54579438E+02</pdfrwt>
<pdfrwt beam="1">  1       -1 0.18600053E-03 0.54579438E+02</pdfrwt>
<totfact> 0.53224623E+05</totfact>
</mgrwt>
</event>
<event>
 4    1  0.2051373E-002  0.4576742E+02  0.7818608E-02  0.1469607E+00
         -1   -1    0    0  501    0 -0.00000000000E+00  0.00000000000E+00  0.44994527160E+02  0.44994527442E+02  0.50400000000E-02 0. -1.
          1   -1    0    0    0  501  0.00000000000E+00 -0.00000000000E+00 -0.11638395679E+02  0.11638396770E+02  0.50400000000E-02 0. -1.
          2    1    1    2    0  502  0.22680213496E+02  0.55891938475E+00  0.12974171974E+02  0.26134911900E+02  0.25500000000E-02 0.  1.
         -2    1    1    2  502    0 -0.22680213496E+02 -0.55891938475E+00  0.20381959507E+02  0.30498012312E+02  0.25500000000E-02 0.  1.
<mgrwt>
<rscale>  0 0.45767419E+02</rscale>
<asrwt>0</asrwt>
<pdfrwt beam="2">  1        1 0.17905225E-02 0.45767419E+02</pdfrwt>
<pdfrwt beam="1">  1       -1 0.69222352E-02 0.45767419E+02</pdfrwt>
<totfact> 0.51315901E+05</totfact>
</mgrwt>
</event>
<event>
 4    1  0.2051373E-002  0.7558191E+02  0.7818608E-02  0.1342078E+00
          1   -1    0    0    0  501  0.00000000000E+00  0.00000000000E+00  0.11657324678E+02  0.11657325767E+02  0.50400000000E-02 0.  1.
         -1   -1    0    0  501    0 -0.00000000000E+00 -0.00000000000E+00 -0.12251149118E+03  0.12251149128E+03  0.50400000000E-02 0.  1.
          2    1    1    2    0  502  0.10973764490E+02 -0.36015790126E+02 -0.49648815268E+02  0.62310235993E+02  0.25500000000E-02 0.  1.
         -2    1    1    2  502    0 -0.10973764490E+02  0.36015790126E+02 -0.61205351235E+02  0.71858581059E+02  0.25500000000E-02 0.  1.
<mgrwt>
<rscale>  0 0.75581911E+02</rscale>
<asrwt>0</asrwt>
<pdfrwt beam="1">  1        1 0.17934347E-02 0.75581911E+02</pdfrwt>
<pdfrwt beam="2">  1       -1 0.18847921E-01 0.75581911E+02</pdfrwt>
<totfact> 0.12672629E+05</totfact>
</mgrwt>
</event>
<event>
 4    1  0.2051373E-002  0.5839921E+02  0.7818608E-02  0.1404675E+00
          1   -1    0    0    0  501  0.00000000000E+00  0.00000000000E+00  0.85308559665E+02  0.85308559814E+02  0.50400000000E-02 0. -1.
         -1   -1    0    0  501    0 -0.00000000000E+00 -0.00000000000E+00 -0.99945062970E+01  0.99945075678E+01  0.50400000000E-02 0. -1.
          2    1    1    2    0  502 -0.14480350162E+02 -0.15892787346E+02  0.69899636558E+02  0.73131528275E+02  0.25500000000E-02 0.  1.
         -2    1    1    2  502    0  0.14480350162E+02  0.15892787346E+02  0.54144168098E+01  0.22171539106E+02  0.25500000000E-02 0.  1.
<mgrwt>
<rscale>  0 0.58399212E+02</rscale>
<asrwt>0</asrwt>
<pdfrwt beam="1">  1        1 0.13124394E-01 0.58399212E+02</pdfrwt>
<pdfrwt beam="2">  1       -1 0.15376165E-02 0.58399212E+02</pdfrwt>
<totfact> 0.33261357E+05</totfact>
</mgrwt>
</event>
<event>
 4    1  0.2051373E-002  0.4901418E+02  0.7818608E-02  0.1450732E+00
         -1   -1    0    0  501    0 -0.00000000000E+00  0.00000000000E+00  0.23182311852E+00  0.23187789865E+00  0.50400000000E-02 0. -1.
          1   -1    0    0    0  501  0.00000000000E+00 -0.00000000000E+00 -0.25904510838E+04  0.25904510838E+04  0.50400000000E-02 0. -1.
          2    1    1    2    0  502 -0.16185737017E+02  0.18349501197E+02 -0.13682558232E+04  0.13684745814E+04  0.25500000000E-02 0.  1.
         -2    1    1    2  502    0  0.16185737017E+02 -0.18349501197E+02 -0.12219634375E+04  0.12222083803E+04  0.25500000000E-02 0.  1.
<mgrwt>
<rscale>  0 0.49014178E+02</rscale>
<asrwt>0</asrwt>
<pdfrwt beam="2">  1        1 0.39850776E+00 0.49014178E+02</pdfrwt>
<pdfrwt beam="1">  1       -1 0.35671384E-04 0.49014178E+02</pdfrwt>
<totfact> 0.24085716E+05</totfact>
</mgrwt>
</event>
<event>
 4    1  0.2051373E-002  0.5104061E+02  0.7818608E-02  0.1439808E+00
         -1   -1    0    0  501    0 -0.00000000000E+00  0.00000000000E+00  0.91037958402E+01  0.91037972353E+01  0.50400000000E-02 0.  1.
          1   -1    0    0    0  501  0.00000000000E+00 -0.00000000000E+00 -0.71540026522E+02  0.71540026700E+02  0.50400000000E-02 0.  1.
          2    1    1    2    0  502 -0.63740338210E+01 -0.24684240125E+02 -0.29385162847E+02  0.38902799639E+02  0.25500000000E-02 0.  1.
         -2    1    1    2  502    0  0.63740338210E+01  0.24684240125E+02 -0.33051067835E+02  0.41741024296E+02  0.25500000000E-02 0.  1.
<mgrwt>
<rscale>  0 0.51040606E+02</rscale>
<asrwt>0</asrwt>
<pdfrwt beam="2">  1        1 0.11006158E-01 0.51040606E+02</pdfrwt>
<pdfrwt beam="1">  1       -1 0.14005841E-02 0.51040606E+02</pdfrwt>
<totfact> 0.45969852E+05</totfact>
</mgrwt>
</event>
<event>
 4    1  0.2051373E-002  0.5424340E+02  0.7818608E-02  0.1423711E+00
         -1   -1    0    0  501    0 -0.00000000000E+00  0.00000000000E+00  0.44726577742E+01  0.44726606138E+01  0.50400000000E-02 0. -1.
          1   -1    0    0    0  501  0.00000000000E+00 -0.00000000000E+00 -0.16446290963E+03  0.16446290970E+03  0.50400000000E-02 0. -1.
          2    1    1    2    0  502 -0.19860590761E+02  0.87315912483E+01 -0.13068456542E+03  0.13247316482E+03  0.25500000000E-02 0. -1.
         -2    1    1    2  502    0  0.19860590761E+02 -0.87315912483E+01 -0.29305686433E+02  0.36462405501E+02  0.25500000000E-02 0. -1.
<mgrwt>
<rscale>  0 0.54243398E+02</rscale>
<asrwt>0</asrwt>
<pdfrwt beam="2">  1        1 0.25301982E-01 0.54243398E+02</pdfrwt>
<pdfrwt beam="1">  1       -1 0.68810155E-03 0.54243398E+02</pdfrwt>
<totfact> 0.44284934E+05</totfact>
</mgrwt>
</event>
<event>
 4    1  0.2051373E-002  0.7964126E+02  0.7818608E-02  0.1330073E+00
         -1   -1    0    0  501    0 -0.00000000000E+00  0.00000000000E+00  0.26850438713E+01  0.26850486015E+01  0.50400000000E-02 0. -1.
          1   -1    0    0    0  501  0.00000000000E+00 -0.00000000000E+00 -0.59056060728E+03  0.59056060730E+03  0.50400000000E-02 0. -1.
          2    1    1    2    0  502  0.33328447940E+02  0.28214492333E+01 -0.13297503627E+03  0.13711712619E+03  0.25500000000E-02 0.  1.
         -2    1    1    2  502    0 -0.33328447940E+02 -0.28214492333E+01 -0.45490052713E+03  0.45612852971E+03  0.25500000000E-02 0.  1.
<mgrwt>
<rscale>  0 0.79641259E+02</rscale>
<asrwt>0</asrwt>
<pdfrwt beam="2">  1        1 0.90855375E-01 0.79641259E+02</pdfrwt>
<pdfrwt beam="1">  1       -1 0.41308451E-03 0.79641259E+02</pdfrwt>
<totfact> 0.20185666E+05</totfact>
</mgrwt>
</event>
<event>
 4    1  0.2051373E-002  0.6115211E+02  0.7818608E-02  0.1393059E+00
         -1   -1    0    0  501    0 -0.00000000000E+00  0.00000000000E+00  0.25875177742E+03  0.25875177747E+03  0.50400000000E-02 0.  1.
          1   -1    0    0    0  501  0.00000000000E+00 -0.00000000000E+00 -0.36130944144E+01  0.36130979296E+01  0.50400000000E-02 0.  1.
          2    1    1    2    0  502  0.20219679155E+02  0.13929748775E+02  0.49392607889E+02  0.55158889099E+02  0.25500000000E-02 0.  1.
         -2    1    1    2  502    0 -0.20219679155E+02 -0.13929748775E+02  0.20574607512E+03  0.20720598630E+03  0.25500000000E-02 0.  1.
<mgrwt>
<rscale>  0 0.61152108E+02</rscale>
<asrwt>0</asrwt>
<pdfrwt beam="2">  1        1 0.55586095E-03 0.61152108E+02</pdfrwt>
<pdfrwt beam="1">  1       -1 0.39807967E-01 0.61152108E+02</pdfrwt>
<totfact> 0.17883413E+05</totfact>
</mgrwt>
</event>
<event>
 4    1  0.2051373E-002  0.8863449E+02  0.7818608E-02  0.1306193E+00
         -1   -1    0    0  501    0 -0.00000000000E+00  0.00000000000E+00  0.55512616718E+02  0.55512616947E+02  0.50400000000E-02 0. -1.
          1   -1    0    0    0  501  0.00000000000E+00 -0.00000000000E+00 -0.35379675598E+02  0.35379675957E+02  0.50400000000E-02 0. -1.
          2    1    1    2    0  502 -0.41738226234E+02  0.14895791496E+02  0.98276038402E+01  0.45393236690E+02  0.25500000000E-02 0.  1.
         -2    1    1    2  502    0  0.41738226234E+02 -0.14895791496E+02  0.10305337280E+02  0.45499056214E+02  0.25500000000E-02 0.  1.
<mgrwt>
<rscale>  0 0.88634494E+02</rscale>
<asrwt>0</asrwt>
<pdfrwt beam="2">  1        1 0.54430271E-02 0.88634494E+02</pdfrwt>
<pdfrwt beam="1">  1       -1 0.85404026E-02 0.88634494E+02</pdfrwt>
<totfact> 0.96396113E+04</totfact>
</mgrwt>
</event>
<event>
 4    1  0.2051373E-002  0.4222144E+02  0.7818608E-02  0.1492473E+00
          1   -1    0    0    0  501  0.00000000000E+00  0.00000000000E+00  0.30166563961E+03  0.30166563966E+03  0.50400000000E-02 0. -1.
         -1   -1    0    0  501    0 -0.00000000000E+00 -0.00000000000E+00 -0.14773349117E+01  0.14773435088E+01  0.50400000000E-02 0. -1.
          2    1    1    2    0  502  0.10446683401E+02  0.17367228112E+02  0.10767312500E+03  0.10956393412E+03  0.25500000000E-02 0.  1.
         -2    1    1    2  502    0 -0.10446683401E+02 -0.17367228112E+02  0.19251517970E+03  0.19357904905E+03  0.25500000000E-02 0.  1.
<mgrwt>
<rscale>  0 0.42221440E+02</rscale>
<asrwt>0</asrwt>
<pdfrwt beam="1">  1        1 0.46410197E-01 0.42221440E+02</pdfrwt>
<pdfrwt beam="2">  1       -1 0.22728248E-03 0.42221440E+02</pdfrwt>
<totfact> 0.91707583E+05</totfact>
</mgrwt>
</event>
<event>
 4    1  0.2051373E-002  0.1078961E+03  0.7818608E-02  0.1264516E+00
          1   -1    0    0    0  501  0.00000000000E+00  0.00000000000E+00  0.18653708173E+04  0.18653708173E+04  0.50400000000E-02 0.  1.
         -1   -1    0    0  501    0 -0.00000000000E+00 -0.00000000000E+00 -0.15602181399E+01  0.15602262803E+01  0.50400000000E-02 0.  1.
          2    1    1    2    0  502 -0.21025005021E+02 -0.16872014477E+02  0.17404735629E+04  0.17406823199E+04  0.25500000000E-02 0. -1.
         -2    1    1    2  502    0  0.21025005021E+02  0.16872014477E+02  0.12333703627E+03  0.12624872368E+03  0.25500000000E-02 0. -1.
<mgrwt>
<rscale>  0 0.10789612E+03</rscale>
<asrwt>0</asrwt>
<pdfrwt beam="1">  1        1 0.28698154E+00 0.10789612E+03</pdfrwt>
<pdfrwt beam="2">  1       -1 0.24003300E-03 0.10789612E+03</pdfrwt>
<totfact> 0.56051899E+04</totfact>
</mgrwt>
</event>
<event>
 4    1  0.2051373E-002  0.5385863E+02  0.7818608E-02  0.1425575E+00
          1   -1    0    0    0  501  0.00000000000E+00  0.00000000000E+00  0.11988763450E+02  0.11988764509E+02  0.50400000000E-02 0.  1.
         -1   -1    0    0  501    0 -0.00000000000E+00 -0.00000000000E+00 -0.60488968306E+02  0.60488968516E+02  0.50400000000E-02 0.  1.
          2    1    1    2    0  502  0.23089134603E+02 -0.12844175077E+02 -0.31256423720E+02  0.40927313623E+02  0.25500000000E-02 0. -1.
         -2    1    1    2  502    0 -0.23089134603E+02  0.12844175077E+02 -0.17243781136E+02  0.31550419402E+02  0.25500000000E-02 0. -1.
<mgrwt>
<rscale>  0 0.53858629E+02</rscale>
<asrwt>0</asrwt>
<pdfrwt beam="1">  1        1 0.18444253E-02 0.53858629E+02</pdfrwt>
<pdfrwt beam="2">  1       -1 0.93059950E-02 0.53858629E+02</pdfrwt>
<totfact> 0.33268653E+05</totfact>
</mgrwt>
</event>
<event>
 4    1  0.2051373E-002  0.1043790E+03  0.7818608E-02  0.1271348E+00
          1   -1    0    0    0  501  0.00000000000E+00  0.00000000000E+00  0.10789855365E+03  0.10789855377E+03  0.50400000000E-02 0.  1.
         -1   -1    0    0  501    0 -0.00000000000E+00 -0.00000000000E+00 -0.25243555892E+02  0.25243556395E+02  0.50400000000E-02 0.  1.
          2    1    1    2    0  502 -0.39296272615E+02  0.33091208494E+02  0.53054235743E+02  0.73851046423E+02  0.25500000000E-02 0.  1.
         -2    1    1    2  502    0  0.39296272615E+02 -0.33091208494E+02  0.29600762017E+02  0.59291063740E+02  0.25500000000E-02 0.  1.
<mgrwt>
<rscale>  0 0.10437899E+03</rscale>
<asrwt>0</asrwt>
<pdfrwt beam="1">  1        1 0.16599777E-01 0.10437899E+03</pdfrwt>
<pdfrwt beam="2">  1       -1 0.38836241E-02 0.10437899E+03</pdfrwt>
<totfact> 0.72982431E+04</totfact>
</mgrwt>
</event>
<event>
 4    1  0.2051373E-002  0.5233610E+02  0.7818608E-02  0.1433134E+00
         -1   -1    0    0  501    0 -0.00000000000E+00  0.00000000000E+00  0.34026127861E+01  0.34026165187E+01  0.50400000000E-02 0.  1.
          1   -1    0    0    0  501  0.00000000000E+00 -0.00000000000E+00 -0.20124728406E+03  0.20124728412E+03  0.50400000000E-02 0.  1.
          2    1    1    2    0  502 -0.24736342472E+02 -0.61960486554E+01 -0.75958080250E+02  0.80124326016E+02  0.25500000000E-02 0.  1.
         -2    1    1    2  502    0  0.24736342472E+02  0.61960486554E+01 -0.12188659103E+03  0.12452557463E+03  0.25500000000E-02 0.  1.
<mgrwt>
<rscale>  0 0.52336105E+02</rscale>
<asrwt>0</asrwt>
<pdfrwt beam="2">  1        1 0.30961112E-01 0.52336105E+02</pdfrwt>
<pdfrwt beam="1">  1       -1 0.52347934E-03 0.52336105E+02</pdfrwt>
<totfact> 0.50174409E+05</totfact>
</mgrwt>
</event>
<event>
 4    1  0.2051373E-002  0.4870237E+02  0.7818608E-02  0.1452469E+00
         -1   -1    0    0  501    0 -0.00000000000E+00  0.00000000000E+00  0.12565870917E+01  0.12565971990E+01  0.50400000000E-02 0. -1.
          1   -1    0    0    0  501  0.00000000000E+00 -0.00000000000E+00 -0.47189543226E+03  0.47189543228E+03  0.50400000000E-02 0. -1.
          2    1    1    2    0  502 -0.16343397728E+02 -0.17663507711E+02 -0.27150626149E+03  0.27257064440E+03  0.25500000000E-02 0.  1.
         -2    1    1    2  502    0  0.16343397728E+02  0.17663507711E+02 -0.19913258368E+03  0.20058138509E+03  0.25500000000E-02 0.  1.
<mgrwt>
<rscale>  0 0.48702366E+02</rscale>
<asrwt>0</asrwt>
<pdfrwt beam="2">  1        1 0.72599157E-01 0.48702366E+02</pdfrwt>
<pdfrwt beam="1">  1       -1 0.19332225E-03 0.48702366E+02</pdfrwt>
<totfact> 0.69092216E+05</totfact>
</mgrwt>
</event>
<event>
 4    1  0.2051373E-002  0.4354664E+02  0.7818608E-02  0.1483624E+00
          1   -1    0    0    0  501  0.00000000000E+00  0.00000000000E+00  0.22928269249E+04  0.22928269249E+04  0.50400000000E-02 0.  1.
         -1   -1    0    0  501    0 -0.00000000000E+00 -0.00000000000E+00 -0.20673472309E+00  0.20679614922E+00  0.50400000000E-02 0.  1.
          2    1    1    2    0  502 -0.30524968213E+01  0.21421536347E+02  0.10186518731E+04  0.10188816607E+04  0.25500000000E-02 0. -1.
         -2    1    1    2  502    0  0.30524968213E+01 -0.21421536347E+02  0.12739683171E+04  0.12741520603E+04  0.25500000000E-02 0. -1.
<mgrwt>
<rscale>  0 0.43546636E+02</rscale>
<asrwt>0</asrwt>
<pdfrwt beam="1">  1        1 0.35273835E+00 0.43546636E+02</pdfrwt>
<pdfrwt beam="2">  1       -1 0.31810452E-04 0.43546636E+02</pdfrwt>
<totfact> 0.42224809E+05</totfact>
</mgrwt>
</event>
<event>
 4    1  0.2051373E-002  0.4182574E+02  0.7818608E-02  0.1495190E+00
         -1   -1    0    0  501    0 -0.00000000000E+00  0.00000000000E+00  0.59776589284E+02  0.59776589496E+02  0.50400000000E-02 0.  1.
          1   -1    0    0    0  501  0.00000000000E+00 -0.00000000000E+00 -0.73163786410E+01  0.73163803769E+01  0.50400000000E-02 0.  1.
          2    1    1    2    0  502 -0.93121549660E+01  0.17993529452E+02  0.34544408376E+02  0.40047465448E+02  0.25500000000E-02 0. -1.
         -2    1    1    2  502    0  0.93121549660E+01 -0.17993529452E+02  0.17915802266E+02  0.27045504425E+02  0.25500000000E-02 0. -1.
<mgrwt>
<rscale>  0 0.41825745E+02</rscale>
<asrwt>0</asrwt>
<pdfrwt beam="2">  1        1 0.11255969E-02 0.41825745E+02</pdfrwt>
<pdfrwt beam="1">  1       -1 0.91963985E-02 0.41825745E+02</pdfrwt>
<totfact> 0.61925021E+05</totfact>
</mgrwt>
</event>
<event>
 4    1  0.2051373E-002  0.4101627E+02  0.7818608E-02  0.1500863E+00
         -1   -1    0    0  501    0 -0.00000000000E+00  0.00000000000E+00  0.14150051918E+02  0.14150052815E+02  0.50400000000E-02 0. -1.
          1   -1    0    0    0  501  0.00000000000E+00 -0.00000000000E+00 -0.29723114726E+02  0.29723115154E+02  0.50400000000E-02 0. -1.
          2    1    1    2    0  502  0.15085963692E+02 -0.13768348851E+02 -0.97675295714E+01  0.22639752010E+02  0.25500000000E-02 0.  1.
         -2    1    1    2  502    0 -0.15085963692E+02  0.13768348851E+02 -0.58055332372E+01  0.21233415959E+02  0.25500000000E-02 0.  1.
<mgrwt>
<rscale>  0 0.41016272E+02</rscale>
<asrwt>0</asrwt>
<pdfrwt beam="2">  1        1 0.45727870E-02 0.41016272E+02</pdfrwt>
<pdfrwt beam="1">  1       -1 0.21769312E-02 0.41016272E+02</pdfrwt>
<totfact> 0.73578230E+05</totfact>
</mgrwt>
</event>
<event>
 4    1  0.2051373E-002  0.4691796E+02  0.7818608E-02  0.1462711E+00
         -1   -1    0    0  501    0 -0.00000000000E+00  0.00000000000E+00  0.17876225914E+01  0.17876296962E+01  0.50400000000E-02 0. -1.
          1   -1    0    0    0  501  0.00000000000E+00 -0.00000000000E+00 -0.30785174500E+03  0.30785174504E+03  0.50400000000E-02 0. -1.
          2    1    1    2    0  502  0.91054909654E+01  0.18263979309E+02 -0.76681630334E+02  0.79350837066E+02  0.25500000000E-02 0. -1.
         -2    1    1    2  502    0 -0.91054909654E+01 -0.18263979309E+02 -0.22938249207E+03  0.23028853767E+03  0.25500000000E-02 0. -1.
<mgrwt>
<rscale>  0 0.46917964E+02</rscale>
<asrwt>0</asrwt>
<pdfrwt beam="2">  1        1 0.47361765E-01 0.46917964E+02</pdfrwt>
<pdfrwt beam="1">  1       -1 0.27501965E-03 0.46917964E+02</pdfrwt>
<totfact> 0.71008359E+05</totfact>
</mgrwt>
</event>
<event>
 4    1  0.2051373E-002  0.4614257E+02  0.7818608E-02  0.1467332E+00
          1   -1    0    0    0  501  0.00000000000E+00  0.00000000000E+00  0.43101112084E+01  0.43101141552E+01  0.50400000000E-02 0.  1.
         -1   -1    0    0  501    0 -0.00000000000E+00 -0.00000000000E+00 -0.12349655578E+03  0.12349655589E+03  0.50400000000E-02 0.  1.
          2    1    1    2    0  502  0.21254790423E+02 -0.41849264497E+01 -0.81578758363E+02  0.84406004216E+02  0.25500000000E-02 0.  1.
         -2    1    1    2  502    0 -0.21254790423E+02  0.41849264497E+01 -0.37607686214E+02  0.43400665826E+02  0.25500000000E-02 0.  1.
<mgrwt>
<rscale>  0 0.46142565E+02</rscale>
<asrwt>0</asrwt>
<pdfrwt beam="1">  1        1 0.66309436E-03 0.46142565E+02</pdfrwt>
<pdfrwt beam="2">  1       -1 0.18999468E-01 0.46142565E+02</pdfrwt>
<totfact> 0.43687609E+05</totfact>
</mgrwt>
</event>
<event>
 4    1  0.2051373E-002  0.1191657E+03  0.7818608E-02  0.1244480E+00
          1   -1    0    0    0  501  0.00000000000E+00  0.00000000000E+00  0.75523075100E+01  0.75523091917E+01  0.50400000000E-02 0. -1.
         -1   -1    0    0  501    0 -0.00000000000E+00 -0.00000000000E+00 -0.47006993141E+03  0.47006993143E+03  0.50400000000E-02 0. -1.
          2    1    1    2    0  502  0.70645957747E+01  0.40260740333E+02 -0.57507180060E+02  0.70554315889E+02  0.25500000000E-02 0. -1.
         -2    1    1    2  502    0 -0.70645957747E+01 -0.40260740333E+02 -0.40501044384E+03  0.40706792474E+03  0.25500000000E-02 0. -1.
<mgrwt>
<rscale>  0 0.11916565E+03</rscale>
<asrwt>0</asrwt>
<pdfrwt beam="1">  1        1 0.11618940E-02 0.11916565E+03</pdfrwt>
<pdfrwt beam="2">  1       -1 0.72318428E-01 0.11916565E+03</pdfrwt>
<totfact> 0.24026682E+04</totfact>
</mgrwt>
</event>
<event>
 4    1  0.2051373E-002  0.6000731E+02  0.7818608E-02  0.1397801E+00
          1   -1    0    0    0  501  0.00000000000E+00  0.00000000000E+00  0.30048707858E+02  0.30048708281E+02  0.50400000000E-02 0. -1.
         -1   -1    0    0  501    0 -0.00000000000E+00 -0.00000000000E+00 -0.29958671479E+02  0.29958671903E+02  0.50400000000E-02 0. -1.
          2    1    1    2    0  502  0.19221745505E+02 -0.20205527732E+02  0.11112123076E+02  0.30020295417E+02  0.25500000000E-02 0. -1.
         -2    1    1    2  502    0 -0.19221745505E+02  0.20205527732E+02 -0.11022086697E+02  0.29987084767E+02  0.25500000000E-02 0. -1.
<mgrwt>
<rscale>  0 0.60007313E+02</rscale>
<asrwt>0</asrwt>
<pdfrwt beam="1">  1        1 0.46228782E-02 0.60007313E+02</pdfrwt>
<pdfrwt beam="2">  1       -1 0.46090264E-02 0.60007313E+02</pdfrwt>
<totfact> 0.27542558E+05</totfact>
</mgrwt>
</event>
<event>
 4    1  0.2051373E-002  0.8110389E+02  0.7818608E-02  0.1325948E+00
         -1   -1    0    0  501    0 -0.00000000000E+00  0.00000000000E+00  0.29675804533E+02  0.29675804961E+02  0.50400000000E-02 0. -1.
          1   -1    0    0    0  501  0.00000000000E+00 -0.00000000000E+00 -0.55414174989E+02  0.55414175218E+02  0.50400000000E-02 0. -1.
          2    1    1    2    0  502 -0.93685890334E+01  0.38358366290E+02 -0.31780152051E+01  0.39613564748E+02  0.25500000000E-02 0.  1.
         -2    1    1    2  502    0  0.93685890334E+01 -0.38358366290E+02 -0.22560355251E+02  0.45476415431E+02  0.25500000000E-02 0.  1.
<mgrwt>
<rscale>  0 0.81103890E+02</rscale>
<asrwt>0</asrwt>
<pdfrwt beam="2">  1        1 0.85252577E-02 0.81103890E+02</pdfrwt>
<pdfrwt beam="1">  1       -1 0.45655085E-02 0.81103890E+02</pdfrwt>
<totfact> 0.13148706E+05</totfact>
</mgrwt>
</event>
<event>
 4    1  0.2051373E-002  0.6074849E+02  0.7818608E-02  0.1394717E+00
         -1   -1    0    0  501    0 -0.00000000000E+00  0.00000000000E+00  0.18444070598E+02  0.18444071287E+02  0.50400000000E-02 0. -1.
          1   -1    0    0    0  501  0.00000000000E+00 -0.00000000000E+00 -0.50021202176E+02  0.50021202430E+02  0.50400000000E-02 0. -1.
          2    1    1    2    0  502  0.11710636542E+02  0.27775219227E+02 -0.20004435576E+02  0.36177054338E+02  0.25500000000E-02 0. -1.
         -2    1    1    2  502    0 -0.11710636542E+02 -0.27775219227E+02 -0.11572696002E+02  0.32288219378E+02  0.25500000000E-02 0. -1.
<mgrwt>
<rscale>  0 0.60748485E+02</rscale>
<asrwt>0</asrwt>
<pdfrwt beam="2">  1        1 0.76955696E-02 0.60748485E+02</pdfrwt>
<pdfrwt beam="1">  1       -1 0.28375494E-02 0.60748485E+02</pdfrwt>
<totfact> 0.28159329E+05</totfact>
</mgrwt>
</event>
<event>
 4    1  0.2051373E-002  0.6975926E+02  0.7818608E-02  0.1360914E+00
         -1   -1    0    0  501    0 -0.00000000000E+00  0.00000000000E+00  0.16518271931E+01  0.16518348820E+01  0.50400000000E-02 0. -1.
          1   -1    0    0    0  501  0.00000000000E+00 -0.00000000000E+00 -0.73650902265E+03  0.73650902267E+03  0.50400000000E-02 0. -1.
          2    1    1    2    0  502 -0.32516172282E+02  0.28508269205E+01 -0.23733158787E+03  0.23956567217E+03  0.25500000000E-02 0. -1.
         -2    1    1    2  502    0  0.32516172282E+02 -0.28508269205E+01 -0.49752560759E+03  0.49859518538E+03  0.25500000000E-02 0. -1.
<mgrwt>
<rscale>  0 0.69759257E+02</rscale>
<asrwt>0</asrwt>
<pdfrwt beam="2">  1        1 0.11330882E+00 0.69759257E+02</pdfrwt>
<pdfrwt beam="1">  1       -1 0.25412844E-03 0.69759257E+02</pdfrwt>
<totfact> 0.28560179E+05</totfact>
</mgrwt>
</event>
<event>
 4    1  0.2051373E-002  0.7414331E+02  0.7818608E-02  0.1346545E+00
          1   -1    0    0    0  501  0.00000000000E+00  0.00000000000E+00  0.44470006653E+01  0.44470035214E+01  0.50400000000E-02 0.  1.
         -1   -1    0    0  501    0 -0.00000000000E+00 -0.00000000000E+00 -0.30904137018E+03  0.30904137022E+03  0.50400000000E-02 0.  1.
          2    1    1    2    0  502  0.36489894715E+02 -0.64775140876E+01 -0.15616546318E+03  0.16050271805E+03  0.25500000000E-02 0.  1.
         -2    1    1    2  502    0 -0.36489894715E+02  0.64775140876E+01 -0.14842890633E+03  0.15298565569E+03  0.25500000000E-02 0.  1.
<mgrwt>
<rscale>  0 0.74143311E+02</rscale>
<asrwt>0</asrwt>
<pdfrwt beam="1">  1        1 0.68415441E-03 0.74143311E+02</pdfrwt>
<pdfrwt beam="2">  1       -1 0.47544810E-01 0.74143311E+02</pdfrwt>
<totfact> 0.10240623E+05</totfact>
</mgrwt>
</event>
<event>
 4    1  0.2051373E-002  0.7363164E+02  0.7818608E-02  0.1348162E+00
         -1   -1    0    0  501    0 -0.00000000000E+00  0.00000000000E+00  0.28081688704E+02  0.28081689156E+02  0.50400000000E-02 0. -1.
          1   -1    0    0    0  501  0.00000000000E+00 -0.00000000000E+00 -0.48266489484E+02  0.48266489748E+02  0.50400000000E-02 0. -1.
          2    1    1    2    0  502  0.36380510259E+02  0.35359836178E+01 -0.14654714372E+02  0.39380266209E+02  0.25500000000E-02 0. -1.
         -2    1    1    2  502    0 -0.36380510259E+02 -0.35359836178E+01 -0.55300864079E+01  0.36967912695E+02  0.25500000000E-02 0. -1.
<mgrwt>
<rscale>  0 0.73631639E+02</rscale>
<asrwt>0</asrwt>
<pdfrwt beam="2">  1        1 0.74256138E-02 0.73631639E+02</pdfrwt>
<pdfrwt beam="1">  1       -1 0.43202599E-02 0.73631639E+02</pdfrwt>
<totfact> 0.16793353E+05</totfact>
</mgrwt>
</event>
<event>
 4    1  0.2051373E-002  0.1639188E+03  0.7818608E-02  0.1184342E+00
         -1   -1    0    0  501    0 -0.00000000000E+00  0.00000000000E+00  0.97654906319E+01  0.97654919325E+01  0.50400000000E-02 0. -1.
          1   -1    0    0    0  501  0.00000000000E+00 -0.00000000000E+00 -0.68786508098E+03  0.68786508100E+03  0.50400000000E-02 0. -1.
          2    1    1    2    0  502  0.24777333956E+02  0.46178660613E+02 -0.70858709720E+02  0.88132523643E+02  0.25500000000E-02 0. -1.
         -2    1    1    2  502    0 -0.24777333956E+02 -0.46178660613E+02 -0.60724088063E+03  0.60949804929E+03  0.25500000000E-02 0. -1.
<mgrwt>
<rscale>  0 0.16391877E+03</rscale>
<asrwt>0</asrwt>
<pdfrwt beam="2">  1        1 0.10582536E+00 0.16391877E+03</pdfrwt>
<pdfrwt beam="1">  1       -1 0.15023838E-02 0.16391877E+03</pdfrwt>
<totfact> 0.28835789E+04</totfact>
</mgrwt>
</event>
<event>
 4    1  0.2051373E-002  0.8691124E+02  0.7818608E-02  0.1310509E+00
          1   -1    0    0    0  501  0.00000000000E+00  0.00000000000E+00  0.63808786287E+01  0.63808806191E+01  0.50400000000E-02 0. -1.
         -1   -1    0    0  501    0 -0.00000000000E+00 -0.00000000000E+00 -0.29594521315E+03  0.29594521319E+03  0.50400000000E-02 0. -1.
          2    1    1    2    0  502 -0.10625564579E+02 -0.39879852657E+02 -0.19210665451E+03  0.19648987756E+03  0.25500000000E-02 0.  1.
         -2    1    1    2  502    0  0.10625564579E+02  0.39879852657E+02 -0.97457680011E+02  0.10583621625E+03  0.25500000000E-02 0.  1.
<mgrwt>
<rscale>  0 0.86911237E+02</rscale>
<asrwt>0</asrwt>
<pdfrwt beam="1">  1        1 0.98167402E-03 0.86911237E+02</pdfrwt>
<pdfrwt beam="2">  1       -1 0.45530022E-01 0.86911237E+02</pdfrwt>
<totfact> 0.69021231E+04</totfact>
</mgrwt>
</event>
<event>
 4    1  0.2051373E-002  0.4117412E+02  0.7818608E-02  0.1499745E+00
          1   -1    0    0    0  501  0.00000000000E+00  0.00000000000E+00  0.23471686310E+01  0.23471740421E+01  0.50400000000E-02 0. -1.
         -1   -1    0    0  501    0 -0.00000000000E+00 -0.00000000000E+00 -0.18056924114E+03  0.18056924121E+03  0.50400000000E-02 0. -1.
          2    1    1    2    0  502 -0.17503750589E+02 -0.99967423403E+01 -0.70520944648E+02  0.73345209677E+02  0.25500000000E-02 0.  1.
         -2    1    1    2  502    0  0.17503750589E+02  0.99967423403E+01 -0.10770112787E+03  0.10957120558E+03  0.25500000000E-02 0.  1.
<mgrwt>
<rscale>  0 0.41174116E+02</rscale>
<asrwt>0</asrwt>
<pdfrwt beam="1">  1        1 0.36110343E-03 0.41174116E+02</pdfrwt>
<pdfrwt beam="2">  1       -1 0.27779873E-01 0.41174116E+02</pdfrwt>
<totfact> 0.53038073E+05</totfact>
</mgrwt>
</event>
<event>
 4    1  0.2051373E-002  0.1631008E+03  0.7818608E-02  0.1185240E+00
         -1   -1    0    0  501    0 -0.00000000000E+00  0.00000000000E+00  0.14706364899E+02  0.14706365763E+02  0.50400000000E-02 0.  1.
          1   -1    0    0    0  501  0.00000000000E+00 -0.00000000000E+00 -0.45221717174E+03  0.45221717176E+03  0.50400000000E-02 0.  1.
          2    1    1    2    0  502  0.45628862545E+02 -0.44518913396E+02 -0.73159376843E+02  0.97037215406E+02  0.25500000000E-02 0.  1.
         -2    1    1    2  502    0 -0.45628862545E+02  0.44518913396E+02 -0.36435142999E+03  0.36988632212E+03  0.25500000000E-02 0.  1.
<mgrwt>
<rscale>  0 0.16310084E+03</rscale>
<asrwt>0</asrwt>
<pdfrwt beam="2">  1        1 0.69571862E-01 0.16310084E+03</pdfrwt>
<pdfrwt beam="1">  1       -1 0.22625181E-02 0.16310084E+03</pdfrwt>
<totfact> 0.28074134E+04</totfact>
</mgrwt>
</event>
<event>
 4    1  0.2051373E-002  0.9752268E+02  0.7818608E-02  0.1285593E+00
         -1   -1    0    0  501    0 -0.00000000000E+00  0.00000000000E+00  0.36443191994E+03  0.36443191997E+03  0.50400000000E-02 0.  1.
          1   -1    0    0    0  501  0.00000000000E+00 -0.00000000000E+00 -0.65243123942E+01  0.65243143409E+01  0.50400000000E-02 0.  1.
          2    1    1    2    0  502 -0.27601970995E+02 -0.96081982617E+01  0.32742277477E+03  0.32872459555E+03  0.25500000000E-02 0. -1.
         -2    1    1    2  502    0  0.27601970995E+02  0.96081982617E+01  0.30484832772E+02  0.42231638760E+02  0.25500000000E-02 0. -1.
<mgrwt>
<rscale>  0 0.97522676E+02</rscale>
<asrwt>0</asrwt>
<pdfrwt beam="2">  1        1 0.10037402E-02 0.97522676E+02</pdfrwt>
<pdfrwt beam="1">  1       -1 0.56066467E-01 0.97522676E+02</pdfrwt>
<totfact> 0.46721126E+04</totfact>
</mgrwt>
</event>
<event>
 4    1  0.2051373E-002  0.4340300E+02  0.7818608E-02  0.1484565E+00
         -1   -1    0    0  501    0 -0.00000000000E+00  0.00000000000E+00  0.12889621878E+03  0.12889621887E+03  0.50400000000E-02 0.  1.
          1   -1    0    0    0  501  0.00000000000E+00 -0.00000000000E+00 -0.36537531090E+01  0.36537565851E+01  0.50400000000E-02 0.  1.
          2    1    1    2    0  502 -0.11572264143E+02  0.17431895526E+02  0.45033398143E+02  0.49656774299E+02  0.25500000000E-02 0. -1.
         -2    1    1    2  502    0  0.11572264143E+02 -0.17431895526E+02  0.80209067523E+02  0.82893201160E+02  0.25500000000E-02 0. -1.
<mgrwt>
<rscale>  0 0.43403004E+02</rscale>
<asrwt>0</asrwt>
<pdfrwt beam="2">  1        1 0.56211619E-03 0.43403004E+02</pdfrwt>
<pdfrwt beam="1">  1       -1 0.19830186E-01 0.43403004E+02</pdfrwt>
<totfact> 0.50331735E+05</totfact>
</mgrwt>
</event>
<event>
 4    1  0.2051373E-002  0.7351825E+02  0.7818608E-02  0.1348522E+00
         -1   -1    0    0  501    0 -0.00000000000E+00  0.00000000000E+00  0.84414648870E+01  0.84414663916E+01  0.50400000000E-02 0.  1.
          1   -1    0    0    0  501  0.00000000000E+00 -0.00000000000E+00 -0.16007093707E+03  0.16007093715E+03  0.50400000000E-02 0.  1.
          2    1    1    2    0  502 -0.10502515589E+02  0.23899408957E+02 -0.16495895280E+02  0.30880400739E+02  0.25500000000E-02 0.  1.
         -2    1    1    2  502    0  0.10502515589E+02 -0.23899408957E+02 -0.13513357690E+03  0.13763200280E+03  0.25500000000E-02 0.  1.
<mgrwt>
<rscale>  0 0.73518252E+02</rscale>
<asrwt>0</asrwt>
<pdfrwt beam="2">  1        1 0.24626296E-01 0.73518252E+02</pdfrwt>
<pdfrwt beam="1">  1       -1 0.12986871E-02 0.73518252E+02</pdfrwt>
<totfact> 0.20118530E+05</totfact>
</mgrwt>
</event>
<event>
 4    1  0.2051373E-002  0.6294496E+02  0.7818608E-02  0.1385873E+00
         -1   -1    0    0  501    0 -0.00000000000E+00  0.00000000000E+00  0.45416460979E+01  0.45416488944E+01  0.50400000000E-02 0.  1.
          1   -1    0    0    0  501  0.00000000000E+00 -0.00000000000E+00 -0.21809641666E+03  0.21809641672E+03  0.50400000000E-02 0.  1.
          2    1    1    2    0  502 -0.24907407411E+02  0.13852920234E+02 -0.59556450025E+02  0.66024640014E+02  0.25500000000E-02 0. -1.
         -2    1    1    2  502    0  0.24907407411E+02 -0.13852920234E+02 -0.15399832054E+03  0.15661342560E+03  0.25500000000E-02 0. -1.
<mgrwt>
<rscale>  0 0.62944962E+02</rscale>
<asrwt>0</asrwt>
<pdfrwt beam="2">  1        1 0.33553287E-01 0.62944962E+02</pdfrwt>
<pdfrwt beam="1">  1       -1 0.69871517E-03 0.62944962E+02</pdfrwt>
<totfact> 0.31828565E+05</totfact>
</mgrwt>
</event>
<event>
 4    1  0.2051373E-002  0.6681333E+02  0.7818608E-02  0.1371277E+00
          1   -1    0    0    0  501  0.00000000000E+00  0.00000000000E+00  0.26437360344E+02  0.26437360825E+02  0.50400000000E-02 0.  1.
         -1   -1    0    0  501    0 -0.00000000000E+00 -0.00000000000E+00 -0.42213184562E+02  0.42213184863E+02  0.50400000000E-02 0.  1.
          2    1    1    2    0  502 -0.26862424701E+02  0.19305631360E+02 -0.31006182835E+01  0.33225157687E+02  0.25500000000E-02 0. -1.
         -2    1    1    2  502    0  0.26862424701E+02 -0.19305631360E+02 -0.12675205934E+02  0.35425388001E+02  0.25500000000E-02 0. -1.
<mgrwt>
<rscale>  0 0.66813328E+02</rscale>
<asrwt>0</asrwt>
<pdfrwt beam="1">  1        1 0.40672863E-02 0.66813328E+02</pdfrwt>
<pdfrwt beam="2">  1       -1 0.64943361E-02 0.66813328E+02</pdfrwt>
<totfact> 0.20323240E+05</totfact>
</mgrwt>
</event>
<event>
 4    1  0.2051373E-002  0.4350176E+02  0.7818608E-02  0.1483918E+00
         -1   -1    0    0  501    0 -0.00000000000E+00  0.00000000000E+00  0.11276635933E+01  0.11276748562E+01  0.50400000000E-02 0. -1.
          1   -1    0    0    0  501  0.00000000000E+00 -0.00000000000E+00 -0.41953862217E+03  0.41953862220E+03  0.50400000000E-02 0. -1.
          2    1    1    2    0  502  0.20695636602E+02  0.87995386330E+00 -0.14504883779E+03  0.14652047312E+03  0.25500000000E-02 0.  1.
         -2    1    1    2  502    0 -0.20695636602E+02 -0.87995386330E+00 -0.27336212079E+03  0.27414582393E+03  0.25500000000E-02 0.  1.
<mgrwt>
<rscale>  0 0.43501761E+02</rscale>
<asrwt>0</asrwt>
<pdfrwt beam="2">  1        1 0.64544280E-01 0.43501761E+02</pdfrwt>
<pdfrwt beam="1">  1       -1 0.17348791E-03 0.43501761E+02</pdfrwt>
<totfact> 0.89820408E+05</totfact>
</mgrwt>
</event>
<event>
 4    1  0.2051373E-002  0.8273957E+02  0.7818608E-02  0.1321452E+00
         -1   -1    0    0  501    0 -0.00000000000E+00  0.00000000000E+00  0.27357583594E+01  0.27357630020E+01  0.50400000000E-02 0.  1.
          1   -1    0    0    0  501  0.00000000000E+00 -0.00000000000E+00 -0.62558808042E+03  0.62558808044E+03  0.50400000000E-02 0.  1.
          2    1    1    2    0  502  0.50408147374E+01 -0.23292016515E+02 -0.54626579228E+02  0.59598582292E+02  0.25500000000E-02 0. -1.
         -2    1    1    2  502    0 -0.50408147374E+01  0.23292016515E+02 -0.56822574283E+03  0.56872526115E+03  0.25500000000E-02 0. -1.
<mgrwt>
<rscale>  0 0.82739574E+02</rscale>
<asrwt>0</asrwt>
<pdfrwt beam="2">  1        1 0.96244206E-01 0.82739574E+02</pdfrwt>
<pdfrwt beam="1">  1       -1 0.42088676E-03 0.82739574E+02</pdfrwt>
<totfact> 0.18323406E+05</totfact>
</mgrwt>
</event>
<event>
 4    1  0.2051373E-002  0.4351892E+02  0.7818608E-02  0.1483805E+00
         -1   -1    0    0  501    0 -0.00000000000E+00  0.00000000000E+00  0.35548210171E+03  0.35548210175E+03  0.50400000000E-02 0.  1.
          1   -1    0    0    0  501  0.00000000000E+00 -0.00000000000E+00 -0.13319161853E+01  0.13319257210E+01  0.50400000000E-02 0.  1.
          2    1    1    2    0  502  0.43042070040E+01  0.21263545210E+02  0.19081802351E+03  0.19204734483E+03  0.25500000000E-02 0.  1.
         -2    1    1    2  502    0 -0.43042070040E+01 -0.21263545210E+02  0.16333216201E+03  0.16476668264E+03  0.25500000000E-02 0.  1.
<mgrwt>
<rscale>  0 0.43518919E+02</rscale>
<asrwt>0</asrwt>
<pdfrwt beam="2">  1        1 0.20491087E-03 0.43518919E+02</pdfrwt>
<pdfrwt beam="1">  1       -1 0.54689568E-01 0.43518919E+02</pdfrwt>
<totfact> 0.36752636E+05</totfact>
</mgrwt>
</event>
<event>
 4    1  0.2051373E-002  0.4827565E+02  0.7818608E-02  0.1454870E+00
         -1   -1    0    0  501    0 -0.00000000000E+00  0.00000000000E+00  0.10491128612E+02  0.10491129823E+02  0.50400000000E-02 0.  1.
          1   -1    0    0    0  501  0.00000000000E+00 -0.00000000000E+00 -0.55535922221E+02  0.55535922450E+02  0.50400000000E-02 0.  1.
          2    1    1    2    0  502  0.57977114181E+00  0.22570245226E+02 -0.34198696846E+02  0.40979299367E+02  0.25500000000E-02 0.  1.
         -2    1    1    2  502    0 -0.57977114181E+00 -0.22570245226E+02 -0.10846096763E+02  0.25047752906E+02  0.25500000000E-02 0.  1.
<mgrwt>
<rscale>  0 0.48275648E+02</rscale>
<asrwt>0</asrwt>
<pdfrwt beam="2">  1        1 0.85439879E-02 0.48275648E+02</pdfrwt>
<pdfrwt beam="1">  1       -1 0.16140199E-02 0.48275648E+02</pdfrwt>
<totfact> 0.51518509E+05</totfact>
</mgrwt>
</event>
<event>
 4    1  0.2051373E-002  0.7069223E+02  0.7818608E-02  0.1357755E+00
          1   -1    0    0    0  501  0.00000000000E+00  0.00000000000E+00  0.23520660901E+03  0.23520660906E+03  0.50400000000E-02 0.  1.
         -1   -1    0    0  501    0 -0.00000000000E+00 -0.00000000000E+00 -0.53117025064E+01  0.53117048975E+01  0.50400000000E-02 0.  1.
          2    1    1    2    0  502 -0.28396900633E+02  0.20863623869E+02  0.12437200373E+03  0.12926743629E+03  0.25500000000E-02 0. -1.
         -2    1    1    2  502    0  0.28396900633E+02 -0.20863623869E+02  0.10552290277E+03  0.11125087767E+03  0.25500000000E-02 0. -1.
<mgrwt>
<rscale>  0 0.70692230E+02</rscale>
<asrwt>0</asrwt>
<pdfrwt beam="1">  1        1 0.36185632E-01 0.70692230E+02</pdfrwt>
<pdfrwt beam="2">  1       -1 0.81718520E-03 0.70692230E+02</pdfrwt>
<totfact> 0.23905714E+05</totfact>
</mgrwt>
</event>
<event>
 4    1  0.2051373E-002  0.5559268E+02  0.7818608E-02  0.1417317E+00
          1   -1    0    0    0  501  0.00000000000E+00  0.00000000000E+00  0.23799783051E+03  0.23799783057E+03  0.50400000000E-02 0. -1.
         -1   -1    0    0  501    0 -0.00000000000E+00 -0.00000000000E+00 -0.32463990934E+01  0.32464030057E+01  0.50400000000E-02 0. -1.
          2    1    1    2    0  502 -0.23712376138E+02  0.10465304684E+02  0.73799513447E+02  0.78218716275E+02  0.25500000000E-02 0.  1.
         -2    1    1    2  502    0  0.23712376138E+02 -0.10465304684E+02  0.16095191797E+03  0.16302551730E+03  0.25500000000E-02 0.  1.
<mgrwt>
<rscale>  0 0.55592676E+02</rscale>
<asrwt>0</asrwt>
<pdfrwt beam="1">  1        1 0.36615061E-01 0.55592676E+02</pdfrwt>
<pdfrwt beam="2">  1       -1 0.49944618E-03 0.55592676E+02</pdfrwt>
<totfact> 0.44378353E+05</totfact>
</mgrwt>
</event>
<event>
 4    1  0.2051373E-002  0.4643021E+02  0.7818608E-02  0.1465606E+00
          1   -1    0    0    0  501  0.00000000000E+00  0.00000000000E+00  0.14896957178E+04  0.14896957178E+04  0.50400000000E-02 0. -1.
         -1   -1    0    0  501    0 -0.00000000000E+00 -0.00000000000E+00 -0.36176169647E+00  0.36179680296E+00  0.50400000000E-02 0. -1.
          2    1    1    2    0  502 -0.21199225764E+02  0.11711546578E+00  0.44102435220E+03  0.44153357758E+03  0.25500000000E-02 0. -1.
         -2    1    1    2  502    0  0.21199225764E+02 -0.11711546578E+00  0.10483096039E+04  0.10485239371E+04  0.25500000000E-02 0. -1.
<mgrwt>
<rscale>  0 0.46430206E+02</rscale>
<asrwt>0</asrwt>
<pdfrwt beam="1">  1        1 0.22918646E+00 0.46430206E+02</pdfrwt>
<pdfrwt beam="2">  1       -1 0.55657740E-04 0.46430206E+02</pdfrwt>
<totfact> 0.62591306E+05</totfact>
</mgrwt>
</event>
<event>
 4    1  0.2051373E-002  0.8408087E+02  0.7818608E-02  0.1317854E+00
         -1   -1    0    0  501    0 -0.00000000000E+00  0.00000000000E+00  0.20906127561E+01  0.20906188312E+01  0.50400000000E-02 0.  1.
          1   -1    0    0    0  501  0.00000000000E+00 -0.00000000000E+00 -0.84539606680E+03  0.84539606681E+03  0.50400000000E-02 0.  1.
          2    1    1    2    0  502 -0.18075394899E+02  0.37448407799E+02 -0.48402735825E+03  0.48581023732E+03  0.25500000000E-02 0. -1.
         -2    1    1    2  502    0  0.18075394899E+02 -0.37448407799E+02 -0.35927809579E+03  0.36167644832E+03  0.25500000000E-02 0. -1.
<mgrwt>
<rscale>  0 0.84080875E+02</rscale>
<asrwt>0</asrwt>
<pdfrwt beam="2">  1        1 0.13006066E+00 0.84080875E+02</pdfrwt>
<pdfrwt beam="1">  1       -1 0.32163387E-03 0.84080875E+02</pdfrwt>
<totfact> 0.17388279E+05</totfact>
</mgrwt>
</event>
<event>
 4    1  0.2051373E-002  0.6140231E+02  0.7818608E-02  0.1392039E+00
          1   -1    0    0    0  501  0.00000000000E+00  0.00000000000E+00  0.32223291086E+04  0.32223291086E+04  0.50400000000E-02 0. -1.
         -1   -1    0    0  501    0 -0.00000000000E+00 -0.00000000000E+00 -0.29248749972E+00  0.29253091989E+00  0.50400000000E-02 0. -1.
          2    1    1    2    0  502  0.17981919350E+02  0.23352621634E+02  0.11599434569E+04  0.11603178520E+04  0.25500000000E-02 0.  1.
         -2    1    1    2  502    0 -0.17981919350E+02 -0.23352621634E+02  0.20620931642E+04  0.20623037875E+04  0.25500000000E-02 0.  1.
<mgrwt>
<rscale>  0 0.61402311E+02</rscale>
<asrwt>0</asrwt>
<pdfrwt beam="1">  1        1 0.49574118E+00 0.61402311E+02</pdfrwt>
<pdfrwt beam="2">  1       -1 0.45001577E-04 0.61402311E+02</pdfrwt>
<totfact> 0.69280633E+04</totfact>
</mgrwt>
</event>
<event>
 4    1  0.2051373E-002  0.7083013E+02  0.7818608E-02  0.1357293E+00
          1   -1    0    0    0  501  0.00000000000E+00  0.00000000000E+00  0.85522057904E+02  0.85522058053E+02  0.50400000000E-02 0. -1.
         -1   -1    0    0  501    0 -0.00000000000E+00 -0.00000000000E+00 -0.14665535595E+02  0.14665536461E+02  0.50400000000E-02 0. -1.
          2    1    1    2    0  502 -0.10041612429E+02 -0.26923522297E+02  0.64708851850E+02  0.70802157787E+02  0.25500000000E-02 0. -1.
         -2    1    1    2  502    0  0.10041612429E+02  0.26923522297E+02  0.61476704595E+01  0.29385436727E+02  0.25500000000E-02 0. -1.
<mgrwt>
<rscale>  0 0.70830130E+02</rscale>
<asrwt>0</asrwt>
<pdfrwt beam="1">  1        1 0.13157239E-01 0.70830130E+02</pdfrwt>
<pdfrwt beam="2">  1       -1 0.22562364E-02 0.70830130E+02</pdfrwt>
<totfact> 0.20091915E+05</totfact>
</mgrwt>
</event>
<event>
 4    1  0.2051373E-002  0.4317954E+02  0.7818608E-02  0.1486037E+00
          1   -1    0    0    0  501  0.00000000000E+00  0.00000000000E+00  0.37349944705E+03  0.37349944709E+03  0.50400000000E-02 0. -1.
         -1   -1    0    0  501    0 -0.00000000000E+00 -0.00000000000E+00 -0.12479705120E+01  0.12479806892E+01  0.50400000000E-02 0. -1.
          2    1    1    2    0  502 -0.59139293600E+01 -0.20526897241E+02  0.15897041936E+03  0.16039925906E+03  0.25500000000E-02 0.  1.
         -2    1    1    2  502    0  0.59139293600E+01  0.20526897241E+02  0.21328105719E+03  0.21434816872E+03  0.25500000000E-02 0.  1.
<mgrwt>
<rscale>  0 0.43179542E+02</rscale>
<asrwt>0</asrwt>
<pdfrwt beam="1">  1        1 0.57461425E-01 0.43179542E+02</pdfrwt>
<pdfrwt beam="2">  1       -1 0.19199635E-03 0.43179542E+02</pdfrwt>
<totfact> 0.89896544E+05</totfact>
</mgrwt>
</event>
<event>
 4    1  0.2051373E-002  0.6339518E+02  0.7818608E-02  0.1384112E+00
          1   -1    0    0    0  501  0.00000000000E+00  0.00000000000E+00  0.83747670227E+01  0.83747685392E+01  0.50400000000E-02 0.  1.
         -1   -1    0    0  501    0 -0.00000000000E+00 -0.00000000000E+00 -0.11997193432E+03  0.11997193442E+03  0.50400000000E-02 0.  1.
          2    1    1    2    0  502  0.71378259564E+01  0.25863175466E+02 -0.89970006124E+02  0.93885325866E+02  0.25500000000E-02 0.  1.
         -2    1    1    2  502    0 -0.71378259564E+01 -0.25863175466E+02 -0.21627161170E+02  0.34461377095E+02  0.25500000000E-02 0.  1.
<mgrwt>
<rscale>  0 0.63395177E+02</rscale>
<asrwt>0</asrwt>
<pdfrwt beam="1">  1        1 0.12884259E-02 0.63395177E+02</pdfrwt>
<pdfrwt beam="2">  1       -1 0.18457220E-01 0.63395177E+02</pdfrwt>
<totfact> 0.19902098E+05</totfact>
</mgrwt>
</event>
<event>
 4    1  0.2051373E-002  0.6324159E+02  0.7818608E-02  0.1384711E+00
         -1   -1    0    0  501    0 -0.00000000000E+00  0.00000000000E+00  0.26608617773E+03  0.26608617778E+03  0.50400000000E-02 0.  1.
          1   -1    0    0    0  501  0.00000000000E+00 -0.00000000000E+00 -0.37577081874E+01  0.37577115674E+01  0.50400000000E-02 0.  1.
          2    1    1    2    0  502  0.25514385490E+02  0.13650423772E+02  0.76762558228E+02  0.82035408747E+02  0.25500000000E-02 0.  1.
         -2    1    1    2  502    0 -0.25514385490E+02 -0.13650423772E+02  0.18556591131E+03  0.18780848060E+03  0.25500000000E-02 0.  1.
<mgrwt>
<rscale>  0 0.63241590E+02</rscale>
<asrwt>0</asrwt>
<pdfrwt beam="2">  1        1 0.57810910E-03 0.63241590E+02</pdfrwt>
<pdfrwt beam="1">  1       -1 0.40936344E-01 0.63241590E+02</pdfrwt>
<totfact> 0.16265698E+05</totfact>
</mgrwt>
</event>
<event>
 4    1  0.2051373E-002  0.4179649E+02  0.7818608E-02  0.1495393E+00
          1   -1    0    0    0  501  0.00000000000E+00  0.00000000000E+00  0.14444077429E+03  0.14444077438E+03  0.50400000000E-02 0.  1.
         -1   -1    0    0  501    0 -0.00000000000E+00 -0.00000000000E+00 -0.30236363158E+01  0.30236405163E+01  0.50400000000E-02 0.  1.
          2    1    1    2    0  502  0.20482640523E+02  0.43666106830E+00  0.85258700938E+02  0.87685662042E+02  0.25500000000E-02 0.  1.
         -2    1    1    2  502    0 -0.20482640523E+02 -0.43666106830E+00  0.56158437038E+02  0.59778752854E+02  0.25500000000E-02 0.  1.
<mgrwt>
<rscale>  0 0.41796492E+02</rscale>
<asrwt>0</asrwt>
<pdfrwt beam="1">  1        1 0.22221655E-01 0.41796492E+02</pdfrwt>
<pdfrwt beam="2">  1       -1 0.46517522E-03 0.41796492E+02</pdfrwt>
<totfact> 0.83148757E+05</totfact>
</mgrwt>
</event>
<event>
 4    1  0.2051373E-002  0.4434704E+02  0.7818608E-02  0.1478460E+00
          1   -1    0    0    0  501  0.00000000000E+00  0.00000000000E+00  0.34638215573E+03  0.34638215577E+03  0.50400000000E-02 0. -1.
         -1   -1    0    0  501    0 -0.00000000000E+00 -0.00000000000E+00 -0.14194248701E+01  0.14194338179E+01  0.50400000000E-02 0. -1.
          2    1    1    2    0  502 -0.41383728065E+01 -0.21240116941E+02  0.13454632467E+03  0.13627539098E+03  0.25500000000E-02 0. -1.
         -2    1    1    2  502    0  0.41383728065E+01  0.21240116941E+02  0.21041640619E+03  0.21152619861E+03  0.25500000000E-02 0. -1.
<mgrwt>
<rscale>  0 0.44347041E+02</rscale>
<asrwt>0</asrwt>
<pdfrwt beam="1">  1        1 0.53289617E-01 0.44347041E+02</pdfrwt>
<pdfrwt beam="2">  1       -1 0.21837353E-03 0.44347041E+02</pdfrwt>
<totfact> 0.83211446E+05</totfact>
</mgrwt>
</event>
<event>
 4    1  0.2051373E-002  0.4209358E+02  0.7818608E-02  0.1493347E+00
          1   -1    0    0    0  501  0.00000000000E+00  0.00000000000E+00  0.16076263780E+04  0.16076263780E+04  0.50400000000E-02 0. -1.
         -1   -1    0    0  501    0 -0.00000000000E+00 -0.00000000000E+00 -0.27551823499E+00  0.27556432899E+00  0.50400000000E-02 0. -1.
          2    1    1    2    0  502 -0.10738004255E+02  0.16921065609E+02  0.55807440804E+03  0.55843412513E+03  0.25500000000E-02 0. -1.
         -2    1    1    2  502    0  0.10738004255E+02 -0.16921065609E+02  0.10492764517E+04  0.10494678172E+04  0.25500000000E-02 0. -1.
<mgrwt>
<rscale>  0 0.42093584E+02</rscale>
<asrwt>0</asrwt>
<pdfrwt beam="1">  1        1 0.24732068E+00 0.42093584E+02</pdfrwt>
<pdfrwt beam="2">  1       -1 0.42392074E-04 0.42093584E+02</pdfrwt>
<totfact> 0.74681921E+05</totfact>
</mgrwt>
</event>
<event>
 4    1  0.2051373E-002  0.9989026E+02  0.7818608E-02  0.1280527E+00
          1   -1    0    0    0  501  0.00000000000E+00  0.00000000000E+00  0.11186641001E+03  0.11186641012E+03  0.50400000000E-02 0. -1.
         -1   -1    0    0  501    0 -0.00000000000E+00 -0.00000000000E+00 -0.22299061712E+02  0.22299062281E+02  0.50400000000E-02 0. -1.
          2    1    1    2    0  502 -0.47278625277E+02  0.16053760972E+02  0.46441973177E+02  0.68189797833E+02  0.25500000000E-02 0.  1.
         -2    1    1    2  502    0  0.47278625277E+02 -0.16053760972E+02  0.43125375122E+02  0.65975674572E+02  0.25500000000E-02 0.  1.
<mgrwt>
<rscale>  0 0.99890260E+02</rscale>
<asrwt>0</asrwt>
<pdfrwt beam="1">  1        1 0.17210217E-01 0.99890260E+02</pdfrwt>
<pdfrwt beam="2">  1       -1 0.34306249E-02 0.99890260E+02</pdfrwt>
<totfact> 0.82928944E+04</totfact>
</mgrwt>
</event>
<event>
 4    1  0.2051373E-002  0.4765926E+02  0.7818608E-02  0.1458392E+00
          1   -1    0    0    0  501  0.00000000000E+00  0.00000000000E+00  0.23144250540E+02  0.23144251088E+02  0.50400000000E-02 0.  1.
         -1   -1    0    0  501    0 -0.00000000000E+00 -0.00000000000E+00 -0.24535306767E+02  0.24535307285E+02  0.50400000000E-02 0.  1.
          2    1    1    2    0  502 -0.92096459115E+01  0.17782878252E+02  0.12225194409E+02  0.23462815722E+02  0.25500000000E-02 0.  1.
         -2    1    1    2  502    0  0.92096459115E+01 -0.17782878252E+02 -0.13616250637E+02  0.24216742652E+02  0.25500000000E-02 0.  1.
<mgrwt>
<rscale>  0 0.47659262E+02</rscale>
<asrwt>0</asrwt>
<pdfrwt beam="1">  1        1 0.35606540E-02 0.47659262E+02</pdfrwt>
<pdfrwt beam="2">  1       -1 0.37746626E-02 0.47659262E+02</pdfrwt>
<totfact> 0.49192890E+05</totfact>
</mgrwt>
</event>
<event>
 4    1  0.2051373E-002  0.5095152E+02  0.7818608E-02  0.1440276E+00
         -1   -1    0    0  501    0 -0.00000000000E+00  0.00000000000E+00  0.47971775444E+00  0.47974422928E+00  0.50400000000E-02 0. -1.
          1   -1    0    0    0  501  0.00000000000E+00 -0.00000000000E+00 -0.13528711288E+04  0.13528711288E+04  0.50400000000E-02 0. -1.
          2    1    1    2    0  502 -0.20462518422E+02  0.14177519592E+02 -0.53242561948E+03  0.53300727670E+03  0.25500000000E-02 0. -1.
         -2    1    1    2  502    0  0.20462518422E+02 -0.14177519592E+02 -0.81996579157E+03  0.82034359635E+03  0.25500000000E-02 0. -1.
<mgrwt>
<rscale>  0 0.50951515E+02</rscale>
<asrwt>0</asrwt>
<pdfrwt beam="2">  1        1 0.20813097E+00 0.50951515E+02</pdfrwt>
<pdfrwt beam="1">  1       -1 0.73805851E-04 0.50951515E+02</pdfrwt>
<totfact> 0.53173889E+05</totfact>
</mgrwt>
</event>
<event>
 4    1  0.2051373E-002  0.4330923E+02  0.7818608E-02  0.1485181E+00
          1   -1    0    0    0  501  0.00000000000E+00  0.00000000000E+00  0.18126006211E+02  0.18126006912E+02  0.50400000000E-02 0. -1.
         -1   -1    0    0  501    0 -0.00000000000E+00 -0.00000000000E+00 -0.25870146110E+02  0.25870146601E+02  0.50400000000E-02 0. -1.
          2    1    1    2    0  502 -0.86629176362E+00  0.21601243364E+02 -0.51401769522E+01  0.22221287134E+02  0.25500000000E-02 0.  1.
         -2    1    1    2  502    0  0.86629176362E+00 -0.21601243364E+02 -0.26039629465E+01  0.21774866379E+02  0.25500000000E-02 0.  1.
<mgrwt>
<rscale>  0 0.43309235E+02</rscale>
<asrwt>0</asrwt>
<pdfrwt beam="1">  1        1 0.27886164E-02 0.43309235E+02</pdfrwt>
<pdfrwt beam="2">  1       -1 0.39800226E-02 0.43309235E+02</pdfrwt>
<totfact> 0.61686056E+05</totfact>
</mgrwt>
</event>
<event>
 4    1  0.2051373E-002  0.4961037E+02  0.7818608E-02  0.1447454E+00
          1   -1    0    0    0  501  0.00000000000E+00  0.00000000000E+00  0.21586821827E+03  0.21586821833E+03  0.50400000000E-02 0.  1.
         -1   -1    0    0  501    0 -0.00000000000E+00 -0.00000000000E+00 -0.28503352838E+01  0.28503397397E+01  0.50400000000E-02 0.  1.
          2    1    1    2    0  502 -0.17271718682E+02  0.17561775628E+02  0.93603298385E+02  0.96790008288E+02  0.25500000000E-02 0.  1.
         -2    1    1    2  502    0  0.17271718682E+02 -0.17561775628E+02  0.11941458460E+03  0.12192854978E+03  0.25500000000E-02 0.  1.
<mgrwt>
<rscale>  0 0.49610374E+02</rscale>
<asrwt>0</asrwt>
<pdfrwt beam="1">  1        1 0.33210495E-01 0.49610374E+02</pdfrwt>
<pdfrwt beam="2">  1       -1 0.43851347E-03 0.49610374E+02</pdfrwt>
<totfact> 0.58082427E+05</totfact>
</mgrwt>
</event>
<event>
 4    1  0.2051373E-002  0.1007184E+03  0.7818608E-02  0.1278792E+00
          1   -1    0    0    0  501  0.00000000000E+00  0.00000000000E+00  0.81644457573E+03  0.81644457575E+03  0.50400000000E-02 0.  1.
         -1   -1    0    0  501    0 -0.00000000000E+00 -0.00000000000E+00 -0.31062080215E+01  0.31062121103E+01  0.50400000000E-02 0.  1.
          2    1    1    2    0  502  0.12058665495E+02  0.17402912499E+02  0.77846886898E+03  0.77875673529E+03  0.25500000000E-02 0. -1.
         -2    1    1    2  502    0 -0.12058665495E+02 -0.17402912499E+02  0.34869498731E+02  0.40794052572E+02  0.25500000000E-02 0. -1.
<mgrwt>
<rscale>  0 0.10071839E+03</rscale>
<asrwt>0</asrwt>
<pdfrwt beam="1">  1        1 0.12560697E+00 0.10071839E+03</pdfrwt>
<pdfrwt beam="2">  1       -1 0.47787803E-03 0.10071839E+03</pdfrwt>
<totfact> 0.10826425E+05</totfact>
</mgrwt>
</event>
<event>
 4    1  0.2051373E-002  0.2189173E+03  0.7818608E-02  0.1134693E+00
          1   -1    0    0    0  501  0.00000000000E+00  0.00000000000E+00  0.12704095779E+04  0.12704095779E+04  0.50400000000E-02 0.  1.
         -1   -1    0    0  501    0 -0.00000000000E+00 -0.00000000000E+00 -0.94309710390E+01  0.94309723858E+01  0.50400000000E-02 0.  1.
          2    1    1    2    0  502  0.54228749772E+02 -0.38691802744E+02  0.11382497587E+04  0.11401974943E+04  0.25500000000E-02 0.  1.
         -2    1    1    2  502    0 -0.54228749772E+02  0.38691802744E+02  0.12272884819E+03  0.13964305598E+03  0.25500000000E-02 0.  1.
<mgrwt>
<rscale>  0 0.21891731E+03</rscale>
<asrwt>0</asrwt>
<pdfrwt beam="1">  1        1 0.19544773E+00 0.21891731E+03</pdfrwt>
<pdfrwt beam="2">  1       -1 0.14509180E-02 0.21891731E+03</pdfrwt>
<totfact> 0.11108267E+04</totfact>
</mgrwt>
</event>
<event>
 4    1  0.2051373E-002  0.4573811E+02  0.7818608E-02  0.1469786E+00
          1   -1    0    0    0  501  0.00000000000E+00  0.00000000000E+00  0.18266997981E+03  0.18266997988E+03  0.50400000000E-02 0. -1.
         -1   -1    0    0  501    0 -0.00000000000E+00 -0.00000000000E+00 -0.28630495289E+01  0.28630539650E+01  0.50400000000E-02 0. -1.
          2    1    1    2    0  502  0.18177417866E+01  0.22132711726E+02  0.11205928692E+03  0.11423854386E+03  0.25500000000E-02 0. -1.
         -2    1    1    2  502    0 -0.18177417866E+01 -0.22132711726E+02  0.67747643367E+02  0.71294489983E+02  0.25500000000E-02 0. -1.
<mgrwt>
<rscale>  0 0.45738107E+02</rscale>
<asrwt>0</asrwt>
<pdfrwt beam="1">  1        1 0.28103079E-01 0.45738107E+02</pdfrwt>
<pdfrwt beam="2">  1       -1 0.44046943E-03 0.45738107E+02</pdfrwt>
<totfact> 0.69100513E+05</totfact>
</mgrwt>
</event>
<event>
 4    1  0.2051373E-002  0.6362263E+02  0.7818608E-02  0.1383229E+00
         -1   -1    0    0  501    0 -0.00000000000E+00  0.00000000000E+00  0.49923348012E+01  0.49923373453E+01  0.50400000000E-02 0.  1.
          1   -1    0    0    0  501  0.00000000000E+00 -0.00000000000E+00 -0.20270265724E+03  0.20270265730E+03  0.50400000000E-02 0.  1.
          2    1    1    2    0  502  0.26394675063E+02 -0.17755901395E+02 -0.99162927579E+02  0.10414046821E+03  0.25500000000E-02 0. -1.
         -2    1    1    2  502    0 -0.26394675063E+02  0.17755901395E+02 -0.98547394860E+02  0.10355452644E+03  0.25500000000E-02 0. -1.
<mgrwt>
<rscale>  0 0.63622631E+02</rscale>
<asrwt>0</asrwt>
<pdfrwt beam="2">  1        1 0.31185018E-01 0.63622631E+02</pdfrwt>
<pdfrwt beam="1">  1       -1 0.76805186E-03 0.63622631E+02</pdfrwt>
<totfact> 0.30556419E+05</totfact>
</mgrwt>
</event>
<event>
 4    1  0.2051373E-002  0.4098890E+02  0.7818608E-02  0.1501058E+00
         -1   -1    0    0  501    0 -0.00000000000E+00  0.00000000000E+00  0.34701593733E+00  0.34705253544E+00  0.50400000000E-02 0. -1.
          1   -1    0    0    0  501  0.00000000000E+00 -0.00000000000E+00 -0.12103198376E+04  0.12103198376E+04  0.50400000000E-02 0. -1.
          2    1    1    2    0  502 -0.18081698579E+02  0.96167361299E+01 -0.62773120135E+03  0.62806519613E+03  0.25500000000E-02 0. -1.
         -2    1    1    2  502    0  0.18081698579E+02 -0.96167361299E+01 -0.58224162035E+03  0.58260169405E+03  0.25500000000E-02 0. -1.
<mgrwt>
<rscale>  0 0.40988898E+02</rscale>
<asrwt>0</asrwt>
<pdfrwt beam="2">  1        1 0.18619968E+00 0.40988898E+02</pdfrwt>
<pdfrwt beam="1">  1       -1 0.53390852E-04 0.40988898E+02</pdfrwt>
<totfact> 0.96570720E+05</totfact>
</mgrwt>
</event>
<event>
 4    1  0.2051373E-002  0.9888547E+02  0.7818608E-02  0.1282657E+00
         -1   -1    0    0  501    0 -0.00000000000E+00  0.00000000000E+00  0.74497527334E+01  0.74497544383E+01  0.50400000000E-02 0.  1.
          1   -1    0    0    0  501  0.00000000000E+00 -0.00000000000E+00 -0.32814293175E+03  0.32814293178E+03  0.50400000000E-02 0.  1.
          2    1    1    2    0  502 -0.17390888357E+02 -0.44475041980E+02 -0.11687057834E+03  0.12625056216E+03  0.25500000000E-02 0. -1.
         -2    1    1    2  502    0  0.17390888357E+02  0.44475041980E+02 -0.20382260067E+03  0.20934212406E+03  0.25500000000E-02 0. -1.
<mgrwt>
<rscale>  0 0.98885469E+02</rscale>
<asrwt>0</asrwt>
<pdfrwt beam="2">  1        1 0.50483517E-01 0.98885469E+02</pdfrwt>
<pdfrwt beam="1">  1       -1 0.11461162E-02 0.98885469E+02</pdfrwt>
<totfact> 0.10488040E+05</totfact>
</mgrwt>
</event>
<event>
 4    1  0.2051373E-002  0.5218587E+02  0.7818608E-02  0.1433896E+00
         -1   -1    0    0  501    0 -0.00000000000E+00  0.00000000000E+00  0.55299717326E+01  0.55299740293E+01  0.50400000000E-02 0.  1.
          1   -1    0    0    0  501  0.00000000000E+00 -0.00000000000E+00 -0.12311836713E+03  0.12311836723E+03  0.50400000000E-02 0.  1.
          2    1    1    2    0  502 -0.24094314340E+02 -0.10923808982E+01 -0.34251952228E+02  0.41891831155E+02  0.25500000000E-02 0.  1.
         -2    1    1    2  502    0  0.24094314340E+02  0.10923808982E+01 -0.83336443166E+02  0.86756510105E+02  0.25500000000E-02 0.  1.
<mgrwt>
<rscale>  0 0.52185870E+02</rscale>
<asrwt>0</asrwt>
<pdfrwt beam="2">  1        1 0.18941285E-01 0.52185870E+02</pdfrwt>
<pdfrwt beam="1">  1       -1 0.85076516E-03 0.52185870E+02</pdfrwt>
<totfact> 0.46666539E+05</totfact>
</mgrwt>
</event>
<event>
 4    1  0.2051373E-002  0.5629371E+02  0.7818608E-02  0.1414078E+00
         -1   -1    0    0  501    0 -0.00000000000E+00  0.00000000000E+00  0.14180771566E+02  0.14180772461E+02  0.50400000000E-02 0. -1.
          1   -1    0    0    0  501  0.00000000000E+00 -0.00000000000E+00 -0.55867587058E+02  0.55867587285E+02  0.50400000000E-02 0. -1.
          2    1    1    2    0  502  0.17434319108E+02 -0.12516081877E+02 -0.43503936844E+02  0.48509796080E+02  0.25500000000E-02 0. -1.
         -2    1    1    2  502    0 -0.17434319108E+02  0.12516081877E+02  0.18171213519E+01  0.21538563666E+02  0.25500000000E-02 0. -1.
<mgrwt>
<rscale>  0 0.56293713E+02</rscale>
<asrwt>0</asrwt>
<pdfrwt beam="2">  1        1 0.85950134E-02 0.56293713E+02</pdfrwt>
<pdfrwt beam="1">  1       -1 0.21816573E-02 0.56293713E+02</pdfrwt>
<totfact> 0.34766718E+05</totfact>
</mgrwt>
</event>
<event>
 4    1  0.2051373E-002  0.5282527E+02  0.7818608E-02  0.1430672E+00
         -1   -1    0    0  501    0 -0.00000000000E+00  0.00000000000E+00  0.76979729749E+00  0.76981379620E+00  0.50400000000E-02 0.  1.
          1   -1    0    0    0  501  0.00000000000E+00 -0.00000000000E+00 -0.90623820969E+03  0.90623820970E+03  0.50400000000E-02 0.  1.
          2    1    1    2    0  502  0.22521442548E+02  0.12508871212E+02 -0.55276303294E+03  0.55336304342E+03  0.25500000000E-02 0.  1.
         -2    1    1    2  502    0 -0.22521442548E+02 -0.12508871212E+02 -0.35270537945E+03  0.35364498008E+03  0.25500000000E-02 0.  1.
<mgrwt>
<rscale>  0 0.52825267E+02</rscale>
<asrwt>0</asrwt>
<pdfrwt beam="2">  1        1 0.13942041E+00 0.52825267E+02</pdfrwt>
<pdfrwt beam="1">  1       -1 0.11843235E-03 0.52825267E+02</pdfrwt>
<totfact> 0.56554937E+05</totfact>
</mgrwt>
</event>
<event>
 4    1  0.2051373E-002  0.5264652E+02  0.7818608E-02  0.1431568E+00
         -1   -1    0    0  501    0 -0.00000000000E+00  0.00000000000E+00  0.52476643668E+01  0.52476667871E+01  0.50400000000E-02 0.  1.
          1   -1    0    0    0  501  0.00000000000E+00 -0.00000000000E+00 -0.13204231877E+03  0.13204231886E+03  0.50400000000E-02 0.  1.
          2    1    1    2    0  502  0.59661414799E+01  0.22261998746E+02 -0.30234278903E+02  0.38017141655E+02  0.25500000000E-02 0.  1.
         -2    1    1    2  502    0 -0.59661414799E+01 -0.22261998746E+02 -0.96560375497E+02  0.99272843995E+02  0.25500000000E-02 0.  1.
<mgrwt>
<rscale>  0 0.52646517E+02</rscale>
<asrwt>0</asrwt>
<pdfrwt beam="2">  1        1 0.20314201E-01 0.52646517E+02</pdfrwt>
<pdfrwt beam="1">  1       -1 0.80733327E-03 0.52646517E+02</pdfrwt>
<totfact> 0.46123244E+05</totfact>
</mgrwt>
</event>
<event>
 4    1  0.2051373E-002  0.4538035E+02  0.7818608E-02  0.1471981E+00
          1   -1    0    0    0  501  0.00000000000E+00  0.00000000000E+00  0.15445871601E+04  0.15445871601E+04  0.50400000000E-02 0. -1.
         -1   -1    0    0  501    0 -0.00000000000E+00 -0.00000000000E+00 -0.33330240497E+00  0.33334050873E+00  0.50400000000E-02 0. -1.
          2    1    1    2    0  502  0.13696018588E+02 -0.17671439977E+02  0.90390480379E+03  0.90418126227E+03  0.25500000000E-02 0.  1.
         -2    1    1    2  502    0 -0.13696018588E+02  0.17671439977E+02  0.64034905389E+03  0.64073923834E+03  0.25500000000E-02 0.  1.
<mgrwt>
<rscale>  0 0.45380351E+02</rscale>
<asrwt>0</asrwt>
<pdfrwt beam="1">  1        1 0.23763121E+00 0.45380351E+02</pdfrwt>
<pdfrwt beam="2">  1       -1 0.51279704E-04 0.45380351E+02</pdfrwt>
<totfact> 0.64302847E+05</totfact>
</mgrwt>
</event>
<event>
 4    1  0.2051373E-002  0.4467693E+02  0.7818608E-02  0.1476369E+00
         -1   -1    0    0  501    0 -0.00000000000E+00  0.00000000000E+00  0.93443990749E+01  0.93444004341E+01  0.50400000000E-02 0. -1.
          1   -1    0    0    0  501  0.00000000000E+00 -0.00000000000E+00 -0.53401710794E+02  0.53401711032E+02  0.50400000000E-02 0. -1.
          2    1    1    2    0  502  0.89135023281E+01 -0.20216142647E+02 -0.26657774050E+02  0.34623400628E+02  0.25500000000E-02 0. -1.
         -2    1    1    2  502    0 -0.89135023281E+01  0.20216142647E+02 -0.17399537670E+02  0.28122710838E+02  0.25500000000E-02 0. -1.
<mgrwt>
<rscale>  0 0.44676927E+02</rscale>
<asrwt>0</asrwt>
<pdfrwt beam="2">  1        1 0.82156477E-02 0.44676927E+02</pdfrwt>
<pdfrwt beam="1">  1       -1 0.14376000E-02 0.44676927E+02</pdfrwt>
<totfact> 0.62404002E+05</totfact>
</mgrwt>
</event>
<event>
 4    1  0.2051373E-002  0.5135985E+02  0.7818608E-02  0.1438142E+00
         -1   -1    0    0  501    0 -0.00000000000E+00  0.00000000000E+00  0.12178075003E+01  0.12178179294E+01  0.50400000000E-02 0.  1.
          1   -1    0    0    0  501  0.00000000000E+00 -0.00000000000E+00 -0.54151073605E+03  0.54151073607E+03  0.50400000000E-02 0.  1.
          2    1    1    2    0  502  0.24317283250E+02  0.11352770591E+01 -0.18375404557E+03  0.18535956514E+03  0.25500000000E-02 0. -1.
         -2    1    1    2  502    0 -0.24317283250E+02 -0.11352770591E+01 -0.35653888298E+03  0.35736898886E+03  0.25500000000E-02 0. -1.
<mgrwt>
<rscale>  0 0.51359855E+02</rscale>
<asrwt>0</asrwt>
<pdfrwt beam="2">  1        1 0.83309153E-01 0.51359855E+02</pdfrwt>
<pdfrwt beam="1">  1       -1 0.18735624E-03 0.51359855E+02</pdfrwt>
<totfact> 0.61429711E+05</totfact>
</mgrwt>
</event>
<event>
 4    1  0.2051373E-002  0.4262695E+02  0.7818608E-02  0.1489724E+00
         -1   -1    0    0  501    0 -0.00000000000E+00  0.00000000000E+00  0.55598010040E+01  0.55598032884E+01  0.50400000000E-02 0. -1.
          1   -1    0    0    0  501  0.00000000000E+00 -0.00000000000E+00 -0.81705119292E+02  0.81705119447E+02  0.50400000000E-02 0. -1.
          2    1    1    2    0  502  0.15454845806E+02  0.13834462397E+02 -0.48105851832E+02  0.52387189232E+02  0.25500000000E-02 0. -1.
         -2    1    1    2  502    0 -0.15454845806E+02 -0.13834462397E+02 -0.28039466456E+02  0.34877733503E+02  0.25500000000E-02 0. -1.
<mgrwt>
<rscale>  0 0.42626954E+02</rscale>
<asrwt>0</asrwt>
<pdfrwt beam="2">  1        1 0.12570018E-01 0.42626954E+02</pdfrwt>
<pdfrwt beam="1">  1       -1 0.85535424E-03 0.42626954E+02</pdfrwt>
<totfact> 0.73389606E+05</totfact>
</mgrwt>
</event>
<event>
 4    1  0.2051373E-002  0.4975941E+02  0.7818608E-02  0.1446644E+00
          1   -1    0    0    0  501  0.00000000000E+00  0.00000000000E+00  0.84026110019E+02  0.84026110170E+02  0.50400000000E-02 0.  1.
         -1   -1    0    0  501    0 -0.00000000000E+00 -0.00000000000E+00 -0.73667544978E+01  0.73667562219E+01  0.50400000000E-02 0.  1.
          2    1    1    2    0  502  0.17448847396E+02 -0.15967435186E+02  0.24152754847E+02  0.33804982400E+02  0.25500000000E-02 0. -1.
         -2    1    1    2  502    0 -0.17448847396E+02  0.15967435186E+02  0.52506600674E+02  0.57587883992E+02  0.25500000000E-02 0. -1.
<mgrwt>
<rscale>  0 0.49759414E+02</rscale>
<asrwt>0</asrwt>
<pdfrwt beam="1">  1        1 0.12927094E-01 0.49759414E+02</pdfrwt>
<pdfrwt beam="2">  1       -1 0.11333470E-02 0.49759414E+02</pdfrwt>
<totfact> 0.49978874E+05</totfact>
</mgrwt>
</event>
<event>
 4    1  0.2051373E-002  0.4155288E+02  0.7818608E-02  0.1497085E+00
         -1   -1    0    0  501    0 -0.00000000000E+00  0.00000000000E+00  0.63850989075E+00  0.63852978175E+00  0.50400000000E-02 0. -1.
          1   -1    0    0    0  501  0.00000000000E+00 -0.00000000000E+00 -0.67603281741E+03  0.67603281743E+03  0.50400000000E-02 0. -1.
          2    1    1    2    0  502 -0.14196424993E+02 -0.14972591276E+02 -0.37739748259E+03  0.37796107848E+03  0.25500000000E-02 0.  1.
         -2    1    1    2  502    0  0.14196424993E+02  0.14972591276E+02 -0.29799682492E+03  0.29871026873E+03  0.25500000000E-02 0.  1.
<mgrwt>
<rscale>  0 0.41552876E+02</rscale>
<asrwt>0</asrwt>
<pdfrwt beam="2">  1        1 0.10400448E+00 0.41552876E+02</pdfrwt>
<pdfrwt beam="1">  1       -1 0.98234363E-04 0.41552876E+02</pdfrwt>
<totfact> 0.10448975E+06</totfact>
</mgrwt>
</event>
<event>
 4    1  0.2051373E-002  0.6768099E+02  0.7818608E-02  0.1368161E+00
         -1   -1    0    0  501    0 -0.00000000000E+00  0.00000000000E+00  0.39092674570E+02  0.39092674895E+02  0.50400000000E-02 0.  1.
          1   -1    0    0    0  501  0.00000000000E+00 -0.00000000000E+00 -0.29293957104E+02  0.29293957538E+02  0.50400000000E-02 0.  1.
          2    1    1    2    0  502  0.13951288740E+02  0.30318211203E+02 -0.75783246917E+00  0.33382730635E+02  0.25500000000E-02 0.  1.
         -2    1    1    2  502    0 -0.13951288740E+02 -0.30318211203E+02  0.10556549935E+02  0.35003901798E+02  0.25500000000E-02 0.  1.
<mgrwt>
<rscale>  0 0.67680992E+02</rscale>
<asrwt>0</asrwt>
<pdfrwt beam="2">  1        1 0.45067627E-02 0.67680992E+02</pdfrwt>
<pdfrwt beam="1">  1       -1 0.60142577E-02 0.67680992E+02</pdfrwt>
<totfact> 0.19862198E+05</totfact>
</mgrwt>
</event>
<event>
 4    1  0.2051373E-002  0.4253226E+02  0.7818608E-02  0.1490363E+00
         -1   -1    0    0  501    0 -0.00000000000E+00  0.00000000000E+00  0.27624584028E+03  0.27624584033E+03  0.50400000000E-02 0.  1.
          1   -1    0    0    0  501  0.00000000000E+00 -0.00000000000E+00 -0.16371187500E+01  0.16371265080E+01  0.50400000000E-02 0.  1.
          2    1    1    2    0  502 -0.17782976005E+02  0.10716792836E+02  0.16736144296E+03  0.16864440839E+03  0.25500000000E-02 0.  1.
         -2    1    1    2  502    0  0.17782976005E+02 -0.10716792836E+02  0.10724727857E+03  0.10923855845E+03  0.25500000000E-02 0.  1.
<mgrwt>
<rscale>  0 0.42532262E+02</rscale>
<asrwt>0</asrwt>
<pdfrwt beam="2">  1        1 0.25186551E-03 0.42532262E+02</pdfrwt>
<pdfrwt beam="1">  1       -1 0.42499278E-01 0.42532262E+02</pdfrwt>
<totfact> 0.43046677E+05</totfact>
</mgrwt>
</event>
<event>
 4    1  0.2051373E-002  0.5803214E+02  0.7818608E-02  0.1406281E+00
         -1   -1    0    0  501    0 -0.00000000000E+00  0.00000000000E+00  0.23235016668E+03  0.23235016673E+03  0.50400000000E-02 0.  1.
          1   -1    0    0    0  501  0.00000000000E+00 -0.00000000000E+00 -0.36235473050E+01  0.36235508101E+01  0.50400000000E-02 0.  1.
          2    1    1    2    0  502 -0.65904963007E+01  0.27150129030E+02  0.82509134983E+02  0.87110972386E+02  0.25500000000E-02 0. -1.
         -2    1    1    2  502    0  0.65904963007E+01 -0.27150129030E+02  0.14621748439E+03  0.14886274515E+03  0.25500000000E-02 0. -1.
<mgrwt>
<rscale>  0 0.58032137E+02</rscale>
<asrwt>0</asrwt>
<pdfrwt beam="2">  1        1 0.55746899E-03 0.58032137E+02</pdfrwt>
<pdfrwt beam="1">  1       -1 0.35746186E-01 0.58032137E+02</pdfrwt>
<totfact> 0.21141122E+05</totfact>
</mgrwt>
</event>
<event>
 4    1  0.2051373E-002  0.1304901E+03  0.7818608E-02  0.1226730E+00
          1   -1    0    0    0  501  0.00000000000E+00  0.00000000000E+00  0.46953794083E+03  0.46953794086E+03  0.50400000000E-02 0. -1.
         -1   -1    0    0  501    0 -0.00000000000E+00 -0.00000000000E+00 -0.90661772300E+01  0.90661786309E+01  0.50400000000E-02 0. -1.
          2    1    1    2    0  502  0.34258058905E+02 -0.48959416122E+02  0.13415251386E+03  0.14685889829E+03  0.25500000000E-02 0. -1.
         -2    1    1    2  502    0 -0.34258058905E+02  0.48959416122E+02  0.32631924975E+03  0.33174522120E+03  0.25500000000E-02 0. -1.
<mgrwt>
<rscale>  0 0.13049007E+03</rscale>
<asrwt>0</asrwt>
<pdfrwt beam="1">  1        1 0.72236632E-01 0.13049007E+03</pdfrwt>
<pdfrwt beam="2">  1       -1 0.13947961E-02 0.13049007E+03</pdfrwt>
<totfact> 0.52499719E+04</totfact>
</mgrwt>
</event>
<event>
 4    1  0.2051373E-002  0.5472895E+02  0.7818608E-02  0.1421385E+00
          1   -1    0    0    0  501  0.00000000000E+00  0.00000000000E+00  0.90338611553E+01  0.90338625612E+01  0.50400000000E-02 0. -1.
         -1   -1    0    0  501    0 -0.00000000000E+00 -0.00000000000E+00 -0.82889743141E+02  0.82889743294E+02  0.50400000000E-02 0. -1.
          2    1    1    2    0  502  0.18182572946E+02 -0.18694651748E+02 -0.23004490577E+02  0.34775027766E+02  0.25500000000E-02 0. -1.
         -2    1    1    2  502    0 -0.18182572946E+02  0.18694651748E+02 -0.50851391409E+02  0.57148578089E+02  0.25500000000E-02 0. -1.
<mgrwt>
<rscale>  0 0.54728950E+02</rscale>
<asrwt>0</asrwt>
<pdfrwt beam="1">  1        1 0.13898250E-02 0.54728950E+02</pdfrwt>
<pdfrwt beam="2">  1       -1 0.12752268E-01 0.54728950E+02</pdfrwt>
<totfact> 0.30631651E+05</totfact>
</mgrwt>
</event>
<event>
 4    1  0.2051373E-002  0.4646698E+02  0.7818608E-02  0.1465386E+00
         -1   -1    0    0  501    0 -0.00000000000E+00  0.00000000000E+00  0.73933432806E+03  0.73933432808E+03  0.50400000000E-02 0.  1.
          1   -1    0    0    0  501  0.00000000000E+00 -0.00000000000E+00 -0.73010084521E+00  0.73011824095E+00  0.50400000000E-02 0.  1.
          2    1    1    2    0  502 -0.73256641929E+01 -0.20756624021E+02  0.48773089340E+03  0.48822733145E+03  0.25500000000E-02 0. -1.
         -2    1    1    2  502    0  0.73256641929E+01  0.20756624021E+02  0.25087333382E+03  0.25183711487E+03  0.25500000000E-02 0. -1.
<mgrwt>
<rscale>  0 0.46466980E+02</rscale>
<asrwt>0</asrwt>
<pdfrwt beam="2">  1        1 0.11232480E-03 0.46466980E+02</pdfrwt>
<pdfrwt beam="1">  1       -1 0.11374348E+00 0.46466980E+02</pdfrwt>
<totfact> 0.19535514E+05</totfact>
</mgrwt>
</event>
<event>
 4    1  0.2051373E-002  0.5248144E+02  0.7818608E-02  0.1432399E+00
         -1   -1    0    0  501    0 -0.00000000000E+00  0.00000000000E+00  0.99735304413E+03  0.99735304414E+03  0.50400000000E-02 0. -1.
          1   -1    0    0    0  501  0.00000000000E+00 -0.00000000000E+00 -0.69039357676E+00  0.69041197298E+00  0.50400000000E-02 0. -1.
          2    1    1    2    0  502 -0.18631054767E+02 -0.17686737868E+02  0.60010096451E+03  0.60065056772E+03  0.25500000000E-02 0.  1.
         -2    1    1    2  502    0  0.18631054767E+02  0.17686737868E+02  0.39656168605E+03  0.39739288839E+03  0.25500000000E-02 0.  1.
<mgrwt>
<rscale>  0 0.52481438E+02</rscale>
<asrwt>0</asrwt>
<pdfrwt beam="2">  1        1 0.10621581E-03 0.52481438E+02</pdfrwt>
<pdfrwt beam="1">  1       -1 0.15343893E+00 0.52481438E+02</pdfrwt>
<totfact> 0.10599441E+05</totfact>
</mgrwt>
</event>
<event>
 4    1  0.2051373E-002  0.5758025E+02  0.7818608E-02  0.1408276E+00
         -1   -1    0    0  501    0 -0.00000000000E+00  0.00000000000E+00  0.20605712412E+01  0.20605774050E+01  0.50400000000E-02 0.  1.
          1   -1    0    0    0  501  0.00000000000E+00 -0.00000000000E+00 -0.40225252835E+03  0.40225252839E+03  0.50400000000E-02 0.  1.
          2    1    1    2    0  502  0.52672332379E+01  0.24095366248E+02 -0.30437303818E+03  0.30537072027E+03  0.25500000000E-02 0. -1.
         -2    1    1    2  502    0 -0.52672332379E+01 -0.24095366248E+02 -0.95818918930E+02  0.98942385518E+02  0.25500000000E-02 0. -1.
<mgrwt>
<rscale>  0 0.57580248E+02</rscale>
<asrwt>0</asrwt>
<pdfrwt beam="2">  1        1 0.61884942E-01 0.57580248E+02</pdfrwt>
<pdfrwt beam="1">  1       -1 0.31701176E-03 0.57580248E+02</pdfrwt>
<totfact> 0.44449566E+05</totfact>
</mgrwt>
</event>
<event>
 4    1  0.2051373E-002  0.4477223E+02  0.7818608E-02  0.1475769E+00
         -1   -1    0    0  501    0 -0.00000000000E+00  0.00000000000E+00  0.17376952534E+01  0.17377025624E+01  0.50400000000E-02 0. -1.
          1   -1    0    0    0  501  0.00000000000E+00 -0.00000000000E+00 -0.28839174652E+03  0.28839174657E+03  0.50400000000E-02 0. -1.
          2    1    1    2    0  502  0.20416357038E+02 -0.63417343510E+01 -0.18635659240E+03  0.18757884947E+03  0.25500000000E-02 0. -1.
         -2    1    1    2  502    0 -0.20416357038E+02  0.63417343510E+01 -0.10029745887E+03  0.10255059966E+03  0.25500000000E-02 0. -1.
<mgrwt>
<rscale>  0 0.44772225E+02</rscale>
<asrwt>0</asrwt>
<pdfrwt beam="2">  1        1 0.44367923E-01 0.44772225E+02</pdfrwt>
<pdfrwt beam="1">  1       -1 0.26733853E-03 0.44772225E+02</pdfrwt>
<totfact> 0.78811561E+05</totfact>
</mgrwt>
</event>
<event>
 4    1  0.2051373E-002  0.4615619E+02  0.7818608E-02  0.1467250E+00
         -1   -1    0    0  501    0 -0.00000000000E+00  0.00000000000E+00  0.18454987364E+01  0.18455056184E+01  0.50400000000E-02 0.  1.
          1   -1    0    0    0  501  0.00000000000E+00 -0.00000000000E+00 -0.28859270430E+03  0.28859270435E+03  0.50400000000E-02 0.  1.
          2    1    1    2    0  502 -0.62979607521E+00 -0.22201082555E+02 -0.18282806160E+03  0.18417216082E+03  0.25500000000E-02 0. -1.
         -2    1    1    2  502    0  0.62979607521E+00  0.22201082555E+02 -0.10391914397E+03  0.10626604914E+03  0.25500000000E-02 0. -1.
<mgrwt>
<rscale>  0 0.46156190E+02</rscale>
<asrwt>0</asrwt>
<pdfrwt beam="2">  1        1 0.44398842E-01 0.46156190E+02</pdfrwt>
<pdfrwt beam="1">  1       -1 0.28392364E-03 0.46156190E+02</pdfrwt>
<totfact> 0.73120077E+05</totfact>
</mgrwt>
</event>
<event>
 4    1  0.2051373E-002  0.7942928E+02  0.7818608E-02  0.1330679E+00
          1   -1    0    0    0  501  0.00000000000E+00  0.00000000000E+00  0.20214528613E+04  0.20214528613E+04  0.50400000000E-02 0. -1.
         -1   -1    0    0  501    0 -0.00000000000E+00 -0.00000000000E+00 -0.78024877774E+00  0.78026505545E+00  0.50400000000E-02 0. -1.
          2    1    1    2    0  502  0.90083332389E+01 -0.28480823457E+02  0.34402295326E+03  0.34531738987E+03  0.25500000000E-02 0.  1.
         -2    1    1    2  502    0 -0.90083332389E+01  0.28480823457E+02  0.16766496592E+04  0.16769157365E+04  0.25500000000E-02 0.  1.
<mgrwt>
<rscale>  0 0.79429279E+02</rscale>
<asrwt>0</asrwt>
<pdfrwt beam="1">  1        1 0.31099089E+00 0.79429279E+02</pdfrwt>
<pdfrwt beam="2">  1       -1 0.12004024E-03 0.79429279E+02</pdfrwt>
<totfact> 0.11292902E+05</totfact>
</mgrwt>
</event>
<event>
 4    1  0.2051373E-002  0.9701432E+02  0.7818608E-02  0.1286703E+00
         -1   -1    0    0  501    0 -0.00000000000E+00  0.00000000000E+00  0.25118231462E+01  0.25118282026E+01  0.50400000000E-02 0.  1.
          1   -1    0    0    0  501  0.00000000000E+00 -0.00000000000E+00 -0.93674676184E+03  0.93674676185E+03  0.50400000000E-02 0.  1.
          2    1    1    2    0  502  0.25564867885E+02  0.21030247739E+02 -0.81038767226E+03  0.81106350747E+03  0.25500000000E-02 0. -1.
         -2    1    1    2  502    0 -0.25564867885E+02 -0.21030247739E+02 -0.12384726643E+03  0.12819508259E+03  0.25500000000E-02 0. -1.
<mgrwt>
<rscale>  0 0.97014320E+02</rscale>
<asrwt>0</asrwt>
<pdfrwt beam="2">  1        1 0.14411461E+00 0.97014320E+02</pdfrwt>
<pdfrwt beam="1">  1       -1 0.38643547E-03 0.97014320E+02</pdfrwt>
<totfact> 0.11717025E+05</totfact>
</mgrwt>
</event>
<event>
 4    1  0.2051373E-002  0.7409942E+02  0.7818608E-02  0.1346683E+00
          1   -1    0    0    0  501  0.00000000000E+00  0.00000000000E+00  0.13222877106E+02  0.13222878066E+02  0.50400000000E-02 0.  1.
         -1   -1    0    0  501    0 -0.00000000000E+00 -0.00000000000E+00 -0.10381106683E+03  0.10381106695E+03  0.50400000000E-02 0.  1.
          2    1    1    2    0  502 -0.25935287969E+02 -0.26259884700E+02 -0.50402316220E+02  0.62470906775E+02  0.25500000000E-02 0.  1.
         -2    1    1    2  502    0  0.25935287969E+02  0.26259884700E+02 -0.40185873500E+02  0.54563038239E+02  0.25500000000E-02 0.  1.
<mgrwt>
<rscale>  0 0.74099421E+02</rscale>
<asrwt>0</asrwt>
<pdfrwt beam="1">  1        1 0.20342889E-02 0.74099421E+02</pdfrwt>
<pdfrwt beam="2">  1       -1 0.15970933E-01 0.74099421E+02</pdfrwt>
<totfact> 0.13754318E+05</totfact>
</mgrwt>
</event>
<event>
 4    1  0.2051373E-002  0.1328513E+03  0.7818608E-02  0.1223285E+00
          1   -1    0    0    0  501  0.00000000000E+00  0.00000000000E+00  0.11415398213E+02  0.11415399325E+02  0.50400000000E-02 0. -1.
         -1   -1    0    0  501    0 -0.00000000000E+00 -0.00000000000E+00 -0.38652751046E+03  0.38652751049E+03  0.50400000000E-02 0. -1.
          2    1    1    2    0  502  0.85432225016E+00  0.22183577081E+02 -0.25634410179E-01  0.22200036537E+02  0.25500000000E-02 0. -1.
         -2    1    1    2  502    0 -0.85432225016E+00 -0.22183577081E+02 -0.37508647783E+03  0.37574287328E+03  0.25500000000E-02 0. -1.
<mgrwt>
<rscale>  0 0.13285128E+03</rscale>
<asrwt>0</asrwt>
<pdfrwt beam="1">  1        1 0.17562155E-02 0.13285128E+03</pdfrwt>
<pdfrwt beam="2">  1       -1 0.59465761E-01 0.13285128E+03</pdfrwt>
<totfact> 0.19969857E+04</totfact>
</mgrwt>
</event>
<event>
 4    1  0.2051373E-002  0.5611511E+02  0.7818608E-02  0.1414898E+00
         -1   -1    0    0  501    0 -0.00000000000E+00  0.00000000000E+00  0.13820012045E+01  0.13820103946E+01  0.50400000000E-02 0.  1.
          1   -1    0    0    0  501  0.00000000000E+00 -0.00000000000E+00 -0.56962602815E+03  0.56962602817E+03  0.50400000000E-02 0.  1.
          2    1    1    2    0  502 -0.24056786074E+02 -0.13411154101E+02 -0.33857695357E+03  0.33969536574E+03  0.25500000000E-02 0.  1.
         -2    1    1    2  502    0  0.24056786074E+02  0.13411154101E+02 -0.22966707337E+03  0.23131267282E+03  0.25500000000E-02 0.  1.
<mgrwt>
<rscale>  0 0.56115113E+02</rscale>
<asrwt>0</asrwt>
<pdfrwt beam="2">  1        1 0.87634587E-01 0.56115113E+02</pdfrwt>
<pdfrwt beam="1">  1       -1 0.21261673E-03 0.56115113E+02</pdfrwt>
<totfact> 0.49417842E+05</totfact>
</mgrwt>
</event>
<event>
 4    1  0.2051373E-002  0.5202961E+02  0.7818608E-02  0.1434692E+00
         -1   -1    0    0  501    0 -0.00000000000E+00  0.00000000000E+00  0.42562074473E+01  0.42562104314E+01  0.50400000000E-02 0. -1.
          1   -1    0    0    0  501  0.00000000000E+00 -0.00000000000E+00 -0.15900772583E+03  0.15900772591E+03  0.50400000000E-02 0. -1.
          2    1    1    2    0  502  0.70502257973E+01 -0.24889324582E+02 -0.86018363416E+02  0.89823955676E+02  0.25500000000E-02 0. -1.
         -2    1    1    2  502    0 -0.70502257973E+01  0.24889324582E+02 -0.68733154963E+02  0.73439980662E+02  0.25500000000E-02 0. -1.
<mgrwt>
<rscale>  0 0.52029611E+02</rscale>
<asrwt>0</asrwt>
<pdfrwt beam="2">  1        1 0.24462723E-01 0.52029611E+02</pdfrwt>
<pdfrwt beam="1">  1       -1 0.65480150E-03 0.52029611E+02</pdfrwt>
<totfact> 0.48935353E+05</totfact>
</mgrwt>
</event>
<event>
 4    1  0.2051373E-002  0.4715680E+02  0.7818608E-02  0.1461309E+00
          1   -1    0    0    0  501  0.00000000000E+00  0.00000000000E+00  0.28950434414E+04  0.28950434414E+04  0.50400000000E-02 0. -1.
         -1   -1    0    0  501    0 -0.00000000000E+00 -0.00000000000E+00 -0.19199891249E+00  0.19206505148E+00  0.50400000000E-02 0. -1.
          2    1    1    2    0  502 -0.22524702180E+01 -0.23363828190E+02  0.15846953527E+04  0.15848691754E+04  0.25500000000E-02 0. -1.
         -2    1    1    2  502    0  0.22524702180E+01  0.23363828190E+02  0.13101560897E+04  0.13103663311E+04  0.25500000000E-02 0. -1.
<mgrwt>
<rscale>  0 0.47156800E+02</rscale>
<asrwt>0</asrwt>
<pdfrwt beam="1">  1        1 0.44539782E+00 0.47156800E+02</pdfrwt>
<pdfrwt beam="2">  1       -1 0.29542950E-04 0.47156800E+02</pdfrwt>
<totfact> 0.19617736E+05</totfact>
</mgrwt>
</event>
<event>
 4    1  0.2051373E-002  0.5231726E+02  0.7818608E-02  0.1433229E+00
         -1   -1    0    0  501    0 -0.00000000000E+00  0.00000000000E+00  0.30488676809E+02  0.30488677226E+02  0.50400000000E-02 0. -1.
          1   -1    0    0    0  501  0.00000000000E+00 -0.00000000000E+00 -0.22443542924E+02  0.22443543490E+02  0.50400000000E-02 0. -1.
          2    1    1    2    0  502  0.21659871156E+02 -0.81112056507E+01  0.16386366312E+02  0.28345276203E+02  0.25500000000E-02 0.  1.
         -2    1    1    2  502    0 -0.21659871156E+02  0.81112056507E+01 -0.83412324273E+01  0.24586944513E+02  0.25500000000E-02 0.  1.
<mgrwt>
<rscale>  0 0.52317261E+02</rscale>
<asrwt>0</asrwt>
<pdfrwt beam="2">  1        1 0.34528528E-02 0.52317261E+02</pdfrwt>
<pdfrwt beam="1">  1       -1 0.46905657E-02 0.52317261E+02</pdfrwt>
<totfact> 0.38463491E+05</totfact>
</mgrwt>
</event>
<event>
 4    1  0.2051373E-002  0.9613116E+02  0.7818608E-02  0.1288649E+00
          1   -1    0    0    0  501  0.00000000000E+00  0.00000000000E+00  0.11018018072E+04  0.11018018072E+04  0.50400000000E-02 0.  1.
         -1   -1    0    0  501    0 -0.00000000000E+00 -0.00000000000E+00 -0.20968348418E+01  0.20968408989E+01  0.50400000000E-02 0.  1.
          2    1    1    2    0  502 -0.26887212022E+02  0.27480584526E+02  0.88111905286E+03  0.88195741962E+03  0.25500000000E-02 0. -1.
         -2    1    1    2  502    0  0.26887212022E+02 -0.27480584526E+02  0.21858591949E+03  0.22194122848E+03  0.25500000000E-02 0. -1.
<mgrwt>
<rscale>  0 0.96131156E+02</rscale>
<asrwt>0</asrwt>
<pdfrwt beam="1">  1        1 0.16950847E+00 0.96131156E+02</pdfrwt>
<pdfrwt beam="2">  1       -1 0.32258949E-03 0.96131156E+02</pdfrwt>
<totfact> 0.11466077E+05</totfact>
</mgrwt>
</event>
<event>
 4    1  0.2051373E-002  0.5802590E+02  0.7818608E-02  0.1406308E+00
          1   -1    0    0    0  501  0.00000000000E+00  0.00000000000E+00  0.46468260852E+01  0.46468288184E+01  0.50400000000E-02 0. -1.
         -1   -1    0    0  501    0 -0.00000000000E+00 -0.00000000000E+00 -0.18114538537E+03  0.18114538544E+03  0.50400000000E-02 0. -1.
          2    1    1    2    0  502  0.20586754259E+01  0.26824298098E+02 -0.12302625742E+03  0.12593347900E+03  0.25500000000E-02 0.  1.
         -2    1    1    2  502    0 -0.20586754259E+01 -0.26824298098E+02 -0.53472301863E+02  0.59858735252E+02  0.25500000000E-02 0.  1.
<mgrwt>
<rscale>  0 0.58025903E+02</rscale>
<asrwt>0</asrwt>
<pdfrwt beam="1">  1        1 0.71489668E-03 0.58025903E+02</pdfrwt>
<pdfrwt beam="2">  1       -1 0.27868516E-01 0.58025903E+02</pdfrwt>
<totfact> 0.22698729E+05</totfact>
</mgrwt>
</event>
<event>
 4    1  0.2051373E-002  0.8287672E+02  0.7818608E-02  0.1321080E+00
         -1   -1    0    0  501    0 -0.00000000000E+00  0.00000000000E+00  0.48455684423E+01  0.48455710635E+01  0.50400000000E-02 0.  1.
          1   -1    0    0    0  501  0.00000000000E+00 -0.00000000000E+00 -0.35437274226E+03  0.35437274230E+03  0.50400000000E-02 0.  1.
          2    1    1    2    0  502 -0.23994075147E+02  0.22937625739E+02 -0.28227756950E+03  0.28422258279E+03  0.25500000000E-02 0. -1.
         -2    1    1    2  502    0  0.23994075147E+02 -0.22937625739E+02 -0.67249604316E+02  0.74995730571E+02  0.25500000000E-02 0. -1.
<mgrwt>
<rscale>  0 0.82876724E+02</rscale>
<asrwt>0</asrwt>
<pdfrwt beam="2">  1        1 0.54518864E-01 0.82876724E+02</pdfrwt>
<pdfrwt beam="1">  1       -1 0.74547254E-03 0.82876724E+02</pdfrwt>
<totfact> 0.17006817E+05</totfact>
</mgrwt>
</event>
<event>
 4    1  0.2051373E-002  0.5685759E+02  0.7818608E-02  0.1411513E+00
          1   -1    0    0    0  501  0.00000000000E+00  0.00000000000E+00  0.44681071125E+01  0.44681099551E+01  0.50400000000E-02 0. -1.
         -1   -1    0    0  501    0 -0.00000000000E+00 -0.00000000000E+00 -0.18088109284E+03  0.18088109291E+03  0.50400000000E-02 0. -1.
          2    1    1    2    0  502  0.44227860850E+01  0.23892409496E+02 -0.13631471920E+03  0.13846339207E+03  0.25500000000E-02 0.  1.
         -2    1    1    2  502    0 -0.44227860850E+01 -0.23892409496E+02 -0.40098266525E+02  0.46885810787E+02  0.25500000000E-02 0.  1.
<mgrwt>
<rscale>  0 0.56857589E+02</rscale>
<asrwt>0</asrwt>
<pdfrwt beam="1">  1        1 0.68740146E-03 0.56857589E+02</pdfrwt>
<pdfrwt beam="2">  1       -1 0.27827855E-01 0.56857589E+02</pdfrwt>
<totfact> 0.23897378E+05</totfact>
</mgrwt>
</event>
<event>
 4    1  0.2051373E-002  0.9768606E+02  0.7818608E-02  0.1285238E+00
         -1   -1    0    0  501    0 -0.00000000000E+00  0.00000000000E+00  0.71595921800E+03  0.71595921802E+03  0.50400000000E-02 0.  1.
          1   -1    0    0    0  501  0.00000000000E+00 -0.00000000000E+00 -0.33320895008E+01  0.33320933124E+01  0.50400000000E-02 0.  1.
          2    1    1    2    0  502 -0.45192317071E+02  0.14191531809E+01  0.22028536697E+03  0.22487774996E+03  0.25500000000E-02 0.  1.
         -2    1    1    2  502    0  0.45192317071E+02 -0.14191531809E+01  0.49234176153E+03  0.49441356137E+03  0.25500000000E-02 0.  1.
<mgrwt>
<rscale>  0 0.97686060E+02</rscale>
<asrwt>0</asrwt>
<pdfrwt beam="2">  1        1 0.51262953E-03 0.97686060E+02</pdfrwt>
<pdfrwt beam="1">  1       -1 0.11014756E+00 0.97686060E+02</pdfrwt>
<totfact> 0.30135691E+04</totfact>
</mgrwt>
</event>
<event>
 4    1  0.2051373E-002  0.6263310E+02  0.7818608E-02  0.1387103E+00
          1   -1    0    0    0  501  0.00000000000E+00  0.00000000000E+00  0.37792899650E+01  0.37792933256E+01  0.50400000000E-02 0.  1.
         -1   -1    0    0  501    0 -0.00000000000E+00 -0.00000000000E+00 -0.25950005549E+03  0.25950005554E+03  0.50400000000E-02 0.  1.
          2    1    1    2    0  502  0.12617226587E+02  0.24262239484E+02 -0.19200717989E+03  0.19394485765E+03  0.25500000000E-02 0. -1.
         -2    1    1    2  502    0 -0.12617226587E+02 -0.24262239484E+02 -0.63713585633E+02  0.69334491216E+02  0.25500000000E-02 0. -1.
<mgrwt>
<rscale>  0 0.62633103E+02</rscale>
<asrwt>0</asrwt>
<pdfrwt beam="1">  1        1 0.58142969E-03 0.62633103E+02</pdfrwt>
<pdfrwt beam="2">  1       -1 0.39923072E-01 0.62633103E+02</pdfrwt>
<totfact> 0.16815930E+05</totfact>
</mgrwt>
</event>
<event>
 4    1  0.2051373E-002  0.1930746E+03  0.7818608E-02  0.1155717E+00
          1   -1    0    0    0  501  0.00000000000E+00  0.00000000000E+00  0.18230288001E+02  0.18230288698E+02  0.50400000000E-02 0. -1.
         -1   -1    0    0  501    0 -0.00000000000E+00 -0.00000000000E+00 -0.51120712940E+03  0.51120712943E+03  0.50400000000E-02 0. -1.
          2    1    1    2    0  502 -0.31121372097E+01 -0.91023647722E+02 -0.33425671720E+03  0.34644269778E+03  0.25500000000E-02 0. -1.
         -2    1    1    2  502    0  0.31121372097E+01  0.91023647722E+02 -0.15872012420E+03  0.18299472035E+03  0.25500000000E-02 0. -1.
<mgrwt>
<rscale>  0 0.19307463E+03</rscale>
<asrwt>0</asrwt>
<pdfrwt beam="1">  1        1 0.28046601E-02 0.19307463E+03</pdfrwt>
<pdfrwt beam="2">  1       -1 0.78647240E-01 0.19307463E+03</pdfrwt>
<totfact> 0.61810966E+03</totfact>
</mgrwt>
</event>
<event>
 4    1  0.2051373E-002  0.1763597E+03  0.7818608E-02  0.1171373E+00
         -1   -1    0    0  501    0 -0.00000000000E+00  0.00000000000E+00  0.67521603085E+01  0.67521621895E+01  0.50400000000E-02 0. -1.
          1   -1    0    0    0  501  0.00000000000E+00 -0.00000000000E+00 -0.11515845044E+04  0.11515845044E+04  0.50400000000E-02 0. -1.
          2    1    1    2    0  502  0.55265095094E+02 -0.50690035693E+02 -0.26772912575E+03  0.27803344266E+03  0.25500000000E-02 0. -1.
         -2    1    1    2  502    0 -0.55265095094E+02  0.50690035693E+02 -0.87710321833E+03  0.88030322393E+03  0.25500000000E-02 0. -1.
<mgrwt>
<rscale>  0 0.17635968E+03</rscale>
<asrwt>0</asrwt>
<pdfrwt beam="2">  1        1 0.17716669E+00 0.17635968E+03</pdfrwt>
<pdfrwt beam="1">  1       -1 0.10387950E-02 0.17635968E+03</pdfrwt>
<totfact> 0.21481881E+04</totfact>
</mgrwt>
</event>
<event>
 4    1  0.2051373E-002  0.5154268E+02  0.7818608E-02  0.1437194E+00
         -1   -1    0    0  501    0 -0.00000000000E+00  0.00000000000E+00  0.95842624528E+01  0.95842637780E+01  0.50400000000E-02 0. -1.
          1   -1    0    0    0  501  0.00000000000E+00 -0.00000000000E+00 -0.69297126693E+02  0.69297126876E+02  0.50400000000E-02 0. -1.
          2    1    1    2    0  502 -0.52747998904E+01  0.23922935341E+02 -0.42102723795E+02  0.48711084023E+02  0.25500000000E-02 0.  1.
         -2    1    1    2  502    0  0.52747998904E+01 -0.23922935341E+02 -0.17610140446E+02  0.30170306632E+02  0.25500000000E-02 0.  1.
<mgrwt>
<rscale>  0 0.51542678E+02</rscale>
<asrwt>0</asrwt>
<pdfrwt beam="2">  1        1 0.10661096E-01 0.51542678E+02</pdfrwt>
<pdfrwt beam="1">  1       -1 0.14745021E-02 0.51542678E+02</pdfrwt>
<totfact> 0.44675325E+05</totfact>
</mgrwt>
</event>
<event>
 4    1  0.2051373E-002  0.5979447E+02  0.7818608E-02  0.1398696E+00
          1   -1    0    0    0  501  0.00000000000E+00  0.00000000000E+00  0.58395103977E+03  0.58395103979E+03  0.50400000000E-02 0.  1.
         -1   -1    0    0  501    0 -0.00000000000E+00 -0.00000000000E+00 -0.15306798652E+01  0.15306881626E+01  0.50400000000E-02 0.  1.
          2    1    1    2    0  502 -0.92005432330E+01 -0.27061919862E+02  0.20537488847E+03  0.20735438824E+03  0.25500000000E-02 0.  1.
         -2    1    1    2  502    0  0.92005432330E+01  0.27061919862E+02  0.37704547143E+03  0.37812733971E+03  0.25500000000E-02 0.  1.
<mgrwt>
<rscale>  0 0.59794466E+02</rscale>
<asrwt>0</asrwt>
<pdfrwt beam="1">  1        1 0.89838689E-01 0.59794466E+02</pdfrwt>
<pdfrwt beam="2">  1       -1 0.23548968E-03 0.59794466E+02</pdfrwt>
<totfact> 0.42169158E+05</totfact>
</mgrwt>
</event>
<event>
 4    1  0.2051373E-002  0.7825790E+02  0.7818608E-02  0.1334069E+00
          1   -1    0    0    0  501  0.00000000000E+00  0.00000000000E+00  0.44358928674E+03  0.44358928677E+03  0.50400000000E-02 0.  1.
         -1   -1    0    0  501    0 -0.00000000000E+00 -0.00000000000E+00 -0.34515570363E+01  0.34515607160E+01  0.50400000000E-02 0.  1.
          2    1    1    2    0  502 -0.22522927634E+02 -0.31123577173E+02  0.26247755116E+03  0.26527424337E+03  0.25500000000E-02 0.  1.
         -2    1    1    2  502    0  0.22522927634E+02  0.31123577173E+02  0.17766017854E+03  0.18176660411E+03  0.25500000000E-02 0.  1.
<mgrwt>
<rscale>  0 0.78257896E+02</rscale>
<asrwt>0</asrwt>
<pdfrwt beam="1">  1        1 0.68244450E-01 0.78257896E+02</pdfrwt>
<pdfrwt beam="2">  1       -1 0.53100950E-03 0.78257896E+02</pdfrwt>
<totfact> 0.20492901E+05</totfact>
</mgrwt>
</event>
<event>
 4    1  0.2051373E-002  0.6331875E+02  0.7818608E-02  0.1384410E+00
         -1   -1    0    0  501    0 -0.00000000000E+00  0.00000000000E+00  0.17025556292E+01  0.17025630890E+01  0.50400000000E-02 0. -1.
          1   -1    0    0    0  501  0.00000000000E+00 -0.00000000000E+00 -0.58871141662E+03  0.58871141664E+03  0.50400000000E-02 0. -1.
          2    1    1    2    0  502  0.23693325265E+02 -0.11046327172E+02 -0.46002424644E+03  0.46076642925E+03  0.25500000000E-02 0.  1.
         -2    1    1    2  502    0 -0.23693325265E+02  0.11046327172E+02 -0.12698461455E+03  0.12964755048E+03  0.25500000000E-02 0.  1.
<mgrwt>
<rscale>  0 0.63318754E+02</rscale>
<asrwt>0</asrwt>
<pdfrwt beam="2">  1        1 0.90570826E-01 0.63318754E+02</pdfrwt>
<pdfrwt beam="1">  1       -1 0.26193268E-03 0.63318754E+02</pdfrwt>
<totfact> 0.36476512E+05</totfact>
</mgrwt>
</event>
<event>
 4    1  0.2051373E-002  0.4184639E+02  0.7818608E-02  0.1495047E+00
         -1   -1    0    0  501    0 -0.00000000000E+00  0.00000000000E+00  0.82319650763E+01  0.82319666192E+01  0.50400000000E-02 0.  1.
          1   -1    0    0    0  501  0.00000000000E+00 -0.00000000000E+00 -0.53180511097E+02  0.53180511336E+02  0.50400000000E-02 0.  1.
          2    1    1    2    0  502  0.15033488769E+02  0.13516397029E+02 -0.14560089266E+02  0.24913750804E+02  0.25500000000E-02 0.  1.
         -2    1    1    2  502    0 -0.15033488769E+02 -0.13516397029E+02 -0.30388456755E+02  0.36498727151E+02  0.25500000000E-02 0.  1.
<mgrwt>
<rscale>  0 0.41846394E+02</rscale>
<asrwt>0</asrwt>
<pdfrwt beam="2">  1        1 0.81816170E-02 0.41846394E+02</pdfrwt>
<pdfrwt beam="1">  1       -1 0.12664563E-02 0.41846394E+02</pdfrwt>
<totfact> 0.73469831E+05</totfact>
</mgrwt>
</event>
<event>
 4    1  0.2051373E-002  0.5522798E+02  0.7818608E-02  0.1419024E+00
         -1   -1    0    0  501    0 -0.00000000000E+00  0.00000000000E+00  0.18610590599E+03  0.18610590606E+03  0.50400000000E-02 0. -1.
          1   -1    0    0    0  501  0.00000000000E+00 -0.00000000000E+00 -0.40973018568E+01  0.40973049566E+01  0.50400000000E-02 0. -1.
          2    1    1    2    0  502 -0.19882698938E+01 -0.24379418697E+02  0.13513855934E+03  0.13733440756E+03  0.25500000000E-02 0. -1.
         -2    1    1    2  502    0  0.19882698938E+01  0.24379418697E+02  0.46870044791E+02  0.52868803451E+02  0.25500000000E-02 0. -1.
<mgrwt>
<rscale>  0 0.55227978E+02</rscale>
<asrwt>0</asrwt>
<pdfrwt beam="2">  1        1 0.63035448E-03 0.55227978E+02</pdfrwt>
<pdfrwt beam="1">  1       -1 0.28631673E-01 0.55227978E+02</pdfrwt>
<totfact> 0.25514599E+05</totfact>
</mgrwt>
</event>
<event>
 4    1  0.2051373E-002  0.1329530E+03  0.7818608E-02  0.1223139E+00
          1   -1    0    0    0  501  0.00000000000E+00  0.00000000000E+00  0.67352312115E+02  0.67352312304E+02  0.50400000000E-02 0. -1.
         -1   -1    0    0  501    0 -0.00000000000E+00 -0.00000000000E+00 -0.65612095332E+02  0.65612095525E+02  0.50400000000E-02 0. -1.
          2    1    1    2    0  502  0.47673806167E+02  0.23292629585E+02  0.40920860160E+02  0.67006381712E+02  0.25500000000E-02 0.  1.
         -2    1    1    2  502    0 -0.47673806167E+02 -0.23292629585E+02 -0.39180643376E+02  0.65958026117E+02  0.25500000000E-02 0.  1.
<mgrwt>
<rscale>  0 0.13295302E+03</rscale>
<asrwt>0</asrwt>
<pdfrwt beam="1">  1        1 0.10361894E-01 0.13295302E+03</pdfrwt>
<pdfrwt beam="2">  1       -1 0.10094169E-01 0.13295302E+03</pdfrwt>
<totfact> 0.33529858E+04</totfact>
</mgrwt>
</event>
<event>
 4    1  0.2051373E-002  0.1357279E+03  0.7818608E-02  0.1219196E+00
          1   -1    0    0    0  501  0.00000000000E+00  0.00000000000E+00  0.69569663908E+03  0.69569663910E+03  0.50400000000E-02 0.  1.
         -1   -1    0    0  501    0 -0.00000000000E+00 -0.00000000000E+00 -0.66200039891E+01  0.66200059077E+01  0.50400000000E-02 0.  1.
          2    1    1    2    0  502  0.12748430005E+02 -0.24996434323E+02  0.66427432159E+03  0.66486669229E+03  0.25500000000E-02 0.  1.
         -2    1    1    2  502    0 -0.12748430005E+02  0.24996434323E+02  0.24802313504E+02  0.37449952711E+02  0.25500000000E-02 0.  1.
<mgrwt>
<rscale>  0 0.13572789E+03</rscale>
<asrwt>0</asrwt>
<pdfrwt beam="1">  1        1 0.10703016E+00 0.13572789E+03</pdfrwt>
<pdfrwt beam="2">  1       -1 0.10184632E-02 0.13572789E+03</pdfrwt>
<totfact> 0.48649735E+04</totfact>
</mgrwt>
</event>
<event>
 4    1  0.2051373E-002  0.2511114E+03  0.7818608E-02  0.1112604E+00
          1   -1    0    0    0  501  0.00000000000E+00  0.00000000000E+00  0.30643664682E+02  0.30643665096E+02  0.50400000000E-02 0. -1.
         -1   -1    0    0  501    0 -0.00000000000E+00 -0.00000000000E+00 -0.51443687024E+03  0.51443687027E+03  0.50400000000E-02 0. -1.
          2    1    1    2    0  502 -0.21366581021E+02  0.86453501536E+02 -0.43401634444E+03  0.44305860330E+03  0.25500000000E-02 0. -1.
         -2    1    1    2  502    0  0.21366581021E+02 -0.86453501536E+02 -0.49776861125E+02  0.10202193207E+03  0.25500000000E-02 0. -1.
<mgrwt>
<rscale>  0 0.25111138E+03</rscale>
<asrwt>0</asrwt>
<pdfrwt beam="1">  1        1 0.47144104E-02 0.25111138E+03</pdfrwt>
<pdfrwt beam="2">  1       -1 0.79144127E-01 0.25111138E+03</pdfrwt>
<totfact> 0.29964314E+03</totfact>
</mgrwt>
</event>
<event>
 4    1  0.2051373E-002  0.6987710E+02  0.7818608E-02  0.1360511E+00
         -1   -1    0    0  501    0 -0.00000000000E+00  0.00000000000E+00  0.13930096044E+02  0.13930096956E+02  0.50400000000E-02 0. -1.
          1   -1    0    0    0  501  0.00000000000E+00 -0.00000000000E+00 -0.87630560889E+02  0.87630561034E+02  0.50400000000E-02 0. -1.
          2    1    1    2    0  502  0.16846328378E+02  0.28188960477E+02 -0.54187138188E+02  0.63361362233E+02  0.25500000000E-02 0.  1.
         -2    1    1    2  502    0 -0.16846328378E+02 -0.28188960477E+02 -0.19513326657E+02  0.38199295757E+02  0.25500000000E-02 0.  1.
<mgrwt>
<rscale>  0 0.69877097E+02</rscale>
<asrwt>0</asrwt>
<pdfrwt beam="2">  1        1 0.13481625E-01 0.69877097E+02</pdfrwt>
<pdfrwt beam="1">  1       -1 0.21430918E-02 0.69877097E+02</pdfrwt>
<totfact> 0.20896406E+05</totfact>
</mgrwt>
</event>
<event>
 4    1  0.2051373E-002  0.5137867E+02  0.7818608E-02  0.1438044E+00
          1   -1    0    0    0  501  0.00000000000E+00  0.00000000000E+00  0.30026578456E+00  0.30030808011E+00  0.50400000000E-02 0.  1.
         -1   -1    0    0  501    0 -0.00000000000E+00 -0.00000000000E+00 -0.21977046360E+04  0.21977046360E+04  0.50400000000E-02 0.  1.
          2    1    1    2    0  502 -0.15796968548E+02  0.20241937169E+02 -0.11335033696E+04  0.11337941476E+04  0.25500000000E-02 0.  1.
         -2    1    1    2  502    0  0.15796968548E+02 -0.20241937169E+02 -0.10639010006E+04  0.10642107964E+04  0.25500000000E-02 0.  1.
<mgrwt>
<rscale>  0 0.51378672E+02</rscale>
<asrwt>0</asrwt>
<pdfrwt beam="1">  1        1 0.46199750E-04 0.51378672E+02</pdfrwt>
<pdfrwt beam="2">  1       -1 0.33809553E+00 0.51378672E+02</pdfrwt>
<totfact> 0.22837401E+04</totfact>
</mgrwt>
</event>
<event>
 4    1  0.2051373E-002  0.6165909E+02  0.7818608E-02  0.1390998E+00
         -1   -1    0    0  501    0 -0.00000000000E+00  0.00000000000E+00  0.11905905817E+03  0.11905905828E+03  0.50400000000E-02 0. -1.
          1   -1    0    0    0  501  0.00000000000E+00 -0.00000000000E+00 -0.79831037500E+01  0.79831053410E+01  0.50400000000E-02 0. -1.
          2    1    1    2    0  502 -0.13286003223E+02  0.23131018205E+02  0.87384201287E+02  0.91364985229E+02  0.25500000000E-02 0. -1.
         -2    1    1    2  502    0  0.13286003223E+02 -0.23131018205E+02  0.23691753136E+02  0.35677178392E+02  0.25500000000E-02 0. -1.
<mgrwt>
<rscale>  0 0.61659092E+02</rscale>
<asrwt>0</asrwt>
<pdfrwt beam="2">  1        1 0.12281700E-02 0.61659092E+02</pdfrwt>
<pdfrwt beam="1">  1       -1 0.18316777E-01 0.61659092E+02</pdfrwt>
<totfact> 0.21378362E+05</totfact>
</mgrwt>
</event>
<event>
 4    1  0.2051373E-002  0.6362311E+02  0.7818608E-02  0.1383227E+00
          1   -1    0    0    0  501  0.00000000000E+00  0.00000000000E+00  0.40012154626E+03  0.40012154629E+03  0.50400000000E-02 0.  1.
         -1   -1    0    0  501    0 -0.00000000000E+00 -0.00000000000E+00 -0.25291663288E+01  0.25291713505E+01  0.50400000000E-02 0.  1.
          2    1    1    2    0  502  0.25340644248E+02 -0.65164204120E+01  0.31330222397E+03  0.31439289995E+03  0.25500000000E-02 0.  1.
         -2    1    1    2  502    0 -0.25340644248E+02  0.65164204120E+01  0.84290155957E+02  0.88257817691E+02  0.25500000000E-02 0.  1.
<mgrwt>
<rscale>  0 0.63623108E+02</rscale>
<asrwt>0</asrwt>
<pdfrwt beam="1">  1        1 0.61557175E-01 0.63623108E+02</pdfrwt>
<pdfrwt beam="2">  1       -1 0.38910281E-03 0.63623108E+02</pdfrwt>
<totfact> 0.34459566E+05</totfact>
</mgrwt>
</event>
<event>
 4    1  0.2051373E-002  0.5210248E+02  0.7818608E-02  0.1434320E+00
         -1   -1    0    0  501    0 -0.00000000000E+00  0.00000000000E+00  0.14391450210E+01  0.14391538462E+01  0.50400000000E-02 0. -1.
          1   -1    0    0    0  501  0.00000000000E+00 -0.00000000000E+00 -0.47157513898E+03  0.47157513900E+03  0.50400000000E-02 0. -1.
          2    1    1    2    0  502 -0.18396157382E+02 -0.17529835386E+02 -0.18295263553E+03  0.18470890772E+03  0.25500000000E-02 0. -1.
         -2    1    1    2  502    0  0.18396157382E+02  0.17529835386E+02 -0.28718335842E+03  0.28830538513E+03  0.25500000000E-02 0. -1.
<mgrwt>
<rscale>  0 0.52102480E+02</rscale>
<asrwt>0</asrwt>
<pdfrwt beam="2">  1        1 0.72549898E-01 0.52102480E+02</pdfrwt>
<pdfrwt beam="1">  1       -1 0.22140798E-03 0.52102480E+02</pdfrwt>
<totfact> 0.58414776E+05</totfact>
</mgrwt>
</event>
<event>
 4    1  0.2051373E-002  0.7818462E+02  0.7818608E-02  0.1334284E+00
          1   -1    0    0    0  501  0.00000000000E+00  0.00000000000E+00  0.10103592856E+03  0.10103592869E+03  0.50400000000E-02 0.  1.
         -1   -1    0    0  501    0 -0.00000000000E+00 -0.00000000000E+00 -0.15125397438E+02  0.15125398278E+02  0.50400000000E-02 0.  1.
          2    1    1    2    0  502  0.23589612754E+02 -0.29470501778E+02  0.58050493444E+02  0.69244783923E+02  0.25500000000E-02 0.  1.
         -2    1    1    2  502    0 -0.23589612754E+02  0.29470501778E+02  0.27860037677E+02  0.46916543040E+02  0.25500000000E-02 0.  1.
<mgrwt>
<rscale>  0 0.78184618E+02</rscale>
<asrwt>0</asrwt>
<pdfrwt beam="1">  1        1 0.15543989E-01 0.78184618E+02</pdfrwt>
<pdfrwt beam="2">  1       -1 0.23269843E-02 0.78184618E+02</pdfrwt>
<totfact> 0.15839005E+05</totfact>
</mgrwt>
</event>
<event>
 4    1  0.2051373E-002  0.6560153E+02  0.7818608E-02  0.1375723E+00
          1   -1    0    0    0  501  0.00000000000E+00  0.00000000000E+00  0.87732491838E+02  0.87732491982E+02  0.50400000000E-02 0. -1.
         -1   -1    0    0  501    0 -0.00000000000E+00 -0.00000000000E+00 -0.12263301818E+02  0.12263302853E+02  0.50400000000E-02 0. -1.
          2    1    1    2    0  502 -0.18237017027E+00 -0.32163126397E+02  0.27928047553E+02  0.42596664249E+02  0.25500000000E-02 0.  1.
         -2    1    1    2  502    0  0.18237017027E+00  0.32163126397E+02  0.47541142467E+02  0.57399130586E+02  0.25500000000E-02 0.  1.
<mgrwt>
<rscale>  0 0.65601527E+02</rscale>
<asrwt>0</asrwt>
<pdfrwt beam="1">  1        1 0.13497307E-01 0.65601527E+02</pdfrwt>
<pdfrwt beam="2">  1       -1 0.18866619E-02 0.65601527E+02</pdfrwt>
<totfact> 0.24675476E+05</totfact>
</mgrwt>
</event>
<event>
 4    1  0.2051373E-002  0.9581074E+02  0.7818608E-02  0.1289360E+00
          1   -1    0    0    0  501  0.00000000000E+00  0.00000000000E+00  0.34152846265E+01  0.34152883453E+01  0.50400000000E-02 0.  1.
         -1   -1    0    0  501    0 -0.00000000000E+00 -0.00000000000E+00 -0.67195668381E+03  0.67195668383E+03  0.50400000000E-02 0.  1.
          2    1    1    2    0  502  0.11222642111E+02 -0.26526041109E+02 -0.60410609950E+03  0.60479232635E+03  0.25500000000E-02 0.  1.
         -2    1    1    2  502    0 -0.11222642111E+02  0.26526041109E+02 -0.64435299691E+02  0.70579645831E+02  0.25500000000E-02 0.  1.
<mgrwt>
<rscale>  0 0.95810742E+02</rscale>
<asrwt>0</asrwt>
<pdfrwt beam="1">  1        1 0.52542923E-03 0.95810742E+02</pdfrwt>
<pdfrwt beam="2">  1       -1 0.10337785E+00 0.95810742E+02</pdfrwt>
<totfact> 0.33460560E+04</totfact>
</mgrwt>
</event>
<event>
 4    1  0.2051373E-002  0.1177062E+03  0.7818608E-02  0.1246930E+00
         -1   -1    0    0  501    0 -0.00000000000E+00  0.00000000000E+00  0.97810315459E+02  0.97810315589E+02  0.50400000000E-02 0. -1.
          1   -1    0    0    0  501  0.00000000000E+00 -0.00000000000E+00 -0.35412320170E+02  0.35412320529E+02  0.50400000000E-02 0. -1.
          2    1    1    2    0  502  0.38383503153E+02 -0.74368795097E+01  0.80987499641E+02  0.89930949043E+02  0.25500000000E-02 0. -1.
         -2    1    1    2  502    0 -0.38383503153E+02  0.74368795097E+01 -0.18589504353E+02  0.43291687074E+02  0.25500000000E-02 0. -1.
<mgrwt>
<rscale>  0 0.11770625E+03</rscale>
<asrwt>0</asrwt>
<pdfrwt beam="2">  1        1 0.54480493E-02 0.11770625E+03</pdfrwt>
<pdfrwt beam="1">  1       -1 0.15047741E-01 0.11770625E+03</pdfrwt>
<totfact> 0.42252488E+04</totfact>
</mgrwt>
</event>
<event>
 4    1  0.2051373E-002  0.4418553E+02  0.7818608E-02  0.1479491E+00
         -1   -1    0    0  501    0 -0.00000000000E+00  0.00000000000E+00  0.53727965725E+03  0.53727965727E+03  0.50400000000E-02 0.  1.
          1   -1    0    0    0  501  0.00000000000E+00 -0.00000000000E+00 -0.90844032410E+00  0.90845430488E+00  0.50400000000E-02 0.  1.
          2    1    1    2    0  502 -0.20177181803E+02 -0.49094791103E+01  0.17633323945E+03  0.17755177553E+03  0.25500000000E-02 0.  1.
         -2    1    1    2  502    0  0.20177181803E+02  0.49094791103E+01  0.36003797747E+03  0.36063633605E+03  0.25500000000E-02 0.  1.
<mgrwt>
<rscale>  0 0.44185530E+02</rscale>
<asrwt>0</asrwt>
<pdfrwt beam="2">  1        1 0.13976095E-03 0.44185530E+02</pdfrwt>
<pdfrwt beam="1">  1       -1 0.82658516E-01 0.44185530E+02</pdfrwt>
<totfact> 0.28243583E+05</totfact>
</mgrwt>
</event>
<event>
 4    1  0.2051373E-002  0.6147739E+02  0.7818608E-02  0.1391734E+00
         -1   -1    0    0  501    0 -0.00000000000E+00  0.00000000000E+00  0.10495652547E+03  0.10495652559E+03  0.50400000000E-02 0.  1.
          1   -1    0    0    0  501  0.00000000000E+00 -0.00000000000E+00 -0.90024632902E+01  0.90024647010E+01  0.50400000000E-02 0.  1.
          2    1    1    2    0  502  0.33937596917E+01 -0.28383939621E+02  0.27029562888E+02  0.39341618036E+02  0.25500000000E-02 0. -1.
         -2    1    1    2  502    0 -0.33937596917E+01  0.28383939621E+02  0.68924499290E+02  0.74617372254E+02  0.25500000000E-02 0. -1.
<mgrwt>
<rscale>  0 0.61477389E+02</rscale>
<asrwt>0</asrwt>
<pdfrwt beam="2">  1        1 0.13849946E-02 0.61477389E+02</pdfrwt>
<pdfrwt beam="1">  1       -1 0.16147156E-01 0.61477389E+02</pdfrwt>
<totfact> 0.22039450E+05</totfact>
</mgrwt>
</event>
<event>
 4    1  0.2051373E-002  0.1072636E+03  0.7818608E-02  0.1265723E+00
         -1   -1    0    0  501    0 -0.00000000000E+00  0.00000000000E+00  0.49845324826E+01  0.49845350306E+01  0.50400000000E-02 0. -1.
          1   -1    0    0    0  501  0.00000000000E+00 -0.00000000000E+00 -0.57705873703E+03  0.57705873705E+03  0.50400000000E-02 0. -1.
          2    1    1    2    0  502  0.12039343928E+01 -0.47975641647E+02 -0.15611659098E+03  0.16332636540E+03  0.25500000000E-02 0. -1.
         -2    1    1    2  502    0 -0.12039343928E+01  0.47975641647E+02 -0.41595761357E+03  0.41871690668E+03  0.25500000000E-02 0. -1.
<mgrwt>
<rscale>  0 0.10726358E+03</rscale>
<asrwt>0</asrwt>
<pdfrwt beam="2">  1        1 0.88778214E-01 0.10726358E+03</pdfrwt>
<pdfrwt beam="1">  1       -1 0.76685181E-03 0.10726358E+03</pdfrwt>
<totfact> 0.91532949E+04</totfact>
</mgrwt>
</event>
<event>
 4    1  0.2051373E-002  0.4734563E+02  0.7818608E-02  0.1460208E+00
         -1   -1    0    0  501    0 -0.00000000000E+00  0.00000000000E+00  0.39902378010E+00  0.39905560852E+00  0.50400000000E-02 0. -1.
          1   -1    0    0    0  501  0.00000000000E+00 -0.00000000000E+00 -0.14043771296E+04  0.14043771296E+04  0.50400000000E-02 0. -1.
          2    1    1    2    0  502 -0.21653596211E+02  0.83456033461E+01 -0.84076055067E+03  0.84108075170E+03  0.25500000000E-02 0. -1.
         -2    1    1    2  502    0  0.21653596211E+02 -0.83456033461E+01 -0.56321755512E+03  0.56369543348E+03  0.25500000000E-02 0. -1.
<mgrwt>
<rscale>  0 0.47345633E+02</rscale>
<asrwt>0</asrwt>
<pdfrwt beam="2">  1        1 0.21605407E+00 0.47345633E+02</pdfrwt>
<pdfrwt beam="1">  1       -1 0.61391847E-04 0.47345633E+02</pdfrwt>
<totfact> 0.62276375E+05</totfact>
</mgrwt>
</event>
<event>
 4    1  0.2051373E-002  0.4346243E+02  0.7818608E-02  0.1484175E+00
         -1   -1    0    0  501    0 -0.00000000000E+00  0.00000000000E+00  0.16864926584E+02  0.16864927337E+02  0.50400000000E-02 0.  1.
          1   -1    0    0    0  501  0.00000000000E+00 -0.00000000000E+00 -0.28001646881E+02  0.28001647334E+02  0.50400000000E-02 0.  1.
          2    1    1    2    0  502  0.17923163063E+02 -0.11240336867E+02 -0.44196114824E+00  0.21160819531E+02  0.25500000000E-02 0. -1.
         -2    1    1    2  502    0 -0.17923163063E+02  0.11240336867E+02 -0.10694759148E+02  0.23705755141E+02  0.25500000000E-02 0. -1.
<mgrwt>
<rscale>  0 0.43462432E+02</rscale>
<asrwt>0</asrwt>
<pdfrwt beam="2">  1        1 0.43079458E-02 0.43462432E+02</pdfrwt>
<pdfrwt beam="1">  1       -1 0.25946042E-02 0.43462432E+02</pdfrwt>
<totfact> 0.63288062E+05</totfact>
</mgrwt>
</event>
<event>
 4    1  0.2051373E-002  0.8475177E+02  0.7818608E-02  0.1316083E+00
         -1   -1    0    0  501    0 -0.00000000000E+00  0.00000000000E+00  0.19390087875E+03  0.19390087882E+03  0.50400000000E-02 0.  1.
          1   -1    0    0    0  501  0.00000000000E+00 -0.00000000000E+00 -0.92609982207E+01  0.92609995921E+01  0.50400000000E-02 0.  1.
          2    1    1    2    0  502 -0.28446129080E+02 -0.86573546545E+01  0.19944417673E+02  0.35803796615E+02  0.25500000000E-02 0.  1.
         -2    1    1    2  502    0  0.28446129080E+02  0.86573546545E+01  0.16469546286E+03  0.16735808179E+03  0.25500000000E-02 0.  1.
<mgrwt>
<rscale>  0 0.84751775E+02</rscale>
<asrwt>0</asrwt>
<pdfrwt beam="2">  1        1 0.14247692E-02 0.84751775E+02</pdfrwt>
<pdfrwt beam="1">  1       -1 0.29830902E-01 0.84751775E+02</pdfrwt>
<totfact> 0.84672591E+04</totfact>
</mgrwt>
</event>
<event>
 4    1  0.2051373E-002  0.5894321E+02  0.7818608E-02  0.1402321E+00
         -1   -1    0    0  501    0 -0.00000000000E+00  0.00000000000E+00  0.39381484663E+03  0.39381484666E+03  0.50400000000E-02 0. -1.
          1   -1    0    0    0  501  0.00000000000E+00 -0.00000000000E+00 -0.22055397976E+01  0.22055455562E+01  0.50400000000E-02 0. -1.
          2    1    1    2    0  502 -0.15861596848E+02 -0.24544192337E+02  0.22144837990E+03  0.22336828915E+03  0.25500000000E-02 0.  1.
         -2    1    1    2  502    0  0.15861596848E+02  0.24544192337E+02  0.17016092693E+03  0.17265210307E+03  0.25500000000E-02 0.  1.
<mgrwt>
<rscale>  0 0.58943209E+02</rscale>
<asrwt>0</asrwt>
<pdfrwt beam="2">  1        1 0.33931487E-03 0.58943209E+02</pdfrwt>
<pdfrwt beam="1">  1       -1 0.60586792E-01 0.58943209E+02</pdfrwt>
<totfact> 0.16497116E+05</totfact>
</mgrwt>
</event>
<event>
 4    1  0.2051373E-002  0.4816325E+02  0.7818608E-02  0.1455508E+00
          1   -1    0    0    0  501  0.00000000000E+00  0.00000000000E+00  0.63626394808E+03  0.63626394810E+03  0.50400000000E-02 0.  1.
         -1   -1    0    0  501    0 -0.00000000000E+00 -0.00000000000E+00 -0.91144597043E+00  0.91145990510E+00  0.50400000000E-02 0.  1.
          2    1    1    2    0  502 -0.23919919695E+02 -0.25001206154E+01  0.33394094153E+03  0.33480586255E+03  0.25500000000E-02 0.  1.
         -2    1    1    2  502    0  0.23919919695E+02  0.25001206154E+01  0.30141156058E+03  0.30236954546E+03  0.25500000000E-02 0.  1.
<mgrwt>
<rscale>  0 0.48163250E+02</rscale>
<asrwt>0</asrwt>
<pdfrwt beam="1">  1        1 0.97887104E-01 0.48163250E+02</pdfrwt>
<pdfrwt beam="2">  1       -1 0.14022304E-03 0.48163250E+02</pdfrwt>
<totfact> 0.72737183E+05</totfact>
</mgrwt>
</event>
<event>
 4    1  0.2051373E-002  0.4513855E+02  0.7818608E-02  0.1473479E+00
         -1   -1    0    0  501    0 -0.00000000000E+00  0.00000000000E+00  0.92740304141E+02  0.92740304278E+02  0.50400000000E-02 0. -1.
          1   -1    0    0    0  501  0.00000000000E+00 -0.00000000000E+00 -0.54924562305E+01  0.54924585429E+01  0.50400000000E-02 0. -1.
          2    1    1    2    0  502  0.11269060940E+02  0.16850717401E+02  0.22032524254E+02  0.29939447939E+02  0.25500000000E-02 0. -1.
         -2    1    1    2  502    0 -0.11269060940E+02 -0.16850717401E+02  0.65215323656E+02  0.68293314881E+02  0.25500000000E-02 0. -1.
<mgrwt>
<rscale>  0 0.45138550E+02</rscale>
<asrwt>0</asrwt>
<pdfrwt beam="2">  1        1 0.84499349E-03 0.45138550E+02</pdfrwt>
<pdfrwt beam="1">  1       -1 0.14267739E-01 0.45138550E+02</pdfrwt>
<totfact> 0.48455987E+05</totfact>
</mgrwt>
</event>
<event>
 4    1  0.2051373E-002  0.8443655E+02  0.7818608E-02  0.1316913E+00
          1   -1    0    0    0  501  0.00000000000E+00  0.00000000000E+00  0.39326476006E+02  0.39326476329E+02  0.50400000000E-02 0. -1.
         -1   -1    0    0  501    0 -0.00000000000E+00 -0.00000000000E+00 -0.45322711170E+02  0.45322711450E+02  0.50400000000E-02 0. -1.
          2    1    1    2    0  502  0.14092034516E+02 -0.29509021963E+02 -0.29767699446E+02  0.44220851991E+02  0.25500000000E-02 0. -1.
         -2    1    1    2  502    0 -0.14092034516E+02  0.29509021963E+02  0.23771464282E+02  0.40428335788E+02  0.25500000000E-02 0. -1.
<mgrwt>
<rscale>  0 0.84436545E+02</rscale>
<asrwt>0</asrwt>
<pdfrwt beam="1">  1        1 0.60502271E-02 0.84436545E+02</pdfrwt>
<pdfrwt beam="2">  1       -1 0.69727248E-02 0.84436545E+02</pdfrwt>
<totfact> 0.11218188E+05</totfact>
</mgrwt>
</event>
<event>
 4    1  0.2051373E-002  0.1006071E+03  0.7818608E-02  0.1279024E+00
         -1   -1    0    0  501    0 -0.00000000000E+00  0.00000000000E+00  0.11489470017E+02  0.11489471122E+02  0.50400000000E-02 0. -1.
          1   -1    0    0    0  501  0.00000000000E+00 -0.00000000000E+00 -0.22024051075E+03  0.22024051080E+03  0.50400000000E-02 0. -1.
          2    1    1    2    0  502 -0.43501217412E+01 -0.29776802211E+02 -0.11529710173E+02  0.32226010182E+02  0.25500000000E-02 0. -1.
         -2    1    1    2  502    0  0.43501217412E+01  0.29776802211E+02 -0.19722133056E+03  0.19950397174E+03  0.25500000000E-02 0. -1.
<mgrwt>
<rscale>  0 0.10060709E+03</rscale>
<asrwt>0</asrwt>
<pdfrwt beam="2">  1        1 0.33883152E-01 0.10060709E+03</pdfrwt>
<pdfrwt beam="1">  1       -1 0.17676110E-02 0.10060709E+03</pdfrwt>
<totfact> 0.92557594E+04</totfact>
</mgrwt>
</event>
<event>
 4    1  0.2051373E-002  0.7084487E+02  0.7818608E-02  0.1357243E+00
          1   -1    0    0    0  501  0.00000000000E+00  0.00000000000E+00  0.23590828115E+02  0.23590828654E+02  0.50400000000E-02 0.  1.
         -1   -1    0    0  501    0 -0.00000000000E+00 -0.00000000000E+00 -0.53188003067E+02  0.53188003306E+02  0.50400000000E-02 0.  1.
          2    1    1    2    0  502  0.98736004409E+01  0.33721904305E+02 -0.19656715107E+02  0.40262156809E+02  0.25500000000E-02 0.  1.
         -2    1    1    2  502    0 -0.98736004409E+01 -0.33721904305E+02 -0.99404598447E+01  0.36516675151E+02  0.25500000000E-02 0.  1.
<mgrwt>
<rscale>  0 0.70844875E+02</rscale>
<asrwt>0</asrwt>
<pdfrwt beam="1">  1        1 0.36293582E-02 0.70844875E+02</pdfrwt>
<pdfrwt beam="2">  1       -1 0.81827697E-02 0.70844875E+02</pdfrwt>
<totfact> 0.17054853E+05</totfact>
</mgrwt>
</event>
<event>
 4    1  0.2051373E-002  0.6079371E+02  0.7818608E-02  0.1394531E+00
          1   -1    0    0    0  501  0.00000000000E+00  0.00000000000E+00  0.24015761151E+02  0.24015761679E+02  0.50400000000E-02 0.  1.
         -1   -1    0    0  501    0 -0.00000000000E+00 -0.00000000000E+00 -0.38473436833E+02  0.38473437164E+02  0.50400000000E-02 0.  1.
          2    1    1    2    0  502  0.92937837255E+01  0.28056417882E+02  0.70759525722E-01  0.29555744174E+02  0.25500000000E-02 0.  1.
         -2    1    1    2  502    0 -0.92937837255E+01 -0.28056417882E+02 -0.14528435209E+02  0.32933454669E+02  0.25500000000E-02 0.  1.
<mgrwt>
<rscale>  0 0.60793713E+02</rscale>
<asrwt>0</asrwt>
<pdfrwt beam="1">  1        1 0.36947325E-02 0.60793713E+02</pdfrwt>
<pdfrwt beam="2">  1       -1 0.59189904E-02 0.60793713E+02</pdfrwt>
<totfact> 0.25965086E+05</totfact>
</mgrwt>
</event>
<event>
 4    1  0.2051373E-002  0.5356815E+02  0.7818608E-02  0.1426994E+00
          1   -1    0    0    0  501  0.00000000000E+00  0.00000000000E+00  0.29876650296E+03  0.29876650301E+03  0.50400000000E-02 0. -1.
         -1   -1    0    0  501    0 -0.00000000000E+00 -0.00000000000E+00 -0.24011586930E+01  0.24011639824E+01  0.50400000000E-02 0. -1.
          2    1    1    2    0  502  0.15390817403E+02 -0.18707543393E+02  0.83948109365E+02  0.87373534394E+02  0.25500000000E-02 0.  1.
         -2    1    1    2  502    0 -0.15390817403E+02  0.18707543393E+02  0.21241723491E+03  0.21379413259E+03  0.25500000000E-02 0.  1.
<mgrwt>
<rscale>  0 0.53568147E+02</rscale>
<asrwt>0</asrwt>
<pdfrwt beam="1">  1        1 0.45964060E-01 0.53568147E+02</pdfrwt>
<pdfrwt beam="2">  1       -1 0.36940958E-03 0.53568147E+02</pdfrwt>
<totfact> 0.50754214E+05</totfact>
</mgrwt>
</event>
<event>
 4    1  0.2051373E-002  0.5925550E+02  0.7818608E-02  0.1400983E+00
          1   -1    0    0    0  501  0.00000000000E+00  0.00000000000E+00  0.14816248532E+04  0.14816248532E+04  0.50400000000E-02 0. -1.
         -1   -1    0    0  501    0 -0.00000000000E+00 -0.00000000000E+00 -0.59244944651E+00  0.59247088390E+00  0.50400000000E-02 0. -1.
          2    1    1    2    0  502 -0.16178687058E+02 -0.23012862301E+02  0.97310871592E+03  0.97351523602E+03  0.25500000000E-02 0.  1.
         -2    1    1    2  502    0  0.16178687058E+02  0.23012862301E+02  0.50792368786E+03  0.50870208811E+03  0.25500000000E-02 0.  1.
<mgrwt>
<rscale>  0 0.59255505E+02</rscale>
<asrwt>0</asrwt>
<pdfrwt beam="1">  1        1 0.22793967E+00 0.59255505E+02</pdfrwt>
<pdfrwt beam="2">  1       -1 0.91148764E-04 0.59255505E+02</pdfrwt>
<totfact> 0.34116527E+05</totfact>
</mgrwt>
</event>
<event>
 4    1  0.2051373E-002  0.5312779E+02  0.7818608E-02  0.1429166E+00
          1   -1    0    0    0  501  0.00000000000E+00  0.00000000000E+00  0.21207934230E+02  0.21207934829E+02  0.50400000000E-02 0. -1.
         -1   -1    0    0  501    0 -0.00000000000E+00 -0.00000000000E+00 -0.33272475825E+02  0.33272476207E+02  0.50400000000E-02 0. -1.
          2    1    1    2    0  502 -0.22484659621E+02  0.13729459198E+02 -0.95222301195E+01  0.28013047694E+02  0.25500000000E-02 0.  1.
         -2    1    1    2  502    0  0.22484659621E+02 -0.13729459198E+02 -0.25423114755E+01  0.26467363342E+02  0.25500000000E-02 0.  1.
<mgrwt>
<rscale>  0 0.53127790E+02</rscale>
<asrwt>0</asrwt>
<pdfrwt beam="1">  1        1 0.32627592E-02 0.53127790E+02</pdfrwt>
<pdfrwt beam="2">  1       -1 0.51188425E-02 0.53127790E+02</pdfrwt>
<totfact> 0.36730540E+05</totfact>
</mgrwt>
</event>
<event>
 4    1  0.2051373E-002  0.4744813E+02  0.7818608E-02  0.1459613E+00
         -1   -1    0    0  501    0 -0.00000000000E+00  0.00000000000E+00  0.85554680760E+03  0.85554680761E+03  0.50400000000E-02 0.  1.
          1   -1    0    0    0  501  0.00000000000E+00 -0.00000000000E+00 -0.65785190384E+00  0.65787121003E+00  0.50400000000E-02 0.  1.
          2    1    1    2    0  502  0.21894293018E+02 -0.84876487690E+00  0.26329299975E+03  0.26420311162E+03  0.25500000000E-02 0. -1.
         -2    1    1    2  502    0 -0.21894293018E+02  0.84876487690E+00  0.59159595595E+03  0.59200156720E+03  0.25500000000E-02 0. -1.
<mgrwt>
<rscale>  0 0.47448135E+02</rscale>
<asrwt>0</asrwt>
<pdfrwt beam="2">  1        1 0.10120935E-03 0.47448135E+02</pdfrwt>
<pdfrwt beam="1">  1       -1 0.13162274E+00 0.47448135E+02</pdfrwt>
<totfact> 0.16135603E+05</totfact>
</mgrwt>
</event>
<event>
 4    1  0.2051373E-002  0.5189354E+02  0.7818608E-02  0.1435388E+00
         -1   -1    0    0  501    0 -0.00000000000E+00  0.00000000000E+00  0.33149929930E+02  0.33149930314E+02  0.50400000000E-02 0.  1.
          1   -1    0    0    0  501  0.00000000000E+00 -0.00000000000E+00 -0.20308788633E+02  0.20308789258E+02  0.50400000000E-02 0.  1.
          2    1    1    2    0  502 -0.23729752209E+02 -0.26524100992E+00 -0.43869677619E+01  0.24133316916E+02  0.25500000000E-02 0. -1.
         -2    1    1    2  502    0  0.23729752209E+02  0.26524100992E+00  0.17228109059E+02  0.29325402656E+02  0.25500000000E-02 0. -1.
<mgrwt>
<rscale>  0 0.51893543E+02</rscale>
<asrwt>0</asrwt>
<pdfrwt beam="2">  1        1 0.31244291E-02 0.51893543E+02</pdfrwt>
<pdfrwt beam="1">  1       -1 0.50999893E-02 0.51893543E+02</pdfrwt>
<totfact> 0.38921479E+05</totfact>
</mgrwt>
</event>
<event>
 4    1  0.2051373E-002  0.5186475E+02  0.7818608E-02  0.1435535E+00
         -1   -1    0    0  501    0 -0.00000000000E+00  0.00000000000E+00  0.23928481427E+01  0.23928534505E+01  0.50400000000E-02 0.  1.
          1   -1    0    0    0  501  0.00000000000E+00 -0.00000000000E+00 -0.28104053022E+03  0.28104053026E+03  0.50400000000E-02 0.  1.
          2    1    1    2    0  502 -0.22164139233E+02 -0.27441031482E+01 -0.67297767508E+02  0.70906760525E+02  0.25500000000E-02 0. -1.
         -2    1    1    2  502    0  0.22164139233E+02  0.27441031482E+01 -0.21134991457E+03  0.21252662319E+03  0.25500000000E-02 0. -1.
<mgrwt>
<rscale>  0 0.51864750E+02</rscale>
<asrwt>0</asrwt>
<pdfrwt beam="2">  1        1 0.43236979E-01 0.51864750E+02</pdfrwt>
<pdfrwt beam="1">  1       -1 0.36813112E-03 0.51864750E+02</pdfrwt>
<totfact> 0.54452454E+05</totfact>
</mgrwt>
</event>
<event>
 4    1  0.2051373E-002  0.5616686E+02  0.7818608E-02  0.1414660E+00
          1   -1    0    0    0  501  0.00000000000E+00  0.00000000000E+00  0.11475611369E+03  0.11475611380E+03  0.50400000000E-02 0.  1.
         -1   -1    0    0  501    0 -0.00000000000E+00 -0.00000000000E+00 -0.68726537402E+01  0.68726555882E+01  0.50400000000E-02 0.  1.
          2    1    1    2    0  502  0.87498385169E+00 -0.20751883266E+02  0.94873089353E+02  0.97120076944E+02  0.25500000000E-02 0.  1.
         -2    1    1    2  502    0 -0.87498385169E+00  0.20751883266E+02  0.13010370599E+02  0.24508692447E+02  0.25500000000E-02 0.  1.
<mgrwt>
<rscale>  0 0.56166864E+02</rscale>
<asrwt>0</asrwt>
<pdfrwt beam="1">  1        1 0.17654787E-01 0.56166864E+02</pdfrwt>
<pdfrwt beam="2">  1       -1 0.10573315E-02 0.56166864E+02</pdfrwt>
<totfact> 0.38305022E+05</totfact>
</mgrwt>
</event>
<event>
 4    1  0.2051373E-002  0.4618244E+02  0.7818608E-02  0.1467092E+00
         -1   -1    0    0  501    0 -0.00000000000E+00  0.00000000000E+00  0.89293496036E+00  0.89294918390E+00  0.50400000000E-02 0. -1.
          1   -1    0    0    0  501  0.00000000000E+00 -0.00000000000E+00 -0.59713222031E+03  0.59713222033E+03  0.50400000000E-02 0. -1.
          2    1    1    2    0  502 -0.41459658235E+01  0.22015525323E+02 -0.22563644883E+03  0.22674584767E+03  0.25500000000E-02 0.  1.
         -2    1    1    2  502    0  0.41459658235E+01 -0.22015525323E+02 -0.37060283652E+03  0.37127932185E+03  0.25500000000E-02 0.  1.
<mgrwt>
<rscale>  0 0.46182442E+02</rscale>
<asrwt>0</asrwt>
<pdfrwt beam="2">  1        1 0.91866177E-01 0.46182442E+02</pdfrwt>
<pdfrwt beam="1">  1       -1 0.13737618E-03 0.46182442E+02</pdfrwt>
<totfact> 0.80451727E+05</totfact>
</mgrwt>
</event>
<event>
 4    1  0.2051373E-002  0.4254474E+02  0.7818608E-02  0.1490278E+00
          1   -1    0    0    0  501  0.00000000000E+00  0.00000000000E+00  0.33466714893E+02  0.33466715272E+02  0.50400000000E-02 0.  1.
         -1   -1    0    0  501    0 -0.00000000000E+00 -0.00000000000E+00 -0.13521306032E+02  0.13521306971E+02  0.50400000000E-02 0.  1.
          2    1    1    2    0  502  0.19737698679E+02 -0.79044241217E+01  0.92260451204E+01  0.23177070240E+02  0.25500000000E-02 0. -1.
         -2    1    1    2  502    0 -0.19737698679E+02  0.79044241217E+01  0.10719363741E+02  0.23810952004E+02  0.25500000000E-02 0. -1.
<mgrwt>
<rscale>  0 0.42544740E+02</rscale>
<asrwt>0</asrwt>
<pdfrwt beam="1">  1        1 0.51487255E-02 0.42544740E+02</pdfrwt>
<pdfrwt beam="2">  1       -1 0.20802010E-02 0.42544740E+02</pdfrwt>
<totfact> 0.67747810E+05</totfact>
</mgrwt>
</event>
<event>
 4    1  0.2051373E-002  0.6361585E+02  0.7818608E-02  0.1383255E+00
         -1   -1    0    0  501    0 -0.00000000000E+00  0.00000000000E+00  0.50836224392E+00  0.50838722707E+00  0.50400000000E-02 0.  1.
          1   -1    0    0    0  501  0.00000000000E+00 -0.00000000000E+00 -0.19901544191E+04  0.19901544191E+04  0.50400000000E-02 0.  1.
          2    1    1    2    0  502  0.25288769336E+01  0.29817827109E+02 -0.65744117480E+03  0.65812187044E+03  0.25500000000E-02 0. -1.
         -2    1    1    2  502    0 -0.25288769336E+01 -0.29817827109E+02 -0.13322048820E+04  0.13325409359E+04  0.25500000000E-02 0. -1.
<mgrwt>
<rscale>  0 0.63615855E+02</rscale>
<asrwt>0</asrwt>
<pdfrwt beam="2">  1        1 0.30617137E+00 0.63615855E+02</pdfrwt>
<pdfrwt beam="1">  1       -1 0.78213092E-04 0.63615855E+02</pdfrwt>
<totfact> 0.20567753E+05</totfact>
</mgrwt>
</event>
<event>
 4    1  0.2051373E-002  0.6858701E+02  0.7818608E-02  0.1364965E+00
          1   -1    0    0    0  501  0.00000000000E+00  0.00000000000E+00  0.40796481928E+03  0.40796481931E+03  0.50400000000E-02 0.  1.
         -1   -1    0    0  501    0 -0.00000000000E+00 -0.00000000000E+00 -0.28827079841E+01  0.28827123899E+01  0.50400000000E-02 0.  1.
          2    1    1    2    0  502  0.34246508729E+02 -0.17098722549E+01  0.20580733581E+03  0.20864421033E+03  0.25500000000E-02 0.  1.
         -2    1    1    2  502    0 -0.34246508729E+02  0.17098722549E+01  0.19927477549E+03  0.20220332138E+03  0.25500000000E-02 0.  1.
<mgrwt>
<rscale>  0 0.68587006E+02</rscale>
<asrwt>0</asrwt>
<pdfrwt beam="1">  1        1 0.62763771E-01 0.68587006E+02</pdfrwt>
<pdfrwt beam="2">  1       -1 0.44349421E-03 0.68587006E+02</pdfrwt>
<totfact> 0.28499534E+05</totfact>
</mgrwt>
</event>
<event>
 4    1  0.2051373E-002  0.6484088E+02  0.7818608E-02  0.1378571E+00
         -1   -1    0    0  501    0 -0.00000000000E+00  0.00000000000E+00  0.10756680078E+02  0.10756681259E+02  0.50400000000E-02 0.  1.
          1   -1    0    0    0  501  0.00000000000E+00 -0.00000000000E+00 -0.97714608005E+02  0.97714608135E+02  0.50400000000E-02 0.  1.
          2    1    1    2    0  502 -0.22294135942E+02  0.67541635579E+00 -0.82839773455E+02  0.85789933892E+02  0.25500000000E-02 0.  1.
         -2    1    1    2  502    0  0.22294135942E+02 -0.67541635579E+00 -0.41181544725E+01  0.22681355502E+02  0.25500000000E-02 0.  1.
<mgrwt>
<rscale>  0 0.64840877E+02</rscale>
<asrwt>0</asrwt>
<pdfrwt beam="2">  1        1 0.15033016E-01 0.64840877E+02</pdfrwt>
<pdfrwt beam="1">  1       -1 0.16548740E-02 0.64840877E+02</pdfrwt>
<totfact> 0.25828902E+05</totfact>
</mgrwt>
</event>
<event>
 4    1  0.2051373E-002  0.1072329E+03  0.7818608E-02  0.1265782E+00
         -1   -1    0    0  501    0 -0.00000000000E+00  0.00000000000E+00  0.15018166243E+01  0.15018250812E+01  0.50400000000E-02 0. -1.
          1   -1    0    0    0  501  0.00000000000E+00 -0.00000000000E+00 -0.19141603332E+04  0.19141603332E+04  0.50400000000E-02 0. -1.
          2    1    1    2    0  502 -0.46527599565E+02 -0.18805083270E+02 -0.61913145451E+03  0.62116198101E+03  0.25500000000E-02 0.  1.
         -2    1    1    2  502    0  0.46527599565E+02  0.18805083270E+02 -0.12935270621E+04  0.12945001773E+04  0.25500000000E-02 0.  1.
<mgrwt>
<rscale>  0 0.10723294E+03</rscale>
<asrwt>0</asrwt>
<pdfrwt beam="2">  1        1 0.29448425E+00 0.10723294E+03</pdfrwt>
<pdfrwt beam="1">  1       -1 0.23105089E-03 0.10723294E+03</pdfrwt>
<totfact> 0.55043388E+04</totfact>
</mgrwt>
</event>
<event>
 4    1  0.2051373E-002  0.7042741E+03  0.7818608E-02  0.9709951E-01
         -1   -1    0    0  501    0 -0.00000000000E+00  0.00000000000E+00  0.25630778614E+03  0.25630778619E+03  0.50400000000E-02 0.  1.
          1   -1    0    0    0  501  0.00000000000E+00 -0.00000000000E+00 -0.48379532713E+03  0.48379532716E+03  0.50400000000E-02 0.  1.
          2    1    1    2    0  502 -0.97798502484E+02  0.20400286810E+03  0.16983403415E+03  0.28288746251E+03  0.25500000000E-02 0. -1.
         -2    1    1    2  502    0  0.97798502484E+02 -0.20400286810E+03 -0.39732157515E+03  0.45721565084E+03  0.25500000000E-02 0. -1.
<mgrwt>
<rscale>  0 0.70427412E+03</rscale>
<asrwt>0</asrwt>
<pdfrwt beam="2">  1        1 0.74430050E-01 0.70427412E+03</pdfrwt>
<pdfrwt beam="1">  1       -1 0.39431967E-01 0.70427412E+03</pdfrwt>
<totfact> 0.29365047E+02</totfact>
</mgrwt>
</event>
<event>
 4    1  0.2051373E-002  0.5322603E+02  0.7818608E-02  0.1428679E+00
         -1   -1    0    0  501    0 -0.00000000000E+00  0.00000000000E+00  0.22379535439E+01  0.22379592191E+01  0.50400000000E-02 0.  1.
          1   -1    0    0    0  501  0.00000000000E+00 -0.00000000000E+00 -0.31647287239E+03  0.31647287243E+03  0.50400000000E-02 0.  1.
          2    1    1    2    0  502 -0.23061405719E+02  0.26500982861E+01 -0.79182771331E+02  0.82515227302E+02  0.25500000000E-02 0.  1.
         -2    1    1    2  502    0  0.23061405719E+02 -0.26500982861E+01 -0.23505214752E+03  0.23619560435E+03  0.25500000000E-02 0.  1.
<mgrwt>
<rscale>  0 0.53226027E+02</rscale>
<asrwt>0</asrwt>
<pdfrwt beam="2">  1        1 0.48688099E-01 0.53226027E+02</pdfrwt>
<pdfrwt beam="1">  1       -1 0.34430124E-03 0.53226027E+02</pdfrwt>
<totfact> 0.52099055E+05</totfact>
</mgrwt>
</event>
<event>
 4    1  0.2051373E-002  0.5397244E+02  0.7818608E-02  0.1425022E+00
          1   -1    0    0    0  501  0.00000000000E+00  0.00000000000E+00  0.13578179376E+01  0.13578272914E+01  0.50400000000E-02 0.  1.
         -1   -1    0    0  501    0 -0.00000000000E+00 -0.00000000000E+00 -0.53634117763E+03  0.53634117765E+03  0.50400000000E-02 0.  1.
          2    1    1    2    0  502 -0.97963312055E+01  0.20914397721E+02 -0.12841754175E+03  0.13047775739E+03  0.25500000000E-02 0. -1.
         -2    1    1    2  502    0  0.97963312055E+01 -0.20914397721E+02 -0.40656581794E+03  0.40722124755E+03  0.25500000000E-02 0. -1.
<mgrwt>
<rscale>  0 0.53972445E+02</rscale>
<asrwt>0</asrwt>
<pdfrwt beam="1">  1        1 0.20889622E-03 0.53972445E+02</pdfrwt>
<pdfrwt beam="2">  1       -1 0.82513859E-01 0.53972445E+02</pdfrwt>
<totfact> 0.17251971E+05</totfact>
</mgrwt>
</event>
<event>
 4    1  0.2051373E-002  0.4692700E+02  0.7818608E-02  0.1462658E+00
         -1   -1    0    0  501    0 -0.00000000000E+00  0.00000000000E+00  0.13032693711E+03  0.13032693721E+03  0.50400000000E-02 0. -1.
          1   -1    0    0    0  501  0.00000000000E+00 -0.00000000000E+00 -0.42242663129E+01  0.42242693196E+01  0.50400000000E-02 0. -1.
          2    1    1    2    0  502 -0.22474993803E+02 -0.33928293109E+01  0.46357356597E+02  0.51629847514E+02  0.25500000000E-02 0.  1.
         -2    1    1    2  502    0  0.22474993803E+02  0.33928293109E+01  0.79745314199E+02  0.82921359011E+02  0.25500000000E-02 0.  1.
<mgrwt>
<rscale>  0 0.46927003E+02</rscale>
<asrwt>0</asrwt>
<pdfrwt beam="2">  1        1 0.64988746E-03 0.46927003E+02</pdfrwt>
<pdfrwt beam="1">  1       -1 0.20050295E-01 0.46927003E+02</pdfrwt>
<totfact> 0.41475035E+05</totfact>
</mgrwt>
</event>
<event>
 4    1  0.2051373E-002  0.7622411E+02  0.7818608E-02  0.1340122E+00
          1   -1    0    0    0  501  0.00000000000E+00  0.00000000000E+00  0.22236224333E+01  0.22236281451E+01  0.50400000000E-02 0. -1.
         -1   -1    0    0  501    0 -0.00000000000E+00 -0.00000000000E+00 -0.65322550424E+03  0.65322550426E+03  0.50400000000E-02 0. -1.
          2    1    1    2    0  502 -0.44209459994E-01 -0.20054561399E+02 -0.46817051973E+02  0.50931559463E+02  0.25500000000E-02 0.  1.
         -2    1    1    2  502    0  0.44209459994E-01  0.20054561399E+02 -0.60418482983E+03  0.60451757294E+03  0.25500000000E-02 0.  1.
<mgrwt>
<rscale>  0 0.76224111E+02</rscale>
<asrwt>0</asrwt>
<pdfrwt beam="1">  1        1 0.34209672E-03 0.76224111E+02</pdfrwt>
<pdfrwt beam="2">  1       -1 0.10049608E+00 0.76224111E+02</pdfrwt>
<totfact> 0.62211856E+04</totfact>
</mgrwt>
</event>
<event>
 4    1  0.2051373E-002  0.4034856E+02  0.7818608E-02  0.1505662E+00
          1   -1    0    0    0  501  0.00000000000E+00  0.00000000000E+00  0.70847292972E+00  0.70849085651E+00  0.50400000000E-02 0.  1.
         -1   -1    0    0  501    0 -0.00000000000E+00 -0.00000000000E+00 -0.57447006614E+03  0.57447006617E+03  0.50400000000E-02 0.  1.
          2    1    1    2    0  502 -0.12818836164E+02 -0.15491847287E+02 -0.26353632687E+03  0.26430231834E+03  0.25500000000E-02 0. -1.
         -2    1    1    2  502    0  0.12818836164E+02  0.15491847287E+02 -0.31022526634E+03  0.31087623868E+03  0.25500000000E-02 0. -1.
<mgrwt>
<rscale>  0 0.40348564E+02</rscale>
<asrwt>0</asrwt>
<pdfrwt beam="1">  1        1 0.10899768E-03 0.40348564E+02</pdfrwt>
<pdfrwt beam="2">  1       -1 0.88379639E-01 0.40348564E+02</pdfrwt>
<totfact> 0.33647406E+05</totfact>
</mgrwt>
</event>
<event>
 4    1  0.2051373E-002  0.6041429E+02  0.7818608E-02  0.1396101E+00
          1   -1    0    0    0  501  0.00000000000E+00  0.00000000000E+00  0.29798717723E+01  0.29798760345E+01  0.50400000000E-02 0.  1.
         -1   -1    0    0  501    0 -0.00000000000E+00 -0.00000000000E+00 -0.30621147763E+03  0.30621147767E+03  0.50400000000E-02 0.  1.
          2    1    1    2    0  502  0.12002832196E+02 -0.24704393583E+02 -0.21596584991E+03  0.21770535910E+03  0.25500000000E-02 0.  1.
         -2    1    1    2  502    0 -0.12002832196E+02  0.24704393583E+02 -0.87265755940E+02  0.91485994607E+02  0.25500000000E-02 0.  1.
<mgrwt>
<rscale>  0 0.60414290E+02</rscale>
<asrwt>0</asrwt>
<pdfrwt beam="1">  1        1 0.45844238E-03 0.60414290E+02</pdfrwt>
<pdfrwt beam="2">  1       -1 0.47109434E-01 0.60414290E+02</pdfrwt>
<totfact> 0.17328818E+05</totfact>
</mgrwt>
</event>
<event>
 4    1  0.2051373E-002  0.6418979E+02  0.7818608E-02  0.1381045E+00
          1   -1    0    0    0  501  0.00000000000E+00  0.00000000000E+00  0.15047795906E+03  0.15047795914E+03  0.50400000000E-02 0. -1.
         -1   -1    0    0  501    0 -0.00000000000E+00 -0.00000000000E+00 -0.68454010899E+01  0.68454029452E+01  0.50400000000E-02 0. -1.
          2    1    1    2    0  502 -0.10046644967E+02  0.30179086257E+02  0.61311676776E+02  0.69071224385E+02  0.25500000000E-02 0.  1.
         -2    1    1    2  502    0  0.10046644967E+02 -0.30179086257E+02  0.82320881192E+02  0.88252137703E+02  0.25500000000E-02 0.  1.
<mgrwt>
<rscale>  0 0.64189785E+02</rscale>
<asrwt>0</asrwt>
<pdfrwt beam="1">  1        1 0.23150455E-01 0.64189785E+02</pdfrwt>
<pdfrwt beam="2">  1       -1 0.10531388E-02 0.64189785E+02</pdfrwt>
<totfact> 0.28354788E+05</totfact>
</mgrwt>
</event>
<event>
 4    1  0.2051373E-002  0.1133852E+03  0.7818608E-02  0.1254426E+00
          1   -1    0    0    0  501  0.00000000000E+00  0.00000000000E+00  0.22978038151E+03  0.22978038156E+03  0.50400000000E-02 0.  1.
         -1   -1    0    0  501    0 -0.00000000000E+00 -0.00000000000E+00 -0.13987491697E+02  0.13987492605E+02  0.50400000000E-02 0.  1.
          2    1    1    2    0  502  0.56408588728E+02 -0.43333907506E+01  0.11574998076E+03  0.12883619526E+03  0.25500000000E-02 0. -1.
         -2    1    1    2  502    0 -0.56408588728E+02  0.43333907506E+01  0.10004290905E+03  0.11493167890E+03  0.25500000000E-02 0. -1.
<mgrwt>
<rscale>  0 0.11338521E+03</rscale>
<asrwt>0</asrwt>
<pdfrwt beam="1">  1        1 0.35350825E-01 0.11338521E+03</pdfrwt>
<pdfrwt beam="2">  1       -1 0.21519221E-02 0.11338521E+03</pdfrwt>
<totfact> 0.67407566E+04</totfact>
</mgrwt>
</event>
<event>
 4    1  0.2051373E-002  0.5870179E+02  0.7818608E-02  0.1403362E+00
         -1   -1    0    0  501    0 -0.00000000000E+00  0.00000000000E+00  0.32425209659E+02  0.32425210051E+02  0.50400000000E-02 0.  1.
          1   -1    0    0    0  501  0.00000000000E+00 -0.00000000000E+00 -0.26568060786E+02  0.26568061264E+02  0.50400000000E-02 0.  1.
          2    1    1    2    0  502  0.12524375844E+02 -0.19158188541E+02 -0.15535975384E+02  0.27663382224E+02  0.25500000000E-02 0. -1.
         -2    1    1    2  502    0 -0.12524375844E+02  0.19158188541E+02  0.21393124257E+02  0.31329889091E+02  0.25500000000E-02 0. -1.
<mgrwt>
<rscale>  0 0.58701788E+02</rscale>
<asrwt>0</asrwt>
<pdfrwt beam="2">  1        1 0.40873940E-02 0.58701788E+02</pdfrwt>
<pdfrwt beam="1">  1       -1 0.49884938E-02 0.58701788E+02</pdfrwt>
<totfact> 0.28829439E+05</totfact>
</mgrwt>
</event>
<event>
 4    1  0.2051373E-002  0.5762247E+02  0.7818608E-02  0.1408089E+00
          1   -1    0    0    0  501  0.00000000000E+00  0.00000000000E+00  0.29226372933E+03  0.29226372938E+03  0.50400000000E-02 0.  1.
         -1   -1    0    0  501    0 -0.00000000000E+00 -0.00000000000E+00 -0.28401966742E+01  0.28402011460E+01  0.50400000000E-02 0.  1.
          2    1    1    2    0  502 -0.53229455128E+01  0.23099975726E+02  0.22857422795E+03  0.22980017475E+03  0.25500000000E-02 0.  1.
         -2    1    1    2  502    0  0.53229455128E+01 -0.23099975726E+02  0.60849304712E+02  0.65303755771E+02  0.25500000000E-02 0.  1.
<mgrwt>
<rscale>  0 0.57622466E+02</rscale>
<asrwt>0</asrwt>
<pdfrwt beam="1">  1        1 0.44963594E-01 0.57622466E+02</pdfrwt>
<pdfrwt beam="2">  1       -1 0.43695424E-03 0.57622466E+02</pdfrwt>
<totfact> 0.42049232E+05</totfact>
</mgrwt>
</event>
<event>
 4    1  0.2051373E-002  0.5994829E+02  0.7818608E-02  0.1398049E+00
          1   -1    0    0    0  501  0.00000000000E+00  0.00000000000E+00  0.29828142755E+03  0.29828142759E+03  0.50400000000E-02 0.  1.
         -1   -1    0    0  501    0 -0.00000000000E+00 -0.00000000000E+00 -0.30120843695E+01  0.30120885861E+01  0.50400000000E-02 0.  1.
          2    1    1    2    0  502 -0.22213258634E+02 -0.18341370911E+02  0.10600321622E+03  0.10984769730E+03  0.25500000000E-02 0. -1.
         -2    1    1    2  502    0  0.22213258634E+02  0.18341370911E+02  0.18926612696E+03  0.19144581888E+03  0.25500000000E-02 0. -1.
<mgrwt>
<rscale>  0 0.59948293E+02</rscale>
<asrwt>0</asrwt>
<pdfrwt beam="1">  1        1 0.45889460E-01 0.59948293E+02</pdfrwt>
<pdfrwt beam="2">  1       -1 0.46339783E-03 0.59948293E+02</pdfrwt>
<totfact> 0.38165872E+05</totfact>
</mgrwt>
</event>
<event>
 4    1  0.2051373E-002  0.8559337E+02  0.7818608E-02  0.1313888E+00
          1   -1    0    0    0  501  0.00000000000E+00  0.00000000000E+00  0.33422588180E+02  0.33422588560E+02  0.50400000000E-02 0. -1.
         -1   -1    0    0  501    0 -0.00000000000E+00 -0.00000000000E+00 -0.54799952483E+02  0.54799952715E+02  0.50400000000E-02 0. -1.
          2    1    1    2    0  502 -0.19479826823E+02  0.50205301123E+01 -0.49623146899E+02  0.53545551546E+02  0.25500000000E-02 0.  1.
         -2    1    1    2  502    0  0.19479826823E+02 -0.50205301123E+01  0.28245782596E+02  0.34676989729E+02  0.25500000000E-02 0.  1.
<mgrwt>
<rscale>  0 0.85593371E+02</rscale>
<asrwt>0</asrwt>
<pdfrwt beam="1">  1        1 0.51419367E-02 0.85593371E+02</pdfrwt>
<pdfrwt beam="2">  1       -1 0.84307620E-02 0.85593371E+02</pdfrwt>
<totfact> 0.10548105E+05</totfact>
</mgrwt>
</event>
<event>
 4    1  0.2051373E-002  0.4298218E+02  0.7818608E-02  0.1487346E+00
          1   -1    0    0    0  501  0.00000000000E+00  0.00000000000E+00  0.77967158276E+03  0.77967158278E+03  0.50400000000E-02 0. -1.
         -1   -1    0    0  501    0 -0.00000000000E+00 -0.00000000000E+00 -0.59237581612E+00  0.59239725617E+00  0.50400000000E-02 0. -1.
          2    1    1    2    0  502  0.16736187187E+02 -0.13005552655E+02  0.32504440190E+03  0.32573471963E+03  0.25500000000E-02 0. -1.
         -2    1    1    2  502    0 -0.16736187187E+02  0.13005552655E+02  0.45403480505E+03  0.45452926041E+03  0.25500000000E-02 0. -1.
<mgrwt>
<rscale>  0 0.42982181E+02</rscale>
<asrwt>0</asrwt>
<pdfrwt beam="1">  1        1 0.11994901E+00 0.42982181E+02</pdfrwt>
<pdfrwt beam="2">  1       -1 0.91136748E-04 0.42982181E+02</pdfrwt>
<totfact> 0.95787300E+05</totfact>
</mgrwt>
</event>
<event>
 4    1  0.2051373E-002  0.4886910E+02  0.7818608E-02  0.1451539E+00
          1   -1    0    0    0  501  0.00000000000E+00  0.00000000000E+00  0.15873040086E+04  0.15873040086E+04  0.50400000000E-02 0.  1.
         -1   -1    0    0  501    0 -0.00000000000E+00 -0.00000000000E+00 -0.37612223869E+00  0.37615600492E+00  0.50400000000E-02 0.  1.
          2    1    1    2    0  502 -0.15057456172E+02  0.18851096738E+02  0.66782019001E+03  0.66825586195E+03  0.25500000000E-02 0. -1.
         -2    1    1    2  502    0  0.15057456172E+02 -0.18851096738E+02  0.91910769637E+03  0.91942430268E+03  0.25500000000E-02 0. -1.
<mgrwt>
<rscale>  0 0.48869097E+02</rscale>
<asrwt>0</asrwt>
<pdfrwt beam="1">  1        1 0.24420906E+00 0.48869097E+02</pdfrwt>
<pdfrwt beam="2">  1       -1 0.57865558E-04 0.48869097E+02</pdfrwt>
<totfact> 0.52241786E+05</totfact>
</mgrwt>
</event>
<event>
 4    1  0.2051373E-002  0.6152470E+02  0.7818608E-02  0.1391542E+00
         -1   -1    0    0  501    0 -0.00000000000E+00  0.00000000000E+00  0.58697012184E+00  0.58699175934E+00  0.50400000000E-02 0.  1.
          1   -1    0    0    0  501  0.00000000000E+00 -0.00000000000E+00 -0.16121855676E+04  0.16121855676E+04  0.50400000000E-02 0.  1.
          2    1    1    2    0  502  0.13953677895E+02 -0.26291279744E+02 -0.60209948684E+03  0.60283474400E+03  0.25500000000E-02 0.  1.
         -2    1    1    2  502    0 -0.13953677895E+02  0.26291279744E+02 -0.10094991106E+04  0.10099378153E+04  0.25500000000E-02 0.  1.
<mgrwt>
<rscale>  0 0.61524701E+02</rscale>
<asrwt>0</asrwt>
<pdfrwt beam="2">  1        1 0.24802501E+00 0.61524701E+02</pdfrwt>
<pdfrwt beam="1">  1       -1 0.90306051E-04 0.61524701E+02</pdfrwt>
<totfact> 0.28820718E+05</totfact>
</mgrwt>
</event>
<event>
 4    1  0.2051373E-002  0.4910377E+02  0.7818608E-02  0.1450236E+00
         -1   -1    0    0  501    0 -0.00000000000E+00  0.00000000000E+00  0.35873778199E+01  0.35873813603E+01  0.50400000000E-02 0.  1.
          1   -1    0    0    0  501  0.00000000000E+00 -0.00000000000E+00 -0.16803213527E+03  0.16803213534E+03  0.50400000000E-02 0.  1.
          2    1    1    2    0  502 -0.13056341916E+02  0.20059876918E+02 -0.63102149426E+02  0.67488873119E+02  0.25500000000E-02 0.  1.
         -2    1    1    2  502    0  0.13056341916E+02 -0.20059876918E+02 -0.10134260802E+03  0.10413064358E+03  0.25500000000E-02 0.  1.
<mgrwt>
<rscale>  0 0.49103770E+02</rscale>
<asrwt>0</asrwt>
<pdfrwt beam="2">  1        1 0.25851092E-01 0.49103770E+02</pdfrwt>
<pdfrwt beam="1">  1       -1 0.55190469E-03 0.49103770E+02</pdfrwt>
<totfact> 0.57103741E+05</totfact>
</mgrwt>
</event>
<event>
 4    1  0.2051373E-002  0.1193476E+03  0.7818608E-02  0.1244177E+00
          1   -1    0    0    0  501  0.00000000000E+00  0.00000000000E+00  0.12722681122E+04  0.12722681122E+04  0.50400000000E-02 0. -1.
         -1   -1    0    0  501    0 -0.00000000000E+00 -0.00000000000E+00 -0.27989088496E+01  0.27989133874E+01  0.50400000000E-02 0. -1.
          2    1    1    2    0  502  0.55246753428E+02  0.14480670339E+02  0.44997506229E+03  0.45358510807E+03  0.25500000000E-02 0. -1.
         -2    1    1    2  502    0 -0.55246753428E+02 -0.14480670339E+02  0.81949414107E+03  0.82148191754E+03  0.25500000000E-02 0. -1.
<mgrwt>
<rscale>  0 0.11934765E+03</rscale>
<asrwt>0</asrwt>
<pdfrwt beam="1">  1        1 0.19573351E+00 0.11934765E+03</pdfrwt>
<pdfrwt beam="2">  1       -1 0.43060181E-03 0.11934765E+03</pdfrwt>
<totfact> 0.60076319E+04</totfact>
</mgrwt>
</event>
<event>
 4    1  0.2051373E-002  0.6347089E+02  0.7818608E-02  0.1383817E+00
          1   -1    0    0    0  501  0.00000000000E+00  0.00000000000E+00  0.18871308363E+03  0.18871308370E+03  0.50400000000E-02 0.  1.
         -1   -1    0    0  501    0 -0.00000000000E+00 -0.00000000000E+00 -0.53368761209E+01  0.53368785007E+01  0.50400000000E-02 0.  1.
          2    1    1    2    0  502  0.11923105544E+02  0.28475674267E+02  0.69197857611E+02  0.75771815177E+02  0.25500000000E-02 0.  1.
         -2    1    1    2  502    0 -0.11923105544E+02 -0.28475674267E+02  0.11417834990E+03  0.11827814702E+03  0.25500000000E-02 0.  1.
<mgrwt>
<rscale>  0 0.63470894E+02</rscale>
<asrwt>0</asrwt>
<pdfrwt beam="1">  1        1 0.29032776E-01 0.63470894E+02</pdfrwt>
<pdfrwt beam="2">  1       -1 0.82105823E-03 0.63470894E+02</pdfrwt>
<totfact> 0.30354072E+05</totfact>
</mgrwt>
</event>
<event>
 4    1  0.2051373E-002  0.5248511E+02  0.7818608E-02  0.1432381E+00
         -1   -1    0    0  501    0 -0.00000000000E+00  0.00000000000E+00  0.12980662949E+02  0.12980663927E+02  0.50400000000E-02 0. -1.
          1   -1    0    0    0  501  0.00000000000E+00 -0.00000000000E+00 -0.53053655700E+02  0.53053655940E+02  0.50400000000E-02 0. -1.
          2    1    1    2    0  502  0.17026500289E+01 -0.23410364390E+02 -0.34801851786E+02  0.41977530564E+02  0.25500000000E-02 0. -1.
         -2    1    1    2  502    0 -0.17026500289E+01  0.23410364390E+02 -0.52711409654E+01  0.24056789303E+02  0.25500000000E-02 0. -1.
<mgrwt>
<rscale>  0 0.52485109E+02</rscale>
<asrwt>0</asrwt>
<pdfrwt beam="2">  1        1 0.81621009E-02 0.52485109E+02</pdfrwt>
<pdfrwt beam="1">  1       -1 0.19970252E-02 0.52485109E+02</pdfrwt>
<totfact> 0.41428721E+05</totfact>
</mgrwt>
</event>
<event>
 4    1  0.2051373E-002  0.4397153E+02  0.7818608E-02  0.1480866E+00
          1   -1    0    0    0  501  0.00000000000E+00  0.00000000000E+00  0.22443964283E+02  0.22443964849E+02  0.50400000000E-02 0.  1.
         -1   -1    0    0  501    0 -0.00000000000E+00 -0.00000000000E+00 -0.21536919254E+02  0.21536919844E+02  0.50400000000E-02 0.  1.
          2    1    1    2    0  502  0.20861285375E+01 -0.21823471282E+02  0.21146088862E+01  0.22024699960E+02  0.25500000000E-02 0. -1.
         -2    1    1    2  502    0 -0.20861285375E+01  0.21823471282E+02 -0.12075638575E+01  0.21956184733E+02  0.25500000000E-02 0. -1.
<mgrwt>
<rscale>  0 0.43971530E+02</rscale>
<asrwt>0</asrwt>
<pdfrwt beam="1">  1        1 0.34529177E-02 0.43971530E+02</pdfrwt>
<pdfrwt beam="2">  1       -1 0.33133723E-02 0.43971530E+02</pdfrwt>
<totfact> 0.60365180E+05</totfact>
</mgrwt>
</event>
<event>
 4    1  0.2051373E-002  0.4831826E+02  0.7818608E-02  0.1454629E+00
          1   -1    0    0    0  501  0.00000000000E+00  0.00000000000E+00  0.31134092750E+01  0.31134133544E+01  0.50400000000E-02 0. -1.
         -1   -1    0    0  501    0 -0.00000000000E+00 -0.00000000000E+00 -0.18746756326E+03  0.18746756333E+03  0.50400000000E-02 0. -1.
          2    1    1    2    0  502 -0.52500292396E+01 -0.23433508634E+02 -0.81762742966E+02  0.85216420235E+02  0.25500000000E-02 0. -1.
         -2    1    1    2  502    0  0.52500292396E+01  0.23433508634E+02 -0.10259141102E+03  0.10536455645E+03  0.25500000000E-02 0. -1.
<mgrwt>
<rscale>  0 0.48318263E+02</rscale>
<asrwt>0</asrwt>
<pdfrwt beam="1">  1        1 0.47898651E-03 0.48318263E+02</pdfrwt>
<pdfrwt beam="2">  1       -1 0.28841155E-01 0.48318263E+02</pdfrwt>
<totfact> 0.35503123E+05</totfact>
</mgrwt>
</event>
<event>
 4    1  0.2051373E-002  0.4180766E+02  0.7818608E-02  0.1495315E+00
          1   -1    0    0    0  501  0.00000000000E+00  0.00000000000E+00  0.33165846101E+02  0.33165846484E+02  0.50400000000E-02 0.  1.
         -1   -1    0    0  501    0 -0.00000000000E+00 -0.00000000000E+00 -0.13175305926E+02  0.13175306890E+02  0.50400000000E-02 0.  1.
          2    1    1    2    0  502 -0.20782707356E+02 -0.18545909497E-01  0.12485906690E+02  0.24244981777E+02  0.25500000000E-02 0.  1.
         -2    1    1    2  502    0  0.20782707356E+02  0.18545909497E-01  0.75046334864E+01  0.22096171597E+02  0.25500000000E-02 0.  1.
<mgrwt>
<rscale>  0 0.41807664E+02</rscale>
<asrwt>0</asrwt>
<pdfrwt beam="1">  1        1 0.51024379E-02 0.41807664E+02</pdfrwt>
<pdfrwt beam="2">  1       -1 0.20269703E-02 0.41807664E+02</pdfrwt>
<totfact> 0.70735370E+05</totfact>
</mgrwt>
</event>
<event>
 4    1  0.2051373E-002  0.1533371E+03  0.7818608E-02  0.1196431E+00
          1   -1    0    0    0  501  0.00000000000E+00  0.00000000000E+00  0.36983157088E+02  0.36983157431E+02  0.50400000000E-02 0. -1.
         -1   -1    0    0  501    0 -0.00000000000E+00 -0.00000000000E+00 -0.15893896125E+03  0.15893896133E+03  0.50400000000E-02 0. -1.
          2    1    1    2    0  502 -0.54069457205E+02 -0.35658064418E+02 -0.11339659695E+03  0.13059016796E+03  0.25500000000E-02 0. -1.
         -2    1    1    2  502    0  0.54069457205E+02  0.35658064418E+02 -0.85592072028E+01  0.65331950797E+02  0.25500000000E-02 0. -1.
<mgrwt>
<rscale>  0 0.15333707E+03</rscale>
<asrwt>0</asrwt>
<pdfrwt beam="1">  1        1 0.56897166E-02 0.15333707E+03</pdfrwt>
<pdfrwt beam="2">  1       -1 0.24452148E-01 0.15333707E+03</pdfrwt>
<totfact> 0.18872064E+04</totfact>
</mgrwt>
</event>
<event>
 4    1  0.2051373E-002  0.7062089E+02  0.7818608E-02  0.1357994E+00
          1   -1    0    0    0  501  0.00000000000E+00  0.00000000000E+00  0.23510997164E+03  0.23510997169E+03  0.50400000000E-02 0.  1.
         -1   -1    0    0  501    0 -0.00000000000E+00 -0.00000000000E+00 -0.53031655626E+01  0.53031679576E+01  0.50400000000E-02 0.  1.
          2    1    1    2    0  502  0.55247209035E+01 -0.27711065410E+02  0.18699068713E+03  0.18911357108E+03  0.25500000000E-02 0.  1.
         -2    1    1    2  502    0 -0.55247209035E+01  0.27711065410E+02  0.42816118945E+02  0.51299568568E+02  0.25500000000E-02 0.  1.
<mgrwt>
<rscale>  0 0.70620886E+02</rscale>
<asrwt>0</asrwt>
<pdfrwt beam="1">  1        1 0.36170779E-01 0.70620886E+02</pdfrwt>
<pdfrwt beam="2">  1       -1 0.81587151E-03 0.70620886E+02</pdfrwt>
<totfact> 0.23966720E+05</totfact>
</mgrwt>
</event>
<event>
 4    1  0.2051373E-002  0.6566276E+02  0.7818608E-02  0.1375496E+00
          1   -1    0    0    0  501  0.00000000000E+00  0.00000000000E+00  0.16516212896E+04  0.16516212896E+04  0.50400000000E-02 0.  1.
         -1   -1    0    0  501    0 -0.00000000000E+00 -0.00000000000E+00 -0.65262140357E+00  0.65264086448E+00  0.50400000000E-02 0.  1.
          2    1    1    2    0  502  0.25304494600E+01 -0.32017057271E+02  0.99689674842E+03  0.99741396729E+03  0.25500000000E-02 0. -1.
         -2    1    1    2  502    0 -0.25304494600E+01  0.32017057271E+02  0.65407191974E+03  0.65485996314E+03  0.25500000000E-02 0. -1.
<mgrwt>
<rscale>  0 0.65662759E+02</rscale>
<asrwt>0</asrwt>
<pdfrwt beam="1">  1        1 0.25409402E+00 0.65662759E+02</pdfrwt>
<pdfrwt beam="2">  1       -1 0.10040541E-03 0.65662759E+02</pdfrwt>
<totfact> 0.23832773E+05</totfact>
</mgrwt>
</event>
<event>
 4    1  0.2051373E-002  0.7129132E+02  0.7818608E-02  0.1355756E+00
          1   -1    0    0    0  501  0.00000000000E+00  0.00000000000E+00  0.14160811171E+04  0.14160811171E+04  0.50400000000E-02 0. -1.
         -1   -1    0    0  501    0 -0.00000000000E+00 -0.00000000000E+00 -0.89726723005E+00  0.89728138492E+00  0.50400000000E-02 0. -1.
          2    1    1    2    0  502 -0.22367240947E+02  0.22943758823E+02  0.10180019367E+04  0.10185060887E+04  0.25500000000E-02 0. -1.
         -2    1    1    2  502    0  0.22367240947E+02 -0.22943758823E+02  0.39718191315E+03  0.39847230980E+03  0.25500000000E-02 0. -1.
<mgrwt>
<rscale>  0 0.71291324E+02</rscale>
<asrwt>0</asrwt>
<pdfrwt beam="1">  1        1 0.21785806E+00 0.71291324E+02</pdfrwt>
<pdfrwt beam="2">  1       -1 0.13804257E-03 0.71291324E+02</pdfrwt>
<totfact> 0.21981711E+05</totfact>
</mgrwt>
</event>
<event>
 4    1  0.2051373E-002  0.6675647E+02  0.7818608E-02  0.1371484E+00
          1   -1    0    0    0  501  0.00000000000E+00  0.00000000000E+00  0.13288227049E+02  0.13288228004E+02  0.50400000000E-02 0. -1.
         -1   -1    0    0  501    0 -0.00000000000E+00 -0.00000000000E+00 -0.83841632761E+02  0.83841632913E+02  0.50400000000E-02 0. -1.
          2    1    1    2    0  502  0.13425168835E+02 -0.22021363482E+02 -0.66104977490E+02  0.70958041569E+02  0.25500000000E-02 0.  1.
         -2    1    1    2  502    0 -0.13425168835E+02  0.22021363482E+02 -0.44484282228E+01  0.26171819348E+02  0.25500000000E-02 0.  1.
<mgrwt>
<rscale>  0 0.66756474E+02</rscale>
<asrwt>0</asrwt>
<pdfrwt beam="1">  1        1 0.20443428E-02 0.66756474E+02</pdfrwt>
<pdfrwt beam="2">  1       -1 0.12898713E-01 0.66756474E+02</pdfrwt>
<totfact> 0.18577186E+05</totfact>
</mgrwt>
</event>
<event>
 4    1  0.2051373E-002  0.4086899E+02  0.7818608E-02  0.1501912E+00
          1   -1    0    0    0  501  0.00000000000E+00  0.00000000000E+00  0.10596666435E+03  0.10596666447E+03  0.50400000000E-02 0. -1.
         -1   -1    0    0  501    0 -0.00000000000E+00 -0.00000000000E+00 -0.39405634219E+01  0.39405666450E+01  0.50400000000E-02 0. -1.
          2    1    1    2    0  502  0.16089504439E+02 -0.12518532608E+02  0.54799776050E+02  0.58468805986E+02  0.25500000000E-02 0.  1.
         -2    1    1    2  502    0 -0.16089504439E+02  0.12518532608E+02  0.47226324877E+02  0.51438425128E+02  0.25500000000E-02 0.  1.
<mgrwt>
<rscale>  0 0.40868988E+02</rscale>
<asrwt>0</asrwt>
<pdfrwt beam="1">  1        1 0.16302561E-01 0.40868988E+02</pdfrwt>
<pdfrwt beam="2">  1       -1 0.60624090E-03 0.40868988E+02</pdfrwt>
<totfact> 0.84087934E+05</totfact>
</mgrwt>
</event>
<event>
 4    1  0.2051373E-002  0.6396880E+02  0.7818608E-02  0.1381893E+00
         -1   -1    0    0  501    0 -0.00000000000E+00  0.00000000000E+00  0.34885265523E+02  0.34885265888E+02  0.50400000000E-02 0.  1.
          1   -1    0    0    0  501  0.00000000000E+00 -0.00000000000E+00 -0.29324751184E+02  0.29324751617E+02  0.50400000000E-02 0.  1.
          2    1    1    2    0  502 -0.30400507477E+02  0.62610523006E+01 -0.49696160901E+01  0.31433878560E+02  0.25500000000E-02 0.  1.
         -2    1    1    2  502    0  0.30400507477E+02 -0.62610523006E+01  0.10530130430E+02  0.32776138945E+02  0.25500000000E-02 0.  1.
<mgrwt>
<rscale>  0 0.63968797E+02</rscale>
<asrwt>0</asrwt>
<pdfrwt beam="2">  1        1 0.45115003E-02 0.63968797E+02</pdfrwt>
<pdfrwt beam="1">  1       -1 0.53669640E-02 0.63968797E+02</pdfrwt>
<totfact> 0.23145455E+05</totfact>
</mgrwt>
</event>
<event>
 4    1  0.2051373E-002  0.4230559E+02  0.7818608E-02  0.1491899E+00
          1   -1    0    0    0  501  0.00000000000E+00  0.00000000000E+00  0.60200900368E+03  0.60200900370E+03  0.50400000000E-02 0.  1.
         -1   -1    0    0  501    0 -0.00000000000E+00 -0.00000000000E+00 -0.74323721559E+00  0.74325430388E+00  0.50400000000E-02 0.  1.
          2    1    1    2    0  502  0.89315659747E+01 -0.17920284952E+02  0.39782098052E+03  0.39832454359E+03  0.25500000000E-02 0. -1.
         -2    1    1    2  502    0 -0.89315659747E+01  0.17920284952E+02  0.20344478594E+03  0.20442771441E+03  0.25500000000E-02 0. -1.
<mgrwt>
<rscale>  0 0.42305586E+02</rscale>
<asrwt>0</asrwt>
<pdfrwt beam="1">  1        1 0.92617305E-01 0.42305586E+02</pdfrwt>
<pdfrwt beam="2">  1       -1 0.11434484E-03 0.42305586E+02</pdfrwt>
<totfact> 0.99718358E+05</totfact>
</mgrwt>
</event>
<event>
 4    1  0.2051373E-002  0.5564347E+02  0.7818608E-02  0.1417080E+00
         -1   -1    0    0  501    0 -0.00000000000E+00  0.00000000000E+00  0.14912087619E+03  0.14912087627E+03  0.50400000000E-02 0.  1.
          1   -1    0    0    0  501  0.00000000000E+00 -0.00000000000E+00 -0.51907470192E+01  0.51907494660E+01  0.50400000000E-02 0.  1.
          2    1    1    2    0  502  0.51593217651E+01  0.21132168550E+02  0.23862530691E+02  0.32289433662E+02  0.25500000000E-02 0. -1.
         -2    1    1    2  502    0 -0.51593217651E+01 -0.21132168550E+02  0.12006759848E+03  0.12202219208E+03  0.25500000000E-02 0. -1.
<mgrwt>
<rscale>  0 0.55643470E+02</rscale>
<asrwt>0</asrwt>
<pdfrwt beam="2">  1        1 0.79857663E-03 0.55643470E+02</pdfrwt>
<pdfrwt beam="1">  1       -1 0.22941674E-01 0.55643470E+02</pdfrwt>
<totfact> 0.26415669E+05</totfact>
</mgrwt>
</event>
<event>
 4    1  0.2051373E-002  0.4492400E+02  0.7818608E-02  0.1474817E+00
          1   -1    0    0    0  501  0.00000000000E+00  0.00000000000E+00  0.25742235304E+02  0.25742235798E+02  0.50400000000E-02 0.  1.
         -1   -1    0    0  501    0 -0.00000000000E+00 -0.00000000000E+00 -0.19599754115E+02  0.19599754763E+02  0.50400000000E-02 0.  1.
          2    1    1    2    0  502 -0.19841070218E+02  0.87303184970E+01 -0.28703800485E+01  0.21866083705E+02  0.25500000000E-02 0. -1.
         -2    1    1    2  502    0  0.19841070218E+02 -0.87303184970E+01  0.90128612382E+01  0.23475906855E+02  0.25500000000E-02 0. -1.
<mgrwt>
<rscale>  0 0.44924003E+02</rscale>
<asrwt>0</asrwt>
<pdfrwt beam="1">  1        1 0.39603440E-02 0.44924003E+02</pdfrwt>
<pdfrwt beam="2">  1       -1 0.30153469E-02 0.44924003E+02</pdfrwt>
<totfact> 0.57782705E+05</totfact>
</mgrwt>
</event>
<event>
 4    1  0.2051373E-002  0.6847865E+02  0.7818608E-02  0.1365344E+00
          1   -1    0    0    0  501  0.00000000000E+00  0.00000000000E+00  0.10330118885E+04  0.10330118885E+04  0.50400000000E-02 0. -1.
         -1   -1    0    0  501    0 -0.00000000000E+00 -0.00000000000E+00 -0.11348617403E+01  0.11348729317E+01  0.50400000000E-02 0. -1.
          2    1    1    2    0  502 -0.31118702813E+02 -0.31160116290E+01  0.72641594819E+03  0.72708886182E+03  0.25500000000E-02 0.  1.
         -2    1    1    2  502    0  0.31118702813E+02  0.31160116290E+01  0.30546107855E+03  0.30705789961E+03  0.25500000000E-02 0.  1.
<mgrwt>
<rscale>  0 0.68478653E+02</rscale>
<asrwt>0</asrwt>
<pdfrwt beam="1">  1        1 0.15892410E+00 0.68478653E+02</pdfrwt>
<pdfrwt beam="2">  1       -1 0.17459586E-03 0.68478653E+02</pdfrwt>
<totfact> 0.28424319E+05</totfact>
</mgrwt>
</event>
<event>
 4    1  0.2051373E-002  0.4475185E+02  0.7818608E-02  0.1475897E+00
         -1   -1    0    0  501    0 -0.00000000000E+00  0.00000000000E+00  0.69448391159E+00  0.69450219946E+00  0.50400000000E-02 0. -1.
          1   -1    0    0    0  501  0.00000000000E+00 -0.00000000000E+00 -0.72093170235E+03  0.72093170237E+03  0.50400000000E-02 0. -1.
          2    1    1    2    0  502  0.90343252719E+01  0.18950720472E+02 -0.48495324873E+03  0.48540746008E+03  0.25500000000E-02 0.  1.
         -2    1    1    2  502    0 -0.90343252719E+01 -0.18950720472E+02 -0.23528396970E+03  0.23621874448E+03  0.25500000000E-02 0.  1.
<mgrwt>
<rscale>  0 0.44751852E+02</rscale>
<asrwt>0</asrwt>
<pdfrwt beam="2">  1        1 0.11091197E+00 0.44751852E+02</pdfrwt>
<pdfrwt beam="1">  1       -1 0.10684566E-03 0.44751852E+02</pdfrwt>
<totfact> 0.87145006E+05</totfact>
</mgrwt>
</event>
<event>
 4    1  0.2051373E-002  0.8450197E+02  0.7818608E-02  0.1316740E+00
          1   -1    0    0    0  501  0.00000000000E+00  0.00000000000E+00  0.19789781766E+03  0.19789781772E+03  0.50400000000E-02 0.  1.
         -1   -1    0    0  501    0 -0.00000000000E+00 -0.00000000000E+00 -0.90205423374E+01  0.90205437453E+01  0.50400000000E-02 0.  1.
          2    1    1    2    0  502  0.30861666610E+02  0.13248051890E+02  0.31664830338E+02  0.46158583510E+02  0.25500000000E-02 0.  1.
         -2    1    1    2  502    0 -0.30861666610E+02 -0.13248051890E+02  0.15721244498E+03  0.16075977796E+03  0.25500000000E-02 0.  1.
<mgrwt>
<rscale>  0 0.84501971E+02</rscale>
<asrwt>0</asrwt>
<pdfrwt beam="1">  1        1 0.30445816E-01 0.84501971E+02</pdfrwt>
<pdfrwt beam="2">  1       -1 0.13877760E-02 0.84501971E+02</pdfrwt>
<totfact> 0.14475349E+05</totfact>
</mgrwt>
</event>
<event>
 4    1  0.2051373E-002  0.4917315E+02  0.7818608E-02  0.1449853E+00
         -1   -1    0    0  501    0 -0.00000000000E+00  0.00000000000E+00  0.81717847076E+00  0.81719401287E+00  0.50400000000E-02 0.  1.
          1   -1    0    0    0  501  0.00000000000E+00 -0.00000000000E+00 -0.73973302547E+03  0.73973302549E+03  0.50400000000E-02 0.  1.
          2    1    1    2    0  502  0.10304153394E+02 -0.18304931575E+02 -0.56188129419E+03  0.56227380773E+03  0.25500000000E-02 0. -1.
         -2    1    1    2  502    0 -0.10304153394E+02  0.18304931575E+02 -0.17703455281E+03  0.17827641177E+03  0.25500000000E-02 0. -1.
<mgrwt>
<rscale>  0 0.49173150E+02</rscale>
<asrwt>0</asrwt>
<pdfrwt beam="2">  1        1 0.11380455E+00 0.49173150E+02</pdfrwt>
<pdfrwt beam="1">  1       -1 0.12572155E-03 0.49173150E+02</pdfrwt>
<totfact> 0.69047585E+05</totfact>
</mgrwt>
</event>
<event>
 4    1  0.2051373E-002  0.4536063E+02  0.7818608E-02  0.1472103E+00
          1   -1    0    0    0  501  0.00000000000E+00  0.00000000000E+00  0.11350291478E+03  0.11350291489E+03  0.50400000000E-02 0. -1.
         -1   -1    0    0  501    0 -0.00000000000E+00 -0.00000000000E+00 -0.45320117994E+01  0.45320146019E+01  0.50400000000E-02 0. -1.
          2    1    1    2    0  502 -0.83142518557E+01  0.18366523541E+02  0.27450589531E+02  0.34058638302E+02  0.25500000000E-02 0.  1.
         -2    1    1    2  502    0  0.83142518557E+01 -0.18366523541E+02  0.81520313452E+02  0.83976291194E+02  0.25500000000E-02 0.  1.
<mgrwt>
<rscale>  0 0.45360631E+02</rscale>
<asrwt>0</asrwt>
<pdfrwt beam="1">  1        1 0.17461989E-01 0.45360631E+02</pdfrwt>
<pdfrwt beam="2">  1       -1 0.69723275E-03 0.45360631E+02</pdfrwt>
<totfact> 0.65572598E+05</totfact>
</mgrwt>
</event>
<event>
 4    1  0.2051373E-002  0.8692298E+02  0.7818608E-02  0.1310479E+00
          1   -1    0    0    0  501  0.00000000000E+00  0.00000000000E+00  0.48069037203E+03  0.48069037205E+03  0.50400000000E-02 0.  1.
         -1   -1    0    0  501    0 -0.00000000000E+00 -0.00000000000E+00 -0.39295569272E+01  0.39295601593E+01  0.50400000000E-02 0.  1.
          2    1    1    2    0  502  0.35031064246E+02 -0.16624810752E+01  0.95261584853E+02  0.10151211189E+03  0.25500000000E-02 0.  1.
         -2    1    1    2  502    0 -0.35031064246E+02  0.16624810752E+01  0.38149923025E+03  0.38310782032E+03  0.25500000000E-02 0.  1.
<mgrwt>
<rscale>  0 0.86922977E+02</rscale>
<asrwt>0</asrwt>
<pdfrwt beam="1">  1        1 0.73952372E-01 0.86922977E+02</pdfrwt>
<pdfrwt beam="2">  1       -1 0.60454741E-03 0.86922977E+02</pdfrwt>
<totfact> 0.15725072E+05</totfact>
</mgrwt>
</event>
<event>
 4    1  0.2051373E-002  0.9403272E+02  0.7818608E-02  0.1293370E+00
          1   -1    0    0    0  501  0.00000000000E+00  0.00000000000E+00  0.37082465536E+03  0.37082465540E+03  0.50400000000E-02 0.  1.
         -1   -1    0    0  501    0 -0.00000000000E+00 -0.00000000000E+00 -0.59611398093E+01  0.59611419399E+01  0.50400000000E-02 0.  1.
          2    1    1    2    0  502 -0.56261663229E+01 -0.46662006800E+02  0.17745700053E+03  0.18357555302E+03  0.25500000000E-02 0. -1.
         -2    1    1    2  502    0  0.56261663229E+01  0.46662006800E+02  0.18740651503E+03  0.19321024431E+03  0.25500000000E-02 0. -1.
<mgrwt>
<rscale>  0 0.94032718E+02</rscale>
<asrwt>0</asrwt>
<pdfrwt beam="1">  1        1 0.57049960E-01 0.94032718E+02</pdfrwt>
<pdfrwt beam="2">  1       -1 0.91709839E-03 0.94032718E+02</pdfrwt>
<totfact> 0.12267599E+05</totfact>
</mgrwt>
</event>
<event>
 4    1  0.2051373E-002  0.1122859E+03  0.7818608E-02  0.1256394E+00
         -1   -1    0    0  501    0 -0.00000000000E+00  0.00000000000E+00  0.39826521710E+02  0.39826522029E+02  0.50400000000E-02 0. -1.
          1   -1    0    0    0  501  0.00000000000E+00 -0.00000000000E+00 -0.79144007458E+02  0.79144007618E+02  0.50400000000E-02 0. -1.
          2    1    1    2    0  502 -0.50725749144E+02  0.31929750134E+01  0.56091323508E+01  0.51134715096E+02  0.25500000000E-02 0. -1.
         -2    1    1    2  502    0  0.50725749144E+02 -0.31929750134E+01 -0.44926618098E+02  0.67835814552E+02  0.25500000000E-02 0. -1.
<mgrwt>
<rscale>  0 0.11228590E+03</rscale>
<asrwt>0</asrwt>
<pdfrwt beam="2">  1        1 0.12176001E-01 0.11228590E+03</pdfrwt>
<pdfrwt beam="1">  1       -1 0.61271573E-02 0.11228590E+03</pdfrwt>
<totfact> 0.56271133E+04</totfact>
</mgrwt>
</event>
<event>
 4    1  0.2051373E-002  0.1089195E+03  0.7818608E-02  0.1262584E+00
          1   -1    0    0    0  501  0.00000000000E+00  0.00000000000E+00  0.11747268970E+04  0.11747268970E+04  0.50400000000E-02 0. -1.
         -1   -1    0    0  501    0 -0.00000000000E+00 -0.00000000000E+00 -0.25247246182E+01  0.25247296487E+01  0.50400000000E-02 0. -1.
          2    1    1    2    0  502  0.18137408112E+02 -0.22720164420E+02  0.10838411147E+04  0.10842309409E+04  0.25500000000E-02 0.  1.
         -2    1    1    2  502    0 -0.18137408112E+02  0.22720164420E+02  0.88361057682E+02  0.93020685686E+02  0.25500000000E-02 0.  1.
<mgrwt>
<rscale>  0 0.10891951E+03</rscale>
<asrwt>0</asrwt>
<pdfrwt beam="1">  1        1 0.18072720E+00 0.10891951E+03</pdfrwt>
<pdfrwt beam="2">  1       -1 0.38841959E-03 0.10891951E+03</pdfrwt>
<totfact> 0.80009453E+04</totfact>
</mgrwt>
</event>
<event>
 4    1  0.2051373E-002  0.2021002E+03  0.7818608E-02  0.1147979E+00
         -1   -1    0    0  501    0 -0.00000000000E+00  0.00000000000E+00  0.10917241579E+03  0.10917241591E+03  0.50400000000E-02 0.  1.
          1   -1    0    0    0  501  0.00000000000E+00 -0.00000000000E+00 -0.93532092756E+02  0.93532092892E+02  0.50400000000E-02 0.  1.
          2    1    1    2    0  502 -0.71138934242E+01  0.86236859089E+02  0.60165492676E+02  0.10539112800E+03  0.25500000000E-02 0. -1.
         -2    1    1    2  502    0  0.71138934242E+01 -0.86236859089E+02 -0.44525169640E+02  0.97313380802E+02  0.25500000000E-02 0. -1.
<mgrwt>
<rscale>  0 0.20210022E+03</rscale>
<asrwt>0</asrwt>
<pdfrwt beam="2">  1        1 0.14389553E-01 0.20210022E+03</pdfrwt>
<pdfrwt beam="1">  1       -1 0.16795756E-01 0.20210022E+03</pdfrwt>
<totfact> 0.10222182E+04</totfact>
</mgrwt>
</event>
<event>
 4    1  0.2051373E-002  0.7433177E+02  0.7818608E-02  0.1345953E+00
          1   -1    0    0    0  501  0.00000000000E+00  0.00000000000E+00  0.58736668690E+02  0.58736668906E+02  0.50400000000E-02 0.  1.
         -1   -1    0    0  501    0 -0.00000000000E+00 -0.00000000000E+00 -0.23516878471E+02  0.23516879011E+02  0.50400000000E-02 0.  1.
          2    1    1    2    0  502 -0.35323616809E+02 -0.40100727833E+01  0.56167378186E+01  0.35991475913E+02  0.25500000000E-02 0. -1.
         -2    1    1    2  502    0  0.35323616809E+02  0.40100727833E+01  0.29603052401E+02  0.46262072004E+02  0.25500000000E-02 0. -1.
<mgrwt>
<rscale>  0 0.74331773E+02</rscale>
<asrwt>0</asrwt>
<pdfrwt beam="1">  1        1 0.90364104E-02 0.74331773E+02</pdfrwt>
<pdfrwt beam="2">  1       -1 0.36179814E-02 0.74331773E+02</pdfrwt>
<totfact> 0.16788856E+05</totfact>
</mgrwt>
</event>
<event>
 4    1  0.2051373E-002  0.1294784E+03  0.7818608E-02  0.1228232E+00
          1   -1    0    0    0  501  0.00000000000E+00  0.00000000000E+00  0.27430404824E+03  0.27430404828E+03  0.50400000000E-02 0. -1.
         -1   -1    0    0  501    0 -0.00000000000E+00 -0.00000000000E+00 -0.15279266190E+02  0.15279267021E+02  0.50400000000E-02 0. -1.
          2    1    1    2    0  502 -0.90517132152E+01 -0.61018053223E+02  0.17345499429E+03  0.18409717918E+03  0.25500000000E-02 0. -1.
         -2    1    1    2  502    0  0.90517132152E+01  0.61018053223E+02  0.85569787761E+02  0.10548613613E+03  0.25500000000E-02 0. -1.
<mgrwt>
<rscale>  0 0.12947841E+03</rscale>
<asrwt>0</asrwt>
<pdfrwt beam="1">  1        1 0.42200620E-01 0.12947841E+03</pdfrwt>
<pdfrwt beam="2">  1       -1 0.23506566E-02 0.12947841E+03</pdfrwt>
<totfact> 0.48519005E+04</totfact>
</mgrwt>
</event>
<event>
 4    1  0.2051373E-002  0.1260541E+03  0.7818608E-02  0.1233431E+00
         -1   -1    0    0  501    0 -0.00000000000E+00  0.00000000000E+00  0.73176749184E+03  0.73176749186E+03  0.50400000000E-02 0.  1.
          1   -1    0    0    0  501  0.00000000000E+00 -0.00000000000E+00 -0.54285074668E+01  0.54285098065E+01  0.50400000000E-02 0.  1.
          2    1    1    2    0  502  0.52503954217E+02  0.29537334694E+02  0.47152592724E+03  0.47535862190E+03  0.25500000000E-02 0.  1.
         -2    1    1    2  502    0 -0.52503954217E+02 -0.29537334694E+02  0.25481305714E+03  0.26183737977E+03  0.25500000000E-02 0.  1.
<mgrwt>
<rscale>  0 0.12605405E+03</rscale>
<asrwt>0</asrwt>
<pdfrwt beam="2">  1        1 0.83515482E-03 0.12605405E+03</pdfrwt>
<pdfrwt beam="1">  1       -1 0.11257966E+00 0.12605405E+03</pdfrwt>
<totfact> 0.14977616E+04</totfact>
</mgrwt>
</event>
<event>
 4    1  0.2051373E-002  0.4757219E+02  0.7818608E-02  0.1458894E+00
          1   -1    0    0    0  501  0.00000000000E+00  0.00000000000E+00  0.15069399513E+04  0.15069399513E+04  0.50400000000E-02 0.  1.
         -1   -1    0    0  501    0 -0.00000000000E+00 -0.00000000000E+00 -0.37543152719E+00  0.37546535554E+00  0.50400000000E-02 0.  1.
          2    1    1    2    0  502 -0.18348312399E+02 -0.14302564432E+02  0.59627664276E+03  0.59673030644E+03  0.25500000000E-02 0.  1.
         -2    1    1    2  502    0  0.18348312399E+02  0.14302564432E+02  0.91028787700E+03  0.91058511021E+03  0.25500000000E-02 0.  1.
<mgrwt>
<rscale>  0 0.47572188E+02</rscale>
<asrwt>0</asrwt>
<pdfrwt beam="1">  1        1 0.23183065E+00 0.47572188E+02</pdfrwt>
<pdfrwt beam="2">  1       -1 0.57762861E-04 0.47572188E+02</pdfrwt>
<totfact> 0.58398998E+05</totfact>
</mgrwt>
</event>
<event>
 4    1  0.2051373E-002  0.5169561E+02  0.7818608E-02  0.1436405E+00
          1   -1    0    0    0  501  0.00000000000E+00  0.00000000000E+00  0.46906831436E+02  0.46906831707E+02  0.50400000000E-02 0.  1.
         -1   -1    0    0  501    0 -0.00000000000E+00 -0.00000000000E+00 -0.14243317900E+02  0.14243318791E+02  0.50400000000E-02 0.  1.
          2    1    1    2    0  502  0.24655922924E+02  0.27384749968E+00  0.25503486674E+02  0.35474178873E+02  0.25500000000E-02 0. -1.
         -2    1    1    2  502    0 -0.24655922924E+02 -0.27384749968E+00  0.71600268625E+01  0.25675971625E+02  0.25500000000E-02 0. -1.
<mgrwt>
<rscale>  0 0.51695607E+02</rscale>
<asrwt>0</asrwt>
<pdfrwt beam="1">  1        1 0.72164356E-02 0.51695607E+02</pdfrwt>
<pdfrwt beam="2">  1       -1 0.21912798E-02 0.51695607E+02</pdfrwt>
<totfact> 0.42540364E+05</totfact>
</mgrwt>
</event>
<event>
 4    1  0.2051373E-002  0.6714053E+02  0.7818608E-02  0.1370096E+00
         -1   -1    0    0  501    0 -0.00000000000E+00  0.00000000000E+00  0.71613059776E+00  0.71614833286E+00  0.50400000000E-02 0. -1.
          1   -1    0    0    0  501  0.00000000000E+00 -0.00000000000E+00 -0.15736635771E+04  0.15736635772E+04  0.50400000000E-02 0. -1.
          2    1    1    2    0  502  0.26596779943E+02 -0.14713950401E+02 -0.11206313903E+04  0.11210435326E+04  0.25500000000E-02 0.  1.
         -2    1    1    2  502    0 -0.26596779943E+02  0.14713950401E+02 -0.45231605624E+03  0.45333619288E+03  0.25500000000E-02 0.  1.
<mgrwt>
<rscale>  0 0.67140527E+02</rscale>
<asrwt>0</asrwt>
<pdfrwt beam="2">  1        1 0.24209932E+00 0.67140527E+02</pdfrwt>
<pdfrwt beam="1">  1       -1 0.11017656E-03 0.67140527E+02</pdfrwt>
<totfact> 0.23569414E+05</totfact>
</mgrwt>
</event>
<event>
 4    1  0.2051373E-002  0.4918947E+02  0.7818608E-02  0.1449763E+00
          1   -1    0    0    0  501  0.00000000000E+00  0.00000000000E+00  0.48872606145E+01  0.48872632133E+01  0.50400000000E-02 0. -1.
         -1   -1    0    0  501    0 -0.00000000000E+00 -0.00000000000E+00 -0.12377091773E+03  0.12377091783E+03  0.50400000000E-02 0. -1.
          2    1    1    2    0  502  0.15062022249E+02 -0.18978908953E+02 -0.70488490483E+02  0.74536506468E+02  0.25500000000E-02 0.  1.
         -2    1    1    2  502    0 -0.15062022249E+02  0.18978908953E+02 -0.48395166633E+02  0.54121674579E+02  0.25500000000E-02 0.  1.
<mgrwt>
<rscale>  0 0.49189467E+02</rscale>
<asrwt>0</asrwt>
<pdfrwt beam="1">  1        1 0.75188655E-03 0.49189467E+02</pdfrwt>
<pdfrwt beam="2">  1       -1 0.19041677E-01 0.49189467E+02</pdfrwt>
<totfact> 0.37304928E+05</totfact>
</mgrwt>
</event>
<event>
 4    1  0.2051373E-002  0.4855790E+02  0.7818608E-02  0.1453279E+00
          1   -1    0    0    0  501  0.00000000000E+00  0.00000000000E+00  0.38415435157E+02  0.38415435487E+02  0.50400000000E-02 0.  1.
         -1   -1    0    0  501    0 -0.00000000000E+00 -0.00000000000E+00 -0.15344548196E+02  0.15344549024E+02  0.50400000000E-02 0.  1.
          2    1    1    2    0  502  0.13389606420E+02  0.18549401072E+02  0.20537020197E+02  0.30742983675E+02  0.25500000000E-02 0.  1.
         -2    1    1    2  502    0 -0.13389606420E+02 -0.18549401072E+02  0.25338667641E+01  0.23017000836E+02  0.25500000000E-02 0.  1.
<mgrwt>
<rscale>  0 0.48557905E+02</rscale>
<asrwt>0</asrwt>
<pdfrwt beam="1">  1        1 0.59100670E-02 0.48557905E+02</pdfrwt>
<pdfrwt beam="2">  1       -1 0.23606998E-02 0.48557905E+02</pdfrwt>
<totfact> 0.49007638E+05</totfact>
</mgrwt>
</event>
<event>
 4    1  0.2051373E-002  0.7629381E+02  0.7818608E-02  0.1339911E+00
         -1   -1    0    0  501    0 -0.00000000000E+00  0.00000000000E+00  0.13659372941E+02  0.13659373871E+02  0.50400000000E-02 0.  1.
          1   -1    0    0    0  501  0.00000000000E+00 -0.00000000000E+00 -0.10653389415E+03  0.10653389427E+03  0.50400000000E-02 0.  1.
          2    1    1    2    0  502  0.11874571384E+02 -0.31212123849E+02 -0.75485524221E+02  0.82542513253E+02  0.25500000000E-02 0.  1.
         -2    1    1    2  502    0 -0.11874571384E+02  0.31212123849E+02 -0.17388996986E+02  0.37650754885E+02  0.25500000000E-02 0.  1.
<mgrwt>
<rscale>  0 0.76293807E+02</rscale>
<asrwt>0</asrwt>
<pdfrwt beam="2">  1        1 0.16389829E-01 0.76293807E+02</pdfrwt>
<pdfrwt beam="1">  1       -1 0.21014421E-02 0.76293807E+02</pdfrwt>
<totfact> 0.17048171E+05</totfact>
</mgrwt>
</event>
<event>
 4    1  0.2051373E-002  0.4482200E+02  0.7818608E-02  0.1475456E+00
         -1   -1    0    0  501    0 -0.00000000000E+00  0.00000000000E+00  0.17853050733E+02  0.17853051444E+02  0.50400000000E-02 0.  1.
          1   -1    0    0    0  501  0.00000000000E+00 -0.00000000000E+00 -0.28132603604E+02  0.28132604056E+02  0.50400000000E-02 0.  1.
          2    1    1    2    0  502  0.22247145873E+01 -0.19930598234E+02  0.51236737829E+01  0.20698554068E+02  0.25500000000E-02 0.  1.
         -2    1    1    2  502    0 -0.22247145873E+01  0.19930598234E+02 -0.15403226654E+02  0.25287101432E+02  0.25500000000E-02 0.  1.
<mgrwt>
<rscale>  0 0.44821996E+02</rscale>
<asrwt>0</asrwt>
<pdfrwt beam="2">  1        1 0.43280930E-02 0.44821996E+02</pdfrwt>
<pdfrwt beam="1">  1       -1 0.27466233E-02 0.44821996E+02</pdfrwt>
<totfact> 0.58540541E+05</totfact>
</mgrwt>
</event>
<event>
 4    1  0.2051373E-002  0.1293459E+03  0.7818608E-02  0.1228429E+00
          1   -1    0    0    0  501  0.00000000000E+00  0.00000000000E+00  0.20406122285E+02  0.20406122908E+02  0.50400000000E-02 0.  1.
         -1   -1    0    0  501    0 -0.00000000000E+00 -0.00000000000E+00 -0.20496758227E+03  0.20496758233E+03  0.50400000000E-02 0.  1.
          2    1    1    2    0  502 -0.21583494728E+02  0.11091163328E+02  0.12172839392E+02  0.27148465408E+02  0.25500000000E-02 0. -1.
         -2    1    1    2  502    0  0.21583494728E+02 -0.11091163328E+02 -0.19673429937E+03  0.19822523983E+03  0.25500000000E-02 0. -1.
<mgrwt>
<rscale>  0 0.12934595E+03</rscale>
<asrwt>0</asrwt>
<pdfrwt beam="1">  1        1 0.31394036E-02 0.12934595E+03</pdfrwt>
<pdfrwt beam="2">  1       -1 0.31533473E-01 0.12934595E+03</pdfrwt>
<totfact> 0.27480416E+04</totfact>
</mgrwt>
</event>
<event>
 4    1  0.2051373E-002  0.5381393E+02  0.7818608E-02  0.1425793E+00
         -1   -1    0    0  501    0 -0.00000000000E+00  0.00000000000E+00  0.90032172595E+00  0.90033583279E+00  0.50400000000E-02 0.  1.
          1   -1    0    0    0  501  0.00000000000E+00 -0.00000000000E+00 -0.80413387315E+03  0.80413387317E+03  0.50400000000E-02 0.  1.
          2    1    1    2    0  502 -0.15245445199E+02 -0.21945054236E+02 -0.44886603232E+03  0.44966067649E+03  0.25500000000E-02 0.  1.
         -2    1    1    2  502    0  0.15245445199E+02  0.21945054236E+02 -0.35436751911E+03  0.35537353251E+03  0.25500000000E-02 0.  1.
<mgrwt>
<rscale>  0 0.53813934E+02</rscale>
<asrwt>0</asrwt>
<pdfrwt beam="2">  1        1 0.12371233E+00 0.53813934E+02</pdfrwt>
<pdfrwt beam="1">  1       -1 0.13851276E-03 0.53813934E+02</pdfrwt>
<totfact> 0.54864744E+05</totfact>
</mgrwt>
</event>
<event>
 4    1  0.2051373E-002  0.4649790E+02  0.7818608E-02  0.1465201E+00
         -1   -1    0    0  501    0 -0.00000000000E+00  0.00000000000E+00  0.77306142167E+01  0.77306158596E+01  0.50400000000E-02 0. -1.
          1   -1    0    0    0  501  0.00000000000E+00 -0.00000000000E+00 -0.69918587938E+02  0.69918588119E+02  0.50400000000E-02 0. -1.
          2    1    1    2    0  502  0.16174746084E+02  0.13346360308E+02 -0.14330646594E+02  0.25399117754E+02  0.25500000000E-02 0. -1.
         -2    1    1    2  502    0 -0.16174746084E+02 -0.13346360308E+02 -0.47857327127E+02  0.52250086225E+02  0.25500000000E-02 0. -1.
<mgrwt>
<rscale>  0 0.46497901E+02</rscale>
<asrwt>0</asrwt>
<pdfrwt beam="2">  1        1 0.10756706E-01 0.46497901E+02</pdfrwt>
<pdfrwt beam="1">  1       -1 0.11893255E-02 0.46497901E+02</pdfrwt>
<totfact> 0.58033941E+05</totfact>
</mgrwt>
</event>
<event>
 4    1  0.2051373E-002  0.5787376E+02  0.7818608E-02  0.1406978E+00
         -1   -1    0    0  501    0 -0.00000000000E+00  0.00000000000E+00  0.11625577780E+01  0.11625687028E+01  0.50400000000E-02 0. -1.
          1   -1    0    0    0  501  0.00000000000E+00 -0.00000000000E+00 -0.72025593683E+03  0.72025593685E+03  0.50400000000E-02 0. -1.
          2    1    1    2    0  502 -0.14169717660E+02 -0.24806147272E+02 -0.30212843084E+03  0.30347605271E+03  0.25500000000E-02 0.  1.
         -2    1    1    2  502    0  0.14169717660E+02  0.24806147272E+02 -0.41696494821E+03  0.41794245284E+03  0.25500000000E-02 0.  1.
<mgrwt>
<rscale>  0 0.57873762E+02</rscale>
<asrwt>0</asrwt>
<pdfrwt beam="2">  1        1 0.11080825E+00 0.57873762E+02</pdfrwt>
<pdfrwt beam="1">  1       -1 0.17885646E-03 0.57873762E+02</pdfrwt>
<totfact> 0.46002337E+05</totfact>
</mgrwt>
</event>
<event>
 4    1  0.2051373E-002  0.4564402E+02  0.7818608E-02  0.1470361E+00
         -1   -1    0    0  501    0 -0.00000000000E+00  0.00000000000E+00  0.80413175477E+01  0.80413191272E+01  0.50400000000E-02 0. -1.
          1   -1    0    0    0  501  0.00000000000E+00 -0.00000000000E+00 -0.64770989695E+02  0.64770989891E+02  0.50400000000E-02 0. -1.
          2    1    1    2    0  502 -0.50905778604E+01 -0.20372293776E+02 -0.14105680681E+02  0.25296532778E+02  0.25500000000E-02 0. -1.
         -2    1    1    2  502    0  0.50905778604E+01  0.20372293776E+02 -0.42623991467E+02  0.47515776240E+02  0.25500000000E-02 0. -1.
<mgrwt>
<rscale>  0 0.45644021E+02</rscale>
<asrwt>0</asrwt>
<pdfrwt beam="2">  1        1 0.99647675E-02 0.45644021E+02</pdfrwt>
<pdfrwt beam="1">  1       -1 0.12371260E-02 0.45644021E+02</pdfrwt>
<totfact> 0.60299523E+05</totfact>
</mgrwt>
</event>
<event>
 4    1  0.2051373E-002  0.4524056E+02  0.7818608E-02  0.1472845E+00
         -1   -1    0    0  501    0 -0.00000000000E+00  0.00000000000E+00  0.15886606455E+01  0.15886686401E+01  0.50400000000E-02 0.  1.
          1   -1    0    0    0  501  0.00000000000E+00 -0.00000000000E+00 -0.32207995207E+03  0.32207995211E+03  0.50400000000E-02 0.  1.
          2    1    1    2    0  502  0.13348305247E+02 -0.17058019745E+02 -0.11359169774E+03  0.11563834611E+03  0.25500000000E-02 0.  1.
         -2    1    1    2  502    0 -0.13348305247E+02  0.17058019745E+02 -0.20689959369E+03  0.20803027464E+03  0.25500000000E-02 0.  1.
<mgrwt>
<rscale>  0 0.45240559E+02</rscale>
<asrwt>0</asrwt>
<pdfrwt beam="2">  1        1 0.49550710E-01 0.45240559E+02</pdfrwt>
<pdfrwt beam="1">  1       -1 0.24441021E-03 0.45240559E+02</pdfrwt>
<totfact> 0.78282706E+05</totfact>
</mgrwt>
</event>
<event>
 4    1  0.2051373E-002  0.4760127E+02  0.7818608E-02  0.1458726E+00
         -1   -1    0    0  501    0 -0.00000000000E+00  0.00000000000E+00  0.55598824375E+01  0.55598847218E+01  0.50400000000E-02 0. -1.
          1   -1    0    0    0  501  0.00000000000E+00 -0.00000000000E+00 -0.10188526756E+03  0.10188526769E+03  0.50400000000E-02 0. -1.
          2    1    1    2    0  502  0.18379670915E+01  0.22975853050E+02 -0.61554947774E+02  0.65728833463E+02  0.25500000000E-02 0.  1.
         -2    1    1    2  502    0 -0.18379670915E+01 -0.22975853050E+02 -0.34770437353E+02  0.41716318949E+02  0.25500000000E-02 0.  1.
<mgrwt>
<rscale>  0 0.47601271E+02</rscale>
<asrwt>0</asrwt>
<pdfrwt beam="2">  1        1 0.15674655E-01 0.47601271E+02</pdfrwt>
<pdfrwt beam="1">  1       -1 0.85536679E-03 0.47601271E+02</pdfrwt>
<totfact> 0.57281200E+05</totfact>
</mgrwt>
</event>
<event>
 4    1  0.2051373E-002  0.4593185E+02  0.7818608E-02  0.1468607E+00
         -1   -1    0    0  501    0 -0.00000000000E+00  0.00000000000E+00  0.34997759030E+00  0.35001387874E+00  0.50400000000E-02 0. -1.
          1   -1    0    0    0  501  0.00000000000E+00 -0.00000000000E+00 -0.15069721100E+04  0.15069721100E+04  0.50400000000E-02 0. -1.
          2    1    1    2    0  502  0.22191415537E+02  0.58780381728E+01 -0.77466853484E+03  0.77500861230E+03  0.25500000000E-02 0.  1.
         -2    1    1    2  502    0 -0.22191415537E+02 -0.58780381728E+01 -0.73195359755E+03  0.73231351157E+03  0.25500000000E-02 0.  1.
<mgrwt>
<rscale>  0 0.45931855E+02</rscale>
<asrwt>0</asrwt>
<pdfrwt beam="2">  1        1 0.23183667E+00 0.45931855E+02</pdfrwt>
<pdfrwt beam="1">  1       -1 0.53846705E-04 0.45931855E+02</pdfrwt>
<totfact> 0.63699628E+05</totfact>
</mgrwt>
</event>
<event>
 4    1  0.2051373E-002  0.5347722E+02  0.7818608E-02  0.1427441E+00
          1   -1    0    0    0  501  0.00000000000E+00  0.00000000000E+00  0.13145795508E+04  0.13145795508E+04  0.50400000000E-02 0.  1.
         -1   -1    0    0  501    0 -0.00000000000E+00 -0.00000000000E+00 -0.54385298642E+00  0.54387633929E+00  0.50400000000E-02 0.  1.
          2    1    1    2    0  502  0.21964627710E+02 -0.30118509933E+01  0.28941789362E+03  0.29026579762E+03  0.25500000000E-02 0.  1.
         -2    1    1    2  502    0 -0.21964627710E+02  0.30118509933E+01  0.10246178042E+04  0.10248576295E+04  0.25500000000E-02 0.  1.
<mgrwt>
<rscale>  0 0.53477224E+02</rscale>
<asrwt>0</asrwt>
<pdfrwt beam="1">  1        1 0.20224151E+00 0.53477224E+02</pdfrwt>
<pdfrwt beam="2">  1       -1 0.83672109E-04 0.53477224E+02</pdfrwt>
<totfact> 0.47946008E+05</totfact>
</mgrwt>
</event>
<event>
 4    1  0.2051373E-002  0.1151032E+03  0.7818608E-02  0.1251401E+00
         -1   -1    0    0  501    0 -0.00000000000E+00  0.00000000000E+00  0.11090629537E+02  0.11090630682E+02  0.50400000000E-02 0. -1.
          1   -1    0    0    0  501  0.00000000000E+00 -0.00000000000E+00 -0.29864743769E+03  0.29864743773E+03  0.50400000000E-02 0. -1.
          2    1    1    2    0  502  0.18767497442E+02 -0.23046488369E+02 -0.11159472802E+02  0.31747337307E+02  0.25500000000E-02 0. -1.
         -2    1    1    2  502    0 -0.18767497442E+02  0.23046488369E+02 -0.27639733535E+03  0.27799073110E+03  0.25500000000E-02 0. -1.
<mgrwt>
<rscale>  0 0.11510323E+03</rscale>
<asrwt>0</asrwt>
<pdfrwt beam="2">  1        1 0.45945754E-01 0.11510323E+03</pdfrwt>
<pdfrwt beam="1">  1       -1 0.17062510E-02 0.11510323E+03</pdfrwt>
<totfact> 0.68261871E+04</totfact>
</mgrwt>
</event>
<event>
 4    1  0.2051373E-002  0.4180388E+02  0.7818608E-02  0.1495341E+00
         -1   -1    0    0  501    0 -0.00000000000E+00  0.00000000000E+00  0.44966516687E+02  0.44966516969E+02  0.50400000000E-02 0. -1.
          1   -1    0    0    0  501  0.00000000000E+00 -0.00000000000E+00 -0.97159209296E+01  0.97159222368E+01  0.50400000000E-02 0. -1.
          2    1    1    2    0  502 -0.19488125746E+02 -0.73978272081E+01  0.19641707191E+02  0.28641081690E+02  0.25500000000E-02 0.  1.
         -2    1    1    2  502    0  0.19488125746E+02  0.73978272081E+01  0.15608888567E+02  0.26041357516E+02  0.25500000000E-02 0.  1.
<mgrwt>
<rscale>  0 0.41803883E+02</rscale>
<asrwt>0</asrwt>
<pdfrwt beam="2">  1        1 0.14947572E-02 0.41803883E+02</pdfrwt>
<pdfrwt beam="1">  1       -1 0.69179259E-02 0.41803883E+02</pdfrwt>
<totfact> 0.63941917E+05</totfact>
</mgrwt>
</event>
<event>
 4    1  0.2051373E-002  0.4106030E+02  0.7818608E-02  0.1500551E+00
          1   -1    0    0    0  501  0.00000000000E+00  0.00000000000E+00  0.21124146673E+04  0.21124146673E+04  0.50400000000E-02 0.  1.
         -1   -1    0    0  501    0 -0.00000000000E+00 -0.00000000000E+00 -0.19949677238E+00  0.19956042641E+00  0.50400000000E-02 0.  1.
          2    1    1    2    0  502  0.97174417015E+01 -0.17674174346E+02  0.12532550277E+04  0.12534173166E+04  0.25500000000E-02 0.  1.
         -2    1    1    2  502    0 -0.97174417015E+01  0.17674174346E+02  0.85896014277E+03  0.85919691107E+03  0.25500000000E-02 0.  1.
<mgrwt>
<rscale>  0 0.41060305E+02</rscale>
<asrwt>0</asrwt>
<pdfrwt beam="1">  1        1 0.32497202E+00 0.41060305E+02</pdfrwt>
<pdfrwt beam="2">  1       -1 0.30698111E-04 0.41060305E+02</pdfrwt>
<totfact> 0.56482612E+05</totfact>
</mgrwt>
</event>
<event>
 4    1  0.2051373E-002  0.4483654E+02  0.7818608E-02  0.1475365E+00
         -1   -1    0    0  501    0 -0.00000000000E+00  0.00000000000E+00  0.17847996483E+03  0.17847996490E+03  0.50400000000E-02 0. -1.
          1   -1    0    0    0  501  0.00000000000E+00 -0.00000000000E+00 -0.28158811803E+01  0.28158856907E+01  0.50400000000E-02 0. -1.
          2    1    1    2    0  502  0.62958173457E+01 -0.20167633249E+02  0.57517221700E+02  0.61274803512E+02  0.25500000000E-02 0. -1.
         -2    1    1    2  502    0 -0.62958173457E+01  0.20167633249E+02  0.11814686195E+03  0.12002104708E+03  0.25500000000E-02 0. -1.
<mgrwt>
<rscale>  0 0.44836538E+02</rscale>
<asrwt>0</asrwt>
<pdfrwt beam="2">  1        1 0.43321271E-03 0.44836538E+02</pdfrwt>
<pdfrwt beam="1">  1       -1 0.27458465E-01 0.44836538E+02</pdfrwt>
<totfact> 0.43218180E+05</totfact>
</mgrwt>
</event>
<event>
 4    1  0.2051373E-002  0.4831070E+02  0.7818608E-02  0.1454672E+00
          1   -1    0    0    0  501  0.00000000000E+00  0.00000000000E+00  0.94072821708E+01  0.94072835209E+01  0.50400000000E-02 0. -1.
         -1   -1    0    0  501    0 -0.00000000000E+00 -0.00000000000E+00 -0.62024394684E+02  0.62024394888E+02  0.50400000000E-02 0. -1.
          2    1    1    2    0  502  0.61176775419E+01 -0.20974873355E+02 -0.11077672204E+02  0.24496655255E+02  0.25500000000E-02 0.  1.
         -2    1    1    2  502    0 -0.61176775419E+01  0.20974873355E+02 -0.41539440309E+02  0.46935023154E+02  0.25500000000E-02 0.  1.
<mgrwt>
<rscale>  0 0.48310704E+02</rscale>
<asrwt>0</asrwt>
<pdfrwt beam="1">  1        1 0.14472743E-02 0.48310704E+02</pdfrwt>
<pdfrwt beam="2">  1       -1 0.95422144E-02 0.48310704E+02</pdfrwt>
<totfact> 0.43367203E+05</totfact>
</mgrwt>
</event>
<event>
 4    1  0.2051373E-002  0.8878092E+02  0.7818608E-02  0.1305831E+00
          1   -1    0    0    0  501  0.00000000000E+00  0.00000000000E+00  0.18946075931E+02  0.18946076601E+02  0.50400000000E-02 0. -1.
         -1   -1    0    0  501    0 -0.00000000000E+00 -0.00000000000E+00 -0.10400638386E+03  0.10400638398E+03  0.50400000000E-02 0. -1.
          2    1    1    2    0  502  0.37930762307E+02 -0.19083396316E+02 -0.60458779971E+02  0.73879515606E+02  0.25500000000E-02 0. -1.
         -2    1    1    2  502    0 -0.37930762307E+02  0.19083396316E+02 -0.24601527955E+02  0.49072944974E+02  0.25500000000E-02 0. -1.
<mgrwt>
<rscale>  0 0.88780919E+02</rscale>
<asrwt>0</asrwt>
<pdfrwt beam="1">  1        1 0.29147810E-02 0.88780919E+02</pdfrwt>
<pdfrwt beam="2">  1       -1 0.16000982E-01 0.88780919E+02</pdfrwt>
<totfact> 0.86503525E+04</totfact>
</mgrwt>
</event>
<event>
 4    1  0.2051373E-002  0.1301158E+03  0.7818608E-02  0.1227284E+00
          1   -1    0    0    0  501  0.00000000000E+00  0.00000000000E+00  0.26646549000E+04  0.26646549000E+04  0.50400000000E-02 0.  1.
         -1   -1    0    0  501    0 -0.00000000000E+00 -0.00000000000E+00 -0.15883938250E+01  0.15884018209E+01  0.50400000000E-02 0.  1.
          2    1    1    2    0  502  0.15835099332E+02 -0.61054882898E+02  0.10049022408E+04  0.10068798154E+04  0.25500000000E-02 0.  1.
         -2    1    1    2  502    0 -0.15835099332E+02  0.61054882898E+02  0.16581642653E+04  0.16593634864E+04  0.25500000000E-02 0.  1.
<mgrwt>
<rscale>  0 0.13011583E+03</rscale>
<asrwt>0</asrwt>
<pdfrwt beam="1">  1        1 0.40994695E+00 0.13011583E+03</pdfrwt>
<pdfrwt beam="2">  1       -1 0.24436887E-03 0.13011583E+03</pdfrwt>
<totfact> 0.17018999E+04</totfact>
</mgrwt>
</event>
<event>
 4    1  0.2051373E-002  0.4501107E+02  0.7818608E-02  0.1474273E+00
          1   -1    0    0    0  501  0.00000000000E+00  0.00000000000E+00  0.83354079377E+02  0.83354079530E+02  0.50400000000E-02 0.  1.
         -1   -1    0    0  501    0 -0.00000000000E+00 -0.00000000000E+00 -0.60764765952E+01  0.60764786853E+01  0.50400000000E-02 0.  1.
          2    1    1    2    0  502  0.17191952011E+02  0.11816800246E+02  0.55415594961E+02  0.59212229762E+02  0.25500000000E-02 0. -1.
         -2    1    1    2  502    0 -0.17191952011E+02 -0.11816800246E+02  0.21862007821E+02  0.30218328453E+02  0.25500000000E-02 0. -1.
<mgrwt>
<rscale>  0 0.45011075E+02</rscale>
<asrwt>0</asrwt>
<pdfrwt beam="1">  1        1 0.12823703E-01 0.45011075E+02</pdfrwt>
<pdfrwt beam="2">  1       -1 0.93484285E-03 0.45011075E+02</pdfrwt>
<totfact> 0.64241333E+05</totfact>
</mgrwt>
</event>
<event>
 4    1  0.2051373E-002  0.4401664E+02  0.7818608E-02  0.1480576E+00
         -1   -1    0    0  501    0 -0.00000000000E+00  0.00000000000E+00  0.90709337116E+00  0.90710737270E+00  0.50400000000E-02 0. -1.
          1   -1    0    0    0  501  0.00000000000E+00 -0.00000000000E+00 -0.53397204026E+03  0.53397204028E+03  0.50400000000E-02 0. -1.
          2    1    1    2    0  502  0.17875548072E+02 -0.11901571790E+02 -0.32504236457E+03  0.32575101136E+03  0.25500000000E-02 0. -1.
         -2    1    1    2  502    0 -0.17875548072E+02  0.11901571790E+02 -0.20802258232E+03  0.20912813630E+03  0.25500000000E-02 0. -1.
<mgrwt>
<rscale>  0 0.44016645E+02</rscale>
<asrwt>0</asrwt>
<pdfrwt beam="2">  1        1 0.82149295E-01 0.44016645E+02</pdfrwt>
<pdfrwt beam="1">  1       -1 0.13955433E-03 0.44016645E+02</pdfrwt>
<totfact> 0.89775850E+05</totfact>
</mgrwt>
</event>
<event>
 4    1  0.2051373E-002  0.6240758E+02  0.7818608E-02  0.1387997E+00
          1   -1    0    0    0  501  0.00000000000E+00  0.00000000000E+00  0.58781929857E+01  0.58781951464E+01  0.50400000000E-02 0. -1.
         -1   -1    0    0  501    0 -0.00000000000E+00 -0.00000000000E+00 -0.16564211075E+03  0.16564211083E+03  0.50400000000E-02 0. -1.
          2    1    1    2    0  502  0.27540815264E+02  0.11443327330E+02 -0.54658060531E+02  0.62265157458E+02  0.25500000000E-02 0.  1.
         -2    1    1    2  502    0 -0.27540815264E+02 -0.11443327330E+02 -0.10510585724E+03  0.10925514852E+03  0.25500000000E-02 0.  1.
<mgrwt>
<rscale>  0 0.62407579E+02</rscale>
<asrwt>0</asrwt>
<pdfrwt beam="1">  1        1 0.90433768E-03 0.62407579E+02</pdfrwt>
<pdfrwt beam="2">  1       -1 0.25483398E-01 0.62407579E+02</pdfrwt>
<totfact> 0.19319497E+05</totfact>
</mgrwt>
</event>
<event>
 4    1  0.2051373E-002  0.1006701E+03  0.7818608E-02  0.1278893E+00
          1   -1    0    0    0  501  0.00000000000E+00  0.00000000000E+00  0.17024271284E+02  0.17024272031E+02  0.50400000000E-02 0. -1.
         -1   -1    0    0  501    0 -0.00000000000E+00 -0.00000000000E+00 -0.14882382249E+03  0.14882382257E+03  0.50400000000E-02 0. -1.
          2    1    1    2    0  502  0.14271001621E+02 -0.39506477915E+02 -0.20209065368E+02  0.46613620478E+02  0.25500000000E-02 0. -1.
         -2    1    1    2  502    0 -0.14271001621E+02  0.39506477915E+02 -0.11159048583E+03  0.11923447412E+03  0.25500000000E-02 0. -1.
<mgrwt>
<rscale>  0 0.10067010E+03</rscale>
<asrwt>0</asrwt>
<pdfrwt beam="1">  1        1 0.26191188E-02 0.10067010E+03</pdfrwt>
<pdfrwt beam="2">  1       -1 0.22895972E-01 0.10067010E+03</pdfrwt>
<totfact> 0.57900157E+04</totfact>
</mgrwt>
</event>
<event>
 4    1  0.2051373E-002  0.4796988E+02  0.7818608E-02  0.1456609E+00
         -1   -1    0    0  501    0 -0.00000000000E+00  0.00000000000E+00  0.23275573208E+01  0.23275627775E+01  0.50400000000E-02 0. -1.
          1   -1    0    0    0  501  0.00000000000E+00 -0.00000000000E+00 -0.24715894996E+03  0.24715895001E+03  0.50400000000E-02 0. -1.
          2    1    1    2    0  502 -0.13637615268E+01 -0.20435387826E+02 -0.57495557620E+02  0.61034449892E+02  0.25500000000E-02 0.  1.
         -2    1    1    2  502    0  0.13637615268E+01  0.20435387826E+02 -0.18733583502E+03  0.18845206290E+03  0.25500000000E-02 0.  1.
<mgrwt>
<rscale>  0 0.47969878E+02</rscale>
<asrwt>0</asrwt>
<pdfrwt beam="2">  1        1 0.38024433E-01 0.47969878E+02</pdfrwt>
<pdfrwt beam="1">  1       -1 0.35808636E-03 0.47969878E+02</pdfrwt>
<totfact> 0.64675057E+05</totfact>
</mgrwt>
</event>
<event>
 4    1  0.2051373E-002  0.5391582E+02  0.7818608E-02  0.1425297E+00
          1   -1    0    0    0  501  0.00000000000E+00  0.00000000000E+00  0.13026050599E+02  0.13026051574E+02  0.50400000000E-02 0.  1.
         -1   -1    0    0  501    0 -0.00000000000E+00 -0.00000000000E+00 -0.55790421420E+02  0.55790421648E+02  0.50400000000E-02 0.  1.
          2    1    1    2    0  502  0.22123675885E+02  0.14798955694E+02 -0.26836741893E+02  0.37797841820E+02  0.25500000000E-02 0. -1.
         -2    1    1    2  502    0 -0.22123675885E+02 -0.14798955694E+02 -0.15927628928E+02  0.31018631402E+02  0.25500000000E-02 0. -1.
<mgrwt>
<rscale>  0 0.53915819E+02</rscale>
<asrwt>0</asrwt>
<pdfrwt beam="1">  1        1 0.20040079E-02 0.53915819E+02</pdfrwt>
<pdfrwt beam="2">  1       -1 0.85831417E-02 0.53915819E+02</pdfrwt>
<totfact> 0.33509485E+05</totfact>
</mgrwt>
</event>
<event>
 4    1  0.2051373E-002  0.5530817E+02  0.7818608E-02  0.1418647E+00
          1   -1    0    0    0  501  0.00000000000E+00  0.00000000000E+00  0.40682330411E+03  0.40682330414E+03  0.50400000000E-02 0.  1.
         -1   -1    0    0  501    0 -0.00000000000E+00 -0.00000000000E+00 -0.18798016888E+01  0.18798084452E+01  0.50400000000E-02 0.  1.
          2    1    1    2    0  502  0.26273126369E+02 -0.75819409988E+01  0.23292670894E+03  0.23452636257E+03  0.25500000000E-02 0.  1.
         -2    1    1    2  502    0 -0.26273126369E+02  0.75819409988E+01  0.17201679349E+03  0.17417675002E+03  0.25500000000E-02 0.  1.
<mgrwt>
<rscale>  0 0.55308174E+02</rscale>
<asrwt>0</asrwt>
<pdfrwt beam="1">  1        1 0.62588233E-01 0.55308174E+02</pdfrwt>
<pdfrwt beam="2">  1       -1 0.28920064E-03 0.55308174E+02</pdfrwt>
<totfact> 0.49285636E+05</totfact>
</mgrwt>
</event>
<event>
 4    1  0.2051373E-002  0.6206315E+02  0.7818608E-02  0.1389372E+00
         -1   -1    0    0  501    0 -0.00000000000E+00  0.00000000000E+00  0.15091809088E+01  0.15091893245E+01  0.50400000000E-02 0.  1.
          1   -1    0    0    0  501  0.00000000000E+00 -0.00000000000E+00 -0.63806535922E+03  0.63806535924E+03  0.50400000000E-02 0.  1.
          2    1    1    2    0  502 -0.22462405416E+02  0.32115013752E+01 -0.10013688441E+03  0.10267555223E+03  0.25500000000E-02 0. -1.
         -2    1    1    2  502    0  0.22462405416E+02 -0.32115013752E+01 -0.53641929389E+03  0.53689899634E+03  0.25500000000E-02 0. -1.
<mgrwt>
<rscale>  0 0.62063154E+02</rscale>
<asrwt>0</asrwt>
<pdfrwt beam="2">  1        1 0.98163687E-01 0.62063154E+02</pdfrwt>
<pdfrwt beam="1">  1       -1 0.23218284E-03 0.62063154E+02</pdfrwt>
<totfact> 0.38529436E+05</totfact>
</mgrwt>
</event>
<event>
 4    1  0.2051373E-002  0.5914548E+02  0.7818608E-02  0.1401453E+00
          1   -1    0    0    0  501  0.00000000000E+00  0.00000000000E+00  0.15835335538E+04  0.15835335538E+04  0.50400000000E-02 0. -1.
         -1   -1    0    0  501    0 -0.00000000000E+00 -0.00000000000E+00 -0.55226412344E+00  0.55228712065E+00  0.50400000000E-02 0. -1.
          2    1    1    2    0  502  0.20980463085E+02  0.18720684185E+02  0.10368181492E+04  0.10371993629E+04  0.25500000000E-02 0.  1.
         -2    1    1    2  502    0 -0.20980463085E+02 -0.18720684185E+02  0.54616314050E+03  0.54688647806E+03  0.25500000000E-02 0.  1.
<mgrwt>
<rscale>  0 0.59145481E+02</rscale>
<asrwt>0</asrwt>
<pdfrwt beam="1">  1        1 0.24361504E+00 0.59145481E+02</pdfrwt>
<pdfrwt beam="2">  1       -1 0.84967403E-04 0.59145481E+02</pdfrwt>
<totfact> 0.32401002E+05</totfact>
</mgrwt>
</event>
<event>
 4    1  0.2051373E-002  0.1876479E+03  0.7818608E-02  0.1160600E+00
         -1   -1    0    0  501    0 -0.00000000000E+00  0.00000000000E+00  0.46980729610E+02  0.46980729880E+02  0.50400000000E-02 0.  1.
          1   -1    0    0    0  501  0.00000000000E+00 -0.00000000000E+00 -0.18737337129E+03  0.18737337136E+03  0.50400000000E-02 0.  1.
          2    1    1    2    0  502  0.89522742372E+02 -0.26590651080E+02 -0.81474794090E+02  0.12393355561E+03  0.25500000000E-02 0. -1.
         -2    1    1    2  502    0 -0.89522742372E+02  0.26590651080E+02 -0.58917847593E+02  0.11042054563E+03  0.25500000000E-02 0. -1.
<mgrwt>
<rscale>  0 0.18764794E+03</rscale>
<asrwt>0</asrwt>
<pdfrwt beam="2">  1        1 0.28826672E-01 0.18764794E+03</pdfrwt>
<pdfrwt beam="1">  1       -1 0.72278047E-02 0.18764794E+03</pdfrwt>
<totfact> 0.15404189E+04</totfact>
</mgrwt>
</event>
<event>
 4    1  0.2051373E-002  0.6302309E+02  0.7818608E-02  0.1385566E+00
          1   -1    0    0    0  501  0.00000000000E+00  0.00000000000E+00  0.21475462422E+03  0.21475462427E+03  0.50400000000E-02 0.  1.
         -1   -1    0    0  501    0 -0.00000000000E+00 -0.00000000000E+00 -0.46237748290E+01  0.46237775758E+01  0.50400000000E-02 0.  1.
          2    1    1    2    0  502 -0.24897264167E+02 -0.19224504602E+02  0.11159805492E+03  0.11594645837E+03  0.25500000000E-02 0. -1.
         -2    1    1    2  502    0  0.24897264167E+02  0.19224504602E+02  0.98532794467E+02  0.10343194348E+03  0.25500000000E-02 0. -1.
<mgrwt>
<rscale>  0 0.63023086E+02</rscale>
<asrwt>0</asrwt>
<pdfrwt beam="1">  1        1 0.33039167E-01 0.63023086E+02</pdfrwt>
<pdfrwt beam="2">  1       -1 0.71135032E-03 0.63023086E+02</pdfrwt>
<totfact> 0.31638566E+05</totfact>
</mgrwt>
</event>
<event>
 4    1  0.2051373E-002  0.1062981E+03  0.7818608E-02  0.1267583E+00
          1   -1    0    0    0  501  0.00000000000E+00  0.00000000000E+00  0.38768032341E+02  0.38768032668E+02  0.50400000000E-02 0.  1.
         -1   -1    0    0  501    0 -0.00000000000E+00 -0.00000000000E+00 -0.72864716162E+02  0.72864716337E+02  0.50400000000E-02 0.  1.
          2    1    1    2    0  502 -0.31884987656E+02 -0.39857374441E+02 -0.14871920573E+01  0.51063435861E+02  0.25500000000E-02 0. -1.
         -2    1    1    2  502    0  0.31884987656E+02  0.39857374441E+02 -0.32609491764E+02  0.60569313144E+02  0.25500000000E-02 0. -1.
<mgrwt>
<rscale>  0 0.10629810E+03</rscale>
<asrwt>0</asrwt>
<pdfrwt beam="1">  1        1 0.59643127E-02 0.10629810E+03</pdfrwt>
<pdfrwt beam="2">  1       -1 0.11209956E-01 0.10629810E+03</pdfrwt>
<totfact> 0.58086538E+04</totfact>
</mgrwt>
</event>
<event>
 4    1  0.2051373E-002  0.4804050E+02  0.7818608E-02  0.1456206E+00
         -1   -1    0    0  501    0 -0.00000000000E+00  0.00000000000E+00  0.12666709577E+01  0.12666809846E+01  0.50400000000E-02 0. -1.
          1   -1    0    0    0  501  0.00000000000E+00 -0.00000000000E+00 -0.45550119452E+03  0.45550119455E+03  0.50400000000E-02 0. -1.
          2    1    1    2    0  502 -0.22696525658E+02 -0.77628376092E+01 -0.21517159912E+03  0.21650452882E+03  0.25500000000E-02 0. -1.
         -2    1    1    2  502    0  0.22696525658E+02  0.77628376092E+01 -0.23906292445E+03  0.24026334672E+03  0.25500000000E-02 0. -1.
<mgrwt>
<rscale>  0 0.48040501E+02</rscale>
<asrwt>0</asrwt>
<pdfrwt beam="2">  1        1 0.70076977E-01 0.48040501E+02</pdfrwt>
<pdfrwt beam="1">  1       -1 0.19487359E-03 0.48040501E+02</pdfrwt>
<totfact> 0.71157923E+05</totfact>
</mgrwt>
</event>
<event>
 4    1  0.2051373E-002  0.6112115E+02  0.7818608E-02  0.1393186E+00
          1   -1    0    0    0  501  0.00000000000E+00  0.00000000000E+00  0.48801153876E+03  0.48801153879E+03  0.50400000000E-02 0. -1.
         -1   -1    0    0  501    0 -0.00000000000E+00 -0.00000000000E+00 -0.19137808993E+01  0.19137875358E+01  0.50400000000E-02 0. -1.
          2    1    1    2    0  502  0.14616110813E+02 -0.17534976525E+02  0.40591496578E+03  0.40655634978E+03  0.25500000000E-02 0.  1.
         -2    1    1    2  502    0 -0.14616110813E+02  0.17534976525E+02  0.80182792080E+02  0.83368976539E+02  0.25500000000E-02 0.  1.
<mgrwt>
<rscale>  0 0.61121152E+02</rscale>
<asrwt>0</asrwt>
<pdfrwt beam="1">  1        1 0.75078879E-01 0.61121152E+02</pdfrwt>
<pdfrwt beam="2">  1       -1 0.29442764E-03 0.61121152E+02</pdfrwt>
<totfact> 0.39229859E+05</totfact>
</mgrwt>
</event>
<event>
 4    1  0.2051373E-002  0.5584666E+02  0.7818608E-02  0.1416137E+00
          1   -1    0    0    0  501  0.00000000000E+00  0.00000000000E+00  0.10727191703E+01  0.10727310101E+01  0.50400000000E-02 0.  1.
         -1   -1    0    0  501    0 -0.00000000000E+00 -0.00000000000E+00 -0.72685200513E+03  0.72685200515E+03  0.50400000000E-02 0.  1.
          2    1    1    2    0  502 -0.27772245580E+01 -0.27667240898E+02 -0.39618007302E+03  0.39715467951E+03  0.25500000000E-02 0.  1.
         -2    1    1    2  502    0  0.27772245580E+01  0.27667240898E+02 -0.32959921294E+03  0.33077005665E+03  0.25500000000E-02 0.  1.
<mgrwt>
<rscale>  0 0.55846661E+02</rscale>
<asrwt>0</asrwt>
<pdfrwt beam="1">  1        1 0.16503521E-03 0.55846661E+02</pdfrwt>
<pdfrwt beam="2">  1       -1 0.11182299E+00 0.55846661E+02</pdfrwt>
<totfact> 0.12566813E+05</totfact>
</mgrwt>
</event>
<event>
 4    1  0.2051373E-002  0.5147394E+02  0.7818608E-02  0.1437550E+00
          1   -1    0    0    0  501  0.00000000000E+00  0.00000000000E+00  0.11516407562E+04  0.11516407562E+04  0.50400000000E-02 0.  1.
         -1   -1    0    0  501    0 -0.00000000000E+00 -0.00000000000E+00 -0.57516113177E+00  0.57518321351E+00  0.50400000000E-02 0.  1.
          2    1    1    2    0  502  0.11256253365E+00 -0.24457300153E+02  0.39615034241E+03  0.39690460567E+03  0.25500000000E-02 0.  1.
         -2    1    1    2  502    0 -0.11256253365E+00  0.24457300153E+02  0.75491525269E+03  0.75531133379E+03  0.25500000000E-02 0.  1.
<mgrwt>
<rscale>  0 0.51473944E+02</rscale>
<asrwt>0</asrwt>
<pdfrwt beam="1">  1        1 0.17717571E+00 0.51473944E+02</pdfrwt>
<pdfrwt beam="2">  1       -1 0.88487922E-04 0.51473944E+02</pdfrwt>
<totfact> 0.56320381E+05</totfact>
</mgrwt>
</event>
<event>
 4    1  0.2051373E-002  0.9525111E+02  0.7818608E-02  0.1290612E+00
         -1   -1    0    0  501    0 -0.00000000000E+00  0.00000000000E+00  0.18085674266E+02  0.18085674968E+02  0.50400000000E-02 0.  1.
          1   -1    0    0    0  501  0.00000000000E+00 -0.00000000000E+00 -0.12541382454E+03  0.12541382464E+03  0.50400000000E-02 0.  1.
          2    1    1    2    0  502 -0.27229974096E+02 -0.56214897330E+01  0.45889517985E+01  0.28180332170E+02  0.25500000000E-02 0. -1.
         -2    1    1    2  502    0  0.27229974096E+02  0.56214897330E+01 -0.11191710207E+03  0.11531916744E+03  0.25500000000E-02 0. -1.
<mgrwt>
<rscale>  0 0.95251113E+02</rscale>
<asrwt>0</asrwt>
<pdfrwt beam="2">  1        1 0.19294434E-01 0.95251113E+02</pdfrwt>
<pdfrwt beam="1">  1       -1 0.27824116E-02 0.95251113E+02</pdfrwt>
<totfact> 0.96408469E+04</totfact>
</mgrwt>
</event>
<event>
 4    1  0.2051373E-002  0.8444445E+02  0.7818608E-02  0.1316892E+00
         -1   -1    0    0  501    0 -0.00000000000E+00  0.00000000000E+00  0.18763330338E+01  0.18763398028E+01  0.50400000000E-02 0. -1.
          1   -1    0    0    0  501  0.00000000000E+00 -0.00000000000E+00 -0.95010483637E+03  0.95010483638E+03  0.50400000000E-02 0. -1.
          2    1    1    2    0  502  0.10995597233E+02  0.33226183148E+02 -0.20785193911E+03  0.21077787124E+03  0.25500000000E-02 0.  1.
         -2    1    1    2  502    0 -0.10995597233E+02 -0.33226183148E+02 -0.74037656423E+03  0.74120330495E+03  0.25500000000E-02 0.  1.
<mgrwt>
<rscale>  0 0.84444451E+02</rscale>
<asrwt>0</asrwt>
<pdfrwt beam="2">  1        1 0.14616959E+00 0.84444451E+02</pdfrwt>
<pdfrwt beam="1">  1       -1 0.28866790E-03 0.84444451E+02</pdfrwt>
<totfact> 0.16854037E+05</totfact>
</mgrwt>
</event>
<event>
 4    1  0.2051373E-002  0.5691183E+02  0.7818608E-02  0.1411268E+00
          1   -1    0    0    0  501  0.00000000000E+00  0.00000000000E+00  0.26665471575E+03  0.26665471580E+03  0.50400000000E-02 0. -1.
         -1   -1    0    0  501    0 -0.00000000000E+00 -0.00000000000E+00 -0.30366558551E+01  0.30366600376E+01  0.50400000000E-02 0. -1.
          2    1    1    2    0  502 -0.22130209138E+02 -0.16394098861E+02  0.16572560370E+03  0.16799847726E+03  0.25500000000E-02 0.  1.
         -2    1    1    2  502    0  0.22130209138E+02  0.16394098861E+02  0.97892456199E+02  0.10169289858E+03  0.25500000000E-02 0.  1.
<mgrwt>
<rscale>  0 0.56911833E+02</rscale>
<asrwt>0</asrwt>
<pdfrwt beam="1">  1        1 0.41023808E-01 0.56911833E+02</pdfrwt>
<pdfrwt beam="2">  1       -1 0.46717809E-03 0.56911833E+02</pdfrwt>
<totfact> 0.42682734E+05</totfact>
</mgrwt>
</event>
<event>
 4    1  0.2051373E-002  0.6259841E+02  0.7818608E-02  0.1387240E+00
         -1   -1    0    0  501    0 -0.00000000000E+00  0.00000000000E+00  0.29005742167E+01  0.29005785954E+01  0.50400000000E-02 0. -1.
          1   -1    0    0    0  501  0.00000000000E+00 -0.00000000000E+00 -0.33773984737E+03  0.33773984740E+03  0.50400000000E-02 0. -1.
          2    1    1    2    0  502  0.29331225195E+02 -0.89105771352E+01 -0.20180186628E+03  0.20411690865E+03  0.25500000000E-02 0. -1.
         -2    1    1    2  502    0 -0.29331225195E+02  0.89105771352E+01 -0.13303740687E+03  0.13652351735E+03  0.25500000000E-02 0. -1.
<mgrwt>
<rscale>  0 0.62598410E+02</rscale>
<asrwt>0</asrwt>
<pdfrwt beam="2">  1        1 0.51959946E-01 0.62598410E+02</pdfrwt>
<pdfrwt beam="1">  1       -1 0.44624279E-03 0.62598410E+02</pdfrwt>
<totfact> 0.34933485E+05</totfact>
</mgrwt>
</event>
<event>
 4    1  0.2051373E-002  0.4743647E+02  0.7818608E-02  0.1459680E+00
          1   -1    0    0    0  501  0.00000000000E+00  0.00000000000E+00  0.25074635283E+04  0.25074635283E+04  0.50400000000E-02 0.  1.
         -1   -1    0    0  501    0 -0.00000000000E+00 -0.00000000000E+00 -0.22432377342E+00  0.22438038444E+00  0.50400000000E-02 0.  1.
          2    1    1    2    0  502  0.18865456510E+02  0.12759100147E+02  0.16037006343E+04  0.16038623458E+04  0.25500000000E-02 0.  1.
         -2    1    1    2  502    0 -0.18865456510E+02 -0.12759100147E+02  0.90353857026E+03  0.90382556284E+03  0.25500000000E-02 0.  1.
<mgrwt>
<rscale>  0 0.47436470E+02</rscale>
<asrwt>0</asrwt>
<pdfrwt beam="1">  1        1 0.38572977E+00 0.47436470E+02</pdfrwt>
<pdfrwt beam="2">  1       -1 0.34518735E-04 0.47436470E+02</pdfrwt>
<totfact> 0.28256952E+05</totfact>
</mgrwt>
</event>
<event>
 4    1  0.2051373E-002  0.1202795E+03  0.7818608E-02  0.1242637E+00
          1   -1    0    0    0  501  0.00000000000E+00  0.00000000000E+00  0.78500413185E+03  0.78500413186E+03  0.50400000000E-02 0.  1.
         -1   -1    0    0  501    0 -0.00000000000E+00 -0.00000000000E+00 -0.46073496530E+01  0.46073524096E+01  0.50400000000E-02 0.  1.
          2    1    1    2    0  502  0.39130367677E+02  0.24788916680E+02  0.64199213386E+03  0.64366107231E+03  0.25500000000E-02 0.  1.
         -2    1    1    2  502    0 -0.39130367677E+02 -0.24788916680E+02  0.13840464833E+03  0.14595041196E+03  0.25500000000E-02 0.  1.
<mgrwt>
<rscale>  0 0.12027950E+03</rscale>
<asrwt>0</asrwt>
<pdfrwt beam="1">  1        1 0.12076979E+00 0.12027950E+03</pdfrwt>
<pdfrwt beam="2">  1       -1 0.70882368E-03 0.12027950E+03</pdfrwt>
<totfact> 0.67375757E+04</totfact>
</mgrwt>
</event>
<event>
 4    1  0.2051373E-002  0.4946657E+02  0.7818608E-02  0.1448240E+00
          1   -1    0    0    0  501  0.00000000000E+00  0.00000000000E+00  0.20283408087E+04  0.20283408087E+04  0.50400000000E-02 0.  1.
         -1   -1    0    0  501    0 -0.00000000000E+00 -0.00000000000E+00 -0.30157298070E+00  0.30161509293E+00  0.50400000000E-02 0.  1.
          2    1    1    2    0  502  0.14639174739E+02 -0.19897916886E+02  0.96374275925E+03  0.96405930240E+03  0.25500000000E-02 0.  1.
         -2    1    1    2  502    0 -0.14639174739E+02  0.19897916886E+02  0.10642964764E+04  0.10645831214E+04  0.25500000000E-02 0.  1.
<mgrwt>
<rscale>  0 0.49466575E+02</rscale>
<asrwt>0</asrwt>
<pdfrwt beam="1">  1        1 0.31204289E+00 0.49466575E+02</pdfrwt>
<pdfrwt beam="2">  1       -1 0.46400502E-04 0.49466575E+02</pdfrwt>
<totfact> 0.37859947E+05</totfact>
</mgrwt>
</event>
<event>
 4    1  0.2051373E-002  0.4266821E+02  0.7818608E-02  0.1489447E+00
          1   -1    0    0    0  501  0.00000000000E+00  0.00000000000E+00  0.39830097920E+02  0.39830098239E+02  0.50400000000E-02 0.  1.
         -1   -1    0    0  501    0 -0.00000000000E+00 -0.00000000000E+00 -0.11427138818E+02  0.11427139930E+02  0.50400000000E-02 0.  1.
          2    1    1    2    0  502  0.11793659153E+02 -0.17621816790E+02  0.11377722634E+02  0.24063902469E+02  0.25500000000E-02 0. -1.
         -2    1    1    2  502    0 -0.11793659153E+02  0.17621816790E+02  0.17025236468E+02  0.27193335700E+02  0.25500000000E-02 0. -1.
<mgrwt>
<rscale>  0 0.42668213E+02</rscale>
<asrwt>0</asrwt>
<pdfrwt beam="1">  1        1 0.61277074E-02 0.42668213E+02</pdfrwt>
<pdfrwt beam="2">  1       -1 0.17580215E-02 0.42668213E+02</pdfrwt>
<totfact> 0.68224007E+05</totfact>
</mgrwt>
</event>
<event>
 4    1  0.2051373E-002  0.9361405E+02  0.7818608E-02  0.1294328E+00
         -1   -1    0    0  501    0 -0.00000000000E+00  0.00000000000E+00  0.51978477663E+03  0.51978477665E+03  0.50400000000E-02 0. -1.
          1   -1    0    0    0  501  0.00000000000E+00 -0.00000000000E+00 -0.42150079666E+01  0.42150109798E+01  0.50400000000E-02 0. -1.
          2    1    1    2    0  502 -0.43614528225E+02 -0.83037413463E+00  0.35277361948E+03  0.35546046644E+03  0.25500000000E-02 0. -1.
         -2    1    1    2  502    0  0.43614528225E+02  0.83037413463E+00  0.16279614918E+03  0.16853932120E+03  0.25500000000E-02 0. -1.
<mgrwt>
<rscale>  0 0.93614054E+02</rscale>
<asrwt>0</asrwt>
<pdfrwt beam="2">  1        1 0.64846330E-03 0.93614054E+02</pdfrwt>
<pdfrwt beam="1">  1       -1 0.79966852E-01 0.93614054E+02</pdfrwt>
<totfact> 0.42836095E+04</totfact>
</mgrwt>
</event>
<event>
 4    1  0.2051373E-002  0.4234383E+02  0.7818608E-02  0.1491639E+00
          1   -1    0    0    0  501  0.00000000000E+00  0.00000000000E+00  0.12231707496E+01  0.12231811331E+01  0.50400000000E-02 0.  1.
         -1   -1    0    0  501    0 -0.00000000000E+00 -0.00000000000E+00 -0.36646409931E+03  0.36646409934E+03  0.50400000000E-02 0.  1.
          2    1    1    2    0  502  0.17131794523E+02  0.12435481824E+02 -0.17973418553E+03  0.18097656491E+03  0.25500000000E-02 0. -1.
         -2    1    1    2  502    0 -0.17131794523E+02 -0.12435481824E+02 -0.18550674303E+03  0.18671071557E+03  0.25500000000E-02 0. -1.
<mgrwt>
<rscale>  0 0.42343835E+02</rscale>
<asrwt>0</asrwt>
<pdfrwt beam="1">  1        1 0.18818121E-03 0.42343835E+02</pdfrwt>
<pdfrwt beam="2">  1       -1 0.56379005E-01 0.42343835E+02</pdfrwt>
<totfact> 0.38742084E+05</totfact>
</mgrwt>
</event>
<event>
 4    1  0.2051373E-002  0.4768949E+02  0.7818608E-02  0.1458218E+00
         -1   -1    0    0  501    0 -0.00000000000E+00  0.00000000000E+00  0.25244202890E+01  0.25244253202E+01  0.50400000000E-02 0.  1.
          1   -1    0    0    0  501  0.00000000000E+00 -0.00000000000E+00 -0.22522846915E+03  0.22522846921E+03  0.50400000000E-02 0.  1.
          2    1    1    2    0  502 -0.62031662285E+01 -0.19985105197E+02 -0.16594784336E+03  0.16726198140E+03  0.25500000000E-02 0.  1.
         -2    1    1    2  502    0  0.62031662285E+01  0.19985105197E+02 -0.56756205506E+02  0.60490913127E+02  0.25500000000E-02 0.  1.
<mgrwt>
<rscale>  0 0.47689491E+02</rscale>
<asrwt>0</asrwt>
<pdfrwt beam="2">  1        1 0.34650518E-01 0.47689491E+02</pdfrwt>
<pdfrwt beam="1">  1       -1 0.38837292E-03 0.47689491E+02</pdfrwt>
<totfact> 0.64566423E+05</totfact>
</mgrwt>
</event>
<event>
 4    1  0.2051373E-002  0.4199928E+02  0.7818608E-02  0.1493994E+00
         -1   -1    0    0  501    0 -0.00000000000E+00  0.00000000000E+00  0.22133216119E+02  0.22133216693E+02  0.50400000000E-02 0. -1.
          1   -1    0    0    0  501  0.00000000000E+00 -0.00000000000E+00 -0.19924124476E+02  0.19924125113E+02  0.50400000000E-02 0. -1.
          2    1    1    2    0  502  0.19428364951E+02  0.62226281277E+01  0.60916416388E+01  0.21290621640E+02  0.25500000000E-02 0.  1.
         -2    1    1    2  502    0 -0.19428364951E+02 -0.62226281277E+01 -0.38825499949E+01  0.20766720166E+02  0.25500000000E-02 0.  1.
<mgrwt>
<rscale>  0 0.41999285E+02</rscale>
<asrwt>0</asrwt>
<pdfrwt beam="2">  1        1 0.30652500E-02 0.41999285E+02</pdfrwt>
<pdfrwt beam="1">  1       -1 0.34051103E-02 0.41999285E+02</pdfrwt>
<totfact> 0.67226890E+05</totfact>
</mgrwt>
</event>
<event>
 4    1  0.2051373E-002  0.5882656E+02  0.7818608E-02  0.1402823E+00
         -1   -1    0    0  501    0 -0.00000000000E+00  0.00000000000E+00  0.13507731187E+01  0.13507825213E+01  0.50400000000E-02 0.  1.
          1   -1    0    0    0  501  0.00000000000E+00 -0.00000000000E+00 -0.64047613727E+03  0.64047613728E+03  0.50400000000E-02 0.  1.
          2    1    1    2    0  502  0.24402743060E+02 -0.16295569681E+02 -0.29746655288E+03  0.29891033697E+03  0.25500000000E-02 0.  1.
         -2    1    1    2  502    0 -0.24402743060E+02  0.16295569681E+02 -0.34165881127E+03  0.34291658284E+03  0.25500000000E-02 0.  1.
<mgrwt>
<rscale>  0 0.58826558E+02</rscale>
<asrwt>0</asrwt>
<pdfrwt beam="2">  1        1 0.98534548E-01 0.58826558E+02</pdfrwt>
<pdfrwt beam="1">  1       -1 0.20781249E-03 0.58826558E+02</pdfrwt>
<totfact> 0.44137805E+05</totfact>
</mgrwt>
</event>
<event>
 4    1  0.2051373E-002  0.4637080E+02  0.7818608E-02  0.1465961E+00
         -1   -1    0    0  501    0 -0.00000000000E+00  0.00000000000E+00  0.99359039546E+00  0.99360317811E+00  0.50400000000E-02 0.  1.
          1   -1    0    0    0  501  0.00000000000E+00 -0.00000000000E+00 -0.54102710059E+03  0.54102710061E+03  0.50400000000E-02 0.  1.
          2    1    1    2    0  502 -0.20549991194E+02 -0.91965566822E+01 -0.33476489215E+03  0.33552110487E+03  0.25500000000E-02 0.  1.
         -2    1    1    2  502    0  0.20549991194E+02  0.91965566822E+01 -0.20526861804E+03  0.20649959892E+03  0.25500000000E-02 0.  1.
<mgrwt>
<rscale>  0 0.46370801E+02</rscale>
<asrwt>0</asrwt>
<pdfrwt beam="2">  1        1 0.83234704E-01 0.46370801E+02</pdfrwt>
<pdfrwt beam="1">  1       -1 0.15286148E-03 0.46370801E+02</pdfrwt>
<totfact> 0.79101615E+05</totfact>
</mgrwt>
</event>
<event>
 4    1  0.2051373E-002  0.8554096E+02  0.7818608E-02  0.1314024E+00
         -1   -1    0    0  501    0 -0.00000000000E+00  0.00000000000E+00  0.26236010877E+02  0.26236011361E+02  0.50400000000E-02 0.  1.
          1   -1    0    0    0  501  0.00000000000E+00 -0.00000000000E+00 -0.69725308236E+02  0.69725308418E+02  0.50400000000E-02 0.  1.
          2    1    1    2    0  502  0.12877398784E+02 -0.26868304984E+02 -0.56167819960E+02  0.63581107396E+02  0.25500000000E-02 0. -1.
         -2    1    1    2  502    0 -0.12877398784E+02  0.26868304984E+02  0.12678522602E+02  0.32380212383E+02  0.25500000000E-02 0. -1.
<mgrwt>
<rscale>  0 0.85540960E+02</rscale>
<asrwt>0</asrwt>
<pdfrwt beam="2">  1        1 0.10726970E-01 0.85540960E+02</pdfrwt>
<pdfrwt beam="1">  1       -1 0.40363094E-02 0.85540960E+02</pdfrwt>
<totfact> 0.11747079E+05</totfact>
</mgrwt>
</event>
<event>
 4    1  0.2051373E-002  0.7788570E+02  0.7818608E-02  0.1335161E+00
         -1   -1    0    0  501    0 -0.00000000000E+00  0.00000000000E+00  0.34108652779E+03  0.34108652783E+03  0.50400000000E-02 0.  1.
          1   -1    0    0    0  501  0.00000000000E+00 -0.00000000000E+00 -0.44462176309E+01  0.44462204874E+01  0.50400000000E-02 0.  1.
          2    1    1    2    0  502 -0.36076311243E+02 -0.12770469796E+02  0.13634097599E+03  0.14161019339E+03  0.25500000000E-02 0.  1.
         -2    1    1    2  502    0  0.36076311243E+02  0.12770469796E+02  0.20029933417E+03  0.20392255492E+03  0.25500000000E-02 0.  1.
<mgrwt>
<rscale>  0 0.77885697E+02</rscale>
<asrwt>0</asrwt>
<pdfrwt beam="2">  1        1 0.68403355E-03 0.77885697E+02</pdfrwt>
<pdfrwt beam="1">  1       -1 0.52474862E-01 0.77885697E+02</pdfrwt>
<totfact> 0.86543529E+04</totfact>
</mgrwt>
</event>
<event>
 4    1  0.2051373E-002  0.5727211E+02  0.7818608E-02  0.1409650E+00
         -1   -1    0    0  501    0 -0.00000000000E+00  0.00000000000E+00  0.53758376898E+01  0.53758400524E+01  0.50400000000E-02 0. -1.
          1   -1    0    0    0  501  0.00000000000E+00 -0.00000000000E+00 -0.15253874323E+03  0.15253874332E+03  0.50400000000E-02 0. -1.
          2    1    1    2    0  502  0.22911276059E+02 -0.11915313531E+02 -0.10770062318E+03  0.11075344468E+03  0.25500000000E-02 0.  1.
         -2    1    1    2  502    0 -0.22911276059E+02  0.11915313531E+02 -0.39462282362E+02  0.47161138694E+02  0.25500000000E-02 0.  1.
<mgrwt>
<rscale>  0 0.57272113E+02</rscale>
<asrwt>0</asrwt>
<pdfrwt beam="2">  1        1 0.23467496E-01 0.57272113E+02</pdfrwt>
<pdfrwt beam="1">  1       -1 0.82705226E-03 0.57272113E+02</pdfrwt>
<totfact> 0.38093420E+05</totfact>
</mgrwt>
</event>
<event>
 4    1  0.2051373E-002  0.6008206E+02  0.7818608E-02  0.1397488E+00
         -1   -1    0    0  501    0 -0.00000000000E+00  0.00000000000E+00  0.45857756741E+00  0.45860526266E+00  0.50400000000E-02 0. -1.
          1   -1    0    0    0  501  0.00000000000E+00 -0.00000000000E+00 -0.19679033998E+04  0.19679033998E+04  0.50400000000E-02 0. -1.
          2    1    1    2    0  502  0.25061670265E+02  0.10433545665E+02 -0.56223755059E+03  0.56289253814E+03  0.25500000000E-02 0.  1.
         -2    1    1    2  502    0 -0.25061670265E+02 -0.10433545665E+02 -0.14052072717E+04  0.14054694670E+04  0.25500000000E-02 0.  1.
<mgrwt>
<rscale>  0 0.60082064E+02</rscale>
<asrwt>0</asrwt>
<pdfrwt beam="2">  1        1 0.30274761E+00 0.60082064E+02</pdfrwt>
<pdfrwt beam="1">  1       -1 0.70554102E-04 0.60082064E+02</pdfrwt>
<totfact> 0.24203389E+05</totfact>
</mgrwt>
</event>
<event>
 4    1  0.2051373E-002  0.5939023E+02  0.7818608E-02  0.1400409E+00
         -1   -1    0    0  501    0 -0.00000000000E+00  0.00000000000E+00  0.12705355708E+01  0.12705455672E+01  0.50400000000E-02 0. -1.
          1   -1    0    0    0  501  0.00000000000E+00 -0.00000000000E+00 -0.69403513703E+03  0.69403513705E+03  0.50400000000E-02 0. -1.
          2    1    1    2    0  502 -0.47872335955E+01  0.28544745987E+02 -0.42411074496E+03  0.42509721727E+03  0.25500000000E-02 0.  1.
         -2    1    1    2  502    0  0.47872335955E+01 -0.28544745987E+02 -0.26865385649E+03  0.27020846535E+03  0.25500000000E-02 0.  1.
<mgrwt>
<rscale>  0 0.59390229E+02</rscale>
<asrwt>0</asrwt>
<pdfrwt beam="2">  1        1 0.10677433E+00 0.59390229E+02</pdfrwt>
<pdfrwt beam="1">  1       -1 0.19546834E-03 0.59390229E+02</pdfrwt>
<totfact> 0.43121403E+05</totfact>
</mgrwt>
</event>
<event>
 4    1  0.2051373E-002  0.4855817E+02  0.7818608E-02  0.1453277E+00
          1   -1    0    0    0  501  0.00000000000E+00  0.00000000000E+00  0.38217537003E+01  0.38217570235E+01  0.50400000000E-02 0. -1.
         -1   -1    0    0  501    0 -0.00000000000E+00 -0.00000000000E+00 -0.15424168200E+03  0.15424168208E+03  0.50400000000E-02 0. -1.
          2    1    1    2    0  502 -0.21712266453E+02 -0.77481832109E+01 -0.10000399896E+03  0.10262678340E+03  0.25500000000E-02 0.  1.
         -2    1    1    2  502    0  0.21712266453E+02  0.77481832109E+01 -0.50415929340E+02  0.55436655701E+02  0.25500000000E-02 0.  1.
<mgrwt>
<rscale>  0 0.48558171E+02</rscale>
<asrwt>0</asrwt>
<pdfrwt beam="1">  1        1 0.58796249E-03 0.48558171E+02</pdfrwt>
<pdfrwt beam="2">  1       -1 0.23729485E-01 0.48558171E+02</pdfrwt>
<totfact> 0.36783557E+05</totfact>
</mgrwt>
</event>
<event>
 4    1  0.2051373E-002  0.5222872E+02  0.7818608E-02  0.1433678E+00
          1   -1    0    0    0  501  0.00000000000E+00  0.00000000000E+00  0.21237872593E+02  0.21237873191E+02  0.50400000000E-02 0. -1.
         -1   -1    0    0  501    0 -0.00000000000E+00 -0.00000000000E+00 -0.32110553438E+02  0.32110553833E+02  0.50400000000E-02 0. -1.
          2    1    1    2    0  502 -0.23660308428E+02 -0.14385246757E+01 -0.16629382138E+02  0.28955412360E+02  0.25500000000E-02 0. -1.
         -2    1    1    2  502    0  0.23660308428E+02  0.14385246757E+01  0.57567012940E+01  0.24393014664E+02  0.25500000000E-02 0. -1.
<mgrwt>
<rscale>  0 0.52228723E+02</rscale>
<asrwt>0</asrwt>
<pdfrwt beam="1">  1        1 0.32673651E-02 0.52228723E+02</pdfrwt>
<pdfrwt beam="2">  1       -1 0.49400852E-02 0.52228723E+02</pdfrwt>
<totfact> 0.38431170E+05</totfact>
</mgrwt>
</event>
<event>
 4    1  0.2051373E-002  0.4710326E+02  0.7818608E-02  0.1461623E+00
         -1   -1    0    0  501    0 -0.00000000000E+00  0.00000000000E+00  0.29379196487E+01  0.29379239717E+01  0.50400000000E-02 0. -1.
          1   -1    0    0    0  501  0.00000000000E+00 -0.00000000000E+00 -0.18879983395E+03  0.18879983402E+03  0.50400000000E-02 0. -1.
          2    1    1    2    0  502 -0.91135199629E+01  0.20408291664E+02 -0.12315337588E+03  0.12516512538E+03  0.25500000000E-02 0. -1.
         -2    1    1    2  502    0  0.91135199629E+01 -0.20408291664E+02 -0.62708538419E+02  0.66572632605E+02  0.25500000000E-02 0. -1.
<mgrwt>
<rscale>  0 0.47103255E+02</rscale>
<asrwt>0</asrwt>
<pdfrwt beam="2">  1        1 0.29046119E-01 0.47103255E+02</pdfrwt>
<pdfrwt beam="1">  1       -1 0.45198813E-03 0.47103255E+02</pdfrwt>
<totfact> 0.64591048E+05</totfact>
</mgrwt>
</event>
<event>
 4    1  0.2051373E-002  0.8495776E+02  0.7818608E-02  0.1315543E+00
         -1   -1    0    0  501    0 -0.00000000000E+00  0.00000000000E+00  0.78031695721E+01  0.78031711998E+01  0.50400000000E-02 0.  1.
          1   -1    0    0    0  501  0.00000000000E+00 -0.00000000000E+00 -0.23124644043E+03  0.23124644049E+03  0.50400000000E-02 0.  1.
          2    1    1    2    0  502  0.38525733507E+02  0.17094882069E+02 -0.12660745743E+03  0.13343880777E+03  0.25500000000E-02 0.  1.
         -2    1    1    2  502    0 -0.38525733507E+02 -0.17094882069E+02 -0.96835813425E+02  0.10561080391E+03  0.25500000000E-02 0.  1.
<mgrwt>
<rscale>  0 0.84957763E+02</rscale>
<asrwt>0</asrwt>
<pdfrwt beam="2">  1        1 0.35576370E-01 0.84957763E+02</pdfrwt>
<pdfrwt beam="1">  1       -1 0.12004879E-02 0.84957763E+02</pdfrwt>
<totfact> 0.14701851E+05</totfact>
</mgrwt>
</event>
<event>
 4    1  0.2051373E-002  0.8478068E+02  0.7818608E-02  0.1316007E+00
         -1   -1    0    0  501    0 -0.00000000000E+00  0.00000000000E+00  0.84576950583E+01  0.84576965600E+01  0.50400000000E-02 0.  1.
          1   -1    0    0    0  501  0.00000000000E+00 -0.00000000000E+00 -0.21246221724E+03  0.21246221730E+03  0.50400000000E-02 0.  1.
          2    1    1    2    0  502 -0.39303003600E+02  0.15684476204E+02 -0.10849684131E+03  0.11645726025E+03  0.25500000000E-02 0. -1.
         -2    1    1    2  502    0  0.39303003600E+02 -0.15684476204E+02 -0.95507680871E+02  0.10446265360E+03  0.25500000000E-02 0. -1.
<mgrwt>
<rscale>  0 0.84780677E+02</rscale>
<asrwt>0</asrwt>
<pdfrwt beam="2">  1        1 0.32686491E-01 0.84780677E+02</pdfrwt>
<pdfrwt beam="1">  1       -1 0.13011841E-02 0.84780677E+02</pdfrwt>
<totfact> 0.14545025E+05</totfact>
</mgrwt>
</event>
<event>
 4    1  0.2051373E-002  0.5575585E+02  0.7818608E-02  0.1416558E+00
         -1   -1    0    0  501    0 -0.00000000000E+00  0.00000000000E+00  0.32119909456E+02  0.32119909851E+02  0.50400000000E-02 0. -1.
          1   -1    0    0    0  501  0.00000000000E+00 -0.00000000000E+00 -0.24196169084E+02  0.24196169609E+02  0.50400000000E-02 0. -1.
          2    1    1    2    0  502 -0.21648705166E+02  0.59736256509E+01 -0.12721605407E+02  0.25810654572E+02  0.25500000000E-02 0.  1.
         -2    1    1    2  502    0  0.21648705166E+02 -0.59736256509E+01  0.20645345779E+02  0.30505424888E+02  0.25500000000E-02 0.  1.
<mgrwt>
<rscale>  0 0.55755853E+02</rscale>
<asrwt>0</asrwt>
<pdfrwt beam="2">  1        1 0.37224876E-02 0.55755853E+02</pdfrwt>
<pdfrwt beam="1">  1       -1 0.49415246E-02 0.55755853E+02</pdfrwt>
<totfact> 0.32744837E+05</totfact>
</mgrwt>
</event>
<event>
 4    1  0.2051373E-002  0.1276712E+03  0.7818608E-02  0.1230953E+00
          1   -1    0    0    0  501  0.00000000000E+00  0.00000000000E+00  0.26830887653E+03  0.26830887657E+03  0.50400000000E-02 0.  1.
         -1   -1    0    0  501    0 -0.00000000000E+00 -0.00000000000E+00 -0.15187651702E+02  0.15187652538E+02  0.50400000000E-02 0.  1.
          2    1    1    2    0  502 -0.17049451544E+02 -0.50412166744E+02  0.48276250257E+02  0.71851699348E+02  0.25500000000E-02 0. -1.
         -2    1    1    2  502    0  0.17049451544E+02  0.50412166744E+02  0.20484497457E+03  0.21164482976E+03  0.25500000000E-02 0. -1.
<mgrwt>
<rscale>  0 0.12767117E+03</rscale>
<asrwt>0</asrwt>
<pdfrwt beam="1">  1        1 0.41278290E-01 0.12767117E+03</pdfrwt>
<pdfrwt beam="2">  1       -1 0.23365618E-02 0.12767117E+03</pdfrwt>
<totfact> 0.50209381E+04</totfact>
</mgrwt>
</event>
<event>
 4    1  0.2051373E-002  0.4201574E+02  0.7818608E-02  0.1493881E+00
          1   -1    0    0    0  501  0.00000000000E+00  0.00000000000E+00  0.29521756405E+03  0.29521756409E+03  0.50400000000E-02 0. -1.
         -1   -1    0    0  501    0 -0.00000000000E+00 -0.00000000000E+00 -0.14949292953E+01  0.14949377912E+01  0.50400000000E-02 0. -1.
          2    1    1    2    0  502  0.11358913658E+02 -0.17395633615E+02  0.16885293688E+03  0.17012626866E+03  0.25500000000E-02 0.  1.
         -2    1    1    2  502    0 -0.11358913658E+02  0.17395633615E+02  0.12486969788E+03  0.12658623323E+03  0.25500000000E-02 0.  1.
<mgrwt>
<rscale>  0 0.42015742E+02</rscale>
<asrwt>0</asrwt>
<pdfrwt beam="1">  1        1 0.45418005E-01 0.42015742E+02</pdfrwt>
<pdfrwt beam="2">  1       -1 0.22999020E-03 0.42015742E+02</pdfrwt>
<totfact> 0.92466047E+05</totfact>
</mgrwt>
</event>
<event>
 4    1  0.2051373E-002  0.4183563E+02  0.7818608E-02  0.1495122E+00
         -1   -1    0    0  501    0 -0.00000000000E+00  0.00000000000E+00  0.18233559911E+01  0.18233629567E+01  0.50400000000E-02 0. -1.
          1   -1    0    0    0  501  0.00000000000E+00 -0.00000000000E+00 -0.23997190822E+03  0.23997190827E+03  0.50400000000E-02 0. -1.
          2    1    1    2    0  502  0.15514121781E+02  0.13825749297E+02 -0.10525651452E+03  0.10728827137E+03  0.25500000000E-02 0. -1.
         -2    1    1    2  502    0 -0.15514121781E+02 -0.13825749297E+02 -0.13289203771E+03  0.13450699986E+03  0.25500000000E-02 0. -1.
<mgrwt>
<rscale>  0 0.41835634E+02</rscale>
<asrwt>0</asrwt>
<pdfrwt beam="2">  1        1 0.36918731E-01 0.41835634E+02</pdfrwt>
<pdfrwt beam="1">  1       -1 0.28051704E-03 0.41835634E+02</pdfrwt>
<totfact> 0.90161484E+05</totfact>
</mgrwt>
</event>
<event>
 4    1  0.2051373E-002  0.7158899E+02  0.7818608E-02  0.1354771E+00
          1   -1    0    0    0  501  0.00000000000E+00  0.00000000000E+00  0.29242369446E+02  0.29242369880E+02  0.50400000000E-02 0. -1.
         -1   -1    0    0  501    0 -0.00000000000E+00 -0.00000000000E+00 -0.43814703430E+02  0.43814703720E+02  0.50400000000E-02 0. -1.
          2    1    1    2    0  502  0.29837121992E+02  0.63936109636E+01 -0.26381207252E+02  0.40337330260E+02  0.25500000000E-02 0. -1.
         -2    1    1    2  502    0 -0.29837121992E+02 -0.63936109636E+01  0.11808873268E+02  0.32719743341E+02  0.25500000000E-02 0. -1.
<mgrwt>
<rscale>  0 0.71588987E+02</rscale>
<asrwt>0</asrwt>
<pdfrwt beam="1">  1        1 0.44988261E-02 0.71588987E+02</pdfrwt>
<pdfrwt beam="2">  1       -1 0.67407237E-02 0.71588987E+02</pdfrwt>
<totfact> 0.17032078E+05</totfact>
</mgrwt>
</event>
<event>
 4    1  0.2051373E-002  0.5593548E+02  0.7818608E-02  0.1415726E+00
         -1   -1    0    0  501    0 -0.00000000000E+00  0.00000000000E+00  0.13286992851E+02  0.13286993807E+02  0.50400000000E-02 0.  1.
          1   -1    0    0    0  501  0.00000000000E+00 -0.00000000000E+00 -0.58869188126E+02  0.58869188341E+02  0.50400000000E-02 0.  1.
          2    1    1    2    0  502  0.14258115865E+02  0.22459501402E+02 -0.11658896128E+02  0.29045704272E+02  0.25500000000E-02 0.  1.
         -2    1    1    2  502    0 -0.14258115865E+02 -0.22459501402E+02 -0.33923299146E+02  0.43110477876E+02  0.25500000000E-02 0.  1.
<mgrwt>
<rscale>  0 0.55935482E+02</rscale>
<asrwt>0</asrwt>
<pdfrwt beam="2">  1        1 0.90567981E-02 0.55935482E+02</pdfrwt>
<pdfrwt beam="1">  1       -1 0.20441529E-02 0.55935482E+02</pdfrwt>
<totfact> 0.35551275E+05</totfact>
</mgrwt>
</event>
<event>
 4    1  0.2051373E-002  0.6125575E+02  0.7818608E-02  0.1392636E+00
         -1   -1    0    0  501    0 -0.00000000000E+00  0.00000000000E+00  0.39454126007E+01  0.39454158198E+01  0.50400000000E-02 0. -1.
          1   -1    0    0    0  501  0.00000000000E+00 -0.00000000000E+00 -0.23776129524E+03  0.23776129529E+03  0.50400000000E-02 0. -1.
          2    1    1    2    0  502  0.53114341575E+01  0.30115627010E+02 -0.11018319761E+03  0.11434814981E+03  0.25500000000E-02 0.  1.
         -2    1    1    2  502    0 -0.53114341575E+01 -0.30115627010E+02 -0.12363268503E+03  0.12735856130E+03  0.25500000000E-02 0.  1.
<mgrwt>
<rscale>  0 0.61255753E+02</rscale>
<asrwt>0</asrwt>
<pdfrwt beam="2">  1        1 0.36578650E-01 0.61255753E+02</pdfrwt>
<pdfrwt beam="1">  1       -1 0.60698699E-03 0.61255753E+02</pdfrwt>
<totfact> 0.34665891E+05</totfact>
</mgrwt>
</event>
<event>
 4    1  0.2051373E-002  0.6244722E+02  0.7818608E-02  0.1387840E+00
         -1   -1    0    0  501    0 -0.00000000000E+00  0.00000000000E+00  0.59753823165E+00  0.59755948648E+00  0.50400000000E-02 0. -1.
          1   -1    0    0    0  501  0.00000000000E+00 -0.00000000000E+00 -0.16315215588E+04  0.16315215588E+04  0.50400000000E-02 0. -1.
          2    1    1    2    0  502 -0.14154704882E+02  0.24651871556E+02 -0.11530548790E+04  0.11534052299E+04  0.25500000000E-02 0.  1.
         -2    1    1    2  502    0  0.14154704882E+02 -0.24651871556E+02 -0.47786914158E+03  0.47871388837E+03  0.25500000000E-02 0.  1.
<mgrwt>
<rscale>  0 0.62447221E+02</rscale>
<asrwt>0</asrwt>
<pdfrwt beam="2">  1        1 0.25099975E+00 0.62447221E+02</pdfrwt>
<pdfrwt beam="1">  1       -1 0.91931900E-04 0.62447221E+02</pdfrwt>
<totfact> 0.27429272E+05</totfact>
</mgrwt>
</event>
<event>
 4    1  0.2051373E-002  0.9819343E+02  0.7818608E-02  0.1284141E+00
         -1   -1    0    0  501    0 -0.00000000000E+00  0.00000000000E+00  0.17803012990E+04  0.17803012990E+04  0.50400000000E-02 0.  1.
          1   -1    0    0    0  501  0.00000000000E+00 -0.00000000000E+00 -0.13539725976E+01  0.13539819780E+01  0.50400000000E-02 0.  1.
          2    1    1    2    0  502  0.46447913614E+02  0.38463899237E+01  0.60938933858E+03  0.61116901866E+03  0.25500000000E-02 0.  1.
         -2    1    1    2  502    0 -0.46447913614E+02 -0.38463899237E+01  0.11695579878E+04  0.11704862623E+04  0.25500000000E-02 0.  1.
<mgrwt>
<rscale>  0 0.98193432E+02</rscale>
<asrwt>0</asrwt>
<pdfrwt beam="2">  1        1 0.20830443E-03 0.98193432E+02</pdfrwt>
<pdfrwt beam="1">  1       -1 0.27389221E+00 0.98193432E+02</pdfrwt>
<totfact> 0.78086981E+03</totfact>
</mgrwt>
</event>
<event>
 4    1  0.2051373E-002  0.5731190E+02  0.7818608E-02  0.1409472E+00
         -1   -1    0    0  501    0 -0.00000000000E+00  0.00000000000E+00  0.45032024724E+00  0.45034845029E+00  0.50400000000E-02 0. -1.
          1   -1    0    0    0  501  0.00000000000E+00 -0.00000000000E+00 -0.18234528654E+04  0.18234528654E+04  0.50400000000E-02 0. -1.
          2    1    1    2    0  502  0.11450527097E+02  0.26162716082E+02 -0.83645303335E+03  0.83694042756E+03  0.25500000000E-02 0. -1.
         -2    1    1    2  502    0 -0.11450527097E+02 -0.26162716082E+02 -0.98654951180E+03  0.98696278629E+03  0.25500000000E-02 0. -1.
<mgrwt>
<rscale>  0 0.57311900E+02</rscale>
<asrwt>0</asrwt>
<pdfrwt beam="2">  1        1 0.28052530E+00 0.57311900E+02</pdfrwt>
<pdfrwt beam="1">  1       -1 0.69283668E-04 0.57311900E+02</pdfrwt>
<totfact> 0.30208606E+05</totfact>
</mgrwt>
</event>
<event>
 4    1  0.2051373E-002  0.4729092E+02  0.7818608E-02  0.1460526E+00
          1   -1    0    0    0  501  0.00000000000E+00  0.00000000000E+00  0.23808014813E+03  0.23808014818E+03  0.50400000000E-02 0. -1.
         -1   -1    0    0  501    0 -0.00000000000E+00 -0.00000000000E+00 -0.23483986639E+01  0.23484040722E+01  0.50400000000E-02 0. -1.
          2    1    1    2    0  502 -0.20925941075E+02  0.10526219511E+02  0.10146134495E+03  0.10413021095E+03  0.25500000000E-02 0. -1.
         -2    1    1    2  502    0  0.20925941075E+02 -0.10526219511E+02  0.13427040452E+03  0.13629834131E+03  0.25500000000E-02 0. -1.
<mgrwt>
<rscale>  0 0.47290919E+02</rscale>
<asrwt>0</asrwt>
<pdfrwt beam="1">  1        1 0.36627700E-01 0.47290919E+02</pdfrwt>
<pdfrwt beam="2">  1       -1 0.36129267E-03 0.47290919E+02</pdfrwt>
<totfact> 0.66568766E+05</totfact>
</mgrwt>
</event>
<event>
 4    1  0.2051373E-002  0.4378122E+02  0.7818608E-02  0.1482097E+00
          1   -1    0    0    0  501  0.00000000000E+00  0.00000000000E+00  0.42851039539E+02  0.42851039835E+02  0.50400000000E-02 0. -1.
         -1   -1    0    0  501    0 -0.00000000000E+00 -0.00000000000E+00 -0.11182896791E+02  0.11182897926E+02  0.50400000000E-02 0. -1.
          2    1    1    2    0  502  0.74681702475E+00 -0.21810183463E+02  0.17956340665E+02  0.28260785816E+02  0.25500000000E-02 0. -1.
         -2    1    1    2  502    0 -0.74681702475E+00  0.21810183463E+02  0.13711802084E+02  0.25773151946E+02  0.25500000000E-02 0. -1.
<mgrwt>
<rscale>  0 0.43781219E+02</rscale>
<asrwt>0</asrwt>
<pdfrwt beam="1">  1        1 0.65924679E-02 0.43781219E+02</pdfrwt>
<pdfrwt beam="2">  1       -1 0.17204457E-02 0.43781219E+02</pdfrwt>
<totfact> 0.64352041E+05</totfact>
</mgrwt>
</event>
<event>
 4    1  0.2051373E-002  0.4842706E+02  0.7818608E-02  0.1454015E+00
          1   -1    0    0    0  501  0.00000000000E+00  0.00000000000E+00  0.22175520873E+01  0.22175578147E+01  0.50400000000E-02 0.  1.
         -1   -1    0    0  501    0 -0.00000000000E+00 -0.00000000000E+00 -0.26438801960E+03  0.26438801965E+03  0.50400000000E-02 0.  1.
          2    1    1    2    0  502 -0.89158623869E+01 -0.18945320772E+02 -0.19803232916E+03  0.19913618752E+03  0.25500000000E-02 0. -1.
         -2    1    1    2  502    0  0.89158623869E+01  0.18945320772E+02 -0.64138138346E+02  0.67469389936E+02  0.25500000000E-02 0. -1.
<mgrwt>
<rscale>  0 0.48427058E+02</rscale>
<asrwt>0</asrwt>
<pdfrwt beam="1">  1        1 0.34116251E-03 0.48427058E+02</pdfrwt>
<pdfrwt beam="2">  1       -1 0.40675055E-01 0.48427058E+02</pdfrwt>
<totfact> 0.31805866E+05</totfact>
</mgrwt>
</event>
<event>
 4    1  0.2051373E-002  0.8692748E+02  0.7818608E-02  0.1310468E+00
         -1   -1    0    0  501    0 -0.00000000000E+00  0.00000000000E+00  0.20266499895E+01  0.20266562564E+01  0.50400000000E-02 0. -1.
          1   -1    0    0    0  501  0.00000000000E+00 -0.00000000000E+00 -0.93212620943E+03  0.93212620945E+03  0.50400000000E-02 0. -1.
          2    1    1    2    0  502 -0.23523098776E+02 -0.36240957387E+02 -0.51585776913E+03  0.51766396547E+03  0.25500000000E-02 0. -1.
         -2    1    1    2  502    0  0.23523098776E+02  0.36240957387E+02 -0.41424179031E+03  0.41648890023E+03  0.25500000000E-02 0. -1.
<mgrwt>
<rscale>  0 0.86927476E+02</rscale>
<asrwt>0</asrwt>
<pdfrwt beam="2">  1        1 0.14340369E+00 0.86927476E+02</pdfrwt>
<pdfrwt beam="1">  1       -1 0.31179353E-03 0.86927476E+02</pdfrwt>
<totfact> 0.15681161E+05</totfact>
</mgrwt>
</event>
<event>
 4    1  0.2051373E-002  0.1606079E+03  0.7818608E-02  0.1188012E+00
          1   -1    0    0    0  501  0.00000000000E+00  0.00000000000E+00  0.71015148417E+03  0.71015148419E+03  0.50400000000E-02 0.  1.
         -1   -1    0    0  501    0 -0.00000000000E+00 -0.00000000000E+00 -0.90807678051E+01  0.90807692038E+01  0.50400000000E-02 0.  1.
          2    1    1    2    0  502  0.25162337811E+02  0.11881787944E+02  0.68787111106E+03  0.68843371908E+03  0.25500000000E-02 0.  1.
         -2    1    1    2  502    0 -0.25162337811E+02 -0.11881787944E+02  0.13199605300E+02  0.30798534307E+02  0.25500000000E-02 0.  1.
<mgrwt>
<rscale>  0 0.16060786E+03</rscale>
<asrwt>0</asrwt>
<pdfrwt beam="1">  1        1 0.10925404E+00 0.16060786E+03</pdfrwt>
<pdfrwt beam="2">  1       -1 0.13970418E-02 0.16060786E+03</pdfrwt>
<totfact> 0.30529758E+04</totfact>
</mgrwt>
</event>
<event>
 4    1  0.2051373E-002  0.8165961E+02  0.7818608E-02  0.1324407E+00
          1   -1    0    0    0  501  0.00000000000E+00  0.00000000000E+00  0.18376378442E+03  0.18376378449E+03  0.50400000000E-02 0. -1.
         -1   -1    0    0  501    0 -0.00000000000E+00 -0.00000000000E+00 -0.90718249656E+01  0.90718263656E+01  0.50400000000E-02 0. -1.
          2    1    1    2    0  502  0.15838920946E+02 -0.33797480203E+02  0.48261776362E+02  0.61010983838E+02  0.25500000000E-02 0. -1.
         -2    1    1    2  502    0 -0.15838920946E+02  0.33797480203E+02  0.12643018310E+03  0.13182462702E+03  0.25500000000E-02 0. -1.
<mgrwt>
<rscale>  0 0.81659611E+02</rscale>
<asrwt>0</asrwt>
<pdfrwt beam="1">  1        1 0.28271353E-01 0.81659611E+02</pdfrwt>
<pdfrwt beam="2">  1       -1 0.13956654E-02 0.81659611E+02</pdfrwt>
<totfact> 0.15632505E+05</totfact>
</mgrwt>
</event>
<event>
 4    1  0.2051373E-002  0.7732692E+02  0.7818608E-02  0.1336813E+00
          1   -1    0    0    0  501  0.00000000000E+00  0.00000000000E+00  0.20551405123E+02  0.20551405741E+02  0.50400000000E-02 0.  1.
         -1   -1    0    0  501    0 -0.00000000000E+00 -0.00000000000E+00 -0.72737750499E+02  0.72737750674E+02  0.50400000000E-02 0.  1.
          2    1    1    2    0  502  0.34660924198E+02  0.14828615740E+02 -0.36442832973E+02  0.52434221579E+02  0.25500000000E-02 0.  1.
         -2    1    1    2  502    0 -0.34660924198E+02 -0.14828615740E+02 -0.15743512404E+02  0.40854934835E+02  0.25500000000E-02 0.  1.
<mgrwt>
<rscale>  0 0.77326917E+02</rscale>
<asrwt>0</asrwt>
<pdfrwt beam="1">  1        1 0.31617547E-02 0.77326917E+02</pdfrwt>
<pdfrwt beam="2">  1       -1 0.11190423E-01 0.77326917E+02</pdfrwt>
<totfact> 0.13082930E+05</totfact>
</mgrwt>
</event>
<event>
 4    1  0.2051373E-002  0.1041348E+03  0.7818608E-02  0.1271834E+00
         -1   -1    0    0  501    0 -0.00000000000E+00  0.00000000000E+00  0.36475230567E+01  0.36475265387E+01  0.50400000000E-02 0.  1.
          1   -1    0    0    0  501  0.00000000000E+00 -0.00000000000E+00 -0.74324700332E+03  0.74324700334E+03  0.50400000000E-02 0.  1.
          2    1    1    2    0  502  0.41431086774E+02 -0.31156605845E+02 -0.40474835185E+03  0.40805452745E+03  0.25500000000E-02 0.  1.
         -2    1    1    2  502    0 -0.41431086774E+02  0.31156605845E+02 -0.33485112842E+03  0.33884000243E+03  0.25500000000E-02 0.  1.
<mgrwt>
<rscale>  0 0.10413476E+03</rscale>
<asrwt>0</asrwt>
<pdfrwt beam="2">  1        1 0.11434557E+00 0.10413476E+03</pdfrwt>
<pdfrwt beam="1">  1       -1 0.56115826E-03 0.10413476E+03</pdfrwt>
<totfact> 0.99674827E+04</totfact>
</mgrwt>
</event>
<event>
 4    1  0.2051373E-002  0.6581807E+02  0.7818608E-02  0.1374920E+00
          1   -1    0    0    0  501  0.00000000000E+00  0.00000000000E+00  0.11116626599E+03  0.11116626611E+03  0.50400000000E-02 0. -1.
         -1   -1    0    0  501    0 -0.00000000000E+00 -0.00000000000E+00 -0.97422054014E+01  0.97422067051E+01  0.50400000000E-02 0. -1.
          2    1    1    2    0  502 -0.18665640160E+02  0.11904057512E+02  0.59819831028E+01  0.22932440694E+02  0.25500000000E-02 0. -1.
         -2    1    1    2  502    0  0.18665640160E+02 -0.11904057512E+02  0.95442077487E+02  0.97976032117E+02  0.25500000000E-02 0. -1.
<mgrwt>
<rscale>  0 0.65818073E+02</rscale>
<asrwt>0</asrwt>
<pdfrwt beam="1">  1        1 0.17102503E-01 0.65818073E+02</pdfrwt>
<pdfrwt beam="2">  1       -1 0.14988009E-02 0.65818073E+02</pdfrwt>
<totfact> 0.25316224E+05</totfact>
</mgrwt>
</event>
<event>
 4    1  0.2051373E-002  0.1043222E+03  0.7818608E-02  0.1271461E+00
          1   -1    0    0    0  501  0.00000000000E+00  0.00000000000E+00  0.11694181365E+04  0.11694181365E+04  0.50400000000E-02 0. -1.
         -1   -1    0    0  501    0 -0.00000000000E+00 -0.00000000000E+00 -0.23266054265E+01  0.23266108855E+01  0.50400000000E-02 0. -1.
          2    1    1    2    0  502  0.47257632996E+02 -0.21991645042E+02  0.60561726427E+03  0.60785622241E+03  0.25500000000E-02 0.  1.
         -2    1    1    2  502    0 -0.47257632996E+02  0.21991645042E+02  0.56147426682E+03  0.56388852501E+03  0.25500000000E-02 0.  1.
<mgrwt>
<rscale>  0 0.10432215E+03</rscale>
<asrwt>0</asrwt>
<pdfrwt beam="1">  1        1 0.17991078E+00 0.10432215E+03</pdfrwt>
<pdfrwt beam="2">  1       -1 0.35793912E-03 0.10432215E+03</pdfrwt>
<totfact> 0.90006013E+04</totfact>
</mgrwt>
</event>
<event>
 4    1  0.2051373E-002  0.4702458E+02  0.7818608E-02  0.1462084E+00
         -1   -1    0    0  501    0 -0.00000000000E+00  0.00000000000E+00  0.12237543534E+01  0.12237647319E+01  0.50400000000E-02 0.  1.
          1   -1    0    0    0  501  0.00000000000E+00 -0.00000000000E+00 -0.45174546379E+03  0.45174546382E+03  0.50400000000E-02 0.  1.
          2    1    1    2    0  502 -0.21118832171E+02 -0.82030605978E+01 -0.28582577981E+03  0.28672229018E+03  0.25500000000E-02 0.  1.
         -2    1    1    2  502    0  0.21118832171E+02  0.82030605978E+01 -0.16469592962E+03  0.16624693837E+03  0.25500000000E-02 0.  1.
<mgrwt>
<rscale>  0 0.47024582E+02</rscale>
<asrwt>0</asrwt>
<pdfrwt beam="2">  1        1 0.69499170E-01 0.47024582E+02</pdfrwt>
<pdfrwt beam="1">  1       -1 0.18827106E-03 0.47024582E+02</pdfrwt>
<totfact> 0.74935223E+05</totfact>
</mgrwt>
</event>
<event>
 4    1  0.2051373E-002  0.5383590E+02  0.7818608E-02  0.1425686E+00
          1   -1    0    0    0  501  0.00000000000E+00  0.00000000000E+00  0.10968426826E+04  0.10968426826E+04  0.50400000000E-02 0.  1.
         -1   -1    0    0  501    0 -0.00000000000E+00 -0.00000000000E+00 -0.66059202383E+00  0.66061124994E+00  0.50400000000E-02 0.  1.
          2    1    1    2    0  502  0.43725631569E+01 -0.22854392300E+02  0.82396948599E+03  0.82429797792E+03  0.25500000000E-02 0.  1.
         -2    1    1    2  502    0 -0.43725631569E+01  0.22854392300E+02  0.27221260461E+03  0.27320531596E+03  0.25500000000E-02 0.  1.
<mgrwt>
<rscale>  0 0.53835902E+02</rscale>
<asrwt>0</asrwt>
<pdfrwt beam="1">  1        1 0.16874206E+00 0.53835902E+02</pdfrwt>
<pdfrwt beam="2">  1       -1 0.10163281E-03 0.53835902E+02</pdfrwt>
<totfact> 0.51304198E+05</totfact>
</mgrwt>
</event>
<event>
 4    1  0.2051373E-002  0.4365500E+02  0.7818608E-02  0.1482917E+00
         -1   -1    0    0  501    0 -0.00000000000E+00  0.00000000000E+00  0.77581271522E+00  0.77582908600E+00  0.50400000000E-02 0. -1.
          1   -1    0    0    0  501  0.00000000000E+00 -0.00000000000E+00 -0.61411057254E+03  0.61411057256E+03  0.50400000000E-02 0. -1.
          2    1    1    2    0  502  0.66834764005E+01  0.20306155657E+02 -0.24457925529E+03  0.24551175316E+03  0.25500000000E-02 0. -1.
         -2    1    1    2  502    0 -0.66834764005E+01 -0.20306155657E+02 -0.36875550454E+03  0.36937464849E+03  0.25500000000E-02 0. -1.
<mgrwt>
<rscale>  0 0.43655003E+02</rscale>
<asrwt>0</asrwt>
<pdfrwt beam="2">  1        1 0.94478162E-01 0.43655003E+02</pdfrwt>
<pdfrwt beam="1">  1       -1 0.11935755E-03 0.43655003E+02</pdfrwt>
<totfact> 0.92461903E+05</totfact>
</mgrwt>
</event>
<event>
 4    1  0.2051373E-002  0.4659137E+02  0.7818608E-02  0.1464645E+00
          1   -1    0    0    0  501  0.00000000000E+00  0.00000000000E+00  0.51491642134E+01  0.51491666800E+01  0.50400000000E-02 0.  1.
         -1   -1    0    0  501    0 -0.00000000000E+00 -0.00000000000E+00 -0.10539358230E+03  0.10539358242E+03  0.50400000000E-02 0.  1.
          2    1    1    2    0  502 -0.20936901906E+02  0.10109369794E+02 -0.46654816683E+02  0.52127009748E+02  0.25500000000E-02 0. -1.
         -2    1    1    2  502    0  0.20936901906E+02 -0.10109369794E+02 -0.53589601408E+02  0.58415739357E+02  0.25500000000E-02 0. -1.
<mgrwt>
<rscale>  0 0.46591373E+02</rscale>
<asrwt>0</asrwt>
<pdfrwt beam="1">  1        1 0.79217939E-03 0.46591373E+02</pdfrwt>
<pdfrwt beam="2">  1       -1 0.16214396E-01 0.46591373E+02</pdfrwt>
<totfact> 0.43903679E+05</totfact>
</mgrwt>
</event>
<event>
 4    1  0.2051373E-002  0.1199098E+03  0.7818608E-02  0.1243246E+00
          1   -1    0    0    0  501  0.00000000000E+00  0.00000000000E+00  0.11561170196E+03  0.11561170207E+03  0.50400000000E-02 0.  1.
         -1   -1    0    0  501    0 -0.00000000000E+00 -0.00000000000E+00 -0.31091900741E+02  0.31091901150E+02  0.50400000000E-02 0.  1.
          2    1    1    2    0  502 -0.49707001806E+02  0.16795291712E+02  0.67646697051E+01  0.52902066264E+02  0.25500000000E-02 0.  1.
         -2    1    1    2  502    0  0.49707001806E+02 -0.16795291712E+02  0.77755131518E+02  0.93801536960E+02  0.25500000000E-02 0.  1.
<mgrwt>
<rscale>  0 0.11990976E+03</rscale>
<asrwt>0</asrwt>
<pdfrwt beam="1">  1        1 0.17786416E-01 0.11990976E+03</pdfrwt>
<pdfrwt beam="2">  1       -1 0.47833694E-02 0.11990976E+03</pdfrwt>
<totfact> 0.50184998E+04</totfact>
</mgrwt>
</event>
<event>
 4    1  0.2051373E-002  0.1059329E+03  0.7818608E-02  0.1268292E+00
         -1   -1    0    0  501    0 -0.00000000000E+00  0.00000000000E+00  0.23535824060E+02  0.23535824599E+02  0.50400000000E-02 0.  1.
          1   -1    0    0    0  501  0.00000000000E+00 -0.00000000000E+00 -0.11919897604E+03  0.11919897615E+03  0.50400000000E-02 0.  1.
          2    1    1    2    0  502  0.34089851334E+02  0.39170890427E+02 -0.33766195666E+02  0.61940556964E+02  0.25500000000E-02 0. -1.
         -2    1    1    2  502    0 -0.34089851334E+02 -0.39170890427E+02 -0.61896956315E+02  0.80794243782E+02  0.25500000000E-02 0. -1.
<mgrwt>
<rscale>  0 0.10593293E+03</rscale>
<asrwt>0</asrwt>
<pdfrwt beam="2">  1        1 0.18338304E-01 0.10593293E+03</pdfrwt>
<pdfrwt beam="1">  1       -1 0.36208961E-02 0.10593293E+03</pdfrwt>
<totfact> 0.71346332E+04</totfact>
</mgrwt>
</event>
<event>
 4    1  0.2051373E-002  0.6286858E+02  0.7818608E-02  0.1386173E+00
         -1   -1    0    0  501    0 -0.00000000000E+00  0.00000000000E+00  0.41831299988E+00  0.41834336073E+00  0.50400000000E-02 0.  1.
          1   -1    0    0    0  501  0.00000000000E+00 -0.00000000000E+00 -0.23620558022E+04  0.23620558022E+04  0.50400000000E-02 0.  1.
          2    1    1    2    0  502  0.27656017447E+02  0.14941012079E+02 -0.11748334905E+04  0.11752539383E+04  0.25500000000E-02 0. -1.
         -2    1    1    2  502    0 -0.27656017447E+02 -0.14941012079E+02 -0.11868039987E+04  0.11872202073E+04  0.25500000000E-02 0. -1.
<mgrwt>
<rscale>  0 0.62868578E+02</rscale>
<asrwt>0</asrwt>
<pdfrwt beam="2">  1        1 0.36338252E+00 0.62868578E+02</pdfrwt>
<pdfrwt beam="1">  1       -1 0.64360073E-04 0.62868578E+02</pdfrwt>
<totfact> 0.15699996E+05</totfact>
</mgrwt>
</event>
<event>
 4    1  0.2051373E-002  0.4638489E+02  0.7818608E-02  0.1465877E+00
         -1   -1    0    0  501    0 -0.00000000000E+00  0.00000000000E+00  0.37361788823E+02  0.37361789163E+02  0.50400000000E-02 0. -1.
          1   -1    0    0    0  501  0.00000000000E+00 -0.00000000000E+00 -0.14396777655E+02  0.14396778538E+02  0.50400000000E-02 0. -1.
          2    1    1    2    0  502  0.19280224107E+02  0.92214480224E+01  0.21533039409E+02  0.30338654188E+02  0.25500000000E-02 0. -1.
         -2    1    1    2  502    0 -0.19280224107E+02 -0.92214480224E+01  0.14319717588E+01  0.21419913512E+02  0.25500000000E-02 0. -1.
<mgrwt>
<rscale>  0 0.46384885E+02</rscale>
<asrwt>0</asrwt>
<pdfrwt beam="2">  1        1 0.22148890E-02 0.46384885E+02</pdfrwt>
<pdfrwt beam="1">  1       -1 0.57479675E-02 0.46384885E+02</pdfrwt>
<totfact> 0.50586511E+05</totfact>
</mgrwt>
</event>
<event>
 4    1  0.2051373E-002  0.7860593E+02  0.7818608E-02  0.1333055E+00
         -1   -1    0    0  501    0 -0.00000000000E+00  0.00000000000E+00  0.29313655808E+03  0.29313655813E+03  0.50400000000E-02 0.  1.
          1   -1    0    0    0  501  0.00000000000E+00 -0.00000000000E+00 -0.52696352927E+01  0.52696377028E+01  0.50400000000E-02 0.  1.
          2    1    1    2    0  502 -0.12274605526E+02  0.18401554116E+02  0.26726361926E+03  0.26817741389E+03  0.25500000000E-02 0. -1.
         -2    1    1    2  502    0  0.12274605526E+02 -0.18401554116E+02  0.20603303535E+02  0.30228781943E+02  0.25500000000E-02 0. -1.
<mgrwt>
<rscale>  0 0.78605932E+02</rscale>
<asrwt>0</asrwt>
<pdfrwt beam="2">  1        1 0.81071334E-03 0.78605932E+02</pdfrwt>
<pdfrwt beam="1">  1       -1 0.45097931E-01 0.78605932E+02</pdfrwt>
<totfact> 0.89912632E+04</totfact>
</mgrwt>
</event>
<event>
 4    1  0.2051373E-002  0.6221251E+02  0.7818608E-02  0.1388775E+00
          1   -1    0    0    0  501  0.00000000000E+00  0.00000000000E+00  0.10640913375E+04  0.10640913375E+04  0.50400000000E-02 0.  1.
         -1   -1    0    0  501    0 -0.00000000000E+00 -0.00000000000E+00 -0.90931250849E+00  0.90932647586E+00  0.50400000000E-02 0.  1.
          2    1    1    2    0  502  0.14043589191E+02 -0.23648162361E+02  0.28284365038E+03  0.28417774112E+03  0.25500000000E-02 0.  1.
         -2    1    1    2  502    0 -0.14043589191E+02  0.23648162361E+02  0.78033837461E+03  0.78082292287E+03  0.25500000000E-02 0.  1.
<mgrwt>
<rscale>  0 0.62212507E+02</rscale>
<asrwt>0</asrwt>
<pdfrwt beam="1">  1        1 0.16370580E+00 0.62212507E+02</pdfrwt>
<pdfrwt beam="2">  1       -1 0.13989579E-03 0.62212507E+02</pdfrwt>
<totfact> 0.35989095E+05</totfact>
</mgrwt>
</event>
<event>
 4    1  0.2051373E-002  0.4274073E+02  0.7818608E-02  0.1488960E+00
          1   -1    0    0    0  501  0.00000000000E+00  0.00000000000E+00  0.44483598696E+03  0.44483598699E+03  0.50400000000E-02 0.  1.
         -1   -1    0    0  501    0 -0.00000000000E+00 -0.00000000000E+00 -0.10266473625E+01  0.10266597336E+01  0.50400000000E-02 0.  1.
          2    1    1    2    0  502  0.89226137942E+01  0.19205053829E+02  0.19195010883E+03  0.19311471051E+03  0.25500000000E-02 0.  1.
         -2    1    1    2  502    0 -0.89226137942E+01 -0.19205053829E+02  0.25185923077E+03  0.25274793621E+03  0.25500000000E-02 0.  1.
<mgrwt>
<rscale>  0 0.42740728E+02</rscale>
<asrwt>0</asrwt>
<pdfrwt beam="1">  1        1 0.68436197E-01 0.42740728E+02</pdfrwt>
<pdfrwt beam="2">  1       -1 0.15794695E-03 0.42740728E+02</pdfrwt>
<totfact> 0.94523042E+05</totfact>
</mgrwt>
</event>
<event>
 4    1  0.2051373E-002  0.4383473E+02  0.7818608E-02  0.1481750E+00
         -1   -1    0    0  501    0 -0.00000000000E+00  0.00000000000E+00  0.91586778787E+03  0.91586778789E+03  0.50400000000E-02 0. -1.
          1   -1    0    0    0  501  0.00000000000E+00 -0.00000000000E+00 -0.52448587308E+00  0.52451008823E+00  0.50400000000E-02 0. -1.
          2    1    1    2    0  502  0.10430509205E+02  0.19275438060E+02  0.45388681937E+03  0.45441564986E+03  0.25500000000E-02 0. -1.
         -2    1    1    2  502    0 -0.10430509205E+02 -0.19275438060E+02  0.46145648263E+03  0.46197664812E+03  0.25500000000E-02 0. -1.
<mgrwt>
<rscale>  0 0.43834727E+02</rscale>
<asrwt>0</asrwt>
<pdfrwt beam="2">  1        1 0.80692254E-04 0.43834727E+02</pdfrwt>
<pdfrwt beam="1">  1       -1 0.14090229E+00 0.43834727E+02</pdfrwt>
<totfact> 0.18224274E+05</totfact>
</mgrwt>
</event>
<event>
 4    1  0.2051373E-002  0.7711080E+02  0.7818608E-02  0.1337456E+00
          1   -1    0    0    0  501  0.00000000000E+00  0.00000000000E+00  0.36382668206E+03  0.36382668210E+03  0.50400000000E-02 0. -1.
         -1   -1    0    0  501    0 -0.00000000000E+00 -0.00000000000E+00 -0.40857869421E+01  0.40857900506E+01  0.50400000000E-02 0. -1.
          2    1    1    2    0  502 -0.37528463796E+02  0.70611293181E+01  0.15450042221E+03  0.15914969560E+03  0.25500000000E-02 0.  1.
         -2    1    1    2  502    0  0.37528463796E+02 -0.70611293181E+01  0.20524047291E+03  0.20876277655E+03  0.25500000000E-02 0.  1.
<mgrwt>
<rscale>  0 0.77110800E+02</rscale>
<asrwt>0</asrwt>
<pdfrwt beam="1">  1        1 0.55973325E-01 0.77110800E+02</pdfrwt>
<pdfrwt beam="2">  1       -1 0.62858297E-03 0.77110800E+02</pdfrwt>
<totfact> 0.20641411E+05</totfact>
</mgrwt>
</event>
<event>
 4    1  0.2051373E-002  0.8993760E+02  0.7818608E-02  0.1303003E+00
          1   -1    0    0    0  501  0.00000000000E+00  0.00000000000E+00  0.27550799083E+03  0.27550799087E+03  0.50400000000E-02 0.  1.
         -1   -1    0    0  501    0 -0.00000000000E+00 -0.00000000000E+00 -0.73398703011E+01  0.73398720314E+01  0.50400000000E-02 0.  1.
          2    1    1    2    0  502 -0.61957301275E+01  0.39957482047E+02  0.19596864329E+03  0.20009671812E+03  0.25500000000E-02 0.  1.
         -2    1    1    2  502    0  0.61957301275E+01 -0.39957482047E+02  0.72199477236E+02  0.82751144783E+02  0.25500000000E-02 0.  1.
<mgrwt>
<rscale>  0 0.89937604E+02</rscale>
<asrwt>0</asrwt>
<pdfrwt beam="1">  1        1 0.42385844E-01 0.89937604E+02</pdfrwt>
<pdfrwt beam="2">  1       -1 0.11292110E-02 0.89937604E+02</pdfrwt>
<totfact> 0.13071715E+05</totfact>
</mgrwt>
</event>
<event>
 4    1  0.2051373E-002  0.5043071E+02  0.7818608E-02  0.1443032E+00
          1   -1    0    0    0  501  0.00000000000E+00  0.00000000000E+00  0.47777937199E+00  0.47780595423E+00  0.50400000000E-02 0. -1.
         -1   -1    0    0  501    0 -0.00000000000E+00 -0.00000000000E+00 -0.13307321994E+04  0.13307321995E+04  0.50400000000E-02 0. -1.
          2    1    1    2    0  502 -0.21513081010E+02 -0.10063466787E+02 -0.44156619498E+03  0.44220446693E+03  0.25500000000E-02 0.  1.
         -2    1    1    2  502    0  0.21513081010E+02  0.10063466787E+02 -0.88868822509E+03  0.88900553848E+03  0.25500000000E-02 0.  1.
<mgrwt>
<rscale>  0 0.50430709E+02</rscale>
<asrwt>0</asrwt>
<pdfrwt beam="1">  1        1 0.73507630E-04 0.50430709E+02</pdfrwt>
<pdfrwt beam="2">  1       -1 0.20472507E+00 0.50430709E+02</pdfrwt>
<totfact> 0.77988078E+04</totfact>
</mgrwt>
</event>
<event>
 4    1  0.2051373E-002  0.4904625E+02  0.7818608E-02  0.1450555E+00
         -1   -1    0    0  501    0 -0.00000000000E+00  0.00000000000E+00  0.44933546937E+00  0.44936373422E+00  0.50400000000E-02 0.  1.
          1   -1    0    0    0  501  0.00000000000E+00 -0.00000000000E+00 -0.13383424966E+04  0.13383424966E+04  0.50400000000E-02 0.  1.
          2    1    1    2    0  502  0.33685225526E+01  0.24124558651E+02 -0.59153604397E+03  0.59203735743E+03  0.25500000000E-02 0. -1.
         -2    1    1    2  502    0 -0.33685225526E+01 -0.24124558651E+02 -0.74635711720E+03  0.74675450295E+03  0.25500000000E-02 0. -1.
<mgrwt>
<rscale>  0 0.49046251E+02</rscale>
<asrwt>0</asrwt>
<pdfrwt beam="2">  1        1 0.20589566E+00 0.49046251E+02</pdfrwt>
<pdfrwt beam="1">  1       -1 0.69131780E-04 0.49046251E+02</pdfrwt>
<totfact> 0.58861975E+05</totfact>
</mgrwt>
</event>
<event>
 4    1  0.2051373E-002  0.5840260E+02  0.7818608E-02  0.1404660E+00
         -1   -1    0    0  501    0 -0.00000000000E+00  0.00000000000E+00  0.33880351987E+01  0.33880389474E+01  0.50400000000E-02 0. -1.
          1   -1    0    0    0  501  0.00000000000E+00 -0.00000000000E+00 -0.25168432378E+03  0.25168432383E+03  0.50400000000E-02 0. -1.
          2    1    1    2    0  502 -0.25526909068E+02 -0.98707942682E+00 -0.62364322115E+02  0.67393665071E+02  0.25500000000E-02 0. -1.
         -2    1    1    2  502    0  0.25526909068E+02  0.98707942682E+00 -0.18593196647E+03  0.18767869771E+03  0.25500000000E-02 0. -1.
<mgrwt>
<rscale>  0 0.58402597E+02</rscale>
<asrwt>0</asrwt>
<pdfrwt beam="2">  1        1 0.38720651E-01 0.58402597E+02</pdfrwt>
<pdfrwt beam="1">  1       -1 0.52123668E-03 0.58402597E+02</pdfrwt>
<totfact> 0.39554946E+05</totfact>
</mgrwt>
</event>
<event>
 4    1  0.2051373E-002  0.5260180E+02  0.7818608E-02  0.1431793E+00
         -1   -1    0    0  501    0 -0.00000000000E+00  0.00000000000E+00  0.31942561708E+01  0.31942601469E+01  0.50400000000E-02 0. -1.
          1   -1    0    0    0  501  0.00000000000E+00 -0.00000000000E+00 -0.21655650567E+03  0.21655650573E+03  0.50400000000E-02 0. -1.
          2    1    1    2    0  502 -0.21057298150E+02 -0.80635049660E+01 -0.50119762619E+02  0.54958352679E+02  0.25500000000E-02 0.  1.
         -2    1    1    2  502    0  0.21057298150E+02  0.80635049660E+01 -0.16324248688E+03  0.16479241319E+03  0.25500000000E-02 0.  1.
<mgrwt>
<rscale>  0 0.52601802E+02</rscale>
<asrwt>0</asrwt>
<pdfrwt beam="2">  1        1 0.33316374E-01 0.52601802E+02</pdfrwt>
<pdfrwt beam="1">  1       -1 0.49142451E-03 0.52601802E+02</pdfrwt>
<totfact> 0.50179151E+05</totfact>
</mgrwt>
</event>
<event>
 4    1  0.2051373E-002  0.4740086E+02  0.7818608E-02  0.1459887E+00
         -1   -1    0    0  501    0 -0.00000000000E+00  0.00000000000E+00  0.68897545923E+01  0.68897564358E+01  0.50400000000E-02 0. -1.
          1   -1    0    0    0  501  0.00000000000E+00 -0.00000000000E+00 -0.81528336421E+02  0.81528336576E+02  0.50400000000E-02 0. -1.
          2    1    1    2    0  502  0.10295603638E+02 -0.17314948914E+02 -0.60610001738E+02  0.63870018220E+02  0.25500000000E-02 0. -1.
         -2    1    1    2  502    0 -0.10295603638E+02  0.17314948914E+02 -0.14028580090E+02  0.24548074793E+02  0.25500000000E-02 0. -1.
<mgrwt>
<rscale>  0 0.47400857E+02</rscale>
<asrwt>0</asrwt>
<pdfrwt beam="2">  1        1 0.12542820E-01 0.47400857E+02</pdfrwt>
<pdfrwt beam="1">  1       -1 0.10599625E-02 0.47400857E+02</pdfrwt>
<totfact> 0.56280633E+05</totfact>
</mgrwt>
</event>
<event>
 4    1  0.2051373E-002  0.4326783E+02  0.7818608E-02  0.1485454E+00
         -1   -1    0    0  501    0 -0.00000000000E+00  0.00000000000E+00  0.12372359414E+01  0.12372462068E+01  0.50400000000E-02 0.  1.
          1   -1    0    0    0  501  0.00000000000E+00 -0.00000000000E+00 -0.37828222901E+03  0.37828222905E+03  0.50400000000E-02 0.  1.
          2    1    1    2    0  502 -0.21047925463E+02 -0.98433264928E+00 -0.23153120482E+03  0.23248802741E+03  0.25500000000E-02 0. -1.
         -2    1    1    2  502    0  0.21047925463E+02  0.98433264928E+00 -0.14551378825E+03  0.14703144784E+03  0.25500000000E-02 0. -1.
<mgrwt>
<rscale>  0 0.43267832E+02</rscale>
<asrwt>0</asrwt>
<pdfrwt beam="2">  1        1 0.58197175E-01 0.43267832E+02</pdfrwt>
<pdfrwt beam="1">  1       -1 0.19034508E-03 0.43267832E+02</pdfrwt>
<totfact> 0.89625987E+05</totfact>
</mgrwt>
</event>
<event>
 4    1  0.2051373E-002  0.9411604E+02  0.7818608E-02  0.1293179E+00
         -1   -1    0    0  501    0 -0.00000000000E+00  0.00000000000E+00  0.84786169864E+02  0.84786170014E+02  0.50400000000E-02 0.  1.
          1   -1    0    0    0  501  0.00000000000E+00 -0.00000000000E+00 -0.26118141887E+02  0.26118142374E+02  0.50400000000E-02 0.  1.
          2    1    1    2    0  502  0.32618804203E+02 -0.14636042866E+02  0.65390412968E+02  0.74525876399E+02  0.25500000000E-02 0.  1.
         -2    1    1    2  502    0 -0.32618804203E+02  0.14636042866E+02 -0.67223849916E+01  0.36378435988E+02  0.25500000000E-02 0.  1.
<mgrwt>
<rscale>  0 0.94116040E+02</rscale>
<asrwt>0</asrwt>
<pdfrwt beam="2">  1        1 0.40181757E-02 0.94116040E+02</pdfrwt>
<pdfrwt beam="1">  1       -1 0.13044026E-01 0.94116040E+02</pdfrwt>
<totfact> 0.77257045E+04</totfact>
</mgrwt>
</event>
<event>
 4    1  0.2051373E-002  0.1041112E+03  0.7818608E-02  0.1271881E+00
         -1   -1    0    0  501    0 -0.00000000000E+00  0.00000000000E+00  0.70721265421E+02  0.70721265600E+02  0.50400000000E-02 0.  1.
          1   -1    0    0    0  501  0.00000000000E+00 -0.00000000000E+00 -0.38316382039E+02  0.38316382371E+02  0.50400000000E-02 0.  1.
          2    1    1    2    0  502  0.28866535899E+02  0.40464301884E+02  0.32398568313E+02  0.59332148596E+02  0.25500000000E-02 0. -1.
         -2    1    1    2  502    0 -0.28866535899E+02 -0.40464301884E+02  0.63150685749E-02  0.49705499375E+02  0.25500000000E-02 0. -1.
<mgrwt>
<rscale>  0 0.10411115E+03</rscale>
<asrwt>0</asrwt>
<pdfrwt beam="2">  1        1 0.58948281E-02 0.10411115E+03</pdfrwt>
<pdfrwt beam="1">  1       -1 0.10880195E-01 0.10411115E+03</pdfrwt>
<totfact> 0.61576064E+04</totfact>
</mgrwt>
</event>
<event>
 4    1  0.2051373E-002  0.4330701E+02  0.7818608E-02  0.1485196E+00
         -1   -1    0    0  501    0 -0.00000000000E+00  0.00000000000E+00  0.13644952305E+02  0.13644953236E+02  0.50400000000E-02 0.  1.
          1   -1    0    0    0  501  0.00000000000E+00 -0.00000000000E+00 -0.34362466482E+02  0.34362466852E+02  0.50400000000E-02 0.  1.
          2    1    1    2    0  502  0.59414129757E+01 -0.20679735320E+02 -0.76610235801E+01  0.22839508091E+02  0.25500000000E-02 0.  1.
         -2    1    1    2  502    0 -0.59414129757E+01  0.20679735320E+02 -0.13056490597E+02  0.25167911996E+02  0.25500000000E-02 0.  1.
<mgrwt>
<rscale>  0 0.43307009E+02</rscale>
<asrwt>0</asrwt>
<pdfrwt beam="2">  1        1 0.52865334E-02 0.43307009E+02</pdfrwt>
<pdfrwt beam="1">  1       -1 0.20992236E-02 0.43307009E+02</pdfrwt>
<totfact> 0.64922724E+05</totfact>
</mgrwt>
</event>
<event>
 4    1  0.2051373E-002  0.8252956E+02  0.7818608E-02  0.1322022E+00
         -1   -1    0    0  501    0 -0.00000000000E+00  0.00000000000E+00  0.15151970437E+04  0.15151970437E+04  0.50400000000E-02 0. -1.
          1   -1    0    0    0  501  0.00000000000E+00 -0.00000000000E+00 -0.11237966443E+01  0.11238079460E+01  0.50400000000E-02 0. -1.
          2    1    1    2    0  502 -0.29140682164E+02 -0.25019728989E+02  0.47984332444E+03  0.48137800346E+03  0.25500000000E-02 0. -1.
         -2    1    1    2  502    0  0.29140682164E+02  0.25019728989E+02  0.10342299226E+04  0.10349428482E+04  0.25500000000E-02 0. -1.
<mgrwt>
<rscale>  0 0.82529557E+02</rscale>
<asrwt>0</asrwt>
<pdfrwt beam="2">  1        1 0.17289317E-03 0.82529557E+02</pdfrwt>
<pdfrwt beam="1">  1       -1 0.23310655E+00 0.82529557E+02</pdfrwt>
<totfact> 0.17578857E+04</totfact>
</mgrwt>
</event>
<event>
 4    1  0.2051373E-002  0.4378726E+02  0.7818608E-02  0.1482058E+00
         -1   -1    0    0  501    0 -0.00000000000E+00  0.00000000000E+00  0.94152291883E+00  0.94153640837E+00  0.50400000000E-02 0.  1.
          1   -1    0    0    0  501  0.00000000000E+00 -0.00000000000E+00 -0.50909824337E+03  0.50909824339E+03  0.50400000000E-02 0.  1.
          2    1    1    2    0  502  0.16933334312E+02  0.13773298865E+02 -0.27387857775E+03  0.27474700531E+03  0.25500000000E-02 0. -1.
         -2    1    1    2  502    0 -0.16933334312E+02 -0.13773298865E+02 -0.23427814270E+03  0.23529277449E+03  0.25500000000E-02 0. -1.
<mgrwt>
<rscale>  0 0.43787263E+02</rscale>
<asrwt>0</asrwt>
<pdfrwt beam="2">  1        1 0.78322588E-01 0.43787263E+02</pdfrwt>
<pdfrwt beam="1">  1       -1 0.14485113E-03 0.43787263E+02</pdfrwt>
<totfact> 0.90518698E+05</totfact>
</mgrwt>
</event>
<event>
 4    1  0.2051373E-002  0.5524688E+02  0.7818608E-02  0.1418935E+00
         -1   -1    0    0  501    0 -0.00000000000E+00  0.00000000000E+00  0.72113672054E+02  0.72113672231E+02  0.50400000000E-02 0.  1.
          1   -1    0    0    0  501  0.00000000000E+00 -0.00000000000E+00 -0.10581270151E+02  0.10581271351E+02  0.50400000000E-02 0.  1.
          2    1    1    2    0  502  0.53207938441E+01 -0.26365621085E+02  0.40185204844E+02  0.48356049437E+02  0.25500000000E-02 0.  1.
         -2    1    1    2  502    0 -0.53207938441E+01  0.26365621085E+02  0.21347197059E+02  0.34338894145E+02  0.25500000000E-02 0.  1.
<mgrwt>
<rscale>  0 0.55246875E+02</rscale>
<asrwt>0</asrwt>
<pdfrwt beam="2">  1        1 0.16278878E-02 0.55246875E+02</pdfrwt>
<pdfrwt beam="1">  1       -1 0.11094411E-01 0.55246875E+02</pdfrwt>
<totfact> 0.30522155E+05</totfact>
</mgrwt>
</event>
<event>
 4    1  0.2051373E-002  0.5998569E+02  0.7818608E-02  0.1397892E+00
          1   -1    0    0    0  501  0.00000000000E+00  0.00000000000E+00  0.42265607053E+01  0.42265637103E+01  0.50400000000E-02 0. -1.
         -1   -1    0    0  501    0 -0.00000000000E+00 -0.00000000000E+00 -0.21283744144E+03  0.21283744150E+03  0.50400000000E-02 0. -1.
          2    1    1    2    0  502  0.28823866583E+02 -0.30367392580E+01 -0.13222582011E+03  0.13536507889E+03  0.25500000000E-02 0.  1.
         -2    1    1    2  502    0 -0.28823866583E+02  0.30367392580E+01 -0.76385060615E+02  0.81698926320E+02  0.25500000000E-02 0.  1.
<mgrwt>
<rscale>  0 0.59985688E+02</rscale>
<asrwt>0</asrwt>
<pdfrwt beam="1">  1        1 0.65024051E-03 0.59985688E+02</pdfrwt>
<pdfrwt beam="2">  1       -1 0.32744214E-01 0.59985688E+02</pdfrwt>
<totfact> 0.19973299E+05</totfact>
</mgrwt>
</event>
<event>
 4    1  0.2051373E-002  0.4783055E+02  0.7818608E-02  0.1457407E+00
         -1   -1    0    0  501    0 -0.00000000000E+00  0.00000000000E+00  0.36270056731E+03  0.36270056735E+03  0.50400000000E-02 0. -1.
          1   -1    0    0    0  501  0.00000000000E+00 -0.00000000000E+00 -0.15768901983E+01  0.15768982527E+01  0.50400000000E-02 0. -1.
          2    1    1    2    0  502 -0.92450210675E+01  0.21932419385E+02  0.19832361945E+03  0.19974673833E+03  0.25500000000E-02 0. -1.
         -2    1    1    2  502    0  0.92450210675E+01 -0.21932419385E+02  0.16280005767E+03  0.16453072727E+03  0.25500000000E-02 0. -1.
<mgrwt>
<rscale>  0 0.47830553E+02</rscale>
<asrwt>0</asrwt>
<pdfrwt beam="2">  1        1 0.24259899E-03 0.47830553E+02</pdfrwt>
<pdfrwt beam="1">  1       -1 0.55800117E-01 0.47830553E+02</pdfrwt>
<totfact> 0.28887407E+05</totfact>
</mgrwt>
</event>
<event>
 4    1  0.2051373E-002  0.1132521E+03  0.7818608E-02  0.1254663E+00
          1   -1    0    0    0  501  0.00000000000E+00  0.00000000000E+00  0.24956310954E+02  0.24956311463E+02  0.50400000000E-02 0. -1.
         -1   -1    0    0  501    0 -0.00000000000E+00 -0.00000000000E+00 -0.12848492601E+03  0.12848492611E+03  0.50400000000E-02 0. -1.
          2    1    1    2    0  502 -0.38284401210E+02  0.34805346094E+02 -0.20590580526E+02  0.55687337031E+02  0.25500000000E-02 0. -1.
         -2    1    1    2  502    0  0.38284401210E+02 -0.34805346094E+02 -0.82938034532E+02  0.97753900542E+02  0.25500000000E-02 0. -1.
<mgrwt>
<rscale>  0 0.11325210E+03</rscale>
<asrwt>0</asrwt>
<pdfrwt beam="1">  1        1 0.38394326E-02 0.11325210E+03</pdfrwt>
<pdfrwt beam="2">  1       -1 0.19766911E-01 0.11325210E+03</pdfrwt>
<totfact> 0.44059320E+04</totfact>
</mgrwt>
</event>
<event>
 4    1  0.2051373E-002  0.4141529E+02  0.7818608E-02  0.1498047E+00
          1   -1    0    0    0  501  0.00000000000E+00  0.00000000000E+00  0.17324786780E+04  0.17324786780E+04  0.50400000000E-02 0.  1.
         -1   -1    0    0  501    0 -0.00000000000E+00 -0.00000000000E+00 -0.24748479327E+00  0.24753610747E+00  0.50400000000E-02 0.  1.
          2    1    1    2    0  502 -0.30075613867E+01  0.20404922573E+02  0.78896710913E+03  0.78923666006E+03  0.25500000000E-02 0. -1.
         -2    1    1    2  502    0  0.30075613867E+01 -0.20404922573E+02  0.94326408404E+03  0.94348955401E+03  0.25500000000E-02 0. -1.
<mgrwt>
<rscale>  0 0.41415291E+02</rscale>
<asrwt>0</asrwt>
<pdfrwt beam="1">  1        1 0.26652841E+00 0.41415291E+02</pdfrwt>
<pdfrwt beam="2">  1       -1 0.38079499E-04 0.41415291E+02</pdfrwt>
<totfact> 0.72111831E+05</totfact>
</mgrwt>
</event>
<event>
 4    1  0.2051373E-002  0.7165681E+02  0.7818608E-02  0.1354548E+00
          1   -1    0    0    0  501  0.00000000000E+00  0.00000000000E+00  0.67258515807E+03  0.67258515809E+03  0.50400000000E-02 0.  1.
         -1   -1    0    0  501    0 -0.00000000000E+00 -0.00000000000E+00 -0.19085645645E+01  0.19085712192E+01  0.50400000000E-02 0.  1.
          2    1    1    2    0  502  0.14729727040E+02 -0.25032139964E+02  0.53280638564E+03  0.53359743016E+03  0.25500000000E-02 0.  1.
         -2    1    1    2  502    0 -0.14729727040E+02  0.25032139964E+02  0.13787020787E+03  0.14089629915E+03  0.25500000000E-02 0.  1.
<mgrwt>
<rscale>  0 0.71656806E+02</rscale>
<asrwt>0</asrwt>
<pdfrwt beam="1">  1        1 0.10347469E+00 0.71656806E+02</pdfrwt>
<pdfrwt beam="2">  1       -1 0.29362569E-03 0.71656806E+02</pdfrwt>
<totfact> 0.26685762E+05</totfact>
</mgrwt>
</event>
<event>
 4    1  0.2051373E-002  0.4585544E+02  0.7818608E-02  0.1469071E+00
          1   -1    0    0    0  501  0.00000000000E+00  0.00000000000E+00  0.58013569282E+03  0.58013569284E+03  0.50400000000E-02 0.  1.
         -1   -1    0    0  501    0 -0.00000000000E+00 -0.00000000000E+00 -0.90612658211E+00  0.90614059858E+00  0.50400000000E-02 0.  1.
          2    1    1    2    0  502  0.22605728297E+02 -0.37947484285E+01  0.29609292025E+03  0.29697884857E+03  0.25500000000E-02 0.  1.
         -2    1    1    2  502    0 -0.22605728297E+02  0.37947484285E+01  0.28313664599E+03  0.28406298487E+03  0.25500000000E-02 0.  1.
<mgrwt>
<rscale>  0 0.45855445E+02</rscale>
<asrwt>0</asrwt>
<pdfrwt beam="1">  1        1 0.89251768E-01 0.45855445E+02</pdfrwt>
<pdfrwt beam="2">  1       -1 0.13940498E-03 0.45855445E+02</pdfrwt>
<totfact> 0.81730028E+05</totfact>
</mgrwt>
</event>
<event>
 4    1  0.2051373E-002  0.5169200E+02  0.7818608E-02  0.1436423E+00
          1   -1    0    0    0  501  0.00000000000E+00  0.00000000000E+00  0.65091645030E+03  0.65091645032E+03  0.50400000000E-02 0. -1.
         -1   -1    0    0  501    0 -0.00000000000E+00 -0.00000000000E+00 -0.10262631507E+01  0.10262755264E+01  0.50400000000E-02 0. -1.
          2    1    1    2    0  502  0.12977423400E+02 -0.20567428676E+02  0.43531539268E+03  0.43599417857E+03  0.25500000000E-02 0. -1.
         -2    1    1    2  502    0 -0.12977423400E+02  0.20567428676E+02  0.21457479447E+03  0.21594854727E+03  0.25500000000E-02 0. -1.
<mgrwt>
<rscale>  0 0.51691996E+02</rscale>
<asrwt>0</asrwt>
<pdfrwt beam="1">  1        1 0.10014107E+00 0.51691996E+02</pdfrwt>
<pdfrwt beam="2">  1       -1 0.15788748E-03 0.51691996E+02</pdfrwt>
<totfact> 0.61072521E+05</totfact>
</mgrwt>
</event>
<event>
 4    1  0.2051373E-002  0.5618187E+02  0.7818608E-02  0.1414591E+00
         -1   -1    0    0  501    0 -0.00000000000E+00  0.00000000000E+00  0.12949071544E+02  0.12949072525E+02  0.50400000000E-02 0.  1.
          1   -1    0    0    0  501  0.00000000000E+00 -0.00000000000E+00 -0.60938780645E+02  0.60938780853E+02  0.50400000000E-02 0.  1.
          2    1    1    2    0  502 -0.17910278438E+02 -0.19426589613E+02 -0.11453889896E+02  0.28798646808E+02  0.25500000000E-02 0.  1.
         -2    1    1    2  502    0  0.17910278438E+02  0.19426589613E+02 -0.36535819204E+02  0.45089206570E+02  0.25500000000E-02 0.  1.
<mgrwt>
<rscale>  0 0.56181872E+02</rscale>
<asrwt>0</asrwt>
<pdfrwt beam="2">  1        1 0.93751970E-02 0.56181872E+02</pdfrwt>
<pdfrwt beam="1">  1       -1 0.19921650E-02 0.56181872E+02</pdfrwt>
<totfact> 0.35286027E+05</totfact>
</mgrwt>
</event>
<event>
 4    1  0.2051373E-002  0.7817697E+02  0.7818608E-02  0.1334306E+00
          1   -1    0    0    0  501  0.00000000000E+00  0.00000000000E+00  0.33717058853E+03  0.33717058857E+03  0.50400000000E-02 0. -1.
         -1   -1    0    0  501    0 -0.00000000000E+00 -0.00000000000E+00 -0.45315614368E+01  0.45315642396E+01  0.50400000000E-02 0. -1.
          2    1    1    2    0  502 -0.27639456110E+02 -0.25397609894E+02  0.21398647737E+03  0.21725374710E+03  0.25500000000E-02 0.  1.
         -2    1    1    2  502    0  0.27639456110E+02  0.25397609894E+02  0.11865254972E+03  0.12444840571E+03  0.25500000000E-02 0.  1.
<mgrwt>
<rscale>  0 0.78176972E+02</rscale>
<asrwt>0</asrwt>
<pdfrwt beam="1">  1        1 0.51872385E-01 0.78176972E+02</pdfrwt>
<pdfrwt beam="2">  1       -1 0.69716370E-03 0.78176972E+02</pdfrwt>
<totfact> 0.19651327E+05</totfact>
</mgrwt>
</event>
<event>
 4    1  0.2051373E-002  0.7497215E+02  0.7818608E-02  0.1343957E+00
          1   -1    0    0    0  501  0.00000000000E+00  0.00000000000E+00  0.11333250964E+04  0.11333250964E+04  0.50400000000E-02 0.  1.
         -1   -1    0    0  501    0 -0.00000000000E+00 -0.00000000000E+00 -0.12398914975E+01  0.12399017409E+01  0.50400000000E-02 0.  1.
          2    1    1    2    0  502 -0.21112136982E+02 -0.74769617186E+01  0.10209388765E+04  0.10211845165E+04  0.25500000000E-02 0. -1.
         -2    1    1    2  502    0  0.21112136982E+02  0.74769617186E+01  0.11114632837E+03  0.11338048157E+03  0.25500000000E-02 0. -1.
<mgrwt>
<rscale>  0 0.74972154E+02</rscale>
<asrwt>0</asrwt>
<pdfrwt beam="1">  1        1 0.17435747E+00 0.74972154E+02</pdfrwt>
<pdfrwt beam="2">  1       -1 0.19075359E-03 0.74972154E+02</pdfrwt>
<totfact> 0.21786899E+05</totfact>
</mgrwt>
</event>
<event>
 4    1  0.2051373E-002  0.5011249E+02  0.7818608E-02  0.1444736E+00
          1   -1    0    0    0  501  0.00000000000E+00  0.00000000000E+00  0.89853158346E+02  0.89853158488E+02  0.50400000000E-02 0. -1.
         -1   -1    0    0  501    0 -0.00000000000E+00 -0.00000000000E+00 -0.69871265644E+01  0.69871283821E+01  0.50400000000E-02 0. -1.
          2    1    1    2    0  502 -0.62314279610E+01  0.23817052956E+02  0.32424201862E+02  0.40711320034E+02  0.25500000000E-02 0.  1.
         -2    1    1    2  502    0  0.62314279610E+01 -0.23817052956E+02  0.50441829919E+02  0.56128966836E+02  0.25500000000E-02 0.  1.
<mgrwt>
<rscale>  0 0.50112493E+02</rscale>
<asrwt>0</asrwt>
<pdfrwt beam="1">  1        1 0.13823563E-01 0.50112493E+02</pdfrwt>
<pdfrwt beam="2">  1       -1 0.10749427E-02 0.50112493E+02</pdfrwt>
<totfact> 0.49508695E+05</totfact>
</mgrwt>
</event>
<event>
 4    1  0.2051373E-002  0.4671220E+02  0.7818608E-02  0.1463927E+00
          1   -1    0    0    0  501  0.00000000000E+00  0.00000000000E+00  0.46950669822E+01  0.46950696873E+01  0.50400000000E-02 0.  1.
         -1   -1    0    0  501    0 -0.00000000000E+00 -0.00000000000E+00 -0.11618730080E+03  0.11618730091E+03  0.50400000000E-02 0.  1.
          2    1    1    2    0  502 -0.40700074313E+01 -0.22870621044E+02 -0.49472578106E+02  0.54654974690E+02  0.25500000000E-02 0. -1.
         -2    1    1    2  502    0  0.40700074313E+01  0.22870621044E+02 -0.62019655714E+02  0.66227395908E+02  0.25500000000E-02 0. -1.
<mgrwt>
<rscale>  0 0.46712197E+02</rscale>
<asrwt>0</asrwt>
<pdfrwt beam="1">  1        1 0.72231830E-03 0.46712197E+02</pdfrwt>
<pdfrwt beam="2">  1       -1 0.17874967E-01 0.46712197E+02</pdfrwt>
<totfact> 0.42877716E+05</totfact>
</mgrwt>
</event>
<event>
 4    1  0.2051373E-002  0.7103054E+02  0.7818608E-02  0.1356623E+00
         -1   -1    0    0  501    0 -0.00000000000E+00  0.00000000000E+00  0.23935681220E+03  0.23935681225E+03  0.50400000000E-02 0. -1.
          1   -1    0    0    0  501  0.00000000000E+00 -0.00000000000E+00 -0.52696814649E+01  0.52696838750E+01  0.50400000000E-02 0. -1.
          2    1    1    2    0  502 -0.26359334243E+02  0.40221785127E+01  0.36250383979E+02  0.45000919622E+02  0.25500000000E-02 0. -1.
         -2    1    1    2  502    0  0.26359334243E+02 -0.40221785127E+01  0.19783674676E+03  0.19962557651E+03  0.25500000000E-02 0. -1.
<mgrwt>
<rscale>  0 0.71030542E+02</rscale>
<asrwt>0</asrwt>
<pdfrwt beam="2">  1        1 0.81072048E-03 0.71030542E+02</pdfrwt>
<pdfrwt beam="1">  1       -1 0.36824122E-01 0.71030542E+02</pdfrwt>
<totfact> 0.12535078E+05</totfact>
</mgrwt>
</event>
<event>
 4    1  0.2051373E-002  0.5220556E+02  0.7818608E-02  0.1433796E+00
          1   -1    0    0    0  501  0.00000000000E+00  0.00000000000E+00  0.40401306189E+02  0.40401306503E+02  0.50400000000E-02 0.  1.
         -1   -1    0    0  501    0 -0.00000000000E+00 -0.00000000000E+00 -0.16864681721E+02  0.16864682475E+02  0.50400000000E-02 0.  1.
          2    1    1    2    0  502 -0.57306955032E+01  0.22427809194E+02 -0.14636108267E+01  0.23194604100E+02  0.25500000000E-02 0. -1.
         -2    1    1    2  502    0  0.57306955032E+01 -0.22427809194E+02  0.25000235294E+02  0.34071384877E+02  0.25500000000E-02 0. -1.
<mgrwt>
<rscale>  0 0.52205563E+02</rscale>
<asrwt>0</asrwt>
<pdfrwt beam="1">  1        1 0.62155856E-02 0.52205563E+02</pdfrwt>
<pdfrwt beam="2">  1       -1 0.25945665E-02 0.52205563E+02</pdfrwt>
<totfact> 0.40877913E+05</totfact>
</mgrwt>
</event>
<event>
 4    1  0.2051373E-002  0.5516388E+02  0.7818608E-02  0.1419325E+00
          1   -1    0    0    0  501  0.00000000000E+00  0.00000000000E+00  0.48667478747E+03  0.48667478750E+03  0.50400000000E-02 0.  1.
         -1   -1    0    0  501    0 -0.00000000000E+00 -0.00000000000E+00 -0.15631821759E+01  0.15631903008E+01  0.50400000000E-02 0.  1.
          2    1    1    2    0  502 -0.27354997163E+02 -0.18774381737E+01  0.21608842429E+03  0.21782109118E+03  0.25500000000E-02 0. -1.
         -2    1    1    2  502    0  0.27354997163E+02  0.18774381737E+01  0.26902318101E+03  0.27041688662E+03  0.25500000000E-02 0. -1.
<mgrwt>
<rscale>  0 0.55163877E+02</rscale>
<asrwt>0</asrwt>
<pdfrwt beam="1">  1        1 0.74873065E-01 0.55163877E+02</pdfrwt>
<pdfrwt beam="2">  1       -1 0.24049013E-03 0.55163877E+02</pdfrwt>
<totfact> 0.50820632E+05</totfact>
</mgrwt>
</event>
<event>
 4    1  0.2051373E-002  0.4231172E+02  0.7818608E-02  0.1491857E+00
          1   -1    0    0    0  501  0.00000000000E+00  0.00000000000E+00  0.94512628801E+03  0.94512628803E+03  0.50400000000E-02 0. -1.
         -1   -1    0    0  501    0 -0.00000000000E+00 -0.00000000000E+00 -0.47354284688E+00  0.47356966693E+00  0.50400000000E-02 0. -1.
          2    1    1    2    0  502 -0.13103225741E+02 -0.16308824185E+02  0.54263762746E+03  0.54304076000E+03  0.25500000000E-02 0. -1.
         -2    1    1    2  502    0  0.13103225741E+02  0.16308824185E+02  0.40201511770E+03  0.40255909770E+03  0.25500000000E-02 0. -1.
<mgrwt>
<rscale>  0 0.42311723E+02</rscale>
<asrwt>0</asrwt>
<pdfrwt beam="1">  1        1 0.14540225E+00 0.42311723E+02</pdfrwt>
<pdfrwt beam="2">  1       -1 0.72855712E-04 0.42311723E+02</pdfrwt>
<totfact> 0.96940318E+05</totfact>
</mgrwt>
</event>
<event>
 4    1  0.2051373E-002  0.4283829E+02  0.7818608E-02  0.1488306E+00
          1   -1    0    0    0  501  0.00000000000E+00  0.00000000000E+00  0.12309783708E+04  0.12309783708E+04  0.50400000000E-02 0. -1.
         -1   -1    0    0  501    0 -0.00000000000E+00 -0.00000000000E+00 -0.37267810408E+00  0.37271218234E+00  0.50400000000E-02 0. -1.
          2    1    1    2    0  502  0.47634239226E+01  0.20803781318E+02  0.56314867095E+03  0.56355293729E+03  0.25500000000E-02 0.  1.
         -2    1    1    2  502    0 -0.47634239226E+01 -0.20803781318E+02  0.66745702176E+03  0.66779814572E+03  0.25500000000E-02 0.  1.
<mgrwt>
<rscale>  0 0.42838285E+02</rscale>
<asrwt>0</asrwt>
<pdfrwt beam="1">  1        1 0.18938083E+00 0.42838285E+02</pdfrwt>
<pdfrwt beam="2">  1       -1 0.57337853E-04 0.42838285E+02</pdfrwt>
<totfact> 0.86006468E+05</totfact>
</mgrwt>
</event>
<event>
 4    1  0.2051373E-002  0.1182310E+03  0.7818608E-02  0.1246044E+00
          1   -1    0    0    0  501  0.00000000000E+00  0.00000000000E+00  0.46818276273E+03  0.46818276275E+03  0.50400000000E-02 0. -1.
         -1   -1    0    0  501    0 -0.00000000000E+00 -0.00000000000E+00 -0.74642731844E+01  0.74642748859E+01  0.50400000000E-02 0. -1.
          2    1    1    2    0  502  0.50767327820E+02  0.14136132950E+02  0.33812034590E+03  0.34220245491E+03  0.25500000000E-02 0. -1.
         -2    1    1    2  502    0 -0.50767327820E+02 -0.14136132950E+02  0.12259814364E+03  0.13344458273E+03  0.25500000000E-02 0. -1.
<mgrwt>
<rscale>  0 0.11823104E+03</rscale>
<asrwt>0</asrwt>
<pdfrwt beam="1">  1        1 0.72028118E-01 0.11823104E+03</pdfrwt>
<pdfrwt beam="2">  1       -1 0.11483498E-02 0.11823104E+03</pdfrwt>
<totfact> 0.68723715E+04</totfact>
</mgrwt>
</event>
<event>
 4    1  0.2051373E-002  0.1669857E+03  0.7818608E-02  0.1181028E+00
         -1   -1    0    0  501    0 -0.00000000000E+00  0.00000000000E+00  0.90907366792E+02  0.90907366932E+02  0.50400000000E-02 0.  1.
          1   -1    0    0    0  501  0.00000000000E+00 -0.00000000000E+00 -0.76683053603E+02  0.76683053768E+02  0.50400000000E-02 0.  1.
          2    1    1    2    0  502  0.68100908617E+01 -0.39212371657E+02  0.80774604613E+02  0.90047344133E+02  0.25500000000E-02 0. -1.
         -2    1    1    2  502    0 -0.68100908617E+01  0.39212371657E+02 -0.66550291424E+02  0.77543076568E+02  0.25500000000E-02 0. -1.
<mgrwt>
<rscale>  0 0.16698568E+03</rscale>
<asrwt>0</asrwt>
<pdfrwt beam="2">  1        1 0.11797393E-01 0.16698568E+03</pdfrwt>
<pdfrwt beam="1">  1       -1 0.13985749E-01 0.16698568E+03</pdfrwt>
<totfact> 0.17464525E+04</totfact>
</mgrwt>
</event>
<event>
 4    1  0.2051373E-002  0.4403195E+02  0.7818608E-02  0.1480477E+00
          1   -1    0    0    0  501  0.00000000000E+00  0.00000000000E+00  0.87550127560E+03  0.87550127561E+03  0.50400000000E-02 0.  1.
         -1   -1    0    0  501    0 -0.00000000000E+00 -0.00000000000E+00 -0.55361769362E+00  0.55364063461E+00  0.50400000000E-02 0.  1.
          2    1    1    2    0  502 -0.34848927530E+01  0.21267298451E+02  0.52702874791E+03  0.52746918734E+03  0.25500000000E-02 0. -1.
         -2    1    1    2  502    0  0.34848927530E+01 -0.21267298451E+02  0.34791890999E+03  0.34858572890E+03  0.25500000000E-02 0. -1.
<mgrwt>
<rscale>  0 0.44031945E+02</rscale>
<asrwt>0</asrwt>
<pdfrwt beam="1">  1        1 0.13469146E+00 0.44031945E+02</pdfrwt>
<pdfrwt beam="2">  1       -1 0.85174381E-04 0.44031945E+02</pdfrwt>
<totfact> 0.89173252E+05</totfact>
</mgrwt>
</event>
<event>
 4    1  0.2051373E-002  0.5161300E+02  0.7818608E-02  0.1436831E+00
         -1   -1    0    0  501    0 -0.00000000000E+00  0.00000000000E+00  0.10581922930E+04  0.10581922930E+04  0.50400000000E-02 0.  1.
          1   -1    0    0    0  501  0.00000000000E+00 -0.00000000000E+00 -0.62934200925E+00  0.62936219001E+00  0.50400000000E-02 0.  1.
          2    1    1    2    0  502 -0.16228033633E+02  0.18675625202E+02  0.67931957510E+03  0.67976997078E+03  0.25500000000E-02 0.  1.
         -2    1    1    2  502    0  0.16228033633E+02 -0.18675625202E+02  0.37824337592E+03  0.37905168446E+03  0.25500000000E-02 0.  1.
<mgrwt>
<rscale>  0 0.51613004E+02</rscale>
<asrwt>0</asrwt>
<pdfrwt beam="2">  1        1 0.96823869E-04 0.51613004E+02</pdfrwt>
<pdfrwt beam="1">  1       -1 0.16279803E+00 0.51613004E+02</pdfrwt>
<totfact> 0.10266388E+05</totfact>
</mgrwt>
</event>
<event>
 4    1  0.2051373E-002  0.7446382E+02  0.7818608E-02  0.1345539E+00
         -1   -1    0    0  501    0 -0.00000000000E+00  0.00000000000E+00  0.43561054370E+02  0.43561054661E+02  0.50400000000E-02 0.  1.
          1   -1    0    0    0  501  0.00000000000E+00 -0.00000000000E+00 -0.31822347985E+02  0.31822348384E+02  0.50400000000E-02 0.  1.
          2    1    1    2    0  502 -0.36617583423E+02  0.55491001027E+01  0.97342379198E+01  0.38293541519E+02  0.25500000000E-02 0.  1.
         -2    1    1    2  502    0  0.36617583423E+02 -0.55491001027E+01  0.20044684651E+01  0.37089861526E+02  0.25500000000E-02 0.  1.
<mgrwt>
<rscale>  0 0.74463818E+02</rscale>
<asrwt>0</asrwt>
<pdfrwt beam="2">  1        1 0.48957459E-02 0.74463818E+02</pdfrwt>
<pdfrwt beam="1">  1       -1 0.67017007E-02 0.74463818E+02</pdfrwt>
<totfact> 0.15449380E+05</totfact>
</mgrwt>
</event>
<event>
 4    1  0.2051373E-002  0.4527050E+02  0.7818608E-02  0.1472660E+00
          1   -1    0    0    0  501  0.00000000000E+00  0.00000000000E+00  0.41489239211E+03  0.41489239214E+03  0.50400000000E-02 0.  1.
         -1   -1    0    0  501    0 -0.00000000000E+00 -0.00000000000E+00 -0.12349042870E+01  0.12349145718E+01  0.50400000000E-02 0.  1.
          2    1    1    2    0  502 -0.38124018954E+01 -0.20932940094E+02  0.13584626888E+03  0.13750247694E+03  0.25500000000E-02 0.  1.
         -2    1    1    2  502    0  0.38124018954E+01  0.20932940094E+02  0.27781121894E+03  0.27862482977E+03  0.25500000000E-02 0.  1.
<mgrwt>
<rscale>  0 0.45270500E+02</rscale>
<asrwt>0</asrwt>
<pdfrwt beam="1">  1        1 0.63829535E-01 0.45270500E+02</pdfrwt>
<pdfrwt beam="2">  1       -1 0.18998626E-03 0.45270500E+02</pdfrwt>
<totfact> 0.81334757E+05</totfact>
</mgrwt>
</event>
<event>
 4    1  0.2051373E-002  0.6309202E+02  0.7818608E-02  0.1385296E+00
         -1   -1    0    0  501    0 -0.00000000000E+00  0.00000000000E+00  0.36567553128E+02  0.36567553475E+02  0.50400000000E-02 0.  1.
          1   -1    0    0    0  501  0.00000000000E+00 -0.00000000000E+00 -0.27214036522E+02  0.27214036989E+02  0.50400000000E-02 0.  1.
          2    1    1    2    0  502 -0.18534925119E+02 -0.76809527094E+01 -0.19932894977E+02  0.28281810274E+02  0.25500000000E-02 0.  1.
         -2    1    1    2  502    0  0.18534925119E+02  0.76809527094E+01  0.29286411583E+02  0.35499780191E+02  0.25500000000E-02 0.  1.
<mgrwt>
<rscale>  0 0.63092020E+02</rscale>
<asrwt>0</asrwt>
<pdfrwt beam="2">  1        1 0.41867749E-02 0.63092020E+02</pdfrwt>
<pdfrwt beam="1">  1       -1 0.56257774E-02 0.63092020E+02</pdfrwt>
<totfact> 0.23823437E+05</totfact>
</mgrwt>
</event>
<event>
 4    1  0.2051373E-002  0.4743327E+02  0.7818608E-02  0.1459699E+00
         -1   -1    0    0  501    0 -0.00000000000E+00  0.00000000000E+00  0.57885676659E+02  0.57885676879E+02  0.50400000000E-02 0. -1.
          1   -1    0    0    0  501  0.00000000000E+00 -0.00000000000E+00 -0.97170605066E+01  0.97170618137E+01  0.50400000000E-02 0. -1.
          2    1    1    2    0  502 -0.28409989398E+01  0.22794036902E+02  0.15671987497E+02  0.27807383766E+02  0.25500000000E-02 0.  1.
         -2    1    1    2  502    0  0.28409989398E+01 -0.22794036902E+02  0.32496628656E+02  0.39795354927E+02  0.25500000000E-02 0.  1.
<mgrwt>
<rscale>  0 0.47433266E+02</rscale>
<asrwt>0</asrwt>
<pdfrwt beam="2">  1        1 0.14949325E-02 0.47433266E+02</pdfrwt>
<pdfrwt beam="1">  1       -1 0.89054889E-02 0.47433266E+02</pdfrwt>
<totfact> 0.45739904E+05</totfact>
</mgrwt>
</event>
<event>
 4    1  0.2051373E-002  0.2856865E+03  0.7818608E-02  0.1092623E+00
         -1   -1    0    0  501    0 -0.00000000000E+00  0.00000000000E+00  0.26070218241E+03  0.26070218246E+03  0.50400000000E-02 0.  1.
          1   -1    0    0    0  501  0.00000000000E+00 -0.00000000000E+00 -0.78266290989E+02  0.78266291151E+02  0.50400000000E-02 0.  1.
          2    1    1    2    0  502  0.83627663024E+02 -0.34320229015E+02  0.22244738544E+03  0.24011310551E+03  0.25500000000E-02 0.  1.
         -2    1    1    2  502    0 -0.83627663024E+02  0.34320229015E+02 -0.40011494016E+02  0.98855368101E+02  0.25500000000E-02 0.  1.
<mgrwt>
<rscale>  0 0.28568649E+03</rscale>
<asrwt>0</asrwt>
<pdfrwt beam="2">  1        1 0.12040968E-01 0.28568649E+03</pdfrwt>
<pdfrwt beam="1">  1       -1 0.40108028E-01 0.28568649E+03</pdfrwt>
<totfact> 0.30603293E+03</totfact>
</mgrwt>
</event>
<event>
 4    1  0.2051373E-002  0.5037915E+02  0.7818608E-02  0.1443307E+00
         -1   -1    0    0  501    0 -0.00000000000E+00  0.00000000000E+00  0.11723058215E+02  0.11723059299E+02  0.50400000000E-02 0.  1.
          1   -1    0    0    0  501  0.00000000000E+00 -0.00000000000E+00 -0.54125346582E+02  0.54125346816E+02  0.50400000000E-02 0.  1.
          2    1    1    2    0  502  0.23239216693E+02 -0.50513903553E+00 -0.85154011743E+01  0.24755371571E+02  0.25500000000E-02 0.  1.
         -2    1    1    2  502    0 -0.23239216693E+02  0.50513903553E+00 -0.33886887192E+02  0.41093034544E+02  0.25500000000E-02 0.  1.
<mgrwt>
<rscale>  0 0.50379148E+02</rscale>
<asrwt>0</asrwt>
<pdfrwt beam="2">  1        1 0.83269763E-02 0.50379148E+02</pdfrwt>
<pdfrwt beam="1">  1       -1 0.18035476E-02 0.50379148E+02</pdfrwt>
<totfact> 0.46102100E+05</totfact>
</mgrwt>
</event>
<event>
 4    1  0.2051373E-002  0.4400953E+02  0.7818608E-02  0.1480621E+00
         -1   -1    0    0  501    0 -0.00000000000E+00  0.00000000000E+00  0.14196379169E+01  0.14196468633E+01  0.50400000000E-02 0.  1.
          1   -1    0    0    0  501  0.00000000000E+00 -0.00000000000E+00 -0.34107864890E+03  0.34107864894E+03  0.50400000000E-02 0.  1.
          2    1    1    2    0  502 -0.18117663569E+02  0.91642995896E+01 -0.23585388024E+03  0.23672618561E+03  0.25500000000E-02 0.  1.
         -2    1    1    2  502    0  0.18117663569E+02 -0.91642995896E+01 -0.10380513074E+03  0.10577211019E+03  0.25500000000E-02 0.  1.
<mgrwt>
<rscale>  0 0.44009532E+02</rscale>
<asrwt>0</asrwt>
<pdfrwt beam="2">  1        1 0.52473574E-01 0.44009532E+02</pdfrwt>
<pdfrwt beam="1">  1       -1 0.21840680E-03 0.44009532E+02</pdfrwt>
<totfact> 0.84573145E+05</totfact>
</mgrwt>
</event>
<event>
 4    1  0.2051373E-002  0.1383849E+03  0.7818608E-02  0.1215519E+00
         -1   -1    0    0  501    0 -0.00000000000E+00  0.00000000000E+00  0.48056605080E+02  0.48056605344E+02  0.50400000000E-02 0.  1.
          1   -1    0    0    0  501  0.00000000000E+00 -0.00000000000E+00 -0.99624130349E+02  0.99624130477E+02  0.50400000000E-02 0.  1.
          2    1    1    2    0  502 -0.44127757057E+02 -0.20224816375E+02 -0.78404132565E+02  0.92214479070E+02  0.25500000000E-02 0. -1.
         -2    1    1    2  502    0  0.44127757057E+02  0.20224816375E+02  0.26836607296E+02  0.55466256751E+02  0.25500000000E-02 0. -1.
<mgrwt>
<rscale>  0 0.13838493E+03</rscale>
<asrwt>0</asrwt>
<pdfrwt beam="2">  1        1 0.15326789E-01 0.13838493E+03</pdfrwt>
<pdfrwt beam="1">  1       -1 0.73933239E-02 0.13838493E+03</pdfrwt>
<totfact> 0.32342613E+04</totfact>
</mgrwt>
</event>
<event>
 4    1  0.2051373E-002  0.6292300E+02  0.7818608E-02  0.1385959E+00
         -1   -1    0    0  501    0 -0.00000000000E+00  0.00000000000E+00  0.28713155582E+01  0.28713199815E+01  0.50400000000E-02 0. -1.
          1   -1    0    0    0  501  0.00000000000E+00 -0.00000000000E+00 -0.34472880346E+03  0.34472880350E+03  0.50400000000E-02 0. -1.
          2    1    1    2    0  502 -0.95820995697E+01  0.24829527785E+02 -0.78243053844E+02  0.82645614303E+02  0.25500000000E-02 0. -1.
         -2    1    1    2  502    0  0.95820995697E+01 -0.24829527785E+02 -0.26361443406E+03  0.26495450918E+03  0.25500000000E-02 0. -1.
<mgrwt>
<rscale>  0 0.62922999E+02</rscale>
<asrwt>0</asrwt>
<pdfrwt beam="2">  1        1 0.53035168E-01 0.62922999E+02</pdfrwt>
<pdfrwt beam="1">  1       -1 0.44174147E-03 0.62922999E+02</pdfrwt>
<totfact> 0.34595428E+05</totfact>
</mgrwt>
</event>
<event>
 4    1  0.2051373E-002  0.4697385E+02  0.7818608E-02  0.1462382E+00
         -1   -1    0    0  501    0 -0.00000000000E+00  0.00000000000E+00  0.17949328976E+01  0.17949399735E+01  0.50400000000E-02 0.  1.
          1   -1    0    0    0  501  0.00000000000E+00 -0.00000000000E+00 -0.30732878916E+03  0.30732878920E+03  0.50400000000E-02 0.  1.
          2    1    1    2    0  502 -0.21385819654E+02 -0.81610072962E+01 -0.18738969555E+03  0.18878255568E+03  0.25500000000E-02 0. -1.
         -2    1    1    2  502    0  0.21385819654E+02  0.81610072962E+01 -0.11814416071E+03  0.12034117350E+03  0.25500000000E-02 0. -1.
<mgrwt>
<rscale>  0 0.46973850E+02</rscale>
<asrwt>0</asrwt>
<pdfrwt beam="2">  1        1 0.47281311E-01 0.46973850E+02</pdfrwt>
<pdfrwt beam="1">  1       -1 0.27614432E-03 0.46973850E+02</pdfrwt>
<totfact> 0.70778867E+05</totfact>
</mgrwt>
</event>
<event>
 4    1  0.2051373E-002  0.5154562E+02  0.7818608E-02  0.1437179E+00
         -1   -1    0    0  501    0 -0.00000000000E+00  0.00000000000E+00  0.17886430818E+01  0.17886501826E+01  0.50400000000E-02 0. -1.
          1   -1    0    0    0  501  0.00000000000E+00 -0.00000000000E+00 -0.37136325670E+03  0.37136325674E+03  0.50400000000E-02 0. -1.
          2    1    1    2    0  502  0.94084986258E+01  0.19426541374E+02 -0.28673682139E+03  0.28754810920E+03  0.25500000000E-02 0. -1.
         -2    1    1    2  502    0 -0.94084986258E+01 -0.19426541374E+02 -0.82837792236E+02  0.85603797726E+02  0.25500000000E-02 0. -1.
<mgrwt>
<rscale>  0 0.51545617E+02</rscale>
<asrwt>0</asrwt>
<pdfrwt beam="2">  1        1 0.57132748E-01 0.51545617E+02</pdfrwt>
<pdfrwt beam="1">  1       -1 0.27517670E-03 0.51545617E+02</pdfrwt>
<totfact> 0.57980909E+05</totfact>
</mgrwt>
</event>
<event>
 4    1  0.2051373E-002  0.7750574E+02  0.7818608E-02  0.1336283E+00
         -1   -1    0    0  501    0 -0.00000000000E+00  0.00000000000E+00  0.13769213184E+03  0.13769213193E+03  0.50400000000E-02 0.  1.
          1   -1    0    0    0  501  0.00000000000E+00 -0.00000000000E+00 -0.10906831303E+02  0.10906832468E+02  0.50400000000E-02 0.  1.
          2    1    1    2    0  502  0.18936930697E+02 -0.96885292682E+01  0.12549868744E+03  0.12728863068E+03  0.25500000000E-02 0.  1.
         -2    1    1    2  502    0 -0.18936930697E+02  0.96885292682E+01  0.12866130944E+01  0.21310333722E+02  0.25500000000E-02 0.  1.
<mgrwt>
<rscale>  0 0.77505740E+02</rscale>
<asrwt>0</asrwt>
<pdfrwt beam="2">  1        1 0.16779741E-02 0.77505740E+02</pdfrwt>
<pdfrwt beam="1">  1       -1 0.21183406E-01 0.77505740E+02</pdfrwt>
<totfact> 0.11596402E+05</totfact>
</mgrwt>
</event>
<event>
 4    1  0.2051373E-002  0.4802125E+02  0.7818608E-02  0.1456316E+00
         -1   -1    0    0  501    0 -0.00000000000E+00  0.00000000000E+00  0.97436706949E+01  0.97436719984E+01  0.50400000000E-02 0.  1.
          1   -1    0    0    0  501  0.00000000000E+00 -0.00000000000E+00 -0.59167644703E+02  0.59167644918E+02  0.50400000000E-02 0.  1.
          2    1    1    2    0  502 -0.22365234720E+02 -0.34468654251E+01 -0.36230222324E+02  0.42716666788E+02  0.25500000000E-02 0.  1.
         -2    1    1    2  502    0  0.22365234720E+02  0.34468654251E+01 -0.13193751684E+02  0.26194650128E+02  0.25500000000E-02 0.  1.
<mgrwt>
<rscale>  0 0.48021249E+02</rscale>
<asrwt>0</asrwt>
<pdfrwt beam="2">  1        1 0.91027145E-02 0.48021249E+02</pdfrwt>
<pdfrwt beam="1">  1       -1 0.14990264E-02 0.48021249E+02</pdfrwt>
<totfact> 0.52553323E+05</totfact>
</mgrwt>
</event>
<event>
 4    1  0.2051373E-002  0.5263426E+02  0.7818608E-02  0.1431630E+00
         -1   -1    0    0  501    0 -0.00000000000E+00  0.00000000000E+00  0.20913969485E+03  0.20913969491E+03  0.50400000000E-02 0. -1.
          1   -1    0    0    0  501  0.00000000000E+00 -0.00000000000E+00 -0.33116182385E+01  0.33116220737E+01  0.50400000000E-02 0. -1.
          2    1    1    2    0  502  0.18174670962E+02 -0.18961387750E+02  0.96234675536E+02  0.99754527075E+02  0.25500000000E-02 0.  1.
         -2    1    1    2  502    0 -0.18174670962E+02  0.18961387750E+02  0.10959340107E+03  0.11269678991E+03  0.25500000000E-02 0.  1.
<mgrwt>
<rscale>  0 0.52634257E+02</rscale>
<asrwt>0</asrwt>
<pdfrwt beam="2">  1        1 0.50947997E-03 0.52634257E+02</pdfrwt>
<pdfrwt beam="1">  1       -1 0.32175342E-01 0.52634257E+02</pdfrwt>
<totfact> 0.27863896E+05</totfact>
</mgrwt>
</event>
<event>
 4    1  0.2051373E-002  0.8637561E+02  0.7818608E-02  0.1311874E+00
          1   -1    0    0    0  501  0.00000000000E+00  0.00000000000E+00  0.22329136087E+04  0.22329136087E+04  0.50400000000E-02 0. -1.
         -1   -1    0    0  501    0 -0.00000000000E+00 -0.00000000000E+00 -0.83530755698E+00  0.83532276178E+00  0.50400000000E-02 0. -1.
          2    1    1    2    0  502  0.16014097195E+01  0.35864291366E+02  0.49517630980E+03  0.49647597092E+03  0.25500000000E-02 0.  1.
         -2    1    1    2  502    0 -0.16014097195E+01 -0.35864291366E+02  0.17369019913E+04  0.17372729605E+04  0.25500000000E-02 0.  1.
<mgrwt>
<rscale>  0 0.86375612E+02</rscale>
<asrwt>0</asrwt>
<pdfrwt beam="1">  1        1 0.34352311E+00 0.86375612E+02</pdfrwt>
<pdfrwt beam="2">  1       -1 0.12851079E-03 0.86375612E+02</pdfrwt>
<totfact> 0.76492510E+04</totfact>
</mgrwt>
</event>
<event>
 4    1  0.2051373E-002  0.5115003E+02  0.7818608E-02  0.1439236E+00
         -1   -1    0    0  501    0 -0.00000000000E+00  0.00000000000E+00  0.13572377884E+03  0.13572377894E+03  0.50400000000E-02 0. -1.
          1   -1    0    0    0  501  0.00000000000E+00 -0.00000000000E+00 -0.48192080037E+01  0.48192106392E+01  0.50400000000E-02 0. -1.
          2    1    1    2    0  502 -0.22735430512E+02 -0.84181800738E+01  0.87827729558E+02  0.91112434070E+02  0.25500000000E-02 0.  1.
         -2    1    1    2  502    0  0.22735430512E+02  0.84181800738E+01  0.43076841282E+02  0.49430555506E+02  0.25500000000E-02 0.  1.
<mgrwt>
<rscale>  0 0.51150027E+02</rscale>
<asrwt>0</asrwt>
<pdfrwt beam="2">  1        1 0.74141675E-03 0.51150027E+02</pdfrwt>
<pdfrwt beam="1">  1       -1 0.20880584E-01 0.51150027E+02</pdfrwt>
<totfact> 0.33248818E+05</totfact>
</mgrwt>
</event>
<event>
 4    1  0.2051373E-002  0.5647982E+02  0.7818608E-02  0.1413228E+00
         -1   -1    0    0  501    0 -0.00000000000E+00  0.00000000000E+00  0.67594376915E+00  0.67596255861E+00  0.50400000000E-02 0.  1.
          1   -1    0    0    0  501  0.00000000000E+00 -0.00000000000E+00 -0.11798045788E+04  0.11798045788E+04  0.50400000000E-02 0.  1.
          2    1    1    2    0  502 -0.15710323342E+02 -0.21401967469E+02 -0.38839992665E+03  0.38930625669E+03  0.25500000000E-02 0. -1.
         -2    1    1    2  502    0  0.15710323342E+02  0.21401967469E+02 -0.79072870835E+03  0.79117428465E+03  0.25500000000E-02 0. -1.
<mgrwt>
<rscale>  0 0.56479825E+02</rscale>
<asrwt>0</asrwt>
<pdfrwt beam="2">  1        1 0.18150675E+00 0.56479825E+02</pdfrwt>
<pdfrwt beam="1">  1       -1 0.10399374E-03 0.56479825E+02</pdfrwt>
<totfact> 0.44184138E+05</totfact>
</mgrwt>
</event>
<event>
 4    1  0.2051373E-002  0.9408334E+02  0.7818608E-02  0.1293254E+00
         -1   -1    0    0  501    0 -0.00000000000E+00  0.00000000000E+00  0.38285037075E+03  0.38285037079E+03  0.50400000000E-02 0.  1.
          1   -1    0    0    0  501  0.00000000000E+00 -0.00000000000E+00 -0.57801121059E+01  0.57801143032E+01  0.50400000000E-02 0.  1.
          2    1    1    2    0  502  0.46673546502E+02 -0.16581831289E+01  0.16526016541E+03  0.17173261715E+03  0.25500000000E-02 0. -1.
         -2    1    1    2  502    0 -0.46673546502E+02  0.16581831289E+01  0.21181009324E+03  0.21689786794E+03  0.25500000000E-02 0. -1.
<mgrwt>
<rscale>  0 0.94083335E+02</rscale>
<asrwt>0</asrwt>
<pdfrwt beam="2">  1        1 0.88924792E-03 0.94083335E+02</pdfrwt>
<pdfrwt beam="1">  1       -1 0.58900075E-01 0.94083335E+02</pdfrwt>
<totfact> 0.50155688E+04</totfact>
</mgrwt>
</event>
<event>
 4    1  0.2051373E-002  0.6740235E+02  0.7818608E-02  0.1369156E+00
          1   -1    0    0    0  501  0.00000000000E+00  0.00000000000E+00  0.25041205508E+03  0.25041205513E+03  0.50400000000E-02 0. -1.
         -1   -1    0    0  501    0 -0.00000000000E+00 -0.00000000000E+00 -0.45355994471E+01  0.45356022473E+01  0.50400000000E-02 0. -1.
          2    1    1    2    0  502  0.16077163534E+02 -0.22495393132E+02  0.50057961378E+02  0.57186689040E+02  0.25500000000E-02 0. -1.
         -2    1    1    2  502    0 -0.16077163534E+02  0.22495393132E+02  0.19581849425E+03  0.19776096833E+03  0.25500000000E-02 0. -1.
<mgrwt>
<rscale>  0 0.67402348E+02</rscale>
<asrwt>0</asrwt>
<pdfrwt beam="1">  1        1 0.38524939E-01 0.67402348E+02</pdfrwt>
<pdfrwt beam="2">  1       -1 0.69778461E-03 0.67402348E+02</pdfrwt>
<totfact> 0.27364771E+05</totfact>
</mgrwt>
</event>
<event>
 4    1  0.2051373E-002  0.7774130E+02  0.7818608E-02  0.1335586E+00
         -1   -1    0    0  501    0 -0.00000000000E+00  0.00000000000E+00  0.77007437982E+01  0.77007454475E+01  0.50400000000E-02 0. -1.
          1   -1    0    0    0  501  0.00000000000E+00 -0.00000000000E+00 -0.19620537601E+03  0.19620537607E+03  0.50400000000E-02 0. -1.
          2    1    1    2    0  502  0.33227777629E+02 -0.17446089895E+02 -0.12080387654E+03  0.12649912194E+03  0.25500000000E-02 0. -1.
         -2    1    1    2  502    0 -0.33227777629E+02  0.17446089895E+02 -0.67700755671E+02  0.77406999578E+02  0.25500000000E-02 0. -1.
<mgrwt>
<rscale>  0 0.77741302E+02</rscale>
<asrwt>0</asrwt>
<pdfrwt beam="2">  1        1 0.30185439E-01 0.77741302E+02</pdfrwt>
<pdfrwt beam="1">  1       -1 0.11847301E-02 0.77741302E+02</pdfrwt>
<totfact> 0.18022014E+05</totfact>
</mgrwt>
</event>
<event>
 4    1  0.2051373E-002  0.1501636E+03  0.7818608E-02  0.1200272E+00
         -1   -1    0    0  501    0 -0.00000000000E+00  0.00000000000E+00  0.12592279079E+02  0.12592280088E+02  0.50400000000E-02 0. -1.
          1   -1    0    0    0  501  0.00000000000E+00 -0.00000000000E+00 -0.44767717538E+03  0.44767717541E+03  0.50400000000E-02 0. -1.
          2    1    1    2    0  502 -0.65012715120E+02  0.35260175966E+02 -0.25719318953E+03  0.26761589991E+03  0.25500000000E-02 0.  1.
         -2    1    1    2  502    0  0.65012715120E+02 -0.35260175966E+02 -0.17789170677E+03  0.19265355559E+03  0.25500000000E-02 0.  1.
<mgrwt>
<rscale>  0 0.15016359E+03</rscale>
<asrwt>0</asrwt>
<pdfrwt beam="2">  1        1 0.68873399E-01 0.15016359E+03</pdfrwt>
<pdfrwt beam="1">  1       -1 0.19372741E-02 0.15016359E+03</pdfrwt>
<totfact> 0.35329442E+04</totfact>
</mgrwt>
</event>
<event>
 4    1  0.2051373E-002  0.4659030E+02  0.7818608E-02  0.1464651E+00
         -1   -1    0    0  501    0 -0.00000000000E+00  0.00000000000E+00  0.37209122359E+00  0.37212535559E+00  0.50400000000E-02 0. -1.
          1   -1    0    0    0  501  0.00000000000E+00 -0.00000000000E+00 -0.14583499658E+04  0.14583499658E+04  0.50400000000E-02 0. -1.
          2    1    1    2    0  502 -0.48928407372E+01  0.22024325872E+02 -0.91062029034E+03  0.91089973323E+03  0.25500000000E-02 0. -1.
         -2    1    1    2  502    0  0.48928407372E+01 -0.22024325872E+02 -0.54735758427E+03  0.54782235796E+03  0.25500000000E-02 0. -1.
<mgrwt>
<rscale>  0 0.46590305E+02</rscale>
<asrwt>0</asrwt>
<pdfrwt beam="2">  1        1 0.22435696E+00 0.46590305E+02</pdfrwt>
<pdfrwt beam="1">  1       -1 0.57248597E-04 0.46590305E+02</pdfrwt>
<totfact> 0.63080700E+05</totfact>
</mgrwt>
</event>
<event>
 4    1  0.2051373E-002  0.4941189E+02  0.7818608E-02  0.1448540E+00
         -1   -1    0    0  501    0 -0.00000000000E+00  0.00000000000E+00  0.72088831206E+01  0.72088848824E+01  0.50400000000E-02 0. -1.
          1   -1    0    0    0  501  0.00000000000E+00 -0.00000000000E+00 -0.84671043349E+02  0.84671043499E+02  0.50400000000E-02 0. -1.
          2    1    1    2    0  502 -0.19800746763E+02 -0.28699591645E+01 -0.11779828286E+02  0.23217893939E+02  0.25500000000E-02 0. -1.
         -2    1    1    2  502    0  0.19800746763E+02  0.28699591645E+01 -0.65682331942E+02  0.68662034442E+02  0.25500000000E-02 0. -1.
<mgrwt>
<rscale>  0 0.49411891E+02</rscale>
<asrwt>0</asrwt>
<pdfrwt beam="2">  1        1 0.13026314E-01 0.49411891E+02</pdfrwt>
<pdfrwt beam="1">  1       -1 0.11090591E-02 0.49411891E+02</pdfrwt>
<totfact> 0.50919789E+05</totfact>
</mgrwt>
</event>
<event>
 4    1  0.2051373E-002  0.5007429E+02  0.7818608E-02  0.1444941E+00
          1   -1    0    0    0  501  0.00000000000E+00  0.00000000000E+00  0.80703441293E+03  0.80703441294E+03  0.50400000000E-02 0. -1.
         -1   -1    0    0  501    0 -0.00000000000E+00 -0.00000000000E+00 -0.77673508203E+00  0.77675143337E+00  0.50400000000E-02 0. -1.
          2    1    1    2    0  502 -0.17248014669E+02  0.18147798163E+02  0.40551930028E+03  0.40629144649E+03  0.25500000000E-02 0.  1.
         -2    1    1    2  502    0  0.17248014669E+02 -0.18147798163E+02  0.40073837757E+03  0.40151971789E+03  0.25500000000E-02 0.  1.
<mgrwt>
<rscale>  0 0.50074287E+02</rscale>
<asrwt>0</asrwt>
<pdfrwt beam="1">  1        1 0.12415962E+00 0.50074287E+02</pdfrwt>
<pdfrwt beam="2">  1       -1 0.11949851E-03 0.50074287E+02</pdfrwt>
<totfact> 0.65621158E+05</totfact>
</mgrwt>
</event>
<event>
 4    1  0.2051373E-002  0.4211743E+02  0.7818608E-02  0.1493183E+00
          1   -1    0    0    0  501  0.00000000000E+00  0.00000000000E+00  0.28043443392E+03  0.28043443397E+03  0.50400000000E-02 0.  1.
         -1   -1    0    0  501    0 -0.00000000000E+00 -0.00000000000E+00 -0.15813622117E+01  0.15813702432E+01  0.50400000000E-02 0.  1.
          2    1    1    2    0  502 -0.20344665594E+02  0.54279409885E+01  0.14156071963E+03  0.14311815157E+03  0.25500000000E-02 0.  1.
         -2    1    1    2  502    0  0.20344665594E+02 -0.54279409885E+01  0.13729235208E+03  0.13889765264E+03  0.25500000000E-02 0.  1.
<mgrwt>
<rscale>  0 0.42117434E+02</rscale>
<asrwt>0</asrwt>
<pdfrwt beam="1">  1        1 0.43143775E-01 0.42117434E+02</pdfrwt>
<pdfrwt beam="2">  1       -1 0.24328703E-03 0.42117434E+02</pdfrwt>
<totfact> 0.91114372E+05</totfact>
</mgrwt>
</event>
<event>
 4    1  0.2051373E-002  0.5082167E+02  0.7818608E-02  0.1440959E+00
         -1   -1    0    0  501    0 -0.00000000000E+00  0.00000000000E+00  0.17039256999E+03  0.17039257006E+03  0.50400000000E-02 0. -1.
          1   -1    0    0    0  501  0.00000000000E+00 -0.00000000000E+00 -0.37895444677E+01  0.37895478192E+01  0.50400000000E-02 0. -1.
          2    1    1    2    0  502  0.12052202583E+02 -0.19063290106E+02  0.12342398246E+03  0.12546770130E+03  0.25500000000E-02 0.  1.
         -2    1    1    2  502    0 -0.12052202583E+02  0.19063290106E+02  0.43179043063E+02  0.48714416584E+02  0.25500000000E-02 0.  1.
<mgrwt>
<rscale>  0 0.50821669E+02</rscale>
<asrwt>0</asrwt>
<pdfrwt beam="2">  1        1 0.58300713E-03 0.50821669E+02</pdfrwt>
<pdfrwt beam="1">  1       -1 0.26214241E-01 0.50821669E+02</pdfrwt>
<totfact> 0.32100902E+05</totfact>
</mgrwt>
</event>
<event>
 4    1  0.2051373E-002  0.9361824E+02  0.7818608E-02  0.1294319E+00
          1   -1    0    0    0  501  0.00000000000E+00  0.00000000000E+00  0.22428044087E+03  0.22428044093E+03  0.50400000000E-02 0. -1.
         -1   -1    0    0  501    0 -0.00000000000E+00 -0.00000000000E+00 -0.97694358416E+01  0.97694371417E+01  0.50400000000E-02 0. -1.
          2    1    1    2    0  502 -0.11184024622E+02 -0.39429658667E+02  0.50723881121E+02  0.65212671406E+02  0.25500000000E-02 0. -1.
         -2    1    1    2  502    0  0.11184024622E+02  0.39429658667E+02  0.16378712391E+03  0.16883720666E+03  0.25500000000E-02 0. -1.
<mgrwt>
<rscale>  0 0.93618236E+02</rscale>
<asrwt>0</asrwt>
<pdfrwt beam="1">  1        1 0.34504684E-01 0.93618236E+02</pdfrwt>
<pdfrwt beam="2">  1       -1 0.15029902E-02 0.93618236E+02</pdfrwt>
<totfact> 0.11279365E+05</totfact>
</mgrwt>
</event>
<event>
 4    1  0.2051373E-002  0.6433638E+02  0.7818608E-02  0.1380485E+00
         -1   -1    0    0  501    0 -0.00000000000E+00  0.00000000000E+00  0.17274747379E+02  0.17274748115E+02  0.50400000000E-02 0.  1.
          1   -1    0    0    0  501  0.00000000000E+00 -0.00000000000E+00 -0.59902028760E+02  0.59902028972E+02  0.50400000000E-02 0.  1.
          2    1    1    2    0  502 -0.28929214009E+02  0.65119549655E+01 -0.36271784583E+02  0.46850265143E+02  0.25500000000E-02 0. -1.
         -2    1    1    2  502    0  0.28929214009E+02 -0.65119549655E+01 -0.63554967983E+01  0.30326511944E+02  0.25500000000E-02 0. -1.
<mgrwt>
<rscale>  0 0.64336380E+02</rscale>
<asrwt>0</asrwt>
<pdfrwt beam="2">  1        1 0.92156967E-02 0.64336380E+02</pdfrwt>
<pdfrwt beam="1">  1       -1 0.26576535E-02 0.64336380E+02</pdfrwt>
<totfact> 0.24724499E+05</totfact>
</mgrwt>
</event>
<event>
 4    1  0.2051373E-002  0.5335201E+02  0.7818608E-02  0.1428057E+00
         -1   -1    0    0  501    0 -0.00000000000E+00  0.00000000000E+00  0.28638743743E+01  0.28638788091E+01  0.50400000000E-02 0. -1.
          1   -1    0    0    0  501  0.00000000000E+00 -0.00000000000E+00 -0.24847763475E+03  0.24847763480E+03  0.50400000000E-02 0. -1.
          2    1    1    2    0  502  0.10668895155E+02  0.23587344974E+02 -0.92487218575E+02  0.96042041695E+02  0.25500000000E-02 0.  1.
         -2    1    1    2  502    0 -0.10668895155E+02 -0.23587344974E+02 -0.15312654180E+03  0.15529947192E+03  0.25500000000E-02 0.  1.
<mgrwt>
<rscale>  0 0.53352012E+02</rscale>
<asrwt>0</asrwt>
<pdfrwt beam="2">  1        1 0.38227312E-01 0.53352012E+02</pdfrwt>
<pdfrwt beam="1">  1       -1 0.44059660E-03 0.53352012E+02</pdfrwt>
<totfact> 0.49615851E+05</totfact>
</mgrwt>
</event>
<event>
 4    1  0.2051373E-002  0.5389374E+02  0.7818608E-02  0.1425404E+00
          1   -1    0    0    0  501  0.00000000000E+00  0.00000000000E+00  0.12190052170E+02  0.12190053212E+02  0.50400000000E-02 0. -1.
         -1   -1    0    0  501    0 -0.00000000000E+00 -0.00000000000E+00 -0.59567726079E+02  0.59567726292E+02  0.50400000000E-02 0. -1.
          2    1    1    2    0  502 -0.21625732149E+02  0.10837848116E+02 -0.78783927665E+01  0.25440132112E+02  0.25500000000E-02 0. -1.
         -2    1    1    2  502    0  0.21625732149E+02 -0.10837848116E+02 -0.39499281142E+02  0.46317647393E+02  0.25500000000E-02 0. -1.
<mgrwt>
<rscale>  0 0.53893737E+02</rscale>
<asrwt>0</asrwt>
<pdfrwt beam="1">  1        1 0.18753928E-02 0.53893737E+02</pdfrwt>
<pdfrwt beam="2">  1       -1 0.91642655E-02 0.53893737E+02</pdfrwt>
<totfact> 0.33278095E+05</totfact>
</mgrwt>
</event>
<event>
 4    1  0.2051373E-002  0.8560086E+02  0.7818608E-02  0.1313869E+00
          1   -1    0    0    0  501  0.00000000000E+00  0.00000000000E+00  0.19099410667E+02  0.19099411332E+02  0.50400000000E-02 0.  1.
         -1   -1    0    0  501    0 -0.00000000000E+00 -0.00000000000E+00 -0.95912740135E+02  0.95912740267E+02  0.50400000000E-02 0.  1.
          2    1    1    2    0  502  0.26904960644E+02  0.14337628102E+02 -0.78768687729E+02  0.84462717574E+02  0.25500000000E-02 0.  1.
         -2    1    1    2  502    0 -0.26904960644E+02 -0.14337628102E+02  0.19553582616E+01  0.30549434026E+02  0.25500000000E-02 0.  1.
<mgrwt>
<rscale>  0 0.85600861E+02</rscale>
<asrwt>0</asrwt>
<pdfrwt beam="1">  1        1 0.29383710E-02 0.85600861E+02</pdfrwt>
<pdfrwt beam="2">  1       -1 0.14755806E-01 0.85600861E+02</pdfrwt>
<totfact> 0.96422700E+04</totfact>
</mgrwt>
</event>
<event>
 4    1  0.2051373E-002  0.6530629E+02  0.7818608E-02  0.1376823E+00
         -1   -1    0    0  501    0 -0.00000000000E+00  0.00000000000E+00  0.23603375386E+02  0.23603375925E+02  0.50400000000E-02 0. -1.
          1   -1    0    0    0  501  0.00000000000E+00 -0.00000000000E+00 -0.45172681754E+02  0.45172682035E+02  0.50400000000E-02 0. -1.
          2    1    1    2    0  502  0.15711770599E+02 -0.16304147858E+02  0.13992870108E+02  0.26617388923E+02  0.25500000000E-02 0.  1.
         -2    1    1    2  502    0 -0.15711770599E+02  0.16304147858E+02 -0.35562176476E+02  0.42158669037E+02  0.25500000000E-02 0.  1.
<mgrwt>
<rscale>  0 0.65306287E+02</rscale>
<asrwt>0</asrwt>
<pdfrwt beam="2">  1        1 0.69496434E-02 0.65306287E+02</pdfrwt>
<pdfrwt beam="1">  1       -1 0.36312886E-02 0.65306287E+02</pdfrwt>
<totfact> 0.22989032E+05</totfact>
</mgrwt>
</event>
<event>
 4    1  0.2051373E-002  0.6780840E+02  0.7818608E-02  0.1367708E+00
         -1   -1    0    0  501    0 -0.00000000000E+00  0.00000000000E+00  0.12606304667E+03  0.12606304677E+03  0.50400000000E-02 0.  1.
          1   -1    0    0    0  501  0.00000000000E+00 -0.00000000000E+00 -0.91184098256E+01  0.91184112185E+01  0.50400000000E-02 0.  1.
          2    1    1    2    0  502 -0.29574573880E+02 -0.14742648828E+02  0.43356103981E+02  0.54513786087E+02  0.25500000000E-02 0.  1.
         -2    1    1    2  502    0  0.29574573880E+02  0.14742648828E+02  0.73588532865E+02  0.80667671904E+02  0.25500000000E-02 0.  1.
<mgrwt>
<rscale>  0 0.67808395E+02</rscale>
<asrwt>0</asrwt>
<pdfrwt beam="2">  1        1 0.14028325E-02 0.67808395E+02</pdfrwt>
<pdfrwt beam="1">  1       -1 0.19394314E-01 0.67808395E+02</pdfrwt>
<totfact> 0.16617681E+05</totfact>
</mgrwt>
</event>
<event>
 4    1  0.2051373E-002  0.6800613E+02  0.7818608E-02  0.1367008E+00
          1   -1    0    0    0  501  0.00000000000E+00  0.00000000000E+00  0.91136307497E+01  0.91136321433E+01  0.50400000000E-02 0.  1.
         -1   -1    0    0  501    0 -0.00000000000E+00 -0.00000000000E+00 -0.12686583185E+03  0.12686583195E+03  0.50400000000E-02 0.  1.
          2    1    1    2    0  502  0.18520490994E+02 -0.14177868993E+02 -0.94031712185E+01  0.25148363591E+02  0.25500000000E-02 0.  1.
         -2    1    1    2  502    0 -0.18520490994E+02  0.14177868993E+02 -0.10834902988E+03  0.11083110050E+03  0.25500000000E-02 0.  1.
<mgrwt>
<rscale>  0 0.68006131E+02</rscale>
<asrwt>0</asrwt>
<pdfrwt beam="1">  1        1 0.14020972E-02 0.68006131E+02</pdfrwt>
<pdfrwt beam="2">  1       -1 0.19517819E-01 0.68006131E+02</pdfrwt>
<totfact> 0.16474132E+05</totfact>
</mgrwt>
</event>
<event>
 4    1  0.2051373E-002  0.4539235E+02  0.7818608E-02  0.1471907E+00
          1   -1    0    0    0  501  0.00000000000E+00  0.00000000000E+00  0.15189102634E+03  0.15189102642E+03  0.50400000000E-02 0.  1.
         -1   -1    0    0  501    0 -0.00000000000E+00 -0.00000000000E+00 -0.33913522954E+01  0.33913560404E+01  0.50400000000E-02 0.  1.
          2    1    1    2    0  502  0.16397282881E+02  0.14642185369E+02  0.93556468084E+02  0.96104511887E+02  0.25500000000E-02 0.  1.
         -2    1    1    2  502    0 -0.16397282881E+02 -0.14642185369E+02  0.54943205962E+02  0.59177870578E+02  0.25500000000E-02 0.  1.
<mgrwt>
<rscale>  0 0.45392346E+02</rscale>
<asrwt>0</asrwt>
<pdfrwt beam="1">  1        1 0.23367848E-01 0.45392346E+02</pdfrwt>
<pdfrwt beam="2">  1       -1 0.52174685E-03 0.45392346E+02</pdfrwt>
<totfact> 0.68343575E+05</totfact>
</mgrwt>
</event>
<event>
 4    1  0.2051373E-002  0.4925882E+02  0.7818608E-02  0.1449381E+00
          1   -1    0    0    0  501  0.00000000000E+00  0.00000000000E+00  0.39522258404E+00  0.39525471854E+00  0.50400000000E-02 0. -1.
         -1   -1    0    0  501    0 -0.00000000000E+00 -0.00000000000E+00 -0.15347889718E+04  0.15347889718E+04  0.50400000000E-02 0. -1.
          2    1    1    2    0  502  0.19645272308E+02  0.64111520704E+01 -0.11848265372E+04  0.11850067354E+04  0.25500000000E-02 0. -1.
         -2    1    1    2  502    0 -0.19645272308E+02 -0.64111520704E+01 -0.34956721200E+03  0.35017749115E+03  0.25500000000E-02 0. -1.
<mgrwt>
<rscale>  0 0.49258824E+02</rscale>
<asrwt>0</asrwt>
<pdfrwt beam="1">  1        1 0.60807176E-04 0.49258824E+02</pdfrwt>
<pdfrwt beam="2">  1       -1 0.23611661E+00 0.49258824E+02</pdfrwt>
<totfact> 0.64002355E+04</totfact>
</mgrwt>
</event>
<event>
 4    1  0.2051373E-002  0.4017296E+02  0.7818608E-02  0.1506943E+00
          1   -1    0    0    0  501  0.00000000000E+00  0.00000000000E+00  0.22652538703E+04  0.22652538703E+04  0.50400000000E-02 0. -1.
         -1   -1    0    0  501    0 -0.00000000000E+00 -0.00000000000E+00 -0.17807536009E+00  0.17814666843E+00  0.50400000000E-02 0. -1.
          2    1    1    2    0  502  0.99543982175E+01  0.17349770842E+02  0.12359380368E+04  0.12360998889E+04  0.25500000000E-02 0. -1.
         -2    1    1    2  502    0 -0.99543982175E+01 -0.17349770842E+02  0.10291377582E+04  0.10293321281E+04  0.25500000000E-02 0. -1.
<mgrwt>
<rscale>  0 0.40172960E+02</rscale>
<asrwt>0</asrwt>
<pdfrwt beam="1">  1        1 0.34851171E+00 0.40172960E+02</pdfrwt>
<pdfrwt beam="2">  1       -1 0.27400821E-04 0.40172960E+02</pdfrwt>
<totfact> 0.52783772E+05</totfact>
</mgrwt>
</event>
<event>
 4    1  0.2051373E-002  0.8829117E+02  0.7818608E-02  0.1307043E+00
         -1   -1    0    0  501    0 -0.00000000000E+00  0.00000000000E+00  0.89651048524E+03  0.89651048526E+03  0.50400000000E-02 0.  1.
          1   -1    0    0    0  501  0.00000000000E+00 -0.00000000000E+00 -0.21737950725E+01  0.21738009152E+01  0.50400000000E-02 0.  1.
          2    1    1    2    0  502  0.35733477915E+02 -0.76852269338E+01  0.69915678868E+03  0.70011153348E+03  0.25500000000E-02 0.  1.
         -2    1    1    2  502    0 -0.35733477915E+02  0.76852269338E+01  0.19517990150E+03  0.19857275269E+03  0.25500000000E-02 0.  1.
<mgrwt>
<rscale>  0 0.88291171E+02</rscale>
<asrwt>0</asrwt>
<pdfrwt beam="2">  1        1 0.33443103E-03 0.88291171E+02</pdfrwt>
<pdfrwt beam="1">  1       -1 0.13792446E+00 0.88291171E+02</pdfrwt>
<totfact> 0.31625486E+04</totfact>
</mgrwt>
</event>
<event>
 4    1  0.2051373E-002  0.5096093E+02  0.7818608E-02  0.1440226E+00
         -1   -1    0    0  501    0 -0.00000000000E+00  0.00000000000E+00  0.26723676986E+01  0.26723724512E+01  0.50400000000E-02 0.  1.
          1   -1    0    0    0  501  0.00000000000E+00 -0.00000000000E+00 -0.24295062812E+03  0.24295062817E+03  0.50400000000E-02 0.  1.
          2    1    1    2    0  502  0.22066790667E+02 -0.79697308123E+01 -0.72232314927E+02  0.75947134151E+02  0.25500000000E-02 0. -1.
         -2    1    1    2  502    0 -0.22066790667E+02  0.79697308123E+01 -0.16804594550E+03  0.16967586647E+03  0.25500000000E-02 0. -1.
<mgrwt>
<rscale>  0 0.50960926E+02</rscale>
<asrwt>0</asrwt>
<pdfrwt beam="2">  1        1 0.37377003E-01 0.50960926E+02</pdfrwt>
<pdfrwt beam="1">  1       -1 0.41113405E-03 0.50960926E+02</pdfrwt>
<totfact> 0.55449433E+05</totfact>
</mgrwt>
</event>
<event>
 4    1  0.2051373E-002  0.5143071E+02  0.7818608E-02  0.1437774E+00
         -1   -1    0    0  501    0 -0.00000000000E+00  0.00000000000E+00  0.54183041453E+01  0.54183064893E+01  0.50400000000E-02 0. -1.
          1   -1    0    0    0  501  0.00000000000E+00 -0.00000000000E+00 -0.12204542364E+03  0.12204542374E+03  0.50400000000E-02 0. -1.
          2    1    1    2    0  502  0.15877650868E+02  0.13253916848E+02 -0.20441413630E+02  0.29079503205E+02  0.25500000000E-02 0. -1.
         -2    1    1    2  502    0 -0.15877650868E+02 -0.13253916848E+02 -0.96185705861E+02  0.98384227025E+02  0.25500000000E-02 0. -1.
<mgrwt>
<rscale>  0 0.51430706E+02</rscale>
<asrwt>0</asrwt>
<pdfrwt beam="2">  1        1 0.18776217E-01 0.51430706E+02</pdfrwt>
<pdfrwt beam="1">  1       -1 0.83358554E-03 0.51430706E+02</pdfrwt>
<totfact> 0.48356114E+05</totfact>
</mgrwt>
</event>
<event>
 4    1  0.2051373E-002  0.4340179E+02  0.7818608E-02  0.1484573E+00
         -1   -1    0    0  501    0 -0.00000000000E+00  0.00000000000E+00  0.13121940759E+01  0.13122037549E+01  0.50400000000E-02 0. -1.
          1   -1    0    0    0  501  0.00000000000E+00 -0.00000000000E+00 -0.35888528060E+03  0.35888528063E+03  0.50400000000E-02 0. -1.
          2    1    1    2    0  502  0.12260691131E+02 -0.16862456812E+02 -0.12881092172E+03  0.13048724289E+03  0.25500000000E-02 0. -1.
         -2    1    1    2  502    0 -0.12260691131E+02  0.16862456812E+02 -0.22876216481E+03  0.22971024150E+03  0.25500000000E-02 0. -1.
<mgrwt>
<rscale>  0 0.43401792E+02</rscale>
<asrwt>0</asrwt>
<pdfrwt beam="2">  1        1 0.55213043E-01 0.43401792E+02</pdfrwt>
<pdfrwt beam="1">  1       -1 0.20187704E-03 0.43401792E+02</pdfrwt>
<totfact> 0.88222337E+05</totfact>
</mgrwt>
</event>
<event>
 4    1  0.2051373E-002  0.6262718E+02  0.7818608E-02  0.1387126E+00
          1   -1    0    0    0  501  0.00000000000E+00  0.00000000000E+00  0.12718642269E+02  0.12718643268E+02  0.50400000000E-02 0. -1.
         -1   -1    0    0  501    0 -0.00000000000E+00 -0.00000000000E+00 -0.77094768075E+02  0.77094768240E+02  0.50400000000E-02 0. -1.
          2    1    1    2    0  502 -0.46868759403E+01 -0.28670590319E+02 -0.48947445860E+02  0.56919434450E+02  0.25500000000E-02 0. -1.
         -2    1    1    2  502    0  0.46868759403E+01  0.28670590319E+02 -0.15428679946E+02  0.32893977058E+02  0.25500000000E-02 0. -1.
<mgrwt>
<rscale>  0 0.62627177E+02</rscale>
<asrwt>0</asrwt>
<pdfrwt beam="1">  1        1 0.19567143E-02 0.62627177E+02</pdfrwt>
<pdfrwt beam="2">  1       -1 0.11860733E-01 0.62627177E+02</pdfrwt>
<totfact> 0.22100356E+05</totfact>
</mgrwt>
</event>
<event>
 4    1  0.2051373E-002  0.5722317E+02  0.7818608E-02  0.1409869E+00
         -1   -1    0    0  501    0 -0.00000000000E+00  0.00000000000E+00  0.58732780293E+02  0.58732780509E+02  0.50400000000E-02 0.  1.
          1   -1    0    0    0  501  0.00000000000E+00 -0.00000000000E+00 -0.13938087478E+02  0.13938088389E+02  0.50400000000E-02 0.  1.
          2    1    1    2    0  502 -0.21083394611E+02  0.14118018111E+02  0.56072726521E+01  0.25985947679E+02  0.25500000000E-02 0. -1.
         -2    1    1    2  502    0  0.21083394611E+02 -0.14118018111E+02  0.39187420163E+02  0.46684921219E+02  0.25500000000E-02 0. -1.
<mgrwt>
<rscale>  0 0.57223166E+02</rscale>
<asrwt>0</asrwt>
<pdfrwt beam="2">  1        1 0.21443212E-02 0.57223166E+02</pdfrwt>
<pdfrwt beam="1">  1       -1 0.90358126E-02 0.57223166E+02</pdfrwt>
<totfact> 0.28725731E+05</totfact>
</mgrwt>
</event>
<event>
 4    1  0.2051373E-002  0.6009459E+02  0.7818608E-02  0.1397435E+00
         -1   -1    0    0  501    0 -0.00000000000E+00  0.00000000000E+00  0.67220898145E+00  0.67222787531E+00  0.50400000000E-02 0. -1.
          1   -1    0    0    0  501  0.00000000000E+00 -0.00000000000E+00 -0.13430751390E+04  0.13430751390E+04  0.50400000000E-02 0. -1.
          2    1    1    2    0  502 -0.18757930776E+02  0.22484124543E+02 -0.82193876822E+03  0.82246017201E+03  0.25500000000E-02 0.  1.
         -2    1    1    2  502    0  0.18757930776E+02 -0.22484124543E+02 -0.52046416181E+03  0.52128719490E+03  0.25500000000E-02 0.  1.
<mgrwt>
<rscale>  0 0.60094588E+02</rscale>
<asrwt>0</asrwt>
<pdfrwt beam="2">  1        1 0.20662480E+00 0.60094588E+02</pdfrwt>
<pdfrwt beam="1">  1       -1 0.10341930E-03 0.60094588E+02</pdfrwt>
<totfact> 0.35267097E+05</totfact>
</mgrwt>
</event>
<event>
 4    1  0.2051373E-002  0.5586178E+02  0.7818608E-02  0.1416067E+00
         -1   -1    0    0  501    0 -0.00000000000E+00  0.00000000000E+00  0.47804343828E+00  0.47807000584E+00  0.50400000000E-02 0. -1.
          1   -1    0    0    0  501  0.00000000000E+00 -0.00000000000E+00 -0.16318872081E+04  0.16318872081E+04  0.50400000000E-02 0. -1.
          2    1    1    2    0  502  0.18859253248E+02 -0.20383060481E+02 -0.90334019954E+03  0.90376692609E+03  0.25500000000E-02 0.  1.
         -2    1    1    2  502    0 -0.18859253248E+02  0.20383060481E+02 -0.72806896512E+03  0.72859835202E+03  0.25500000000E-02 0.  1.
<mgrwt>
<rscale>  0 0.55861782E+02</rscale>
<asrwt>0</asrwt>
<pdfrwt beam="2">  1        1 0.25105511E+00 0.55861782E+02</pdfrwt>
<pdfrwt beam="1">  1       -1 0.73548495E-04 0.55861782E+02</pdfrwt>
<totfact> 0.36399455E+05</totfact>
</mgrwt>
</event>
<event>
 4    1  0.2051373E-002  0.7423643E+02  0.7818608E-02  0.1346252E+00
         -1   -1    0    0  501    0 -0.00000000000E+00  0.00000000000E+00  0.75190976064E+00  0.75192665184E+00  0.50400000000E-02 0. -1.
          1   -1    0    0    0  501  0.00000000000E+00 -0.00000000000E+00 -0.18323293325E+04  0.18323293325E+04  0.50400000000E-02 0. -1.
          2    1    1    2    0  502  0.21427685509E+02  0.28315190703E+02 -0.64885166282E+03  0.64982257277E+03  0.25500000000E-02 0.  1.
         -2    1    1    2  502    0 -0.21427685509E+02 -0.28315190703E+02 -0.11827257599E+04  0.11832586864E+04  0.25500000000E-02 0.  1.
<mgrwt>
<rscale>  0 0.74236428E+02</rscale>
<asrwt>0</asrwt>
<pdfrwt beam="2">  1        1 0.28189325E+00 0.74236428E+02</pdfrwt>
<pdfrwt beam="1">  1       -1 0.11568119E-03 0.74236428E+02</pdfrwt>
<totfact> 0.15442259E+05</totfact>
</mgrwt>
</event>
<event>
 4    1  0.2051373E-002  0.9386080E+02  0.7818608E-02  0.1293763E+00
          1   -1    0    0    0  501  0.00000000000E+00  0.00000000000E+00  0.11432479748E+03  0.11432479759E+03  0.50400000000E-02 0. -1.
         -1   -1    0    0  501    0 -0.00000000000E+00 -0.00000000000E+00 -0.19264955890E+02  0.19264956549E+02  0.50400000000E-02 0. -1.
          2    1    1    2    0  502  0.19785946880E+02  0.40315522743E+02  0.28137975603E+02  0.52995950275E+02  0.25500000000E-02 0. -1.
         -2    1    1    2  502    0 -0.19785946880E+02 -0.40315522743E+02  0.66921865990E+02  0.80593803869E+02  0.25500000000E-02 0. -1.
<mgrwt>
<rscale>  0 0.93860795E+02</rscale>
<asrwt>0</asrwt>
<pdfrwt beam="1">  1        1 0.17588430E-01 0.93860795E+02</pdfrwt>
<pdfrwt beam="2">  1       -1 0.29638394E-02 0.93860795E+02</pdfrwt>
<totfact> 0.98725774E+04</totfact>
</mgrwt>
</event>
<event>
 4    1  0.2051373E-002  0.4100374E+02  0.7818608E-02  0.1500952E+00
         -1   -1    0    0  501    0 -0.00000000000E+00  0.00000000000E+00  0.16017334436E+03  0.16017334444E+03  0.50400000000E-02 0. -1.
          1   -1    0    0    0  501  0.00000000000E+00 -0.00000000000E+00 -0.26241956663E+01  0.26242005062E+01  0.50400000000E-02 0. -1.
          2    1    1    2    0  502 -0.16140490878E+02 -0.12480301635E+02  0.70781308437E+02  0.73663199803E+02  0.25500000000E-02 0. -1.
         -2    1    1    2  502    0  0.16140490878E+02  0.12480301635E+02  0.86767840260E+02  0.89134345146E+02  0.25500000000E-02 0. -1.
<mgrwt>
<rscale>  0 0.41003736E+02</rscale>
<asrwt>0</asrwt>
<pdfrwt beam="2">  1        1 0.40372260E-03 0.41003736E+02</pdfrwt>
<pdfrwt beam="1">  1       -1 0.24642065E-01 0.41003736E+02</pdfrwt>
<totfact> 0.55163440E+05</totfact>
</mgrwt>
</event>
<event>
 4    1  0.2051373E-002  0.5913822E+02  0.7818608E-02  0.1401484E+00
         -1   -1    0    0  501    0 -0.00000000000E+00  0.00000000000E+00  0.22204633692E+03  0.22204633698E+03  0.50400000000E-02 0.  1.
          1   -1    0    0    0  501  0.00000000000E+00 -0.00000000000E+00 -0.39376100016E+01  0.39376132271E+01  0.50400000000E-02 0.  1.
          2    1    1    2    0  502 -0.91267098190E+01 -0.20511251254E+02  0.18259040877E+03  0.18396539251E+03  0.25500000000E-02 0.  1.
         -2    1    1    2  502    0  0.91267098190E+01  0.20511251254E+02  0.35518318150E+02  0.42018557696E+02  0.25500000000E-02 0.  1.
<mgrwt>
<rscale>  0 0.59138219E+02</rscale>
<asrwt>0</asrwt>
<pdfrwt beam="2">  1        1 0.60578624E-03 0.59138219E+02</pdfrwt>
<pdfrwt beam="1">  1       -1 0.34160985E-01 0.59138219E+02</pdfrwt>
<totfact> 0.20443404E+05</totfact>
</mgrwt>
</event>
<event>
 4    1  0.2051373E-002  0.6182927E+02  0.7818608E-02  0.1390312E+00
          1   -1    0    0    0  501  0.00000000000E+00  0.00000000000E+00  0.35893310536E+03  0.35893310540E+03  0.50400000000E-02 0. -1.
         -1   -1    0    0  501    0 -0.00000000000E+00 -0.00000000000E+00 -0.26626518217E+01  0.26626565917E+01  0.50400000000E-02 0. -1.
          2    1    1    2    0  502 -0.17709326468E+02 -0.15765959611E+02  0.62119310596E+02  0.66490559344E+02  0.25500000000E-02 0. -1.
         -2    1    1    2  502    0  0.17709326468E+02  0.15765959611E+02  0.29415114295E+03  0.29510520265E+03  0.25500000000E-02 0. -1.
<mgrwt>
<rscale>  0 0.61829273E+02</rscale>
<asrwt>0</asrwt>
<pdfrwt beam="1">  1        1 0.55220460E-01 0.61829273E+02</pdfrwt>
<pdfrwt beam="2">  1       -1 0.40963925E-03 0.61829273E+02</pdfrwt>
<totfact> 0.36426484E+05</totfact>
</mgrwt>
</event>
<event>
 4    1  0.2051373E-002  0.1688868E+03  0.7818608E-02  0.1179014E+00
         -1   -1    0    0  501    0 -0.00000000000E+00  0.00000000000E+00  0.47295490334E+01  0.47295517188E+01  0.50400000000E-02 0. -1.
          1   -1    0    0    0  501  0.00000000000E+00 -0.00000000000E+00 -0.15076883702E+04  0.15076883702E+04  0.50400000000E-02 0. -1.
          2    1    1    2    0  502 -0.79519711691E+02  0.98988058889E+00 -0.49718851605E+03  0.50350847551E+03  0.25500000000E-02 0.  1.
         -2    1    1    2  502    0  0.79519711691E+02 -0.98988058889E+00 -0.10057703051E+04  0.10089094464E+04  0.25500000000E-02 0.  1.
<mgrwt>
<rscale>  0 0.16888680E+03</rscale>
<asrwt>0</asrwt>
<pdfrwt beam="2">  1        1 0.23195167E+00 0.16888680E+03</pdfrwt>
<pdfrwt beam="1">  1       -1 0.72762433E-03 0.16888680E+03</pdfrwt>
<totfact> 0.20547743E+04</totfact>
</mgrwt>
</event>
<event>
 4    1  0.2051373E-002  0.4409389E+02  0.7818608E-02  0.1480079E+00
         -1   -1    0    0  501    0 -0.00000000000E+00  0.00000000000E+00  0.70993482404E+02  0.70993482583E+02  0.50400000000E-02 0. -1.
          1   -1    0    0    0  501  0.00000000000E+00 -0.00000000000E+00 -0.68466515450E+01  0.68466534000E+01  0.50400000000E-02 0. -1.
          2    1    1    2    0  502  0.19275137630E+02 -0.10701959776E+02  0.32196165089E+02  0.39021224054E+02  0.25500000000E-02 0. -1.
         -2    1    1    2  502    0 -0.19275137630E+02  0.10701959776E+02  0.31950665770E+02  0.38818911929E+02  0.25500000000E-02 0. -1.
<mgrwt>
<rscale>  0 0.44093887E+02</rscale>
<asrwt>0</asrwt>
<pdfrwt beam="2">  1        1 0.10533311E-02 0.44093887E+02</pdfrwt>
<pdfrwt beam="1">  1       -1 0.10922075E-01 0.44093887E+02</pdfrwt>
<totfact> 0.53314638E+05</totfact>
</mgrwt>
</event>
<event>
 4    1  0.2051373E-002  0.5060245E+02  0.7818608E-02  0.1442119E+00
         -1   -1    0    0  501    0 -0.00000000000E+00  0.00000000000E+00  0.37592846513E+00  0.37596224877E+00  0.50400000000E-02 0. -1.
          1   -1    0    0    0  501  0.00000000000E+00 -0.00000000000E+00 -0.17027791995E+04  0.17027791995E+04  0.50400000000E-02 0. -1.
          2    1    1    2    0  502  0.17916841660E+02 -0.13041266064E+02 -0.12621329354E+04  0.12623274672E+04  0.25500000000E-02 0. -1.
         -2    1    1    2  502    0 -0.17916841660E+02  0.13041266064E+02 -0.44027033562E+03  0.44082769454E+03  0.25500000000E-02 0. -1.
<mgrwt>
<rscale>  0 0.50602448E+02</rscale>
<asrwt>0</asrwt>
<pdfrwt beam="2">  1        1 0.26195986E+00 0.50602448E+02</pdfrwt>
<pdfrwt beam="1">  1       -1 0.57839111E-04 0.50602448E+02</pdfrwt>
<totfact> 0.44698348E+05</totfact>
</mgrwt>
</event>
<event>
 4    1  0.2051373E-002  0.4289335E+02  0.7818608E-02  0.1487938E+00
         -1   -1    0    0  501    0 -0.00000000000E+00  0.00000000000E+00  0.47958932880E+02  0.47958933145E+02  0.50400000000E-02 0. -1.
          1   -1    0    0    0  501  0.00000000000E+00 -0.00000000000E+00 -0.95907014991E+01  0.95907028234E+01  0.50400000000E-02 0. -1.
          2    1    1    2    0  502 -0.50080107843E+00  0.20555030207E+02  0.11000922437E+02  0.23319098814E+02  0.25500000000E-02 0.  1.
         -2    1    1    2  502    0  0.50080107843E+00 -0.20555030207E+02  0.27367308943E+02  0.34230537154E+02  0.25500000000E-02 0.  1.
<mgrwt>
<rscale>  0 0.42893349E+02</rscale>
<asrwt>0</asrwt>
<pdfrwt beam="2">  1        1 0.14754927E-02 0.42893349E+02</pdfrwt>
<pdfrwt beam="1">  1       -1 0.73782974E-02 0.42893349E+02</pdfrwt>
<totfact> 0.59692081E+05</totfact>
</mgrwt>
</event>
<event>
 4    1  0.2051373E-002  0.6073755E+02  0.7818608E-02  0.1394762E+00
         -1   -1    0    0  501    0 -0.00000000000E+00  0.00000000000E+00  0.78176660570E+01  0.78176676816E+01  0.50400000000E-02 0.  1.
          1   -1    0    0    0  501  0.00000000000E+00 -0.00000000000E+00 -0.11797155812E+03  0.11797155823E+03  0.50400000000E-02 0.  1.
          2    1    1    2    0  502 -0.19079091214E+02 -0.14737219869E+02 -0.93324597278E+02  0.96388162316E+02  0.25500000000E-02 0.  1.
         -2    1    1    2  502    0  0.19079091214E+02  0.14737219869E+02 -0.16829294788E+02  0.29401063597E+02  0.25500000000E-02 0.  1.
<mgrwt>
<rscale>  0 0.60737545E+02</rscale>
<asrwt>0</asrwt>
<pdfrwt beam="2">  1        1 0.18149469E-01 0.60737545E+02</pdfrwt>
<pdfrwt beam="1">  1       -1 0.12027181E-02 0.60737545E+02</pdfrwt>
<totfact> 0.31463429E+05</totfact>
</mgrwt>
</event>
<event>
 4    1  0.2051373E-002  0.5365012E+02  0.7818608E-02  0.1426593E+00
         -1   -1    0    0  501    0 -0.00000000000E+00  0.00000000000E+00  0.12039822101E+02  0.12039823156E+02  0.50400000000E-02 0.  1.
          1   -1    0    0    0  501  0.00000000000E+00 -0.00000000000E+00 -0.59766979854E+02  0.59766980066E+02  0.50400000000E-02 0.  1.
          2    1    1    2    0  502  0.24482826376E+02  0.72397143325E+01 -0.12845986599E+02  0.28580441375E+02  0.25500000000E-02 0.  1.
         -2    1    1    2  502    0 -0.24482826376E+02 -0.72397143325E+01 -0.34881171154E+02  0.43226361848E+02  0.25500000000E-02 0.  1.
<mgrwt>
<rscale>  0 0.53650120E+02</rscale>
<asrwt>0</asrwt>
<pdfrwt beam="2">  1        1 0.91949199E-02 0.53650120E+02</pdfrwt>
<pdfrwt beam="1">  1       -1 0.18522805E-02 0.53650120E+02</pdfrwt>
<totfact> 0.39655510E+05</totfact>
</mgrwt>
</event>
<event>
 4    1  0.2051373E-002  0.5105082E+02  0.7818608E-02  0.1439755E+00
          1   -1    0    0    0  501  0.00000000000E+00  0.00000000000E+00  0.13137911097E+04  0.13137911097E+04  0.50400000000E-02 0. -1.
         -1   -1    0    0  501    0 -0.00000000000E+00 -0.00000000000E+00 -0.49591578389E+00  0.49594139403E+00  0.50400000000E-02 0. -1.
          2    1    1    2    0  502 -0.19880555532E+02  0.12408246798E+02  0.91709610537E+03  0.91739548046E+03  0.25500000000E-02 0.  1.
         -2    1    1    2  502    0  0.19880555532E+02 -0.12408246798E+02  0.39619908855E+03  0.39689157064E+03  0.25500000000E-02 0.  1.
<mgrwt>
<rscale>  0 0.51050821E+02</rscale>
<asrwt>0</asrwt>
<pdfrwt beam="1">  1        1 0.20212504E+00 0.51050821E+02</pdfrwt>
<pdfrwt beam="2">  1       -1 0.76295449E-04 0.51050821E+02</pdfrwt>
<totfact> 0.53863798E+05</totfact>
</mgrwt>
</event>
<event>
 4    1  0.2051373E-002  0.9778447E+02  0.7818608E-02  0.1285025E+00
         -1   -1    0    0  501    0 -0.00000000000E+00  0.00000000000E+00  0.59542381522E+01  0.59542402853E+01  0.50400000000E-02 0. -1.
          1   -1    0    0    0  501  0.00000000000E+00 -0.00000000000E+00 -0.40147033045E+03  0.40147033048E+03  0.50400000000E-02 0. -1.
          2    1    1    2    0  502 -0.13900443603E+02  0.36538329791E+02 -0.32010015188E+03  0.32247849403E+03  0.25500000000E-02 0. -1.
         -2    1    1    2  502    0  0.13900443603E+02 -0.36538329791E+02 -0.75415940421E+02  0.84946076733E+02  0.25500000000E-02 0. -1.
<mgrwt>
<rscale>  0 0.97784465E+02</rscale>
<asrwt>0</asrwt>
<pdfrwt beam="2">  1        1 0.61764645E-01 0.97784465E+02</pdfrwt>
<pdfrwt beam="1">  1       -1 0.91603712E-03 0.97784465E+02</pdfrwt>
<totfact> 0.11200896E+05</totfact>
</mgrwt>
</event>
<event>
 4    1  0.2051373E-002  0.5048442E+02  0.7818608E-02  0.1442746E+00
         -1   -1    0    0  501    0 -0.00000000000E+00  0.00000000000E+00  0.59780956685E+01  0.59780977931E+01  0.50400000000E-02 0.  1.
          1   -1    0    0    0  501  0.00000000000E+00 -0.00000000000E+00 -0.10658394507E+03  0.10658394519E+03  0.50400000000E-02 0.  1.
          2    1    1    2    0  502 -0.25110609152E+02 -0.19686305333E+01 -0.46604853081E+02  0.52975754222E+02  0.25500000000E-02 0. -1.
         -2    1    1    2  502    0  0.25110609152E+02  0.19686305333E+01 -0.54000996324E+02  0.59586288763E+02  0.25500000000E-02 0. -1.
<mgrwt>
<rscale>  0 0.50484419E+02</rscale>
<asrwt>0</asrwt>
<pdfrwt beam="2">  1        1 0.16397529E-01 0.50484419E+02</pdfrwt>
<pdfrwt beam="1">  1       -1 0.91970728E-03 0.50484419E+02</pdfrwt>
<totfact> 0.49707631E+05</totfact>
</mgrwt>
</event>
<event>
 4    1  0.2051373E-002  0.1271250E+03  0.7818608E-02  0.1231785E+00
          1   -1    0    0    0  501  0.00000000000E+00  0.00000000000E+00  0.37390081414E+03  0.37390081418E+03  0.50400000000E-02 0.  1.
         -1   -1    0    0  501    0 -0.00000000000E+00 -0.00000000000E+00 -0.10805517185E+02  0.10805518360E+02  0.50400000000E-02 0.  1.
          2    1    1    2    0  502  0.40139491247E+01  0.49055395284E+02  0.59833687550E+02  0.77476536876E+02  0.25500000000E-02 0.  1.
         -2    1    1    2  502    0 -0.40139491247E+01 -0.49055395284E+02  0.30326160941E+03  0.30722979566E+03  0.25500000000E-02 0.  1.
<mgrwt>
<rscale>  0 0.12712501E+03</rscale>
<asrwt>0</asrwt>
<pdfrwt beam="1">  1        1 0.57523201E-01 0.12712501E+03</pdfrwt>
<pdfrwt beam="2">  1       -1 0.16623874E-02 0.12712501E+03</pdfrwt>
<totfact> 0.54304099E+04</totfact>
</mgrwt>
</event>
<event>
 4    1  0.2051373E-002  0.6116352E+02  0.7818608E-02  0.1393013E+00
          1   -1    0    0    0  501  0.00000000000E+00  0.00000000000E+00  0.67226818005E+03  0.67226818007E+03  0.50400000000E-02 0.  1.
         -1   -1    0    0  501    0 -0.00000000000E+00 -0.00000000000E+00 -0.13911726406E+01  0.13911817701E+01  0.50400000000E-02 0.  1.
          2    1    1    2    0  502  0.13396019646E+02 -0.18249601328E+02  0.56189563377E+03  0.56235149555E+03  0.25500000000E-02 0. -1.
         -2    1    1    2  502    0 -0.13396019646E+02  0.18249601328E+02  0.10898137364E+03  0.11130786629E+03  0.25500000000E-02 0. -1.
<mgrwt>
<rscale>  0 0.61163524E+02</rscale>
<asrwt>0</asrwt>
<pdfrwt beam="1">  1        1 0.10342599E+00 0.61163524E+02</pdfrwt>
<pdfrwt beam="2">  1       -1 0.21402702E-03 0.61163524E+02</pdfrwt>
<totfact> 0.40024698E+05</totfact>
</mgrwt>
</event>
<event>
 4    1  0.2051373E-002  0.7676902E+02  0.7818608E-02  0.1338479E+00
          1   -1    0    0    0  501  0.00000000000E+00  0.00000000000E+00  0.11371026100E+02  0.11371027217E+02  0.50400000000E-02 0. -1.
         -1   -1    0    0  501    0 -0.00000000000E+00 -0.00000000000E+00 -0.12957234767E+03  0.12957234776E+03  0.50400000000E-02 0. -1.
          2    1    1    2    0  502 -0.19401094006E+02 -0.32835862652E+02 -0.67055667685E+02  0.77143106626E+02  0.25500000000E-02 0. -1.
         -2    1    1    2  502    0  0.19401094006E+02  0.32835862652E+02 -0.51145653881E+02  0.63800268355E+02  0.25500000000E-02 0. -1.
<mgrwt>
<rscale>  0 0.76769021E+02</rscale>
<asrwt>0</asrwt>
<pdfrwt beam="1">  1        1 0.17493888E-02 0.76769021E+02</pdfrwt>
<pdfrwt beam="2">  1       -1 0.19934206E-01 0.76769021E+02</pdfrwt>
<totfact> 0.12038167E+05</totfact>
</mgrwt>
</event>
<event>
 4    1  0.2051373E-002  0.5575301E+02  0.7818608E-02  0.1416571E+00
         -1   -1    0    0  501    0 -0.00000000000E+00  0.00000000000E+00  0.52723569878E+00  0.52725978765E+00  0.50400000000E-02 0. -1.
          1   -1    0    0    0  501  0.00000000000E+00 -0.00000000000E+00 -0.14738792955E+04  0.14738792955E+04  0.50400000000E-02 0. -1.
          2    1    1    2    0  502  0.21602913730E+02 -0.50760332179E+01 -0.11828483773E+04  0.11830565226E+04  0.25500000000E-02 0.  1.
         -2    1    1    2  502    0 -0.21602913730E+02  0.50760332179E+01 -0.29050368250E+03  0.29135003269E+03  0.25500000000E-02 0.  1.
<mgrwt>
<rscale>  0 0.55753011E+02</rscale>
<asrwt>0</asrwt>
<pdfrwt beam="2">  1        1 0.22674736E+00 0.55753011E+02</pdfrwt>
<pdfrwt beam="1">  1       -1 0.81116218E-04 0.55753011E+02</pdfrwt>
<totfact> 0.39962935E+05</totfact>
</mgrwt>
</event>
<event>
 4    1  0.2051373E-002  0.1193115E+03  0.7818608E-02  0.1244237E+00
         -1   -1    0    0  501    0 -0.00000000000E+00  0.00000000000E+00  0.25609084571E+01  0.25609134166E+01  0.50400000000E-02 0.  1.
          1   -1    0    0    0  501  0.00000000000E+00 -0.00000000000E+00 -0.13896654962E+04  0.13896654962E+04  0.50400000000E-02 0.  1.
          2    1    1    2    0  502 -0.47332451326E+02  0.34075681449E+02 -0.54720418729E+03  0.55030349409E+03  0.25500000000E-02 0.  1.
         -2    1    1    2  502    0  0.47332451326E+02 -0.34075681449E+02 -0.83990040047E+03  0.84192291555E+03  0.25500000000E-02 0.  1.
<mgrwt>
<rscale>  0 0.11931152E+03</rscale>
<asrwt>0</asrwt>
<pdfrwt beam="2">  1        1 0.21379409E+00 0.11931152E+03</pdfrwt>
<pdfrwt beam="1">  1       -1 0.39398741E-03 0.11931152E+03</pdfrwt>
<totfact> 0.56927501E+04</totfact>
</mgrwt>
</event>
<event>
 4    1  0.2051373E-002  0.6078041E+02  0.7818608E-02  0.1394586E+00
          1   -1    0    0    0  501  0.00000000000E+00  0.00000000000E+00  0.21527917299E+02  0.21527917889E+02  0.50400000000E-02 0. -1.
         -1   -1    0    0  501    0 -0.00000000000E+00 -0.00000000000E+00 -0.42900788340E+02  0.42900788636E+02  0.50400000000E-02 0. -1.
          2    1    1    2    0  502 -0.27230387548E+02 -0.75309185389E+01 -0.22554725927E+02  0.36151409491E+02  0.25500000000E-02 0.  1.
         -2    1    1    2  502    0  0.27230387548E+02  0.75309185389E+01  0.11818548857E+01  0.28277297034E+02  0.25500000000E-02 0.  1.
<mgrwt>
<rscale>  0 0.60780413E+02</rscale>
<asrwt>0</asrwt>
<pdfrwt beam="1">  1        1 0.33119874E-02 0.60780413E+02</pdfrwt>
<pdfrwt beam="2">  1       -1 0.66001213E-02 0.60780413E+02</pdfrwt>
<totfact> 0.25664613E+05</totfact>
</mgrwt>
</event>
<event>
 4    1  0.2051373E-002  0.1424328E+03  0.7818608E-02  0.1210092E+00
         -1   -1    0    0  501    0 -0.00000000000E+00  0.00000000000E+00  0.49380522785E+02  0.49380523042E+02  0.50400000000E-02 0.  1.
          1   -1    0    0    0  501  0.00000000000E+00 -0.00000000000E+00 -0.10270803599E+03  0.10270803611E+03  0.50400000000E-02 0.  1.
          2    1    1    2    0  502 -0.27004689314E+02  0.44200914085E+02  0.25524959814E+02  0.57745109151E+02  0.25500000000E-02 0.  1.
         -2    1    1    2  502    0  0.27004689314E+02 -0.44200914085E+02 -0.78852473017E+02  0.94343450003E+02  0.25500000000E-02 0.  1.
<mgrwt>
<rscale>  0 0.14243281E+03</rscale>
<asrwt>0</asrwt>
<pdfrwt beam="2">  1        1 0.15801236E-01 0.14243281E+03</pdfrwt>
<pdfrwt beam="1">  1       -1 0.75970036E-02 0.14243281E+03</pdfrwt>
<totfact> 0.29940225E+04</totfact>
</mgrwt>
</event>
<event>
 4    1  0.2051373E-002  0.4808693E+02  0.7818608E-02  0.1455942E+00
          1   -1    0    0    0  501  0.00000000000E+00  0.00000000000E+00  0.63313437224E+02  0.63313437425E+02  0.50400000000E-02 0. -1.
         -1   -1    0    0  501    0 -0.00000000000E+00 -0.00000000000E+00 -0.91305756977E+01  0.91305770887E+01  0.50400000000E-02 0. -1.
          2    1    1    2    0  502 -0.23254706854E+01 -0.23909860748E+02  0.25585716902E+02  0.35095842642E+02  0.25500000000E-02 0.  1.
         -2    1    1    2  502    0  0.23254706854E+01  0.23909860748E+02  0.28597144625E+02  0.37348171871E+02  0.25500000000E-02 0.  1.
<mgrwt>
<rscale>  0 0.48086929E+02</rscale>
<asrwt>0</asrwt>
<pdfrwt beam="1">  1        1 0.97405291E-02 0.48086929E+02</pdfrwt>
<pdfrwt beam="2">  1       -1 0.14047041E-02 0.48086929E+02</pdfrwt>
<totfact> 0.52747423E+05</totfact>
</mgrwt>
</event>
<event>
 4    1  0.2051373E-002  0.5994217E+02  0.7818608E-02  0.1398075E+00
         -1   -1    0    0  501    0 -0.00000000000E+00  0.00000000000E+00  0.65829038710E+00  0.65830968043E+00  0.50400000000E-02 0. -1.
          1   -1    0    0    0  501  0.00000000000E+00 -0.00000000000E+00 -0.13645234097E+04  0.13645234097E+04  0.50400000000E-02 0. -1.
          2    1    1    2    0  502 -0.24675411767E+02 -0.94368869202E+01 -0.10042890966E+04  0.10046365116E+04  0.25500000000E-02 0.  1.
         -2    1    1    2  502    0  0.24675411767E+02  0.94368869202E+01 -0.35957602271E+03  0.36054520784E+03  0.25500000000E-02 0.  1.
<mgrwt>
<rscale>  0 0.59942166E+02</rscale>
<asrwt>0</asrwt>
<pdfrwt beam="2">  1        1 0.20992442E+00 0.59942166E+02</pdfrwt>
<pdfrwt beam="1">  1       -1 0.10127802E-03 0.59942166E+02</pdfrwt>
<totfact> 0.35140161E+05</totfact>
</mgrwt>
</event>
<event>
 4    1  0.2051373E-002  0.8846931E+02  0.7818608E-02  0.1306601E+00
         -1   -1    0    0  501    0 -0.00000000000E+00  0.00000000000E+00  0.10737024315E+02  0.10737025498E+02  0.50400000000E-02 0. -1.
          1   -1    0    0    0  501  0.00000000000E+00 -0.00000000000E+00 -0.18223898213E+03  0.18223898220E+03  0.50400000000E-02 0. -1.
          2    1    1    2    0  502 -0.22784240450E+02  0.36704427183E+02 -0.10648663665E+03  0.11491623201E+03  0.25500000000E-02 0.  1.
         -2    1    1    2  502    0  0.22784240450E+02 -0.36704427183E+02 -0.65015321163E+02  0.78059775686E+02  0.25500000000E-02 0.  1.
<mgrwt>
<rscale>  0 0.88469305E+02</rscale>
<asrwt>0</asrwt>
<pdfrwt beam="2">  1        1 0.28036764E-01 0.88469305E+02</pdfrwt>
<pdfrwt beam="1">  1       -1 0.16518501E-02 0.88469305E+02</pdfrwt>
<totfact> 0.12608757E+05</totfact>
</mgrwt>
</event>
<event>
 4    1  0.2051373E-002  0.5957899E+02  0.7818608E-02  0.1399607E+00
          1   -1    0    0    0  501  0.00000000000E+00  0.00000000000E+00  0.10139713442E+04  0.10139713442E+04  0.50400000000E-02 0.  1.
         -1   -1    0    0  501    0 -0.00000000000E+00 -0.00000000000E+00 -0.87517909116E+00  0.87519360327E+00  0.50400000000E-02 0.  1.
          2    1    1    2    0  502 -0.37988736012E+00 -0.29373766412E+02  0.59077662214E+03  0.59150653398E+03  0.25500000000E-02 0. -1.
         -2    1    1    2  502    0  0.37988736012E+00  0.29373766412E+02  0.42231954299E+03  0.42334000386E+03  0.25500000000E-02 0. -1.
<mgrwt>
<rscale>  0 0.59578986E+02</rscale>
<asrwt>0</asrwt>
<pdfrwt beam="1">  1        1 0.15599501E+00 0.59578986E+02</pdfrwt>
<pdfrwt beam="2">  1       -1 0.13464456E-03 0.59578986E+02</pdfrwt>
<totfact> 0.40752300E+05</totfact>
</mgrwt>
</event>
<event>
 4    1  0.2051373E-002  0.4022965E+02  0.7818608E-02  0.1506528E+00
         -1   -1    0    0  501    0 -0.00000000000E+00  0.00000000000E+00  0.17780912480E+01  0.17780983909E+01  0.50400000000E-02 0.  1.
          1   -1    0    0    0  501  0.00000000000E+00 -0.00000000000E+00 -0.22755036397E+03  0.22755036402E+03  0.50400000000E-02 0.  1.
          2    1    1    2    0  502 -0.19522505488E+02  0.47493043459E+01 -0.10741243293E+03  0.10927540833E+03  0.25500000000E-02 0.  1.
         -2    1    1    2  502    0  0.19522505488E+02 -0.47493043459E+01 -0.11835983979E+03  0.12005305408E+03  0.25500000000E-02 0.  1.
<mgrwt>
<rscale>  0 0.40229648E+02</rscale>
<asrwt>0</asrwt>
<pdfrwt beam="2">  1        1 0.35007726E-01 0.40229648E+02</pdfrwt>
<pdfrwt beam="1">  1       -1 0.27355323E-03 0.40229648E+02</pdfrwt>
<totfact> 0.98293884E+05</totfact>
</mgrwt>
</event>
<event>
 4    1  0.2051373E-002  0.9708378E+02  0.7818608E-02  0.1286551E+00
         -1   -1    0    0  501    0 -0.00000000000E+00  0.00000000000E+00  0.23384697680E+01  0.23384751992E+01  0.50400000000E-02 0.  1.
          1   -1    0    0    0  501  0.00000000000E+00 -0.00000000000E+00 -0.10076299747E+04  0.10076299747E+04  0.50400000000E-02 0.  1.
          2    1    1    2    0  502 -0.34424375926E+02 -0.34196148234E+02 -0.51698826391E+03  0.51926031934E+03  0.25500000000E-02 0.  1.
         -2    1    1    2  502    0  0.34424375926E+02  0.34196148234E+02 -0.48830324102E+03  0.49070813057E+03  0.25500000000E-02 0.  1.
<mgrwt>
<rscale>  0 0.97083778E+02</rscale>
<asrwt>0</asrwt>
<pdfrwt beam="2">  1        1 0.15501965E+00 0.97083778E+02</pdfrwt>
<pdfrwt beam="1">  1       -1 0.35976580E-03 0.97083778E+02</pdfrwt>
<totfact> 0.11492598E+05</totfact>
</mgrwt>
</event>
<event>
 4    1  0.2051373E-002  0.4762496E+02  0.7818608E-02  0.1458590E+00
         -1   -1    0    0  501    0 -0.00000000000E+00  0.00000000000E+00  0.10339972335E+03  0.10339972347E+03  0.50400000000E-02 0. -1.
          1   -1    0    0    0  501  0.00000000000E+00 -0.00000000000E+00 -0.54839025490E+01  0.54839048650E+01  0.50400000000E-02 0. -1.
          2    1    1    2    0  502  0.78533353628E+01 -0.21371436359E+02  0.64899798978E+02  0.68777882217E+02  0.25500000000E-02 0. -1.
         -2    1    1    2  502    0 -0.78533353628E+01  0.21371436359E+02  0.33016021819E+02  0.40105746117E+02  0.25500000000E-02 0. -1.
<mgrwt>
<rscale>  0 0.47624957E+02</rscale>
<asrwt>0</asrwt>
<pdfrwt beam="2">  1        1 0.84367744E-03 0.47624957E+02</pdfrwt>
<pdfrwt beam="1">  1       -1 0.15907651E-01 0.47624957E+02</pdfrwt>
<totfact> 0.41732847E+05</totfact>
</mgrwt>
</event>
<event>
 4    1  0.2051373E-002  0.7326130E+02  0.7818608E-02  0.1349341E+00
          1   -1    0    0    0  501  0.00000000000E+00  0.00000000000E+00  0.99185371793E+03  0.99185371794E+03  0.50400000000E-02 0. -1.
         -1   -1    0    0  501    0 -0.00000000000E+00 -0.00000000000E+00 -0.13528202627E+01  0.13528296510E+01  0.50400000000E-02 0. -1.
          2    1    1    2    0  502 -0.33056944316E+02 -0.13368976107E+02  0.60893041792E+03  0.60997356087E+03  0.25500000000E-02 0. -1.
         -2    1    1    2  502    0  0.33056944316E+02  0.13368976107E+02  0.38157047974E+03  0.38323298672E+03  0.25500000000E-02 0. -1.
<mgrwt>
<rscale>  0 0.73261299E+02</rscale>
<asrwt>0</asrwt>
<pdfrwt beam="1">  1        1 0.15259338E+00 0.73261299E+02</pdfrwt>
<pdfrwt beam="2">  1       -1 0.20812624E-03 0.73261299E+02</pdfrwt>
<totfact> 0.24154416E+05</totfact>
</mgrwt>
</event>
<event>
 4    1  0.2051373E-002  0.6802124E+02  0.7818608E-02  0.1366954E+00
          1   -1    0    0    0  501  0.00000000000E+00  0.00000000000E+00  0.10962181484E+02  0.10962182643E+02  0.50400000000E-02 0.  1.
         -1   -1    0    0  501    0 -0.00000000000E+00 -0.00000000000E+00 -0.10551935889E+03  0.10551935901E+03  0.50400000000E-02 0.  1.
          2    1    1    2    0  502  0.23352619082E+02 -0.23592480543E+02 -0.59952005382E+02  0.68528774336E+02  0.25500000000E-02 0.  1.
         -2    1    1    2  502    0 -0.23352619082E+02  0.23592480543E+02 -0.34605172025E+02  0.47952767319E+02  0.25500000000E-02 0.  1.
<mgrwt>
<rscale>  0 0.68021245E+02</rscale>
<asrwt>0</asrwt>
<pdfrwt beam="1">  1        1 0.16864896E-02 0.68021245E+02</pdfrwt>
<pdfrwt beam="2">  1       -1 0.16233747E-01 0.68021245E+02</pdfrwt>
<totfact> 0.17049016E+05</totfact>
</mgrwt>
</event>
<event>
 4    1  0.2051373E-002  0.4316057E+02  0.7818608E-02  0.1486163E+00
          1   -1    0    0    0  501  0.00000000000E+00  0.00000000000E+00  0.74206265960E+02  0.74206266131E+02  0.50400000000E-02 0.  1.
         -1   -1    0    0  501    0 -0.00000000000E+00 -0.00000000000E+00 -0.62758671231E+01  0.62758691469E+01  0.50400000000E-02 0.  1.
          2    1    1    2    0  502  0.86977340749E+01 -0.18400084865E+02  0.20584000778E+02  0.28946757946E+02  0.25500000000E-02 0. -1.
         -2    1    1    2  502    0 -0.86977340749E+01  0.18400084865E+02  0.47346398058E+02  0.51535377331E+02  0.25500000000E-02 0. -1.
<mgrwt>
<rscale>  0 0.43160572E+02</rscale>
<asrwt>0</asrwt>
<pdfrwt beam="1">  1        1 0.11416348E-01 0.43160572E+02</pdfrwt>
<pdfrwt beam="2">  1       -1 0.96551823E-03 0.43160572E+02</pdfrwt>
<totfact> 0.70383560E+05</totfact>
</mgrwt>
</event>
<event>
 4    1  0.2051373E-002  0.4097040E+02  0.7818608E-02  0.1501189E+00
          1   -1    0    0    0  501  0.00000000000E+00  0.00000000000E+00  0.25789941850E+03  0.25789941855E+03  0.50400000000E-02 0.  1.
         -1   -1    0    0  501    0 -0.00000000000E+00 -0.00000000000E+00 -0.16271553701E+01  0.16271631756E+01  0.50400000000E-02 0.  1.
          2    1    1    2    0  502  0.18719125134E+02  0.75869511684E+01  0.14978115097E+03  0.15113689379E+03  0.25500000000E-02 0.  1.
         -2    1    1    2  502    0 -0.18719125134E+02 -0.75869511684E+01  0.10649111216E+03  0.10838968793E+03  0.25500000000E-02 0.  1.
<mgrwt>
<rscale>  0 0.40970401E+02</rscale>
<asrwt>0</asrwt>
<pdfrwt beam="1">  1        1 0.39676870E-01 0.40970401E+02</pdfrwt>
<pdfrwt beam="2">  1       -1 0.25033198E-03 0.40970401E+02</pdfrwt>
<totfact> 0.96058793E+05</totfact>
</mgrwt>
</event>
<event>
 4    1  0.2051373E-002  0.6034951E+02  0.7818608E-02  0.1396371E+00
         -1   -1    0    0  501    0 -0.00000000000E+00  0.00000000000E+00  0.15155653612E+01  0.15155737414E+01  0.50400000000E-02 0.  1.
          1   -1    0    0    0  501  0.00000000000E+00 -0.00000000000E+00 -0.60077476291E+03  0.60077476293E+03  0.50400000000E-02 0.  1.
          2    1    1    2    0  502 -0.24100760055E+02 -0.14643282348E+02 -0.40676685295E+03  0.40774323418E+03  0.25500000000E-02 0. -1.
         -2    1    1    2  502    0  0.24100760055E+02  0.14643282348E+02 -0.19249234460E+03  0.19454710250E+03  0.25500000000E-02 0. -1.
<mgrwt>
<rscale>  0 0.60349514E+02</rscale>
<asrwt>0</asrwt>
<pdfrwt beam="2">  1        1 0.92426698E-01 0.60349514E+02</pdfrwt>
<pdfrwt beam="1">  1       -1 0.23316503E-03 0.60349514E+02</pdfrwt>
<totfact> 0.41262556E+05</totfact>
</mgrwt>
</event>
<event>
 4    1  0.2051373E-002  0.1175523E+03  0.7818608E-02  0.1247190E+00
          1   -1    0    0    0  501  0.00000000000E+00  0.00000000000E+00  0.11537490983E+02  0.11537492084E+02  0.50400000000E-02 0.  1.
         -1   -1    0    0  501    0 -0.00000000000E+00 -0.00000000000E+00 -0.29942690062E+03  0.29942690066E+03  0.50400000000E-02 0.  1.
          2    1    1    2    0  502  0.37930602628E+02  0.17249758433E+02 -0.25360147367E+03  0.25700193041E+03  0.25500000000E-02 0.  1.
         -2    1    1    2  502    0 -0.37930602628E+02 -0.17249758433E+02 -0.34287935966E+02  0.53962462333E+02  0.25500000000E-02 0.  1.
<mgrwt>
<rscale>  0 0.11755229E+03</rscale>
<asrwt>0</asrwt>
<pdfrwt beam="1">  1        1 0.17749989E-02 0.11755229E+03</pdfrwt>
<pdfrwt beam="2">  1       -1 0.46065671E-01 0.11755229E+03</pdfrwt>
<totfact> 0.31025069E+04</totfact>
</mgrwt>
</event>
<event>
 4    1  0.2051373E-002  0.7918366E+02  0.7818608E-02  0.1331384E+00
          1   -1    0    0    0  501  0.00000000000E+00  0.00000000000E+00  0.49089364701E+02  0.49089364960E+02  0.50400000000E-02 0. -1.
         -1   -1    0    0  501    0 -0.00000000000E+00 -0.00000000000E+00 -0.31931827607E+02  0.31931828005E+02  0.50400000000E-02 0. -1.
          2    1    1    2    0  502  0.30116417668E+02 -0.44167218537E+01 -0.17326879586E+02  0.35024659995E+02  0.25500000000E-02 0. -1.
         -2    1    1    2  502    0 -0.30116417668E+02  0.44167218537E+01  0.34484416679E+02  0.45996532970E+02  0.25500000000E-02 0. -1.
<mgrwt>
<rscale>  0 0.79183664E+02</rscale>
<asrwt>0</asrwt>
<pdfrwt beam="1">  1        1 0.75522100E-02 0.79183664E+02</pdfrwt>
<pdfrwt beam="2">  1       -1 0.49125889E-02 0.79183664E+02</pdfrwt>
<totfact> 0.13809800E+05</totfact>
</mgrwt>
</event>
<event>
 4    1  0.2051373E-002  0.4222027E+02  0.7818608E-02  0.1492481E+00
         -1   -1    0    0  501    0 -0.00000000000E+00  0.00000000000E+00  0.33067057950E+01  0.33067096359E+01  0.50400000000E-02 0.  1.
          1   -1    0    0    0  501  0.00000000000E+00 -0.00000000000E+00 -0.13476784041E+03  0.13476784050E+03  0.50400000000E-02 0.  1.
          2    1    1    2    0  502 -0.76262744290E+01  0.18722821621E+02 -0.85605438179E+02  0.87960190788E+02  0.25500000000E-02 0. -1.
         -2    1    1    2  502    0  0.76262744290E+01 -0.18722821621E+02 -0.45855696435E+02  0.50114359351E+02  0.25500000000E-02 0. -1.
<mgrwt>
<rscale>  0 0.42220273E+02</rscale>
<asrwt>0</asrwt>
<pdfrwt beam="2">  1        1 0.20733510E-01 0.42220273E+02</pdfrwt>
<pdfrwt beam="1">  1       -1 0.50872438E-03 0.42220273E+02</pdfrwt>
<totfact> 0.80274371E+05</totfact>
</mgrwt>
</event>
<event>
 4    1  0.2051373E-002  0.7187376E+02  0.7818608E-02  0.1353835E+00
          1   -1    0    0    0  501  0.00000000000E+00  0.00000000000E+00  0.59604797654E+01  0.59604818963E+01  0.50400000000E-02 0.  1.
         -1   -1    0    0  501    0 -0.00000000000E+00 -0.00000000000E+00 -0.21667030035E+03  0.21667030041E+03  0.50400000000E-02 0.  1.
          2    1    1    2    0  502  0.13161526122E+02  0.18843704699E+02 -0.19785346787E+02  0.30327725444E+02  0.25500000000E-02 0. -1.
         -2    1    1    2  502    0 -0.13161526122E+02 -0.18843704699E+02 -0.19092447380E+03  0.19230305686E+03  0.25500000000E-02 0. -1.
<mgrwt>
<rscale>  0 0.71873756E+02</rscale>
<asrwt>0</asrwt>
<pdfrwt beam="1">  1        1 0.91699722E-03 0.71873756E+02</pdfrwt>
<pdfrwt beam="2">  1       -1 0.33333886E-01 0.71873756E+02</pdfrwt>
<totfact> 0.12543852E+05</totfact>
</mgrwt>
</event>
<event>
 4    1  0.2051373E-002  0.3402631E+03  0.7818608E-02  0.1066684E+00
          1   -1    0    0    0  501  0.00000000000E+00  0.00000000000E+00  0.80890480795E+02  0.80890480952E+02  0.50400000000E-02 0. -1.
         -1   -1    0    0  501    0 -0.00000000000E+00 -0.00000000000E+00 -0.35782623196E+03  0.35782623200E+03  0.50400000000E-02 0. -1.
          2    1    1    2    0  502  0.16466407698E+03  0.40653800143E+02 -0.12127812283E+03  0.20850748859E+03  0.25500000000E-02 0. -1.
         -2    1    1    2  502    0 -0.16466407698E+03 -0.40653800143E+02 -0.15565762834E+03  0.23020922436E+03  0.25500000000E-02 0. -1.
<mgrwt>
<rscale>  0 0.34026305E+03</rscale>
<asrwt>0</asrwt>
<pdfrwt beam="1">  1        1 0.12444690E-01 0.34026305E+03</pdfrwt>
<pdfrwt beam="2">  1       -1 0.55050189E-01 0.34026305E+03</pdfrwt>
<totfact> 0.16432503E+03</totfact>
</mgrwt>
</event>
<event>
 4    1  0.2051373E-002  0.6379908E+02  0.7818608E-02  0.1382547E+00
          1   -1    0    0    0  501  0.00000000000E+00  0.00000000000E+00  0.96656593370E+02  0.96656593501E+02  0.50400000000E-02 0.  1.
         -1   -1    0    0  501    0 -0.00000000000E+00 -0.00000000000E+00 -0.10527791336E+02  0.10527792542E+02  0.50400000000E-02 0.  1.
          2    1    1    2    0  502 -0.24602060021E+02 -0.64666476009E+00  0.89676067473E+01  0.26193463113E+02  0.25500000000E-02 0. -1.
         -2    1    1    2  502    0  0.24602060021E+02  0.64666476009E+00  0.77161195286E+02  0.80990922930E+02  0.25500000000E-02 0. -1.
<mgrwt>
<rscale>  0 0.63799076E+02</rscale>
<asrwt>0</asrwt>
<pdfrwt beam="1">  1        1 0.14870245E-01 0.63799076E+02</pdfrwt>
<pdfrwt beam="2">  1       -1 0.16196603E-02 0.63799076E+02</pdfrwt>
<totfact> 0.26901984E+05</totfact>
</mgrwt>
</event>
<event>
 4    1  0.2051373E-002  0.4381709E+02  0.7818608E-02  0.1481864E+00
          1   -1    0    0    0  501  0.00000000000E+00  0.00000000000E+00  0.25048452259E+03  0.25048452264E+03  0.50400000000E-02 0. -1.
         -1   -1    0    0  501    0 -0.00000000000E+00 -0.00000000000E+00 -0.19162200824E+01  0.19162267105E+01  0.50400000000E-02 0. -1.
          2    1    1    2    0  502  0.14586971404E+02 -0.15246281688E+02  0.90324853820E+02  0.92756714389E+02  0.25500000000E-02 0. -1.
         -2    1    1    2  502    0 -0.14586971404E+02  0.15246281688E+02  0.15824344869E+03  0.15964403496E+03  0.25500000000E-02 0. -1.
<mgrwt>
<rscale>  0 0.43817089E+02</rscale>
<asrwt>0</asrwt>
<pdfrwt beam="1">  1        1 0.38536051E-01 0.43817089E+02</pdfrwt>
<pdfrwt beam="2">  1       -1 0.29480383E-03 0.43817089E+02</pdfrwt>
<totfact> 0.81090732E+05</totfact>
</mgrwt>
</event>
<event>
 4    1  0.2051373E-002  0.5425862E+02  0.7818608E-02  0.1423638E+00
         -1   -1    0    0  501    0 -0.00000000000E+00  0.00000000000E+00  0.54946958789E+01  0.54946981904E+01  0.50400000000E-02 0.  1.
          1   -1    0    0    0  501  0.00000000000E+00 -0.00000000000E+00 -0.13394721631E+03  0.13394721640E+03  0.50400000000E-02 0.  1.
          2    1    1    2    0  502 -0.22023289656E+02  0.11683337014E+02 -0.91722767296E+02  0.95050469215E+02  0.25500000000E-02 0.  1.
         -2    1    1    2  502    0  0.22023289656E+02 -0.11683337014E+02 -0.36729753134E+02  0.44391445379E+02  0.25500000000E-02 0.  1.
<mgrwt>
<rscale>  0 0.54258617E+02</rscale>
<asrwt>0</asrwt>
<pdfrwt beam="2">  1        1 0.20607262E-01 0.54258617E+02</pdfrwt>
<pdfrwt beam="1">  1       -1 0.84533811E-03 0.54258617E+02</pdfrwt>
<totfact> 0.42819348E+05</totfact>
</mgrwt>
</event>
<event>
 4    1  0.2051373E-002  0.4734366E+02  0.7818608E-02  0.1460219E+00
          1   -1    0    0    0  501  0.00000000000E+00  0.00000000000E+00  0.93158301363E+03  0.93158301364E+03  0.50400000000E-02 0.  1.
         -1   -1    0    0  501    0 -0.00000000000E+00 -0.00000000000E+00 -0.60149835810E+00  0.60151947299E+00  0.50400000000E-02 0.  1.
          2    1    1    2    0  502  0.19036721235E+02 -0.95556787217E+01  0.66882752375E+03  0.66916661923E+03  0.25500000000E-02 0.  1.
         -2    1    1    2  502    0 -0.19036721235E+02  0.95556787217E+01  0.26215399152E+03  0.26301791389E+03  0.25500000000E-02 0.  1.
<mgrwt>
<rscale>  0 0.47343659E+02</rscale>
<asrwt>0</asrwt>
<pdfrwt beam="1">  1        1 0.14331959E+00 0.47343659E+02</pdfrwt>
<pdfrwt beam="2">  1       -1 0.92540401E-04 0.47343659E+02</pdfrwt>
<totfact> 0.73834832E+05</totfact>
</mgrwt>
</event>
<event>
 4    1  0.2051373E-002  0.9147937E+02  0.7818608E-02  0.1299308E+00
          1   -1    0    0    0  501  0.00000000000E+00  0.00000000000E+00  0.16608716517E+03  0.16608716524E+03  0.50400000000E-02 0. -1.
         -1   -1    0    0  501    0 -0.00000000000E+00 -0.00000000000E+00 -0.12596509052E+02  0.12596510060E+02  0.50400000000E-02 0. -1.
          2    1    1    2    0  502  0.92309903421E+01 -0.34509151398E+02  0.13254269348E+03  0.13727220518E+03  0.25500000000E-02 0.  1.
         -2    1    1    2  502    0 -0.92309903421E+01  0.34509151398E+02  0.20947962635E+02  0.41411470126E+02  0.25500000000E-02 0.  1.
<mgrwt>
<rscale>  0 0.91479365E+02</rscale>
<asrwt>0</asrwt>
<pdfrwt beam="1">  1        1 0.25551873E-01 0.91479365E+02</pdfrwt>
<pdfrwt beam="2">  1       -1 0.19379245E-02 0.91479365E+02</pdfrwt>
<totfact> 0.11325909E+05</totfact>
</mgrwt>
</event>
<event>
 4    1  0.2051373E-002  0.4358192E+02  0.7818608E-02  0.1483394E+00
         -1   -1    0    0  501    0 -0.00000000000E+00  0.00000000000E+00  0.48163967956E+02  0.48163968220E+02  0.50400000000E-02 0. -1.
          1   -1    0    0    0  501  0.00000000000E+00 -0.00000000000E+00 -0.98589436597E+01  0.98589449480E+01  0.50400000000E-02 0. -1.
          2    1    1    2    0  502  0.15352486391E+02 -0.15019308130E+02  0.24056416444E+02  0.32248870270E+02  0.25500000000E-02 0. -1.
         -2    1    1    2  502    0 -0.15352486391E+02  0.15019308130E+02  0.14248607853E+02  0.25774042898E+02  0.25500000000E-02 0. -1.
<mgrwt>
<rscale>  0 0.43581918E+02</rscale>
<asrwt>0</asrwt>
<pdfrwt beam="2">  1        1 0.15167607E-02 0.43581918E+02</pdfrwt>
<pdfrwt beam="1">  1       -1 0.74098412E-02 0.43581918E+02</pdfrwt>
<totfact> 0.57401383E+05</totfact>
</mgrwt>
</event>
<event>
 4    1  0.2051373E-002  0.4166079E+02  0.7818608E-02  0.1496334E+00
          1   -1    0    0    0  501  0.00000000000E+00  0.00000000000E+00  0.97818708154E+01  0.97818721138E+01  0.50400000000E-02 0.  1.
         -1   -1    0    0  501    0 -0.00000000000E+00 -0.00000000000E+00 -0.44358107496E+02  0.44358107783E+02  0.50400000000E-02 0.  1.
          2    1    1    2    0  502  0.12705011433E+01  0.20519914389E+02 -0.21641927087E+02  0.29850528876E+02  0.25500000000E-02 0. -1.
         -2    1    1    2  502    0 -0.12705011433E+01 -0.20519914389E+02 -0.12934309594E+02  0.24289451020E+02  0.25500000000E-02 0. -1.
<mgrwt>
<rscale>  0 0.41660788E+02</rscale>
<asrwt>0</asrwt>
<pdfrwt beam="1">  1        1 0.15049033E-02 0.41660788E+02</pdfrwt>
<pdfrwt beam="2">  1       -1 0.68243242E-02 0.41660788E+02</pdfrwt>
<totfact> 0.64560912E+05</totfact>
</mgrwt>
</event>
<event>
 4    1  0.2051373E-002  0.5293366E+02  0.7818608E-02  0.1430131E+00
          1   -1    0    0    0  501  0.00000000000E+00  0.00000000000E+00  0.29560471770E+03  0.29560471774E+03  0.50400000000E-02 0.  1.
         -1   -1    0    0  501    0 -0.00000000000E+00 -0.00000000000E+00 -0.23696924700E+01  0.23696978297E+01  0.50400000000E-02 0.  1.
          2    1    1    2    0  502  0.23054731390E+01  0.24405019585E+02  0.90445808262E+02  0.93708934612E+02  0.25500000000E-02 0. -1.
         -2    1    1    2  502    0 -0.23054731390E+01 -0.24405019585E+02  0.20278921697E+03  0.20426548096E+03  0.25500000000E-02 0. -1.
<mgrwt>
<rscale>  0 0.52933660E+02</rscale>
<asrwt>0</asrwt>
<pdfrwt beam="1">  1        1 0.45477649E-01 0.52933660E+02</pdfrwt>
<pdfrwt beam="2">  1       -1 0.36456849E-03 0.52933660E+02</pdfrwt>
<totfact> 0.52199292E+05</totfact>
</mgrwt>
</event>
<event>
 4    1  0.2051373E-002  0.6565500E+02  0.7818608E-02  0.1375524E+00
          1   -1    0    0    0  501  0.00000000000E+00  0.00000000000E+00  0.18675561921E+03  0.18675561928E+03  0.50400000000E-02 0.  1.
         -1   -1    0    0  501    0 -0.00000000000E+00 -0.00000000000E+00 -0.57703452055E+01  0.57703474066E+01  0.50400000000E-02 0.  1.
          2    1    1    2    0  502  0.90734399896E+01  0.30122861906E+02  0.11799001358E+03  0.12211206916E+03  0.25500000000E-02 0. -1.
         -2    1    1    2  502    0 -0.90734399896E+01 -0.30122861906E+02  0.62995260424E+02  0.70413897527E+02  0.25500000000E-02 0. -1.
<mgrwt>
<rscale>  0 0.65654996E+02</rscale>
<asrwt>0</asrwt>
<pdfrwt beam="1">  1        1 0.28731633E-01 0.65654996E+02</pdfrwt>
<pdfrwt beam="2">  1       -1 0.88774562E-03 0.65654996E+02</pdfrwt>
<totfact> 0.27762715E+05</totfact>
</mgrwt>
</event>
<event>
 4    1  0.2051373E-002  0.4485256E+02  0.7818608E-02  0.1475264E+00
         -1   -1    0    0  501    0 -0.00000000000E+00  0.00000000000E+00  0.10258209417E+03  0.10258209429E+03  0.50400000000E-02 0. -1.
          1   -1    0    0    0  501  0.00000000000E+00 -0.00000000000E+00 -0.49027846933E+01  0.49027872839E+01  0.50400000000E-02 0. -1.
          2    1    1    2    0  502 -0.17260775234E+02 -0.14059458236E+02  0.42349275902E+02  0.47844162690E+02  0.25500000000E-02 0. -1.
         -2    1    1    2  502    0  0.17260775234E+02  0.14059458236E+02  0.55330033575E+02  0.59640718888E+02  0.25500000000E-02 0. -1.
<mgrwt>
<rscale>  0 0.44852561E+02</rscale>
<asrwt>0</asrwt>
<pdfrwt beam="2">  1        1 0.75427487E-03 0.44852561E+02</pdfrwt>
<pdfrwt beam="1">  1       -1 0.15781859E-01 0.44852561E+02</pdfrwt>
<totfact> 0.48417991E+05</totfact>
</mgrwt>
</event>
<event>
 4    1  0.2051373E-002  0.6732864E+02  0.7818608E-02  0.1369420E+00
          1   -1    0    0    0  501  0.00000000000E+00  0.00000000000E+00  0.76452403665E+03  0.76452403666E+03  0.50400000000E-02 0.  1.
         -1   -1    0    0  501    0 -0.00000000000E+00 -0.00000000000E+00 -0.14823381328E+01  0.14823467008E+01  0.50400000000E-02 0.  1.
          2    1    1    2    0  502 -0.20527447501E+02  0.10814867947E+02  0.65902686353E+03  0.65943517068E+03  0.25500000000E-02 0.  1.
         -2    1    1    2  502    0  0.20527447501E+02 -0.10814867947E+02  0.10401483498E+03  0.10657121268E+03  0.25500000000E-02 0.  1.
<mgrwt>
<rscale>  0 0.67328639E+02</rscale>
<asrwt>0</asrwt>
<pdfrwt beam="1">  1        1 0.11761901E+00 0.67328639E+02</pdfrwt>
<pdfrwt beam="2">  1       -1 0.22805282E-03 0.67328639E+02</pdfrwt>
<totfact> 0.31227763E+05</totfact>
</mgrwt>
</event>
<event>
 4    1  0.2051373E-002  0.4612748E+02  0.7818608E-02  0.1467423E+00
          1   -1    0    0    0  501  0.00000000000E+00  0.00000000000E+00  0.22709914970E+03  0.22709914975E+03  0.50400000000E-02 0.  1.
         -1   -1    0    0  501    0 -0.00000000000E+00 -0.00000000000E+00 -0.23423053651E+01  0.23423107874E+01  0.50400000000E-02 0.  1.
          2    1    1    2    0  502  0.98728100569E+00 -0.22712590696E+02  0.13170682598E+03  0.13365449681E+03  0.25500000000E-02 0.  1.
         -2    1    1    2  502    0 -0.98728100569E+00  0.22712590696E+02  0.93050018348E+02  0.95786963732E+02  0.25500000000E-02 0.  1.
<mgrwt>
<rscale>  0 0.46127484E+02</rscale>
<asrwt>0</asrwt>
<pdfrwt beam="1">  1        1 0.34938335E-01 0.46127484E+02</pdfrwt>
<pdfrwt beam="2">  1       -1 0.36035506E-03 0.46127484E+02</pdfrwt>
<totfact> 0.70229612E+05</totfact>
</mgrwt>
</event>
<event>
 4    1  0.2051373E-002  0.5400548E+02  0.7818608E-02  0.1424861E+00
          1   -1    0    0    0  501  0.00000000000E+00  0.00000000000E+00  0.46387177005E+02  0.46387177279E+02  0.50400000000E-02 0.  1.
         -1   -1    0    0  501    0 -0.00000000000E+00 -0.00000000000E+00 -0.15718740889E+02  0.15718741697E+02  0.50400000000E-02 0.  1.
          2    1    1    2    0  502  0.15301515354E+02 -0.19797981353E+02  0.27008294107E+02  0.36817718491E+02  0.25500000000E-02 0. -1.
         -2    1    1    2  502    0 -0.15301515354E+02  0.19797981353E+02  0.36601420094E+01  0.25288200486E+02  0.25500000000E-02 0. -1.
<mgrwt>
<rscale>  0 0.54005483E+02</rscale>
<asrwt>0</asrwt>
<pdfrwt beam="1">  1        1 0.71364889E-02 0.54005483E+02</pdfrwt>
<pdfrwt beam="2">  1       -1 0.24182679E-02 0.54005483E+02</pdfrwt>
<totfact> 0.37959526E+05</totfact>
</mgrwt>
</event>
<event>
 4    1  0.2051373E-002  0.4451422E+02  0.7818608E-02  0.1477397E+00
         -1   -1    0    0  501    0 -0.00000000000E+00  0.00000000000E+00  0.57219461869E+00  0.57221681490E+00  0.50400000000E-02 0. -1.
          1   -1    0    0    0  501  0.00000000000E+00 -0.00000000000E+00 -0.86573565535E+03  0.86573565536E+03  0.50400000000E-02 0. -1.
          2    1    1    2    0  502 -0.19275593775E+02 -0.11002113160E+02 -0.40011045151E+03  0.40072555249E+03  0.25500000000E-02 0.  1.
         -2    1    1    2  502    0  0.19275593775E+02  0.11002113160E+02 -0.46505300922E+03  0.46558231968E+03  0.25500000000E-02 0.  1.
<mgrwt>
<rscale>  0 0.44514218E+02</rscale>
<asrwt>0</asrwt>
<pdfrwt beam="2">  1        1 0.13318905E+00 0.44514218E+02</pdfrwt>
<pdfrwt beam="1">  1       -1 0.88032343E-04 0.44514218E+02</pdfrwt>
<totfact> 0.86972034E+05</totfact>
</mgrwt>
</event>
<event>
 4    1  0.2051373E-002  0.7044161E+02  0.7818608E-02  0.1358598E+00
         -1   -1    0    0  501    0 -0.00000000000E+00  0.00000000000E+00  0.13474420414E+03  0.13474420423E+03  0.50400000000E-02 0. -1.
          1   -1    0    0    0  501  0.00000000000E+00 -0.00000000000E+00 -0.92063712367E+01  0.92063726162E+01  0.50400000000E-02 0. -1.
          2    1    1    2    0  502 -0.11629434921E+02 -0.26437478099E+02  0.10396148567E+03  0.10789890877E+03  0.25500000000E-02 0.  1.
         -2    1    1    2  502    0  0.11629434921E+02  0.26437478099E+02  0.21576347231E+02  0.36051668077E+02  0.25500000000E-02 0.  1.
<mgrwt>
<rscale>  0 0.70441615E+02</rscale>
<asrwt>0</asrwt>
<pdfrwt beam="2">  1        1 0.14163649E-02 0.70441615E+02</pdfrwt>
<pdfrwt beam="1">  1       -1 0.20729878E-01 0.70441615E+02</pdfrwt>
<totfact> 0.14877035E+05</totfact>
</mgrwt>
</event>
<event>
 4    1  0.2051373E-002  0.1898502E+03  0.7818608E-02  0.1158597E+00
          1   -1    0    0    0  501  0.00000000000E+00  0.00000000000E+00  0.10015829902E+03  0.10015829914E+03  0.50400000000E-02 0.  1.
         -1   -1    0    0  501    0 -0.00000000000E+00 -0.00000000000E+00 -0.89965340446E+02  0.89965340587E+02  0.50400000000E-02 0.  1.
          2    1    1    2    0  502 -0.28735234145E+02  0.38885612753E+02  0.86902384739E+02  0.99447619582E+02  0.25500000000E-02 0.  1.
         -2    1    1    2  502    0  0.28735234145E+02 -0.38885612753E+02 -0.76709426168E+02  0.90676020149E+02  0.25500000000E-02 0.  1.
<mgrwt>
<rscale>  0 0.18985021E+03</rscale>
<asrwt>0</asrwt>
<pdfrwt beam="1">  1        1 0.15408969E-01 0.18985021E+03</pdfrwt>
<pdfrwt beam="2">  1       -1 0.13840822E-01 0.18985021E+03</pdfrwt>
<totfact> 0.12638576E+04</totfact>
</mgrwt>
</event>
<event>
 4    1  0.2051373E-002  0.5528033E+02  0.7818608E-02  0.1418778E+00
          1   -1    0    0    0  501  0.00000000000E+00  0.00000000000E+00  0.15481002098E+02  0.15481002919E+02  0.50400000000E-02 0. -1.
         -1   -1    0    0  501    0 -0.00000000000E+00 -0.00000000000E+00 -0.49349437727E+02  0.49349437984E+02  0.50400000000E-02 0. -1.
          2    1    1    2    0  502 -0.15298064542E+01 -0.20210366424E+02 -0.38973939713E+02  0.43929115653E+02  0.25500000000E-02 0.  1.
         -2    1    1    2  502    0  0.15298064542E+01  0.20210366424E+02  0.51055040841E+01  0.20901325251E+02  0.25500000000E-02 0.  1.
<mgrwt>
<rscale>  0 0.55280332E+02</rscale>
<asrwt>0</asrwt>
<pdfrwt beam="1">  1        1 0.23816927E-02 0.55280332E+02</pdfrwt>
<pdfrwt beam="2">  1       -1 0.75922212E-02 0.55280332E+02</pdfrwt>
<totfact> 0.31951427E+05</totfact>
</mgrwt>
</event>
<event>
 4    1  0.2051373E-002  0.6490262E+02  0.7818608E-02  0.1378338E+00
         -1   -1    0    0  501    0 -0.00000000000E+00  0.00000000000E+00  0.11310968636E+01  0.11311080923E+01  0.50400000000E-02 0. -1.
          1   -1    0    0    0  501  0.00000000000E+00 -0.00000000000E+00 -0.93102740826E+03  0.93102740827E+03  0.50400000000E-02 0. -1.
          2    1    1    2    0  502 -0.15460016764E+02  0.25507467744E+02 -0.28133129122E+03  0.28290800352E+03  0.25500000000E-02 0.  1.
         -2    1    1    2  502    0  0.15460016764E+02 -0.25507467744E+02 -0.64856502018E+03  0.64925051285E+03  0.25500000000E-02 0.  1.
<mgrwt>
<rscale>  0 0.64902617E+02</rscale>
<asrwt>0</asrwt>
<pdfrwt beam="2">  1        1 0.14323437E+00 0.64902617E+02</pdfrwt>
<pdfrwt beam="1">  1       -1 0.17401651E-03 0.64902617E+02</pdfrwt>
<totfact> 0.33457472E+05</totfact>
</mgrwt>
</event>
<event>
 4    1  0.2051373E-002  0.1056467E+03  0.7818608E-02  0.1268851E+00
          1   -1    0    0    0  501  0.00000000000E+00  0.00000000000E+00  0.21664069485E+04  0.21664069485E+04  0.50400000000E-02 0. -1.
         -1   -1    0    0  501    0 -0.00000000000E+00 -0.00000000000E+00 -0.12879824801E+01  0.12879923410E+01  0.50400000000E-02 0. -1.
          2    1    1    2    0  502 -0.32929170217E+02 -0.38762217460E+02  0.13752356319E+04  0.13761758183E+04  0.25500000000E-02 0. -1.
         -2    1    1    2  502    0  0.32929170217E+02  0.38762217460E+02  0.78988333415E+03  0.79151912253E+03  0.25500000000E-02 0. -1.
<mgrwt>
<rscale>  0 0.10564667E+03</rscale>
<asrwt>0</asrwt>
<pdfrwt beam="1">  1        1 0.33329295E+00 0.10564667E+03</pdfrwt>
<pdfrwt beam="2">  1       -1 0.19815217E-03 0.10564667E+03</pdfrwt>
<totfact> 0.47181955E+04</totfact>
</mgrwt>
</event>
<event>
 4    1  0.2051373E-002  0.4792450E+02  0.7818608E-02  0.1456869E+00
         -1   -1    0    0  501    0 -0.00000000000E+00  0.00000000000E+00  0.36138112679E+01  0.36138147824E+01  0.50400000000E-02 0.  1.
          1   -1    0    0    0  501  0.00000000000E+00 -0.00000000000E+00 -0.15888738270E+03  0.15888738278E+03  0.50400000000E-02 0.  1.
          2    1    1    2    0  502  0.91746003826E+01  0.21297340254E+02 -0.98105193726E+02  0.10080862580E+03  0.25500000000E-02 0.  1.
         -2    1    1    2  502    0 -0.91746003826E+01 -0.21297340254E+02 -0.57168377707E+02  0.61692571758E+02  0.25500000000E-02 0.  1.
<mgrwt>
<rscale>  0 0.47924495E+02</rscale>
<asrwt>0</asrwt>
<pdfrwt beam="2">  1        1 0.24444208E-01 0.47924495E+02</pdfrwt>
<pdfrwt beam="1">  1       -1 0.55597137E-03 0.47924495E+02</pdfrwt>
<totfact> 0.60132234E+05</totfact>
</mgrwt>
</event>
<event>
 4    1  0.2051373E-002  0.5340363E+02  0.7818608E-02  0.1427803E+00
         -1   -1    0    0  501    0 -0.00000000000E+00  0.00000000000E+00  0.49669374572E+01  0.49669400142E+01  0.50400000000E-02 0.  1.
          1   -1    0    0    0  501  0.00000000000E+00 -0.00000000000E+00 -0.14354653213E+03  0.14354653222E+03  0.50400000000E-02 0.  1.
          2    1    1    2    0  502  0.11654099658E+01 -0.22219162060E+02 -0.11034432641E+03  0.11256517987E+03  0.25500000000E-02 0. -1.
         -2    1    1    2  502    0 -0.11654099658E+01  0.22219162060E+02 -0.28235268264E+02  0.35948292359E+02  0.25500000000E-02 0. -1.
<mgrwt>
<rscale>  0 0.53403627E+02</rscale>
<asrwt>0</asrwt>
<pdfrwt beam="2">  1        1 0.22084079E-01 0.53403627E+02</pdfrwt>
<pdfrwt beam="1">  1       -1 0.76414454E-03 0.53403627E+02</pdfrwt>
<totfact> 0.45066496E+05</totfact>
</mgrwt>
</event>
<event>
 4    1  0.2051373E-002  0.6191485E+02  0.7818608E-02  0.1389967E+00
          1   -1    0    0    0  501  0.00000000000E+00  0.00000000000E+00  0.15320553349E+04  0.15320553349E+04  0.50400000000E-02 0.  1.
         -1   -1    0    0  501    0 -0.00000000000E+00 -0.00000000000E+00 -0.62552996969E+00  0.62555027342E+00  0.50400000000E-02 0.  1.
          2    1    1    2    0  502  0.21104507444E+02  0.78806254464E+01  0.24008915989E+03  0.24114375214E+03  0.25500000000E-02 0. -1.
         -2    1    1    2  502    0 -0.21104507444E+02 -0.78806254464E+01  0.12913406451E+04  0.12915371331E+04  0.25500000000E-02 0. -1.
<mgrwt>
<rscale>  0 0.61914848E+02</rscale>
<asrwt>0</asrwt>
<pdfrwt beam="1">  1        1 0.23570211E+00 0.61914848E+02</pdfrwt>
<pdfrwt beam="2">  1       -1 0.96236416E-04 0.61914848E+02</pdfrwt>
<totfact> 0.29687713E+05</totfact>
</mgrwt>
</event>
<event>
 4    1  0.2051373E-002  0.4319448E+02  0.7818608E-02  0.1485938E+00
          1   -1    0    0    0  501  0.00000000000E+00  0.00000000000E+00  0.14295845396E+04  0.14295845396E+04  0.50400000000E-02 0.  1.
         -1   -1    0    0  501    0 -0.00000000000E+00 -0.00000000000E+00 -0.32625773117E+00  0.32629665758E+00  0.50400000000E-02 0.  1.
          2    1    1    2    0  502  0.10834960889E+00  0.20381479059E+02  0.95109566819E+03  0.95131403148E+03  0.25500000000E-02 0.  1.
         -2    1    1    2  502    0 -0.10834960889E+00 -0.20381479059E+02  0.47816261370E+03  0.47859680481E+03  0.25500000000E-02 0.  1.
<mgrwt>
<rscale>  0 0.43194483E+02</rscale>
<asrwt>0</asrwt>
<pdfrwt beam="1">  1        1 0.21993145E+00 0.43194483E+02</pdfrwt>
<pdfrwt beam="2">  1       -1 0.50197550E-04 0.43194483E+02</pdfrwt>
<totfact> 0.77112970E+05</totfact>
</mgrwt>
</event>
<event>
 4    1  0.2051373E-002  0.5290484E+02  0.7818608E-02  0.1430275E+00
          1   -1    0    0    0  501  0.00000000000E+00  0.00000000000E+00  0.52952409318E+02  0.52952409557E+02  0.50400000000E-02 0.  1.
         -1   -1    0    0  501    0 -0.00000000000E+00 -0.00000000000E+00 -0.13214327539E+02  0.13214328500E+02  0.50400000000E-02 0.  1.
          2    1    1    2    0  502 -0.20429519689E+02  0.16708576032E+02  0.17635710702E+02  0.31742086986E+02  0.25500000000E-02 0.  1.
         -2    1    1    2  502    0  0.20429519689E+02 -0.16708576032E+02  0.22102371076E+02  0.34424651072E+02  0.25500000000E-02 0.  1.
<mgrwt>
<rscale>  0 0.52904840E+02</rscale>
<asrwt>0</asrwt>
<pdfrwt beam="1">  1        1 0.81465246E-02 0.52904840E+02</pdfrwt>
<pdfrwt beam="2">  1       -1 0.20329736E-02 0.52904840E+02</pdfrwt>
<totfact> 0.40580313E+05</totfact>
</mgrwt>
</event>
<event>
 4    1  0.2051373E-002  0.6828812E+02  0.7818608E-02  0.1366013E+00
         -1   -1    0    0  501    0 -0.00000000000E+00  0.00000000000E+00  0.33495260993E+03  0.33495260996E+03  0.50400000000E-02 0.  1.
          1   -1    0    0    0  501  0.00000000000E+00 -0.00000000000E+00 -0.34805404764E+01  0.34805441255E+01  0.50400000000E-02 0.  1.
          2    1    1    2    0  502 -0.17553433691E+02 -0.27237292243E+02  0.21907275564E+03  0.22145623810E+03  0.25500000000E-02 0.  1.
         -2    1    1    2  502    0  0.17553433691E+02  0.27237292243E+02  0.11239931381E+03  0.11697691599E+03  0.25500000000E-02 0.  1.
<mgrwt>
<rscale>  0 0.68288117E+02</rscale>
<asrwt>0</asrwt>
<pdfrwt beam="2">  1        1 0.53546796E-03 0.68288117E+02</pdfrwt>
<pdfrwt beam="1">  1       -1 0.51531180E-01 0.68288117E+02</pdfrwt>
<totfact> 0.12231347E+05</totfact>
</mgrwt>
</event>
<event>
 4    1  0.2051373E-002  0.4806241E+02  0.7818608E-02  0.1456082E+00
          1   -1    0    0    0  501  0.00000000000E+00  0.00000000000E+00  0.10532614416E+01  0.10532735001E+01  0.50400000000E-02 0.  1.
         -1   -1    0    0  501    0 -0.00000000000E+00 -0.00000000000E+00 -0.54829271590E+03  0.54829271593E+03  0.50400000000E-02 0.  1.
          2    1    1    2    0  502  0.11316454510E+02  0.18313344028E+02 -0.15155123079E+03  0.15307258498E+03  0.25500000000E-02 0. -1.
         -2    1    1    2  502    0 -0.11316454510E+02 -0.18313344028E+02 -0.39568822367E+03  0.39627340444E+03  0.25500000000E-02 0. -1.
<mgrwt>
<rscale>  0 0.48062413E+02</rscale>
<asrwt>0</asrwt>
<pdfrwt beam="1">  1        1 0.16204159E-03 0.48062413E+02</pdfrwt>
<pdfrwt beam="2">  1       -1 0.84352498E-01 0.48062413E+02</pdfrwt>
<totfact> 0.22671171E+05</totfact>
</mgrwt>
</event>
<event>
 4    1  0.2051373E-002  0.6501820E+02  0.7818608E-02  0.1377903E+00
         -1   -1    0    0  501    0 -0.00000000000E+00  0.00000000000E+00  0.26602784626E+02  0.26602785104E+02  0.50400000000E-02 0.  1.
          1   -1    0    0    0  501  0.00000000000E+00 -0.00000000000E+00 -0.39726726872E+02  0.39726727192E+02  0.50400000000E-02 0.  1.
          2    1    1    2    0  502 -0.26852062405E+02 -0.14562274764E+02  0.47866159191E+01  0.30919327292E+02  0.25500000000E-02 0. -1.
         -2    1    1    2  502    0  0.26852062405E+02  0.14562274764E+02 -0.17910558165E+02  0.35410185004E+02  0.25500000000E-02 0. -1.
<mgrwt>
<rscale>  0 0.65018200E+02</rscale>
<asrwt>0</asrwt>
<pdfrwt beam="2">  1        1 0.61118042E-02 0.65018200E+02</pdfrwt>
<pdfrwt beam="1">  1       -1 0.40927361E-02 0.65018200E+02</pdfrwt>
<totfact> 0.22924211E+05</totfact>
</mgrwt>
</event>
<event>
 4    1  0.2051373E-002  0.6399074E+02  0.7818608E-02  0.1381809E+00
          1   -1    0    0    0  501  0.00000000000E+00  0.00000000000E+00  0.13103607340E+03  0.13103607350E+03  0.50400000000E-02 0.  1.
         -1   -1    0    0  501    0 -0.00000000000E+00 -0.00000000000E+00 -0.78123805800E+01  0.78123822057E+01  0.50400000000E-02 0.  1.
          2    1    1    2    0  502  0.83357694101E+01  0.25276665824E+02  0.23082466705E+02  0.35230599804E+02  0.25500000000E-02 0.  1.
         -2    1    1    2  502    0 -0.83357694101E+01 -0.25276665824E+02  0.10014122612E+03  0.10361785590E+03  0.25500000000E-02 0.  1.
<mgrwt>
<rscale>  0 0.63990743E+02</rscale>
<asrwt>0</asrwt>
<pdfrwt beam="1">  1        1 0.20159395E-01 0.63990743E+02</pdfrwt>
<pdfrwt beam="2">  1       -1 0.12019049E-02 0.63990743E+02</pdfrwt>
<totfact> 0.27944967E+05</totfact>
</mgrwt>
</event>
<event>
 4    1  0.2051373E-002  0.5381518E+02  0.7818608E-02  0.1425786E+00
          1   -1    0    0    0  501  0.00000000000E+00  0.00000000000E+00  0.19113685563E+02  0.19113686227E+02  0.50400000000E-02 0. -1.
         -1   -1    0    0  501    0 -0.00000000000E+00 -0.00000000000E+00 -0.37879584919E+02  0.37879585255E+02  0.50400000000E-02 0. -1.
          2    1    1    2    0  502  0.24628738017E+02 -0.40491169686E+01  0.12629778754E+01  0.24991302570E+02  0.25500000000E-02 0. -1.
         -2    1    1    2  502    0 -0.24628738017E+02  0.40491169686E+01 -0.20028877232E+02  0.32001968912E+02  0.25500000000E-02 0. -1.
<mgrwt>
<rscale>  0 0.53815184E+02</rscale>
<asrwt>0</asrwt>
<pdfrwt beam="1">  1        1 0.29405671E-02 0.53815184E+02</pdfrwt>
<pdfrwt beam="2">  1       -1 0.58276285E-02 0.53815184E+02</pdfrwt>
<totfact> 0.35129481E+05</totfact>
</mgrwt>
</event>
<event>
 4    1  0.2051373E-002  0.4751752E+02  0.7818608E-02  0.1459211E+00
         -1   -1    0    0  501    0 -0.00000000000E+00  0.00000000000E+00  0.47525262676E+01  0.47525289400E+01  0.50400000000E-02 0.  1.
          1   -1    0    0    0  501  0.00000000000E+00 -0.00000000000E+00 -0.11877442650E+03  0.11877442661E+03  0.50400000000E-02 0.  1.
          2    1    1    2    0  502  0.16909337702E+02  0.15438813216E+02 -0.73492568638E+02  0.76976881637E+02  0.25500000000E-02 0. -1.
         -2    1    1    2  502    0 -0.16909337702E+02 -0.15438813216E+02 -0.40529331594E+02  0.46550073910E+02  0.25500000000E-02 0. -1.
<mgrwt>
<rscale>  0 0.47517523E+02</rscale>
<asrwt>0</asrwt>
<pdfrwt beam="2">  1        1 0.18272987E-01 0.47517523E+02</pdfrwt>
<pdfrwt beam="1">  1       -1 0.73115819E-03 0.47517523E+02</pdfrwt>
<totfact> 0.58766280E+05</totfact>
</mgrwt>
</event>
<event>
 4    1  0.2051373E-002  0.5692146E+02  0.7818608E-02  0.1411225E+00
          1   -1    0    0    0  501  0.00000000000E+00  0.00000000000E+00  0.11907971353E+03  0.11907971363E+03  0.50400000000E-02 0.  1.
         -1   -1    0    0  501    0 -0.00000000000E+00 -0.00000000000E+00 -0.68022749690E+01  0.68022768362E+01  0.50400000000E-02 0.  1.
          2    1    1    2    0  502  0.10398720991E+02  0.26208770444E+02  0.64698130135E+02  0.70575357568E+02  0.25500000000E-02 0.  1.
         -2    1    1    2  502    0 -0.10398720991E+02 -0.26208770444E+02  0.47579308423E+02  0.55306632902E+02  0.25500000000E-02 0.  1.
<mgrwt>
<rscale>  0 0.56921457E+02</rscale>
<asrwt>0</asrwt>
<pdfrwt beam="1">  1        1 0.18319956E-01 0.56921457E+02</pdfrwt>
<pdfrwt beam="2">  1       -1 0.10465040E-02 0.56921457E+02</pdfrwt>
<totfact> 0.37222229E+05</totfact>
</mgrwt>
</event>
<event>
 4    1  0.2051373E-002  0.5047538E+02  0.7818608E-02  0.1442794E+00
         -1   -1    0    0  501    0 -0.00000000000E+00  0.00000000000E+00  0.34487004383E+03  0.34487004387E+03  0.50400000000E-02 0. -1.
          1   -1    0    0    0  501  0.00000000000E+00 -0.00000000000E+00 -0.18468981357E+01  0.18469050125E+01  0.50400000000E-02 0. -1.
          2    1    1    2    0  502 -0.17161137429E+02 -0.12188488462E+02  0.26715580112E+03  0.26798374199E+03  0.25500000000E-02 0.  1.
         -2    1    1    2  502    0  0.17161137429E+02  0.12188488462E+02  0.75867344572E+02  0.78733206894E+02  0.25500000000E-02 0.  1.
<mgrwt>
<rscale>  0 0.50475382E+02</rscale>
<asrwt>0</asrwt>
<pdfrwt beam="2">  1        1 0.28413888E-03 0.50475382E+02</pdfrwt>
<pdfrwt beam="1">  1       -1 0.53056898E-01 0.50475382E+02</pdfrwt>
<totfact> 0.25866087E+05</totfact>
</mgrwt>
</event>
<event>
 4    1  0.2051373E-002  0.4389379E+02  0.7818608E-02  0.1481368E+00
          1   -1    0    0    0  501  0.00000000000E+00  0.00000000000E+00  0.24320302290E+03  0.24320302295E+03  0.50400000000E-02 0.  1.
         -1   -1    0    0  501    0 -0.00000000000E+00 -0.00000000000E+00 -0.19805074431E+01  0.19805138560E+01  0.50400000000E-02 0.  1.
          2    1    1    2    0  502  0.75829059496E+01  0.20331020196E+02  0.13898122075E+03  0.14066495858E+03  0.25500000000E-02 0.  1.
         -2    1    1    2  502    0 -0.75829059496E+01 -0.20331020196E+02  0.10224129470E+03  0.10451857822E+03  0.25500000000E-02 0.  1.
<mgrwt>
<rscale>  0 0.43893790E+02</rscale>
<asrwt>0</asrwt>
<pdfrwt beam="1">  1        1 0.37415848E-01 0.43893790E+02</pdfrwt>
<pdfrwt beam="2">  1       -1 0.30469397E-03 0.43893790E+02</pdfrwt>
<totfact> 0.80331732E+05</totfact>
</mgrwt>
</event>
<event>
 4    1  0.2051373E-002  0.9944428E+02  0.7818608E-02  0.1281469E+00
          1   -1    0    0    0  501  0.00000000000E+00  0.00000000000E+00  0.67418233807E+03  0.67418233809E+03  0.50400000000E-02 0.  1.
         -1   -1    0    0  501    0 -0.00000000000E+00 -0.00000000000E+00 -0.36670936796E+01  0.36670971430E+01  0.50400000000E-02 0.  1.
          2    1    1    2    0  502 -0.41775295435E+02  0.10832867872E+02  0.16693807047E+03  0.17242634866E+03  0.25500000000E-02 0. -1.
         -2    1    1    2  502    0  0.41775295435E+02 -0.10832867872E+02  0.50357717393E+03  0.50542308657E+03  0.25500000000E-02 0. -1.
<mgrwt>
<rscale>  0 0.99444275E+02</rscale>
<asrwt>0</asrwt>
<pdfrwt beam="1">  1        1 0.10372033E+00 0.99444275E+02</pdfrwt>
<pdfrwt beam="2">  1       -1 0.56416871E-03 0.99444275E+02</pdfrwt>
<totfact> 0.11289515E+05</totfact>
</mgrwt>
</event>
<event>
 4    1  0.2051373E-002  0.4829636E+02  0.7818608E-02  0.1454753E+00
          1   -1    0    0    0  501  0.00000000000E+00  0.00000000000E+00  0.23494628175E+04  0.23494628175E+04  0.50400000000E-02 0.  1.
         -1   -1    0    0  501    0 -0.00000000000E+00 -0.00000000000E+00 -0.24817355907E+00  0.24822473088E+00  0.50400000000E-02 0.  1.
          2    1    1    2    0  502  0.22871037238E+02  0.38122048882E+01  0.84636933619E+03  0.84668687866E+03  0.25500000000E-02 0.  1.
         -2    1    1    2  502    0 -0.22871037238E+02 -0.38122048882E+01  0.15028453078E+04  0.15030241636E+04  0.25500000000E-02 0.  1.
<mgrwt>
<rscale>  0 0.48296363E+02</rscale>
<asrwt>0</asrwt>
<pdfrwt beam="1">  1        1 0.36143793E+00 0.48296363E+02</pdfrwt>
<pdfrwt beam="2">  1       -1 0.38186374E-04 0.48296363E+02</pdfrwt>
<totfact> 0.31064762E+05</totfact>
</mgrwt>
</event>
<event>
 4    1  0.2051373E-002  0.5257855E+02  0.7818608E-02  0.1431910E+00
          1   -1    0    0    0  501  0.00000000000E+00  0.00000000000E+00  0.35073397046E+02  0.35073397408E+02  0.50400000000E-02 0.  1.
         -1   -1    0    0  501    0 -0.00000000000E+00 -0.00000000000E+00 -0.19705131234E+02  0.19705131878E+02  0.50400000000E-02 0.  1.
          2    1    1    2    0  502  0.21196820857E+02 -0.13436072914E+02  0.15840672637E+02  0.29677604113E+02  0.25500000000E-02 0.  1.
         -2    1    1    2  502    0 -0.21196820857E+02  0.13436072914E+02 -0.47240682526E+00  0.25100925173E+02  0.25500000000E-02 0.  1.
<mgrwt>
<rscale>  0 0.52578548E+02</rscale>
<asrwt>0</asrwt>
<pdfrwt beam="1">  1        1 0.53959072E-02 0.52578548E+02</pdfrwt>
<pdfrwt beam="2">  1       -1 0.30315588E-02 0.52578548E+02</pdfrwt>
<totfact> 0.39593920E+05</totfact>
</mgrwt>
</event>
<event>
 4    1  0.2051373E-002  0.6547980E+02  0.7818608E-02  0.1376176E+00
          1   -1    0    0    0  501  0.00000000000E+00  0.00000000000E+00  0.21108697183E+04  0.21108697184E+04  0.50400000000E-02 0.  1.
         -1   -1    0    0  501    0 -0.00000000000E+00 -0.00000000000E+00 -0.50778822394E+00  0.50781323532E+00  0.50400000000E-02 0.  1.
          2    1    1    2    0  502  0.31044980367E+02 -0.50194098427E+01  0.13487954340E+04  0.13491620022E+04  0.25500000000E-02 0.  1.
         -2    1    1    2  502    0 -0.31044980367E+02  0.50194098427E+01  0.76156649608E+03  0.76221552939E+03  0.25500000000E-02 0.  1.
<mgrwt>
<rscale>  0 0.65479804E+02</rscale>
<asrwt>0</asrwt>
<pdfrwt beam="1">  1        1 0.32475137E+00 0.65479804E+02</pdfrwt>
<pdfrwt beam="2">  1       -1 0.78122664E-04 0.65479804E+02</pdfrwt>
<totfact> 0.17415132E+05</totfact>
</mgrwt>
</event>
<event>
 4    1  0.2051373E-002  0.1195795E+03  0.7818608E-02  0.1243792E+00
          1   -1    0    0    0  501  0.00000000000E+00  0.00000000000E+00  0.31701032810E+03  0.31701032814E+03  0.50400000000E-02 0.  1.
         -1   -1    0    0  501    0 -0.00000000000E+00 -0.00000000000E+00 -0.11276644201E+02  0.11276645327E+02  0.50400000000E-02 0.  1.
          2    1    1    2    0  502  0.25170506056E+02 -0.45056032598E+02  0.69995034294E+02  0.86964965825E+02  0.25500000000E-02 0.  1.
         -2    1    1    2  502    0 -0.25170506056E+02  0.45056032598E+02  0.23573864961E+03  0.24132200764E+03  0.25500000000E-02 0.  1.
<mgrwt>
<rscale>  0 0.11957948E+03</rscale>
<asrwt>0</asrwt>
<pdfrwt beam="1">  1        1 0.48770820E-01 0.11957948E+03</pdfrwt>
<pdfrwt beam="2">  1       -1 0.17348684E-02 0.11957948E+03</pdfrwt>
<totfact> 0.62231803E+04</totfact>
</mgrwt>
</event>
<event>
 4    1  0.2051373E-002  0.9894122E+02  0.7818608E-02  0.1282538E+00
          1   -1    0    0    0  501  0.00000000000E+00  0.00000000000E+00  0.23106648668E+04  0.23106648668E+04  0.50400000000E-02 0. -1.
         -1   -1    0    0  501    0 -0.00000000000E+00 -0.00000000000E+00 -0.10591443202E+01  0.10591563117E+01  0.50400000000E-02 0. -1.
          2    1    1    2    0  502  0.26577881504E+02 -0.37410979671E+02  0.72310951271E+03  0.72456423632E+03  0.25500000000E-02 0. -1.
         -2    1    1    2  502    0 -0.26577881504E+02  0.37410979671E+02  0.15864962098E+04  0.15871597868E+04  0.25500000000E-02 0. -1.
<mgrwt>
<rscale>  0 0.98941224E+02</rscale>
<asrwt>0</asrwt>
<pdfrwt beam="1">  1        1 0.35548294E+00 0.98941224E+02</pdfrwt>
<pdfrwt beam="2">  1       -1 0.16294802E-03 0.98941224E+02</pdfrwt>
<totfact> 0.49846997E+04</totfact>
</mgrwt>
</event>
<event>
 4    1  0.2051373E-002  0.8927690E+02  0.7818608E-02  0.1304612E+00
         -1   -1    0    0  501    0 -0.00000000000E+00  0.00000000000E+00  0.28018837677E+02  0.28018838131E+02  0.50400000000E-02 0. -1.
          1   -1    0    0    0  501  0.00000000000E+00 -0.00000000000E+00 -0.71116133675E+02  0.71116133854E+02  0.50400000000E-02 0. -1.
          2    1    1    2    0  502  0.36266927390E+02 -0.16374578767E+02  0.91302417692E+00  0.39802644030E+02  0.25500000000E-02 0.  1.
         -2    1    1    2  502    0 -0.36266927390E+02  0.16374578767E+02 -0.44010320175E+02  0.59332327955E+02  0.25500000000E-02 0.  1.
<mgrwt>
<rscale>  0 0.89276905E+02</rscale>
<asrwt>0</asrwt>
<pdfrwt beam="2">  1        1 0.10940944E-01 0.89276905E+02</pdfrwt>
<pdfrwt beam="1">  1       -1 0.43105905E-02 0.89276905E+02</pdfrwt>
<totfact> 0.10480516E+05</totfact>
</mgrwt>
</event>
<event>
 4    1  0.2051373E-002  0.4177631E+02  0.7818608E-02  0.1495532E+00
          1   -1    0    0    0  501  0.00000000000E+00  0.00000000000E+00  0.23167824991E+04  0.23167824991E+04  0.50400000000E-02 0.  1.
         -1   -1    0    0  501    0 -0.00000000000E+00 -0.00000000000E+00 -0.18829423356E+00  0.18836167336E+00  0.50400000000E-02 0.  1.
          2    1    1    2    0  502 -0.20676268182E+02 -0.25262584869E+01  0.10719327888E+04  0.10721351564E+04  0.25500000000E-02 0. -1.
         -2    1    1    2  502    0  0.20676268182E+02  0.25262584869E+01  0.12446614162E+04  0.12448357044E+04  0.25500000000E-02 0. -1.
<mgrwt>
<rscale>  0 0.41776305E+02</rscale>
<asrwt>0</asrwt>
<pdfrwt beam="1">  1        1 0.35642690E+00 0.41776305E+02</pdfrwt>
<pdfrwt beam="2">  1       -1 0.28973628E-04 0.41776305E+02</pdfrwt>
<totfact> 0.45888326E+05</totfact>
</mgrwt>
</event>
<event>
 4    1  0.2051373E-002  0.4206766E+02  0.7818608E-02  0.1493524E+00
          1   -1    0    0    0  501  0.00000000000E+00  0.00000000000E+00  0.12739129185E+01  0.12739228884E+01  0.50400000000E-02 0.  1.
         -1   -1    0    0  501    0 -0.00000000000E+00 -0.00000000000E+00 -0.34729237742E+03  0.34729237746E+03  0.50400000000E-02 0.  1.
          2    1    1    2    0  502 -0.13899769141E+02 -0.15592690484E+02 -0.19345095380E+03  0.19457545352E+03  0.25500000000E-02 0.  1.
         -2    1    1    2  502    0  0.13899769141E+02  0.15592690484E+02 -0.15256751070E+03  0.15399084683E+03  0.25500000000E-02 0.  1.
<mgrwt>
<rscale>  0 0.42067659E+02</rscale>
<asrwt>0</asrwt>
<pdfrwt beam="1">  1        1 0.19598765E-03 0.42067659E+02</pdfrwt>
<pdfrwt beam="2">  1       -1 0.53429522E-01 0.42067659E+02</pdfrwt>
<totfact> 0.40332165E+05</totfact>
</mgrwt>
</event>
<event>
 4    1  0.2051373E-002  0.4406371E+02  0.7818608E-02  0.1480273E+00
         -1   -1    0    0  501    0 -0.00000000000E+00  0.00000000000E+00  0.19273446007E+01  0.19273511905E+01  0.50400000000E-02 0.  1.
          1   -1    0    0    0  501  0.00000000000E+00 -0.00000000000E+00 -0.25185001308E+03  0.25185001313E+03  0.50400000000E-02 0.  1.
          2    1    1    2    0  502 -0.16137368894E+02 -0.14427277121E+02 -0.10132590483E+03  0.10361225795E+03  0.25500000000E-02 0.  1.
         -2    1    1    2  502    0  0.16137368894E+02  0.14427277121E+02 -0.14859676364E+03  0.15016510637E+03  0.25500000000E-02 0.  1.
<mgrwt>
<rscale>  0 0.44063709E+02</rscale>
<asrwt>0</asrwt>
<pdfrwt beam="2">  1        1 0.38746130E-01 0.44063709E+02</pdfrwt>
<pdfrwt beam="1">  1       -1 0.29651526E-03 0.44063709E+02</pdfrwt>
<totfact> 0.80054325E+05</totfact>
</mgrwt>
</event>
<event>
 4    1  0.2051373E-002  0.5061471E+02  0.7818608E-02  0.1442054E+00
          1   -1    0    0    0  501  0.00000000000E+00  0.00000000000E+00  0.27542806005E+01  0.27542852118E+01  0.50400000000E-02 0.  1.
         -1   -1    0    0  501    0 -0.00000000000E+00 -0.00000000000E+00 -0.23253319715E+03  0.23253319720E+03  0.50400000000E-02 0.  1.
          2    1    1    2    0  502  0.15928386984E+02  0.19606136644E+02 -0.12201275956E+03  0.12460027130E+03  0.25500000000E-02 0. -1.
         -2    1    1    2  502    0 -0.15928386984E+02 -0.19606136644E+02 -0.10776615699E+03  0.11068721111E+03  0.25500000000E-02 0. -1.
<mgrwt>
<rscale>  0 0.50614710E+02</rscale>
<asrwt>0</asrwt>
<pdfrwt beam="1">  1        1 0.42373602E-03 0.50614710E+02</pdfrwt>
<pdfrwt beam="2">  1       -1 0.35774323E-01 0.50614710E+02</pdfrwt>
<totfact> 0.29748036E+05</totfact>
</mgrwt>
</event>
<event>
 4    1  0.2051373E-002  0.4842165E+02  0.7818608E-02  0.1454045E+00
          1   -1    0    0    0  501  0.00000000000E+00  0.00000000000E+00  0.62062089507E+01  0.62062109972E+01  0.50400000000E-02 0. -1.
         -1   -1    0    0  501    0 -0.00000000000E+00 -0.00000000000E+00 -0.94447982043E+02  0.94447982177E+02  0.50400000000E-02 0. -1.
          2    1    1    2    0  502 -0.22892311119E+02 -0.63351653618E+01 -0.53864610686E+02  0.58869249353E+02  0.25500000000E-02 0.  1.
         -2    1    1    2  502    0  0.22892311119E+02  0.63351653618E+01 -0.34377162406E+02  0.41784943821E+02  0.25500000000E-02 0.  1.
<mgrwt>
<rscale>  0 0.48421649E+02</rscale>
<asrwt>0</asrwt>
<pdfrwt beam="1">  1        1 0.95480162E-03 0.48421649E+02</pdfrwt>
<pdfrwt beam="2">  1       -1 0.14530458E-01 0.48421649E+02</pdfrwt>
<totfact> 0.40662454E+05</totfact>
</mgrwt>
</event>
<event>
 4    1  0.2051373E-002  0.4552341E+02  0.7818608E-02  0.1471100E+00
          1   -1    0    0    0  501  0.00000000000E+00  0.00000000000E+00  0.13028339166E+02  0.13028340141E+02  0.50400000000E-02 0. -1.
         -1   -1    0    0  501    0 -0.00000000000E+00 -0.00000000000E+00 -0.39766795083E+02  0.39766795402E+02  0.50400000000E-02 0. -1.
          2    1    1    2    0  502 -0.19323701145E+02  0.99998640237E+01 -0.21122356051E+02  0.30324192291E+02  0.25500000000E-02 0. -1.
         -2    1    1    2  502    0  0.19323701145E+02 -0.99998640237E+01 -0.56160998660E+01  0.22470943252E+02  0.25500000000E-02 0. -1.
<mgrwt>
<rscale>  0 0.45523415E+02</rscale>
<asrwt>0</asrwt>
<pdfrwt beam="1">  1        1 0.20043600E-02 0.45523415E+02</pdfrwt>
<pdfrwt beam="2">  1       -1 0.61179685E-02 0.45523415E+02</pdfrwt>
<totfact> 0.52631878E+05</totfact>
</mgrwt>
</event>
<event>
 4    1  0.2051373E-002  0.4219203E+02  0.7818608E-02  0.1492673E+00
         -1   -1    0    0  501    0 -0.00000000000E+00  0.00000000000E+00  0.15283336199E+01  0.15283419301E+01  0.50400000000E-02 0. -1.
          1   -1    0    0    0  501  0.00000000000E+00 -0.00000000000E+00 -0.29119337536E+03  0.29119337540E+03  0.50400000000E-02 0. -1.
          2    1    1    2    0  502  0.66348048292E+01  0.19539955766E+02 -0.17524160204E+03  0.17645240037E+03  0.25500000000E-02 0. -1.
         -2    1    1    2  502    0 -0.66348048292E+01 -0.19539955766E+02 -0.11442343970E+03  0.11626931696E+03  0.25500000000E-02 0. -1.
<mgrwt>
<rscale>  0 0.42192030E+02</rscale>
<asrwt>0</asrwt>
<pdfrwt beam="2">  1        1 0.44798937E-01 0.42192030E+02</pdfrwt>
<pdfrwt beam="1">  1       -1 0.23512912E-03 0.42192030E+02</pdfrwt>
<totfact> 0.91311039E+05</totfact>
</mgrwt>
</event>
<event>
 4    1  0.2051373E-002  0.4717045E+02  0.7818608E-02  0.1461230E+00
         -1   -1    0    0  501    0 -0.00000000000E+00  0.00000000000E+00  0.63062705238E+03  0.63062705240E+03  0.50400000000E-02 0. -1.
          1   -1    0    0    0  501  0.00000000000E+00 -0.00000000000E+00 -0.88207189637E+00  0.88208629507E+00  0.50400000000E-02 0. -1.
          2    1    1    2    0  502 -0.18056086730E+02 -0.15006970107E+02  0.34490277557E+03  0.34570096330E+03  0.25500000000E-02 0.  1.
         -2    1    1    2  502    0  0.18056086730E+02  0.15006970107E+02  0.28484220491E+03  0.28580817540E+03  0.25500000000E-02 0.  1.
<mgrwt>
<rscale>  0 0.47170455E+02</rscale>
<asrwt>0</asrwt>
<pdfrwt beam="2">  1        1 0.13570462E-03 0.47170455E+02</pdfrwt>
<pdfrwt beam="1">  1       -1 0.97019443E-01 0.47170455E+02</pdfrwt>
<totfact> 0.21476782E+05</totfact>
</mgrwt>
</event>
<event>
 4    1  0.2051373E-002  0.4917764E+02  0.7818608E-02  0.1449828E+00
         -1   -1    0    0  501    0 -0.00000000000E+00  0.00000000000E+00  0.25434397612E+02  0.25434398112E+02  0.50400000000E-02 0.  1.
          1   -1    0    0    0  501  0.00000000000E+00 -0.00000000000E+00 -0.23771356785E+02  0.23771357320E+02  0.50400000000E-02 0.  1.
          2    1    1    2    0  502  0.49222861186E+01 -0.22768189077E+02  0.87094463333E+01  0.24869133407E+02  0.25500000000E-02 0.  1.
         -2    1    1    2  502    0 -0.49222861186E+01  0.22768189077E+02 -0.70464055063E+01  0.24336622024E+02  0.25500000000E-02 0.  1.
<mgrwt>
<rscale>  0 0.49177644E+02</rscale>
<asrwt>0</asrwt>
<pdfrwt beam="2">  1        1 0.36571319E-02 0.49177644E+02</pdfrwt>
<pdfrwt beam="1">  1       -1 0.39129843E-02 0.49177644E+02</pdfrwt>
<totfact> 0.45457946E+05</totfact>
</mgrwt>
</event>
<event>
 4    1  0.2051373E-002  0.4491936E+02  0.7818608E-02  0.1474846E+00
          1   -1    0    0    0  501  0.00000000000E+00  0.00000000000E+00  0.84118550180E+03  0.84118550181E+03  0.50400000000E-02 0. -1.
         -1   -1    0    0  501    0 -0.00000000000E+00 -0.00000000000E+00 -0.59966357380E+00  0.59968475330E+00  0.50400000000E-02 0. -1.
          2    1    1    2    0  502 -0.16587339644E+02  0.12368914921E+02  0.25659210631E+03  0.25742501611E+03  0.25500000000E-02 0.  1.
         -2    1    1    2  502    0  0.16587339644E+02 -0.12368914921E+02  0.58399373191E+03  0.58436017046E+03  0.25500000000E-02 0.  1.
<mgrwt>
<rscale>  0 0.44919360E+02</rscale>
<asrwt>0</asrwt>
<pdfrwt beam="1">  1        1 0.12941314E+00 0.44919360E+02</pdfrwt>
<pdfrwt beam="2">  1       -1 0.92257579E-04 0.44919360E+02</pdfrwt>
<totfact> 0.85386836E+05</totfact>
</mgrwt>
</event>
<event>
 4    1  0.2051373E-002  0.2217202E+03  0.7818608E-02  0.1132607E+00
         -1   -1    0    0  501    0 -0.00000000000E+00  0.00000000000E+00  0.48030427255E+03  0.48030427257E+03  0.50400000000E-02 0. -1.
          1   -1    0    0    0  501  0.00000000000E+00 -0.00000000000E+00 -0.25587872021E+02  0.25587872518E+02  0.50400000000E-02 0. -1.
          2    1    1    2    0  502  0.86753170324E+02 -0.69015743460E+02  0.22547810458E+03  0.25125616621E+03  0.25500000000E-02 0. -1.
         -2    1    1    2  502    0 -0.86753170324E+02  0.69015743460E+02  0.22923829595E+03  0.25463597888E+03  0.25500000000E-02 0. -1.
<mgrwt>
<rscale>  0 0.22172022E+03</rscale>
<asrwt>0</asrwt>
<pdfrwt beam="2">  1        1 0.39365964E-02 0.22172022E+03</pdfrwt>
<pdfrwt beam="1">  1       -1 0.73892953E-01 0.22172022E+03</pdfrwt>
<totfact> 0.44066469E+03</totfact>
</mgrwt>
</event>
<event>
 4    1  0.2051373E-002  0.4309876E+02  0.7818608E-02  0.1486572E+00
         -1   -1    0    0  501    0 -0.00000000000E+00  0.00000000000E+00  0.17407151492E+01  0.17407224455E+01  0.50400000000E-02 0.  1.
          1   -1    0    0    0  501  0.00000000000E+00 -0.00000000000E+00 -0.26677237249E+03  0.26677237254E+03  0.50400000000E-02 0.  1.
          2    1    1    2    0  502 -0.10203826925E+02  0.18092786153E+02 -0.16825595339E+03  0.16953327948E+03  0.25500000000E-02 0.  1.
         -2    1    1    2  502    0  0.10203826925E+02 -0.18092786153E+02 -0.96775703953E+02  0.98979815502E+02  0.25500000000E-02 0.  1.
<mgrwt>
<rscale>  0 0.43098756E+02</rscale>
<asrwt>0</asrwt>
<pdfrwt beam="2">  1        1 0.41041872E-01 0.43098756E+02</pdfrwt>
<pdfrwt beam="1">  1       -1 0.26780311E-03 0.43098756E+02</pdfrwt>
<totfact> 0.85379617E+05</totfact>
</mgrwt>
</event>
<event>
 4    1  0.2051373E-002  0.8661137E+02  0.7818608E-02  0.1311272E+00
          1   -1    0    0    0  501  0.00000000000E+00  0.00000000000E+00  0.30161569900E+03  0.30161569904E+03  0.50400000000E-02 0. -1.
         -1   -1    0    0  501    0 -0.00000000000E+00 -0.00000000000E+00 -0.62177861801E+01  0.62177882227E+01  0.50400000000E-02 0. -1.
          2    1    1    2    0  502 -0.22838965622E+02  0.33247724618E+02  0.91687688190E+02  0.10016816717E+03  0.25500000000E-02 0. -1.
         -2    1    1    2  502    0  0.22838965622E+02 -0.33247724618E+02  0.20371022463E+03  0.20766532009E+03  0.25500000000E-02 0. -1.
<mgrwt>
<rscale>  0 0.86611368E+02</rscale>
<asrwt>0</asrwt>
<pdfrwt beam="1">  1        1 0.46402402E-01 0.86611368E+02</pdfrwt>
<pdfrwt beam="2">  1       -1 0.95658292E-03 0.86611368E+02</pdfrwt>
<totfact> 0.14700125E+05</totfact>
</mgrwt>
</event>
<event>
 4    1  0.2051373E-002  0.8454723E+02  0.7818608E-02  0.1316621E+00
         -1   -1    0    0  501    0 -0.00000000000E+00  0.00000000000E+00  0.43602503447E+02  0.43602503738E+02  0.50400000000E-02 0. -1.
          1   -1    0    0    0  501  0.00000000000E+00 -0.00000000000E+00 -0.40985229657E+02  0.40985229967E+02  0.50400000000E-02 0. -1.
          2    1    1    2    0  502  0.10897536517E+02  0.30219616067E+02 -0.26183193276E+02  0.41443227601E+02  0.25500000000E-02 0. -1.
         -2    1    1    2  502    0 -0.10897536517E+02 -0.30219616067E+02  0.28800467065E+02  0.43144506105E+02  0.25500000000E-02 0. -1.
<mgrwt>
<rscale>  0 0.84547233E+02</rscale>
<asrwt>0</asrwt>
<pdfrwt beam="2">  1        1 0.63054200E-02 0.84547233E+02</pdfrwt>
<pdfrwt beam="1">  1       -1 0.67080775E-02 0.84547233E+02</pdfrwt>
<totfact> 0.11242907E+05</totfact>
</mgrwt>
</event>
<event>
 4    1  0.2051373E-002  0.5136368E+02  0.7818608E-02  0.1438122E+00
         -1   -1    0    0  501    0 -0.00000000000E+00  0.00000000000E+00  0.16101232203E+02  0.16101232992E+02  0.50400000000E-02 0. -1.
          1   -1    0    0    0  501  0.00000000000E+00 -0.00000000000E+00 -0.40963134913E+02  0.40963135223E+02  0.50400000000E-02 0. -1.
          2    1    1    2    0  502  0.17656284312E+02  0.96850194265E+01 -0.30137618579E+02  0.36246655530E+02  0.25500000000E-02 0.  1.
         -2    1    1    2  502    0 -0.17656284312E+02 -0.96850194265E+01  0.52757158688E+01  0.20817712685E+02  0.25500000000E-02 0.  1.
<mgrwt>
<rscale>  0 0.51363683E+02</rscale>
<asrwt>0</asrwt>
<pdfrwt beam="2">  1        1 0.63020208E-02 0.51363683E+02</pdfrwt>
<pdfrwt beam="1">  1       -1 0.24771127E-02 0.51363683E+02</pdfrwt>
<totfact> 0.42684894E+05</totfact>
</mgrwt>
</event>
<event>
 4    1  0.2051373E-002  0.7405157E+02  0.7818608E-02  0.1346833E+00
          1   -1    0    0    0  501  0.00000000000E+00  0.00000000000E+00  0.10708753916E+04  0.10708753916E+04  0.50400000000E-02 0.  1.
         -1   -1    0    0  501    0 -0.00000000000E+00 -0.00000000000E+00 -0.12801709561E+01  0.12801808773E+01  0.50400000000E-02 0.  1.
          2    1    1    2    0  502 -0.18811642435E+02 -0.28478990029E+02  0.74259211940E+03  0.74337607344E+03  0.25500000000E-02 0.  1.
         -2    1    1    2  502    0  0.18811642435E+02  0.28478990029E+02  0.32700310122E+03  0.32877949903E+03  0.25500000000E-02 0.  1.
<mgrwt>
<rscale>  0 0.74051574E+02</rscale>
<asrwt>0</asrwt>
<pdfrwt beam="1">  1        1 0.16474980E+00 0.74051574E+02</pdfrwt>
<pdfrwt beam="2">  1       -1 0.19695046E-03 0.74051574E+02</pdfrwt>
<totfact> 0.22967249E+05</totfact>
</mgrwt>
</event>
<event>
 4    1  0.2051373E-002  0.4531208E+02  0.7818608E-02  0.1472403E+00
          1   -1    0    0    0  501  0.00000000000E+00  0.00000000000E+00  0.78112178871E+03  0.78112178872E+03  0.50400000000E-02 0. -1.
         -1   -1    0    0  501    0 -0.00000000000E+00 -0.00000000000E+00 -0.65711734834E+00  0.65713667611E+00  0.50400000000E-02 0. -1.
          2    1    1    2    0  502 -0.18723237171E+02 -0.73487301145E+01  0.21032445584E+03  0.21128402726E+03  0.25500000000E-02 0.  1.
         -2    1    1    2  502    0  0.18723237171E+02  0.73487301145E+01  0.57014021552E+03  0.57049489814E+03  0.25500000000E-02 0.  1.
<mgrwt>
<rscale>  0 0.45312084E+02</rscale>
<asrwt>0</asrwt>
<pdfrwt beam="1">  1        1 0.12017231E+00 0.45312084E+02</pdfrwt>
<pdfrwt beam="2">  1       -1 0.10109670E-03 0.45312084E+02</pdfrwt>
<totfact> 0.84189792E+05</totfact>
</mgrwt>
</event>
<event>
 4    1  0.2051373E-002  0.4749931E+02  0.7818608E-02  0.1459316E+00
          1   -1    0    0    0  501  0.00000000000E+00  0.00000000000E+00  0.43035406498E+00  0.43038357641E+00  0.50400000000E-02 0.  1.
         -1   -1    0    0  501    0 -0.00000000000E+00 -0.00000000000E+00 -0.13106111526E+04  0.13106111526E+04  0.50400000000E-02 0.  1.
          2    1    1    2    0  502  0.22842272439E+02 -0.60621508141E+01 -0.71998039869E+03  0.72036816531E+03  0.25500000000E-02 0.  1.
         -2    1    1    2  502    0 -0.22842272439E+02  0.60621508141E+01 -0.59020039987E+03  0.59067337090E+03  0.25500000000E-02 0.  1.
<mgrwt>
<rscale>  0 0.47499313E+02</rscale>
<asrwt>0</asrwt>
<pdfrwt beam="1">  1        1 0.66211638E-04 0.47499313E+02</pdfrwt>
<pdfrwt beam="2">  1       -1 0.20162929E+00 0.47499313E+02</pdfrwt>
<totfact> 0.92751297E+04</totfact>
</mgrwt>
</event>
<event>
 4    1  0.2051373E-002  0.4541282E+02  0.7818608E-02  0.1471781E+00
          1   -1    0    0    0  501  0.00000000000E+00  0.00000000000E+00  0.11276581892E+01  0.11276694521E+01  0.50400000000E-02 0. -1.
         -1   -1    0    0  501    0 -0.00000000000E+00 -0.00000000000E+00 -0.45721155927E+03  0.45721155929E+03  0.50400000000E-02 0. -1.
          2    1    1    2    0  502 -0.21218834885E+02 -0.79111685586E+01 -0.24479526674E+03  0.24584049334E+03  0.25500000000E-02 0. -1.
         -2    1    1    2  502    0  0.21218834885E+02  0.79111685586E+01 -0.21128863434E+03  0.21249873541E+03  0.25500000000E-02 0. -1.
<mgrwt>
<rscale>  0 0.45412815E+02</rscale>
<asrwt>0</asrwt>
<pdfrwt beam="1">  1        1 0.17348711E-03 0.45412815E+02</pdfrwt>
<pdfrwt beam="2">  1       -1 0.70340093E-01 0.45412815E+02</pdfrwt>
<totfact> 0.29150142E+05</totfact>
</mgrwt>
</event>
<event>
 4    1  0.2051373E-002  0.6543609E+02  0.7818608E-02  0.1376339E+00
         -1   -1    0    0  501    0 -0.00000000000E+00  0.00000000000E+00  0.28441967000E+01  0.28442011655E+01  0.50400000000E-02 0.  1.
          1   -1    0    0    0  501  0.00000000000E+00 -0.00000000000E+00 -0.37636975122E+03  0.37636975125E+03  0.50400000000E-02 0.  1.
          2    1    1    2    0  502 -0.13104265306E+02 -0.26509363326E+02 -0.10562976605E+03  0.10969100053E+03  0.25500000000E-02 0. -1.
         -2    1    1    2  502    0  0.13104265306E+02  0.26509363326E+02 -0.26789578847E+03  0.26952295189E+03  0.25500000000E-02 0. -1.
<mgrwt>
<rscale>  0 0.65436090E+02</rscale>
<asrwt>0</asrwt>
<pdfrwt beam="2">  1        1 0.57903000E-01 0.65436090E+02</pdfrwt>
<pdfrwt beam="1">  1       -1 0.43756937E-03 0.65436090E+02</pdfrwt>
<totfact> 0.31753624E+05</totfact>
</mgrwt>
</event>
<event>
 4    1  0.2051373E-002  0.9954127E+02  0.7818608E-02  0.1281264E+00
          1   -1    0    0    0  501  0.00000000000E+00  0.00000000000E+00  0.82711107760E+03  0.82711107762E+03  0.50400000000E-02 0.  1.
         -1   -1    0    0  501    0 -0.00000000000E+00 -0.00000000000E+00 -0.29948990432E+01  0.29949032840E+01  0.50400000000E-02 0.  1.
          2    1    1    2    0  502 -0.20796109792E+02  0.28185766075E+02  0.11719515225E+03  0.12231769827E+03  0.25500000000E-02 0. -1.
         -2    1    1    2  502    0  0.20796109792E+02 -0.28185766075E+02  0.70692102631E+03  0.70778828263E+03  0.25500000000E-02 0. -1.
<mgrwt>
<rscale>  0 0.99541267E+02</rscale>
<asrwt>0</asrwt>
<pdfrwt beam="1">  1        1 0.12724795E+00 0.99541267E+02</pdfrwt>
<pdfrwt beam="2">  1       -1 0.46075370E-03 0.99541267E+02</pdfrwt>
<totfact> 0.11156154E+05</totfact>
</mgrwt>
</event>
<event>
 4    1  0.2051373E-002  0.4375343E+02  0.7818608E-02  0.1482277E+00
         -1   -1    0    0  501    0 -0.00000000000E+00  0.00000000000E+00  0.95085611514E+00  0.95086947227E+00  0.50400000000E-02 0.  1.
          1   -1    0    0    0  501  0.00000000000E+00 -0.00000000000E+00 -0.50332249732E+03  0.50332249735E+03  0.50400000000E-02 0.  1.
          2    1    1    2    0  502 -0.20213809239E+02 -0.60880760002E+00 -0.34735300549E+03  0.34794120072E+03  0.25500000000E-02 0. -1.
         -2    1    1    2  502    0  0.20213809239E+02  0.60880760002E+00 -0.15501863572E+03  0.15633216610E+03  0.25500000000E-02 0. -1.
<mgrwt>
<rscale>  0 0.43753430E+02</rscale>
<asrwt>0</asrwt>
<pdfrwt beam="2">  1        1 0.77434019E-01 0.43753430E+02</pdfrwt>
<pdfrwt beam="1">  1       -1 0.14628699E-03 0.43753430E+02</pdfrwt>
<totfact> 0.90583738E+05</totfact>
</mgrwt>
</event>
<event>
 4    1  0.2051373E-002  0.6577461E+02  0.7818608E-02  0.1375081E+00
         -1   -1    0    0  501    0 -0.00000000000E+00  0.00000000000E+00  0.10803137388E+01  0.10803254953E+01  0.50400000000E-02 0. -1.
          1   -1    0    0    0  501  0.00000000000E+00 -0.00000000000E+00 -0.10011620295E+04  0.10011620295E+04  0.50400000000E-02 0. -1.
          2    1    1    2    0  502 -0.27867369710E+01 -0.32769009566E+02 -0.49953649816E+03  0.50061790509E+03  0.25500000000E-02 0. -1.
         -2    1    1    2  502    0  0.27867369710E+01  0.32769009566E+02 -0.50054521757E+03  0.50162444989E+03  0.25500000000E-02 0. -1.
<mgrwt>
<rscale>  0 0.65774615E+02</rscale>
<asrwt>0</asrwt>
<pdfrwt beam="2">  1        1 0.15402419E+00 0.65774615E+02</pdfrwt>
<pdfrwt beam="1">  1       -1 0.16620382E-03 0.65774615E+02</pdfrwt>
<totfact> 0.31794541E+05</totfact>
</mgrwt>
</event>
<event>
 4    1  0.2051373E-002  0.8770623E+02  0.7818608E-02  0.1308503E+00
          1   -1    0    0    0  501  0.00000000000E+00  0.00000000000E+00  0.90425775481E+03  0.90425775482E+03  0.50400000000E-02 0.  1.
         -1   -1    0    0  501    0 -0.00000000000E+00 -0.00000000000E+00 -0.21267087000E+01  0.21267146720E+01  0.50400000000E-02 0.  1.
          2    1    1    2    0  502 -0.13832898820E+02  0.28781456916E+02  0.14045521273E+03  0.14403953673E+03  0.25500000000E-02 0. -1.
         -2    1    1    2  502    0  0.13832898820E+02 -0.28781456916E+02  0.76167583338E+03  0.76234493276E+03  0.25500000000E-02 0. -1.
<mgrwt>
<rscale>  0 0.87706227E+02</rscale>
<asrwt>0</asrwt>
<pdfrwt beam="1">  1        1 0.13911709E+00 0.87706227E+02</pdfrwt>
<pdfrwt beam="2">  1       -1 0.32718520E-03 0.87706227E+02</pdfrwt>
<totfact> 0.15405547E+05</totfact>
</mgrwt>
</event>
<event>
 4    1  0.2051373E-002  0.4758535E+02  0.7818608E-02  0.1458818E+00
          1   -1    0    0    0  501  0.00000000000E+00  0.00000000000E+00  0.31781287585E+03  0.31781287589E+03  0.50400000000E-02 0.  1.
         -1   -1    0    0  501    0 -0.00000000000E+00 -0.00000000000E+00 -0.17812059655E+01  0.17812130960E+01  0.50400000000E-02 0.  1.
          2    1    1    2    0  502 -0.10500777017E+02 -0.21224363015E+02  0.17355258807E+03  0.17516061411E+03  0.25500000000E-02 0.  1.
         -2    1    1    2  502    0  0.10500777017E+02  0.21224363015E+02  0.14247908182E+03  0.14443347488E+03  0.25500000000E-02 0.  1.
<mgrwt>
<rscale>  0 0.47585348E+02</rscale>
<asrwt>0</asrwt>
<pdfrwt beam="1">  1        1 0.48894325E-01 0.47585348E+02</pdfrwt>
<pdfrwt beam="2">  1       -1 0.27403204E-03 0.47585348E+02</pdfrwt>
<totfact> 0.68942337E+05</totfact>
</mgrwt>
</event>
<event>
 4    1  0.2051373E-002  0.4295070E+02  0.7818608E-02  0.1487556E+00
          1   -1    0    0    0  501  0.00000000000E+00  0.00000000000E+00  0.40526522000E+02  0.40526522314E+02  0.50400000000E-02 0. -1.
         -1   -1    0    0  501    0 -0.00000000000E+00 -0.00000000000E+00 -0.11379967839E+02  0.11379968955E+02  0.50400000000E-02 0. -1.
          2    1    1    2    0  502  0.19007369677E+02  0.87578514876E+01  0.87509907042E+01  0.22683913012E+02  0.25500000000E-02 0.  1.
         -2    1    1    2  502    0 -0.19007369677E+02 -0.87578514876E+01  0.20395563457E+02  0.29222578257E+02  0.25500000000E-02 0.  1.
<mgrwt>
<rscale>  0 0.42950695E+02</rscale>
<asrwt>0</asrwt>
<pdfrwt beam="1">  1        1 0.62348498E-02 0.42950695E+02</pdfrwt>
<pdfrwt beam="2">  1       -1 0.17507644E-02 0.42950695E+02</pdfrwt>
<totfact> 0.67203388E+05</totfact>
</mgrwt>
</event>
<event>
 4    1  0.2051373E-002  0.4698130E+02  0.7818608E-02  0.1462339E+00
         -1   -1    0    0  501    0 -0.00000000000E+00  0.00000000000E+00  0.84640213514E+02  0.84640213664E+02  0.50400000000E-02 0. -1.
          1   -1    0    0    0  501  0.00000000000E+00 -0.00000000000E+00 -0.65194832026E+01  0.65194851507E+01  0.50400000000E-02 0. -1.
          2    1    1    2    0  502 -0.20842777805E+02 -0.92617369118E+01  0.49969389005E+02  0.54928508093E+02  0.25500000000E-02 0.  1.
         -2    1    1    2  502    0  0.20842777805E+02  0.92617369118E+01  0.28151341306E+02  0.36231190721E+02  0.25500000000E-02 0.  1.
<mgrwt>
<rscale>  0 0.46981296E+02</rscale>
<asrwt>0</asrwt>
<pdfrwt beam="2">  1        1 0.10029976E-02 0.46981296E+02</pdfrwt>
<pdfrwt beam="1">  1       -1 0.13021571E-01 0.46981296E+02</pdfrwt>
<totfact> 0.44541649E+05</totfact>
</mgrwt>
</event>
<event>
 4    1  0.2051373E-002  0.9185273E+02  0.7818608E-02  0.1298426E+00
          1   -1    0    0    0  501  0.00000000000E+00  0.00000000000E+00  0.12129525468E+04  0.12129525468E+04  0.50400000000E-02 0. -1.
         -1   -1    0    0  501    0 -0.00000000000E+00 -0.00000000000E+00 -0.17389193004E+01  0.17389266042E+01  0.50400000000E-02 0. -1.
          2    1    1    2    0  502  0.20776205905E+02  0.37428595470E+02  0.82557669346E+03  0.82668580929E+03  0.25500000000E-02 0. -1.
         -2    1    1    2  502    0 -0.20776205905E+02 -0.37428595470E+02  0.38563693401E+03  0.38800566409E+03  0.25500000000E-02 0. -1.
<mgrwt>
<rscale>  0 0.91852731E+02</rscale>
<asrwt>0</asrwt>
<pdfrwt beam="1">  1        1 0.18660791E+00 0.91852731E+02</pdfrwt>
<pdfrwt beam="2">  1       -1 0.26752686E-03 0.91852731E+02</pdfrwt>
<totfact> 0.12420106E+05</totfact>
</mgrwt>
</event>
<event>
 4    1  0.2051373E-002  0.4093269E+02  0.7818608E-02  0.1501458E+00
         -1   -1    0    0  501    0 -0.00000000000E+00  0.00000000000E+00  0.27750948941E+00  0.27755525272E+00  0.50400000000E-02 0.  1.
          1   -1    0    0    0  501  0.00000000000E+00 -0.00000000000E+00 -0.15092699718E+04  0.15092699718E+04  0.50400000000E-02 0.  1.
          2    1    1    2    0  502  0.63008366606E+01 -0.19169296228E+02 -0.88068858933E+03  0.88091972043E+03  0.25500000000E-02 0. -1.
         -2    1    1    2  502    0 -0.63008366606E+01  0.19169296228E+02 -0.62830387295E+03  0.62862780660E+03  0.25500000000E-02 0. -1.
<mgrwt>
<rscale>  0 0.40932690E+02</rscale>
<asrwt>0</asrwt>
<pdfrwt beam="2">  1        1 0.23218881E+00 0.40932690E+02</pdfrwt>
<pdfrwt beam="1">  1       -1 0.42698497E-04 0.40932690E+02</pdfrwt>
<totfact> 0.84455336E+05</totfact>
</mgrwt>
</event>
<event>
 4    1  0.2051373E-002  0.4453115E+02  0.7818608E-02  0.1477290E+00
         -1   -1    0    0  501    0 -0.00000000000E+00  0.00000000000E+00  0.56857166040E+00  0.56859399804E+00  0.50400000000E-02 0. -1.
          1   -1    0    0    0  501  0.00000000000E+00 -0.00000000000E+00 -0.87191503719E+03  0.87191503720E+03  0.50400000000E-02 0. -1.
          2    1    1    2    0  502 -0.16700820609E+01  0.20597076194E+02 -0.27324644043E+03  0.27402672486E+03  0.25500000000E-02 0.  1.
         -2    1    1    2  502    0  0.16700820609E+01 -0.20597076194E+02 -0.59810002510E+03  0.59845690634E+03  0.25500000000E-02 0.  1.
<mgrwt>
<rscale>  0 0.44531155E+02</rscale>
<asrwt>0</asrwt>
<pdfrwt beam="2">  1        1 0.13413971E+00 0.44531155E+02</pdfrwt>
<pdfrwt beam="1">  1       -1 0.87474980E-04 0.44531155E+02</pdfrwt>
<totfact> 0.86802242E+05</totfact>
</mgrwt>
</event>
<event>
 4    1  0.2051373E-002  0.4972506E+02  0.7818608E-02  0.1446830E+00
         -1   -1    0    0  501    0 -0.00000000000E+00  0.00000000000E+00  0.33163220724E+02  0.33163221107E+02  0.50400000000E-02 0.  1.
          1   -1    0    0    0  501  0.00000000000E+00 -0.00000000000E+00 -0.18639485653E+02  0.18639486334E+02  0.50400000000E-02 0.  1.
          2    1    1    2    0  502  0.21113593804E+02  0.11952941253E+02  0.16046181661E+01  0.24315251466E+02  0.25500000000E-02 0.  1.
         -2    1    1    2  502    0 -0.21113593804E+02 -0.11952941253E+02  0.12919116905E+02  0.27487455975E+02  0.25500000000E-02 0.  1.
<mgrwt>
<rscale>  0 0.49725060E+02</rscale>
<asrwt>0</asrwt>
<pdfrwt beam="2">  1        1 0.28676133E-02 0.49725060E+02</pdfrwt>
<pdfrwt beam="1">  1       -1 0.51020341E-02 0.49725060E+02</pdfrwt>
<totfact> 0.43190993E+05</totfact>
</mgrwt>
</event>
<event>
 4    1  0.2051373E-002  0.4687764E+02  0.7818608E-02  0.1462949E+00
         -1   -1    0    0  501    0 -0.00000000000E+00  0.00000000000E+00  0.10252585283E+03  0.10252585295E+03  0.50400000000E-02 0. -1.
          1   -1    0    0    0  501  0.00000000000E+00 -0.00000000000E+00 -0.53584363973E+01  0.53584387675E+01  0.50400000000E-02 0. -1.
          2    1    1    2    0  502 -0.17979405904E+02  0.14569113095E+02  0.57151693073E+02  0.61659014918E+02  0.25500000000E-02 0. -1.
         -2    1    1    2  502    0  0.17979405904E+02 -0.14569113095E+02  0.40015723358E+02  0.46225276802E+02  0.25500000000E-02 0. -1.
<mgrwt>
<rscale>  0 0.46877645E+02</rscale>
<asrwt>0</asrwt>
<pdfrwt beam="2">  1        1 0.82437503E-03 0.46877645E+02</pdfrwt>
<pdfrwt beam="1">  1       -1 0.15773208E-01 0.46877645E+02</pdfrwt>
<totfact> 0.43450600E+05</totfact>
</mgrwt>
</event>
<event>
 4    1  0.2051373E-002  0.5397599E+02  0.7818608E-02  0.1425004E+00
          1   -1    0    0    0  501  0.00000000000E+00  0.00000000000E+00  0.58624015304E+03  0.58624015306E+03  0.50400000000E-02 0. -1.
         -1   -1    0    0  501    0 -0.00000000000E+00 -0.00000000000E+00 -0.12424070099E+01  0.12424172326E+01  0.50400000000E-02 0. -1.
          2    1    1    2    0  502  0.20915162713E+02 -0.14401466303E+02  0.39195973221E+03  0.39278146334E+03  0.25500000000E-02 0.  1.
         -2    1    1    2  502    0 -0.20915162713E+02  0.14401466303E+02  0.19303801382E+03  0.19470110695E+03  0.25500000000E-02 0.  1.
<mgrwt>
<rscale>  0 0.53975990E+02</rscale>
<asrwt>0</asrwt>
<pdfrwt beam="1">  1        1 0.90190691E-01 0.53975990E+02</pdfrwt>
<pdfrwt beam="2">  1       -1 0.19114055E-03 0.53975990E+02</pdfrwt>
<totfact> 0.54585223E+05</totfact>
</mgrwt>
</event>
<event>
 4    1  0.2051373E-002  0.4473598E+02  0.7818608E-02  0.1475997E+00
         -1   -1    0    0  501    0 -0.00000000000E+00  0.00000000000E+00  0.38645184698E+02  0.38645185026E+02  0.50400000000E-02 0. -1.
          1   -1    0    0    0  501  0.00000000000E+00 -0.00000000000E+00 -0.12946681035E+02  0.12946682016E+02  0.50400000000E-02 0. -1.
          2    1    1    2    0  502  0.94349570175E+01  0.20280694302E+02  0.12899940024E+02  0.25821181894E+02  0.25500000000E-02 0. -1.
         -2    1    1    2  502    0 -0.94349570175E+01 -0.20280694302E+02  0.12798563639E+02  0.25770685148E+02  0.25500000000E-02 0. -1.
<mgrwt>
<rscale>  0 0.44735977E+02</rscale>
<asrwt>0</asrwt>
<pdfrwt beam="2">  1        1 0.19917972E-02 0.44735977E+02</pdfrwt>
<pdfrwt beam="1">  1       -1 0.59454131E-02 0.44735977E+02</pdfrwt>
<totfact> 0.55062814E+05</totfact>
</mgrwt>
</event>
<event>
 4    1  0.2051373E-002  0.4362811E+02  0.7818608E-02  0.1483092E+00
          1   -1    0    0    0  501  0.00000000000E+00  0.00000000000E+00  0.18238722551E+04  0.18238722551E+04  0.50400000000E-02 0. -1.
         -1   -1    0    0  501    0 -0.00000000000E+00 -0.00000000000E+00 -0.26087829360E+00  0.26092697383E+00  0.50400000000E-02 0. -1.
          2    1    1    2    0  502  0.43851908267E+01 -0.21346800375E+02  0.95228457438E+03  0.95253389777E+03  0.25500000000E-02 0. -1.
         -2    1    1    2  502    0 -0.43851908267E+01  0.21346800375E+02  0.87132680241E+03  0.87159928430E+03  0.25500000000E-02 0. -1.
<mgrwt>
<rscale>  0 0.43628114E+02</rscale>
<asrwt>0</asrwt>
<pdfrwt beam="1">  1        1 0.28058628E+00 0.43628114E+02</pdfrwt>
<pdfrwt beam="2">  1       -1 0.40140220E-04 0.43628114E+02</pdfrwt>
<totfact> 0.59793869E+05</totfact>
</mgrwt>
</event>
<event>
 4    1  0.2051373E-002  0.4150752E+02  0.7818608E-02  0.1497402E+00
          1   -1    0    0    0  501  0.00000000000E+00  0.00000000000E+00  0.19983903760E+02  0.19983904396E+02  0.50400000000E-02 0. -1.
         -1   -1    0    0  501    0 -0.00000000000E+00 -0.00000000000E+00 -0.21553269599E+02  0.21553270188E+02  0.50400000000E-02 0. -1.
          2    1    1    2    0  502  0.16446124719E+02 -0.12447391392E+02  0.15204198028E+01  0.20681495440E+02  0.25500000000E-02 0. -1.
         -2    1    1    2  502    0 -0.16446124719E+02  0.12447391392E+02 -0.30897856416E+01  0.20855679144E+02  0.25500000000E-02 0. -1.
<mgrwt>
<rscale>  0 0.41507517E+02</rscale>
<asrwt>0</asrwt>
<pdfrwt beam="1">  1        1 0.30744468E-02 0.41507517E+02</pdfrwt>
<pdfrwt beam="2">  1       -1 0.33158878E-02 0.41507517E+02</pdfrwt>
<totfact> 0.69285052E+05</totfact>
</mgrwt>
</event>
<event>
 4    1  0.2051373E-002  0.4753855E+02  0.7818608E-02  0.1459089E+00
          1   -1    0    0    0  501  0.00000000000E+00  0.00000000000E+00  0.81469159460E+03  0.81469159461E+03  0.50400000000E-02 0.  1.
         -1   -1    0    0  501    0 -0.00000000000E+00 -0.00000000000E+00 -0.69347837711E+00  0.69349669150E+00  0.50400000000E-02 0.  1.
          2    1    1    2    0  502  0.33357020769E+01 -0.23424847655E+02  0.36815773486E+03  0.36891729173E+03  0.25500000000E-02 0.  1.
         -2    1    1    2  502    0 -0.33357020769E+01  0.23424847655E+02  0.44584038136E+03  0.44646779957E+03  0.25500000000E-02 0.  1.
<mgrwt>
<rscale>  0 0.47538552E+02</rscale>
<asrwt>0</asrwt>
<pdfrwt beam="1">  1        1 0.12533669E+00 0.47538552E+02</pdfrwt>
<pdfrwt beam="2">  1       -1 0.10669080E-03 0.47538552E+02</pdfrwt>
<totfact> 0.74552724E+05</totfact>
</mgrwt>
</event>
<event>
 4    1  0.2051373E-002  0.6325000E+02  0.7818608E-02  0.1384678E+00
          1   -1    0    0    0  501  0.00000000000E+00  0.00000000000E+00  0.58034038586E+01  0.58034060471E+01  0.50400000000E-02 0. -1.
         -1   -1    0    0  501    0 -0.00000000000E+00 -0.00000000000E+00 -0.17233685176E+03  0.17233685183E+03  0.50400000000E-02 0. -1.
          2    1    1    2    0  502  0.21711139537E+02  0.19964414027E+02 -0.51130937076E+02  0.59028163958E+02  0.25500000000E-02 0. -1.
         -2    1    1    2  502    0 -0.21711139537E+02 -0.19964414027E+02 -0.11540251082E+03  0.11911209392E+03  0.25500000000E-02 0. -1.
<mgrwt>
<rscale>  0 0.63249998E+02</rscale>
<asrwt>0</asrwt>
<pdfrwt beam="1">  1        1 0.89283167E-03 0.63249998E+02</pdfrwt>
<pdfrwt beam="2">  1       -1 0.26513358E-01 0.63249998E+02</pdfrwt>
<totfact> 0.18494126E+05</totfact>
</mgrwt>
</event>
<event>
 4    1  0.2051373E-002  0.9351460E+02  0.7818608E-02  0.1294557E+00
         -1   -1    0    0  501    0 -0.00000000000E+00  0.00000000000E+00  0.80973301459E+02  0.80973301616E+02  0.50400000000E-02 0. -1.
          1   -1    0    0    0  501  0.00000000000E+00 -0.00000000000E+00 -0.26999578232E+02  0.26999578702E+02  0.50400000000E-02 0. -1.
          2    1    1    2    0  502 -0.43471877166E+02 -0.30487116306E+01  0.74215457993E+01  0.44206086634E+02  0.25500000000E-02 0.  1.
         -2    1    1    2  502    0  0.43471877166E+02  0.30487116306E+01  0.46552177427E+02  0.63766793684E+02  0.25500000000E-02 0.  1.
<mgrwt>
<rscale>  0 0.93514598E+02</rscale>
<asrwt>0</asrwt>
<pdfrwt beam="2">  1        1 0.41537814E-02 0.93514598E+02</pdfrwt>
<pdfrwt beam="1">  1       -1 0.12457431E-01 0.93514598E+02</pdfrwt>
<totfact> 0.79168104E+04</totfact>
</mgrwt>
</event>
<event>
 4    1  0.2051373E-002  0.6093761E+02  0.7818608E-02  0.1393939E+00
          1   -1    0    0    0  501  0.00000000000E+00  0.00000000000E+00  0.63689816536E+02  0.63689816735E+02  0.50400000000E-02 0. -1.
         -1   -1    0    0  501    0 -0.00000000000E+00 -0.00000000000E+00 -0.14576083363E+02  0.14576084235E+02  0.50400000000E-02 0. -1.
          2    1    1    2    0  502  0.13618903617E+02  0.25456110674E+02  0.37066043445E+02  0.46982759493E+02  0.25500000000E-02 0.  1.
         -2    1    1    2  502    0 -0.13618903617E+02 -0.25456110674E+02  0.12047689727E+02  0.31283141477E+02  0.25500000000E-02 0.  1.
<mgrwt>
<rscale>  0 0.60937611E+02</rscale>
<asrwt>0</asrwt>
<pdfrwt beam="1">  1        1 0.97984333E-02 0.60937611E+02</pdfrwt>
<pdfrwt beam="2">  1       -1 0.22424745E-02 0.60937611E+02</pdfrwt>
<totfact> 0.28718633E+05</totfact>
</mgrwt>
</event>
<event>
 4    1  0.2051373E-002  0.1041991E+03  0.7818608E-02  0.1271706E+00
          1   -1    0    0    0  501  0.00000000000E+00  0.00000000000E+00  0.14830613644E+03  0.14830613653E+03  0.50400000000E-02 0. -1.
         -1   -1    0    0  501    0 -0.00000000000E+00 -0.00000000000E+00 -0.18302449642E+02  0.18302450336E+02  0.50400000000E-02 0. -1.
          2    1    1    2    0  502 -0.69033519335E+01 -0.29235873075E+02 -0.30608424947E+01  0.30195385503E+02  0.25500000000E-02 0. -1.
         -2    1    1    2  502    0  0.69033519335E+01  0.29235873075E+02  0.13306452929E+03  0.13641320136E+03  0.25500000000E-02 0. -1.
<mgrwt>
<rscale>  0 0.10419915E+03</rscale>
<asrwt>0</asrwt>
<pdfrwt beam="1">  1        1 0.22816329E-01 0.10419915E+03</pdfrwt>
<pdfrwt beam="2">  1       -1 0.28157615E-02 0.10419915E+03</pdfrwt>
<totfact> 0.77812569E+04</totfact>
</mgrwt>
</event>
<event>
 4    1  0.2051373E-002  0.6483447E+02  0.7818608E-02  0.1378595E+00
          1   -1    0    0    0  501  0.00000000000E+00  0.00000000000E+00  0.57562915183E+03  0.57562915185E+03  0.50400000000E-02 0.  1.
         -1   -1    0    0  501    0 -0.00000000000E+00 -0.00000000000E+00 -0.18256114441E+01  0.18256184011E+01  0.50400000000E-02 0.  1.
          2    1    1    2    0  502 -0.19825048814E+02 -0.15257231069E+02  0.47052934124E+03  0.47119388434E+03  0.25500000000E-02 0. -1.
         -2    1    1    2  502    0  0.19825048814E+02  0.15257231069E+02  0.10327419914E+03  0.10626088592E+03  0.25500000000E-02 0. -1.
<mgrwt>
<rscale>  0 0.64834472E+02</rscale>
<asrwt>0</asrwt>
<pdfrwt beam="1">  1        1 0.88558342E-01 0.64834472E+02</pdfrwt>
<pdfrwt beam="2">  1       -1 0.28086380E-03 0.64834472E+02</pdfrwt>
<totfact> 0.34287789E+05</totfact>
</mgrwt>
</event>
<event>
 4    1  0.2051373E-002  0.7940212E+02  0.7818608E-02  0.1330757E+00
         -1   -1    0    0  501    0 -0.00000000000E+00  0.00000000000E+00  0.33042589197E+02  0.33042589582E+02  0.50400000000E-02 0.  1.
          1   -1    0    0    0  501  0.00000000000E+00 -0.00000000000E+00 -0.47701292519E+02  0.47701292785E+02  0.50400000000E-02 0.  1.
          2    1    1    2    0  502  0.17430988977E+02  0.35111549576E+02 -0.13721586178E+02  0.41532423769E+02  0.25500000000E-02 0. -1.
         -2    1    1    2  502    0 -0.17430988977E+02 -0.35111549576E+02 -0.93711714368E+00  0.39211458598E+02  0.25500000000E-02 0. -1.
<mgrwt>
<rscale>  0 0.79402122E+02</rscale>
<asrwt>0</asrwt>
<pdfrwt beam="2">  1        1 0.73386604E-02 0.79402122E+02</pdfrwt>
<pdfrwt beam="1">  1       -1 0.50834753E-02 0.79402122E+02</pdfrwt>
<totfact> 0.13653421E+05</totfact>
</mgrwt>
</event>
<event>
 4    1  0.2051373E-002  0.6005181E+02  0.7818608E-02  0.1397614E+00
         -1   -1    0    0  501    0 -0.00000000000E+00  0.00000000000E+00  0.74668224969E+00  0.74669925914E+00  0.50400000000E-02 0. -1.
          1   -1    0    0    0  501  0.00000000000E+00 -0.00000000000E+00 -0.12074006516E+04  0.12074006516E+04  0.50400000000E-02 0. -1.
          2    1    1    2    0  502  0.20518687238E+02 -0.18893661685E+02 -0.82696555446E+03  0.82743580732E+03  0.25500000000E-02 0.  1.
         -2    1    1    2  502    0 -0.20518687238E+02  0.18893661685E+02 -0.37968841486E+03  0.38071154351E+03  0.25500000000E-02 0.  1.
<mgrwt>
<rscale>  0 0.60051808E+02</rscale>
<asrwt>0</asrwt>
<pdfrwt beam="2">  1        1 0.18575239E+00 0.60051808E+02</pdfrwt>
<pdfrwt beam="1">  1       -1 0.11487647E-03 0.60051808E+02</pdfrwt>
<totfact> 0.37443154E+05</totfact>
</mgrwt>
</event>
<event>
 4    1  0.2051373E-002  0.1042377E+03  0.7818608E-02  0.1271629E+00
         -1   -1    0    0  501    0 -0.00000000000E+00  0.00000000000E+00  0.36445373582E+01  0.36445408431E+01  0.50400000000E-02 0.  1.
          1   -1    0    0    0  501  0.00000000000E+00 -0.00000000000E+00 -0.74532773078E+03  0.74532773080E+03  0.50400000000E-02 0.  1.
          2    1    1    2    0  502  0.50159092774E+02  0.96896990062E+01 -0.29667301282E+03  0.30103936851E+03  0.25500000000E-02 0. -1.
         -2    1    1    2  502    0 -0.50159092774E+02 -0.96896990062E+01 -0.44501018061E+03  0.44793290313E+03  0.25500000000E-02 0. -1.
<mgrwt>
<rscale>  0 0.10423773E+03</rscale>
<asrwt>0</asrwt>
<pdfrwt beam="2">  1        1 0.11466568E+00 0.10423773E+03</pdfrwt>
<pdfrwt beam="1">  1       -1 0.56069892E-03 0.10423773E+03</pdfrwt>
<totfact> 0.99400037E+04</totfact>
</mgrwt>
</event>
<event>
 4    1  0.2051373E-002  0.4578028E+02  0.7818608E-02  0.1469529E+00
         -1   -1    0    0  501    0 -0.00000000000E+00  0.00000000000E+00  0.44027585040E+01  0.44027613887E+01  0.50400000000E-02 0.  1.
          1   -1    0    0    0  501  0.00000000000E+00 -0.00000000000E+00 -0.11900680410E+03  0.11900680421E+03  0.50400000000E-02 0.  1.
          2    1    1    2    0  502  0.19920894724E+02  0.20030857372E+01 -0.27392705415E+02  0.33929555192E+02  0.25500000000E-02 0. -1.
         -2    1    1    2  502    0 -0.19920894724E+02 -0.20030857372E+01 -0.87211340183E+02  0.89480010406E+02  0.25500000000E-02 0. -1.
<mgrwt>
<rscale>  0 0.45780275E+02</rscale>
<asrwt>0</asrwt>
<pdfrwt beam="2">  1        1 0.18308737E-01 0.45780275E+02</pdfrwt>
<pdfrwt beam="1">  1       -1 0.67734778E-03 0.45780275E+02</pdfrwt>
<totfact> 0.64512440E+05</totfact>
</mgrwt>
</event>
<event>
 4    1  0.2051373E-002  0.5160572E+02  0.7818608E-02  0.1436868E+00
         -1   -1    0    0  501    0 -0.00000000000E+00  0.00000000000E+00  0.29788605212E+02  0.29788605639E+02  0.50400000000E-02 0.  1.
          1   -1    0    0    0  501  0.00000000000E+00 -0.00000000000E+00 -0.22350408424E+02  0.22350408992E+02  0.50400000000E-02 0.  1.
          2    1    1    2    0  502 -0.57625736846E+01  0.24890816873E+02  0.73657595395E+01  0.26589743139E+02  0.25500000000E-02 0. -1.
         -2    1    1    2  502    0  0.57625736846E+01 -0.24890816873E+02  0.72437249295E-01  0.25549271492E+02  0.25500000000E-02 0. -1.
<mgrwt>
<rscale>  0 0.51605717E+02</rscale>
<asrwt>0</asrwt>
<pdfrwt beam="2">  1        1 0.34385245E-02 0.51605717E+02</pdfrwt>
<pdfrwt beam="1">  1       -1 0.45828624E-02 0.51605717E+02</pdfrwt>
<totfact> 0.39858691E+05</totfact>
</mgrwt>
</event>
<event>
 4    1  0.2051373E-002  0.5377525E+02  0.7818608E-02  0.1425981E+00
         -1   -1    0    0  501    0 -0.00000000000E+00  0.00000000000E+00  0.26922257010E+01  0.26922304186E+01  0.50400000000E-02 0. -1.
          1   -1    0    0    0  501  0.00000000000E+00 -0.00000000000E+00 -0.26853017286E+03  0.26853017291E+03  0.50400000000E-02 0. -1.
          2    1    1    2    0  502 -0.18994499768E+02  0.10631980708E+02 -0.21252437568E+03  0.21363623358E+03  0.25500000000E-02 0. -1.
         -2    1    1    2  502    0  0.18994499768E+02 -0.10631980708E+02 -0.53313571482E+02  0.57586169745E+02  0.25500000000E-02 0. -1.
<mgrwt>
<rscale>  0 0.53775254E+02</rscale>
<asrwt>0</asrwt>
<pdfrwt beam="2">  1        1 0.41312314E-01 0.53775254E+02</pdfrwt>
<pdfrwt beam="1">  1       -1 0.41418915E-03 0.53775254E+02</pdfrwt>
<totfact> 0.49318270E+05</totfact>
</mgrwt>
</event>
<event>
 4    1  0.2051373E-002  0.4742844E+02  0.7818608E-02  0.1459727E+00
         -1   -1    0    0  501    0 -0.00000000000E+00  0.00000000000E+00  0.35267485160E+01  0.35267521172E+01  0.50400000000E-02 0.  1.
          1   -1    0    0    0  501  0.00000000000E+00 -0.00000000000E+00 -0.15945675298E+03  0.15945675306E+03  0.50400000000E-02 0.  1.
          2    1    1    2    0  502  0.13411007202E+02  0.19142770085E+02 -0.64192160057E+02  0.68314963075E+02  0.25500000000E-02 0. -1.
         -2    1    1    2  502    0 -0.13411007202E+02 -0.19142770085E+02 -0.91737844411E+02  0.94668542106E+02  0.25500000000E-02 0. -1.
<mgrwt>
<rscale>  0 0.47428437E+02</rscale>
<asrwt>0</asrwt>
<pdfrwt beam="2">  1        1 0.24531803E-01 0.47428437E+02</pdfrwt>
<pdfrwt beam="1">  1       -1 0.54257710E-03 0.47428437E+02</pdfrwt>
<totfact> 0.61749300E+05</totfact>
</mgrwt>
</event>
<event>
 4    1  0.2051373E-002  0.4338923E+02  0.7818608E-02  0.1484655E+00
          1   -1    0    0    0  501  0.00000000000E+00  0.00000000000E+00  0.66441233195E+03  0.66441233197E+03  0.50400000000E-02 0. -1.
         -1   -1    0    0  501    0 -0.00000000000E+00 -0.00000000000E+00 -0.70837092657E+00  0.70838885593E+00  0.50400000000E-02 0. -1.
          2    1    1    2    0  502 -0.19570782569E+02 -0.91996821313E+01  0.30527163142E+03  0.30603662957E+03  0.25500000000E-02 0.  1.
         -2    1    1    2  502    0  0.19570782569E+02  0.91996821313E+01  0.35843232961E+03  0.35908409126E+03  0.25500000000E-02 0.  1.
<mgrwt>
<rscale>  0 0.43389231E+02</rscale>
<asrwt>0</asrwt>
<pdfrwt beam="1">  1        1 0.10221728E+00 0.43389231E+02</pdfrwt>
<pdfrwt beam="2">  1       -1 0.10898153E-03 0.43389231E+02</pdfrwt>
<totfact> 0.94047269E+05</totfact>
</mgrwt>
</event>
<event>
 4    1  0.2051373E-002  0.7648330E+02  0.7818608E-02  0.1339338E+00
         -1   -1    0    0  501    0 -0.00000000000E+00  0.00000000000E+00  0.14457884580E+02  0.14457885459E+02  0.50400000000E-02 0. -1.
          1   -1    0    0    0  501  0.00000000000E+00 -0.00000000000E+00 -0.10115060671E+03  0.10115060684E+03  0.50400000000E-02 0. -1.
          2    1    1    2    0  502 -0.27785757078E+02  0.20083587656E+02 -0.68954794860E+02  0.77007548527E+02  0.25500000000E-02 0. -1.
         -2    1    1    2  502    0  0.27785757078E+02 -0.20083587656E+02 -0.17737927273E+02  0.38600943770E+02  0.25500000000E-02 0. -1.
<mgrwt>
<rscale>  0 0.76483302E+02</rscale>
<asrwt>0</asrwt>
<pdfrwt beam="2">  1        1 0.15561631E-01 0.76483302E+02</pdfrwt>
<pdfrwt beam="1">  1       -1 0.22242901E-02 0.76483302E+02</pdfrwt>
<totfact> 0.16799822E+05</totfact>
</mgrwt>
</event>
<event>
 4    1  0.2051373E-002  0.4810930E+02  0.7818608E-02  0.1455815E+00
          1   -1    0    0    0  501  0.00000000000E+00  0.00000000000E+00  0.62076475192E+02  0.62076475397E+02  0.50400000000E-02 0. -1.
         -1   -1    0    0  501    0 -0.00000000000E+00 -0.00000000000E+00 -0.93211803942E+01  0.93211817568E+01  0.50400000000E-02 0. -1.
          2    1    1    2    0  502  0.23135346539E+02  0.65825605493E+01  0.26715123100E+02  0.35948187321E+02  0.25500000000E-02 0. -1.
         -2    1    1    2  502    0 -0.23135346539E+02 -0.65825605493E+01  0.26040171698E+02  0.35449469833E+02  0.25500000000E-02 0. -1.
<mgrwt>
<rscale>  0 0.48109296E+02</rscale>
<asrwt>0</asrwt>
<pdfrwt beam="1">  1        1 0.95502271E-02 0.48109296E+02</pdfrwt>
<pdfrwt beam="2">  1       -1 0.14340279E-02 0.48109296E+02</pdfrwt>
<totfact> 0.52574692E+05</totfact>
</mgrwt>
</event>
<event>
 4    1  0.2051373E-002  0.5096300E+02  0.7818608E-02  0.1440216E+00
         -1   -1    0    0  501    0 -0.00000000000E+00  0.00000000000E+00  0.21916842922E+03  0.21916842928E+03  0.50400000000E-02 0.  1.
          1   -1    0    0    0  501  0.00000000000E+00 -0.00000000000E+00 -0.29625902983E+01  0.29625945854E+01  0.50400000000E-02 0.  1.
          2    1    1    2    0  502 -0.97346620131E+01  0.23488734736E+02  0.11542553408E+03  0.11819280108E+03  0.25500000000E-02 0. -1.
         -2    1    1    2  502    0  0.97346620131E+01 -0.23488734736E+02  0.10078030484E+03  0.10393822278E+03  0.25500000000E-02 0. -1.
<mgrwt>
<rscale>  0 0.50962996E+02</rscale>
<asrwt>0</asrwt>
<pdfrwt beam="2">  1        1 0.45578354E-03 0.50962996E+02</pdfrwt>
<pdfrwt beam="1">  1       -1 0.33718214E-01 0.50962996E+02</pdfrwt>
<totfact> 0.29780681E+05</totfact>
</mgrwt>
</event>
<event>
 4    1  0.2051373E-002  0.4325229E+02  0.7818608E-02  0.1485557E+00
          1   -1    0    0    0  501  0.00000000000E+00  0.00000000000E+00  0.15130372940E+01  0.15130456882E+01  0.50400000000E-02 0. -1.
         -1   -1    0    0  501    0 -0.00000000000E+00 -0.00000000000E+00 -0.30910602527E+03  0.30910602531E+03  0.50400000000E-02 0. -1.
          2    1    1    2    0  502 -0.17427347714E+02  0.10049489630E+02 -0.21079184719E+03  0.21174963410E+03  0.25500000000E-02 0. -1.
         -2    1    1    2  502    0  0.17427347714E+02 -0.10049489630E+02 -0.96801140778E+02  0.98869436898E+02  0.25500000000E-02 0. -1.
<mgrwt>
<rscale>  0 0.43252295E+02</rscale>
<asrwt>0</asrwt>
<pdfrwt beam="1">  1        1 0.23277586E-03 0.43252295E+02</pdfrwt>
<pdfrwt beam="2">  1       -1 0.47554724E-01 0.43252295E+02</pdfrwt>
<totfact> 0.39589785E+05</totfact>
</mgrwt>
</event>
<event>
 4    1  0.2051373E-002  0.9050520E+02  0.7818608E-02  0.1301633E+00
          1   -1    0    0    0  501  0.00000000000E+00  0.00000000000E+00  0.14909573248E+02  0.14909574100E+02  0.50400000000E-02 0.  1.
         -1   -1    0    0  501    0 -0.00000000000E+00 -0.00000000000E+00 -0.13734785283E+03  0.13734785292E+03  0.50400000000E-02 0.  1.
          2    1    1    2    0  502  0.32178675644E+02 -0.18532658813E+02 -0.10472785206E+03  0.11111637868E+03  0.25500000000E-02 0.  1.
         -2    1    1    2  502    0 -0.32178675644E+02  0.18532658813E+02 -0.17710427527E+02  0.41141048341E+02  0.25500000000E-02 0.  1.
<mgrwt>
<rscale>  0 0.90505203E+02</rscale>
<asrwt>0</asrwt>
<pdfrwt beam="1">  1        1 0.22937807E-02 0.90505203E+02</pdfrwt>
<pdfrwt beam="2">  1       -1 0.21130438E-01 0.90505203E+02</pdfrwt>
<totfact> 0.77779877E+04</totfact>
</mgrwt>
</event>
<event>
 4    1  0.2051373E-002  0.5697577E+02  0.7818608E-02  0.1410980E+00
         -1   -1    0    0  501    0 -0.00000000000E+00  0.00000000000E+00  0.12530018513E+03  0.12530018523E+03  0.50400000000E-02 0.  1.
          1   -1    0    0    0  501  0.00000000000E+00 -0.00000000000E+00 -0.64769225125E+01  0.64769244735E+01  0.50400000000E-02 0.  1.
          2    1    1    2    0  502 -0.19905885990E+02  0.20323798437E+02  0.55935684020E+02  0.62754297328E+02  0.25500000000E-02 0.  1.
         -2    1    1    2  502    0  0.19905885990E+02 -0.20323798437E+02  0.62887578595E+02  0.69022812374E+02  0.25500000000E-02 0.  1.
<mgrwt>
<rscale>  0 0.56975775E+02</rscale>
<asrwt>0</asrwt>
<pdfrwt beam="2">  1        1 0.99644975E-03 0.56975775E+02</pdfrwt>
<pdfrwt beam="1">  1       -1 0.19276952E-01 0.56975775E+02</pdfrwt>
<totfact> 0.25815919E+05</totfact>
</mgrwt>
</event>
<event>
 4    1  0.2051373E-002  0.1174473E+03  0.7818608E-02  0.1247369E+00
         -1   -1    0    0  501    0 -0.00000000000E+00  0.00000000000E+00  0.19900164660E+03  0.19900164666E+03  0.50400000000E-02 0. -1.
          1   -1    0    0    0  501  0.00000000000E+00 -0.00000000000E+00 -0.17328839874E+02  0.17328840607E+02  0.50400000000E-02 0. -1.
          2    1    1    2    0  502 -0.45229080141E+02  0.24652887219E+02  0.14277225807E+03  0.15178060554E+03  0.25500000000E-02 0. -1.
         -2    1    1    2  502    0  0.45229080141E+02 -0.24652887219E+02  0.38900548659E+02  0.64549881728E+02  0.25500000000E-02 0. -1.
<mgrwt>
<rscale>  0 0.11744731E+03</rscale>
<asrwt>0</asrwt>
<pdfrwt beam="2">  1        1 0.26659754E-02 0.11744731E+03</pdfrwt>
<pdfrwt beam="1">  1       -1 0.30615638E-01 0.11744731E+03</pdfrwt>
<totfact> 0.35781379E+04</totfact>
</mgrwt>
</event>
<event>
 4    1  0.2051373E-002  0.7288626E+02  0.7818608E-02  0.1350544E+00
         -1   -1    0    0  501    0 -0.00000000000E+00  0.00000000000E+00  0.33129726351E+02  0.33129726735E+02  0.50400000000E-02 0. -1.
          1   -1    0    0    0  501  0.00000000000E+00 -0.00000000000E+00 -0.40087915441E+02  0.40087915758E+02  0.50400000000E-02 0. -1.
          2    1    1    2    0  502  0.16186724387E+02  0.23858802056E+02 -0.25870552897E+02  0.38736778333E+02  0.25500000000E-02 0.  1.
         -2    1    1    2  502    0 -0.16186724387E+02 -0.23858802056E+02  0.18912363807E+02  0.34480864160E+02  0.25500000000E-02 0.  1.
<mgrwt>
<rscale>  0 0.72886259E+02</rscale>
<asrwt>0</asrwt>
<pdfrwt beam="2">  1        1 0.61673717E-02 0.72886259E+02</pdfrwt>
<pdfrwt beam="1">  1       -1 0.50968810E-02 0.72886259E+02</pdfrwt>
<totfact> 0.16865952E+05</totfact>
</mgrwt>
</event>
<event>
 4    1  0.2051373E-002  0.4469704E+02  0.7818608E-02  0.1476242E+00
          1   -1    0    0    0  501  0.00000000000E+00  0.00000000000E+00  0.12897351040E+03  0.12897351050E+03  0.50400000000E-02 0.  1.
         -1   -1    0    0  501    0 -0.00000000000E+00 -0.00000000000E+00 -0.38725473826E+01  0.38725506623E+01  0.50400000000E-02 0.  1.
          2    1    1    2    0  502 -0.12303049871E+02 -0.17931803070E+02  0.77862552073E+02  0.80842387516E+02  0.25500000000E-02 0.  1.
         -2    1    1    2  502    0  0.12303049871E+02  0.17931803070E+02  0.47238410941E+02  0.52003673641E+02  0.25500000000E-02 0.  1.
<mgrwt>
<rscale>  0 0.44697036E+02</rscale>
<asrwt>0</asrwt>
<pdfrwt beam="1">  1        1 0.19842076E-01 0.44697036E+02</pdfrwt>
<pdfrwt beam="2">  1       -1 0.59577687E-03 0.44697036E+02</pdfrwt>
<totfact> 0.69271584E+05</totfact>
</mgrwt>
</event>
<event>
 4    1  0.2051373E-002  0.5249437E+02  0.7818608E-02  0.1432334E+00
         -1   -1    0    0  501    0 -0.00000000000E+00  0.00000000000E+00  0.32264002297E+01  0.32264041662E+01  0.50400000000E-02 0.  1.
          1   -1    0    0    0  501  0.00000000000E+00 -0.00000000000E+00 -0.21352412756E+03  0.21352412762E+03  0.50400000000E-02 0.  1.
          2    1    1    2    0  502  0.13894931152E+02  0.21618166338E+02 -0.83105715011E+02  0.86988356126E+02  0.25500000000E-02 0. -1.
         -2    1    1    2  502    0 -0.13894931152E+02 -0.21618166338E+02 -0.12719201232E+03  0.12976217566E+03  0.25500000000E-02 0. -1.
<mgrwt>
<rscale>  0 0.52494370E+02</rscale>
<asrwt>0</asrwt>
<pdfrwt beam="2">  1        1 0.32849855E-01 0.52494370E+02</pdfrwt>
<pdfrwt beam="1">  1       -1 0.49636974E-03 0.52494370E+02</pdfrwt>
<totfact> 0.50313131E+05</totfact>
</mgrwt>
</event>
<event>
 4    1  0.2051373E-002  0.4127762E+02  0.7818608E-02  0.1499015E+00
          1   -1    0    0    0  501  0.00000000000E+00  0.00000000000E+00  0.30042110480E+03  0.30042110484E+03  0.50400000000E-02 0. -1.
         -1   -1    0    0  501    0 -0.00000000000E+00 -0.00000000000E+00 -0.14178731607E+01  0.14178821183E+01  0.50400000000E-02 0. -1.
          2    1    1    2    0  502 -0.17604710044E+02  0.10244053164E+02  0.12514575469E+03  0.12679245390E+03  0.25500000000E-02 0.  1.
         -2    1    1    2  502    0  0.17604710044E+02 -0.10244053164E+02  0.17385747694E+03  0.17504653306E+03  0.25500000000E-02 0.  1.
<mgrwt>
<rscale>  0 0.41277615E+02</rscale>
<asrwt>0</asrwt>
<pdfrwt beam="1">  1        1 0.46218562E-01 0.41277615E+02</pdfrwt>
<pdfrwt beam="2">  1       -1 0.21813536E-03 0.41277615E+02</pdfrwt>
<totfact> 0.96835894E+05</totfact>
</mgrwt>
</event>
<event>
 4    1  0.2051373E-002  0.5554989E+02  0.7818608E-02  0.1417516E+00
         -1   -1    0    0  501    0 -0.00000000000E+00  0.00000000000E+00  0.58306265890E+00  0.58308444140E+00  0.50400000000E-02 0.  1.
          1   -1    0    0    0  501  0.00000000000E+00 -0.00000000000E+00 -0.13230705476E+04  0.13230705476E+04  0.50400000000E-02 0.  1.
          2    1    1    2    0  502 -0.10862111936E+02 -0.22252404341E+02 -0.96103662416E+03  0.96135557832E+03  0.25500000000E-02 0. -1.
         -2    1    1    2  502    0  0.10862111936E+02  0.22252404341E+02 -0.36145086073E+03  0.36229805368E+03  0.25500000000E-02 0. -1.
<mgrwt>
<rscale>  0 0.55549886E+02</rscale>
<asrwt>0</asrwt>
<pdfrwt beam="2">  1        1 0.20354691E+00 0.55549886E+02</pdfrwt>
<pdfrwt beam="1">  1       -1 0.89704683E-04 0.55549886E+02</pdfrwt>
<totfact> 0.43416023E+05</totfact>
</mgrwt>
</event>
<event>
 4    1  0.2051373E-002  0.5509463E+02  0.7818608E-02  0.1419652E+00
         -1   -1    0    0  501    0 -0.00000000000E+00  0.00000000000E+00  0.12255954197E+03  0.12255954207E+03  0.50400000000E-02 0. -1.
          1   -1    0    0    0  501  0.00000000000E+00 -0.00000000000E+00 -0.61917193934E+01  0.61917214447E+01  0.50400000000E-02 0. -1.
          2    1    1    2    0  502 -0.27269037145E+02  0.16119266150E+01  0.49870373368E+02  0.56861699241E+02  0.25500000000E-02 0.  1.
         -2    1    1    2  502    0  0.27269037145E+02 -0.16119266150E+01  0.66497449210E+02  0.71889564279E+02  0.25500000000E-02 0.  1.
<mgrwt>
<rscale>  0 0.55094625E+02</rscale>
<asrwt>0</asrwt>
<pdfrwt beam="2">  1        1 0.95257241E-03 0.55094625E+02</pdfrwt>
<pdfrwt beam="1">  1       -1 0.18855314E-01 0.55094625E+02</pdfrwt>
<totfact> 0.28199375E+05</totfact>
</mgrwt>
</event>
<event>
 4    1  0.2051373E-002  0.7281680E+02  0.7818608E-02  0.1350768E+00
         -1   -1    0    0  501    0 -0.00000000000E+00  0.00000000000E+00  0.17919110771E+01  0.17919181650E+01  0.50400000000E-02 0. -1.
          1   -1    0    0    0  501  0.00000000000E+00 -0.00000000000E+00 -0.73975147493E+03  0.73975147494E+03  0.50400000000E-02 0. -1.
          2    1    1    2    0  502 -0.79568166775E+01 -0.32857688009E+02 -0.50660388447E+03  0.50773067109E+03  0.25500000000E-02 0. -1.
         -2    1    1    2  502    0  0.79568166775E+01  0.32857688009E+02 -0.23135567937E+03  0.23381272202E+03  0.25500000000E-02 0. -1.
<mgrwt>
<rscale>  0 0.72816797E+02</rscale>
<asrwt>0</asrwt>
<pdfrwt beam="2">  1        1 0.11380768E+00 0.72816797E+02</pdfrwt>
<pdfrwt beam="1">  1       -1 0.27567976E-03 0.72816797E+02</pdfrwt>
<totfact> 0.25563943E+05</totfact>
</mgrwt>
</event>
<event>
 4    1  0.2051373E-002  0.6202285E+02  0.7818608E-02  0.1389534E+00
         -1   -1    0    0  501    0 -0.00000000000E+00  0.00000000000E+00  0.16929829038E+03  0.16929829045E+03  0.50400000000E-02 0.  1.
          1   -1    0    0    0  501  0.00000000000E+00 -0.00000000000E+00 -0.56805550816E+01  0.56805573174E+01  0.50400000000E-02 0.  1.
          2    1    1    2    0  502 -0.23260280983E+02 -0.16065537755E+01  0.13949441943E+03  0.14142953986E+03  0.25500000000E-02 0. -1.
         -2    1    1    2  502    0  0.23260280983E+02  0.16065537755E+01  0.24123315872E+02  0.33549307916E+02  0.25500000000E-02 0. -1.
<mgrwt>
<rscale>  0 0.62022850E+02</rscale>
<asrwt>0</asrwt>
<pdfrwt beam="2">  1        1 0.87393173E-03 0.62022850E+02</pdfrwt>
<pdfrwt beam="1">  1       -1 0.26045891E-01 0.62022850E+02</pdfrwt>
<totfact> 0.19519841E+05</totfact>
</mgrwt>
</event>
<event>
 4    1  0.2051373E-002  0.8141226E+02  0.7818608E-02  0.1325091E+00
          1   -1    0    0    0  501  0.00000000000E+00  0.00000000000E+00  0.85610513072E+03  0.85610513074E+03  0.50400000000E-02 0.  1.
         -1   -1    0    0  501    0 -0.00000000000E+00 -0.00000000000E+00 -0.19354939929E+01  0.19355005550E+01  0.50400000000E-02 0.  1.
          2    1    1    2    0  502 -0.31403632670E+02  0.25703639352E+02  0.46061938030E+03  0.46240358859E+03  0.25500000000E-02 0. -1.
         -2    1    1    2  502    0  0.31403632670E+02 -0.25703639352E+02  0.39355025643E+03  0.39563704271E+03  0.25500000000E-02 0. -1.
<mgrwt>
<rscale>  0 0.81412263E+02</rscale>
<asrwt>0</asrwt>
<pdfrwt beam="1">  1        1 0.13170836E+00 0.81412263E+02</pdfrwt>
<pdfrwt beam="2">  1       -1 0.29776908E-03 0.81412263E+02</pdfrwt>
<totfact> 0.18889742E+05</totfact>
</mgrwt>
</event>
<event>
 4    1  0.2051373E-002  0.4622848E+02  0.7818608E-02  0.1466815E+00
          1   -1    0    0    0  501  0.00000000000E+00  0.00000000000E+00  0.27181809865E+03  0.27181809870E+03  0.50400000000E-02 0.  1.
         -1   -1    0    0  501    0 -0.00000000000E+00 -0.00000000000E+00 -0.19655317816E+01  0.19655382433E+01  0.50400000000E-02 0.  1.
          2    1    1    2    0  502  0.20775859898E+02  0.57098591964E+01  0.18448697256E+03  0.18574089991E+03  0.25500000000E-02 0. -1.
         -2    1    1    2  502    0 -0.20775859898E+02 -0.57098591964E+01  0.85365594306E+02  0.88042737033E+02  0.25500000000E-02 0. -1.
<mgrwt>
<rscale>  0 0.46228476E+02</rscale>
<asrwt>0</asrwt>
<pdfrwt beam="1">  1        1 0.41818135E-01 0.46228476E+02</pdfrwt>
<pdfrwt beam="2">  1       -1 0.30239026E-03 0.46228476E+02</pdfrwt>
<totfact> 0.72079292E+05</totfact>
</mgrwt>
</event>
<event>
 4    1  0.2051373E-002  0.6023989E+02  0.7818608E-02  0.1396828E+00
          1   -1    0    0    0  501  0.00000000000E+00  0.00000000000E+00  0.25293123180E+03  0.25293123185E+03  0.50400000000E-02 0.  1.
         -1   -1    0    0  501    0 -0.00000000000E+00 -0.00000000000E+00 -0.35867878348E+01  0.35867913758E+01  0.50400000000E-02 0.  1.
          2    1    1    2    0  502 -0.10632925670E+02 -0.27715716751E+02  0.14638151436E+03  0.14936119917E+03  0.25500000000E-02 0.  1.
         -2    1    1    2  502    0  0.10632925670E+02  0.27715716751E+02  0.10296292960E+03  0.10715682406E+03  0.25500000000E-02 0.  1.
<mgrwt>
<rscale>  0 0.60239891E+02</rscale>
<asrwt>0</asrwt>
<pdfrwt beam="1">  1        1 0.38912503E-01 0.60239891E+02</pdfrwt>
<pdfrwt beam="2">  1       -1 0.55181371E-03 0.60239891E+02</pdfrwt>
<totfact> 0.36586675E+05</totfact>
</mgrwt>
</event>
<event>
 4    1  0.2051373E-002  0.4345111E+02  0.7818608E-02  0.1484249E+00
          1   -1    0    0    0  501  0.00000000000E+00  0.00000000000E+00  0.27687033444E+01  0.27687079317E+01  0.50400000000E-02 0. -1.
         -1   -1    0    0  501    0 -0.00000000000E+00 -0.00000000000E+00 -0.17047670155E+03  0.17047670163E+03  0.50400000000E-02 0. -1.
          2    1    1    2    0  502 -0.18857817143E+02  0.93209886535E+01 -0.10551030865E+03  0.10758681767E+03  0.25500000000E-02 0.  1.
         -2    1    1    2  502    0  0.18857817143E+02 -0.93209886535E+01 -0.62197689556E+02  0.65658591894E+02  0.25500000000E-02 0.  1.
<mgrwt>
<rscale>  0 0.43451114E+02</rscale>
<asrwt>0</asrwt>
<pdfrwt beam="1">  1        1 0.42595485E-03 0.43451114E+02</pdfrwt>
<pdfrwt beam="2">  1       -1 0.26227177E-01 0.43451114E+02</pdfrwt>
<totfact> 0.47202839E+05</totfact>
</mgrwt>
</event>
<event>
 4    1  0.2051373E-002  0.5622574E+02  0.7818608E-02  0.1414390E+00
          1   -1    0    0    0  501  0.00000000000E+00  0.00000000000E+00  0.44921952417E+02  0.44921952700E+02  0.50400000000E-02 0.  1.
         -1   -1    0    0  501    0 -0.00000000000E+00 -0.00000000000E+00 -0.17593477097E+02  0.17593477819E+02  0.50400000000E-02 0.  1.
          2    1    1    2    0  502  0.23232756869E+02  0.60450181790E+01  0.29930565735E+02  0.38368502815E+02  0.25500000000E-02 0.  1.
         -2    1    1    2  502    0 -0.23232756869E+02 -0.60450181790E+01 -0.26020904142E+01  0.24146927704E+02  0.25500000000E-02 0.  1.
<mgrwt>
<rscale>  0 0.56225737E+02</rscale>
<asrwt>0</asrwt>
<pdfrwt beam="1">  1        1 0.69110696E-02 0.56225737E+02</pdfrwt>
<pdfrwt beam="2">  1       -1 0.27066889E-02 0.56225737E+02</pdfrwt>
<totfact> 0.34076794E+05</totfact>
</mgrwt>
</event>
<event>
 4    1  0.2051373E-002  0.1239515E+03  0.7818608E-02  0.1236717E+00
         -1   -1    0    0  501    0 -0.00000000000E+00  0.00000000000E+00  0.27961222620E+02  0.27961223074E+02  0.50400000000E-02 0. -1.
          1   -1    0    0    0  501  0.00000000000E+00 -0.00000000000E+00 -0.13736847443E+03  0.13736847453E+03  0.50400000000E-02 0. -1.
          2    1    1    2    0  502 -0.60297976561E+02  0.94624152361E+01 -0.69045034178E+02  0.92155303866E+02  0.25500000000E-02 0.  1.
         -2    1    1    2  502    0  0.60297976561E+02 -0.94624152361E+01 -0.40362217636E+02  0.73174393734E+02  0.25500000000E-02 0.  1.
<mgrwt>
<rscale>  0 0.12395145E+03</rscale>
<asrwt>0</asrwt>
<pdfrwt beam="2">  1        1 0.21133611E-01 0.12395145E+03</pdfrwt>
<pdfrwt beam="1">  1       -1 0.43017267E-02 0.12395145E+03</pdfrwt>
<totfact> 0.47323650E+04</totfact>
</mgrwt>
</event>
<event>
 4    1  0.2051373E-002  0.5564144E+02  0.7818608E-02  0.1417090E+00
         -1   -1    0    0  501    0 -0.00000000000E+00  0.00000000000E+00  0.47359286204E+03  0.47359286207E+03  0.50400000000E-02 0. -1.
          1   -1    0    0    0  501  0.00000000000E+00 -0.00000000000E+00 -0.16342954812E+01  0.16343032526E+01  0.50400000000E-02 0. -1.
          2    1    1    2    0  502 -0.27294325324E+02  0.29634584581E+01  0.19756405708E+03  0.19946257528E+03  0.25500000000E-02 0. -1.
         -2    1    1    2  502    0  0.27294325324E+02 -0.29634584581E+01  0.27439450948E+03  0.27576459004E+03  0.25500000000E-02 0. -1.
<mgrwt>
<rscale>  0 0.55641442E+02</rscale>
<asrwt>0</asrwt>
<pdfrwt beam="2">  1        1 0.25143044E-03 0.55641442E+02</pdfrwt>
<pdfrwt beam="1">  1       -1 0.72860510E-01 0.55641442E+02</pdfrwt>
<totfact> 0.17266824E+05</totfact>
</mgrwt>
</event>
<event>
 4    1  0.2051373E-002  0.5518985E+02  0.7818608E-02  0.1419203E+00
          1   -1    0    0    0  501  0.00000000000E+00  0.00000000000E+00  0.20631462789E+03  0.20631462796E+03  0.50400000000E-02 0. -1.
         -1   -1    0    0  501    0 -0.00000000000E+00 -0.00000000000E+00 -0.36908649465E+01  0.36908683877E+01  0.50400000000E-02 0. -1.
          2    1    1    2    0  502 -0.12568964304E+02 -0.15864909202E+02  0.29940708209E+02  0.36140285309E+02  0.25500000000E-02 0. -1.
         -2    1    1    2  502    0  0.12568964304E+02  0.15864909202E+02  0.17268305474E+03  0.17386521103E+03  0.25500000000E-02 0. -1.
<mgrwt>
<rscale>  0 0.55189847E+02</rscale>
<asrwt>0</asrwt>
<pdfrwt beam="1">  1        1 0.31740717E-01 0.55189847E+02</pdfrwt>
<pdfrwt beam="2">  1       -1 0.56782557E-03 0.55189847E+02</pdfrwt>
<totfact> 0.44068954E+05</totfact>
</mgrwt>
</event>
<event>
 4    1  0.2051373E-002  0.4424501E+02  0.7818608E-02  0.1479111E+00
         -1   -1    0    0  501    0 -0.00000000000E+00  0.00000000000E+00  0.36847271171E+01  0.36847305640E+01  0.50400000000E-02 0.  1.
          1   -1    0    0    0  501  0.00000000000E+00 -0.00000000000E+00 -0.13281987230E+03  0.13281987239E+03  0.50400000000E-02 0.  1.
          2    1    1    2    0  502  0.19807080988E+01 -0.21303839475E+02 -0.81918467575E+02  0.84666475758E+02  0.25500000000E-02 0. -1.
         -2    1    1    2  502    0 -0.19807080988E+01  0.21303839475E+02 -0.47216677608E+02  0.51838127201E+02  0.25500000000E-02 0. -1.
<mgrwt>
<rscale>  0 0.44245010E+02</rscale>
<asrwt>0</asrwt>
<pdfrwt beam="2">  1        1 0.20433823E-01 0.44245010E+02</pdfrwt>
<pdfrwt beam="1">  1       -1 0.56688147E-03 0.44245010E+02</pdfrwt>
<totfact> 0.71349122E+05</totfact>
</mgrwt>
</event>
<event>
 4    1  0.2051373E-002  0.4298404E+02  0.7818608E-02  0.1487334E+00
          1   -1    0    0    0  501  0.00000000000E+00  0.00000000000E+00  0.19003681099E+04  0.19003681099E+04  0.50400000000E-02 0.  1.
         -1   -1    0    0  501    0 -0.00000000000E+00 -0.00000000000E+00 -0.24303568556E+00  0.24308793894E+00  0.50400000000E-02 0.  1.
          2    1    1    2    0  502  0.20602576760E+02 -0.59855420257E+01  0.89388751466E+03  0.89414494449E+03  0.25500000000E-02 0. -1.
         -2    1    1    2  502    0 -0.20602576760E+02  0.59855420257E+01  0.10062375595E+04  0.10064662533E+04  0.25500000000E-02 0. -1.
<mgrwt>
<rscale>  0 0.42984040E+02</rscale>
<asrwt>0</asrwt>
<pdfrwt beam="1">  1        1 0.29236819E+00 0.42984040E+02</pdfrwt>
<pdfrwt beam="2">  1       -1 0.37393631E-04 0.42984040E+02</pdfrwt>
<totfact> 0.58886453E+05</totfact>
</mgrwt>
</event>
<event>
 4    1  0.2051373E-002  0.6350558E+02  0.7818608E-02  0.1383683E+00
          1   -1    0    0    0  501  0.00000000000E+00  0.00000000000E+00  0.38558346392E+03  0.38558346395E+03  0.50400000000E-02 0. -1.
         -1   -1    0    0  501    0 -0.00000000000E+00 -0.00000000000E+00 -0.26148393294E+01  0.26148441866E+01  0.50400000000E-02 0. -1.
          2    1    1    2    0  502  0.30375270531E+02 -0.57016722481E+01  0.14695139976E+03  0.15016617470E+03  0.25500000000E-02 0. -1.
         -2    1    1    2  502    0 -0.30375270531E+02  0.57016722481E+01  0.23601722483E+03  0.23803213344E+03  0.25500000000E-02 0. -1.
<mgrwt>
<rscale>  0 0.63505583E+02</rscale>
<asrwt>0</asrwt>
<pdfrwt beam="1">  1        1 0.59320558E-01 0.63505583E+02</pdfrwt>
<pdfrwt beam="2">  1       -1 0.40228318E-03 0.63505583E+02</pdfrwt>
<totfact> 0.34421028E+05</totfact>
</mgrwt>
</event>
<event>
 4    1  0.2051373E-002  0.5620237E+02  0.7818608E-02  0.1414497E+00
         -1   -1    0    0  501    0 -0.00000000000E+00  0.00000000000E+00  0.14613760460E+01  0.14613847370E+01  0.50400000000E-02 0. -1.
          1   -1    0    0    0  501  0.00000000000E+00 -0.00000000000E+00 -0.54036342266E+03  0.54036342268E+03  0.50400000000E-02 0. -1.
          2    1    1    2    0  502  0.66808344125E+01 -0.23216681399E+02 -0.40782936084E+03  0.40854428819E+03  0.25500000000E-02 0. -1.
         -2    1    1    2  502    0 -0.66808344125E+01  0.23216681399E+02 -0.13107268578E+03  0.13328051923E+03  0.25500000000E-02 0. -1.
<mgrwt>
<rscale>  0 0.56202367E+02</rscale>
<asrwt>0</asrwt>
<pdfrwt beam="2">  1        1 0.83132676E-01 0.56202367E+02</pdfrwt>
<pdfrwt beam="1">  1       -1 0.22482819E-03 0.56202367E+02</pdfrwt>
<totfact> 0.49016362E+05</totfact>
</mgrwt>
</event>
<event>
 4    1  0.2051373E-002  0.7167382E+02  0.7818608E-02  0.1354492E+00
         -1   -1    0    0  501    0 -0.00000000000E+00  0.00000000000E+00  0.46485936999E+01  0.46485964320E+01  0.50400000000E-02 0.  1.
          1   -1    0    0    0  501  0.00000000000E+00 -0.00000000000E+00 -0.27627357274E+03  0.27627357279E+03  0.50400000000E-02 0.  1.
          2    1    1    2    0  502 -0.28113745103E+02 -0.21213593021E+02 -0.16177713828E+03  0.16556642676E+03  0.25500000000E-02 0.  1.
         -2    1    1    2  502    0  0.28113745103E+02  0.21213593021E+02 -0.10984784076E+03  0.11535574246E+03  0.25500000000E-02 0.  1.
<mgrwt>
<rscale>  0 0.71673816E+02</rscale>
<asrwt>0</asrwt>
<pdfrwt beam="2">  1        1 0.42503614E-01 0.71673816E+02</pdfrwt>
<pdfrwt beam="1">  1       -1 0.71516869E-03 0.71673816E+02</pdfrwt>
<totfact> 0.23766190E+05</totfact>
</mgrwt>
</event>
<event>
 4    1  0.2051373E-002  0.8462394E+02  0.7818608E-02  0.1316419E+00
         -1   -1    0    0  501    0 -0.00000000000E+00  0.00000000000E+00  0.83970250227E+00  0.83971762749E+00  0.50400000000E-02 0. -1.
          1   -1    0    0    0  501  0.00000000000E+00 -0.00000000000E+00 -0.21320489558E+04  0.21320489558E+04  0.50400000000E-02 0. -1.
          2    1    1    2    0  502 -0.38726993067E+02  0.14906440617E+02 -0.12739347457E+04  0.12746104182E+04  0.25500000000E-02 0.  1.
         -2    1    1    2  502    0  0.38726993067E+02 -0.14906440617E+02 -0.85727450765E+03  0.85827825525E+03  0.25500000000E-02 0.  1.
<mgrwt>
<rscale>  0 0.84623944E+02</rscale>
<asrwt>0</asrwt>
<pdfrwt beam="2">  1        1 0.32800320E+00 0.84623944E+02</pdfrwt>
<pdfrwt beam="1">  1       -1 0.12918787E-03 0.84623944E+02</pdfrwt>
<totfact> 0.87700991E+04</totfact>
</mgrwt>
</event>
<event>
 4    1  0.2051373E-002  0.4764132E+02  0.7818608E-02  0.1458495E+00
          1   -1    0    0    0  501  0.00000000000E+00  0.00000000000E+00  0.16045691968E+02  0.16045692759E+02  0.50400000000E-02 0. -1.
         -1   -1    0    0  501    0 -0.00000000000E+00 -0.00000000000E+00 -0.35363000251E+02  0.35363000611E+02  0.50400000000E-02 0. -1.
          2    1    1    2    0  502  0.20954925520E+02  0.37674693069E+01 -0.21186170915E+02  0.30035921379E+02  0.25500000000E-02 0. -1.
         -2    1    1    2  502    0 -0.20954925520E+02 -0.37674693069E+01  0.18688626314E+01  0.21372771991E+02  0.25500000000E-02 0. -1.
<mgrwt>
<rscale>  0 0.47641320E+02</rscale>
<asrwt>0</asrwt>
<pdfrwt beam="1">  1        1 0.24685681E-02 0.47641320E+02</pdfrwt>
<pdfrwt beam="2">  1       -1 0.54404616E-02 0.47641320E+02</pdfrwt>
<totfact> 0.47647751E+05</totfact>
</mgrwt>
</event>
<event>
 4    1  0.2051373E-002  0.4527451E+02  0.7818608E-02  0.1472635E+00
         -1   -1    0    0  501    0 -0.00000000000E+00  0.00000000000E+00  0.95942798709E+02  0.95942798841E+02  0.50400000000E-02 0.  1.
          1   -1    0    0    0  501  0.00000000000E+00 -0.00000000000E+00 -0.53411538622E+01  0.53411562401E+01  0.50400000000E-02 0.  1.
          2    1    1    2    0  502 -0.20618930830E+02 -0.56257099807E+01  0.61990371924E+02  0.65571298136E+02  0.25500000000E-02 0. -1.
         -2    1    1    2  502    0  0.20618930830E+02  0.56257099807E+01  0.28611272922E+02  0.35712656946E+02  0.25500000000E-02 0. -1.
<mgrwt>
<rscale>  0 0.45274513E+02</rscale>
<asrwt>0</asrwt>
<pdfrwt beam="2">  1        1 0.82171610E-03 0.45274513E+02</pdfrwt>
<pdfrwt beam="1">  1       -1 0.14760432E-01 0.45274513E+02</pdfrwt>
<totfact> 0.47842283E+05</totfact>
</mgrwt>
</event>
<event>
 4    1  0.2051373E-002  0.8543052E+02  0.7818608E-02  0.1314310E+00
          1   -1    0    0    0  501  0.00000000000E+00  0.00000000000E+00  0.26227995316E+01  0.26228043741E+01  0.50400000000E-02 0. -1.
         -1   -1    0    0  501    0 -0.00000000000E+00 -0.00000000000E+00 -0.69566576737E+03  0.69566576739E+03  0.50400000000E-02 0. -1.
          2    1    1    2    0  502  0.48978228808E+01 -0.42326295386E+02 -0.37116450809E+03  0.37360218953E+03  0.25500000000E-02 0.  1.
         -2    1    1    2  502    0 -0.48978228808E+01  0.42326295386E+02 -0.32187845975E+03  0.32468638223E+03  0.25500000000E-02 0.  1.
<mgrwt>
<rscale>  0 0.85430523E+02</rscale>
<asrwt>0</asrwt>
<pdfrwt beam="1">  1        1 0.40350855E-03 0.85430523E+02</pdfrwt>
<pdfrwt beam="2">  1       -1 0.10702536E+00 0.85430523E+02</pdfrwt>
<totfact> 0.43926358E+04</totfact>
</mgrwt>
</event>
<event>
 4    1  0.2051373E-002  0.5821909E+02  0.7818608E-02  0.1405461E+00
         -1   -1    0    0  501    0 -0.00000000000E+00  0.00000000000E+00  0.67666551546E+02  0.67666551734E+02  0.50400000000E-02 0. -1.
          1   -1    0    0    0  501  0.00000000000E+00 -0.00000000000E+00 -0.12522664852E+02  0.12522665866E+02  0.50400000000E-02 0. -1.
          2    1    1    2    0  502 -0.15874633807E+02 -0.24325455419E+02  0.24946325066E+02  0.38289044394E+02  0.25500000000E-02 0. -1.
         -2    1    1    2  502    0  0.15874633807E+02  0.24325455419E+02  0.30197561628E+02  0.41900173205E+02  0.25500000000E-02 0. -1.
<mgrwt>
<rscale>  0 0.58219089E+02</rscale>
<asrwt>0</asrwt>
<pdfrwt beam="2">  1        1 0.19265639E-02 0.58219089E+02</pdfrwt>
<pdfrwt beam="1">  1       -1 0.10410239E-01 0.58219089E+02</pdfrwt>
<totfact> 0.27018238E+05</totfact>
</mgrwt>
</event>
<event>
 4    1  0.2051373E-002  0.9305083E+02  0.7818608E-02  0.1295627E+00
         -1   -1    0    0  501    0 -0.00000000000E+00  0.00000000000E+00  0.51530305331E+01  0.51530329979E+01  0.50400000000E-02 0.  1.
          1   -1    0    0    0  501  0.00000000000E+00 -0.00000000000E+00 -0.42006615930E+03  0.42006615933E+03  0.50400000000E-02 0.  1.
          2    1    1    2    0  502 -0.28914578395E+02 -0.36447796933E+02 -0.20903642804E+03  0.21415116857E+03  0.25500000000E-02 0.  1.
         -2    1    1    2  502    0  0.28914578395E+02  0.36447796933E+02 -0.20587670072E+03  0.21106802376E+03  0.25500000000E-02 0.  1.
<mgrwt>
<rscale>  0 0.93050831E+02</rscale>
<asrwt>0</asrwt>
<pdfrwt beam="2">  1        1 0.64625536E-01 0.93050831E+02</pdfrwt>
<pdfrwt beam="1">  1       -1 0.79277445E-03 0.93050831E+02</pdfrwt>
<totfact> 0.12879482E+05</totfact>
</mgrwt>
</event>
<event>
 4    1  0.2051373E-002  0.4109496E+02  0.7818608E-02  0.1500305E+00
          1   -1    0    0    0  501  0.00000000000E+00  0.00000000000E+00  0.14319237826E+01  0.14319326524E+01  0.50400000000E-02 0. -1.
         -1   -1    0    0  501    0 -0.00000000000E+00 -0.00000000000E+00 -0.29484643799E+03  0.29484643804E+03  0.50400000000E-02 0. -1.
          2    1    1    2    0  502  0.51767040710E+01 -0.19796119313E+02 -0.16022278466E+03  0.16152407045E+03  0.25500000000E-02 0. -1.
         -2    1    1    2  502    0 -0.51767040710E+01  0.19796119313E+02 -0.13319172955E+03  0.13475430024E+03  0.25500000000E-02 0. -1.
<mgrwt>
<rscale>  0 0.41094961E+02</rscale>
<asrwt>0</asrwt>
<pdfrwt beam="1">  1        1 0.22029689E-03 0.41094961E+02</pdfrwt>
<pdfrwt beam="2">  1       -1 0.45360943E-01 0.41094961E+02</pdfrwt>
<totfact> 0.45667620E+05</totfact>
</mgrwt>
</event>
<event>
 4    1  0.2051373E-002  0.4877815E+02  0.7818608E-02  0.1452045E+00
          1   -1    0    0    0  501  0.00000000000E+00  0.00000000000E+00  0.62037690895E+00  0.62039738132E+00  0.50400000000E-02 0.  1.
         -1   -1    0    0  501    0 -0.00000000000E+00 -0.00000000000E+00 -0.95879963410E+03  0.95879963411E+03  0.50400000000E-02 0.  1.
          2    1    1    2    0  502  0.17367577647E+01  0.23485843158E+02 -0.35434096659E+03  0.35512268551E+03  0.25500000000E-02 0.  1.
         -2    1    1    2  502    0 -0.17367577647E+01 -0.23485843158E+02 -0.60383829060E+03  0.60429734598E+03  0.25500000000E-02 0.  1.
<mgrwt>
<rscale>  0 0.48778150E+02</rscale>
<asrwt>0</asrwt>
<pdfrwt beam="1">  1        1 0.95444944E-04 0.48778150E+02</pdfrwt>
<pdfrwt beam="2">  1       -1 0.14750645E+00 0.48778150E+02</pdfrwt>
<totfact> 0.13313133E+05</totfact>
</mgrwt>
</event>
<event>
 4    1  0.2051373E-002  0.4168348E+02  0.7818608E-02  0.1496176E+00
         -1   -1    0    0  501    0 -0.00000000000E+00  0.00000000000E+00  0.54636005104E+00  0.54638329676E+00  0.50400000000E-02 0. -1.
          1   -1    0    0    0  501  0.00000000000E+00 -0.00000000000E+00 -0.79502316508E+03  0.79502316509E+03  0.50400000000E-02 0. -1.
          2    1    1    2    0  502 -0.75855349832E+01 -0.19392982884E+02 -0.38070927637E+03  0.38127835140E+03  0.25500000000E-02 0.  1.
         -2    1    1    2  502    0  0.75855349832E+01  0.19392982884E+02 -0.41376752865E+03  0.41429119699E+03  0.25500000000E-02 0.  1.
<mgrwt>
<rscale>  0 0.41683481E+02</rscale>
<asrwt>0</asrwt>
<pdfrwt beam="2">  1        1 0.12231033E+00 0.41683481E+02</pdfrwt>
<pdfrwt beam="1">  1       -1 0.84057818E-04 0.41683481E+02</pdfrwt>
<totfact> 0.10305368E+06</totfact>
</mgrwt>
</event>
<event>
 4    1  0.2051373E-002  0.4097670E+02  0.7818608E-02  0.1501145E+00
          1   -1    0    0    0  501  0.00000000000E+00  0.00000000000E+00  0.35116142983E+02  0.35116143344E+02  0.50400000000E-02 0.  1.
         -1   -1    0    0  501    0 -0.00000000000E+00 -0.00000000000E+00 -0.11953833019E+02  0.11953834081E+02  0.50400000000E-02 0.  1.
          2    1    1    2    0  502 -0.16297772832E+02 -0.12028433818E+02  0.80458578269E+01  0.21795331016E+02  0.25500000000E-02 0.  1.
         -2    1    1    2  502    0  0.16297772832E+02  0.12028433818E+02  0.15116452137E+02  0.25274646410E+02  0.25500000000E-02 0.  1.
<mgrwt>
<rscale>  0 0.40976703E+02</rscale>
<asrwt>0</asrwt>
<pdfrwt beam="1">  1        1 0.54024836E-02 0.40976703E+02</pdfrwt>
<pdfrwt beam="2">  1       -1 0.18390514E-02 0.40976703E+02</pdfrwt>
<totfact> 0.74716369E+05</totfact>
</mgrwt>
</event>
<event>
 4    1  0.2051373E-002  0.6879900E+02  0.7818608E-02  0.1364225E+00
          1   -1    0    0    0  501  0.00000000000E+00  0.00000000000E+00  0.17135701666E+03  0.17135701673E+03  0.50400000000E-02 0. -1.
         -1   -1    0    0  501    0 -0.00000000000E+00 -0.00000000000E+00 -0.69056140868E+01  0.69056159260E+01  0.50400000000E-02 0. -1.
          2    1    1    2    0  502 -0.31247678648E+01 -0.28398977868E+02  0.13186737430E+03  0.13492690810E+03  0.25500000000E-02 0. -1.
         -2    1    1    2  502    0  0.31247678648E+01  0.28398977868E+02  0.32584028273E+02  0.43335724560E+02  0.25500000000E-02 0. -1.
<mgrwt>
<rscale>  0 0.68799000E+02</rscale>
<asrwt>0</asrwt>
<pdfrwt beam="1">  1        1 0.26362615E-01 0.68799000E+02</pdfrwt>
<pdfrwt beam="2">  1       -1 0.10624024E-02 0.68799000E+02</pdfrwt>
<totfact> 0.24216338E+05</totfact>
</mgrwt>
</event>
<event>
 4    1  0.2051373E-002  0.4560142E+02  0.7818608E-02  0.1470622E+00
         -1   -1    0    0  501    0 -0.00000000000E+00  0.00000000000E+00  0.33024451414E+02  0.33024451799E+02  0.50400000000E-02 0.  1.
          1   -1    0    0    0  501  0.00000000000E+00 -0.00000000000E+00 -0.15742045302E+02  0.15742046109E+02  0.50400000000E-02 0.  1.
          2    1    1    2    0  502  0.13533470318E+02 -0.15173031670E+02  0.19677193094E+02  0.28294304081E+02  0.25500000000E-02 0.  1.
         -2    1    1    2  502    0 -0.13533470318E+02  0.15173031670E+02 -0.23947869813E+01  0.20472193827E+02  0.25500000000E-02 0.  1.
<mgrwt>
<rscale>  0 0.45601423E+02</rscale>
<asrwt>0</asrwt>
<pdfrwt beam="2">  1        1 0.24218532E-02 0.45601423E+02</pdfrwt>
<pdfrwt beam="1">  1       -1 0.50806849E-02 0.45601423E+02</pdfrwt>
<totfact> 0.53329238E+05</totfact>
</mgrwt>
</event>
<event>
 4    1  0.2051373E-002  0.1422988E+03  0.7818608E-02  0.1210269E+00
         -1   -1    0    0  501    0 -0.00000000000E+00  0.00000000000E+00  0.50508834891E+01  0.50508860036E+01  0.50400000000E-02 0. -1.
          1   -1    0    0    0  501  0.00000000000E+00 -0.00000000000E+00 -0.10022472996E+04  0.10022472996E+04  0.50400000000E-02 0. -1.
          2    1    1    2    0  502 -0.23841712273E+02 -0.66633732040E+02 -0.55049765539E+03  0.55502806243E+03  0.25500000000E-02 0. -1.
         -2    1    1    2  502    0  0.23841712273E+02  0.66633732040E+02 -0.44669876072E+03  0.45227012319E+03  0.25500000000E-02 0. -1.
<mgrwt>
<rscale>  0 0.14229878E+03</rscale>
<asrwt>0</asrwt>
<pdfrwt beam="2">  1        1 0.15419173E+00 0.14229878E+03</pdfrwt>
<pdfrwt beam="1">  1       -1 0.77705999E-03 0.14229878E+03</pdfrwt>
<totfact> 0.40891775E+04</totfact>
</mgrwt>
</event>
<event>
 4    1  0.2051373E-002  0.4563982E+02  0.7818608E-02  0.1470386E+00
          1   -1    0    0    0  501  0.00000000000E+00  0.00000000000E+00  0.20580526120E+02  0.20580526738E+02  0.50400000000E-02 0. -1.
         -1   -1    0    0  501    0 -0.00000000000E+00 -0.00000000000E+00 -0.25302965648E+02  0.25302966150E+02  0.50400000000E-02 0. -1.
          2    1    1    2    0  502 -0.19870225889E+02  0.58862478198E+01 -0.11965999806E+02  0.23930293524E+02  0.25500000000E-02 0. -1.
         -2    1    1    2  502    0  0.19870225889E+02 -0.58862478198E+01  0.72435602788E+01  0.21953199363E+02  0.25500000000E-02 0. -1.
<mgrwt>
<rscale>  0 0.45639823E+02</rscale>
<asrwt>0</asrwt>
<pdfrwt beam="1">  1        1 0.31662349E-02 0.45639823E+02</pdfrwt>
<pdfrwt beam="2">  1       -1 0.38927640E-02 0.45639823E+02</pdfrwt>
<totfact> 0.54467470E+05</totfact>
</mgrwt>
</event>
<event>
 4    1  0.2051373E-002  0.4826718E+02  0.7818608E-02  0.1454918E+00
          1   -1    0    0    0  501  0.00000000000E+00  0.00000000000E+00  0.16180377383E+03  0.16180377391E+03  0.50400000000E-02 0. -1.
         -1   -1    0    0  501    0 -0.00000000000E+00 -0.00000000000E+00 -0.35996064398E+01  0.35996099682E+01  0.50400000000E-02 0. -1.
          2    1    1    2    0  502 -0.58848248011E+01  0.21584143262E+02  0.11011891875E+03  0.11236851283E+03  0.25500000000E-02 0. -1.
         -2    1    1    2  502    0  0.58848248011E+01 -0.21584143262E+02  0.48085248642E+02  0.53034871045E+02  0.25500000000E-02 0. -1.
<mgrwt>
<rscale>  0 0.48267182E+02</rscale>
<asrwt>0</asrwt>
<pdfrwt beam="1">  1        1 0.24892892E-01 0.48267182E+02</pdfrwt>
<pdfrwt beam="2">  1       -1 0.55378581E-03 0.48267182E+02</pdfrwt>
<totfact> 0.59245016E+05</totfact>
</mgrwt>
</event>
<event>
 4    1  0.2051373E-002  0.8118458E+02  0.7818608E-02  0.1325723E+00
          1   -1    0    0    0  501  0.00000000000E+00  0.00000000000E+00  0.49533386915E+03  0.49533386917E+03  0.50400000000E-02 0. -1.
         -1   -1    0    0  501    0 -0.00000000000E+00 -0.00000000000E+00 -0.33265103251E+01  0.33265141432E+01  0.50400000000E-02 0. -1.
          2    1    1    2    0  502 -0.28904509910E+02  0.35177684362E+01  0.72285167402E+02  0.77929396384E+02  0.25500000000E-02 0.  1.
         -2    1    1    2  502    0  0.28904509910E+02 -0.35177684362E+01  0.41972219142E+03  0.42073098693E+03  0.25500000000E-02 0.  1.
<mgrwt>
<rscale>  0 0.81184584E+02</rscale>
<asrwt>0</asrwt>
<pdfrwt beam="1">  1        1 0.76205227E-01 0.81184584E+02</pdfrwt>
<pdfrwt beam="2">  1       -1 0.51177101E-03 0.81184584E+02</pdfrwt>
<totfact> 0.18886839E+05</totfact>
</mgrwt>
</event>
<event>
 4    1  0.2051373E-002  0.4198204E+02  0.7818608E-02  0.1494112E+00
          1   -1    0    0    0  501  0.00000000000E+00  0.00000000000E+00  0.25912335976E+01  0.25912384990E+01  0.50400000000E-02 0. -1.
         -1   -1    0    0  501    0 -0.00000000000E+00 -0.00000000000E+00 -0.17004349845E+03  0.17004349853E+03  0.50400000000E-02 0. -1.
          2    1    1    2    0  502 -0.67560644795E+01 -0.18828282517E+02 -0.10988710724E+03  0.11169299429E+03  0.25500000000E-02 0.  1.
         -2    1    1    2  502    0  0.67560644795E+01  0.18828282517E+02 -0.57565157616E+02  0.60941742735E+02  0.25500000000E-02 0.  1.
<mgrwt>
<rscale>  0 0.41982037E+02</rscale>
<asrwt>0</asrwt>
<pdfrwt beam="1">  1        1 0.39865184E-03 0.41982037E+02</pdfrwt>
<pdfrwt beam="2">  1       -1 0.26160530E-01 0.41982037E+02</pdfrwt>
<totfact> 0.51359105E+05</totfact>
</mgrwt>
</event>
<event>
 4    1  0.2051373E-002  0.6384651E+02  0.7818608E-02  0.1382364E+00
         -1   -1    0    0  501    0 -0.00000000000E+00  0.00000000000E+00  0.62576323823E+03  0.62576323825E+03  0.50400000000E-02 0.  1.
          1   -1    0    0    0  501  0.00000000000E+00 -0.00000000000E+00 -0.16285579608E+01  0.16285657596E+01  0.50400000000E-02 0.  1.
          2    1    1    2    0  502  0.77024151201E+01  0.24159578666E+02  0.50263218949E+03  0.50327142812E+03  0.25500000000E-02 0. -1.
         -2    1    1    2  502    0 -0.77024151201E+01 -0.24159578666E+02  0.12150249078E+03  0.12412037589E+03  0.25500000000E-02 0. -1.
<mgrwt>
<rscale>  0 0.63846508E+02</rscale>
<asrwt>0</asrwt>
<pdfrwt beam="2">  1        1 0.25054799E-03 0.63846508E+02</pdfrwt>
<pdfrwt beam="1">  1       -1 0.96271263E-01 0.63846508E+02</pdfrwt>
<totfact> 0.10131353E+05</totfact>
</mgrwt>
</event>
<event>
 4    1  0.2051373E-002  0.4143907E+02  0.7818608E-02  0.1497881E+00
          1   -1    0    0    0  501  0.00000000000E+00  0.00000000000E+00  0.50644510915E+02  0.50644511166E+02  0.50400000000E-02 0. -1.
         -1   -1    0    0  501    0 -0.00000000000E+00 -0.00000000000E+00 -0.84767166282E+01  0.84767181265E+01  0.50400000000E-02 0. -1.
          2    1    1    2    0  502  0.14172991679E+02 -0.14768818696E+02  0.16503423579E+02  0.26293624610E+02  0.25500000000E-02 0. -1.
         -2    1    1    2  502    0 -0.14172991679E+02  0.14768818696E+02  0.25664370707E+02  0.32827604682E+02  0.25500000000E-02 0. -1.
<mgrwt>
<rscale>  0 0.41439074E+02</rscale>
<asrwt>0</asrwt>
<pdfrwt beam="1">  1        1 0.77914635E-02 0.41439074E+02</pdfrwt>
<pdfrwt beam="2">  1       -1 0.13041104E-02 0.41439074E+02</pdfrwt>
<totfact> 0.74939649E+05</totfact>
</mgrwt>
</event>
<event>
 4    1  0.2051373E-002  0.6327600E+02  0.7818608E-02  0.1384576E+00
         -1   -1    0    0  501    0 -0.00000000000E+00  0.00000000000E+00  0.74173356068E+00  0.74175068362E+00  0.50400000000E-02 0. -1.
          1   -1    0    0    0  501  0.00000000000E+00 -0.00000000000E+00 -0.13494759023E+04  0.13494759023E+04  0.50400000000E-02 0. -1.
          2    1    1    2    0  502 -0.21946721527E+02 -0.11288091392E+02 -0.10967858980E+04  0.10970635285E+04  0.25500000000E-02 0.  1.
         -2    1    1    2  502    0  0.21946721527E+02  0.11288091392E+02 -0.25194827082E+03  0.25315412453E+03  0.25500000000E-02 0.  1.
<mgrwt>
<rscale>  0 0.63276003E+02</rscale>
<asrwt>0</asrwt>
<pdfrwt beam="2">  1        1 0.20760971E+00 0.63276003E+02</pdfrwt>
<pdfrwt beam="1">  1       -1 0.11411525E-03 0.63276003E+02</pdfrwt>
<totfact> 0.30835477E+05</totfact>
</mgrwt>
</event>
<event>
 4    1  0.2051373E-002  0.4995106E+02  0.7818608E-02  0.1445606E+00
         -1   -1    0    0  501    0 -0.00000000000E+00  0.00000000000E+00  0.13599256812E+01  0.13599350205E+01  0.50400000000E-02 0.  1.
          1   -1    0    0    0  501  0.00000000000E+00 -0.00000000000E+00 -0.45868314290E+03  0.45868314293E+03  0.50400000000E-02 0.  1.
          2    1    1    2    0  502  0.19619835867E+02 -0.15309864409E+02 -0.20923941062E+03  0.21071416866E+03  0.25500000000E-02 0. -1.
         -2    1    1    2  502    0 -0.19619835867E+02  0.15309864409E+02 -0.24808380660E+03  0.24932890929E+03  0.25500000000E-02 0. -1.
<mgrwt>
<rscale>  0 0.49951062E+02</rscale>
<asrwt>0</asrwt>
<pdfrwt beam="2">  1        1 0.70566515E-01 0.49951062E+02</pdfrwt>
<pdfrwt beam="1">  1       -1 0.20922042E-03 0.49951062E+02</pdfrwt>
<totfact> 0.64659050E+05</totfact>
</mgrwt>
</event>
<event>
 4    1  0.2051373E-002  0.5703825E+02  0.7818608E-02  0.1410699E+00
         -1   -1    0    0  501    0 -0.00000000000E+00  0.00000000000E+00  0.73791299416E+03  0.73791299418E+03  0.50400000000E-02 0.  1.
          1   -1    0    0    0  501  0.00000000000E+00 -0.00000000000E+00 -0.11022115381E+01  0.11022230611E+01  0.50400000000E-02 0.  1.
          2    1    1    2    0  502 -0.12398259956E+02  0.21138400410E+02  0.55740655787E+03  0.55794499692E+03  0.25500000000E-02 0. -1.
         -2    1    1    2  502    0  0.12398259956E+02 -0.21138400410E+02  0.17940422475E+03  0.18107022032E+03  0.25500000000E-02 0. -1.
<mgrwt>
<rscale>  0 0.57038250E+02</rscale>
<asrwt>0</asrwt>
<pdfrwt beam="2">  1        1 0.16957227E-03 0.57038250E+02</pdfrwt>
<pdfrwt beam="1">  1       -1 0.11352483E+00 0.57038250E+02</pdfrwt>
<totfact> 0.11760666E+05</totfact>
</mgrwt>
</event>
<event>
 4    1  0.2051373E-002  0.4668049E+02  0.7818608E-02  0.1464115E+00
          1   -1    0    0    0  501  0.00000000000E+00  0.00000000000E+00  0.14159868926E+03  0.14159868935E+03  0.50400000000E-02 0.  1.
         -1   -1    0    0  501    0 -0.00000000000E+00 -0.00000000000E+00 -0.38472579574E+01  0.38472612587E+01  0.50400000000E-02 0.  1.
          2    1    1    2    0  502 -0.96638301641E+01 -0.19697410119E+02  0.93682724617E+02  0.96217620408E+02  0.25500000000E-02 0. -1.
         -2    1    1    2  502    0  0.96638301641E+01  0.19697410119E+02  0.44068706683E+02  0.49228330197E+02  0.25500000000E-02 0. -1.
<mgrwt>
<rscale>  0 0.46680485E+02</rscale>
<asrwt>0</asrwt>
<pdfrwt beam="1">  1        1 0.21784416E-01 0.46680485E+02</pdfrwt>
<pdfrwt beam="2">  1       -1 0.59188606E-03 0.46680485E+02</pdfrwt>
<totfact> 0.63058095E+05</totfact>
</mgrwt>
</event>
<event>
 4    1  0.2051373E-002  0.5968425E+02  0.7818608E-02  0.1399162E+00
          1   -1    0    0    0  501  0.00000000000E+00  0.00000000000E+00  0.13536471387E+04  0.13536471387E+04  0.50400000000E-02 0.  1.
         -1   -1    0    0  501    0 -0.00000000000E+00 -0.00000000000E+00 -0.65788152834E+00  0.65790083366E+00  0.50400000000E-02 0.  1.
          2    1    1    2    0  502 -0.15271922500E+02  0.25484014663E+02  0.61277365805E+03  0.61349345769E+03  0.25500000000E-02 0.  1.
         -2    1    1    2  502    0  0.15271922500E+02 -0.25484014663E+02  0.74021559908E+03  0.74081158182E+03  0.25500000000E-02 0.  1.
<mgrwt>
<rscale>  0 0.59684253E+02</rscale>
<asrwt>0</asrwt>
<pdfrwt beam="1">  1        1 0.20825327E+00 0.59684253E+02</pdfrwt>
<pdfrwt beam="2">  1       -1 0.10121410E-03 0.59684253E+02</pdfrwt>
<totfact> 0.35709148E+05</totfact>
</mgrwt>
</event>
<event>
 4    1  0.2051373E-002  0.6149015E+02  0.7818608E-02  0.1391683E+00
          1   -1    0    0    0  501  0.00000000000E+00  0.00000000000E+00  0.45947997201E+02  0.45947997478E+02  0.50400000000E-02 0.  1.
         -1   -1    0    0  501    0 -0.00000000000E+00 -0.00000000000E+00 -0.20572378433E+02  0.20572379050E+02  0.50400000000E-02 0.  1.
          2    1    1    2    0  502  0.22274631144E+02 -0.20285222351E+02  0.60534070152E+01  0.30729353743E+02  0.25500000000E-02 0. -1.
         -2    1    1    2  502    0 -0.22274631144E+02  0.20285222351E+02  0.19322211753E+02  0.35791022785E+02  0.25500000000E-02 0. -1.
<mgrwt>
<rscale>  0 0.61490149E+02</rscale>
<asrwt>0</asrwt>
<pdfrwt beam="1">  1        1 0.70689227E-02 0.61490149E+02</pdfrwt>
<pdfrwt beam="2">  1       -1 0.31649814E-02 0.61490149E+02</pdfrwt>
<totfact> 0.27019466E+05</totfact>
</mgrwt>
</event>
<event>
 4    1  0.2051373E-002  0.1331624E+03  0.7818608E-02  0.1222837E+00
         -1   -1    0    0  501    0 -0.00000000000E+00  0.00000000000E+00  0.34408278163E+01  0.34408315075E+01  0.50400000000E-02 0. -1.
          1   -1    0    0    0  501  0.00000000000E+00 -0.00000000000E+00 -0.12883685253E+04  0.12883685253E+04  0.50400000000E-02 0. -1.
          2    1    1    2    0  502  0.53842594303E+02  0.13157347822E+02 -0.28458796739E+03  0.28993525476E+03  0.25500000000E-02 0. -1.
         -2    1    1    2  502    0 -0.53842594303E+02 -0.13157347822E+02 -0.10003397301E+04  0.10018741021E+04  0.25500000000E-02 0. -1.
<mgrwt>
<rscale>  0 0.13316241E+03</rscale>
<asrwt>0</asrwt>
<pdfrwt beam="2">  1        1 0.19821016E+00 0.13316241E+03</pdfrwt>
<pdfrwt beam="1">  1       -1 0.52935944E-03 0.13316241E+03</pdfrwt>
<totfact> 0.44261583E+04</totfact>
</mgrwt>
</event>
<event>
 4    1  0.2051373E-002  0.4626665E+02  0.7818608E-02  0.1466586E+00
         -1   -1    0    0  501    0 -0.00000000000E+00  0.00000000000E+00  0.23820342171E+02  0.23820342705E+02  0.50400000000E-02 0.  1.
          1   -1    0    0    0  501  0.00000000000E+00 -0.00000000000E+00 -0.22466120377E+02  0.22466120942E+02  0.50400000000E-02 0.  1.
          2    1    1    2    0  502  0.34038493033E+01  0.21581822191E+02 -0.69280823500E+01  0.22920723608E+02  0.25500000000E-02 0. -1.
         -2    1    1    2  502    0 -0.34038493033E+01 -0.21581822191E+02  0.82823041444E+01  0.23365740039E+02  0.25500000000E-02 0. -1.
<mgrwt>
<rscale>  0 0.46266649E+02</rscale>
<asrwt>0</asrwt>
<pdfrwt beam="2">  1        1 0.34563263E-02 0.46266649E+02</pdfrwt>
<pdfrwt beam="1">  1       -1 0.36646681E-02 0.46266649E+02</pdfrwt>
<totfact> 0.52974313E+05</totfact>
</mgrwt>
</event>
<event>
 4    1  0.2051373E-002  0.7214166E+02  0.7818608E-02  0.1352958E+00
          1   -1    0    0    0  501  0.00000000000E+00  0.00000000000E+00  0.30827871142E+02  0.30827871554E+02  0.50400000000E-02 0. -1.
         -1   -1    0    0  501    0 -0.00000000000E+00 -0.00000000000E+00 -0.42205471149E+02  0.42205471450E+02  0.50400000000E-02 0. -1.
          2    1    1    2    0  502  0.23003953057E+02  0.23656120139E+02  0.90621928640E+01  0.34218667746E+02  0.25500000000E-02 0.  1.
         -2    1    1    2  502    0 -0.23003953057E+02 -0.23656120139E+02 -0.20439792872E+02  0.38814675258E+02  0.25500000000E-02 0.  1.
<mgrwt>
<rscale>  0 0.72141662E+02</rscale>
<asrwt>0</asrwt>
<pdfrwt beam="1">  1        1 0.47427495E-02 0.72141662E+02</pdfrwt>
<pdfrwt beam="2">  1       -1 0.64931494E-02 0.72141662E+02</pdfrwt>
<totfact> 0.16787243E+05</totfact>
</mgrwt>
</event>
<event>
 4    1  0.2051373E-002  0.9266306E+02  0.7818608E-02  0.1296528E+00
         -1   -1    0    0  501    0 -0.00000000000E+00  0.00000000000E+00  0.11569850159E+02  0.11569851257E+02  0.50400000000E-02 0.  1.
          1   -1    0    0    0  501  0.00000000000E+00 -0.00000000000E+00 -0.18553486402E+03  0.18553486409E+03  0.50400000000E-02 0.  1.
          2    1    1    2    0  502  0.37704919918E+02 -0.58392989174E+01 -0.14289166781E+03  0.14789789428E+03  0.25500000000E-02 0.  1.
         -2    1    1    2  502    0 -0.37704919918E+02  0.58392989174E+01 -0.31073346059E+02  0.49206821068E+02  0.25500000000E-02 0.  1.
<mgrwt>
<rscale>  0 0.92663060E+02</rscale>
<asrwt>0</asrwt>
<pdfrwt beam="2">  1        1 0.28543823E-01 0.92663060E+02</pdfrwt>
<pdfrwt beam="1">  1       -1 0.17799772E-02 0.92663060E+02</pdfrwt>
<totfact> 0.11173452E+05</totfact>
</mgrwt>
</event>
<event>
 4    1  0.2051373E-002  0.5177367E+02  0.7818608E-02  0.1436003E+00
          1   -1    0    0    0  501  0.00000000000E+00  0.00000000000E+00  0.13601295880E+02  0.13601296814E+02  0.50400000000E-02 0. -1.
         -1   -1    0    0  501    0 -0.00000000000E+00 -0.00000000000E+00 -0.49269432462E+02  0.49269432719E+02  0.50400000000E-02 0. -1.
          2    1    1    2    0  502  0.22793880036E+02 -0.24210303888E+01 -0.32263446491E+01  0.23148037963E+02  0.25500000000E-02 0. -1.
         -2    1    1    2  502    0 -0.22793880036E+02  0.24210303888E+01 -0.32441791932E+02  0.39722691570E+02  0.25500000000E-02 0. -1.
<mgrwt>
<rscale>  0 0.51773668E+02</rscale>
<asrwt>0</asrwt>
<pdfrwt beam="1">  1        1 0.20925072E-02 0.51773668E+02</pdfrwt>
<pdfrwt beam="2">  1       -1 0.75799127E-02 0.51773668E+02</pdfrwt>
<totfact> 0.37575234E+05</totfact>
</mgrwt>
</event>
<event>
 4    1  0.2051373E-002  0.5680161E+02  0.7818608E-02  0.1411766E+00
         -1   -1    0    0  501    0 -0.00000000000E+00  0.00000000000E+00  0.53433591067E+00  0.53435967946E+00  0.50400000000E-02 0.  1.
          1   -1    0    0    0  501  0.00000000000E+00 -0.00000000000E+00 -0.15095145666E+04  0.15095145666E+04  0.50400000000E-02 0.  1.
          2    1    1    2    0  502  0.14412888415E+02 -0.23548446563E+02 -0.93152268232E+03  0.93193174019E+03  0.25500000000E-02 0.  1.
         -2    1    1    2  502    0 -0.14412888415E+02  0.23548446563E+02 -0.57745754837E+03  0.57811718610E+03  0.25500000000E-02 0.  1.
<mgrwt>
<rscale>  0 0.56801612E+02</rscale>
<asrwt>0</asrwt>
<pdfrwt beam="2">  1        1 0.23222960E+00 0.56801612E+02</pdfrwt>
<pdfrwt beam="1">  1       -1 0.82208562E-04 0.56801612E+02</pdfrwt>
<totfact> 0.37410259E+05</totfact>
</mgrwt>
</event>
<event>
 4    1  0.2051373E-002  0.4163978E+02  0.7818608E-02  0.1496480E+00
         -1   -1    0    0  501    0 -0.00000000000E+00  0.00000000000E+00  0.22409348160E+02  0.22409348726E+02  0.50400000000E-02 0. -1.
          1   -1    0    0    0  501  0.00000000000E+00 -0.00000000000E+00 -0.19343172639E+02  0.19343173296E+02  0.50400000000E-02 0. -1.
          2    1    1    2    0  502 -0.56531478307E+01  0.19228854008E+02 -0.41178606118E+01  0.20461272916E+02  0.25500000000E-02 0.  1.
         -2    1    1    2  502    0  0.56531478307E+01 -0.19228854008E+02  0.71840361322E+01  0.21291249106E+02  0.25500000000E-02 0.  1.
<mgrwt>
<rscale>  0 0.41639785E+02</rscale>
<asrwt>0</asrwt>
<pdfrwt beam="2">  1        1 0.29758728E-02 0.41639785E+02</pdfrwt>
<pdfrwt beam="1">  1       -1 0.34475921E-02 0.41639785E+02</pdfrwt>
<totfact> 0.68554842E+05</totfact>
</mgrwt>
</event>
<event>
 4    1  0.2051373E-002  0.4589501E+02  0.7818608E-02  0.1468830E+00
          1   -1    0    0    0  501  0.00000000000E+00  0.00000000000E+00  0.48015613381E+02  0.48015613645E+02  0.50400000000E-02 0. -1.
         -1   -1    0    0  501    0 -0.00000000000E+00 -0.00000000000E+00 -0.10967015973E+02  0.10967017131E+02  0.50400000000E-02 0. -1.
          2    1    1    2    0  502  0.17795983691E+02 -0.14342013149E+02  0.15891230222E+02  0.27837413335E+02  0.25500000000E-02 0.  1.
         -2    1    1    2  502    0 -0.17795983691E+02  0.14342013149E+02  0.21157367186E+02  0.31145217441E+02  0.25500000000E-02 0.  1.
<mgrwt>
<rscale>  0 0.45895012E+02</rscale>
<asrwt>0</asrwt>
<pdfrwt beam="1">  1        1 0.73870175E-02 0.45895012E+02</pdfrwt>
<pdfrwt beam="2">  1       -1 0.16872333E-02 0.45895012E+02</pdfrwt>
<totfact> 0.57729588E+05</totfact>
</mgrwt>
</event>
<event>
 4    1  0.2051373E-002  0.4762593E+02  0.7818608E-02  0.1458584E+00
         -1   -1    0    0  501    0 -0.00000000000E+00  0.00000000000E+00  0.12800303050E+03  0.12800303060E+03  0.50400000000E-02 0.  1.
          1   -1    0    0    0  501  0.00000000000E+00 -0.00000000000E+00 -0.44300280458E+01  0.44300309128E+01  0.50400000000E-02 0.  1.
          2    1    1    2    0  502  0.86637175868E+01 -0.18758304841E+02  0.94702573780E+02  0.96930446661E+02  0.25500000000E-02 0. -1.
         -2    1    1    2  502    0 -0.86637175868E+01  0.18758304841E+02  0.28870428678E+02  0.35502614854E+02  0.25500000000E-02 0. -1.
<mgrwt>
<rscale>  0 0.47625926E+02</rscale>
<asrwt>0</asrwt>
<pdfrwt beam="2">  1        1 0.68154294E-03 0.47625926E+02</pdfrwt>
<pdfrwt beam="1">  1       -1 0.19692776E-01 0.47625926E+02</pdfrwt>
<totfact> 0.40135567E+05</totfact>
</mgrwt>
</event>
<event>
 4    1  0.2051373E-002  0.9307093E+02  0.7818608E-02  0.1295581E+00
         -1   -1    0    0  501    0 -0.00000000000E+00  0.00000000000E+00  0.34204793843E+01  0.34204830974E+01  0.50400000000E-02 0. -1.
          1   -1    0    0    0  501  0.00000000000E+00 -0.00000000000E+00 -0.63311248635E+03  0.63311248637E+03  0.50400000000E-02 0. -1.
          2    1    1    2    0  502  0.42548645436E+02  0.13647432938E+02 -0.22595983206E+03  0.23033559292E+03  0.25500000000E-02 0.  1.
         -2    1    1    2  502    0 -0.42548645436E+02 -0.13647432938E+02 -0.40373217491E+03  0.40619737655E+03  0.25500000000E-02 0.  1.
<mgrwt>
<rscale>  0 0.93070928E+02</rscale>
<asrwt>0</asrwt>
<pdfrwt beam="2">  1        1 0.97401828E-01 0.93070928E+02</pdfrwt>
<pdfrwt beam="1">  1       -1 0.52622839E-03 0.93070928E+02</pdfrwt>
<totfact> 0.13443520E+05</totfact>
</mgrwt>
</event>
<event>
 4    1  0.2051373E-002  0.9214231E+02  0.7818608E-02  0.1297745E+00
         -1   -1    0    0  501    0 -0.00000000000E+00  0.00000000000E+00  0.16773387971E+02  0.16773388728E+02  0.50400000000E-02 0.  1.
          1   -1    0    0    0  501  0.00000000000E+00 -0.00000000000E+00 -0.12654278827E+03  0.12654278837E+03  0.50400000000E-02 0.  1.
          2    1    1    2    0  502 -0.27808128449E+02 -0.22271857406E+02 -0.94521021962E+01  0.36860139481E+02  0.25500000000E-02 0. -1.
         -2    1    1    2  502    0  0.27808128449E+02  0.22271857406E+02 -0.10031729810E+03  0.10645603762E+03  0.25500000000E-02 0. -1.
<mgrwt>
<rscale>  0 0.92142310E+02</rscale>
<asrwt>0</asrwt>
<pdfrwt beam="2">  1        1 0.19468121E-01 0.92142310E+02</pdfrwt>
<pdfrwt beam="1">  1       -1 0.25805214E-02 0.92142310E+02</pdfrwt>
<totfact> 0.10568303E+05</totfact>
</mgrwt>
</event>
<event>
 4    1  0.2051373E-002  0.6967482E+02  0.7818608E-02  0.1361202E+00
         -1   -1    0    0  501    0 -0.00000000000E+00  0.00000000000E+00  0.61245367148E+01  0.61245387886E+01  0.50400000000E-02 0. -1.
          1   -1    0    0    0  501  0.00000000000E+00 -0.00000000000E+00 -0.19816108522E+03  0.19816108528E+03  0.50400000000E-02 0. -1.
          2    1    1    2    0  502 -0.45831846311E+01 -0.34417104310E+02 -0.87672456605E+02  0.94297414090E+02  0.25500000000E-02 0.  1.
         -2    1    1    2  502    0  0.45831846311E+01  0.34417104310E+02 -0.10436409190E+03  0.10998820998E+03  0.25500000000E-02 0.  1.
<mgrwt>
<rscale>  0 0.69674818E+02</rscale>
<asrwt>0</asrwt>
<pdfrwt beam="2">  1        1 0.30486316E-01 0.69674818E+02</pdfrwt>
<pdfrwt beam="1">  1       -1 0.94223673E-03 0.69674818E+02</pdfrwt>
<totfact> 0.24051876E+05</totfact>
</mgrwt>
</event>
<event>
 4    1  0.2051373E-002  0.5531840E+02  0.7818608E-02  0.1418599E+00
         -1   -1    0    0  501    0 -0.00000000000E+00  0.00000000000E+00  0.43574429052E+02  0.43574429344E+02  0.50400000000E-02 0. -1.
          1   -1    0    0    0  501  0.00000000000E+00 -0.00000000000E+00 -0.17556885056E+02  0.17556885779E+02  0.50400000000E-02 0. -1.
          2    1    1    2    0  502 -0.12570090948E+02 -0.19211115393E+02  0.30055597126E+02  0.37820802030E+02  0.25500000000E-02 0. -1.
         -2    1    1    2  502    0  0.12570090948E+02  0.19211115393E+02 -0.40380531294E+01  0.23310513093E+02  0.25500000000E-02 0. -1.
<mgrwt>
<rscale>  0 0.55318397E+02</rscale>
<asrwt>0</asrwt>
<pdfrwt beam="2">  1        1 0.27010593E-02 0.55318397E+02</pdfrwt>
<pdfrwt beam="1">  1       -1 0.67037584E-02 0.55318397E+02</pdfrwt>
<totfact> 0.32341766E+05</totfact>
</mgrwt>
</event>
<event>
 4    1  0.2051373E-002  0.1100453E+03  0.7818608E-02  0.1260486E+00
          1   -1    0    0    0  501  0.00000000000E+00  0.00000000000E+00  0.55825288443E+03  0.55825288445E+03  0.50400000000E-02 0. -1.
         -1   -1    0    0  501    0 -0.00000000000E+00 -0.00000000000E+00 -0.54231505827E+01  0.54231529246E+01  0.50400000000E-02 0. -1.
          2    1    1    2    0  502  0.45769801159E+02  0.28396104979E+01  0.43216337236E+03  0.43458959778E+03  0.25500000000E-02 0. -1.
         -2    1    1    2  502    0 -0.45769801159E+02 -0.28396104979E+01  0.12066636149E+03  0.12908643960E+03  0.25500000000E-02 0. -1.
<mgrwt>
<rscale>  0 0.11004527E+03</rscale>
<asrwt>0</asrwt>
<pdfrwt beam="1">  1        1 0.85885032E-01 0.11004527E+03</pdfrwt>
<pdfrwt beam="2">  1       -1 0.83433130E-03 0.11004527E+03</pdfrwt>
<totfact> 0.85200945E+04</totfact>
</mgrwt>
</event>
<event>
 4    1  0.2051373E-002  0.4667384E+02  0.7818608E-02  0.1464155E+00
         -1   -1    0    0  501    0 -0.00000000000E+00  0.00000000000E+00  0.17932424995E+03  0.17932425002E+03  0.50400000000E-02 0. -1.
          1   -1    0    0    0  501  0.00000000000E+00 -0.00000000000E+00 -0.30370200706E+01  0.30370242526E+01  0.50400000000E-02 0. -1.
          2    1    1    2    0  502  0.55308654165E+01 -0.20750691104E+02  0.52455760424E+02  0.56681464887E+02  0.25500000000E-02 0.  1.
         -2    1    1    2  502    0 -0.55308654165E+01  0.20750691104E+02  0.12383146946E+03  0.12567980939E+03  0.25500000000E-02 0.  1.
<mgrwt>
<rscale>  0 0.46673836E+02</rscale>
<asrwt>0</asrwt>
<pdfrwt beam="2">  1        1 0.46723415E-03 0.46673836E+02</pdfrwt>
<pdfrwt beam="1">  1       -1 0.27588349E-01 0.46673836E+02</pdfrwt>
<totfact> 0.39113122E+05</totfact>
</mgrwt>
</event>
<event>
 4    1  0.2051373E-002  0.5590589E+02  0.7818608E-02  0.1415863E+00
          1   -1    0    0    0  501  0.00000000000E+00  0.00000000000E+00  0.22783291272E+02  0.22783291830E+02  0.50400000000E-02 0. -1.
         -1   -1    0    0  501    0 -0.00000000000E+00 -0.00000000000E+00 -0.34295619379E+02  0.34295619749E+02  0.50400000000E-02 0. -1.
          2    1    1    2    0  502  0.23129422809E+02  0.11016241381E+02 -0.17172886579E+02  0.30842111043E+02  0.25500000000E-02 0.  1.
         -2    1    1    2  502    0 -0.23129422809E+02 -0.11016241381E+02  0.56605584726E+01  0.26236800536E+02  0.25500000000E-02 0.  1.
<mgrwt>
<rscale>  0 0.55905889E+02</rscale>
<asrwt>0</asrwt>
<pdfrwt beam="1">  1        1 0.35051218E-02 0.55905889E+02</pdfrwt>
<pdfrwt beam="2">  1       -1 0.52762492E-02 0.55905889E+02</pdfrwt>
<totfact> 0.32313827E+05</totfact>
</mgrwt>
</event>
<event>
 4    1  0.2051373E-002  0.4125682E+02  0.7818608E-02  0.1499161E+00
         -1   -1    0    0  501    0 -0.00000000000E+00  0.00000000000E+00  0.80930538705E+01  0.80930554398E+01  0.50400000000E-02 0. -1.
          1   -1    0    0    0  501  0.00000000000E+00 -0.00000000000E+00 -0.52579811495E+02  0.52579811737E+02  0.50400000000E-02 0. -1.
          2    1    1    2    0  502 -0.20082523493E+02 -0.27027343834E+01 -0.16563156794E+02  0.26171562668E+02  0.25500000000E-02 0. -1.
         -2    1    1    2  502    0  0.20082523493E+02  0.27027343834E+01 -0.27923600830E+02  0.34501304509E+02  0.25500000000E-02 0. -1.
<mgrwt>
<rscale>  0 0.41256820E+02</rscale>
<asrwt>0</asrwt>
<pdfrwt beam="2">  1        1 0.80892017E-02 0.41256820E+02</pdfrwt>
<pdfrwt beam="1">  1       -1 0.12450854E-02 0.41256820E+02</pdfrwt>
<totfact> 0.76025307E+05</totfact>
</mgrwt>
</event>
<event>
 4    1  0.2051373E-002  0.8242081E+02  0.7818608E-02  0.1322319E+00
          1   -1    0    0    0  501  0.00000000000E+00  0.00000000000E+00  0.27610032569E+03  0.27610032574E+03  0.50400000000E-02 0. -1.
         -1   -1    0    0  501    0 -0.00000000000E+00 -0.00000000000E+00 -0.61510143279E+01  0.61510163928E+01  0.50400000000E-02 0. -1.
          2    1    1    2    0  502 -0.16183819331E+01  0.35171028492E+02  0.20831663207E+03  0.21127100987E+03  0.25500000000E-02 0.  1.
         -2    1    1    2  502    0  0.16183819331E+01 -0.35171028492E+02  0.61632679290E+02  0.70980332263E+02  0.25500000000E-02 0.  1.
<mgrwt>
<rscale>  0 0.82420807E+02</rscale>
<asrwt>0</asrwt>
<pdfrwt beam="1">  1        1 0.42476976E-01 0.82420807E+02</pdfrwt>
<pdfrwt beam="2">  1       -1 0.94630999E-03 0.82420807E+02</pdfrwt>
<totfact> 0.16480936E+05</totfact>
</mgrwt>
</event>
<event>
 4    1  0.2051373E-002  0.5175245E+02  0.7818608E-02  0.1436112E+00
          1   -1    0    0    0  501  0.00000000000E+00  0.00000000000E+00  0.69183009328E+03  0.69183009330E+03  0.50400000000E-02 0.  1.
         -1   -1    0    0  501    0 -0.00000000000E+00 -0.00000000000E+00 -0.96783096860E+00  0.96784409146E+00  0.50400000000E-02 0.  1.
          2    1    1    2    0  502  0.11001383973E+01 -0.23200975826E+02  0.49811277402E+03  0.49865401956E+03  0.25500000000E-02 0.  1.
         -2    1    1    2  502    0 -0.11001383973E+01  0.23200975826E+02  0.19274948830E+03  0.19414391783E+03  0.25500000000E-02 0.  1.
<mgrwt>
<rscale>  0 0.51752455E+02</rscale>
<asrwt>0</asrwt>
<pdfrwt beam="1">  1        1 0.10643543E+00 0.51752455E+02</pdfrwt>
<pdfrwt beam="2">  1       -1 0.14889805E-03 0.51752455E+02</pdfrwt>
<totfact> 0.60917897E+05</totfact>
</mgrwt>
</event>
<event>
 4    1  0.2051373E-002  0.4452765E+02  0.7818608E-02  0.1477312E+00
          1   -1    0    0    0  501  0.00000000000E+00  0.00000000000E+00  0.91382325488E+02  0.91382325627E+02  0.50400000000E-02 0.  1.
         -1   -1    0    0  501    0 -0.00000000000E+00 -0.00000000000E+00 -0.54242202264E+01  0.54242225679E+01  0.50400000000E-02 0.  1.
          2    1    1    2    0  502  0.18239506950E+02  0.10324488976E+02  0.26651273094E+02  0.33905236328E+02  0.25500000000E-02 0.  1.
         -2    1    1    2  502    0 -0.18239506950E+02 -0.10324488976E+02  0.59306832167E+02  0.62901311867E+02  0.25500000000E-02 0.  1.
<mgrwt>
<rscale>  0 0.44527653E+02</rscale>
<asrwt>0</asrwt>
<pdfrwt beam="1">  1        1 0.14058819E-01 0.44527653E+02</pdfrwt>
<pdfrwt beam="2">  1       -1 0.83449564E-03 0.44527653E+02</pdfrwt>
<totfact> 0.66739931E+05</totfact>
</mgrwt>
</event>
<event>
 4    1  0.2051373E-002  0.1099715E+03  0.7818608E-02  0.1260623E+00
          1   -1    0    0    0  501  0.00000000000E+00  0.00000000000E+00  0.16577409713E+02  0.16577410479E+02  0.50400000000E-02 0. -1.
         -1   -1    0    0  501    0 -0.00000000000E+00 -0.00000000000E+00 -0.18238273316E+03  0.18238273323E+03  0.50400000000E-02 0. -1.
          2    1    1    2    0  502  0.30305764166E+02 -0.11963562924E+02 -0.27679478023E+01  0.32699047709E+02  0.25500000000E-02 0.  1.
         -2    1    1    2  502    0 -0.30305764166E+02  0.11963562924E+02 -0.16303737564E+03  0.16626109600E+03  0.25500000000E-02 0.  1.
<mgrwt>
<rscale>  0 0.10997151E+03</rscale>
<asrwt>0</asrwt>
<pdfrwt beam="1">  1        1 0.25503709E-02 0.10997151E+03</pdfrwt>
<pdfrwt beam="2">  1       -1 0.28058881E-01 0.10997151E+03</pdfrwt>
<totfact> 0.43621596E+04</totfact>
</mgrwt>
</event>
<event>
 4    1  0.2051373E-002  0.4952537E+02  0.7818608E-02  0.1447918E+00
         -1   -1    0    0  501    0 -0.00000000000E+00  0.00000000000E+00  0.98031723683E+00  0.98033019255E+00  0.50400000000E-02 0. -1.
          1   -1    0    0    0  501  0.00000000000E+00 -0.00000000000E+00 -0.62549808681E+03  0.62549808684E+03  0.50400000000E-02 0. -1.
          2    1    1    2    0  502 -0.17791239890E+02 -0.17193807370E+02 -0.29938737751E+03  0.30040798433E+03  0.25500000000E-02 0.  1.
         -2    1    1    2  502    0  0.17791239890E+02  0.17193807370E+02 -0.32513039207E+03  0.32607043270E+03  0.25500000000E-02 0.  1.
<mgrwt>
<rscale>  0 0.49525372E+02</rscale>
<asrwt>0</asrwt>
<pdfrwt beam="2">  1        1 0.96230157E-01 0.49525372E+02</pdfrwt>
<pdfrwt beam="1">  1       -1 0.15081953E-03 0.49525372E+02</pdfrwt>
<totfact> 0.67850437E+05</totfact>
</mgrwt>
</event>
<event>
 4    1  0.2051373E-002  0.8705838E+02  0.7818608E-02  0.1310136E+00
         -1   -1    0    0  501    0 -0.00000000000E+00  0.00000000000E+00  0.23098112820E+01  0.23098167807E+01  0.50400000000E-02 0.  1.
          1   -1    0    0    0  501  0.00000000000E+00 -0.00000000000E+00 -0.82032155865E+03  0.82032155867E+03  0.50400000000E-02 0.  1.
          2    1    1    2    0  502  0.17068118162E+02  0.39934498737E+02 -0.38112610231E+03  0.38359248000E+03  0.25500000000E-02 0. -1.
         -2    1    1    2  502    0 -0.17068118162E+02 -0.39934498737E+02 -0.43688564506E+03  0.43903889545E+03  0.25500000000E-02 0. -1.
<mgrwt>
<rscale>  0 0.87058377E+02</rscale>
<asrwt>0</asrwt>
<pdfrwt beam="2">  1        1 0.12620308E+00 0.87058377E+02</pdfrwt>
<pdfrwt beam="1">  1       -1 0.35535666E-03 0.87058377E+02</pdfrwt>
<totfact> 0.15923784E+05</totfact>
</mgrwt>
</event>
<event>
 4    1  0.2051373E-002  0.4462390E+02  0.7818608E-02  0.1476703E+00
          1   -1    0    0    0  501  0.00000000000E+00  0.00000000000E+00  0.99423759160E+02  0.99423759288E+02  0.50400000000E-02 0.  1.
         -1   -1    0    0  501    0 -0.00000000000E+00 -0.00000000000E+00 -0.50070828653E+01  0.50070854019E+01  0.50400000000E-02 0.  1.
          2    1    1    2    0  502 -0.20766842152E+02 -0.75191753317E+01  0.54617496018E+02  0.58914095159E+02  0.25500000000E-02 0. -1.
         -2    1    1    2  502    0  0.20766842152E+02  0.75191753317E+01  0.39799180276E+02  0.45516749530E+02  0.25500000000E-02 0. -1.
<mgrwt>
<rscale>  0 0.44623901E+02</rscale>
<asrwt>0</asrwt>
<pdfrwt beam="1">  1        1 0.15295963E-01 0.44623901E+02</pdfrwt>
<pdfrwt beam="2">  1       -1 0.77032065E-03 0.44623901E+02</pdfrwt>
<totfact> 0.67098093E+05</totfact>
</mgrwt>
</event>
<event>
 4    1  0.2051373E-002  0.4528443E+02  0.7818608E-02  0.1472574E+00
          1   -1    0    0    0  501  0.00000000000E+00  0.00000000000E+00  0.10177547209E+01  0.10177672000E+01  0.50400000000E-02 0. -1.
         -1   -1    0    0  501    0 -0.00000000000E+00 -0.00000000000E+00 -0.50372334770E+03  0.50372334773E+03  0.50400000000E-02 0. -1.
          2    1    1    2    0  502  0.89078396566E+01  0.20184360948E+02 -0.30809022248E+03  0.30887917254E+03  0.25500000000E-02 0.  1.
         -2    1    1    2  502    0 -0.89078396566E+01 -0.20184360948E+02 -0.19461537050E+03  0.19586194239E+03  0.25500000000E-02 0.  1.
<mgrwt>
<rscale>  0 0.45284433E+02</rscale>
<asrwt>0</asrwt>
<pdfrwt beam="1">  1        1 0.15657901E-03 0.45284433E+02</pdfrwt>
<pdfrwt beam="2">  1       -1 0.77495702E-01 0.45284433E+02</pdfrwt>
<totfact> 0.27715263E+05</totfact>
</mgrwt>
</event>
<event>
 4    1  0.2051373E-002  0.4554332E+02  0.7818608E-02  0.1470978E+00
          1   -1    0    0    0  501  0.00000000000E+00  0.00000000000E+00  0.11204053485E+01  0.11204166843E+01  0.50400000000E-02 0.  1.
         -1   -1    0    0  501    0 -0.00000000000E+00 -0.00000000000E+00 -0.46281994791E+03  0.46281994794E+03  0.50400000000E-02 0.  1.
          2    1    1    2    0  502 -0.96448743680E+01  0.17571429316E+02 -0.34092834404E+03  0.34151707791E+03  0.25500000000E-02 0.  1.
         -2    1    1    2  502    0  0.96448743680E+01 -0.17571429316E+02 -0.12077119853E+03  0.12242328671E+03  0.25500000000E-02 0.  1.
<mgrwt>
<rscale>  0 0.45543324E+02</rscale>
<asrwt>0</asrwt>
<pdfrwt beam="1">  1        1 0.17237130E-03 0.45543324E+02</pdfrwt>
<pdfrwt beam="2">  1       -1 0.71202917E-01 0.45543324E+02</pdfrwt>
<totfact> 0.28745471E+05</totfact>
</mgrwt>
</event>
<event>
 4    1  0.2051373E-002  0.4964333E+02  0.7818608E-02  0.1447275E+00
          1   -1    0    0    0  501  0.00000000000E+00  0.00000000000E+00  0.11905617889E+03  0.11905617900E+03  0.50400000000E-02 0.  1.
         -1   -1    0    0  501    0 -0.00000000000E+00 -0.00000000000E+00 -0.51749932880E+01  0.51749957423E+01  0.50400000000E-02 0.  1.
          2    1    1    2    0  502  0.18670911191E+02 -0.10360579923E+02  0.25269649969E+02  0.33083224708E+02  0.25500000000E-02 0. -1.
         -2    1    1    2  502    0 -0.18670911191E+02  0.10360579923E+02  0.88611535634E+02  0.91147950031E+02  0.25500000000E-02 0. -1.
<mgrwt>
<rscale>  0 0.49643331E+02</rscale>
<asrwt>0</asrwt>
<pdfrwt beam="1">  1        1 0.18316335E-01 0.49643331E+02</pdfrwt>
<pdfrwt beam="2">  1       -1 0.79615302E-03 0.49643331E+02</pdfrwt>
<totfact> 0.52673154E+05</totfact>
</mgrwt>
</event>
<event>
 4    1  0.2051373E-002  0.4243491E+02  0.7818608E-02  0.1491021E+00
         -1   -1    0    0  501    0 -0.00000000000E+00  0.00000000000E+00  0.43259925050E+02  0.43259925344E+02  0.50400000000E-02 0. -1.
          1   -1    0    0    0  501  0.00000000000E+00 -0.00000000000E+00 -0.10406407879E+02  0.10406409099E+02  0.50400000000E-02 0. -1.
          2    1    1    2    0  502 -0.76789249468E+01 -0.19610761373E+02  0.13169735678E+02  0.24839279263E+02  0.25500000000E-02 0.  1.
         -2    1    1    2  502    0  0.76789249468E+01  0.19610761373E+02  0.19683781493E+02  0.28827055180E+02  0.25500000000E-02 0.  1.
<mgrwt>
<rscale>  0 0.42434913E+02</rscale>
<asrwt>0</asrwt>
<pdfrwt beam="2">  1        1 0.16009860E-02 0.42434913E+02</pdfrwt>
<pdfrwt beam="1">  1       -1 0.66553731E-02 0.42434913E+02</pdfrwt>
<totfact> 0.61906104E+05</totfact>
</mgrwt>
</event>
<event>
 4    1  0.2051373E-002  0.4613975E+02  0.7818608E-02  0.1467349E+00
          1   -1    0    0    0  501  0.00000000000E+00  0.00000000000E+00  0.19122289885E+04  0.19122289885E+04  0.50400000000E-02 0. -1.
         -1   -1    0    0  501    0 -0.00000000000E+00 -0.00000000000E+00 -0.27830114184E+00  0.27834677500E+00  0.50400000000E-02 0. -1.
          2    1    1    2    0  502  0.22782958487E+02 -0.22849140259E+01  0.83921252691E+03  0.83952483546E+03  0.25500000000E-02 0.  1.
         -2    1    1    2  502    0 -0.22782958487E+02  0.22849140259E+01  0.10727381605E+04  0.10729824998E+04  0.25500000000E-02 0.  1.
<mgrwt>
<rscale>  0 0.46139751E+02</rscale>
<asrwt>0</asrwt>
<pdfrwt beam="1">  1        1 0.29419161E+00 0.46139751E+02</pdfrwt>
<pdfrwt beam="2">  1       -1 0.42818703E-04 0.46139751E+02</pdfrwt>
<totfact> 0.49002774E+05</totfact>
</mgrwt>
</event>
<event>
 4    1  0.2051373E-002  0.5131893E+02  0.7818608E-02  0.1438355E+00
          1   -1    0    0    0  501  0.00000000000E+00  0.00000000000E+00  0.17386169186E+03  0.17386169193E+03  0.50400000000E-02 0. -1.
         -1   -1    0    0  501    0 -0.00000000000E+00 -0.00000000000E+00 -0.37869628082E+01  0.37869661621E+01  0.50400000000E-02 0. -1.
          2    1    1    2    0  502 -0.79262846730E+01  0.19482420291E+02  0.13591520876E+03  0.13753303118E+03  0.25500000000E-02 0. -1.
         -2    1    1    2  502    0  0.79262846730E+01 -0.19482420291E+02  0.34159520297E+02  0.40115626912E+02  0.25500000000E-02 0. -1.
<mgrwt>
<rscale>  0 0.51318927E+02</rscale>
<asrwt>0</asrwt>
<pdfrwt beam="1">  1        1 0.26747946E-01 0.51318927E+02</pdfrwt>
<pdfrwt beam="2">  1       -1 0.58261008E-03 0.51318927E+02</pdfrwt>
<totfact> 0.51411183E+05</totfact>
</mgrwt>
</event>
<event>
 4    1  0.2051373E-002  0.7782454E+02  0.7818608E-02  0.1335341E+00
         -1   -1    0    0  501    0 -0.00000000000E+00  0.00000000000E+00  0.36821228555E+02  0.36821228900E+02  0.50400000000E-02 0. -1.
          1   -1    0    0    0  501  0.00000000000E+00 -0.00000000000E+00 -0.41122059791E+02  0.41122060100E+02  0.50400000000E-02 0. -1.
          2    1    1    2    0  502  0.17966120127E+02 -0.29837622276E+02 -0.19529114346E+02  0.39930583381E+02  0.25500000000E-02 0. -1.
         -2    1    1    2  502    0 -0.17966120127E+02  0.29837622276E+02  0.15228283110E+02  0.38012705619E+02  0.25500000000E-02 0. -1.
<mgrwt>
<rscale>  0 0.77824541E+02</rscale>
<asrwt>0</asrwt>
<pdfrwt beam="2">  1        1 0.63264708E-02 0.77824541E+02</pdfrwt>
<pdfrwt beam="1">  1       -1 0.56648044E-02 0.77824541E+02</pdfrwt>
<totfact> 0.14145292E+05</totfact>
</mgrwt>
</event>
<event>
 4    1  0.2051373E-002  0.4247065E+02  0.7818608E-02  0.1490779E+00
         -1   -1    0    0  501    0 -0.00000000000E+00  0.00000000000E+00  0.72421794093E+03  0.72421794094E+03  0.50400000000E-02 0. -1.
          1   -1    0    0    0  501  0.00000000000E+00 -0.00000000000E+00 -0.62264638130E+00  0.62266677907E+00  0.50400000000E-02 0. -1.
          2    1    1    2    0  502 -0.31228558229E+01  0.20963354484E+02  0.38421061676E+03  0.38479476673E+03  0.25500000000E-02 0.  1.
         -2    1    1    2  502    0  0.31228558229E+01 -0.20963354484E+02  0.33938467778E+03  0.34004584100E+03  0.25500000000E-02 0.  1.
<mgrwt>
<rscale>  0 0.42470652E+02</rscale>
<asrwt>0</asrwt>
<pdfrwt beam="2">  1        1 0.95793295E-04 0.42470652E+02</pdfrwt>
<pdfrwt beam="1">  1       -1 0.11141818E+00 0.42470652E+02</pdfrwt>
<totfact> 0.24780100E+05</totfact>
</mgrwt>
</event>
<event>
 4    1  0.2051373E-002  0.1273343E+03  0.7818608E-02  0.1231466E+00
          1   -1    0    0    0  501  0.00000000000E+00  0.00000000000E+00  0.51471004684E+02  0.51471004931E+02  0.50400000000E-02 0.  1.
         -1   -1    0    0  501    0 -0.00000000000E+00 -0.00000000000E+00 -0.78753131633E+02  0.78753131794E+02  0.50400000000E-02 0.  1.
          2    1    1    2    0  502  0.49602855604E+02 -0.15815444407E+02 -0.51118781798E+02  0.72963699364E+02  0.25500000000E-02 0. -1.
         -2    1    1    2  502    0 -0.49602855604E+02  0.15815444407E+02  0.23836654849E+02  0.57260437361E+02  0.25500000000E-02 0. -1.
<mgrwt>
<rscale>  0 0.12733425E+03</rscale>
<asrwt>0</asrwt>
<pdfrwt beam="1">  1        1 0.79186162E-02 0.12733425E+03</pdfrwt>
<pdfrwt beam="2">  1       -1 0.12115866E-01 0.12733425E+03</pdfrwt>
<totfact> 0.36063097E+04</totfact>
</mgrwt>
</event>
<event>
 4    1  0.2051373E-002  0.5233851E+02  0.7818608E-02  0.1433121E+00
         -1   -1    0    0  501    0 -0.00000000000E+00  0.00000000000E+00  0.37859304593E+00  0.37862659181E+00  0.50400000000E-02 0. -1.
          1   -1    0    0    0  501  0.00000000000E+00 -0.00000000000E+00 -0.18088011836E+04  0.18088011836E+04  0.50400000000E-02 0. -1.
          2    1    1    2    0  502 -0.25073998830E+02  0.68525917420E+01 -0.10088666110E+04  0.10092014181E+04  0.25500000000E-02 0.  1.
         -2    1    1    2  502    0  0.25073998830E+02 -0.68525917420E+01 -0.79955597949E+03  0.79997839207E+03  0.25500000000E-02 0.  1.
<mgrwt>
<rscale>  0 0.52338510E+02</rscale>
<asrwt>0</asrwt>
<pdfrwt beam="2">  1        1 0.27827019E+00 0.52338510E+02</pdfrwt>
<pdfrwt beam="1">  1       -1 0.58249113E-04 0.52338510E+02</pdfrwt>
<totfact> 0.38361516E+05</totfact>
</mgrwt>
</event>
<event>
 4    1  0.2051373E-002  0.6826962E+02  0.7818608E-02  0.1366078E+00
         -1   -1    0    0  501    0 -0.00000000000E+00  0.00000000000E+00  0.96898650735E+01  0.96898663842E+01  0.50400000000E-02 0.  1.
          1   -1    0    0    0  501  0.00000000000E+00 -0.00000000000E+00 -0.12024783197E+03  0.12024783208E+03  0.50400000000E-02 0.  1.
          2    1    1    2    0  502 -0.25435525871E+02  0.21377692252E+02 -0.70170255717E+02  0.77639142809E+02  0.25500000000E-02 0.  1.
         -2    1    1    2  502    0  0.25435525871E+02 -0.21377692252E+02 -0.40387711185E+02  0.52298555655E+02  0.25500000000E-02 0.  1.
<mgrwt>
<rscale>  0 0.68269623E+02</rscale>
<asrwt>0</asrwt>
<pdfrwt beam="2">  1        1 0.18499666E-01 0.68269623E+02</pdfrwt>
<pdfrwt beam="1">  1       -1 0.14907487E-02 0.68269623E+02</pdfrwt>
<totfact> 0.23289429E+05</totfact>
</mgrwt>
</event>
<event>
 4    1  0.2051373E-002  0.5602057E+02  0.7818608E-02  0.1415333E+00
         -1   -1    0    0  501    0 -0.00000000000E+00  0.00000000000E+00  0.16040950822E+01  0.16041029999E+01  0.50400000000E-02 0. -1.
          1   -1    0    0    0  501  0.00000000000E+00 -0.00000000000E+00 -0.48910700453E+03  0.48910700456E+03  0.50400000000E-02 0. -1.
          2    1    1    2    0  502  0.13573890517E+02 -0.16068252336E+02 -0.40577505660E+03  0.40631986882E+03  0.25500000000E-02 0.  1.
         -2    1    1    2  502    0 -0.13573890517E+02  0.16068252336E+02 -0.81727852856E+02  0.84391238739E+02  0.25500000000E-02 0.  1.
<mgrwt>
<rscale>  0 0.56020571E+02</rscale>
<asrwt>0</asrwt>
<pdfrwt beam="2">  1        1 0.75247113E-01 0.56020571E+02</pdfrwt>
<pdfrwt beam="1">  1       -1 0.24678486E-03 0.56020571E+02</pdfrwt>
<totfact> 0.48916699E+05</totfact>
</mgrwt>
</event>
<event>
 4    1  0.2051373E-002  0.6128719E+02  0.7818608E-02  0.1392508E+00
         -1   -1    0    0  501    0 -0.00000000000E+00  0.00000000000E+00  0.45626341601E+01  0.45626369438E+01  0.50400000000E-02 0.  1.
          1   -1    0    0    0  501  0.00000000000E+00 -0.00000000000E+00 -0.20580863525E+03  0.20580863531E+03  0.50400000000E-02 0.  1.
          2    1    1    2    0  502 -0.91011804701E+01 -0.18816607159E+02 -0.17754071919E+03  0.17876689617E+03  0.25500000000E-02 0. -1.
         -2    1    1    2  502    0  0.91011804701E+01  0.18816607159E+02 -0.23705281896E+02  0.31604376077E+02  0.25500000000E-02 0. -1.
<mgrwt>
<rscale>  0 0.61287187E+02</rscale>
<asrwt>0</asrwt>
<pdfrwt beam="2">  1        1 0.31662860E-01 0.61287187E+02</pdfrwt>
<pdfrwt beam="1">  1       -1 0.70194409E-03 0.61287187E+02</pdfrwt>
<totfact> 0.33729655E+05</totfact>
</mgrwt>
</event>
<event>
 4    1  0.2051373E-002  0.4080406E+02  0.7818608E-02  0.1502376E+00
         -1   -1    0    0  501    0 -0.00000000000E+00  0.00000000000E+00  0.26375528580E+01  0.26375576733E+01  0.50400000000E-02 0.  1.
          1   -1    0    0    0  501  0.00000000000E+00 -0.00000000000E+00 -0.15781384765E+03  0.15781384773E+03  0.50400000000E-02 0.  1.
          2    1    1    2    0  502  0.18029235779E+02 -0.90248621389E+01 -0.89861070528E+02  0.92095132783E+02  0.25500000000E-02 0. -1.
         -2    1    1    2  502    0 -0.18029235779E+02  0.90248621389E+01 -0.65315224259E+02  0.68356272616E+02  0.25500000000E-02 0. -1.
<mgrwt>
<rscale>  0 0.40804057E+02</rscale>
<asrwt>0</asrwt>
<pdfrwt beam="2">  1        1 0.24279047E-01 0.40804057E+02</pdfrwt>
<pdfrwt beam="1">  1       -1 0.40577786E-03 0.40804057E+02</pdfrwt>
<totfact> 0.89403171E+05</totfact>
</mgrwt>
</event>
<event>
 4    1  0.2051373E-002  0.1878698E+03  0.7818608E-02  0.1160397E+00
         -1   -1    0    0  501    0 -0.00000000000E+00  0.00000000000E+00  0.70548671245E+01  0.70548689248E+01  0.50400000000E-02 0.  1.
          1   -1    0    0    0  501  0.00000000000E+00 -0.00000000000E+00 -0.12507349218E+04  0.12507349219E+04  0.50400000000E-02 0.  1.
          2    1    1    2    0  502  0.31701205155E+02 -0.28686351315E+02 -0.61859819931E+02  0.75196479229E+02  0.25500000000E-02 0. -1.
         -2    1    1    2  502    0 -0.31701205155E+02  0.28686351315E+02 -0.11818202348E+04  0.11825933115E+04  0.25500000000E-02 0. -1.
<mgrwt>
<rscale>  0 0.18786985E+03</rscale>
<asrwt>0</asrwt>
<pdfrwt beam="2">  1        1 0.19242058E+00 0.18786985E+03</pdfrwt>
<pdfrwt beam="1">  1       -1 0.10853653E-02 0.18786985E+03</pdfrwt>
<totfact> 0.17292259E+04</totfact>
</mgrwt>
</event>
<event>
 4    1  0.2051373E-002  0.4141361E+02  0.7818608E-02  0.1498059E+00
         -1   -1    0    0  501    0 -0.00000000000E+00  0.00000000000E+00  0.37177188863E+00  0.37180604995E+00  0.50400000000E-02 0.  1.
          1   -1    0    0    0  501  0.00000000000E+00 -0.00000000000E+00 -0.11532666603E+04  0.11532666603E+04  0.50400000000E-02 0.  1.
          2    1    1    2    0  502  0.11525134078E+02  0.17110505910E+02 -0.52682140403E+03  0.52722517948E+03  0.25500000000E-02 0. -1.
         -2    1    1    2  502    0 -0.11525134078E+02 -0.17110505910E+02 -0.62607348442E+03  0.62641328691E+03  0.25500000000E-02 0. -1.
<mgrwt>
<rscale>  0 0.41413613E+02</rscale>
<asrwt>0</asrwt>
<pdfrwt beam="2">  1        1 0.17742278E+00 0.41413613E+02</pdfrwt>
<pdfrwt beam="1">  1       -1 0.57199227E-04 0.41413613E+02</pdfrwt>
<totfact> 0.96175530E+05</totfact>
</mgrwt>
</event>
<event>
 4    1  0.2051373E-002  0.6870220E+02  0.7818608E-02  0.1364563E+00
          1   -1    0    0    0  501  0.00000000000E+00  0.00000000000E+00  0.10194357770E+03  0.10194357782E+03  0.50400000000E-02 0. -1.
         -1   -1    0    0  501    0 -0.00000000000E+00 -0.00000000000E+00 -0.11575011518E+02  0.11575012616E+02  0.50400000000E-02 0. -1.
          2    1    1    2    0  502 -0.20630966366E+02 -0.15154043647E+02  0.83033650292E+02  0.86889981582E+02  0.25500000000E-02 0.  1.
         -2    1    1    2  502    0  0.20630966366E+02  0.15154043647E+02  0.73349158877E+01  0.26628608856E+02  0.25500000000E-02 0.  1.
<mgrwt>
<rscale>  0 0.68702202E+02</rscale>
<asrwt>0</asrwt>
<pdfrwt beam="1">  1        1 0.15683628E-01 0.68702202E+02</pdfrwt>
<pdfrwt beam="2">  1       -1 0.17807711E-02 0.68702202E+02</pdfrwt>
<totfact> 0.22335944E+05</totfact>
</mgrwt>
</event>
<event>
 4    1  0.2051373E-002  0.4899561E+02  0.7818608E-02  0.1450835E+00
         -1   -1    0    0  501    0 -0.00000000000E+00  0.00000000000E+00  0.34541903457E+02  0.34541903824E+02  0.50400000000E-02 0. -1.
          1   -1    0    0    0  501  0.00000000000E+00 -0.00000000000E+00 -0.17374328537E+02  0.17374329268E+02  0.50400000000E-02 0. -1.
          2    1    1    2    0  502 -0.65737814338E+01  0.23406374565E+02  0.11774854857E+02  0.27013333486E+02  0.25500000000E-02 0.  1.
         -2    1    1    2  502    0  0.65737814338E+01 -0.23406374565E+02  0.53927200621E+01  0.24902899606E+02  0.25500000000E-02 0.  1.
<mgrwt>
<rscale>  0 0.48995608E+02</rscale>
<asrwt>0</asrwt>
<pdfrwt beam="2">  1        1 0.26729737E-02 0.48995608E+02</pdfrwt>
<pdfrwt beam="1">  1       -1 0.53141390E-02 0.48995608E+02</pdfrwt>
<totfact> 0.44602223E+05</totfact>
</mgrwt>
</event>
<event>
 4    1  0.2051373E-002  0.8383805E+02  0.7818608E-02  0.1318499E+00
         -1   -1    0    0  501    0 -0.00000000000E+00  0.00000000000E+00  0.18497060280E+02  0.18497060966E+02  0.50400000000E-02 0.  1.
          1   -1    0    0    0  501  0.00000000000E+00 -0.00000000000E+00 -0.94999120096E+02  0.94999120229E+02  0.50400000000E-02 0.  1.
          2    1    1    2    0  502  0.25050330132E+02  0.27261266885E+02 -0.64865620003E+02  0.74687645409E+02  0.25500000000E-02 0.  1.
         -2    1    1    2  502    0 -0.25050330132E+02 -0.27261266885E+02 -0.11636439813E+02  0.38808535787E+02  0.25500000000E-02 0.  1.
<mgrwt>
<rscale>  0 0.83838046E+02</rscale>
<asrwt>0</asrwt>
<pdfrwt beam="2">  1        1 0.14615249E-01 0.83838046E+02</pdfrwt>
<pdfrwt beam="1">  1       -1 0.28457017E-02 0.83838046E+02</pdfrwt>
<totfact> 0.13005154E+05</totfact>
</mgrwt>
</event>
<event>
 4    1  0.2051373E-002  0.5040064E+03  0.7818608E-02  0.1012738E+00
         -1   -1    0    0  501    0 -0.00000000000E+00  0.00000000000E+00  0.28387960224E+03  0.28387960228E+03  0.50400000000E-02 0.  1.
          1   -1    0    0    0  501  0.00000000000E+00 -0.00000000000E+00 -0.22370615861E+03  0.22370615867E+03  0.50400000000E-02 0.  1.
          2    1    1    2    0  502  0.93135923755E+02 -0.19240489465E+02 -0.20493967869E+03  0.22593089350E+03  0.25500000000E-02 0. -1.
         -2    1    1    2  502    0 -0.93135923755E+02  0.19240489465E+02  0.26511312232E+03  0.28165486745E+03  0.25500000000E-02 0. -1.
<mgrwt>
<rscale>  0 0.50400641E+03</rscale>
<asrwt>0</asrwt>
<pdfrwt beam="2">  1        1 0.34416332E-01 0.50400641E+03</pdfrwt>
<pdfrwt beam="1">  1       -1 0.43673785E-01 0.50400641E+03</pdfrwt>
<totfact> 0.67088133E+02</totfact>
</mgrwt>
</event>
<event>
 4    1  0.2051373E-002  0.4981948E+02  0.7818608E-02  0.1446318E+00
          1   -1    0    0    0  501  0.00000000000E+00  0.00000000000E+00  0.47042995349E+03  0.47042995352E+03  0.50400000000E-02 0.  1.
         -1   -1    0    0  501    0 -0.00000000000E+00 -0.00000000000E+00 -0.13189911191E+01  0.13190007482E+01  0.50400000000E-02 0.  1.
          2    1    1    2    0  502  0.22486852868E+02  0.56457011341E+01  0.32080430793E+03  0.32164100560E+03  0.25500000000E-02 0.  1.
         -2    1    1    2  502    0 -0.22486852868E+02 -0.56457011341E+01  0.14830665445E+03  0.15010794867E+03  0.25500000000E-02 0.  1.
<mgrwt>
<rscale>  0 0.49819482E+02</rscale>
<asrwt>0</asrwt>
<pdfrwt beam="1">  1        1 0.72373887E-01 0.49819482E+02</pdfrwt>
<pdfrwt beam="2">  1       -1 0.20292232E-03 0.49819482E+02</pdfrwt>
<totfact> 0.65289343E+05</totfact>
</mgrwt>
</event>
<event>
 4    1  0.2051373E-002  0.5779041E+02  0.7818608E-02  0.1407345E+00
          1   -1    0    0    0  501  0.00000000000E+00  0.00000000000E+00  0.10592759196E+02  0.10592760395E+02  0.50400000000E-02 0. -1.
         -1   -1    0    0  501    0 -0.00000000000E+00 -0.00000000000E+00 -0.78821100852E+02  0.78821101013E+02  0.50400000000E-02 0. -1.
          2    1    1    2    0  502 -0.98907442910E+01 -0.24859324831E+02 -0.51000748486E+02  0.57592440531E+02  0.25500000000E-02 0. -1.
         -2    1    1    2  502    0  0.98907442910E+01  0.24859324831E+02 -0.17227593169E+02  0.31821420877E+02  0.25500000000E-02 0. -1.
<mgrwt>
<rscale>  0 0.57790414E+02</rscale>
<asrwt>0</asrwt>
<pdfrwt beam="1">  1        1 0.16296554E-02 0.57790414E+02</pdfrwt>
<pdfrwt beam="2">  1       -1 0.12126323E-01 0.57790414E+02</pdfrwt>
<totfact> 0.26940830E+05</totfact>
</mgrwt>
</event>
<event>
 4    1  0.2051373E-002  0.1507004E+03  0.7818608E-02  0.1199615E+00
          1   -1    0    0    0  501  0.00000000000E+00  0.00000000000E+00  0.13413451103E+04  0.13413451104E+04  0.50400000000E-02 0.  1.
         -1   -1    0    0  501    0 -0.00000000000E+00 -0.00000000000E+00 -0.42328024902E+01  0.42328054907E+01  0.50400000000E-02 0.  1.
          2    1    1    2    0  502  0.39438483825E+02  0.58067341071E+02  0.91315406277E+03  0.91584799638E+03  0.25500000000E-02 0. -1.
         -2    1    1    2  502    0 -0.39438483825E+02 -0.58067341071E+02  0.42395824509E+03  0.42972991947E+03  0.25500000000E-02 0. -1.
<mgrwt>
<rscale>  0 0.15070038E+03</rscale>
<asrwt>0</asrwt>
<pdfrwt beam="1">  1        1 0.20636096E+00 0.15070038E+03</pdfrwt>
<pdfrwt beam="2">  1       -1 0.65120005E-03 0.15070038E+03</pdfrwt>
<totfact> 0.30732462E+04</totfact>
</mgrwt>
</event>
<event>
 4    1  0.2051373E-002  0.6373361E+02  0.7818608E-02  0.1382799E+00
          1   -1    0    0    0  501  0.00000000000E+00  0.00000000000E+00  0.39084922904E+02  0.39084923229E+02  0.50400000000E-02 0. -1.
         -1   -1    0    0  501    0 -0.00000000000E+00 -0.00000000000E+00 -0.25981716638E+02  0.25981717127E+02  0.50400000000E-02 0. -1.
          2    1    1    2    0  502  0.59028263365E+00  0.22223268260E+02 -0.16757295267E+02  0.27839343328E+02  0.25500000000E-02 0.  1.
         -2    1    1    2  502    0 -0.59028263365E+00 -0.22223268260E+02  0.29860501533E+02  0.37227297028E+02  0.25500000000E-02 0.  1.
<mgrwt>
<rscale>  0 0.63733615E+02</rscale>
<asrwt>0</asrwt>
<pdfrwt beam="1">  1        1 0.60130652E-02 0.63733615E+02</pdfrwt>
<pdfrwt beam="2">  1       -1 0.39971872E-02 0.63733615E+02</pdfrwt>
<totfact> 0.24135053E+05</totfact>
</mgrwt>
</event>
<event>
 4    1  0.2051373E-002  0.5150856E+02  0.7818608E-02  0.1437371E+00
         -1   -1    0    0  501    0 -0.00000000000E+00  0.00000000000E+00  0.84333302147E+00  0.84334808158E+00  0.50400000000E-02 0.  1.
          1   -1    0    0    0  501  0.00000000000E+00 -0.00000000000E+00 -0.78649470294E+03  0.78649470295E+03  0.50400000000E-02 0.  1.
          2    1    1    2    0  502 -0.92294816195E+01  0.19498126128E+02 -0.17778057365E+03  0.17908459629E+03  0.25500000000E-02 0. -1.
         -2    1    1    2  502    0  0.92294816195E+01 -0.19498126128E+02 -0.60787079626E+03  0.60825345475E+03  0.25500000000E-02 0. -1.
<mgrwt>
<rscale>  0 0.51508558E+02</rscale>
<asrwt>0</asrwt>
<pdfrwt beam="2">  1        1 0.12099860E+00 0.51508558E+02</pdfrwt>
<pdfrwt beam="1">  1       -1 0.12974533E-03 0.51508558E+02</pdfrwt>
<totfact> 0.61310623E+05</totfact>
</mgrwt>
</event>
<event>
 4    1  0.2051373E-002  0.5896233E+02  0.7818608E-02  0.1402239E+00
         -1   -1    0    0  501    0 -0.00000000000E+00  0.00000000000E+00  0.71188929451E+00  0.71190713527E+00  0.50400000000E-02 0. -1.
          1   -1    0    0    0  501  0.00000000000E+00 -0.00000000000E+00 -0.12208755057E+04  0.12208755057E+04  0.50400000000E-02 0. -1.
          2    1    1    2    0  502  0.17512369850E+02  0.10565980307E+02 -0.10499773883E+04  0.10501765751E+04  0.25500000000E-02 0. -1.
         -2    1    1    2  502    0 -0.17512369850E+02 -0.10565980307E+02 -0.17018622810E+03  0.17141083769E+03  0.25500000000E-02 0. -1.
<mgrwt>
<rscale>  0 0.58962331E+02</rscale>
<asrwt>0</asrwt>
<pdfrwt beam="2">  1        1 0.18782533E+00 0.58962331E+02</pdfrwt>
<pdfrwt beam="1">  1       -1 0.10952378E-03 0.58962331E+02</pdfrwt>
<totfact> 0.39012690E+05</totfact>
</mgrwt>
</event>
<event>
 4    1  0.2051373E-002  0.5086277E+02  0.7818608E-02  0.1440743E+00
          1   -1    0    0    0  501  0.00000000000E+00  0.00000000000E+00  0.58890695124E+01  0.58890716691E+01  0.50400000000E-02 0.  1.
         -1   -1    0    0  501    0 -0.00000000000E+00 -0.00000000000E+00 -0.10982299434E+03  0.10982299445E+03  0.50400000000E-02 0.  1.
          2    1    1    2    0  502 -0.22946414706E+00 -0.24038670208E+02 -0.70843181046E+02  0.74810872381E+02  0.25500000000E-02 0.  1.
         -2    1    1    2  502    0  0.22946414706E+00  0.24038670208E+02 -0.33090743780E+02  0.40901193743E+02  0.25500000000E-02 0.  1.
<mgrwt>
<rscale>  0 0.50862771E+02</rscale>
<asrwt>0</asrwt>
<pdfrwt beam="1">  1        1 0.90601095E-03 0.50862771E+02</pdfrwt>
<pdfrwt beam="2">  1       -1 0.16895844E-01 0.50862771E+02</pdfrwt>
<totfact> 0.35109483E+05</totfact>
</mgrwt>
</event>
<event>
 4    1  0.2051373E-002  0.6042236E+02  0.7818608E-02  0.1396068E+00
          1   -1    0    0    0  501  0.00000000000E+00  0.00000000000E+00  0.20487992716E+02  0.20487993336E+02  0.50400000000E-02 0. -1.
         -1   -1    0    0  501    0 -0.00000000000E+00 -0.00000000000E+00 -0.44548787454E+02  0.44548787739E+02  0.50400000000E-02 0. -1.
          2    1    1    2    0  502  0.29331008285E+02  0.80919834977E-01 -0.42387414128E+01  0.29635814993E+02  0.25500000000E-02 0.  1.
         -2    1    1    2  502    0 -0.29331008285E+02 -0.80919834977E-01 -0.19822053325E+02  0.35400966082E+02  0.25500000000E-02 0.  1.
<mgrwt>
<rscale>  0 0.60422356E+02</rscale>
<asrwt>0</asrwt>
<pdfrwt beam="1">  1        1 0.31519990E-02 0.60422356E+02</pdfrwt>
<pdfrwt beam="2">  1       -1 0.68536596E-02 0.60422356E+02</pdfrwt>
<totfact> 0.25931790E+05</totfact>
</mgrwt>
</event>
<event>
 4    1  0.2051373E-002  0.5141789E+02  0.7818608E-02  0.1437841E+00
          1   -1    0    0    0  501  0.00000000000E+00  0.00000000000E+00  0.15174188368E+03  0.15174188376E+03  0.50400000000E-02 0.  1.
         -1   -1    0    0  501    0 -0.00000000000E+00 -0.00000000000E+00 -0.43557496051E+01  0.43557525209E+01  0.50400000000E-02 0.  1.
          2    1    1    2    0  502  0.19526175642E+02 -0.12755719212E+02  0.10652672384E+03  0.10905009311E+03  0.25500000000E-02 0. -1.
         -2    1    1    2  502    0 -0.19526175642E+02  0.12755719212E+02  0.40859410227E+02  0.47047543171E+02  0.25500000000E-02 0. -1.
<mgrwt>
<rscale>  0 0.51417891E+02</rscale>
<asrwt>0</asrwt>
<pdfrwt beam="1">  1        1 0.23344907E-01 0.51417891E+02</pdfrwt>
<pdfrwt beam="2">  1       -1 0.67011550E-03 0.51417891E+02</pdfrwt>
<totfact> 0.50036645E+05</totfact>
</mgrwt>
</event>
<event>
 4    1  0.2051373E-002  0.6571732E+02  0.7818608E-02  0.1375293E+00
          1   -1    0    0    0  501  0.00000000000E+00  0.00000000000E+00  0.24891995761E+03  0.24891995766E+03  0.50400000000E-02 0. -1.
         -1   -1    0    0  501    0 -0.00000000000E+00 -0.00000000000E+00 -0.43375031593E+01  0.43375060875E+01  0.50400000000E-02 0. -1.
          2    1    1    2    0  502 -0.15390786151E+02 -0.21436794855E+02  0.19773787249E+03  0.19949104916E+03  0.25500000000E-02 0. -1.
         -2    1    1    2  502    0  0.15390786151E+02  0.21436794855E+02  0.46844581957E+02  0.53766414584E+02  0.25500000000E-02 0. -1.
<mgrwt>
<rscale>  0 0.65717318E+02</rscale>
<asrwt>0</asrwt>
<pdfrwt beam="1">  1        1 0.38295367E-01 0.65717318E+02</pdfrwt>
<pdfrwt beam="2">  1       -1 0.66730860E-03 0.65717318E+02</pdfrwt>
<totfact> 0.29181255E+05</totfact>
</mgrwt>
</event>
<event>
 4    1  0.2051373E-002  0.5353491E+02  0.7818608E-02  0.1427157E+00
         -1   -1    0    0  501    0 -0.00000000000E+00  0.00000000000E+00  0.14874900797E+02  0.14874901651E+02  0.50400000000E-02 0. -1.
          1   -1    0    0    0  501  0.00000000000E+00 -0.00000000000E+00 -0.48168162498E+02  0.48168162762E+02  0.50400000000E-02 0. -1.
          2    1    1    2    0  502  0.24047685864E+02  0.62727290850E+01 -0.49379790430E+01  0.25338152441E+02  0.25500000000E-02 0. -1.
         -2    1    1    2  502    0 -0.24047685864E+02 -0.62727290850E+01 -0.28355282658E+02  0.37704911971E+02  0.25500000000E-02 0. -1.
<mgrwt>
<rscale>  0 0.53534911E+02</rscale>
<asrwt>0</asrwt>
<pdfrwt beam="2">  1        1 0.74104866E-02 0.53534911E+02</pdfrwt>
<pdfrwt beam="1">  1       -1 0.22884464E-02 0.53534911E+02</pdfrwt>
<totfact> 0.38977562E+05</totfact>
</mgrwt>
</event>
<event>
 4    1  0.2051373E-002  0.8911378E+02  0.7818608E-02  0.1305012E+00
         -1   -1    0    0  501    0 -0.00000000000E+00  0.00000000000E+00  0.28647853903E+01  0.28647898237E+01  0.50400000000E-02 0. -1.
          1   -1    0    0    0  501  0.00000000000E+00 -0.00000000000E+00 -0.69300645778E+03  0.69300645779E+03  0.50400000000E-02 0. -1.
          2    1    1    2    0  502 -0.39172729562E+02 -0.21180166161E+02 -0.33345136421E+03  0.33641182274E+03  0.25500000000E-02 0. -1.
         -2    1    1    2  502    0  0.39172729562E+02  0.21180166161E+02 -0.35669030818E+03  0.35945942488E+03  0.25500000000E-02 0. -1.
<mgrwt>
<rscale>  0 0.89113777E+02</rscale>
<asrwt>0</asrwt>
<pdfrwt beam="2">  1        1 0.10661624E+00 0.89113777E+02</pdfrwt>
<pdfrwt beam="1">  1       -1 0.44073711E-03 0.89113777E+02</pdfrwt>
<totfact> 0.15104605E+05</totfact>
</mgrwt>
</event>
<event>
 4    1  0.2051373E-002  0.5829501E+02  0.7818608E-02  0.1405129E+00
          1   -1    0    0    0  501  0.00000000000E+00  0.00000000000E+00  0.57616996355E+03  0.57616996357E+03  0.50400000000E-02 0. -1.
         -1   -1    0    0  501    0 -0.00000000000E+00 -0.00000000000E+00 -0.14745208930E+01  0.14745295065E+01  0.50400000000E-02 0. -1.
          2    1    1    2    0  502  0.16084169002E+02 -0.21716727630E+02  0.17913524489E+03  0.18116222763E+03  0.25500000000E-02 0. -1.
         -2    1    1    2  502    0 -0.16084169002E+02  0.21716727630E+02  0.39556019777E+03  0.39648226545E+03  0.25500000000E-02 0. -1.
<mgrwt>
<rscale>  0 0.58295013E+02</rscale>
<asrwt>0</asrwt>
<pdfrwt beam="1">  1        1 0.88641539E-01 0.58295013E+02</pdfrwt>
<pdfrwt beam="2">  1       -1 0.22685002E-03 0.58295013E+02</pdfrwt>
<totfact> 0.44927207E+05</totfact>
</mgrwt>
</event>
<event>
 4    1  0.2051373E-002  0.4826903E+02  0.7818608E-02  0.1454908E+00
         -1   -1    0    0  501    0 -0.00000000000E+00  0.00000000000E+00  0.28144300533E+01  0.28144345660E+01  0.50400000000E-02 0. -1.
          1   -1    0    0    0  501  0.00000000000E+00 -0.00000000000E+00 -0.20696000091E+03  0.20696000097E+03  0.50400000000E-02 0. -1.
          2    1    1    2    0  502  0.65610107539E+01  0.23209197653E+02 -0.98281086350E+02  0.10119726112E+03  0.25500000000E-02 0.  1.
         -2    1    1    2  502    0 -0.65610107539E+01 -0.23209197653E+02 -0.10586448450E+03  0.10857717441E+03  0.25500000000E-02 0.  1.
<mgrwt>
<rscale>  0 0.48269035E+02</rscale>
<asrwt>0</asrwt>
<pdfrwt beam="2">  1        1 0.31839989E-01 0.48269035E+02</pdfrwt>
<pdfrwt beam="1">  1       -1 0.43298975E-03 0.48269035E+02</pdfrwt>
<totfact> 0.61740042E+05</totfact>
</mgrwt>
</event>
<event>
 4    1  0.2051373E-002  0.4916735E+02  0.7818608E-02  0.1449885E+00
          1   -1    0    0    0  501  0.00000000000E+00  0.00000000000E+00  0.13001336616E+01  0.13001434304E+01  0.50400000000E-02 0. -1.
         -1   -1    0    0  501    0 -0.00000000000E+00 -0.00000000000E+00 -0.46484054527E+03  0.46484054530E+03  0.50400000000E-02 0. -1.
          2    1    1    2    0  502  0.85738675323E+01 -0.22977177772E+02 -0.21563849106E+03  0.21702861732E+03  0.25500000000E-02 0.  1.
         -2    1    1    2  502    0 -0.85738675323E+01  0.22977177772E+02 -0.24790192055E+03  0.24911207141E+03  0.25500000000E-02 0.  1.
<mgrwt>
<rscale>  0 0.49167352E+02</rscale>
<asrwt>0</asrwt>
<pdfrwt beam="1">  1        1 0.20002169E-03 0.49167352E+02</pdfrwt>
<pdfrwt beam="2">  1       -1 0.71513798E-01 0.49167352E+02</pdfrwt>
<totfact> 0.23748840E+05</totfact>
</mgrwt>
</event>
<event>
 4    1  0.2051373E-002  0.4363155E+02  0.7818608E-02  0.1483070E+00
          1   -1    0    0    0  501  0.00000000000E+00  0.00000000000E+00  0.15906373488E+02  0.15906374287E+02  0.50400000000E-02 0.  1.
         -1   -1    0    0  501    0 -0.00000000000E+00 -0.00000000000E+00 -0.29920581811E+02  0.29920582235E+02  0.50400000000E-02 0.  1.
          2    1    1    2    0  502  0.14172795377E+02 -0.14183122092E+02  0.20218897251E+01  0.20152347894E+02  0.25500000000E-02 0.  1.
         -2    1    1    2  502    0 -0.14172795377E+02  0.14183122092E+02 -0.16036098048E+02  0.25674608628E+02  0.25500000000E-02 0.  1.
<mgrwt>
<rscale>  0 0.43631547E+02</rscale>
<asrwt>0</asrwt>
<pdfrwt beam="1">  1        1 0.24471345E-02 0.43631547E+02</pdfrwt>
<pdfrwt beam="2">  1       -1 0.46031665E-02 0.43631547E+02</pdfrwt>
<totfact> 0.59861007E+05</totfact>
</mgrwt>
</event>
<event>
 4    1  0.2051373E-002  0.8630380E+02  0.7818608E-02  0.1312058E+00
          1   -1    0    0    0  501  0.00000000000E+00  0.00000000000E+00  0.10308469959E+04  0.10308469959E+04  0.50400000000E-02 0.  1.
         -1   -1    0    0  501    0 -0.00000000000E+00 -0.00000000000E+00 -0.18063620382E+01  0.18063690693E+01  0.50400000000E-02 0.  1.
          2    1    1    2    0  502  0.35538091880E+02 -0.24441381021E+02  0.49869425262E+03  0.50055598556E+03  0.25500000000E-02 0.  1.
         -2    1    1    2  502    0 -0.35538091880E+02  0.24441381021E+02  0.53034638121E+03  0.53209737939E+03  0.25500000000E-02 0.  1.
<mgrwt>
<rscale>  0 0.86303801E+02</rscale>
<asrwt>0</asrwt>
<pdfrwt beam="1">  1        1 0.15859220E+00 0.86303801E+02</pdfrwt>
<pdfrwt beam="2">  1       -1 0.27790178E-03 0.86303801E+02</pdfrwt>
<totfact> 0.15587773E+05</totfact>
</mgrwt>
</event>
<event>
 4    1  0.2051373E-002  0.4419520E+02  0.7818608E-02  0.1479429E+00
         -1   -1    0    0  501    0 -0.00000000000E+00  0.00000000000E+00  0.14886368480E+01  0.14886453798E+01  0.50400000000E-02 0.  1.
          1   -1    0    0    0  501  0.00000000000E+00 -0.00000000000E+00 -0.32801993234E+03  0.32801993238E+03  0.50400000000E-02 0.  1.
          2    1    1    2    0  502  0.35808485311E+01 -0.20913234899E+02 -0.20929736607E+03  0.21037008656E+03  0.25500000000E-02 0.  1.
         -2    1    1    2  502    0 -0.35808485311E+01  0.20913234899E+02 -0.11723392942E+03  0.11913849120E+03  0.25500000000E-02 0.  1.
<mgrwt>
<rscale>  0 0.44195202E+02</rscale>
<asrwt>0</asrwt>
<pdfrwt beam="2">  1        1 0.50464548E-01 0.44195202E+02</pdfrwt>
<pdfrwt beam="1">  1       -1 0.22902197E-03 0.44195202E+02</pdfrwt>
<totfact> 0.83167208E+05</totfact>
</mgrwt>
</event>
<event>
 4    1  0.2051373E-002  0.5709125E+02  0.7818608E-02  0.1410460E+00
         -1   -1    0    0  501    0 -0.00000000000E+00  0.00000000000E+00  0.47268717326E+02  0.47268717594E+02  0.50400000000E-02 0. -1.
          1   -1    0    0    0  501  0.00000000000E+00 -0.00000000000E+00 -0.17238728670E+02  0.17238729407E+02  0.50400000000E-02 0. -1.
          2    1    1    2    0  502  0.17085103571E+01  0.26284982465E+02  0.25843747652E+01  0.26466928614E+02  0.25500000000E-02 0. -1.
         -2    1    1    2  502    0 -0.17085103571E+01 -0.26284982465E+02  0.27445613891E+02  0.38040518387E+02  0.25500000000E-02 0. -1.
<mgrwt>
<rscale>  0 0.57091247E+02</rscale>
<asrwt>0</asrwt>
<pdfrwt beam="2">  1        1 0.26521122E-02 0.57091247E+02</pdfrwt>
<pdfrwt beam="1">  1       -1 0.72721105E-02 0.57091247E+02</pdfrwt>
<totfact> 0.29644892E+05</totfact>
</mgrwt>
</event>
<event>
 4    1  0.2051373E-002  0.8859414E+02  0.7818608E-02  0.1306292E+00
          1   -1    0    0    0  501  0.00000000000E+00  0.00000000000E+00  0.71552822329E+03  0.71552822331E+03  0.50400000000E-02 0. -1.
         -1   -1    0    0  501    0 -0.00000000000E+00 -0.00000000000E+00 -0.27423500285E+01  0.27423546599E+01  0.50400000000E-02 0. -1.
          2    1    1    2    0  502  0.25212776498E+02  0.19206773841E+02  0.10550162357E+03  0.11015977869E+03  0.25500000000E-02 0.  1.
         -2    1    1    2  502    0 -0.25212776498E+02 -0.19206773841E+02  0.60728424969E+03  0.60811079927E+03  0.25500000000E-02 0.  1.
<mgrwt>
<rscale>  0 0.88594142E+02</rscale>
<asrwt>0</asrwt>
<pdfrwt beam="1">  1        1 0.11008130E+00 0.88594142E+02</pdfrwt>
<pdfrwt beam="2">  1       -1 0.42190022E-03 0.88594142E+02</pdfrwt>
<totfact> 0.15333326E+05</totfact>
</mgrwt>
</event>
<event>
 4    1  0.2051373E-002  0.9695223E+02  0.7818608E-02  0.1286839E+00
          1   -1    0    0    0  501  0.00000000000E+00  0.00000000000E+00  0.47517954549E+03  0.47517954551E+03  0.50400000000E-02 0.  1.
         -1   -1    0    0  501    0 -0.00000000000E+00 -0.00000000000E+00 -0.49453582090E+01  0.49453607772E+01  0.50400000000E-02 0.  1.
          2    1    1    2    0  502 -0.44981461593E+02  0.15840261570E+02  0.19203372140E+03  0.19786661147E+03  0.25500000000E-02 0.  1.
         -2    1    1    2  502    0  0.44981461593E+02 -0.15840261570E+02  0.27820046588E+03  0.28225829482E+03  0.25500000000E-02 0.  1.
<mgrwt>
<rscale>  0 0.96952229E+02</rscale>
<asrwt>0</asrwt>
<pdfrwt beam="1">  1        1 0.73104531E-01 0.96952229E+02</pdfrwt>
<pdfrwt beam="2">  1       -1 0.76082469E-03 0.96952229E+02</pdfrwt>
<totfact> 0.11752699E+05</totfact>
</mgrwt>
</event>
<event>
 4    1  0.2051373E-002  0.5013865E+02  0.7818608E-02  0.1444595E+00
         -1   -1    0    0  501    0 -0.00000000000E+00  0.00000000000E+00  0.80366401384E+01  0.80366417187E+01  0.50400000000E-02 0.  1.
          1   -1    0    0    0  501  0.00000000000E+00 -0.00000000000E+00 -0.78200708319E+02  0.78200708481E+02  0.50400000000E-02 0.  1.
          2    1    1    2    0  502  0.10993577321E+02 -0.20424398270E+02 -0.51440479398E+02  0.56428164193E+02  0.25500000000E-02 0. -1.
         -2    1    1    2  502    0 -0.10993577321E+02  0.20424398270E+02 -0.18723588782E+02  0.29809186006E+02  0.25500000000E-02 0. -1.
<mgrwt>
<rscale>  0 0.50138649E+02</rscale>
<asrwt>0</asrwt>
<pdfrwt beam="2">  1        1 0.12030878E-01 0.50138649E+02</pdfrwt>
<pdfrwt beam="1">  1       -1 0.12364064E-02 0.50138649E+02</pdfrwt>
<totfact> 0.48602463E+05</totfact>
</mgrwt>
</event>
<event>
 4    1  0.2051373E-002  0.4277449E+02  0.7818608E-02  0.1488733E+00
         -1   -1    0    0  501    0 -0.00000000000E+00  0.00000000000E+00  0.32363069495E+01  0.32363108740E+01  0.50400000000E-02 0.  1.
          1   -1    0    0    0  501  0.00000000000E+00 -0.00000000000E+00 -0.14133827925E+03  0.14133827934E+03  0.50400000000E-02 0.  1.
          2    1    1    2    0  502 -0.20104773569E+02 -0.69390885409E+01 -0.61446928957E+02  0.65023672264E+02  0.25500000000E-02 0.  1.
         -2    1    1    2  502    0  0.20104773569E+02  0.69390885409E+01 -0.76655043340E+02  0.79550917945E+02  0.25500000000E-02 0.  1.
<mgrwt>
<rscale>  0 0.42774495E+02</rscale>
<asrwt>0</asrwt>
<pdfrwt beam="2">  1        1 0.21744346E-01 0.42774495E+02</pdfrwt>
<pdfrwt beam="1">  1       -1 0.49789380E-03 0.42774495E+02</pdfrwt>
<totfact> 0.78293175E+05</totfact>
</mgrwt>
</event>
<event>
 4    1  0.2051373E-002  0.4030507E+02  0.7818608E-02  0.1505978E+00
         -1   -1    0    0  501    0 -0.00000000000E+00  0.00000000000E+00  0.17828634389E+01  0.17828705627E+01  0.50400000000E-02 0. -1.
          1   -1    0    0    0  501  0.00000000000E+00 -0.00000000000E+00 -0.22779300419E+03  0.22779300424E+03  0.50400000000E-02 0. -1.
          2    1    1    2    0  502  0.10959565512E+02  0.16910510280E+02 -0.11176756213E+03  0.11356964993E+03  0.25500000000E-02 0. -1.
         -2    1    1    2  502    0 -0.10959565512E+02 -0.16910510280E+02 -0.11424257862E+03  0.11600622488E+03  0.25500000000E-02 0. -1.
<mgrwt>
<rscale>  0 0.40305069E+02</rscale>
<asrwt>0</asrwt>
<pdfrwt beam="2">  1        1 0.35045055E-01 0.40305069E+02</pdfrwt>
<pdfrwt beam="1">  1       -1 0.27428742E-03 0.40305069E+02</pdfrwt>
<totfact> 0.97864663E+05</totfact>
</mgrwt>
</event>
<event>
 4    1  0.2051373E-002  0.1084379E+03  0.7818608E-02  0.1263490E+00
         -1   -1    0    0  501    0 -0.00000000000E+00  0.00000000000E+00  0.19043981703E+02  0.19043982370E+02  0.50400000000E-02 0. -1.
          1   -1    0    0    0  501  0.00000000000E+00 -0.00000000000E+00 -0.15436343629E+03  0.15436343637E+03  0.50400000000E-02 0. -1.
          2    1    1    2    0  502 -0.24682364750E+01  0.40387159093E+02 -0.12537251581E+03  0.13174020851E+03  0.25500000000E-02 0.  1.
         -2    1    1    2  502    0  0.24682364750E+01 -0.40387159093E+02 -0.99469387728E+01  0.41667210230E+02  0.25500000000E-02 0.  1.
<mgrwt>
<rscale>  0 0.10843790E+03</rscale>
<asrwt>0</asrwt>
<pdfrwt beam="2">  1        1 0.23748220E-01 0.10843790E+03</pdfrwt>
<pdfrwt beam="1">  1       -1 0.29298435E-02 0.10843790E+03</pdfrwt>
<totfact> 0.70284604E+04</totfact>
</mgrwt>
</event>
<event>
 4    1  0.2051373E-002  0.1129029E+03  0.7818608E-02  0.1255287E+00
         -1   -1    0    0  501    0 -0.00000000000E+00  0.00000000000E+00  0.20618371871E+02  0.20618372487E+02  0.50400000000E-02 0.  1.
          1   -1    0    0    0  501  0.00000000000E+00 -0.00000000000E+00 -0.15455951818E+03  0.15455951827E+03  0.50400000000E-02 0.  1.
          2    1    1    2    0  502  0.36494254875E+02 -0.13778851731E+02 -0.13028337884E+03  0.13599796396E+03  0.25500000000E-02 0.  1.
         -2    1    1    2  502    0 -0.36494254875E+02  0.13778851731E+02 -0.36577674744E+01  0.39179926790E+02  0.25500000000E-02 0.  1.
<mgrwt>
<rscale>  0 0.11290289E+03</rscale>
<asrwt>0</asrwt>
<pdfrwt beam="2">  1        1 0.23778387E-01 0.11290289E+03</pdfrwt>
<pdfrwt beam="1">  1       -1 0.31720574E-02 0.11290289E+03</pdfrwt>
<totfact> 0.62888372E+04</totfact>
</mgrwt>
</event>
<event>
 4    1  0.2051373E-002  0.7950137E+02  0.7818608E-02  0.1330472E+00
         -1   -1    0    0  501    0 -0.00000000000E+00  0.00000000000E+00  0.13548680656E+01  0.13548774398E+01  0.50400000000E-02 0.  1.
          1   -1    0    0    0  501  0.00000000000E+00 -0.00000000000E+00 -0.11662475505E+04  0.11662475505E+04  0.50400000000E-02 0.  1.
          2    1    1    2    0  502  0.27051695252E+02  0.26624475901E+02 -0.75588477977E+03  0.75683714050E+03  0.25500000000E-02 0.  1.
         -2    1    1    2  502    0 -0.27051695252E+02 -0.26624475901E+02 -0.40900790268E+03  0.41076528747E+03  0.25500000000E-02 0.  1.
<mgrwt>
<rscale>  0 0.79501372E+02</rscale>
<asrwt>0</asrwt>
<pdfrwt beam="2">  1        1 0.17942190E+00 0.79501372E+02</pdfrwt>
<pdfrwt beam="1">  1       -1 0.20844290E-03 0.79501372E+02</pdfrwt>
<totfact> 0.18483298E+05</totfact>
</mgrwt>
</event>
<event>
 4    1  0.2051373E-002  0.4754010E+02  0.7818608E-02  0.1459080E+00
         -1   -1    0    0  501    0 -0.00000000000E+00  0.00000000000E+00  0.98442071347E+01  0.98442084249E+01  0.50400000000E-02 0.  1.
          1   -1    0    0    0  501  0.00000000000E+00 -0.00000000000E+00 -0.57395695827E+02  0.57395696049E+02  0.50400000000E-02 0.  1.
          2    1    1    2    0  502 -0.14374440028E+02  0.18321334521E+02 -0.17034114959E+02  0.28852329259E+02  0.25500000000E-02 0. -1.
         -2    1    1    2  502    0  0.14374440028E+02 -0.18321334521E+02 -0.30517373733E+02  0.38387575214E+02  0.25500000000E-02 0. -1.
<mgrwt>
<rscale>  0 0.47540095E+02</rscale>
<asrwt>0</asrwt>
<pdfrwt beam="2">  1        1 0.88301069E-02 0.47540095E+02</pdfrwt>
<pdfrwt beam="1">  1       -1 0.15144936E-02 0.47540095E+02</pdfrwt>
<totfact> 0.53740984E+05</totfact>
</mgrwt>
</event>
<event>
 4    1  0.2051373E-002  0.4474852E+02  0.7818608E-02  0.1475918E+00
          1   -1    0    0    0  501  0.00000000000E+00  0.00000000000E+00  0.89483832994E+00  0.89485252323E+00  0.50400000000E-02 0. -1.
         -1   -1    0    0  501    0 -0.00000000000E+00 -0.00000000000E+00 -0.55943452605E+03  0.55943452608E+03  0.50400000000E-02 0. -1.
          2    1    1    2    0  502  0.15213136047E+01  0.22284707631E+02 -0.26301642983E+03  0.26396318864E+03  0.25500000000E-02 0.  1.
         -2    1    1    2  502    0 -0.15213136047E+01 -0.22284707631E+02 -0.29552325789E+03  0.29636618996E+03  0.25500000000E-02 0.  1.
<mgrwt>
<rscale>  0 0.44748517E+02</rscale>
<asrwt>0</asrwt>
<pdfrwt beam="1">  1        1 0.13766898E-03 0.44748517E+02</pdfrwt>
<pdfrwt beam="2">  1       -1 0.86066572E-01 0.44748517E+02</pdfrwt>
<totfact> 0.26651479E+05</totfact>
</mgrwt>
</event>
<event>
 4    1  0.2051373E-002  0.4065297E+02  0.7818608E-02  0.1503461E+00
          1   -1    0    0    0  501  0.00000000000E+00  0.00000000000E+00  0.41045896787E+03  0.41045896790E+03  0.50400000000E-02 0.  1.
         -1   -1    0    0  501    0 -0.00000000000E+00 -0.00000000000E+00 -0.10065886360E+01  0.10066012535E+01  0.50400000000E-02 0.  1.
          2    1    1    2    0  502 -0.53122761448E+00 -0.20153113813E+02  0.17845779339E+03  0.17959291252E+03  0.25500000000E-02 0. -1.
         -2    1    1    2  502    0  0.53122761448E+00  0.20153113813E+02  0.23099458585E+03  0.23187265664E+03  0.25500000000E-02 0. -1.
<mgrwt>
<rscale>  0 0.40652967E+02</rscale>
<asrwt>0</asrwt>
<pdfrwt beam="1">  1        1 0.63147606E-01 0.40652967E+02</pdfrwt>
<pdfrwt beam="2">  1       -1 0.15486059E-03 0.40652967E+02</pdfrwt>
<totfact> 0.10558820E+06</totfact>
</mgrwt>
</event>
<event>
 4    1  0.2051373E-002  0.6705827E+02  0.7818608E-02  0.1370392E+00
          1   -1    0    0    0  501  0.00000000000E+00  0.00000000000E+00  0.11691503197E+04  0.11691503197E+04  0.50400000000E-02 0.  1.
         -1   -1    0    0  501    0 -0.00000000000E+00 -0.00000000000E+00 -0.96154897846E+00  0.96156218706E+00  0.50400000000E-02 0.  1.
          2    1    1    2    0  502 -0.24565964455E+02  0.22150126710E+02  0.67980802813E+03  0.68061227570E+03  0.25500000000E-02 0. -1.
         -2    1    1    2  502    0  0.24565964455E+02 -0.22150126710E+02  0.48838074255E+03  0.48949960615E+03  0.25500000000E-02 0. -1.
<mgrwt>
<rscale>  0 0.67058274E+02</rscale>
<asrwt>0</asrwt>
<pdfrwt beam="1">  1        1 0.17986903E+00 0.67058274E+02</pdfrwt>
<pdfrwt beam="2">  1       -1 0.14793183E-03 0.67058274E+02</pdfrwt>
<totfact> 0.28677216E+05</totfact>
</mgrwt>
</event>
<event>
 4    1  0.2051373E-002  0.4375881E+02  0.7818608E-02  0.1482242E+00
         -1   -1    0    0  501    0 -0.00000000000E+00  0.00000000000E+00  0.97469135925E+00  0.97470438975E+00  0.50400000000E-02 0. -1.
          1   -1    0    0    0  501  0.00000000000E+00 -0.00000000000E+00 -0.49113521298E+03  0.49113521301E+03  0.50400000000E-02 0. -1.
          2    1    1    2    0  502 -0.18719471608E+02  0.97843728502E+01 -0.30924719992E+03  0.30996771321E+03  0.25500000000E-02 0. -1.
         -2    1    1    2  502    0  0.18719471608E+02 -0.97843728502E+01 -0.18091332171E+03  0.18214220419E+03  0.25500000000E-02 0. -1.
<mgrwt>
<rscale>  0 0.43758814E+02</rscale>
<asrwt>0</asrwt>
<pdfrwt beam="2">  1        1 0.75559067E-01 0.43758814E+02</pdfrwt>
<pdfrwt beam="1">  1       -1 0.14995391E-03 0.43758814E+02</pdfrwt>
<totfact> 0.90319275E+05</totfact>
</mgrwt>
</event>
<event>
 4    1  0.2051373E-002  0.5723837E+02  0.7818608E-02  0.1409801E+00
         -1   -1    0    0  501    0 -0.00000000000E+00  0.00000000000E+00  0.20964125700E+02  0.20964126306E+02  0.50400000000E-02 0. -1.
          1   -1    0    0    0  501  0.00000000000E+00 -0.00000000000E+00 -0.39069494038E+02  0.39069494363E+02  0.50400000000E-02 0. -1.
          2    1    1    2    0  502  0.64520892876E+01 -0.27237173492E+02 -0.15307535874E+02  0.31903193211E+02  0.25500000000E-02 0. -1.
         -2    1    1    2  502    0 -0.64520892876E+01  0.27237173492E+02 -0.27978324631E+01  0.28130427458E+02  0.25500000000E-02 0. -1.
<mgrwt>
<rscale>  0 0.57238372E+02</rscale>
<asrwt>0</asrwt>
<pdfrwt beam="2">  1        1 0.60106914E-02 0.57238372E+02</pdfrwt>
<pdfrwt beam="1">  1       -1 0.32252502E-02 0.57238372E+02</pdfrwt>
<totfact> 0.32061184E+05</totfact>
</mgrwt>
</event>
<event>
 4    1  0.2051373E-002  0.4506999E+02  0.7818608E-02  0.1473905E+00
         -1   -1    0    0  501    0 -0.00000000000E+00  0.00000000000E+00  0.44242715619E+03  0.44242715622E+03  0.50400000000E-02 0. -1.
          1   -1    0    0    0  501  0.00000000000E+00 -0.00000000000E+00 -0.11478129761E+01  0.11478240413E+01  0.50400000000E-02 0. -1.
          2    1    1    2    0  502 -0.14979875371E+02  0.15043198968E+02  0.29503020485E+03  0.29579302947E+03  0.25500000000E-02 0.  1.
         -2    1    1    2  502    0  0.14979875371E+02 -0.15043198968E+02  0.14624913836E+03  0.14778195079E+03  0.25500000000E-02 0.  1.
<mgrwt>
<rscale>  0 0.45069994E+02</rscale>
<asrwt>0</asrwt>
<pdfrwt beam="2">  1        1 0.17658734E-03 0.45069994E+02</pdfrwt>
<pdfrwt beam="1">  1       -1 0.68065765E-01 0.45069994E+02</pdfrwt>
<totfact> 0.30246202E+05</totfact>
</mgrwt>
</event>
<event>
 4    1  0.2051373E-002  0.5293989E+02  0.7818608E-02  0.1430100E+00
          1   -1    0    0    0  501  0.00000000000E+00  0.00000000000E+00  0.11015740227E+01  0.11015855524E+01  0.50400000000E-02 0. -1.
         -1   -1    0    0  501    0 -0.00000000000E+00 -0.00000000000E+00 -0.63604835857E+03  0.63604835859E+03  0.50400000000E-02 0. -1.
          2    1    1    2    0  502  0.19569068380E+02 -0.79302801898E+01 -0.12535207168E+03  0.12711797537E+03  0.25500000000E-02 0. -1.
         -2    1    1    2  502    0 -0.19569068380E+02  0.79302801898E+01 -0.50959471287E+03  0.51003196877E+03  0.25500000000E-02 0. -1.
<mgrwt>
<rscale>  0 0.52939892E+02</rscale>
<asrwt>0</asrwt>
<pdfrwt beam="1">  1        1 0.16947432E-03 0.52939892E+02</pdfrwt>
<pdfrwt beam="2">  1       -1 0.97853301E-01 0.52939892E+02</pdfrwt>
<totfact> 0.16034024E+05</totfact>
</mgrwt>
</event>
<event>
 4    1  0.2051373E-002  0.7504164E+02  0.7818608E-02  0.1343742E+00
         -1   -1    0    0  501    0 -0.00000000000E+00  0.00000000000E+00  0.12492893636E+01  0.12492995300E+01  0.50400000000E-02 0.  1.
          1   -1    0    0    0  501  0.00000000000E+00 -0.00000000000E+00 -0.11268854680E+04  0.11268854680E+04  0.50400000000E-02 0.  1.
          2    1    1    2    0  502  0.15225249873E+02 -0.15691757977E+02 -0.10441558146E+03  0.10668014417E+03  0.25500000000E-02 0.  1.
         -2    1    1    2  502    0 -0.15225249873E+02  0.15691757977E+02 -0.10212205972E+04  0.10214546234E+04  0.25500000000E-02 0.  1.
<mgrwt>
<rscale>  0 0.75041636E+02</rscale>
<asrwt>0</asrwt>
<pdfrwt beam="2">  1        1 0.17336618E+00 0.75041636E+02</pdfrwt>
<pdfrwt beam="1">  1       -1 0.19220005E-03 0.75041636E+02</pdfrwt>
<totfact> 0.21783564E+05</totfact>
</mgrwt>
</event>
<event>
 4    1  0.2051373E-002  0.4858535E+02  0.7818608E-02  0.1453125E+00
         -1   -1    0    0  501    0 -0.00000000000E+00  0.00000000000E+00  0.11873730909E+02  0.11873731978E+02  0.50400000000E-02 0. -1.
          1   -1    0    0    0  501  0.00000000000E+00 -0.00000000000E+00 -0.49700809314E+02  0.49700809569E+02  0.50400000000E-02 0. -1.
          2    1    1    2    0  502 -0.24212005413E+02 -0.15247095818E+01 -0.17316417057E+02  0.29806110978E+02  0.25500000000E-02 0. -1.
         -2    1    1    2  502    0  0.24212005413E+02  0.15247095818E+01 -0.20510661348E+02  0.31768430570E+02  0.25500000000E-02 0. -1.
<mgrwt>
<rscale>  0 0.48585351E+02</rscale>
<asrwt>0</asrwt>
<pdfrwt beam="2">  1        1 0.76462784E-02 0.48585351E+02</pdfrwt>
<pdfrwt beam="1">  1       -1 0.18267280E-02 0.48585351E+02</pdfrwt>
<totfact> 0.50132517E+05</totfact>
</mgrwt>
</event>
<event>
 4    1  0.2051373E-002  0.4545015E+02  0.7818608E-02  0.1471551E+00
          1   -1    0    0    0  501  0.00000000000E+00  0.00000000000E+00  0.26698093901E+03  0.26698093906E+03  0.50400000000E-02 0. -1.
         -1   -1    0    0  501    0 -0.00000000000E+00 -0.00000000000E+00 -0.19343261070E+01  0.19343326730E+01  0.50400000000E-02 0. -1.
          2    1    1    2    0  502 -0.14555225066E+02  0.16798756547E+02  0.10453516156E+03  0.10687213297E+03  0.25500000000E-02 0.  1.
         -2    1    1    2  502    0  0.14555225066E+02 -0.16798756547E+02  0.16051145135E+03  0.16204313876E+03  0.25500000000E-02 0.  1.
<mgrwt>
<rscale>  0 0.45450152E+02</rscale>
<asrwt>0</asrwt>
<pdfrwt beam="1">  1        1 0.41073966E-01 0.45450152E+02</pdfrwt>
<pdfrwt beam="2">  1       -1 0.29758932E-03 0.45450152E+02</pdfrwt>
<totfact> 0.74930486E+05</totfact>
</mgrwt>
</event>
<event>
 4    1  0.2051373E-002  0.4262782E+02  0.7818608E-02  0.1489718E+00
         -1   -1    0    0  501    0 -0.00000000000E+00  0.00000000000E+00  0.22143898712E+03  0.22143898718E+03  0.50400000000E-02 0.  1.
          1   -1    0    0    0  501  0.00000000000E+00 -0.00000000000E+00 -0.20514997280E+01  0.20515059190E+01  0.50400000000E-02 0.  1.
          2    1    1    2    0  502  0.90716306623E+01 -0.18910620596E+02  0.12957276232E+03  0.13125931128E+03  0.25500000000E-02 0.  1.
         -2    1    1    2  502    0 -0.90716306623E+01  0.18910620596E+02  0.89814725071E+02  0.92231181822E+02  0.25500000000E-02 0.  1.
<mgrwt>
<rscale>  0 0.42627818E+02</rscale>
<asrwt>0</asrwt>
<pdfrwt beam="2">  1        1 0.31561569E-03 0.42627818E+02</pdfrwt>
<pdfrwt beam="1">  1       -1 0.34067552E-01 0.42627818E+02</pdfrwt>
<totfact> 0.46063490E+05</totfact>
</mgrwt>
</event>
<event>
 4    1  0.2051373E-002  0.7182171E+02  0.7818608E-02  0.1354006E+00
         -1   -1    0    0  501    0 -0.00000000000E+00  0.00000000000E+00  0.40569008106E+01  0.40569039413E+01  0.50400000000E-02 0.  1.
          1   -1    0    0    0  501  0.00000000000E+00 -0.00000000000E+00 -0.31787542681E+03  0.31787542685E+03  0.50400000000E-02 0.  1.
          2    1    1    2    0  502 -0.18227707062E+02 -0.29868451168E+02 -0.12071117867E+03  0.12568039760E+03  0.25500000000E-02 0.  1.
         -2    1    1    2  502    0  0.18227707062E+02  0.29868451168E+02 -0.19310734733E+03  0.19625193318E+03  0.25500000000E-02 0.  1.
<mgrwt>
<rscale>  0 0.71821712E+02</rscale>
<asrwt>0</asrwt>
<pdfrwt beam="2">  1        1 0.48903893E-01 0.71821712E+02</pdfrwt>
<pdfrwt beam="1">  1       -1 0.62413908E-03 0.71821712E+02</pdfrwt>
<totfact> 0.24255647E+05</totfact>
</mgrwt>
</event>
<event>
 4    1  0.2051373E-002  0.6899681E+02  0.7818608E-02  0.1363538E+00
          1   -1    0    0    0  501  0.00000000000E+00  0.00000000000E+00  0.10909017969E+01  0.10909134393E+01  0.50400000000E-02 0. -1.
         -1   -1    0    0  501    0 -0.00000000000E+00 -0.00000000000E+00 -0.10909631772E+04  0.10909631773E+04  0.50400000000E-02 0. -1.
          2    1    1    2    0  502 -0.78812740969E+01  0.32105545590E+02 -0.70102832036E+03  0.70180737135E+03  0.25500000000E-02 0.  1.
         -2    1    1    2  502    0  0.78812740969E+01 -0.32105545590E+02 -0.38884395509E+03  0.39024671934E+03  0.25500000000E-02 0.  1.
<mgrwt>
<rscale>  0 0.68996813E+02</rscale>
<asrwt>0</asrwt>
<pdfrwt beam="1">  1        1 0.16783281E-03 0.68996813E+02</pdfrwt>
<pdfrwt beam="2">  1       -1 0.16783962E+00 0.68996813E+02</pdfrwt>
<totfact> 0.47391331E+04</totfact>
</mgrwt>
</event>
<event>
 4    1  0.2051373E-002  0.8456276E+02  0.7818608E-02  0.1316580E+00
         -1   -1    0    0  501    0 -0.00000000000E+00  0.00000000000E+00  0.62681601760E+02  0.62681601963E+02  0.50400000000E-02 0. -1.
          1   -1    0    0    0  501  0.00000000000E+00 -0.00000000000E+00 -0.28520574048E+02  0.28520574493E+02  0.50400000000E-02 0. -1.
          2    1    1    2    0  502 -0.21668387558E+02 -0.39208500431E+01 -0.21848084892E+02  0.31019846943E+02  0.25500000000E-02 0. -1.
         -2    1    1    2  502    0  0.21668387558E+02  0.39208500431E+01  0.56009112604E+02  0.60182329513E+02  0.25500000000E-02 0. -1.
<mgrwt>
<rscale>  0 0.84562765E+02</rscale>
<asrwt>0</asrwt>
<pdfrwt beam="2">  1        1 0.43877807E-02 0.84562765E+02</pdfrwt>
<pdfrwt beam="1">  1       -1 0.96433234E-02 0.84562765E+02</pdfrwt>
<totfact> 0.10661346E+05</totfact>
</mgrwt>
</event>
<event>
 4    1  0.2051373E-002  0.4991925E+02  0.7818608E-02  0.1445778E+00
          1   -1    0    0    0  501  0.00000000000E+00  0.00000000000E+00  0.32271971037E+01  0.32272010392E+01  0.50400000000E-02 0.  1.
         -1   -1    0    0  501    0 -0.00000000000E+00 -0.00000000000E+00 -0.19304137167E+03  0.19304137174E+03  0.50400000000E-02 0.  1.
          2    1    1    2    0  502 -0.61336971591E+01  0.24187988124E+02 -0.97067500477E+02  0.10022365322E+03  0.25500000000E-02 0. -1.
         -2    1    1    2  502    0  0.61336971591E+01 -0.24187988124E+02 -0.92746674092E+02  0.96044919553E+02  0.25500000000E-02 0. -1.
<mgrwt>
<rscale>  0 0.49919253E+02</rscale>
<asrwt>0</asrwt>
<pdfrwt beam="1">  1        1 0.49649232E-03 0.49919253E+02</pdfrwt>
<pdfrwt beam="2">  1       -1 0.29698664E-01 0.49919253E+02</pdfrwt>
<totfact> 0.32498943E+05</totfact>
</mgrwt>
</event>
<event>
 4    1  0.2051373E-002  0.1191415E+03  0.7818608E-02  0.1244520E+00
         -1   -1    0    0  501    0 -0.00000000000E+00  0.00000000000E+00  0.18940757209E+01  0.18940824264E+01  0.50400000000E-02 0. -1.
          1   -1    0    0    0  501  0.00000000000E+00 -0.00000000000E+00 -0.18735620756E+04  0.18735620756E+04  0.50400000000E-02 0. -1.
          2    1    1    2    0  502 -0.63416470891E+01 -0.38806345905E+02 -0.23141205238E+03  0.23472896490E+03  0.25500000000E-02 0.  1.
         -2    1    1    2  502    0  0.63416470891E+01  0.38806345905E+02 -0.16402559475E+04  0.16407271931E+04  0.25500000000E-02 0.  1.
<mgrwt>
<rscale>  0 0.11914151E+03</rscale>
<asrwt>0</asrwt>
<pdfrwt beam="2">  1        1 0.28823884E+00 0.11914151E+03</pdfrwt>
<pdfrwt beam="1">  1       -1 0.29139828E-03 0.11914151E+03</pdfrwt>
<totfact> 0.42614217E+04</totfact>
</mgrwt>
</event>
<event>
 4    1  0.2051373E-002  0.1642086E+03  0.7818608E-02  0.1184026E+00
         -1   -1    0    0  501    0 -0.00000000000E+00  0.00000000000E+00  0.10442454155E+02  0.10442455371E+02  0.50400000000E-02 0. -1.
          1   -1    0    0    0  501  0.00000000000E+00 -0.00000000000E+00 -0.64554862182E+03  0.64554862184E+03  0.50400000000E-02 0. -1.
          2    1    1    2    0  502 -0.16523367919E+02  0.70877762304E+02 -0.46938075071E+03  0.47498943990E+03  0.25500000000E-02 0.  1.
         -2    1    1    2  502    0  0.16523367919E+02 -0.70877762304E+02 -0.16572541696E+03  0.18100163731E+03  0.25500000000E-02 0.  1.
<mgrwt>
<rscale>  0 0.16420855E+03</rscale>
<asrwt>0</asrwt>
<pdfrwt beam="2">  1        1 0.99315142E-01 0.16420855E+03</pdfrwt>
<pdfrwt beam="1">  1       -1 0.16065320E-02 0.16420855E+03</pdfrwt>
<totfact> 0.28644846E+04</totfact>
</mgrwt>
</event>
<event>
 4    1  0.2051373E-002  0.8908966E+02  0.7818608E-02  0.1305071E+00
          1   -1    0    0    0  501  0.00000000000E+00  0.00000000000E+00  0.12636309483E+02  0.12636310488E+02  0.50400000000E-02 0. -1.
         -1   -1    0    0  501    0 -0.00000000000E+00 -0.00000000000E+00 -0.15702700006E+03  0.15702700014E+03  0.50400000000E-02 0. -1.
          2    1    1    2    0  502  0.19457847532E+02  0.34426432382E+02 -0.11124527746E+03  0.11806480780E+03  0.25500000000E-02 0.  1.
         -2    1    1    2  502    0 -0.19457847532E+02 -0.34426432382E+02 -0.33145413123E+02  0.51598502834E+02  0.25500000000E-02 0.  1.
<mgrwt>
<rscale>  0 0.89089660E+02</rscale>
<asrwt>0</asrwt>
<pdfrwt beam="1">  1        1 0.19440478E-02 0.89089660E+02</pdfrwt>
<pdfrwt beam="2">  1       -1 0.24157999E-01 0.89089660E+02</pdfrwt>
<totfact> 0.78558686E+04</totfact>
</mgrwt>
</event>
<event>
 4    1  0.2051373E-002  0.6610424E+02  0.7818608E-02  0.1373865E+00
          1   -1    0    0    0  501  0.00000000000E+00  0.00000000000E+00  0.17189518143E+02  0.17189518882E+02  0.50400000000E-02 0.  1.
         -1   -1    0    0  501    0 -0.00000000000E+00 -0.00000000000E+00 -0.63552839015E+02  0.63552839215E+02  0.50400000000E-02 0.  1.
          2    1    1    2    0  502 -0.79448775234E+01  0.32075644978E+02 -0.24023152800E+02  0.40854374999E+02  0.25500000000E-02 0.  1.
         -2    1    1    2  502    0  0.79448775234E+01 -0.32075644978E+02 -0.22340168072E+02  0.39887983098E+02  0.25500000000E-02 0.  1.
<mgrwt>
<rscale>  0 0.66104242E+02</rscale>
<asrwt>0</asrwt>
<pdfrwt beam="1">  1        1 0.26445414E-02 0.66104242E+02</pdfrwt>
<pdfrwt beam="2">  1       -1 0.97773598E-02 0.66104242E+02</pdfrwt>
<totfact> 0.19822509E+05</totfact>
</mgrwt>
</event>
<event>
 4    1  0.2051373E-002  0.5815341E+02  0.7818608E-02  0.1405749E+00
          1   -1    0    0    0  501  0.00000000000E+00  0.00000000000E+00  0.15695560127E+02  0.15695560936E+02  0.50400000000E-02 0.  1.
         -1   -1    0    0  501    0 -0.00000000000E+00 -0.00000000000E+00 -0.53865844998E+02  0.53865845233E+02  0.50400000000E-02 0.  1.
          2    1    1    2    0  502 -0.24038444181E+02 -0.16235418516E+02 -0.21483166822E+02  0.36096565989E+02  0.25500000000E-02 0.  1.
         -2    1    1    2  502    0  0.24038444181E+02  0.16235418516E+02 -0.16687118049E+02  0.33464840181E+02  0.25500000000E-02 0.  1.
<mgrwt>
<rscale>  0 0.58153406E+02</rscale>
<asrwt>0</asrwt>
<pdfrwt beam="1">  1        1 0.24147017E-02 0.58153406E+02</pdfrwt>
<pdfrwt beam="2">  1       -1 0.82870530E-02 0.58153406E+02</pdfrwt>
<totfact> 0.27890289E+05</totfact>
</mgrwt>
</event>
<event>
 4    1  0.2051373E-002  0.5313553E+02  0.7818608E-02  0.1429128E+00
         -1   -1    0    0  501    0 -0.00000000000E+00  0.00000000000E+00  0.13800603317E+01  0.13800695347E+01  0.50400000000E-02 0. -1.
          1   -1    0    0    0  501  0.00000000000E+00 -0.00000000000E+00 -0.51145864608E+03  0.51145864611E+03  0.50400000000E-02 0. -1.
          2    1    1    2    0  502 -0.10617150903E+02  0.22045262458E+02 -0.15514317424E+03  0.15706088632E+03  0.25500000000E-02 0.  1.
         -2    1    1    2  502    0  0.10617150903E+02 -0.22045262458E+02 -0.35493541151E+03  0.35577782933E+03  0.25500000000E-02 0.  1.
<mgrwt>
<rscale>  0 0.53135531E+02</rscale>
<asrwt>0</asrwt>
<pdfrwt beam="2">  1        1 0.78685795E-01 0.53135531E+02</pdfrwt>
<pdfrwt beam="1">  1       -1 0.21231809E-03 0.53135531E+02</pdfrwt>
<totfact> 0.56129712E+05</totfact>
</mgrwt>
</event>
<event>
 4    1  0.2051373E-002  0.6982928E+02  0.7818608E-02  0.1360675E+00
          1   -1    0    0    0  501  0.00000000000E+00  0.00000000000E+00  0.18691942207E+03  0.18691942214E+03  0.50400000000E-02 0.  1.
         -1   -1    0    0  501    0 -0.00000000000E+00 -0.00000000000E+00 -0.65216969888E+01  0.65216989362E+01  0.50400000000E-02 0.  1.
          2    1    1    2    0  502  0.21814052102E+02 -0.22280721198E+02  0.13371382449E+03  0.13730138482E+03  0.25500000000E-02 0.  1.
         -2    1    1    2  502    0 -0.21814052102E+02  0.22280721198E+02  0.46683900593E+02  0.56139736260E+02  0.25500000000E-02 0.  1.
<mgrwt>
<rscale>  0 0.69829278E+02</rscale>
<asrwt>0</asrwt>
<pdfrwt beam="1">  1        1 0.28756837E-01 0.69829278E+02</pdfrwt>
<pdfrwt beam="2">  1       -1 0.10033381E-02 0.69829278E+02</pdfrwt>
<totfact> 0.23661224E+05</totfact>
</mgrwt>
</event>
<event>
 4    1  0.2051373E-002  0.4399603E+02  0.7818608E-02  0.1480708E+00
          1   -1    0    0    0  501  0.00000000000E+00  0.00000000000E+00  0.63696839503E+03  0.63696839505E+03  0.50400000000E-02 0. -1.
         -1   -1    0    0  501    0 -0.00000000000E+00 -0.00000000000E+00 -0.75970397139E+00  0.75972068929E+00  0.50400000000E-02 0. -1.
          2    1    1    2    0  502  0.21140030765E+02 -0.43453822850E+01  0.37982278987E+03  0.38043545439E+03  0.25500000000E-02 0. -1.
         -2    1    1    2  502    0 -0.21140030765E+02  0.43453822850E+01  0.25638590119E+03  0.25729266135E+03  0.25500000000E-02 0. -1.
<mgrwt>
<rscale>  0 0.43996034E+02</rscale>
<asrwt>0</asrwt>
<pdfrwt beam="1">  1        1 0.97995544E-01 0.43996034E+02</pdfrwt>
<pdfrwt beam="2">  1       -1 0.11687834E-03 0.43996034E+02</pdfrwt>
<totfact> 0.90840555E+05</totfact>
</mgrwt>
</event>
<event>
 4    1  0.2051373E-002  0.5442633E+02  0.7818608E-02  0.1422831E+00
          1   -1    0    0    0  501  0.00000000000E+00  0.00000000000E+00  0.32188846322E+03  0.32188846326E+03  0.50400000000E-02 0. -1.
         -1   -1    0    0  501    0 -0.00000000000E+00 -0.00000000000E+00 -0.23006583174E+01  0.23006638379E+01  0.50400000000E-02 0. -1.
          2    1    1    2    0  502 -0.22358752038E+02 -0.78275874836E+01  0.80019060700E+02  0.83451992189E+02  0.25500000000E-02 0.  1.
         -2    1    1    2  502    0  0.22358752038E+02  0.78275874836E+01  0.23956874420E+03  0.24073713491E+03  0.25500000000E-02 0.  1.
<mgrwt>
<rscale>  0 0.54426327E+02</rscale>
<asrwt>0</asrwt>
<pdfrwt beam="1">  1        1 0.49521311E-01 0.54426327E+02</pdfrwt>
<pdfrwt beam="2">  1       -1 0.35394780E-03 0.54426327E+02</pdfrwt>
<totfact> 0.49402237E+05</totfact>
</mgrwt>
</event>
<event>
 4    1  0.2051373E-002  0.4760228E+02  0.7818608E-02  0.1458721E+00
         -1   -1    0    0  501    0 -0.00000000000E+00  0.00000000000E+00  0.25932558555E+00  0.25937455720E+00  0.50400000000E-02 0.  1.
          1   -1    0    0    0  501  0.00000000000E+00 -0.00000000000E+00 -0.21842844858E+04  0.21842844858E+04  0.50400000000E-02 0.  1.
          2    1    1    2    0  502  0.12029336786E+01  0.23299993094E+02 -0.87599231423E+03  0.87630295636E+03  0.25500000000E-02 0.  1.
         -2    1    1    2  502    0 -0.12029336786E+01 -0.23299993094E+02 -0.13080328460E+04  0.13082409040E+04  0.25500000000E-02 0.  1.
<mgrwt>
<rscale>  0 0.47602284E+02</rscale>
<asrwt>0</asrwt>
<pdfrwt beam="2">  1        1 0.33602904E+00 0.47602284E+02</pdfrwt>
<pdfrwt beam="1">  1       -1 0.39901761E-04 0.47602284E+02</pdfrwt>
<totfact> 0.36951993E+05</totfact>
</mgrwt>
</event>
<event>
 4    1  0.2051373E-002  0.4364526E+02  0.7818608E-02  0.1482981E+00
          1   -1    0    0    0  501  0.00000000000E+00  0.00000000000E+00  0.66878799187E+01  0.66878818177E+01  0.50400000000E-02 0. -1.
         -1   -1    0    0  501    0 -0.00000000000E+00 -0.00000000000E+00 -0.71207483331E+02  0.71207483509E+02  0.50400000000E-02 0. -1.
          2    1    1    2    0  502 -0.21032983269E+02  0.13085886702E+01 -0.22143565374E+02  0.30568550562E+02  0.25500000000E-02 0. -1.
         -2    1    1    2  502    0  0.21032983269E+02 -0.13085886702E+01 -0.42376038038E+02  0.47326814765E+02  0.25500000000E-02 0. -1.
<mgrwt>
<rscale>  0 0.43645260E+02</rscale>
<asrwt>0</asrwt>
<pdfrwt beam="1">  1        1 0.10289048E-02 0.43645260E+02</pdfrwt>
<pdfrwt beam="2">  1       -1 0.10954997E-01 0.43645260E+02</pdfrwt>
<totfact> 0.54639980E+05</totfact>
</mgrwt>
</event>
<event>
 4    1  0.2051373E-002  0.4847480E+02  0.7818608E-02  0.1453746E+00
         -1   -1    0    0  501    0 -0.00000000000E+00  0.00000000000E+00  0.10893198944E+01  0.10893315537E+01  0.50400000000E-02 0. -1.
          1   -1    0    0    0  501  0.00000000000E+00 -0.00000000000E+00 -0.53927989606E+03  0.53927989609E+03  0.50400000000E-02 0. -1.
          2    1    1    2    0  502 -0.74457416299E+01  0.21693793991E+02 -0.35643855977E+03  0.35717573639E+03  0.25500000000E-02 0. -1.
         -2    1    1    2  502    0  0.74457416299E+01 -0.21693793991E+02 -0.18175201640E+03  0.18319349125E+03  0.25500000000E-02 0. -1.
<mgrwt>
<rscale>  0 0.48474797E+02</rscale>
<asrwt>0</asrwt>
<pdfrwt beam="2">  1        1 0.82965926E-01 0.48474797E+02</pdfrwt>
<pdfrwt beam="1">  1       -1 0.16758901E-03 0.48474797E+02</pdfrwt>
<totfact> 0.70881353E+05</totfact>
</mgrwt>
</event>
<event>
 4    1  0.2051373E-002  0.4986424E+02  0.7818608E-02  0.1446075E+00
          1   -1    0    0    0  501  0.00000000000E+00  0.00000000000E+00  0.38258532712E+03  0.38258532715E+03  0.50400000000E-02 0. -1.
         -1   -1    0    0  501    0 -0.00000000000E+00 -0.00000000000E+00 -0.16247594605E+01  0.16247672776E+01  0.50400000000E-02 0. -1.
          2    1    1    2    0  502  0.15053593965E+02 -0.19754747355E+02  0.20727302710E+03  0.20875576280E+03  0.25500000000E-02 0.  1.
         -2    1    1    2  502    0 -0.15053593965E+02  0.19754747355E+02  0.17368754056E+03  0.17545433163E+03  0.25500000000E-02 0.  1.
<mgrwt>
<rscale>  0 0.49864241E+02</rscale>
<asrwt>0</asrwt>
<pdfrwt beam="1">  1        1 0.58859231E-01 0.49864241E+02</pdfrwt>
<pdfrwt beam="2">  1       -1 0.24996381E-03 0.49864241E+02</pdfrwt>
<totfact> 0.63274422E+05</totfact>
</mgrwt>
</event>
<event>
 4    1  0.2051373E-002  0.6200053E+02  0.7818608E-02  0.1389623E+00
         -1   -1    0    0  501    0 -0.00000000000E+00  0.00000000000E+00  0.14888309448E+03  0.14888309457E+03  0.50400000000E-02 0.  1.
          1   -1    0    0    0  501  0.00000000000E+00 -0.00000000000E+00 -0.64548385139E+01  0.64548404815E+01  0.50400000000E-02 0.  1.
          2    1    1    2    0  502 -0.19844272934E+02 -0.65913204919E+01  0.12855375067E+03  0.13024326275E+03  0.25500000000E-02 0. -1.
         -2    1    1    2  502    0  0.19844272934E+02  0.65913204919E+01  0.13874505303E+02  0.25094672303E+02  0.25500000000E-02 0. -1.
<mgrwt>
<rscale>  0 0.62000532E+02</rscale>
<asrwt>0</asrwt>
<pdfrwt beam="2">  1        1 0.99305230E-03 0.62000532E+02</pdfrwt>
<pdfrwt beam="1">  1       -1 0.22905090E-01 0.62000532E+02</pdfrwt>
<totfact> 0.20133270E+05</totfact>
</mgrwt>
</event>
<event>
 4    1  0.2051373E-002  0.6753037E+02  0.7818608E-02  0.1368698E+00
         -1   -1    0    0  501    0 -0.00000000000E+00  0.00000000000E+00  0.12938830468E+01  0.12938928628E+01  0.50400000000E-02 0. -1.
          1   -1    0    0    0  501  0.00000000000E+00 -0.00000000000E+00 -0.88113332018E+03  0.88113332020E+03  0.50400000000E-02 0. -1.
          2    1    1    2    0  502  0.13913603660E+02 -0.30505962354E+02 -0.38783830217E+03  0.38928492232E+03  0.25500000000E-02 0.  1.
         -2    1    1    2  502    0 -0.13913603660E+02  0.30505962354E+02 -0.49200113497E+03  0.49314229074E+03  0.25500000000E-02 0.  1.
<mgrwt>
<rscale>  0 0.67530372E+02</rscale>
<asrwt>0</asrwt>
<pdfrwt beam="2">  1        1 0.13555849E+00 0.67530372E+02</pdfrwt>
<pdfrwt beam="1">  1       -1 0.19906039E-03 0.67530372E+02</pdfrwt>
<totfact> 0.30525026E+05</totfact>
</mgrwt>
</event>
<event>
 4    1  0.2051373E-002  0.4662356E+02  0.7818608E-02  0.1464453E+00
         -1   -1    0    0  501    0 -0.00000000000E+00  0.00000000000E+00  0.52030689334E+01  0.52030713744E+01  0.50400000000E-02 0. -1.
          1   -1    0    0    0  501  0.00000000000E+00 -0.00000000000E+00 -0.10444582760E+03  0.10444582772E+03  0.50400000000E-02 0. -1.
          2    1    1    2    0  502 -0.18287822623E+02 -0.14063589094E+02 -0.41747272356E+02  0.47697628349E+02  0.25500000000E-02 0. -1.
         -2    1    1    2  502    0  0.18287822623E+02  0.14063589094E+02 -0.57495486307E+02  0.61951270743E+02  0.25500000000E-02 0. -1.
<mgrwt>
<rscale>  0 0.46623555E+02</rscale>
<asrwt>0</asrwt>
<pdfrwt beam="2">  1        1 0.16068587E-01 0.46623555E+02</pdfrwt>
<pdfrwt beam="1">  1       -1 0.80047242E-03 0.46623555E+02</pdfrwt>
<totfact> 0.60538019E+05</totfact>
</mgrwt>
</event>
<event>
 4    1  0.2051373E-002  0.4728765E+02  0.7818608E-02  0.1460545E+00
         -1   -1    0    0  501    0 -0.00000000000E+00  0.00000000000E+00  0.98687006958E+03  0.98687006959E+03  0.50400000000E-02 0.  1.
          1   -1    0    0    0  501  0.00000000000E+00 -0.00000000000E+00 -0.56645703036E+00  0.56647945139E+00  0.50400000000E-02 0.  1.
          2    1    1    2    0  502 -0.19481355464E+02  0.12754949187E+02  0.57878784937E+03  0.57925606300E+03  0.25500000000E-02 0.  1.
         -2    1    1    2  502    0  0.19481355464E+02 -0.12754949187E+02  0.40751576318E+03  0.40818048604E+03  0.25500000000E-02 0.  1.
<mgrwt>
<rscale>  0 0.47287654E+02</rscale>
<asrwt>0</asrwt>
<pdfrwt beam="2">  1        1 0.87149430E-04 0.47287654E+02</pdfrwt>
<pdfrwt beam="1">  1       -1 0.15182535E+00 0.47287654E+02</pdfrwt>
<totfact> 0.13895853E+05</totfact>
</mgrwt>
</event>
<event>
 4    1  0.2051373E-002  0.4095330E+02  0.7818608E-02  0.1501311E+00
         -1   -1    0    0  501    0 -0.00000000000E+00  0.00000000000E+00  0.12678233710E+02  0.12678234712E+02  0.50400000000E-02 0.  1.
          1   -1    0    0    0  501  0.00000000000E+00 -0.00000000000E+00 -0.33071896426E+02  0.33071896810E+02  0.50400000000E-02 0.  1.
          2    1    1    2    0  502 -0.13277283834E+02  0.15549515503E+02 -0.89631448633E+01  0.22325135402E+02  0.25500000000E-02 0. -1.
         -2    1    1    2  502    0  0.13277283834E+02 -0.15549515503E+02 -0.11430517853E+02  0.23424996120E+02  0.25500000000E-02 0. -1.
<mgrwt>
<rscale>  0 0.40953303E+02</rscale>
<asrwt>0</asrwt>
<pdfrwt beam="2">  1        1 0.50879841E-02 0.40953303E+02</pdfrwt>
<pdfrwt beam="1">  1       -1 0.19504976E-02 0.40953303E+02</pdfrwt>
<totfact> 0.74471998E+05</totfact>
</mgrwt>
</event>
<event>
 4    1  0.2051373E-002  0.4347717E+02  0.7818608E-02  0.1484079E+00
         -1   -1    0    0  501    0 -0.00000000000E+00  0.00000000000E+00  0.39068661262E+00  0.39071912019E+00  0.50400000000E-02 0.  1.
          1   -1    0    0    0  501  0.00000000000E+00 -0.00000000000E+00 -0.12095282373E+04  0.12095282373E+04  0.50400000000E-02 0.  1.
          2    1    1    2    0  502 -0.13768841619E+02  0.16821942479E+02 -0.60217368111E+03  0.60256593081E+03  0.25500000000E-02 0. -1.
         -2    1    1    2  502    0  0.13768841619E+02 -0.16821942479E+02 -0.60696386962E+03  0.60735302566E+03  0.25500000000E-02 0. -1.
<mgrwt>
<rscale>  0 0.43477174E+02</rscale>
<asrwt>0</asrwt>
<pdfrwt beam="2">  1        1 0.18607827E+00 0.43477174E+02</pdfrwt>
<pdfrwt beam="1">  1       -1 0.60109102E-04 0.43477174E+02</pdfrwt>
<totfact> 0.83648990E+05</totfact>
</mgrwt>
</event>
<event>
 4    1  0.2051373E-002  0.5961399E+02  0.7818608E-02  0.1399459E+00
         -1   -1    0    0  501    0 -0.00000000000E+00  0.00000000000E+00  0.10949673210E+04  0.10949673210E+04  0.50400000000E-02 0.  1.
          1   -1    0    0    0  501  0.00000000000E+00 -0.00000000000E+00 -0.81139262159E+00  0.81140827452E+00  0.50400000000E-02 0.  1.
          2    1    1    2    0  502 -0.24478257871E+02 -0.14588120224E+02  0.38635131266E+03  0.38740074234E+03  0.25500000000E-02 0. -1.
         -2    1    1    2  502    0  0.24478257871E+02  0.14588120224E+02  0.70780461570E+03  0.70837798694E+03  0.25500000000E-02 0. -1.
<mgrwt>
<rscale>  0 0.59613991E+02</rscale>
<asrwt>0</asrwt>
<pdfrwt beam="2">  1        1 0.12483029E-03 0.59613991E+02</pdfrwt>
<pdfrwt beam="1">  1       -1 0.16845725E+00 0.59613991E+02</pdfrwt>
<totfact> 0.68420449E+04</totfact>
</mgrwt>
</event>
<event>
 4    1  0.2051373E-002  0.5208319E+02  0.7818608E-02  0.1434419E+00
         -1   -1    0    0  501    0 -0.00000000000E+00  0.00000000000E+00  0.80026315896E+00  0.80027902958E+00  0.50400000000E-02 0.  1.
          1   -1    0    0    0  501  0.00000000000E+00 -0.00000000000E+00 -0.84741854661E+03  0.84741854662E+03  0.50400000000E-02 0.  1.
          2    1    1    2    0  502 -0.24837556727E+02 -0.74506627126E+01 -0.38426392968E+03  0.38513787694E+03  0.25500000000E-02 0.  1.
         -2    1    1    2  502    0  0.24837556727E+02  0.74506627126E+01 -0.46235435377E+03  0.46308094871E+03  0.25500000000E-02 0.  1.
<mgrwt>
<rscale>  0 0.52083187E+02</rscale>
<asrwt>0</asrwt>
<pdfrwt beam="2">  1        1 0.13037137E+00 0.52083187E+02</pdfrwt>
<pdfrwt beam="1">  1       -1 0.12311931E-03 0.52083187E+02</pdfrwt>
<totfact> 0.59185810E+05</totfact>
</mgrwt>
</event>
<event>
 4    1  0.2051373E-002  0.6194136E+02  0.7818608E-02  0.1389861E+00
          1   -1    0    0    0  501  0.00000000000E+00  0.00000000000E+00  0.32968338979E+01  0.32968377503E+01  0.50400000000E-02 0.  1.
         -1   -1    0    0  501    0 -0.00000000000E+00 -0.00000000000E+00 -0.29094046665E+03  0.29094046669E+03  0.50400000000E-02 0.  1.
          2    1    1    2    0  502  0.29563945136E+02  0.41565390363E+01 -0.10468498542E+03  0.10885885286E+03  0.25500000000E-02 0.  1.
         -2    1    1    2  502    0 -0.29563945136E+02 -0.41565390363E+01 -0.18295864733E+03  0.18537845158E+03  0.25500000000E-02 0.  1.
<mgrwt>
<rscale>  0 0.61941358E+02</rscale>
<asrwt>0</asrwt>
<pdfrwt beam="1">  1        1 0.50720574E-03 0.61941358E+02</pdfrwt>
<pdfrwt beam="2">  1       -1 0.44760052E-01 0.61941358E+02</pdfrwt>
<totfact> 0.16594621E+05</totfact>
</mgrwt>
</event>
<event>
 4    1  0.2051373E-002  0.5391972E+02  0.7818608E-02  0.1425278E+00
         -1   -1    0    0  501    0 -0.00000000000E+00  0.00000000000E+00  0.75437077890E+01  0.75437094727E+01  0.50400000000E-02 0. -1.
          1   -1    0    0    0  501  0.00000000000E+00 -0.00000000000E+00 -0.96349687417E+02  0.96349687548E+02  0.50400000000E-02 0. -1.
          2    1    1    2    0  502 -0.24905464364E+02  0.78416351841E+01 -0.31468815290E+02  0.40890827087E+02  0.25500000000E-02 0.  1.
         -2    1    1    2  502    0  0.24905464364E+02 -0.78416351841E+01 -0.57337164337E+02  0.63002569934E+02  0.25500000000E-02 0.  1.
<mgrwt>
<rscale>  0 0.53919717E+02</rscale>
<asrwt>0</asrwt>
<pdfrwt beam="2">  1        1 0.14823028E-01 0.53919717E+02</pdfrwt>
<pdfrwt beam="1">  1       -1 0.11605706E-02 0.53919717E+02</pdfrwt>
<totfact> 0.41484648E+05</totfact>
</mgrwt>
</event>
<event>
 4    1  0.2051373E-002  0.4392681E+02  0.7818608E-02  0.1481155E+00
         -1   -1    0    0  501    0 -0.00000000000E+00  0.00000000000E+00  0.69766987525E+00  0.69768807961E+00  0.50400000000E-02 0.  1.
          1   -1    0    0    0  501  0.00000000000E+00 -0.00000000000E+00 -0.69142271297E+03  0.69142271299E+03  0.50400000000E-02 0.  1.
          2    1    1    2    0  502  0.17466089519E+00 -0.20919841447E+02 -0.23999496399E+03  0.24090507055E+03  0.25500000000E-02 0. -1.
         -2    1    1    2  502    0 -0.17466089519E+00  0.20919841447E+02 -0.45073007911E+03  0.45121533052E+03  0.25500000000E-02 0. -1.
<mgrwt>
<rscale>  0 0.43926807E+02</rscale>
<asrwt>0</asrwt>
<pdfrwt beam="2">  1        1 0.10637218E+00 0.43926807E+02</pdfrwt>
<pdfrwt beam="1">  1       -1 0.10733578E-03 0.43926807E+02</pdfrwt>
<totfact> 0.91268615E+05</totfact>
</mgrwt>
</event>
<event>
 4    1  0.2051373E-002  0.6711158E+02  0.7818608E-02  0.1370200E+00
         -1   -1    0    0  501    0 -0.00000000000E+00  0.00000000000E+00  0.50232641220E+01  0.50232666504E+01  0.50400000000E-02 0. -1.
          1   -1    0    0    0  501  0.00000000000E+00 -0.00000000000E+00 -0.22415517924E+03  0.22415517930E+03  0.50400000000E-02 0. -1.
          2    1    1    2    0  502  0.41928481558E+01 -0.23222230727E+02 -0.19103366376E+03  0.19248561679E+03  0.25500000000E-02 0.  1.
         -2    1    1    2  502    0 -0.41928481558E+01  0.23222230727E+02 -0.28098251360E+02  0.36692829158E+02  0.25500000000E-02 0.  1.
<mgrwt>
<rscale>  0 0.67111578E+02</rscale>
<asrwt>0</asrwt>
<pdfrwt beam="2">  1        1 0.34485405E-01 0.67111578E+02</pdfrwt>
<pdfrwt beam="1">  1       -1 0.77281024E-03 0.67111578E+02</pdfrwt>
<totfact> 0.27113822E+05</totfact>
</mgrwt>
</event>
<event>
 4    1  0.2051373E-002  0.6351310E+02  0.7818608E-02  0.1383654E+00
         -1   -1    0    0  501    0 -0.00000000000E+00  0.00000000000E+00  0.23328533605E+01  0.23328588048E+01  0.50400000000E-02 0.  1.
          1   -1    0    0    0  501  0.00000000000E+00 -0.00000000000E+00 -0.43229348805E+03  0.43229348808E+03  0.50400000000E-02 0.  1.
          2    1    1    2    0  502 -0.83566938578E+01 -0.27808374459E+02 -0.12698902483E+03  0.13026646712E+03  0.25500000000E-02 0. -1.
         -2    1    1    2  502    0  0.83566938578E+01  0.27808374459E+02 -0.30297160986E+03  0.30435987976E+03  0.25500000000E-02 0. -1.
<mgrwt>
<rscale>  0 0.63513101E+02</rscale>
<asrwt>0</asrwt>
<pdfrwt beam="2">  1        1 0.66506627E-01 0.63513101E+02</pdfrwt>
<pdfrwt beam="1">  1       -1 0.35890128E-03 0.63513101E+02</pdfrwt>
<totfact> 0.35014824E+05</totfact>
</mgrwt>
</event>
<event>
 4    1  0.2051373E-002  0.4391661E+02  0.7818608E-02  0.1481221E+00
          1   -1    0    0    0  501  0.00000000000E+00  0.00000000000E+00  0.53167380948E+03  0.53167380951E+03  0.50400000000E-02 0. -1.
         -1   -1    0    0  501    0 -0.00000000000E+00 -0.00000000000E+00 -0.90687818134E+00  0.90689218620E+00  0.50400000000E-02 0. -1.
          2    1    1    2    0  502 -0.65993701857E+01 -0.20231256249E+02  0.33103986611E+03  0.33172315020E+03  0.25500000000E-02 0.  1.
         -2    1    1    2  502    0  0.65993701857E+01  0.20231256249E+02  0.19972706519E+03  0.20085755150E+03  0.25500000000E-02 0.  1.
<mgrwt>
<rscale>  0 0.43916608E+02</rscale>
<asrwt>0</asrwt>
<pdfrwt beam="1">  1        1 0.81795982E-01 0.43916608E+02</pdfrwt>
<pdfrwt beam="2">  1       -1 0.13952078E-03 0.43916608E+02</pdfrwt>
<totfact> 0.90241653E+05</totfact>
</mgrwt>
</event>
<event>
 4    1  0.2051373E-002  0.4677367E+02  0.7818608E-02  0.1463563E+00
         -1   -1    0    0  501    0 -0.00000000000E+00  0.00000000000E+00  0.13590086667E+01  0.13590180123E+01  0.50400000000E-02 0. -1.
          1   -1    0    0    0  501  0.00000000000E+00 -0.00000000000E+00 -0.40245674358E+03  0.40245674362E+03  0.50400000000E-02 0. -1.
          2    1    1    2    0  502  0.91575478760E+01 -0.21518799188E+02 -0.20190537635E+03  0.20325525924E+03  0.25500000000E-02 0.  1.
         -2    1    1    2  502    0 -0.91575478760E+01  0.21518799188E+02 -0.19919235856E+03  0.20056050239E+03  0.25500000000E-02 0.  1.
<mgrwt>
<rscale>  0 0.46773672E+02</rscale>
<asrwt>0</asrwt>
<pdfrwt beam="2">  1        1 0.61916327E-01 0.46773672E+02</pdfrwt>
<pdfrwt beam="1">  1       -1 0.20907930E-03 0.46773672E+02</pdfrwt>
<totfact> 0.74717589E+05</totfact>
</mgrwt>
</event>
<event>
 4    1  0.2051373E-002  0.4618965E+02  0.7818608E-02  0.1467049E+00
         -1   -1    0    0  501    0 -0.00000000000E+00  0.00000000000E+00  0.99479999947E+02  0.99480000074E+02  0.50400000000E-02 0.  1.
          1   -1    0    0    0  501  0.00000000000E+00 -0.00000000000E+00 -0.53615872208E+01  0.53615895897E+01  0.50400000000E-02 0.  1.
          2    1    1    2    0  502  0.18954387446E+02  0.72724869891E+01  0.72049046827E+02  0.74854679384E+02  0.25500000000E-02 0. -1.
         -2    1    1    2  502    0 -0.18954387446E+02 -0.72724869891E+01  0.22069365899E+02  0.29986910280E+02  0.25500000000E-02 0. -1.
<mgrwt>
<rscale>  0 0.46189645E+02</rscale>
<asrwt>0</asrwt>
<pdfrwt beam="2">  1        1 0.82485979E-03 0.46189645E+02</pdfrwt>
<pdfrwt beam="1">  1       -1 0.15304615E-01 0.46189645E+02</pdfrwt>
<totfact> 0.45284167E+05</totfact>
</mgrwt>
</event>
<event>
 4    1  0.2051373E-002  0.4173999E+02  0.7818608E-02  0.1495784E+00
         -1   -1    0    0  501    0 -0.00000000000E+00  0.00000000000E+00  0.30958362480E+01  0.30958403505E+01  0.50400000000E-02 0. -1.
          1   -1    0    0    0  501  0.00000000000E+00 -0.00000000000E+00 -0.14069101249E+03  0.14069101258E+03  0.50400000000E-02 0. -1.
          2    1    1    2    0  502 -0.55428021489E+01 -0.20036589981E+02 -0.62474637620E+02  0.65842751659E+02  0.25500000000E-02 0. -1.
         -2    1    1    2  502    0  0.55428021489E+01  0.20036589981E+02 -0.75120538619E+02  0.77944101269E+02  0.25500000000E-02 0. -1.
<mgrwt>
<rscale>  0 0.41739987E+02</rscale>
<asrwt>0</asrwt>
<pdfrwt beam="2">  1        1 0.21644767E-01 0.41739987E+02</pdfrwt>
<pdfrwt beam="1">  1       -1 0.47628293E-03 0.41739987E+02</pdfrwt>
<totfact> 0.83094963E+05</totfact>
</mgrwt>
</event>
<event>
 4    1  0.2051373E-002  0.8020438E+02  0.7818608E-02  0.1328472E+00
         -1   -1    0    0  501    0 -0.00000000000E+00  0.00000000000E+00  0.85293437521E+00  0.85294926580E+00  0.50400000000E-02 0.  1.
          1   -1    0    0    0  501  0.00000000000E+00 -0.00000000000E+00 -0.18854577038E+04  0.18854577038E+04  0.50400000000E-02 0.  1.
          2    1    1    2    0  502 -0.27023152211E+02 -0.20899087204E+02 -0.44831629037E+03  0.44961596816E+03  0.25500000000E-02 0.  1.
         -2    1    1    2  502    0  0.27023152211E+02  0.20899087204E+02 -0.14362884791E+04  0.14366946849E+04  0.25500000000E-02 0.  1.
<mgrwt>
<rscale>  0 0.80204382E+02</rscale>
<asrwt>0</asrwt>
<pdfrwt beam="2">  1        1 0.29006708E+00 0.80204382E+02</pdfrwt>
<pdfrwt beam="1">  1       -1 0.13122333E-03 0.80204382E+02</pdfrwt>
<totfact> 0.12161503E+05</totfact>
</mgrwt>
</event>
<event>
 4    1  0.2051373E-002  0.5365129E+02  0.7818608E-02  0.1426587E+00
         -1   -1    0    0  501    0 -0.00000000000E+00  0.00000000000E+00  0.92981829637E+03  0.92981829638E+03  0.50400000000E-02 0.  1.
          1   -1    0    0    0  501  0.00000000000E+00 -0.00000000000E+00 -0.77392281535E+00  0.77393922612E+00  0.50400000000E-02 0.  1.
          2    1    1    2    0  502 -0.17366355849E+02  0.19086472495E+02  0.59166554030E+03  0.59222799270E+03  0.25500000000E-02 0.  1.
         -2    1    1    2  502    0  0.17366355849E+02 -0.19086472495E+02  0.33737883325E+03  0.33836424290E+03  0.25500000000E-02 0.  1.
<mgrwt>
<rscale>  0 0.53651290E+02</rscale>
<asrwt>0</asrwt>
<pdfrwt beam="2">  1        1 0.11906592E-03 0.53651290E+02</pdfrwt>
<pdfrwt beam="1">  1       -1 0.14304944E+00 0.53651290E+02</pdfrwt>
<totfact> 0.10881681E+05</totfact>
</mgrwt>
</event>
<event>
 4    1  0.2051373E-002  0.4375117E+02  0.7818608E-02  0.1482292E+00
         -1   -1    0    0  501    0 -0.00000000000E+00  0.00000000000E+00  0.98693965573E+00  0.98695252452E+00  0.50400000000E-02 0. -1.
          1   -1    0    0    0  501  0.00000000000E+00 -0.00000000000E+00 -0.48487073275E+03  0.48487073277E+03  0.50400000000E-02 0. -1.
          2    1    1    2    0  502  0.65715212512E+01  0.19353915524E+02 -0.15536378849E+03  0.15670247515E+03  0.25500000000E-02 0.  1.
         -2    1    1    2  502    0 -0.65715212512E+01 -0.19353915524E+02 -0.32852000460E+03  0.32915521014E+03  0.25500000000E-02 0.  1.
<mgrwt>
<rscale>  0 0.43751173E+02</rscale>
<asrwt>0</asrwt>
<pdfrwt beam="2">  1        1 0.74595308E-01 0.43751173E+02</pdfrwt>
<pdfrwt beam="1">  1       -1 0.15183825E-03 0.43751173E+02</pdfrwt>
<totfact> 0.90228458E+05</totfact>
</mgrwt>
</event>
<event>
 4    1  0.2051373E-002  0.4382523E+02  0.7818608E-02  0.1481812E+00
         -1   -1    0    0  501    0 -0.00000000000E+00  0.00000000000E+00  0.22742616428E+00  0.22748200324E+00  0.50400000000E-02 0. -1.
          1   -1    0    0    0  501  0.00000000000E+00 -0.00000000000E+00 -0.21110313929E+04  0.21110313929E+04  0.50400000000E-02 0. -1.
          2    1    1    2    0  502 -0.88820201125E+01 -0.19222382715E+02 -0.78385652200E+03  0.78414248537E+03  0.25500000000E-02 0. -1.
         -2    1    1    2  502    0  0.88820201125E+01  0.19222382715E+02 -0.13269474447E+04  0.13271163895E+04  0.25500000000E-02 0. -1.
<mgrwt>
<rscale>  0 0.43825231E+02</rscale>
<asrwt>0</asrwt>
<pdfrwt beam="2">  1        1 0.32475837E+00 0.43825231E+02</pdfrwt>
<pdfrwt beam="1">  1       -1 0.34994627E-04 0.43825231E+02</pdfrwt>
<totfact> 0.48105416E+05</totfact>
</mgrwt>
</event>
<event>
 4    1  0.2051373E-002  0.5208614E+02  0.7818608E-02  0.1434404E+00
         -1   -1    0    0  501    0 -0.00000000000E+00  0.00000000000E+00  0.64411895190E+00  0.64413866970E+00  0.50400000000E-02 0.  1.
          1   -1    0    0    0  501  0.00000000000E+00 -0.00000000000E+00 -0.10529594539E+04  0.10529594539E+04  0.50400000000E-02 0.  1.
          2    1    1    2    0  502 -0.15640586814E+02 -0.19971797240E+02 -0.64538491074E+03  0.64588325853E+03  0.25500000000E-02 0. -1.
         -2    1    1    2  502    0  0.15640586814E+02  0.19971797240E+02 -0.40693042416E+03  0.40772033400E+03  0.25500000000E-02 0. -1.
<mgrwt>
<rscale>  0 0.52086141E+02</rscale>
<asrwt>0</asrwt>
<pdfrwt beam="2">  1        1 0.16199239E+00 0.52086141E+02</pdfrwt>
<pdfrwt beam="1">  1       -1 0.99097584E-04 0.52086141E+02</pdfrwt>
<totfact> 0.56482883E+05</totfact>
</mgrwt>
</event>
<event>
 4    1  0.2051373E-002  0.7450910E+02  0.7818608E-02  0.1345398E+00
          1   -1    0    0    0  501  0.00000000000E+00  0.00000000000E+00  0.92489293930E+03  0.92489293932E+03  0.50400000000E-02 0.  1.
         -1   -1    0    0  501    0 -0.00000000000E+00 -0.00000000000E+00 -0.15006036594E+01  0.15006121232E+01  0.50400000000E-02 0.  1.
          2    1    1    2    0  502 -0.33310794557E+02  0.15411547049E+02  0.54109112657E+03  0.54233452046E+03  0.25500000000E-02 0.  1.
         -2    1    1    2  502    0  0.33310794557E+02 -0.15411547049E+02  0.38230120907E+03  0.38405903098E+03  0.25500000000E-02 0.  1.
<mgrwt>
<rscale>  0 0.74509104E+02</rscale>
<asrwt>0</asrwt>
<pdfrwt beam="1">  1        1 0.14229114E+00 0.74509104E+02</pdfrwt>
<pdfrwt beam="2">  1       -1 0.23086288E-03 0.74509104E+02</pdfrwt>
<totfact> 0.23488691E+05</totfact>
</mgrwt>
</event>
<event>
 4    1  0.2051373E-002  0.7423477E+02  0.7818608E-02  0.1346257E+00
          1   -1    0    0    0  501  0.00000000000E+00  0.00000000000E+00  0.49993215419E+02  0.49993215673E+02  0.50400000000E-02 0. -1.
         -1   -1    0    0  501    0 -0.00000000000E+00 -0.00000000000E+00 -0.27557743938E+02  0.27557744399E+02  0.50400000000E-02 0. -1.
          2    1    1    2    0  502 -0.20560139353E+02  0.30627819021E+02  0.69208928575E+01  0.37532404568E+02  0.25500000000E-02 0. -1.
         -2    1    1    2  502    0  0.20560139353E+02 -0.30627819021E+02  0.15514578624E+02  0.40018555504E+02  0.25500000000E-02 0. -1.
<mgrwt>
<rscale>  0 0.74234770E+02</rscale>
<asrwt>0</asrwt>
<pdfrwt beam="1">  1        1 0.76912640E-02 0.74234770E+02</pdfrwt>
<pdfrwt beam="2">  1       -1 0.42396530E-02 0.74234770E+02</pdfrwt>
<totfact> 0.16500675E+05</totfact>
</mgrwt>
</event>
<event>
 4    1  0.2051373E-002  0.5367689E+02  0.7818608E-02  0.1426462E+00
         -1   -1    0    0  501    0 -0.00000000000E+00  0.00000000000E+00  0.26745700299E+03  0.26745700304E+03  0.50400000000E-02 0.  1.
          1   -1    0    0    0  501  0.00000000000E+00 -0.00000000000E+00 -0.26931483781E+01  0.26931530941E+01  0.50400000000E-02 0.  1.
          2    1    1    2    0  502 -0.17692594457E+02 -0.19878542600E+02  0.11486219048E+03  0.11790465285E+03  0.25500000000E-02 0.  1.
         -2    1    1    2  502    0  0.17692594457E+02  0.19878542600E+02  0.14990166413E+03  0.15224550329E+03  0.25500000000E-02 0.  1.
<mgrwt>
<rscale>  0 0.53676887E+02</rscale>
<asrwt>0</asrwt>
<pdfrwt beam="2">  1        1 0.41433086E-03 0.53676887E+02</pdfrwt>
<pdfrwt beam="1">  1       -1 0.41147234E-01 0.53676887E+02</pdfrwt>
<totfact> 0.24532642E+05</totfact>
</mgrwt>
</event>
<event>
 4    1  0.2051373E-002  0.1015100E+03  0.7818608E-02  0.1277152E+00
          1   -1    0    0    0  501  0.00000000000E+00  0.00000000000E+00  0.12007874411E+02  0.12007875469E+02  0.50400000000E-02 0. -1.
         -1   -1    0    0  501    0 -0.00000000000E+00 -0.00000000000E+00 -0.21453186895E+03  0.21453186901E+03  0.50400000000E-02 0. -1.
          2    1    1    2    0  502  0.99643916982E+01 -0.41842534522E+02 -0.16139311350E+03  0.16702641674E+03  0.25500000000E-02 0. -1.
         -2    1    1    2  502    0 -0.99643916982E+01  0.41842534522E+02 -0.41130881043E+02  0.59513327742E+02  0.25500000000E-02 0. -1.
<mgrwt>
<rscale>  0 0.10151004E+03</rscale>
<asrwt>0</asrwt>
<pdfrwt beam="1">  1        1 0.18473655E-02 0.10151004E+03</pdfrwt>
<pdfrwt beam="2">  1       -1 0.33004900E-01 0.10151004E+03</pdfrwt>
<totfact> 0.51352634E+04</totfact>
</mgrwt>
</event>
<event>
 4    1  0.2051373E-002  0.1227042E+03  0.7818608E-02  0.1238701E+00
         -1   -1    0    0  501    0 -0.00000000000E+00  0.00000000000E+00  0.46143764760E+01  0.46143792285E+01  0.50400000000E-02 0. -1.
          1   -1    0    0    0  501  0.00000000000E+00 -0.00000000000E+00 -0.81572908277E+03  0.81572908279E+03  0.50400000000E-02 0. -1.
          2    1    1    2    0  502  0.30839233030E+02 -0.52974584490E+02 -0.38822991711E+03  0.39303922634E+03  0.25500000000E-02 0. -1.
         -2    1    1    2  502    0 -0.30839233030E+02  0.52974584490E+02 -0.42288478919E+03  0.42730423568E+03  0.25500000000E-02 0. -1.
<mgrwt>
<rscale>  0 0.12270423E+03</rscale>
<asrwt>0</asrwt>
<pdfrwt beam="2">  1        1 0.12549667E+00 0.12270423E+03</pdfrwt>
<pdfrwt beam="1">  1       -1 0.70990493E-03 0.12270423E+03</pdfrwt>
<totfact> 0.63612351E+04</totfact>
</mgrwt>
</event>
<event>
 4    1  0.2051373E-002  0.5431710E+02  0.7818608E-02  0.1423356E+00
         -1   -1    0    0  501    0 -0.00000000000E+00  0.00000000000E+00  0.29661906008E+02  0.29661906436E+02  0.50400000000E-02 0. -1.
          1   -1    0    0    0  501  0.00000000000E+00 -0.00000000000E+00 -0.24866465436E+02  0.24866465947E+02  0.50400000000E-02 0. -1.
          2    1    1    2    0  502 -0.91245775312E+01  0.20432416045E+02  0.17847358171E+02  0.28622888406E+02  0.25500000000E-02 0.  1.
         -2    1    1    2  502    0  0.91245775312E+01 -0.20432416045E+02 -0.13051917599E+02  0.25905483977E+02  0.25500000000E-02 0.  1.
<mgrwt>
<rscale>  0 0.54317098E+02</rscale>
<asrwt>0</asrwt>
<pdfrwt beam="2">  1        1 0.38256101E-02 0.54317098E+02</pdfrwt>
<pdfrwt beam="1">  1       -1 0.45633702E-02 0.54317098E+02</pdfrwt>
<totfact> 0.35186811E+05</totfact>
</mgrwt>
</event>
<event>
 4    1  0.2051373E-002  0.6240680E+02  0.7818608E-02  0.1388000E+00
         -1   -1    0    0  501    0 -0.00000000000E+00  0.00000000000E+00  0.10229854990E+03  0.10229855002E+03  0.50400000000E-02 0.  1.
          1   -1    0    0    0  501  0.00000000000E+00 -0.00000000000E+00 -0.95177519665E+01  0.95177533009E+01  0.50400000000E-02 0.  1.
          2    1    1    2    0  502  0.25273466046E+02 -0.16937871227E+02  0.58805532491E+02  0.66209744191E+02  0.25500000000E-02 0. -1.
         -2    1    1    2  502    0 -0.25273466046E+02  0.16937871227E+02  0.33975265441E+02  0.45606559133E+02  0.25500000000E-02 0. -1.
<mgrwt>
<rscale>  0 0.62406804E+02</rscale>
<asrwt>0</asrwt>
<pdfrwt beam="2">  1        1 0.14642696E-02 0.62406804E+02</pdfrwt>
<pdfrwt beam="1">  1       -1 0.15738239E-01 0.62406804E+02</pdfrwt>
<totfact> 0.21317516E+05</totfact>
</mgrwt>
</event>
<event>
 4    1  0.2051373E-002  0.1128896E+03  0.7818608E-02  0.1255310E+00
          1   -1    0    0    0  501  0.00000000000E+00  0.00000000000E+00  0.77019863151E+02  0.77019863316E+02  0.50400000000E-02 0. -1.
         -1   -1    0    0  501    0 -0.00000000000E+00 -0.00000000000E+00 -0.41366161479E+02  0.41366161786E+02  0.50400000000E-02 0. -1.
          2    1    1    2    0  502 -0.31083470544E+01  0.54612068041E+02  0.32249685464E+01  0.54795439826E+02  0.25500000000E-02 0.  1.
         -2    1    1    2  502    0  0.31083470544E+01 -0.54612068041E+02  0.32428733126E+02  0.63590585276E+02  0.25500000000E-02 0.  1.
<mgrwt>
<rscale>  0 0.11288961E+03</rscale>
<asrwt>0</asrwt>
<pdfrwt beam="1">  1        1 0.11849210E-01 0.11288961E+03</pdfrwt>
<pdfrwt beam="2">  1       -1 0.63640250E-02 0.11288961E+03</pdfrwt>
<totfact> 0.55150970E+04</totfact>
</mgrwt>
</event>
<event>
 4    1  0.2051373E-002  0.6351222E+02  0.7818608E-02  0.1383657E+00
         -1   -1    0    0  501    0 -0.00000000000E+00  0.00000000000E+00  0.43784476476E+01  0.43784505484E+01  0.50400000000E-02 0. -1.
          1   -1    0    0    0  501  0.00000000000E+00 -0.00000000000E+00 -0.23032140507E+03  0.23032140512E+03  0.50400000000E-02 0. -1.
          2    1    1    2    0  502  0.15536911826E+02 -0.14313655674E+02 -0.25353955752E+02  0.33001506732E+02  0.25500000000E-02 0. -1.
         -2    1    1    2  502    0 -0.15536911826E+02  0.14313655674E+02 -0.20058900167E+03  0.20169834894E+03  0.25500000000E-02 0. -1.
<mgrwt>
<rscale>  0 0.63512221E+02</rscale>
<asrwt>0</asrwt>
<pdfrwt beam="2">  1        1 0.35434053E-01 0.63512221E+02</pdfrwt>
<pdfrwt beam="1">  1       -1 0.67360774E-03 0.63512221E+02</pdfrwt>
<totfact> 0.31412660E+05</totfact>
</mgrwt>
</event>
<event>
 4    1  0.2051373E-002  0.1188733E+03  0.7818608E-02  0.1244967E+00
          1   -1    0    0    0  501  0.00000000000E+00  0.00000000000E+00  0.12208213142E+04  0.12208213142E+04  0.50400000000E-02 0.  1.
         -1   -1    0    0  501    0 -0.00000000000E+00 -0.00000000000E+00 -0.28937166715E+01  0.28937210606E+01  0.50400000000E-02 0.  1.
          2    1    1    2    0  502 -0.57448788066E+02  0.10126868312E+02  0.49168261358E+03  0.49513100207E+03  0.25500000000E-02 0.  1.
         -2    1    1    2  502    0  0.57448788066E+02 -0.10126868312E+02  0.72624498397E+03  0.72858403322E+03  0.25500000000E-02 0.  1.
<mgrwt>
<rscale>  0 0.11887327E+03</rscale>
<asrwt>0</asrwt>
<pdfrwt beam="1">  1        1 0.18781893E+00 0.11887327E+03</pdfrwt>
<pdfrwt beam="2">  1       -1 0.44518689E-03 0.11887327E+03</pdfrwt>
<totfact> 0.62055685E+04</totfact>
</mgrwt>
</event>
<event>
 4    1  0.2051373E-002  0.6071940E+02  0.7818608E-02  0.1394837E+00
         -1   -1    0    0  501    0 -0.00000000000E+00  0.00000000000E+00  0.46755041301E+01  0.46755068466E+01  0.50400000000E-02 0. -1.
          1   -1    0    0    0  501  0.00000000000E+00 -0.00000000000E+00 -0.19713621694E+03  0.19713621700E+03  0.50400000000E-02 0. -1.
          2    1    1    2    0  502  0.17943326949E+01  0.25151886941E+02 -0.15242650473E+03  0.15449814367E+03  0.25500000000E-02 0. -1.
         -2    1    1    2  502    0 -0.17943326949E+01 -0.25151886941E+02 -0.40034208076E+02  0.47313580178E+02  0.25500000000E-02 0. -1.
<mgrwt>
<rscale>  0 0.60719403E+02</rscale>
<asrwt>0</asrwt>
<pdfrwt beam="2">  1        1 0.30328643E-01 0.60719403E+02</pdfrwt>
<pdfrwt beam="1">  1       -1 0.71930869E-03 0.60719403E+02</pdfrwt>
<totfact> 0.34278738E+05</totfact>
</mgrwt>
</event>
<event>
 4    1  0.2051373E-002  0.5685254E+02  0.7818608E-02  0.1411536E+00
         -1   -1    0    0  501    0 -0.00000000000E+00  0.00000000000E+00  0.84209581787E+01  0.84209596869E+01  0.50400000000E-02 0.  1.
          1   -1    0    0    0  501  0.00000000000E+00 -0.00000000000E+00 -0.95957326238E+02  0.95957326370E+02  0.50400000000E-02 0.  1.
          2    1    1    2    0  502 -0.26853931315E+02  0.66902685623E+01 -0.55689040981E+02  0.62186514715E+02  0.25500000000E-02 0.  1.
         -2    1    1    2  502    0  0.26853931315E+02 -0.66902685623E+01 -0.31847327078E+02  0.42191771342E+02  0.25500000000E-02 0.  1.
<mgrwt>
<rscale>  0 0.56852536E+02</rscale>
<asrwt>0</asrwt>
<pdfrwt beam="2">  1        1 0.14762665E-01 0.56852536E+02</pdfrwt>
<pdfrwt beam="1">  1       -1 0.12955322E-02 0.56852536E+02</pdfrwt>
<totfact> 0.36205524E+05</totfact>
</mgrwt>
</event>
<event>
 4    1  0.2051373E-002  0.4643732E+02  0.7818608E-02  0.1465563E+00
          1   -1    0    0    0  501  0.00000000000E+00  0.00000000000E+00  0.13860167335E+04  0.13860167335E+04  0.50400000000E-02 0. -1.
         -1   -1    0    0  501    0 -0.00000000000E+00 -0.00000000000E+00 -0.38894453978E+00  0.38897719294E+00  0.50400000000E-02 0. -1.
          2    1    1    2    0  502 -0.72405623231E+01  0.19035234781E+02  0.35990206775E+03  0.36047782772E+03  0.25500000000E-02 0. -1.
         -2    1    1    2  502    0  0.72405623231E+01 -0.19035234781E+02  0.10257257212E+04  0.10259278830E+04  0.25500000000E-02 0. -1.
<mgrwt>
<rscale>  0 0.46437325E+02</rscale>
<asrwt>0</asrwt>
<pdfrwt beam="1">  1        1 0.21323074E+00 0.46437325E+02</pdfrwt>
<pdfrwt beam="2">  1       -1 0.59840865E-04 0.46437325E+02</pdfrwt>
<totfact> 0.65914434E+05</totfact>
</mgrwt>
</event>
<event>
 4    1  0.2051373E-002  0.5316356E+02  0.7818608E-02  0.1428989E+00
          1   -1    0    0    0  501  0.00000000000E+00  0.00000000000E+00  0.67553944762E+00  0.67555824833E+00  0.50400000000E-02 0. -1.
         -1   -1    0    0  501    0 -0.00000000000E+00 -0.00000000000E+00 -0.10459512069E+04  0.10459512069E+04  0.50400000000E-02 0. -1.
          2    1    1    2    0  502  0.26525592663E+02  0.13400623472E+01 -0.54409843344E+03  0.54474627865E+03  0.25500000000E-02 0. -1.
         -2    1    1    2  502    0 -0.26525592663E+02 -0.13400623472E+01 -0.50117723397E+03  0.50188048646E+03  0.25500000000E-02 0. -1.
<mgrwt>
<rscale>  0 0.53163564E+02</rscale>
<asrwt>0</asrwt>
<pdfrwt beam="1">  1        1 0.10393143E-03 0.53163564E+02</pdfrwt>
<pdfrwt beam="2">  1       -1 0.16091428E+00 0.53163564E+02</pdfrwt>
<totfact> 0.96790851E+04</totfact>
</mgrwt>
</event>
<event>
 4    1  0.2051373E-002  0.7895879E+02  0.7818608E-02  0.1332032E+00
         -1   -1    0    0  501    0 -0.00000000000E+00  0.00000000000E+00  0.93073093347E+00  0.93074457942E+00  0.50400000000E-02 0.  1.
          1   -1    0    0    0  501  0.00000000000E+00 -0.00000000000E+00 -0.16746098391E+04  0.16746098392E+04  0.50400000000E-02 0.  1.
          2    1    1    2    0  502  0.16397417742E+02 -0.33758936055E+02 -0.10968064841E+04  0.10974484064E+04  0.25500000000E-02 0.  1.
         -2    1    1    2  502    0 -0.16397417742E+02  0.33758936055E+02 -0.57687262412E+03  0.57809217737E+03  0.25500000000E-02 0.  1.
<mgrwt>
<rscale>  0 0.78958790E+02</rscale>
<asrwt>0</asrwt>
<pdfrwt beam="2">  1        1 0.25762987E+00 0.78958790E+02</pdfrwt>
<pdfrwt beam="1">  1       -1 0.14319177E-03 0.78958790E+02</pdfrwt>
<totfact> 0.14573860E+05</totfact>
</mgrwt>
</event>
<event>
 4    1  0.2051373E-002  0.5311044E+02  0.7818608E-02  0.1429252E+00
         -1   -1    0    0  501    0 -0.00000000000E+00  0.00000000000E+00  0.27421658208E+03  0.27421658213E+03  0.50400000000E-02 0. -1.
          1   -1    0    0    0  501  0.00000000000E+00 -0.00000000000E+00 -0.25716134079E+01  0.25716183467E+01  0.50400000000E-02 0. -1.
          2    1    1    2    0  502 -0.23493382663E+02 -0.96601458365E+01  0.17616489231E+03  0.17798687237E+03  0.25500000000E-02 0.  1.
         -2    1    1    2  502    0  0.23493382663E+02  0.96601458365E+01  0.95480076363E+02  0.98801328105E+02  0.25500000000E-02 0.  1.
<mgrwt>
<rscale>  0 0.53110441E+02</rscale>
<asrwt>0</asrwt>
<pdfrwt beam="2">  1        1 0.39563325E-03 0.53110441E+02</pdfrwt>
<pdfrwt beam="1">  1       -1 0.42187163E-01 0.53110441E+02</pdfrwt>
<totfact> 0.24967829E+05</totfact>
</mgrwt>
</event>
<event>
 4    1  0.2051373E-002  0.4731309E+02  0.7818608E-02  0.1460397E+00
          1   -1    0    0    0  501  0.00000000000E+00  0.00000000000E+00  0.10371495170E+02  0.10371496395E+02  0.50400000000E-02 0.  1.
         -1   -1    0    0  501    0 -0.00000000000E+00 -0.00000000000E+00 -0.53958667552E+02  0.53958667788E+02  0.50400000000E-02 0.  1.
          2    1    1    2    0  502  0.21481711979E+02 -0.72870683781E+01 -0.12665880201E+02  0.25980566639E+02  0.25500000000E-02 0.  1.
         -2    1    1    2  502    0 -0.21481711979E+02  0.72870683781E+01 -0.30921292181E+02  0.38349597543E+02  0.25500000000E-02 0.  1.
<mgrwt>
<rscale>  0 0.47313089E+02</rscale>
<asrwt>0</asrwt>
<pdfrwt beam="1">  1        1 0.15956148E-02 0.47313089E+02</pdfrwt>
<pdfrwt beam="2">  1       -1 0.83013334E-02 0.47313089E+02</pdfrwt>
<totfact> 0.46399498E+05</totfact>
</mgrwt>
</event>
<event>
 4    1  0.2051373E-002  0.6689231E+02  0.7818608E-02  0.1370992E+00
          1   -1    0    0    0  501  0.00000000000E+00  0.00000000000E+00  0.50241965851E+01  0.50241991131E+01  0.50400000000E-02 0.  1.
         -1   -1    0    0  501    0 -0.00000000000E+00 -0.00000000000E+00 -0.22265149466E+03  0.22265149472E+03  0.50400000000E-02 0.  1.
          2    1    1    2    0  502  0.20096482571E+02  0.11209253497E+02 -0.26201148492E+02  0.34871423321E+02  0.25500000000E-02 0.  1.
         -2    1    1    2  502    0 -0.20096482571E+02 -0.11209253497E+02 -0.19142614958E+03  0.19280427051E+03  0.25500000000E-02 0.  1.
<mgrwt>
<rscale>  0 0.66892307E+02</rscale>
<asrwt>0</asrwt>
<pdfrwt beam="1">  1        1 0.77295369E-03 0.66892307E+02</pdfrwt>
<pdfrwt beam="2">  1       -1 0.34254069E-01 0.66892307E+02</pdfrwt>
<totfact> 0.14948009E+05</totfact>
</mgrwt>
</event>
<event>
 4    1  0.2051373E-002  0.7414800E+02  0.7818608E-02  0.1346530E+00
          1   -1    0    0    0  501  0.00000000000E+00  0.00000000000E+00  0.15008602965E+03  0.15008602973E+03  0.50400000000E-02 0.  1.
         -1   -1    0    0  501    0 -0.00000000000E+00 -0.00000000000E+00 -0.91579568139E+01  0.91579582007E+01  0.50400000000E-02 0.  1.
          2    1    1    2    0  502 -0.23062384180E+02 -0.25407889722E+02  0.10061134770E+03  0.10630182368E+03  0.25500000000E-02 0. -1.
         -2    1    1    2  502    0  0.23062384180E+02  0.25407889722E+02  0.40316725129E+02  0.52942164253E+02  0.25500000000E-02 0. -1.
<mgrwt>
<rscale>  0 0.74148001E+02</rscale>
<asrwt>0</asrwt>
<pdfrwt beam="1">  1        1 0.23090160E-01 0.74148001E+02</pdfrwt>
<pdfrwt beam="2">  1       -1 0.14089165E-02 0.74148001E+02</pdfrwt>
<totfact> 0.19453292E+05</totfact>
</mgrwt>
</event>
<event>
 4    1  0.2051373E-002  0.4750937E+02  0.7818608E-02  0.1459258E+00
         -1   -1    0    0  501    0 -0.00000000000E+00  0.00000000000E+00  0.71460431871E+03  0.71460431873E+03  0.50400000000E-02 0.  1.
          1   -1    0    0    0  501  0.00000000000E+00 -0.00000000000E+00 -0.78963869657E+00  0.78965478072E+00  0.50400000000E-02 0.  1.
          2    1    1    2    0  502  0.20356450479E+02 -0.61487595828E+01  0.19748300498E+03  0.19862459460E+03  0.25500000000E-02 0.  1.
         -2    1    1    2  502    0 -0.20356450479E+02  0.61487595828E+01  0.51633167504E+03  0.51676937891E+03  0.25500000000E-02 0.  1.
<mgrwt>
<rscale>  0 0.47509367E+02</rscale>
<asrwt>0</asrwt>
<pdfrwt beam="2">  1        1 0.12148417E-03 0.47509367E+02</pdfrwt>
<pdfrwt beam="1">  1       -1 0.10993908E+00 0.47509367E+02</pdfrwt>
<totfact> 0.19057923E+05</totfact>
</mgrwt>
</event>
<event>
 4    1  0.2051373E-002  0.4180975E+02  0.7818608E-02  0.1495301E+00
         -1   -1    0    0  501    0 -0.00000000000E+00  0.00000000000E+00  0.10436525140E+04  0.10436525140E+04  0.50400000000E-02 0.  1.
          1   -1    0    0    0  501  0.00000000000E+00 -0.00000000000E+00 -0.41871980756E+00  0.41875013892E+00  0.50400000000E-02 0.  1.
          2    1    1    2    0  502  0.15222167439E+02  0.13352680212E+02  0.39184592022E+03  0.39236874703E+03  0.25500000000E-02 0.  1.
         -2    1    1    2  502    0 -0.15222167439E+02 -0.13352680212E+02  0.65138787396E+03  0.65170251710E+03  0.25500000000E-02 0.  1.
<mgrwt>
<rscale>  0 0.41809751E+02</rscale>
<asrwt>0</asrwt>
<pdfrwt beam="2">  1        1 0.64421810E-04 0.41809751E+02</pdfrwt>
<pdfrwt beam="1">  1       -1 0.16055933E+00 0.41809751E+02</pdfrwt>
<totfact> 0.17539831E+05</totfact>
</mgrwt>
</event>
<event>
 4    1  0.2051373E-002  0.6185986E+02  0.7818608E-02  0.1390188E+00
          1   -1    0    0    0  501  0.00000000000E+00  0.00000000000E+00  0.26813577750E+04  0.26813577750E+04  0.50400000000E-02 0.  1.
         -1   -1    0    0  501    0 -0.00000000000E+00 -0.00000000000E+00 -0.35676428589E+00  0.35679988410E+00  0.50400000000E-02 0.  1.
          2    1    1    2    0  502  0.13341352005E+02 -0.25187520476E+02  0.81981804725E+03  0.82031337516E+03  0.25500000000E-02 0. -1.
         -2    1    1    2  502    0 -0.13341352005E+02  0.25187520476E+02  0.18611829635E+04  0.18614011997E+04  0.25500000000E-02 0. -1.
<mgrwt>
<rscale>  0 0.61859855E+02</rscale>
<asrwt>0</asrwt>
<pdfrwt beam="1">  1        1 0.41251043E+00 0.61859855E+02</pdfrwt>
<pdfrwt beam="2">  1       -1 0.54890370E-04 0.61859855E+02</pdfrwt>
<totfact> 0.12169850E+05</totfact>
</mgrwt>
</event>
<event>
 4    1  0.2051373E-002  0.7084121E+02  0.7818608E-02  0.1357256E+00
          1   -1    0    0    0  501  0.00000000000E+00  0.00000000000E+00  0.10103995605E+03  0.10103995618E+03  0.50400000000E-02 0. -1.
         -1   -1    0    0  501    0 -0.00000000000E+00 -0.00000000000E+00 -0.12417058700E+02  0.12417059723E+02  0.50400000000E-02 0. -1.
          2    1    1    2    0  502  0.25835714954E+02  0.23255846834E+02  0.33413658060E+02  0.48216087881E+02  0.25500000000E-02 0.  1.
         -2    1    1    2  502    0 -0.25835714954E+02 -0.23255846834E+02  0.55209239293E+02  0.65240928020E+02  0.25500000000E-02 0.  1.
<mgrwt>
<rscale>  0 0.70841206E+02</rscale>
<asrwt>0</asrwt>
<pdfrwt beam="1">  1        1 0.15544608E-01 0.70841206E+02</pdfrwt>
<pdfrwt beam="2">  1       -1 0.19103169E-02 0.70841206E+02</pdfrwt>
<totfact> 0.20577488E+05</totfact>
</mgrwt>
</event>
<event>
 4    1  0.2051373E-002  0.4625469E+02  0.7818608E-02  0.1466657E+00
          1   -1    0    0    0  501  0.00000000000E+00  0.00000000000E+00  0.13765459424E+03  0.13765459433E+03  0.50400000000E-02 0.  1.
         -1   -1    0    0  501    0 -0.00000000000E+00 -0.00000000000E+00 -0.38856231014E+01  0.38856263700E+01  0.50400000000E-02 0.  1.
          2    1    1    2    0  502  0.11752650393E+02  0.16431966342E+02  0.10133379991E+03  0.10332798905E+03  0.25500000000E-02 0.  1.
         -2    1    1    2  502    0 -0.11752650393E+02 -0.16431966342E+02  0.32435171222E+02  0.38212231652E+02  0.25500000000E-02 0.  1.
<mgrwt>
<rscale>  0 0.46254691E+02</rscale>
<asrwt>0</asrwt>
<pdfrwt beam="1">  1        1 0.21177628E-01 0.46254691E+02</pdfrwt>
<pdfrwt beam="2">  1       -1 0.59778848E-03 0.46254691E+02</pdfrwt>
<totfact> 0.64236793E+05</totfact>
</mgrwt>
</event>
<event>
 4    1  0.2051373E-002  0.1026667E+03  0.7818608E-02  0.1274786E+00
         -1   -1    0    0  501    0 -0.00000000000E+00  0.00000000000E+00  0.17866787904E+01  0.17866858990E+01  0.50400000000E-02 0.  1.
          1   -1    0    0    0  501  0.00000000000E+00 -0.00000000000E+00 -0.14748628945E+04  0.14748628945E+04  0.50400000000E-02 0.  1.
          2    1    1    2    0  502 -0.15455388808E+02 -0.23740360907E+02 -0.13522623639E+04  0.13525590466E+04  0.25500000000E-02 0. -1.
         -2    1    1    2  502    0  0.15455388808E+02  0.23740360907E+02 -0.12081385185E+03  0.12409053382E+03  0.25500000000E-02 0. -1.
<mgrwt>
<rscale>  0 0.10266667E+03</rscale>
<asrwt>0</asrwt>
<pdfrwt beam="2">  1        1 0.22690101E+00 0.10266667E+03</pdfrwt>
<pdfrwt beam="1">  1       -1 0.27487539E-03 0.10266667E+03</pdfrwt>
<totfact> 0.81673365E+04</totfact>
</mgrwt>
</event>
<event>
 4    1  0.2051373E-002  0.6452338E+02  0.7818608E-02  0.1379773E+00
         -1   -1    0    0  501    0 -0.00000000000E+00  0.00000000000E+00  0.61132155010E+01  0.61132175786E+01  0.50400000000E-02 0. -1.
          1   -1    0    0    0  501  0.00000000000E+00 -0.00000000000E+00 -0.17025681085E+03  0.17025681093E+03  0.50400000000E-02 0. -1.
          2    1    1    2    0  502 -0.17894877477E+02  0.24905206643E+02 -0.10944988754E+03  0.11366518309E+03  0.25500000000E-02 0.  1.
         -2    1    1    2  502    0  0.17894877477E+02 -0.24905206643E+02 -0.54693707807E+02  0.62704845411E+02  0.25500000000E-02 0.  1.
<mgrwt>
<rscale>  0 0.64523384E+02</rscale>
<asrwt>0</asrwt>
<pdfrwt beam="2">  1        1 0.26193352E-01 0.64523384E+02</pdfrwt>
<pdfrwt beam="1">  1       -1 0.94049499E-03 0.64523384E+02</pdfrwt>
<totfact> 0.28571035E+05</totfact>
</mgrwt>
</event>
<event>
 4    1  0.2051373E-002  0.6086384E+02  0.7818608E-02  0.1394242E+00
          1   -1    0    0    0  501  0.00000000000E+00  0.00000000000E+00  0.19495658675E+04  0.19495658675E+04  0.50400000000E-02 0.  1.
         -1   -1    0    0  501    0 -0.00000000000E+00 -0.00000000000E+00 -0.47501637018E+00  0.47504310703E+00  0.50400000000E-02 0.  1.
          2    1    1    2    0  502  0.26515352054E+02  0.11377242681E+02  0.12845110515E+04  0.12848350660E+04  0.25500000000E-02 0. -1.
         -2    1    1    2  502    0 -0.26515352054E+02 -0.11377242681E+02  0.66457979964E+03  0.66520584456E+03  0.25500000000E-02 0. -1.
<mgrwt>
<rscale>  0 0.60863841E+02</rscale>
<asrwt>0</asrwt>
<pdfrwt beam="1">  1        1 0.29994060E+00 0.60863841E+02</pdfrwt>
<pdfrwt beam="2">  1       -1 0.73079700E-04 0.60863841E+02</pdfrwt>
<totfact> 0.23729044E+05</totfact>
</mgrwt>
</event>
<event>
 4    1  0.2051373E-002  0.6563408E+02  0.7818608E-02  0.1375602E+00
          1   -1    0    0    0  501  0.00000000000E+00  0.00000000000E+00  0.29076850772E+03  0.29076850776E+03  0.50400000000E-02 0.  1.
         -1   -1    0    0  501    0 -0.00000000000E+00 -0.00000000000E+00 -0.37038316637E+01  0.37038350928E+01  0.50400000000E-02 0.  1.
          2    1    1    2    0  502 -0.10916590575E+02 -0.30946568879E+02  0.14492270886E+03  0.14859156647E+03  0.25500000000E-02 0. -1.
         -2    1    1    2  502    0  0.10916590575E+02  0.30946568879E+02  0.14214196719E+03  0.14588077639E+03  0.25500000000E-02 0. -1.
<mgrwt>
<rscale>  0 0.65634080E+02</rscale>
<asrwt>0</asrwt>
<pdfrwt beam="1">  1        1 0.44733616E-01 0.65634080E+02</pdfrwt>
<pdfrwt beam="2">  1       -1 0.56982053E-03 0.65634080E+02</pdfrwt>
<totfact> 0.30125155E+05</totfact>
</mgrwt>
</event>
<event>
 4    1  0.2051373E-002  0.8059514E+02  0.7818608E-02  0.1327371E+00
         -1   -1    0    0  501    0 -0.00000000000E+00  0.00000000000E+00  0.97604114811E+00  0.97605416059E+00  0.50400000000E-02 0. -1.
          1   -1    0    0    0  501  0.00000000000E+00 -0.00000000000E+00 -0.16637445828E+04  0.16637445828E+04  0.50400000000E-02 0. -1.
          2    1    1    2    0  502 -0.23962396634E+02 -0.19654672458E+02 -0.13633913937E+04  0.13637435957E+04  0.25500000000E-02 0.  1.
         -2    1    1    2  502    0  0.23962396634E+02  0.19654672458E+02 -0.29937714800E+03  0.30097704124E+03  0.25500000000E-02 0.  1.
<mgrwt>
<rscale>  0 0.80595137E+02</rscale>
<asrwt>0</asrwt>
<pdfrwt beam="2">  1        1 0.25595844E+00 0.80595137E+02</pdfrwt>
<pdfrwt beam="1">  1       -1 0.15016251E-03 0.80595137E+02</pdfrwt>
<totfact> 0.13905596E+05</totfact>
</mgrwt>
</event>
<event>
 4    1  0.2051373E-002  0.6941055E+02  0.7818608E-02  0.1362109E+00
          1   -1    0    0    0  501  0.00000000000E+00  0.00000000000E+00  0.73158686260E+03  0.73158686261E+03  0.50400000000E-02 0.  1.
         -1   -1    0    0  501    0 -0.00000000000E+00 -0.00000000000E+00 -0.16463570339E+01  0.16463647484E+01  0.50400000000E-02 0.  1.
          2    1    1    2    0  502 -0.29820489185E+02  0.14666921603E+02  0.47064745171E+03  0.47181924926E+03  0.25500000000E-02 0. -1.
         -2    1    1    2  502    0  0.29820489185E+02 -0.14666921603E+02  0.25929305386E+03  0.26141397811E+03  0.25500000000E-02 0. -1.
<mgrwt>
<rscale>  0 0.69410547E+02</rscale>
<asrwt>0</asrwt>
<pdfrwt beam="1">  1        1 0.11255194E+00 0.69410547E+02</pdfrwt>
<pdfrwt beam="2">  1       -1 0.25328603E-03 0.69410547E+02</pdfrwt>
<totfact> 0.28937861E+05</totfact>
</mgrwt>
</event>
<event>
 4    1  0.2051373E-002  0.6218205E+02  0.7818608E-02  0.1388896E+00
         -1   -1    0    0  501    0 -0.00000000000E+00  0.00000000000E+00  0.20290829188E+02  0.20290829814E+02  0.50400000000E-02 0. -1.
          1   -1    0    0    0  501  0.00000000000E+00 -0.00000000000E+00 -0.47639843801E+02  0.47639844067E+02  0.50400000000E-02 0. -1.
          2    1    1    2    0  502 -0.94071994692E+01  0.29092400705E+02 -0.75151164569E+01  0.31485554823E+02  0.25500000000E-02 0.  1.
         -2    1    1    2  502    0  0.94071994692E+01 -0.29092400705E+02 -0.19833898155E+02  0.36445119059E+02  0.25500000000E-02 0.  1.
<mgrwt>
<rscale>  0 0.62182054E+02</rscale>
<asrwt>0</asrwt>
<pdfrwt beam="2">  1        1 0.73292068E-02 0.62182054E+02</pdfrwt>
<pdfrwt beam="1">  1       -1 0.31216661E-02 0.62182054E+02</pdfrwt>
<totfact> 0.26339989E+05</totfact>
</mgrwt>
</event>
<event>
 4    1  0.2051373E-002  0.6249772E+02  0.7818608E-02  0.1387639E+00
         -1   -1    0    0  501    0 -0.00000000000E+00  0.00000000000E+00  0.11728697434E+01  0.11728805721E+01  0.50400000000E-02 0.  1.
          1   -1    0    0    0  501  0.00000000000E+00 -0.00000000000E+00 -0.83256193952E+03  0.83256193953E+03  0.50400000000E-02 0.  1.
          2    1    1    2    0  502 -0.27680037330E+02 -0.12210728146E+02 -0.31132907898E+03  0.31279559104E+03  0.25500000000E-02 0.  1.
         -2    1    1    2  502    0  0.27680037330E+02  0.12210728146E+02 -0.52005999079E+03  0.52093922906E+03  0.25500000000E-02 0.  1.
<mgrwt>
<rscale>  0 0.62497719E+02</rscale>
<asrwt>0</asrwt>
<pdfrwt beam="2">  1        1 0.12808598E+00 0.62497719E+02</pdfrwt>
<pdfrwt beam="1">  1       -1 0.18044300E-03 0.62497719E+02</pdfrwt>
<totfact> 0.37485947E+05</totfact>
</mgrwt>
</event>
<event>
 4    1  0.2051373E-002  0.4415312E+02  0.7818608E-02  0.1479699E+00
          1   -1    0    0    0  501  0.00000000000E+00  0.00000000000E+00  0.17987430604E+01  0.17987501213E+01  0.50400000000E-02 0.  1.
         -1   -1    0    0  501    0 -0.00000000000E+00 -0.00000000000E+00 -0.27095227991E+03  0.27095227996E+03  0.50400000000E-02 0.  1.
          2    1    1    2    0  502  0.13355224722E+02 -0.17415379127E+02 -0.14934711070E+03  0.15095104153E+03  0.25500000000E-02 0.  1.
         -2    1    1    2  502    0 -0.13355224722E+02  0.17415379127E+02 -0.11980642615E+03  0.12179998855E+03  0.25500000000E-02 0.  1.
<mgrwt>
<rscale>  0 0.44153120E+02</rscale>
<asrwt>0</asrwt>
<pdfrwt beam="1">  1        1 0.27673046E-03 0.44153120E+02</pdfrwt>
<pdfrwt beam="2">  1       -1 0.41684934E-01 0.44153120E+02</pdfrwt>
<totfact> 0.39568370E+05</totfact>
</mgrwt>
</event>
<event>
 4    1  0.2051373E-002  0.5352698E+02  0.7818608E-02  0.1427196E+00
         -1   -1    0    0  501    0 -0.00000000000E+00  0.00000000000E+00  0.35085283065E+01  0.35085319264E+01  0.50400000000E-02 0.  1.
          1   -1    0    0    0  501  0.00000000000E+00 -0.00000000000E+00 -0.20415511183E+03  0.20415511189E+03  0.50400000000E-02 0.  1.
          2    1    1    2    0  502  0.14826188490E+02 -0.22011390030E+02 -0.11374426975E+03  0.11679929821E+03  0.25500000000E-02 0.  1.
         -2    1    1    2  502    0 -0.14826188490E+02  0.22011390030E+02 -0.86902313775E+02  0.90864345605E+02  0.25500000000E-02 0.  1.
<mgrwt>
<rscale>  0 0.53526979E+02</rscale>
<asrwt>0</asrwt>
<pdfrwt beam="2">  1        1 0.31408470E-01 0.53526979E+02</pdfrwt>
<pdfrwt beam="1">  1       -1 0.53977403E-03 0.53526979E+02</pdfrwt>
<totfact> 0.47525767E+05</totfact>
</mgrwt>
</event>
<event>
 4    1  0.2051373E-002  0.5799962E+02  0.7818608E-02  0.1406423E+00
         -1   -1    0    0  501    0 -0.00000000000E+00  0.00000000000E+00  0.36427947649E+02  0.36427947998E+02  0.50400000000E-02 0.  1.
          1   -1    0    0    0  501  0.00000000000E+00 -0.00000000000E+00 -0.23086365300E+02  0.23086365850E+02  0.50400000000E-02 0.  1.
          2    1    1    2    0  502  0.21409135255E+02  0.13521387933E+02 -0.78337775714E+01  0.26505604720E+02  0.25500000000E-02 0. -1.
         -2    1    1    2  502    0 -0.21409135255E+02 -0.13521387933E+02  0.21175359921E+02  0.33008709128E+02  0.25500000000E-02 0. -1.
<mgrwt>
<rscale>  0 0.57999618E+02</rscale>
<asrwt>0</asrwt>
<pdfrwt beam="2">  1        1 0.35517486E-02 0.57999618E+02</pdfrwt>
<pdfrwt beam="1">  1       -1 0.56042997E-02 0.57999618E+02</pdfrwt>
<totfact> 0.29334205E+05</totfact>
</mgrwt>
</event>
<event>
 4    1  0.2051373E-002  0.5187693E+02  0.7818608E-02  0.1435473E+00
          1   -1    0    0    0  501  0.00000000000E+00  0.00000000000E+00  0.23286176911E+02  0.23286177456E+02  0.50400000000E-02 0.  1.
         -1   -1    0    0  501    0 -0.00000000000E+00 -0.00000000000E+00 -0.28892843693E+02  0.28892844132E+02  0.50400000000E-02 0.  1.
          2    1    1    2    0  502  0.15915832918E+02 -0.20478663898E+02 -0.31436471783E+01  0.26126077712E+02  0.25500000000E-02 0.  1.
         -2    1    1    2  502    0 -0.15915832918E+02  0.20478663898E+02 -0.24630196034E+01  0.26052943876E+02  0.25500000000E-02 0.  1.
<mgrwt>
<rscale>  0 0.51876927E+02</rscale>
<asrwt>0</asrwt>
<pdfrwt beam="1">  1        1 0.35824889E-02 0.51876927E+02</pdfrwt>
<pdfrwt beam="2">  1       -1 0.44450529E-02 0.51876927E+02</pdfrwt>
<totfact> 0.39466661E+05</totfact>
</mgrwt>
</event>
<event>
 4    1  0.2051373E-002  0.5038567E+02  0.7818608E-02  0.1443272E+00
         -1   -1    0    0  501    0 -0.00000000000E+00  0.00000000000E+00  0.35844211277E+01  0.35844246711E+01  0.50400000000E-02 0. -1.
          1   -1    0    0    0  501  0.00000000000E+00 -0.00000000000E+00 -0.17706588851E+03  0.17706588858E+03  0.50400000000E-02 0. -1.
          2    1    1    2    0  502 -0.21780688699E+02 -0.77060679532E+01 -0.50726755962E+02  0.55740341409E+02  0.25500000000E-02 0.  1.
         -2    1    1    2  502    0  0.21780688699E+02  0.77060679532E+01 -0.12275471142E+03  0.12490997184E+03  0.25500000000E-02 0.  1.
<mgrwt>
<rscale>  0 0.50385674E+02</rscale>
<asrwt>0</asrwt>
<pdfrwt beam="2">  1        1 0.27240899E-01 0.50385674E+02</pdfrwt>
<pdfrwt beam="1">  1       -1 0.55144982E-03 0.50385674E+02</pdfrwt>
<totfact> 0.54000151E+05</totfact>
</mgrwt>
</event>
<event>
 4    1  0.2051373E-002  0.6499943E+02  0.7818608E-02  0.1377974E+00
          1   -1    0    0    0  501  0.00000000000E+00  0.00000000000E+00  0.15261885987E+02  0.15261886820E+02  0.50400000000E-02 0. -1.
         -1   -1    0    0  501    0 -0.00000000000E+00 -0.00000000000E+00 -0.69207138318E+02  0.69207138502E+02  0.50400000000E-02 0. -1.
          2    1    1    2    0  502  0.20879718742E+02 -0.57500067021E+01 -0.58463395313E+02  0.62345760320E+02  0.25500000000E-02 0.  1.
         -2    1    1    2  502    0 -0.20879718742E+02  0.57500067021E+01  0.45181429821E+01  0.22123265002E+02  0.25500000000E-02 0.  1.
<mgrwt>
<rscale>  0 0.64999431E+02</rscale>
<asrwt>0</asrwt>
<pdfrwt beam="1">  1        1 0.23479826E-02 0.64999431E+02</pdfrwt>
<pdfrwt beam="2">  1       -1 0.10647252E-01 0.64999431E+02</pdfrwt>
<totfact> 0.20439670E+05</totfact>
</mgrwt>
</event>
<event>
 4    1  0.2051373E-002  0.1110397E+03  0.7818608E-02  0.1258657E+00
          1   -1    0    0    0  501  0.00000000000E+00  0.00000000000E+00  0.71032910877E+02  0.71032911056E+02  0.50400000000E-02 0. -1.
         -1   -1    0    0  501    0 -0.00000000000E+00 -0.00000000000E+00 -0.43394721857E+02  0.43394722150E+02  0.50400000000E-02 0. -1.
          2    1    1    2    0  502  0.45854462053E+02  0.26426874334E+02  0.31107189991E+02  0.61389483243E+02  0.25500000000E-02 0. -1.
         -2    1    1    2  502    0 -0.45854462053E+02 -0.26426874334E+02 -0.34690009716E+01  0.53038149963E+02  0.25500000000E-02 0. -1.
<mgrwt>
<rscale>  0 0.11103969E+03</rscale>
<asrwt>0</asrwt>
<pdfrwt beam="1">  1        1 0.10928140E-01 0.11103969E+03</pdfrwt>
<pdfrwt beam="2">  1       -1 0.66761111E-02 0.11103969E+03</pdfrwt>
<totfact> 0.56973522E+04</totfact>
</mgrwt>
</event>
<event>
 4    1  0.2051373E-002  0.4899730E+02  0.7818608E-02  0.1450826E+00
          1   -1    0    0    0  501  0.00000000000E+00  0.00000000000E+00  0.47977245928E+03  0.47977245931E+03  0.50400000000E-02 0.  1.
         -1   -1    0    0  501    0 -0.00000000000E+00 -0.00000000000E+00 -0.12509708750E+01  0.12509810277E+01  0.50400000000E-02 0.  1.
          2    1    1    2    0  502 -0.18367914170E+02 -0.15700864880E+02  0.19964147470E+03  0.20109852276E+03  0.25500000000E-02 0.  1.
         -2    1    1    2  502    0  0.18367914170E+02  0.15700864880E+02  0.27888001371E+03  0.27992491758E+03  0.25500000000E-02 0.  1.
<mgrwt>
<rscale>  0 0.48997299E+02</rscale>
<asrwt>0</asrwt>
<pdfrwt beam="1">  1        1 0.73811265E-01 0.48997299E+02</pdfrwt>
<pdfrwt beam="2">  1       -1 0.19245754E-03 0.48997299E+02</pdfrwt>
<totfact> 0.68200884E+05</totfact>
</mgrwt>
</event>
<event>
 4    1  0.2051373E-002  0.8910592E+02  0.7818608E-02  0.1305031E+00
         -1   -1    0    0  501    0 -0.00000000000E+00  0.00000000000E+00  0.76330031931E+00  0.76331695845E+00  0.50400000000E-02 0. -1.
          1   -1    0    0    0  501  0.00000000000E+00 -0.00000000000E+00 -0.26004762992E+04  0.26004762992E+04  0.50400000000E-02 0. -1.
          2    1    1    2    0  502  0.20168795797E+02  0.36707181078E+02 -0.17433243568E+04  0.17438274027E+04  0.25500000000E-02 0.  1.
         -2    1    1    2  502    0 -0.20168795797E+02 -0.36707181078E+02 -0.85638864211E+03  0.85741221347E+03  0.25500000000E-02 0.  1.
<mgrwt>
<rscale>  0 0.89105915E+02</rscale>
<asrwt>0</asrwt>
<pdfrwt beam="2">  1        1 0.40006618E+00 0.89105915E+02</pdfrwt>
<pdfrwt beam="1">  1       -1 0.11743418E-03 0.89105915E+02</pdfrwt>
<totfact> 0.50561192E+04</totfact>
</mgrwt>
</event>
<event>
 4    1  0.2051373E-002  0.4321769E+02  0.7818608E-02  0.1485785E+00
          1   -1    0    0    0  501  0.00000000000E+00  0.00000000000E+00  0.13968475742E+01  0.13968566667E+01  0.50400000000E-02 0. -1.
         -1   -1    0    0  501    0 -0.00000000000E+00 -0.00000000000E+00 -0.33428173228E+03  0.33428173232E+03  0.50400000000E-02 0. -1.
          2    1    1    2    0  502 -0.21468776254E+02  0.10673611073E+01 -0.14925868990E+03  0.15079855481E+03  0.25500000000E-02 0.  1.
         -2    1    1    2  502    0  0.21468776254E+02 -0.10673611073E+01 -0.18362619480E+03  0.18488003417E+03  0.25500000000E-02 0.  1.
<mgrwt>
<rscale>  0 0.43217689E+02</rscale>
<asrwt>0</asrwt>
<pdfrwt beam="1">  1        1 0.21490059E-03 0.43217689E+02</pdfrwt>
<pdfrwt beam="2">  1       -1 0.51427896E-01 0.43217689E+02</pdfrwt>
<totfact> 0.38403770E+05</totfact>
</mgrwt>
</event>
<event>
 4    1  0.2051373E-002  0.5482937E+02  0.7818608E-02  0.1420908E+00
         -1   -1    0    0  501    0 -0.00000000000E+00  0.00000000000E+00  0.39450280496E+02  0.39450280818E+02  0.50400000000E-02 0.  1.
          1   -1    0    0    0  501  0.00000000000E+00 -0.00000000000E+00 -0.19050943058E+02  0.19050943724E+02  0.50400000000E-02 0.  1.
          2    1    1    2    0  502  0.24437065557E+02 -0.89469459835E+01  0.99975936065E+00  0.26042610099E+02  0.25500000000E-02 0.  1.
         -2    1    1    2  502    0 -0.24437065557E+02  0.89469459835E+01  0.19399578078E+02  0.32458614444E+02  0.25500000000E-02 0.  1.
<mgrwt>
<rscale>  0 0.54829374E+02</rscale>
<asrwt>0</asrwt>
<pdfrwt beam="2">  1        1 0.29309144E-02 0.54829374E+02</pdfrwt>
<pdfrwt beam="1">  1       -1 0.60692740E-02 0.54829374E+02</pdfrwt>
<totfact> 0.33410711E+05</totfact>
</mgrwt>
</event>
<event>
 4    1  0.2051373E-002  0.8883246E+02  0.7818608E-02  0.1305704E+00
         -1   -1    0    0  501    0 -0.00000000000E+00  0.00000000000E+00  0.40321965828E+01  0.40321997327E+01  0.50400000000E-02 0.  1.
          1   -1    0    0    0  501  0.00000000000E+00 -0.00000000000E+00 -0.48926204710E+03  0.48926204713E+03  0.50400000000E-02 0.  1.
          2    1    1    2    0  502  0.18660881200E+02  0.76223996271E+01 -0.46239872810E+03  0.46283789087E+03  0.25500000000E-02 0.  1.
         -2    1    1    2  502    0 -0.18660881200E+02 -0.76223996271E+01 -0.22831122418E+02  0.30456355997E+02  0.25500000000E-02 0.  1.
<mgrwt>
<rscale>  0 0.88832461E+02</rscale>
<asrwt>0</asrwt>
<pdfrwt beam="2">  1        1 0.75271037E-01 0.88832461E+02</pdfrwt>
<pdfrwt beam="1">  1       -1 0.62033857E-03 0.88832461E+02</pdfrwt>
<totfact> 0.14881186E+05</totfact>
</mgrwt>
</event>
<event>
 4    1  0.2051373E-002  0.9958583E+02  0.7818608E-02  0.1281169E+00
         -1   -1    0    0  501    0 -0.00000000000E+00  0.00000000000E+00  0.43638092175E+03  0.43638092178E+03  0.50400000000E-02 0. -1.
          1   -1    0    0    0  501  0.00000000000E+00 -0.00000000000E+00 -0.56815820087E+01  0.56815842442E+01  0.50400000000E-02 0. -1.
          2    1    1    2    0  502 -0.49252505006E+02  0.73159844976E+01  0.21552775087E+03  0.22120475646E+03  0.25500000000E-02 0. -1.
         -2    1    1    2  502    0  0.49252505006E+02 -0.73159844976E+01  0.21517158886E+03  0.22085774956E+03  0.25500000000E-02 0. -1.
<mgrwt>
<rscale>  0 0.99585832E+02</rscale>
<asrwt>0</asrwt>
<pdfrwt beam="2">  1        1 0.87409011E-03 0.99585832E+02</pdfrwt>
<pdfrwt beam="1">  1       -1 0.67135496E-01 0.99585832E+02</pdfrwt>
<totfact> 0.40365049E+04</totfact>
</mgrwt>
</event>
<event>
 4    1  0.2051373E-002  0.5645013E+02  0.7818608E-02  0.1413363E+00
          1   -1    0    0    0  501  0.00000000000E+00  0.00000000000E+00  0.22485618453E+02  0.22485619018E+02  0.50400000000E-02 0.  1.
         -1   -1    0    0  501    0 -0.00000000000E+00 -0.00000000000E+00 -0.35429501238E+02  0.35429501596E+02  0.50400000000E-02 0.  1.
          2    1    1    2    0  502 -0.12852803245E+02 -0.24087238969E+02 -0.13817688245E+02  0.30599316125E+02  0.25500000000E-02 0.  1.
         -2    1    1    2  502    0  0.12852803245E+02  0.24087238969E+02  0.87380545994E+00  0.27315804489E+02  0.25500000000E-02 0.  1.
<mgrwt>
<rscale>  0 0.56450129E+02</rscale>
<asrwt>0</asrwt>
<pdfrwt beam="1">  1        1 0.34593260E-02 0.56450129E+02</pdfrwt>
<pdfrwt beam="2">  1       -1 0.54506925E-02 0.56450129E+02</pdfrwt>
<totfact> 0.31447875E+05</totfact>
</mgrwt>
</event>
<event>
 4    1  0.2051373E-002  0.4927863E+02  0.7818608E-02  0.1449272E+00
          1   -1    0    0    0  501  0.00000000000E+00  0.00000000000E+00  0.61817677113E+01  0.61817697658E+01  0.50400000000E-02 0. -1.
         -1   -1    0    0  501    0 -0.00000000000E+00 -0.00000000000E+00 -0.98207465248E+02  0.98207465378E+02  0.50400000000E-02 0. -1.
          2    1    1    2    0  502 -0.24428072088E+02 -0.13273809131E+01 -0.52226216750E+02  0.57672093499E+02  0.25500000000E-02 0.  1.
         -2    1    1    2  502    0  0.24428072088E+02  0.13273809131E+01 -0.39799480787E+02  0.46717141645E+02  0.25500000000E-02 0.  1.
<mgrwt>
<rscale>  0 0.49278630E+02</rscale>
<asrwt>0</asrwt>
<pdfrwt beam="1">  1        1 0.95104143E-03 0.49278630E+02</pdfrwt>
<pdfrwt beam="2">  1       -1 0.15108840E-01 0.49278630E+02</pdfrwt>
<totfact> 0.38695995E+05</totfact>
</mgrwt>
</event>
<event>
 4    1  0.2051373E-002  0.4611255E+02  0.7818608E-02  0.1467513E+00
         -1   -1    0    0  501    0 -0.00000000000E+00  0.00000000000E+00  0.52685503254E+01  0.52685527361E+01  0.50400000000E-02 0. -1.
          1   -1    0    0    0  501  0.00000000000E+00 -0.00000000000E+00 -0.10089904504E+03  0.10089904516E+03  0.50400000000E-02 0. -1.
          2    1    1    2    0  502 -0.21656187316E+02 -0.68359402489E+01 -0.38642930489E+02  0.44821831862E+02  0.25500000000E-02 0. -1.
         -2    1    1    2  502    0  0.21656187316E+02  0.68359402489E+01 -0.56987564222E+02  0.61345766037E+02  0.25500000000E-02 0. -1.
<mgrwt>
<rscale>  0 0.46112551E+02</rscale>
<asrwt>0</asrwt>
<pdfrwt beam="2">  1        1 0.15522929E-01 0.46112551E+02</pdfrwt>
<pdfrwt beam="1">  1       -1 0.81054648E-03 0.46112551E+02</pdfrwt>
<totfact> 0.61943798E+05</totfact>
</mgrwt>
</event>
<event>
 4    1  0.2051373E-002  0.5544548E+02  0.7818608E-02  0.1418004E+00
         -1   -1    0    0  501    0 -0.00000000000E+00  0.00000000000E+00  0.49286463844E+00  0.49289040712E+00  0.50400000000E-02 0. -1.
          1   -1    0    0    0  501  0.00000000000E+00 -0.00000000000E+00 -0.15593128934E+04  0.15593128934E+04  0.50400000000E-02 0. -1.
          2    1    1    2    0  502  0.44012308557E+01  0.27116149359E+02 -0.67454844225E+03  0.67510758945E+03  0.25500000000E-02 0. -1.
         -2    1    1    2  502    0 -0.44012308557E+01 -0.27116149359E+02 -0.88427158651E+03  0.88469819436E+03  0.25500000000E-02 0. -1.
<mgrwt>
<rscale>  0 0.55445479E+02</rscale>
<asrwt>0</asrwt>
<pdfrwt beam="2">  1        1 0.23989034E+00 0.55445479E+02</pdfrwt>
<pdfrwt beam="1">  1       -1 0.75828560E-04 0.55445479E+02</pdfrwt>
<totfact> 0.38684226E+05</totfact>
</mgrwt>
</event>
<event>
 4    1  0.2051373E-002  0.4049525E+02  0.7818608E-02  0.1504598E+00
          1   -1    0    0    0  501  0.00000000000E+00  0.00000000000E+00  0.66689567124E+02  0.66689567314E+02  0.50400000000E-02 0. -1.
         -1   -1    0    0  501    0 -0.00000000000E+00 -0.00000000000E+00 -0.61473816918E+01  0.61473837579E+01  0.50400000000E-02 0. -1.
          2    1    1    2    0  502 -0.12397946106E+02  0.15860759963E+02  0.26374390069E+02  0.33179530320E+02  0.25500000000E-02 0.  1.
         -2    1    1    2  502    0  0.12397946106E+02 -0.15860759963E+02  0.34167795363E+02  0.39657420752E+02  0.25500000000E-02 0.  1.
<mgrwt>
<rscale>  0 0.40495249E+02</rscale>
<asrwt>0</asrwt>
<pdfrwt beam="1">  1        1 0.10259933E-01 0.40495249E+02</pdfrwt>
<pdfrwt beam="2">  1       -1 0.94575128E-03 0.40495249E+02</pdfrwt>
<totfact> 0.81481153E+05</totfact>
</mgrwt>
</event>
<event>
 4    1  0.2051373E-002  0.5321549E+02  0.7818608E-02  0.1428731E+00
         -1   -1    0    0  501    0 -0.00000000000E+00  0.00000000000E+00  0.16058961015E+01  0.16059040103E+01  0.50400000000E-02 0.  1.
          1   -1    0    0    0  501  0.00000000000E+00 -0.00000000000E+00 -0.44085683193E+03  0.44085683196E+03  0.50400000000E-02 0.  1.
          2    1    1    2    0  502  0.19608958113E+02 -0.11049635317E+02 -0.33761190674E+03  0.33836135308E+03  0.25500000000E-02 0.  1.
         -2    1    1    2  502    0 -0.19608958113E+02  0.11049635317E+02 -0.10163902909E+03  0.10410138289E+03  0.25500000000E-02 0.  1.
<mgrwt>
<rscale>  0 0.53215487E+02</rscale>
<asrwt>0</asrwt>
<pdfrwt beam="2">  1        1 0.67824032E-01 0.53215487E+02</pdfrwt>
<pdfrwt beam="1">  1       -1 0.24706190E-03 0.53215487E+02</pdfrwt>
<totfact> 0.54926804E+05</totfact>
</mgrwt>
</event>
<event>
 4    1  0.2051373E-002  0.7608146E+02  0.7818608E-02  0.1340554E+00
         -1   -1    0    0  501    0 -0.00000000000E+00  0.00000000000E+00  0.61021225742E+02  0.61021225950E+02  0.50400000000E-02 0.  1.
          1   -1    0    0    0  501  0.00000000000E+00 -0.00000000000E+00 -0.23714648624E+02  0.23714649160E+02  0.50400000000E-02 0.  1.
          2    1    1    2    0  502  0.22709479212E+02 -0.28299724727E+02  0.59300627362E+01  0.36766295927E+02  0.25500000000E-02 0. -1.
         -2    1    1    2  502    0 -0.22709479212E+02  0.28299724727E+02  0.31376514381E+02  0.47969579182E+02  0.25500000000E-02 0. -1.
<mgrwt>
<rscale>  0 0.76081455E+02</rscale>
<asrwt>0</asrwt>
<pdfrwt beam="2">  1        1 0.36484075E-02 0.76081455E+02</pdfrwt>
<pdfrwt beam="1">  1       -1 0.93878810E-02 0.76081455E+02</pdfrwt>
<totfact> 0.13988446E+05</totfact>
</mgrwt>
</event>
<event>
 4    1  0.2051373E-002  0.5681662E+02  0.7818608E-02  0.1411698E+00
         -1   -1    0    0  501    0 -0.00000000000E+00  0.00000000000E+00  0.12340455377E+02  0.12340456406E+02  0.50400000000E-02 0. -1.
          1   -1    0    0    0  501  0.00000000000E+00 -0.00000000000E+00 -0.65397273736E+02  0.65397273930E+02  0.50400000000E-02 0. -1.
          2    1    1    2    0  502 -0.38597798735E+01  0.27470254447E+02 -0.18147630508E+02  0.33148895602E+02  0.25500000000E-02 0. -1.
         -2    1    1    2  502    0  0.38597798735E+01 -0.27470254447E+02 -0.34909187851E+02  0.44588834734E+02  0.25500000000E-02 0. -1.
<mgrwt>
<rscale>  0 0.56816624E+02</rscale>
<asrwt>0</asrwt>
<pdfrwt beam="2">  1        1 0.10061119E-01 0.56816624E+02</pdfrwt>
<pdfrwt beam="1">  1       -1 0.18985317E-02 0.56816624E+02</pdfrwt>
<totfact> 0.34554518E+05</totfact>
</mgrwt>
</event>
<event>
 4    1  0.2051373E-002  0.5813443E+02  0.7818608E-02  0.1405832E+00
          1   -1    0    0    0  501  0.00000000000E+00  0.00000000000E+00  0.41160070266E+02  0.41160070575E+02  0.50400000000E-02 0. -1.
         -1   -1    0    0  501    0 -0.00000000000E+00 -0.00000000000E+00 -0.20527248996E+02  0.20527249615E+02  0.50400000000E-02 0. -1.
          2    1    1    2    0  502 -0.26604676075E+02  0.57312282777E+01 -0.51773852030E+00  0.27219915986E+02  0.25500000000E-02 0. -1.
         -2    1    1    2  502    0  0.26604676075E+02 -0.57312282777E+01  0.21150559790E+02  0.34467404204E+02  0.25500000000E-02 0. -1.
<mgrwt>
<rscale>  0 0.58134432E+02</rscale>
<asrwt>0</asrwt>
<pdfrwt beam="1">  1        1 0.63323186E-02 0.58134432E+02</pdfrwt>
<pdfrwt beam="2">  1       -1 0.31580384E-02 0.58134432E+02</pdfrwt>
<totfact> 0.30947516E+05</totfact>
</mgrwt>
</event>
<event>
 4    1  0.2051373E-002  0.5026536E+02  0.7818608E-02  0.1443915E+00
          1   -1    0    0    0  501  0.00000000000E+00  0.00000000000E+00  0.94952317987E+01  0.94952331363E+01  0.50400000000E-02 0. -1.
         -1   -1    0    0  501    0 -0.00000000000E+00 -0.00000000000E+00 -0.66523034396E+02  0.66523034587E+02  0.50400000000E-02 0. -1.
          2    1    1    2    0  502  0.76347473384E+01  0.23381587305E+02 -0.20704652159E+02  0.32150748348E+02  0.25500000000E-02 0.  1.
         -2    1    1    2  502    0 -0.76347473384E+01 -0.23381587305E+02 -0.36323150439E+02  0.43867519375E+02  0.25500000000E-02 0.  1.
<mgrwt>
<rscale>  0 0.50265363E+02</rscale>
<asrwt>0</asrwt>
<pdfrwt beam="1">  1        1 0.14608051E-02 0.50265363E+02</pdfrwt>
<pdfrwt beam="2">  1       -1 0.10234313E-01 0.50265363E+02</pdfrwt>
<totfact> 0.38990811E+05</totfact>
</mgrwt>
</event>
<event>
 4    1  0.2051373E-002  0.5715407E+02  0.7818608E-02  0.1410178E+00
          1   -1    0    0    0  501  0.00000000000E+00  0.00000000000E+00  0.71280098842E+01  0.71280116661E+01  0.50400000000E-02 0. -1.
         -1   -1    0    0  501    0 -0.00000000000E+00 -0.00000000000E+00 -0.11456868045E+03  0.11456868056E+03  0.50400000000E-02 0. -1.
          2    1    1    2    0  502 -0.16055551852E+02 -0.19993366819E+02 -0.80580551009E+02  0.84562052183E+02  0.25500000000E-02 0. -1.
         -2    1    1    2  502    0  0.16055551852E+02  0.19993366819E+02 -0.26860119553E+02  0.37134640040E+02  0.25500000000E-02 0. -1.
<mgrwt>
<rscale>  0 0.57154066E+02</rscale>
<asrwt>0</asrwt>
<pdfrwt beam="1">  1        1 0.10966171E-02 0.57154066E+02</pdfrwt>
<pdfrwt beam="2">  1       -1 0.17625950E-01 0.57154066E+02</pdfrwt>
<totfact> 0.26053808E+05</totfact>
</mgrwt>
</event>
<event>
 4    1  0.2051373E-002  0.4451823E+02  0.7818608E-02  0.1477372E+00
          1   -1    0    0    0  501  0.00000000000E+00  0.00000000000E+00  0.21432200376E+02  0.21432200969E+02  0.50400000000E-02 0.  1.
         -1   -1    0    0  501    0 -0.00000000000E+00 -0.00000000000E+00 -0.23117937228E+02  0.23117937777E+02  0.50400000000E-02 0.  1.
          2    1    1    2    0  502 -0.17783409497E+02  0.13376650745E+02 -0.30971704524E+00  0.22254895408E+02  0.25500000000E-02 0. -1.
         -2    1    1    2  502    0  0.17783409497E+02 -0.13376650745E+02 -0.13760198063E+01  0.22295243338E+02  0.25500000000E-02 0. -1.
<mgrwt>
<rscale>  0 0.44518234E+02</rscale>
<asrwt>0</asrwt>
<pdfrwt beam="1">  1        1 0.32972617E-02 0.44518234E+02</pdfrwt>
<pdfrwt beam="2">  1       -1 0.35566058E-02 0.44518234E+02</pdfrwt>
<totfact> 0.58265320E+05</totfact>
</mgrwt>
</event>
<event>
 4    1  0.2051373E-002  0.5592382E+02  0.7818608E-02  0.1415780E+00
          1   -1    0    0    0  501  0.00000000000E+00  0.00000000000E+00  0.30265905506E+03  0.30265905510E+03  0.50400000000E-02 0.  1.
         -1   -1    0    0  501    0 -0.00000000000E+00 -0.00000000000E+00 -0.25833277287E+01  0.25833326451E+01  0.50400000000E-02 0.  1.
          2    1    1    2    0  502 -0.22331745791E+02 -0.15702034691E+02  0.18306213001E+03  0.18508647767E+03  0.25500000000E-02 0. -1.
         -2    1    1    2  502    0  0.22331745791E+02  0.15702034691E+02  0.11701359732E+03  0.12015591008E+03  0.25500000000E-02 0. -1.
<mgrwt>
<rscale>  0 0.55923816E+02</rscale>
<asrwt>0</asrwt>
<pdfrwt beam="1">  1        1 0.46562920E-01 0.55923816E+02</pdfrwt>
<pdfrwt beam="2">  1       -1 0.39743552E-03 0.55923816E+02</pdfrwt>
<totfact> 0.45640214E+05</totfact>
</mgrwt>
</event>
<event>
 4    1  0.2051373E-002  0.9844315E+02  0.7818608E-02  0.1283604E+00
         -1   -1    0    0  501    0 -0.00000000000E+00  0.00000000000E+00  0.19599199271E+02  0.19599199919E+02  0.50400000000E-02 0. -1.
          1   -1    0    0    0  501  0.00000000000E+00 -0.00000000000E+00 -0.12361542320E+03  0.12361542330E+03  0.50400000000E-02 0. -1.
          2    1    1    2    0  502 -0.46132797663E+02 -0.17139178097E+02 -0.53290407632E+02  0.72538637967E+02  0.25500000000E-02 0. -1.
         -2    1    1    2  502    0  0.46132797663E+02  0.17139178097E+02 -0.50725816296E+02  0.70675985253E+02  0.25500000000E-02 0. -1.
<mgrwt>
<rscale>  0 0.98443148E+02</rscale>
<asrwt>0</asrwt>
<pdfrwt beam="2">  1        1 0.19017757E-01 0.98443148E+02</pdfrwt>
<pdfrwt beam="1">  1       -1 0.30152615E-02 0.98443148E+02</pdfrwt>
<totfact> 0.87878259E+04</totfact>
</mgrwt>
</event>
<event>
 4    1  0.2051373E-002  0.6733371E+02  0.7818608E-02  0.1369402E+00
          1   -1    0    0    0  501  0.00000000000E+00  0.00000000000E+00  0.16717187535E+02  0.16717188295E+02  0.50400000000E-02 0.  1.
         -1   -1    0    0  501    0 -0.00000000000E+00 -0.00000000000E+00 -0.67801901662E+02  0.67801901850E+02  0.50400000000E-02 0.  1.
          2    1    1    2    0  502  0.25287891949E+02 -0.15654844358E+02 -0.57389680569E+01  0.30290054341E+02  0.25500000000E-02 0.  1.
         -2    1    1    2  502    0 -0.25287891949E+02  0.15654844358E+02 -0.45345746070E+02  0.54229035804E+02  0.25500000000E-02 0.  1.
<mgrwt>
<rscale>  0 0.67333711E+02</rscale>
<asrwt>0</asrwt>
<pdfrwt beam="1">  1        1 0.25718751E-02 0.67333711E+02</pdfrwt>
<pdfrwt beam="2">  1       -1 0.10431062E-01 0.67333711E+02</pdfrwt>
<totfact> 0.18756029E+05</totfact>
</mgrwt>
</event>
<event>
 4    1  0.2051373E-002  0.5302729E+02  0.7818608E-02  0.1429665E+00
         -1   -1    0    0  501    0 -0.00000000000E+00  0.00000000000E+00  0.20841077044E+01  0.20841137986E+01  0.50400000000E-02 0. -1.
          1   -1    0    0    0  501  0.00000000000E+00 -0.00000000000E+00 -0.33730135069E+03  0.33730135072E+03  0.50400000000E-02 0. -1.
          2    1    1    2    0  502 -0.25394886798E+02  0.29721847678E+01 -0.12269796710E+03  0.12533365587E+03  0.25500000000E-02 0.  1.
         -2    1    1    2  502    0  0.25394886798E+02 -0.29721847678E+01 -0.21251927588E+03  0.21405180865E+03  0.25500000000E-02 0.  1.
<mgrwt>
<rscale>  0 0.53027290E+02</rscale>
<asrwt>0</asrwt>
<pdfrwt beam="2">  1        1 0.51892473E-01 0.53027290E+02</pdfrwt>
<pdfrwt beam="1">  1       -1 0.32063269E-03 0.53027290E+02</pdfrwt>
<totfact> 0.53165912E+05</totfact>
</mgrwt>
</event>
<event>
 4    1  0.2051373E-002  0.5807633E+02  0.7818608E-02  0.1406086E+00
          1   -1    0    0    0  501  0.00000000000E+00  0.00000000000E+00  0.97204235460E+03  0.97204235462E+03  0.50400000000E-02 0.  1.
         -1   -1    0    0  501    0 -0.00000000000E+00 -0.00000000000E+00 -0.86746001100E+00  0.86747465225E+00  0.50400000000E-02 0.  1.
          2    1    1    2    0  502 -0.21751588073E+02  0.99600066242E+01  0.20987063475E+03  0.21122977217E+03  0.25500000000E-02 0. -1.
         -2    1    1    2  502    0  0.21751588073E+02 -0.99600066242E+01  0.76130425985E+03  0.76168005710E+03  0.25500000000E-02 0. -1.
<mgrwt>
<rscale>  0 0.58076329E+02</rscale>
<asrwt>0</asrwt>
<pdfrwt beam="1">  1        1 0.14954548E+00 0.58076329E+02</pdfrwt>
<pdfrwt beam="2">  1       -1 0.13345606E-03 0.58076329E+02</pdfrwt>
<totfact> 0.43944230E+05</totfact>
</mgrwt>
</event>
<event>
 4    1  0.2051373E-002  0.5929882E+02  0.7818608E-02  0.1400798E+00
         -1   -1    0    0  501    0 -0.00000000000E+00  0.00000000000E+00  0.60062633578E+00  0.60064748134E+00  0.50400000000E-02 0. -1.
          1   -1    0    0    0  501  0.00000000000E+00 -0.00000000000E+00 -0.14635920214E+04  0.14635920214E+04  0.50400000000E-02 0. -1.
          2    1    1    2    0  502 -0.91484780326E+01  0.18028793290E+02 -0.12670028199E+04  0.12671641084E+04  0.25500000000E-02 0. -1.
         -2    1    1    2  502    0  0.91484780326E+01 -0.18028793290E+02 -0.19598857519E+03  0.19702856049E+03  0.25500000000E-02 0. -1.
<mgrwt>
<rscale>  0 0.59298816E+02</rscale>
<asrwt>0</asrwt>
<pdfrwt beam="2">  1        1 0.22516515E+00 0.59298816E+02</pdfrwt>
<pdfrwt beam="1">  1       -1 0.92406850E-04 0.59298816E+02</pdfrwt>
<totfact> 0.34377620E+05</totfact>
</mgrwt>
</event>
<event>
 4    1  0.2051373E-002  0.8247526E+02  0.7818608E-02  0.1322170E+00
          1   -1    0    0    0  501  0.00000000000E+00  0.00000000000E+00  0.44646652390E+02  0.44646652675E+02  0.50400000000E-02 0. -1.
         -1   -1    0    0  501    0 -0.00000000000E+00 -0.00000000000E+00 -0.38088903266E+02  0.38088903600E+02  0.50400000000E-02 0. -1.
          2    1    1    2    0  502  0.22245878219E+02 -0.29221956228E+02  0.22092804531E+02  0.42858999546E+02  0.25500000000E-02 0.  1.
         -2    1    1    2  502    0 -0.22245878219E+02  0.29221956228E+02 -0.15535055407E+02  0.39876556729E+02  0.25500000000E-02 0.  1.
<mgrwt>
<rscale>  0 0.82475258E+02</rscale>
<asrwt>0</asrwt>
<pdfrwt beam="1">  1        1 0.68687158E-02 0.82475258E+02</pdfrwt>
<pdfrwt beam="2">  1       -1 0.58598313E-02 0.82475258E+02</pdfrwt>
<totfact> 0.12188680E+05</totfact>
</mgrwt>
</event>
<event>
 4    1  0.2051373E-002  0.5054330E+02  0.7818608E-02  0.1442433E+00
         -1   -1    0    0  501    0 -0.00000000000E+00  0.00000000000E+00  0.25058982696E+01  0.25059033380E+01  0.50400000000E-02 0. -1.
          1   -1    0    0    0  501  0.00000000000E+00 -0.00000000000E+00 -0.25486091165E+03  0.25486091170E+03  0.50400000000E-02 0. -1.
          2    1    1    2    0  502 -0.32783698310E+01 -0.22415685902E+02 -0.18320923256E+03  0.18460453295E+03  0.25500000000E-02 0. -1.
         -2    1    1    2  502    0  0.32783698310E+01  0.22415685902E+02 -0.69145780824E+02  0.72762282094E+02  0.25500000000E-02 0. -1.
<mgrwt>
<rscale>  0 0.50543295E+02</rscale>
<asrwt>0</asrwt>
<pdfrwt beam="2">  1        1 0.39209351E-01 0.50543295E+02</pdfrwt>
<pdfrwt beam="1">  1       -1 0.38552341E-03 0.50543295E+02</pdfrwt>
<totfact> 0.57083126E+05</totfact>
</mgrwt>
</event>
<event>
 4    1  0.2051373E-002  0.6562979E+02  0.7818608E-02  0.1375618E+00
         -1   -1    0    0  501    0 -0.00000000000E+00  0.00000000000E+00  0.23267120953E+02  0.23267121499E+02  0.50400000000E-02 0. -1.
          1   -1    0    0    0  501  0.00000000000E+00 -0.00000000000E+00 -0.46280635944E+02  0.46280636218E+02  0.50400000000E-02 0. -1.
          2    1    1    2    0  502  0.13678636680E+02 -0.26750796157E+02 -0.25489431720E+02  0.39400778322E+02  0.25500000000E-02 0.  1.
         -2    1    1    2  502    0 -0.13678636680E+02  0.26750796157E+02  0.24759167295E+01  0.30146979395E+02  0.25500000000E-02 0.  1.
<mgrwt>
<rscale>  0 0.65629785E+02</rscale>
<asrwt>0</asrwt>
<pdfrwt beam="2">  1        1 0.71200979E-02 0.65629785E+02</pdfrwt>
<pdfrwt beam="1">  1       -1 0.35795571E-02 0.65629785E+02</pdfrwt>
<totfact> 0.22751817E+05</totfact>
</mgrwt>
</event>
<event>
 4    1  0.2051373E-002  0.5559229E+02  0.7818608E-02  0.1417318E+00
         -1   -1    0    0  501    0 -0.00000000000E+00  0.00000000000E+00  0.43182305673E+01  0.43182335085E+01  0.50400000000E-02 0.  1.
          1   -1    0    0    0  501  0.00000000000E+00 -0.00000000000E+00 -0.17892178123E+03  0.17892178130E+03  0.50400000000E-02 0.  1.
          2    1    1    2    0  502 -0.27239143689E+02 -0.53919954160E+01 -0.83157003550E+02  0.87670586911E+02  0.25500000000E-02 0. -1.
         -2    1    1    2  502    0  0.27239143689E+02  0.53919954160E+01 -0.91446547114E+02  0.95569427899E+02  0.25500000000E-02 0. -1.
<mgrwt>
<rscale>  0 0.55592294E+02</rscale>
<asrwt>0</asrwt>
<pdfrwt beam="2">  1        1 0.27526422E-01 0.55592294E+02</pdfrwt>
<pdfrwt beam="1">  1       -1 0.66434353E-03 0.55592294E+02</pdfrwt>
<totfact> 0.42204020E+05</totfact>
</mgrwt>
</event>
<event>
 4    1  0.2051373E-002  0.4365399E+02  0.7818608E-02  0.1482924E+00
          1   -1    0    0    0  501  0.00000000000E+00  0.00000000000E+00  0.36164968566E+00  0.36168480302E+00  0.50400000000E-02 0. -1.
         -1   -1    0    0  501    0 -0.00000000000E+00 -0.00000000000E+00 -0.13172817800E+04  0.13172817800E+04  0.50400000000E-02 0. -1.
          2    1    1    2    0  502  0.84919628549E+01 -0.19924739211E+02 -0.74006253671E+03  0.74037940741E+03  0.25500000000E-02 0.  1.
         -2    1    1    2  502    0 -0.84919628549E+01  0.19924739211E+02 -0.57685759362E+03  0.57726405742E+03  0.25500000000E-02 0.  1.
<mgrwt>
<rscale>  0 0.43653989E+02</rscale>
<asrwt>0</asrwt>
<pdfrwt beam="1">  1        1 0.55642170E-04 0.43653989E+02</pdfrwt>
<pdfrwt beam="2">  1       -1 0.20265490E+00 0.43653989E+02</pdfrwt>
<totfact> 0.11321931E+05</totfact>
</mgrwt>
</event>
<event>
 4    1  0.2051373E-002  0.7471219E+02  0.7818608E-02  0.1344765E+00
          1   -1    0    0    0  501  0.00000000000E+00  0.00000000000E+00  0.67863831396E+01  0.67863850111E+01  0.50400000000E-02 0. -1.
         -1   -1    0    0  501    0 -0.00000000000E+00 -0.00000000000E+00 -0.20562904707E+03  0.20562904713E+03  0.50400000000E-02 0. -1.
          2    1    1    2    0  502 -0.11018985971E+02 -0.32838930295E+02 -0.13919085825E+03  0.14343607783E+03  0.25500000000E-02 0.  1.
         -2    1    1    2  502    0  0.11018985971E+02  0.32838930295E+02 -0.59651805680E+02  0.68979354318E+02  0.25500000000E-02 0.  1.
<mgrwt>
<rscale>  0 0.74712187E+02</rscale>
<asrwt>0</asrwt>
<pdfrwt beam="1">  1        1 0.10440592E-02 0.74712187E+02</pdfrwt>
<pdfrwt beam="2">  1       -1 0.31635233E-01 0.74712187E+02</pdfrwt>
<totfact> 0.11532840E+05</totfact>
</mgrwt>
</event>
<event>
 4    1  0.2051373E-002  0.5282456E+02  0.7818608E-02  0.1430676E+00
         -1   -1    0    0  501    0 -0.00000000000E+00  0.00000000000E+00  0.17011980822E+03  0.17011980830E+03  0.50400000000E-02 0.  1.
          1   -1    0    0    0  501  0.00000000000E+00 -0.00000000000E+00 -0.41006882933E+01  0.41006913905E+01  0.50400000000E-02 0.  1.
          2    1    1    2    0  502 -0.11027888055E+02 -0.23708500167E+02  0.95306321715E+02  0.98828145082E+02  0.25500000000E-02 0. -1.
         -2    1    1    2  502    0  0.11027888055E+02  0.23708500167E+02  0.70712798215E+02  0.75392354606E+02  0.25500000000E-02 0. -1.
<mgrwt>
<rscale>  0 0.52824562E+02</rscale>
<asrwt>0</asrwt>
<pdfrwt beam="2">  1        1 0.63087547E-03 0.52824562E+02</pdfrwt>
<pdfrwt beam="1">  1       -1 0.26172274E-01 0.52824562E+02</pdfrwt>
<totfact> 0.29170739E+05</totfact>
</mgrwt>
</event>
<event>
 4    1  0.2051373E-002  0.1286500E+03  0.7818608E-02  0.1229473E+00
         -1   -1    0    0  501    0 -0.00000000000E+00  0.00000000000E+00  0.15676011109E+02  0.15676011919E+02  0.50400000000E-02 0.  1.
          1   -1    0    0    0  501  0.00000000000E+00 -0.00000000000E+00 -0.26395134972E+03  0.26395134976E+03  0.50400000000E-02 0.  1.
          2    1    1    2    0  502  0.57623683776E+02 -0.27786053146E+02 -0.13874269383E+03  0.15278117940E+03  0.25500000000E-02 0. -1.
         -2    1    1    2  502    0 -0.57623683776E+02  0.27786053146E+02 -0.10953264478E+03  0.12684618229E+03  0.25500000000E-02 0. -1.
<mgrwt>
<rscale>  0 0.12864998E+03</rscale>
<asrwt>0</asrwt>
<pdfrwt beam="2">  1        1 0.40607897E-01 0.12864998E+03</pdfrwt>
<pdfrwt beam="1">  1       -1 0.24116943E-02 0.12864998E+03</pdfrwt>
<totfact> 0.48987324E+04</totfact>
</mgrwt>
</event>
<event>
 4    1  0.2051373E-002  0.5748744E+02  0.7818608E-02  0.1408689E+00
          1   -1    0    0    0  501  0.00000000000E+00  0.00000000000E+00  0.10295465707E+03  0.10295465720E+03  0.50400000000E-02 0.  1.
         -1   -1    0    0  501    0 -0.00000000000E+00 -0.00000000000E+00 -0.80249056991E+01  0.80249072818E+01  0.50400000000E-02 0.  1.
          2    1    1    2    0  502 -0.23139241469E+02  0.11247888035E+02  0.72207092605E+02  0.76653791231E+02  0.25500000000E-02 0.  1.
         -2    1    1    2  502    0  0.23139241469E+02 -0.11247888035E+02  0.22722658768E+02  0.34325773247E+02  0.25500000000E-02 0.  1.
<mgrwt>
<rscale>  0 0.57487442E+02</rscale>
<asrwt>0</asrwt>
<pdfrwt beam="1">  1        1 0.15839177E-01 0.57487442E+02</pdfrwt>
<pdfrwt beam="2">  1       -1 0.12346011E-02 0.57487442E+02</pdfrwt>
<totfact> 0.35532733E+05</totfact>
</mgrwt>
</event>
<event>
 4    1  0.2051373E-002  0.4722337E+02  0.7818608E-02  0.1460920E+00
         -1   -1    0    0  501    0 -0.00000000000E+00  0.00000000000E+00  0.34749849411E+02  0.34749849777E+02  0.50400000000E-02 0.  1.
          1   -1    0    0    0  501  0.00000000000E+00 -0.00000000000E+00 -0.16043571110E+02  0.16043571902E+02  0.50400000000E-02 0.  1.
          2    1    1    2    0  502  0.78930282787E+00 -0.20123048254E+02  0.22611906905E+02  0.30279669919E+02  0.25500000000E-02 0.  1.
         -2    1    1    2  502    0 -0.78930282787E+00  0.20123048254E+02 -0.39056286041E+01  0.20513751760E+02  0.25500000000E-02 0.  1.
<mgrwt>
<rscale>  0 0.47223372E+02</rscale>
<asrwt>0</asrwt>
<pdfrwt beam="2">  1        1 0.24682418E-02 0.47223372E+02</pdfrwt>
<pdfrwt beam="1">  1       -1 0.53461307E-02 0.47223372E+02</pdfrwt>
<totfact> 0.48760407E+05</totfact>
</mgrwt>
</event>
<event>
 4    1  0.2051373E-002  0.4160050E+02  0.7818608E-02  0.1496753E+00
         -1   -1    0    0  501    0 -0.00000000000E+00  0.00000000000E+00  0.52863065848E+00  0.52865468378E+00  0.50400000000E-02 0.  1.
          1   -1    0    0    0  501  0.00000000000E+00 -0.00000000000E+00 -0.81841745253E+03  0.81841745254E+03  0.50400000000E-02 0.  1.
          2    1    1    2    0  502  0.17364519197E+02  0.10596132853E+02 -0.32348409852E+03  0.32412307317E+03  0.25500000000E-02 0. -1.
         -2    1    1    2  502    0 -0.17364519197E+02 -0.10596132853E+02 -0.49440472335E+03  0.49482303406E+03  0.25500000000E-02 0. -1.
<mgrwt>
<rscale>  0 0.41600500E+02</rscale>
<asrwt>0</asrwt>
<pdfrwt beam="2">  1        1 0.12590937E+00 0.41600500E+02</pdfrwt>
<pdfrwt beam="1">  1       -1 0.81330298E-04 0.41600500E+02</pdfrwt>
<totfact> 0.10327463E+06</totfact>
</mgrwt>
</event>
<event>
 4    1  0.2051373E-002  0.5173685E+02  0.7818608E-02  0.1436192E+00
         -1   -1    0    0  501    0 -0.00000000000E+00  0.00000000000E+00  0.64631467050E+03  0.64631467052E+03  0.50400000000E-02 0.  1.
          1   -1    0    0    0  501  0.00000000000E+00 -0.00000000000E+00 -0.10353645750E+01  0.10353768420E+01  0.50400000000E-02 0.  1.
          2    1    1    2    0  502  0.24780156240E+02  0.68467978403E+01  0.35855797473E+03  0.35947845002E+03  0.25500000000E-02 0.  1.
         -2    1    1    2  502    0 -0.24780156240E+02 -0.68467978403E+01  0.28672133120E+03  0.28787159734E+03  0.25500000000E-02 0.  1.
<mgrwt>
<rscale>  0 0.51736845E+02</rscale>
<asrwt>0</asrwt>
<pdfrwt beam="2">  1        1 0.15928807E-03 0.51736845E+02</pdfrwt>
<pdfrwt beam="1">  1       -1 0.99432860E-01 0.51736845E+02</pdfrwt>
<totfact> 0.16768031E+05</totfact>
</mgrwt>
</event>
<event>
 4    1  0.2051373E-002  0.5790389E+02  0.7818608E-02  0.1406845E+00
         -1   -1    0    0  501    0 -0.00000000000E+00  0.00000000000E+00  0.15041803592E+01  0.15041888028E+01  0.50400000000E-02 0. -1.
          1   -1    0    0    0  501  0.00000000000E+00 -0.00000000000E+00 -0.55725544089E+03  0.55725544091E+03  0.50400000000E-02 0. -1.
          2    1    1    2    0  502  0.25599661161E+02  0.13503585539E+02 -0.27087988018E+03  0.27242172998E+03  0.25500000000E-02 0. -1.
         -2    1    1    2  502    0 -0.25599661161E+02 -0.13503585539E+02 -0.28487138035E+03  0.28633789974E+03  0.25500000000E-02 0. -1.
<mgrwt>
<rscale>  0 0.57903888E+02</rscale>
<asrwt>0</asrwt>
<pdfrwt beam="2">  1        1 0.85731442E-01 0.57903888E+02</pdfrwt>
<pdfrwt beam="1">  1       -1 0.23141346E-03 0.57903888E+02</pdfrwt>
<totfact> 0.45584456E+05</totfact>
</mgrwt>
</event>
<event>
 4    1  0.2051373E-002  0.7905463E+02  0.7818608E-02  0.1331756E+00
         -1   -1    0    0  501    0 -0.00000000000E+00  0.00000000000E+00  0.29994640576E+01  0.29994682919E+01  0.50400000000E-02 0.  1.
          1   -1    0    0    0  501  0.00000000000E+00 -0.00000000000E+00 -0.52089558296E+03  0.52089558299E+03  0.50400000000E-02 0.  1.
          2    1    1    2    0  502  0.20599830482E+02 -0.27160587082E+02 -0.39154738981E+03  0.39302850912E+03  0.25500000000E-02 0. -1.
         -2    1    1    2  502    0 -0.20599830482E+02  0.27160587082E+02 -0.12634872909E+03  0.13086654216E+03  0.25500000000E-02 0. -1.
<mgrwt>
<rscale>  0 0.79054632E+02</rscale>
<asrwt>0</asrwt>
<pdfrwt beam="2">  1        1 0.80137711E-01 0.79054632E+02</pdfrwt>
<pdfrwt beam="1">  1       -1 0.46145675E-03 0.79054632E+02</pdfrwt>
<totfact> 0.20360876E+05</totfact>
</mgrwt>
</event>
<event>
 4    1  0.2051373E-002  0.1453491E+03  0.7818608E-02  0.1206307E+00
          1   -1    0    0    0  501  0.00000000000E+00  0.00000000000E+00  0.86554473765E+02  0.86554473911E+02  0.50400000000E-02 0. -1.
         -1   -1    0    0  501    0 -0.00000000000E+00 -0.00000000000E+00 -0.61020400316E+02  0.61020400524E+02  0.50400000000E-02 0. -1.
          2    1    1    2    0  502  0.65808951721E+02 -0.27540482192E+02  0.26846340116E+02  0.76223502085E+02  0.25500000000E-02 0. -1.
         -2    1    1    2  502    0 -0.65808951721E+02  0.27540482192E+02 -0.13122666678E+01  0.71351372350E+02  0.25500000000E-02 0. -1.
<mgrwt>
<rscale>  0 0.14534908E+03</rscale>
<asrwt>0</asrwt>
<pdfrwt beam="1">  1        1 0.13316073E-01 0.14534908E+03</pdfrwt>
<pdfrwt beam="2">  1       -1 0.93877540E-02 0.14534908E+03</pdfrwt>
<totfact> 0.27195270E+04</totfact>
</mgrwt>
</event>
<event>
 4    1  0.2051373E-002  0.4261195E+02  0.7818608E-02  0.1489825E+00
          1   -1    0    0    0  501  0.00000000000E+00  0.00000000000E+00  0.99470171375E+03  0.99470171376E+03  0.50400000000E-02 0.  1.
         -1   -1    0    0  501    0 -0.00000000000E+00 -0.00000000000E+00 -0.45634856561E+00  0.45637639612E+00  0.50400000000E-02 0.  1.
          2    1    1    2    0  502 -0.14390024694E+02  0.15705842680E+02  0.50752091741E+03  0.50796774299E+03  0.25500000000E-02 0.  1.
         -2    1    1    2  502    0  0.14390024694E+02 -0.15705842680E+02  0.48672444777E+03  0.48719034716E+03  0.25500000000E-02 0.  1.
<mgrwt>
<rscale>  0 0.42611949E+02</rscale>
<asrwt>0</asrwt>
<pdfrwt beam="1">  1        1 0.15302920E+00 0.42611949E+02</pdfrwt>
<pdfrwt beam="2">  1       -1 0.70210455E-04 0.42611949E+02</pdfrwt>
<totfact> 0.94164186E+05</totfact>
</mgrwt>
</event>
<event>
 4    1  0.2051373E-002  0.9271125E+02  0.7818608E-02  0.1296416E+00
         -1   -1    0    0  501    0 -0.00000000000E+00  0.00000000000E+00  0.19015404999E+03  0.19015405005E+03  0.50400000000E-02 0.  1.
          1   -1    0    0    0  501  0.00000000000E+00 -0.00000000000E+00 -0.11300541081E+02  0.11300542205E+02  0.50400000000E-02 0.  1.
          2    1    1    2    0  502  0.10165998173E+02 -0.31683451607E+02  0.19296286612E+02  0.38464728104E+02  0.25500000000E-02 0. -1.
         -2    1    1    2  502    0 -0.10165998173E+02  0.31683451607E+02  0.15955722229E+03  0.16298986415E+03  0.25500000000E-02 0. -1.
<mgrwt>
<rscale>  0 0.92711246E+02</rscale>
<asrwt>0</asrwt>
<pdfrwt beam="2">  1        1 0.17385451E-02 0.92711246E+02</pdfrwt>
<pdfrwt beam="1">  1       -1 0.29254465E-01 0.92711246E+02</pdfrwt>
<totfact> 0.67417869E+04</totfact>
</mgrwt>
</event>
<event>
 4    1  0.2051373E-002  0.1120750E+03  0.7818608E-02  0.1256775E+00
         -1   -1    0    0  501    0 -0.00000000000E+00  0.00000000000E+00  0.22354170030E+01  0.22354226846E+01  0.50400000000E-02 0. -1.
          1   -1    0    0    0  501  0.00000000000E+00 -0.00000000000E+00 -0.14047487452E+04  0.14047487453E+04  0.50400000000E-02 0. -1.
          2    1    1    2    0  502  0.40604068394E+02 -0.36787481074E+02 -0.55367748970E+03  0.55638185784E+03  0.25500000000E-02 0. -1.
         -2    1    1    2  502    0 -0.40604068394E+02  0.36787481074E+02 -0.84883583855E+03  0.85060231010E+03  0.25500000000E-02 0. -1.
<mgrwt>
<rscale>  0 0.11207503E+03</rscale>
<asrwt>0</asrwt>
<pdfrwt beam="2">  1        1 0.21611449E+00 0.11207503E+03</pdfrwt>
<pdfrwt beam="1">  1       -1 0.34391187E-03 0.11207503E+03</pdfrwt>
<totfact> 0.66918197E+04</totfact>
</mgrwt>
</event>
<event>
 4    1  0.2051373E-002  0.5838709E+02  0.7818608E-02  0.1404728E+00
          1   -1    0    0    0  501  0.00000000000E+00  0.00000000000E+00  0.13403240974E+03  0.13403240984E+03  0.50400000000E-02 0.  1.
         -1   -1    0    0  501    0 -0.00000000000E+00 -0.00000000000E+00 -0.63586341763E+01  0.63586361737E+01  0.50400000000E-02 0.  1.
          2    1    1    2    0  502 -0.27177083027E+02 -0.11424430947E-01  0.38201257381E+02  0.46882086605E+02  0.25500000000E-02 0.  1.
         -2    1    1    2  502    0  0.27177083027E+02  0.11424430947E-01  0.89472518185E+02  0.93508959407E+02  0.25500000000E-02 0.  1.
<mgrwt>
<rscale>  0 0.58387095E+02</rscale>
<asrwt>0</asrwt>
<pdfrwt beam="1">  1        1 0.20620370E-01 0.58387095E+02</pdfrwt>
<pdfrwt beam="2">  1       -1 0.97825163E-03 0.58387095E+02</pdfrwt>
<totfact> 0.35515249E+05</totfact>
</mgrwt>
</event>
<event>
 4    1  0.2051373E-002  0.1181482E+03  0.7818608E-02  0.1246184E+00
         -1   -1    0    0  501    0 -0.00000000000E+00  0.00000000000E+00  0.12624649170E+01  0.12624749773E+01  0.50400000000E-02 0.  1.
          1   -1    0    0    0  501  0.00000000000E+00 -0.00000000000E+00 -0.27642250129E+04  0.27642250129E+04  0.50400000000E-02 0.  1.
          2    1    1    2    0  502  0.38625960250E+02  0.25218247464E+02 -0.22452656091E+04  0.22457394284E+04  0.25500000000E-02 0. -1.
         -2    1    1    2  502    0 -0.38625960250E+02 -0.25218247464E+02 -0.51769693883E+03  0.51974805944E+03  0.25500000000E-02 0. -1.
<mgrwt>
<rscale>  0 0.11814823E+03</rscale>
<asrwt>0</asrwt>
<pdfrwt beam="2">  1        1 0.42526054E+00 0.11814823E+03</pdfrwt>
<pdfrwt beam="1">  1       -1 0.19422836E-03 0.11814823E+03</pdfrwt>
<totfact> 0.20053865E+04</totfact>
</mgrwt>
</event>
<event>
 4    1  0.2051373E-002  0.4589394E+02  0.7818608E-02  0.1468837E+00
         -1   -1    0    0  501    0 -0.00000000000E+00  0.00000000000E+00  0.84776733727E+00  0.84778231860E+00  0.50400000000E-02 0.  1.
          1   -1    0    0    0  501  0.00000000000E+00 -0.00000000000E+00 -0.62111232861E+03  0.62111232863E+03  0.50400000000E-02 0.  1.
          2    1    1    2    0  502 -0.79195202671E+01 -0.20332166098E+02 -0.40638822454E+03  0.40697359230E+03  0.25500000000E-02 0.  1.
         -2    1    1    2  502    0  0.79195202671E+01  0.20332166098E+02 -0.21387633673E+03  0.21498651865E+03  0.25500000000E-02 0.  1.
<mgrwt>
<rscale>  0 0.45893939E+02</rscale>
<asrwt>0</asrwt>
<pdfrwt beam="2">  1        1 0.95555380E-01 0.45893939E+02</pdfrwt>
<pdfrwt beam="1">  1       -1 0.13042739E-03 0.45893939E+02</pdfrwt>
<totfact> 0.81847847E+05</totfact>
</mgrwt>
</event>
<event>
 4    1  0.2051373E-002  0.5544407E+02  0.7818608E-02  0.1418010E+00
          1   -1    0    0    0  501  0.00000000000E+00  0.00000000000E+00  0.33674720198E+01  0.33674757915E+01  0.50400000000E-02 0. -1.
         -1   -1    0    0  501    0 -0.00000000000E+00 -0.00000000000E+00 -0.22821594461E+03  0.22821594467E+03  0.50400000000E-02 0. -1.
          2    1    1    2    0  502 -0.84198441674E+01  0.25218276229E+02 -0.14522168578E+03  0.14763533879E+03  0.25500000000E-02 0. -1.
         -2    1    1    2  502    0  0.84198441674E+01 -0.25218276229E+02 -0.79626786814E+02  0.83948081673E+02  0.25500000000E-02 0. -1.
<mgrwt>
<rscale>  0 0.55444071E+02</rscale>
<asrwt>0</asrwt>
<pdfrwt beam="1">  1        1 0.51807309E-03 0.55444071E+02</pdfrwt>
<pdfrwt beam="2">  1       -1 0.35110133E-01 0.55444071E+02</pdfrwt>
<totfact> 0.23839290E+05</totfact>
</mgrwt>
</event>
<event>
 4    1  0.2051373E-002  0.4198026E+02  0.7818608E-02  0.1494125E+00
          1   -1    0    0    0  501  0.00000000000E+00  0.00000000000E+00  0.13798266064E+04  0.13798266064E+04  0.50400000000E-02 0.  1.
         -1   -1    0    0  501    0 -0.00000000000E+00 -0.00000000000E+00 -0.31928504813E+00  0.31932482452E+00  0.50400000000E-02 0.  1.
          2    1    1    2    0  502  0.18248174538E+02 -0.10100559160E+02  0.76733202266E+03  0.76761543118E+03  0.25500000000E-02 0.  1.
         -2    1    1    2  502    0 -0.18248174538E+02  0.10100559160E+02  0.61217529864E+03  0.61253050001E+03  0.25500000000E-02 0.  1.
<mgrwt>
<rscale>  0 0.41980255E+02</rscale>
<asrwt>0</asrwt>
<pdfrwt beam="1">  1        1 0.21228897E+00 0.41980255E+02</pdfrwt>
<pdfrwt beam="2">  1       -1 0.49121997E-04 0.41980255E+02</pdfrwt>
<totfact> 0.84709962E+05</totfact>
</mgrwt>
</event>
<event>
 4    1  0.2051373E-002  0.9001405E+02  0.7818608E-02  0.1302818E+00
         -1   -1    0    0  501    0 -0.00000000000E+00  0.00000000000E+00  0.16539441886E+03  0.16539441893E+03  0.50400000000E-02 0. -1.
          1   -1    0    0    0  501  0.00000000000E+00 -0.00000000000E+00 -0.12247282101E+02  0.12247283138E+02  0.50400000000E-02 0. -1.
          2    1    1    2    0  502  0.35569385085E+02 -0.27309496042E+02  0.84125217184E+02  0.95331222074E+02  0.25500000000E-02 0.  1.
         -2    1    1    2  502    0 -0.35569385085E+02  0.27309496042E+02  0.69021919572E+02  0.82310479997E+02  0.25500000000E-02 0.  1.
<mgrwt>
<rscale>  0 0.90014048E+02</rscale>
<asrwt>0</asrwt>
<pdfrwt beam="2">  1        1 0.18841973E-02 0.90014048E+02</pdfrwt>
<pdfrwt beam="1">  1       -1 0.25445295E-01 0.90014048E+02</pdfrwt>
<totfact> 0.75517530E+04</totfact>
</mgrwt>
</event>
<event>
 4    1  0.2051373E-002  0.4490951E+02  0.7818608E-02  0.1474907E+00
         -1   -1    0    0  501    0 -0.00000000000E+00  0.00000000000E+00  0.58518632178E+01  0.58518653882E+01  0.50400000000E-02 0.  1.
          1   -1    0    0    0  501  0.00000000000E+00 -0.00000000000E+00 -0.86163309076E+02  0.86163309223E+02  0.50400000000E-02 0.  1.
          2    1    1    2    0  502 -0.22159755034E+02 -0.17269455382E+01 -0.46692623708E+02  0.51713037034E+02  0.25500000000E-02 0.  1.
         -2    1    1    2  502    0  0.22159755034E+02  0.17269455382E+01 -0.33618822151E+02  0.40302137578E+02  0.25500000000E-02 0.  1.
<mgrwt>
<rscale>  0 0.44909509E+02</rscale>
<asrwt>0</asrwt>
<pdfrwt beam="2">  1        1 0.13255893E-01 0.44909509E+02</pdfrwt>
<pdfrwt beam="1">  1       -1 0.90028689E-03 0.44909509E+02</pdfrwt>
<totfact> 0.64862896E+05</totfact>
</mgrwt>
</event>
<event>
 4    1  0.2051373E-002  0.4615617E+02  0.7818608E-02  0.1467250E+00
         -1   -1    0    0  501    0 -0.00000000000E+00  0.00000000000E+00  0.12164828508E+02  0.12164829552E+02  0.50400000000E-02 0.  1.
          1   -1    0    0    0  501  0.00000000000E+00 -0.00000000000E+00 -0.43781785430E+02  0.43781785720E+02  0.50400000000E-02 0.  1.
          2    1    1    2    0  502 -0.18606571204E+02 -0.11014409880E+02 -0.25586596015E+02  0.33499188335E+02  0.25500000000E-02 0. -1.
         -2    1    1    2  502    0  0.18606571204E+02  0.11014409880E+02 -0.60303609074E+01  0.22447426938E+02  0.25500000000E-02 0. -1.
<mgrwt>
<rscale>  0 0.46156167E+02</rscale>
<asrwt>0</asrwt>
<pdfrwt beam="2">  1        1 0.67356593E-02 0.46156167E+02</pdfrwt>
<pdfrwt beam="1">  1       -1 0.18715122E-02 0.46156167E+02</pdfrwt>
<totfact> 0.56425201E+05</totfact>
</mgrwt>
</event>
<event>
 4    1  0.2051373E-002  0.1158354E+03  0.7818608E-02  0.1250130E+00
         -1   -1    0    0  501    0 -0.00000000000E+00  0.00000000000E+00  0.27541913682E+01  0.27541959796E+01  0.50400000000E-02 0.  1.
          1   -1    0    0    0  501  0.00000000000E+00 -0.00000000000E+00 -0.12179469588E+04  0.12179469588E+04  0.50400000000E-02 0.  1.
          2    1    1    2    0  502 -0.23129374085E+02  0.39331778842E+02 -0.23167443001E+03  0.23612496331E+03  0.25500000000E-02 0.  1.
         -2    1    1    2  502    0  0.23129374085E+02 -0.39331778842E+02 -0.98351833738E+03  0.98457619144E+03  0.25500000000E-02 0.  1.
<mgrwt>
<rscale>  0 0.11583543E+03</rscale>
<asrwt>0</asrwt>
<pdfrwt beam="2">  1        1 0.18737603E+00 0.11583543E+03</pdfrwt>
<pdfrwt beam="1">  1       -1 0.42372308E-03 0.11583543E+03</pdfrwt>
<totfact> 0.66637443E+04</totfact>
</mgrwt>
</event>
<event>
 4    1  0.2051373E-002  0.4480247E+02  0.7818608E-02  0.1475579E+00
         -1   -1    0    0  501    0 -0.00000000000E+00  0.00000000000E+00  0.50822824357E+01  0.50822849348E+01  0.50400000000E-02 0.  1.
          1   -1    0    0    0  501  0.00000000000E+00 -0.00000000000E+00 -0.98738151274E+02  0.98738151402E+02  0.50400000000E-02 0.  1.
          2    1    1    2    0  502 -0.37956132693E+01 -0.20097271843E+02 -0.68004020166E+02  0.71013053595E+02  0.25500000000E-02 0. -1.
         -2    1    1    2  502    0  0.37956132693E+01  0.20097271843E+02 -0.25651848672E+02  0.32807382742E+02  0.25500000000E-02 0. -1.
<mgrwt>
<rscale>  0 0.44802469E+02</rscale>
<asrwt>0</asrwt>
<pdfrwt beam="2">  1        1 0.15190484E-01 0.44802469E+02</pdfrwt>
<pdfrwt beam="1">  1       -1 0.78188988E-03 0.44802469E+02</pdfrwt>
<totfact> 0.66374424E+05</totfact>
</mgrwt>
</event>
<event>
 4    1  0.2051373E-002  0.5141133E+02  0.7818608E-02  0.1437875E+00
         -1   -1    0    0  501    0 -0.00000000000E+00  0.00000000000E+00  0.31166420319E+01  0.31166461071E+01  0.50400000000E-02 0. -1.
          1   -1    0    0    0  501  0.00000000000E+00 -0.00000000000E+00 -0.21201692820E+03  0.21201692826E+03  0.50400000000E-02 0. -1.
          2    1    1    2    0  502 -0.72379406824E+00  0.25464392938E+02 -0.90062255028E+02  0.93595774332E+02  0.25500000000E-02 0.  1.
         -2    1    1    2  502    0  0.72379406824E+00 -0.25464392938E+02 -0.11883803114E+03  0.12153780003E+03  0.25500000000E-02 0.  1.
<mgrwt>
<rscale>  0 0.51411334E+02</rscale>
<asrwt>0</asrwt>
<pdfrwt beam="2">  1        1 0.32617978E-01 0.51411334E+02</pdfrwt>
<pdfrwt beam="1">  1       -1 0.47948387E-03 0.51411334E+02</pdfrwt>
<totfact> 0.52954537E+05</totfact>
</mgrwt>
</event>
<event>
 4    1  0.2051373E-002  0.6589993E+02  0.7818608E-02  0.1374618E+00
          1   -1    0    0    0  501  0.00000000000E+00  0.00000000000E+00  0.27471275200E+01  0.27471321433E+01  0.50400000000E-02 0.  1.
         -1   -1    0    0  501    0 -0.00000000000E+00 -0.00000000000E+00 -0.39521260156E+03  0.39521260160E+03  0.50400000000E-02 0.  1.
          2    1    1    2    0  502  0.14363547825E+02  0.28708850353E+02 -0.24109562778E+03  0.24322337745E+03  0.25500000000E-02 0.  1.
         -2    1    1    2  502    0 -0.14363547825E+02 -0.28708850353E+02 -0.15136984626E+03  0.15473635629E+03  0.25500000000E-02 0.  1.
<mgrwt>
<rscale>  0 0.65899934E+02</rscale>
<asrwt>0</asrwt>
<pdfrwt beam="1">  1        1 0.42263567E-03 0.65899934E+02</pdfrwt>
<pdfrwt beam="2">  1       -1 0.60801894E-01 0.65899934E+02</pdfrwt>
<totfact> 0.12411085E+05</totfact>
</mgrwt>
</event>
<event>
 4    1  0.2051373E-002  0.8553661E+02  0.7818608E-02  0.1314035E+00
          1   -1    0    0    0  501  0.00000000000E+00  0.00000000000E+00  0.16482981957E+04  0.16482981957E+04  0.50400000000E-02 0. -1.
         -1   -1    0    0  501    0 -0.00000000000E+00 -0.00000000000E+00 -0.11097012261E+01  0.11097126713E+01  0.50400000000E-02 0. -1.
          2    1    1    2    0  502  0.20350875636E+02 -0.34452327639E+02  0.53242193702E+03  0.53392344024E+03  0.25500000000E-02 0. -1.
         -2    1    1    2  502    0 -0.20350875636E+02  0.34452327639E+02  0.11147665575E+04  0.11154844681E+04  0.25500000000E-02 0. -1.
<mgrwt>
<rscale>  0 0.85536611E+02</rscale>
<asrwt>0</asrwt>
<pdfrwt beam="1">  1        1 0.25358201E+00 0.85536611E+02</pdfrwt>
<pdfrwt beam="2">  1       -1 0.17072572E-03 0.85536611E+02</pdfrwt>
<totfact> 0.12006383E+05</totfact>
</mgrwt>
</event>
<event>
 4    1  0.2051373E-002  0.7750022E+02  0.7818608E-02  0.1336299E+00
         -1   -1    0    0  501    0 -0.00000000000E+00  0.00000000000E+00  0.14626939275E+01  0.14627026106E+01  0.50400000000E-02 0. -1.
          1   -1    0    0    0  501  0.00000000000E+00 -0.00000000000E+00 -0.10265760613E+04  0.10265760613E+04  0.50400000000E-02 0. -1.
          2    1    1    2    0  502  0.23352078445E+02 -0.30910201362E+02 -0.52450192869E+03  0.52593063547E+03  0.25500000000E-02 0.  1.
         -2    1    1    2  502    0 -0.23352078445E+02  0.30910201362E+02 -0.50061143865E+03  0.50210812842E+03  0.25500000000E-02 0.  1.
<mgrwt>
<rscale>  0 0.77500220E+02</rscale>
<asrwt>0</asrwt>
<pdfrwt beam="2">  1        1 0.15793420E+00 0.77500220E+02</pdfrwt>
<pdfrwt beam="1">  1       -1 0.22503132E-03 0.77500220E+02</pdfrwt>
<totfact> 0.20679175E+05</totfact>
</mgrwt>
</event>
<event>
 4    1  0.2051373E-002  0.4172299E+02  0.7818608E-02  0.1495902E+00
         -1   -1    0    0  501    0 -0.00000000000E+00  0.00000000000E+00  0.34372724670E+00  0.34376419494E+00  0.50400000000E-02 0. -1.
          1   -1    0    0    0  501  0.00000000000E+00 -0.00000000000E+00 -0.12660579066E+04  0.12660579066E+04  0.50400000000E-02 0. -1.
          2    1    1    2    0  502  0.75365395108E+01 -0.19402407267E+02 -0.67523305426E+03  0.67555379535E+03  0.25500000000E-02 0. -1.
         -2    1    1    2  502    0 -0.75365395108E+01  0.19402407267E+02 -0.59048112509E+03  0.59084787546E+03  0.25500000000E-02 0. -1.
<mgrwt>
<rscale>  0 0.41722991E+02</rscale>
<asrwt>0</asrwt>
<pdfrwt beam="2">  1        1 0.19477441E+00 0.41722991E+02</pdfrwt>
<pdfrwt beam="1">  1       -1 0.52884971E-04 0.41722991E+02</pdfrwt>
<totfact> 0.90443919E+05</totfact>
</mgrwt>
</event>
<event>
 4    1  0.2051373E-002  0.6367189E+02  0.7818608E-02  0.1383038E+00
         -1   -1    0    0  501    0 -0.00000000000E+00  0.00000000000E+00  0.50053537207E+00  0.50056074586E+00  0.50400000000E-02 0.  1.
          1   -1    0    0    0  501  0.00000000000E+00 -0.00000000000E+00 -0.20248350658E+04  0.20248350658E+04  0.50400000000E-02 0.  1.
          2    1    1    2    0  502 -0.25427036105E+02 -0.13316742559E+01 -0.40427528781E+03  0.40507630869E+03  0.25500000000E-02 0. -1.
         -2    1    1    2  502    0  0.25427036105E+02  0.13316742559E+01 -0.16200592426E+04  0.16202593179E+04  0.25500000000E-02 0. -1.
<mgrwt>
<rscale>  0 0.63671886E+02</rscale>
<asrwt>0</asrwt>
<pdfrwt beam="2">  1        1 0.31150653E+00 0.63671886E+02</pdfrwt>
<pdfrwt beam="1">  1       -1 0.77009015E-04 0.63671886E+02</pdfrwt>
<totfact> 0.19996683E+05</totfact>
</mgrwt>
</event>
<event>
 4    1  0.2051373E-002  0.4902665E+02  0.7818608E-02  0.1450663E+00
         -1   -1    0    0  501    0 -0.00000000000E+00  0.00000000000E+00  0.22913401685E+01  0.22913457114E+01  0.50400000000E-02 0. -1.
          1   -1    0    0    0  501  0.00000000000E+00 -0.00000000000E+00 -0.26224924999E+03  0.26224925004E+03  0.50400000000E-02 0. -1.
          2    1    1    2    0  502 -0.44155438326E+00  0.22402284008E+02 -0.76332752042E+02  0.79553418153E+02  0.25500000000E-02 0. -1.
         -2    1    1    2  502    0  0.44155438326E+00 -0.22402284008E+02 -0.18362515778E+03  0.18498717759E+03  0.25500000000E-02 0. -1.
<mgrwt>
<rscale>  0 0.49026645E+02</rscale>
<asrwt>0</asrwt>
<pdfrwt beam="2">  1        1 0.40346015E-01 0.49026645E+02</pdfrwt>
<pdfrwt beam="1">  1       -1 0.35251451E-03 0.49026645E+02</pdfrwt>
<totfact> 0.61904990E+05</totfact>
</mgrwt>
</event>
<event>
 4    1  0.2051373E-002  0.9823140E+02  0.7818608E-02  0.1284060E+00
         -1   -1    0    0  501    0 -0.00000000000E+00  0.00000000000E+00  0.21046235159E+01  0.21046295506E+01  0.50400000000E-02 0.  1.
          1   -1    0    0    0  501  0.00000000000E+00 -0.00000000000E+00 -0.11462138405E+04  0.11462138405E+04  0.50400000000E-02 0.  1.
          2    1    1    2    0  502  0.36402616882E+02 -0.56476179609E+01 -0.19230161604E+03  0.19579825751E+03  0.25500000000E-02 0.  1.
         -2    1    1    2  502    0 -0.36402616882E+02  0.56476179609E+01 -0.95180760092E+03  0.95252021253E+03  0.25500000000E-02 0.  1.
<mgrwt>
<rscale>  0 0.98231402E+02</rscale>
<asrwt>0</asrwt>
<pdfrwt beam="2">  1        1 0.17634009E+00 0.98231402E+02</pdfrwt>
<pdfrwt beam="1">  1       -1 0.32378961E-03 0.98231402E+02</pdfrwt>
<totfact> 0.10659887E+05</totfact>
</mgrwt>
</event>
<event>
 4    1  0.2051373E-002  0.5814961E+02  0.7818608E-02  0.1405765E+00
         -1   -1    0    0  501    0 -0.00000000000E+00  0.00000000000E+00  0.16022812727E+01  0.16022891993E+01  0.50400000000E-02 0.  1.
          1   -1    0    0    0  501  0.00000000000E+00 -0.00000000000E+00 -0.52758662119E+03  0.52758662121E+03  0.50400000000E-02 0.  1.
          2    1    1    2    0  502  0.24600934863E+02  0.10972197440E+02 -0.16340574363E+03  0.16561108710E+03  0.25500000000E-02 0.  1.
         -2    1    1    2  502    0 -0.24600934863E+02 -0.10972197440E+02 -0.36257859629E+03  0.36357782331E+03  0.25500000000E-02 0.  1.
<mgrwt>
<rscale>  0 0.58149609E+02</rscale>
<asrwt>0</asrwt>
<pdfrwt beam="2">  1        1 0.81167035E-01 0.58149609E+02</pdfrwt>
<pdfrwt beam="1">  1       -1 0.24650584E-03 0.58149609E+02</pdfrwt>
<totfact> 0.44882983E+05</totfact>
</mgrwt>
</event>
<event>
 4    1  0.2051373E-002  0.1048878E+03  0.7818608E-02  0.1270341E+00
         -1   -1    0    0  501    0 -0.00000000000E+00  0.00000000000E+00  0.27621956365E+01  0.27622002346E+01  0.50400000000E-02 0.  1.
          1   -1    0    0    0  501  0.00000000000E+00 -0.00000000000E+00 -0.99571546559E+03  0.99571546560E+03  0.50400000000E-02 0.  1.
          2    1    1    2    0  502 -0.24507581741E+02 -0.54653402639E+00 -0.55133582100E+02  0.60337651130E+02  0.25500000000E-02 0.  1.
         -2    1    1    2  502    0  0.24507581741E+02  0.54653402639E+00 -0.93781968785E+03  0.93814001471E+03  0.25500000000E-02 0.  1.
<mgrwt>
<rscale>  0 0.10488781E+03</rscale>
<asrwt>0</asrwt>
<pdfrwt beam="2">  1        1 0.15318671E+00 0.10488781E+03</pdfrwt>
<pdfrwt beam="1">  1       -1 0.42495432E-03 0.10488781E+03</pdfrwt>
<totfact> 0.93795157E+04</totfact>
</mgrwt>
</event>
<event>
 4    1  0.2051373E-002  0.1391609E+03  0.7818608E-02  0.1214463E+00
          1   -1    0    0    0  501  0.00000000000E+00  0.00000000000E+00  0.57801711894E+01  0.57801733867E+01  0.50400000000E-02 0.  1.
         -1   -1    0    0  501    0 -0.00000000000E+00 -0.00000000000E+00 -0.83759425086E+03  0.83759425088E+03  0.50400000000E-02 0.  1.
          2    1    1    2    0  502  0.14827145935E+02 -0.65178724536E+02 -0.53300487899E+03  0.53717996185E+03  0.25500000000E-02 0. -1.
         -2    1    1    2  502    0 -0.14827145935E+02  0.65178724536E+02 -0.29880920069E+03  0.30619446241E+03  0.25500000000E-02 0. -1.
<mgrwt>
<rscale>  0 0.13916090E+03</rscale>
<asrwt>0</asrwt>
<pdfrwt beam="1">  1        1 0.88925794E-03 0.13916090E+03</pdfrwt>
<pdfrwt beam="2">  1       -1 0.12886056E+00 0.13916090E+03</pdfrwt>
<totfact> 0.10081209E+04</totfact>
</mgrwt>
</event>
<event>
 4    1  0.2051373E-002  0.4045044E+02  0.7818608E-02  0.1504923E+00
          1   -1    0    0    0  501  0.00000000000E+00  0.00000000000E+00  0.17563725353E+02  0.17563726076E+02  0.50400000000E-02 0. -1.
         -1   -1    0    0  501    0 -0.00000000000E+00 -0.00000000000E+00 -0.23290013964E+02  0.23290014510E+02  0.50400000000E-02 0. -1.
          2    1    1    2    0  502 -0.10067911337E+02  0.17539188990E+02 -0.25894460507E+01  0.20388507216E+02  0.25500000000E-02 0.  1.
         -2    1    1    2  502    0  0.10067911337E+02 -0.17539188990E+02 -0.31368425613E+01  0.20465233370E+02  0.25500000000E-02 0.  1.
<mgrwt>
<rscale>  0 0.40450436E+02</rscale>
<asrwt>0</asrwt>
<pdfrwt beam="1">  1        1 0.27021117E-02 0.40450436E+02</pdfrwt>
<pdfrwt beam="2">  1       -1 0.35830792E-02 0.40450436E+02</pdfrwt>
<totfact> 0.73245312E+05</totfact>
</mgrwt>
</event>
<event>
 4    1  0.2051373E-002  0.1011009E+03  0.7818608E-02  0.1277998E+00
          1   -1    0    0    0  501  0.00000000000E+00  0.00000000000E+00  0.40030073193E+03  0.40030073196E+03  0.50400000000E-02 0.  1.
         -1   -1    0    0  501    0 -0.00000000000E+00 -0.00000000000E+00 -0.63835683467E+01  0.63835703363E+01  0.50400000000E-02 0.  1.
          2    1    1    2    0  502  0.47572371008E+02 -0.79709162273E+01  0.13612856396E+03  0.14442178479E+03  0.25500000000E-02 0. -1.
         -2    1    1    2  502    0 -0.47572371008E+02  0.79709162273E+01  0.25778859962E+03  0.26226251750E+03  0.25500000000E-02 0. -1.
<mgrwt>
<rscale>  0 0.10110089E+03</rscale>
<asrwt>0</asrwt>
<pdfrwt beam="1">  1        1 0.61584715E-01 0.10110089E+03</pdfrwt>
<pdfrwt beam="2">  1       -1 0.98208780E-03 0.10110089E+03</pdfrwt>
<totfact> 0.10238571E+05</totfact>
</mgrwt>
</event>
<event>
 4    1  0.2051373E-002  0.9853734E+02  0.7818608E-02  0.1283402E+00
          1   -1    0    0    0  501  0.00000000000E+00  0.00000000000E+00  0.15315475020E+02  0.15315475849E+02  0.50400000000E-02 0. -1.
         -1   -1    0    0  501    0 -0.00000000000E+00 -0.00000000000E+00 -0.15849341963E+03  0.15849341971E+03  0.50400000000E-02 0. -1.
          2    1    1    2    0  502  0.29266328868E+02  0.14934880604E+02 -0.68315946682E+01  0.33559489810E+02  0.25500000000E-02 0. -1.
         -2    1    1    2  502    0 -0.29266328868E+02 -0.14934880604E+02 -0.13634634994E+03  0.14024940575E+03  0.25500000000E-02 0. -1.
<mgrwt>
<rscale>  0 0.98537345E+02</rscale>
<asrwt>0</asrwt>
<pdfrwt beam="1">  1        1 0.23562271E-02 0.98537345E+02</pdfrwt>
<pdfrwt beam="2">  1       -1 0.24383602E-01 0.98537345E+02</pdfrwt>
<totfact> 0.60300952E+04</totfact>
</mgrwt>
</event>
<event>
 4    1  0.2051373E-002  0.4333475E+02  0.7818608E-02  0.1485013E+00
          1   -1    0    0    0  501  0.00000000000E+00  0.00000000000E+00  0.43138647267E+03  0.43138647270E+03  0.50400000000E-02 0. -1.
         -1   -1    0    0  501    0 -0.00000000000E+00 -0.00000000000E+00 -0.10882876578E+01  0.10882993282E+01  0.50400000000E-02 0. -1.
          2    1    1    2    0  502 -0.13158068212E+02 -0.15733670168E+02  0.14543852190E+03  0.14687765928E+03  0.25500000000E-02 0.  1.
         -2    1    1    2  502    0  0.13158068212E+02  0.15733670168E+02  0.28485966311E+03  0.28559711275E+03  0.25500000000E-02 0.  1.
<mgrwt>
<rscale>  0 0.43334748E+02</rscale>
<asrwt>0</asrwt>
<pdfrwt beam="1">  1        1 0.66367171E-01 0.43334748E+02</pdfrwt>
<pdfrwt beam="2">  1       -1 0.16742972E-03 0.43334748E+02</pdfrwt>
<totfact> 0.91019180E+05</totfact>
</mgrwt>
</event>
<event>
 4    1  0.2051373E-002  0.4649665E+02  0.7818608E-02  0.1465209E+00
         -1   -1    0    0  501    0 -0.00000000000E+00  0.00000000000E+00  0.48261444891E+02  0.48261445155E+02  0.50400000000E-02 0.  1.
          1   -1    0    0    0  501  0.00000000000E+00 -0.00000000000E+00 -0.11199097567E+02  0.11199098701E+02  0.50400000000E-02 0.  1.
          2    1    1    2    0  502 -0.17192079397E+02  0.14213845538E+02  0.10156784409E+02  0.24510431963E+02  0.25500000000E-02 0. -1.
         -2    1    1    2  502    0  0.17192079397E+02 -0.14213845538E+02  0.26905562916E+02  0.34950111892E+02  0.25500000000E-02 0. -1.
<mgrwt>
<rscale>  0 0.46496652E+02</rscale>
<asrwt>0</asrwt>
<pdfrwt beam="2">  1        1 0.17229382E-02 0.46496652E+02</pdfrwt>
<pdfrwt beam="1">  1       -1 0.74248378E-02 0.46496652E+02</pdfrwt>
<totfact> 0.49014009E+05</totfact>
</mgrwt>
</event>
<event>
 4    1  0.2051373E-002  0.7110862E+02  0.7818608E-02  0.1356363E+00
         -1   -1    0    0  501    0 -0.00000000000E+00  0.00000000000E+00  0.19981034236E+01  0.19981097800E+01  0.50400000000E-02 0.  1.
          1   -1    0    0    0  501  0.00000000000E+00 -0.00000000000E+00 -0.63265339356E+03  0.63265339358E+03  0.50400000000E-02 0.  1.
          2    1    1    2    0  502  0.19840621983E+02 -0.23166428329E+02 -0.15227038908E+03  0.15529521911E+03  0.25500000000E-02 0.  1.
         -2    1    1    2  502    0 -0.19840621983E+02  0.23166428329E+02 -0.47838490106E+03  0.47935628425E+03  0.25500000000E-02 0.  1.
<mgrwt>
<rscale>  0 0.71108619E+02</rscale>
<asrwt>0</asrwt>
<pdfrwt beam="2">  1        1 0.97331132E-01 0.71108619E+02</pdfrwt>
<pdfrwt beam="1">  1       -1 0.30740152E-03 0.71108619E+02</pdfrwt>
<totfact> 0.27183389E+05</totfact>
</mgrwt>
</event>
<event>
 4    1  0.2051373E-002  0.8723492E+02  0.7818608E-02  0.1309689E+00
          1   -1    0    0    0  501  0.00000000000E+00  0.00000000000E+00  0.99870391750E+03  0.99870391752E+03  0.50400000000E-02 0. -1.
         -1   -1    0    0  501    0 -0.00000000000E+00 -0.00000000000E+00 -0.19049482329E+01  0.19049549001E+01  0.50400000000E-02 0. -1.
          2    1    1    2    0  502 -0.69583505461E+01  0.39758746064E+02  0.30877315321E+03  0.31140012312E+03  0.25500000000E-02 0. -1.
         -2    1    1    2  502    0  0.69583505461E+01 -0.39758746064E+02  0.68802581606E+03  0.68920874930E+03  0.25500000000E-02 0. -1.
<mgrwt>
<rscale>  0 0.87234915E+02</rscale>
<asrwt>0</asrwt>
<pdfrwt beam="1">  1        1 0.15364690E+00 0.87234915E+02</pdfrwt>
<pdfrwt beam="2">  1       -1 0.29306919E-03 0.87234915E+02</pdfrwt>
<totfact> 0.15288787E+05</totfact>
</mgrwt>
</event>
<event>
 4    1  0.2051373E-002  0.5758465E+02  0.7818608E-02  0.1408257E+00
          1   -1    0    0    0  501  0.00000000000E+00  0.00000000000E+00  0.78588436730E+02  0.78588436892E+02  0.50400000000E-02 0.  1.
         -1   -1    0    0  501    0 -0.00000000000E+00 -0.00000000000E+00 -0.10548598263E+02  0.10548599467E+02  0.50400000000E-02 0.  1.
          2    1    1    2    0  502 -0.27044436969E+02  0.98000822695E+01  0.35950008108E+02  0.46041788333E+02  0.25500000000E-02 0.  1.
         -2    1    1    2  502    0  0.27044436969E+02 -0.98000822695E+01  0.32089830359E+02  0.43095248026E+02  0.25500000000E-02 0.  1.
<mgrwt>
<rscale>  0 0.57584648E+02</rscale>
<asrwt>0</asrwt>
<pdfrwt beam="1">  1        1 0.12090529E-01 0.57584648E+02</pdfrwt>
<pdfrwt beam="2">  1       -1 0.16228614E-02 0.57584648E+02</pdfrwt>
<totfact> 0.34127591E+05</totfact>
</mgrwt>
</event>
<event>
 4    1  0.2051373E-002  0.4496766E+02  0.7818608E-02  0.1474544E+00
         -1   -1    0    0  501    0 -0.00000000000E+00  0.00000000000E+00  0.12568944449E+01  0.12569045497E+01  0.50400000000E-02 0.  1.
          1   -1    0    0    0  501  0.00000000000E+00 -0.00000000000E+00 -0.40219808963E+03  0.40219808966E+03  0.50400000000E-02 0.  1.
          2    1    1    2    0  502  0.14646603051E+02 -0.16047405848E+02 -0.25238524694E+03  0.25331868288E+03  0.25500000000E-02 0. -1.
         -2    1    1    2  502    0 -0.14646603051E+02  0.16047405848E+02 -0.14855594824E+03  0.15013631133E+03  0.25500000000E-02 0. -1.
<mgrwt>
<rscale>  0 0.44967659E+02</rscale>
<asrwt>0</asrwt>
<pdfrwt beam="2">  1        1 0.61876527E-01 0.44967659E+02</pdfrwt>
<pdfrwt beam="1">  1       -1 0.19336948E-03 0.44967659E+02</pdfrwt>
<totfact> 0.82313135E+05</totfact>
</mgrwt>
</event>
<event>
 4    1  0.2051373E-002  0.6473781E+02  0.7818608E-02  0.1378960E+00
          1   -1    0    0    0  501  0.00000000000E+00  0.00000000000E+00  0.80024847948E+01  0.80024863819E+01  0.50400000000E-02 0.  1.
         -1   -1    0    0  501    0 -0.00000000000E+00 -0.00000000000E+00 -0.13092757088E+03  0.13092757097E+03  0.50400000000E-02 0.  1.
          2    1    1    2    0  502 -0.24306030010E+02  0.79559845017E+01 -0.18882927548E+02  0.31790654972E+02  0.25500000000E-02 0.  1.
         -2    1    1    2  502    0  0.24306030010E+02 -0.79559845017E+01 -0.10404215853E+03  0.10713940238E+03  0.25500000000E-02 0.  1.
<mgrwt>
<rscale>  0 0.64737810E+02</rscale>
<asrwt>0</asrwt>
<pdfrwt beam="1">  1        1 0.12311517E-02 0.64737810E+02</pdfrwt>
<pdfrwt beam="2">  1       -1 0.20142702E-01 0.64737810E+02</pdfrwt>
<totfact> 0.18549421E+05</totfact>
</mgrwt>
</event>
<event>
 4    1  0.2051373E-002  0.7042598E+02  0.7818608E-02  0.1358650E+00
          1   -1    0    0    0  501  0.00000000000E+00  0.00000000000E+00  0.87785407013E+03  0.87785407014E+03  0.50400000000E-02 0. -1.
         -1   -1    0    0  501    0 -0.00000000000E+00 -0.00000000000E+00 -0.14124794147E+01  0.14124884065E+01  0.50400000000E-02 0. -1.
          2    1    1    2    0  502  0.35035964200E+02 -0.33131894515E+01  0.45329995853E+03  0.45466399508E+03  0.25500000000E-02 0.  1.
         -2    1    1    2  502    0 -0.35035964200E+02  0.33131894515E+01  0.42314163219E+03  0.42460256347E+03  0.25500000000E-02 0.  1.
<mgrwt>
<rscale>  0 0.70425983E+02</rscale>
<asrwt>0</asrwt>
<pdfrwt beam="1">  1        1 0.13505467E+00 0.70425983E+02</pdfrwt>
<pdfrwt beam="2">  1       -1 0.21730490E-03 0.70425983E+02</pdfrwt>
<totfact> 0.27418658E+05</totfact>
</mgrwt>
</event>
<event>
 4    1  0.2051373E-002  0.4801898E+02  0.7818608E-02  0.1456329E+00
          1   -1    0    0    0  501  0.00000000000E+00  0.00000000000E+00  0.19882198678E+03  0.19882198684E+03  0.50400000000E-02 0.  1.
         -1   -1    0    0  501    0 -0.00000000000E+00 -0.00000000000E+00 -0.28993532750E+01  0.28993576555E+01  0.50400000000E-02 0.  1.
          2    1    1    2    0  502 -0.51581135662E+01 -0.21176757538E+02  0.55660772493E+02  0.59776105564E+02  0.25500000000E-02 0.  1.
         -2    1    1    2  502    0  0.51581135662E+01  0.21176757538E+02  0.14026186101E+03  0.14194523893E+03  0.25500000000E-02 0.  1.
<mgrwt>
<rscale>  0 0.48018981E+02</rscale>
<asrwt>0</asrwt>
<pdfrwt beam="1">  1        1 0.30588002E-01 0.48018981E+02</pdfrwt>
<pdfrwt beam="2">  1       -1 0.44605463E-03 0.48018981E+02</pdfrwt>
<totfact> 0.62113481E+05</totfact>
</mgrwt>
</event>
<event>
 4    1  0.2051373E-002  0.1150532E+03  0.7818608E-02  0.1251488E+00
         -1   -1    0    0  501    0 -0.00000000000E+00  0.00000000000E+00  0.20810505232E+01  0.20810566262E+01  0.50400000000E-02 0.  1.
          1   -1    0    0    0  501  0.00000000000E+00 -0.00000000000E+00 -0.15902076311E+04  0.15902076311E+04  0.50400000000E-02 0.  1.
          2    1    1    2    0  502 -0.48655929011E+01  0.29197202280E+02 -0.11139724422E+03  0.11526272876E+03  0.25500000000E-02 0. -1.
         -2    1    1    2  502    0  0.48655929011E+01 -0.29197202280E+02 -0.14767293364E+04  0.14770259590E+04  0.25500000000E-02 0. -1.
<mgrwt>
<rscale>  0 0.11505316E+03</rscale>
<asrwt>0</asrwt>
<pdfrwt beam="2">  1        1 0.24464636E+00 0.11505316E+03</pdfrwt>
<pdfrwt beam="1">  1       -1 0.32016336E-03 0.11505316E+03</pdfrwt>
<totfact> 0.56327399E+04</totfact>
</mgrwt>
</event>
<event>
 4    1  0.2051373E-002  0.4820842E+02  0.7818608E-02  0.1455251E+00
          1   -1    0    0    0  501  0.00000000000E+00  0.00000000000E+00  0.23131711242E+03  0.23131711248E+03  0.50400000000E-02 0. -1.
         -1   -1    0    0  501    0 -0.00000000000E+00 -0.00000000000E+00 -0.25117567985E+01  0.25117618550E+01  0.50400000000E-02 0. -1.
          2    1    1    2    0  502 -0.19826855667E+02  0.10736156905E+02  0.73062334918E+02  0.76462239445E+02  0.25500000000E-02 0.  1.
         -2    1    1    2  502    0  0.19826855667E+02 -0.10736156905E+02  0.15574302071E+03  0.15736663489E+03  0.25500000000E-02 0.  1.
<mgrwt>
<rscale>  0 0.48208419E+02</rscale>
<asrwt>0</asrwt>
<pdfrwt beam="1">  1        1 0.35587258E-01 0.48208419E+02</pdfrwt>
<pdfrwt beam="2">  1       -1 0.38642441E-03 0.48208419E+02</pdfrwt>
<totfact> 0.63144964E+05</totfact>
</mgrwt>
</event>
<event>
 4    1  0.2051373E-002  0.7493119E+02  0.7818608E-02  0.1344084E+00
          1   -1    0    0    0  501  0.00000000000E+00  0.00000000000E+00  0.59394477753E+03  0.59394477755E+03  0.50400000000E-02 0.  1.
         -1   -1    0    0  501    0 -0.00000000000E+00 -0.00000000000E+00 -0.23632991866E+01  0.23633045607E+01  0.50400000000E-02 0.  1.
          2    1    1    2    0  502  0.82444498587E+00 -0.29429509984E+02  0.48018727676E+03  0.48108896946E+03  0.25500000000E-02 0. -1.
         -2    1    1    2  502    0 -0.82444498587E+00  0.29429509984E+02  0.11139420158E+03  0.11521911265E+03  0.25500000000E-02 0. -1.
<mgrwt>
<rscale>  0 0.74931190E+02</rscale>
<asrwt>0</asrwt>
<pdfrwt beam="1">  1        1 0.91375933E-01 0.74931190E+02</pdfrwt>
<pdfrwt beam="2">  1       -1 0.36358565E-03 0.74931190E+02</pdfrwt>
<totfact> 0.23666395E+05</totfact>
</mgrwt>
</event>
<event>
 4    1  0.2051373E-002  0.7963257E+02  0.7818608E-02  0.1330097E+00
         -1   -1    0    0  501    0 -0.00000000000E+00  0.00000000000E+00  0.28477975514E+01  0.28478020113E+01  0.50400000000E-02 0. -1.
          1   -1    0    0    0  501  0.00000000000E+00 -0.00000000000E+00 -0.55668821804E+03  0.55668821806E+03  0.50400000000E-02 0. -1.
          2    1    1    2    0  502 -0.16955071681E+02  0.19199958389E+02 -0.62731064918E+02  0.67759127577E+02  0.25500000000E-02 0. -1.
         -2    1    1    2  502    0  0.16955071681E+02 -0.19199958389E+02 -0.49110935557E+03  0.49177689249E+03  0.25500000000E-02 0. -1.
<mgrwt>
<rscale>  0 0.79632571E+02</rscale>
<asrwt>0</asrwt>
<pdfrwt beam="2">  1        1 0.85644255E-01 0.79632571E+02</pdfrwt>
<pdfrwt beam="1">  1       -1 0.43812349E-03 0.79632571E+02</pdfrwt>
<totfact> 0.20103012E+05</totfact>
</mgrwt>
</event>
<event>
 4    1  0.2051373E-002  0.5596271E+02  0.7818608E-02  0.1415600E+00
          1   -1    0    0    0  501  0.00000000000E+00  0.00000000000E+00  0.16525443875E+02  0.16525444644E+02  0.50400000000E-02 0. -1.
         -1   -1    0    0  501    0 -0.00000000000E+00 -0.00000000000E+00 -0.47378830953E+02  0.47378831221E+02  0.50400000000E-02 0. -1.
          2    1    1    2    0  502  0.57859489280E+01  0.24075330371E+02 -0.30309113006E+02  0.39137463832E+02  0.25500000000E-02 0.  1.
         -2    1    1    2  502    0 -0.57859489280E+01 -0.24075330371E+02 -0.54427407115E+00  0.24766812032E+02  0.25500000000E-02 0.  1.
<mgrwt>
<rscale>  0 0.55962711E+02</rscale>
<asrwt>0</asrwt>
<pdfrwt beam="1">  1        1 0.25423761E-02 0.55962711E+02</pdfrwt>
<pdfrwt beam="2">  1       -1 0.72890509E-02 0.55962711E+02</pdfrwt>
<totfact> 0.31139105E+05</totfact>
</mgrwt>
</event>
<event>
 4    1  0.2051373E-002  0.4686868E+02  0.7818608E-02  0.1463002E+00
         -1   -1    0    0  501    0 -0.00000000000E+00  0.00000000000E+00  0.20904620820E+03  0.20904620826E+03  0.50400000000E-02 0. -1.
          1   -1    0    0    0  501  0.00000000000E+00 -0.00000000000E+00 -0.26270156471E+01  0.26270204818E+01  0.50400000000E-02 0. -1.
          2    1    1    2    0  502 -0.14070141012E+02 -0.17212162663E+02  0.69733825316E+02  0.73191760543E+02  0.25500000000E-02 0.  1.
         -2    1    1    2  502    0  0.14070141012E+02  0.17212162663E+02  0.13668536724E+03  0.13848146820E+03  0.25500000000E-02 0.  1.
<mgrwt>
<rscale>  0 0.46868675E+02</rscale>
<asrwt>0</asrwt>
<pdfrwt beam="2">  1        1 0.40415653E-03 0.46868675E+02</pdfrwt>
<pdfrwt beam="1">  1       -1 0.32160963E-01 0.46868675E+02</pdfrwt>
<totfact> 0.37140619E+05</totfact>
</mgrwt>
</event>
<event>
 4    1  0.2051373E-002  0.5148857E+02  0.7818608E-02  0.1437474E+00
          1   -1    0    0    0  501  0.00000000000E+00  0.00000000000E+00  0.45627116206E+01  0.45627144042E+01  0.50400000000E-02 0.  1.
         -1   -1    0    0  501    0 -0.00000000000E+00 -0.00000000000E+00 -0.14525747614E+03  0.14525747623E+03  0.50400000000E-02 0.  1.
          2    1    1    2    0  502 -0.16871168306E+02  0.16098953942E+02 -0.38611405665E+02  0.45107131276E+02  0.25500000000E-02 0. -1.
         -2    1    1    2  502    0  0.16871168306E+02 -0.16098953942E+02 -0.10208335885E+03  0.10471305936E+03  0.25500000000E-02 0. -1.
<mgrwt>
<rscale>  0 0.51488569E+02</rscale>
<asrwt>0</asrwt>
<pdfrwt beam="1">  1        1 0.70195597E-03 0.51488569E+02</pdfrwt>
<pdfrwt beam="2">  1       -1 0.22347301E-01 0.51488569E+02</pdfrwt>
<totfact> 0.32242890E+05</totfact>
</mgrwt>
</event>
<event>
 4    1  0.2051373E-002  0.9133628E+02  0.7818608E-02  0.1299648E+00
         -1   -1    0    0  501    0 -0.00000000000E+00  0.00000000000E+00  0.66337640474E+00  0.66339555015E+00  0.50400000000E-02 0. -1.
          1   -1    0    0    0  501  0.00000000000E+00 -0.00000000000E+00 -0.31438392952E+04  0.31438392952E+04  0.50400000000E-02 0. -1.
          2    1    1    2    0  502  0.25511048743E+02 -0.36993629681E+02 -0.12913945667E+04  0.12921761757E+04  0.25500000000E-02 0. -1.
         -2    1    1    2  502    0 -0.25511048743E+02  0.36993629681E+02 -0.18517813521E+04  0.18523265150E+04  0.25500000000E-02 0. -1.
<mgrwt>
<rscale>  0 0.91336278E+02</rscale>
<asrwt>0</asrwt>
<pdfrwt beam="2">  1        1 0.48365566E+00 0.91336278E+02</pdfrwt>
<pdfrwt beam="1">  1       -1 0.10206190E-03 0.91336278E+02</pdfrwt>
<totfact> 0.26595581E+04</totfact>
</mgrwt>
</event>
<event>
 4    1  0.2051373E-002  0.6941933E+02  0.7818608E-02  0.1362079E+00
         -1   -1    0    0  501    0 -0.00000000000E+00  0.00000000000E+00  0.59497409670E+01  0.59497431017E+01  0.50400000000E-02 0.  1.
          1   -1    0    0    0  501  0.00000000000E+00 -0.00000000000E+00 -0.20248959873E+03  0.20248959879E+03  0.50400000000E-02 0.  1.
          2    1    1    2    0  502  0.21579271545E+02  0.26580042394E+02 -0.11541304939E+03  0.12038411685E+03  0.25500000000E-02 0.  1.
         -2    1    1    2  502    0 -0.21579271545E+02 -0.26580042394E+02 -0.81126808375E+02  0.88055225045E+02  0.25500000000E-02 0.  1.
<mgrwt>
<rscale>  0 0.69419331E+02</rscale>
<asrwt>0</asrwt>
<pdfrwt beam="2">  1        1 0.31152241E-01 0.69419331E+02</pdfrwt>
<pdfrwt beam="1">  1       -1 0.91534509E-03 0.69419331E+02</pdfrwt>
<totfact> 0.24378807E+05</totfact>
</mgrwt>
</event>
<event>
 4    1  0.2051373E-002  0.4166757E+02  0.7818608E-02  0.1496287E+00
         -1   -1    0    0  501    0 -0.00000000000E+00  0.00000000000E+00  0.24914470093E+00  0.24919567332E+00  0.50400000000E-02 0. -1.
          1   -1    0    0    0  501  0.00000000000E+00 -0.00000000000E+00 -0.17419684141E+04  0.17419684141E+04  0.50400000000E-02 0. -1.
          2    1    1    2    0  502 -0.47452112821E+01  0.19980005290E+02 -0.10176736272E+04  0.10178808030E+04  0.25500000000E-02 0.  1.
         -2    1    1    2  502    0  0.47452112821E+01 -0.19980005290E+02 -0.72404564226E+03  0.72433680682E+03  0.25500000000E-02 0.  1.
<mgrwt>
<rscale>  0 0.41667571E+02</rscale>
<asrwt>0</asrwt>
<pdfrwt beam="2">  1        1 0.26798539E+00 0.41667571E+02</pdfrwt>
<pdfrwt beam="1">  1       -1 0.38335270E-04 0.41667571E+02</pdfrwt>
<totfact> 0.70620865E+05</totfact>
</mgrwt>
</event>
<event>
 4    1  0.2051373E-002  0.7407934E+02  0.7818608E-02  0.1346746E+00
         -1   -1    0    0  501    0 -0.00000000000E+00  0.00000000000E+00  0.20599219636E+01  0.20599281293E+01  0.50400000000E-02 0. -1.
          1   -1    0    0    0  501  0.00000000000E+00 -0.00000000000E+00 -0.66601313985E+03  0.66601313986E+03  0.50400000000E-02 0. -1.
          2    1    1    2    0  502 -0.33869545781E+02 -0.67012551697E+01 -0.45293148222E+03  0.45424550691E+03  0.25500000000E-02 0. -1.
         -2    1    1    2  502    0  0.33869545781E+02  0.67012551697E+01 -0.21102173566E+03  0.21382756108E+03  0.25500000000E-02 0. -1.
<mgrwt>
<rscale>  0 0.74079340E+02</rscale>
<asrwt>0</asrwt>
<pdfrwt beam="2">  1        1 0.10246339E+00 0.74079340E+02</pdfrwt>
<pdfrwt beam="1">  1       -1 0.31691208E-03 0.74079340E+02</pdfrwt>
<totfact> 0.24484508E+05</totfact>
</mgrwt>
</event>
<event>
 4    1  0.2051373E-002  0.8123549E+02  0.7818608E-02  0.1325581E+00
          1   -1    0    0    0  501  0.00000000000E+00  0.00000000000E+00  0.50722277204E+02  0.50722277454E+02  0.50400000000E-02 0.  1.
         -1   -1    0    0  501    0 -0.00000000000E+00 -0.00000000000E+00 -0.32526163310E+02  0.32526163701E+02  0.50400000000E-02 0.  1.
          2    1    1    2    0  502  0.28997054601E+02  0.28121911911E+02  0.13461497514E+02  0.42577964100E+02  0.25500000000E-02 0.  1.
         -2    1    1    2  502    0 -0.28997054601E+02 -0.28121911911E+02  0.47346163802E+01  0.40670477055E+02  0.25500000000E-02 0.  1.
<mgrwt>
<rscale>  0 0.81235487E+02</rscale>
<asrwt>0</asrwt>
<pdfrwt beam="1">  1        1 0.78034273E-02 0.81235487E+02</pdfrwt>
<pdfrwt beam="2">  1       -1 0.50040252E-02 0.81235487E+02</pdfrwt>
<totfact> 0.12932249E+05</totfact>
</mgrwt>
</event>
<event>
 4    1  0.2051373E-002  0.6533670E+02  0.7818608E-02  0.1376709E+00
          1   -1    0    0    0  501  0.00000000000E+00  0.00000000000E+00  0.45124815161E+03  0.45124815164E+03  0.50400000000E-02 0.  1.
         -1   -1    0    0  501    0 -0.00000000000E+00 -0.00000000000E+00 -0.23650395916E+01  0.23650449619E+01  0.50400000000E-02 0.  1.
          2    1    1    2    0  502  0.24864287759E+02 -0.21135924740E+02  0.21400244319E+03  0.21647634009E+03  0.25500000000E-02 0.  1.
         -2    1    1    2  502    0 -0.24864287759E+02  0.21135924740E+02  0.23488066883E+03  0.23713685651E+03  0.25500000000E-02 0.  1.
<mgrwt>
<rscale>  0 0.65336696E+02</rscale>
<asrwt>0</asrwt>
<pdfrwt beam="1">  1        1 0.69422761E-01 0.65336696E+02</pdfrwt>
<pdfrwt beam="2">  1       -1 0.36385283E-03 0.65336696E+02</pdfrwt>
<totfact> 0.32763166E+05</totfact>
</mgrwt>
</event>
<event>
 4    1  0.2051373E-002  0.5152067E+02  0.7818608E-02  0.1437308E+00
         -1   -1    0    0  501    0 -0.00000000000E+00  0.00000000000E+00  0.98135768123E+00  0.98137062321E+00  0.50400000000E-02 0. -1.
          1   -1    0    0    0  501  0.00000000000E+00 -0.00000000000E+00 -0.67619645469E+03  0.67619645471E+03  0.50400000000E-02 0. -1.
          2    1    1    2    0  502 -0.70232806636E+01 -0.22485222803E+02 -0.47463339674E+03  0.47521760597E+03  0.25500000000E-02 0. -1.
         -2    1    1    2  502    0  0.70232806636E+01  0.22485222803E+02 -0.20058170027E+03  0.20196021936E+03  0.25500000000E-02 0. -1.
<mgrwt>
<rscale>  0 0.51520674E+02</rscale>
<asrwt>0</asrwt>
<pdfrwt beam="2">  1        1 0.10402985E+00 0.51520674E+02</pdfrwt>
<pdfrwt beam="1">  1       -1 0.15097964E-03 0.51520674E+02</pdfrwt>
<totfact> 0.61606144E+05</totfact>
</mgrwt>
</event>
<event>
 4    1  0.2051373E-002  0.1183178E+03  0.7818608E-02  0.1245898E+00
          1   -1    0    0    0  501  0.00000000000E+00  0.00000000000E+00  0.37435763760E+02  0.37435764099E+02  0.50400000000E-02 0.  1.
         -1   -1    0    0  501    0 -0.00000000000E+00 -0.00000000000E+00 -0.93487496354E+02  0.93487496490E+02  0.50400000000E-02 0.  1.
          2    1    1    2    0  502 -0.52524729641E+02  0.20186121126E+02 -0.78198125424E+01  0.56810880865E+02  0.25500000000E-02 0. -1.
         -2    1    1    2  502    0  0.52524729641E+02 -0.20186121126E+02 -0.48231920052E+02  0.74112379724E+02  0.25500000000E-02 0. -1.
<mgrwt>
<rscale>  0 0.11831781E+03</rscale>
<asrwt>0</asrwt>
<pdfrwt beam="1">  1        1 0.57593483E-02 0.11831781E+03</pdfrwt>
<pdfrwt beam="2">  1       -1 0.14382692E-01 0.11831781E+03</pdfrwt>
<totfact> 0.42075308E+04</totfact>
</mgrwt>
</event>
<event>
 4    1  0.2051373E-002  0.1016968E+03  0.7818608E-02  0.1276768E+00
          1   -1    0    0    0  501  0.00000000000E+00  0.00000000000E+00  0.50397608318E+01  0.50397633519E+01  0.50400000000E-02 0. -1.
         -1   -1    0    0  501    0 -0.00000000000E+00 -0.00000000000E+00 -0.51303171501E+03  0.51303171503E+03  0.50400000000E-02 0. -1.
          2    1    1    2    0  502  0.38463969249E+02 -0.27166881856E+02 -0.15626530249E+03  0.16320649855E+03  0.25500000000E-02 0.  1.
         -2    1    1    2  502    0 -0.38463969249E+02  0.27166881856E+02 -0.35172665169E+03  0.35486497984E+03  0.25500000000E-02 0.  1.
<mgrwt>
<rscale>  0 0.10169676E+03</rscale>
<asrwt>0</asrwt>
<pdfrwt beam="1">  1        1 0.77534842E-03 0.10169676E+03</pdfrwt>
<pdfrwt beam="2">  1       -1 0.78927915E-01 0.10169676E+03</pdfrwt>
<totfact> 0.34718874E+04</totfact>
</mgrwt>
</event>
<event>
 4    1  0.2051373E-002  0.5085238E+02  0.7818608E-02  0.1440798E+00
         -1   -1    0    0  501    0 -0.00000000000E+00  0.00000000000E+00  0.85006964657E+00  0.85008458733E+00  0.50400000000E-02 0.  1.
          1   -1    0    0    0  501  0.00000000000E+00 -0.00000000000E+00 -0.76050887036E+03  0.76050887038E+03  0.50400000000E-02 0.  1.
          2    1    1    2    0  502 -0.16288907621E+02 -0.19333688356E+02 -0.33918070779E+03  0.34012155556E+03  0.25500000000E-02 0. -1.
         -2    1    1    2  502    0  0.16288907621E+02  0.19333688356E+02 -0.42047809293E+03  0.42123739940E+03  0.25500000000E-02 0. -1.
<mgrwt>
<rscale>  0 0.50852382E+02</rscale>
<asrwt>0</asrwt>
<pdfrwt beam="2">  1        1 0.11700082E+00 0.50852382E+02</pdfrwt>
<pdfrwt beam="1">  1       -1 0.13078170E-03 0.50852382E+02</pdfrwt>
<totfact> 0.63442349E+05</totfact>
</mgrwt>
</event>
<event>
 4    1  0.2051373E-002  0.4482860E+02  0.7818608E-02  0.1475415E+00
          1   -1    0    0    0  501  0.00000000000E+00  0.00000000000E+00  0.30010277232E+03  0.30010277236E+03  0.50400000000E-02 0. -1.
         -1   -1    0    0  501    0 -0.00000000000E+00 -0.00000000000E+00 -0.16740920227E+01  0.16740996093E+01  0.50400000000E-02 0. -1.
          2    1    1    2    0  502  0.17348187054E+01  0.21862254968E+02  0.11804896127E+03  0.12006883464E+03  0.25500000000E-02 0. -1.
         -2    1    1    2  502    0 -0.17348187054E+01 -0.21862254968E+02  0.18037971903E+03  0.18170803734E+03  0.25500000000E-02 0. -1.
<mgrwt>
<rscale>  0 0.44828598E+02</rscale>
<asrwt>0</asrwt>
<pdfrwt beam="1">  1        1 0.46169599E-01 0.44828598E+02</pdfrwt>
<pdfrwt beam="2">  1       -1 0.25755354E-03 0.44828598E+02</pdfrwt>
<totfact> 0.79109175E+05</totfact>
</mgrwt>
</event>
<event>
 4    1  0.2051373E-002  0.4624044E+02  0.7818608E-02  0.1466743E+00
         -1   -1    0    0  501    0 -0.00000000000E+00  0.00000000000E+00  0.25361959133E+01  0.25362009211E+01  0.50400000000E-02 0.  1.
          1   -1    0    0    0  501  0.00000000000E+00 -0.00000000000E+00 -0.21076606858E+03  0.21076606864E+03  0.50400000000E-02 0.  1.
          2    1    1    2    0  502  0.20216890900E+02 -0.59194306895E+01 -0.14806646231E+03  0.14955747927E+03  0.25500000000E-02 0.  1.
         -2    1    1    2  502    0 -0.20216890900E+02  0.59194306895E+01 -0.60163410356E+02  0.63744790293E+02  0.25500000000E-02 0.  1.
<mgrwt>
<rscale>  0 0.46240440E+02</rscale>
<asrwt>0</asrwt>
<pdfrwt beam="2">  1        1 0.32425536E-01 0.46240440E+02</pdfrwt>
<pdfrwt beam="1">  1       -1 0.39018454E-03 0.46240440E+02</pdfrwt>
<totfact> 0.68909525E+05</totfact>
</mgrwt>
</event>
<event>
 4    1  0.2051373E-002  0.4290402E+02  0.7818608E-02  0.1487867E+00
         -1   -1    0    0  501    0 -0.00000000000E+00  0.00000000000E+00  0.25896622523E+00  0.25901526482E+00  0.50400000000E-02 0.  1.
          1   -1    0    0    0  501  0.00000000000E+00 -0.00000000000E+00 -0.17768538756E+04  0.17768538756E+04  0.50400000000E-02 0.  1.
          2    1    1    2    0  502 -0.22237496288E+01 -0.20587506202E+02 -0.65620036385E+03  0.65652700478E+03  0.25500000000E-02 0. -1.
         -2    1    1    2  502    0  0.22237496288E+01  0.20587506202E+02 -0.11203945455E+04  0.11205858861E+04  0.25500000000E-02 0. -1.
<mgrwt>
<rscale>  0 0.42904019E+02</rscale>
<asrwt>0</asrwt>
<pdfrwt beam="2">  1        1 0.27335238E+00 0.42904019E+02</pdfrwt>
<pdfrwt beam="1">  1       -1 0.39846153E-04 0.42904019E+02</pdfrwt>
<totfact> 0.64260079E+05</totfact>
</mgrwt>
</event>
<event>
 4    1  0.2051373E-002  0.6029468E+02  0.7818608E-02  0.1396599E+00
         -1   -1    0    0  501    0 -0.00000000000E+00  0.00000000000E+00  0.43012490836E+01  0.43012520364E+01  0.50400000000E-02 0. -1.
          1   -1    0    0    0  501  0.00000000000E+00 -0.00000000000E+00 -0.21130182142E+03  0.21130182148E+03  0.50400000000E-02 0. -1.
          2    1    1    2    0  502  0.19417435075E+02  0.49298951792E+01 -0.18405726144E+03  0.18514431168E+03  0.25500000000E-02 0. -1.
         -2    1    1    2  502    0 -0.19417435075E+02 -0.49298951792E+01 -0.22943310897E+02  0.30458761839E+02  0.25500000000E-02 0. -1.
<mgrwt>
<rscale>  0 0.60294679E+02</rscale>
<asrwt>0</asrwt>
<pdfrwt beam="2">  1        1 0.32507965E-01 0.60294679E+02</pdfrwt>
<pdfrwt beam="1">  1       -1 0.66173103E-03 0.60294679E+02</pdfrwt>
<totfact> 0.35335383E+05</totfact>
</mgrwt>
</event>
<event>
 4    1  0.2051373E-002  0.6378693E+02  0.7818608E-02  0.1382594E+00
         -1   -1    0    0  501    0 -0.00000000000E+00  0.00000000000E+00  0.27849656630E+02  0.27849657086E+02  0.50400000000E-02 0. -1.
          1   -1    0    0    0  501  0.00000000000E+00 -0.00000000000E+00 -0.36524443582E+02  0.36524443930E+02  0.50400000000E-02 0. -1.
          2    1    1    2    0  502  0.88443757567E+00 -0.23855284483E+02  0.17007626738E+02  0.29310684082E+02  0.25500000000E-02 0. -1.
         -2    1    1    2  502    0 -0.88443757567E+00  0.23855284483E+02 -0.25682413690E+02  0.35063416933E+02  0.25500000000E-02 0. -1.
<mgrwt>
<rscale>  0 0.63786934E+02</rscale>
<asrwt>0</asrwt>
<pdfrwt beam="2">  1        1 0.56191452E-02 0.63786934E+02</pdfrwt>
<pdfrwt beam="1">  1       -1 0.42845626E-02 0.63786934E+02</pdfrwt>
<totfact> 0.23900787E+05</totfact>
</mgrwt>
</event>
<event>
 4    1  0.2051373E-002  0.9291220E+02  0.7818608E-02  0.1295949E+00
          1   -1    0    0    0  501  0.00000000000E+00  0.00000000000E+00  0.65084057492E+02  0.65084057687E+02  0.50400000000E-02 0.  1.
         -1   -1    0    0  501    0 -0.00000000000E+00 -0.00000000000E+00 -0.33159722310E+02  0.33159722693E+02  0.50400000000E-02 0.  1.
          2    1    1    2    0  502  0.27994859123E+02  0.31887684420E+02 -0.40341925378E+01  0.42624069151E+02  0.25500000000E-02 0. -1.
         -2    1    1    2  502    0 -0.27994859123E+02 -0.31887684420E+02  0.35958527720E+02  0.55619711230E+02  0.25500000000E-02 0. -1.
<mgrwt>
<rscale>  0 0.92912202E+02</rscale>
<asrwt>0</asrwt>
<pdfrwt beam="1">  1        1 0.10012932E-01 0.92912202E+02</pdfrwt>
<pdfrwt beam="2">  1       -1 0.51014958E-02 0.92912202E+02</pdfrwt>
<totfact> 0.92602367E+04</totfact>
</mgrwt>
</event>
<event>
 4    1  0.2051373E-002  0.5752172E+02  0.7818608E-02  0.1408536E+00
         -1   -1    0    0  501    0 -0.00000000000E+00  0.00000000000E+00  0.51605350017E+01  0.51605374629E+01  0.50400000000E-02 0. -1.
          1   -1    0    0    0  501  0.00000000000E+00 -0.00000000000E+00 -0.16029093568E+03  0.16029093576E+03  0.50400000000E-02 0. -1.
          2    1    1    2    0  502  0.21081735011E+02 -0.17717865854E+02 -0.53702948248E+02  0.60352042041E+02  0.25500000000E-02 0.  1.
         -2    1    1    2  502    0 -0.21081735011E+02  0.17717865854E+02 -0.10142745243E+03  0.10509943118E+03  0.25500000000E-02 0.  1.
<mgrwt>
<rscale>  0 0.57521724E+02</rscale>
<asrwt>0</asrwt>
<pdfrwt beam="2">  1        1 0.24660140E-01 0.57521724E+02</pdfrwt>
<pdfrwt beam="1">  1       -1 0.79392878E-03 0.57521724E+02</pdfrwt>
<totfact> 0.37982541E+05</totfact>
</mgrwt>
</event>
<event>
 4    1  0.2051373E-002  0.8189239E+02  0.7818608E-02  0.1323765E+00
         -1   -1    0    0  501    0 -0.00000000000E+00  0.00000000000E+00  0.12294833054E+03  0.12294833064E+03  0.50400000000E-02 0. -1.
          1   -1    0    0    0  501  0.00000000000E+00 -0.00000000000E+00 -0.13636546895E+02  0.13636547826E+02  0.50400000000E-02 0. -1.
          2    1    1    2    0  502  0.21536791012E+02  0.33789458070E+02  0.40599311449E+02  0.57042658953E+02  0.25500000000E-02 0.  1.
         -2    1    1    2  502    0 -0.21536791012E+02 -0.33789458070E+02  0.68712472193E+02  0.79542219514E+02  0.25500000000E-02 0.  1.
<mgrwt>
<rscale>  0 0.81892387E+02</rscale>
<asrwt>0</asrwt>
<pdfrwt beam="2">  1        1 0.20979304E-02 0.81892387E+02</pdfrwt>
<pdfrwt beam="1">  1       -1 0.18915128E-01 0.81892387E+02</pdfrwt>
<totfact> 0.10307067E+05</totfact>
</mgrwt>
</event>
<event>
 4    1  0.2051373E-002  0.4975618E+02  0.7818608E-02  0.1446661E+00
          1   -1    0    0    0  501  0.00000000000E+00  0.00000000000E+00  0.91023453314E+03  0.91023453316E+03  0.50400000000E-02 0. -1.
         -1   -1    0    0  501    0 -0.00000000000E+00 -0.00000000000E+00 -0.67994663206E+00  0.67996531091E+00  0.50400000000E-02 0. -1.
          2    1    1    2    0  502 -0.44388866641E+01 -0.20833508540E+02  0.21948369588E+03  0.22051492366E+03  0.25500000000E-02 0.  1.
         -2    1    1    2  502    0  0.44388866641E+01  0.20833508540E+02  0.69007089063E+03  0.69039957481E+03  0.25500000000E-02 0.  1.
<mgrwt>
<rscale>  0 0.49756182E+02</rscale>
<asrwt>0</asrwt>
<pdfrwt beam="1">  1        1 0.14003552E+00 0.49756182E+02</pdfrwt>
<pdfrwt beam="2">  1       -1 0.10460903E-03 0.49756182E+02</pdfrwt>
<totfact> 0.65584482E+05</totfact>
</mgrwt>
</event>
<event>
 4    1  0.2051373E-002  0.4695593E+02  0.7818608E-02  0.1462488E+00
          1   -1    0    0    0  501  0.00000000000E+00  0.00000000000E+00  0.77021926953E+02  0.77021927118E+02  0.50400000000E-02 0.  1.
         -1   -1    0    0  501    0 -0.00000000000E+00 -0.00000000000E+00 -0.71565955855E+01  0.71565973602E+01  0.50400000000E-02 0.  1.
          2    1    1    2    0  502  0.20939391115E+02 -0.16814002135E+01  0.16136542741E+02  0.26489115219E+02  0.25500000000E-02 0.  1.
         -2    1    1    2  502    0 -0.20939391115E+02  0.16814002135E+01  0.53728788626E+02  0.57689409259E+02  0.25500000000E-02 0.  1.
<mgrwt>
<rscale>  0 0.46955931E+02</rscale>
<asrwt>0</asrwt>
<pdfrwt beam="1">  1        1 0.11849527E-01 0.46955931E+02</pdfrwt>
<pdfrwt beam="2">  1       -1 0.11010149E-02 0.46955931E+02</pdfrwt>
<totfact> 0.57245729E+05</totfact>
</mgrwt>
</event>
<event>
 4    1  0.2051373E-002  0.5178468E+02  0.7818608E-02  0.1435946E+00
          1   -1    0    0    0  501  0.00000000000E+00  0.00000000000E+00  0.45449760407E+00  0.45452554792E+00  0.50400000000E-02 0.  1.
         -1   -1    0    0  501    0 -0.00000000000E+00 -0.00000000000E+00 -0.14750191933E+04  0.14750191933E+04  0.50400000000E-02 0.  1.
          2    1    1    2    0  502 -0.25129257278E+01 -0.23406789914E+02 -0.43011722529E+03  0.43076097793E+03  0.25500000000E-02 0.  1.
         -2    1    1    2  502    0  0.25129257278E+01  0.23406789914E+02 -0.10444474704E+04  0.10447127409E+04  0.25500000000E-02 0.  1.
<mgrwt>
<rscale>  0 0.51784682E+02</rscale>
<asrwt>0</asrwt>
<pdfrwt beam="1">  1        1 0.69926039E-04 0.51784682E+02</pdfrwt>
<pdfrwt beam="2">  1       -1 0.22692220E+00 0.51784682E+02</pdfrwt>
<totfact> 0.60955193E+04</totfact>
</mgrwt>
</event>
<event>
 4    1  0.2051373E-002  0.5997394E+02  0.7818608E-02  0.1397941E+00
          1   -1    0    0    0  501  0.00000000000E+00  0.00000000000E+00  0.18967051367E+02  0.18967052037E+02  0.50400000000E-02 0.  1.
         -1   -1    0    0  501    0 -0.00000000000E+00 -0.00000000000E+00 -0.47409503240E+02  0.47409503508E+02  0.50400000000E-02 0.  1.
          2    1    1    2    0  502 -0.17532420224E+02 -0.12493987257E+02  0.88814527508E+01  0.23288745907E+02  0.25500000000E-02 0.  1.
         -2    1    1    2  502    0  0.17532420224E+02  0.12493987257E+02 -0.37323904624E+02  0.43087809638E+02  0.25500000000E-02 0.  1.
<mgrwt>
<rscale>  0 0.59973945E+02</rscale>
<asrwt>0</asrwt>
<pdfrwt beam="1">  1        1 0.29180080E-02 0.59973945E+02</pdfrwt>
<pdfrwt beam="2">  1       -1 0.72937697E-02 0.59973945E+02</pdfrwt>
<totfact> 0.26226909E+05</totfact>
</mgrwt>
</event>
<event>
 4    1  0.2051373E-002  0.4912480E+02  0.7818608E-02  0.1450120E+00
          1   -1    0    0    0  501  0.00000000000E+00  0.00000000000E+00  0.10641782419E+01  0.10641901767E+01  0.50400000000E-02 0. -1.
         -1   -1    0    0  501    0 -0.00000000000E+00 -0.00000000000E+00 -0.56692383694E+03  0.56692383696E+03  0.50400000000E-02 0. -1.
          2    1    1    2    0  502  0.15665742640E+02 -0.17911459471E+02 -0.35333135844E+03  0.35413173359E+03  0.25500000000E-02 0.  1.
         -2    1    1    2  502    0 -0.15665742640E+02  0.17911459471E+02 -0.21252830025E+03  0.21385629354E+03  0.25500000000E-02 0.  1.
<mgrwt>
<rscale>  0 0.49124797E+02</rscale>
<asrwt>0</asrwt>
<pdfrwt beam="1">  1        1 0.16372110E-03 0.49124797E+02</pdfrwt>
<pdfrwt beam="2">  1       -1 0.87218811E-01 0.49124797E+02</pdfrwt>
<totfact> 0.20996855E+05</totfact>
</mgrwt>
</event>
<event>
 4    1  0.2051373E-002  0.6328757E+02  0.7818608E-02  0.1384531E+00
         -1   -1    0    0  501    0 -0.00000000000E+00  0.00000000000E+00  0.25843738492E+03  0.25843738497E+03  0.50400000000E-02 0. -1.
          1   -1    0    0    0  501  0.00000000000E+00 -0.00000000000E+00 -0.38745499149E+01  0.38745531929E+01  0.50400000000E-02 0. -1.
          2    1    1    2    0  502  0.27159403446E+02 -0.13338507423E+02  0.88893664428E+02  0.93902250015E+02  0.25500000000E-02 0. -1.
         -2    1    1    2  502    0 -0.27159403446E+02  0.13338507423E+02  0.16566917058E+03  0.16840968815E+03  0.25500000000E-02 0. -1.
<mgrwt>
<rscale>  0 0.63287565E+02</rscale>
<asrwt>0</asrwt>
<pdfrwt beam="2">  1        1 0.59608489E-03 0.63287565E+02</pdfrwt>
<pdfrwt beam="1">  1       -1 0.39759596E-01 0.63287565E+02</pdfrwt>
<totfact> 0.16401332E+05</totfact>
</mgrwt>
</event>
<event>
 4    1  0.2051373E-002  0.4270786E+02  0.7818608E-02  0.1489180E+00
          1   -1    0    0    0  501  0.00000000000E+00  0.00000000000E+00  0.10436689840E+03  0.10436689852E+03  0.50400000000E-02 0.  1.
         -1   -1    0    0  501    0 -0.00000000000E+00 -0.00000000000E+00 -0.43691062998E+01  0.43691092067E+01  0.50400000000E-02 0.  1.
          2    1    1    2    0  502  0.66617243997E+01  0.20189718997E+02  0.44915152567E+02  0.49692798892E+02  0.25500000000E-02 0.  1.
         -2    1    1    2  502    0 -0.66617243997E+01 -0.20189718997E+02  0.55082639532E+02  0.59043208834E+02  0.25500000000E-02 0.  1.
<mgrwt>
<rscale>  0 0.42707856E+02</rscale>
<asrwt>0</asrwt>
<pdfrwt beam="1">  1        1 0.16056447E-01 0.42707856E+02</pdfrwt>
<pdfrwt beam="2">  1       -1 0.67217039E-03 0.42707856E+02</pdfrwt>
<totfact> 0.75296067E+05</totfact>
</mgrwt>
</event>
<event>
 4    1  0.2051373E-002  0.4437149E+02  0.7818608E-02  0.1478304E+00
         -1   -1    0    0  501    0 -0.00000000000E+00  0.00000000000E+00  0.23645068888E+02  0.23645069425E+02  0.50400000000E-02 0. -1.
          1   -1    0    0    0  501  0.00000000000E+00 -0.00000000000E+00 -0.20816489081E+02  0.20816489691E+02  0.50400000000E-02 0. -1.
          2    1    1    2    0  502 -0.15152969005E+02  0.14785400781E+02  0.80600060793E+01  0.22653570368E+02  0.25500000000E-02 0.  1.
         -2    1    1    2  502    0  0.15152969005E+02 -0.14785400781E+02 -0.52314262725E+01  0.21807988749E+02  0.25500000000E-02 0.  1.
<mgrwt>
<rscale>  0 0.44371493E+02</rscale>
<asrwt>0</asrwt>
<pdfrwt beam="2">  1        1 0.32025369E-02 0.44371493E+02</pdfrwt>
<pdfrwt beam="1">  1       -1 0.36377030E-02 0.44371493E+02</pdfrwt>
<totfact> 0.58621614E+05</totfact>
</mgrwt>
</event>
<event>
 4    1  0.2051373E-002  0.6981938E+02  0.7818608E-02  0.1360708E+00
          1   -1    0    0    0  501  0.00000000000E+00  0.00000000000E+00  0.28772142467E+02  0.28772142909E+02  0.50400000000E-02 0.  1.
         -1   -1    0    0  501    0 -0.00000000000E+00 -0.00000000000E+00 -0.42356468122E+02  0.42356468422E+02  0.50400000000E-02 0.  1.
          2    1    1    2    0  502 -0.28399892514E+02  0.20039596830E+02 -0.34836469304E+01  0.34932436766E+02  0.25500000000E-02 0. -1.
         -2    1    1    2  502    0  0.28399892514E+02 -0.20039596830E+02 -0.10100678724E+02  0.36196174565E+02  0.25500000000E-02 0. -1.
<mgrwt>
<rscale>  0 0.69819377E+02</rscale>
<asrwt>0</asrwt>
<pdfrwt beam="1">  1        1 0.44264835E-02 0.69819377E+02</pdfrwt>
<pdfrwt beam="2">  1       -1 0.65163797E-02 0.69819377E+02</pdfrwt>
<totfact> 0.18205572E+05</totfact>
</mgrwt>
</event>
<event>
 4    1  0.2051373E-002  0.1321972E+03  0.7818608E-02  0.1224231E+00
          1   -1    0    0    0  501  0.00000000000E+00  0.00000000000E+00  0.17711507153E+04  0.17711507153E+04  0.50400000000E-02 0. -1.
         -1   -1    0    0  501    0 -0.00000000000E+00 -0.00000000000E+00 -0.24667698761E+01  0.24667750249E+01  0.50400000000E-02 0. -1.
          2    1    1    2    0  502 -0.23400483810E+02 -0.85999249966E+01  0.17056528636E+04  0.17058350543E+04  0.25500000000E-02 0.  1.
         -2    1    1    2  502    0  0.23400483810E+02  0.85999249966E+01  0.63031081815E+02  0.67782436027E+02  0.25500000000E-02 0.  1.
<mgrwt>
<rscale>  0 0.13219721E+03</rscale>
<asrwt>0</asrwt>
<pdfrwt beam="1">  1        1 0.27248532E+00 0.13219721E+03</pdfrwt>
<pdfrwt beam="2">  1       -1 0.37950262E-03 0.13219721E+03</pdfrwt>
<totfact> 0.34425343E+04</totfact>
</mgrwt>
</event>
<event>
 4    1  0.2051373E-002  0.6854062E+02  0.7818608E-02  0.1365127E+00
         -1   -1    0    0  501    0 -0.00000000000E+00  0.00000000000E+00  0.23611256952E+01  0.23611310744E+01  0.50400000000E-02 0. -1.
          1   -1    0    0    0  501  0.00000000000E+00 -0.00000000000E+00 -0.49741223630E+03  0.49741223632E+03  0.50400000000E-02 0. -1.
          2    1    1    2    0  502 -0.10971290899E+02 -0.32126054973E+02 -0.21332355852E+03  0.21600785462E+03  0.25500000000E-02 0.  1.
         -2    1    1    2  502    0  0.10971290899E+02  0.32126054973E+02 -0.28172755208E+03  0.28376551278E+03  0.25500000000E-02 0.  1.
<mgrwt>
<rscale>  0 0.68540620E+02</rscale>
<asrwt>0</asrwt>
<pdfrwt beam="2">  1        1 0.76524876E-01 0.68540620E+02</pdfrwt>
<pdfrwt beam="1">  1       -1 0.36325092E-03 0.68540620E+02</pdfrwt>
<totfact> 0.29328628E+05</totfact>
</mgrwt>
</event>
<event>
 4    1  0.2051373E-002  0.4815823E+02  0.7818608E-02  0.1455536E+00
          1   -1    0    0    0  501  0.00000000000E+00  0.00000000000E+00  0.39083277757E+02  0.39083278082E+02  0.50400000000E-02 0.  1.
         -1   -1    0    0  501    0 -0.00000000000E+00 -0.00000000000E+00 -0.14835084488E+02  0.14835085344E+02  0.50400000000E-02 0.  1.
          2    1    1    2    0  502 -0.42829932366E+01  0.23312270742E+02  0.73742962652E+01  0.24823099124E+02  0.25500000000E-02 0. -1.
         -2    1    1    2  502    0  0.42829932366E+01 -0.23312270742E+02  0.16873897004E+02  0.29095264302E+02  0.25500000000E-02 0. -1.
<mgrwt>
<rscale>  0 0.48158229E+02</rscale>
<asrwt>0</asrwt>
<pdfrwt beam="1">  1        1 0.60128121E-02 0.48158229E+02</pdfrwt>
<pdfrwt beam="2">  1       -1 0.22823208E-02 0.48158229E+02</pdfrwt>
<totfact> 0.50131869E+05</totfact>
</mgrwt>
</event>
<event>
 4    1  0.2051373E-002  0.4952532E+02  0.7818608E-02  0.1447919E+00
          1   -1    0    0    0  501  0.00000000000E+00  0.00000000000E+00  0.37856337729E+03  0.37856337732E+03  0.50400000000E-02 0.  1.
         -1   -1    0    0  501    0 -0.00000000000E+00 -0.00000000000E+00 -0.16197761539E+01  0.16197839949E+01  0.50400000000E-02 0.  1.
          2    1    1    2    0  502  0.13916526971E+02 -0.20178510521E+02  0.16149729328E+03  0.16334692453E+03  0.25500000000E-02 0.  1.
         -2    1    1    2  502    0 -0.13916526971E+02  0.20178510521E+02  0.21544630785E+03  0.21683623679E+03  0.25500000000E-02 0.  1.
<mgrwt>
<rscale>  0 0.49525324E+02</rscale>
<asrwt>0</asrwt>
<pdfrwt beam="1">  1        1 0.58240568E-01 0.49525324E+02</pdfrwt>
<pdfrwt beam="2">  1       -1 0.24919673E-03 0.49525324E+02</pdfrwt>
<totfact> 0.64249747E+05</totfact>
</mgrwt>
</event>
<event>
 4    1  0.2051373E-002  0.4893423E+02  0.7818608E-02  0.1451176E+00
         -1   -1    0    0  501    0 -0.00000000000E+00  0.00000000000E+00  0.99959569994E+00  0.99960840580E+00  0.50400000000E-02 0.  1.
          1   -1    0    0    0  501  0.00000000000E+00 -0.00000000000E+00 -0.59887798612E+03  0.59887798615E+03  0.50400000000E-02 0.  1.
          2    1    1    2    0  502 -0.19244910918E+02 -0.11761535115E+02 -0.41519771996E+03  0.41580986877E+03  0.25500000000E-02 0.  1.
         -2    1    1    2  502    0  0.19244910918E+02  0.11761535115E+02 -0.18268067047E+03  0.18406772578E+03  0.25500000000E-02 0.  1.
<mgrwt>
<rscale>  0 0.48934228E+02</rscale>
<asrwt>0</asrwt>
<pdfrwt beam="2">  1        1 0.92134789E-01 0.48934228E+02</pdfrwt>
<pdfrwt beam="1">  1       -1 0.15378541E-03 0.48934228E+02</pdfrwt>
<totfact> 0.69762171E+05</totfact>
</mgrwt>
</event>
<event>
 4    1  0.2051373E-002  0.7748002E+02  0.7818608E-02  0.1336359E+00
          1   -1    0    0    0  501  0.00000000000E+00  0.00000000000E+00  0.59199299196E+03  0.59199299198E+03  0.50400000000E-02 0.  1.
         -1   -1    0    0  501    0 -0.00000000000E+00 -0.00000000000E+00 -0.25351431476E+01  0.25351481574E+01  0.50400000000E-02 0.  1.
          2    1    1    2    0  502  0.23717972034E+02 -0.83502629492E+01  0.68591504254E+02  0.73055208925E+02  0.25500000000E-02 0.  1.
         -2    1    1    2  502    0 -0.23717972034E+02  0.83502629492E+01  0.52086634456E+03  0.52147293121E+03  0.25500000000E-02 0.  1.
<mgrwt>
<rscale>  0 0.77480023E+02</rscale>
<asrwt>0</asrwt>
<pdfrwt beam="1">  1        1 0.91075905E-01 0.77480023E+02</pdfrwt>
<pdfrwt beam="2">  1       -1 0.39002216E-03 0.77480023E+02</pdfrwt>
<totfact> 0.21690697E+05</totfact>
</mgrwt>
</event>
<event>
 4    1  0.2051373E-002  0.7501985E+02  0.7818608E-02  0.1343810E+00
         -1   -1    0    0  501    0 -0.00000000000E+00  0.00000000000E+00  0.34760461672E+01  0.34760498210E+01  0.50400000000E-02 0. -1.
          1   -1    0    0    0  501  0.00000000000E+00 -0.00000000000E+00 -0.40476839822E+03  0.40476839825E+03  0.50400000000E-02 0. -1.
          2    1    1    2    0  502  0.30204012564E+02  0.91670921533E+01 -0.31092547539E+03  0.31252354984E+03  0.25500000000E-02 0. -1.
         -2    1    1    2  502    0 -0.30204012564E+02 -0.91670921533E+01 -0.90366876664E+02  0.95720898231E+02  0.25500000000E-02 0. -1.
<mgrwt>
<rscale>  0 0.75019848E+02</rscale>
<asrwt>0</asrwt>
<pdfrwt beam="2">  1        1 0.62272024E-01 0.75019848E+02</pdfrwt>
<pdfrwt beam="1">  1       -1 0.53477694E-03 0.75019848E+02</pdfrwt>
<totfact> 0.22567809E+05</totfact>
</mgrwt>
</event>
<event>
 4    1  0.2051373E-002  0.4363113E+02  0.7818608E-02  0.1483073E+00
         -1   -1    0    0  501    0 -0.00000000000E+00  0.00000000000E+00  0.27550485476E+03  0.27550485480E+03  0.50400000000E-02 0.  1.
          1   -1    0    0    0  501  0.00000000000E+00 -0.00000000000E+00 -0.17274391049E+01  0.17274464572E+01  0.50400000000E-02 0.  1.
          2    1    1    2    0  502 -0.25736238908E+01  0.21369158988E+02  0.15949179978E+03  0.16093756149E+03  0.25500000000E-02 0.  1.
         -2    1    1    2  502    0  0.25736238908E+01 -0.21369158988E+02  0.11428561587E+03  0.11629473977E+03  0.25500000000E-02 0.  1.
<mgrwt>
<rscale>  0 0.43631130E+02</rscale>
<asrwt>0</asrwt>
<pdfrwt beam="2">  1        1 0.26576061E-03 0.43631130E+02</pdfrwt>
<pdfrwt beam="1">  1       -1 0.42385335E-01 0.43631130E+02</pdfrwt>
<totfact> 0.40491500E+05</totfact>
</mgrwt>
</event>
<event>
 4    1  0.2051373E-002  0.4671992E+02  0.7818608E-02  0.1463882E+00
          1   -1    0    0    0  501  0.00000000000E+00  0.00000000000E+00  0.82690796075E+02  0.82690796228E+02  0.50400000000E-02 0. -1.
         -1   -1    0    0  501    0 -0.00000000000E+00 -0.00000000000E+00 -0.65991343562E+01  0.65991362808E+01  0.50400000000E-02 0. -1.
          2    1    1    2    0  502  0.10038779560E+01  0.21775816954E+02  0.54092163987E+02  0.58319432321E+02  0.25500000000E-02 0. -1.
         -2    1    1    2  502    0 -0.10038779560E+01 -0.21775816954E+02  0.21999497731E+02  0.30970500188E+02  0.25500000000E-02 0. -1.
<mgrwt>
<rscale>  0 0.46719921E+02</rscale>
<asrwt>0</asrwt>
<pdfrwt beam="1">  1        1 0.12721662E-01 0.46719921E+02</pdfrwt>
<pdfrwt beam="2">  1       -1 0.10152515E-02 0.46719921E+02</pdfrwt>
<totfact> 0.58463001E+05</totfact>
</mgrwt>
</event>
<event>
 4    1  0.2051373E-002  0.4895736E+02  0.7818608E-02  0.1451048E+00
         -1   -1    0    0  501    0 -0.00000000000E+00  0.00000000000E+00  0.50729280165E+00  0.50731783746E+00  0.50400000000E-02 0.  1.
          1   -1    0    0    0  501  0.00000000000E+00 -0.00000000000E+00 -0.11811539087E+04  0.11811539087E+04  0.50400000000E-02 0.  1.
          2    1    1    2    0  502 -0.50030454011E+01  0.22477477570E+02 -0.38991993798E+03  0.39059931580E+03  0.25500000000E-02 0.  1.
         -2    1    1    2  502    0  0.50030454011E+01 -0.22477477570E+02 -0.79072667789E+03  0.79106191072E+03  0.25500000000E-02 0.  1.
<mgrwt>
<rscale>  0 0.48957356E+02</rscale>
<asrwt>0</asrwt>
<pdfrwt beam="2">  1        1 0.18171379E+00 0.48957356E+02</pdfrwt>
<pdfrwt beam="1">  1       -1 0.78047919E-04 0.48957356E+02</pdfrwt>
<totfact> 0.63116345E+05</totfact>
</mgrwt>
</event>
<event>
 4    1  0.2051373E-002  0.4845761E+02  0.7818608E-02  0.1453843E+00
         -1   -1    0    0  501    0 -0.00000000000E+00  0.00000000000E+00  0.54212817550E+02  0.54212817784E+02  0.50400000000E-02 0. -1.
          1   -1    0    0    0  501  0.00000000000E+00 -0.00000000000E+00 -0.10828341300E+02  0.10828342473E+02  0.50400000000E-02 0. -1.
          2    1    1    2    0  502 -0.17372318637E+02 -0.15648474902E+02  0.13164841508E+02  0.26832541438E+02  0.25500000000E-02 0. -1.
         -2    1    1    2  502    0  0.17372318637E+02  0.15648474902E+02  0.30219634742E+02  0.38208618818E+02  0.25500000000E-02 0. -1.
<mgrwt>
<rscale>  0 0.48457608E+02</rscale>
<asrwt>0</asrwt>
<pdfrwt beam="2">  1        1 0.16658988E-02 0.48457608E+02</pdfrwt>
<pdfrwt beam="1">  1       -1 0.83404336E-02 0.48457608E+02</pdfrwt>
<totfact> 0.43736322E+05</totfact>
</mgrwt>
</event>
<event>
 4    1  0.2051373E-002  0.1038212E+03  0.7818608E-02  0.1272460E+00
         -1   -1    0    0  501    0 -0.00000000000E+00  0.00000000000E+00  0.26095078586E+01  0.26095127257E+01  0.50400000000E-02 0.  1.
          1   -1    0    0    0  501  0.00000000000E+00 -0.00000000000E+00 -0.10326494893E+04  0.10326494893E+04  0.50400000000E-02 0.  1.
          2    1    1    2    0  502  0.20747332306E+02  0.32168554414E+02 -0.86465670424E+03  0.86550360131E+03  0.25500000000E-02 0.  1.
         -2    1    1    2  502    0 -0.20747332306E+02 -0.32168554414E+02 -0.16538327717E+03  0.16975540069E+03  0.25500000000E-02 0.  1.
<mgrwt>
<rscale>  0 0.10382118E+03</rscale>
<asrwt>0</asrwt>
<pdfrwt beam="2">  1        1 0.15886883E+00 0.10382118E+03</pdfrwt>
<pdfrwt beam="1">  1       -1 0.40146395E-03 0.10382118E+03</pdfrwt>
<totfact> 0.95419878E+04</totfact>
</mgrwt>
</event>
<event>
 4    1  0.2051373E-002  0.6473612E+02  0.7818608E-02  0.1378967E+00
          1   -1    0    0    0  501  0.00000000000E+00  0.00000000000E+00  0.10712777390E+03  0.10712777402E+03  0.50400000000E-02 0.  1.
         -1   -1    0    0  501    0 -0.00000000000E+00 -0.00000000000E+00 -0.97798275150E+01  0.97798288136E+01  0.50400000000E-02 0.  1.
          2    1    1    2    0  502  0.89770108219E+01 -0.30649852827E+02  0.39170866071E+02  0.50540646581E+02  0.25500000000E-02 0.  1.
         -2    1    1    2  502    0 -0.89770108219E+01  0.30649852827E+02  0.58177080313E+02  0.66366956250E+02  0.25500000000E-02 0.  1.
<mgrwt>
<rscale>  0 0.64736118E+02</rscale>
<asrwt>0</asrwt>
<pdfrwt beam="1">  1        1 0.16481197E-01 0.64736118E+02</pdfrwt>
<pdfrwt beam="2">  1       -1 0.15045889E-02 0.64736118E+02</pdfrwt>
<totfact> 0.26288420E+05</totfact>
</mgrwt>
</event>
<event>
 4    1  0.2051373E-002  0.1044738E+03  0.7818608E-02  0.1271160E+00
          1   -1    0    0    0  501  0.00000000000E+00  0.00000000000E+00  0.30367634005E+04  0.30367634005E+04  0.50400000000E-02 0. -1.
         -1   -1    0    0  501    0 -0.00000000000E+00 -0.00000000000E+00 -0.89854560833E+00  0.89855974306E+00  0.50400000000E-02 0. -1.
          2    1    1    2    0  502 -0.31410824795E+02 -0.20678092627E+02  0.46377061133E+03  0.46529281466E+03  0.25500000000E-02 0.  1.
         -2    1    1    2  502    0  0.31410824795E+02  0.20678092627E+02  0.25720942435E+04  0.25723691456E+04  0.25500000000E-02 0.  1.
<mgrwt>
<rscale>  0 0.10447376E+03</rscale>
<asrwt>0</asrwt>
<pdfrwt beam="1">  1        1 0.46719979E+00 0.10447376E+03</pdfrwt>
<pdfrwt beam="2">  1       -1 0.13823727E-03 0.10447376E+03</pdfrwt>
<totfact> 0.20910374E+04</totfact>
</mgrwt>
</event>
<event>
 4    1  0.2051373E-002  0.4227531E+02  0.7818608E-02  0.1492105E+00
          1   -1    0    0    0  501  0.00000000000E+00  0.00000000000E+00  0.10752955851E+03  0.10752955863E+03  0.50400000000E-02 0.  1.
         -1   -1    0    0  501    0 -0.00000000000E+00 -0.00000000000E+00 -0.41551400594E+01  0.41551431160E+01  0.50400000000E-02 0.  1.
          2    1    1    2    0  502 -0.21079430836E+02 -0.39982503231E+00  0.55692264794E+02  0.59549396544E+02  0.25500000000E-02 0.  1.
         -2    1    1    2  502    0  0.21079430836E+02  0.39982503231E+00  0.47682153658E+02  0.52135305201E+02  0.25500000000E-02 0.  1.
<mgrwt>
<rscale>  0 0.42275314E+02</rscale>
<asrwt>0</asrwt>
<pdfrwt beam="1">  1        1 0.16543008E-01 0.42275314E+02</pdfrwt>
<pdfrwt beam="2">  1       -1 0.63925260E-03 0.42275314E+02</pdfrwt>
<totfact> 0.77517863E+05</totfact>
</mgrwt>
</event>
<event>
 4    1  0.2051373E-002  0.5721925E+02  0.7818608E-02  0.1409886E+00
          1   -1    0    0    0  501  0.00000000000E+00  0.00000000000E+00  0.40370538400E+03  0.40370538403E+03  0.50400000000E-02 0.  1.
         -1   -1    0    0  501    0 -0.00000000000E+00 -0.00000000000E+00 -0.20274919407E+01  0.20274982050E+01  0.50400000000E-02 0.  1.
          2    1    1    2    0  502  0.94709224533E+01  0.20776125188E+02  0.32307429377E+03  0.32388013994E+03  0.25500000000E-02 0. -1.
         -2    1    1    2  502    0 -0.94709224533E+01 -0.20776125188E+02  0.78603598291E+02  0.81852742292E+02  0.25500000000E-02 0. -1.
<mgrwt>
<rscale>  0 0.57219252E+02</rscale>
<asrwt>0</asrwt>
<pdfrwt beam="1">  1        1 0.62108520E-01 0.57219252E+02</pdfrwt>
<pdfrwt beam="2">  1       -1 0.31192233E-03 0.57219252E+02</pdfrwt>
<totfact> 0.45186672E+05</totfact>
</mgrwt>
</event>
<event>
 4    1  0.2051373E-002  0.6016304E+02  0.7818608E-02  0.1397149E+00
          1   -1    0    0    0  501  0.00000000000E+00  0.00000000000E+00  0.35707557367E+01  0.35707592936E+01  0.50400000000E-02 0.  1.
         -1   -1    0    0  501    0 -0.00000000000E+00 -0.00000000000E+00 -0.25341896983E+03  0.25341896988E+03  0.50400000000E-02 0.  1.
          2    1    1    2    0  502  0.23046123258E+02  0.12949335352E+02 -0.18624564340E+03  0.18811233021E+03  0.25500000000E-02 0.  1.
         -2    1    1    2  502    0 -0.23046123258E+02 -0.12949335352E+02 -0.63602570690E+02  0.68877398965E+02  0.25500000000E-02 0.  1.
<mgrwt>
<rscale>  0 0.60163035E+02</rscale>
<asrwt>0</asrwt>
<pdfrwt beam="1">  1        1 0.54934751E-03 0.60163035E+02</pdfrwt>
<pdfrwt beam="2">  1       -1 0.38987520E-01 0.60163035E+02</pdfrwt>
<totfact> 0.18767850E+05</totfact>
</mgrwt>
</event>
<event>
 4    1  0.2051373E-002  0.5296697E+02  0.7818608E-02  0.1429965E+00
          1   -1    0    0    0  501  0.00000000000E+00  0.00000000000E+00  0.38417947662E+03  0.38417947666E+03  0.50400000000E-02 0. -1.
         -1   -1    0    0  501    0 -0.00000000000E+00 -0.00000000000E+00 -0.18256406834E+01  0.18256476403E+01  0.50400000000E-02 0. -1.
          2    1    1    2    0  502  0.73756701542E+01  0.20293325362E+02  0.79422305312E+02  0.82305055446E+02  0.25500000000E-02 0. -1.
         -2    1    1    2  502    0 -0.73756701542E+01 -0.20293325362E+02  0.30293153063E+03  0.30370006885E+03  0.25500000000E-02 0. -1.
<mgrwt>
<rscale>  0 0.52966972E+02</rscale>
<asrwt>0</asrwt>
<pdfrwt beam="1">  1        1 0.59104575E-01 0.52966972E+02</pdfrwt>
<pdfrwt beam="2">  1       -1 0.28086815E-03 0.52966972E+02</pdfrwt>
<totfact> 0.54458797E+05</totfact>
</mgrwt>
</event>
<event>
 4    1  0.2051373E-002  0.9211788E+02  0.7818608E-02  0.1297803E+00
          1   -1    0    0    0  501  0.00000000000E+00  0.00000000000E+00  0.96555496663E+03  0.96555496664E+03  0.50400000000E-02 0. -1.
         -1   -1    0    0  501    0 -0.00000000000E+00 -0.00000000000E+00 -0.21971023694E+01  0.21971081501E+01  0.50400000000E-02 0. -1.
          2    1    1    2    0  502  0.33029133968E+02 -0.31803660579E+02  0.52750710667E+03  0.52949612284E+03  0.25500000000E-02 0.  1.
         -2    1    1    2  502    0 -0.33029133968E+02  0.31803660579E+02  0.43585075759E+03  0.43825595195E+03  0.25500000000E-02 0.  1.
<mgrwt>
<rscale>  0 0.92117879E+02</rscale>
<asrwt>0</asrwt>
<pdfrwt beam="1">  1        1 0.14854741E+00 0.92117879E+02</pdfrwt>
<pdfrwt beam="2">  1       -1 0.33801507E-03 0.92117879E+02</pdfrwt>
<totfact> 0.13353285E+05</totfact>
</mgrwt>
</event>
<event>
 4    1  0.2051373E-002  0.9935423E+02  0.7818608E-02  0.1281660E+00
         -1   -1    0    0  501    0 -0.00000000000E+00  0.00000000000E+00  0.11309078114E+02  0.11309079237E+02  0.50400000000E-02 0.  1.
          1   -1    0    0    0  501  0.00000000000E+00 -0.00000000000E+00 -0.21821544693E+03  0.21821544699E+03  0.50400000000E-02 0.  1.
          2    1    1    2    0  502 -0.36425779325E+02  0.30825944682E+02 -0.71547875773E+02  0.86001016268E+02  0.25500000000E-02 0. -1.
         -2    1    1    2  502    0  0.36425779325E+02 -0.30825944682E+02 -0.13535849304E+03  0.14352350996E+03  0.25500000000E-02 0. -1.
<mgrwt>
<rscale>  0 0.99354228E+02</rscale>
<asrwt>0</asrwt>
<pdfrwt beam="2">  1        1 0.33571604E-01 0.99354228E+02</pdfrwt>
<pdfrwt beam="1">  1       -1 0.17398584E-02 0.99354228E+02</pdfrwt>
<totfact> 0.95572700E+04</totfact>
</mgrwt>
</event>
<event>
 4    1  0.2051373E-002  0.4407257E+02  0.7818608E-02  0.1480216E+00
          1   -1    0    0    0  501  0.00000000000E+00  0.00000000000E+00  0.87612551687E+01  0.87612566184E+01  0.50400000000E-02 0. -1.
         -1   -1    0    0  501    0 -0.00000000000E+00 -0.00000000000E+00 -0.55425588133E+02  0.55425588362E+02  0.50400000000E-02 0. -1.
          2    1    1    2    0  502  0.21062903426E+02 -0.50788771349E+01 -0.29186215587E+02  0.36349361487E+02  0.25500000000E-02 0. -1.
         -2    1    1    2  502    0 -0.21062903426E+02  0.50788771349E+01 -0.17478117377E+02  0.27837483493E+02  0.25500000000E-02 0. -1.
<mgrwt>
<rscale>  0 0.44072566E+02</rscale>
<asrwt>0</asrwt>
<pdfrwt beam="1">  1        1 0.13478856E-02 0.44072566E+02</pdfrwt>
<pdfrwt beam="2">  1       -1 0.85270135E-02 0.44072566E+02</pdfrwt>
<totfact> 0.55011967E+05</totfact>
</mgrwt>
</event>
<event>
 4    1  0.2051373E-002  0.4227226E+02  0.7818608E-02  0.1492126E+00
          1   -1    0    0    0  501  0.00000000000E+00  0.00000000000E+00  0.66988191021E+01  0.66988209980E+01  0.50400000000E-02 0.  1.
         -1   -1    0    0  501    0 -0.00000000000E+00 -0.00000000000E+00 -0.66688743706E+02  0.66688743897E+02  0.50400000000E-02 0.  1.
          2    1    1    2    0  502 -0.10529997474E+02  0.18240155750E+02 -0.26912878612E+02  0.34174364226E+02  0.25500000000E-02 0. -1.
         -2    1    1    2  502    0  0.10529997474E+02 -0.18240155750E+02 -0.33077045993E+02  0.39213200669E+02  0.25500000000E-02 0. -1.
<mgrwt>
<rscale>  0 0.42272256E+02</rscale>
<asrwt>0</asrwt>
<pdfrwt beam="1">  1        1 0.10305878E-02 0.42272256E+02</pdfrwt>
<pdfrwt beam="2">  1       -1 0.10259806E-01 0.42272256E+02</pdfrwt>
<totfact> 0.59556009E+05</totfact>
</mgrwt>
</event>
<event>
 4    1  0.2051373E-002  0.4672690E+02  0.7818608E-02  0.1463840E+00
         -1   -1    0    0  501    0 -0.00000000000E+00  0.00000000000E+00  0.14216649731E+01  0.14216739069E+01  0.50400000000E-02 0.  1.
          1   -1    0    0    0  501  0.00000000000E+00 -0.00000000000E+00 -0.38395060947E+03  0.38395060950E+03  0.50400000000E-02 0.  1.
          2    1    1    2    0  502  0.21289694056E+02  0.82687959890E+01 -0.23185843555E+03  0.23298059619E+03  0.25500000000E-02 0.  1.
         -2    1    1    2  502    0 -0.21289694056E+02 -0.82687959890E+01 -0.15067050894E+03  0.15239168721E+03  0.25500000000E-02 0.  1.
<mgrwt>
<rscale>  0 0.46726903E+02</rscale>
<asrwt>0</asrwt>
<pdfrwt beam="2">  1        1 0.59069243E-01 0.46726903E+02</pdfrwt>
<pdfrwt beam="1">  1       -1 0.21871868E-03 0.46726903E+02</pdfrwt>
<totfact> 0.74369172E+05</totfact>
</mgrwt>
</event>
<event>
 4    1  0.2051373E-002  0.4451929E+02  0.7818608E-02  0.1477365E+00
         -1   -1    0    0  501    0 -0.00000000000E+00  0.00000000000E+00  0.41195299070E+03  0.41195299073E+03  0.50400000000E-02 0. -1.
          1   -1    0    0    0  501  0.00000000000E+00 -0.00000000000E+00 -0.12027820268E+01  0.12027925863E+01  0.50400000000E-02 0. -1.
          2    1    1    2    0  502 -0.17609611480E+02 -0.13576611129E+02  0.21497052928E+03  0.21611744781E+03  0.25500000000E-02 0. -1.
         -2    1    1    2  502    0  0.17609611480E+02  0.13576611129E+02  0.19577967940E+03  0.19703833550E+03  0.25500000000E-02 0. -1.
<mgrwt>
<rscale>  0 0.44519292E+02</rscale>
<asrwt>0</asrwt>
<pdfrwt beam="2">  1        1 0.18504426E-03 0.44519292E+02</pdfrwt>
<pdfrwt beam="1">  1       -1 0.63377365E-01 0.44519292E+02</pdfrwt>
<totfact> 0.32378067E+05</totfact>
</mgrwt>
</event>
<event>
 4    1  0.2051373E-002  0.4977855E+02  0.7818608E-02  0.1446540E+00
         -1   -1    0    0  501    0 -0.00000000000E+00  0.00000000000E+00  0.39158143735E+03  0.39158143738E+03  0.50400000000E-02 0. -1.
          1   -1    0    0    0  501  0.00000000000E+00 -0.00000000000E+00 -0.15819813543E+01  0.15819893827E+01  0.50400000000E-02 0. -1.
          2    1    1    2    0  502  0.24732272849E+02  0.30099906139E+00  0.21691675044E+03  0.21832235925E+03  0.25500000000E-02 0. -1.
         -2    1    1    2  502    0 -0.24732272849E+02 -0.30099906139E+00  0.17308270555E+03  0.17484106751E+03  0.25500000000E-02 0. -1.
<mgrwt>
<rscale>  0 0.49778554E+02</rscale>
<asrwt>0</asrwt>
<pdfrwt beam="2">  1        1 0.24338235E-03 0.49778554E+02</pdfrwt>
<pdfrwt beam="1">  1       -1 0.60243304E-01 0.49778554E+02</pdfrwt>
<totfact> 0.25237481E+05</totfact>
</mgrwt>
</event>
<event>
 4    1  0.2051373E-002  0.4384045E+02  0.7818608E-02  0.1481713E+00
         -1   -1    0    0  501    0 -0.00000000000E+00  0.00000000000E+00  0.29556370724E+03  0.29556370729E+03  0.50400000000E-02 0.  1.
          1   -1    0    0    0  501  0.00000000000E+00 -0.00000000000E+00 -0.16256906890E+01  0.16256985016E+01  0.50400000000E-02 0.  1.
          2    1    1    2    0  502 -0.73822629312E+01  0.20530450564E+02  0.13259022487E+03  0.13437323001E+03  0.25500000000E-02 0.  1.
         -2    1    1    2  502    0  0.73822629312E+01 -0.20530450564E+02  0.16134779169E+03  0.16281617578E+03  0.25500000000E-02 0.  1.
<mgrwt>
<rscale>  0 0.43840453E+02</rscale>
<asrwt>0</asrwt>
<pdfrwt beam="2">  1        1 0.25010674E-03 0.43840453E+02</pdfrwt>
<pdfrwt beam="1">  1       -1 0.45471362E-01 0.43840453E+02</pdfrwt>
<totfact> 0.38984773E+05</totfact>
</mgrwt>
</event>
<event>
 4    1  0.2051373E-002  0.4019383E+02  0.7818608E-02  0.1506790E+00
          1   -1    0    0    0  501  0.00000000000E+00  0.00000000000E+00  0.61908821546E+00  0.61910873045E+00  0.50400000000E-02 0.  1.
         -1   -1    0    0  501    0 -0.00000000000E+00 -0.00000000000E+00 -0.65237763709E+03  0.65237763711E+03  0.50400000000E-02 0.  1.
          2    1    1    2    0  502 -0.15836604532E+02 -0.12276475093E+02 -0.35092224944E+03  0.35149386203E+03  0.25500000000E-02 0.  1.
         -2    1    1    2  502    0  0.15836604532E+02  0.12276475093E+02 -0.30083629943E+03  0.30150288381E+03  0.25500000000E-02 0.  1.
<mgrwt>
<rscale>  0 0.40193831E+02</rscale>
<asrwt>0</asrwt>
<pdfrwt beam="1">  1        1 0.95246442E-04 0.40193831E+02</pdfrwt>
<pdfrwt beam="2">  1       -1 0.10036524E+00 0.40193831E+02</pdfrwt>
<totfact> 0.30893948E+05</totfact>
</mgrwt>
</event>
<event>
 4    1  0.2051373E-002  0.4846888E+02  0.7818608E-02  0.1453779E+00
         -1   -1    0    0  501    0 -0.00000000000E+00  0.00000000000E+00  0.54389538880E+00  0.54391873985E+00  0.50400000000E-02 0.  1.
          1   -1    0    0    0  501  0.00000000000E+00 -0.00000000000E+00 -0.10797947794E+04  0.10797947794E+04  0.50400000000E-02 0.  1.
          2    1    1    2    0  502  0.50367572885E+01 -0.23668958750E+02 -0.51039766110E+03  0.51097099819E+03  0.25500000000E-02 0. -1.
         -2    1    1    2  502    0 -0.50367572885E+01  0.23668958750E+02 -0.56885322293E+03  0.56936769998E+03  0.25500000000E-02 0. -1.
<mgrwt>
<rscale>  0 0.48468877E+02</rscale>
<asrwt>0</asrwt>
<pdfrwt beam="2">  1        1 0.16612056E+00 0.48468877E+02</pdfrwt>
<pdfrwt beam="1">  1       -1 0.83678875E-04 0.48468877E+02</pdfrwt>
<totfact> 0.66995013E+05</totfact>
</mgrwt>
</event>
<event>
 4    1  0.2051373E-002  0.4720178E+02  0.7818608E-02  0.1461047E+00
         -1   -1    0    0  501    0 -0.00000000000E+00  0.00000000000E+00  0.18014058500E+01  0.18014129005E+01  0.50400000000E-02 0. -1.
          1   -1    0    0    0  501  0.00000000000E+00 -0.00000000000E+00 -0.30920341184E+03  0.30920341189E+03  0.50400000000E-02 0. -1.
          2    1    1    2    0  502  0.10201258804E+02  0.21048064201E+02 -0.13295375647E+03  0.13499551123E+03  0.25500000000E-02 0.  1.
         -2    1    1    2  502    0 -0.10201258804E+02 -0.21048064201E+02 -0.17444824953E+03  0.17600931355E+03  0.25500000000E-02 0.  1.
<mgrwt>
<rscale>  0 0.47201777E+02</rscale>
<asrwt>0</asrwt>
<pdfrwt beam="2">  1        1 0.47569714E-01 0.47201777E+02</pdfrwt>
<pdfrwt beam="1">  1       -1 0.27714015E-03 0.47201777E+02</pdfrwt>
<totfact> 0.70008977E+05</totfact>
</mgrwt>
</event>
<event>
 4    1  0.2051373E-002  0.4541523E+02  0.7818608E-02  0.1471766E+00
         -1   -1    0    0  501    0 -0.00000000000E+00  0.00000000000E+00  0.41179890358E+01  0.41179921200E+01  0.50400000000E-02 0. -1.
          1   -1    0    0    0  501  0.00000000000E+00 -0.00000000000E+00 -0.12521537110E+03  0.12521537120E+03  0.50400000000E-02 0. -1.
          2    1    1    2    0  502 -0.17860879403E+02 -0.97014259270E+01 -0.89381432280E+02  0.91663346660E+02  0.25500000000E-02 0.  1.
         -2    1    1    2  502    0  0.17860879403E+02  0.97014259270E+01 -0.31715949788E+02  0.37670016665E+02  0.25500000000E-02 0.  1.
<mgrwt>
<rscale>  0 0.45415228E+02</rscale>
<asrwt>0</asrwt>
<pdfrwt beam="2">  1        1 0.19263901E-01 0.45415228E+02</pdfrwt>
<pdfrwt beam="1">  1       -1 0.63353712E-03 0.45415228E+02</pdfrwt>
<totfact> 0.66293931E+05</totfact>
</mgrwt>
</event>
<event>
 4    1  0.2051373E-002  0.5967238E+02  0.7818608E-02  0.1399212E+00
          1   -1    0    0    0  501  0.00000000000E+00  0.00000000000E+00  0.32678165790E+02  0.32678166178E+02  0.50400000000E-02 0.  1.
         -1   -1    0    0  501    0 -0.00000000000E+00 -0.00000000000E+00 -0.27241375112E+02  0.27241375578E+02  0.50400000000E-02 0.  1.
          2    1    1    2    0  502 -0.24524518039E+02  0.16931864756E+02  0.41589672028E+01  0.30090480951E+02  0.25500000000E-02 0.  1.
         -2    1    1    2  502    0  0.24524518039E+02 -0.16931864756E+02  0.12778234748E+01  0.29829060805E+02  0.25500000000E-02 0.  1.
<mgrwt>
<rscale>  0 0.59672379E+02</rscale>
<asrwt>0</asrwt>
<pdfrwt beam="1">  1        1 0.50274102E-02 0.59672379E+02</pdfrwt>
<pdfrwt beam="2">  1       -1 0.41909809E-02 0.59672379E+02</pdfrwt>
<totfact> 0.28202909E+05</totfact>
</mgrwt>
</event>
<event>
 4    1  0.2051373E-002  0.5013032E+02  0.7818608E-02  0.1444640E+00
          1   -1    0    0    0  501  0.00000000000E+00  0.00000000000E+00  0.53957136937E+02  0.53957137173E+02  0.50400000000E-02 0.  1.
         -1   -1    0    0  501    0 -0.00000000000E+00 -0.00000000000E+00 -0.11643727512E+02  0.11643728602E+02  0.50400000000E-02 0.  1.
          2    1    1    2    0  502 -0.97622041386E+01  0.23058403651E+02  0.22632374448E+02  0.33752259010E+02  0.25500000000E-02 0.  1.
         -2    1    1    2  502    0  0.97622041386E+01 -0.23058403651E+02  0.19681034977E+02  0.31848606765E+02  0.25500000000E-02 0.  1.
<mgrwt>
<rscale>  0 0.50130320E+02</rscale>
<asrwt>0</asrwt>
<pdfrwt beam="1">  1        1 0.83010980E-02 0.50130320E+02</pdfrwt>
<pdfrwt beam="2">  1       -1 0.17913428E-02 0.50130320E+02</pdfrwt>
<totfact> 0.46672955E+05</totfact>
</mgrwt>
</event>
<event>
 4    1  0.2051373E-002  0.7950642E+02  0.7818608E-02  0.1330458E+00
         -1   -1    0    0  501    0 -0.00000000000E+00  0.00000000000E+00  0.10300436280E+02  0.10300437513E+02  0.50400000000E-02 0.  1.
          1   -1    0    0    0  501  0.00000000000E+00 -0.00000000000E+00 -0.15342238827E+03  0.15342238835E+03  0.50400000000E-02 0.  1.
          2    1    1    2    0  502 -0.48055443681E+00  0.27414559103E+02 -0.13083450815E+03  0.13367669024E+03  0.25500000000E-02 0. -1.
         -2    1    1    2  502    0  0.48055443681E+00 -0.27414559103E+02 -0.12287443832E+02  0.30046135622E+02  0.25500000000E-02 0. -1.
<mgrwt>
<rscale>  0 0.79506418E+02</rscale>
<asrwt>0</asrwt>
<pdfrwt beam="2">  1        1 0.23603443E-01 0.79506418E+02</pdfrwt>
<pdfrwt beam="1">  1       -1 0.15846827E-02 0.79506418E+02</pdfrwt>
<totfact> 0.16239469E+05</totfact>
</mgrwt>
</event>
<event>
 4    1  0.2051373E-002  0.4318790E+02  0.7818608E-02  0.1485982E+00
          1   -1    0    0    0  501  0.00000000000E+00  0.00000000000E+00  0.19430389121E+02  0.19430389774E+02  0.50400000000E-02 0. -1.
         -1   -1    0    0  501    0 -0.00000000000E+00 -0.00000000000E+00 -0.23998425145E+02  0.23998425674E+02  0.50400000000E-02 0. -1.
          2    1    1    2    0  502 -0.17960494247E+02 -0.11966025332E+02 -0.15494349106E+01  0.21637141006E+02  0.25500000000E-02 0.  1.
         -2    1    1    2  502    0  0.17960494247E+02  0.11966025332E+02 -0.30186011140E+01  0.21791674443E+02  0.25500000000E-02 0.  1.
<mgrwt>
<rscale>  0 0.43187904E+02</rscale>
<asrwt>0</asrwt>
<pdfrwt beam="1">  1        1 0.29892907E-02 0.43187904E+02</pdfrwt>
<pdfrwt beam="2">  1       -1 0.36920655E-02 0.43187904E+02</pdfrwt>
<totfact> 0.62482809E+05</totfact>
</mgrwt>
</event>
<event>
 4    1  0.2051373E-002  0.7060554E+02  0.7818608E-02  0.1358046E+00
         -1   -1    0    0  501    0 -0.00000000000E+00  0.00000000000E+00  0.35232914421E+01  0.35232950469E+01  0.50400000000E-02 0.  1.
          1   -1    0    0    0  501  0.00000000000E+00 -0.00000000000E+00 -0.35372747255E+03  0.35372747258E+03  0.50400000000E-02 0.  1.
          2    1    1    2    0  502  0.27524212433E+02 -0.21688080842E+02 -0.15343894399E+03  0.15738953160E+03  0.25500000000E-02 0.  1.
         -2    1    1    2  502    0 -0.27524212433E+02  0.21688080842E+02 -0.19676523712E+03  0.19986123603E+03  0.25500000000E-02 0.  1.
<mgrwt>
<rscale>  0 0.70605542E+02</rscale>
<asrwt>0</asrwt>
<pdfrwt beam="2">  1        1 0.54419584E-01 0.70605542E+02</pdfrwt>
<pdfrwt beam="1">  1       -1 0.54204540E-03 0.70605542E+02</pdfrwt>
<totfact> 0.25833369E+05</totfact>
</mgrwt>
</event>
<event>
 4    1  0.2051373E-002  0.5728461E+02  0.7818608E-02  0.1409594E+00
         -1   -1    0    0  501    0 -0.00000000000E+00  0.00000000000E+00  0.21344186682E+03  0.21344186688E+03  0.50400000000E-02 0.  1.
          1   -1    0    0    0  501  0.00000000000E+00 -0.00000000000E+00 -0.38435823311E+01  0.38435856355E+01  0.50400000000E-02 0.  1.
          2    1    1    2    0  502  0.24644634118E+02 -0.37693639060E+01  0.51315873193E+02  0.57051598953E+02  0.25500000000E-02 0.  1.
         -2    1    1    2  502    0 -0.24644634118E+02  0.37693639060E+01  0.15828241130E+03  0.16023385356E+03  0.25500000000E-02 0.  1.
<mgrwt>
<rscale>  0 0.57284614E+02</rscale>
<asrwt>0</asrwt>
<pdfrwt beam="2">  1        1 0.59132056E-03 0.57284614E+02</pdfrwt>
<pdfrwt beam="1">  1       -1 0.32837214E-01 0.57284614E+02</pdfrwt>
<totfact> 0.22410637E+05</totfact>
</mgrwt>
</event>
<event>
 4    1  0.2051373E-002  0.4822193E+02  0.7818608E-02  0.1455175E+00
          1   -1    0    0    0  501  0.00000000000E+00  0.00000000000E+00  0.21402140563E+02  0.21402141156E+02  0.50400000000E-02 0.  1.
         -1   -1    0    0  501    0 -0.00000000000E+00 -0.00000000000E+00 -0.27162636747E+02  0.27162637214E+02  0.50400000000E-02 0.  1.
          2    1    1    2    0  502  0.13176149275E+02  0.16664723351E+02  0.86032188393E+01  0.22920281302E+02  0.25500000000E-02 0. -1.
         -2    1    1    2  502    0 -0.13176149275E+02 -0.16664723351E+02 -0.14363715024E+02  0.25644497068E+02  0.25500000000E-02 0. -1.
<mgrwt>
<rscale>  0 0.48221928E+02</rscale>
<asrwt>0</asrwt>
<pdfrwt beam="1">  1        1 0.32926371E-02 0.48221928E+02</pdfrwt>
<pdfrwt beam="2">  1       -1 0.41788673E-02 0.48221928E+02</pdfrwt>
<totfact> 0.47392405E+05</totfact>
</mgrwt>
</event>
<event>
 4    1  0.2051373E-002  0.4847408E+02  0.7818608E-02  0.1453750E+00
          1   -1    0    0    0  501  0.00000000000E+00  0.00000000000E+00  0.95167257579E+03  0.95167257580E+03  0.50400000000E-02 0.  1.
         -1   -1    0    0  501    0 -0.00000000000E+00 -0.00000000000E+00 -0.61725450624E+00  0.61727508218E+00  0.50400000000E-02 0.  1.
          2    1    1    2    0  502  0.21471110038E+02 -0.67201452679E+01  0.29843051327E+03  0.29927736329E+03  0.25500000000E-02 0. -1.
         -2    1    1    2  502    0 -0.21471110038E+02  0.67201452679E+01  0.65262480801E+03  0.65301248760E+03  0.25500000000E-02 0. -1.
<mgrwt>
<rscale>  0 0.48474075E+02</rscale>
<asrwt>0</asrwt>
<pdfrwt beam="1">  1        1 0.14641150E+00 0.48474075E+02</pdfrwt>
<pdfrwt beam="2">  1       -1 0.94963601E-04 0.48474075E+02</pdfrwt>
<totfact> 0.69347492E+05</totfact>
</mgrwt>
</event>
<event>
 4    1  0.2051373E-002  0.4578353E+02  0.7818608E-02  0.1469509E+00
         -1   -1    0    0  501    0 -0.00000000000E+00  0.00000000000E+00  0.13314215937E+01  0.13314311329E+01  0.50400000000E-02 0. -1.
          1   -1    0    0    0  501  0.00000000000E+00 -0.00000000000E+00 -0.39358766469E+03  0.39358766472E+03  0.50400000000E-02 0. -1.
          2    1    1    2    0  502  0.10748019494E+01  0.20427778089E+02 -0.28476148290E+03  0.28549527398E+03  0.25500000000E-02 0.  1.
         -2    1    1    2  502    0 -0.10748019494E+01 -0.20427778089E+02 -0.10749476020E+03  0.10942382187E+03  0.25500000000E-02 0.  1.
<mgrwt>
<rscale>  0 0.45783534E+02</rscale>
<asrwt>0</asrwt>
<pdfrwt beam="2">  1        1 0.60551857E-01 0.45783534E+02</pdfrwt>
<pdfrwt beam="1">  1       -1 0.20483514E-03 0.45783534E+02</pdfrwt>
<totfact> 0.78499843E+05</totfact>
</mgrwt>
</event>
<event>
 4    1  0.2051373E-002  0.6722150E+02  0.7818608E-02  0.1369805E+00
          1   -1    0    0    0  501  0.00000000000E+00  0.00000000000E+00  0.30170797026E+03  0.30170797031E+03  0.50400000000E-02 0. -1.
         -1   -1    0    0  501    0 -0.00000000000E+00 -0.00000000000E+00 -0.37442896783E+01  0.37442930703E+01  0.50400000000E-02 0. -1.
          2    1    1    2    0  502 -0.10311661524E+02 -0.21589001491E+02  0.41714655393E+02  0.48088749515E+02  0.25500000000E-02 0.  1.
         -2    1    1    2  502    0  0.10311661524E+02  0.21589001491E+02  0.25624902519E+03  0.25736351386E+03  0.25500000000E-02 0.  1.
<mgrwt>
<rscale>  0 0.67221501E+02</rscale>
<asrwt>0</asrwt>
<pdfrwt beam="1">  1        1 0.46416608E-01 0.67221501E+02</pdfrwt>
<pdfrwt beam="2">  1       -1 0.57604487E-03 0.67221501E+02</pdfrwt>
<totfact> 0.28516790E+05</totfact>
</mgrwt>
</event>
<event>
 4    1  0.2051373E-002  0.1528015E+03  0.7818608E-02  0.1197072E+00
          1   -1    0    0    0  501  0.00000000000E+00  0.00000000000E+00  0.91249904592E+03  0.91249904593E+03  0.50400000000E-02 0. -1.
         -1   -1    0    0  501    0 -0.00000000000E+00 -0.00000000000E+00 -0.63967977452E+01  0.63967997307E+01  0.50400000000E-02 0. -1.
          2    1    1    2    0  502 -0.67430313660E+02 -0.29875638475E+02  0.33312849972E+03  0.34119495645E+03  0.25500000000E-02 0. -1.
         -2    1    1    2  502    0  0.67430313660E+02  0.29875638475E+02  0.57297374846E+03  0.57770088922E+03  0.25500000000E-02 0. -1.
<mgrwt>
<rscale>  0 0.15280148E+03</rscale>
<asrwt>0</asrwt>
<pdfrwt beam="1">  1        1 0.14038447E+00 0.15280148E+03</pdfrwt>
<pdfrwt beam="2">  1       -1 0.98412288E-03 0.15280148E+03</pdfrwt>
<totfact> 0.34301944E+04</totfact>
</mgrwt>
</event>
<event>
 4    1  0.2051373E-002  0.4269554E+02  0.7818608E-02  0.1489263E+00
          1   -1    0    0    0  501  0.00000000000E+00  0.00000000000E+00  0.42841151264E+02  0.42841151560E+02  0.50400000000E-02 0.  1.
         -1   -1    0    0  501    0 -0.00000000000E+00 -0.00000000000E+00 -0.10637603477E+02  0.10637604671E+02  0.50400000000E-02 0.  1.
          2    1    1    2    0  502  0.18502540953E+02  0.83525377070E+01  0.78293417935E+01  0.21757929757E+02  0.25500000000E-02 0.  1.
         -2    1    1    2  502    0 -0.18502540953E+02 -0.83525377070E+01  0.24374205994E+02  0.31720826474E+02  0.25500000000E-02 0.  1.
<mgrwt>
<rscale>  0 0.42695537E+02</rscale>
<asrwt>0</asrwt>
<pdfrwt beam="1">  1        1 0.65909466E-02 0.42695537E+02</pdfrwt>
<pdfrwt beam="2">  1       -1 0.16365545E-02 0.42695537E+02</pdfrwt>
<totfact> 0.68538958E+05</totfact>
</mgrwt>
</event>
<event>
 4    1  0.2051373E-002  0.4507697E+02  0.7818608E-02  0.1473862E+00
         -1   -1    0    0  501    0 -0.00000000000E+00  0.00000000000E+00  0.73805871208E+02  0.73805871380E+02  0.50400000000E-02 0.  1.
          1   -1    0    0    0  501  0.00000000000E+00 -0.00000000000E+00 -0.68826928611E+01  0.68826947064E+01  0.50400000000E-02 0.  1.
          2    1    1    2    0  502 -0.55299420331E+00 -0.22287708092E+02  0.39380970331E+02  0.45253823764E+02  0.25500000000E-02 0. -1.
         -2    1    1    2  502    0  0.55299420331E+00  0.22287708092E+02  0.27542208016E+02  0.35434742323E+02  0.25500000000E-02 0. -1.
<mgrwt>
<rscale>  0 0.45076966E+02</rscale>
<asrwt>0</asrwt>
<pdfrwt beam="2">  1        1 0.10588760E-02 0.45076966E+02</pdfrwt>
<pdfrwt beam="1">  1       -1 0.11354749E-01 0.45076966E+02</pdfrwt>
<totfact> 0.50258035E+05</totfact>
</mgrwt>
</event>
<event>
 4    1  0.2051373E-002  0.4217062E+02  0.7818608E-02  0.1492820E+00
          1   -1    0    0    0  501  0.00000000000E+00  0.00000000000E+00  0.44546615648E+03  0.44546615651E+03  0.50400000000E-02 0.  1.
         -1   -1    0    0  501    0 -0.00000000000E+00 -0.00000000000E+00 -0.99802752907E+00  0.99804025489E+00  0.50400000000E-02 0.  1.
          2    1    1    2    0  502  0.19553718411E+02 -0.76628777550E+01  0.20236322358E+03  0.20345009674E+03  0.25500000000E-02 0.  1.
         -2    1    1    2  502    0 -0.19553718411E+02  0.76628777550E+01  0.24210490537E+03  0.24301410003E+03  0.25500000000E-02 0.  1.
<mgrwt>
<rscale>  0 0.42170622E+02</rscale>
<asrwt>0</asrwt>
<pdfrwt beam="1">  1        1 0.68533041E-01 0.42170622E+02</pdfrwt>
<pdfrwt beam="2">  1       -1 0.15354416E-03 0.42170622E+02</pdfrwt>
<totfact> 0.97683845E+05</totfact>
</mgrwt>
</event>
<event>
 4    1  0.2051373E-002  0.4054499E+02  0.7818608E-02  0.1504239E+00
         -1   -1    0    0  501    0 -0.00000000000E+00  0.00000000000E+00  0.19394857970E+02  0.19394858625E+02  0.50400000000E-02 0. -1.
          1   -1    0    0    0  501  0.00000000000E+00 -0.00000000000E+00 -0.21189839503E+02  0.21189840102E+02  0.50400000000E-02 0. -1.
          2    1    1    2    0  502  0.19367097220E+02  0.57920719414E+01  0.63416958468E+00  0.20224607034E+02  0.25500000000E-02 0.  1.
         -2    1    1    2  502    0 -0.19367097220E+02 -0.57920719414E+01 -0.24291511177E+01  0.20360091693E+02  0.25500000000E-02 0.  1.
<mgrwt>
<rscale>  0 0.40544985E+02</rscale>
<asrwt>0</asrwt>
<pdfrwt beam="2">  1        1 0.32599754E-02 0.40544985E+02</pdfrwt>
<pdfrwt beam="1">  1       -1 0.29838244E-02 0.40544985E+02</pdfrwt>
<totfact> 0.73851821E+05</totfact>
</mgrwt>
</event>
<event>
 4    1  0.2051373E-002  0.4145678E+02  0.7818608E-02  0.1497757E+00
         -1   -1    0    0  501    0 -0.00000000000E+00  0.00000000000E+00  0.18257204339E+01  0.18257273905E+01  0.50400000000E-02 0.  1.
          1   -1    0    0    0  501  0.00000000000E+00 -0.00000000000E+00 -0.23534010236E+03  0.23534010242E+03  0.50400000000E-02 0.  1.
          2    1    1    2    0  502 -0.14131389379E+02 -0.15074198429E+02 -0.12622409073E+03  0.12790406057E+03  0.25500000000E-02 0. -1.
         -2    1    1    2  502    0  0.14131389379E+02  0.15074198429E+02 -0.10729029120E+03  0.10926176923E+03  0.25500000000E-02 0. -1.
<mgrwt>
<rscale>  0 0.41456776E+02</rscale>
<asrwt>0</asrwt>
<pdfrwt beam="2">  1        1 0.36206146E-01 0.41456776E+02</pdfrwt>
<pdfrwt beam="1">  1       -1 0.28088079E-03 0.41456776E+02</pdfrwt>
<totfact> 0.91879593E+05</totfact>
</mgrwt>
</event>
<event>
 4    1  0.2051373E-002  0.7118663E+02  0.7818608E-02  0.1356104E+00
         -1   -1    0    0  501    0 -0.00000000000E+00  0.00000000000E+00  0.86479169642E+03  0.86479169643E+03  0.50400000000E-02 0.  1.
          1   -1    0    0    0  501  0.00000000000E+00 -0.00000000000E+00 -0.14649543292E+01  0.14649629989E+01  0.50400000000E-02 0.  1.
          2    1    1    2    0  502  0.31960533770E+02 -0.15654249089E+02  0.43889190168E+03  0.44033241148E+03  0.25500000000E-02 0.  1.
         -2    1    1    2  502    0 -0.31960533770E+02  0.15654249089E+02  0.42443484041E+03  0.42592424795E+03  0.25500000000E-02 0.  1.
<mgrwt>
<rscale>  0 0.71186631E+02</rscale>
<asrwt>0</asrwt>
<pdfrwt beam="2">  1        1 0.22537777E-03 0.71186631E+02</pdfrwt>
<pdfrwt beam="1">  1       -1 0.13304517E+00 0.71186631E+02</pdfrwt>
<totfact> 0.57473531E+04</totfact>
</mgrwt>
</event>
<event>
 4    1  0.2051373E-002  0.4828117E+02  0.7818608E-02  0.1454839E+00
         -1   -1    0    0  501    0 -0.00000000000E+00  0.00000000000E+00  0.94576914970E+01  0.94576928399E+01  0.50400000000E-02 0. -1.
          1   -1    0    0    0  501  0.00000000000E+00 -0.00000000000E+00 -0.61618397585E+02  0.61618397791E+02  0.50400000000E-02 0. -1.
          2    1    1    2    0  502  0.18780462493E+01 -0.23269777030E+02 -0.35126252291E+02  0.42176571544E+02  0.25500000000E-02 0.  1.
         -2    1    1    2  502    0 -0.18780462493E+01  0.23269777030E+02 -0.17034453797E+02  0.28899519086E+02  0.25500000000E-02 0.  1.
<mgrwt>
<rscale>  0 0.48281170E+02</rscale>
<asrwt>0</asrwt>
<pdfrwt beam="2">  1        1 0.94797533E-02 0.48281170E+02</pdfrwt>
<pdfrwt beam="1">  1       -1 0.14550296E-02 0.48281170E+02</pdfrwt>
<totfact> 0.52061477E+05</totfact>
</mgrwt>
</event>
<event>
 4    1  0.2051373E-002  0.4294486E+02  0.7818608E-02  0.1487595E+00
          1   -1    0    0    0  501  0.00000000000E+00  0.00000000000E+00  0.11203528766E+01  0.11203642130E+01  0.50400000000E-02 0. -1.
         -1   -1    0    0  501    0 -0.00000000000E+00 -0.00000000000E+00 -0.41153358693E+03  0.41153358696E+03  0.50400000000E-02 0. -1.
          2    1    1    2    0  502  0.15825538704E+02  0.14355305884E+02 -0.18472653870E+03  0.18595810439E+03  0.25500000000E-02 0. -1.
         -2    1    1    2  502    0 -0.15825538704E+02 -0.14355305884E+02 -0.22568669536E+03  0.22669584678E+03  0.25500000000E-02 0. -1.
<mgrwt>
<rscale>  0 0.42944857E+02</rscale>
<asrwt>0</asrwt>
<pdfrwt beam="1">  1        1 0.17236318E-03 0.42944857E+02</pdfrwt>
<pdfrwt beam="2">  1       -1 0.63312739E-01 0.42944857E+02</pdfrwt>
<totfact> 0.35368749E+05</totfact>
</mgrwt>
</event>
<event>
 4    1  0.2051373E-002  0.6200789E+02  0.7818608E-02  0.1389594E+00
         -1   -1    0    0  501    0 -0.00000000000E+00  0.00000000000E+00  0.13286526046E+01  0.13286621637E+01  0.50400000000E-02 0.  1.
          1   -1    0    0    0  501  0.00000000000E+00 -0.00000000000E+00 -0.72347060810E+03  0.72347060812E+03  0.50400000000E-02 0.  1.
          2    1    1    2    0  502 -0.13491233691E+02 -0.15897714715E+02 -0.92865618085E+02  0.95177590579E+02  0.25500000000E-02 0.  1.
         -2    1    1    2  502    0  0.13491233691E+02  0.15897714715E+02 -0.62927633741E+03  0.62962167970E+03  0.25500000000E-02 0.  1.
<mgrwt>
<rscale>  0 0.62007889E+02</rscale>
<asrwt>0</asrwt>
<pdfrwt beam="2">  1        1 0.11130286E+00 0.62007889E+02</pdfrwt>
<pdfrwt beam="1">  1       -1 0.20440941E-03 0.62007889E+02</pdfrwt>
<totfact> 0.38624070E+05</totfact>
</mgrwt>
</event>
<event>
 4    1  0.2051373E-002  0.8056383E+02  0.7818608E-02  0.1327459E+00
         -1   -1    0    0  501    0 -0.00000000000E+00  0.00000000000E+00  0.13577949013E+03  0.13577949022E+03  0.50400000000E-02 0. -1.
          1   -1    0    0    0  501  0.00000000000E+00 -0.00000000000E+00 -0.11950499909E+02  0.11950500971E+02  0.50400000000E-02 0. -1.
          2    1    1    2    0  502 -0.28075748559E+02  0.28603487525E+02  0.54528136934E+02  0.67673664595E+02  0.25500000000E-02 0. -1.
         -2    1    1    2  502    0  0.28075748559E+02 -0.28603487525E+02  0.69300853285E+02  0.80056326597E+02  0.25500000000E-02 0. -1.
<mgrwt>
<rscale>  0 0.80563835E+02</rscale>
<asrwt>0</asrwt>
<pdfrwt beam="2">  1        1 0.18385386E-02 0.80563835E+02</pdfrwt>
<pdfrwt beam="1">  1       -1 0.20889152E-01 0.80563835E+02</pdfrwt>
<totfact> 0.10529532E+05</totfact>
</mgrwt>
</event>
<event>
 4    1  0.2051373E-002  0.5348347E+02  0.7818608E-02  0.1427410E+00
         -1   -1    0    0  501    0 -0.00000000000E+00  0.00000000000E+00  0.10933029562E+01  0.10933145730E+01  0.50400000000E-02 0. -1.
          1   -1    0    0    0  501  0.00000000000E+00 -0.00000000000E+00 -0.65408829605E+03  0.65408829607E+03  0.50400000000E-02 0. -1.
          2    1    1    2    0  502 -0.15404856360E+02 -0.19777508479E+02 -0.21245833275E+03  0.21393223834E+03  0.25500000000E-02 0. -1.
         -2    1    1    2  502    0  0.15404856360E+02  0.19777508479E+02 -0.44053666034E+03  0.44124937229E+03  0.25500000000E-02 0. -1.
<mgrwt>
<rscale>  0 0.53483473E+02</rscale>
<asrwt>0</asrwt>
<pdfrwt beam="2">  1        1 0.10062866E+00 0.53483473E+02</pdfrwt>
<pdfrwt beam="1">  1       -1 0.16820187E-03 0.53483473E+02</pdfrwt>
<totfact> 0.56101355E+05</totfact>
</mgrwt>
</event>
<event>
 4    1  0.2051373E-002  0.4264101E+02  0.7818608E-02  0.1489630E+00
         -1   -1    0    0  501    0 -0.00000000000E+00  0.00000000000E+00  0.40246620737E+00  0.40249776356E+00  0.50400000000E-02 0.  1.
          1   -1    0    0    0  501  0.00000000000E+00 -0.00000000000E+00 -0.11294021025E+04  0.11294021025E+04  0.50400000000E-02 0.  1.
          2    1    1    2    0  502  0.91698793469E+01  0.19247653002E+02 -0.56640557012E+03  0.56680669430E+03  0.25500000000E-02 0. -1.
         -2    1    1    2  502    0 -0.91698793469E+01 -0.19247653002E+02 -0.56259406617E+03  0.56299790597E+03  0.25500000000E-02 0. -1.
<mgrwt>
<rscale>  0 0.42641014E+02</rscale>
<asrwt>0</asrwt>
<pdfrwt beam="2">  1        1 0.17375164E+00 0.42641014E+02</pdfrwt>
<pdfrwt beam="1">  1       -1 0.61921210E-04 0.42641014E+02</pdfrwt>
<totfact> 0.90302108E+05</totfact>
</mgrwt>
</event>
<event>
 4    1  0.2051373E-002  0.4096545E+02  0.7818608E-02  0.1501225E+00
         -1   -1    0    0  501    0 -0.00000000000E+00  0.00000000000E+00  0.71412825425E+00  0.71414603907E+00  0.50400000000E-02 0. -1.
          1   -1    0    0    0  501  0.00000000000E+00 -0.00000000000E+00 -0.58748092135E+03  0.58748092138E+03  0.50400000000E-02 0. -1.
          2    1    1    2    0  502  0.18739273772E+02  0.77958584789E+01 -0.25378418596E+03  0.25459447920E+03  0.25500000000E-02 0. -1.
         -2    1    1    2  502    0 -0.18739273772E+02 -0.77958584789E+01 -0.33298260714E+03  0.33360058821E+03  0.25500000000E-02 0. -1.
<mgrwt>
<rscale>  0 0.40965447E+02</rscale>
<asrwt>0</asrwt>
<pdfrwt beam="2">  1        1 0.90381295E-01 0.40965447E+02</pdfrwt>
<pdfrwt beam="1">  1       -1 0.10986772E-03 0.40965447E+02</pdfrwt>
<totfact> 0.10767843E+06</totfact>
</mgrwt>
</event>
<event>
 4    1  0.2051373E-002  0.5936670E+02  0.7818608E-02  0.1400509E+00
          1   -1    0    0    0  501  0.00000000000E+00  0.00000000000E+00  0.81397563478E+01  0.81397579081E+01  0.50400000000E-02 0.  1.
         -1   -1    0    0  501    0 -0.00000000000E+00 -0.00000000000E+00 -0.10824662733E+03  0.10824662744E+03  0.50400000000E-02 0.  1.
          2    1    1    2    0  502 -0.25370808305E+02  0.67233571557E+01 -0.22872878535E+02  0.34814508821E+02  0.25500000000E-02 0.  1.
         -2    1    1    2  502    0  0.25370808305E+02 -0.67233571557E+01 -0.77233992443E+02  0.81571876530E+02  0.25500000000E-02 0.  1.
<mgrwt>
<rscale>  0 0.59366700E+02</rscale>
<asrwt>0</asrwt>
<pdfrwt beam="1">  1        1 0.12522704E-02 0.59366700E+02</pdfrwt>
<pdfrwt beam="2">  1       -1 0.16653326E-01 0.59366700E+02</pdfrwt>
<totfact> 0.23931209E+05</totfact>
</mgrwt>
</event>
<event>
 4    1  0.2051373E-002  0.6717434E+02  0.7818608E-02  0.1369974E+00
         -1   -1    0    0  501    0 -0.00000000000E+00  0.00000000000E+00  0.10779407702E+03  0.10779407714E+03  0.50400000000E-02 0.  1.
          1   -1    0    0    0  501  0.00000000000E+00 -0.00000000000E+00 -0.10465306211E+02  0.10465307424E+02  0.50400000000E-02 0.  1.
          2    1    1    2    0  502  0.41064769200E+01 -0.29277516455E+02  0.20603458136E+02  0.36035241308E+02  0.25500000000E-02 0. -1.
         -2    1    1    2  502    0 -0.41064769200E+01  0.29277516455E+02  0.76725312672E+02  0.82224143253E+02  0.25500000000E-02 0. -1.
<mgrwt>
<rscale>  0 0.67174343E+02</rscale>
<asrwt>0</asrwt>
<pdfrwt beam="2">  1        1 0.16100472E-02 0.67174343E+02</pdfrwt>
<pdfrwt beam="1">  1       -1 0.16583704E-01 0.67174343E+02</pdfrwt>
<totfact> 0.17532405E+05</totfact>
</mgrwt>
</event>
<event>
 4    1  0.2051373E-002  0.6295688E+02  0.7818608E-02  0.1385826E+00
          1   -1    0    0    0  501  0.00000000000E+00  0.00000000000E+00  0.28943486497E+03  0.28943486502E+03  0.50400000000E-02 0. -1.
         -1   -1    0    0  501    0 -0.00000000000E+00 -0.00000000000E+00 -0.34235397910E+01  0.34235435008E+01  0.50400000000E-02 0. -1.
          2    1    1    2    0  502  0.23779278815E+02 -0.10348848600E+02  0.60009164198E+02  0.65373179230E+02  0.25500000000E-02 0. -1.
         -2    1    1    2  502    0 -0.23779278815E+02  0.10348848600E+02  0.22600216098E+03  0.22748522929E+03  0.25500000000E-02 0. -1.
<mgrwt>
<rscale>  0 0.62956885E+02</rscale>
<asrwt>0</asrwt>
<pdfrwt beam="1">  1        1 0.44528458E-01 0.62956885E+02</pdfrwt>
<pdfrwt beam="2">  1       -1 0.52669851E-03 0.62956885E+02</pdfrwt>
<totfact> 0.33498060E+05</totfact>
</mgrwt>
</event>
<event>
 4    1  0.2051373E-002  0.6252914E+02  0.7818608E-02  0.1387514E+00
          1   -1    0    0    0  501  0.00000000000E+00  0.00000000000E+00  0.18440415093E+02  0.18440415782E+02  0.50400000000E-02 0.  1.
         -1   -1    0    0  501    0 -0.00000000000E+00 -0.00000000000E+00 -0.53007122088E+02  0.53007122327E+02  0.50400000000E-02 0.  1.
          2    1    1    2    0  502 -0.27690454786E+02  0.70362423816E+01 -0.31790829529E+02  0.42742564754E+02  0.25500000000E-02 0.  1.
         -2    1    1    2  502    0  0.27690454786E+02 -0.70362423816E+01 -0.27758774661E+01  0.28704973355E+02  0.25500000000E-02 0.  1.
<mgrwt>
<rscale>  0 0.62529141E+02</rscale>
<asrwt>0</asrwt>
<pdfrwt beam="1">  1        1 0.28369870E-02 0.62529141E+02</pdfrwt>
<pdfrwt beam="2">  1       -1 0.81549418E-02 0.62529141E+02</pdfrwt>
<totfact> 0.23327583E+05</totfact>
</mgrwt>
</event>
<event>
 4    1  0.2051373E-002  0.5225452E+02  0.7818608E-02  0.1433547E+00
          1   -1    0    0    0  501  0.00000000000E+00  0.00000000000E+00  0.11362519913E+03  0.11362519925E+03  0.50400000000E-02 0. -1.
         -1   -1    0    0  501    0 -0.00000000000E+00 -0.00000000000E+00 -0.60077649340E+01  0.60077670480E+01  0.50400000000E-02 0. -1.
          2    1    1    2    0  502 -0.19406606624E+01 -0.22033424037E+02  0.85647057187E+02  0.88457087618E+02  0.25500000000E-02 0.  1.
         -2    1    1    2  502    0  0.19406606624E+01  0.22033424037E+02  0.21970377013E+02  0.31175878675E+02  0.25500000000E-02 0.  1.
<mgrwt>
<rscale>  0 0.52254516E+02</rscale>
<asrwt>0</asrwt>
<pdfrwt beam="1">  1        1 0.17480799E-01 0.52254516E+02</pdfrwt>
<pdfrwt beam="2">  1       -1 0.92427176E-03 0.52254516E+02</pdfrwt>
<totfact> 0.45971085E+05</totfact>
</mgrwt>
</event>
<event>
 4    1  0.2051373E-002  0.4263382E+02  0.7818608E-02  0.1489678E+00
         -1   -1    0    0  501    0 -0.00000000000E+00  0.00000000000E+00  0.99686467395E+00  0.99687741462E+00  0.50400000000E-02 0. -1.
          1   -1    0    0    0  501  0.00000000000E+00 -0.00000000000E+00 -0.45583696359E+03  0.45583696362E+03  0.50400000000E-02 0. -1.
          2    1    1    2    0  502 -0.18318232212E+02 -0.10669646603E+02 -0.25140815424E+03  0.25230033495E+03  0.25500000000E-02 0.  1.
         -2    1    1    2  502    0  0.18318232212E+02  0.10669646603E+02 -0.20343194467E+03  0.20453350608E+03  0.25500000000E-02 0.  1.
<mgrwt>
<rscale>  0 0.42633821E+02</rscale>
<asrwt>0</asrwt>
<pdfrwt beam="2">  1        1 0.70128598E-01 0.42633821E+02</pdfrwt>
<pdfrwt beam="1">  1       -1 0.15336514E-03 0.42633821E+02</pdfrwt>
<totfact> 0.95400072E+05</totfact>
</mgrwt>
</event>
<event>
 4    1  0.2051373E-002  0.4447628E+02  0.7818608E-02  0.1477638E+00
         -1   -1    0    0  501    0 -0.00000000000E+00  0.00000000000E+00  0.96048760872E+02  0.96048761004E+02  0.50400000000E-02 0.  1.
          1   -1    0    0    0  501  0.00000000000E+00 -0.00000000000E+00 -0.51487887672E+01  0.51487912339E+01  0.50400000000E-02 0.  1.
          2    1    1    2    0  502  0.18615845384E+02  0.12149560853E+02  0.44059662786E+02  0.49349928263E+02  0.25500000000E-02 0. -1.
         -2    1    1    2  502    0 -0.18615845384E+02 -0.12149560853E+02  0.46840309319E+02  0.51847623975E+02  0.25500000000E-02 0. -1.
<mgrwt>
<rscale>  0 0.44476282E+02</rscale>
<asrwt>0</asrwt>
<pdfrwt beam="2">  1        1 0.79212166E-03 0.44476282E+02</pdfrwt>
<pdfrwt beam="1">  1       -1 0.14776731E-01 0.44476282E+02</pdfrwt>
<totfact> 0.49962767E+05</totfact>
</mgrwt>
</event>
<event>
 4    1  0.2051373E-002  0.5294725E+02  0.7818608E-02  0.1430064E+00
         -1   -1    0    0  501    0 -0.00000000000E+00  0.00000000000E+00  0.18123353126E+03  0.18123353133E+03  0.50400000000E-02 0.  1.
          1   -1    0    0    0  501  0.00000000000E+00 -0.00000000000E+00 -0.38671234299E+01  0.38671267142E+01  0.50400000000E-02 0.  1.
          2    1    1    2    0  502 -0.24407143163E+02 -0.40871611854E+01  0.55806594873E+02  0.61047436979E+02  0.25500000000E-02 0.  1.
         -2    1    1    2  502    0  0.24407143163E+02  0.40871611854E+01  0.12155981296E+03  0.12405322106E+03  0.25500000000E-02 0.  1.
<mgrwt>
<rscale>  0 0.52947247E+02</rscale>
<asrwt>0</asrwt>
<pdfrwt beam="2">  1        1 0.59494244E-03 0.52947247E+02</pdfrwt>
<pdfrwt beam="1">  1       -1 0.27882077E-01 0.52947247E+02</pdfrwt>
<totfact> 0.28546068E+05</totfact>
</mgrwt>
</event>
<event>
 4    1  0.2051373E-002  0.5762137E+02  0.7818608E-02  0.1408094E+00
          1   -1    0    0    0  501  0.00000000000E+00  0.00000000000E+00  0.27890549118E+02  0.27890549573E+02  0.50400000000E-02 0. -1.
         -1   -1    0    0  501    0 -0.00000000000E+00 -0.00000000000E+00 -0.29761173937E+02  0.29761174364E+02  0.50400000000E-02 0. -1.
          2    1    1    2    0  502  0.25249386119E+02 -0.13562682839E+02 -0.38656156939E+01  0.28920941485E+02  0.25500000000E-02 0. -1.
         -2    1    1    2  502    0 -0.25249386119E+02  0.13562682839E+02  0.19949908746E+01  0.28730782452E+02  0.25500000000E-02 0. -1.
<mgrwt>
<rscale>  0 0.57621368E+02</rscale>
<asrwt>0</asrwt>
<pdfrwt beam="1">  1        1 0.42908538E-02 0.57621368E+02</pdfrwt>
<pdfrwt beam="2">  1       -1 0.45786422E-02 0.57621368E+02</pdfrwt>
<totfact> 0.30442259E+05</totfact>
</mgrwt>
</event>
<event>
 4    1  0.2051373E-002  0.4367973E+02  0.7818608E-02  0.1482756E+00
          1   -1    0    0    0  501  0.00000000000E+00  0.00000000000E+00  0.30968007277E+03  0.30968007281E+03  0.50400000000E-02 0. -1.
         -1   -1    0    0  501    0 -0.00000000000E+00 -0.00000000000E+00 -0.15402295528E+01  0.15402377988E+01  0.50400000000E-02 0. -1.
          2    1    1    2    0  502 -0.20099576419E+02 -0.73036088254E+01  0.12249058123E+03  0.12434338813E+03  0.25500000000E-02 0. -1.
         -2    1    1    2  502    0  0.20099576419E+02  0.73036088254E+01  0.18564926198E+03  0.18687692248E+03  0.25500000000E-02 0. -1.
<mgrwt>
<rscale>  0 0.43679729E+02</rscale>
<asrwt>0</asrwt>
<pdfrwt beam="1">  1        1 0.47643106E-01 0.43679729E+02</pdfrwt>
<pdfrwt beam="2">  1       -1 0.23695894E-03 0.43679729E+02</pdfrwt>
<totfact> 0.84772541E+05</totfact>
</mgrwt>
</event>
<event>
 4    1  0.2051373E-002  0.4375963E+02  0.7818608E-02  0.1482237E+00
          1   -1    0    0    0  501  0.00000000000E+00  0.00000000000E+00  0.23359564065E+03  0.23359564070E+03  0.50400000000E-02 0. -1.
         -1   -1    0    0  501    0 -0.00000000000E+00 -0.00000000000E+00 -0.20493775914E+01  0.20493837888E+01  0.50400000000E-02 0. -1.
          2    1    1    2    0  502 -0.16429657331E+01 -0.20793362282E+02  0.15135609530E+03  0.15278655322E+03  0.25500000000E-02 0.  1.
         -2    1    1    2  502    0  0.16429657331E+01  0.20793362282E+02  0.80190167755E+02  0.82858471278E+02  0.25500000000E-02 0.  1.
<mgrwt>
<rscale>  0 0.43759635E+02</rscale>
<asrwt>0</asrwt>
<pdfrwt beam="1">  1        1 0.35937781E-01 0.43759635E+02</pdfrwt>
<pdfrwt beam="2">  1       -1 0.31528943E-03 0.43759635E+02</pdfrwt>
<totfact> 0.80377143E+05</totfact>
</mgrwt>
</event>
<event>
 4    1  0.2051373E-002  0.4142965E+02  0.7818608E-02  0.1497947E+00
          1   -1    0    0    0  501  0.00000000000E+00  0.00000000000E+00  0.25216534902E+03  0.25216534907E+03  0.50400000000E-02 0. -1.
         -1   -1    0    0  501    0 -0.00000000000E+00 -0.00000000000E+00 -0.17016736044E+01  0.17016810681E+01  0.50400000000E-02 0. -1.
          2    1    1    2    0  502 -0.19350478979E+02 -0.73561711136E+01  0.12068836759E+03  0.12245095495E+03  0.25500000000E-02 0. -1.
         -2    1    1    2  502    0  0.19350478979E+02  0.73561711136E+01  0.12977530782E+03  0.13141607518E+03  0.25500000000E-02 0. -1.
<mgrwt>
<rscale>  0 0.41429655E+02</rscale>
<asrwt>0</asrwt>
<pdfrwt beam="1">  1        1 0.38794672E-01 0.41429655E+02</pdfrwt>
<pdfrwt beam="2">  1       -1 0.26179650E-03 0.41429655E+02</pdfrwt>
<totfact> 0.93123026E+05</totfact>
</mgrwt>
</event>
<event>
 4    1  0.2051373E-002  0.7097240E+02  0.7818608E-02  0.1356817E+00
         -1   -1    0    0  501    0 -0.00000000000E+00  0.00000000000E+00  0.22147684147E+03  0.22147684153E+03  0.50400000000E-02 0.  1.
          1   -1    0    0    0  501  0.00000000000E+00 -0.00000000000E+00 -0.56857871664E+01  0.56857894002E+01  0.50400000000E-02 0.  1.
          2    1    1    2    0  502 -0.25500749640E+02 -0.22059620062E+01  0.18656523464E+03  0.18831288135E+03  0.25500000000E-02 0. -1.
         -2    1    1    2  502    0  0.25500749640E+02  0.22059620062E+01  0.29225819668E+02  0.38849749579E+02  0.25500000000E-02 0. -1.
<mgrwt>
<rscale>  0 0.70972401E+02</rscale>
<asrwt>0</asrwt>
<pdfrwt beam="2">  1        1 0.87473684E-03 0.70972401E+02</pdfrwt>
<pdfrwt beam="1">  1       -1 0.34073353E-01 0.70972401E+02</pdfrwt>
<totfact> 0.12870564E+05</totfact>
</mgrwt>
</event>
<event>
 4    1  0.2051373E-002  0.4547240E+02  0.7818608E-02  0.1471414E+00
          1   -1    0    0    0  501  0.00000000000E+00  0.00000000000E+00  0.26328785692E+03  0.26328785697E+03  0.50400000000E-02 0. -1.
         -1   -1    0    0  501    0 -0.00000000000E+00 -0.00000000000E+00 -0.19633788764E+01  0.19633853452E+01  0.50400000000E-02 0. -1.
          2    1    1    2    0  502 -0.15235290845E+02  0.14951038004E+02  0.17632834231E+03  0.17761568606E+03  0.25500000000E-02 0. -1.
         -2    1    1    2  502    0  0.15235290845E+02 -0.14951038004E+02  0.84996135727E+02  0.87635556251E+02  0.25500000000E-02 0. -1.
<mgrwt>
<rscale>  0 0.45472395E+02</rscale>
<asrwt>0</asrwt>
<pdfrwt beam="1">  1        1 0.40505841E-01 0.45472395E+02</pdfrwt>
<pdfrwt beam="2">  1       -1 0.30205867E-03 0.45472395E+02</pdfrwt>
<totfact> 0.74657327E+05</totfact>
</mgrwt>
</event>
<event>
 4    1  0.2051373E-002  0.9569667E+02  0.7818608E-02  0.1289615E+00
         -1   -1    0    0  501    0 -0.00000000000E+00  0.00000000000E+00  0.89875064678E+02  0.89875064819E+02  0.50400000000E-02 0.  1.
          1   -1    0    0    0  501  0.00000000000E+00 -0.00000000000E+00 -0.25473840035E+02  0.25473840534E+02  0.50400000000E-02 0.  1.
          2    1    1    2    0  502 -0.66786395940E+01 -0.37527329093E+02  0.67063615276E+02  0.77139050786E+02  0.25500000000E-02 0. -1.
         -2    1    1    2  502    0  0.66786395940E+01  0.37527329093E+02 -0.26623906336E+01  0.38209854567E+02  0.25500000000E-02 0. -1.
<mgrwt>
<rscale>  0 0.95696668E+02</rscale>
<asrwt>0</asrwt>
<pdfrwt beam="2">  1        1 0.39190525E-02 0.95696668E+02</pdfrwt>
<pdfrwt beam="1">  1       -1 0.13826933E-01 0.95696668E+02</pdfrwt>
<totfact> 0.73255165E+04</totfact>
</mgrwt>
</event>
<event>
 4    1  0.2051373E-002  0.8933433E+02  0.7818608E-02  0.1304472E+00
         -1   -1    0    0  501    0 -0.00000000000E+00  0.00000000000E+00  0.22255096293E+01  0.22255153362E+01  0.50400000000E-02 0.  1.
          1   -1    0    0    0  501  0.00000000000E+00 -0.00000000000E+00 -0.89649257470E+03  0.89649257472E+03  0.50400000000E-02 0.  1.
          2    1    1    2    0  502 -0.17480802290E+02  0.29096727138E+02 -0.15504941270E+03  0.15872151198E+03  0.25500000000E-02 0.  1.
         -2    1    1    2  502    0  0.17480802290E+02 -0.29096727138E+02 -0.73921765237E+03  0.73999657808E+03  0.25500000000E-02 0.  1.
<mgrwt>
<rscale>  0 0.89334326E+02</rscale>
<asrwt>0</asrwt>
<pdfrwt beam="2">  1        1 0.13792165E+00 0.89334326E+02</pdfrwt>
<pdfrwt beam="1">  1       -1 0.34238725E-03 0.89334326E+02</pdfrwt>
<totfact> 0.14698427E+05</totfact>
</mgrwt>
</event>
<event>
 4    1  0.2051373E-002  0.9899910E+02  0.7818608E-02  0.1282415E+00
         -1   -1    0    0  501    0 -0.00000000000E+00  0.00000000000E+00  0.30034228547E+02  0.30034228970E+02  0.50400000000E-02 0. -1.
          1   -1    0    0    0  501  0.00000000000E+00 -0.00000000000E+00 -0.81580428838E+02  0.81580428993E+02  0.50400000000E-02 0. -1.
          2    1    1    2    0  502 -0.11710773784E+02 -0.43967923627E+02 -0.47747444483E+02  0.65955583478E+02  0.25500000000E-02 0. -1.
         -2    1    1    2  502    0  0.11710773784E+02  0.43967923627E+02 -0.37987558074E+01  0.45659074486E+02  0.25500000000E-02 0. -1.
<mgrwt>
<rscale>  0 0.98999097E+02</rscale>
<asrwt>0</asrwt>
<pdfrwt beam="2">  1        1 0.12550835E-01 0.98999097E+02</pdfrwt>
<pdfrwt beam="1">  1       -1 0.46206506E-02 0.98999097E+02</pdfrwt>
<totfact> 0.80513653E+04</totfact>
</mgrwt>
</event>
<event>
 4    1  0.2051373E-002  0.5393993E+02  0.7818608E-02  0.1425180E+00
         -1   -1    0    0  501    0 -0.00000000000E+00  0.00000000000E+00  0.49336060614E+02  0.49336060872E+02  0.50400000000E-02 0.  1.
          1   -1    0    0    0  501  0.00000000000E+00 -0.00000000000E+00 -0.14743354525E+02  0.14743355386E+02  0.50400000000E-02 0.  1.
          2    1    1    2    0  502  0.18752667332E+02 -0.19379942612E+02  0.17731798420E+02  0.32274779463E+02  0.25500000000E-02 0. -1.
         -2    1    1    2  502    0 -0.18752667332E+02  0.19379942612E+02  0.16860907670E+02  0.31804636795E+02  0.25500000000E-02 0. -1.
<mgrwt>
<rscale>  0 0.53939932E+02</rscale>
<asrwt>0</asrwt>
<pdfrwt beam="2">  1        1 0.22682085E-02 0.53939932E+02</pdfrwt>
<pdfrwt beam="1">  1       -1 0.75901632E-02 0.53939932E+02</pdfrwt>
<totfact> 0.33952847E+05</totfact>
</mgrwt>
</event>
<event>
 4    1  0.2051373E-002  0.6348768E+02  0.7818608E-02  0.1383752E+00
         -1   -1    0    0  501    0 -0.00000000000E+00  0.00000000000E+00  0.85656478309E+03  0.85656478311E+03  0.50400000000E-02 0.  1.
          1   -1    0    0    0  501  0.00000000000E+00 -0.00000000000E+00 -0.11764046520E+01  0.11764154483E+01  0.50400000000E-02 0.  1.
          2    1    1    2    0  502 -0.15774620473E+02 -0.24098555333E+02  0.24739677365E+03  0.24906774708E+03  0.25500000000E-02 0. -1.
         -2    1    1    2  502    0  0.15774620473E+02  0.24098555333E+02  0.60799160479E+03  0.60867345147E+03  0.25500000000E-02 0. -1.
<mgrwt>
<rscale>  0 0.63487682E+02</rscale>
<asrwt>0</asrwt>
<pdfrwt beam="2">  1        1 0.18098591E-03 0.63487682E+02</pdfrwt>
<pdfrwt beam="1">  1       -1 0.13177938E+00 0.63487682E+02</pdfrwt>
<totfact> 0.77769475E+04</totfact>
</mgrwt>
</event>
<event>
 4    1  0.2051373E-002  0.1049317E+03  0.7818608E-02  0.1270254E+00
         -1   -1    0    0  501    0 -0.00000000000E+00  0.00000000000E+00  0.23661428800E+01  0.23661482477E+01  0.50400000000E-02 0.  1.
          1   -1    0    0    0  501  0.00000000000E+00 -0.00000000000E+00 -0.11633541544E+04  0.11633541544E+04  0.50400000000E-02 0.  1.
          2    1    1    2    0  502 -0.45690669325E+02  0.25256541518E+02 -0.52262399338E+03  0.52522506473E+03  0.25500000000E-02 0. -1.
         -2    1    1    2  502    0  0.45690669325E+02 -0.25256541518E+02 -0.63836401811E+03  0.64049523790E+03  0.25500000000E-02 0. -1.
<mgrwt>
<rscale>  0 0.10493170E+03</rscale>
<asrwt>0</asrwt>
<pdfrwt beam="2">  1        1 0.17897711E+00 0.10493170E+03</pdfrwt>
<pdfrwt beam="1">  1       -1 0.36402332E-03 0.10493170E+03</pdfrwt>
<totfact> 0.88813171E+04</totfact>
</mgrwt>
</event>
<event>
 4    1  0.2051373E-002  0.4728414E+02  0.7818608E-02  0.1460566E+00
         -1   -1    0    0  501    0 -0.00000000000E+00  0.00000000000E+00  0.14724499322E+01  0.14724585578E+01  0.50400000000E-02 0.  1.
          1   -1    0    0    0  501  0.00000000000E+00 -0.00000000000E+00 -0.37960255419E+03  0.37960255422E+03  0.50400000000E-02 0.  1.
          2    1    1    2    0  502  0.92719768057E+01  0.19089210267E+02 -0.10508624221E+03  0.10720767609E+03  0.25500000000E-02 0. -1.
         -2    1    1    2  502    0 -0.92719768057E+01 -0.19089210267E+02 -0.27304386204E+03  0.27386733670E+03  0.25500000000E-02 0. -1.
<mgrwt>
<rscale>  0 0.47284137E+02</rscale>
<asrwt>0</asrwt>
<pdfrwt beam="2">  1        1 0.58400316E-01 0.47284137E+02</pdfrwt>
<pdfrwt beam="1">  1       -1 0.22653173E-03 0.47284137E+02</pdfrwt>
<totfact> 0.72095362E+05</totfact>
</mgrwt>
</event>
<event>
 4    1  0.2051373E-002  0.1316771E+03  0.7818608E-02  0.1224988E+00
          1   -1    0    0    0  501  0.00000000000E+00  0.00000000000E+00  0.16095719275E+02  0.16095720064E+02  0.50400000000E-02 0. -1.
         -1   -1    0    0  501    0 -0.00000000000E+00 -0.00000000000E+00 -0.26930865601E+03  0.26930865606E+03  0.50400000000E-02 0. -1.
          2    1    1    2    0  502  0.41750120309E+02  0.46448932811E+02 -0.17176767565E+03  0.18276955520E+03  0.25500000000E-02 0.  1.
         -2    1    1    2  502    0 -0.41750120309E+02 -0.46448932811E+02 -0.81445261090E+02  0.10263482092E+03  0.25500000000E-02 0.  1.
<mgrwt>
<rscale>  0 0.13167713E+03</rscale>
<asrwt>0</asrwt>
<pdfrwt beam="1">  1        1 0.24762648E-02 0.13167713E+03</pdfrwt>
<pdfrwt beam="2">  1       -1 0.41432098E-01 0.13167713E+03</pdfrwt>
<totfact> 0.23898444E+04</totfact>
</mgrwt>
</event>
<event>
 4    1  0.2051373E-002  0.4288252E+02  0.7818608E-02  0.1488011E+00
         -1   -1    0    0  501    0 -0.00000000000E+00  0.00000000000E+00  0.50155510227E+02  0.50155510480E+02  0.50400000000E-02 0. -1.
          1   -1    0    0    0  501  0.00000000000E+00 -0.00000000000E+00 -0.91660428688E+01  0.91660442545E+01  0.50400000000E-02 0. -1.
          2    1    1    2    0  502  0.19303120045E+02  0.79829928362E+01  0.13804552379E+02  0.25038056853E+02  0.25500000000E-02 0. -1.
         -2    1    1    2  502    0 -0.19303120045E+02 -0.79829928362E+01  0.27184914979E+02  0.34283497882E+02  0.25500000000E-02 0. -1.
<mgrwt>
<rscale>  0 0.42882519E+02</rscale>
<asrwt>0</asrwt>
<pdfrwt beam="2">  1        1 0.14101605E-02 0.42882519E+02</pdfrwt>
<pdfrwt beam="1">  1       -1 0.77162326E-02 0.42882519E+02</pdfrwt>
<totfact> 0.59447865E+05</totfact>
</mgrwt>
</event>
<event>
 4    1  0.2051373E-002  0.5913011E+02  0.7818608E-02  0.1401519E+00
          1   -1    0    0    0  501  0.00000000000E+00  0.00000000000E+00  0.83425422910E+03  0.83425422912E+03  0.50400000000E-02 0. -1.
         -1   -1    0    0  501    0 -0.00000000000E+00 -0.00000000000E+00 -0.10477469971E+01  0.10477591190E+01  0.50400000000E-02 0. -1.
          2    1    1    2    0  502  0.25591595329E+02  0.69510701923E+01  0.60124773184E+03  0.60183227080E+03  0.25500000000E-02 0.  1.
         -2    1    1    2  502    0 -0.25591595329E+02 -0.69510701923E+01  0.23195875027E+03  0.23346971744E+03  0.25500000000E-02 0.  1.
<mgrwt>
<rscale>  0 0.59130108E+02</rscale>
<asrwt>0</asrwt>
<pdfrwt beam="1">  1        1 0.12834744E+00 0.59130108E+02</pdfrwt>
<pdfrwt beam="2">  1       -1 0.16119199E-03 0.59130108E+02</pdfrwt>
<totfact> 0.43128707E+05</totfact>
</mgrwt>
</event>
<event>
 4    1  0.2051373E-002  0.4288324E+02  0.7818608E-02  0.1488006E+00
         -1   -1    0    0  501    0 -0.00000000000E+00  0.00000000000E+00  0.26341516525E+03  0.26341516530E+03  0.50400000000E-02 0.  1.
          1   -1    0    0    0  501  0.00000000000E+00 -0.00000000000E+00 -0.17453138105E+01  0.17453210876E+01  0.50400000000E-02 0.  1.
          2    1    1    2    0  502 -0.10173843796E+02  0.18834053024E+02  0.12322558236E+03  0.12507107102E+03  0.25500000000E-02 0. -1.
         -2    1    1    2  502    0  0.10173843796E+02 -0.18834053024E+02  0.13844426908E+03  0.14008941537E+03  0.25500000000E-02 0. -1.
<mgrwt>
<rscale>  0 0.42883241E+02</rscale>
<asrwt>0</asrwt>
<pdfrwt beam="2">  1        1 0.26851050E-03 0.42883241E+02</pdfrwt>
<pdfrwt beam="1">  1       -1 0.40525392E-01 0.42883241E+02</pdfrwt>
<totfact> 0.42914917E+05</totfact>
</mgrwt>
</event>
<event>
 4    1  0.2051373E-002  0.6115933E+02  0.7818608E-02  0.1393030E+00
          1   -1    0    0    0  501  0.00000000000E+00  0.00000000000E+00  0.74191244935E+03  0.74191244937E+03  0.50400000000E-02 0. -1.
         -1   -1    0    0  501    0 -0.00000000000E+00 -0.00000000000E+00 -0.12604077133E+01  0.12604177900E+01  0.50400000000E-02 0. -1.
          2    1    1    2    0  502 -0.95271436524E+01 -0.26070057713E+02  0.21437940422E+03  0.21616878437E+03  0.25500000000E-02 0. -1.
         -2    1    1    2  502    0  0.95271436524E+01  0.26070057713E+02  0.52627263742E+03  0.52700408279E+03  0.25500000000E-02 0. -1.
<mgrwt>
<rscale>  0 0.61159330E+02</rscale>
<asrwt>0</asrwt>
<pdfrwt beam="1">  1        1 0.11414019E+00 0.61159330E+02</pdfrwt>
<pdfrwt beam="2">  1       -1 0.19390998E-03 0.61159330E+02</pdfrwt>
<totfact> 0.39963277E+05</totfact>
</mgrwt>
</event>
<event>
 4    1  0.2051373E-002  0.4842947E+02  0.7818608E-02  0.1454001E+00
         -1   -1    0    0  501    0 -0.00000000000E+00  0.00000000000E+00  0.13828399166E+01  0.13828491011E+01  0.50400000000E-02 0.  1.
          1   -1    0    0    0  501  0.00000000000E+00 -0.00000000000E+00 -0.42401972261E+03  0.42401972264E+03  0.50400000000E-02 0.  1.
          2    1    1    2    0  502 -0.57313710683E+01 -0.19604137833E+02 -0.32557158219E+03  0.32621162759E+03  0.25500000000E-02 0. -1.
         -2    1    1    2  502    0  0.57313710683E+01  0.19604137833E+02 -0.97065300497E+02  0.99190944151E+02  0.25500000000E-02 0. -1.
<mgrwt>
<rscale>  0 0.48429469E+02</rscale>
<asrwt>0</asrwt>
<pdfrwt beam="2">  1        1 0.65233700E-01 0.48429469E+02</pdfrwt>
<pdfrwt beam="1">  1       -1 0.21274565E-03 0.48429469E+02</pdfrwt>
<totfact> 0.69081974E+05</totfact>
</mgrwt>
</event>
<event>
 4    1  0.2051373E-002  0.5671690E+02  0.7818608E-02  0.1412150E+00
          1   -1    0    0    0  501  0.00000000000E+00  0.00000000000E+00  0.88173740166E+03  0.88173740167E+03  0.50400000000E-02 0.  1.
         -1   -1    0    0  501    0 -0.00000000000E+00 -0.00000000000E+00 -0.91205797962E+00  0.91207190495E+00  0.50400000000E-02 0.  1.
          2    1    1    2    0  502 -0.21348039209E+02 -0.12624611565E+02  0.22641893693E+03  0.22777325260E+03  0.25500000000E-02 0. -1.
         -2    1    1    2  502    0  0.21348039209E+02  0.12624611565E+02  0.65440640675E+03  0.65487622098E+03  0.25500000000E-02 0. -1.
<mgrwt>
<rscale>  0 0.56716903E+02</rscale>
<asrwt>0</asrwt>
<pdfrwt beam="1">  1        1 0.13565242E+00 0.56716903E+02</pdfrwt>
<pdfrwt beam="2">  1       -1 0.14031716E-03 0.56716903E+02</pdfrwt>
<totfact> 0.47547154E+05</totfact>
</mgrwt>
</event>
<event>
 4    1  0.2051373E-002  0.4579944E+02  0.7818608E-02  0.1469412E+00
          1   -1    0    0    0  501  0.00000000000E+00  0.00000000000E+00  0.80232377004E+02  0.80232377163E+02  0.50400000000E-02 0.  1.
         -1   -1    0    0  501    0 -0.00000000000E+00 -0.00000000000E+00 -0.65359777285E+01  0.65359796717E+01  0.50400000000E-02 0.  1.
          2    1    1    2    0  502 -0.14825988648E+02  0.17352417550E+02  0.40382793296E+02  0.46386273132E+02  0.25500000000E-02 0. -1.
         -2    1    1    2  502    0  0.14825988648E+02 -0.17352417550E+02  0.33313605980E+02  0.40382083702E+02  0.25500000000E-02 0. -1.
<mgrwt>
<rscale>  0 0.45799438E+02</rscale>
<asrwt>0</asrwt>
<pdfrwt beam="1">  1        1 0.12343442E-01 0.45799438E+02</pdfrwt>
<pdfrwt beam="2">  1       -1 0.10055352E-02 0.45799438E+02</pdfrwt>
<totfact> 0.61233630E+05</totfact>
</mgrwt>
</event>
<event>
 4    1  0.2051373E-002  0.4202455E+02  0.7818608E-02  0.1493820E+00
          1   -1    0    0    0  501  0.00000000000E+00  0.00000000000E+00  0.17906488937E+04  0.17906488937E+04  0.50400000000E-02 0.  1.
         -1   -1    0    0  501    0 -0.00000000000E+00 -0.00000000000E+00 -0.24654163227E+00  0.24659314274E+00  0.50400000000E-02 0.  1.
          2    1    1    2    0  502 -0.20251233890E+02  0.20380996114E+01  0.67274478195E+03  0.67305260416E+03  0.25500000000E-02 0. -1.
         -2    1    1    2  502    0  0.20251233890E+02 -0.20380996114E+01  0.11176575701E+04  0.11178428827E+04  0.25500000000E-02 0. -1.
<mgrwt>
<rscale>  0 0.42024547E+02</rscale>
<asrwt>0</asrwt>
<pdfrwt beam="1">  1        1 0.27548434E+00 0.42024547E+02</pdfrwt>
<pdfrwt beam="2">  1       -1 0.37933460E-04 0.42024547E+02</pdfrwt>
<totfact> 0.67028298E+05</totfact>
</mgrwt>
</event>
<event>
 4    1  0.2051373E-002  0.1400769E+03  0.7818608E-02  0.1213226E+00
          1   -1    0    0    0  501  0.00000000000E+00  0.00000000000E+00  0.66026894630E+02  0.66026894823E+02  0.50400000000E-02 0.  1.
         -1   -1    0    0  501    0 -0.00000000000E+00 -0.00000000000E+00 -0.74293708884E+02  0.74293709055E+02  0.50400000000E-02 0.  1.
          2    1    1    2    0  502 -0.19172640716E+02  0.39497033082E+02  0.50530552584E+02  0.66939842585E+02  0.25500000000E-02 0. -1.
         -2    1    1    2  502    0  0.19172640716E+02 -0.39497033082E+02 -0.58797366838E+02  0.73380761293E+02  0.25500000000E-02 0. -1.
<mgrwt>
<rscale>  0 0.14007688E+03</rscale>
<asrwt>0</asrwt>
<pdfrwt beam="1">  1        1 0.10157984E-01 0.14007688E+03</pdfrwt>
<pdfrwt beam="2">  1       -1 0.11429801E-01 0.14007688E+03</pdfrwt>
<totfact> 0.28618566E+04</totfact>
</mgrwt>
</event>
<event>
 4    1  0.2051373E-002  0.4713099E+02  0.7818608E-02  0.1461460E+00
          1   -1    0    0    0  501  0.00000000000E+00  0.00000000000E+00  0.25313696166E+03  0.25313696171E+03  0.50400000000E-02 0.  1.
         -1   -1    0    0  501    0 -0.00000000000E+00 -0.00000000000E+00 -0.21937999662E+01  0.21938057556E+01  0.50400000000E-02 0.  1.
          2    1    1    2    0  502  0.13613835263E+02 -0.16592909322E+02  0.72759995789E+02  0.75859594938E+02  0.25500000000E-02 0. -1.
         -2    1    1    2  502    0 -0.13613835263E+02  0.16592909322E+02  0.17818316591E+03  0.17947117253E+03  0.25500000000E-02 0. -1.
<mgrwt>
<rscale>  0 0.47130992E+02</rscale>
<asrwt>0</asrwt>
<pdfrwt beam="1">  1        1 0.38944108E-01 0.47130992E+02</pdfrwt>
<pdfrwt beam="2">  1       -1 0.33750848E-03 0.47130992E+02</pdfrwt>
<totfact> 0.67854323E+05</totfact>
</mgrwt>
</event>
<event>
 4    1  0.2051373E-002  0.6391923E+02  0.7818608E-02  0.1382084E+00
          1   -1    0    0    0  501  0.00000000000E+00  0.00000000000E+00  0.54110160079E+03  0.54110160082E+03  0.50400000000E-02 0.  1.
         -1   -1    0    0  501    0 -0.00000000000E+00 -0.00000000000E+00 -0.18876587807E+01  0.18876655090E+01  0.50400000000E-02 0.  1.
          2    1    1    2    0  502  0.82290347988E+01 -0.20877970518E+02  0.76301090330E+02  0.79532779775E+02  0.25500000000E-02 0.  1.
         -2    1    1    2  502    0 -0.82290347988E+01  0.20877970518E+02  0.46291285168E+03  0.46345648655E+03  0.25500000000E-02 0.  1.
<mgrwt>
<rscale>  0 0.63919231E+02</rscale>
<asrwt>0</asrwt>
<pdfrwt beam="1">  1        1 0.83246295E-01 0.63919231E+02</pdfrwt>
<pdfrwt beam="2">  1       -1 0.29040993E-03 0.63919231E+02</pdfrwt>
<totfact> 0.35379704E+05</totfact>
</mgrwt>
</event>
<event>
 4    1  0.2051373E-002  0.1660931E+03  0.7818608E-02  0.1181984E+00
          1   -1    0    0    0  501  0.00000000000E+00  0.00000000000E+00  0.54492697607E+01  0.54492720914E+01  0.50400000000E-02 0.  1.
         -1   -1    0    0  501    0 -0.00000000000E+00 -0.00000000000E+00 -0.12656241153E+04  0.12656241154E+04  0.50400000000E-02 0.  1.
          2    1    1    2    0  502  0.34634255684E+02  0.55879556603E+02 -0.10183987236E+04  0.10205185039E+04  0.25500000000E-02 0.  1.
         -2    1    1    2  502    0 -0.34634255684E+02 -0.55879556603E+02 -0.24177612194E+03  0.25055488353E+03  0.25500000000E-02 0.  1.
<mgrwt>
<rscale>  0 0.16609309E+03</rscale>
<asrwt>0</asrwt>
<pdfrwt beam="1">  1        1 0.83835038E-03 0.16609309E+03</pdfrwt>
<pdfrwt beam="2">  1       -1 0.19471117E+00 0.16609309E+03</pdfrwt>
<totfact> 0.36742151E+03</totfact>
</mgrwt>
</event>
<event>
 4    1  0.2051373E-002  0.4500875E+02  0.7818608E-02  0.1474287E+00
         -1   -1    0    0  501    0 -0.00000000000E+00  0.00000000000E+00  0.80895185921E+00  0.80896755938E+00  0.50400000000E-02 0.  1.
          1   -1    0    0    0  501  0.00000000000E+00 -0.00000000000E+00 -0.62604705188E+03  0.62604705190E+03  0.50400000000E-02 0.  1.
          2    1    1    2    0  502 -0.18909569893E+02  0.66144616371E+01 -0.45541688440E+03  0.45585728198E+03  0.25500000000E-02 0. -1.
         -2    1    1    2  502    0  0.18909569893E+02 -0.66144616371E+01 -0.16982121562E+03  0.17099873748E+03  0.25500000000E-02 0. -1.
<mgrwt>
<rscale>  0 0.45008748E+02</rscale>
<asrwt>0</asrwt>
<pdfrwt beam="2">  1        1 0.96314545E-01 0.45008748E+02</pdfrwt>
<pdfrwt beam="1">  1       -1 0.12445584E-03 0.45008748E+02</pdfrwt>
<totfact> 0.85876202E+05</totfact>
</mgrwt>
</event>
<event>
 4    1  0.2051373E-002  0.6373369E+02  0.7818608E-02  0.1382799E+00
         -1   -1    0    0  501    0 -0.00000000000E+00  0.00000000000E+00  0.10042470798E+02  0.10042472063E+02  0.50400000000E-02 0.  1.
          1   -1    0    0    0  501  0.00000000000E+00 -0.00000000000E+00 -0.10112009632E+03  0.10112009644E+03  0.50400000000E-02 0.  1.
          2    1    1    2    0  502  0.26354193830E+02  0.54061339530E+01 -0.15748366746E+02  0.31173400174E+02  0.25500000000E-02 0. -1.
         -2    1    1    2  502    0 -0.26354193830E+02 -0.54061339530E+01 -0.75329258772E+02  0.79989168331E+02  0.25500000000E-02 0. -1.
<mgrwt>
<rscale>  0 0.63733686E+02</rscale>
<asrwt>0</asrwt>
<pdfrwt beam="2">  1        1 0.15556937E-01 0.63733686E+02</pdfrwt>
<pdfrwt beam="1">  1       -1 0.15449957E-02 0.63733686E+02</pdfrwt>
<totfact> 0.27148941E+05</totfact>
</mgrwt>
</event>
<event>
 4    1  0.2051373E-002  0.5216566E+02  0.7818608E-02  0.1433999E+00
          1   -1    0    0    0  501  0.00000000000E+00  0.00000000000E+00  0.56457956756E+03  0.56457956759E+03  0.50400000000E-02 0.  1.
         -1   -1    0    0  501    0 -0.00000000000E+00 -0.00000000000E+00 -0.12049872058E+01  0.12049977460E+01  0.50400000000E-02 0.  1.
          2    1    1    2    0  502  0.20883653961E+02 -0.15554295575E+02  0.26541471170E+03  0.26668901797E+03  0.25500000000E-02 0. -1.
         -2    1    1    2  502    0 -0.20883653961E+02  0.15554295575E+02  0.29795986866E+03  0.29909554736E+03  0.25500000000E-02 0. -1.
<mgrwt>
<rscale>  0 0.52165665E+02</rscale>
<asrwt>0</asrwt>
<pdfrwt beam="1">  1        1 0.86858379E-01 0.52165665E+02</pdfrwt>
<pdfrwt beam="2">  1       -1 0.18538350E-03 0.52165665E+02</pdfrwt>
<totfact> 0.59290740E+05</totfact>
</mgrwt>
</event>
<event>
 4    1  0.2051373E-002  0.6367314E+02  0.7818608E-02  0.1383033E+00
         -1   -1    0    0  501    0 -0.00000000000E+00  0.00000000000E+00  0.37793881631E+01  0.37793915236E+01  0.50400000000E-02 0. -1.
          1   -1    0    0    0  501  0.00000000000E+00 -0.00000000000E+00 -0.26818272232E+03  0.26818272237E+03  0.50400000000E-02 0. -1.
          2    1    1    2    0  502  0.26816138220E+01 -0.26829449379E+02 -0.20450485015E+03  0.20627468131E+03  0.25500000000E-02 0.  1.
         -2    1    1    2  502    0 -0.26816138220E+01  0.26829449379E+02 -0.59898484004E+02  0.65687432581E+02  0.25500000000E-02 0.  1.
<mgrwt>
<rscale>  0 0.63673136E+02</rscale>
<asrwt>0</asrwt>
<pdfrwt beam="2">  1        1 0.41258866E-01 0.63673136E+02</pdfrwt>
<pdfrwt beam="1">  1       -1 0.58144480E-03 0.63673136E+02</pdfrwt>
<totfact> 0.32089977E+05</totfact>
</mgrwt>
</event>
<event>
 4    1  0.2051373E-002  0.4753823E+02  0.7818608E-02  0.1459091E+00
         -1   -1    0    0  501    0 -0.00000000000E+00  0.00000000000E+00  0.28583918260E+00  0.28588361252E+00  0.50400000000E-02 0.  1.
          1   -1    0    0    0  501  0.00000000000E+00 -0.00000000000E+00 -0.19763802435E+04  0.19763802435E+04  0.50400000000E-02 0.  1.
          2    1    1    2    0  502  0.15629057100E+02 -0.13353004942E+02 -0.14842352619E+04  0.14843776079E+04  0.25500000000E-02 0.  1.
         -2    1    1    2  502    0 -0.15629057100E+02  0.13353004942E+02 -0.49185914245E+03  0.49228851925E+03  0.25500000000E-02 0.  1.
<mgrwt>
<rscale>  0 0.47538230E+02</rscale>
<asrwt>0</asrwt>
<pdfrwt beam="2">  1        1 0.30404756E+00 0.47538230E+02</pdfrwt>
<pdfrwt beam="1">  1       -1 0.43980260E-04 0.47538230E+02</pdfrwt>
<totfact> 0.43456281E+05</totfact>
</mgrwt>
</event>
<event>
 4    1  0.2051373E-002  0.6018971E+02  0.7818608E-02  0.1397037E+00
          1   -1    0    0    0  501  0.00000000000E+00  0.00000000000E+00  0.49647449618E+00  0.49650007750E+00  0.50400000000E-02 0.  1.
         -1   -1    0    0  501    0 -0.00000000000E+00 -0.00000000000E+00 -0.18242165640E+04  0.18242165640E+04  0.50400000000E-02 0.  1.
          2    1    1    2    0  502  0.26133007399E+02 -0.14881211453E+02 -0.94663516826E+03  0.94711273158E+03  0.25500000000E-02 0.  1.
         -2    1    1    2  502    0 -0.26133007399E+02  0.14881211453E+02 -0.87708492120E+03  0.87760033246E+03  0.25500000000E-02 0.  1.
<mgrwt>
<rscale>  0 0.60189712E+02</rscale>
<asrwt>0</asrwt>
<pdfrwt beam="1">  1        1 0.76384121E-04 0.60189712E+02</pdfrwt>
<pdfrwt beam="2">  1       -1 0.28064334E+00 0.60189712E+02</pdfrwt>
<totfact> 0.26334719E+04</totfact>
</mgrwt>
</event>
<event>
 4    1  0.2051373E-002  0.6304726E+02  0.7818608E-02  0.1385471E+00
         -1   -1    0    0  501    0 -0.00000000000E+00  0.00000000000E+00  0.84665573333E+02  0.84665573483E+02  0.50400000000E-02 0. -1.
          1   -1    0    0    0  501  0.00000000000E+00 -0.00000000000E+00 -0.11737227308E+02  0.11737228390E+02  0.50400000000E-02 0. -1.
          2    1    1    2    0  502  0.25086573053E+02 -0.27175934711E+01  0.75727908304E+01  0.26345182279E+02  0.25500000000E-02 0. -1.
         -2    1    1    2  502    0 -0.25086573053E+02  0.27175934711E+01  0.65355555195E+02  0.70057619594E+02  0.25500000000E-02 0. -1.
<mgrwt>
<rscale>  0 0.63047257E+02</rscale>
<asrwt>0</asrwt>
<pdfrwt beam="2">  1        1 0.18057274E-02 0.63047257E+02</pdfrwt>
<pdfrwt beam="1">  1       -1 0.13025473E-01 0.63047257E+02</pdfrwt>
<totfact> 0.21427613E+05</totfact>
</mgrwt>
</event>
<event>
 4    1  0.2051373E-002  0.8925796E+02  0.7818608E-02  0.1304659E+00
         -1   -1    0    0  501    0 -0.00000000000E+00  0.00000000000E+00  0.45338618876E+02  0.45338619157E+02  0.50400000000E-02 0.  1.
          1   -1    0    0    0  501  0.00000000000E+00 -0.00000000000E+00 -0.43930445500E+02  0.43930445789E+02  0.50400000000E-02 0.  1.
          2    1    1    2    0  502  0.18487314496E+02  0.29412890353E+02 -0.27314517376E+02  0.44192553470E+02  0.25500000000E-02 0.  1.
         -2    1    1    2  502    0 -0.18487314496E+02 -0.29412890353E+02  0.28722690753E+02  0.45076511475E+02  0.25500000000E-02 0.  1.
<mgrwt>
<rscale>  0 0.89257958E+02</rscale>
<asrwt>0</asrwt>
<pdfrwt beam="2">  1        1 0.67585301E-02 0.89257958E+02</pdfrwt>
<pdfrwt beam="1">  1       -1 0.69751722E-02 0.89257958E+02</pdfrwt>
<totfact> 0.97610619E+04</totfact>
</mgrwt>
</event>
<event>
 4    1  0.2051373E-002  0.4163052E+02  0.7818608E-02  0.1496544E+00
          1   -1    0    0    0  501  0.00000000000E+00  0.00000000000E+00  0.71665985554E+02  0.71665985731E+02  0.50400000000E-02 0.  1.
         -1   -1    0    0  501    0 -0.00000000000E+00 -0.00000000000E+00 -0.60457536716E+01  0.60457557724E+01  0.50400000000E-02 0.  1.
          2    1    1    2    0  502  0.17851369095E+02 -0.10350955766E+02  0.27711145651E+02  0.34550271542E+02  0.25500000000E-02 0. -1.
         -2    1    1    2  502    0 -0.17851369095E+02  0.10350955766E+02  0.37909086231E+02  0.43161469961E+02  0.25500000000E-02 0. -1.
<mgrwt>
<rscale>  0 0.41630517E+02</rscale>
<asrwt>0</asrwt>
<pdfrwt beam="1">  1        1 0.11025537E-01 0.41630517E+02</pdfrwt>
<pdfrwt beam="2">  1       -1 0.93011612E-03 0.41630517E+02</pdfrwt>
<totfact> 0.76680600E+05</totfact>
</mgrwt>
</event>
<event>
 4    1  0.2051373E-002  0.8066308E+02  0.7818608E-02  0.1327180E+00
          1   -1    0    0    0  501  0.00000000000E+00  0.00000000000E+00  0.31632628328E+02  0.31632628730E+02  0.50400000000E-02 0. -1.
         -1   -1    0    0  501    0 -0.00000000000E+00 -0.00000000000E+00 -0.51422629877E+02  0.51422630124E+02  0.50400000000E-02 0. -1.
          2    1    1    2    0  502 -0.38056670698E+02 -0.13020227299E+02 -0.12948840286E+02  0.42255283395E+02  0.25500000000E-02 0.  1.
         -2    1    1    2  502    0  0.38056670698E+02  0.13020227299E+02 -0.68411612631E+01  0.40799975459E+02  0.25500000000E-02 0.  1.
<mgrwt>
<rscale>  0 0.80663076E+02</rscale>
<asrwt>0</asrwt>
<pdfrwt beam="1">  1        1 0.48665583E-02 0.80663076E+02</pdfrwt>
<pdfrwt beam="2">  1       -1 0.79111739E-02 0.80663076E+02</pdfrwt>
<totfact> 0.12362073E+05</totfact>
</mgrwt>
</event>
<event>
 4    1  0.2051373E-002  0.5453400E+02  0.7818608E-02  0.1422316E+00
         -1   -1    0    0  501    0 -0.00000000000E+00  0.00000000000E+00  0.15072257730E+01  0.15072341996E+01  0.50400000000E-02 0. -1.
          1   -1    0    0    0  501  0.00000000000E+00 -0.00000000000E+00 -0.49328192812E+03  0.49328192814E+03  0.50400000000E-02 0. -1.
          2    1    1    2    0  502 -0.15902242062E+02  0.17593097730E+02 -0.12379142803E+03  0.12604251684E+03  0.25500000000E-02 0.  1.
         -2    1    1    2  502    0  0.15902242062E+02 -0.17593097730E+02 -0.36798327431E+03  0.36874664551E+03  0.25500000000E-02 0.  1.
<mgrwt>
<rscale>  0 0.54534001E+02</rscale>
<asrwt>0</asrwt>
<pdfrwt beam="2">  1        1 0.75889399E-01 0.54534001E+02</pdfrwt>
<pdfrwt beam="1">  1       -1 0.23188193E-03 0.54534001E+02</pdfrwt>
<totfact> 0.52388211E+05</totfact>
</mgrwt>
</event>
<event>
 4    1  0.2051373E-002  0.4620432E+02  0.7818608E-02  0.1466960E+00
         -1   -1    0    0  501    0 -0.00000000000E+00  0.00000000000E+00  0.16280795076E+03  0.16280795083E+03  0.50400000000E-02 0. -1.
          1   -1    0    0    0  501  0.00000000000E+00 -0.00000000000E+00 -0.32781538279E+01  0.32781577023E+01  0.50400000000E-02 0. -1.
          2    1    1    2    0  502 -0.93865115204E+01  0.20236463937E+02  0.10135907642E+03  0.10378479392E+03  0.25500000000E-02 0.  1.
         -2    1    1    2  502    0  0.93865115204E+01 -0.20236463937E+02  0.58170720511E+02  0.62301314612E+02  0.25500000000E-02 0.  1.
<mgrwt>
<rscale>  0 0.46204322E+02</rscale>
<asrwt>0</asrwt>
<pdfrwt beam="2">  1        1 0.50433168E-03 0.46204322E+02</pdfrwt>
<pdfrwt beam="1">  1       -1 0.25047376E-01 0.46204322E+02</pdfrwt>
<totfact> 0.41057331E+05</totfact>
</mgrwt>
</event>
<event>
 4    1  0.2051373E-002  0.4278841E+02  0.7818608E-02  0.1488640E+00
          1   -1    0    0    0  501  0.00000000000E+00  0.00000000000E+00  0.22385189042E+02  0.22385189610E+02  0.50400000000E-02 0.  1.
         -1   -1    0    0  501    0 -0.00000000000E+00 -0.00000000000E+00 -0.20447094202E+02  0.20447094823E+02  0.50400000000E-02 0.  1.
          2    1    1    2    0  502  0.20100569232E+02  0.73238487014E+01  0.11703624748E+01  0.21425251412E+02  0.25500000000E-02 0.  1.
         -2    1    1    2  502    0 -0.20100569232E+02 -0.73238487014E+01  0.76773236559E+00  0.21407033020E+02  0.25500000000E-02 0.  1.
<mgrwt>
<rscale>  0 0.42788414E+02</rscale>
<asrwt>0</asrwt>
<pdfrwt beam="1">  1        1 0.34438753E-02 0.42788414E+02</pdfrwt>
<pdfrwt beam="2">  1       -1 0.31457069E-02 0.42788414E+02</pdfrwt>
<totfact> 0.64704667E+05</totfact>
</mgrwt>
</event>
<event>
 4    1  0.2051373E-002  0.5233818E+02  0.7818608E-02  0.1433123E+00
         -1   -1    0    0  501    0 -0.00000000000E+00  0.00000000000E+00  0.10926316233E+03  0.10926316245E+03  0.50400000000E-02 0.  1.
          1   -1    0    0    0  501  0.00000000000E+00 -0.00000000000E+00 -0.62676310565E+01  0.62676330829E+01  0.50400000000E-02 0.  1.
          2    1    1    2    0  502 -0.48565709053E+00 -0.20559080146E+02  0.87221339385E+02  0.89612910285E+02  0.25500000000E-02 0. -1.
         -2    1    1    2  502    0  0.48565709053E+00  0.20559080146E+02  0.15774191890E+02  0.25917885245E+02  0.25500000000E-02 0. -1.
<mgrwt>
<rscale>  0 0.52338182E+02</rscale>
<asrwt>0</asrwt>
<pdfrwt beam="2">  1        1 0.96425119E-03 0.52338182E+02</pdfrwt>
<pdfrwt beam="1">  1       -1 0.16809716E-01 0.52338182E+02</pdfrwt>
<totfact> 0.32734845E+05</totfact>
</mgrwt>
</event>
<event>
 4    1  0.2051373E-002  0.2884998E+03  0.7818608E-02  0.1091135E+00
          1   -1    0    0    0  501  0.00000000000E+00  0.00000000000E+00  0.42389391129E+03  0.42389391132E+03  0.50400000000E-02 0. -1.
         -1   -1    0    0  501    0 -0.00000000000E+00 -0.00000000000E+00 -0.49087823427E+02  0.49087823685E+02  0.50400000000E-02 0. -1.
          2    1    1    2    0  502  0.13999967869E+02 -0.14141822692E+03  0.14681489855E+03  0.20432750292E+03  0.25500000000E-02 0. -1.
         -2    1    1    2  502    0 -0.13999967869E+02  0.14141822692E+03  0.22799118931E+03  0.26865423208E+03  0.25500000000E-02 0. -1.
<mgrwt>
<rscale>  0 0.28849977E+03</rscale>
<asrwt>0</asrwt>
<pdfrwt beam="1">  1        1 0.65214449E-01 0.28849977E+03</pdfrwt>
<pdfrwt beam="2">  1       -1 0.75519727E-02 0.28849977E+03</pdfrwt>
<totfact> 0.52677240E+03</totfact>
</mgrwt>
</event>
<event>
 4    1  0.2051373E-002  0.4541359E+02  0.7818608E-02  0.1471776E+00
          1   -1    0    0    0  501  0.00000000000E+00  0.00000000000E+00  0.42520418348E+03  0.42520418351E+03  0.50400000000E-02 0. -1.
         -1   -1    0    0  501    0 -0.00000000000E+00 -0.00000000000E+00 -0.12125852675E+01  0.12125957416E+01  0.50400000000E-02 0. -1.
          2    1    1    2    0  502  0.11844916638E+02  0.17053171249E+02  0.12568990466E+03  0.12739334692E+03  0.25500000000E-02 0.  1.
         -2    1    1    2  502    0 -0.11844916638E+02 -0.17053171249E+02  0.29830169355E+03  0.29902343233E+03  0.25500000000E-02 0.  1.
<mgrwt>
<rscale>  0 0.45413591E+02</rscale>
<asrwt>0</asrwt>
<pdfrwt beam="1">  1        1 0.65416183E-01 0.45413591E+02</pdfrwt>
<pdfrwt beam="2">  1       -1 0.18655195E-03 0.45413591E+02</pdfrwt>
<totfact> 0.80987465E+05</totfact>
</mgrwt>
</event>
<event>
 4    1  0.2051373E-002  0.4415860E+02  0.7818608E-02  0.1479664E+00
          1   -1    0    0    0  501  0.00000000000E+00  0.00000000000E+00  0.85368527162E+01  0.85368542039E+01  0.50400000000E-02 0. -1.
         -1   -1    0    0  501    0 -0.00000000000E+00 -0.00000000000E+00 -0.57104816715E+02  0.57104816937E+02  0.50400000000E-02 0. -1.
          2    1    1    2    0  502  0.14888276855E+02 -0.16298410813E+02 -0.24942882315E+02  0.33308352818E+02  0.25500000000E-02 0.  1.
         -2    1    1    2  502    0 -0.14888276855E+02  0.16298410813E+02 -0.23625081683E+02  0.32333318323E+02  0.25500000000E-02 0.  1.
<mgrwt>
<rscale>  0 0.44158599E+02</rscale>
<asrwt>0</asrwt>
<pdfrwt beam="1">  1        1 0.13133621E-02 0.44158599E+02</pdfrwt>
<pdfrwt beam="2">  1       -1 0.87853563E-02 0.44158599E+02</pdfrwt>
<totfact> 0.54564944E+05</totfact>
</mgrwt>
</event>
<event>
 4    1  0.2051373E-002  0.4403923E+02  0.7818608E-02  0.1480430E+00
          1   -1    0    0    0  501  0.00000000000E+00  0.00000000000E+00  0.12715270626E+04  0.12715270626E+04  0.50400000000E-02 0.  1.
         -1   -1    0    0  501    0 -0.00000000000E+00 -0.00000000000E+00 -0.38130709615E+00  0.38134040328E+00  0.50400000000E-02 0.  1.
          2    1    1    2    0  502 -0.20530278902E+02 -0.17021436473E+01  0.86016775008E+03  0.86041440477E+03  0.25500000000E-02 0.  1.
         -2    1    1    2  502    0  0.20530278902E+02  0.17021436473E+01  0.41097800542E+03  0.41149399824E+03  0.25500000000E-02 0.  1.
<mgrwt>
<rscale>  0 0.44039232E+02</rscale>
<asrwt>0</asrwt>
<pdfrwt beam="1">  1        1 0.19562204E+00 0.44039232E+02</pdfrwt>
<pdfrwt beam="2">  1       -1 0.58664448E-04 0.44039232E+02</pdfrwt>
<totfact> 0.79060748E+05</totfact>
</mgrwt>
</event>
<event>
 4    1  0.2051373E-002  0.4115339E+02  0.7818608E-02  0.1499891E+00
          1   -1    0    0    0  501  0.00000000000E+00  0.00000000000E+00  0.41222353782E+03  0.41222353785E+03  0.50400000000E-02 0. -1.
         -1   -1    0    0  501    0 -0.00000000000E+00 -0.00000000000E+00 -0.10271071863E+01  0.10271195518E+01  0.50400000000E-02 0. -1.
          2    1    1    2    0  502  0.93966932521E+01 -0.18120297921E+02  0.23170141052E+03  0.23259876759E+03  0.25500000000E-02 0. -1.
         -2    1    1    2  502    0 -0.93966932521E+01  0.18120297921E+02  0.17949502011E+03  0.18065188981E+03  0.25500000000E-02 0. -1.
<mgrwt>
<rscale>  0 0.41153387E+02</rscale>
<asrwt>0</asrwt>
<pdfrwt beam="1">  1        1 0.63419022E-01 0.41153387E+02</pdfrwt>
<pdfrwt beam="2">  1       -1 0.15801741E-03 0.41153387E+02</pdfrwt>
<totfact> 0.10256392E+06</totfact>
</mgrwt>
</event>
<event>
 4    1  0.2051373E-002  0.4606919E+02  0.7818608E-02  0.1467775E+00
          1   -1    0    0    0  501  0.00000000000E+00  0.00000000000E+00  0.15524392389E+04  0.15524392389E+04  0.50400000000E-02 0. -1.
         -1   -1    0    0  501    0 -0.00000000000E+00 -0.00000000000E+00 -0.34176137035E+00  0.34179853110E+00  0.50400000000E-02 0. -1.
          2    1    1    2    0  502  0.14542939163E+02  0.16234384574E+02  0.52485795822E+03  0.52531031651E+03  0.25500000000E-02 0.  1.
         -2    1    1    2  502    0 -0.14542939163E+02 -0.16234384574E+02  0.10272395193E+04  0.10274707210E+04  0.25500000000E-02 0.  1.
<mgrwt>
<rscale>  0 0.46069192E+02</rscale>
<asrwt>0</asrwt>
<pdfrwt beam="1">  1        1 0.23883689E+00 0.46069192E+02</pdfrwt>
<pdfrwt beam="2">  1       -1 0.52581514E-04 0.46069192E+02</pdfrwt>
<totfact> 0.61685032E+05</totfact>
</mgrwt>
</event>
<event>
 4    1  0.2051373E-002  0.5187638E+02  0.7818608E-02  0.1435476E+00
         -1   -1    0    0  501    0 -0.00000000000E+00  0.00000000000E+00  0.36139548144E+02  0.36139548496E+02  0.50400000000E-02 0.  1.
          1   -1    0    0    0  501  0.00000000000E+00 -0.00000000000E+00 -0.18616438695E+02  0.18616439377E+02  0.50400000000E-02 0.  1.
          2    1    1    2    0  502  0.25489389800E+02  0.16496005011E+01  0.39989358613E+01  0.25853852106E+02  0.25500000000E-02 0.  1.
         -2    1    1    2  502    0 -0.25489389800E+02 -0.16496005011E+01  0.13524173588E+02  0.28902135767E+02  0.25500000000E-02 0.  1.
<mgrwt>
<rscale>  0 0.51876380E+02</rscale>
<asrwt>0</asrwt>
<pdfrwt beam="2">  1        1 0.28640676E-02 0.51876380E+02</pdfrwt>
<pdfrwt beam="1">  1       -1 0.55599306E-02 0.51876380E+02</pdfrwt>
<totfact> 0.38625014E+05</totfact>
</mgrwt>
</event>
<event>
 4    1  0.2051373E-002  0.4642740E+02  0.7818608E-02  0.1465622E+00
         -1   -1    0    0  501    0 -0.00000000000E+00  0.00000000000E+00  0.77196690375E+00  0.77198335609E+00  0.50400000000E-02 0. -1.
          1   -1    0    0    0  501  0.00000000000E+00 -0.00000000000E+00 -0.69804805998E+03  0.69804806000E+03  0.50400000000E-02 0. -1.
          2    1    1    2    0  502 -0.83189165831E+01  0.21646261012E+02 -0.33277447498E+03  0.33358149857E+03  0.25500000000E-02 0.  1.
         -2    1    1    2  502    0  0.83189165831E+01 -0.21646261012E+02 -0.36450161811E+03  0.36523854479E+03  0.25500000000E-02 0.  1.
<mgrwt>
<rscale>  0 0.46427395E+02</rscale>
<asrwt>0</asrwt>
<pdfrwt beam="2">  1        1 0.10739151E+00 0.46427395E+02</pdfrwt>
<pdfrwt beam="1">  1       -1 0.11876596E-03 0.46427395E+02</pdfrwt>
<totfact> 0.79685858E+05</totfact>
</mgrwt>
</event>
<event>
 4    1  0.2051373E-002  0.5242593E+02  0.7818608E-02  0.1432679E+00
          1   -1    0    0    0  501  0.00000000000E+00  0.00000000000E+00  0.25549714103E+03  0.25549714108E+03  0.50400000000E-02 0. -1.
         -1   -1    0    0  501    0 -0.00000000000E+00 -0.00000000000E+00 -0.26893407380E+01  0.26893454606E+01  0.50400000000E-02 0. -1.
          2    1    1    2    0  502  0.23190142406E+02 -0.61731945131E+01  0.74464693631E+02  0.78236063547E+02  0.25500000000E-02 0.  1.
         -2    1    1    2  502    0 -0.23190142406E+02  0.61731945131E+01  0.17834310666E+03  0.17995042299E+03  0.25500000000E-02 0.  1.
<mgrwt>
<rscale>  0 0.52425928E+02</rscale>
<asrwt>0</asrwt>
<pdfrwt beam="1">  1        1 0.39307265E-01 0.52425928E+02</pdfrwt>
<pdfrwt beam="2">  1       -1 0.41374497E-03 0.52425928E+02</pdfrwt>
<totfact> 0.52107526E+05</totfact>
</mgrwt>
</event>
<event>
 4    1  0.2051373E-002  0.7936089E+02  0.7818608E-02  0.1330875E+00
         -1   -1    0    0  501    0 -0.00000000000E+00  0.00000000000E+00  0.41383162734E+02  0.41383163041E+02  0.50400000000E-02 0.  1.
          1   -1    0    0    0  501  0.00000000000E+00 -0.00000000000E+00 -0.38047788718E+02  0.38047789052E+02  0.50400000000E-02 0.  1.
          2    1    1    2    0  502 -0.30945001954E+02  0.19399665742E+02 -0.13857217282E+02  0.39063571959E+02  0.25500000000E-02 0.  1.
         -2    1    1    2  502    0  0.30945001954E+02 -0.19399665742E+02  0.17192591297E+02  0.40367380134E+02  0.25500000000E-02 0.  1.
<mgrwt>
<rscale>  0 0.79360894E+02</rscale>
<asrwt>0</asrwt>
<pdfrwt beam="2">  1        1 0.58535061E-02 0.79360894E+02</pdfrwt>
<pdfrwt beam="1">  1       -1 0.63666404E-02 0.79360894E+02</pdfrwt>
<totfact> 0.13265473E+05</totfact>
</mgrwt>
</event>
<event>
 4    1  0.2051373E-002  0.4692652E+02  0.7818608E-02  0.1462661E+00
          1   -1    0    0    0  501  0.00000000000E+00  0.00000000000E+00  0.46549174493E+02  0.46549174766E+02  0.50400000000E-02 0. -1.
         -1   -1    0    0  501    0 -0.00000000000E+00 -0.00000000000E+00 -0.11826730712E+02  0.11826731786E+02  0.50400000000E-02 0. -1.
          2    1    1    2    0  502  0.92106949569E+01 -0.20126375293E+02  0.27046485083E+02  0.34948823240E+02  0.25500000000E-02 0. -1.
         -2    1    1    2  502    0 -0.92106949569E+01  0.20126375293E+02  0.76759586984E+01  0.23427083311E+02  0.25500000000E-02 0. -1.
<mgrwt>
<rscale>  0 0.46926521E+02</rscale>
<asrwt>0</asrwt>
<pdfrwt beam="1">  1        1 0.71614116E-02 0.46926521E+02</pdfrwt>
<pdfrwt beam="2">  1       -1 0.18194971E-02 0.46926521E+02</pdfrwt>
<totfact> 0.54413922E+05</totfact>
</mgrwt>
</event>
<event>
 4    1  0.2051373E-002  0.4589430E+02  0.7818608E-02  0.1468835E+00
         -1   -1    0    0  501    0 -0.00000000000E+00  0.00000000000E+00  0.25133609693E+02  0.25133610198E+02  0.50400000000E-02 0. -1.
          1   -1    0    0    0  501  0.00000000000E+00 -0.00000000000E+00 -0.20950900052E+02  0.20950900658E+02  0.50400000000E-02 0. -1.
          2    1    1    2    0  502  0.17362905386E+02  0.14017968549E+02  0.74612128183E+01  0.23529632996E+02  0.25500000000E-02 0. -1.
         -2    1    1    2  502    0 -0.17362905386E+02 -0.14017968549E+02 -0.32785031778E+01  0.22554877860E+02  0.25500000000E-02 0. -1.
<mgrwt>
<rscale>  0 0.45894303E+02</rscale>
<asrwt>0</asrwt>
<pdfrwt beam="2">  1        1 0.32232155E-02 0.45894303E+02</pdfrwt>
<pdfrwt beam="1">  1       -1 0.38667093E-02 0.45894303E+02</pdfrwt>
<totfact> 0.53772284E+05</totfact>
</mgrwt>
</event>
<event>
 4    1  0.2051373E-002  0.1094904E+03  0.7818608E-02  0.1261516E+00
         -1   -1    0    0  501    0 -0.00000000000E+00  0.00000000000E+00  0.27892647675E+02  0.27892648130E+02  0.50400000000E-02 0.  1.
          1   -1    0    0    0  501  0.00000000000E+00 -0.00000000000E+00 -0.10744906125E+03  0.10744906137E+03  0.50400000000E-02 0.  1.
          2    1    1    2    0  502  0.33011986930E+02  0.15681406673E+02  0.10604891797E+02  0.38054717616E+02  0.25500000000E-02 0. -1.
         -2    1    1    2  502    0 -0.33011986930E+02 -0.15681406673E+02 -0.90161305371E+02  0.97286991880E+02  0.25500000000E-02 0. -1.
<mgrwt>
<rscale>  0 0.10949044E+03</rscale>
<asrwt>0</asrwt>
<pdfrwt beam="2">  1        1 0.16530625E-01 0.10949044E+03</pdfrwt>
<pdfrwt beam="1">  1       -1 0.42911767E-02 0.10949044E+03</pdfrwt>
<totfact> 0.63859005E+04</totfact>
</mgrwt>
</event>
<event>
 4    1  0.2051373E-002  0.4983589E+02  0.7818608E-02  0.1446229E+00
         -1   -1    0    0  501    0 -0.00000000000E+00  0.00000000000E+00  0.18698954335E+03  0.18698954341E+03  0.50400000000E-02 0. -1.
          1   -1    0    0    0  501  0.00000000000E+00 -0.00000000000E+00 -0.33205263061E+01  0.33205301310E+01  0.50400000000E-02 0. -1.
          2    1    1    2    0  502  0.24515857681E+02 -0.19004177110E+01  0.10723551782E+03  0.11001861276E+03  0.25500000000E-02 0.  1.
         -2    1    1    2  502    0 -0.24515857681E+02  0.19004177110E+01  0.76433499226E+02  0.80291460789E+02  0.25500000000E-02 0.  1.
<mgrwt>
<rscale>  0 0.49835893E+02</rscale>
<asrwt>0</asrwt>
<pdfrwt beam="2">  1        1 0.51085027E-03 0.49835893E+02</pdfrwt>
<pdfrwt beam="1">  1       -1 0.28767635E-01 0.49835893E+02</pdfrwt>
<totfact> 0.32911923E+05</totfact>
</mgrwt>
</event>
<event>
 4    1  0.2051373E-002  0.1944589E+03  0.7818608E-02  0.1154500E+00
          1   -1    0    0    0  501  0.00000000000E+00  0.00000000000E+00  0.22492514621E+03  0.22492514627E+03  0.50400000000E-02 0. -1.
         -1   -1    0    0  501    0 -0.00000000000E+00 -0.00000000000E+00 -0.42029818332E+02  0.42029818635E+02  0.50400000000E-02 0. -1.
          2    1    1    2    0  502 -0.53663918606E+02  0.20213029519E+02 -0.16343493755E+02  0.59627950804E+02  0.25500000000E-02 0. -1.
         -2    1    1    2  502    0  0.53663918606E+02 -0.20213029519E+02  0.19923882163E+03  0.20732701410E+03  0.25500000000E-02 0. -1.
<mgrwt>
<rscale>  0 0.19445887E+03</rscale>
<asrwt>0</asrwt>
<pdfrwt beam="1">  1        1 0.34603870E-01 0.19445887E+03</pdfrwt>
<pdfrwt beam="2">  1       -1 0.64661257E-02 0.19445887E+03</pdfrwt>
<totfact> 0.14535306E+04</totfact>
</mgrwt>
</event>
<event>
 4    1  0.2051373E-002  0.7014978E+02  0.7818608E-02  0.1359584E+00
          1   -1    0    0    0  501  0.00000000000E+00  0.00000000000E+00  0.20030187869E+04  0.20030187869E+04  0.50400000000E-02 0.  1.
         -1   -1    0    0  501    0 -0.00000000000E+00 -0.00000000000E+00 -0.61418662276E+00  0.61420730147E+00  0.50400000000E-02 0.  1.
          2    1    1    2    0  502  0.32780127838E+02 -0.25854558309E+01  0.65252484170E+03  0.65335280699E+03  0.25500000000E-02 0. -1.
         -2    1    1    2  502    0 -0.32780127838E+02  0.25854558309E+01  0.13498797586E+04  0.13502801872E+04  0.25500000000E-02 0. -1.
<mgrwt>
<rscale>  0 0.70149785E+02</rscale>
<asrwt>0</asrwt>
<pdfrwt beam="1">  1        1 0.30815921E+00 0.70149785E+02</pdfrwt>
<pdfrwt beam="2">  1       -1 0.94491082E-04 0.70149785E+02</pdfrwt>
<totfact> 0.15831541E+05</totfact>
</mgrwt>
</event>
<event>
 4    1  0.2051373E-002  0.4252582E+02  0.7818608E-02  0.1490406E+00
         -1   -1    0    0  501    0 -0.00000000000E+00  0.00000000000E+00  0.76312325354E+01  0.76312341997E+01  0.50400000000E-02 0.  1.
          1   -1    0    0    0  501  0.00000000000E+00 -0.00000000000E+00 -0.59244847607E+02  0.59244847821E+02  0.50400000000E-02 0.  1.
          2    1    1    2    0  502  0.14309446019E+02 -0.14211422993E+02 -0.15212284953E+02  0.25261401562E+02  0.25500000000E-02 0. -1.
         -2    1    1    2  502    0 -0.14309446019E+02  0.14211422993E+02 -0.36401330118E+02  0.41614680459E+02  0.25500000000E-02 0. -1.
<mgrwt>
<rscale>  0 0.42525817E+02</rscale>
<asrwt>0</asrwt>
<pdfrwt beam="2">  1        1 0.91145918E-02 0.42525817E+02</pdfrwt>
<pdfrwt beam="1">  1       -1 0.11740360E-02 0.42525817E+02</pdfrwt>
<totfact> 0.71321938E+05</totfact>
</mgrwt>
</event>
<event>
 4    1  0.2051373E-002  0.5423797E+02  0.7818608E-02  0.1423737E+00
          1   -1    0    0    0  501  0.00000000000E+00  0.00000000000E+00  0.60678247548E+01  0.60678268480E+01  0.50400000000E-02 0.  1.
         -1   -1    0    0  501    0 -0.00000000000E+00 -0.00000000000E+00 -0.12120312520E+03  0.12120312530E+03  0.50400000000E-02 0.  1.
          2    1    1    2    0  502  0.15823932107E+02  0.14012877648E+02 -0.17698626418E+02  0.27568078476E+02  0.25500000000E-02 0.  1.
         -2    1    1    2  502    0 -0.15823932107E+02 -0.14012877648E+02 -0.97436674024E+02  0.99702873673E+02  0.25500000000E-02 0.  1.
<mgrwt>
<rscale>  0 0.54237974E+02</rscale>
<asrwt>0</asrwt>
<pdfrwt beam="1">  1        1 0.93351176E-03 0.54237974E+02</pdfrwt>
<pdfrwt beam="2">  1       -1 0.18646633E-01 0.54237974E+02</pdfrwt>
<totfact> 0.29387344E+05</totfact>
</mgrwt>
</event>
<event>
 4    1  0.2051373E-002  0.1217767E+03  0.7818608E-02  0.1240195E+00
          1   -1    0    0    0  501  0.00000000000E+00  0.00000000000E+00  0.34500964579E+02  0.34500964947E+02  0.50400000000E-02 0.  1.
         -1   -1    0    0  501    0 -0.00000000000E+00 -0.00000000000E+00 -0.10745754311E+03  0.10745754323E+03  0.50400000000E-02 0.  1.
          2    1    1    2    0  502  0.59236435913E+02  0.51565523617E+01 -0.51759718284E+02  0.78832821942E+02  0.25500000000E-02 0. -1.
         -2    1    1    2  502    0 -0.59236435913E+02 -0.51565523617E+01 -0.21196860249E+02  0.63125686236E+02  0.25500000000E-02 0. -1.
<mgrwt>
<rscale>  0 0.12177666E+03</rscale>
<asrwt>0</asrwt>
<pdfrwt beam="1">  1        1 0.53078408E-02 0.12177666E+03</pdfrwt>
<pdfrwt beam="2">  1       -1 0.16531930E-01 0.12177666E+03</pdfrwt>
<totfact> 0.37935225E+04</totfact>
</mgrwt>
</event>
<event>
 4    1  0.2051373E-002  0.4079923E+02  0.7818608E-02  0.1502411E+00
         -1   -1    0    0  501    0 -0.00000000000E+00  0.00000000000E+00  0.17786247702E+01  0.17786319110E+01  0.50400000000E-02 0.  1.
          1   -1    0    0    0  501  0.00000000000E+00 -0.00000000000E+00 -0.23396920394E+03  0.23396920399E+03  0.50400000000E-02 0.  1.
          2    1    1    2    0  502  0.19382034001E+02  0.62264672472E+01 -0.10853455972E+03  0.11042727379E+03  0.25500000000E-02 0.  1.
         -2    1    1    2  502    0 -0.19382034001E+02 -0.62264672472E+01 -0.12365601945E+03  0.12532056212E+03  0.25500000000E-02 0.  1.
<mgrwt>
<rscale>  0 0.40799229E+02</rscale>
<asrwt>0</asrwt>
<pdfrwt beam="2">  1        1 0.35995238E-01 0.40799229E+02</pdfrwt>
<pdfrwt beam="1">  1       -1 0.27363532E-03 0.40799229E+02</pdfrwt>
<totfact> 0.95437824E+05</totfact>
</mgrwt>
</event>
<event>
 4    1  0.2051373E-002  0.4281807E+02  0.7818608E-02  0.1488442E+00
         -1   -1    0    0  501    0 -0.00000000000E+00  0.00000000000E+00  0.18754596529E+03  0.18754596536E+03  0.50400000000E-02 0. -1.
          1   -1    0    0    0  501  0.00000000000E+00 -0.00000000000E+00 -0.24439144648E+01  0.24439196617E+01  0.50400000000E-02 0. -1.
          2    1    1    2    0  502  0.12147749602E+01 -0.20674284578E+02  0.11662843047E+03  0.11845291268E+03  0.25500000000E-02 0.  1.
         -2    1    1    2  502    0 -0.12147749602E+01  0.20674284578E+02  0.68473620352E+02  0.71536972340E+02  0.25500000000E-02 0.  1.
<mgrwt>
<rscale>  0 0.42818071E+02</rscale>
<asrwt>0</asrwt>
<pdfrwt beam="2">  1        1 0.37598710E-03 0.42818071E+02</pdfrwt>
<pdfrwt beam="1">  1       -1 0.28853237E-01 0.42818071E+02</pdfrwt>
<totfact> 0.47752653E+05</totfact>
</mgrwt>
</event>
<event>
 4    1  0.2051373E-002  0.4082529E+02  0.7818608E-02  0.1502225E+00
          1   -1    0    0    0  501  0.00000000000E+00  0.00000000000E+00  0.22307804590E+03  0.22307804596E+03  0.50400000000E-02 0.  1.
         -1   -1    0    0  501    0 -0.00000000000E+00 -0.00000000000E+00 -0.18678453449E+01  0.18678521446E+01  0.50400000000E-02 0.  1.
          2    1    1    2    0  502 -0.17352086700E+02  0.10517234540E+02  0.12288740219E+03  0.12455127763E+03  0.25500000000E-02 0. -1.
         -2    1    1    2  502    0  0.17352086700E+02 -0.10517234540E+02  0.98322798368E+02  0.10039462048E+03  0.25500000000E-02 0. -1.
<mgrwt>
<rscale>  0 0.40825289E+02</rscale>
<asrwt>0</asrwt>
<pdfrwt beam="1">  1        1 0.34319666E-01 0.40825289E+02</pdfrwt>
<pdfrwt beam="2">  1       -1 0.28736164E-03 0.40825289E+02</pdfrwt>
<totfact> 0.94517512E+05</totfact>
</mgrwt>
</event>
<event>
 4    1  0.2051373E-002  0.7422989E+02  0.7818608E-02  0.1346273E+00
         -1   -1    0    0  501    0 -0.00000000000E+00  0.00000000000E+00  0.26814039890E+01  0.26814087256E+01  0.50400000000E-02 0.  1.
          1   -1    0    0    0  501  0.00000000000E+00 -0.00000000000E+00 -0.51373006895E+03  0.51373006897E+03  0.50400000000E-02 0.  1.
          2    1    1    2    0  502  0.12598787345E+02  0.29957365932E+02 -0.13081371350E+03  0.13479021056E+03  0.25500000000E-02 0. -1.
         -2    1    1    2  502    0 -0.12598787345E+02 -0.29957365932E+02 -0.38023495146E+03  0.38162126714E+03  0.25500000000E-02 0. -1.
<mgrwt>
<rscale>  0 0.74229888E+02</rscale>
<asrwt>0</asrwt>
<pdfrwt beam="2">  1        1 0.79035317E-01 0.74229888E+02</pdfrwt>
<pdfrwt beam="1">  1       -1 0.41252447E-03 0.74229888E+02</pdfrwt>
<totfact> 0.23952982E+05</totfact>
</mgrwt>
</event>
<event>
 4    1  0.2051373E-002  0.5089815E+02  0.7818608E-02  0.1440557E+00
          1   -1    0    0    0  501  0.00000000000E+00  0.00000000000E+00  0.61613414469E+01  0.61613435083E+01  0.50400000000E-02 0.  1.
         -1   -1    0    0  501    0 -0.00000000000E+00 -0.00000000000E+00 -0.10511596896E+03  0.10511596908E+03  0.50400000000E-02 0.  1.
          2    1    1    2    0  502  0.18651298987E+02 -0.17287310537E+02 -0.47365061073E+02  0.53760311350E+02  0.25500000000E-02 0. -1.
         -2    1    1    2  502    0 -0.18651298987E+02  0.17287310537E+02 -0.51589566437E+02  0.57517001236E+02  0.25500000000E-02 0. -1.
<mgrwt>
<rscale>  0 0.50898153E+02</rscale>
<asrwt>0</asrwt>
<pdfrwt beam="1">  1        1 0.94789893E-03 0.50898153E+02</pdfrwt>
<pdfrwt beam="2">  1       -1 0.16171686E-01 0.50898153E+02</pdfrwt>
<totfact> 0.35318193E+05</totfact>
</mgrwt>
</event>
<event>
 4    1  0.2051373E-002  0.4496318E+02  0.7818608E-02  0.1474572E+00
          1   -1    0    0    0  501  0.00000000000E+00  0.00000000000E+00  0.28149166600E+01  0.28149211719E+01  0.50400000000E-02 0.  1.
         -1   -1    0    0  501    0 -0.00000000000E+00 -0.00000000000E+00 -0.17955116843E+03  0.17955116850E+03  0.50400000000E-02 0.  1.
          2    1    1    2    0  502 -0.15347388403E+02  0.15827838477E+02 -0.70522550391E+02  0.73888381507E+02  0.25500000000E-02 0.  1.
         -2    1    1    2  502    0  0.15347388403E+02 -0.15827838477E+02 -0.10621370138E+03  0.10847770816E+03  0.25500000000E-02 0.  1.
<mgrwt>
<rscale>  0 0.44963185E+02</rscale>
<asrwt>0</asrwt>
<pdfrwt beam="1">  1        1 0.43306459E-03 0.44963185E+02</pdfrwt>
<pdfrwt beam="2">  1       -1 0.27623248E-01 0.44963185E+02</pdfrwt>
<totfact> 0.42855251E+05</totfact>
</mgrwt>
</event>
<event>
 4    1  0.2051373E-002  0.5695886E+02  0.7818608E-02  0.1411056E+00
          1   -1    0    0    0  501  0.00000000000E+00  0.00000000000E+00  0.68598224809E+01  0.68598243324E+01  0.50400000000E-02 0. -1.
         -1   -1    0    0  501    0 -0.00000000000E+00 -0.00000000000E+00 -0.11823596930E+03  0.11823596941E+03  0.50400000000E-02 0. -1.
          2    1    1    2    0  502 -0.20962248628E+02  0.14749617621E+00 -0.98027288828E+02  0.10024363812E+03  0.25500000000E-02 0.  1.
         -2    1    1    2  502    0  0.20962248628E+02 -0.14749617621E+00 -0.13348857993E+02  0.24852155619E+02  0.25500000000E-02 0.  1.
<mgrwt>
<rscale>  0 0.56958858E+02</rscale>
<asrwt>0</asrwt>
<pdfrwt beam="1">  1        1 0.10553575E-02 0.56958858E+02</pdfrwt>
<pdfrwt beam="2">  1       -1 0.18190148E-01 0.56958858E+02</pdfrwt>
<totfact> 0.26124490E+05</totfact>
</mgrwt>
</event>
<event>
 4    1  0.2051373E-002  0.4077021E+02  0.7818608E-02  0.1502619E+00
          1   -1    0    0    0  501  0.00000000000E+00  0.00000000000E+00  0.40612006922E+03  0.40612006925E+03  0.50400000000E-02 0. -1.
         -1   -1    0    0  501    0 -0.00000000000E+00 -0.00000000000E+00 -0.10232193448E+01  0.10232317573E+01  0.50400000000E-02 0. -1.
          2    1    1    2    0  502 -0.11939246534E+02 -0.16522039861E+02  0.20084697341E+03  0.20187875110E+03  0.25500000000E-02 0.  1.
         -2    1    1    2  502    0  0.11939246534E+02  0.16522039861E+02  0.20424987647E+03  0.20526454992E+03  0.25500000000E-02 0.  1.
<mgrwt>
<rscale>  0 0.40770207E+02</rscale>
<asrwt>0</asrwt>
<pdfrwt beam="1">  1        1 0.62480037E-01 0.40770207E+02</pdfrwt>
<pdfrwt beam="2">  1       -1 0.15741926E-03 0.40770207E+02</pdfrwt>
<totfact> 0.10469340E+06</totfact>
</mgrwt>
</event>
<event>
 4    1  0.2051373E-002  0.5865761E+02  0.7818608E-02  0.1403553E+00
          1   -1    0    0    0  501  0.00000000000E+00  0.00000000000E+00  0.70579823697E+03  0.70579823699E+03  0.50400000000E-02 0.  1.
         -1   -1    0    0  501    0 -0.00000000000E+00 -0.00000000000E+00 -0.12187267077E+01  0.12187371291E+01  0.50400000000E-02 0.  1.
          2    1    1    2    0  502  0.62884459704E+00  0.27871508846E+02  0.46207553823E+03  0.46291578013E+03  0.25500000000E-02 0.  1.
         -2    1    1    2  502    0 -0.62884459704E+00 -0.27871508846E+02  0.24250397203E+03  0.24410119399E+03  0.25500000000E-02 0.  1.
<mgrwt>
<rscale>  0 0.58657612E+02</rscale>
<asrwt>0</asrwt>
<pdfrwt beam="1">  1        1 0.10858438E+00 0.58657612E+02</pdfrwt>
<pdfrwt beam="2">  1       -1 0.18749716E-03 0.58657612E+02</pdfrwt>
<totfact> 0.44486359E+05</totfact>
</mgrwt>
</event>
<event>
 4    1  0.2051373E-002  0.7405255E+02  0.7818608E-02  0.1346830E+00
          1   -1    0    0    0  501  0.00000000000E+00  0.00000000000E+00  0.18879300140E+02  0.18879300813E+02  0.50400000000E-02 0.  1.
         -1   -1    0    0  501    0 -0.00000000000E+00 -0.00000000000E+00 -0.72616302634E+02  0.72616302809E+02  0.50400000000E-02 0.  1.
          2    1    1    2    0  502  0.28973469519E+02  0.22863550117E+02 -0.23215545826E+02  0.43602355836E+02  0.25500000000E-02 0. -1.
         -2    1    1    2  502    0 -0.28973469519E+02 -0.22863550117E+02 -0.30521456668E+02  0.47893247787E+02  0.25500000000E-02 0. -1.
<mgrwt>
<rscale>  0 0.74052549E+02</rscale>
<asrwt>0</asrwt>
<pdfrwt beam="1">  1        1 0.29045078E-02 0.74052549E+02</pdfrwt>
<pdfrwt beam="2">  1       -1 0.11171739E-01 0.74052549E+02</pdfrwt>
<totfact> 0.14604770E+05</totfact>
</mgrwt>
</event>
<event>
 4    1  0.2051373E-002  0.5822893E+02  0.7818608E-02  0.1405418E+00
         -1   -1    0    0  501    0 -0.00000000000E+00  0.00000000000E+00  0.54678455087E+00  0.54680777854E+00  0.50400000000E-02 0.  1.
          1   -1    0    0    0  501  0.00000000000E+00 -0.00000000000E+00 -0.15502155507E+04  0.15502155507E+04  0.50400000000E-02 0.  1.
          2    1    1    2    0  502  0.27915946527E+02  0.30629449883E+01 -0.97934829508E+03  0.97975086874E+03  0.25500000000E-02 0. -1.
         -2    1    1    2  502    0 -0.27915946527E+02 -0.30629449883E+01 -0.57032047102E+03  0.57101148970E+03  0.25500000000E-02 0. -1.
<mgrwt>
<rscale>  0 0.58228925E+02</rscale>
<asrwt>0</asrwt>
<pdfrwt beam="2">  1        1 0.23849118E+00 0.58228925E+02</pdfrwt>
<pdfrwt beam="1">  1       -1 0.84123728E-04 0.58228925E+02</pdfrwt>
<totfact> 0.34354305E+05</totfact>
</mgrwt>
</event>
<event>
 4    1  0.2051373E-002  0.4889761E+02  0.7818608E-02  0.1451380E+00
          1   -1    0    0    0  501  0.00000000000E+00  0.00000000000E+00  0.91420212434E+02  0.91420212573E+02  0.50400000000E-02 0. -1.
         -1   -1    0    0  501    0 -0.00000000000E+00 -0.00000000000E+00 -0.65384220436E+01  0.65384239861E+01  0.50400000000E-02 0. -1.
          2    1    1    2    0  502 -0.15095921456E+02  0.14869993223E+02  0.18008293957E+02  0.27808311722E+02  0.25500000000E-02 0. -1.
         -2    1    1    2  502    0  0.15095921456E+02 -0.14869993223E+02  0.66873496434E+02  0.70150324838E+02  0.25500000000E-02 0. -1.
<mgrwt>
<rscale>  0 0.48897609E+02</rscale>
<asrwt>0</asrwt>
<pdfrwt beam="1">  1        1 0.14064648E-01 0.48897609E+02</pdfrwt>
<pdfrwt beam="2">  1       -1 0.10059113E-02 0.48897609E+02</pdfrwt>
<totfact> 0.52787988E+05</totfact>
</mgrwt>
</event>
<event>
 4    1  0.2051373E-002  0.7437838E+02  0.7818608E-02  0.1345807E+00
         -1   -1    0    0  501    0 -0.00000000000E+00  0.00000000000E+00  0.14474982523E+02  0.14474983401E+02  0.50400000000E-02 0.  1.
          1   -1    0    0    0  501  0.00000000000E+00 -0.00000000000E+00 -0.95546617207E+02  0.95546617339E+02  0.50400000000E-02 0.  1.
          2    1    1    2    0  502 -0.17523926599E+02  0.32785813253E+02 -0.42042954536E+02  0.56121364797E+02  0.25500000000E-02 0. -1.
         -2    1    1    2  502    0  0.17523926599E+02 -0.32785813253E+02 -0.39028680148E+02  0.53900235943E+02  0.25500000000E-02 0. -1.
<mgrwt>
<rscale>  0 0.74378375E+02</rscale>
<asrwt>0</asrwt>
<pdfrwt beam="2">  1        1 0.14699479E-01 0.74378375E+02</pdfrwt>
<pdfrwt beam="1">  1       -1 0.22269205E-02 0.74378375E+02</pdfrwt>
<totfact> 0.17938141E+05</totfact>
</mgrwt>
</event>
<event>
 4    1  0.2051373E-002  0.6698318E+02  0.7818608E-02  0.1370663E+00
         -1   -1    0    0  501    0 -0.00000000000E+00  0.00000000000E+00  0.66589494282E+00  0.66591401583E+00  0.50400000000E-02 0.  1.
          1   -1    0    0    0  501  0.00000000000E+00 -0.00000000000E+00 -0.16844557511E+04  0.16844557511E+04  0.50400000000E-02 0.  1.
          2    1    1    2    0  502 -0.25918021469E+02 -0.10994420952E+01 -0.13748124424E+04  0.13750571641E+04  0.25500000000E-02 0.  1.
         -2    1    1    2  502    0  0.25918021469E+02  0.10994420952E+01 -0.30897741375E+03  0.31006450108E+03  0.25500000000E-02 0.  1.
<mgrwt>
<rscale>  0 0.66983181E+02</rscale>
<asrwt>0</asrwt>
<pdfrwt beam="2">  1        1 0.25914363E+00 0.66983181E+02</pdfrwt>
<pdfrwt beam="1">  1       -1 0.10244819E-03 0.66983181E+02</pdfrwt>
<totfact> 0.22192638E+05</totfact>
</mgrwt>
</event>
<event>
 4    1  0.2051373E-002  0.6010021E+02  0.7818608E-02  0.1397412E+00
          1   -1    0    0    0  501  0.00000000000E+00  0.00000000000E+00  0.11665933793E+02  0.11665934882E+02  0.50400000000E-02 0.  1.
         -1   -1    0    0  501    0 -0.00000000000E+00 -0.00000000000E+00 -0.77405613917E+02  0.77405614081E+02  0.50400000000E-02 0.  1.
          2    1    1    2    0  502 -0.16765381456E+02  0.24519222755E+02 -0.26120646914E+02  0.39554500396E+02  0.25500000000E-02 0. -1.
         -2    1    1    2  502    0  0.16765381456E+02 -0.24519222755E+02 -0.39619033210E+02  0.49517048567E+02  0.25500000000E-02 0. -1.
<mgrwt>
<rscale>  0 0.60100210E+02</rscale>
<asrwt>0</asrwt>
<pdfrwt beam="1">  1        1 0.17947592E-02 0.60100210E+02</pdfrwt>
<pdfrwt beam="2">  1       -1 0.11908556E-01 0.60100210E+02</pdfrwt>
<totfact> 0.24489807E+05</totfact>
</mgrwt>
</event>
<event>
 4    1  0.2051373E-002  0.5748009E+02  0.7818608E-02  0.1408722E+00
          1   -1    0    0    0  501  0.00000000000E+00  0.00000000000E+00  0.16232791726E+04  0.16232791726E+04  0.50400000000E-02 0. -1.
         -1   -1    0    0  501    0 -0.00000000000E+00 -0.00000000000E+00 -0.50882792895E+00  0.50885288924E+00  0.50400000000E-02 0. -1.
          2    1    1    2    0  502 -0.20645062138E+02 -0.74365119391E+01  0.13356943644E+04  0.13358746031E+04  0.25500000000E-02 0. -1.
         -2    1    1    2  502    0  0.20645062138E+02  0.74365119391E+01  0.28707598027E+03  0.28791342232E+03  0.25500000000E-02 0. -1.
<mgrwt>
<rscale>  0 0.57480085E+02</rscale>
<asrwt>0</asrwt>
<pdfrwt beam="1">  1        1 0.24973875E+00 0.57480085E+02</pdfrwt>
<pdfrwt beam="2">  1       -1 0.78282047E-04 0.57480085E+02</pdfrwt>
<totfact> 0.34035625E+05</totfact>
</mgrwt>
</event>
<event>
 4    1  0.2051373E-002  0.4546927E+02  0.7818608E-02  0.1471433E+00
          1   -1    0    0    0  501  0.00000000000E+00  0.00000000000E+00  0.19055004341E+04  0.19055004341E+04  0.50400000000E-02 0. -1.
         -1   -1    0    0  501    0 -0.00000000000E+00 -0.00000000000E+00 -0.27122482557E+00  0.27127164910E+00  0.50400000000E-02 0. -1.
          2    1    1    2    0  502 -0.16974000344E+02 -0.10637888124E+02  0.14032222236E+04  0.14033652020E+04  0.25500000000E-02 0.  1.
         -2    1    1    2  502    0  0.16974000344E+02  0.10637888124E+02  0.50200698569E+03  0.50240650378E+03  0.25500000000E-02 0.  1.
<mgrwt>
<rscale>  0 0.45469271E+02</rscale>
<asrwt>0</asrwt>
<pdfrwt beam="1">  1        1 0.29314341E+00 0.45469271E+02</pdfrwt>
<pdfrwt beam="2">  1       -1 0.41731994E-04 0.45469271E+02</pdfrwt>
<totfact> 0.51060735E+05</totfact>
</mgrwt>
</event>
<event>
 4    1  0.2051373E-002  0.4564744E+02  0.7818608E-02  0.1470340E+00
          1   -1    0    0    0  501  0.00000000000E+00  0.00000000000E+00  0.43981344814E+03  0.43981344816E+03  0.50400000000E-02 0.  1.
         -1   -1    0    0  501    0 -0.00000000000E+00 -0.00000000000E+00 -0.11844109428E+01  0.11844216660E+01  0.50400000000E-02 0.  1.
          2    1    1    2    0  502 -0.15879550598E+02  0.14999608040E+02  0.15539588906E+03  0.15692364612E+03  0.25500000000E-02 0.  1.
         -2    1    1    2  502    0  0.15879550598E+02 -0.14999608040E+02  0.28323314814E+03  0.28407422371E+03  0.25500000000E-02 0.  1.
<mgrwt>
<rscale>  0 0.45647442E+02</rscale>
<asrwt>0</asrwt>
<pdfrwt beam="1">  1        1 0.67663785E-01 0.45647442E+02</pdfrwt>
<pdfrwt beam="2">  1       -1 0.18221742E-03 0.45647442E+02</pdfrwt>
<totfact> 0.80341811E+05</totfact>
</mgrwt>
</event>
<event>
 4    1  0.2051373E-002  0.1107691E+03  0.7818608E-02  0.1259152E+00
         -1   -1    0    0  501    0 -0.00000000000E+00  0.00000000000E+00  0.17005558447E+02  0.17005559194E+02  0.50400000000E-02 0.  1.
          1   -1    0    0    0  501  0.00000000000E+00 -0.00000000000E+00 -0.18037919015E+03  0.18037919022E+03  0.50400000000E-02 0.  1.
          2    1    1    2    0  502  0.26508023348E+02  0.26414460796E+02 -0.15444288496E+03  0.15891193713E+03  0.25500000000E-02 0. -1.
         -2    1    1    2  502    0 -0.26508023348E+02 -0.26414460796E+02 -0.89307467380E+01  0.38472812281E+02  0.25500000000E-02 0. -1.
<mgrwt>
<rscale>  0 0.11076911E+03</rscale>
<asrwt>0</asrwt>
<pdfrwt beam="2">  1        1 0.27750643E-01 0.11076911E+03</pdfrwt>
<pdfrwt beam="1">  1       -1 0.26162399E-02 0.11076911E+03</pdfrwt>
<totfact> 0.68382254E+04</totfact>
</mgrwt>
</event>
<event>
 4    1  0.2051373E-002  0.5224674E+02  0.7818608E-02  0.1433587E+00
         -1   -1    0    0  501    0 -0.00000000000E+00  0.00000000000E+00  0.69071301452E+01  0.69071319840E+01  0.50400000000E-02 0. -1.
          1   -1    0    0    0  501  0.00000000000E+00 -0.00000000000E+00 -0.98800860884E+02  0.98800861012E+02  0.50400000000E-02 0. -1.
          2    1    1    2    0  502 -0.13978686952E+02  0.21035211935E+02 -0.59450673131E+02  0.64593083006E+02  0.25500000000E-02 0. -1.
         -2    1    1    2  502    0  0.13978686952E+02 -0.21035211935E+02 -0.32443057608E+02  0.41114909990E+02  0.25500000000E-02 0. -1.
<mgrwt>
<rscale>  0 0.52246742E+02</rscale>
<asrwt>0</asrwt>
<pdfrwt beam="2">  1        1 0.15200132E-01 0.52246742E+02</pdfrwt>
<pdfrwt beam="1">  1       -1 0.10626356E-02 0.52246742E+02</pdfrwt>
<totfact> 0.45103869E+05</totfact>
</mgrwt>
</event>
<event>
 4    1  0.2051373E-002  0.5224894E+02  0.7818608E-02  0.1433576E+00
         -1   -1    0    0  501    0 -0.00000000000E+00  0.00000000000E+00  0.88361853167E+01  0.88361867541E+01  0.50400000000E-02 0. -1.
          1   -1    0    0    0  501  0.00000000000E+00 -0.00000000000E+00 -0.77237829433E+02  0.77237829597E+02  0.50400000000E-02 0. -1.
          2    1    1    2    0  502  0.14180163045E+02 -0.21911299353E+02 -0.36083294087E+02  0.44532978589E+02  0.25500000000E-02 0.  1.
         -2    1    1    2  502    0 -0.14180163045E+02  0.21911299353E+02 -0.32318350029E+02  0.41541037762E+02  0.25500000000E-02 0.  1.
<mgrwt>
<rscale>  0 0.52248937E+02</rscale>
<asrwt>0</asrwt>
<pdfrwt beam="2">  1        1 0.11882743E-01 0.52248937E+02</pdfrwt>
<pdfrwt beam="1">  1       -1 0.13594133E-02 0.52248937E+02</pdfrwt>
<totfact> 0.43705025E+05</totfact>
</mgrwt>
</event>
<event>
 4    1  0.2051373E-002  0.4222373E+02  0.7818608E-02  0.1492457E+00
         -1   -1    0    0  501    0 -0.00000000000E+00  0.00000000000E+00  0.30573962785E+01  0.30574004326E+01  0.50400000000E-02 0.  1.
          1   -1    0    0    0  501  0.00000000000E+00 -0.00000000000E+00 -0.14578107846E+03  0.14578107855E+03  0.50400000000E-02 0.  1.
          2    1    1    2    0  502 -0.16922290244E+02  0.12603580915E+02 -0.73846092896E+02  0.76801429684E+02  0.25500000000E-02 0. -1.
         -2    1    1    2  502    0  0.16922290244E+02 -0.12603580915E+02 -0.68877589286E+02  0.72037049297E+02  0.25500000000E-02 0. -1.
<mgrwt>
<rscale>  0 0.42223730E+02</rscale>
<asrwt>0</asrwt>
<pdfrwt beam="2">  1        1 0.22427853E-01 0.42223730E+02</pdfrwt>
<pdfrwt beam="1">  1       -1 0.47036910E-03 0.42223730E+02</pdfrwt>
<totfact> 0.81210710E+05</totfact>
</mgrwt>
</event>
<event>
 4    1  0.2051373E-002  0.6343686E+02  0.7818608E-02  0.1383950E+00
          1   -1    0    0    0  501  0.00000000000E+00  0.00000000000E+00  0.16515003162E+03  0.16515003169E+03  0.50400000000E-02 0. -1.
         -1   -1    0    0  501    0 -0.00000000000E+00 -0.00000000000E+00 -0.60917866425E+01  0.60917887274E+01  0.50400000000E-02 0. -1.
          2    1    1    2    0  502 -0.27882833593E+02 -0.15117517742E+02  0.78829443126E+02  0.84971011892E+02  0.25500000000E-02 0. -1.
         -2    1    1    2  502    0  0.27882833593E+02  0.15117517742E+02  0.80228801849E+02  0.86270808530E+02  0.25500000000E-02 0. -1.
<mgrwt>
<rscale>  0 0.63436864E+02</rscale>
<asrwt>0</asrwt>
<pdfrwt beam="1">  1        1 0.25407695E-01 0.63436864E+02</pdfrwt>
<pdfrwt beam="2">  1       -1 0.93719821E-03 0.63436864E+02</pdfrwt>
<totfact> 0.29696839E+05</totfact>
</mgrwt>
</event>
<event>
 4    1  0.2051373E-002  0.4663341E+02  0.7818608E-02  0.1464395E+00
         -1   -1    0    0  501    0 -0.00000000000E+00  0.00000000000E+00  0.23732009475E+02  0.23732010010E+02  0.50400000000E-02 0.  1.
          1   -1    0    0    0  501  0.00000000000E+00 -0.00000000000E+00 -0.22908668812E+02  0.22908669366E+02  0.50400000000E-02 0.  1.
          2    1    1    2    0  502  0.12201064154E+02 -0.15863352702E+02 -0.11555011064E+02  0.23109093721E+02  0.25500000000E-02 0.  1.
         -2    1    1    2  502    0 -0.12201064154E+02  0.15863352702E+02  0.12378351727E+02  0.23531585654E+02  0.25500000000E-02 0.  1.
<mgrwt>
<rscale>  0 0.46633412E+02</rscale>
<asrwt>0</asrwt>
<pdfrwt beam="2">  1        1 0.35244107E-02 0.46633412E+02</pdfrwt>
<pdfrwt beam="1">  1       -1 0.36510785E-02 0.46633412E+02</pdfrwt>
<totfact> 0.51992176E+05</totfact>
</mgrwt>
</event>
<event>
 4    1  0.2051373E-002  0.7590882E+02  0.7818608E-02  0.1341080E+00
          1   -1    0    0    0  501  0.00000000000E+00  0.00000000000E+00  0.32828489676E+02  0.32828490063E+02  0.50400000000E-02 0. -1.
         -1   -1    0    0  501    0 -0.00000000000E+00 -0.00000000000E+00 -0.43880704413E+02  0.43880704702E+02  0.50400000000E-02 0. -1.
          2    1    1    2    0  502  0.19271029299E+02  0.88786396175E+01  0.26275284109E+02  0.33772671988E+02  0.25500000000E-02 0.  1.
         -2    1    1    2  502    0 -0.19271029299E+02 -0.88786396175E+01 -0.37327498845E+02  0.42936522778E+02  0.25500000000E-02 0.  1.
<mgrwt>
<rscale>  0 0.75908821E+02</rscale>
<asrwt>0</asrwt>
<pdfrwt beam="1">  1        1 0.50505369E-02 0.75908821E+02</pdfrwt>
<pdfrwt beam="2">  1       -1 0.67508777E-02 0.75908821E+02</pdfrwt>
<totfact> 0.14711033E+05</totfact>
</mgrwt>
</event>
<event>
 4    1  0.2051373E-002  0.4753349E+02  0.7818608E-02  0.1459118E+00
          1   -1    0    0    0  501  0.00000000000E+00  0.00000000000E+00  0.11517745280E+04  0.11517745280E+04  0.50400000000E-02 0.  1.
         -1   -1    0    0  501    0 -0.00000000000E+00 -0.00000000000E+00 -0.49041122724E+00  0.49043712482E+00  0.50400000000E-02 0.  1.
          2    1    1    2    0  502 -0.62319811842E+01  0.22860989184E+02  0.62031196559E+03  0.62076436518E+03  0.25500000000E-02 0.  1.
         -2    1    1    2  502    0  0.62319811842E+01 -0.22860989184E+02  0.53097215119E+03  0.53150059996E+03  0.25500000000E-02 0.  1.
<mgrwt>
<rscale>  0 0.47533487E+02</rscale>
<asrwt>0</asrwt>
<pdfrwt beam="1">  1        1 0.17719695E+00 0.47533487E+02</pdfrwt>
<pdfrwt beam="2">  1       -1 0.75449506E-04 0.47533487E+02</pdfrwt>
<totfact> 0.68631171E+05</totfact>
</mgrwt>
</event>
<event>
 4    1  0.2051373E-002  0.6309906E+02  0.7818608E-02  0.1385268E+00
         -1   -1    0    0  501    0 -0.00000000000E+00  0.00000000000E+00  0.32019346097E+01  0.32019385763E+01  0.50400000000E-02 0. -1.
          1   -1    0    0    0  501  0.00000000000E+00 -0.00000000000E+00 -0.31086587233E+03  0.31086587237E+03  0.50400000000E-02 0. -1.
          2    1    1    2    0  502  0.29264828085E+02 -0.46531146892E+01 -0.99926451535E+02  0.10422752689E+03  0.25500000000E-02 0. -1.
         -2    1    1    2  502    0 -0.29264828085E+02  0.46531146892E+01 -0.20773748618E+03  0.20984028405E+03  0.25500000000E-02 0. -1.
<mgrwt>
<rscale>  0 0.63099059E+02</rscale>
<asrwt>0</asrwt>
<pdfrwt beam="2">  1        1 0.47825495E-01 0.63099059E+02</pdfrwt>
<pdfrwt beam="1">  1       -1 0.49260588E-03 0.63099059E+02</pdfrwt>
<totfact> 0.33735190E+05</totfact>
</mgrwt>
</event>
<event>
 4    1  0.2051373E-002  0.5487161E+02  0.7818608E-02  0.1420707E+00
          1   -1    0    0    0  501  0.00000000000E+00  0.00000000000E+00  0.27831931836E+02  0.27831932292E+02  0.50400000000E-02 0. -1.
         -1   -1    0    0  501    0 -0.00000000000E+00 -0.00000000000E+00 -0.27045315547E+02  0.27045316016E+02  0.50400000000E-02 0. -1.
          2    1    1    2    0  502  0.27012532491E+02  0.32171408914E+00  0.51836840290E+01  0.27507289910E+02  0.25500000000E-02 0. -1.
         -2    1    1    2  502    0 -0.27012532491E+02 -0.32171408914E+00 -0.43970677399E+01  0.27369958399E+02  0.25500000000E-02 0. -1.
<mgrwt>
<rscale>  0 0.54871610E+02</rscale>
<asrwt>0</asrwt>
<pdfrwt beam="1">  1        1 0.42818357E-02 0.54871610E+02</pdfrwt>
<pdfrwt beam="2">  1       -1 0.41608179E-02 0.54871610E+02</pdfrwt>
<totfact> 0.34635973E+05</totfact>
</mgrwt>
</event>
<event>
 4    1  0.2051373E-002  0.7797621E+02  0.7818608E-02  0.1334895E+00
          1   -1    0    0    0  501  0.00000000000E+00  0.00000000000E+00  0.44024457435E+03  0.44024457438E+03  0.50400000000E-02 0.  1.
         -1   -1    0    0  501    0 -0.00000000000E+00 -0.00000000000E+00 -0.34527883685E+01  0.34527920469E+01  0.50400000000E-02 0.  1.
          2    1    1    2    0  502 -0.25819784499E+02  0.92449274365E+01  0.60711387548E+02  0.66618334859E+02  0.25500000000E-02 0.  1.
         -2    1    1    2  502    0  0.25819784499E+02 -0.92449274365E+01  0.37608039844E+03  0.37707903157E+03  0.25500000000E-02 0.  1.
<mgrwt>
<rscale>  0 0.77976206E+02</rscale>
<asrwt>0</asrwt>
<pdfrwt beam="1">  1        1 0.67729930E-01 0.77976206E+02</pdfrwt>
<pdfrwt beam="2">  1       -1 0.53119853E-03 0.77976206E+02</pdfrwt>
<totfact> 0.20664463E+05</totfact>
</mgrwt>
</event>
<event>
 4    1  0.2051373E-002  0.4662383E+02  0.7818608E-02  0.1464452E+00
         -1   -1    0    0  501    0 -0.00000000000E+00  0.00000000000E+00  0.49583464357E+01  0.49583489972E+01  0.50400000000E-02 0.  1.
          1   -1    0    0    0  501  0.00000000000E+00 -0.00000000000E+00 -0.10960212477E+03  0.10960212488E+03  0.50400000000E-02 0.  1.
          2    1    1    2    0  502  0.20960886141E+02  0.10182573243E+02 -0.50764170603E+02  0.55857359132E+02  0.25500000000E-02 0. -1.
         -2    1    1    2  502    0 -0.20960886141E+02 -0.10182573243E+02 -0.53879607727E+02  0.58703114747E+02  0.25500000000E-02 0. -1.
<mgrwt>
<rscale>  0 0.46623833E+02</rscale>
<asrwt>0</asrwt>
<pdfrwt beam="2">  1        1 0.16861864E-01 0.46623833E+02</pdfrwt>
<pdfrwt beam="1">  1       -1 0.76282281E-03 0.46623833E+02</pdfrwt>
<totfact> 0.60934502E+05</totfact>
</mgrwt>
</event>
<event>
 4    1  0.2051373E-002  0.5487258E+02  0.7818608E-02  0.1420702E+00
          1   -1    0    0    0  501  0.00000000000E+00  0.00000000000E+00  0.11018503224E+02  0.11018504376E+02  0.50400000000E-02 0.  1.
         -1   -1    0    0  501    0 -0.00000000000E+00 -0.00000000000E+00 -0.68316903814E+02  0.68316904000E+02  0.50400000000E-02 0.  1.
          2    1    1    2    0  502 -0.22431859860E+02 -0.99409467413E+01 -0.46400286235E+02  0.52488068436E+02  0.25500000000E-02 0. -1.
         -2    1    1    2  502    0  0.22431859860E+02  0.99409467413E+01 -0.10898114355E+02  0.26847339940E+02  0.25500000000E-02 0. -1.
<mgrwt>
<rscale>  0 0.54872583E+02</rscale>
<asrwt>0</asrwt>
<pdfrwt beam="1">  1        1 0.16951545E-02 0.54872583E+02</pdfrwt>
<pdfrwt beam="2">  1       -1 0.10510293E-01 0.54872583E+02</pdfrwt>
<totfact> 0.31270276E+05</totfact>
</mgrwt>
</event>
<event>
 4    1  0.2051373E-002  0.4824745E+02  0.7818608E-02  0.1455030E+00
         -1   -1    0    0  501    0 -0.00000000000E+00  0.00000000000E+00  0.10957254652E+04  0.10957254652E+04  0.50400000000E-02 0. -1.
          1   -1    0    0    0  501  0.00000000000E+00 -0.00000000000E+00 -0.53110108438E+00  0.53112499793E+00  0.50400000000E-02 0. -1.
          2    1    1    2    0  502 -0.18124211982E+02 -0.14929301052E+02  0.67325164034E+03  0.67366099955E+03  0.25500000000E-02 0. -1.
         -2    1    1    2  502    0  0.18124211982E+02  0.14929301052E+02  0.42194272380E+03  0.42259559069E+03  0.25500000000E-02 0. -1.
<mgrwt>
<rscale>  0 0.48247450E+02</rscale>
<asrwt>0</asrwt>
<pdfrwt beam="2">  1        1 0.81709860E-04 0.48247450E+02</pdfrwt>
<pdfrwt beam="1">  1       -1 0.16857282E+00 0.48247450E+02</pdfrwt>
<totfact> 0.11596948E+05</totfact>
</mgrwt>
</event>
<event>
 4    1  0.2051373E-002  0.6692117E+02  0.7818608E-02  0.1370887E+00
         -1   -1    0    0  501    0 -0.00000000000E+00  0.00000000000E+00  0.28953730211E+01  0.28953774077E+01  0.50400000000E-02 0. -1.
          1   -1    0    0    0  501  0.00000000000E+00 -0.00000000000E+00 -0.38668936064E+03  0.38668936067E+03  0.50400000000E-02 0. -1.
          2    1    1    2    0  502 -0.16199644649E+02  0.15256590992E+02 -0.46426013996E+02  0.51483656023E+02  0.25500000000E-02 0. -1.
         -2    1    1    2  502    0  0.16199644649E+02 -0.15256590992E+02 -0.33736797362E+03  0.33810108205E+03  0.25500000000E-02 0. -1.
<mgrwt>
<rscale>  0 0.66921172E+02</rscale>
<asrwt>0</asrwt>
<pdfrwt beam="2">  1        1 0.59490630E-01 0.66921172E+02</pdfrwt>
<pdfrwt beam="1">  1       -1 0.44544265E-03 0.66921172E+02</pdfrwt>
<totfact> 0.30106618E+05</totfact>
</mgrwt>
</event>
<event>
 4    1  0.2051373E-002  0.6491344E+02  0.7818608E-02  0.1378297E+00
         -1   -1    0    0  501    0 -0.00000000000E+00  0.00000000000E+00  0.21185320939E+03  0.21185320945E+03  0.50400000000E-02 0.  1.
          1   -1    0    0    0  501  0.00000000000E+00 -0.00000000000E+00 -0.49724917578E+01  0.49724943120E+01  0.50400000000E-02 0.  1.
          2    1    1    2    0  502  0.20588540519E+02  0.51155147709E+01  0.21391533063E+02  0.30127299669E+02  0.25500000000E-02 0. -1.
         -2    1    1    2  502    0 -0.20588540519E+02 -0.51155147709E+01  0.18548918457E+03  0.18669840409E+03  0.25500000000E-02 0. -1.
<mgrwt>
<rscale>  0 0.64913438E+02</rscale>
<asrwt>0</asrwt>
<pdfrwt beam="2">  1        1 0.76499910E-03 0.64913438E+02</pdfrwt>
<pdfrwt beam="1">  1       -1 0.32592795E-01 0.64913438E+02</pdfrwt>
<totfact> 0.16376403E+05</totfact>
</mgrwt>
</event>
<event>
 4    1  0.2051373E-002  0.6313792E+02  0.7818608E-02  0.1385116E+00
         -1   -1    0    0  501    0 -0.00000000000E+00  0.00000000000E+00  0.87681695423E+00  0.87683143924E+00  0.50400000000E-02 0. -1.
          1   -1    0    0    0  501  0.00000000000E+00 -0.00000000000E+00 -0.11366009802E+04  0.11366009802E+04  0.50400000000E-02 0. -1.
          2    1    1    2    0  502  0.28702794022E+02 -0.13141474079E+02 -0.57191150469E+03  0.57278208590E+03  0.25500000000E-02 0. -1.
         -2    1    1    2  502    0 -0.28702794022E+02  0.13141474079E+02 -0.56381265858E+03  0.56469572577E+03  0.25500000000E-02 0. -1.
<mgrwt>
<rscale>  0 0.63137921E+02</rscale>
<asrwt>0</asrwt>
<pdfrwt beam="2">  1        1 0.17486051E+00 0.63137921E+02</pdfrwt>
<pdfrwt beam="1">  1       -1 0.13489694E-03 0.63137921E+02</pdfrwt>
<totfact> 0.33844028E+05</totfact>
</mgrwt>
</event>
<event>
 4    1  0.2051373E-002  0.6790119E+02  0.7818608E-02  0.1367379E+00
         -1   -1    0    0  501    0 -0.00000000000E+00  0.00000000000E+00  0.12108704733E+03  0.12108704743E+03  0.50400000000E-02 0. -1.
          1   -1    0    0    0  501  0.00000000000E+00 -0.00000000000E+00 -0.95191241992E+01  0.95191255335E+01  0.50400000000E-02 0. -1.
          2    1    1    2    0  502  0.11953614530E+02  0.25082955188E+02  0.18258998075E+02  0.33248076012E+02  0.25500000000E-02 0. -1.
         -2    1    1    2  502    0 -0.11953614530E+02 -0.25082955188E+02  0.93308925051E+02  0.97358096951E+02  0.25500000000E-02 0. -1.
<mgrwt>
<rscale>  0 0.67901185E+02</rscale>
<asrwt>0</asrwt>
<pdfrwt beam="2">  1        1 0.14644808E-02 0.67901185E+02</pdfrwt>
<pdfrwt beam="1">  1       -1 0.18628776E-01 0.67901185E+02</pdfrwt>
<totfact> 0.16692225E+05</totfact>
</mgrwt>
</event>
<event>
 4    1  0.2051373E-002  0.1058375E+03  0.7818608E-02  0.1268478E+00
          1   -1    0    0    0  501  0.00000000000E+00  0.00000000000E+00  0.36337736424E+02  0.36337736773E+02  0.50400000000E-02 0.  1.
         -1   -1    0    0  501    0 -0.00000000000E+00 -0.00000000000E+00 -0.77065680338E+02  0.77065680503E+02  0.50400000000E-02 0.  1.
          2    1    1    2    0  502  0.33393406336E+02 -0.40899949346E+02 -0.16580705204E+02  0.55342978189E+02  0.25500000000E-02 0.  1.
         -2    1    1    2  502    0 -0.33393406336E+02  0.40899949346E+02 -0.24147238711E+02  0.58060439088E+02  0.25500000000E-02 0.  1.
<mgrwt>
<rscale>  0 0.10583747E+03</rscale>
<asrwt>0</asrwt>
<pdfrwt beam="1">  1        1 0.55904210E-02 0.10583747E+03</pdfrwt>
<pdfrwt beam="2">  1       -1 0.11856259E-01 0.10583747E+03</pdfrwt>
<totfact> 0.58148655E+04</totfact>
</mgrwt>
</event>
<event>
 4    1  0.2051373E-002  0.5533821E+02  0.7818608E-02  0.1418506E+00
         -1   -1    0    0  501    0 -0.00000000000E+00  0.00000000000E+00  0.48637726470E+02  0.48637726731E+02  0.50400000000E-02 0.  1.
          1   -1    0    0    0  501  0.00000000000E+00 -0.00000000000E+00 -0.15740443052E+02  0.15740443859E+02  0.50400000000E-02 0.  1.
          2    1    1    2    0  502 -0.21839367504E+02  0.91075676817E+01  0.33132743188E+02  0.40714671062E+02  0.25500000000E-02 0.  1.
         -2    1    1    2  502    0  0.21839367504E+02 -0.91075676817E+01 -0.23545976974E+00  0.23663499527E+02  0.25500000000E-02 0.  1.
<mgrwt>
<rscale>  0 0.55338211E+02</rscale>
<asrwt>0</asrwt>
<pdfrwt beam="2">  1        1 0.24216067E-02 0.55338211E+02</pdfrwt>
<pdfrwt beam="1">  1       -1 0.74827273E-02 0.55338211E+02</pdfrwt>
<totfact> 0.31921403E+05</totfact>
</mgrwt>
</event>
<event>
 4    1  0.2051373E-002  0.7569705E+02  0.7818608E-02  0.1341726E+00
         -1   -1    0    0  501    0 -0.00000000000E+00  0.00000000000E+00  0.22280166098E+03  0.22280166104E+03  0.50400000000E-02 0.  1.
          1   -1    0    0    0  501  0.00000000000E+00 -0.00000000000E+00 -0.64295329259E+01  0.64295349013E+01  0.50400000000E-02 0.  1.
          2    1    1    2    0  502  0.22467092508E+02  0.17740355484E+02  0.18316378275E+03  0.18538732906E+03  0.25500000000E-02 0. -1.
         -2    1    1    2  502    0 -0.22467092508E+02 -0.17740355484E+02  0.33208345307E+02  0.43843866880E+02  0.25500000000E-02 0. -1.
<mgrwt>
<rscale>  0 0.75697050E+02</rscale>
<asrwt>0</asrwt>
<pdfrwt beam="2">  1        1 0.98915930E-03 0.75697050E+02</pdfrwt>
<pdfrwt beam="1">  1       -1 0.34277171E-01 0.75697050E+02</pdfrwt>
<totfact> 0.10888821E+05</totfact>
</mgrwt>
</event>
<event>
 4    1  0.2051373E-002  0.5828298E+02  0.7818608E-02  0.1405182E+00
          1   -1    0    0    0  501  0.00000000000E+00  0.00000000000E+00  0.48512966134E+02  0.48512966396E+02  0.50400000000E-02 0. -1.
         -1   -1    0    0  501    0 -0.00000000000E+00 -0.00000000000E+00 -0.17505144764E+02  0.17505145489E+02  0.50400000000E-02 0. -1.
          2    1    1    2    0  502 -0.78024502240E+01  0.27930489883E+02  0.18754635429E+02  0.34535877739E+02  0.25500000000E-02 0. -1.
         -2    1    1    2  502    0  0.78024502240E+01 -0.27930489883E+02  0.12253185941E+02  0.31482234146E+02  0.25500000000E-02 0. -1.
<mgrwt>
<rscale>  0 0.58282983E+02</rscale>
<asrwt>0</asrwt>
<pdfrwt beam="1">  1        1 0.74635334E-02 0.58282983E+02</pdfrwt>
<pdfrwt beam="2">  1       -1 0.26930992E-02 0.58282983E+02</pdfrwt>
<totfact> 0.31280486E+05</totfact>
</mgrwt>
</event>
<event>
 4    1  0.2051373E-002  0.5732365E+02  0.7818608E-02  0.1409419E+00
          1   -1    0    0    0  501  0.00000000000E+00  0.00000000000E+00  0.16000046301E+02  0.16000047095E+02  0.50400000000E-02 0. -1.
         -1   -1    0    0  501    0 -0.00000000000E+00 -0.00000000000E+00 -0.51343620013E+02  0.51343620260E+02  0.50400000000E-02 0. -1.
          2    1    1    2    0  502  0.20069649571E+02  0.15992925421E+02 -0.32667640478E+02  0.41542017745E+02  0.25500000000E-02 0. -1.
         -2    1    1    2  502    0 -0.20069649571E+02 -0.15992925421E+02 -0.26759332337E+01  0.25801649610E+02  0.25500000000E-02 0. -1.
<mgrwt>
<rscale>  0 0.57323654E+02</rscale>
<asrwt>0</asrwt>
<pdfrwt beam="1">  1        1 0.24615457E-02 0.57323654E+02</pdfrwt>
<pdfrwt beam="2">  1       -1 0.78990185E-02 0.57323654E+02</pdfrwt>
<totfact> 0.29068992E+05</totfact>
</mgrwt>
</event>
<event>
 4    1  0.2051373E-002  0.7143647E+02  0.7818608E-02  0.1355275E+00
          1   -1    0    0    0  501  0.00000000000E+00  0.00000000000E+00  0.49974563130E+02  0.49974563384E+02  0.50400000000E-02 0. -1.
         -1   -1    0    0  501    0 -0.00000000000E+00 -0.00000000000E+00 -0.25528832135E+02  0.25528832633E+02  0.50400000000E-02 0. -1.
          2    1    1    2    0  502 -0.34658706605E+02 -0.13403439887E+01  0.32066959967E+01  0.34832533231E+02  0.25500000000E-02 0. -1.
         -2    1    1    2  502    0  0.34658706605E+02  0.13403439887E+01  0.21239034998E+02  0.40670862785E+02  0.25500000000E-02 0. -1.
<mgrwt>
<rscale>  0 0.71436469E+02</rscale>
<asrwt>0</asrwt>
<pdfrwt beam="1">  1        1 0.76883943E-02 0.71436469E+02</pdfrwt>
<pdfrwt beam="2">  1       -1 0.39275127E-02 0.71436469E+02</pdfrwt>
<totfact> 0.18300764E+05</totfact>
</mgrwt>
</event>
<event>
 4    1  0.2051373E-002  0.5369602E+02  0.7818608E-02  0.1426368E+00
          1   -1    0    0    0  501  0.00000000000E+00  0.00000000000E+00  0.99474218055E+02  0.99474218183E+02  0.50400000000E-02 0.  1.
         -1   -1    0    0  501    0 -0.00000000000E+00 -0.00000000000E+00 -0.72462562537E+01  0.72462580065E+01  0.50400000000E-02 0.  1.
          2    1    1    2    0  502  0.24561042482E+02  0.36267441615E+01  0.66423173250E+02  0.70911466154E+02  0.25500000000E-02 0. -1.
         -2    1    1    2  502    0 -0.24561042482E+02 -0.36267441615E+01  0.25804788552E+02  0.35809010036E+02  0.25500000000E-02 0. -1.
<mgrwt>
<rscale>  0 0.53696025E+02</rscale>
<asrwt>0</asrwt>
<pdfrwt beam="1">  1        1 0.15303726E-01 0.53696025E+02</pdfrwt>
<pdfrwt beam="2">  1       -1 0.11148088E-02 0.53696025E+02</pdfrwt>
<totfact> 0.42108302E+05</totfact>
</mgrwt>
</event>
<event>
 4    1  0.2051373E-002  0.5229351E+02  0.7818608E-02  0.1433349E+00
          1   -1    0    0    0  501  0.00000000000E+00  0.00000000000E+00  0.10224208947E+01  0.10224333169E+01  0.50400000000E-02 0. -1.
         -1   -1    0    0  501    0 -0.00000000000E+00 -0.00000000000E+00 -0.66865669613E+03  0.66865669615E+03  0.50400000000E-02 0. -1.
          2    1    1    2    0  502 -0.22839098471E+02 -0.71742113348E+01 -0.19916413008E+03  0.20059771795E+03  0.25500000000E-02 0.  1.
         -2    1    1    2  502    0  0.22839098471E+02  0.71742113348E+01 -0.46847014515E+03  0.46908141152E+03  0.25500000000E-02 0.  1.
<mgrwt>
<rscale>  0 0.52293508E+02</rscale>
<asrwt>0</asrwt>
<pdfrwt beam="1">  1        1 0.15729701E-03 0.52293508E+02</pdfrwt>
<pdfrwt beam="2">  1       -1 0.10286991E+00 0.52293508E+02</pdfrwt>
<totfact> 0.15889937E+05</totfact>
</mgrwt>
</event>
<event>
 4    1  0.2051373E-002  0.4374838E+02  0.7818608E-02  0.1482310E+00
          1   -1    0    0    0  501  0.00000000000E+00  0.00000000000E+00  0.23939655912E+02  0.23939656442E+02  0.50400000000E-02 0. -1.
         -1   -1    0    0  501    0 -0.00000000000E+00 -0.00000000000E+00 -0.19986928035E+02  0.19986928670E+02  0.50400000000E-02 0. -1.
          2    1    1    2    0  502 -0.12393068777E+02  0.16482647069E+02  0.93008980546E+01  0.22622389778E+02  0.25500000000E-02 0. -1.
         -2    1    1    2  502    0  0.12393068777E+02 -0.16482647069E+02 -0.53481701779E+01  0.21304195335E+02  0.25500000000E-02 0. -1.
<mgrwt>
<rscale>  0 0.43748381E+02</rscale>
<asrwt>0</asrwt>
<pdfrwt beam="1">  1        1 0.36830241E-02 0.43748381E+02</pdfrwt>
<pdfrwt beam="2">  1       -1 0.30749121E-02 0.43748381E+02</pdfrwt>
<totfact> 0.61471491E+05</totfact>
</mgrwt>
</event>
<event>
 4    1  0.2051373E-002  0.5405574E+02  0.7818608E-02  0.1424618E+00
         -1   -1    0    0  501    0 -0.00000000000E+00  0.00000000000E+00  0.39612960770E+01  0.39612992832E+01  0.50400000000E-02 0. -1.
          1   -1    0    0    0  501  0.00000000000E+00 -0.00000000000E+00 -0.18441071858E+03  0.18441071865E+03  0.50400000000E-02 0. -1.
          2    1    1    2    0  502  0.20583880515E+02 -0.11514625570E+02 -0.13622148154E+03  0.13824823608E+03  0.25500000000E-02 0. -1.
         -2    1    1    2  502    0 -0.20583880515E+02  0.11514625570E+02 -0.44227940961E+02  0.50123781853E+02  0.25500000000E-02 0. -1.
<mgrwt>
<rscale>  0 0.54055740E+02</rscale>
<asrwt>0</asrwt>
<pdfrwt beam="2">  1        1 0.28370873E-01 0.54055740E+02</pdfrwt>
<pdfrwt beam="1">  1       -1 0.60943056E-03 0.54055740E+02</pdfrwt>
<totfact> 0.45547389E+05</totfact>
</mgrwt>
</event>
<event>
 4    1  0.2051373E-002  0.7447705E+02  0.7818608E-02  0.1345498E+00
          1   -1    0    0    0  501  0.00000000000E+00  0.00000000000E+00  0.15855507888E+03  0.15855507896E+03  0.50400000000E-02 0.  1.
         -1   -1    0    0  501    0 -0.00000000000E+00 -0.00000000000E+00 -0.87459048138E+01  0.87459062660E+01  0.50400000000E-02 0.  1.
          2    1    1    2    0  502 -0.25054941800E+02 -0.23614436956E+02  0.43032156335E+02  0.55110418495E+02  0.25500000000E-02 0. -1.
         -2    1    1    2  502    0  0.25054941800E+02  0.23614436956E+02  0.10677701773E+03  0.11219056673E+03  0.25500000000E-02 0. -1.
<mgrwt>
<rscale>  0 0.74477050E+02</rscale>
<asrwt>0</asrwt>
<pdfrwt beam="1">  1        1 0.24393088E-01 0.74477050E+02</pdfrwt>
<pdfrwt beam="2">  1       -1 0.13455240E-02 0.74477050E+02</pdfrwt>
<totfact> 0.19412913E+05</totfact>
</mgrwt>
</event>
<event>
 4    1  0.2051373E-002  0.1177019E+03  0.7818608E-02  0.1246937E+00
          1   -1    0    0    0  501  0.00000000000E+00  0.00000000000E+00  0.41467203980E+03  0.41467203983E+03  0.50400000000E-02 0.  1.
         -1   -1    0    0  501    0 -0.00000000000E+00 -0.00000000000E+00 -0.83522311524E+01  0.83522326731E+01  0.50400000000E-02 0.  1.
          2    1    1    2    0  502 -0.58254286566E+02  0.78059602031E+01  0.21390727410E+03  0.22183511182E+03  0.25500000000E-02 0. -1.
         -2    1    1    2  502    0  0.58254286566E+02 -0.78059602031E+01  0.19241253455E+03  0.20118916068E+03  0.25500000000E-02 0. -1.
<mgrwt>
<rscale>  0 0.11770195E+03</rscale>
<asrwt>0</asrwt>
<pdfrwt beam="1">  1        1 0.63795701E-01 0.11770195E+03</pdfrwt>
<pdfrwt beam="2">  1       -1 0.12849587E-02 0.11770195E+03</pdfrwt>
<totfact> 0.68277423E+04</totfact>
</mgrwt>
</event>
<event>
 4    1  0.2051373E-002  0.5421228E+02  0.7818608E-02  0.1423861E+00
         -1   -1    0    0  501    0 -0.00000000000E+00  0.00000000000E+00  0.21059748845E+02  0.21059749448E+02  0.50400000000E-02 0.  1.
          1   -1    0    0    0  501  0.00000000000E+00 -0.00000000000E+00 -0.34888489609E+02  0.34888489973E+02  0.50400000000E-02 0.  1.
          2    1    1    2    0  502  0.18356999733E+02 -0.17960314207E+02 -0.15863283627E+02  0.30186024905E+02  0.25500000000E-02 0. -1.
         -2    1    1    2  502    0 -0.18356999733E+02  0.17960314207E+02  0.20345428633E+01  0.25762214516E+02  0.25500000000E-02 0. -1.
<mgrwt>
<rscale>  0 0.54212281E+02</rscale>
<asrwt>0</asrwt>
<pdfrwt beam="2">  1        1 0.53674600E-02 0.54212281E+02</pdfrwt>
<pdfrwt beam="1">  1       -1 0.32399615E-02 0.54212281E+02</pdfrwt>
<totfact> 0.36542338E+05</totfact>
</mgrwt>
</event>
<event>
 4    1  0.2051373E-002  0.1036205E+03  0.7818608E-02  0.1272862E+00
          1   -1    0    0    0  501  0.00000000000E+00  0.00000000000E+00  0.11387669714E+04  0.11387669714E+04  0.50400000000E-02 0.  1.
         -1   -1    0    0  501    0 -0.00000000000E+00 -0.00000000000E+00 -0.23571984374E+01  0.23572038255E+01  0.50400000000E-02 0.  1.
          2    1    1    2    0  502 -0.33138658851E+02 -0.39103926479E+02  0.65135863090E+03  0.65337229344E+03  0.25500000000E-02 0. -1.
         -2    1    1    2  502    0  0.33138658851E+02  0.39103926479E+02  0.48505114207E+03  0.48775188181E+03  0.25500000000E-02 0. -1.
<mgrwt>
<rscale>  0 0.10362052E+03</rscale>
<asrwt>0</asrwt>
<pdfrwt beam="1">  1        1 0.17519506E+00 0.10362052E+03</pdfrwt>
<pdfrwt beam="2">  1       -1 0.36264605E-03 0.10362052E+03</pdfrwt>
<totfact> 0.92680683E+04</totfact>
</mgrwt>
</event>
<event>
 4    1  0.2051373E-002  0.6843072E+02  0.7818608E-02  0.1365512E+00
          1   -1    0    0    0  501  0.00000000000E+00  0.00000000000E+00  0.23939745242E+02  0.23939745773E+02  0.50400000000E-02 0. -1.
         -1   -1    0    0  501    0 -0.00000000000E+00 -0.00000000000E+00 -0.48901556522E+02  0.48901556781E+02  0.50400000000E-02 0. -1.
          2    1    1    2    0  502  0.97668702688E+01 -0.26494612265E+02  0.80863201358E+01  0.29372518002E+02  0.25500000000E-02 0. -1.
         -2    1    1    2  502    0 -0.97668702688E+01  0.26494612265E+02 -0.33048131415E+02  0.43468784552E+02  0.25500000000E-02 0. -1.
<mgrwt>
<rscale>  0 0.68430719E+02</rscale>
<asrwt>0</asrwt>
<pdfrwt beam="1">  1        1 0.36830378E-02 0.68430719E+02</pdfrwt>
<pdfrwt beam="2">  1       -1 0.75233165E-02 0.68430719E+02</pdfrwt>
<totfact> 0.18804019E+05</totfact>
</mgrwt>
</event>
<event>
 4    1  0.2051373E-002  0.8330436E+02  0.7818608E-02  0.1319927E+00
          1   -1    0    0    0  501  0.00000000000E+00  0.00000000000E+00  0.50615961029E+03  0.50615961031E+03  0.50400000000E-02 0. -1.
         -1   -1    0    0  501    0 -0.00000000000E+00 -0.00000000000E+00 -0.34275814050E+01  0.34275851105E+01  0.50400000000E-02 0. -1.
          2    1    1    2    0  502  0.30297552520E+02 -0.27555929237E+02  0.29780550595E+03  0.30060836699E+03  0.25500000000E-02 0. -1.
         -2    1    1    2  502    0 -0.30297552520E+02  0.27555929237E+02  0.20492652294E+03  0.20897882843E+03  0.25500000000E-02 0. -1.
<mgrwt>
<rscale>  0 0.83304363E+02</rscale>
<asrwt>0</asrwt>
<pdfrwt beam="1">  1        1 0.77870771E-01 0.83304363E+02</pdfrwt>
<pdfrwt beam="2">  1       -1 0.52732009E-03 0.83304363E+02</pdfrwt>
<totfact> 0.17696458E+05</totfact>
</mgrwt>
</event>
<event>
 4    1  0.2051373E-002  0.1354348E+03  0.7818608E-02  0.1219607E+00
          1   -1    0    0    0  501  0.00000000000E+00  0.00000000000E+00  0.11319916758E+04  0.11319916758E+04  0.50400000000E-02 0. -1.
         -1   -1    0    0  501    0 -0.00000000000E+00 -0.00000000000E+00 -0.40509548287E+01  0.40509579640E+01  0.50400000000E-02 0. -1.
          2    1    1    2    0  502 -0.13376165301E+02 -0.15263733668E+02  0.11058804263E+04  0.11060666439E+04  0.25500000000E-02 0.  1.
         -2    1    1    2  502    0  0.13376165301E+02  0.15263733668E+02  0.22060294629E+02  0.29975989880E+02  0.25500000000E-02 0.  1.
<mgrwt>
<rscale>  0 0.13543484E+03</rscale>
<asrwt>0</asrwt>
<pdfrwt beam="1">  1        1 0.17415280E+00 0.13543484E+03</pdfrwt>
<pdfrwt beam="2">  1       -1 0.62322323E-03 0.13543484E+03</pdfrwt>
<totfact> 0.44984522E+04</totfact>
</mgrwt>
</event>
<event>
 4    1  0.2051373E-002  0.5446694E+02  0.7818608E-02  0.1422637E+00
         -1   -1    0    0  501    0 -0.00000000000E+00  0.00000000000E+00  0.94661645473E+00  0.94662987169E+00  0.50400000000E-02 0. -1.
          1   -1    0    0    0  501  0.00000000000E+00 -0.00000000000E+00 -0.78348152436E+03  0.78348152437E+03  0.50400000000E-02 0. -1.
          2    1    1    2    0  502  0.22092712699E+02  0.16313553330E+01 -0.61939691292E+03  0.61979293721E+03  0.25500000000E-02 0.  1.
         -2    1    1    2  502    0 -0.22092712699E+02 -0.16313553330E+01 -0.16313799498E+03  0.16463521703E+03  0.25500000000E-02 0.  1.
<mgrwt>
<rscale>  0 0.54466936E+02</rscale>
<asrwt>0</asrwt>
<pdfrwt beam="2">  1        1 0.12053510E+00 0.54466936E+02</pdfrwt>
<pdfrwt beam="1">  1       -1 0.14563496E-03 0.54466936E+02</pdfrwt>
<totfact> 0.53350859E+05</totfact>
</mgrwt>
</event>
<event>
 4    1  0.2051373E-002  0.5649819E+02  0.7818608E-02  0.1413144E+00
          1   -1    0    0    0  501  0.00000000000E+00  0.00000000000E+00  0.31344154489E+03  0.31344154493E+03  0.50400000000E-02 0. -1.
         -1   -1    0    0  501    0 -0.00000000000E+00 -0.00000000000E+00 -0.25459634010E+01  0.25459683896E+01  0.50400000000E-02 0. -1.
          2    1    1    2    0  502 -0.19607699884E+02 -0.20335212438E+02  0.15639578037E+03  0.15892647006E+03  0.25500000000E-02 0. -1.
         -2    1    1    2  502    0  0.19607699884E+02  0.20335212438E+02  0.15449980111E+03  0.15706104326E+03  0.25500000000E-02 0. -1.
<mgrwt>
<rscale>  0 0.56498195E+02</rscale>
<asrwt>0</asrwt>
<pdfrwt beam="1">  1        1 0.48221758E-01 0.56498195E+02</pdfrwt>
<pdfrwt beam="2">  1       -1 0.39168721E-03 0.56498195E+02</pdfrwt>
<totfact> 0.44750848E+05</totfact>
</mgrwt>
</event>
<event>
 4    1  0.2051373E-002  0.6781002E+02  0.7818608E-02  0.1367703E+00
         -1   -1    0    0  501    0 -0.00000000000E+00  0.00000000000E+00  0.32490386233E+02  0.32490386624E+02  0.50400000000E-02 0. -1.
          1   -1    0    0    0  501  0.00000000000E+00 -0.00000000000E+00 -0.35381230397E+02  0.35381230756E+02  0.50400000000E-02 0. -1.
          2    1    1    2    0  502  0.11553734523E+01  0.31413477363E+02 -0.14161622898E+02  0.34477427652E+02  0.25500000000E-02 0.  1.
         -2    1    1    2  502    0 -0.11553734523E+01 -0.31413477363E+02  0.11270778733E+02  0.33394189729E+02  0.25500000000E-02 0.  1.
<mgrwt>
<rscale>  0 0.67810025E+02</rscale>
<asrwt>0</asrwt>
<pdfrwt beam="2">  1        1 0.54432663E-02 0.67810025E+02</pdfrwt>
<pdfrwt beam="1">  1       -1 0.49985210E-02 0.67810025E+02</pdfrwt>
<totfact> 0.20203744E+05</totfact>
</mgrwt>
</event>
<event>
 4    1  0.2051373E-002  0.7035062E+02  0.7818608E-02  0.1358905E+00
          1   -1    0    0    0  501  0.00000000000E+00  0.00000000000E+00  0.30373218667E+03  0.30373218672E+03  0.50400000000E-02 0. -1.
         -1   -1    0    0  501    0 -0.00000000000E+00 -0.00000000000E+00 -0.40736609386E+01  0.40736640564E+01  0.50400000000E-02 0. -1.
          2    1    1    2    0  502  0.17197790419E+02 -0.29787538290E+02  0.11760575971E+03  0.12253234739E+03  0.25500000000E-02 0.  1.
         -2    1    1    2  502    0 -0.17197790419E+02  0.29787538290E+02  0.18205276602E+03  0.18527350338E+03  0.25500000000E-02 0.  1.
<mgrwt>
<rscale>  0 0.70350620E+02</rscale>
<asrwt>0</asrwt>
<pdfrwt beam="1">  1        1 0.46728053E-01 0.70350620E+02</pdfrwt>
<pdfrwt beam="2">  1       -1 0.62671699E-03 0.70350620E+02</pdfrwt>
<totfact> 0.25383088E+05</totfact>
</mgrwt>
</event>
<event>
 4    1  0.2051373E-002  0.8408085E+02  0.7818608E-02  0.1317854E+00
         -1   -1    0    0  501    0 -0.00000000000E+00  0.00000000000E+00  0.10471346074E+02  0.10471347287E+02  0.50400000000E-02 0. -1.
          1   -1    0    0    0  501  0.00000000000E+00 -0.00000000000E+00 -0.16878413092E+03  0.16878413099E+03  0.50400000000E-02 0. -1.
          2    1    1    2    0  502  0.17321941618E+02 -0.29964670117E+02 -0.28280823419E+02  0.44696041171E+02  0.25500000000E-02 0.  1.
         -2    1    1    2  502    0 -0.17321941618E+02  0.29964670117E+02 -0.13003196143E+03  0.13455943711E+03  0.25500000000E-02 0.  1.
<mgrwt>
<rscale>  0 0.84080846E+02</rscale>
<asrwt>0</asrwt>
<pdfrwt beam="2">  1        1 0.25966788E-01 0.84080846E+02</pdfrwt>
<pdfrwt beam="1">  1       -1 0.16109765E-02 0.84080846E+02</pdfrwt>
<totfact> 0.14237958E+05</totfact>
</mgrwt>
</event>
<event>
 4    1  0.2051373E-002  0.5140158E+02  0.7818608E-02  0.1437925E+00
         -1   -1    0    0  501    0 -0.00000000000E+00  0.00000000000E+00  0.43372198789E+02  0.43372199082E+02  0.50400000000E-02 0.  1.
          1   -1    0    0    0  501  0.00000000000E+00 -0.00000000000E+00 -0.15229351454E+02  0.15229352288E+02  0.50400000000E-02 0.  1.
          2    1    1    2    0  502  0.17773046055E+02 -0.15091528340E+02  0.17451779770E+01  0.23381211397E+02  0.25500000000E-02 0.  1.
         -2    1    1    2  502    0 -0.17773046055E+02  0.15091528340E+02  0.26397669358E+02  0.35220339972E+02  0.25500000000E-02 0.  1.
<mgrwt>
<rscale>  0 0.51401576E+02</rscale>
<asrwt>0</asrwt>
<pdfrwt beam="2">  1        1 0.23429772E-02 0.51401576E+02</pdfrwt>
<pdfrwt beam="1">  1       -1 0.66726460E-02 0.51401576E+02</pdfrwt>
<totfact> 0.38777500E+05</totfact>
</mgrwt>
</event>
<event>
 4    1  0.2051373E-002  0.5173512E+02  0.7818608E-02  0.1436201E+00
          1   -1    0    0    0  501  0.00000000000E+00  0.00000000000E+00  0.41893734867E+00  0.41896766428E+00  0.50400000000E-02 0. -1.
         -1   -1    0    0  501    0 -0.00000000000E+00 -0.00000000000E+00 -0.15971516503E+04  0.15971516504E+04  0.50400000000E-02 0. -1.
          2    1    1    2    0  502 -0.27938863482E+01  0.23998333718E+02 -0.10837413482E+04  0.10840106252E+04  0.25500000000E-02 0. -1.
         -2    1    1    2  502    0  0.27938863482E+01 -0.23998333718E+02 -0.51299136480E+03  0.51355999278E+03  0.25500000000E-02 0. -1.
<mgrwt>
<rscale>  0 0.51735122E+02</rscale>
<asrwt>0</asrwt>
<pdfrwt beam="1">  1        1 0.64455511E-04 0.51735122E+02</pdfrwt>
<pdfrwt beam="2">  1       -1 0.24571077E+00 0.51735122E+02</pdfrwt>
<totfact> 0.52259304E+04</totfact>
</mgrwt>
</event>
<event>
 4    1  0.2051373E-002  0.7174809E+02  0.7818608E-02  0.1354247E+00
         -1   -1    0    0  501    0 -0.00000000000E+00  0.00000000000E+00  0.25026572595E+01  0.25026623345E+01  0.50400000000E-02 0. -1.
          1   -1    0    0    0  501  0.00000000000E+00 -0.00000000000E+00 -0.51423179394E+03  0.51423179396E+03  0.50400000000E-02 0. -1.
          2    1    1    2    0  502 -0.31691167863E+02  0.10732550768E+02 -0.16267377415E+03  0.16607912142E+03  0.25500000000E-02 0.  1.
         -2    1    1    2  502    0  0.31691167863E+02 -0.10732550768E+02 -0.34905536253E+03  0.35065533488E+03  0.25500000000E-02 0.  1.
<mgrwt>
<rscale>  0 0.71748094E+02</rscale>
<asrwt>0</asrwt>
<pdfrwt beam="2">  1        1 0.79112500E-01 0.71748094E+02</pdfrwt>
<pdfrwt beam="1">  1       -1 0.38502500E-03 0.71748094E+02</pdfrwt>
<totfact> 0.26160765E+05</totfact>
</mgrwt>
</event>
<event>
 4    1  0.2051373E-002  0.5195493E+02  0.7818608E-02  0.1435074E+00
         -1   -1    0    0  501    0 -0.00000000000E+00  0.00000000000E+00  0.18016908422E+03  0.18016908429E+03  0.50400000000E-02 0. -1.
          1   -1    0    0    0  501  0.00000000000E+00 -0.00000000000E+00 -0.37455283587E+01  0.37455317496E+01  0.50400000000E-02 0. -1.
          2    1    1    2    0  502 -0.24525680351E+02 -0.85216297357E+01  0.85246805428E+02  0.89113102360E+02  0.25500000000E-02 0.  1.
         -2    1    1    2  502    0  0.24525680351E+02  0.85216297357E+01  0.91176750436E+02  0.94801513683E+02  0.25500000000E-02 0.  1.
<mgrwt>
<rscale>  0 0.51954932E+02</rscale>
<asrwt>0</asrwt>
<pdfrwt beam="2">  1        1 0.57623547E-03 0.51954932E+02</pdfrwt>
<pdfrwt beam="1">  1       -1 0.27718317E-01 0.51954932E+02</pdfrwt>
<totfact> 0.29969220E+05</totfact>
</mgrwt>
</event>
<event>
 4    1  0.2051373E-002  0.4739687E+02  0.7818608E-02  0.1459910E+00
          1   -1    0    0    0  501  0.00000000000E+00  0.00000000000E+00  0.18581234768E+04  0.18581234768E+04  0.50400000000E-02 0. -1.
         -1   -1    0    0  501    0 -0.00000000000E+00 -0.00000000000E+00 -0.30222794406E+00  0.30226996504E+00  0.50400000000E-02 0. -1.
          2    1    1    2    0  502  0.77222613752E+01  0.19899378351E+02  0.13325959251E+04  0.13327668656E+04  0.25500000000E-02 0.  1.
         -2    1    1    2  502    0 -0.77222613752E+01 -0.19899378351E+02  0.52522532380E+03  0.52565888116E+03  0.25500000000E-02 0.  1.
<mgrwt>
<rscale>  0 0.47396873E+02</rscale>
<asrwt>0</asrwt>
<pdfrwt beam="1">  1        1 0.28586291E+00 0.47396873E+02</pdfrwt>
<pdfrwt beam="2">  1       -1 0.46500205E-04 0.47396873E+02</pdfrwt>
<totfact> 0.47575873E+05</totfact>
</mgrwt>
</event>
<event>
 4    1  0.2051373E-002  0.5201762E+02  0.7818608E-02  0.1434753E+00
          1   -1    0    0    0  501  0.00000000000E+00  0.00000000000E+00  0.43568384197E+03  0.43568384200E+03  0.50400000000E-02 0.  1.
         -1   -1    0    0  501    0 -0.00000000000E+00 -0.00000000000E+00 -0.15526311319E+01  0.15526393120E+01  0.50400000000E-02 0.  1.
          2    1    1    2    0  502  0.96200290479E+01  0.21440694643E+02  0.12338627628E+03  0.12560422575E+03  0.25500000000E-02 0. -1.
         -2    1    1    2  502    0 -0.96200290479E+01 -0.21440694643E+02  0.31074493456E+03  0.31163225556E+03  0.25500000000E-02 0. -1.
<mgrwt>
<rscale>  0 0.52017616E+02</rscale>
<asrwt>0</asrwt>
<pdfrwt beam="1">  1        1 0.67028272E-01 0.52017616E+02</pdfrwt>
<pdfrwt beam="2">  1       -1 0.23886700E-03 0.52017616E+02</pdfrwt>
<totfact> 0.58051376E+05</totfact>
</mgrwt>
</event>
<event>
 4    1  0.2051373E-002  0.6862271E+02  0.7818608E-02  0.1364840E+00
         -1   -1    0    0  501    0 -0.00000000000E+00  0.00000000000E+00  0.22132207776E+02  0.22132208350E+02  0.50400000000E-02 0.  1.
          1   -1    0    0    0  501  0.00000000000E+00 -0.00000000000E+00 -0.53192576862E+02  0.53192577101E+02  0.50400000000E-02 0.  1.
          2    1    1    2    0  502  0.20419036490E+00 -0.32502081334E+02 -0.34637396422E+01  0.32686763125E+02  0.25500000000E-02 0. -1.
         -2    1    1    2  502    0 -0.20419036490E+00  0.32502081334E+02 -0.27596629444E+02  0.42638022326E+02  0.25500000000E-02 0. -1.
<mgrwt>
<rscale>  0 0.68622713E+02</rscale>
<asrwt>0</asrwt>
<pdfrwt beam="2">  1        1 0.81834734E-02 0.68622713E+02</pdfrwt>
<pdfrwt beam="1">  1       -1 0.34049551E-02 0.68622713E+02</pdfrwt>
<totfact> 0.20537929E+05</totfact>
</mgrwt>
</event>
<event>
 4    1  0.2051373E-002  0.4568519E+02  0.7818608E-02  0.1470109E+00
         -1   -1    0    0  501    0 -0.00000000000E+00  0.00000000000E+00  0.44856665032E+00  0.44859496361E+00  0.50400000000E-02 0. -1.
          1   -1    0    0    0  501  0.00000000000E+00 -0.00000000000E+00 -0.11631885117E+04  0.11631885117E+04  0.50400000000E-02 0. -1.
          2    1    1    2    0  502  0.18935539936E+02  0.80866531675E+01 -0.32943398325E+03  0.33007680615E+03  0.25500000000E-02 0.  1.
         -2    1    1    2  502    0 -0.18935539936E+02 -0.80866531675E+01 -0.83330596180E+03  0.83356030052E+03  0.25500000000E-02 0.  1.
<mgrwt>
<rscale>  0 0.45685186E+02</rscale>
<asrwt>0</asrwt>
<pdfrwt beam="2">  1        1 0.17894967E+00 0.45685186E+02</pdfrwt>
<pdfrwt beam="1">  1       -1 0.69013364E-04 0.45685186E+02</pdfrwt>
<totfact> 0.75372594E+05</totfact>
</mgrwt>
</event>
<event>
 4    1  0.2051373E-002  0.5471903E+02  0.7818608E-02  0.1421432E+00
         -1   -1    0    0  501    0 -0.00000000000E+00  0.00000000000E+00  0.84266323193E+01  0.84266338265E+01  0.50400000000E-02 0.  1.
          1   -1    0    0    0  501  0.00000000000E+00 -0.00000000000E+00 -0.88830616803E+02  0.88830616946E+02  0.50400000000E-02 0.  1.
          2    1    1    2    0  502  0.17683067390E+02 -0.19522006207E+02 -0.27051270823E+02  0.37756732622E+02  0.25500000000E-02 0.  1.
         -2    1    1    2  502    0 -0.17683067390E+02  0.19522006207E+02 -0.53352713660E+02  0.59500518150E+02  0.25500000000E-02 0.  1.
<mgrwt>
<rscale>  0 0.54719029E+02</rscale>
<asrwt>0</asrwt>
<pdfrwt beam="2">  1        1 0.13666248E-01 0.54719029E+02</pdfrwt>
<pdfrwt beam="1">  1       -1 0.12964052E-02 0.54719029E+02</pdfrwt>
<totfact> 0.39526114E+05</totfact>
</mgrwt>
</event>
<event>
 4    1  0.2051373E-002  0.7718707E+02  0.7818608E-02  0.1337229E+00
         -1   -1    0    0  501    0 -0.00000000000E+00  0.00000000000E+00  0.94934170033E+01  0.94934183411E+01  0.50400000000E-02 0. -1.
          1   -1    0    0    0  501  0.00000000000E+00 -0.00000000000E+00 -0.15689405914E+03  0.15689405922E+03  0.50400000000E-02 0. -1.
          2    1    1    2    0  502 -0.26006037121E+02 -0.28468123312E+02 -0.77250802766E+02  0.86339067323E+02  0.25500000000E-02 0. -1.
         -2    1    1    2  502    0  0.26006037121E+02  0.28468123312E+02 -0.70149839374E+02  0.80048410242E+02  0.25500000000E-02 0. -1.
<mgrwt>
<rscale>  0 0.77187067E+02</rscale>
<asrwt>0</asrwt>
<pdfrwt beam="2">  1        1 0.24137546E-01 0.77187067E+02</pdfrwt>
<pdfrwt beam="1">  1       -1 0.14605259E-02 0.77187067E+02</pdfrwt>
<totfact> 0.17634028E+05</totfact>
</mgrwt>
</event>
<event>
 4    1  0.2051373E-002  0.1065656E+03  0.7818608E-02  0.1267065E+00
          1   -1    0    0    0  501  0.00000000000E+00  0.00000000000E+00  0.15023790563E+03  0.15023790572E+03  0.50400000000E-02 0.  1.
         -1   -1    0    0  501    0 -0.00000000000E+00 -0.00000000000E+00 -0.18897079643E+02  0.18897080315E+02  0.50400000000E-02 0.  1.
          2    1    1    2    0  502 -0.28887943858E+02  0.32974015310E+02  0.11373910154E+03  0.12189496385E+03  0.25500000000E-02 0.  1.
         -2    1    1    2  502    0  0.28887943858E+02 -0.32974015310E+02  0.17601724453E+02  0.47240022187E+02  0.25500000000E-02 0.  1.
<mgrwt>
<rscale>  0 0.10656562E+03</rscale>
<asrwt>0</asrwt>
<pdfrwt beam="1">  1        1 0.23113523E-01 0.10656562E+03</pdfrwt>
<pdfrwt beam="2">  1       -1 0.29072432E-02 0.10656562E+03</pdfrwt>
<totfact> 0.73343761E+04</totfact>
</mgrwt>
</event>
<event>
 4    1  0.2051373E-002  0.6333923E+02  0.7818608E-02  0.1384330E+00
          1   -1    0    0    0  501  0.00000000000E+00  0.00000000000E+00  0.10695459384E+01  0.10695578133E+01  0.50400000000E-02 0. -1.
         -1   -1    0    0  501    0 -0.00000000000E+00 -0.00000000000E+00 -0.93774286649E+03  0.93774286651E+03  0.50400000000E-02 0. -1.
          2    1    1    2    0  502 -0.12718795662E+01  0.26858013828E+02 -0.71635307807E+03  0.71685751935E+03  0.25500000000E-02 0.  1.
         -2    1    1    2  502    0  0.12718795662E+01 -0.26858013828E+02 -0.22032024248E+03  0.22195490497E+03  0.25500000000E-02 0.  1.
<mgrwt>
<rscale>  0 0.63339234E+02</rscale>
<asrwt>0</asrwt>
<pdfrwt beam="1">  1        1 0.16454719E-03 0.63339234E+02</pdfrwt>
<pdfrwt beam="2">  1       -1 0.14426748E+00 0.63339234E+02</pdfrwt>
<totfact> 0.70950499E+04</totfact>
</mgrwt>
</event>
<event>
 4    1  0.2051373E-002  0.4050417E+02  0.7818608E-02  0.1504534E+00
          1   -1    0    0    0  501  0.00000000000E+00  0.00000000000E+00  0.92868931023E+01  0.92868944699E+01  0.50400000000E-02 0.  1.
         -1   -1    0    0  501    0 -0.00000000000E+00 -0.00000000000E+00 -0.44164070111E+02  0.44164070399E+02  0.50400000000E-02 0.  1.
          2    1    1    2    0  502 -0.16082578028E+02  0.11982389825E+02 -0.13724777239E+02  0.24302191232E+02  0.25500000000E-02 0.  1.
         -2    1    1    2  502    0  0.16082578028E+02 -0.11982389825E+02 -0.21152399771E+02  0.29148773636E+02  0.25500000000E-02 0.  1.
<mgrwt>
<rscale>  0 0.40504175E+02</rscale>
<asrwt>0</asrwt>
<pdfrwt beam="1">  1        1 0.14287529E-02 0.40504175E+02</pdfrwt>
<pdfrwt beam="2">  1       -1 0.67944723E-02 0.40504175E+02</pdfrwt>
<totfact> 0.69125767E+05</totfact>
</mgrwt>
</event>
<event>
 4    1  0.2051373E-002  0.5732138E+02  0.7818608E-02  0.1409429E+00
         -1   -1    0    0  501    0 -0.00000000000E+00  0.00000000000E+00  0.54928573537E+03  0.54928573539E+03  0.50400000000E-02 0.  1.
          1   -1    0    0    0  501  0.00000000000E+00 -0.00000000000E+00 -0.14954565220E+01  0.14954650149E+01  0.50400000000E-02 0.  1.
          2    1    1    2    0  502 -0.21517484991E+02  0.56708018140E+01  0.44745704754E+03  0.44801001055E+03  0.25500000000E-02 0. -1.
         -2    1    1    2  502    0  0.21517484991E+02 -0.56708018140E+01  0.10033323131E+03  0.10277118986E+03  0.25500000000E-02 0. -1.
<mgrwt>
<rscale>  0 0.57321385E+02</rscale>
<asrwt>0</asrwt>
<pdfrwt beam="2">  1        1 0.23007103E-03 0.57321385E+02</pdfrwt>
<pdfrwt beam="1">  1       -1 0.84505447E-01 0.57321385E+02</pdfrwt>
<totfact> 0.14603285E+05</totfact>
</mgrwt>
</event>
<event>
 4    1  0.2051373E-002  0.4285005E+02  0.7818608E-02  0.1488228E+00
         -1   -1    0    0  501    0 -0.00000000000E+00  0.00000000000E+00  0.24754512646E+02  0.24754513159E+02  0.50400000000E-02 0. -1.
          1   -1    0    0    0  501  0.00000000000E+00 -0.00000000000E+00 -0.18543352535E+02  0.18543353220E+02  0.50400000000E-02 0. -1.
          2    1    1    2    0  502 -0.20491411434E+02  0.57210216981E+01  0.54859195221E+00  0.21282128452E+02  0.25500000000E-02 0.  1.
         -2    1    1    2  502    0  0.20491411434E+02 -0.57210216981E+01  0.56625681592E+01  0.22015737927E+02  0.25500000000E-02 0.  1.
<mgrwt>
<rscale>  0 0.42850049E+02</rscale>
<asrwt>0</asrwt>
<pdfrwt beam="2">  1        1 0.28528236E-02 0.42850049E+02</pdfrwt>
<pdfrwt beam="1">  1       -1 0.38083866E-02 0.42850049E+02</pdfrwt>
<totfact> 0.63513794E+05</totfact>
</mgrwt>
</event>
<event>
 4    1  0.2051373E-002  0.5437170E+02  0.7818608E-02  0.1423094E+00
         -1   -1    0    0  501    0 -0.00000000000E+00  0.00000000000E+00  0.49869559691E+00  0.49872106430E+00  0.50400000000E-02 0.  1.
          1   -1    0    0    0  501  0.00000000000E+00 -0.00000000000E+00 -0.14819694010E+04  0.14819694010E+04  0.50400000000E-02 0.  1.
          2    1    1    2    0  502 -0.25394177840E+02 -0.41115354399E+00 -0.47633488122E+03  0.47701148035E+03  0.25500000000E-02 0.  1.
         -2    1    1    2  502    0  0.25394177840E+02  0.41115354399E+00 -0.10051358242E+04  0.10054566417E+04  0.25500000000E-02 0.  1.
<mgrwt>
<rscale>  0 0.54371702E+02</rscale>
<asrwt>0</asrwt>
<pdfrwt beam="2">  1        1 0.22799177E+00 0.54371702E+02</pdfrwt>
<pdfrwt beam="1">  1       -1 0.76725546E-04 0.54371702E+02</pdfrwt>
<totfact> 0.42386560E+05</totfact>
</mgrwt>
</event>
<event>
 4    1  0.2051373E-002  0.8551658E+02  0.7818608E-02  0.1314087E+00
         -1   -1    0    0  501    0 -0.00000000000E+00  0.00000000000E+00  0.60814538402E+02  0.60814538611E+02  0.50400000000E-02 0. -1.
          1   -1    0    0    0  501  0.00000000000E+00 -0.00000000000E+00 -0.30063061861E+02  0.30063062284E+02  0.50400000000E-02 0. -1.
          2    1    1    2    0  502  0.22640215307E+02 -0.12773202225E+02  0.51453037557E+02  0.57646761614E+02  0.25500000000E-02 0. -1.
         -2    1    1    2  502    0 -0.22640215307E+02  0.12773202225E+02 -0.20701561017E+02  0.33230839280E+02  0.25500000000E-02 0. -1.
<mgrwt>
<rscale>  0 0.85516578E+02</rscale>
<asrwt>0</asrwt>
<pdfrwt beam="2">  1        1 0.46250865E-02 0.85516578E+02</pdfrwt>
<pdfrwt beam="1">  1       -1 0.93560828E-02 0.85516578E+02</pdfrwt>
<totfact> 0.10409789E+05</totfact>
</mgrwt>
</event>
<event>
 4    1  0.2051373E-002  0.4689946E+02  0.7818608E-02  0.1462820E+00
          1   -1    0    0    0  501  0.00000000000E+00  0.00000000000E+00  0.32001219431E+03  0.32001219435E+03  0.50400000000E-02 0.  1.
         -1   -1    0    0  501    0 -0.00000000000E+00 -0.00000000000E+00 -0.17183367847E+01  0.17183441760E+01  0.50400000000E-02 0.  1.
          2    1    1    2    0  502 -0.10916121855E+02 -0.19969150795E+02  0.12036440701E+03  0.12249701703E+03  0.25500000000E-02 0. -1.
         -2    1    1    2  502    0  0.10916121855E+02  0.19969150795E+02  0.19792945052E+03  0.19923352150E+03  0.25500000000E-02 0. -1.
<mgrwt>
<rscale>  0 0.46899464E+02</rscale>
<asrwt>0</asrwt>
<pdfrwt beam="1">  1        1 0.49232677E-01 0.46899464E+02</pdfrwt>
<pdfrwt beam="2">  1       -1 0.26435991E-03 0.46899464E+02</pdfrwt>
<totfact> 0.71548644E+05</totfact>
</mgrwt>
</event>
<event>
 4    1  0.2051373E-002  0.7631697E+02  0.7818608E-02  0.1339841E+00
         -1   -1    0    0  501    0 -0.00000000000E+00  0.00000000000E+00  0.25538206811E+01  0.25538256544E+01  0.50400000000E-02 0. -1.
          1   -1    0    0    0  501  0.00000000000E+00 -0.00000000000E+00 -0.57015301203E+03  0.57015301205E+03  0.50400000000E-02 0. -1.
          2    1    1    2    0  502 -0.27716196419E+02 -0.25973095435E+02 -0.25645178900E+03  0.25924951170E+03  0.25500000000E-02 0. -1.
         -2    1    1    2  502    0  0.27716196419E+02  0.25973095435E+02 -0.31114740235E+03  0.31345732600E+03  0.25500000000E-02 0. -1.
<mgrwt>
<rscale>  0 0.76316970E+02</rscale>
<asrwt>0</asrwt>
<pdfrwt beam="2">  1        1 0.87715747E-01 0.76316970E+02</pdfrwt>
<pdfrwt beam="1">  1       -1 0.39289633E-03 0.76316970E+02</pdfrwt>
<totfact> 0.22503017E+05</totfact>
</mgrwt>
</event>
<event>
 4    1  0.2051373E-002  0.4545889E+02  0.7818608E-02  0.1471497E+00
          1   -1    0    0    0  501  0.00000000000E+00  0.00000000000E+00  0.80633629571E+02  0.80633629728E+02  0.50400000000E-02 0. -1.
         -1   -1    0    0  501    0 -0.00000000000E+00 -0.00000000000E+00 -0.64070977210E+01  0.64070997033E+01  0.50400000000E-02 0. -1.
          2    1    1    2    0  502  0.19573009170E+02  0.60524917246E+01  0.55960529827E+02  0.59592921132E+02  0.25500000000E-02 0.  1.
         -2    1    1    2  502    0 -0.19573009170E+02 -0.60524917246E+01  0.18266002022E+02  0.27447808299E+02  0.25500000000E-02 0.  1.
<mgrwt>
<rscale>  0 0.45458889E+02</rscale>
<asrwt>0</asrwt>
<pdfrwt beam="1">  1        1 0.12405174E-01 0.45458889E+02</pdfrwt>
<pdfrwt beam="2">  1       -1 0.98570749E-03 0.45458889E+02</pdfrwt>
<totfact> 0.62425110E+05</totfact>
</mgrwt>
</event>
<event>
 4    1  0.2051373E-002  0.5634282E+02  0.7818608E-02  0.1413853E+00
          1   -1    0    0    0  501  0.00000000000E+00  0.00000000000E+00  0.13419426506E+01  0.13419521150E+01  0.50400000000E-02 0. -1.
         -1   -1    0    0  501    0 -0.00000000000E+00 -0.00000000000E+00 -0.59140058272E+03  0.59140058274E+03  0.50400000000E-02 0. -1.
          2    1    1    2    0  502 -0.27414388839E+02  0.23094952345E+01 -0.35880167179E+03  0.35985486265E+03  0.25500000000E-02 0.  1.
         -2    1    1    2  502    0  0.27414388839E+02 -0.23094952345E+01 -0.23125696828E+03  0.23288767221E+03  0.25500000000E-02 0.  1.
<mgrwt>
<rscale>  0 0.56342825E+02</rscale>
<asrwt>0</asrwt>
<pdfrwt beam="1">  1        1 0.20645392E-03 0.56342825E+02</pdfrwt>
<pdfrwt beam="2">  1       -1 0.90984498E-01 0.56342825E+02</pdfrwt>
<totfact> 0.14485588E+05</totfact>
</mgrwt>
</event>
<event>
 4    1  0.2051373E-002  0.4654041E+02  0.7818608E-02  0.1464948E+00
         -1   -1    0    0  501    0 -0.00000000000E+00  0.00000000000E+00  0.42846671245E+02  0.42846671541E+02  0.50400000000E-02 0.  1.
          1   -1    0    0    0  501  0.00000000000E+00 -0.00000000000E+00 -0.12638142449E+02  0.12638143454E+02  0.50400000000E-02 0.  1.
          2    1    1    2    0  502 -0.10115975714E+02  0.19056581945E+02  0.25498599465E+02  0.33401569742E+02  0.25500000000E-02 0.  1.
         -2    1    1    2  502    0  0.10115975714E+02 -0.19056581945E+02  0.47099293317E+01  0.22083245253E+02  0.25500000000E-02 0.  1.
<mgrwt>
<rscale>  0 0.46540407E+02</rscale>
<asrwt>0</asrwt>
<pdfrwt beam="2">  1        1 0.19443297E-02 0.46540407E+02</pdfrwt>
<pdfrwt beam="1">  1       -1 0.65917956E-02 0.46540407E+02</pdfrwt>
<totfact> 0.49508247E+05</totfact>
</mgrwt>
</event>
<event>
 4    1  0.2051373E-002  0.4693152E+02  0.7818608E-02  0.1462632E+00
          1   -1    0    0    0  501  0.00000000000E+00  0.00000000000E+00  0.41762413245E+02  0.41762413549E+02  0.50400000000E-02 0.  1.
         -1   -1    0    0  501    0 -0.00000000000E+00 -0.00000000000E+00 -0.13185105975E+02  0.13185106939E+02  0.50400000000E-02 0.  1.
          2    1    1    2    0  502 -0.20319719577E+02 -0.11726383923E+02  0.14865550435E+02  0.27773794840E+02  0.25500000000E-02 0.  1.
         -2    1    1    2  502    0  0.20319719577E+02  0.11726383923E+02  0.13711756835E+02  0.27173725648E+02  0.25500000000E-02 0.  1.
<mgrwt>
<rscale>  0 0.46931519E+02</rscale>
<asrwt>0</asrwt>
<pdfrwt beam="1">  1        1 0.64249866E-02 0.46931519E+02</pdfrwt>
<pdfrwt beam="2">  1       -1 0.20284780E-02 0.46931519E+02</pdfrwt>
<totfact> 0.53859486E+05</totfact>
</mgrwt>
</event>
<event>
 4    1  0.2051373E-002  0.4967661E+02  0.7818608E-02  0.1447094E+00
          1   -1    0    0    0  501  0.00000000000E+00  0.00000000000E+00  0.11653123150E+04  0.11653123150E+04  0.50400000000E-02 0.  1.
         -1   -1    0    0  501    0 -0.00000000000E+00 -0.00000000000E+00 -0.52940940019E+00  0.52943339015E+00  0.50400000000E-02 0.  1.
          2    1    1    2    0  502  0.23127702307E+01  0.24721895794E+02  0.59760520647E+03  0.59812081040E+03  0.25500000000E-02 0. -1.
         -2    1    1    2  502    0 -0.23127702307E+01 -0.24721895794E+02  0.56717769911E+03  0.56772093797E+03  0.25500000000E-02 0. -1.
<mgrwt>
<rscale>  0 0.49676606E+02</rscale>
<asrwt>0</asrwt>
<pdfrwt beam="1">  1        1 0.17927789E+00 0.49676606E+02</pdfrwt>
<pdfrwt beam="2">  1       -1 0.81449870E-04 0.49676606E+02</pdfrwt>
<totfact> 0.61228175E+05</totfact>
</mgrwt>
</event>
<event>
 4    1  0.2051373E-002  0.4378424E+02  0.7818608E-02  0.1482077E+00
          1   -1    0    0    0  501  0.00000000000E+00  0.00000000000E+00  0.33421853683E+01  0.33421891684E+01  0.50400000000E-02 0.  1.
         -1   -1    0    0  501    0 -0.00000000000E+00 -0.00000000000E+00 -0.14339858226E+03  0.14339858235E+03  0.50400000000E-02 0.  1.
          2    1    1    2    0  502 -0.12408456768E+02  0.17544717558E+02 -0.56016881626E+02  0.59997316167E+02  0.25500000000E-02 0.  1.
         -2    1    1    2  502    0  0.12408456768E+02 -0.17544717558E+02 -0.84039515269E+02  0.86743455353E+02  0.25500000000E-02 0.  1.
<mgrwt>
<rscale>  0 0.43784240E+02</rscale>
<asrwt>0</asrwt>
<pdfrwt beam="1">  1        1 0.51418277E-03 0.43784240E+02</pdfrwt>
<pdfrwt beam="2">  1       -1 0.22061316E-01 0.43784240E+02</pdfrwt>
<totfact> 0.48199141E+05</totfact>
</mgrwt>
</event>
<event>
 4    1  0.2051373E-002  0.9376527E+02  0.7818608E-02  0.1293981E+00
          1   -1    0    0    0  501  0.00000000000E+00  0.00000000000E+00  0.72157912736E+02  0.72157912912E+02  0.50400000000E-02 0.  1.
         -1   -1    0    0  501    0 -0.00000000000E+00 -0.00000000000E+00 -0.30460710262E+02  0.30460710679E+02  0.50400000000E-02 0.  1.
          2    1    1    2    0  502 -0.21764047162E+02 -0.18534660776E+02  0.61515914104E+02  0.67833731236E+02  0.25500000000E-02 0. -1.
         -2    1    1    2  502    0  0.21764047162E+02  0.18534660776E+02 -0.19818711630E+02  0.34784892354E+02  0.25500000000E-02 0. -1.
<mgrwt>
<rscale>  0 0.93765267E+02</rscale>
<asrwt>0</asrwt>
<pdfrwt beam="1">  1        1 0.11101217E-01 0.93765267E+02</pdfrwt>
<pdfrwt beam="2">  1       -1 0.46862631E-02 0.93765267E+02</pdfrwt>
<totfact> 0.91753316E+04</totfact>
</mgrwt>
</event>
<event>
 4    1  0.2051373E-002  0.3059758E+03  0.7818608E-02  0.1082291E+00
         -1   -1    0    0  501    0 -0.00000000000E+00  0.00000000000E+00  0.12503692144E+02  0.12503693160E+02  0.50400000000E-02 0. -1.
          1   -1    0    0    0  501  0.00000000000E+00 -0.00000000000E+00 -0.18718713791E+04  0.18718713791E+04  0.50400000000E-02 0. -1.
          2    1    1    2    0  502 -0.23322193700E+01  0.34263702359E+02 -0.11542523629E+02  0.36230793598E+02  0.25500000000E-02 0. -1.
         -2    1    1    2  502    0  0.23322193700E+01 -0.34263702359E+02 -0.18478251634E+04  0.18481442787E+04  0.25500000000E-02 0. -1.
<mgrwt>
<rscale>  0 0.30597584E+03</rscale>
<asrwt>0</asrwt>
<pdfrwt beam="2">  1        1 0.28797999E+00 0.30597584E+03</pdfrwt>
<pdfrwt beam="1">  1       -1 0.19236465E-02 0.30597584E+03</pdfrwt>
<totfact> 0.29645126E+03</totfact>
</mgrwt>
</event>
<event>
 4    1  0.2051373E-002  0.5139533E+02  0.7818608E-02  0.1437958E+00
          1   -1    0    0    0  501  0.00000000000E+00  0.00000000000E+00  0.95625380732E+00  0.95626708905E+00  0.50400000000E-02 0. -1.
         -1   -1    0    0  501    0 -0.00000000000E+00 -0.00000000000E+00 -0.69057534253E+03  0.69057534255E+03  0.50400000000E-02 0. -1.
          2    1    1    2    0  502  0.25194113937E+02  0.41770350831E+01 -0.30632948926E+03  0.30739217134E+03  0.25500000000E-02 0. -1.
         -2    1    1    2  502    0 -0.25194113937E+02 -0.41770350831E+01 -0.38328959946E+03  0.38413943830E+03  0.25500000000E-02 0. -1.
<mgrwt>
<rscale>  0 0.51395327E+02</rscale>
<asrwt>0</asrwt>
<pdfrwt beam="1">  1        1 0.14711755E-03 0.51395327E+02</pdfrwt>
<pdfrwt beam="2">  1       -1 0.10624196E+00 0.51395327E+02</pdfrwt>
<totfact> 0.16153631E+05</totfact>
</mgrwt>
</event>
<event>
 4    1  0.2051373E-002  0.5703943E+02  0.7818608E-02  0.1410693E+00
          1   -1    0    0    0  501  0.00000000000E+00  0.00000000000E+00  0.35420727704E+03  0.35420727707E+03  0.50400000000E-02 0.  1.
         -1   -1    0    0  501    0 -0.00000000000E+00 -0.00000000000E+00 -0.22963195589E+01  0.22963250898E+01  0.50400000000E-02 0.  1.
          2    1    1    2    0  502  0.27931925128E+02 -0.42066420464E+01  0.15135997867E+03  0.15397315165E+03  0.25500000000E-02 0. -1.
         -2    1    1    2  502    0 -0.27931925128E+02  0.42066420464E+01  0.20055097881E+03  0.20253045051E+03  0.25500000000E-02 0. -1.
<mgrwt>
<rscale>  0 0.57039428E+02</rscale>
<asrwt>0</asrwt>
<pdfrwt beam="1">  1        1 0.54493404E-01 0.57039428E+02</pdfrwt>
<pdfrwt beam="2">  1       -1 0.35328051E-03 0.57039428E+02</pdfrwt>
<totfact> 0.44605902E+05</totfact>
</mgrwt>
</event>
<event>
 4    1  0.2051373E-002  0.1899190E+03  0.7818608E-02  0.1158534E+00
         -1   -1    0    0  501    0 -0.00000000000E+00  0.00000000000E+00  0.72373430057E+01  0.72373447606E+01  0.50400000000E-02 0.  1.
          1   -1    0    0    0  501  0.00000000000E+00 -0.00000000000E+00 -0.12459414923E+04  0.12459414923E+04  0.50400000000E-02 0.  1.
          2    1    1    2    0  502 -0.78510032050E+02  0.29318197856E+02 -0.32470708733E+03  0.33534769185E+03  0.25500000000E-02 0.  1.
         -2    1    1    2  502    0  0.78510032050E+02 -0.29318197856E+02 -0.91399706197E+03  0.91783114523E+03  0.25500000000E-02 0.  1.
<mgrwt>
<rscale>  0 0.18991900E+03</rscale>
<asrwt>0</asrwt>
<pdfrwt beam="2">  1        1 0.19168314E+00 0.18991900E+03</pdfrwt>
<pdfrwt beam="1">  1       -1 0.11134385E-02 0.18991900E+03</pdfrwt>
<totfact> 0.16805075E+04</totfact>
</mgrwt>
</event>
<event>
 4    1  0.2051373E-002  0.5086534E+02  0.7818608E-02  0.1440729E+00
          1   -1    0    0    0  501  0.00000000000E+00  0.00000000000E+00  0.39075226247E+02  0.39075226572E+02  0.50400000000E-02 0.  1.
         -1   -1    0    0  501    0 -0.00000000000E+00 -0.00000000000E+00 -0.16553214763E+02  0.16553215531E+02  0.50400000000E-02 0.  1.
          2    1    1    2    0  502 -0.90360780920E+01  0.22658197713E+02  0.19130362507E+02  0.31000248499E+02  0.25500000000E-02 0.  1.
         -2    1    1    2  502    0  0.90360780920E+01 -0.22658197713E+02  0.33916489768E+01  0.24628193603E+02  0.25500000000E-02 0.  1.
<mgrwt>
<rscale>  0 0.50865338E+02</rscale>
<asrwt>0</asrwt>
<pdfrwt beam="1">  1        1 0.60115733E-02 0.50865338E+02</pdfrwt>
<pdfrwt beam="2">  1       -1 0.25466485E-02 0.50865338E+02</pdfrwt>
<totfact> 0.43574302E+05</totfact>
</mgrwt>
</event>
<event>
 4    1  0.2051373E-002  0.4623396E+02  0.7818608E-02  0.1466782E+00
          1   -1    0    0    0  501  0.00000000000E+00  0.00000000000E+00  0.11095481070E+04  0.11095481070E+04  0.50400000000E-02 0.  1.
         -1   -1    0    0  501    0 -0.00000000000E+00 -0.00000000000E+00 -0.48161957254E+00  0.48164594284E+00  0.50400000000E-02 0.  1.
          2    1    1    2    0  502  0.50329680661E+01  0.22186140666E+02  0.65305523482E+03  0.65345137183E+03  0.25500000000E-02 0.  1.
         -2    1    1    2  502    0 -0.50329680661E+01 -0.22186140666E+02  0.45601125262E+03  0.45657838114E+03  0.25500000000E-02 0.  1.
<mgrwt>
<rscale>  0 0.46233958E+02</rscale>
<asrwt>0</asrwt>
<pdfrwt beam="1">  1        1 0.17069843E+00 0.46233958E+02</pdfrwt>
<pdfrwt beam="2">  1       -1 0.74097904E-04 0.46233958E+02</pdfrwt>
<totfact> 0.74559131E+05</totfact>
</mgrwt>
</event>
<event>
 4    1  0.2051373E-002  0.5704538E+02  0.7818608E-02  0.1410666E+00
          1   -1    0    0    0  501  0.00000000000E+00  0.00000000000E+00  0.20637807649E+03  0.20637807655E+03  0.50400000000E-02 0. -1.
         -1   -1    0    0  501    0 -0.00000000000E+00 -0.00000000000E+00 -0.39420051814E+01  0.39420084033E+01  0.50400000000E-02 0. -1.
          2    1    1    2    0  502  0.19969172844E+02  0.12142979003E+02  0.40937202474E+02  0.47138883695E+02  0.25500000000E-02 0.  1.
         -2    1    1    2  502    0 -0.19969172844E+02 -0.12142979003E+02  0.16149886883E+03  0.16318120126E+03  0.25500000000E-02 0.  1.
<mgrwt>
<rscale>  0 0.57045378E+02</rscale>
<asrwt>0</asrwt>
<pdfrwt beam="1">  1        1 0.31750476E-01 0.57045378E+02</pdfrwt>
<pdfrwt beam="2">  1       -1 0.60646253E-03 0.57045378E+02</pdfrwt>
<totfact> 0.40524206E+05</totfact>
</mgrwt>
</event>
<event>
 4    1  0.2051373E-002  0.6232931E+02  0.7818608E-02  0.1388309E+00
          1   -1    0    0    0  501  0.00000000000E+00  0.00000000000E+00  0.12007189289E+02  0.12007190347E+02  0.50400000000E-02 0. -1.
         -1   -1    0    0  501    0 -0.00000000000E+00 -0.00000000000E+00 -0.80887837386E+02  0.80887837543E+02  0.50400000000E-02 0. -1.
          2    1    1    2    0  502  0.22487992706E+02  0.94120204763E+01 -0.55044837563E+01  0.24991904556E+02  0.25500000000E-02 0.  1.
         -2    1    1    2  502    0 -0.22487992706E+02 -0.94120204763E+01 -0.63376164341E+02  0.67903123334E+02  0.25500000000E-02 0.  1.
<mgrwt>
<rscale>  0 0.62329307E+02</rscale>
<asrwt>0</asrwt>
<pdfrwt beam="1">  1        1 0.18472600E-02 0.62329307E+02</pdfrwt>
<pdfrwt beam="2">  1       -1 0.12444282E-01 0.62329307E+02</pdfrwt>
<totfact> 0.22208002E+05</totfact>
</mgrwt>
</event>
<event>
 4    1  0.2051373E-002  0.5255072E+02  0.7818608E-02  0.1432050E+00
          1   -1    0    0    0  501  0.00000000000E+00  0.00000000000E+00  0.12636903932E+04  0.12636903932E+04  0.50400000000E-02 0.  1.
         -1   -1    0    0  501    0 -0.00000000000E+00 -0.00000000000E+00 -0.54632031414E+00  0.54634356154E+00  0.50400000000E-02 0.  1.
          2    1    1    2    0  502 -0.22451262140E+02  0.53052259320E+01  0.93415122537E+03  0.93443604193E+03  0.25500000000E-02 0. -1.
         -2    1    1    2  502    0  0.22451262140E+02 -0.53052259320E+01  0.32899284750E+03  0.32980069482E+03  0.25500000000E-02 0. -1.
<mgrwt>
<rscale>  0 0.52550716E+02</rscale>
<asrwt>0</asrwt>
<pdfrwt beam="1">  1        1 0.19441524E+00 0.52550716E+02</pdfrwt>
<pdfrwt beam="2">  1       -1 0.84050492E-04 0.52550716E+02</pdfrwt>
<totfact> 0.51203974E+05</totfact>
</mgrwt>
</event>
<event>
 4    1  0.2051373E-002  0.6686003E+02  0.7818608E-02  0.1371108E+00
         -1   -1    0    0  501    0 -0.00000000000E+00  0.00000000000E+00  0.12240753175E+01  0.12240856933E+01  0.50400000000E-02 0.  1.
          1   -1    0    0    0  501  0.00000000000E+00 -0.00000000000E+00 -0.91298410716E+03  0.91298410717E+03  0.50400000000E-02 0.  1.
          2    1    1    2    0  502 -0.21140747430E+01 -0.31102007513E+02 -0.62096230308E+03  0.62174430921E+03  0.25500000000E-02 0. -1.
         -2    1    1    2  502    0  0.21140747430E+01  0.31102007513E+02 -0.29079772876E+03  0.29246388365E+03  0.25500000000E-02 0. -1.
<mgrwt>
<rscale>  0 0.66860035E+02</rscale>
<asrwt>0</asrwt>
<pdfrwt beam="2">  1        1 0.14045855E+00 0.66860035E+02</pdfrwt>
<pdfrwt beam="1">  1       -1 0.18832081E-03 0.66860035E+02</pdfrwt>
<totfact> 0.31126578E+05</totfact>
</mgrwt>
</event>
<event>
 4    1  0.2051373E-002  0.1097152E+03  0.7818608E-02  0.1261098E+00
         -1   -1    0    0  501    0 -0.00000000000E+00  0.00000000000E+00  0.10746444868E+03  0.10746444880E+03  0.50400000000E-02 0.  1.
          1   -1    0    0    0  501  0.00000000000E+00 -0.00000000000E+00 -0.28003269078E+02  0.28003269531E+02  0.50400000000E-02 0.  1.
          2    1    1    2    0  502 -0.36339524323E+02 -0.25588776860E+02  0.26862280197E-01  0.44444878865E+02  0.25500000000E-02 0.  1.
         -2    1    1    2  502    0  0.36339524323E+02  0.25588776860E+02  0.79434317321E+02  0.91022839464E+02  0.25500000000E-02 0.  1.
<mgrwt>
<rscale>  0 0.10971519E+03</rscale>
<asrwt>0</asrwt>
<pdfrwt beam="2">  1        1 0.43081953E-02 0.10971519E+03</pdfrwt>
<pdfrwt beam="1">  1       -1 0.16532992E-01 0.10971519E+03</pdfrwt>
<totfact> 0.49728115E+04</totfact>
</mgrwt>
</event>
<event>
 4    1  0.2051373E-002  0.4347524E+02  0.7818608E-02  0.1484091E+00
         -1   -1    0    0  501    0 -0.00000000000E+00  0.00000000000E+00  0.60366928287E+01  0.60366949326E+01  0.50400000000E-02 0. -1.
          1   -1    0    0    0  501  0.00000000000E+00 -0.00000000000E+00 -0.78275305273E+02  0.78275305435E+02  0.50400000000E-02 0. -1.
          2    1    1    2    0  502 -0.11423799931E+02 -0.18444123594E+02 -0.38746455525E+02  0.44406944528E+02  0.25500000000E-02 0.  1.
         -2    1    1    2  502    0  0.11423799931E+02  0.18444123594E+02 -0.33492156919E+02  0.39905055840E+02  0.25500000000E-02 0.  1.
<mgrwt>
<rscale>  0 0.43475238E+02</rscale>
<asrwt>0</asrwt>
<pdfrwt beam="2">  1        1 0.12042354E-01 0.43475238E+02</pdfrwt>
<pdfrwt beam="1">  1       -1 0.92872220E-03 0.43475238E+02</pdfrwt>
<totfact> 0.69539185E+05</totfact>
</mgrwt>
</event>
<event>
 4    1  0.2051373E-002  0.1433620E+03  0.7818608E-02  0.1208875E+00
          1   -1    0    0    0  501  0.00000000000E+00  0.00000000000E+00  0.19486258675E+03  0.19486258682E+03  0.50400000000E-02 0.  1.
         -1   -1    0    0  501    0 -0.00000000000E+00 -0.00000000000E+00 -0.26368164863E+02  0.26368165345E+02  0.50400000000E-02 0.  1.
          2    1    1    2    0  502  0.25771273152E+02 -0.35030079392E+02  0.17217902436E+03  0.17758626472E+03  0.25500000000E-02 0. -1.
         -2    1    1    2  502    0 -0.25771273152E+02  0.35030079392E+02 -0.36846024699E+01  0.43644487441E+02  0.25500000000E-02 0. -1.
<mgrwt>
<rscale>  0 0.14336204E+03</rscale>
<asrwt>0</asrwt>
<pdfrwt beam="1">  1        1 0.29978860E-01 0.14336204E+03</pdfrwt>
<pdfrwt beam="2">  1       -1 0.40566407E-02 0.14336204E+03</pdfrwt>
<totfact> 0.33837670E+04</totfact>
</mgrwt>
</event>
<event>
 4    1  0.2051373E-002  0.5083060E+02  0.7818608E-02  0.1440912E+00
          1   -1    0    0    0  501  0.00000000000E+00  0.00000000000E+00  0.58736301823E+00  0.58738464126E+00  0.50400000000E-02 0. -1.
         -1   -1    0    0  501    0 -0.00000000000E+00 -0.00000000000E+00 -0.10997040056E+04  0.10997040056E+04  0.50400000000E-02 0. -1.
          2    1    1    2    0  502 -0.87975392162E+01  0.23801478513E+02 -0.51871501689E+03  0.51933532118E+03  0.25500000000E-02 0.  1.
         -2    1    1    2  502    0  0.87975392162E+01 -0.23801478513E+02 -0.58040162567E+03  0.58095606905E+03  0.25500000000E-02 0.  1.
<mgrwt>
<rscale>  0 0.50830596E+02</rscale>
<asrwt>0</asrwt>
<pdfrwt beam="1">  1        1 0.90366085E-04 0.50830596E+02</pdfrwt>
<pdfrwt beam="2">  1       -1 0.16918359E+00 0.50830596E+02</pdfrwt>
<totfact> 0.10142007E+05</totfact>
</mgrwt>
</event>
<event>
 4    1  0.2051373E-002  0.4875399E+02  0.7818608E-02  0.1452180E+00
          1   -1    0    0    0  501  0.00000000000E+00  0.00000000000E+00  0.56659378417E+03  0.56659378419E+03  0.50400000000E-02 0.  1.
         -1   -1    0    0  501    0 -0.00000000000E+00 -0.00000000000E+00 -0.10487840161E+01  0.10487961261E+01  0.50400000000E-02 0.  1.
          2    1    1    2    0  502 -0.23640089990E+02 -0.44099836069E+01  0.32925144142E+03  0.33012848028E+03  0.25500000000E-02 0. -1.
         -2    1    1    2  502    0  0.23640089990E+02  0.44099836069E+01  0.23629355873E+03  0.23751410003E+03  0.25500000000E-02 0. -1.
<mgrwt>
<rscale>  0 0.48753993E+02</rscale>
<asrwt>0</asrwt>
<pdfrwt beam="1">  1        1 0.87168540E-01 0.48753993E+02</pdfrwt>
<pdfrwt beam="2">  1       -1 0.16135183E-03 0.48753993E+02</pdfrwt>
<totfact> 0.70157756E+05</totfact>
</mgrwt>
</event>
<event>
 4    1  0.2051373E-002  0.7176516E+02  0.7818608E-02  0.1354191E+00
          1   -1    0    0    0  501  0.00000000000E+00  0.00000000000E+00  0.40459803557E+03  0.40459803560E+03  0.50400000000E-02 0.  1.
         -1   -1    0    0  501    0 -0.00000000000E+00 -0.00000000000E+00 -0.31823159638E+01  0.31823199549E+01  0.50400000000E-02 0.  1.
          2    1    1    2    0  502 -0.35405012195E+02  0.18326241616E+01  0.23218419763E+03  0.23487523291E+03  0.25500000000E-02 0. -1.
         -2    1    1    2  502    0  0.35405012195E+02 -0.18326241616E+01  0.16923152198E+03  0.17290512265E+03  0.25500000000E-02 0. -1.
<mgrwt>
<rscale>  0 0.71765162E+02</rscale>
<asrwt>0</asrwt>
<pdfrwt beam="1">  1        1 0.62245797E-01 0.71765162E+02</pdfrwt>
<pdfrwt beam="2">  1       -1 0.48958781E-03 0.71765162E+02</pdfrwt>
<totfact> 0.25319449E+05</totfact>
</mgrwt>
</event>
<event>
 4    1  0.2051373E-002  0.4369500E+02  0.7818608E-02  0.1482657E+00
          1   -1    0    0    0  501  0.00000000000E+00  0.00000000000E+00  0.19955961692E+02  0.19955962328E+02  0.50400000000E-02 0. -1.
         -1   -1    0    0  501    0 -0.00000000000E+00 -0.00000000000E+00 -0.23918325785E+02  0.23918326316E+02  0.50400000000E-02 0. -1.
          2    1    1    2    0  502  0.65950047721E+01 -0.20386007641E+02 -0.62683402769E+01  0.22324325114E+02  0.25500000000E-02 0. -1.
         -2    1    1    2  502    0 -0.65950047721E+01  0.20386007641E+02  0.23059761835E+01  0.21549963530E+02  0.25500000000E-02 0. -1.
<mgrwt>
<rscale>  0 0.43694998E+02</rscale>
<asrwt>0</asrwt>
<pdfrwt beam="1">  1        1 0.30701480E-02 0.43694998E+02</pdfrwt>
<pdfrwt beam="2">  1       -1 0.36797425E-02 0.43694998E+02</pdfrwt>
<totfact> 0.60770722E+05</totfact>
</mgrwt>
</event>
<event>
 4    1  0.2051373E-002  0.5228518E+02  0.7818608E-02  0.1433392E+00
          1   -1    0    0    0  501  0.00000000000E+00  0.00000000000E+00  0.21317222627E+03  0.21317222633E+03  0.50400000000E-02 0. -1.
         -1   -1    0    0  501    0 -0.00000000000E+00 -0.00000000000E+00 -0.32060205714E+01  0.32060245329E+01  0.50400000000E-02 0. -1.
          2    1    1    2    0  502  0.21243208631E+02  0.57177674638E+01  0.16343139644E+03  0.16490539144E+03  0.25500000000E-02 0.  1.
         -2    1    1    2  502    0 -0.21243208631E+02 -0.57177674638E+01  0.46534809256E+02  0.51472859418E+02  0.25500000000E-02 0.  1.
<mgrwt>
<rscale>  0 0.52285179E+02</rscale>
<asrwt>0</asrwt>
<pdfrwt beam="1">  1        1 0.32795730E-01 0.52285179E+02</pdfrwt>
<pdfrwt beam="2">  1       -1 0.49323420E-03 0.52285179E+02</pdfrwt>
<totfact> 0.50806731E+05</totfact>
</mgrwt>
</event>
<event>
 4    1  0.2051373E-002  0.7735396E+02  0.7818608E-02  0.1336733E+00
          1   -1    0    0    0  501  0.00000000000E+00  0.00000000000E+00  0.61935054793E+02  0.61935054998E+02  0.50400000000E-02 0.  1.
         -1   -1    0    0  501    0 -0.00000000000E+00 -0.00000000000E+00 -0.24152862447E+02  0.24152862973E+02  0.50400000000E-02 0.  1.
          2    1    1    2    0  502  0.23800879665E+02  0.10789493619E+02 -0.12841719295E+02  0.29117087875E+02  0.25500000000E-02 0. -1.
         -2    1    1    2  502    0 -0.23800879665E+02 -0.10789493619E+02  0.50623911642E+02  0.56970830096E+02  0.25500000000E-02 0. -1.
<mgrwt>
<rscale>  0 0.77353963E+02</rscale>
<asrwt>0</asrwt>
<pdfrwt beam="1">  1        1 0.95284699E-02 0.77353963E+02</pdfrwt>
<pdfrwt beam="2">  1       -1 0.37158251E-02 0.77353963E+02</pdfrwt>
<totfact> 0.15184319E+05</totfact>
</mgrwt>
</event>
<event>
 4    1  0.2051373E-002  0.6994986E+02  0.7818608E-02  0.1360264E+00
          1   -1    0    0    0  501  0.00000000000E+00  0.00000000000E+00  0.31752551991E+03  0.31752551995E+03  0.50400000000E-02 0.  1.
         -1   -1    0    0  501    0 -0.00000000000E+00 -0.00000000000E+00 -0.38524312259E+01  0.38524345228E+01  0.50400000000E-02 0.  1.
          2    1    1    2    0  502 -0.22800275656E+02 -0.17978557881E+02  0.67255713017E+02  0.73255798770E+02  0.25500000000E-02 0.  1.
         -2    1    1    2  502    0  0.22800275656E+02  0.17978557881E+02  0.24641737567E+03  0.24812215570E+03  0.25500000000E-02 0.  1.
<mgrwt>
<rscale>  0 0.69949861E+02</rscale>
<asrwt>0</asrwt>
<pdfrwt beam="1">  1        1 0.48850071E-01 0.69949861E+02</pdfrwt>
<pdfrwt beam="2">  1       -1 0.59268210E-03 0.69949861E+02</pdfrwt>
<totfact> 0.25968899E+05</totfact>
</mgrwt>
</event>
<event>
 4    1  0.2051373E-002  0.7996140E+02  0.7818608E-02  0.1329161E+00
         -1   -1    0    0  501    0 -0.00000000000E+00  0.00000000000E+00  0.24472646958E+03  0.24472646963E+03  0.50400000000E-02 0. -1.
          1   -1    0    0    0  501  0.00000000000E+00 -0.00000000000E+00 -0.65316024717E+01  0.65316044162E+01  0.50400000000E-02 0. -1.
          2    1    1    2    0  502 -0.30183726177E+02 -0.12905821676E+02  0.19080934102E+03  0.19361255689E+03  0.25500000000E-02 0.  1.
         -2    1    1    2  502    0  0.30183726177E+02  0.12905821676E+02  0.47385526090E+02  0.57645517158E+02  0.25500000000E-02 0.  1.
<mgrwt>
<rscale>  0 0.79961397E+02</rscale>
<asrwt>0</asrwt>
<pdfrwt beam="2">  1        1 0.10048621E-02 0.79961397E+02</pdfrwt>
<pdfrwt beam="1">  1       -1 0.37650226E-01 0.79961397E+02</pdfrwt>
<totfact> 0.91741325E+04</totfact>
</mgrwt>
</event>
<event>
 4    1  0.2051373E-002  0.4315848E+02  0.7818608E-02  0.1486177E+00
         -1   -1    0    0  501    0 -0.00000000000E+00  0.00000000000E+00  0.77895956587E+03  0.77895956589E+03  0.50400000000E-02 0. -1.
          1   -1    0    0    0  501  0.00000000000E+00 -0.00000000000E+00 -0.59779141770E+00  0.59781266352E+00  0.50400000000E-02 0. -1.
          2    1    1    2    0  502 -0.20519318661E+02  0.11678388874E+01  0.27038214924E+03  0.27116215245E+03  0.25500000000E-02 0. -1.
         -2    1    1    2  502    0  0.20519318661E+02 -0.11678388874E+01  0.50797962522E+03  0.50839522611E+03  0.25500000000E-02 0. -1.
<mgrwt>
<rscale>  0 0.43158481E+02</rscale>
<asrwt>0</asrwt>
<pdfrwt beam="2">  1        1 0.91969538E-04 0.43158481E+02</pdfrwt>
<pdfrwt beam="1">  1       -1 0.11983994E+00 0.43158481E+02</pdfrwt>
<totfact> 0.22312676E+05</totfact>
</mgrwt>
</event>
<event>
 4    1  0.2051373E-002  0.5993895E+02  0.7818608E-02  0.1398088E+00
          1   -1    0    0    0  501  0.00000000000E+00  0.00000000000E+00  0.10688548842E+04  0.10688548843E+04  0.50400000000E-02 0.  1.
         -1   -1    0    0  501    0 -0.00000000000E+00 -0.00000000000E+00 -0.84030234554E+00  0.84031745996E+00  0.50400000000E-02 0.  1.
          2    1    1    2    0  502  0.28807998754E+02 -0.81121472225E+01  0.56200754085E+03  0.56280385899E+03  0.25500000000E-02 0.  1.
         -2    1    1    2  502    0 -0.28807998754E+02  0.81121472225E+01  0.50600704105E+03  0.50689134272E+03  0.25500000000E-02 0.  1.
<mgrwt>
<rscale>  0 0.59938947E+02</rscale>
<asrwt>0</asrwt>
<pdfrwt beam="1">  1        1 0.16443804E+00 0.59938947E+02</pdfrwt>
<pdfrwt beam="2">  1       -1 0.12927937E-03 0.59938947E+02</pdfrwt>
<totfact> 0.39498316E+05</totfact>
</mgrwt>
</event>
<event>
 4    1  0.2051373E-002  0.6161850E+02  0.7818608E-02  0.1391162E+00
          1   -1    0    0    0  501  0.00000000000E+00  0.00000000000E+00  0.79064153558E+00  0.79065759934E+00  0.50400000000E-02 0.  1.
         -1   -1    0    0  501    0 -0.00000000000E+00 -0.00000000000E+00 -0.12005443250E+04  0.12005443250E+04  0.50400000000E-02 0.  1.
          2    1    1    2    0  502  0.12162171467E+02 -0.27797079821E+02 -0.49558730325E+03  0.49651522757E+03  0.25500000000E-02 0.  1.
         -2    1    1    2  502    0 -0.12162171467E+02  0.27797079821E+02 -0.70416638018E+03  0.70481975501E+03  0.25500000000E-02 0.  1.
<mgrwt>
<rscale>  0 0.61618499E+02</rscale>
<asrwt>0</asrwt>
<pdfrwt beam="1">  1        1 0.12163936E-03 0.61618499E+02</pdfrwt>
<pdfrwt beam="2">  1       -1 0.18469767E+00 0.61618499E+02</pdfrwt>
<totfact> 0.55331393E+04</totfact>
</mgrwt>
</event>
<event>
 4    1  0.2051373E-002  0.6313350E+02  0.7818608E-02  0.1385133E+00
         -1   -1    0    0  501    0 -0.00000000000E+00  0.00000000000E+00  0.23537621914E+01  0.23537675874E+01  0.50400000000E-02 0. -1.
          1   -1    0    0    0  501  0.00000000000E+00 -0.00000000000E+00 -0.42334710410E+03  0.42334710413E+03  0.50400000000E-02 0. -1.
          2    1    1    2    0  502  0.79408536399E+01 -0.29556745979E+02 -0.26264009332E+03  0.26441724039E+03  0.25500000000E-02 0. -1.
         -2    1    1    2  502    0 -0.79408536399E+01  0.29556745979E+02 -0.15835324859E+03  0.16128363133E+03  0.25500000000E-02 0. -1.
<mgrwt>
<rscale>  0 0.63133495E+02</rscale>
<asrwt>0</asrwt>
<pdfrwt beam="2">  1        1 0.65130263E-01 0.63133495E+02</pdfrwt>
<pdfrwt beam="1">  1       -1 0.36211802E-03 0.63133495E+02</pdfrwt>
<totfact> 0.35447801E+05</totfact>
</mgrwt>
</event>
<event>
 4    1  0.2051373E-002  0.4929868E+02  0.7818608E-02  0.1449161E+00
         -1   -1    0    0  501    0 -0.00000000000E+00  0.00000000000E+00  0.10986314255E+02  0.10986315412E+02  0.50400000000E-02 0.  1.
          1   -1    0    0    0  501  0.00000000000E+00 -0.00000000000E+00 -0.55304263370E+02  0.55304263599E+02  0.50400000000E-02 0.  1.
          2    1    1    2    0  502  0.99066165897E+01  0.19925031026E+02 -0.36417711018E+02  0.42677834949E+02  0.25500000000E-02 0.  1.
         -2    1    1    2  502    0 -0.99066165897E+01 -0.19925031026E+02 -0.79002380958E+01  0.23612744062E+02  0.25500000000E-02 0.  1.
<mgrwt>
<rscale>  0 0.49298684E+02</rscale>
<asrwt>0</asrwt>
<pdfrwt beam="2">  1        1 0.85083482E-02 0.49298684E+02</pdfrwt>
<pdfrwt beam="1">  1       -1 0.16902023E-02 0.49298684E+02</pdfrwt>
<totfact> 0.48826366E+05</totfact>
</mgrwt>
</event>
<event>
 4    1  0.2051373E-002  0.4960913E+02  0.7818608E-02  0.1447461E+00
         -1   -1    0    0  501    0 -0.00000000000E+00  0.00000000000E+00  0.22792810842E+01  0.22792866565E+01  0.50400000000E-02 0.  1.
          1   -1    0    0    0  501  0.00000000000E+00 -0.00000000000E+00 -0.26993853214E+03  0.26993853219E+03  0.50400000000E-02 0.  1.
          2    1    1    2    0  502 -0.12335100241E+02 -0.20491134417E+02 -0.16990606857E+03  0.17158121527E+03  0.25500000000E-02 0. -1.
         -2    1    1    2  502    0  0.12335100241E+02  0.20491134417E+02 -0.97753182483E+02  0.10063660358E+03  0.25500000000E-02 0. -1.
<mgrwt>
<rscale>  0 0.49609134E+02</rscale>
<asrwt>0</asrwt>
<pdfrwt beam="2">  1        1 0.41528980E-01 0.49609134E+02</pdfrwt>
<pdfrwt beam="1">  1       -1 0.35065927E-03 0.49609134E+02</pdfrwt>
<totfact> 0.60418599E+05</totfact>
</mgrwt>
</event>
<event>
 4    1  0.2051373E-002  0.7611387E+02  0.7818608E-02  0.1340456E+00
         -1   -1    0    0  501    0 -0.00000000000E+00  0.00000000000E+00  0.36019901062E+02  0.36019901414E+02  0.50400000000E-02 0. -1.
          1   -1    0    0    0  501  0.00000000000E+00 -0.00000000000E+00 -0.40209171821E+02  0.40209172137E+02  0.50400000000E-02 0. -1.
          2    1    1    2    0  502  0.90902811386E+01  0.33483100766E+02  0.13568061615E+02  0.37253772300E+02  0.25500000000E-02 0. -1.
         -2    1    1    2  502    0 -0.90902811386E+01 -0.33483100766E+02 -0.17757332374E+02  0.38975301251E+02  0.25500000000E-02 0. -1.
<mgrwt>
<rscale>  0 0.76113873E+02</rscale>
<asrwt>0</asrwt>
<pdfrwt beam="2">  1        1 0.61860265E-02 0.76113873E+02</pdfrwt>
<pdfrwt beam="1">  1       -1 0.55415233E-02 0.76113873E+02</pdfrwt>
<totfact> 0.14991317E+05</totfact>
</mgrwt>
</event>
<event>
 4    1  0.2051373E-002  0.5950363E+02  0.7818608E-02  0.1399927E+00
          1   -1    0    0    0  501  0.00000000000E+00  0.00000000000E+00  0.10991404988E+02  0.10991406143E+02  0.50400000000E-02 0.  1.
         -1   -1    0    0  501    0 -0.00000000000E+00 -0.00000000000E+00 -0.80532969336E+02  0.80532969493E+02  0.50400000000E-02 0.  1.
          2    1    1    2    0  502 -0.22468822108E+02  0.19290187712E+02 -0.30363231715E+02  0.42413266269E+02  0.25500000000E-02 0.  1.
         -2    1    1    2  502    0  0.22468822108E+02 -0.19290187712E+02 -0.39178332633E+02  0.49111109368E+02  0.25500000000E-02 0.  1.
<mgrwt>
<rscale>  0 0.59503632E+02</rscale>
<asrwt>0</asrwt>
<pdfrwt beam="1">  1        1 0.16909855E-02 0.59503632E+02</pdfrwt>
<pdfrwt beam="2">  1       -1 0.12389687E-01 0.59503632E+02</pdfrwt>
<totfact> 0.24963665E+05</totfact>
</mgrwt>
</event>
<event>
 4    1  0.2051373E-002  0.4468840E+02  0.7818608E-02  0.1476296E+00
          1   -1    0    0    0  501  0.00000000000E+00  0.00000000000E+00  0.60816132157E+03  0.60816132159E+03  0.50400000000E-02 0. -1.
         -1   -1    0    0  501    0 -0.00000000000E+00 -0.00000000000E+00 -0.82093123792E+00  0.82094670898E+00  0.50400000000E-02 0. -1.
          2    1    1    2    0  502 -0.14280051679E+02  0.14921104903E+02  0.18747471578E+03  0.18860892956E+03  0.25500000000E-02 0.  1.
         -2    1    1    2  502    0  0.14280051679E+02 -0.14921104903E+02  0.41986567455E+03  0.42037333874E+03  0.25500000000E-02 0.  1.
<mgrwt>
<rscale>  0 0.44688403E+02</rscale>
<asrwt>0</asrwt>
<pdfrwt beam="1">  1        1 0.93563287E-01 0.44688403E+02</pdfrwt>
<pdfrwt beam="2">  1       -1 0.12629830E-03 0.44688403E+02</pdfrwt>
<totfact> 0.87287173E+05</totfact>
</mgrwt>
</event>
<event>
 4    1  0.2051373E-002  0.4347989E+02  0.7818608E-02  0.1484061E+00
          1   -1    0    0    0  501  0.00000000000E+00  0.00000000000E+00  0.90510432615E+02  0.90510432755E+02  0.50400000000E-02 0. -1.
         -1   -1    0    0  501    0 -0.00000000000E+00 -0.00000000000E+00 -0.52217749786E+01  0.52217774109E+01  0.50400000000E-02 0. -1.
          2    1    1    2    0  502 -0.20194790007E+02 -0.79067955878E+01  0.39321008944E+02  0.44905330538E+02  0.25500000000E-02 0. -1.
         -2    1    1    2  502    0  0.20194790007E+02  0.79067955878E+01  0.45967648692E+02  0.50826879628E+02  0.25500000000E-02 0. -1.
<mgrwt>
<rscale>  0 0.43479891E+02</rscale>
<asrwt>0</asrwt>
<pdfrwt beam="1">  1        1 0.13924682E-01 0.43479891E+02</pdfrwt>
<pdfrwt beam="2">  1       -1 0.80335018E-03 0.43479891E+02</pdfrwt>
<totfact> 0.70730029E+05</totfact>
</mgrwt>
</event>
<event>
 4    1  0.2051373E-002  0.4950859E+02  0.7818608E-02  0.1448010E+00
         -1   -1    0    0  501    0 -0.00000000000E+00  0.00000000000E+00  0.41346772443E+02  0.41346772750E+02  0.50400000000E-02 0.  1.
          1   -1    0    0    0  501  0.00000000000E+00 -0.00000000000E+00 -0.14820383480E+02  0.14820384337E+02  0.50400000000E-02 0.  1.
          2    1    1    2    0  502 -0.22333489608E+02 -0.92172495503E+01  0.71503282998E+01  0.25196619786E+02  0.25500000000E-02 0. -1.
         -2    1    1    2  502    0  0.22333489608E+02  0.92172495503E+01  0.19376060663E+02  0.30970537300E+02  0.25500000000E-02 0. -1.
<mgrwt>
<rscale>  0 0.49508587E+02</rscale>
<asrwt>0</asrwt>
<pdfrwt beam="2">  1        1 0.22800591E-02 0.49508587E+02</pdfrwt>
<pdfrwt beam="1">  1       -1 0.63610419E-02 0.49508587E+02</pdfrwt>
<totfact> 0.42722186E+05</totfact>
</mgrwt>
</event>
<event>
 4    1  0.2051373E-002  0.8720909E+02  0.7818608E-02  0.1309755E+00
         -1   -1    0    0  501    0 -0.00000000000E+00  0.00000000000E+00  0.21204114426E+02  0.21204115025E+02  0.50400000000E-02 0. -1.
          1   -1    0    0    0  501  0.00000000000E+00 -0.00000000000E+00 -0.89669222902E+02  0.89669223043E+02  0.50400000000E-02 0. -1.
          2    1    1    2    0  502 -0.17745322046E+02 -0.35079478455E+02 -0.10248456485E+02  0.40626310810E+02  0.25500000000E-02 0.  1.
         -2    1    1    2  502    0  0.17745322046E+02  0.35079478455E+02 -0.58216651991E+02  0.70247027259E+02  0.25500000000E-02 0.  1.
<mgrwt>
<rscale>  0 0.87209094E+02</rscale>
<asrwt>0</asrwt>
<pdfrwt beam="2">  1        1 0.13795265E-01 0.87209094E+02</pdfrwt>
<pdfrwt beam="1">  1       -1 0.32621715E-02 0.87209094E+02</pdfrwt>
<totfact> 0.11582196E+05</totfact>
</mgrwt>
</event>
<event>
 4    1  0.2051373E-002  0.4950927E+02  0.7818608E-02  0.1448007E+00
         -1   -1    0    0  501    0 -0.00000000000E+00  0.00000000000E+00  0.21662685419E+00  0.21668547611E+00  0.50400000000E-02 0.  1.
          1   -1    0    0    0  501  0.00000000000E+00 -0.00000000000E+00 -0.28284071998E+04  0.28284071998E+04  0.50400000000E-02 0.  1.
          2    1    1    2    0  502  0.10145959386E+02 -0.22452334729E+02 -0.12771656913E+04  0.12774033235E+04  0.25500000000E-02 0.  1.
         -2    1    1    2  502    0 -0.10145959386E+02  0.22452334729E+02 -0.15510248816E+04  0.15512205618E+04  0.25500000000E-02 0.  1.
<mgrwt>
<rscale>  0 0.49509267E+02</rscale>
<asrwt>0</asrwt>
<pdfrwt beam="2">  1        1 0.43511000E+00 0.49509267E+02</pdfrwt>
<pdfrwt beam="1">  1       -1 0.33333983E-04 0.49509267E+02</pdfrwt>
<totfact> 0.18579434E+05</totfact>
</mgrwt>
</event>
<event>
 4    1  0.2051373E-002  0.9979222E+02  0.7818608E-02  0.1280733E+00
         -1   -1    0    0  501    0 -0.00000000000E+00  0.00000000000E+00  0.18988242070E+03  0.18988242076E+03  0.50400000000E-02 0. -1.
          1   -1    0    0    0  501  0.00000000000E+00 -0.00000000000E+00 -0.13111385395E+02  0.13111386363E+02  0.50400000000E-02 0. -1.
          2    1    1    2    0  502 -0.32171242977E+02  0.34894634983E+02  0.57070130525E+02  0.74226843055E+02  0.25500000000E-02 0.  1.
         -2    1    1    2  502    0  0.32171242977E+02 -0.34894634983E+02  0.11970090478E+03  0.12876696407E+03  0.25500000000E-02 0.  1.
<mgrwt>
<rscale>  0 0.99792218E+02</rscale>
<asrwt>0</asrwt>
<pdfrwt beam="2">  1        1 0.20171362E-02 0.99792218E+02</pdfrwt>
<pdfrwt beam="1">  1       -1 0.29212682E-01 0.99792218E+02</pdfrwt>
<totfact> 0.55645876E+04</totfact>
</mgrwt>
</event>
<event>
 4    1  0.2051373E-002  0.4305025E+02  0.7818608E-02  0.1486894E+00
         -1   -1    0    0  501    0 -0.00000000000E+00  0.00000000000E+00  0.84066210637E+01  0.84066225745E+01  0.50400000000E-02 0. -1.
          1   -1    0    0    0  501  0.00000000000E+00 -0.00000000000E+00 -0.55115006595E+02  0.55115006825E+02  0.50400000000E-02 0. -1.
          2    1    1    2    0  502 -0.20713052490E+02 -0.26615297610E+01 -0.15656439385E+02  0.26100543765E+02  0.25500000000E-02 0. -1.
         -2    1    1    2  502    0  0.20713052490E+02  0.26615297610E+01 -0.31051946146E+02  0.37421085634E+02  0.25500000000E-02 0. -1.
<mgrwt>
<rscale>  0 0.43050251E+02</rscale>
<asrwt>0</asrwt>
<pdfrwt beam="2">  1        1 0.84792317E-02 0.43050251E+02</pdfrwt>
<pdfrwt beam="1">  1       -1 0.12933265E-02 0.43050251E+02</pdfrwt>
<totfact> 0.68691350E+05</totfact>
</mgrwt>
</event>
<event>
 4    1  0.2051373E-002  0.6999484E+02  0.7818608E-02  0.1360111E+00
          1   -1    0    0    0  501  0.00000000000E+00  0.00000000000E+00  0.72443341240E+03  0.72443341242E+03  0.50400000000E-02 0.  1.
         -1   -1    0    0  501    0 -0.00000000000E+00 -0.00000000000E+00 -0.16907236322E+01  0.16907311442E+01  0.50400000000E-02 0.  1.
          2    1    1    2    0  502  0.33505828916E+02  0.26324088218E+01  0.46261683211E+03  0.46383607396E+03  0.25500000000E-02 0. -1.
         -2    1    1    2  502    0 -0.33505828916E+02 -0.26324088218E+01  0.26012585666E+03  0.26228806960E+03  0.25500000000E-02 0. -1.
<mgrwt>
<rscale>  0 0.69994840E+02</rscale>
<asrwt>0</asrwt>
<pdfrwt beam="1">  1        1 0.11145116E+00 0.69994840E+02</pdfrwt>
<pdfrwt beam="2">  1       -1 0.26011222E-03 0.69994840E+02</pdfrwt>
<totfact> 0.28329025E+05</totfact>
</mgrwt>
</event>
<event>
 4    1  0.2051373E-002  0.5216536E+02  0.7818608E-02  0.1434000E+00
          1   -1    0    0    0  501  0.00000000000E+00  0.00000000000E+00  0.36523068779E+02  0.36523069126E+02  0.50400000000E-02 0. -1.
         -1   -1    0    0  501    0 -0.00000000000E+00 -0.00000000000E+00 -0.18626753441E+02  0.18626754123E+02  0.50400000000E-02 0. -1.
          2    1    1    2    0  502 -0.34010861454E+01 -0.23659775671E+02 -0.20871181260E+01  0.23993925072E+02  0.25500000000E-02 0. -1.
         -2    1    1    2  502    0  0.34010861454E+01  0.23659775671E+02  0.19983433463E+02  0.31155898178E+02  0.25500000000E-02 0. -1.
<mgrwt>
<rscale>  0 0.52165361E+02</rscale>
<asrwt>0</asrwt>
<pdfrwt beam="1">  1        1 0.56189337E-02 0.52165361E+02</pdfrwt>
<pdfrwt beam="2">  1       -1 0.28656545E-02 0.52165361E+02</pdfrwt>
<totfact> 0.40568099E+05</totfact>
</mgrwt>
</event>
<event>
 4    1  0.2051373E-002  0.5902005E+02  0.7818608E-02  0.1401991E+00
         -1   -1    0    0  501    0 -0.00000000000E+00  0.00000000000E+00  0.26636277691E+00  0.26641045498E+00  0.50400000000E-02 0. -1.
          1   -1    0    0    0  501  0.00000000000E+00 -0.00000000000E+00 -0.32690892452E+04  0.32690892452E+04  0.50400000000E-02 0. -1.
          2    1    1    2    0  502  0.89821831599E+01  0.27987150662E+02 -0.17797233904E+04  0.17799660970E+04  0.25500000000E-02 0.  1.
         -2    1    1    2  502    0 -0.89821831599E+01 -0.27987150662E+02 -0.14890994921E+04  0.14893895587E+04  0.25500000000E-02 0.  1.
<mgrwt>
<rscale>  0 0.59020052E+02</rscale>
<asrwt>0</asrwt>
<pdfrwt beam="2">  1        1 0.50290468E+00 0.59020052E+02</pdfrwt>
<pdfrwt beam="1">  1       -1 0.40985175E-04 0.59020052E+02</pdfrwt>
<totfact> 0.72680573E+04</totfact>
</mgrwt>
</event>
<event>
 4    1  0.2051373E-002  0.1314715E+03  0.7818608E-02  0.1225288E+00
          1   -1    0    0    0  501  0.00000000000E+00  0.00000000000E+00  0.62384948022E+02  0.62384948226E+02  0.50400000000E-02 0.  1.
         -1   -1    0    0  501    0 -0.00000000000E+00 -0.00000000000E+00 -0.69266559399E+02  0.69266559582E+02  0.50400000000E-02 0.  1.
          2    1    1    2    0  502  0.58680732273E+02 -0.29613687429E+02 -0.43319135000E+01  0.65872333376E+02  0.25500000000E-02 0.  1.
         -2    1    1    2  502    0 -0.58680732273E+02  0.29613687429E+02 -0.25496978766E+01  0.65779174433E+02  0.25500000000E-02 0.  1.
<mgrwt>
<rscale>  0 0.13147153E+03</rscale>
<asrwt>0</asrwt>
<pdfrwt beam="1">  1        1 0.95976844E-02 0.13147153E+03</pdfrwt>
<pdfrwt beam="2">  1       -1 0.10656394E-01 0.13147153E+03</pdfrwt>
<totfact> 0.34117046E+04</totfact>
</mgrwt>
</event>
<event>
 4    1  0.2051373E-002  0.4266706E+02  0.7818608E-02  0.1489454E+00
          1   -1    0    0    0  501  0.00000000000E+00  0.00000000000E+00  0.33203647879E+02  0.33203648261E+02  0.50400000000E-02 0.  1.
         -1   -1    0    0  501    0 -0.00000000000E+00 -0.00000000000E+00 -0.13706911049E+02  0.13706911975E+02  0.50400000000E-02 0.  1.
          2    1    1    2    0  502 -0.17727156763E+02  0.11251666709E+02  0.13901254804E+02  0.25181282379E+02  0.25500000000E-02 0. -1.
         -2    1    1    2  502    0  0.17727156763E+02 -0.11251666709E+02  0.55954820262E+01  0.21729277858E+02  0.25500000000E-02 0. -1.
<mgrwt>
<rscale>  0 0.42667059E+02</rscale>
<asrwt>0</asrwt>
<pdfrwt beam="1">  1        1 0.51082535E-02 0.42667059E+02</pdfrwt>
<pdfrwt beam="2">  1       -1 0.21087557E-02 0.42667059E+02</pdfrwt>
<totfact> 0.67218058E+05</totfact>
</mgrwt>
</event>
<event>
 4    1  0.2051373E-002  0.4950797E+02  0.7818608E-02  0.1448014E+00
         -1   -1    0    0  501    0 -0.00000000000E+00  0.00000000000E+00  0.24223277842E+01  0.24223330275E+01  0.50400000000E-02 0.  1.
          1   -1    0    0    0  501  0.00000000000E+00 -0.00000000000E+00 -0.25296292472E+03  0.25296292477E+03  0.50400000000E-02 0.  1.
          2    1    1    2    0  502 -0.23325124077E+02  0.13900039150E+00 -0.82520619748E+02  0.85753912006E+02  0.25500000000E-02 0. -1.
         -2    1    1    2  502    0  0.23325124077E+02 -0.13900039150E+00 -0.16801997719E+03  0.16963134579E+03  0.25500000000E-02 0. -1.
<mgrwt>
<rscale>  0 0.49507971E+02</rscale>
<asrwt>0</asrwt>
<pdfrwt beam="2">  1        1 0.38917352E-01 0.49507971E+02</pdfrwt>
<pdfrwt beam="1">  1       -1 0.37266642E-03 0.49507971E+02</pdfrwt>
<totfact> 0.60031525E+05</totfact>
</mgrwt>
</event>
<event>
 4    1  0.2051373E-002  0.4256588E+02  0.7818608E-02  0.1490136E+00
          1   -1    0    0    0  501  0.00000000000E+00  0.00000000000E+00  0.16627529785E+04  0.16627529785E+04  0.50400000000E-02 0. -1.
         -1   -1    0    0  501    0 -0.00000000000E+00 -0.00000000000E+00 -0.27239449452E+00  0.27244111702E+00  0.50400000000E-02 0. -1.
          2    1    1    2    0  502 -0.18756614575E+02 -0.82736508393E+01  0.10546534410E+04  0.10548526648E+04  0.25500000000E-02 0.  1.
         -2    1    1    2  502    0  0.18756614575E+02  0.82736508393E+01  0.60782714301E+03  0.60817275480E+03  0.25500000000E-02 0.  1.
<mgrwt>
<rscale>  0 0.42565880E+02</rscale>
<asrwt>0</asrwt>
<pdfrwt beam="1">  1        1 0.25581030E+00 0.42565880E+02</pdfrwt>
<pdfrwt beam="2">  1       -1 0.41910080E-04 0.42565880E+02</pdfrwt>
<totfact> 0.70343801E+05</totfact>
</mgrwt>
</event>
<event>
 4    1  0.2051373E-002  0.9270714E+02  0.7818608E-02  0.1296425E+00
          1   -1    0    0    0  501  0.00000000000E+00  0.00000000000E+00  0.53597451083E+03  0.53597451085E+03  0.50400000000E-02 0.  1.
         -1   -1    0    0  501    0 -0.00000000000E+00 -0.00000000000E+00 -0.40088710151E+01  0.40088741833E+01  0.50400000000E-02 0.  1.
          2    1    1    2    0  502  0.17724203182E+02  0.22032816304E+02  0.47991840271E+03  0.48075073130E+03  0.25500000000E-02 0.  1.
         -2    1    1    2  502    0 -0.17724203182E+02 -0.22032816304E+02  0.52047237102E+02  0.59232653741E+02  0.25500000000E-02 0.  1.
<mgrwt>
<rscale>  0 0.92707142E+02</rscale>
<asrwt>0</asrwt>
<pdfrwt beam="1">  1        1 0.82457566E-01 0.92707142E+02</pdfrwt>
<pdfrwt beam="2">  1       -1 0.61675002E-03 0.92707142E+02</pdfrwt>
<totfact> 0.13425986E+05</totfact>
</mgrwt>
</event>
<event>
 4    1  0.2051373E-002  0.4602973E+02  0.7818608E-02  0.1468014E+00
         -1   -1    0    0  501    0 -0.00000000000E+00  0.00000000000E+00  0.40790023505E+03  0.40790023508E+03  0.50400000000E-02 0. -1.
          1   -1    0    0    0  501  0.00000000000E+00 -0.00000000000E+00 -0.12985574713E+01  0.12985672520E+01  0.50400000000E-02 0. -1.
          2    1    1    2    0  502 -0.22646197251E+01  0.21094304741E+02  0.28260820009E+03  0.28340341029E+03  0.25500000000E-02 0. -1.
         -2    1    1    2  502    0  0.22646197251E+01 -0.21094304741E+02  0.12399347749E+03  0.12579539205E+03  0.25500000000E-02 0. -1.
<mgrwt>
<rscale>  0 0.46029725E+02</rscale>
<asrwt>0</asrwt>
<pdfrwt beam="2">  1        1 0.19977867E-03 0.46029725E+02</pdfrwt>
<pdfrwt beam="1">  1       -1 0.62753932E-01 0.46029725E+02</pdfrwt>
<totfact> 0.29989419E+05</totfact>
</mgrwt>
</event>
<event>
 4    1  0.2051373E-002  0.1010165E+03  0.7818608E-02  0.1278173E+00
          1   -1    0    0    0  501  0.00000000000E+00  0.00000000000E+00  0.15435453698E+04  0.15435453698E+04  0.50400000000E-02 0. -1.
         -1   -1    0    0  501    0 -0.00000000000E+00 -0.00000000000E+00 -0.16527377993E+01  0.16527454839E+01  0.50400000000E-02 0. -1.
          2    1    1    2    0  502 -0.64000308820E+01 -0.49746823578E+02  0.67996769020E+03  0.68181505306E+03  0.25500000000E-02 0. -1.
         -2    1    1    2  502    0  0.64000308820E+01  0.49746823578E+02  0.86192494178E+03  0.86338306221E+03  0.25500000000E-02 0. -1.
<mgrwt>
<rscale>  0 0.10101647E+03</rscale>
<asrwt>0</asrwt>
<pdfrwt beam="1">  1        1 0.23746871E+00 0.10101647E+03</pdfrwt>
<pdfrwt beam="2">  1       -1 0.25426774E-03 0.10101647E+03</pdfrwt>
<totfact> 0.82122919E+04</totfact>
</mgrwt>
</event>
<event>
 4    1  0.2051373E-002  0.6558088E+02  0.7818608E-02  0.1375800E+00
          1   -1    0    0    0  501  0.00000000000E+00  0.00000000000E+00  0.80456726368E+02  0.80456726526E+02  0.50400000000E-02 0.  1.
         -1   -1    0    0  501    0 -0.00000000000E+00 -0.00000000000E+00 -0.13363864492E+02  0.13363865443E+02  0.50400000000E-02 0.  1.
          2    1    1    2    0  502  0.10773686707E+02  0.29590567761E+02  0.46622135226E+02  0.56260976931E+02  0.25500000000E-02 0. -1.
         -2    1    1    2  502    0 -0.10773686707E+02 -0.29590567761E+02  0.20470726650E+02  0.37559615038E+02  0.25500000000E-02 0. -1.
<mgrwt>
<rscale>  0 0.65580877E+02</rscale>
<asrwt>0</asrwt>
<pdfrwt beam="1">  1        1 0.12377958E-01 0.65580877E+02</pdfrwt>
<pdfrwt beam="2">  1       -1 0.20559793E-02 0.65580877E+02</pdfrwt>
<totfact> 0.24406563E+05</totfact>
</mgrwt>
</event>
<event>
 4    1  0.2051373E-002  0.1272114E+03  0.7818608E-02  0.1231653E+00
          1   -1    0    0    0  501  0.00000000000E+00  0.00000000000E+00  0.10995230003E+03  0.10995230014E+03  0.50400000000E-02 0.  1.
         -1   -1    0    0  501    0 -0.00000000000E+00 -0.00000000000E+00 -0.36794937252E+02  0.36794937597E+02  0.50400000000E-02 0.  1.
          2    1    1    2    0  502  0.55596089135E+02  0.28215338107E+02  0.22048395736E+02  0.66129888800E+02  0.25500000000E-02 0.  1.
         -2    1    1    2  502    0 -0.55596089135E+02 -0.28215338107E+02  0.51108967039E+02  0.80617348939E+02  0.25500000000E-02 0.  1.
<mgrwt>
<rscale>  0 0.12721145E+03</rscale>
<asrwt>0</asrwt>
<pdfrwt beam="1">  1        1 0.16915738E-01 0.12721145E+03</pdfrwt>
<pdfrwt beam="2">  1       -1 0.56607597E-02 0.12721145E+03</pdfrwt>
<totfact> 0.42030154E+04</totfact>
</mgrwt>
</event>
<event>
 4    1  0.2051373E-002  0.7042199E+02  0.7818608E-02  0.1358664E+00
          1   -1    0    0    0  501  0.00000000000E+00  0.00000000000E+00  0.21556833742E+03  0.21556833747E+03  0.50400000000E-02 0.  1.
         -1   -1    0    0  501    0 -0.00000000000E+00 -0.00000000000E+00 -0.57513730428E+01  0.57513752511E+01  0.50400000000E-02 0.  1.
          2    1    1    2    0  502 -0.68701380825E+01  0.23866803027E+02  0.18335121572E+03  0.18502565065E+03  0.25500000000E-02 0. -1.
         -2    1    1    2  502    0  0.68701380825E+01 -0.23866803027E+02  0.26465748651E+02  0.36294062079E+02  0.25500000000E-02 0. -1.
<mgrwt>
<rscale>  0 0.70421990E+02</rscale>
<asrwt>0</asrwt>
<pdfrwt beam="1">  1        1 0.33164361E-01 0.70421990E+02</pdfrwt>
<pdfrwt beam="2">  1       -1 0.88482677E-03 0.70421990E+02</pdfrwt>
<totfact> 0.23758134E+05</totfact>
</mgrwt>
</event>
<event>
 4    1  0.2051373E-002  0.5803268E+02  0.7818608E-02  0.1406278E+00
         -1   -1    0    0  501    0 -0.00000000000E+00  0.00000000000E+00  0.64875664065E+01  0.64875683642E+01  0.50400000000E-02 0.  1.
          1   -1    0    0    0  501  0.00000000000E+00 -0.00000000000E+00 -0.12977868359E+03  0.12977868369E+03  0.50400000000E-02 0.  1.
          2    1    1    2    0  502  0.25638360534E+02  0.20031207415E+01 -0.30089227039E+02  0.39581556487E+02  0.25500000000E-02 0.  1.
         -2    1    1    2  502    0 -0.25638360534E+02 -0.20031207415E+01 -0.93201890146E+02  0.96684695567E+02  0.25500000000E-02 0.  1.
<mgrwt>
<rscale>  0 0.58032679E+02</rscale>
<asrwt>0</asrwt>
<pdfrwt beam="2">  1        1 0.19965949E-01 0.58032679E+02</pdfrwt>
<pdfrwt beam="1">  1       -1 0.99808740E-03 0.58032679E+02</pdfrwt>
<totfact> 0.35892015E+05</totfact>
</mgrwt>
</event>
<event>
 4    1  0.2051373E-002  0.8235340E+02  0.7818608E-02  0.1322502E+00
         -1   -1    0    0  501    0 -0.00000000000E+00  0.00000000000E+00  0.13154889524E+01  0.13154986072E+01  0.50400000000E-02 0. -1.
          1   -1    0    0    0  501  0.00000000000E+00 -0.00000000000E+00 -0.12888853839E+04  0.12888853840E+04  0.50400000000E-02 0. -1.
          2    1    1    2    0  502  0.20353623196E+02 -0.33823019817E+02 -0.82732818845E+03  0.82826939945E+03  0.25500000000E-02 0. -1.
         -2    1    1    2  502    0 -0.20353623196E+02  0.33823019817E+02 -0.46024170654E+03  0.46193148311E+03  0.25500000000E-02 0. -1.
<mgrwt>
<rscale>  0 0.82353402E+02</rscale>
<asrwt>0</asrwt>
<pdfrwt beam="2">  1        1 0.19828905E+00 0.82353402E+02</pdfrwt>
<pdfrwt beam="1">  1       -1 0.20238469E-03 0.82353402E+02</pdfrwt>
<totfact> 0.16037574E+05</totfact>
</mgrwt>
</event>
<event>
 4    1  0.2051373E-002  0.6694945E+02  0.7818608E-02  0.1370785E+00
         -1   -1    0    0  501    0 -0.00000000000E+00  0.00000000000E+00  0.18514236123E+03  0.18514236130E+03  0.50400000000E-02 0.  1.
          1   -1    0    0    0  501  0.00000000000E+00 -0.00000000000E+00 -0.60524071873E+01  0.60524092858E+01  0.50400000000E-02 0.  1.
          2    1    1    2    0  502 -0.33148935993E+02  0.74837374286E-01  0.76241815216E+02  0.83136465838E+02  0.25500000000E-02 0.  1.
         -2    1    1    2  502    0  0.33148935993E+02 -0.74837374286E-01  0.10284813883E+03  0.10805830475E+03  0.25500000000E-02 0.  1.
<mgrwt>
<rscale>  0 0.66949449E+02</rscale>
<asrwt>0</asrwt>
<pdfrwt beam="2">  1        1 0.93113975E-03 0.66949449E+02</pdfrwt>
<pdfrwt beam="1">  1       -1 0.28483440E-01 0.66949449E+02</pdfrwt>
<totfact> 0.15715860E+05</totfact>
</mgrwt>
</event>
<event>
 4    1  0.2051373E-002  0.8476954E+02  0.7818608E-02  0.1316036E+00
         -1   -1    0    0  501    0 -0.00000000000E+00  0.00000000000E+00  0.28079563842E+01  0.28079609073E+01  0.50400000000E-02 0.  1.
          1   -1    0    0    0  501  0.00000000000E+00 -0.00000000000E+00 -0.63977753901E+03  0.63977753903E+03  0.50400000000E-02 0.  1.
          2    1    1    2    0  502 -0.40173828217E+02 -0.13496676454E+02 -0.32310900619E+03  0.32587655122E+03  0.25500000000E-02 0. -1.
         -2    1    1    2  502    0  0.40173828217E+02  0.13496676454E+02 -0.31386057644E+03  0.31670894872E+03  0.25500000000E-02 0. -1.
<mgrwt>
<rscale>  0 0.84769544E+02</rscale>
<asrwt>0</asrwt>
<pdfrwt beam="2">  1        1 0.98427198E-01 0.84769544E+02</pdfrwt>
<pdfrwt beam="1">  1       -1 0.43199415E-03 0.84769544E+02</pdfrwt>
<totfact> 0.17208790E+05</totfact>
</mgrwt>
</event>
<event>
 4    1  0.2051373E-002  0.5341310E+02  0.7818608E-02  0.1427756E+00
         -1   -1    0    0  501    0 -0.00000000000E+00  0.00000000000E+00  0.65086865006E+00  0.65088816338E+00  0.50400000000E-02 0.  1.
          1   -1    0    0    0  501  0.00000000000E+00 -0.00000000000E+00 -0.10958109923E+04  0.10958109924E+04  0.50400000000E-02 0.  1.
          2    1    1    2    0  502 -0.24574507218E+02 -0.36630446907E+01 -0.34653658292E+03  0.34742614699E+03  0.25500000000E-02 0.  1.
         -2    1    1    2  502    0  0.24574507218E+02  0.36630446907E+01 -0.74862354078E+03  0.74903573354E+03  0.25500000000E-02 0.  1.
<mgrwt>
<rscale>  0 0.53413097E+02</rscale>
<asrwt>0</asrwt>
<pdfrwt beam="2">  1        1 0.16858483E+00 0.53413097E+02</pdfrwt>
<pdfrwt beam="1">  1       -1 0.10013602E-03 0.53413097E+02</pdfrwt>
<totfact> 0.52343232E+05</totfact>
</mgrwt>
</event>
<event>
 4    1  0.2051373E-002  0.9685912E+02  0.7818608E-02  0.1287043E+00
         -1   -1    0    0  501    0 -0.00000000000E+00  0.00000000000E+00  0.14396941745E+02  0.14396942627E+02  0.50400000000E-02 0.  1.
          1   -1    0    0    0  501  0.00000000000E+00 -0.00000000000E+00 -0.16291113165E+03  0.16291113173E+03  0.50400000000E-02 0.  1.
          2    1    1    2    0  502 -0.97709344920E+01  0.46788986791E+02 -0.88524056617E+02  0.10060412045E+03  0.25500000000E-02 0.  1.
         -2    1    1    2  502    0  0.97709344920E+01 -0.46788986791E+02 -0.59990133289E+02  0.76703953903E+02  0.25500000000E-02 0.  1.
<mgrwt>
<rscale>  0 0.96859117E+02</rscale>
<asrwt>0</asrwt>
<pdfrwt beam="2">  1        1 0.25063250E-01 0.96859117E+02</pdfrwt>
<pdfrwt beam="1">  1       -1 0.22149143E-02 0.96859117E+02</pdfrwt>
<totfact> 0.96689460E+04</totfact>
</mgrwt>
</event>
<event>
 4    1  0.2051373E-002  0.8066468E+02  0.7818608E-02  0.1327176E+00
         -1   -1    0    0  501    0 -0.00000000000E+00  0.00000000000E+00  0.63709301761E+01  0.63709321697E+01  0.50400000000E-02 0. -1.
          1   -1    0    0    0  501  0.00000000000E+00 -0.00000000000E+00 -0.25533120132E+03  0.25533120137E+03  0.50400000000E-02 0. -1.
          2    1    1    2    0  502 -0.25132665578E+02  0.35682767942E+01 -0.22616329694E+03  0.22758343606E+03  0.25500000000E-02 0.  1.
         -2    1    1    2  502    0  0.25132665578E+02 -0.35682767942E+01 -0.22796974196E+02  0.34118697475E+02  0.25500000000E-02 0.  1.
<mgrwt>
<rscale>  0 0.80664677E+02</rscale>
<asrwt>0</asrwt>
<pdfrwt beam="2">  1        1 0.39281715E-01 0.80664677E+02</pdfrwt>
<pdfrwt beam="1">  1       -1 0.98014346E-03 0.80664677E+02</pdfrwt>
<totfact> 0.17185359E+05</totfact>
</mgrwt>
</event>
<event>
 4    1  0.2051373E-002  0.4033202E+02  0.7818608E-02  0.1505782E+00
          1   -1    0    0    0  501  0.00000000000E+00  0.00000000000E+00  0.29743885116E+00  0.29748154864E+00  0.50400000000E-02 0.  1.
         -1   -1    0    0  501    0 -0.00000000000E+00 -0.00000000000E+00 -0.13671337687E+04  0.13671337687E+04  0.50400000000E-02 0.  1.
          2    1    1    2    0  502 -0.16187600413E+02 -0.11940989334E+02 -0.73187005775E+03  0.73214643827E+03  0.25500000000E-02 0.  1.
         -2    1    1    2  502    0  0.16187600413E+02  0.11940989334E+02 -0.63496627206E+03  0.63528481195E+03  0.25500000000E-02 0.  1.
<mgrwt>
<rscale>  0 0.40332017E+02</rscale>
<asrwt>0</asrwt>
<pdfrwt beam="1">  1        1 0.45764203E-04 0.40332017E+02</pdfrwt>
<pdfrwt beam="2">  1       -1 0.21032324E+00 0.40332017E+02</pdfrwt>
<totfact> 0.12918006E+05</totfact>
</mgrwt>
</event>
<event>
 4    1  0.2051373E-002  0.4772073E+02  0.7818608E-02  0.1458038E+00
          1   -1    0    0    0  501  0.00000000000E+00  0.00000000000E+00  0.16222394611E+02  0.16222395393E+02  0.50400000000E-02 0. -1.
         -1   -1    0    0  501    0 -0.00000000000E+00 -0.00000000000E+00 -0.35094507345E+02  0.35094507707E+02  0.50400000000E-02 0. -1.
          2    1    1    2    0  502  0.34451576065E+01  0.19798861487E+02  0.43961233999E+01  0.20571580750E+02  0.25500000000E-02 0. -1.
         -2    1    1    2  502    0 -0.34451576065E+01 -0.19798861487E+02 -0.23268236134E+02  0.30745322350E+02  0.25500000000E-02 0. -1.
<mgrwt>
<rscale>  0 0.47720728E+02</rscale>
<asrwt>0</asrwt>
<pdfrwt beam="1">  1        1 0.24957531E-02 0.47720728E+02</pdfrwt>
<pdfrwt beam="2">  1       -1 0.53991551E-02 0.47720728E+02</pdfrwt>
<totfact> 0.47489043E+05</totfact>
</mgrwt>
</event>
<event>
 4    1  0.2051373E-002  0.4361444E+02  0.7818608E-02  0.1483182E+00
         -1   -1    0    0  501    0 -0.00000000000E+00  0.00000000000E+00  0.19201612247E+01  0.19201678392E+01  0.50400000000E-02 0.  1.
          1   -1    0    0    0  501  0.00000000000E+00 -0.00000000000E+00 -0.24766355821E+03  0.24766355826E+03  0.50400000000E-02 0.  1.
          2    1    1    2    0  502 -0.19269227382E+02  0.97427146150E+01 -0.14035221033E+03  0.14200340335E+03  0.25500000000E-02 0. -1.
         -2    1    1    2  502    0  0.19269227382E+02 -0.97427146150E+01 -0.10539118666E+03  0.10758032276E+03  0.25500000000E-02 0. -1.
<mgrwt>
<rscale>  0 0.43614438E+02</rscale>
<asrwt>0</asrwt>
<pdfrwt beam="2">  1        1 0.38102061E-01 0.43614438E+02</pdfrwt>
<pdfrwt beam="1">  1       -1 0.29541013E-03 0.43614438E+02</pdfrwt>
<totfact> 0.81859585E+05</totfact>
</mgrwt>
</event>
<event>
 4    1  0.2051373E-002  0.4952439E+02  0.7818608E-02  0.1447924E+00
         -1   -1    0    0  501    0 -0.00000000000E+00  0.00000000000E+00  0.69228986993E+03  0.69228986995E+03  0.50400000000E-02 0. -1.
          1   -1    0    0    0  501  0.00000000000E+00 -0.00000000000E+00 -0.88570025934E+00  0.88571459906E+00  0.50400000000E-02 0. -1.
          2    1    1    2    0  502 -0.86033936698E+01 -0.18740594583E+02  0.15382131701E+03  0.15519737704E+03  0.25500000000E-02 0. -1.
         -2    1    1    2  502    0  0.86033936698E+01  0.18740594583E+02  0.53758285266E+03  0.53797820750E+03  0.25500000000E-02 0. -1.
<mgrwt>
<rscale>  0 0.49524390E+02</rscale>
<asrwt>0</asrwt>
<pdfrwt beam="2">  1        1 0.13626249E-03 0.49524390E+02</pdfrwt>
<pdfrwt beam="1">  1       -1 0.10650628E+00 0.49524390E+02</pdfrwt>
<totfact> 0.17671886E+05</totfact>
</mgrwt>
</event>
<event>
 4    1  0.2051373E-002  0.6138098E+02  0.7818608E-02  0.1392126E+00
         -1   -1    0    0  501    0 -0.00000000000E+00  0.00000000000E+00  0.21307425218E+02  0.21307425814E+02  0.50400000000E-02 0. -1.
          1   -1    0    0    0  501  0.00000000000E+00 -0.00000000000E+00 -0.44205528698E+02  0.44205528985E+02  0.50400000000E-02 0. -1.
          2    1    1    2    0  502  0.20200341312E+02 -0.22984691882E+02 -0.13964880871E+02  0.33635810594E+02  0.25500000000E-02 0.  1.
         -2    1    1    2  502    0 -0.20200341312E+02  0.22984691882E+02 -0.89332226078E+01  0.31877144206E+02  0.25500000000E-02 0.  1.
<mgrwt>
<rscale>  0 0.61380975E+02</rscale>
<asrwt>0</asrwt>
<pdfrwt beam="2">  1        1 0.68008506E-02 0.61380975E+02</pdfrwt>
<pdfrwt beam="1">  1       -1 0.32780655E-02 0.61380975E+02</pdfrwt>
<totfact> 0.27031183E+05</totfact>
</mgrwt>
</event>
<event>
 4    1  0.2051373E-002  0.7103228E+02  0.7818608E-02  0.1356617E+00
          1   -1    0    0    0  501  0.00000000000E+00  0.00000000000E+00  0.32094468613E+03  0.32094468617E+03  0.50400000000E-02 0. -1.
         -1   -1    0    0  501    0 -0.00000000000E+00 -0.00000000000E+00 -0.39302589058E+01  0.39302621374E+01  0.50400000000E-02 0. -1.
          2    1    1    2    0  502  0.82069506436E+01 -0.33622060504E+02  0.12203295783E+03  0.12684573227E+03  0.25500000000E-02 0. -1.
         -2    1    1    2  502    0 -0.82069506436E+01  0.33622060504E+02  0.19498146939E+03  0.19802921604E+03  0.25500000000E-02 0. -1.
<mgrwt>
<rscale>  0 0.71032281E+02</rscale>
<asrwt>0</asrwt>
<pdfrwt beam="1">  1        1 0.49376119E-01 0.71032281E+02</pdfrwt>
<pdfrwt beam="2">  1       -1 0.60465531E-03 0.71032281E+02</pdfrwt>
<totfact> 0.25004113E+05</totfact>
</mgrwt>
</event>
<event>
 4    1  0.2051373E-002  0.6256468E+02  0.7818608E-02  0.1387374E+00
         -1   -1    0    0  501    0 -0.00000000000E+00  0.00000000000E+00  0.12522524717E+03  0.12522524727E+03  0.50400000000E-02 0. -1.
          1   -1    0    0    0  501  0.00000000000E+00 -0.00000000000E+00 -0.78145952666E+01  0.78145968919E+01  0.50400000000E-02 0. -1.
          2    1    1    2    0  502 -0.24730743736E+02  0.15086172877E+02  0.33600539283E+02  0.44364383738E+02  0.25500000000E-02 0.  1.
         -2    1    1    2  502    0  0.24730743736E+02 -0.15086172877E+02  0.83810112623E+02  0.88675460429E+02  0.25500000000E-02 0.  1.
<mgrwt>
<rscale>  0 0.62564678E+02</rscale>
<asrwt>0</asrwt>
<pdfrwt beam="2">  1        1 0.12022457E-02 0.62564678E+02</pdfrwt>
<pdfrwt beam="1">  1       -1 0.19265421E-01 0.62564678E+02</pdfrwt>
<totfact> 0.20405921E+05</totfact>
</mgrwt>
</event>
<event>
 4    1  0.2051373E-002  0.9366673E+02  0.7818608E-02  0.1294207E+00
         -1   -1    0    0  501    0 -0.00000000000E+00  0.00000000000E+00  0.94136466589E+03  0.94136466590E+03  0.50400000000E-02 0.  1.
          1   -1    0    0    0  501  0.00000000000E+00 -0.00000000000E+00 -0.23299806427E+01  0.23299860938E+01  0.50400000000E-02 0.  1.
          2    1    1    2    0  502  0.17489506803E+02 -0.42158660883E+02  0.57524679271E+03  0.57705468377E+03  0.25500000000E-02 0.  1.
         -2    1    1    2  502    0 -0.17489506803E+02  0.42158660883E+02  0.36378789254E+03  0.36663996822E+03  0.25500000000E-02 0.  1.
<mgrwt>
<rscale>  0 0.93666729E+02</rscale>
<asrwt>0</asrwt>
<pdfrwt beam="2">  1        1 0.35845884E-03 0.93666729E+02</pdfrwt>
<pdfrwt beam="1">  1       -1 0.14482539E+00 0.93666729E+02</pdfrwt>
<totfact> 0.25643687E+04</totfact>
</mgrwt>
</event>
<event>
 4    1  0.2051373E-002  0.4551156E+02  0.7818608E-02  0.1471173E+00
          1   -1    0    0    0  501  0.00000000000E+00  0.00000000000E+00  0.24835890470E+03  0.24835890475E+03  0.50400000000E-02 0. -1.
         -1   -1    0    0  501    0 -0.00000000000E+00 -0.00000000000E+00 -0.20849859343E+01  0.20849920258E+01  0.50400000000E-02 0. -1.
          2    1    1    2    0  502 -0.18398544666E+02  0.84860924200E+01  0.66133732604E+02  0.69167845167E+02  0.25500000000E-02 0.  1.
         -2    1    1    2  502    0  0.18398544666E+02 -0.84860924200E+01  0.18014018616E+03  0.18127605161E+03  0.25500000000E-02 0.  1.
<mgrwt>
<rscale>  0 0.45511563E+02</rscale>
<asrwt>0</asrwt>
<pdfrwt beam="1">  1        1 0.38209063E-01 0.45511563E+02</pdfrwt>
<pdfrwt beam="2">  1       -1 0.32076754E-03 0.45511563E+02</pdfrwt>
<totfact> 0.73742702E+05</totfact>
</mgrwt>
</event>
<event>
 4    1  0.2051373E-002  0.5423873E+02  0.7818608E-02  0.1423734E+00
          1   -1    0    0    0  501  0.00000000000E+00  0.00000000000E+00  0.16112972504E+01  0.16113051327E+01  0.50400000000E-02 0.  1.
         -1   -1    0    0  501    0 -0.00000000000E+00 -0.00000000000E+00 -0.45643853461E+03  0.45643853463E+03  0.50400000000E-02 0.  1.
          2    1    1    2    0  502 -0.66709685168E+01 -0.19205178462E+02 -0.75844206159E+02  0.78521871572E+02  0.25500000000E-02 0. -1.
         -2    1    1    2  502    0  0.66709685168E+01  0.19205178462E+02 -0.37898303120E+03  0.37952796819E+03  0.25500000000E-02 0. -1.
<mgrwt>
<rscale>  0 0.54238730E+02</rscale>
<asrwt>0</asrwt>
<pdfrwt beam="1">  1        1 0.24789286E-03 0.54238730E+02</pdfrwt>
<pdfrwt beam="2">  1       -1 0.70221211E-01 0.54238730E+02</pdfrwt>
<totfact> 0.18800939E+05</totfact>
</mgrwt>
</event>
<event>
 4    1  0.2051373E-002  0.4478488E+02  0.7818608E-02  0.1475689E+00
          1   -1    0    0    0  501  0.00000000000E+00  0.00000000000E+00  0.46795312758E+01  0.46795339899E+01  0.50400000000E-02 0.  1.
         -1   -1    0    0  501    0 -0.00000000000E+00 -0.00000000000E+00 -0.10715201461E+03  0.10715201473E+03  0.50400000000E-02 0.  1.
          2    1    1    2    0  502  0.21773555676E+02  0.40008555812E+01 -0.42832238167E+02  0.48215093125E+02  0.25500000000E-02 0. -1.
         -2    1    1    2  502    0 -0.21773555676E+02 -0.40008555812E+01 -0.59640245172E+02  0.63616455598E+02  0.25500000000E-02 0. -1.
<mgrwt>
<rscale>  0 0.44784880E+02</rscale>
<asrwt>0</asrwt>
<pdfrwt beam="1">  1        1 0.71992819E-03 0.44784880E+02</pdfrwt>
<pdfrwt beam="2">  1       -1 0.16484924E-01 0.44784880E+02</pdfrwt>
<totfact> 0.48237967E+05</totfact>
</mgrwt>
</event>
<event>
 4    1  0.2051373E-002  0.8474836E+02  0.7818608E-02  0.1316092E+00
          1   -1    0    0    0  501  0.00000000000E+00  0.00000000000E+00  0.32372138018E+03  0.32372138022E+03  0.50400000000E-02 0.  1.
         -1   -1    0    0  501    0 -0.00000000000E+00 -0.00000000000E+00 -0.55466545381E+01  0.55466568279E+01  0.50400000000E-02 0.  1.
          2    1    1    2    0  502 -0.65362508187E+01 -0.41321027185E+02  0.18527205509E+03  0.18993652694E+03  0.25500000000E-02 0. -1.
         -2    1    1    2  502    0  0.65362508187E+01  0.41321027185E+02  0.13290267056E+03  0.13933151011E+03  0.25500000000E-02 0. -1.
<mgrwt>
<rscale>  0 0.84748358E+02</rscale>
<asrwt>0</asrwt>
<pdfrwt beam="1">  1        1 0.49803285E-01 0.84748358E+02</pdfrwt>
<pdfrwt beam="2">  1       -1 0.85333173E-03 0.84748358E+02</pdfrwt>
<totfact> 0.15776540E+05</totfact>
</mgrwt>
</event>
<event>
 4    1  0.2051373E-002  0.4994684E+02  0.7818608E-02  0.1445628E+00
         -1   -1    0    0  501    0 -0.00000000000E+00  0.00000000000E+00  0.91847481817E+00  0.91848864620E+00  0.50400000000E-02 0.  1.
          1   -1    0    0    0  501  0.00000000000E+00 -0.00000000000E+00 -0.67902457315E+03  0.67902457317E+03  0.50400000000E-02 0.  1.
          2    1    1    2    0  502 -0.23930534672E+02  0.41209692064E+01 -0.25965240871E+03  0.26078540264E+03  0.25500000000E-02 0. -1.
         -2    1    1    2  502    0  0.23930534672E+02 -0.41209692064E+01 -0.41845368962E+03  0.41915765917E+03  0.25500000000E-02 0. -1.
<mgrwt>
<rscale>  0 0.49946839E+02</rscale>
<asrwt>0</asrwt>
<pdfrwt beam="2">  1        1 0.10446492E+00 0.49946839E+02</pdfrwt>
<pdfrwt beam="1">  1       -1 0.14130543E-03 0.49946839E+02</pdfrwt>
<totfact> 0.66543131E+05</totfact>
</mgrwt>
</event>
<event>
 4    1  0.2051373E-002  0.4521418E+02  0.7818608E-02  0.1473009E+00
          1   -1    0    0    0  501  0.00000000000E+00  0.00000000000E+00  0.30644736660E+02  0.30644737075E+02  0.50400000000E-02 0.  1.
         -1   -1    0    0  501    0 -0.00000000000E+00 -0.00000000000E+00 -0.16677595110E+02  0.16677595872E+02  0.50400000000E-02 0.  1.
          2    1    1    2    0  502  0.22114505255E+02 -0.35539672591E+01  0.10192209960E+02  0.24608193276E+02  0.25500000000E-02 0.  1.
         -2    1    1    2  502    0 -0.22114505255E+02  0.35539672591E+01  0.37749315895E+01  0.22714139670E+02  0.25500000000E-02 0.  1.
<mgrwt>
<rscale>  0 0.45214181E+02</rscale>
<asrwt>0</asrwt>
<pdfrwt beam="1">  1        1 0.47145749E-02 0.45214181E+02</pdfrwt>
<pdfrwt beam="2">  1       -1 0.25657840E-02 0.45214181E+02</pdfrwt>
<totfact> 0.57658154E+05</totfact>
</mgrwt>
</event>
<event>
 4    1  0.2051373E-002  0.1348119E+03  0.7818608E-02  0.1220485E+00
         -1   -1    0    0  501    0 -0.00000000000E+00  0.00000000000E+00  0.24087318033E+02  0.24087318560E+02  0.50400000000E-02 0.  1.
          1   -1    0    0    0  501  0.00000000000E+00 -0.00000000000E+00 -0.18862881838E+03  0.18862881844E+03  0.50400000000E-02 0.  1.
          2    1    1    2    0  502 -0.52101645956E+02 -0.17921614313E+02 -0.14354014301E+03  0.15375154774E+03  0.25500000000E-02 0. -1.
         -2    1    1    2  502    0  0.52101645956E+02  0.17921614313E+02 -0.21001357337E+02  0.58964589267E+02  0.25500000000E-02 0. -1.
<mgrwt>
<rscale>  0 0.13481190E+03</rscale>
<asrwt>0</asrwt>
<pdfrwt beam="2">  1        1 0.29019817E-01 0.13481190E+03</pdfrwt>
<pdfrwt beam="1">  1       -1 0.37057414E-02 0.13481190E+03</pdfrwt>
<totfact> 0.39967889E+04</totfact>
</mgrwt>
</event>
<event>
 4    1  0.2051373E-002  0.6448730E+02  0.7818608E-02  0.1379911E+00
         -1   -1    0    0  501    0 -0.00000000000E+00  0.00000000000E+00  0.96468987592E+00  0.96470304152E+00  0.50400000000E-02 0. -1.
          1   -1    0    0    0  501  0.00000000000E+00 -0.00000000000E+00 -0.10776996418E+04  0.10776996418E+04  0.50400000000E-02 0. -1.
          2    1    1    2    0  502  0.30688725843E+02 -0.92965760543E+01 -0.59491488301E+03  0.59577843386E+03  0.25500000000E-02 0. -1.
         -2    1    1    2  502    0 -0.30688725843E+02  0.92965760543E+01 -0.48182006887E+03  0.48288591095E+03  0.25500000000E-02 0. -1.
<mgrwt>
<rscale>  0 0.64487302E+02</rscale>
<asrwt>0</asrwt>
<pdfrwt beam="2">  1        1 0.16579898E+00 0.64487302E+02</pdfrwt>
<pdfrwt beam="1">  1       -1 0.14841570E-03 0.64487302E+02</pdfrwt>
<totfact> 0.32705059E+05</totfact>
</mgrwt>
</event>
<event>
 4    1  0.2051373E-002  0.4589345E+02  0.7818608E-02  0.1468840E+00
          1   -1    0    0    0  501  0.00000000000E+00  0.00000000000E+00  0.26393494982E+03  0.26393494987E+03  0.50400000000E-02 0.  1.
         -1   -1    0    0  501    0 -0.00000000000E+00 -0.00000000000E+00 -0.19950040881E+01  0.19950104544E+01  0.50400000000E-02 0.  1.
          2    1    1    2    0  502 -0.10869720126E+02  0.19692490267E+02  0.10466573853E+03  0.10705541471E+03  0.25500000000E-02 0. -1.
         -2    1    1    2  502    0  0.10869720126E+02 -0.19692490267E+02  0.15727420720E+03  0.15887454562E+03  0.25500000000E-02 0. -1.
<mgrwt>
<rscale>  0 0.45893449E+02</rscale>
<asrwt>0</asrwt>
<pdfrwt beam="1">  1        1 0.40605359E-01 0.45893449E+02</pdfrwt>
<pdfrwt beam="2">  1       -1 0.30692434E-03 0.45893449E+02</pdfrwt>
<totfact> 0.73008487E+05</totfact>
</mgrwt>
</event>
<event>
 4    1  0.2051373E-002  0.5079866E+02  0.7818608E-02  0.1441081E+00
          1   -1    0    0    0  501  0.00000000000E+00  0.00000000000E+00  0.92801078741E+03  0.92801078742E+03  0.50400000000E-02 0. -1.
         -1   -1    0    0  501    0 -0.00000000000E+00 -0.00000000000E+00 -0.69516149081E+00  0.69517976086E+00  0.50400000000E-02 0. -1.
          2    1    1    2    0  502  0.78007461346E+01 -0.23599704884E+02  0.36808573777E+03  0.36892398684E+03  0.25500000000E-02 0.  1.
         -2    1    1    2  502    0 -0.78007461346E+01  0.23599704884E+02  0.55922988815E+03  0.55978198034E+03  0.25500000000E-02 0.  1.
<mgrwt>
<rscale>  0 0.50798656E+02</rscale>
<asrwt>0</asrwt>
<pdfrwt beam="1">  1        1 0.14277073E+00 0.50798656E+02</pdfrwt>
<pdfrwt beam="2">  1       -1 0.10694945E-03 0.50798656E+02</pdfrwt>
<totfact> 0.62065870E+05</totfact>
</mgrwt>
</event>
<event>
 4    1  0.2051373E-002  0.6092945E+02  0.7818608E-02  0.1393972E+00
          1   -1    0    0    0  501  0.00000000000E+00  0.00000000000E+00  0.11135851418E+03  0.11135851429E+03  0.50400000000E-02 0.  1.
         -1   -1    0    0  501    0 -0.00000000000E+00 -0.00000000000E+00 -0.83343377560E+01  0.83343392799E+01  0.50400000000E-02 0.  1.
          2    1    1    2    0  502 -0.41072625648E+01 -0.19994830911E+02  0.70861220590E+01  0.21607313606E+02  0.25500000000E-02 0. -1.
         -2    1    1    2  502    0  0.41072625648E+01  0.19994830911E+02  0.95938054363E+02  0.98085539966E+02  0.25500000000E-02 0. -1.
<mgrwt>
<rscale>  0 0.60929453E+02</rscale>
<asrwt>0</asrwt>
<pdfrwt beam="1">  1        1 0.17132080E-01 0.60929453E+02</pdfrwt>
<pdfrwt beam="2">  1       -1 0.12822059E-02 0.60929453E+02</pdfrwt>
<totfact> 0.30940694E+05</totfact>
</mgrwt>
</event>
<event>
 4    1  0.2051373E-002  0.4307773E+02  0.7818608E-02  0.1486712E+00
         -1   -1    0    0  501    0 -0.00000000000E+00  0.00000000000E+00  0.15462452725E+01  0.15462534864E+01  0.50400000000E-02 0. -1.
          1   -1    0    0    0  501  0.00000000000E+00 -0.00000000000E+00 -0.30003098558E+03  0.30003098562E+03  0.50400000000E-02 0. -1.
          2    1    1    2    0  502 -0.11739510995E+02 -0.17181654655E+02 -0.11032832332E+03  0.11227361359E+03  0.25500000000E-02 0.  1.
         -2    1    1    2  502    0  0.11739510995E+02  0.17181654655E+02 -0.18815641698E+03  0.18930362552E+03  0.25500000000E-02 0.  1.
<mgrwt>
<rscale>  0 0.43077732E+02</rscale>
<asrwt>0</asrwt>
<pdfrwt beam="2">  1        1 0.46158567E-01 0.43077732E+02</pdfrwt>
<pdfrwt beam="1">  1       -1 0.23788476E-03 0.43077732E+02</pdfrwt>
<totfact> 0.87234075E+05</totfact>
</mgrwt>
</event>
<event>
 4    1  0.2051373E-002  0.5518307E+02  0.7818608E-02  0.1419235E+00
         -1   -1    0    0  501    0 -0.00000000000E+00  0.00000000000E+00  0.19272841304E+01  0.19272907203E+01  0.50400000000E-02 0.  1.
          1   -1    0    0    0  501  0.00000000000E+00 -0.00000000000E+00 -0.39500741211E+03  0.39500741214E+03  0.50400000000E-02 0.  1.
          2    1    1    2    0  502 -0.11324054970E+01 -0.24926260707E+02 -0.11182923649E+03  0.11457913839E+03  0.25500000000E-02 0. -1.
         -2    1    1    2  502    0  0.11324054970E+01  0.24926260707E+02 -0.28125089149E+03  0.28235556447E+03  0.25500000000E-02 0. -1.
<mgrwt>
<rscale>  0 0.55183071E+02</rscale>
<asrwt>0</asrwt>
<pdfrwt beam="2">  1        1 0.60770307E-01 0.55183071E+02</pdfrwt>
<pdfrwt beam="1">  1       -1 0.29650607E-03 0.55183071E+02</pdfrwt>
<totfact> 0.49345146E+05</totfact>
</mgrwt>
</event>
<event>
 4    1  0.2051373E-002  0.7331754E+02  0.7818608E-02  0.1349162E+00
          1   -1    0    0    0  501  0.00000000000E+00  0.00000000000E+00  0.70791331521E+02  0.70791331701E+02  0.50400000000E-02 0.  1.
         -1   -1    0    0  501    0 -0.00000000000E+00 -0.00000000000E+00 -0.18983475357E+02  0.18983476026E+02  0.50400000000E-02 0.  1.
          2    1    1    2    0  502  0.20916378757E+02  0.47843714187E+01  0.62299206337E+02  0.65890638386E+02  0.25500000000E-02 0. -1.
         -2    1    1    2  502    0 -0.20916378757E+02 -0.47843714187E+01 -0.10491350173E+02  0.23884169341E+02  0.25500000000E-02 0. -1.
<mgrwt>
<rscale>  0 0.73317543E+02</rscale>
<asrwt>0</asrwt>
<pdfrwt beam="1">  1        1 0.10890974E-01 0.73317543E+02</pdfrwt>
<pdfrwt beam="2">  1       -1 0.29205347E-02 0.73317543E+02</pdfrwt>
<totfact> 0.17857558E+05</totfact>
</mgrwt>
</event>
<event>
 4    1  0.2051373E-002  0.8345772E+02  0.7818608E-02  0.1319516E+00
          1   -1    0    0    0  501  0.00000000000E+00  0.00000000000E+00  0.12997798203E+03  0.12997798213E+03  0.50400000000E-02 0. -1.
         -1   -1    0    0  501    0 -0.00000000000E+00 -0.00000000000E+00 -0.13396866581E+02  0.13396867529E+02  0.50400000000E-02 0. -1.
          2    1    1    2    0  502 -0.28545372141E+02 -0.22218080054E+02  0.94030867610E+02  0.10074862491E+03  0.25500000000E-02 0.  1.
         -2    1    1    2  502    0  0.28545372141E+02  0.22218080054E+02  0.22550247844E+02  0.42626224748E+02  0.25500000000E-02 0.  1.
<mgrwt>
<rscale>  0 0.83457720E+02</rscale>
<asrwt>0</asrwt>
<pdfrwt beam="1">  1        1 0.19996612E-01 0.83457720E+02</pdfrwt>
<pdfrwt beam="2">  1       -1 0.20610565E-02 0.83457720E+02</pdfrwt>
<totfact> 0.13862679E+05</totfact>
</mgrwt>
</event>
<event>
 4    1  0.2051373E-002  0.1031847E+03  0.7818608E-02  0.1273738E+00
          1   -1    0    0    0  501  0.00000000000E+00  0.00000000000E+00  0.38206142271E+02  0.38206142603E+02  0.50400000000E-02 0.  1.
         -1   -1    0    0  501    0 -0.00000000000E+00 -0.00000000000E+00 -0.69668616521E+02  0.69668616703E+02  0.50400000000E-02 0.  1.
          2    1    1    2    0  502  0.33508153001E+02 -0.13401343859E+02  0.22814341987E+02  0.42695275401E+02  0.25500000000E-02 0. -1.
         -2    1    1    2  502    0 -0.33508153001E+02  0.13401343859E+02 -0.54276816238E+02  0.65179483905E+02  0.25500000000E-02 0. -1.
<mgrwt>
<rscale>  0 0.10318467E+03</rscale>
<asrwt>0</asrwt>
<pdfrwt beam="1">  1        1 0.58778681E-02 0.10318467E+03</pdfrwt>
<pdfrwt beam="2">  1       -1 0.10718249E-01 0.10318467E+03</pdfrwt>
<totfact> 0.63160968E+04</totfact>
</mgrwt>
</event>
<event>
 4    1  0.2051373E-002  0.4445626E+02  0.7818608E-02  0.1477765E+00
          1   -1    0    0    0  501  0.00000000000E+00  0.00000000000E+00  0.11753768543E+03  0.11753768554E+03  0.50400000000E-02 0. -1.
         -1   -1    0    0  501    0 -0.00000000000E+00 -0.00000000000E+00 -0.42036690134E+01  0.42036720348E+01  0.50400000000E-02 0. -1.
          2    1    1    2    0  502 -0.20337494922E+02  0.78409818875E+01  0.44731936291E+02  0.49759831466E+02  0.25500000000E-02 0. -1.
         -2    1    1    2  502    0  0.20337494922E+02 -0.78409818875E+01  0.68602080123E+02  0.71981526105E+02  0.25500000000E-02 0. -1.
<mgrwt>
<rscale>  0 0.44456258E+02</rscale>
<asrwt>0</asrwt>
<pdfrwt beam="1">  1        1 0.18082720E-01 0.44456258E+02</pdfrwt>
<pdfrwt beam="2">  1       -1 0.64671858E-03 0.44456258E+02</pdfrwt>
<totfact> 0.69277224E+05</totfact>
</mgrwt>
</event>
<event>
 4    1  0.2051373E-002  0.4949305E+02  0.7818608E-02  0.1448095E+00
          1   -1    0    0    0  501  0.00000000000E+00  0.00000000000E+00  0.26085434157E+02  0.26085434644E+02  0.50400000000E-02 0.  1.
         -1   -1    0    0  501    0 -0.00000000000E+00 -0.00000000000E+00 -0.23476340545E+02  0.23476341086E+02  0.50400000000E-02 0.  1.
          2    1    1    2    0  502 -0.16008179011E+02  0.17892402766E+02 -0.47030068685E+01  0.24464630635E+02  0.25500000000E-02 0.  1.
         -2    1    1    2  502    0  0.16008179011E+02 -0.17892402766E+02  0.73121004812E+01  0.25097145095E+02  0.25500000000E-02 0.  1.
<mgrwt>
<rscale>  0 0.49493052E+02</rscale>
<asrwt>0</asrwt>
<pdfrwt beam="1">  1        1 0.40131438E-02 0.49493052E+02</pdfrwt>
<pdfrwt beam="2">  1       -1 0.36117448E-02 0.49493052E+02</pdfrwt>
<totfact> 0.45081089E+05</totfact>
</mgrwt>
</event>
<event>
 4    1  0.2051373E-002  0.5853545E+02  0.7818608E-02  0.1404083E+00
         -1   -1    0    0  501    0 -0.00000000000E+00  0.00000000000E+00  0.98907234246E+00  0.98908518350E+00  0.50400000000E-02 0. -1.
          1   -1    0    0    0  501  0.00000000000E+00 -0.00000000000E+00 -0.86605822669E+03  0.86605822670E+03  0.50400000000E-02 0. -1.
          2    1    1    2    0  502  0.21914090071E+02  0.81343527296E+00 -0.14542304019E+03  0.14706716032E+03  0.25500000000E-02 0.  1.
         -2    1    1    2  502    0 -0.21914090071E+02 -0.81343527296E+00 -0.71964611416E+03  0.71998015157E+03  0.25500000000E-02 0.  1.
<mgrwt>
<rscale>  0 0.58535453E+02</rscale>
<asrwt>0</asrwt>
<pdfrwt beam="2">  1        1 0.13323912E+00 0.58535453E+02</pdfrwt>
<pdfrwt beam="1">  1       -1 0.15216666E-03 0.58535453E+02</pdfrwt>
<totfact> 0.44030093E+05</totfact>
</mgrwt>
</event>
<event>
 4    1  0.2051373E-002  0.4221989E+02  0.7818608E-02  0.1492483E+00
         -1   -1    0    0  501    0 -0.00000000000E+00  0.00000000000E+00  0.75561677965E+00  0.75563358799E+00  0.50400000000E-02 0.  1.
          1   -1    0    0    0  501  0.00000000000E+00 -0.00000000000E+00 -0.58974970597E+03  0.58974970599E+03  0.50400000000E-02 0.  1.
          2    1    1    2    0  502  0.11096179320E+02 -0.17706239797E+02 -0.33644143097E+03  0.33708971002E+03  0.25500000000E-02 0.  1.
         -2    1    1    2  502    0 -0.11096179320E+02  0.17706239797E+02 -0.25255265822E+03  0.25341562956E+03  0.25500000000E-02 0.  1.
<mgrwt>
<rscale>  0 0.42219888E+02</rscale>
<asrwt>0</asrwt>
<pdfrwt beam="2">  1        1 0.90730357E-01 0.42219888E+02</pdfrwt>
<pdfrwt beam="1">  1       -1 0.11625050E-03 0.42219888E+02</pdfrwt>
<totfact> 0.10010077E+06</totfact>
</mgrwt>
</event>
<event>
 4    1  0.2051373E-002  0.4584692E+02  0.7818608E-02  0.1469123E+00
          1   -1    0    0    0  501  0.00000000000E+00  0.00000000000E+00  0.10548583276E+04  0.10548583276E+04  0.50400000000E-02 0.  1.
         -1   -1    0    0  501    0 -0.00000000000E+00 -0.00000000000E+00 -0.49814425673E+00  0.49816975230E+00  0.50400000000E-02 0.  1.
          2    1    1    2    0  502  0.74114633362E+01 -0.19546733375E+02  0.74370744840E+03  0.74400119179E+03  0.25500000000E-02 0. -1.
         -2    1    1    2  502    0 -0.74114633362E+01  0.19546733375E+02  0.31065273495E+03  0.31135530558E+03  0.25500000000E-02 0. -1.
<mgrwt>
<rscale>  0 0.45846923E+02</rscale>
<asrwt>0</asrwt>
<pdfrwt beam="1">  1        1 0.16228630E+00 0.45846923E+02</pdfrwt>
<pdfrwt beam="2">  1       -1 0.76639351E-04 0.45846923E+02</pdfrwt>
<totfact> 0.77431187E+05</totfact>
</mgrwt>
</event>
<event>
 4    1  0.2051373E-002  0.1100160E+03  0.7818608E-02  0.1260540E+00
          1   -1    0    0    0  501  0.00000000000E+00  0.00000000000E+00  0.12442091653E+04  0.12442091653E+04  0.50400000000E-02 0.  1.
         -1   -1    0    0  501    0 -0.00000000000E+00 -0.00000000000E+00 -0.24319694735E+01  0.24319746960E+01  0.50400000000E-02 0.  1.
          2    1    1    2    0  502  0.34674321726E+02  0.11927570658E+02  0.15625682493E+03  0.16050162264E+03  0.25500000000E-02 0.  1.
         -2    1    1    2  502    0 -0.34674321726E+02 -0.11927570658E+02  0.10855203709E+04  0.10861395174E+04  0.25500000000E-02 0.  1.
<mgrwt>
<rscale>  0 0.11001603E+03</rscale>
<asrwt>0</asrwt>
<pdfrwt beam="1">  1        1 0.19141660E+00 0.11001603E+03</pdfrwt>
<pdfrwt beam="2">  1       -1 0.37414994E-03 0.11001603E+03</pdfrwt>
<totfact> 0.75753777E+04</totfact>
</mgrwt>
</event>
<event>
 4    1  0.2051373E-002  0.6992274E+02  0.7818608E-02  0.1360356E+00
          1   -1    0    0    0  501  0.00000000000E+00  0.00000000000E+00  0.10320625002E+03  0.10320625014E+03  0.50400000000E-02 0. -1.
         -1   -1    0    0  501    0 -0.00000000000E+00 -0.00000000000E+00 -0.11843249423E+02  0.11843250495E+02  0.50400000000E-02 0. -1.
          2    1    1    2    0  502 -0.28665019505E+02 -0.69064577711E+01  0.14771336723E+02  0.32978400465E+02  0.25500000000E-02 0.  1.
         -2    1    1    2  502    0  0.28665019505E+02  0.69064577711E+01  0.76591663875E+02  0.82071100174E+02  0.25500000000E-02 0.  1.
<mgrwt>
<rscale>  0 0.69922741E+02</rscale>
<asrwt>0</asrwt>
<pdfrwt beam="1">  1        1 0.15877884E-01 0.69922741E+02</pdfrwt>
<pdfrwt beam="2">  1       -1 0.18220386E-02 0.69922741E+02</pdfrwt>
<totfact> 0.21364828E+05</totfact>
</mgrwt>
</event>
<event>
 4    1  0.2051373E-002  0.4733651E+02  0.7818608E-02  0.1460261E+00
          1   -1    0    0    0  501  0.00000000000E+00  0.00000000000E+00  0.92044488765E+02  0.92044488903E+02  0.50400000000E-02 0.  1.
         -1   -1    0    0  501    0 -0.00000000000E+00 -0.00000000000E+00 -0.60860377490E+01  0.60860398359E+01  0.50400000000E-02 0.  1.
          2    1    1    2    0  502 -0.18303451808E+02  0.13200657949E+02  0.57771010920E+02  0.62022281702E+02  0.25500000000E-02 0. -1.
         -2    1    1    2  502    0  0.18303451808E+02 -0.13200657949E+02  0.28187440097E+02  0.36108247037E+02  0.25500000000E-02 0. -1.
<mgrwt>
<rscale>  0 0.47336512E+02</rscale>
<asrwt>0</asrwt>
<pdfrwt beam="1">  1        1 0.14160691E-01 0.47336512E+02</pdfrwt>
<pdfrwt beam="2">  1       -1 0.93631364E-03 0.47336512E+02</pdfrwt>
<totfact> 0.57325131E+05</totfact>
</mgrwt>
</event>
<event>
 4    1  0.2051373E-002  0.4489665E+02  0.7818608E-02  0.1474988E+00
          1   -1    0    0    0  501  0.00000000000E+00  0.00000000000E+00  0.10858860335E+04  0.10858860335E+04  0.50400000000E-02 0.  1.
         -1   -1    0    0  501    0 -0.00000000000E+00 -0.00000000000E+00 -0.46405651760E+00  0.46408388587E+00  0.50400000000E-02 0.  1.
          2    1    1    2    0  502 -0.16043878816E+02  0.14008171408E+02  0.37111496629E+03  0.37172564227E+03  0.25500000000E-02 0.  1.
         -2    1    1    2  502    0  0.16043878816E+02 -0.14008171408E+02  0.71430701066E+03  0.71462447509E+03  0.25500000000E-02 0.  1.
<mgrwt>
<rscale>  0 0.44896653E+02</rscale>
<asrwt>0</asrwt>
<pdfrwt beam="1">  1        1 0.16705590E+00 0.44896653E+02</pdfrwt>
<pdfrwt beam="2">  1       -1 0.71396908E-04 0.44896653E+02</pdfrwt>
<totfact> 0.80749179E+05</totfact>
</mgrwt>
</event>
<event>
 4    1  0.2051373E-002  0.6643966E+02  0.7818608E-02  0.1372636E+00
          1   -1    0    0    0  501  0.00000000000E+00  0.00000000000E+00  0.10514344671E+03  0.10514344683E+03  0.50400000000E-02 0. -1.
         -1   -1    0    0  501    0 -0.00000000000E+00 -0.00000000000E+00 -0.10495726671E+02  0.10495727881E+02  0.50400000000E-02 0. -1.
          2    1    1    2    0  502  0.17547101385E+02  0.99344954353E+01  0.93273504569E+02  0.95428201428E+02  0.25500000000E-02 0. -1.
         -2    1    1    2  502    0 -0.17547101385E+02 -0.99344954353E+01  0.13742154727E+01  0.20210973288E+02  0.25500000000E-02 0. -1.
<mgrwt>
<rscale>  0 0.66439655E+02</rscale>
<asrwt>0</asrwt>
<pdfrwt beam="1">  1        1 0.16175916E-01 0.66439655E+02</pdfrwt>
<pdfrwt beam="2">  1       -1 0.16147272E-02 0.66439655E+02</pdfrwt>
<totfact> 0.24496849E+05</totfact>
</mgrwt>
</event>
<event>
 4    1  0.2051373E-002  0.6613898E+02  0.7818608E-02  0.1373738E+00
         -1   -1    0    0  501    0 -0.00000000000E+00  0.00000000000E+00  0.33632866502E+03  0.33632866506E+03  0.50400000000E-02 0.  1.
          1   -1    0    0    0  501  0.00000000000E+00 -0.00000000000E+00 -0.32515532816E+01  0.32515571877E+01  0.50400000000E-02 0.  1.
          2    1    1    2    0  502 -0.16771068228E+02  0.28283727296E+02  0.14849276196E+03  0.15208990210E+03  0.25500000000E-02 0. -1.
         -2    1    1    2  502    0  0.16771068228E+02 -0.28283727296E+02  0.18458434978E+03  0.18749032015E+03  0.25500000000E-02 0. -1.
<mgrwt>
<rscale>  0 0.66138982E+02</rscale>
<asrwt>0</asrwt>
<pdfrwt beam="2">  1        1 0.50023891E-03 0.66138982E+02</pdfrwt>
<pdfrwt beam="1">  1       -1 0.51742909E-01 0.66138982E+02</pdfrwt>
<totfact> 0.13248503E+05</totfact>
</mgrwt>
</event>
<event>
 4    1  0.2051373E-002  0.4947720E+02  0.7818608E-02  0.1448182E+00
         -1   -1    0    0  501    0 -0.00000000000E+00  0.00000000000E+00  0.17432143038E+02  0.17432143767E+02  0.50400000000E-02 0. -1.
          1   -1    0    0    0  501  0.00000000000E+00 -0.00000000000E+00 -0.35107459254E+02  0.35107459616E+02  0.50400000000E-02 0. -1.
          2    1    1    2    0  502 -0.17448541807E+02  0.16942066622E+02 -0.40281936805E+01  0.24651806900E+02  0.25500000000E-02 0. -1.
         -2    1    1    2  502    0  0.17448541807E+02 -0.16942066622E+02 -0.13647122535E+02  0.27887796482E+02  0.25500000000E-02 0. -1.
<mgrwt>
<rscale>  0 0.49477198E+02</rscale>
<asrwt>0</asrwt>
<pdfrwt beam="2">  1        1 0.54011477E-02 0.49477198E+02</pdfrwt>
<pdfrwt beam="1">  1       -1 0.26818682E-02 0.49477198E+02</pdfrwt>
<totfact> 0.46328940E+05</totfact>
</mgrwt>
</event>
<event>
 4    1  0.2051373E-002  0.7269456E+02  0.7818608E-02  0.1351163E+00
         -1   -1    0    0  501    0 -0.00000000000E+00  0.00000000000E+00  0.54917276680E+02  0.54917276912E+02  0.50400000000E-02 0. -1.
          1   -1    0    0    0  501  0.00000000000E+00 -0.00000000000E+00 -0.24056633897E+02  0.24056634425E+02  0.50400000000E-02 0. -1.
          2    1    1    2    0  502 -0.94001705264E+01  0.31625998886E+02  0.31997448574E+02  0.45960893521E+02  0.25500000000E-02 0. -1.
         -2    1    1    2  502    0  0.94001705264E+01 -0.31625998886E+02 -0.11368057913E+01  0.33013017816E+02  0.25500000000E-02 0. -1.
<mgrwt>
<rscale>  0 0.72694562E+02</rscale>
<asrwt>0</asrwt>
<pdfrwt beam="2">  1        1 0.37010207E-02 0.72694562E+02</pdfrwt>
<pdfrwt beam="1">  1       -1 0.84488118E-02 0.72694562E+02</pdfrwt>
<totfact> 0.15918322E+05</totfact>
</mgrwt>
</event>
<event>
 4    1  0.2051373E-002  0.4840221E+02  0.7818608E-02  0.1454155E+00
          1   -1    0    0    0  501  0.00000000000E+00  0.00000000000E+00  0.16437277488E+01  0.16437354756E+01  0.50400000000E-02 0. -1.
         -1   -1    0    0  501    0 -0.00000000000E+00 -0.00000000000E+00 -0.35631938626E+03  0.35631938630E+03  0.50400000000E-02 0. -1.
          2    1    1    2    0  502 -0.22402690067E+02  0.45497955526E+01 -0.23609083024E+03  0.23719498581E+03  0.25500000000E-02 0.  1.
         -2    1    1    2  502    0  0.22402690067E+02 -0.45497955526E+01 -0.11858482828E+03  0.12076813597E+03  0.25500000000E-02 0.  1.
<mgrwt>
<rscale>  0 0.48402209E+02</rscale>
<asrwt>0</asrwt>
<pdfrwt beam="1">  1        1 0.25288207E-03 0.48402209E+02</pdfrwt>
<pdfrwt beam="2">  1       -1 0.54818306E-01 0.48402209E+02</pdfrwt>
<totfact> 0.28280477E+05</totfact>
</mgrwt>
</event>
<event>
 4    1  0.2051373E-002  0.6800225E+02  0.7818608E-02  0.1367021E+00
         -1   -1    0    0  501    0 -0.00000000000E+00  0.00000000000E+00  0.58015824456E+00  0.58018013611E+00  0.50400000000E-02 0.  1.
          1   -1    0    0    0  501  0.00000000000E+00 -0.00000000000E+00 -0.19926539600E+04  0.19926539600E+04  0.50400000000E-02 0.  1.
          2    1    1    2    0  502  0.21440510339E+02  0.24608130575E+02 -0.71670028589E+03  0.71744306769E+03  0.25500000000E-02 0.  1.
         -2    1    1    2  502    0 -0.21440510339E+02 -0.24608130575E+02 -0.12753735158E+04  0.12757910724E+04  0.25500000000E-02 0.  1.
<mgrwt>
<rscale>  0 0.68002248E+02</rscale>
<asrwt>0</asrwt>
<pdfrwt beam="2">  1        1 0.30655667E+00 0.68002248E+02</pdfrwt>
<pdfrwt beam="1">  1       -1 0.89258394E-04 0.68002248E+02</pdfrwt>
<totfact> 0.17291899E+05</totfact>
</mgrwt>
</event>
<event>
 4    1  0.2051373E-002  0.4925388E+02  0.7818608E-02  0.1449408E+00
          1   -1    0    0    0  501  0.00000000000E+00  0.00000000000E+00  0.22180753166E+04  0.22180753166E+04  0.50400000000E-02 0. -1.
         -1   -1    0    0  501    0 -0.00000000000E+00 -0.00000000000E+00 -0.27340578931E+00  0.27345223939E+00  0.50400000000E-02 0. -1.
          2    1    1    2    0  502  0.10330033660E+02 -0.20240220857E+02  0.15364401374E+04  0.15366081713E+04  0.25500000000E-02 0. -1.
         -2    1    1    2  502    0 -0.10330033660E+02  0.20240220857E+02  0.68136177334E+03  0.68174059752E+03  0.25500000000E-02 0. -1.
<mgrwt>
<rscale>  0 0.49253879E+02</rscale>
<asrwt>0</asrwt>
<pdfrwt beam="1">  1        1 0.34124914E+00 0.49253879E+02</pdfrwt>
<pdfrwt beam="2">  1       -1 0.42065167E-04 0.49253879E+02</pdfrwt>
<totfact> 0.33000038E+05</totfact>
</mgrwt>
</event>
<event>
 4    1  0.2051373E-002  0.5479911E+02  0.7818608E-02  0.1421051E+00
         -1   -1    0    0  501    0 -0.00000000000E+00  0.00000000000E+00  0.12536711593E+04  0.12536711593E+04  0.50400000000E-02 0.  1.
          1   -1    0    0    0  501  0.00000000000E+00 -0.00000000000E+00 -0.59881925122E+00  0.59884046059E+00  0.50400000000E-02 0.  1.
          2    1    1    2    0  502  0.24003701347E+02 -0.13200181477E+02  0.63934671177E+03  0.63993330928E+03  0.25500000000E-02 0. -1.
         -2    1    1    2  502    0 -0.24003701347E+02  0.13200181477E+02  0.61372562823E+03  0.61433669044E+03  0.25500000000E-02 0. -1.
<mgrwt>
<rscale>  0 0.54799114E+02</rscale>
<asrwt>0</asrwt>
<pdfrwt beam="2">  1        1 0.92127582E-04 0.54799114E+02</pdfrwt>
<pdfrwt beam="1">  1       -1 0.19287267E+00 0.54799114E+02</pdfrwt>
<totfact> 0.69692801E+04</totfact>
</mgrwt>
</event>
<event>
 4    1  0.2051373E-002  0.6703080E+02  0.7818608E-02  0.1370491E+00
         -1   -1    0    0  501    0 -0.00000000000E+00  0.00000000000E+00  0.11011895615E+02  0.11011896768E+02  0.50400000000E-02 0.  1.
          1   -1    0    0    0  501  0.00000000000E+00 -0.00000000000E+00 -0.10200623269E+03  0.10200623281E+03  0.50400000000E-02 0.  1.
          2    1    1    2    0  502  0.28644048341E+02  0.11147075701E+02 -0.22967986360E+02  0.38370134297E+02  0.25500000000E-02 0.  1.
         -2    1    1    2  502    0 -0.28644048341E+02 -0.11147075701E+02 -0.68026350713E+02  0.74647995283E+02  0.25500000000E-02 0.  1.
<mgrwt>
<rscale>  0 0.67030801E+02</rscale>
<asrwt>0</asrwt>
<pdfrwt beam="2">  1        1 0.15693266E-01 0.67030801E+02</pdfrwt>
<pdfrwt beam="1">  1       -1 0.16941380E-02 0.67030801E+02</pdfrwt>
<totfact> 0.23828478E+05</totfact>
</mgrwt>
</event>
<event>
 4    1  0.2051373E-002  0.1311250E+03  0.7818608E-02  0.1225796E+00
         -1   -1    0    0  501    0 -0.00000000000E+00  0.00000000000E+00  0.30558259851E+02  0.30558260267E+02  0.50400000000E-02 0.  1.
          1   -1    0    0    0  501  0.00000000000E+00 -0.00000000000E+00 -0.14066377755E+03  0.14066377764E+03  0.50400000000E-02 0.  1.
          2    1    1    2    0  502  0.62211561193E+02  0.14175990834E+01 -0.82008834712E+02  0.10294531029E+03  0.25500000000E-02 0.  1.
         -2    1    1    2  502    0 -0.62211561193E+02 -0.14175990834E+01 -0.28096682990E+02  0.68276727622E+02  0.25500000000E-02 0.  1.
<mgrwt>
<rscale>  0 0.13112498E+03</rscale>
<asrwt>0</asrwt>
<pdfrwt beam="2">  1        1 0.21640581E-01 0.13112498E+03</pdfrwt>
<pdfrwt beam="1">  1       -1 0.47012709E-02 0.13112498E+03</pdfrwt>
<totfact> 0.40577385E+04</totfact>
</mgrwt>
</event>
<event>
 4    1  0.2051373E-002  0.4992016E+02  0.7818608E-02  0.1445773E+00
          1   -1    0    0    0  501  0.00000000000E+00  0.00000000000E+00  0.20416925751E+04  0.20416925751E+04  0.50400000000E-02 0.  1.
         -1   -1    0    0  501    0 -0.00000000000E+00 -0.00000000000E+00 -0.30512088643E+00  0.30516250906E+00  0.50400000000E-02 0.  1.
          2    1    1    2    0  502 -0.93991813528E+01  0.22279494629E+02  0.76759268484E+03  0.76797346980E+03  0.25500000000E-02 0. -1.
         -2    1    1    2  502    0  0.93991813528E+01 -0.22279494629E+02  0.12737947694E+04  0.12740242678E+04  0.25500000000E-02 0. -1.
<mgrwt>
<rscale>  0 0.49920158E+02</rscale>
<asrwt>0</asrwt>
<pdfrwt beam="1">  1        1 0.31409943E+00 0.49920158E+02</pdfrwt>
<pdfrwt beam="2">  1       -1 0.46945942E-04 0.49920158E+02</pdfrwt>
<totfact> 0.36632631E+05</totfact>
</mgrwt>
</event>
<event>
 4    1  0.2051373E-002  0.4363429E+02  0.7818608E-02  0.1483052E+00
          1   -1    0    0    0  501  0.00000000000E+00  0.00000000000E+00  0.69427363592E+02  0.69427363775E+02  0.50400000000E-02 0. -1.
         -1   -1    0    0  501    0 -0.00000000000E+00 -0.00000000000E+00 -0.68559112605E+01  0.68559131131E+01  0.50400000000E-02 0. -1.
          2    1    1    2    0  502 -0.13287285480E+02  0.16581250236E+02  0.22632708673E+02  0.31043990130E+02  0.25500000000E-02 0.  1.
         -2    1    1    2  502    0  0.13287285480E+02 -0.16581250236E+02  0.39938743658E+02  0.45239286758E+02  0.25500000000E-02 0.  1.
<mgrwt>
<rscale>  0 0.43634295E+02</rscale>
<asrwt>0</asrwt>
<pdfrwt beam="1">  1        1 0.10681133E-01 0.43634295E+02</pdfrwt>
<pdfrwt beam="2">  1       -1 0.10547557E-02 0.43634295E+02</pdfrwt>
<totfact> 0.67997194E+05</totfact>
</mgrwt>
</event>
<event>
 4    1  0.2051373E-002  0.5183450E+02  0.7818608E-02  0.1435691E+00
          1   -1    0    0    0  501  0.00000000000E+00  0.00000000000E+00  0.47701181899E+02  0.47701182165E+02  0.50400000000E-02 0.  1.
         -1   -1    0    0  501    0 -0.00000000000E+00 -0.00000000000E+00 -0.14081490670E+02  0.14081491572E+02  0.50400000000E-02 0.  1.
          2    1    1    2    0  502  0.57234860247E+01 -0.23742333442E+02  0.64705094788E+01  0.25265078448E+02  0.25500000000E-02 0. -1.
         -2    1    1    2  502    0 -0.57234860247E+01  0.23742333442E+02  0.27149181750E+02  0.36517595290E+02  0.25500000000E-02 0. -1.
<mgrwt>
<rscale>  0 0.51834498E+02</rscale>
<asrwt>0</asrwt>
<pdfrwt beam="1">  1        1 0.73386435E-02 0.51834498E+02</pdfrwt>
<pdfrwt beam="2">  1       -1 0.21663833E-02 0.51834498E+02</pdfrwt>
<totfact> 0.42318807E+05</totfact>
</mgrwt>
</event>
<event>
 4    1  0.2051373E-002  0.5055377E+02  0.7818608E-02  0.1442377E+00
         -1   -1    0    0  501    0 -0.00000000000E+00  0.00000000000E+00  0.18777659678E+01  0.18777727315E+01  0.50400000000E-02 0.  1.
          1   -1    0    0    0  501  0.00000000000E+00 -0.00000000000E+00 -0.34025520022E+03  0.34025520026E+03  0.50400000000E-02 0.  1.
          2    1    1    2    0  502 -0.14530838409E+01 -0.24004414372E+02 -0.11650595625E+03  0.11896201583E+03  0.25500000000E-02 0. -1.
         -2    1    1    2  502    0  0.14530838409E+01  0.24004414372E+02 -0.22187147800E+03  0.22317095716E+03  0.25500000000E-02 0. -1.
<mgrwt>
<rscale>  0 0.50553765E+02</rscale>
<asrwt>0</asrwt>
<pdfrwt beam="2">  1        1 0.52346906E-01 0.50553765E+02</pdfrwt>
<pdfrwt beam="1">  1       -1 0.28888786E-03 0.50553765E+02</pdfrwt>
<totfact> 0.60000957E+05</totfact>
</mgrwt>
</event>
<event>
 4    1  0.2051373E-002  0.6615974E+02  0.7818608E-02  0.1373661E+00
         -1   -1    0    0  501    0 -0.00000000000E+00  0.00000000000E+00  0.56178487077E+00  0.56180747826E+00  0.50400000000E-02 0.  1.
          1   -1    0    0    0  501  0.00000000000E+00 -0.00000000000E+00 -0.19478200881E+04  0.19478200881E+04  0.50400000000E-02 0.  1.
          2    1    1    2    0  502  0.24737399765E+02  0.49233848089E+01 -0.34331065429E+03  0.34423594237E+03  0.25500000000E-02 0.  1.
         -2    1    1    2  502    0 -0.24737399765E+02 -0.49233848089E+01 -0.16039476489E+04  0.16041459532E+04  0.25500000000E-02 0.  1.
<mgrwt>
<rscale>  0 0.66159743E+02</rscale>
<asrwt>0</asrwt>
<pdfrwt beam="2">  1        1 0.29965922E+00 0.66159743E+02</pdfrwt>
<pdfrwt beam="1">  1       -1 0.86431741E-04 0.66159743E+02</pdfrwt>
<totfact> 0.19182582E+05</totfact>
</mgrwt>
</event>
<event>
 4    1  0.2051373E-002  0.5184974E+02  0.7818608E-02  0.1435612E+00
         -1   -1    0    0  501    0 -0.00000000000E+00  0.00000000000E+00  0.11591702844E+02  0.11591703940E+02  0.50400000000E-02 0.  1.
          1   -1    0    0    0  501  0.00000000000E+00 -0.00000000000E+00 -0.57981031780E+02  0.57981031999E+02  0.50400000000E-02 0.  1.
          2    1    1    2    0  502  0.35810833497E+01  0.25436934602E+02 -0.27888547630E+02  0.37916129751E+02  0.25500000000E-02 0.  1.
         -2    1    1    2  502    0 -0.35810833497E+01 -0.25436934602E+02 -0.18500781306E+02  0.31656606188E+02  0.25500000000E-02 0.  1.
<mgrwt>
<rscale>  0 0.51849742E+02</rscale>
<asrwt>0</asrwt>
<pdfrwt beam="2">  1        1 0.89201587E-02 0.51849742E+02</pdfrwt>
<pdfrwt beam="1">  1       -1 0.17833390E-02 0.51849742E+02</pdfrwt>
<totfact> 0.43145440E+05</totfact>
</mgrwt>
</event>
<event>
 4    1  0.2051373E-002  0.4657969E+02  0.7818608E-02  0.1464714E+00
          1   -1    0    0    0  501  0.00000000000E+00  0.00000000000E+00  0.40146654182E+03  0.40146654185E+03  0.50400000000E-02 0.  1.
         -1   -1    0    0  501    0 -0.00000000000E+00 -0.00000000000E+00 -0.13510839937E+01  0.13510933941E+01  0.50400000000E-02 0.  1.
          2    1    1    2    0  502 -0.19968915355E+02 -0.89427286406E+01  0.13104375369E+03  0.13285780129E+03  0.25500000000E-02 0.  1.
         -2    1    1    2  502    0  0.19968915355E+02  0.89427286406E+01  0.26907170414E+03  0.26995983396E+03  0.25500000000E-02 0.  1.
<mgrwt>
<rscale>  0 0.46579692E+02</rscale>
<asrwt>0</asrwt>
<pdfrwt beam="1">  1        1 0.61764135E-01 0.46579692E+02</pdfrwt>
<pdfrwt beam="2">  1       -1 0.20785963E-03 0.46579692E+02</pdfrwt>
<totfact> 0.75459779E+05</totfact>
</mgrwt>
</event>
<event>
 4    1  0.2051373E-002  0.7624546E+02  0.7818608E-02  0.1340057E+00
          1   -1    0    0    0  501  0.00000000000E+00  0.00000000000E+00  0.16736721068E+03  0.16736721075E+03  0.50400000000E-02 0.  1.
         -1   -1    0    0  501    0 -0.00000000000E+00 -0.00000000000E+00 -0.86835547854E+01  0.86835562481E+01  0.50400000000E-02 0.  1.
          2    1    1    2    0  502 -0.65315489852E+01 -0.30501201423E+02  0.28735307270E+02  0.42411110699E+02  0.25500000000E-02 0.  1.
         -2    1    1    2  502    0  0.65315489852E+01  0.30501201423E+02  0.12994834862E+03  0.13363965630E+03  0.25500000000E-02 0.  1.
<mgrwt>
<rscale>  0 0.76245458E+02</rscale>
<asrwt>0</asrwt>
<pdfrwt beam="1">  1        1 0.25748801E-01 0.76245458E+02</pdfrwt>
<pdfrwt beam="2">  1       -1 0.13359317E-02 0.76245458E+02</pdfrwt>
<totfact> 0.18425531E+05</totfact>
</mgrwt>
</event>
<event>
 4    1  0.2051373E-002  0.4427397E+02  0.7818608E-02  0.1478926E+00
          1   -1    0    0    0  501  0.00000000000E+00  0.00000000000E+00  0.39379617746E+02  0.39379618068E+02  0.50400000000E-02 0. -1.
         -1   -1    0    0  501    0 -0.00000000000E+00 -0.00000000000E+00 -0.12444155591E+02  0.12444156611E+02  0.50400000000E-02 0. -1.
          2    1    1    2    0  502  0.20896799235E+02 -0.73048559819E+01  0.13356812183E+02  0.25854237126E+02  0.25500000000E-02 0.  1.
         -2    1    1    2  502    0 -0.20896799235E+02  0.73048559819E+01  0.13578649972E+02  0.25969537554E+02  0.25500000000E-02 0.  1.
<mgrwt>
<rscale>  0 0.44273971E+02</rscale>
<asrwt>0</asrwt>
<pdfrwt beam="1">  1        1 0.60584027E-02 0.44273971E+02</pdfrwt>
<pdfrwt beam="2">  1       -1 0.19144856E-02 0.44273971E+02</pdfrwt>
<totfact> 0.62106242E+05</totfact>
</mgrwt>
</event>
<event>
 4    1  0.2051373E-002  0.5229147E+02  0.7818608E-02  0.1433360E+00
          1   -1    0    0    0  501  0.00000000000E+00  0.00000000000E+00  0.47397207369E+01  0.47397234165E+01  0.50400000000E-02 0.  1.
         -1   -1    0    0  501    0 -0.00000000000E+00 -0.00000000000E+00 -0.14422777559E+03  0.14422777568E+03  0.50400000000E-02 0.  1.
          2    1    1    2    0  502  0.20132218968E+02 -0.35332336673E+01 -0.23298279051E+02  0.30993544392E+02  0.25500000000E-02 0. -1.
         -2    1    1    2  502    0 -0.20132218968E+02  0.35332336673E+01 -0.11618977580E+03  0.11797395470E+03  0.25500000000E-02 0. -1.
<mgrwt>
<rscale>  0 0.52291475E+02</rscale>
<asrwt>0</asrwt>
<pdfrwt beam="1">  1        1 0.72918813E-03 0.52291475E+02</pdfrwt>
<pdfrwt beam="2">  1       -1 0.22188885E-01 0.52291475E+02</pdfrwt>
<totfact> 0.31073822E+05</totfact>
</mgrwt>
</event>
<event>
 4    1  0.2051373E-002  0.7605788E+02  0.7818608E-02  0.1340626E+00
          1   -1    0    0    0  501  0.00000000000E+00  0.00000000000E+00  0.60684268715E+01  0.60684289644E+01  0.50400000000E-02 0. -1.
         -1   -1    0    0  501    0 -0.00000000000E+00 -0.00000000000E+00 -0.23831548960E+03  0.23831548965E+03  0.50400000000E-02 0. -1.
          2    1    1    2    0  502  0.16124545261E+02  0.32866027541E+02 -0.14920842701E+03  0.15363375744E+03  0.25500000000E-02 0.  1.
         -2    1    1    2  502    0 -0.16124545261E+02 -0.32866027541E+02 -0.83038635711E+02  0.90750161175E+02  0.25500000000E-02 0.  1.
<mgrwt>
<rscale>  0 0.76057883E+02</rscale>
<asrwt>0</asrwt>
<pdfrwt beam="1">  1        1 0.93360448E-03 0.76057883E+02</pdfrwt>
<pdfrwt beam="2">  1       -1 0.36663914E-01 0.76057883E+02</pdfrwt>
<totfact> 0.10530994E+05</totfact>
</mgrwt>
</event>
<event>
 4    1  0.2051373E-002  0.4820905E+02  0.7818608E-02  0.1455248E+00
         -1   -1    0    0  501    0 -0.00000000000E+00  0.00000000000E+00  0.31079504712E+02  0.31079505121E+02  0.50400000000E-02 0. -1.
          1   -1    0    0    0  501  0.00000000000E+00 -0.00000000000E+00 -0.18694892343E+02  0.18694893022E+02  0.50400000000E-02 0. -1.
          2    1    1    2    0  502 -0.10538384559E+02  0.21330155261E+02  0.10190371522E+02  0.25881977336E+02  0.25500000000E-02 0. -1.
         -2    1    1    2  502    0  0.10538384559E+02 -0.21330155261E+02  0.21942408479E+01  0.23892420806E+02  0.25500000000E-02 0. -1.
<mgrwt>
<rscale>  0 0.48209046E+02</rscale>
<asrwt>0</asrwt>
<pdfrwt beam="2">  1        1 0.28761374E-02 0.48209046E+02</pdfrwt>
<pdfrwt beam="1">  1       -1 0.47814623E-02 0.48209046E+02</pdfrwt>
<totfact> 0.46852194E+05</totfact>
</mgrwt>
</event>
<event>
 4    1  0.2051373E-002  0.5092216E+02  0.7818608E-02  0.1440430E+00
         -1   -1    0    0  501    0 -0.00000000000E+00  0.00000000000E+00  0.16203826351E+01  0.16203904732E+01  0.50400000000E-02 0. -1.
          1   -1    0    0    0  501  0.00000000000E+00 -0.00000000000E+00 -0.40006916281E+03  0.40006916284E+03  0.50400000000E-02 0. -1.
          2    1    1    2    0  502 -0.21609316940E+01  0.25194689326E+02 -0.22265770432E+03  0.22408903430E+03  0.25500000000E-02 0. -1.
         -2    1    1    2  502    0  0.21609316940E+01 -0.25194689326E+02 -0.17579107585E+03  0.17760051901E+03  0.25500000000E-02 0. -1.
<mgrwt>
<rscale>  0 0.50922164E+02</rscale>
<asrwt>0</asrwt>
<pdfrwt beam="2">  1        1 0.61549024E-01 0.50922164E+02</pdfrwt>
<pdfrwt beam="1">  1       -1 0.24929056E-03 0.50922164E+02</pdfrwt>
<totfact> 0.60466303E+05</totfact>
</mgrwt>
</event>
<event>
 4    1  0.2051373E-002  0.5112544E+02  0.7818608E-02  0.1439364E+00
          1   -1    0    0    0  501  0.00000000000E+00  0.00000000000E+00  0.15077472367E+03  0.15077472375E+03  0.50400000000E-02 0. -1.
         -1   -1    0    0  501    0 -0.00000000000E+00 -0.00000000000E+00 -0.43339651689E+01  0.43339680995E+01  0.50400000000E-02 0. -1.
          2    1    1    2    0  502 -0.19834786148E+02  0.14518663132E+02  0.51930741091E+02  0.57454435838E+02  0.25500000000E-02 0.  1.
         -2    1    1    2  502    0  0.19834786148E+02 -0.14518663132E+02  0.94510017410E+02  0.97654256016E+02  0.25500000000E-02 0.  1.
<mgrwt>
<rscale>  0 0.51125439E+02</rscale>
<asrwt>0</asrwt>
<pdfrwt beam="1">  1        1 0.23196113E-01 0.51125439E+02</pdfrwt>
<pdfrwt beam="2">  1       -1 0.66676407E-03 0.51125439E+02</pdfrwt>
<totfact> 0.50708384E+05</totfact>
</mgrwt>
</event>
<event>
 4    1  0.2051373E-002  0.4617902E+02  0.7818608E-02  0.1467113E+00
         -1   -1    0    0  501    0 -0.00000000000E+00  0.00000000000E+00  0.51004502811E+00  0.51006992883E+00  0.50400000000E-02 0. -1.
          1   -1    0    0    0  501  0.00000000000E+00 -0.00000000000E+00 -0.10452264567E+04  0.10452264567E+04  0.50400000000E-02 0. -1.
          2    1    1    2    0  502  0.18970391462E+02 -0.13158658824E+02 -0.51521424761E+03  0.51573127402E+03  0.25500000000E-02 0.  1.
         -2    1    1    2  502    0 -0.18970391462E+02  0.13158658824E+02 -0.52950216402E+03  0.53000525258E+03  0.25500000000E-02 0.  1.
<mgrwt>
<rscale>  0 0.46179025E+02</rscale>
<asrwt>0</asrwt>
<pdfrwt beam="2">  1        1 0.16080236E+00 0.46179025E+02</pdfrwt>
<pdfrwt beam="1">  1       -1 0.78471219E-04 0.46179025E+02</pdfrwt>
<totfact> 0.76284288E+05</totfact>
</mgrwt>
</event>
<event>
 4    1  0.2051373E-002  0.5514740E+02  0.7818608E-02  0.1419403E+00
          1   -1    0    0    0  501  0.00000000000E+00  0.00000000000E+00  0.96006365061E+01  0.96006378290E+01  0.50400000000E-02 0. -1.
         -1   -1    0    0  501    0 -0.00000000000E+00 -0.00000000000E+00 -0.79193593134E+02  0.79193593294E+02  0.50400000000E-02 0. -1.
          2    1    1    2    0  502 -0.25937401573E+02  0.47260428604E+01 -0.21792816243E+02  0.34205425414E+02  0.25500000000E-02 0. -1.
         -2    1    1    2  502    0  0.25937401573E+02 -0.47260428604E+01 -0.47800140384E+02  0.54588805709E+02  0.25500000000E-02 0. -1.
<mgrwt>
<rscale>  0 0.55147401E+02</rscale>
<asrwt>0</asrwt>
<pdfrwt beam="1">  1        1 0.14770212E-02 0.55147401E+02</pdfrwt>
<pdfrwt beam="2">  1       -1 0.12183629E-01 0.55147401E+02</pdfrwt>
<totfact> 0.30257595E+05</totfact>
</mgrwt>
</event>
<event>
 4    1  0.2051373E-002  0.4919513E+02  0.7818608E-02  0.1449732E+00
         -1   -1    0    0  501    0 -0.00000000000E+00  0.00000000000E+00  0.13277230824E+01  0.13277326482E+01  0.50400000000E-02 0.  1.
          1   -1    0    0    0  501  0.00000000000E+00 -0.00000000000E+00 -0.45569591804E+03  0.45569591807E+03  0.50400000000E-02 0.  1.
          2    1    1    2    0  502  0.58676285784E+01 -0.23700916579E+02 -0.19950410963E+03  0.20099266722E+03  0.25500000000E-02 0. -1.
         -2    1    1    2  502    0 -0.58676285784E+01  0.23700916579E+02 -0.25486408533E+03  0.25603098349E+03  0.25500000000E-02 0. -1.
<mgrwt>
<rscale>  0 0.49195129E+02</rscale>
<asrwt>0</asrwt>
<pdfrwt beam="2">  1        1 0.70106940E-01 0.49195129E+02</pdfrwt>
<pdfrwt beam="1">  1       -1 0.20426619E-03 0.49195129E+02</pdfrwt>
<totfact> 0.67097219E+05</totfact>
</mgrwt>
</event>
<event>
 4    1  0.2051373E-002  0.4897542E+02  0.7818608E-02  0.1450947E+00
         -1   -1    0    0  501    0 -0.00000000000E+00  0.00000000000E+00  0.72295454096E+00  0.72297210866E+00  0.50400000000E-02 0. -1.
          1   -1    0    0    0  501  0.00000000000E+00 -0.00000000000E+00 -0.82943060301E+03  0.82943060303E+03  0.50400000000E-02 0. -1.
          2    1    1    2    0  502  0.19575233327E+02 -0.14220775714E+02 -0.47829012320E+03  0.47890172497E+03  0.25500000000E-02 0. -1.
         -2    1    1    2  502    0 -0.19575233327E+02  0.14220775714E+02 -0.35041752527E+03  0.35125185016E+03  0.25500000000E-02 0. -1.
<mgrwt>
<rscale>  0 0.48975419E+02</rscale>
<asrwt>0</asrwt>
<pdfrwt beam="2">  1        1 0.12760395E+00 0.48975419E+02</pdfrwt>
<pdfrwt beam="1">  1       -1 0.11122579E-03 0.48975419E+02</pdfrwt>
<totfact> 0.69134074E+05</totfact>
</mgrwt>
</event>
<event>
 4    1  0.2051373E-002  0.4479549E+02  0.7818608E-02  0.1475622E+00
          1   -1    0    0    0  501  0.00000000000E+00  0.00000000000E+00  0.80597329881E+03  0.80597329883E+03  0.50400000000E-02 0. -1.
         -1   -1    0    0  501    0 -0.00000000000E+00 -0.00000000000E+00 -0.62241602671E+00  0.62243643202E+00  0.50400000000E-02 0. -1.
          2    1    1    2    0  502  0.25917977174E+01 -0.21778100054E+02  0.32083962904E+03  0.32158835586E+03  0.25500000000E-02 0.  1.
         -2    1    1    2  502    0 -0.25917977174E+01  0.21778100054E+02  0.48451125374E+03  0.48500737940E+03  0.25500000000E-02 0.  1.
<mgrwt>
<rscale>  0 0.44795488E+02</rscale>
<asrwt>0</asrwt>
<pdfrwt beam="1">  1        1 0.12399566E+00 0.44795488E+02</pdfrwt>
<pdfrwt beam="2">  1       -1 0.95758066E-04 0.44795488E+02</pdfrwt>
<totfact> 0.86360694E+05</totfact>
</mgrwt>
</event>
<event>
 4    1  0.2051373E-002  0.5079578E+02  0.7818608E-02  0.1441096E+00
          1   -1    0    0    0  501  0.00000000000E+00  0.00000000000E+00  0.99882626903E+03  0.99882626904E+03  0.50400000000E-02 0.  1.
         -1   -1    0    0  501    0 -0.00000000000E+00 -0.00000000000E+00 -0.64580098563E+00  0.64582065207E+00  0.50400000000E-02 0.  1.
          2    1    1    2    0  502  0.13960819062E+02 -0.16419083616E+02  0.23469339243E+03  0.23568088431E+03  0.25500000000E-02 0.  1.
         -2    1    1    2  502    0 -0.13960819062E+02  0.16419083616E+02  0.76348707562E+03  0.76379120538E+03  0.25500000000E-02 0.  1.
<mgrwt>
<rscale>  0 0.50795780E+02</rscale>
<asrwt>0</asrwt>
<pdfrwt beam="1">  1        1 0.15366588E+00 0.50795780E+02</pdfrwt>
<pdfrwt beam="2">  1       -1 0.99355318E-04 0.50795780E+02</pdfrwt>
<totfact> 0.61041483E+05</totfact>
</mgrwt>
</event>
<event>
 4    1  0.2051373E-002  0.6857618E+02  0.7818608E-02  0.1365003E+00
          1   -1    0    0    0  501  0.00000000000E+00  0.00000000000E+00  0.80338626217E+02  0.80338626375E+02  0.50400000000E-02 0.  1.
         -1   -1    0    0  501    0 -0.00000000000E+00 -0.00000000000E+00 -0.14633971177E+02  0.14633972045E+02  0.50400000000E-02 0.  1.
          2    1    1    2    0  502  0.64670758843E+01 -0.32437950800E+02  0.20339701069E+02  0.38829720172E+02  0.25500000000E-02 0.  1.
         -2    1    1    2  502    0 -0.64670758843E+01  0.32437950800E+02  0.45364953971E+02  0.56142878247E+02  0.25500000000E-02 0.  1.
<mgrwt>
<rscale>  0 0.68576182E+02</rscale>
<asrwt>0</asrwt>
<pdfrwt beam="1">  1        1 0.12359789E-01 0.68576182E+02</pdfrwt>
<pdfrwt beam="2">  1       -1 0.22513803E-02 0.68576182E+02</pdfrwt>
<totfact> 0.21695116E+05</totfact>
</mgrwt>
</event>
<event>
 4    1  0.2051373E-002  0.4780336E+02  0.7818608E-02  0.1457563E+00
         -1   -1    0    0  501    0 -0.00000000000E+00  0.00000000000E+00  0.17099819556E+01  0.17099893831E+01  0.50400000000E-02 0. -1.
          1   -1    0    0    0  501  0.00000000000E+00 -0.00000000000E+00 -0.33409066035E+03  0.33409066038E+03  0.50400000000E-02 0. -1.
          2    1    1    2    0  502  0.75170064313E+00 -0.22406887906E+02 -0.22439585933E+03  0.22551304922E+03  0.25500000000E-02 0.  1.
         -2    1    1    2  502    0 -0.75170064313E+00  0.22406887906E+02 -0.10798481906E+03  0.11028760055E+03  0.25500000000E-02 0.  1.
<mgrwt>
<rscale>  0 0.47803358E+02</rscale>
<asrwt>0</asrwt>
<pdfrwt beam="2">  1        1 0.51398512E-01 0.47803358E+02</pdfrwt>
<pdfrwt beam="1">  1       -1 0.26307499E-03 0.47803358E+02</pdfrwt>
<totfact> 0.68742045E+05</totfact>
</mgrwt>
</event>
<event>
 4    1  0.2051373E-002  0.4162186E+02  0.7818608E-02  0.1496605E+00
         -1   -1    0    0  501    0 -0.00000000000E+00  0.00000000000E+00  0.25762802456E+01  0.25762851755E+01  0.50400000000E-02 0.  1.
          1   -1    0    0    0  501  0.00000000000E+00 -0.00000000000E+00 -0.16810839814E+03  0.16810839821E+03  0.50400000000E-02 0.  1.
          2    1    1    2    0  502  0.20747107775E+02 -0.86830822814E+00 -0.77115928854E+02  0.79862775621E+02  0.25500000000E-02 0.  1.
         -2    1    1    2  502    0 -0.20747107775E+02  0.86830822814E+00 -0.88416189038E+02  0.90821907768E+02  0.25500000000E-02 0.  1.
<mgrwt>
<rscale>  0 0.41621858E+02</rscale>
<asrwt>0</asrwt>
<pdfrwt beam="2">  1        1 0.25862822E-01 0.41621858E+02</pdfrwt>
<pdfrwt beam="1">  1       -1 0.39635132E-03 0.41621858E+02</pdfrwt>
<totfact> 0.86016528E+05</totfact>
</mgrwt>
</event>
<event>
 4    1  0.2051373E-002  0.4811492E+02  0.7818608E-02  0.1455783E+00
         -1   -1    0    0  501    0 -0.00000000000E+00  0.00000000000E+00  0.30879252300E+01  0.30879293431E+01  0.50400000000E-02 0.  1.
          1   -1    0    0    0  501  0.00000000000E+00 -0.00000000000E+00 -0.18742712278E+03  0.18742712285E+03  0.50400000000E-02 0.  1.
          2    1    1    2    0  502 -0.16611155024E+02 -0.16322178789E+02 -0.11606441309E+03  0.11837775122E+03  0.25500000000E-02 0. -1.
         -2    1    1    2  502    0  0.16611155024E+02  0.16322178789E+02 -0.68274784455E+02  0.72137300965E+02  0.25500000000E-02 0. -1.
<mgrwt>
<rscale>  0 0.48114918E+02</rscale>
<asrwt>0</asrwt>
<pdfrwt beam="2">  1        1 0.28834933E-01 0.48114918E+02</pdfrwt>
<pdfrwt beam="1">  1       -1 0.47506589E-03 0.48114918E+02</pdfrwt>
<totfact> 0.61185978E+05</totfact>
</mgrwt>
</event>
<event>
 4    1  0.2051373E-002  0.1455433E+03  0.7818608E-02  0.1206059E+00
          1   -1    0    0    0  501  0.00000000000E+00  0.00000000000E+00  0.24294207077E+02  0.24294207600E+02  0.50400000000E-02 0.  1.
         -1   -1    0    0  501    0 -0.00000000000E+00 -0.00000000000E+00 -0.21798263849E+03  0.21798263855E+03  0.50400000000E-02 0.  1.
          2    1    1    2    0  502  0.16419726864E+02 -0.66101949504E+02 -0.54187899146E+02  0.87036794397E+02  0.25500000000E-02 0. -1.
         -2    1    1    2  502    0 -0.16419726864E+02  0.66101949504E+02 -0.13950053227E+03  0.15524005175E+03  0.25500000000E-02 0. -1.
<mgrwt>
<rscale>  0 0.14554333E+03</rscale>
<asrwt>0</asrwt>
<pdfrwt beam="1">  1        1 0.37375705E-02 0.14554333E+03</pdfrwt>
<pdfrwt beam="2">  1       -1 0.33535789E-01 0.14554333E+03</pdfrwt>
<totfact> 0.19702469E+04</totfact>
</mgrwt>
</event>
<event>
 4    1  0.2051373E-002  0.5086601E+02  0.7818608E-02  0.1440726E+00
          1   -1    0    0    0  501  0.00000000000E+00  0.00000000000E+00  0.67785625154E+02  0.67785625341E+02  0.50400000000E-02 0. -1.
         -1   -1    0    0  501    0 -0.00000000000E+00 -0.00000000000E+00 -0.95424006638E+01  0.95424019948E+01  0.50400000000E-02 0. -1.
          2    1    1    2    0  502 -0.22297422373E+02  0.10305231383E+02  0.19099063580E+02  0.31115061859E+02  0.25500000000E-02 0.  1.
         -2    1    1    2  502    0  0.22297422373E+02 -0.10305231383E+02  0.39144160910E+02  0.46212965477E+02  0.25500000000E-02 0.  1.
<mgrwt>
<rscale>  0 0.50866006E+02</rscale>
<asrwt>0</asrwt>
<pdfrwt beam="1">  1        1 0.10428558E-01 0.50866006E+02</pdfrwt>
<pdfrwt beam="2">  1       -1 0.14680617E-02 0.50866006E+02</pdfrwt>
<totfact> 0.46087544E+05</totfact>
</mgrwt>
</event>
<event>
 4    1  0.2051373E-002  0.5705448E+02  0.7818608E-02  0.1410626E+00
         -1   -1    0    0  501    0 -0.00000000000E+00  0.00000000000E+00  0.21214286488E+03  0.21214286494E+03  0.50400000000E-02 0.  1.
          1   -1    0    0    0  501  0.00000000000E+00 -0.00000000000E+00 -0.38361089220E+01  0.38361122329E+01  0.50400000000E-02 0.  1.
          2    1    1    2    0  502  0.19484168220E+02 -0.90082095874E+01  0.33028241675E+02  0.39390930502E+02  0.25500000000E-02 0.  1.
         -2    1    1    2  502    0 -0.19484168220E+02  0.90082095874E+01  0.17527851429E+03  0.17658804668E+03  0.25500000000E-02 0.  1.
<mgrwt>
<rscale>  0 0.57054483E+02</rscale>
<asrwt>0</asrwt>
<pdfrwt beam="2">  1        1 0.59017074E-03 0.57054483E+02</pdfrwt>
<pdfrwt beam="1">  1       -1 0.32637371E-01 0.57054483E+02</pdfrwt>
<totfact> 0.22678775E+05</totfact>
</mgrwt>
</event>
<event>
 4    1  0.2051373E-002  0.7340567E+02  0.7818608E-02  0.1348880E+00
         -1   -1    0    0  501    0 -0.00000000000E+00  0.00000000000E+00  0.69375316752E+01  0.69375335060E+01  0.50400000000E-02 0.  1.
          1   -1    0    0    0  501  0.00000000000E+00 -0.00000000000E+00 -0.19417540995E+03  0.19417541001E+03  0.50400000000E-02 0.  1.
          2    1    1    2    0  502  0.34399439564E+02 -0.12550578641E+02 -0.86764218785E+02  0.94174668220E+02  0.25500000000E-02 0. -1.
         -2    1    1    2  502    0 -0.34399439564E+02  0.12550578641E+02 -0.10047365949E+03  0.10693827530E+03  0.25500000000E-02 0. -1.
<mgrwt>
<rscale>  0 0.73405674E+02</rscale>
<asrwt>0</asrwt>
<pdfrwt beam="2">  1        1 0.29873136E-01 0.73405674E+02</pdfrwt>
<pdfrwt beam="1">  1       -1 0.10673129E-02 0.73405674E+02</pdfrwt>
<totfact> 0.20913426E+05</totfact>
</mgrwt>
</event>
<event>
 4    1  0.2051373E-002  0.4070293E+02  0.7818608E-02  0.1503101E+00
         -1   -1    0    0  501    0 -0.00000000000E+00  0.00000000000E+00  0.67310736313E+01  0.67310755182E+01  0.50400000000E-02 0. -1.
          1   -1    0    0    0  501  0.00000000000E+00 -0.00000000000E+00 -0.61532828803E+02  0.61532829009E+02  0.50400000000E-02 0. -1.
          2    1    1    2    0  502  0.20325192353E+02  0.97835749337E+00 -0.27960743067E+02  0.34581408110E+02  0.25500000000E-02 0. -1.
         -2    1    1    2  502    0 -0.20325192353E+02 -0.97835749337E+00 -0.26841012105E+02  0.33682496417E+02  0.25500000000E-02 0. -1.
<mgrwt>
<rscale>  0 0.40702927E+02</rscale>
<asrwt>0</asrwt>
<pdfrwt beam="2">  1        1 0.94665888E-02 0.40702927E+02</pdfrwt>
<pdfrwt beam="1">  1       -1 0.10355500E-02 0.40702927E+02</pdfrwt>
<totfact> 0.79805476E+05</totfact>
</mgrwt>
</event>
<event>
 4    1  0.2051373E-002  0.7845153E+02  0.7818608E-02  0.1333504E+00
          1   -1    0    0    0  501  0.00000000000E+00  0.00000000000E+00  0.42583385664E+02  0.42583385962E+02  0.50400000000E-02 0.  1.
         -1   -1    0    0  501    0 -0.00000000000E+00 -0.00000000000E+00 -0.36132888278E+02  0.36132888630E+02  0.50400000000E-02 0.  1.
          2    1    1    2    0  502 -0.27525820817E+02 -0.27510533716E+02  0.81571648851E+01  0.39762288949E+02  0.25500000000E-02 0. -1.
         -2    1    1    2  502    0  0.27525820817E+02  0.27510533716E+02 -0.17066674995E+01  0.38953985643E+02  0.25500000000E-02 0. -1.
<mgrwt>
<rscale>  0 0.78451533E+02</rscale>
<asrwt>0</asrwt>
<pdfrwt beam="1">  1        1 0.65512902E-02 0.78451533E+02</pdfrwt>
<pdfrwt beam="2">  1       -1 0.55589059E-02 0.78451533E+02</pdfrwt>
<totfact> 0.13900637E+05</totfact>
</mgrwt>
</event>
<event>
 4    1  0.2051373E-002  0.4761154E+02  0.7818608E-02  0.1458667E+00
          1   -1    0    0    0  501  0.00000000000E+00  0.00000000000E+00  0.18037767736E+01  0.18037838148E+01  0.50400000000E-02 0.  1.
         -1   -1    0    0  501    0 -0.00000000000E+00 -0.00000000000E+00 -0.31418164065E+03  0.31418164069E+03  0.50400000000E-02 0.  1.
          2    1    1    2    0  502  0.17708365637E+02  0.11290070905E+02 -0.23058639019E+03  0.23154078531E+03  0.25500000000E-02 0. -1.
         -2    1    1    2  502    0 -0.17708365637E+02 -0.11290070905E+02 -0.81791473692E+02  0.84444639201E+02  0.25500000000E-02 0. -1.
<mgrwt>
<rscale>  0 0.47611539E+02</rscale>
<asrwt>0</asrwt>
<pdfrwt beam="1">  1        1 0.27750491E-03 0.47611539E+02</pdfrwt>
<pdfrwt beam="2">  1       -1 0.48335594E-01 0.47611539E+02</pdfrwt>
<totfact> 0.31081355E+05</totfact>
</mgrwt>
</event>
<event>
 4    1  0.2051373E-002  0.8800036E+02  0.7818608E-02  0.1307768E+00
         -1   -1    0    0  501    0 -0.00000000000E+00  0.00000000000E+00  0.12021409668E+01  0.12021515319E+01  0.50400000000E-02 0. -1.
          1   -1    0    0    0  501  0.00000000000E+00 -0.00000000000E+00 -0.16104661677E+04  0.16104661677E+04  0.50400000000E-02 0. -1.
          2    1    1    2    0  502 -0.25799270186E+02  0.35637438249E+02 -0.79324582202E+03  0.79446495423E+03  0.25500000000E-02 0.  1.
         -2    1    1    2  502    0  0.25799270186E+02 -0.35637438249E+02 -0.81601820470E+03  0.81720336500E+03  0.25500000000E-02 0.  1.
<mgrwt>
<rscale>  0 0.88000361E+02</rscale>
<asrwt>0</asrwt>
<pdfrwt beam="2">  1        1 0.24776230E+00 0.88000361E+02</pdfrwt>
<pdfrwt beam="1">  1       -1 0.18494687E-03 0.88000361E+02</pdfrwt>
<totfact> 0.11396566E+05</totfact>
</mgrwt>
</event>
<event>
 4    1  0.2051373E-002  0.4566263E+02  0.7818608E-02  0.1470247E+00
          1   -1    0    0    0  501  0.00000000000E+00  0.00000000000E+00  0.31958971614E+03  0.31958971618E+03  0.50400000000E-02 0.  1.
         -1   -1    0    0  501    0 -0.00000000000E+00 -0.00000000000E+00 -0.16310525313E+01  0.16310603181E+01  0.50400000000E-02 0.  1.
          2    1    1    2    0  502 -0.20631214495E+02  0.80950415178E+01  0.19756885367E+03  0.19880801959E+03  0.25500000000E-02 0.  1.
         -2    1    1    2  502    0  0.20631214495E+02 -0.80950415178E+01  0.12038980995E+03  0.12241275691E+03  0.25500000000E-02 0.  1.
<mgrwt>
<rscale>  0 0.45662627E+02</rscale>
<asrwt>0</asrwt>
<pdfrwt beam="1">  1        1 0.49167580E-01 0.45662627E+02</pdfrwt>
<pdfrwt beam="2">  1       -1 0.25093211E-03 0.45662627E+02</pdfrwt>
<totfact> 0.76412163E+05</totfact>
</mgrwt>
</event>
<event>
 4    1  0.2051373E-002  0.6205547E+02  0.7818608E-02  0.1389403E+00
          1   -1    0    0    0  501  0.00000000000E+00  0.00000000000E+00  0.36783578828E+03  0.36783578831E+03  0.50400000000E-02 0.  1.
         -1   -1    0    0  501    0 -0.00000000000E+00 -0.00000000000E+00 -0.26172536287E+01  0.26172584814E+01  0.50400000000E-02 0.  1.
          2    1    1    2    0  502 -0.10562592623E+02 -0.20961333312E+02  0.30374795057E+03  0.30465351358E+03  0.25500000000E-02 0.  1.
         -2    1    1    2  502    0  0.10562592623E+02  0.20961333312E+02  0.61470584082E+02  0.65799533213E+02  0.25500000000E-02 0.  1.
<mgrwt>
<rscale>  0 0.62055474E+02</rscale>
<asrwt>0</asrwt>
<pdfrwt beam="1">  1        1 0.56590073E-01 0.62055474E+02</pdfrwt>
<pdfrwt beam="2">  1       -1 0.40265512E-03 0.62055474E+02</pdfrwt>
<totfact> 0.36234833E+05</totfact>
</mgrwt>
</event>
<event>
 4    1  0.2051373E-002  0.5745201E+02  0.7818608E-02  0.1408847E+00
         -1   -1    0    0  501    0 -0.00000000000E+00  0.00000000000E+00  0.86674451424E+00  0.86675916757E+00  0.50400000000E-02 0. -1.
          1   -1    0    0    0  501  0.00000000000E+00 -0.00000000000E+00 -0.95204121887E+03  0.95204121889E+03  0.50400000000E-02 0. -1.
          2    1    1    2    0  502  0.16699764569E+02  0.22985281657E+02 -0.54591365764E+03  0.54665247362E+03  0.25500000000E-02 0.  1.
         -2    1    1    2  502    0 -0.16699764569E+02 -0.22985281657E+02 -0.40526081672E+03  0.40625550444E+03  0.25500000000E-02 0.  1.
<mgrwt>
<rscale>  0 0.57452014E+02</rscale>
<asrwt>0</asrwt>
<pdfrwt beam="2">  1        1 0.14646705E+00 0.57452014E+02</pdfrwt>
<pdfrwt beam="1">  1       -1 0.13334720E-03 0.57452014E+02</pdfrwt>
<totfact> 0.45373276E+05</totfact>
</mgrwt>
</event>
<event>
 4    1  0.2051373E-002  0.8373121E+02  0.7818608E-02  0.1318784E+00
         -1   -1    0    0  501    0 -0.00000000000E+00  0.00000000000E+00  0.21635832477E+01  0.21635891180E+01  0.50400000000E-02 0. -1.
          1   -1    0    0    0  501  0.00000000000E+00 -0.00000000000E+00 -0.81010357974E+03  0.81010357975E+03  0.50400000000E-02 0. -1.
          2    1    1    2    0  502  0.30939995467E+02 -0.19546195718E+02 -0.60120885323E+03  0.60232169336E+03  0.25500000000E-02 0. -1.
         -2    1    1    2  502    0 -0.30939995467E+02  0.19546195718E+02 -0.20673114326E+03  0.20994547551E+03  0.25500000000E-02 0. -1.
<mgrwt>
<rscale>  0 0.83731211E+02</rscale>
<asrwt>0</asrwt>
<pdfrwt beam="2">  1        1 0.12463108E+00 0.83731211E+02</pdfrwt>
<pdfrwt beam="1">  1       -1 0.33286006E-03 0.83731211E+02</pdfrwt>
<totfact> 0.17662226E+05</totfact>
</mgrwt>
</event>
<event>
 4    1  0.2051373E-002  0.5406418E+02  0.7818608E-02  0.1424577E+00
         -1   -1    0    0  501    0 -0.00000000000E+00  0.00000000000E+00  0.45040657987E+02  0.45040658269E+02  0.50400000000E-02 0.  1.
          1   -1    0    0    0  501  0.00000000000E+00 -0.00000000000E+00 -0.16223871701E+02  0.16223872484E+02  0.50400000000E-02 0.  1.
          2    1    1    2    0  502 -0.20225483885E+02  0.10942611536E+02 -0.16940701780E+01  0.23058205174E+02  0.25500000000E-02 0. -1.
         -2    1    1    2  502    0  0.20225483885E+02 -0.10942611536E+02  0.30510856464E+02  0.38206325579E+02  0.25500000000E-02 0. -1.
<mgrwt>
<rscale>  0 0.54064180E+02</rscale>
<asrwt>0</asrwt>
<pdfrwt beam="2">  1        1 0.24959804E-02 0.54064180E+02</pdfrwt>
<pdfrwt beam="1">  1       -1 0.69293320E-02 0.54064180E+02</pdfrwt>
<totfact> 0.34102963E+05</totfact>
</mgrwt>
</event>
<event>
 4    1  0.2051373E-002  0.7933000E+02  0.7818608E-02  0.1330964E+00
          1   -1    0    0    0  501  0.00000000000E+00  0.00000000000E+00  0.53147428750E+03  0.53147428753E+03  0.50400000000E-02 0.  1.
         -1   -1    0    0  501    0 -0.00000000000E+00 -0.00000000000E+00 -0.29602767148E+01  0.29602810052E+01  0.50400000000E-02 0.  1.
          2    1    1    2    0  502 -0.34554214109E+02  0.34165053896E+01  0.39343006791E+03  0.39495934546E+03  0.25500000000E-02 0.  1.
         -2    1    1    2  502    0  0.34554214109E+02 -0.34165053896E+01  0.13508394288E+03  0.13947522308E+03  0.25500000000E-02 0.  1.
<mgrwt>
<rscale>  0 0.79329997E+02</rscale>
<asrwt>0</asrwt>
<pdfrwt beam="1">  1        1 0.81765270E-01 0.79329997E+02</pdfrwt>
<pdfrwt beam="2">  1       -1 0.45542755E-03 0.79329997E+02</pdfrwt>
<totfact> 0.20217968E+05</totfact>
</mgrwt>
</event>
<event>
 4    1  0.2051373E-002  0.4529948E+02  0.7818608E-02  0.1472481E+00
         -1   -1    0    0  501    0 -0.00000000000E+00  0.00000000000E+00  0.27520869506E+01  0.27520915655E+01  0.50400000000E-02 0.  1.
          1   -1    0    0    0  501  0.00000000000E+00 -0.00000000000E+00 -0.18640769806E+03  0.18640769813E+03  0.50400000000E-02 0.  1.
          2    1    1    2    0  502 -0.15841292340E+02  0.15069176504E+02 -0.11652629616E+03  0.11855970785E+03  0.25500000000E-02 0. -1.
         -2    1    1    2  502    0  0.15841292340E+02 -0.15069176504E+02 -0.67129314954E+02  0.70600081843E+02  0.25500000000E-02 0. -1.
<mgrwt>
<rscale>  0 0.45299476E+02</rscale>
<asrwt>0</asrwt>
<pdfrwt beam="2">  1        1 0.28678098E-01 0.45299476E+02</pdfrwt>
<pdfrwt beam="1">  1       -1 0.42339850E-03 0.45299476E+02</pdfrwt>
<totfact> 0.71010876E+05</totfact>
</mgrwt>
</event>
<event>
 4    1  0.2051373E-002  0.4231179E+02  0.7818608E-02  0.1491857E+00
          1   -1    0    0    0  501  0.00000000000E+00  0.00000000000E+00  0.95310603965E+03  0.95310603967E+03  0.50400000000E-02 0. -1.
         -1   -1    0    0  501    0 -0.00000000000E+00 -0.00000000000E+00 -0.46957939284E+00  0.46960643924E+00  0.50400000000E-02 0. -1.
          2    1    1    2    0  502 -0.12277417650E+02 -0.16208031651E+02  0.60799335894E+03  0.60833326376E+03  0.25500000000E-02 0. -1.
         -2    1    1    2  502    0  0.12277417650E+02  0.16208031651E+02  0.34464310132E+03  0.34524238234E+03  0.25500000000E-02 0. -1.
<mgrwt>
<rscale>  0 0.42311788E+02</rscale>
<asrwt>0</asrwt>
<pdfrwt beam="1">  1        1 0.14663251E+00 0.42311788E+02</pdfrwt>
<pdfrwt beam="2">  1       -1 0.72244667E-04 0.42311788E+02</pdfrwt>
<totfact> 0.96766523E+05</totfact>
</mgrwt>
</event>
<event>
 4    1  0.2051373E-002  0.4743941E+02  0.7818608E-02  0.1459663E+00
         -1   -1    0    0  501    0 -0.00000000000E+00  0.00000000000E+00  0.12955457472E+03  0.12955457482E+03  0.50400000000E-02 0. -1.
          1   -1    0    0    0  501  0.00000000000E+00 -0.00000000000E+00 -0.43427591443E+01  0.43427620688E+01  0.50400000000E-02 0. -1.
          2    1    1    2    0  502  0.26447163064E+01 -0.23405220119E+02  0.70501650980E+02  0.74332238299E+02  0.25500000000E-02 0.  1.
         -2    1    1    2  502    0 -0.26447163064E+01  0.23405220119E+02  0.54710164599E+02  0.59565098591E+02  0.25500000000E-02 0.  1.
<mgrwt>
<rscale>  0 0.47439415E+02</rscale>
<asrwt>0</asrwt>
<pdfrwt beam="2">  1        1 0.66811710E-03 0.47439415E+02</pdfrwt>
<pdfrwt beam="1">  1       -1 0.19931471E-01 0.47439415E+02</pdfrwt>
<totfact> 0.40428840E+05</totfact>
</mgrwt>
</event>
<event>
 4    1  0.2051373E-002  0.1129694E+03  0.7818608E-02  0.1255168E+00
         -1   -1    0    0  501    0 -0.00000000000E+00  0.00000000000E+00  0.12212358973E+02  0.12212360013E+02  0.50400000000E-02 0. -1.
          1   -1    0    0    0  501  0.00000000000E+00 -0.00000000000E+00 -0.26125346311E+03  0.26125346316E+03  0.50400000000E-02 0. -1.
          2    1    1    2    0  502 -0.48290169915E+02 -0.28554066000E+02 -0.10860156898E+03  0.12223573941E+03  0.25500000000E-02 0. -1.
         -2    1    1    2  502    0  0.48290169915E+02  0.28554066000E+02 -0.14043953515E+03  0.15123008377E+03  0.25500000000E-02 0. -1.
<mgrwt>
<rscale>  0 0.11296940E+03</rscale>
<asrwt>0</asrwt>
<pdfrwt beam="2">  1        1 0.40192836E-01 0.11296940E+03</pdfrwt>
<pdfrwt beam="1">  1       -1 0.18788247E-02 0.11296940E+03</pdfrwt>
<totfact> 0.69913026E+04</totfact>
</mgrwt>
</event>
<event>
 4    1  0.2051373E-002  0.4188414E+02  0.7818608E-02  0.1494787E+00
          1   -1    0    0    0  501  0.00000000000E+00  0.00000000000E+00  0.15808838600E+04  0.15808838600E+04  0.50400000000E-02 0. -1.
         -1   -1    0    0  501    0 -0.00000000000E+00 -0.00000000000E+00 -0.27739804180E+00  0.27744382349E+00  0.50400000000E-02 0. -1.
          2    1    1    2    0  502  0.10848925192E+02 -0.17891516948E+02  0.82331578143E+03  0.82358161800E+03  0.25500000000E-02 0.  1.
         -2    1    1    2  502    0 -0.10848925192E+02  0.17891516948E+02  0.75729068050E+03  0.75757968580E+03  0.25500000000E-02 0.  1.
<mgrwt>
<rscale>  0 0.41884140E+02</rscale>
<asrwt>0</asrwt>
<pdfrwt beam="1">  1        1 0.24321250E+00 0.41884140E+02</pdfrwt>
<pdfrwt beam="2">  1       -1 0.42680214E-04 0.41884140E+02</pdfrwt>
<totfact> 0.76760719E+05</totfact>
</mgrwt>
</event>
<event>
 4    1  0.2051373E-002  0.6713257E+02  0.7818608E-02  0.1370125E+00
         -1   -1    0    0  501    0 -0.00000000000E+00  0.00000000000E+00  0.25339469942E+01  0.25339520065E+01  0.50400000000E-02 0.  1.
          1   -1    0    0    0  501  0.00000000000E+00 -0.00000000000E+00 -0.44464008041E+03  0.44464008044E+03  0.50400000000E-02 0.  1.
          2    1    1    2    0  502 -0.20268535470E+02 -0.10496379096E+02 -0.38498930111E+03  0.38566533352E+03  0.25500000000E-02 0. -1.
         -2    1    1    2  502    0  0.20268535470E+02  0.10496379096E+02 -0.57116832311E+02  0.61508698929E+02  0.25500000000E-02 0. -1.
<mgrwt>
<rscale>  0 0.67132571E+02</rscale>
<asrwt>0</asrwt>
<pdfrwt beam="2">  1        1 0.68406105E-01 0.67132571E+02</pdfrwt>
<pdfrwt beam="1">  1       -1 0.38983874E-03 0.67132571E+02</pdfrwt>
<totfact> 0.30498955E+05</totfact>
</mgrwt>
</event>
<event>
 4    1  0.2051373E-002  0.4573136E+02  0.7818608E-02  0.1469827E+00
         -1   -1    0    0  501    0 -0.00000000000E+00  0.00000000000E+00  0.93357236774E+00  0.93358597216E+00  0.50400000000E-02 0. -1.
          1   -1    0    0    0  501  0.00000000000E+00 -0.00000000000E+00 -0.56003746148E+03  0.56003746150E+03  0.50400000000E-02 0. -1.
          2    1    1    2    0  502  0.20208415701E+02 -0.12527653403E+01 -0.40988474805E+03  0.41038452234E+03  0.25500000000E-02 0.  1.
         -2    1    1    2  502    0 -0.20208415701E+02  0.12527653403E+01 -0.14921914106E+03  0.15058652513E+03  0.25500000000E-02 0.  1.
<mgrwt>
<rscale>  0 0.45731360E+02</rscale>
<asrwt>0</asrwt>
<pdfrwt beam="2">  1        1 0.86159342E-01 0.45731360E+02</pdfrwt>
<pdfrwt beam="1">  1       -1 0.14362801E-03 0.45731360E+02</pdfrwt>
<totfact> 0.82074782E+05</totfact>
</mgrwt>
</event>
<event>
 4    1  0.2051373E-002  0.9435805E+02  0.7818608E-02  0.1292629E+00
          1   -1    0    0    0  501  0.00000000000E+00  0.00000000000E+00  0.38324471734E+03  0.38324471737E+03  0.50400000000E-02 0.  1.
         -1   -1    0    0  501    0 -0.00000000000E+00 -0.00000000000E+00 -0.58079333663E+01  0.58079355531E+01  0.50400000000E-02 0.  1.
          2    1    1    2    0  502 -0.24845981248E+02  0.39164294991E+02  0.22435336462E+03  0.22909735269E+03  0.25500000000E-02 0. -1.
         -2    1    1    2  502    0  0.24845981248E+02 -0.39164294991E+02  0.15308341935E+03  0.15995530024E+03  0.25500000000E-02 0. -1.
<mgrwt>
<rscale>  0 0.94358046E+02</rscale>
<asrwt>0</asrwt>
<pdfrwt beam="1">  1        1 0.58960738E-01 0.94358046E+02</pdfrwt>
<pdfrwt beam="2">  1       -1 0.89352820E-03 0.94358046E+02</pdfrwt>
<totfact> 0.12224492E+05</totfact>
</mgrwt>
</event>
<event>
 4    1  0.2051373E-002  0.4209683E+02  0.7818608E-02  0.1493325E+00
          1   -1    0    0    0  501  0.00000000000E+00  0.00000000000E+00  0.74903287827E+02  0.74903287997E+02  0.50400000000E-02 0. -1.
         -1   -1    0    0  501    0 -0.00000000000E+00 -0.00000000000E+00 -0.59147702250E+01  0.59147723723E+01  0.50400000000E-02 0. -1.
          2    1    1    2    0  502  0.18931225810E+02 -0.79998152351E+01  0.43217791955E+02  0.47855677849E+02  0.25500000000E-02 0.  1.
         -2    1    1    2  502    0 -0.18931225810E+02  0.79998152351E+01  0.25770725647E+02  0.32962382520E+02  0.25500000000E-02 0.  1.
<mgrwt>
<rscale>  0 0.42096833E+02</rscale>
<asrwt>0</asrwt>
<pdfrwt beam="1">  1        1 0.11523582E-01 0.42096833E+02</pdfrwt>
<pdfrwt beam="2">  1       -1 0.90996488E-03 0.42096833E+02</pdfrwt>
<totfact> 0.74956771E+05</totfact>
</mgrwt>
</event>
<event>
 4    1  0.2051373E-002  0.4790815E+02  0.7818608E-02  0.1456962E+00
         -1   -1    0    0  501    0 -0.00000000000E+00  0.00000000000E+00  0.15335195238E+03  0.15335195246E+03  0.50400000000E-02 0. -1.
          1   -1    0    0    0  501  0.00000000000E+00 -0.00000000000E+00 -0.37417022581E+01  0.37417056525E+01  0.50400000000E-02 0. -1.
          2    1    1    2    0  502  0.21366679096E+02 -0.11349300960E+01  0.11011780464E+03  0.11217733260E+03  0.25500000000E-02 0. -1.
         -2    1    1    2  502    0 -0.21366679096E+02  0.11349300960E+01  0.39492445474E+02  0.44916325517E+02  0.25500000000E-02 0. -1.
<mgrwt>
<rscale>  0 0.47908146E+02</rscale>
<asrwt>0</asrwt>
<pdfrwt beam="2">  1        1 0.57564680E-03 0.47908146E+02</pdfrwt>
<pdfrwt beam="1">  1       -1 0.23592607E-01 0.47908146E+02</pdfrwt>
<totfact> 0.38077021E+05</totfact>
</mgrwt>
</event>
<event>
 4    1  0.2051373E-002  0.7158300E+02  0.7818608E-02  0.1354791E+00
         -1   -1    0    0  501    0 -0.00000000000E+00  0.00000000000E+00  0.17069043035E+01  0.17069117443E+01  0.50400000000E-02 0. -1.
          1   -1    0    0    0  501  0.00000000000E+00 -0.00000000000E+00 -0.75049822870E+03  0.75049822871E+03  0.50400000000E-02 0. -1.
          2    1    1    2    0  502  0.30130908388E+02  0.72254106091E+01 -0.18614032558E+03  0.18870161370E+03  0.25500000000E-02 0.  1.
         -2    1    1    2  502    0 -0.30130908388E+02 -0.72254106091E+01 -0.56265099881E+03  0.56350352676E+03  0.25500000000E-02 0.  1.
<mgrwt>
<rscale>  0 0.71583000E+02</rscale>
<asrwt>0</asrwt>
<pdfrwt beam="2">  1        1 0.11546100E+00 0.71583000E+02</pdfrwt>
<pdfrwt beam="1">  1       -1 0.26260183E-03 0.71583000E+02</pdfrwt>
<totfact> 0.26700644E+05</totfact>
</mgrwt>
</event>
<event>
 4    1  0.2051373E-002  0.4326097E+02  0.7818608E-02  0.1485499E+00
          1   -1    0    0    0  501  0.00000000000E+00  0.00000000000E+00  0.30241358985E+03  0.30241358989E+03  0.50400000000E-02 0.  1.
         -1   -1    0    0  501    0 -0.00000000000E+00 -0.00000000000E+00 -0.15471418350E+01  0.15471500442E+01  0.50400000000E-02 0.  1.
          2    1    1    2    0  502  0.19455096158E+02  0.60064456047E+01  0.20172928571E+03  0.20275424256E+03  0.25500000000E-02 0.  1.
         -2    1    1    2  502    0 -0.19455096158E+02 -0.60064456047E+01  0.99137162301E+02  0.10120649738E+03  0.25500000000E-02 0.  1.
<mgrwt>
<rscale>  0 0.43260974E+02</rscale>
<asrwt>0</asrwt>
<pdfrwt beam="1">  1        1 0.46525095E-01 0.43260974E+02</pdfrwt>
<pdfrwt beam="2">  1       -1 0.23802283E-03 0.43260974E+02</pdfrwt>
<totfact> 0.86448347E+05</totfact>
</mgrwt>
</event>
<event>
 4    1  0.2051373E-002  0.6167834E+02  0.7818608E-02  0.1390920E+00
         -1   -1    0    0  501    0 -0.00000000000E+00  0.00000000000E+00  0.16038973817E+01  0.16039053004E+01  0.50400000000E-02 0. -1.
          1   -1    0    0    0  501  0.00000000000E+00 -0.00000000000E+00 -0.59296311747E+03  0.59296311749E+03  0.50400000000E-02 0. -1.
          2    1    1    2    0  502 -0.29767056104E+02 -0.42096147380E+01 -0.36194640863E+03  0.36319278794E+03  0.25500000000E-02 0. -1.
         -2    1    1    2  502    0  0.29767056104E+02  0.42096147380E+01 -0.22941281146E+03  0.23137423485E+03  0.25500000000E-02 0. -1.
<mgrwt>
<rscale>  0 0.61678338E+02</rscale>
<asrwt>0</asrwt>
<pdfrwt beam="2">  1        1 0.91224921E-01 0.61678338E+02</pdfrwt>
<pdfrwt beam="1">  1       -1 0.24675453E-03 0.61678338E+02</pdfrwt>
<totfact> 0.39014088E+05</totfact>
</mgrwt>
</event>
<event>
 4    1  0.2051373E-002  0.5119956E+02  0.7818608E-02  0.1438977E+00
          1   -1    0    0    0  501  0.00000000000E+00  0.00000000000E+00  0.17689718645E+02  0.17689719363E+02  0.50400000000E-02 0.  1.
         -1   -1    0    0  501    0 -0.00000000000E+00 -0.00000000000E+00 -0.37046871658E+02  0.37046872001E+02  0.50400000000E-02 0.  1.
          2    1    1    2    0  502  0.23952586186E+02  0.90031648261E+01 -0.10482450986E+02  0.27652579393E+02  0.25500000000E-02 0. -1.
         -2    1    1    2  502    0 -0.23952586186E+02 -0.90031648261E+01 -0.88747020266E+01  0.27084011971E+02  0.25500000000E-02 0. -1.
<mgrwt>
<rscale>  0 0.51199561E+02</rscale>
<asrwt>0</asrwt>
<pdfrwt beam="1">  1        1 0.27214953E-02 0.51199561E+02</pdfrwt>
<pdfrwt beam="2">  1       -1 0.56995188E-02 0.51199561E+02</pdfrwt>
<totfact> 0.39788247E+05</totfact>
</mgrwt>
</event>
<event>
 4    1  0.2051373E-002  0.1097348E+03  0.7818608E-02  0.1261062E+00
         -1   -1    0    0  501    0 -0.00000000000E+00  0.00000000000E+00  0.11588187000E+02  0.11588188096E+02  0.50400000000E-02 0. -1.
          1   -1    0    0    0  501  0.00000000000E+00 -0.00000000000E+00 -0.25978474025E+03  0.25978474030E+03  0.50400000000E-02 0. -1.
          2    1    1    2    0  502 -0.48935021622E+02 -0.89091927310E+01 -0.66821819502E+02  0.83301654391E+02  0.25500000000E-02 0.  1.
         -2    1    1    2  502    0  0.48935021622E+02  0.89091927310E+01 -0.18137473375E+03  0.18807127401E+03  0.25500000000E-02 0.  1.
<mgrwt>
<rscale>  0 0.10973485E+03</rscale>
<asrwt>0</asrwt>
<pdfrwt beam="2">  1        1 0.39966879E-01 0.10973485E+03</pdfrwt>
<pdfrwt beam="1">  1       -1 0.17827983E-02 0.10973485E+03</pdfrwt>
<totfact> 0.75596712E+04</totfact>
</mgrwt>
</event>
<event>
 4    1  0.2051373E-002  0.4273561E+02  0.7818608E-02  0.1488994E+00
          1   -1    0    0    0  501  0.00000000000E+00  0.00000000000E+00  0.26356653291E+03  0.26356653296E+03  0.50400000000E-02 0.  1.
         -1   -1    0    0  501    0 -0.00000000000E+00 -0.00000000000E+00 -0.17323223486E+01  0.17323296803E+01  0.50400000000E-02 0.  1.
          2    1    1    2    0  502  0.11780685795E+01  0.21287327833E+02  0.12203958522E+03  0.12388784661E+03  0.25500000000E-02 0.  1.
         -2    1    1    2  502    0 -0.11780685795E+01 -0.21287327833E+02  0.13979462535E+03  0.14141101603E+03  0.25500000000E-02 0.  1.
<mgrwt>
<rscale>  0 0.42735614E+02</rscale>
<asrwt>0</asrwt>
<pdfrwt beam="1">  1        1 0.40548682E-01 0.42735614E+02</pdfrwt>
<pdfrwt beam="2">  1       -1 0.26651180E-03 0.42735614E+02</pdfrwt>
<totfact> 0.86984792E+05</totfact>
</mgrwt>
</event>
<event>
 4    1  0.2051373E-002  0.9811661E+02  0.7818608E-02  0.1284307E+00
          1   -1    0    0    0  501  0.00000000000E+00  0.00000000000E+00  0.34791741567E+03  0.34791741570E+03  0.50400000000E-02 0. -1.
         -1   -1    0    0  501    0 -0.00000000000E+00 -0.00000000000E+00 -0.69174954257E+01  0.69174972617E+01  0.50400000000E-02 0. -1.
          2    1    1    2    0  502 -0.40972064117E+02 -0.24961061123E+01  0.26765946107E+03  0.27078871411E+03  0.25500000000E-02 0. -1.
         -2    1    1    2  502    0  0.40972064117E+02  0.24961061123E+01  0.73340459171E+02  0.84046198853E+02  0.25500000000E-02 0. -1.
<mgrwt>
<rscale>  0 0.98116614E+02</rscale>
<asrwt>0</asrwt>
<pdfrwt beam="1">  1        1 0.53525763E-01 0.98116614E+02</pdfrwt>
<pdfrwt beam="2">  1       -1 0.10642301E-02 0.98116614E+02</pdfrwt>
<totfact> 0.10826290E+05</totfact>
</mgrwt>
</event>
<event>
 4    1  0.2051373E-002  0.4988444E+02  0.7818608E-02  0.1445966E+00
          1   -1    0    0    0  501  0.00000000000E+00  0.00000000000E+00  0.16191156457E+04  0.16191156457E+04  0.50400000000E-02 0. -1.
         -1   -1    0    0  501    0 -0.00000000000E+00 -0.00000000000E+00 -0.38421437128E+00  0.38424742641E+00  0.50400000000E-02 0. -1.
          2    1    1    2    0  502 -0.15319180062E+02 -0.15291616876E+02  0.40700430809E+03  0.40757946175E+03  0.25500000000E-02 0. -1.
         -2    1    1    2  502    0  0.15319180062E+02  0.15291616876E+02  0.12117271232E+04  0.12119204314E+04  0.25500000000E-02 0. -1.
<mgrwt>
<rscale>  0 0.49884437E+02</rscale>
<asrwt>0</asrwt>
<pdfrwt beam="1">  1        1 0.24909036E+00 0.49884437E+02</pdfrwt>
<pdfrwt beam="2">  1       -1 0.59113482E-04 0.49884437E+02</pdfrwt>
<totfact> 0.48725445E+05</totfact>
</mgrwt>
</event>
<event>
 4    1  0.2051373E-002  0.4992547E+02  0.7818608E-02  0.1445744E+00
          1   -1    0    0    0  501  0.00000000000E+00  0.00000000000E+00  0.18627026482E+02  0.18627027164E+02  0.50400000000E-02 0. -1.
         -1   -1    0    0  501    0 -0.00000000000E+00 -0.00000000000E+00 -0.33453435285E+02  0.33453435665E+02  0.50400000000E-02 0. -1.
          2    1    1    2    0  502 -0.20152086079E+02  0.92974776026E+01 -0.19333992694E+02  0.29433874076E+02  0.25500000000E-02 0.  1.
         -2    1    1    2  502    0  0.20152086079E+02 -0.92974776026E+01  0.45075838902E+01  0.22646588753E+02  0.25500000000E-02 0.  1.
<mgrwt>
<rscale>  0 0.49925467E+02</rscale>
<asrwt>0</asrwt>
<pdfrwt beam="1">  1        1 0.28656965E-02 0.49925467E+02</pdfrwt>
<pdfrwt beam="2">  1       -1 0.51466824E-02 0.49925467E+02</pdfrwt>
<totfact> 0.42734382E+05</totfact>
</mgrwt>
</event>
<event>
 4    1  0.2051373E-002  0.4417969E+02  0.7818608E-02  0.1479529E+00
         -1   -1    0    0  501    0 -0.00000000000E+00  0.00000000000E+00  0.32673406449E+02  0.32673406837E+02  0.50400000000E-02 0.  1.
          1   -1    0    0    0  501  0.00000000000E+00 -0.00000000000E+00 -0.14934509455E+02  0.14934510305E+02  0.50400000000E-02 0.  1.
          2    1    1    2    0  502 -0.20399885772E+02  0.94084647352E+00  0.17944378061E+02  0.27185312985E+02  0.25500000000E-02 0. -1.
         -2    1    1    2  502    0  0.20399885772E+02 -0.94084647352E+00 -0.20548106731E+00  0.20422604157E+02  0.25500000000E-02 0. -1.
<mgrwt>
<rscale>  0 0.44179693E+02</rscale>
<asrwt>0</asrwt>
<pdfrwt beam="2">  1        1 0.22976169E-02 0.44179693E+02</pdfrwt>
<pdfrwt beam="1">  1       -1 0.50266780E-02 0.44179693E+02</pdfrwt>
<totfact> 0.57638142E+05</totfact>
</mgrwt>
</event>
<event>
 4    1  0.2051373E-002  0.4300269E+02  0.7818608E-02  0.1487210E+00
          1   -1    0    0    0  501  0.00000000000E+00  0.00000000000E+00  0.26385111733E+02  0.26385112214E+02  0.50400000000E-02 0. -1.
         -1   -1    0    0  501    0 -0.00000000000E+00 -0.00000000000E+00 -0.17521541114E+02  0.17521541839E+02  0.50400000000E-02 0. -1.
          2    1    1    2    0  502  0.21074414598E+02  0.16381202474E+01  0.84507001314E+01  0.22764637661E+02  0.25500000000E-02 0. -1.
         -2    1    1    2  502    0 -0.21074414598E+02 -0.16381202474E+01  0.41287048762E+00  0.21142016393E+02  0.25500000000E-02 0. -1.
<mgrwt>
<rscale>  0 0.43002690E+02</rscale>
<asrwt>0</asrwt>
<pdfrwt beam="1">  1        1 0.40592480E-02 0.43002690E+02</pdfrwt>
<pdfrwt beam="2">  1       -1 0.26956218E-02 0.43002690E+02</pdfrwt>
<totfact> 0.64715692E+05</totfact>
</mgrwt>
</event>
<event>
 4    1  0.2051373E-002  0.4944458E+02  0.7818608E-02  0.1448361E+00
          1   -1    0    0    0  501  0.00000000000E+00  0.00000000000E+00  0.27027489343E+02  0.27027489813E+02  0.50400000000E-02 0.  1.
         -1   -1    0    0  501    0 -0.00000000000E+00 -0.00000000000E+00 -0.22613701748E+02  0.22613702310E+02  0.50400000000E-02 0.  1.
          2    1    1    2    0  502  0.10888282616E+02  0.17555282154E+02 -0.11428310053E+02  0.23608238117E+02  0.25500000000E-02 0. -1.
         -2    1    1    2  502    0 -0.10888282616E+02 -0.17555282154E+02  0.15842097649E+02  0.26032954005E+02  0.25500000000E-02 0. -1.
<mgrwt>
<rscale>  0 0.49444579E+02</rscale>
<asrwt>0</asrwt>
<pdfrwt beam="1">  1        1 0.41580754E-02 0.49444579E+02</pdfrwt>
<pdfrwt beam="2">  1       -1 0.34790311E-02 0.49444579E+02</pdfrwt>
<totfact> 0.45338411E+05</totfact>
</mgrwt>
</event>
<event>
 4    1  0.2051373E-002  0.7493874E+02  0.7818608E-02  0.1344061E+00
         -1   -1    0    0  501    0 -0.00000000000E+00  0.00000000000E+00  0.10465879001E+01  0.10466000354E+01  0.50400000000E-02 0. -1.
          1   -1    0    0    0  501  0.00000000000E+00 -0.00000000000E+00 -0.13414502204E+04  0.13414502204E+04  0.50400000000E-02 0. -1.
          2    1    1    2    0  502  0.32712868373E+02 -0.18182686341E+02 -0.63809581640E+03  0.63919246926E+03  0.25500000000E-02 0.  1.
         -2    1    1    2  502    0 -0.32712868373E+02  0.18182686341E+02 -0.70230781606E+03  0.70330435114E+03  0.25500000000E-02 0.  1.
<mgrwt>
<rscale>  0 0.74938741E+02</rscale>
<asrwt>0</asrwt>
<pdfrwt beam="2">  1        1 0.20637558E+00 0.74938741E+02</pdfrwt>
<pdfrwt beam="1">  1       -1 0.16101553E-03 0.74938741E+02</pdfrwt>
<totfact> 0.20027074E+05</totfact>
</mgrwt>
</event>
<event>
 4    1  0.2051373E-002  0.4883064E+02  0.7818608E-02  0.1451753E+00
         -1   -1    0    0  501    0 -0.00000000000E+00  0.00000000000E+00  0.58986178969E+00  0.58988332112E+00  0.50400000000E-02 0. -1.
          1   -1    0    0    0  501  0.00000000000E+00 -0.00000000000E+00 -0.10105705901E+04  0.10105705901E+04  0.50400000000E-02 0. -1.
          2    1    1    2    0  502 -0.30583508446E+01  0.21923713805E+02 -0.71829281398E+03  0.71863382147E+03  0.25500000000E-02 0.  1.
         -2    1    1    2  502    0  0.30583508446E+01 -0.21923713805E+02 -0.29168791429E+03  0.29252665193E+03  0.25500000000E-02 0.  1.
<mgrwt>
<rscale>  0 0.48830641E+02</rscale>
<asrwt>0</asrwt>
<pdfrwt beam="2">  1        1 0.15547101E+00 0.48830641E+02</pdfrwt>
<pdfrwt beam="1">  1       -1 0.90750434E-04 0.48830641E+02</pdfrwt>
<totfact> 0.67111513E+05</totfact>
</mgrwt>
</event>
<event>
 4    1  0.2051373E-002  0.4540359E+02  0.7818608E-02  0.1471838E+00
          1   -1    0    0    0  501  0.00000000000E+00  0.00000000000E+00  0.25075483224E+02  0.25075483731E+02  0.50400000000E-02 0. -1.
         -1   -1    0    0  501    0 -0.00000000000E+00 -0.00000000000E+00 -0.20552799371E+02  0.20552799989E+02  0.50400000000E-02 0. -1.
          2    1    1    2    0  502  0.89986387415E+01  0.20837363194E+02  0.18117006787E+01  0.22769573337E+02  0.25500000000E-02 0.  1.
         -2    1    1    2  502    0 -0.89986387415E+01 -0.20837363194E+02  0.27109831749E+01  0.22858710383E+02  0.25500000000E-02 0.  1.
<mgrwt>
<rscale>  0 0.45403586E+02</rscale>
<asrwt>0</asrwt>
<pdfrwt beam="1">  1        1 0.38577667E-02 0.45403586E+02</pdfrwt>
<pdfrwt beam="2">  1       -1 0.31619692E-02 0.45403586E+02</pdfrwt>
<totfact> 0.56112573E+05</totfact>
</mgrwt>
</event>
<event>
 4    1  0.2051373E-002  0.4185741E+02  0.7818608E-02  0.1494971E+00
         -1   -1    0    0  501    0 -0.00000000000E+00  0.00000000000E+00  0.52246516368E+03  0.52246516370E+03  0.50400000000E-02 0.  1.
          1   -1    0    0    0  501  0.00000000000E+00 -0.00000000000E+00 -0.83834623885E+00  0.83836138853E+00  0.50400000000E-02 0.  1.
          2    1    1    2    0  502 -0.13834171717E+02  0.15688932743E+02  0.26950886236E+03  0.27031935524E+03  0.25500000000E-02 0.  1.
         -2    1    1    2  502    0  0.13834171717E+02 -0.15688932743E+02  0.25211795508E+03  0.25298416985E+03  0.25500000000E-02 0.  1.
<mgrwt>
<rscale>  0 0.41857409E+02</rscale>
<asrwt>0</asrwt>
<pdfrwt beam="2">  1        1 0.12897744E-03 0.41857409E+02</pdfrwt>
<pdfrwt beam="1">  1       -1 0.80379301E-01 0.41857409E+02</pdfrwt>
<totfact> 0.32808912E+05</totfact>
</mgrwt>
</event>
<event>
 4    1  0.2051373E-002  0.5158128E+02  0.7818608E-02  0.1436994E+00
         -1   -1    0    0  501    0 -0.00000000000E+00  0.00000000000E+00  0.11104857114E+04  0.11104857115E+04  0.50400000000E-02 0. -1.
          1   -1    0    0    0  501  0.00000000000E+00 -0.00000000000E+00 -0.59896793973E+00  0.59898914383E+00  0.50400000000E-02 0. -1.
          2    1    1    2    0  502  0.89334824947E+01  0.22098256513E+02  0.76711099953E+03  0.76748122170E+03  0.25500000000E-02 0. -1.
         -2    1    1    2  502    0 -0.89334824947E+01 -0.22098256513E+02  0.34277574397E+03  0.34360347890E+03  0.25500000000E-02 0. -1.
<mgrwt>
<rscale>  0 0.51581281E+02</rscale>
<asrwt>0</asrwt>
<pdfrwt beam="2">  1        1 0.92151289E-04 0.51581281E+02</pdfrwt>
<pdfrwt beam="1">  1       -1 0.17084258E+00 0.51581281E+02</pdfrwt>
<totfact> 0.96520234E+04</totfact>
</mgrwt>
</event>
<event>
 4    1  0.2051373E-002  0.4471530E+02  0.7818608E-02  0.1476127E+00
         -1   -1    0    0  501    0 -0.00000000000E+00  0.00000000000E+00  0.80024779139E+00  0.80026366232E+00  0.50400000000E-02 0.  1.
          1   -1    0    0    0  501  0.00000000000E+00 -0.00000000000E+00 -0.62463088913E+03  0.62463088915E+03  0.50400000000E-02 0.  1.
          2    1    1    2    0  502 -0.21972606877E+02 -0.33902457358E+01 -0.34494123928E+03  0.34565697994E+03  0.25500000000E-02 0. -1.
         -2    1    1    2  502    0  0.21972606877E+02  0.33902457358E+01 -0.27888940206E+03  0.27977417288E+03  0.25500000000E-02 0. -1.
<mgrwt>
<rscale>  0 0.44715298E+02</rscale>
<asrwt>0</asrwt>
<pdfrwt beam="2">  1        1 0.96096671E-01 0.44715298E+02</pdfrwt>
<pdfrwt beam="1">  1       -1 0.12311677E-03 0.44715298E+02</pdfrwt>
<totfact> 0.87255207E+05</totfact>
</mgrwt>
</event>
<event>
 4    1  0.2051373E-002  0.8567825E+02  0.7818608E-02  0.1313668E+00
          1   -1    0    0    0  501  0.00000000000E+00  0.00000000000E+00  0.86453743792E+01  0.86453758483E+01  0.50400000000E-02 0.  1.
         -1   -1    0    0  501    0 -0.00000000000E+00 -0.00000000000E+00 -0.21227428593E+03  0.21227428599E+03  0.50400000000E-02 0.  1.
          2    1    1    2    0  502 -0.78780642584E+01 -0.31863333911E+02 -0.30831057611E+02  0.45032100376E+02  0.25500000000E-02 0. -1.
         -2    1    1    2  502    0  0.78780642584E+01  0.31863333911E+02 -0.17279785394E+03  0.17588756147E+03  0.25500000000E-02 0. -1.
<mgrwt>
<rscale>  0 0.85678255E+02</rscale>
<asrwt>0</asrwt>
<pdfrwt beam="1">  1        1 0.13300579E-02 0.85678255E+02</pdfrwt>
<pdfrwt beam="2">  1       -1 0.32657579E-01 0.85678255E+02</pdfrwt>
<totfact> 0.80204541E+04</totfact>
</mgrwt>
</event>
<event>
 4    1  0.2051373E-002  0.9870955E+02  0.7818608E-02  0.1283033E+00
          1   -1    0    0    0  501  0.00000000000E+00  0.00000000000E+00  0.49770953171E+01  0.49770978689E+01  0.50400000000E-02 0. -1.
         -1   -1    0    0  501    0 -0.00000000000E+00 -0.00000000000E+00 -0.48942064497E+03  0.48942064500E+03  0.50400000000E-02 0. -1.
          2    1    1    2    0  502 -0.14872895314E+02 -0.41847628117E+02 -0.35004855510E+03  0.35285466970E+03  0.25500000000E-02 0.  1.
         -2    1    1    2  502    0  0.14872895314E+02  0.41847628117E+02 -0.13439499456E+03  0.14154307317E+03  0.25500000000E-02 0.  1.
<mgrwt>
<rscale>  0 0.98709550E+02</rscale>
<asrwt>0</asrwt>
<pdfrwt beam="1">  1        1 0.76570755E-03 0.98709550E+02</pdfrwt>
<pdfrwt beam="2">  1       -1 0.75295446E-01 0.98709550E+02</pdfrwt>
<totfact> 0.38676411E+04</totfact>
</mgrwt>
</event>
<event>
 4    1  0.2051373E-002  0.5937017E+02  0.7818608E-02  0.1400494E+00
          1   -1    0    0    0  501  0.00000000000E+00  0.00000000000E+00  0.12835634396E+01  0.12835733345E+01  0.50400000000E-02 0.  1.
         -1   -1    0    0  501    0 -0.00000000000E+00 -0.00000000000E+00 -0.68652695036E+03  0.68652695038E+03  0.50400000000E-02 0.  1.
          2    1    1    2    0  502 -0.73470259530E+00 -0.22834599358E+02 -0.12303994782E+03  0.12514306805E+03  0.25500000000E-02 0. -1.
         -2    1    1    2  502    0  0.73470259530E+00  0.22834599358E+02 -0.56220343911E+03  0.56266745567E+03  0.25500000000E-02 0. -1.
<mgrwt>
<rscale>  0 0.59370171E+02</rscale>
<asrwt>0</asrwt>
<pdfrwt beam="1">  1        1 0.19747261E-03 0.59370171E+02</pdfrwt>
<pdfrwt beam="2">  1       -1 0.10561924E+00 0.59370171E+02</pdfrwt>
<totfact> 0.11312890E+05</totfact>
</mgrwt>
</event>
<event>
 4    1  0.2051373E-002  0.1655892E+03  0.7818608E-02  0.1182527E+00
         -1   -1    0    0  501    0 -0.00000000000E+00  0.00000000000E+00  0.15445967855E+02  0.15445968677E+02  0.50400000000E-02 0.  1.
          1   -1    0    0    0  501  0.00000000000E+00 -0.00000000000E+00 -0.44380137972E+03  0.44380137974E+03  0.50400000000E-02 0.  1.
          2    1    1    2    0  502  0.72375685311E+02  0.17116867184E+02 -0.31508255205E+03  0.32374101003E+03  0.25500000000E-02 0.  1.
         -2    1    1    2  502    0 -0.72375685311E+02 -0.17116867184E+02 -0.11327285981E+03  0.13550633839E+03  0.25500000000E-02 0.  1.
<mgrwt>
<rscale>  0 0.16558915E+03</rscale>
<asrwt>0</asrwt>
<pdfrwt beam="2">  1        1 0.68277126E-01 0.16558915E+03</pdfrwt>
<pdfrwt beam="1">  1       -1 0.23763031E-02 0.16558915E+03</pdfrwt>
<totfact> 0.26817813E+04</totfact>
</mgrwt>
</event>
<event>
 4    1  0.2051373E-002  0.8320914E+02  0.7818608E-02  0.1320183E+00
          1   -1    0    0    0  501  0.00000000000E+00  0.00000000000E+00  0.11110514604E+03  0.11110514615E+03  0.50400000000E-02 0. -1.
         -1   -1    0    0  501    0 -0.00000000000E+00 -0.00000000000E+00 -0.15579297952E+02  0.15579298768E+02  0.50400000000E-02 0. -1.
          2    1    1    2    0  502  0.31356187148E+02 -0.25663343669E+02  0.62135878611E+02  0.74180085589E+02  0.25500000000E-02 0.  1.
         -2    1    1    2  502    0 -0.31356187148E+02  0.25663343669E+02  0.33389969477E+02  0.52504359333E+02  0.25500000000E-02 0.  1.
<mgrwt>
<rscale>  0 0.83209140E+02</rscale>
<asrwt>0</asrwt>
<pdfrwt beam="1">  1        1 0.17093100E-01 0.83209140E+02</pdfrwt>
<pdfrwt beam="2">  1       -1 0.23968151E-02 0.83209140E+02</pdfrwt>
<totfact> 0.13609986E+05</totfact>
</mgrwt>
</event>
<event>
 4    1  0.2051373E-002  0.1798769E+03  0.7818608E-02  0.1167922E+00
          1   -1    0    0    0  501  0.00000000000E+00  0.00000000000E+00  0.11047280367E+04  0.11047280368E+04  0.50400000000E-02 0.  1.
         -1   -1    0    0  501    0 -0.00000000000E+00 -0.00000000000E+00 -0.73220967184E+01  0.73220984530E+01  0.50400000000E-02 0.  1.
          2    1    1    2    0  502  0.51574249219E+02 -0.37161500239E+02  0.94204618020E+03  0.94418848008E+03  0.25500000000E-02 0.  1.
         -2    1    1    2  502    0 -0.51574249219E+02  0.37161500239E+02  0.15535975983E+03  0.16786165513E+03  0.25500000000E-02 0.  1.
<mgrwt>
<rscale>  0 0.17987692E+03</rscale>
<asrwt>0</asrwt>
<pdfrwt beam="1">  1        1 0.16995813E+00 0.17987692E+03</pdfrwt>
<pdfrwt beam="2">  1       -1 0.11264767E-02 0.17987692E+03</pdfrwt>
<totfact> 0.20659776E+04</totfact>
</mgrwt>
</event>
<event>
 4    1  0.2051373E-002  0.6314719E+02  0.7818608E-02  0.1385080E+00
         -1   -1    0    0  501    0 -0.00000000000E+00  0.00000000000E+00  0.39789580071E+03  0.39789580074E+03  0.50400000000E-02 0.  1.
          1   -1    0    0    0  501  0.00000000000E+00 -0.00000000000E+00 -0.25054066039E+01  0.25054116732E+01  0.50400000000E-02 0.  1.
          2    1    1    2    0  502 -0.13267338307E+02  0.26460283419E+02  0.12802673241E+03  0.13140400711E+03  0.25500000000E-02 0.  1.
         -2    1    1    2  502    0  0.13267338307E+02 -0.26460283419E+02  0.26736366169E+03  0.26899720531E+03  0.25500000000E-02 0.  1.
<mgrwt>
<rscale>  0 0.63147186E+02</rscale>
<asrwt>0</asrwt>
<pdfrwt beam="2">  1        1 0.38544743E-03 0.63147186E+02</pdfrwt>
<pdfrwt beam="1">  1       -1 0.61214760E-01 0.63147186E+02</pdfrwt>
<totfact> 0.13787881E+05</totfact>
</mgrwt>
</event>
<event>
 4    1  0.2051373E-002  0.4325378E+02  0.7818608E-02  0.1485547E+00
          1   -1    0    0    0  501  0.00000000000E+00  0.00000000000E+00  0.71064357048E+03  0.71064357050E+03  0.50400000000E-02 0.  1.
         -1   -1    0    0  501    0 -0.00000000000E+00 -0.00000000000E+00 -0.65815755949E+00  0.65817685672E+00  0.50400000000E-02 0.  1.
          2    1    1    2    0  502  0.78411452379E+01 -0.20151012598E+02  0.34810481688E+03  0.34877573082E+03  0.25500000000E-02 0. -1.
         -2    1    1    2  502    0 -0.78411452379E+01  0.20151012598E+02  0.36188059604E+03  0.36252601654E+03  0.25500000000E-02 0. -1.
<mgrwt>
<rscale>  0 0.43253777E+02</rscale>
<asrwt>0</asrwt>
<pdfrwt beam="1">  1        1 0.10932954E+00 0.43253777E+02</pdfrwt>
<pdfrwt beam="2">  1       -1 0.10125672E-03 0.43253777E+02</pdfrwt>
<totfact> 0.94732389E+05</totfact>
</mgrwt>
</event>
<event>
 4    1  0.2051373E-002  0.9690641E+02  0.7818608E-02  0.1286939E+00
          1   -1    0    0    0  501  0.00000000000E+00  0.00000000000E+00  0.84428295453E+02  0.84428295603E+02  0.50400000000E-02 0. -1.
         -1   -1    0    0  501    0 -0.00000000000E+00 -0.00000000000E+00 -0.27807182943E+02  0.27807183400E+02  0.50400000000E-02 0. -1.
          2    1    1    2    0  502  0.12379413415E+02 -0.26273856532E+02  0.73228813265E+02  0.78778325143E+02  0.25500000000E-02 0. -1.
         -2    1    1    2  502    0 -0.12379413415E+02  0.26273856532E+02 -0.16607700755E+02  0.33457153861E+02  0.25500000000E-02 0. -1.
<mgrwt>
<rscale>  0 0.96906410E+02</rscale>
<asrwt>0</asrwt>
<pdfrwt beam="1">  1        1 0.12988968E-01 0.96906410E+02</pdfrwt>
<pdfrwt beam="2">  1       -1 0.42780283E-02 0.96906410E+02</pdfrwt>
<totfact> 0.85911493E+04</totfact>
</mgrwt>
</event>
<event>
 4    1  0.2051373E-002  0.4833190E+02  0.7818608E-02  0.1454552E+00
          1   -1    0    0    0  501  0.00000000000E+00  0.00000000000E+00  0.11270465966E+03  0.11270465978E+03  0.50400000000E-02 0. -1.
         -1   -1    0    0  501    0 -0.00000000000E+00 -0.00000000000E+00 -0.51816216448E+01  0.51816240959E+01  0.50400000000E-02 0. -1.
          2    1    1    2    0  502  0.18742455105E+02  0.10710166050E+02  0.80257564415E+02  0.83109950863E+02  0.25500000000E-02 0. -1.
         -2    1    1    2  502    0 -0.18742455105E+02 -0.10710166050E+02  0.27265473603E+02  0.34776333008E+02  0.25500000000E-02 0. -1.
<mgrwt>
<rscale>  0 0.48331897E+02</rscale>
<asrwt>0</asrwt>
<pdfrwt beam="1">  1        1 0.17339177E-01 0.48331897E+02</pdfrwt>
<pdfrwt beam="2">  1       -1 0.79717282E-03 0.48331897E+02</pdfrwt>
<totfact> 0.55899972E+05</totfact>
</mgrwt>
</event>
<event>
 4    1  0.2051373E-002  0.4177491E+02  0.7818608E-02  0.1495542E+00
          1   -1    0    0    0  501  0.00000000000E+00  0.00000000000E+00  0.26214549023E+01  0.26214597472E+01  0.50400000000E-02 0.  1.
         -1   -1    0    0  501    0 -0.00000000000E+00 -0.00000000000E+00 -0.16642867839E+03  0.16642867847E+03  0.50400000000E-02 0.  1.
          2    1    1    2    0  502  0.27159975943E+01  0.20698143092E+02 -0.79053885116E+02  0.81763723795E+02  0.25500000000E-02 0. -1.
         -2    1    1    2  502    0 -0.27159975943E+01 -0.20698143092E+02 -0.84753338372E+02  0.87286414418E+02  0.25500000000E-02 0. -1.
<mgrwt>
<rscale>  0 0.41774906E+02</rscale>
<asrwt>0</asrwt>
<pdfrwt beam="1">  1        1 0.40330126E-03 0.41774906E+02</pdfrwt>
<pdfrwt beam="2">  1       -1 0.25604404E-01 0.41774906E+02</pdfrwt>
<totfact> 0.52250511E+05</totfact>
</mgrwt>
</event>
<event>
 4    1  0.2051373E-002  0.6804271E+02  0.7818608E-02  0.1366878E+00
          1   -1    0    0    0  501  0.00000000000E+00  0.00000000000E+00  0.13339159976E+03  0.13339159986E+03  0.50400000000E-02 0.  1.
         -1   -1    0    0  501    0 -0.00000000000E+00 -0.00000000000E+00 -0.86771009779E+01  0.86771024417E+01  0.50400000000E-02 0.  1.
          2    1    1    2    0  502  0.21756925240E+02  0.17338494439E+02  0.10324374285E+03  0.10692641222E+03  0.25500000000E-02 0.  1.
         -2    1    1    2  502    0 -0.21756925240E+02 -0.17338494439E+02  0.21470755933E+02  0.35142290082E+02  0.25500000000E-02 0.  1.
<mgrwt>
<rscale>  0 0.68042707E+02</rscale>
<asrwt>0</asrwt>
<pdfrwt beam="1">  1        1 0.20521784E-01 0.68042707E+02</pdfrwt>
<pdfrwt beam="2">  1       -1 0.13349388E-02 0.68042707E+02</pdfrwt>
<totfact> 0.23887270E+05</totfact>
</mgrwt>
</event>
<event>
 4    1  0.2051373E-002  0.4914594E+03  0.7818608E-02  0.1016032E+00
         -1   -1    0    0  501    0 -0.00000000000E+00  0.00000000000E+00  0.20351599650E+03  0.20351599656E+03  0.50400000000E-02 0. -1.
          1   -1    0    0    0  501  0.00000000000E+00 -0.00000000000E+00 -0.29669947543E+03  0.29669947547E+03  0.50400000000E-02 0. -1.
          2    1    1    2    0  502 -0.15069896912E+03 -0.12887266289E+03  0.10113107821E+03  0.22258894294E+03  0.25500000000E-02 0.  1.
         -2    1    1    2  502    0  0.15069896912E+03  0.12887266289E+03 -0.19431455714E+03  0.27762652909E+03  0.25500000000E-02 0.  1.
<mgrwt>
<rscale>  0 0.49145942E+03</rscale>
<asrwt>0</asrwt>
<pdfrwt beam="2">  1        1 0.45646073E-01 0.49145942E+03</pdfrwt>
<pdfrwt beam="1">  1       -1 0.31310153E-01 0.49145942E+03</pdfrwt>
<totfact> 0.84565926E+02</totfact>
</mgrwt>
</event>
<event>
 4    1  0.2051373E-002  0.4512303E+02  0.7818608E-02  0.1473575E+00
         -1   -1    0    0  501    0 -0.00000000000E+00  0.00000000000E+00  0.36859145540E+00  0.36862591145E+00  0.50400000000E-02 0. -1.
          1   -1    0    0    0  501  0.00000000000E+00 -0.00000000000E+00 -0.13809276148E+04  0.13809276148E+04  0.50400000000E-02 0. -1.
          2    1    1    2    0  502  0.22285295882E+02 -0.28111297991E+01 -0.75510896752E+03  0.75544297581E+03  0.25500000000E-02 0.  1.
         -2    1    1    2  502    0 -0.22285295882E+02  0.28111297991E+01 -0.62545005583E+03  0.62585326492E+03  0.25500000000E-02 0.  1.
<mgrwt>
<rscale>  0 0.45123028E+02</rscale>
<asrwt>0</asrwt>
<pdfrwt beam="2">  1        1 0.21244626E+00 0.45123028E+02</pdfrwt>
<pdfrwt beam="1">  1       -1 0.56710135E-04 0.45123028E+02</pdfrwt>
<totfact> 0.70923043E+05</totfact>
</mgrwt>
</event>
<event>
 4    1  0.2051373E-002  0.4916588E+02  0.7818608E-02  0.1449893E+00
         -1   -1    0    0  501    0 -0.00000000000E+00  0.00000000000E+00  0.29854176713E+01  0.29854219256E+01  0.50400000000E-02 0. -1.
          1   -1    0    0    0  501  0.00000000000E+00 -0.00000000000E+00 -0.20242414110E+03  0.20242414116E+03  0.50400000000E-02 0. -1.
          2    1    1    2    0  502 -0.50897428203E+00  0.21810010974E+02 -0.14705787781E+03  0.14866726292E+03  0.25500000000E-02 0.  1.
         -2    1    1    2  502    0  0.50897428203E+00 -0.21810010974E+02 -0.52380845624E+02  0.56742300167E+02  0.25500000000E-02 0.  1.
<mgrwt>
<rscale>  0 0.49165885E+02</rscale>
<asrwt>0</asrwt>
<pdfrwt beam="2">  1        1 0.31142165E-01 0.49165885E+02</pdfrwt>
<pdfrwt beam="1">  1       -1 0.45929552E-03 0.49165885E+02</pdfrwt>
<totfact> 0.58743157E+05</totfact>
</mgrwt>
</event>
<event>
 4    1  0.2051373E-002  0.5632739E+02  0.7818608E-02  0.1413924E+00
         -1   -1    0    0  501    0 -0.00000000000E+00  0.00000000000E+00  0.30581947847E+02  0.30581948263E+02  0.50400000000E-02 0. -1.
          1   -1    0    0    0  501  0.00000000000E+00 -0.00000000000E+00 -0.25936667689E+02  0.25936668178E+02  0.50400000000E-02 0. -1.
          2    1    1    2    0  502 -0.61452014553E+01 -0.27447129528E+02  0.37716399805E+01  0.28378401909E+02  0.25500000000E-02 0. -1.
         -2    1    1    2  502    0  0.61452014553E+01  0.27447129528E+02  0.87364017818E+00  0.28140214532E+02  0.25500000000E-02 0. -1.
<mgrwt>
<rscale>  0 0.56327395E+02</rscale>
<asrwt>0</asrwt>
<pdfrwt beam="2">  1        1 0.39902567E-02 0.56327395E+02</pdfrwt>
<pdfrwt beam="1">  1       -1 0.47049151E-02 0.56327395E+02</pdfrwt>
<totfact> 0.32094890E+05</totfact>
</mgrwt>
</event>
<event>
 4    1  0.2051373E-002  0.9987377E+02  0.7818608E-02  0.1280562E+00
          1   -1    0    0    0  501  0.00000000000E+00  0.00000000000E+00  0.22073157983E+03  0.22073157989E+03  0.50400000000E-02 0.  1.
         -1   -1    0    0  501    0 -0.00000000000E+00 -0.00000000000E+00 -0.11297398064E+02  0.11297399188E+02  0.50400000000E-02 0.  1.
          2    1    1    2    0  502 -0.11204683143E+02  0.47925309893E+02  0.85098252117E+02  0.98306117676E+02  0.25500000000E-02 0. -1.
         -2    1    1    2  502    0  0.11204683143E+02 -0.47925309893E+02  0.12433592965E+03  0.13372286140E+03  0.25500000000E-02 0. -1.
<mgrwt>
<rscale>  0 0.99873774E+02</rscale>
<asrwt>0</asrwt>
<pdfrwt beam="1">  1        1 0.33958703E-01 0.99873774E+02</pdfrwt>
<pdfrwt beam="2">  1       -1 0.17380614E-02 0.99873774E+02</pdfrwt>
<totfact> 0.94449970E+04</totfact>
</mgrwt>
</event>
<event>
 4    1  0.2051373E-002  0.4437249E+02  0.7818608E-02  0.1478297E+00
         -1   -1    0    0  501    0 -0.00000000000E+00  0.00000000000E+00  0.34559435902E+01  0.34559472652E+01  0.50400000000E-02 0. -1.
          1   -1    0    0    0  501  0.00000000000E+00 -0.00000000000E+00 -0.14242976004E+03  0.14242976013E+03  0.50400000000E-02 0. -1.
          2    1    1    2    0  502 -0.43866423169E+01  0.20654918206E+02 -0.47100918297E+02  0.51617485292E+02  0.25500000000E-02 0. -1.
         -2    1    1    2  502    0  0.43866423169E+01 -0.20654918206E+02 -0.91872898152E+02  0.94268222102E+02  0.25500000000E-02 0. -1.
<mgrwt>
<rscale>  0 0.44372491E+02</rscale>
<asrwt>0</asrwt>
<pdfrwt beam="2">  1        1 0.21912266E-01 0.44372491E+02</pdfrwt>
<pdfrwt beam="1">  1       -1 0.53168403E-03 0.44372491E+02</pdfrwt>
<totfact> 0.71590371E+05</totfact>
</mgrwt>
</event>
<event>
 4    1  0.2051373E-002  0.5463611E+02  0.7818608E-02  0.1421828E+00
          1   -1    0    0    0  501  0.00000000000E+00  0.00000000000E+00  0.26096869550E+01  0.26096918218E+01  0.50400000000E-02 0.  1.
         -1   -1    0    0  501    0 -0.00000000000E+00 -0.00000000000E+00 -0.28596359714E+03  0.28596359718E+03  0.50400000000E-02 0.  1.
          2    1    1    2    0  502 -0.24466979250E+02  0.11570481762E+02 -0.16127427936E+03  0.16352951511E+03  0.25500000000E-02 0. -1.
         -2    1    1    2  502    0  0.24466979250E+02 -0.11570481762E+02 -0.12207963083E+03  0.12504377390E+03  0.25500000000E-02 0. -1.
<mgrwt>
<rscale>  0 0.54636112E+02</rscale>
<asrwt>0</asrwt>
<pdfrwt beam="1">  1        1 0.40149091E-03 0.54636112E+02</pdfrwt>
<pdfrwt beam="2">  1       -1 0.43994375E-01 0.54636112E+02</pdfrwt>
<totfact> 0.22906681E+05</totfact>
</mgrwt>
</event>
<event>
 4    1  0.2051373E-002  0.8466864E+02  0.7818608E-02  0.1316301E+00
         -1   -1    0    0  501    0 -0.00000000000E+00  0.00000000000E+00  0.38198518813E+01  0.38198552063E+01  0.50400000000E-02 0.  1.
          1   -1    0    0    0  501  0.00000000000E+00 -0.00000000000E+00 -0.46917884732E+03  0.46917884735E+03  0.50400000000E-02 0.  1.
          2    1    1    2    0  502  0.16037321295E+02  0.30426971596E+02 -0.94794602001E+02  0.10084152344E+03  0.25500000000E-02 0.  1.
         -2    1    1    2  502    0 -0.16037321295E+02 -0.30426971596E+02 -0.37056439344E+03  0.37215717912E+03  0.25500000000E-02 0.  1.
<mgrwt>
<rscale>  0 0.84668636E+02</rscale>
<asrwt>0</asrwt>
<pdfrwt beam="2">  1        1 0.72181316E-01 0.84668636E+02</pdfrwt>
<pdfrwt beam="1">  1       -1 0.58767015E-03 0.84668636E+02</pdfrwt>
<totfact> 0.16799378E+05</totfact>
</mgrwt>
</event>
<event>
 4    1  0.2051373E-002  0.4494571E+02  0.7818608E-02  0.1474681E+00
          1   -1    0    0    0  501  0.00000000000E+00  0.00000000000E+00  0.20229318086E+01  0.20229380870E+01  0.50400000000E-02 0.  1.
         -1   -1    0    0  501    0 -0.00000000000E+00 -0.00000000000E+00 -0.24965177189E+03  0.24965177194E+03  0.50400000000E-02 0.  1.
          2    1    1    2    0  502 -0.95024580581E+01  0.18704927828E+02 -0.16890999808E+03  0.17020798598E+03  0.25500000000E-02 0.  1.
         -2    1    1    2  502    0  0.95024580581E+01 -0.18704927828E+02 -0.78718842002E+02  0.81466724046E+02  0.25500000000E-02 0.  1.
<mgrwt>
<rscale>  0 0.44945714E+02</rscale>
<asrwt>0</asrwt>
<pdfrwt beam="1">  1        1 0.31122096E-03 0.44945714E+02</pdfrwt>
<pdfrwt beam="2">  1       -1 0.38407941E-01 0.44945714E+02</pdfrwt>
<totfact> 0.38966958E+05</totfact>
</mgrwt>
</event>
<event>
 4    1  0.2051373E-002  0.6707217E+02  0.7818608E-02  0.1370342E+00
         -1   -1    0    0  501    0 -0.00000000000E+00  0.00000000000E+00  0.62301237875E+02  0.62301238079E+02  0.50400000000E-02 0.  1.
          1   -1    0    0    0  501  0.00000000000E+00 -0.00000000000E+00 -0.18052113440E+02  0.18052114144E+02  0.50400000000E-02 0.  1.
          2    1    1    2    0  502 -0.12809713773E+02  0.30991628020E+02  0.21747103780E+02  0.39968816639E+02  0.25500000000E-02 0. -1.
         -2    1    1    2  502    0  0.12809713773E+02 -0.30991628020E+02  0.22502020656E+02  0.40384535584E+02  0.25500000000E-02 0. -1.
<mgrwt>
<rscale>  0 0.67072172E+02</rscale>
<asrwt>0</asrwt>
<pdfrwt beam="2">  1        1 0.27772483E-02 0.67072172E+02</pdfrwt>
<pdfrwt beam="1">  1       -1 0.95848060E-02 0.67072172E+02</pdfrwt>
<totfact> 0.19162582E+05</totfact>
</mgrwt>
</event>
<event>
 4    1  0.2051373E-002  0.4530641E+02  0.7818608E-02  0.1472438E+00
         -1   -1    0    0  501    0 -0.00000000000E+00  0.00000000000E+00  0.82924563425E+03  0.82924563426E+03  0.50400000000E-02 0. -1.
          1   -1    0    0    0  501  0.00000000000E+00 -0.00000000000E+00 -0.61882657536E+00  0.61884709903E+00  0.50400000000E-02 0. -1.
          2    1    1    2    0  502 -0.41337123620E+01  0.21320074492E+02  0.29626707012E+03  0.29706196323E+03  0.25500000000E-02 0.  1.
         -2    1    1    2  502    0  0.41337123620E+01 -0.21320074492E+02  0.53235973755E+03  0.53280251813E+03  0.25500000000E-02 0.  1.
<mgrwt>
<rscale>  0 0.45306413E+02</rscale>
<asrwt>0</asrwt>
<pdfrwt beam="2">  1        1 0.95205633E-04 0.45306413E+02</pdfrwt>
<pdfrwt beam="1">  1       -1 0.12757630E+00 0.45306413E+02</pdfrwt>
<totfact> 0.18653108E+05</totfact>
</mgrwt>
</event>
<event>
 4    1  0.2051373E-002  0.6153262E+02  0.7818608E-02  0.1391510E+00
          1   -1    0    0    0  501  0.00000000000E+00  0.00000000000E+00  0.90830968520E+02  0.90830968660E+02  0.50400000000E-02 0.  1.
         -1   -1    0    0  501    0 -0.00000000000E+00 -0.00000000000E+00 -0.10421179569E+02  0.10421180787E+02  0.50400000000E-02 0.  1.
          2    1    1    2    0  502 -0.30006800477E+02  0.59121013471E+01  0.45713001910E+02  0.55000359702E+02  0.25500000000E-02 0.  1.
         -2    1    1    2  502    0  0.30006800477E+02 -0.59121013471E+01  0.34696787041E+02  0.46251789745E+02  0.25500000000E-02 0.  1.
<mgrwt>
<rscale>  0 0.61532622E+02</rscale>
<asrwt>0</asrwt>
<pdfrwt beam="1">  1        1 0.13973995E-01 0.61532622E+02</pdfrwt>
<pdfrwt beam="2">  1       -1 0.16032585E-02 0.61532622E+02</pdfrwt>
<totfact> 0.29300167E+05</totfact>
</mgrwt>
</event>
<event>
 4    1  0.2051373E-002  0.4626766E+02  0.7818608E-02  0.1466580E+00
         -1   -1    0    0  501    0 -0.00000000000E+00  0.00000000000E+00  0.35356402980E+02  0.35356403339E+02  0.50400000000E-02 0.  1.
          1   -1    0    0    0  501  0.00000000000E+00 -0.00000000000E+00 -0.15136552748E+02  0.15136553588E+02  0.50400000000E-02 0.  1.
          2    1    1    2    0  502 -0.20613254104E+02 -0.65463898010E+01  0.19070252276E+02  0.28834631826E+02  0.25500000000E-02 0.  1.
         -2    1    1    2  502    0  0.20613254104E+02  0.65463898010E+01  0.11495979552E+01  0.21658325100E+02  0.25500000000E-02 0.  1.
<mgrwt>
<rscale>  0 0.46267660E+02</rscale>
<asrwt>0</asrwt>
<pdfrwt beam="2">  1        1 0.23287005E-02 0.46267660E+02</pdfrwt>
<pdfrwt beam="1">  1       -1 0.54394466E-02 0.46267660E+02</pdfrwt>
<totfact> 0.51163216E+05</totfact>
</mgrwt>
</event>
<event>
 4    1  0.2051373E-002  0.1133124E+03  0.7818608E-02  0.1254556E+00
          1   -1    0    0    0  501  0.00000000000E+00  0.00000000000E+00  0.44704127625E+03  0.44704127628E+03  0.50400000000E-02 0.  1.
         -1   -1    0    0  501    0 -0.00000000000E+00 -0.00000000000E+00 -0.71803718549E+01  0.71803736237E+01  0.50400000000E-02 0.  1.
          2    1    1    2    0  502 -0.18515836960E+02 -0.28616497950E+02  0.38514744521E+02  0.51430785774E+02  0.25500000000E-02 0. -1.
         -2    1    1    2  502    0  0.18515836960E+02  0.28616497950E+02  0.40134615988E+03  0.40279086413E+03  0.25500000000E-02 0. -1.
<mgrwt>
<rscale>  0 0.11331236E+03</rscale>
<asrwt>0</asrwt>
<pdfrwt beam="1">  1        1 0.68775583E-01 0.11331236E+03</pdfrwt>
<pdfrwt beam="2">  1       -1 0.11046727E-02 0.11331236E+03</pdfrwt>
<totfact> 0.76614070E+04</totfact>
</mgrwt>
</event>
<event>
 4    1  0.2051373E-002  0.6045692E+02  0.7818608E-02  0.1395924E+00
         -1   -1    0    0  501    0 -0.00000000000E+00  0.00000000000E+00  0.19933912028E+01  0.19933975742E+01  0.50400000000E-02 0. -1.
          1   -1    0    0    0  501  0.00000000000E+00 -0.00000000000E+00 -0.45839381348E+03  0.45839381351E+03  0.50400000000E-02 0. -1.
          2    1    1    2    0  502  0.23496023861E+02  0.18702896703E+02 -0.20193278508E+03  0.20415364601E+03  0.25500000000E-02 0.  1.
         -2    1    1    2  502    0 -0.23496023861E+02 -0.18702896703E+02 -0.25446763720E+03  0.25623356508E+03  0.25500000000E-02 0.  1.
<mgrwt>
<rscale>  0 0.60456916E+02</rscale>
<asrwt>0</asrwt>
<pdfrwt beam="2">  1        1 0.70522042E-01 0.60456916E+02</pdfrwt>
<pdfrwt beam="1">  1       -1 0.30667643E-03 0.60456916E+02</pdfrwt>
<totfact> 0.40022090E+05</totfact>
</mgrwt>
</event>
<event>
 4    1  0.2051373E-002  0.4838527E+02  0.7818608E-02  0.1454251E+00
         -1   -1    0    0  501    0 -0.00000000000E+00  0.00000000000E+00  0.83957805690E+01  0.83957820817E+01  0.50400000000E-02 0.  1.
          1   -1    0    0    0  501  0.00000000000E+00 -0.00000000000E+00 -0.69711639923E+02  0.69711640105E+02  0.50400000000E-02 0.  1.
          2    1    1    2    0  502 -0.22679554627E+02  0.18025675342E+01 -0.43937511019E+02  0.49478443072E+02  0.25500000000E-02 0.  1.
         -2    1    1    2  502    0  0.22679554627E+02 -0.18025675342E+01 -0.17378348335E+02  0.28628979115E+02  0.25500000000E-02 0.  1.
<mgrwt>
<rscale>  0 0.48385275E+02</rscale>
<asrwt>0</asrwt>
<pdfrwt beam="2">  1        1 0.10724867E-01 0.48385275E+02</pdfrwt>
<pdfrwt beam="1">  1       -1 0.12916587E-02 0.48385275E+02</pdfrwt>
<totfact> 0.52479387E+05</totfact>
</mgrwt>
</event>
<event>
 4    1  0.2051373E-002  0.1077194E+03  0.7818608E-02  0.1264852E+00
         -1   -1    0    0  501    0 -0.00000000000E+00  0.00000000000E+00  0.15325152667E+01  0.15325235542E+01  0.50400000000E-02 0.  1.
          1   -1    0    0    0  501  0.00000000000E+00 -0.00000000000E+00 -0.18928756818E+04  0.18928756818E+04  0.50400000000E-02 0.  1.
          2    1    1    2    0  502 -0.49964212685E+02  0.78406021298E+01 -0.12713645046E+04  0.12723700724E+04  0.25500000000E-02 0.  1.
         -2    1    1    2  502    0  0.49964212685E+02 -0.78406021298E+01 -0.61997866193E+03  0.62203813295E+03  0.25500000000E-02 0.  1.
<mgrwt>
<rscale>  0 0.10771943E+03</rscale>
<asrwt>0</asrwt>
<pdfrwt beam="2">  1        1 0.29120977E+00 0.10771943E+03</pdfrwt>
<pdfrwt beam="1">  1       -1 0.23577373E-03 0.10771943E+03</pdfrwt>
<totfact> 0.55213638E+04</totfact>
</mgrwt>
</event>
<event>
 4    1  0.2051373E-002  0.7175677E+02  0.7818608E-02  0.1354219E+00
         -1   -1    0    0  501    0 -0.00000000000E+00  0.00000000000E+00  0.13856012759E+02  0.13856013676E+02  0.50400000000E-02 0.  1.
          1   -1    0    0    0  501  0.00000000000E+00 -0.00000000000E+00 -0.92902504063E+02  0.92902504200E+02  0.50400000000E-02 0.  1.
          2    1    1    2    0  502 -0.32307530467E+02 -0.44396079402E+01 -0.17267494727E+02  0.36900582979E+02  0.25500000000E-02 0.  1.
         -2    1    1    2  502    0  0.32307530467E+02  0.44396079402E+01 -0.61778996576E+02  0.69857934897E+02  0.25500000000E-02 0.  1.
<mgrwt>
<rscale>  0 0.71756765E+02</rscale>
<asrwt>0</asrwt>
<pdfrwt beam="2">  1        1 0.14292693E-01 0.71756765E+02</pdfrwt>
<pdfrwt beam="1">  1       -1 0.21316944E-02 0.71756765E+02</pdfrwt>
<totfact> 0.19645646E+05</totfact>
</mgrwt>
</event>
<event>
 4    1  0.2051373E-002  0.7383006E+02  0.7818608E-02  0.1347533E+00
          1   -1    0    0    0  501  0.00000000000E+00  0.00000000000E+00  0.45697290847E+02  0.45697291125E+02  0.50400000000E-02 0.  1.
         -1   -1    0    0  501    0 -0.00000000000E+00 -0.00000000000E+00 -0.29820572028E+02  0.29820572454E+02  0.50400000000E-02 0.  1.
          2    1    1    2    0  502  0.20180346863E+02  0.26806774325E+02  0.23680774231E+02  0.41068584391E+02  0.25500000000E-02 0. -1.
         -2    1    1    2  502    0 -0.20180346863E+02 -0.26806774325E+02 -0.78040554109E+01  0.34449279188E+02  0.25500000000E-02 0. -1.
<mgrwt>
<rscale>  0 0.73830058E+02</rscale>
<asrwt>0</asrwt>
<pdfrwt beam="1">  1        1 0.70303525E-02 0.73830058E+02</pdfrwt>
<pdfrwt beam="2">  1       -1 0.45877804E-02 0.73830058E+02</pdfrwt>
<totfact> 0.16556537E+05</totfact>
</mgrwt>
</event>
<event>
 4    1  0.2051373E-002  0.8500455E+02  0.7818608E-02  0.1315421E+00
         -1   -1    0    0  501    0 -0.00000000000E+00  0.00000000000E+00  0.73967633074E+03  0.73967633076E+03  0.50400000000E-02 0.  1.
          1   -1    0    0    0  501  0.00000000000E+00 -0.00000000000E+00 -0.24422053563E+01  0.24422105569E+01  0.50400000000E-02 0.  1.
          2    1    1    2    0  502  0.25237617267E+02  0.74516701993E+01  0.66000364471E+03  0.66052802798E+03  0.25500000000E-02 0. -1.
         -2    1    1    2  502    0 -0.25237617267E+02 -0.74516701993E+01  0.77230480676E+02  0.81590513333E+02  0.25500000000E-02 0. -1.
<mgrwt>
<rscale>  0 0.85004551E+02</rscale>
<asrwt>0</asrwt>
<pdfrwt beam="2">  1        1 0.37572414E-03 0.85004551E+02</pdfrwt>
<pdfrwt beam="1">  1       -1 0.11379641E+00 0.85004551E+02</pdfrwt>
<totfact> 0.42197761E+04</totfact>
</mgrwt>
</event>
<event>
 4    1  0.2051373E-002  0.4521959E+02  0.7818608E-02  0.1472975E+00
         -1   -1    0    0  501    0 -0.00000000000E+00  0.00000000000E+00  0.35343879869E+01  0.35343915804E+01  0.50400000000E-02 0. -1.
          1   -1    0    0    0  501  0.00000000000E+00 -0.00000000000E+00 -0.14463679216E+03  0.14463679224E+03  0.50400000000E-02 0. -1.
          2    1    1    2    0  502  0.17935103195E+02 -0.11318401917E+02 -0.96232836079E+02  0.98542036182E+02  0.25500000000E-02 0. -1.
         -2    1    1    2  502    0 -0.17935103195E+02  0.11318401917E+02 -0.44869568089E+02  0.49629147641E+02  0.25500000000E-02 0. -1.
<mgrwt>
<rscale>  0 0.45219589E+02</rscale>
<asrwt>0</asrwt>
<pdfrwt beam="2">  1        1 0.22251810E-01 0.45219589E+02</pdfrwt>
<pdfrwt beam="1">  1       -1 0.54375239E-03 0.45219589E+02</pdfrwt>
<totfact> 0.68471265E+05</totfact>
</mgrwt>
</event>
<event>
 4    1  0.2051373E-002  0.4910412E+02  0.7818608E-02  0.1450234E+00
         -1   -1    0    0  501    0 -0.00000000000E+00  0.00000000000E+00  0.18041741230E+02  0.18041741934E+02  0.50400000000E-02 0.  1.
          1   -1    0    0    0  501  0.00000000000E+00 -0.00000000000E+00 -0.33411615050E+02  0.33411615430E+02  0.50400000000E-02 0.  1.
          2    1    1    2    0  502  0.10739420779E+02 -0.21294857796E+02 -0.15752363258E+01  0.23901621351E+02  0.25500000000E-02 0. -1.
         -2    1    1    2  502    0 -0.10739420779E+02  0.21294857796E+02 -0.13794637494E+02  0.27551736013E+02  0.25500000000E-02 0. -1.
<mgrwt>
<rscale>  0 0.49104124E+02</rscale>
<asrwt>0</asrwt>
<pdfrwt beam="2">  1        1 0.51402486E-02 0.49104124E+02</pdfrwt>
<pdfrwt beam="1">  1       -1 0.27756526E-02 0.49104124E+02</pdfrwt>
<totfact> 0.47029938E+05</totfact>
</mgrwt>
</event>
<event>
 4    1  0.2051373E-002  0.6092159E+02  0.7818608E-02  0.1394004E+00
          1   -1    0    0    0  501  0.00000000000E+00  0.00000000000E+00  0.39574492309E+01  0.39574524403E+01  0.50400000000E-02 0. -1.
         -1   -1    0    0  501    0 -0.00000000000E+00 -0.00000000000E+00 -0.23445897876E+03  0.23445897881E+03  0.50400000000E-02 0. -1.
          2    1    1    2    0  502  0.24797191211E+02  0.49375043185E+01 -0.18173187843E+03  0.18348230237E+03  0.25500000000E-02 0.  1.
         -2    1    1    2  502    0 -0.24797191211E+02 -0.49375043185E+01 -0.48769651102E+02  0.54934128881E+02  0.25500000000E-02 0.  1.
<mgrwt>
<rscale>  0 0.60921585E+02</rscale>
<asrwt>0</asrwt>
<pdfrwt beam="1">  1        1 0.60883878E-03 0.60921585E+02</pdfrwt>
<pdfrwt beam="2">  1       -1 0.36070602E-01 0.60921585E+02</pdfrwt>
<totfact> 0.18650820E+05</totfact>
</mgrwt>
</event>
<event>
 4    1  0.2051373E-002  0.5944902E+02  0.7818608E-02  0.1400159E+00
          1   -1    0    0    0  501  0.00000000000E+00  0.00000000000E+00  0.84802447447E+03  0.84802447449E+03  0.50400000000E-02 0. -1.
         -1   -1    0    0  501    0 -0.00000000000E+00 -0.00000000000E+00 -0.10418817931E+01  0.10418939833E+01  0.50400000000E-02 0. -1.
          2    1    1    2    0  502 -0.22731581387E+02 -0.17941167339E+02  0.51923162575E+03  0.52003854805E+03  0.25500000000E-02 0.  1.
         -2    1    1    2  502    0  0.22731581387E+02  0.17941167339E+02  0.32775096693E+03  0.32902782042E+03  0.25500000000E-02 0.  1.
<mgrwt>
<rscale>  0 0.59449018E+02</rscale>
<asrwt>0</asrwt>
<pdfrwt beam="1">  1        1 0.13046568E+00 0.59449018E+02</pdfrwt>
<pdfrwt beam="2">  1       -1 0.16028998E-03 0.59449018E+02</pdfrwt>
<totfact> 0.42460958E+05</totfact>
</mgrwt>
</event>
<event>
 4    1  0.2051373E-002  0.5538383E+02  0.7818608E-02  0.1418292E+00
          1   -1    0    0    0  501  0.00000000000E+00  0.00000000000E+00  0.14478911413E+02  0.14478912290E+02  0.50400000000E-02 0. -1.
         -1   -1    0    0  501    0 -0.00000000000E+00 -0.00000000000E+00 -0.52962682488E+02  0.52962682727E+02  0.50400000000E-02 0. -1.
          2    1    1    2    0  502  0.19703811859E+02 -0.16580573473E+02 -0.31641431526E+02  0.40796272060E+02  0.25500000000E-02 0. -1.
         -2    1    1    2  502    0 -0.19703811859E+02  0.16580573473E+02 -0.68423395488E+01  0.26645322957E+02  0.25500000000E-02 0. -1.
<mgrwt>
<rscale>  0 0.55383825E+02</rscale>
<asrwt>0</asrwt>
<pdfrwt beam="1">  1        1 0.22275249E-02 0.55383825E+02</pdfrwt>
<pdfrwt beam="2">  1       -1 0.81481050E-02 0.55383825E+02</pdfrwt>
<totfact> 0.31544949E+05</totfact>
</mgrwt>
</event>
<event>
 4    1  0.2051373E-002  0.8698300E+02  0.7818608E-02  0.1310327E+00
          1   -1    0    0    0  501  0.00000000000E+00  0.00000000000E+00  0.10096722473E+03  0.10096722485E+03  0.50400000000E-02 0. -1.
         -1   -1    0    0  501    0 -0.00000000000E+00 -0.00000000000E+00 -0.18733907354E+02  0.18733908032E+02  0.50400000000E-02 0. -1.
          2    1    1    2    0  502  0.28206928188E+02  0.15249536919E+02  0.68210443494E+00  0.32072487385E+02  0.25500000000E-02 0.  1.
         -2    1    1    2  502    0 -0.28206928188E+02 -0.15249536919E+02  0.81551212937E+02  0.87628645499E+02  0.25500000000E-02 0.  1.
<mgrwt>
<rscale>  0 0.86983003E+02</rscale>
<asrwt>0</asrwt>
<pdfrwt beam="1">  1        1 0.15533419E-01 0.86983003E+02</pdfrwt>
<pdfrwt beam="2">  1       -1 0.28821397E-02 0.86983003E+02</pdfrwt>
<totfact> 0.11888604E+05</totfact>
</mgrwt>
</event>
<event>
 4    1  0.2051373E-002  0.3794675E+03  0.7818608E-02  0.1051131E+00
          1   -1    0    0    0  501  0.00000000000E+00  0.00000000000E+00  0.74917869953E+03  0.74917869955E+03  0.50400000000E-02 0. -1.
         -1   -1    0    0  501    0 -0.00000000000E+00 -0.00000000000E+00 -0.48051147058E+02  0.48051147322E+02  0.50400000000E-02 0. -1.
          2    1    1    2    0  502  0.72921325615E+02  0.14806493942E+03  0.54717809884E+03  0.57152831765E+03  0.25500000000E-02 0.  1.
         -2    1    1    2  502    0 -0.72921325615E+02 -0.14806493942E+03  0.15394945363E+03  0.22570152922E+03  0.25500000000E-02 0.  1.
<mgrwt>
<rscale>  0 0.37946750E+03</rscale>
<asrwt>0</asrwt>
<pdfrwt beam="1">  1        1 0.11525825E+00 0.37946750E+03</pdfrwt>
<pdfrwt beam="2">  1       -1 0.73924846E-02 0.37946750E+03</pdfrwt>
<totfact> 0.24840382E+03</totfact>
</mgrwt>
</event>
<event>
 4    1  0.2051373E-002  0.4873129E+02  0.7818608E-02  0.1452307E+00
         -1   -1    0    0  501    0 -0.00000000000E+00  0.00000000000E+00  0.26474057773E+03  0.26474057777E+03  0.50400000000E-02 0. -1.
          1   -1    0    0    0  501  0.00000000000E+00 -0.00000000000E+00 -0.22425119571E+01  0.22425176208E+01  0.50400000000E-02 0. -1.
          2    1    1    2    0  502 -0.19015264926E+02 -0.11731667629E+02  0.77997981208E+02  0.81135056570E+02  0.25500000000E-02 0. -1.
         -2    1    1    2  502    0  0.19015264926E+02  0.11731667629E+02  0.18450008456E+03  0.18584803883E+03  0.25500000000E-02 0. -1.
<mgrwt>
<rscale>  0 0.48731291E+02</rscale>
<asrwt>0</asrwt>
<pdfrwt beam="2">  1        1 0.34500228E-03 0.48731291E+02</pdfrwt>
<pdfrwt beam="1">  1       -1 0.40729320E-01 0.48731291E+02</pdfrwt>
<totfact> 0.31303006E+05</totfact>
</mgrwt>
</event>
<event>
 4    1  0.2051373E-002  0.4430155E+02  0.7818608E-02  0.1478750E+00
         -1   -1    0    0  501    0 -0.00000000000E+00  0.00000000000E+00  0.53339747082E+03  0.53339747084E+03  0.50400000000E-02 0.  1.
          1   -1    0    0    0  501  0.00000000000E+00 -0.00000000000E+00 -0.91986383779E+00  0.91987764495E+00  0.50400000000E-02 0.  1.
          2    1    1    2    0  502  0.19785707158E+02 -0.73370898376E+01  0.34745961198E+03  0.34809982628E+03  0.25500000000E-02 0. -1.
         -2    1    1    2  502    0 -0.19785707158E+02  0.73370898376E+01  0.18501799500E+03  0.18621752221E+03  0.25500000000E-02 0. -1.
<mgrwt>
<rscale>  0 0.44301546E+02</rscale>
<asrwt>0</asrwt>
<pdfrwt beam="2">  1        1 0.14151818E-03 0.44301546E+02</pdfrwt>
<pdfrwt beam="1">  1       -1 0.82061381E-01 0.44301546E+02</pdfrwt>
<totfact> 0.28197083E+05</totfact>
</mgrwt>
</event>
<event>
 4    1  0.2051373E-002  0.4166731E+02  0.7818608E-02  0.1496288E+00
          1   -1    0    0    0  501  0.00000000000E+00  0.00000000000E+00  0.52514409689E+02  0.52514409931E+02  0.50400000000E-02 0. -1.
         -1   -1    0    0  501    0 -0.00000000000E+00 -0.00000000000E+00 -0.82651815833E+01  0.82651831200E+01  0.50400000000E-02 0. -1.
          2    1    1    2    0  502  0.16753305112E+02 -0.12369515844E+02  0.23003496055E+02  0.31029646979E+02  0.25500000000E-02 0. -1.
         -2    1    1    2  502    0 -0.16753305112E+02  0.12369515844E+02  0.21245732051E+02  0.29749946072E+02  0.25500000000E-02 0. -1.
<mgrwt>
<rscale>  0 0.41667310E+02</rscale>
<asrwt>0</asrwt>
<pdfrwt beam="1">  1        1 0.80791399E-02 0.41667310E+02</pdfrwt>
<pdfrwt beam="2">  1       -1 0.12715666E-02 0.41667310E+02</pdfrwt>
<totfact> 0.74170200E+05</totfact>
</mgrwt>
</event>
<event>
 4    1  0.2051373E-002  0.5086117E+02  0.7818608E-02  0.1440751E+00
         -1   -1    0    0  501    0 -0.00000000000E+00  0.00000000000E+00  0.37120794386E+03  0.37120794389E+03  0.50400000000E-02 0.  1.
          1   -1    0    0    0  501  0.00000000000E+00 -0.00000000000E+00 -0.17421862433E+01  0.17421935334E+01  0.50400000000E-02 0.  1.
          2    1    1    2    0  502 -0.65848377401E+01 -0.19447503031E+02  0.29475997930E+03  0.29547421354E+03  0.25500000000E-02 0.  1.
         -2    1    1    2  502    0  0.65848377401E+01  0.19447503031E+02  0.74705778310E+02  0.77475923884E+02  0.25500000000E-02 0.  1.
<mgrwt>
<rscale>  0 0.50861173E+02</rscale>
<asrwt>0</asrwt>
<pdfrwt beam="2">  1        1 0.26802931E-03 0.50861173E+02</pdfrwt>
<pdfrwt beam="1">  1       -1 0.57108896E-01 0.50861173E+02</pdfrwt>
<totfact> 0.24549713E+05</totfact>
</mgrwt>
</event>
<event>
 4    1  0.2051373E-002  0.5252741E+02  0.7818608E-02  0.1432167E+00
          1   -1    0    0    0  501  0.00000000000E+00  0.00000000000E+00  0.15109921622E+04  0.15109921622E+04  0.50400000000E-02 0. -1.
         -1   -1    0    0  501    0 -0.00000000000E+00 -0.00000000000E+00 -0.45649554781E+00  0.45652336936E+00  0.50400000000E-02 0. -1.
          2    1    1    2    0  502  0.17193933848E+02  0.18443451906E+02  0.96669648336E+03  0.96702527538E+03  0.25500000000E-02 0. -1.
         -2    1    1    2  502    0 -0.17193933848E+02 -0.18443451906E+02  0.54383918327E+03  0.54442341018E+03  0.25500000000E-02 0. -1.
<mgrwt>
<rscale>  0 0.52527411E+02</rscale>
<asrwt>0</asrwt>
<pdfrwt beam="1">  1        1 0.23245855E+00 0.52527411E+02</pdfrwt>
<pdfrwt beam="2">  1       -1 0.70232764E-04 0.52527411E+02</pdfrwt>
<totfact> 0.45508167E+05</totfact>
</mgrwt>
</event>
<event>
 4    1  0.2051373E-002  0.5031797E+02  0.7818608E-02  0.1443634E+00
          1   -1    0    0    0  501  0.00000000000E+00  0.00000000000E+00  0.50886447172E+02  0.50886447421E+02  0.50400000000E-02 0.  1.
         -1   -1    0    0  501    0 -0.00000000000E+00 -0.00000000000E+00 -0.12438958256E+02  0.12438959277E+02  0.50400000000E-02 0.  1.
          2    1    1    2    0  502  0.18757102144E+02 -0.90944560203E+01  0.36951983293E+02  0.42426254689E+02  0.25500000000E-02 0. -1.
         -2    1    1    2  502    0 -0.18757102144E+02  0.90944560203E+01  0.14955056230E+01  0.20899152009E+02  0.25500000000E-02 0. -1.
<mgrwt>
<rscale>  0 0.50317966E+02</rscale>
<asrwt>0</asrwt>
<pdfrwt beam="1">  1        1 0.78286842E-02 0.50317966E+02</pdfrwt>
<pdfrwt beam="2">  1       -1 0.19136860E-02 0.50317966E+02</pdfrwt>
<totfact> 0.45957244E+05</totfact>
</mgrwt>
</event>
<event>
 4    1  0.2051373E-002  0.8666056E+02  0.7818608E-02  0.1311146E+00
          1   -1    0    0    0  501  0.00000000000E+00  0.00000000000E+00  0.71797821614E+02  0.71797821791E+02  0.50400000000E-02 0. -1.
         -1   -1    0    0  501    0 -0.00000000000E+00 -0.00000000000E+00 -0.26149999118E+02  0.26149999603E+02  0.50400000000E-02 0. -1.
          2    1    1    2    0  502  0.30300706022E+02 -0.93914202270E+00  0.57815927266E+02  0.65281668371E+02  0.25500000000E-02 0.  1.
         -2    1    1    2  502    0 -0.30300706022E+02  0.93914202270E+00 -0.12168104770E+02  0.32666153023E+02  0.25500000000E-02 0.  1.
<mgrwt>
<rscale>  0 0.86660556E+02</rscale>
<asrwt>0</asrwt>
<pdfrwt beam="1">  1        1 0.11045819E-01 0.86660556E+02</pdfrwt>
<pdfrwt beam="2">  1       -1 0.40230769E-02 0.86660556E+02</pdfrwt>
<totfact> 0.11386622E+05</totfact>
</mgrwt>
</event>
<event>
 4    1  0.2051373E-002  0.7620578E+02  0.7818608E-02  0.1340177E+00
         -1   -1    0    0  501    0 -0.00000000000E+00  0.00000000000E+00  0.57701926497E+02  0.57701926717E+02  0.50400000000E-02 0.  1.
          1   -1    0    0    0  501  0.00000000000E+00 -0.00000000000E+00 -0.25160864209E+02  0.25160864714E+02  0.50400000000E-02 0.  1.
          2    1    1    2    0  502 -0.30910778255E+02  0.14139688692E+02  0.34991478965E+02  0.48783302628E+02  0.25500000000E-02 0. -1.
         -2    1    1    2  502    0  0.30910778255E+02 -0.14139688692E+02 -0.24504166781E+01  0.34079488803E+02  0.25500000000E-02 0. -1.
<mgrwt>
<rscale>  0 0.76205784E+02</rscale>
<asrwt>0</asrwt>
<pdfrwt beam="2">  1        1 0.38709023E-02 0.76205784E+02</pdfrwt>
<pdfrwt beam="1">  1       -1 0.88772194E-02 0.76205784E+02</pdfrwt>
<totfact> 0.14040688E+05</totfact>
</mgrwt>
</event>
<event>
 4    1  0.2051373E-002  0.9254943E+02  0.7818608E-02  0.1296793E+00
         -1   -1    0    0  501    0 -0.00000000000E+00  0.00000000000E+00  0.37895121752E+01  0.37895155268E+01  0.50400000000E-02 0.  1.
          1   -1    0    0    0  501  0.00000000000E+00 -0.00000000000E+00 -0.56507232389E+03  0.56507232392E+03  0.50400000000E-02 0.  1.
          2    1    1    2    0  502  0.24954685896E+02  0.16151456269E+02 -0.49862764572E+03  0.49951289771E+03  0.25500000000E-02 0. -1.
         -2    1    1    2  502    0 -0.24954685896E+02 -0.16151456269E+02 -0.62655165996E+02  0.69348941738E+02  0.25500000000E-02 0. -1.
<mgrwt>
<rscale>  0 0.92549434E+02</rscale>
<asrwt>0</asrwt>
<pdfrwt beam="2">  1        1 0.86934137E-01 0.92549434E+02</pdfrwt>
<pdfrwt beam="1">  1       -1 0.58300258E-03 0.92549434E+02</pdfrwt>
<totfact> 0.13551325E+05</totfact>
</mgrwt>
</event>
<event>
 4    1  0.2051373E-002  0.9773511E+02  0.7818608E-02  0.1285132E+00
         -1   -1    0    0  501    0 -0.00000000000E+00  0.00000000000E+00  0.25047912227E+01  0.25047962933E+01  0.50400000000E-02 0.  1.
          1   -1    0    0    0  501  0.00000000000E+00 -0.00000000000E+00 -0.95338705479E+03  0.95338705480E+03  0.50400000000E-02 0.  1.
          2    1    1    2    0  502 -0.26429643896E+02 -0.71506009152E+01 -0.79559298062E+02  0.84138808433E+02  0.25500000000E-02 0.  1.
         -2    1    1    2  502    0  0.26429643896E+02  0.71506009152E+01 -0.87132296550E+03  0.87175304266E+03  0.25500000000E-02 0.  1.
<mgrwt>
<rscale>  0 0.97735111E+02</rscale>
<asrwt>0</asrwt>
<pdfrwt beam="2">  1        1 0.14667464E+00 0.97735111E+02</pdfrwt>
<pdfrwt beam="1">  1       -1 0.38535365E-03 0.97735111E+02</pdfrwt>
<totfact> 0.11445375E+05</totfact>
</mgrwt>
</event>
<event>
 4    1  0.2051373E-002  0.7132847E+02  0.7818608E-02  0.1355633E+00
          1   -1    0    0    0  501  0.00000000000E+00  0.00000000000E+00  0.99898539667E+03  0.99898539668E+03  0.50400000000E-02 0. -1.
         -1   -1    0    0  501    0 -0.00000000000E+00 -0.00000000000E+00 -0.12732244854E+01  0.12732344606E+01  0.50400000000E-02 0. -1.
          2    1    1    2    0  502  0.28376291186E+02  0.16532648405E+02  0.69387303007E+03  0.69464978531E+03  0.25500000000E-02 0. -1.
         -2    1    1    2  502    0 -0.28376291186E+02 -0.16532648405E+02  0.30383914212E+03  0.30560884584E+03  0.25500000000E-02 0. -1.
<mgrwt>
<rscale>  0 0.71328470E+02</rscale>
<asrwt>0</asrwt>
<pdfrwt beam="1">  1        1 0.15368938E+00 0.71328470E+02</pdfrwt>
<pdfrwt beam="2">  1       -1 0.19588232E-03 0.71328470E+02</pdfrwt>
<totfact> 0.25833478E+05</totfact>
</mgrwt>
</event>
<event>
 4    1  0.2051373E-002  0.4597931E+02  0.7818608E-02  0.1468319E+00
          1   -1    0    0    0  501  0.00000000000E+00  0.00000000000E+00  0.20880820404E+03  0.20880820410E+03  0.50400000000E-02 0. -1.
         -1   -1    0    0  501    0 -0.00000000000E+00 -0.00000000000E+00 -0.25311441168E+01  0.25311491346E+01  0.50400000000E-02 0. -1.
          2    1    1    2    0  502 -0.13212789661E+02 -0.18805216265E+02  0.10057846254E+03  0.10317093149E+03  0.25500000000E-02 0.  1.
         -2    1    1    2  502    0  0.13212789661E+02  0.18805216265E+02  0.10569859738E+03  0.10816842175E+03  0.25500000000E-02 0.  1.
<mgrwt>
<rscale>  0 0.45979308E+02</rscale>
<asrwt>0</asrwt>
<pdfrwt beam="1">  1        1 0.32124347E-01 0.45979308E+02</pdfrwt>
<pdfrwt beam="2">  1       -1 0.38940708E-03 0.45979308E+02</pdfrwt>
<totfact> 0.69771402E+05</totfact>
</mgrwt>
</event>
<event>
 4    1  0.2051373E-002  0.4644243E+02  0.7818608E-02  0.1465533E+00
         -1   -1    0    0  501    0 -0.00000000000E+00  0.00000000000E+00  0.67221396736E+03  0.67221396738E+03  0.50400000000E-02 0. -1.
          1   -1    0    0    0  501  0.00000000000E+00 -0.00000000000E+00 -0.80215442454E+00  0.80217025775E+00  0.50400000000E-02 0. -1.
          2    1    1    2    0  502  0.89522226648E+01  0.18762630143E+02  0.18577329219E+03  0.18693286142E+03  0.25500000000E-02 0. -1.
         -2    1    1    2  502    0 -0.89522226648E+01 -0.18762630143E+02  0.48563852074E+03  0.48608327622E+03  0.25500000000E-02 0. -1.
<mgrwt>
<rscale>  0 0.46442426E+02</rscale>
<asrwt>0</asrwt>
<pdfrwt beam="2">  1        1 0.12340985E-03 0.46442426E+02</pdfrwt>
<pdfrwt beam="1">  1       -1 0.10341732E+00 0.46442426E+02</pdfrwt>
<totfact> 0.21214213E+05</totfact>
</mgrwt>
</event>
<event>
 4    1  0.2051373E-002  0.5674323E+02  0.7818608E-02  0.1412030E+00
          1   -1    0    0    0  501  0.00000000000E+00  0.00000000000E+00  0.15814094262E+03  0.15814094270E+03  0.50400000000E-02 0.  1.
         -1   -1    0    0  501    0 -0.00000000000E+00 -0.00000000000E+00 -0.50900687676E+01  0.50900712628E+01  0.50400000000E-02 0.  1.
          2    1    1    2    0  502  0.18151391859E+02  0.17364040534E+02  0.11446744066E+03  0.11719120235E+03  0.25500000000E-02 0.  1.
         -2    1    1    2  502    0 -0.18151391859E+02 -0.17364040534E+02  0.38583433190E+02  0.46039811612E+02  0.25500000000E-02 0.  1.
<mgrwt>
<rscale>  0 0.56743228E+02</rscale>
<asrwt>0</asrwt>
<pdfrwt beam="1">  1        1 0.24329371E-01 0.56743228E+02</pdfrwt>
<pdfrwt beam="2">  1       -1 0.78308785E-03 0.56743228E+02</pdfrwt>
<totfact> 0.39237678E+05</totfact>
</mgrwt>
</event>
<event>
 4    1  0.2051373E-002  0.4767248E+02  0.7818608E-02  0.1458316E+00
          1   -1    0    0    0  501  0.00000000000E+00  0.00000000000E+00  0.59135371501E+02  0.59135371716E+02  0.50400000000E-02 0.  1.
         -1   -1    0    0  501    0 -0.00000000000E+00 -0.00000000000E+00 -0.96078911344E+01  0.96078924563E+01  0.50400000000E-02 0.  1.
          2    1    1    2    0  502 -0.85260696896E+01  0.21334373527E+02  0.33919744677E+02  0.40968261418E+02  0.25500000000E-02 0. -1.
         -2    1    1    2  502    0  0.85260696896E+01 -0.21334373527E+02  0.15607735690E+02  0.27775002755E+02  0.25500000000E-02 0. -1.
<mgrwt>
<rscale>  0 0.47672477E+02</rscale>
<asrwt>0</asrwt>
<pdfrwt beam="1">  1        1 0.90977496E-02 0.47672477E+02</pdfrwt>
<pdfrwt beam="2">  1       -1 0.14781372E-02 0.47672477E+02</pdfrwt>
<totfact> 0.53528496E+05</totfact>
</mgrwt>
</event>
<event>
 4    1  0.2051373E-002  0.5349243E+02  0.7818608E-02  0.1427366E+00
         -1   -1    0    0  501    0 -0.00000000000E+00  0.00000000000E+00  0.48597938318E+03  0.48597938321E+03  0.50400000000E-02 0.  1.
          1   -1    0    0    0  501  0.00000000000E+00 -0.00000000000E+00 -0.14719923604E+01  0.14720009887E+01  0.50400000000E-02 0.  1.
          2    1    1    2    0  502  0.11417964141E+02 -0.22503936413E+02  0.32302329942E+03  0.32400748299E+03  0.25500000000E-02 0.  1.
         -2    1    1    2  502    0 -0.11417964141E+02  0.22503936413E+02  0.16148409140E+03  0.16344390121E+03  0.25500000000E-02 0.  1.
<mgrwt>
<rscale>  0 0.53492431E+02</rscale>
<asrwt>0</asrwt>
<pdfrwt beam="2">  1        1 0.22646111E-03 0.53492431E+02</pdfrwt>
<pdfrwt beam="1">  1       -1 0.74766033E-01 0.53492431E+02</pdfrwt>
<totfact> 0.18765650E+05</totfact>
</mgrwt>
</event>
<event>
 4    1  0.2051373E-002  0.4737226E+02  0.7818608E-02  0.1460053E+00
          1   -1    0    0    0  501  0.00000000000E+00  0.00000000000E+00  0.21030300070E+01  0.21030360463E+01  0.50400000000E-02 0.  1.
         -1   -1    0    0  501    0 -0.00000000000E+00 -0.00000000000E+00 -0.26677319551E+03  0.26677319556E+03  0.50400000000E-02 0.  1.
          2    1    1    2    0  502 -0.14790770088E+02 -0.18500390111E+02 -0.13211285694E+03  0.13421936630E+03  0.25500000000E-02 0. -1.
         -2    1    1    2  502    0  0.14790770088E+02  0.18500390111E+02 -0.13255730856E+03  0.13465686531E+03  0.25500000000E-02 0. -1.
<mgrwt>
<rscale>  0 0.47372264E+02</rscale>
<asrwt>0</asrwt>
<pdfrwt beam="1">  1        1 0.32354376E-03 0.47372264E+02</pdfrwt>
<pdfrwt beam="2">  1       -1 0.41042004E-01 0.47372264E+02</pdfrwt>
<totfact> 0.33475682E+05</totfact>
</mgrwt>
</event>
<event>
 4    1  0.2051373E-002  0.8288610E+02  0.7818608E-02  0.1321055E+00
         -1   -1    0    0  501    0 -0.00000000000E+00  0.00000000000E+00  0.16133958840E+01  0.16134037561E+01  0.50400000000E-02 0.  1.
          1   -1    0    0    0  501  0.00000000000E+00 -0.00000000000E+00 -0.10645386750E+04  0.10645386750E+04  0.50400000000E-02 0.  1.
          2    1    1    2    0  502  0.35627415094E+01  0.29181725096E+02 -0.90719466010E+03  0.90767087512E+03  0.25500000000E-02 0. -1.
         -2    1    1    2  502    0 -0.35627415094E+01 -0.29181725096E+02 -0.15573061903E+03  0.15848120367E+03  0.25500000000E-02 0. -1.
<mgrwt>
<rscale>  0 0.82886103E+02</rscale>
<asrwt>0</asrwt>
<pdfrwt beam="2">  1        1 0.16377462E+00 0.82886103E+02</pdfrwt>
<pdfrwt beam="1">  1       -1 0.24821621E-03 0.82886103E+02</pdfrwt>
<totfact> 0.17158692E+05</totfact>
</mgrwt>
</event>
<event>
 4    1  0.2051373E-002  0.6004652E+02  0.7818608E-02  0.1397637E+00
         -1   -1    0    0  501    0 -0.00000000000E+00  0.00000000000E+00  0.27642885070E+02  0.27642885530E+02  0.50400000000E-02 0. -1.
          1   -1    0    0    0  501  0.00000000000E+00 -0.00000000000E+00 -0.32608612412E+02  0.32608612801E+02  0.50400000000E-02 0. -1.
          2    1    1    2    0  502  0.87945529184E+01  0.21854315231E+02  0.16193597031E+02  0.28586497626E+02  0.25500000000E-02 0.  1.
         -2    1    1    2  502    0 -0.87945529184E+01 -0.21854315231E+02 -0.21159324372E+02  0.31665000705E+02  0.25500000000E-02 0.  1.
<mgrwt>
<rscale>  0 0.60046520E+02</rscale>
<asrwt>0</asrwt>
<pdfrwt beam="2">  1        1 0.50167097E-02 0.60046520E+02</pdfrwt>
<pdfrwt beam="1">  1       -1 0.42527516E-02 0.60046520E+02</pdfrwt>
<totfact> 0.27732817E+05</totfact>
</mgrwt>
</event>
<event>
 4    1  0.2051373E-002  0.6932347E+02  0.7818608E-02  0.1362409E+00
          1   -1    0    0    0  501  0.00000000000E+00  0.00000000000E+00  0.56869671099E+02  0.56869671322E+02  0.50400000000E-02 0. -1.
         -1   -1    0    0  501    0 -0.00000000000E+00 -0.00000000000E+00 -0.21126125083E+02  0.21126125685E+02  0.50400000000E-02 0. -1.
          2    1    1    2    0  502  0.22801429819E+02  0.19202817018E+02 -0.20263490292E+01  0.29879080978E+02  0.25500000000E-02 0. -1.
         -2    1    1    2  502    0 -0.22801429819E+02 -0.19202817018E+02  0.37769895045E+02  0.48116716029E+02  0.25500000000E-02 0. -1.
<mgrwt>
<rscale>  0 0.69323468E+02</rscale>
<asrwt>0</asrwt>
<pdfrwt beam="1">  1        1 0.87491803E-02 0.69323468E+02</pdfrwt>
<pdfrwt beam="2">  1       -1 0.32501731E-02 0.69323468E+02</pdfrwt>
<totfact> 0.20154200E+05</totfact>
</mgrwt>
</event>
<event>
 4    1  0.2051373E-002  0.5544376E+02  0.7818608E-02  0.1418012E+00
          1   -1    0    0    0  501  0.00000000000E+00  0.00000000000E+00  0.92765781694E+01  0.92765795385E+01  0.50400000000E-02 0.  1.
         -1   -1    0    0  501    0 -0.00000000000E+00 -0.00000000000E+00 -0.82843323014E+02  0.82843323167E+02  0.50400000000E-02 0.  1.
          2    1    1    2    0  502 -0.74879185423E+01 -0.24199962262E+02 -0.18074278152E+02  0.31118911208E+02  0.25500000000E-02 0.  1.
         -2    1    1    2  502    0  0.74879185423E+01  0.24199962262E+02 -0.55492466693E+02  0.61000991498E+02  0.25500000000E-02 0.  1.
<mgrwt>
<rscale>  0 0.55443760E+02</rscale>
<asrwt>0</asrwt>
<pdfrwt beam="1">  1        1 0.14271660E-02 0.55443760E+02</pdfrwt>
<pdfrwt beam="2">  1       -1 0.12745126E-01 0.55443760E+02</pdfrwt>
<totfact> 0.29659463E+05</totfact>
</mgrwt>
</event>
<event>
 4    1  0.2051373E-002  0.4427025E+02  0.7818608E-02  0.1478949E+00
         -1   -1    0    0  501    0 -0.00000000000E+00  0.00000000000E+00  0.16772904156E+02  0.16772904913E+02  0.50400000000E-02 0. -1.
          1   -1    0    0    0  501  0.00000000000E+00 -0.00000000000E+00 -0.29211628049E+02  0.29211628484E+02  0.50400000000E-02 0. -1.
          2    1    1    2    0  502 -0.96254553325E+01  0.19914142819E+02 -0.71137403846E+01  0.23234194269E+02  0.25500000000E-02 0.  1.
         -2    1    1    2  502    0  0.96254553325E+01 -0.19914142819E+02 -0.53249835089E+01  0.22750339128E+02  0.25500000000E-02 0.  1.
<mgrwt>
<rscale>  0 0.44270255E+02</rscale>
<asrwt>0</asrwt>
<pdfrwt beam="2">  1        1 0.44940967E-02 0.44270255E+02</pdfrwt>
<pdfrwt beam="1">  1       -1 0.25804469E-02 0.44270255E+02</pdfrwt>
<totfact> 0.60600360E+05</totfact>
</mgrwt>
</event>
<event>
 4    1  0.2051373E-002  0.5368834E+02  0.7818608E-02  0.1426406E+00
          1   -1    0    0    0  501  0.00000000000E+00  0.00000000000E+00  0.56559414871E+02  0.56559415095E+02  0.50400000000E-02 0. -1.
         -1   -1    0    0  501    0 -0.00000000000E+00 -0.00000000000E+00 -0.12740753143E+02  0.12740754140E+02  0.50400000000E-02 0. -1.
          2    1    1    2    0  502  0.25444601970E+02 -0.51012027218E+01  0.30773520987E+02  0.40254933102E+02  0.25500000000E-02 0.  1.
         -2    1    1    2  502    0 -0.25444601970E+02  0.51012027218E+01  0.13045140741E+02  0.29045236134E+02  0.25500000000E-02 0.  1.
<mgrwt>
<rscale>  0 0.53688345E+02</rscale>
<asrwt>0</asrwt>
<pdfrwt beam="1">  1        1 0.87014484E-02 0.53688345E+02</pdfrwt>
<pdfrwt beam="2">  1       -1 0.19601160E-02 0.53688345E+02</pdfrwt>
<totfact> 0.39346624E+05</totfact>
</mgrwt>
</event>
<event>
 4    1  0.2051373E-002  0.1103181E+03  0.7818608E-02  0.1259982E+00
         -1   -1    0    0  501    0 -0.00000000000E+00  0.00000000000E+00  0.10054242089E+02  0.10054243352E+02  0.50400000000E-02 0. -1.
          1   -1    0    0    0  501  0.00000000000E+00 -0.00000000000E+00 -0.30261070888E+03  0.30261070893E+03  0.50400000000E-02 0. -1.
          2    1    1    2    0  502  0.96218385159E+01  0.25182225102E+02 -0.98881964790E+01  0.28714119760E+02  0.25500000000E-02 0.  1.
         -2    1    1    2  502    0 -0.96218385159E+01 -0.25182225102E+02 -0.28266827032E+03  0.28395083252E+03  0.25500000000E-02 0.  1.
<mgrwt>
<rscale>  0 0.11031811E+03</rscale>
<asrwt>0</asrwt>
<pdfrwt beam="2">  1        1 0.46555487E-01 0.11031811E+03</pdfrwt>
<pdfrwt beam="1">  1       -1 0.15468068E-02 0.11031811E+03</pdfrwt>
<totfact> 0.76842368E+04</totfact>
</mgrwt>
</event>
<event>
 4    1  0.2051373E-002  0.5346332E+02  0.7818608E-02  0.1427509E+00
         -1   -1    0    0  501    0 -0.00000000000E+00  0.00000000000E+00  0.13648815577E+04  0.13648815577E+04  0.50400000000E-02 0.  1.
          1   -1    0    0    0  501  0.00000000000E+00 -0.00000000000E+00 -0.52353638390E+00  0.52356064297E+00  0.50400000000E-02 0.  1.
          2    1    1    2    0  502  0.26033410754E+02 -0.55245555701E+01  0.61796187571E+03  0.61853467084E+03  0.25500000000E-02 0.  1.
         -2    1    1    2  502    0 -0.26033410754E+02  0.55245555701E+01  0.74639614556E+03  0.74687044747E+03  0.25500000000E-02 0.  1.
<mgrwt>
<rscale>  0 0.53463323E+02</rscale>
<asrwt>0</asrwt>
<pdfrwt beam="2">  1        1 0.80546382E-04 0.53463323E+02</pdfrwt>
<pdfrwt beam="1">  1       -1 0.20998059E+00 0.53463323E+02</pdfrwt>
<totfact> 0.64619157E+04</totfact>
</mgrwt>
</event>
<event>
 4    1  0.2051373E-002  0.5131595E+02  0.7818608E-02  0.1438370E+00
         -1   -1    0    0  501    0 -0.00000000000E+00  0.00000000000E+00  0.49423939406E+01  0.49423965103E+01  0.50400000000E-02 0. -1.
          1   -1    0    0    0  501  0.00000000000E+00 -0.00000000000E+00 -0.13320093794E+03  0.13320093804E+03  0.50400000000E-02 0. -1.
          2    1    1    2    0  502 -0.25609791489E+02  0.22145487548E+00 -0.68318124067E+02  0.72960787721E+02  0.25500000000E-02 0.  1.
         -2    1    1    2  502    0  0.25609791489E+02 -0.22145487548E+00 -0.59940419933E+02  0.65182546825E+02  0.25500000000E-02 0.  1.
<mgrwt>
<rscale>  0 0.51315950E+02</rscale>
<asrwt>0</asrwt>
<pdfrwt beam="2">  1        1 0.20492449E-01 0.51315950E+02</pdfrwt>
<pdfrwt beam="1">  1       -1 0.76036860E-03 0.51315950E+02</pdfrwt>
<totfact> 0.49272282E+05</totfact>
</mgrwt>
</event>
<event>
 4    1  0.2051373E-002  0.5681441E+02  0.7818608E-02  0.1411708E+00
          1   -1    0    0    0  501  0.00000000000E+00  0.00000000000E+00  0.38623829539E+02  0.38623829868E+02  0.50400000000E-02 0.  1.
         -1   -1    0    0  501    0 -0.00000000000E+00 -0.00000000000E+00 -0.20893043221E+02  0.20893043829E+02  0.50400000000E-02 0.  1.
          2    1    1    2    0  502 -0.22033562773E+02  0.64579548495E+01 -0.86570559148E+01  0.24538290342E+02  0.25500000000E-02 0.  1.
         -2    1    1    2  502    0  0.22033562773E+02 -0.64579548495E+01  0.26387842232E+02  0.34978583354E+02  0.25500000000E-02 0.  1.
<mgrwt>
<rscale>  0 0.56814413E+02</rscale>
<asrwt>0</asrwt>
<pdfrwt beam="1">  1        1 0.59421276E-02 0.56814413E+02</pdfrwt>
<pdfrwt beam="2">  1       -1 0.32143145E-02 0.56814413E+02</pdfrwt>
<totfact> 0.32653738E+05</totfact>
</mgrwt>
</event>
<event>
 4    1  0.2051373E-002  0.5133735E+02  0.7818608E-02  0.1438259E+00
         -1   -1    0    0  501    0 -0.00000000000E+00  0.00000000000E+00  0.17570226436E+01  0.17570298721E+01  0.50400000000E-02 0.  1.
          1   -1    0    0    0  501  0.00000000000E+00 -0.00000000000E+00 -0.37499777900E+03  0.37499777903E+03  0.50400000000E-02 0.  1.
          2    1    1    2    0  502 -0.13820649977E+02 -0.17899190358E+02 -0.97494056227E+02  0.10008237801E+03  0.25500000000E-02 0.  1.
         -2    1    1    2  502    0  0.13820649977E+02  0.17899190358E+02 -0.27574670013E+03  0.27667243090E+03  0.25500000000E-02 0.  1.
<mgrwt>
<rscale>  0 0.51337353E+02</rscale>
<asrwt>0</asrwt>
<pdfrwt beam="2">  1        1 0.57691903E-01 0.51337353E+02</pdfrwt>
<pdfrwt beam="1">  1       -1 0.27031203E-03 0.51337353E+02</pdfrwt>
<totfact> 0.58661066E+05</totfact>
</mgrwt>
</event>
<event>
 4    1  0.2051373E-002  0.7957698E+02  0.7818608E-02  0.1330256E+00
         -1   -1    0    0  501    0 -0.00000000000E+00  0.00000000000E+00  0.11050885778E+01  0.11051000707E+01  0.50400000000E-02 0.  1.
          1   -1    0    0    0  501  0.00000000000E+00 -0.00000000000E+00 -0.14325691772E+04  0.14325691772E+04  0.50400000000E-02 0.  1.
          2    1    1    2    0  502 -0.21749019171E+02  0.16392401328E+01 -0.11619138825E+03  0.11822074967E+03  0.25500000000E-02 0. -1.
         -2    1    1    2  502    0  0.21749019171E+02 -0.16392401328E+01 -0.13152727004E+04  0.13154535276E+04  0.25500000000E-02 0. -1.
<mgrwt>
<rscale>  0 0.79576984E+02</rscale>
<asrwt>0</asrwt>
<pdfrwt beam="2">  1        1 0.22039377E+00 0.79576984E+02</pdfrwt>
<pdfrwt beam="1">  1       -1 0.17001566E-03 0.79576984E+02</pdfrwt>
<totfact> 0.16381913E+05</totfact>
</mgrwt>
</event>
<event>
 4    1  0.2051373E-002  0.4313610E+02  0.7818608E-02  0.1486325E+00
          1   -1    0    0    0  501  0.00000000000E+00  0.00000000000E+00  0.30320171757E+01  0.30320213646E+01  0.50400000000E-02 0. -1.
         -1   -1    0    0  501    0 -0.00000000000E+00 -0.00000000000E+00 -0.15342273207E+03  0.15342273215E+03  0.50400000000E-02 0. -1.
          2    1    1    2    0  502 -0.13681528266E+02 -0.16055759029E+02 -0.91500369338E+02  0.93900421773E+02  0.25500000000E-02 0. -1.
         -2    1    1    2  502    0  0.13681528266E+02  0.16055759029E+02 -0.58890345555E+02  0.62554331743E+02  0.25500000000E-02 0. -1.
<mgrwt>
<rscale>  0 0.43136096E+02</rscale>
<asrwt>0</asrwt>
<pdfrwt beam="1">  1        1 0.46646463E-03 0.43136096E+02</pdfrwt>
<pdfrwt beam="2">  1       -1 0.23603491E-01 0.43136096E+02</pdfrwt>
<totfact> 0.49251385E+05</totfact>
</mgrwt>
</event>
<event>
 4    1  0.2051373E-002  0.8510568E+02  0.7818608E-02  0.1315156E+00
          1   -1    0    0    0  501  0.00000000000E+00  0.00000000000E+00  0.19207845857E+03  0.19207845863E+03  0.50400000000E-02 0.  1.
         -1   -1    0    0  501    0 -0.00000000000E+00 -0.00000000000E+00 -0.94271052135E+01  0.94271065607E+01  0.50400000000E-02 0.  1.
          2    1    1    2    0  502 -0.35598579129E+02  0.20161792164E+02  0.63613627739E+02  0.75633658776E+02  0.25500000000E-02 0. -1.
         -2    1    1    2  502    0  0.35598579129E+02 -0.20161792164E+02  0.11903772561E+03  0.12587190642E+03  0.25500000000E-02 0. -1.
<mgrwt>
<rscale>  0 0.85105675E+02</rscale>
<asrwt>0</asrwt>
<pdfrwt beam="1">  1        1 0.29550528E-01 0.85105675E+02</pdfrwt>
<pdfrwt beam="2">  1       -1 0.14503242E-02 0.85105675E+02</pdfrwt>
<totfact> 0.14123430E+05</totfact>
</mgrwt>
</event>
<event>
 4    1  0.2051373E-002  0.1258523E+03  0.7818608E-02  0.1233743E+00
          1   -1    0    0    0  501  0.00000000000E+00  0.00000000000E+00  0.98268760669E+03  0.98268760671E+03  0.50400000000E-02 0.  1.
         -1   -1    0    0  501    0 -0.00000000000E+00 -0.00000000000E+00 -0.40294612258E+01  0.40294643778E+01  0.50400000000E-02 0.  1.
          2    1    1    2    0  502 -0.49622302607E+02  0.34084992448E+02  0.34571209946E+03  0.35091454137E+03  0.25500000000E-02 0.  1.
         -2    1    1    2  502    0  0.49622302607E+02 -0.34084992448E+02  0.63294604601E+03  0.63580252971E+03  0.25500000000E-02 0.  1.
<mgrwt>
<rscale>  0 0.12585234E+03</rscale>
<asrwt>0</asrwt>
<pdfrwt beam="1">  1        1 0.15118295E+00 0.12585234E+03</pdfrwt>
<pdfrwt beam="2">  1       -1 0.61991639E-03 0.12585234E+03</pdfrwt>
<totfact> 0.57530855E+04</totfact>
</mgrwt>
</event>
<event>
 4    1  0.2051373E-002  0.8346558E+02  0.7818608E-02  0.1319495E+00
         -1   -1    0    0  501    0 -0.00000000000E+00  0.00000000000E+00  0.41393098191E+01  0.41393128874E+01  0.50400000000E-02 0. -1.
          1   -1    0    0    0  501  0.00000000000E+00 -0.00000000000E+00 -0.42075254023E+03  0.42075254026E+03  0.50400000000E-02 0. -1.
          2    1    1    2    0  502 -0.11527998034E+02 -0.21237005122E+02 -0.38151658086E+03  0.38228105708E+03  0.25500000000E-02 0. -1.
         -2    1    1    2  502    0  0.11527998034E+02  0.21237005122E+02 -0.35096649550E+02  0.42610796066E+02  0.25500000000E-02 0. -1.
<mgrwt>
<rscale>  0 0.83465580E+02</rscale>
<asrwt>0</asrwt>
<pdfrwt beam="2">  1        1 0.64731126E-01 0.83465580E+02</pdfrwt>
<pdfrwt beam="1">  1       -1 0.63681747E-03 0.83465580E+02</pdfrwt>
<totfact> 0.17173784E+05</totfact>
</mgrwt>
</event>
<event>
 4    1  0.2051373E-002  0.5667738E+02  0.7818608E-02  0.1412329E+00
         -1   -1    0    0  501    0 -0.00000000000E+00  0.00000000000E+00  0.39951654326E+00  0.39954833241E+00  0.50400000000E-02 0. -1.
          1   -1    0    0    0  501  0.00000000000E+00 -0.00000000000E+00 -0.20100529759E+04  0.20100529759E+04  0.50400000000E-02 0. -1.
          2    1    1    2    0  502 -0.21841014510E+01  0.28228048750E+02 -0.96155197588E+03  0.96196870810E+03  0.25500000000E-02 0.  1.
         -2    1    1    2  502    0  0.21841014510E+01 -0.28228048750E+02 -0.10481014835E+04  0.10484838161E+04  0.25500000000E-02 0.  1.
<mgrwt>
<rscale>  0 0.56677381E+02</rscale>
<asrwt>0</asrwt>
<pdfrwt beam="2">  1        1 0.30923082E+00 0.56677381E+02</pdfrwt>
<pdfrwt beam="1">  1       -1 0.61468139E-04 0.56677381E+02</pdfrwt>
<totfact> 0.27222254E+05</totfact>
</mgrwt>
</event>
<event>
 4    1  0.2051373E-002  0.5993441E+02  0.7818608E-02  0.1398107E+00
          1   -1    0    0    0  501  0.00000000000E+00  0.00000000000E+00  0.15353852540E+03  0.15353852548E+03  0.50400000000E-02 0.  1.
         -1   -1    0    0  501    0 -0.00000000000E+00 -0.00000000000E+00 -0.58489115493E+01  0.58489137207E+01  0.50400000000E-02 0.  1.
          2    1    1    2    0  502  0.26977082044E+02  0.72091359664E+01  0.10276945412E+03  0.10649551776E+03  0.25500000000E-02 0.  1.
         -2    1    1    2  502    0 -0.26977082044E+02 -0.72091359664E+01  0.44920159737E+02  0.52891921446E+02  0.25500000000E-02 0.  1.
<mgrwt>
<rscale>  0 0.59934412E+02</rscale>
<asrwt>0</asrwt>
<pdfrwt beam="1">  1        1 0.23621309E-01 0.59934412E+02</pdfrwt>
<pdfrwt beam="2">  1       -1 0.89983282E-03 0.59934412E+02</pdfrwt>
<totfact> 0.33949306E+05</totfact>
</mgrwt>
</event>
<event>
 4    1  0.2051373E-002  0.5307733E+02  0.7818608E-02  0.1429416E+00
         -1   -1    0    0  501    0 -0.00000000000E+00  0.00000000000E+00  0.26819193571E+01  0.26819240928E+01  0.50400000000E-02 0.  1.
          1   -1    0    0    0  501  0.00000000000E+00 -0.00000000000E+00 -0.26261045481E+03  0.26261045486E+03  0.50400000000E-02 0.  1.
          2    1    1    2    0  502 -0.17057600330E+02 -0.20245023514E+02 -0.12064290264E+03  0.12351328944E+03  0.25500000000E-02 0. -1.
         -2    1    1    2  502    0  0.17057600330E+02  0.20245023514E+02 -0.13928563282E+03  0.14177908951E+03  0.25500000000E-02 0. -1.
<mgrwt>
<rscale>  0 0.53077328E+02</rscale>
<asrwt>0</asrwt>
<pdfrwt beam="2">  1        1 0.40401588E-01 0.53077328E+02</pdfrwt>
<pdfrwt beam="1">  1       -1 0.41260355E-03 0.53077328E+02</pdfrwt>
<totfact> 0.50763586E+05</totfact>
</mgrwt>
</event>
<event>
 4    1  0.2051373E-002  0.5623243E+02  0.7818608E-02  0.1414359E+00
         -1   -1    0    0  501    0 -0.00000000000E+00  0.00000000000E+00  0.10249782048E+02  0.10249783287E+02  0.50400000000E-02 0. -1.
          1   -1    0    0    0  501  0.00000000000E+00 -0.00000000000E+00 -0.77125686120E+02  0.77125686284E+02  0.50400000000E-02 0. -1.
          2    1    1    2    0  502  0.47493633602E+01  0.27648578545E+02 -0.30522225519E+02  0.41456080435E+02  0.25500000000E-02 0.  1.
         -2    1    1    2  502    0 -0.47493633602E+01 -0.27648578545E+02 -0.36353678552E+02  0.45919389137E+02  0.25500000000E-02 0.  1.
<mgrwt>
<rscale>  0 0.56232430E+02</rscale>
<asrwt>0</asrwt>
<pdfrwt beam="2">  1        1 0.11865490E-01 0.56232430E+02</pdfrwt>
<pdfrwt beam="1">  1       -1 0.15768897E-02 0.56232430E+02</pdfrwt>
<totfact> 0.36197761E+05</totfact>
</mgrwt>
</event>
<event>
 4    1  0.2051373E-002  0.5438051E+02  0.7818608E-02  0.1423051E+00
         -1   -1    0    0  501    0 -0.00000000000E+00  0.00000000000E+00  0.30529822394E+01  0.30529863995E+01  0.50400000000E-02 0. -1.
          1   -1    0    0    0  501  0.00000000000E+00 -0.00000000000E+00 -0.24215973703E+03  0.24215973708E+03  0.50400000000E-02 0. -1.
          2    1    1    2    0  502 -0.23856411092E+02  0.12590302120E+02 -0.13495468312E+03  0.13762416416E+03  0.25500000000E-02 0. -1.
         -2    1    1    2  502    0  0.23856411092E+02 -0.12590302120E+02 -0.10415207167E+03  0.10758855932E+03  0.25500000000E-02 0. -1.
<mgrwt>
<rscale>  0 0.54380507E+02</rscale>
<asrwt>0</asrwt>
<pdfrwt beam="2">  1        1 0.37255329E-01 0.54380507E+02</pdfrwt>
<pdfrwt beam="1">  1       -1 0.46969009E-03 0.54380507E+02</pdfrwt>
<totfact> 0.47067190E+05</totfact>
</mgrwt>
</event>
<event>
 4    1  0.2051373E-002  0.4257649E+02  0.7818608E-02  0.1490064E+00
         -1   -1    0    0  501    0 -0.00000000000E+00  0.00000000000E+00  0.35279603185E+03  0.35279603189E+03  0.50400000000E-02 0. -1.
          1   -1    0    0    0  501  0.00000000000E+00 -0.00000000000E+00 -0.12845598139E+01  0.12845697011E+01  0.50400000000E-02 0. -1.
          2    1    1    2    0  502  0.76102247675E+01  0.19008150057E+02  0.22422228772E+03  0.22515519005E+03  0.25500000000E-02 0.  1.
         -2    1    1    2  502    0 -0.76102247675E+01 -0.19008150057E+02  0.12728918431E+03  0.12892541153E+03  0.25500000000E-02 0.  1.
<mgrwt>
<rscale>  0 0.42576489E+02</rscale>
<asrwt>0</asrwt>
<pdfrwt beam="2">  1        1 0.19762515E-03 0.42576489E+02</pdfrwt>
<pdfrwt beam="1">  1       -1 0.54276369E-01 0.42576489E+02</pdfrwt>
<totfact> 0.38897708E+05</totfact>
</mgrwt>
</event>
<event>
 4    1  0.2051373E-002  0.4054808E+02  0.7818608E-02  0.1504216E+00
          1   -1    0    0    0  501  0.00000000000E+00  0.00000000000E+00  0.54644999999E+02  0.54645000231E+02  0.50400000000E-02 0.  1.
         -1   -1    0    0  501    0 -0.00000000000E+00 -0.00000000000E+00 -0.75219459579E+01  0.75219476464E+01  0.50400000000E-02 0.  1.
          2    1    1    2    0  502  0.20116390586E+02 -0.82813417316E-01  0.27428256290E+02  0.34014486294E+02  0.25500000000E-02 0.  1.
         -2    1    1    2  502    0 -0.20116390586E+02  0.82813417316E-01  0.19694797751E+02  0.28152461584E+02  0.25500000000E-02 0.  1.
<mgrwt>
<rscale>  0 0.40548085E+02</rscale>
<asrwt>0</asrwt>
<pdfrwt beam="1">  1        1 0.84069235E-02 0.40548085E+02</pdfrwt>
<pdfrwt beam="2">  1       -1 0.11572226E-02 0.40548085E+02</pdfrwt>
<totfact> 0.79646055E+05</totfact>
</mgrwt>
</event>
<event>
 4    1  0.2051373E-002  0.4932663E+02  0.7818608E-02  0.1449008E+00
         -1   -1    0    0  501    0 -0.00000000000E+00  0.00000000000E+00  0.24423082178E+02  0.24423082698E+02  0.50400000000E-02 0.  1.
          1   -1    0    0    0  501  0.00000000000E+00 -0.00000000000E+00 -0.24905909433E+02  0.24905909943E+02  0.50400000000E-02 0.  1.
          2    1    1    2    0  502 -0.20616007927E+02 -0.12059465306E+02  0.59093773665E+01  0.24604292993E+02  0.25500000000E-02 0. -1.
         -2    1    1    2  502    0  0.20616007927E+02  0.12059465306E+02 -0.63922046218E+01  0.24724699649E+02  0.25500000000E-02 0. -1.
<mgrwt>
<rscale>  0 0.49326630E+02</rscale>
<asrwt>0</asrwt>
<pdfrwt beam="2">  1        1 0.38316784E-02 0.49326630E+02</pdfrwt>
<pdfrwt beam="1">  1       -1 0.37573973E-02 0.49326630E+02</pdfrwt>
<totfact> 0.45289841E+05</totfact>
</mgrwt>
</event>
<event>
 4    1  0.2051373E-002  0.5951598E+02  0.7818608E-02  0.1399874E+00
         -1   -1    0    0  501    0 -0.00000000000E+00  0.00000000000E+00  0.38376557427E+00  0.38379866804E+00  0.50400000000E-02 0. -1.
          1   -1    0    0    0  501  0.00000000000E+00 -0.00000000000E+00 -0.23073973529E+04  0.23073973529E+04  0.50400000000E-02 0. -1.
          2    1    1    2    0  502 -0.21397500002E+02 -0.20151268316E+02 -0.97324617501E+03  0.97368991152E+03  0.25500000000E-02 0.  1.
         -2    1    1    2  502    0  0.21397500002E+02  0.20151268316E+02 -0.13337674123E+04  0.13340912401E+04  0.25500000000E-02 0.  1.
<mgrwt>
<rscale>  0 0.59515976E+02</rscale>
<asrwt>0</asrwt>
<pdfrwt beam="2">  1        1 0.35497310E+00 0.59515976E+02</pdfrwt>
<pdfrwt beam="1">  1       -1 0.59045251E-04 0.59515976E+02</pdfrwt>
<totfact> 0.18949131E+05</totfact>
</mgrwt>
</event>
<event>
 4    1  0.2051373E-002  0.6860832E+02  0.7818608E-02  0.1364890E+00
          1   -1    0    0    0  501  0.00000000000E+00  0.00000000000E+00  0.21542718312E+02  0.21542718901E+02  0.50400000000E-02 0.  1.
         -1   -1    0    0  501    0 -0.00000000000E+00 -0.00000000000E+00 -0.54625209520E+02  0.54625209753E+02  0.50400000000E-02 0.  1.
          2    1    1    2    0  502  0.48029976443E+01 -0.24667783994E+02  0.93812085469E+01  0.26824903240E+02  0.25500000000E-02 0. -1.
         -2    1    1    2  502    0 -0.48029976443E+01  0.24667783994E+02 -0.42463699756E+02  0.49343025414E+02  0.25500000000E-02 0. -1.
<mgrwt>
<rscale>  0 0.68608324E+02</rscale>
<asrwt>0</asrwt>
<pdfrwt beam="1">  1        1 0.33142644E-02 0.68608324E+02</pdfrwt>
<pdfrwt beam="2">  1       -1 0.84038784E-02 0.68608324E+02</pdfrwt>
<totfact> 0.18420497E+05</totfact>
</mgrwt>
</event>
<event>
 4    1  0.2051373E-002  0.5892877E+02  0.7818608E-02  0.1402383E+00
         -1   -1    0    0  501    0 -0.00000000000E+00  0.00000000000E+00  0.91411848962E+01  0.91411862856E+01  0.50400000000E-02 0.  1.
          1   -1    0    0    0  501  0.00000000000E+00 -0.00000000000E+00 -0.94971254389E+02  0.94971254523E+02  0.50400000000E-02 0.  1.
          2    1    1    2    0  502  0.69736132600E+01  0.25735770669E+02 -0.65065657121E+02  0.70317145256E+02  0.25500000000E-02 0. -1.
         -2    1    1    2  502    0 -0.69736132600E+01 -0.25735770669E+02 -0.20764412372E+02  0.33795295553E+02  0.25500000000E-02 0. -1.
<mgrwt>
<rscale>  0 0.58928766E+02</rscale>
<asrwt>0</asrwt>
<pdfrwt beam="2">  1        1 0.14610962E-01 0.58928766E+02</pdfrwt>
<pdfrwt beam="1">  1       -1 0.14063363E-02 0.58928766E+02</pdfrwt>
<totfact> 0.32967292E+05</totfact>
</mgrwt>
</event>
<event>
 4    1  0.2051373E-002  0.7495886E+02  0.7818608E-02  0.1343998E+00
          1   -1    0    0    0  501  0.00000000000E+00  0.00000000000E+00  0.14682125026E+04  0.14682125026E+04  0.50400000000E-02 0. -1.
         -1   -1    0    0  501    0 -0.00000000000E+00 -0.00000000000E+00 -0.95674032035E+00  0.95675359534E+00  0.50400000000E-02 0. -1.
          2    1    1    2    0  502 -0.22606596246E+02  0.10974054230E+01  0.13191450683E+04  0.13193392186E+04  0.25500000000E-02 0.  1.
         -2    1    1    2  502    0  0.22606596246E+02 -0.10974054230E+01  0.14811069392E+03  0.14983003756E+03  0.25500000000E-02 0.  1.
<mgrwt>
<rscale>  0 0.74958865E+02</rscale>
<asrwt>0</asrwt>
<pdfrwt beam="1">  1        1 0.22587868E+00 0.74958865E+02</pdfrwt>
<pdfrwt beam="2">  1       -1 0.14719195E-03 0.74958865E+02</pdfrwt>
<totfact> 0.18790110E+05</totfact>
</mgrwt>
</event>
<event>
 4    1  0.2051373E-002  0.4205034E+02  0.7818608E-02  0.1493643E+00
          1   -1    0    0    0  501  0.00000000000E+00  0.00000000000E+00  0.14272273989E+04  0.14272273990E+04  0.50400000000E-02 0. -1.
         -1   -1    0    0  501    0 -0.00000000000E+00 -0.00000000000E+00 -0.30971139924E+00  0.30975240502E+00  0.50400000000E-02 0. -1.
          2    1    1    2    0  502  0.12742823600E+02  0.16034395338E+02  0.55215454625E+03  0.55253427436E+03  0.25500000000E-02 0. -1.
         -2    1    1    2  502    0 -0.12742823600E+02 -0.16034395338E+02  0.87476314130E+03  0.87500287700E+03  0.25500000000E-02 0. -1.
<mgrwt>
<rscale>  0 0.42050345E+02</rscale>
<asrwt>0</asrwt>
<pdfrwt beam="1">  1        1 0.21957316E+00 0.42050345E+02</pdfrwt>
<pdfrwt beam="2">  1       -1 0.47651125E-04 0.42050345E+02</pdfrwt>
<totfact> 0.82457393E+05</totfact>
</mgrwt>
</event>
<event>
 4    1  0.2051373E-002  0.4557019E+02  0.7818608E-02  0.1470813E+00
          1   -1    0    0    0  501  0.00000000000E+00  0.00000000000E+00  0.20695143513E+02  0.20695144127E+02  0.50400000000E-02 0.  1.
         -1   -1    0    0  501    0 -0.00000000000E+00 -0.00000000000E+00 -0.25086104371E+02  0.25086104877E+02  0.50400000000E-02 0.  1.
          2    1    1    2    0  502  0.91980765975E+00  0.22491595094E+02 -0.57392322258E+01  0.23230512028E+02  0.25500000000E-02 0.  1.
         -2    1    1    2  502    0 -0.91980765975E+00 -0.22491595094E+02  0.13482713680E+01  0.22550736977E+02  0.25500000000E-02 0.  1.
<mgrwt>
<rscale>  0 0.45570190E+02</rscale>
<asrwt>0</asrwt>
<pdfrwt beam="1">  1        1 0.31838683E-02 0.45570190E+02</pdfrwt>
<pdfrwt beam="2">  1       -1 0.38594008E-02 0.45570190E+02</pdfrwt>
<totfact> 0.54708006E+05</totfact>
</mgrwt>
</event>
<event>
 4    1  0.2051373E-002  0.4216589E+02  0.7818608E-02  0.1492852E+00
         -1   -1    0    0  501    0 -0.00000000000E+00  0.00000000000E+00  0.31023278834E+01  0.31023319774E+01  0.50400000000E-02 0.  1.
          1   -1    0    0    0  501  0.00000000000E+00 -0.00000000000E+00 -0.14327637642E+03  0.14327637651E+03  0.50400000000E-02 0.  1.
          2    1    1    2    0  502 -0.18928004507E+02 -0.90000365794E+01 -0.62155143542E+02  0.65593687869E+02  0.25500000000E-02 0. -1.
         -2    1    1    2  502    0  0.18928004507E+02  0.90000365794E+01 -0.78018904998E+02  0.80785020620E+02  0.25500000000E-02 0. -1.
<mgrwt>
<rscale>  0 0.42165892E+02</rscale>
<asrwt>0</asrwt>
<pdfrwt beam="2">  1        1 0.22042515E-01 0.42165892E+02</pdfrwt>
<pdfrwt beam="1">  1       -1 0.47728165E-03 0.42165892E+02</pdfrwt>
<totfact> 0.81270546E+05</totfact>
</mgrwt>
</event>
<event>
 4    1  0.2051373E-002  0.6135033E+02  0.7818608E-02  0.1392251E+00
          1   -1    0    0    0  501  0.00000000000E+00  0.00000000000E+00  0.75637521154E+03  0.75637521156E+03  0.50400000000E-02 0. -1.
         -1   -1    0    0  501    0 -0.00000000000E+00 -0.00000000000E+00 -0.12440410496E+01  0.12440512589E+01  0.50400000000E-02 0. -1.
          2    1    1    2    0  502  0.24669734440E+02 -0.55193324038E+00  0.60259839120E+03  0.60310340864E+03  0.25500000000E-02 0. -1.
         -2    1    1    2  502    0 -0.24669734440E+02  0.55193324038E+00  0.15253277929E+03  0.15451585418E+03  0.25500000000E-02 0. -1.
<mgrwt>
<rscale>  0 0.61350328E+02</rscale>
<asrwt>0</asrwt>
<pdfrwt beam="1">  1        1 0.11636561E+00 0.61350328E+02</pdfrwt>
<pdfrwt beam="2">  1       -1 0.19139141E-03 0.61350328E+02</pdfrwt>
<totfact> 0.39611273E+05</totfact>
</mgrwt>
</event>
<event>
 4    1  0.2051373E-002  0.7533929E+02  0.7818608E-02  0.1342824E+00
         -1   -1    0    0  501    0 -0.00000000000E+00  0.00000000000E+00  0.22344784620E+03  0.22344784626E+03  0.50400000000E-02 0. -1.
          1   -1    0    0    0  501  0.00000000000E+00 -0.00000000000E+00 -0.63504842565E+01  0.63504862565E+01  0.50400000000E-02 0. -1.
          2    1    1    2    0  502  0.24238049943E+02  0.25614915236E+02  0.68153056787E+02  0.76736211162E+02  0.25500000000E-02 0. -1.
         -2    1    1    2  502    0 -0.24238049943E+02 -0.25614915236E+02  0.14894430516E+03  0.15306212135E+03  0.25500000000E-02 0. -1.
<mgrwt>
<rscale>  0 0.75339293E+02</rscale>
<asrwt>0</asrwt>
<pdfrwt beam="2">  1        1 0.97699771E-03 0.75339293E+02</pdfrwt>
<pdfrwt beam="1">  1       -1 0.34376593E-01 0.75339293E+02</pdfrwt>
<totfact> 0.11012678E+05</totfact>
</mgrwt>
</event>
<event>
 4    1  0.2051373E-002  0.4550505E+02  0.7818608E-02  0.1471213E+00
         -1   -1    0    0  501    0 -0.00000000000E+00  0.00000000000E+00  0.15414712865E+01  0.15414795259E+01  0.50400000000E-02 0.  1.
          1   -1    0    0    0  501  0.00000000000E+00 -0.00000000000E+00 -0.33583235929E+03  0.33583235933E+03  0.50400000000E-02 0.  1.
          2    1    1    2    0  502  0.16771318724E+01 -0.21258612905E+02 -0.10832867348E+03  0.11040762156E+03  0.25500000000E-02 0. -1.
         -2    1    1    2  502    0 -0.16771318724E+01  0.21258612905E+02 -0.22596221453E+03  0.22696621730E+03  0.25500000000E-02 0. -1.
<mgrwt>
<rscale>  0 0.45505047E+02</rscale>
<asrwt>0</asrwt>
<pdfrwt beam="2">  1        1 0.51666459E-01 0.45505047E+02</pdfrwt>
<pdfrwt beam="1">  1       -1 0.23715033E-03 0.45505047E+02</pdfrwt>
<totfact> 0.77706829E+05</totfact>
</mgrwt>
</event>
<event>
 4    1  0.2051373E-002  0.4162293E+02  0.7818608E-02  0.1496597E+00
          1   -1    0    0    0  501  0.00000000000E+00  0.00000000000E+00  0.38202550038E+01  0.38202583284E+01  0.50400000000E-02 0.  1.
         -1   -1    0    0  501    0 -0.00000000000E+00 -0.00000000000E+00 -0.11337380559E+03  0.11337380570E+03  0.50400000000E-02 0.  1.
          2    1    1    2    0  502 -0.63491543327E+01 -0.19811587069E+02 -0.56335058971E+02  0.60053722771E+02  0.25500000000E-02 0.  1.
         -2    1    1    2  502    0  0.63491543327E+01  0.19811587069E+02 -0.53218491617E+02  0.57140341260E+02  0.25500000000E-02 0.  1.
<mgrwt>
<rscale>  0 0.41622929E+02</rscale>
<asrwt>0</asrwt>
<pdfrwt beam="1">  1        1 0.58773189E-03 0.41622929E+02</pdfrwt>
<pdfrwt beam="2">  1       -1 0.17442122E-01 0.41622929E+02</pdfrwt>
<totfact> 0.57094602E+05</totfact>
</mgrwt>
</event>
<event>
 4    1  0.2051373E-002  0.6329458E+02  0.7818608E-02  0.1384504E+00
          1   -1    0    0    0  501  0.00000000000E+00  0.00000000000E+00  0.13645742996E+03  0.13645743006E+03  0.50400000000E-02 0.  1.
         -1   -1    0    0  501    0 -0.00000000000E+00 -0.00000000000E+00 -0.73396580397E+01  0.73396597702E+01  0.50400000000E-02 0.  1.
          2    1    1    2    0  502 -0.38676063216E+01  0.24185208834E+02  0.11009095031E+03  0.11278253434E+03  0.25500000000E-02 0. -1.
         -2    1    1    2  502    0  0.38676063216E+01 -0.24185208834E+02  0.19026821616E+02  0.31014555491E+02  0.25500000000E-02 0. -1.
<mgrwt>
<rscale>  0 0.63294581E+02</rscale>
<asrwt>0</asrwt>
<pdfrwt beam="1">  1        1 0.20993449E-01 0.63294581E+02</pdfrwt>
<pdfrwt beam="2">  1       -1 0.11291784E-02 0.63294581E+02</pdfrwt>
<totfact> 0.28936165E+05</totfact>
</mgrwt>
</event>
<event>
 4    1  0.2051373E-002  0.4600080E+02  0.7818608E-02  0.1468189E+00
         -1   -1    0    0  501    0 -0.00000000000E+00  0.00000000000E+00  0.30833140825E+00  0.30837259754E+00  0.50400000000E-02 0.  1.
          1   -1    0    0    0  501  0.00000000000E+00 -0.00000000000E+00 -0.17156311717E+04  0.17156311718E+04  0.50400000000E-02 0.  1.
          2    1    1    2    0  502 -0.18350855345E+02 -0.87597134506E+01 -0.45671394702E+03  0.45716639846E+03  0.25500000000E-02 0.  1.
         -2    1    1    2  502    0  0.18350855345E+02  0.87597134506E+01 -0.12586088933E+04  0.12587731459E+04  0.25500000000E-02 0.  1.
<mgrwt>
<rscale>  0 0.46000797E+02</rscale>
<asrwt>0</asrwt>
<pdfrwt beam="2">  1        1 0.26393562E+00 0.46000797E+02</pdfrwt>
<pdfrwt beam="1">  1       -1 0.47440144E-04 0.46000797E+02</pdfrwt>
<totfact> 0.56239030E+05</totfact>
</mgrwt>
</event>
<event>
 4    1  0.2051373E-002  0.7328104E+02  0.7818608E-02  0.1349278E+00
         -1   -1    0    0  501    0 -0.00000000000E+00  0.00000000000E+00  0.11434153271E+02  0.11434154381E+02  0.50400000000E-02 0.  1.
          1   -1    0    0    0  501  0.00000000000E+00 -0.00000000000E+00 -0.11741383462E+03  0.11741383473E+03  0.50400000000E-02 0.  1.
          2    1    1    2    0  502  0.22165225972E+02 -0.19000189936E+02 -0.14059965444E+02  0.32403504360E+02  0.25500000000E-02 0. -1.
         -2    1    1    2  502    0 -0.22165225972E+02  0.19000189936E+02 -0.91919715905E+02  0.96444484749E+02  0.25500000000E-02 0. -1.
<mgrwt>
<rscale>  0 0.73281044E+02</rscale>
<asrwt>0</asrwt>
<pdfrwt beam="2">  1        1 0.18063666E-01 0.73281044E+02</pdfrwt>
<pdfrwt beam="1">  1       -1 0.17591007E-02 0.73281044E+02</pdfrwt>
<totfact> 0.19261610E+05</totfact>
</mgrwt>
</event>
<event>
 4    1  0.2051373E-002  0.7753940E+02  0.7818608E-02  0.1336183E+00
          1   -1    0    0    0  501  0.00000000000E+00  0.00000000000E+00  0.46805782664E+02  0.46805782935E+02  0.50400000000E-02 0. -1.
         -1   -1    0    0  501    0 -0.00000000000E+00 -0.00000000000E+00 -0.32113328219E+02  0.32113328615E+02  0.50400000000E-02 0. -1.
          2    1    1    2    0  502  0.35469254835E+02 -0.11716698637E+02 -0.32182763956E+01  0.37492750966E+02  0.25500000000E-02 0.  1.
         -2    1    1    2  502    0 -0.35469254835E+02  0.11716698637E+02  0.17910730841E+02  0.41426360584E+02  0.25500000000E-02 0.  1.
<mgrwt>
<rscale>  0 0.77539396E+02</rscale>
<asrwt>0</asrwt>
<pdfrwt beam="1">  1        1 0.72008897E-02 0.77539396E+02</pdfrwt>
<pdfrwt beam="2">  1       -1 0.49405121E-02 0.77539396E+02</pdfrwt>
<totfact> 0.14533284E+05</totfact>
</mgrwt>
</event>
<event>
 4    1  0.2051373E-002  0.4240822E+02  0.7818608E-02  0.1491202E+00
          1   -1    0    0    0  501  0.00000000000E+00  0.00000000000E+00  0.11865106494E+03  0.11865106505E+03  0.50400000000E-02 0. -1.
         -1   -1    0    0  501    0 -0.00000000000E+00 -0.00000000000E+00 -0.37893810327E+01  0.37893843844E+01  0.50400000000E-02 0. -1.
          2    1    1    2    0  502 -0.16562795827E+02  0.12317449017E+02  0.43414288473E+02  0.48071261748E+02  0.25500000000E-02 0.  1.
         -2    1    1    2  502    0  0.16562795827E+02 -0.12317449017E+02  0.71447395434E+02  0.74369187683E+02  0.25500000000E-02 0.  1.
<mgrwt>
<rscale>  0 0.42408221E+02</rscale>
<asrwt>0</asrwt>
<pdfrwt beam="1">  1        1 0.18254009E-01 0.42408221E+02</pdfrwt>
<pdfrwt beam="2">  1       -1 0.58298200E-03 0.42408221E+02</pdfrwt>
<totfact> 0.77959107E+05</totfact>
</mgrwt>
</event>
<event>
 4    1  0.2051373E-002  0.4088722E+02  0.7818608E-02  0.1501782E+00
          1   -1    0    0    0  501  0.00000000000E+00  0.00000000000E+00  0.24631314507E+03  0.24631314512E+03  0.50400000000E-02 0.  1.
         -1   -1    0    0  501    0 -0.00000000000E+00 -0.00000000000E+00 -0.16967845931E+01  0.16967920783E+01  0.50400000000E-02 0.  1.
          2    1    1    2    0  502  0.13262811045E+02 -0.15243338896E+02  0.14117997918E+03  0.14261854040E+03  0.25500000000E-02 0.  1.
         -2    1    1    2  502    0 -0.13262811045E+02  0.15243338896E+02  0.10343638130E+03  0.10539139680E+03  0.25500000000E-02 0.  1.
<mgrwt>
<rscale>  0 0.40887225E+02</rscale>
<asrwt>0</asrwt>
<pdfrwt beam="1">  1        1 0.37894302E-01 0.40887225E+02</pdfrwt>
<pdfrwt beam="2">  1       -1 0.26104456E-03 0.40887225E+02</pdfrwt>
<totfact> 0.95777179E+05</totfact>
</mgrwt>
</event>
<event>
 4    1  0.2051373E-002  0.2236200E+03  0.7818608E-02  0.1131213E+00
          1   -1    0    0    0  501  0.00000000000E+00  0.00000000000E+00  0.40097812449E+02  0.40097812765E+02  0.50400000000E-02 0. -1.
         -1   -1    0    0  501    0 -0.00000000000E+00 -0.00000000000E+00 -0.31177447223E+03  0.31177447228E+03  0.50400000000E-02 0. -1.
          2    1    1    2    0  502 -0.71390455926E+02 -0.85762189558E+02 -0.12474255740E+03  0.16736922055E+03  0.25500000000E-02 0.  1.
         -2    1    1    2  502    0  0.71390455926E+02  0.85762189558E+02 -0.14693410239E+03  0.18450306449E+03  0.25500000000E-02 0.  1.
<mgrwt>
<rscale>  0 0.22361998E+03</rscale>
<asrwt>0</asrwt>
<pdfrwt beam="1">  1        1 0.61688945E-02 0.22361998E+03</pdfrwt>
<pdfrwt beam="2">  1       -1 0.47965302E-01 0.22361998E+03</pdfrwt>
<totfact> 0.54282536E+03</totfact>
</mgrwt>
</event>
<event>
 4    1  0.2051373E-002  0.1038466E+03  0.7818608E-02  0.1272409E+00
          1   -1    0    0    0  501  0.00000000000E+00  0.00000000000E+00  0.64740948078E+03  0.64740948080E+03  0.50400000000E-02 0.  1.
         -1   -1    0    0  501    0 -0.00000000000E+00 -0.00000000000E+00 -0.41643327788E+01  0.41643358287E+01  0.50400000000E-02 0.  1.
          2    1    1    2    0  502 -0.46788638396E+02 -0.84056805282E+01  0.45266527218E+03  0.45515456802E+03  0.25500000000E-02 0. -1.
         -2    1    1    2  502    0  0.46788638396E+02  0.84056805282E+01  0.19057987583E+03  0.19641924861E+03  0.25500000000E-02 0. -1.
<mgrwt>
<rscale>  0 0.10384661E+03</rscale>
<asrwt>0</asrwt>
<pdfrwt beam="1">  1        1 0.99601361E-01 0.10384661E+03</pdfrwt>
<pdfrwt beam="2">  1       -1 0.64066744E-03 0.10384661E+03</pdfrwt>
<totfact> 0.10046926E+05</totfact>
</mgrwt>
</event>
<event>
 4    1  0.2051373E-002  0.8010903E+02  0.7818608E-02  0.1328742E+00
          1   -1    0    0    0  501  0.00000000000E+00  0.00000000000E+00  0.34623119148E+03  0.34623119152E+03  0.50400000000E-02 0. -1.
         -1   -1    0    0  501    0 -0.00000000000E+00 -0.00000000000E+00 -0.46337926991E+01  0.46337954400E+01  0.50400000000E-02 0. -1.
          2    1    1    2    0  502 -0.13377819703E+02  0.29856875100E+02  0.27200672884E+03  0.27396726007E+03  0.25500000000E-02 0. -1.
         -2    1    1    2  502    0  0.13377819703E+02 -0.29856875100E+02  0.69590669945E+02  0.76897726889E+02  0.25500000000E-02 0. -1.
<mgrwt>
<rscale>  0 0.80109027E+02</rscale>
<asrwt>0</asrwt>
<pdfrwt beam="1">  1        1 0.53266334E-01 0.80109027E+02</pdfrwt>
<pdfrwt beam="2">  1       -1 0.71289145E-03 0.80109027E+02</pdfrwt>
<totfact> 0.18519525E+05</totfact>
</mgrwt>
</event>
<event>
 4    1  0.2051373E-002  0.7097334E+02  0.7818608E-02  0.1356814E+00
          1   -1    0    0    0  501  0.00000000000E+00  0.00000000000E+00  0.47509133692E+01  0.47509160425E+01  0.50400000000E-02 0.  1.
         -1   -1    0    0  501    0 -0.00000000000E+00 -0.00000000000E+00 -0.26506553606E+03  0.26506553611E+03  0.50400000000E-02 0.  1.
          2    1    1    2    0  502 -0.51164077773E+01 -0.34622622878E+02 -0.15245465539E+03  0.15642034906E+03  0.25500000000E-02 0.  1.
         -2    1    1    2  502    0  0.51164077773E+01  0.34622622878E+02 -0.10785996730E+03  0.11339610309E+03  0.25500000000E-02 0.  1.
<mgrwt>
<rscale>  0 0.70973341E+02</rscale>
<asrwt>0</asrwt>
<pdfrwt beam="1">  1        1 0.73091017E-03 0.70973341E+02</pdfrwt>
<pdfrwt beam="2">  1       -1 0.40779302E-01 0.70973341E+02</pdfrwt>
<totfact> 0.12136425E+05</totfact>
</mgrwt>
</event>
<event>
 4    1  0.2051373E-002  0.1297249E+03  0.7818608E-02  0.1227864E+00
          1   -1    0    0    0  501  0.00000000000E+00  0.00000000000E+00  0.12161943511E+04  0.12161943511E+04  0.50400000000E-02 0.  1.
         -1   -1    0    0  501    0 -0.00000000000E+00 -0.00000000000E+00 -0.34592635368E+01  0.34592672083E+01  0.50400000000E-02 0.  1.
          2    1    1    2    0  502 -0.37584061197E+02 -0.50389836045E+02  0.45610212498E+03  0.46041377656E+03  0.25500000000E-02 0.  1.
         -2    1    1    2  502    0  0.37584061197E+02  0.50389836045E+02  0.75663296255E+03  0.75923984172E+03  0.25500000000E-02 0.  1.
<mgrwt>
<rscale>  0 0.12972492E+03</rscale>
<asrwt>0</asrwt>
<pdfrwt beam="1">  1        1 0.18710680E+00 0.12972492E+03</pdfrwt>
<pdfrwt beam="2">  1       -1 0.53219473E-03 0.12972492E+03</pdfrwt>
<totfact> 0.49020629E+04</totfact>
</mgrwt>
</event>
<event>
 4    1  0.2051373E-002  0.4220450E+02  0.7818608E-02  0.1492588E+00
          1   -1    0    0    0  501  0.00000000000E+00  0.00000000000E+00  0.55191262155E+00  0.55193563341E+00  0.50400000000E-02 0.  1.
         -1   -1    0    0  501    0 -0.00000000000E+00 -0.00000000000E+00 -0.80682259945E+03  0.80682259947E+03  0.50400000000E-02 0.  1.
          2    1    1    2    0  502 -0.59461778505E+01  0.20004452074E+02 -0.46292934866E+03  0.46339952200E+03  0.25500000000E-02 0. -1.
         -2    1    1    2  502    0  0.59461778505E+01 -0.20004452074E+02 -0.34334133816E+03  0.34397501309E+03  0.25500000000E-02 0. -1.
<mgrwt>
<rscale>  0 0.42204496E+02</rscale>
<asrwt>0</asrwt>
<pdfrwt beam="1">  1        1 0.84912051E-04 0.42204496E+02</pdfrwt>
<pdfrwt beam="2">  1       -1 0.12412561E+00 0.42204496E+02</pdfrwt>
<totfact> 0.22781139E+05</totfact>
</mgrwt>
</event>
<event>
 4    1  0.2051373E-002  0.1120162E+03  0.7818608E-02  0.1256881E+00
         -1   -1    0    0  501    0 -0.00000000000E+00  0.00000000000E+00  0.38228834728E+03  0.38228834731E+03  0.50400000000E-02 0. -1.
          1   -1    0    0    0  501  0.00000000000E+00 -0.00000000000E+00 -0.82056069503E+01  0.82056084981E+01  0.50400000000E-02 0. -1.
          2    1    1    2    0  502 -0.38011391369E+02 -0.15117995632E+02  0.32040213549E+03  0.32300301561E+03  0.25500000000E-02 0. -1.
         -2    1    1    2  502    0  0.38011391369E+02  0.15117995632E+02  0.53680604844E+02  0.67490940197E+02  0.25500000000E-02 0. -1.
<mgrwt>
<rscale>  0 0.11201622E+03</rscale>
<asrwt>0</asrwt>
<pdfrwt beam="2">  1        1 0.12624012E-02 0.11201622E+03</pdfrwt>
<pdfrwt beam="1">  1       -1 0.58813594E-01 0.11201622E+03</pdfrwt>
<totfact> 0.31659972E+04</totfact>
</mgrwt>
</event>
<event>
 4    1  0.2051373E-002  0.5934998E+02  0.7818608E-02  0.1400580E+00
          1   -1    0    0    0  501  0.00000000000E+00  0.00000000000E+00  0.80171828783E+03  0.80171828785E+03  0.50400000000E-02 0. -1.
         -1   -1    0    0  501    0 -0.00000000000E+00 -0.00000000000E+00 -0.10983912435E+01  0.10984028065E+01  0.50400000000E-02 0. -1.
          2    1    1    2    0  502  0.20806032447E+02  0.17922413900E+02  0.24817011165E+03  0.24968481778E+03  0.25500000000E-02 0.  1.
         -2    1    1    2  502    0 -0.20806032447E+02 -0.17922413900E+02  0.55244978494E+03  0.55313187287E+03  0.25500000000E-02 0.  1.
<mgrwt>
<rscale>  0 0.59349979E+02</rscale>
<asrwt>0</asrwt>
<pdfrwt beam="1">  1        1 0.12334140E+00 0.59349979E+02</pdfrwt>
<pdfrwt beam="2">  1       -1 0.16898399E-03 0.59349979E+02</pdfrwt>
<totfact> 0.42901822E+05</totfact>
</mgrwt>
</event>
<event>
 4    1  0.2051373E-002  0.5786775E+02  0.7818608E-02  0.1407004E+00
          1   -1    0    0    0  501  0.00000000000E+00  0.00000000000E+00  0.13725294664E+04  0.13725294664E+04  0.50400000000E-02 0. -1.
         -1   -1    0    0  501    0 -0.00000000000E+00 -0.00000000000E+00 -0.60993572315E+00  0.60995654598E+00  0.50400000000E-02 0. -1.
          2    1    1    2    0  502 -0.73816043724E+01  0.26406058790E+02  0.46667442552E+03  0.46747918400E+03  0.25500000000E-02 0.  1.
         -2    1    1    2  502    0  0.73816043724E+01 -0.26406058790E+02  0.90524510513E+03  0.90566023894E+03  0.25500000000E-02 0.  1.
<mgrwt>
<rscale>  0 0.57867748E+02</rscale>
<asrwt>0</asrwt>
<pdfrwt beam="1">  1        1 0.21115625E+00 0.57867748E+02</pdfrwt>
<pdfrwt beam="2">  1       -1 0.93838815E-04 0.57867748E+02</pdfrwt>
<totfact> 0.38273650E+05</totfact>
</mgrwt>
</event>
<event>
 4    1  0.2051373E-002  0.5222032E+02  0.7818608E-02  0.1433721E+00
         -1   -1    0    0  501    0 -0.00000000000E+00  0.00000000000E+00  0.20478995931E+02  0.20478996552E+02  0.50400000000E-02 0. -1.
          1   -1    0    0    0  501  0.00000000000E+00 -0.00000000000E+00 -0.33289735520E+02  0.33289735901E+02  0.50400000000E-02 0. -1.
          2    1    1    2    0  502 -0.20734191935E+02 -0.39042123012E+01  0.94322243337E+01  0.23110959549E+02  0.25500000000E-02 0. -1.
         -2    1    1    2  502    0  0.20734191935E+02  0.39042123012E+01 -0.22242963922E+02  0.30657772904E+02  0.25500000000E-02 0. -1.
<mgrwt>
<rscale>  0 0.52220317E+02</rscale>
<asrwt>0</asrwt>
<pdfrwt beam="2">  1        1 0.51214979E-02 0.52220317E+02</pdfrwt>
<pdfrwt beam="1">  1       -1 0.31506148E-02 0.52220317E+02</pdfrwt>
<totfact> 0.40106430E+05</totfact>
</mgrwt>
</event>
<event>
 4    1  0.2051373E-002  0.3544388E+03  0.7818608E-02  0.1060808E+00
         -1   -1    0    0  501    0 -0.00000000000E+00  0.00000000000E+00  0.70139791298E+02  0.70139791479E+02  0.50400000000E-02 0.  1.
          1   -1    0    0    0  501  0.00000000000E+00 -0.00000000000E+00 -0.44777305093E+03  0.44777305096E+03  0.50400000000E-02 0.  1.
          2    1    1    2    0  502  0.41859655800E+02 -0.12417538777E+03 -0.14478068911E+02  0.13183843217E+03  0.25500000000E-02 0. -1.
         -2    1    1    2  502    0 -0.41859655800E+02  0.12417538777E+03 -0.36315519072E+03  0.38607441027E+03  0.25500000000E-02 0. -1.
<mgrwt>
<rscale>  0 0.35443876E+03</rscale>
<asrwt>0</asrwt>
<pdfrwt beam="2">  1        1 0.68888160E-01 0.35443876E+03</pdfrwt>
<pdfrwt beam="1">  1       -1 0.10790737E-01 0.35443876E+03</pdfrwt>
<totfact> 0.28388851E+03</totfact>
</mgrwt>
</event>
<event>
 4    1  0.2051373E-002  0.4106552E+02  0.7818608E-02  0.1500514E+00
          1   -1    0    0    0  501  0.00000000000E+00  0.00000000000E+00  0.39655729251E+01  0.39655761279E+01  0.50400000000E-02 0.  1.
         -1   -1    0    0  501    0 -0.00000000000E+00 -0.00000000000E+00 -0.10631355298E+03  0.10631355310E+03  0.50400000000E-02 0.  1.
          2    1    1    2    0  502 -0.15544451597E+02 -0.13413398767E+02 -0.50603802509E+02  0.54610384331E+02  0.25500000000E-02 0.  1.
         -2    1    1    2  502    0  0.15544451597E+02  0.13413398767E+02 -0.51744177545E+02  0.55668744895E+02  0.25500000000E-02 0.  1.
<mgrwt>
<rscale>  0 0.41065525E+02</rscale>
<asrwt>0</asrwt>
<pdfrwt beam="1">  1        1 0.61008848E-03 0.41065525E+02</pdfrwt>
<pdfrwt beam="2">  1       -1 0.16355929E-01 0.41065525E+02</pdfrwt>
<totfact> 0.59661301E+05</totfact>
</mgrwt>
</event>
<event>
 4    1  0.2051373E-002  0.5119674E+02  0.7818608E-02  0.1438992E+00
          1   -1    0    0    0  501  0.00000000000E+00  0.00000000000E+00  0.34555702826E+03  0.34555702829E+03  0.50400000000E-02 0. -1.
         -1   -1    0    0  501    0 -0.00000000000E+00 -0.00000000000E+00 -0.18962873983E+01  0.18962940960E+01  0.50400000000E-02 0. -1.
          2    1    1    2    0  502 -0.16464564300E+02 -0.18445061370E+02  0.21683469774E+03  0.21823974963E+03  0.25500000000E-02 0.  1.
         -2    1    1    2  502    0  0.16464564300E+02  0.18445061370E+02  0.12682604312E+03  0.12921357276E+03  0.25500000000E-02 0.  1.
<mgrwt>
<rscale>  0 0.51196742E+02</rscale>
<asrwt>0</asrwt>
<pdfrwt beam="1">  1        1 0.53162598E-01 0.51196742E+02</pdfrwt>
<pdfrwt beam="2">  1       -1 0.29173716E-03 0.51196742E+02</pdfrwt>
<totfact> 0.58287820E+05</totfact>
</mgrwt>
</event>
<event>
 4    1  0.2051373E-002  0.7820409E+02  0.7818608E-02  0.1334227E+00
         -1   -1    0    0  501    0 -0.00000000000E+00  0.00000000000E+00  0.37458313922E+01  0.37458347828E+01  0.50400000000E-02 0. -1.
          1   -1    0    0    0  501  0.00000000000E+00 -0.00000000000E+00 -0.40817885170E+03  0.40817885173E+03  0.50400000000E-02 0. -1.
          2    1    1    2    0  502  0.14890428578E+01  0.35420727323E+02 -0.28910701669E+03  0.29127257385E+03  0.25500000000E-02 0.  1.
         -2    1    1    2  502    0 -0.14890428578E+01 -0.35420727323E+02 -0.11532600362E+03  0.12065211266E+03  0.25500000000E-02 0.  1.
<mgrwt>
<rscale>  0 0.78204088E+02</rscale>
<asrwt>0</asrwt>
<pdfrwt beam="2">  1        1 0.62796711E-01 0.78204088E+02</pdfrwt>
<pdfrwt beam="1">  1       -1 0.57628234E-03 0.78204088E+02</pdfrwt>
<totfact> 0.20275409E+05</totfact>
</mgrwt>
</event>
<event>
 4    1  0.2051373E-002  0.4972473E+02  0.7818608E-02  0.1446832E+00
          1   -1    0    0    0  501  0.00000000000E+00  0.00000000000E+00  0.12106284029E+04  0.12106284029E+04  0.50400000000E-02 0. -1.
         -1   -1    0    0  501    0 -0.00000000000E+00 -0.00000000000E+00 -0.51057962083E+00  0.51060449549E+00  0.50400000000E-02 0. -1.
          2    1    1    2    0  502  0.21599586709E+02  0.27239005310E+01  0.31259840467E+03  0.31335558777E+03  0.25500000000E-02 0.  1.
         -2    1    1    2  502    0 -0.21599586709E+02 -0.27239005310E+01  0.89751941860E+03  0.89778341962E+03  0.25500000000E-02 0.  1.
<mgrwt>
<rscale>  0 0.49724733E+02</rscale>
<asrwt>0</asrwt>
<pdfrwt beam="1">  1        1 0.18625193E+00 0.49724733E+02</pdfrwt>
<pdfrwt beam="2">  1       -1 0.78552035E-04 0.49724733E+02</pdfrwt>
<totfact> 0.60046001E+05</totfact>
</mgrwt>
</event>
<event>
 4    1  0.2051373E-002  0.5244989E+02  0.7818608E-02  0.1432558E+00
         -1   -1    0    0  501    0 -0.00000000000E+00  0.00000000000E+00  0.27505796859E+02  0.27505797321E+02  0.50400000000E-02 0. -1.
          1   -1    0    0    0  501  0.00000000000E+00 -0.00000000000E+00 -0.25003738340E+02  0.25003738848E+02  0.50400000000E-02 0. -1.
          2    1    1    2    0  502  0.14320808655E+02 -0.20618375701E+02 -0.63434253794E+01  0.25892895341E+02  0.25500000000E-02 0.  1.
         -2    1    1    2  502    0 -0.14320808655E+02  0.20618375701E+02  0.88454838982E+01  0.26616640828E+02  0.25500000000E-02 0.  1.
<mgrwt>
<rscale>  0 0.52449891E+02</rscale>
<asrwt>0</asrwt>
<pdfrwt beam="2">  1        1 0.38467291E-02 0.52449891E+02</pdfrwt>
<pdfrwt beam="1">  1       -1 0.42316611E-02 0.52449891E+02</pdfrwt>
<totfact> 0.38602521E+05</totfact>
</mgrwt>
</event>
<event>
 4    1  0.2051373E-002  0.4308462E+02  0.7818608E-02  0.1486666E+00
          1   -1    0    0    0  501  0.00000000000E+00  0.00000000000E+00  0.57663409748E+01  0.57663431773E+01  0.50400000000E-02 0.  1.
         -1   -1    0    0  501    0 -0.00000000000E+00 -0.00000000000E+00 -0.80479304137E+02  0.80479304295E+02  0.50400000000E-02 0.  1.
          2    1    1    2    0  502  0.17644354404E+02  0.11349191508E+02 -0.27561321368E+02  0.34637462844E+02  0.25500000000E-02 0.  1.
         -2    1    1    2  502    0 -0.17644354404E+02 -0.11349191508E+02 -0.47151641794E+02  0.51608184628E+02  0.25500000000E-02 0.  1.
<mgrwt>
<rscale>  0 0.43084624E+02</rscale>
<asrwt>0</asrwt>
<pdfrwt beam="1">  1        1 0.88712962E-03 0.43084624E+02</pdfrwt>
<pdfrwt beam="2">  1       -1 0.12381431E-01 0.43084624E+02</pdfrwt>
<totfact> 0.55455579E+05</totfact>
</mgrwt>
</event>
<event>
 4    1  0.2051373E-002  0.5192742E+02  0.7818608E-02  0.1435214E+00
          1   -1    0    0    0  501  0.00000000000E+00  0.00000000000E+00  0.10141886832E+04  0.10141886832E+04  0.50400000000E-02 0. -1.
         -1   -1    0    0  501    0 -0.00000000000E+00 -0.00000000000E+00 -0.66467367024E+00  0.66469277829E+00  0.50400000000E-02 0. -1.
          2    1    1    2    0  502  0.11913158808E+02 -0.21708945326E+02  0.35423036007E+03  0.35509484601E+03  0.25500000000E-02 0. -1.
         -2    1    1    2  502    0 -0.11913158808E+02  0.21708945326E+02  0.65929364947E+03  0.65975852999E+03  0.25500000000E-02 0. -1.
<mgrwt>
<rscale>  0 0.51927419E+02</rscale>
<asrwt>0</asrwt>
<pdfrwt beam="1">  1        1 0.15602858E+00 0.51927419E+02</pdfrwt>
<pdfrwt beam="2">  1       -1 0.10225926E-03 0.51927419E+02</pdfrwt>
<totfact> 0.57546165E+05</totfact>
</mgrwt>
</event>
<event>
 4    1  0.2051373E-002  0.7510732E+02  0.7818608E-02  0.1343539E+00
          1   -1    0    0    0  501  0.00000000000E+00  0.00000000000E+00  0.12948204150E+03  0.12948204160E+03  0.50400000000E-02 0. -1.
         -1   -1    0    0  501    0 -0.00000000000E+00 -0.00000000000E+00 -0.10891683436E+02  0.10891684603E+02  0.50400000000E-02 0. -1.
          2    1    1    2    0  502  0.32466500852E+02 -0.18383958405E+02  0.51314439309E+02  0.63444584421E+02  0.25500000000E-02 0. -1.
         -2    1    1    2  502    0 -0.32466500852E+02  0.18383958405E+02  0.67275918752E+02  0.76929141777E+02  0.25500000000E-02 0. -1.
<mgrwt>
<rscale>  0 0.75107323E+02</rscale>
<asrwt>0</asrwt>
<pdfrwt beam="1">  1        1 0.19920313E-01 0.75107323E+02</pdfrwt>
<pdfrwt beam="2">  1       -1 0.16756438E-02 0.75107323E+02</pdfrwt>
<totfact> 0.18339970E+05</totfact>
</mgrwt>
</event>
<event>
 4    1  0.2051373E-002  0.7723103E+02  0.7818608E-02  0.1337098E+00
         -1   -1    0    0  501    0 -0.00000000000E+00  0.00000000000E+00  0.68351386012E+01  0.68351404594E+01  0.50400000000E-02 0.  1.
          1   -1    0    0    0  501  0.00000000000E+00 -0.00000000000E+00 -0.21816058605E+03  0.21816058611E+03  0.50400000000E-02 0.  1.
          2    1    1    2    0  502 -0.28501523980E+01 -0.31515288433E+02 -0.41186252961E+02  0.51938850711E+02  0.25500000000E-02 0. -1.
         -2    1    1    2  502    0  0.28501523980E+01  0.31515288433E+02 -0.17013919449E+03  0.17305687586E+03  0.25500000000E-02 0. -1.
<mgrwt>
<rscale>  0 0.77231032E+02</rscale>
<asrwt>0</asrwt>
<pdfrwt beam="2">  1        1 0.33563162E-01 0.77231032E+02</pdfrwt>
<pdfrwt beam="1">  1       -1 0.10515601E-02 0.77231032E+02</pdfrwt>
<totfact> 0.18705326E+05</totfact>
</mgrwt>
</event>
<event>
 4    1  0.2051373E-002  0.7030320E+02  0.7818608E-02  0.1359065E+00
         -1   -1    0    0  501    0 -0.00000000000E+00  0.00000000000E+00  0.10970668476E+01  0.10970784245E+01  0.50400000000E-02 0. -1.
          1   -1    0    0    0  501  0.00000000000E+00 -0.00000000000E+00 -0.11263018477E+04  0.11263018477E+04  0.50400000000E-02 0. -1.
          2    1    1    2    0  502 -0.34877925618E+02  0.38168823695E+01 -0.59698379106E+03  0.59801395057E+03  0.25500000000E-02 0. -1.
         -2    1    1    2  502    0  0.34877925618E+02 -0.38168823695E+01 -0.52822098975E+03  0.52938497552E+03  0.25500000000E-02 0. -1.
<mgrwt>
<rscale>  0 0.70303199E+02</rscale>
<asrwt>0</asrwt>
<pdfrwt beam="2">  1        1 0.17327628E+00 0.70303199E+02</pdfrwt>
<pdfrwt beam="1">  1       -1 0.16878131E-03 0.70303199E+02</pdfrwt>
<totfact> 0.25790747E+05</totfact>
</mgrwt>
</event>
<event>
 4    1  0.2051373E-002  0.5101875E+02  0.7818608E-02  0.1439923E+00
          1   -1    0    0    0  501  0.00000000000E+00  0.00000000000E+00  0.76656626334E+02  0.76656626500E+02  0.50400000000E-02 0.  1.
         -1   -1    0    0  501    0 -0.00000000000E+00 -0.00000000000E+00 -0.84888712849E+01  0.84888727811E+01  0.50400000000E-02 0.  1.
          2    1    1    2    0  502 -0.11163883092E+02 -0.21984920567E+02  0.44996950151E+02  0.51309789976E+02  0.25500000000E-02 0. -1.
         -2    1    1    2  502    0  0.11163883092E+02  0.21984920567E+02  0.23170804898E+02  0.33835709305E+02  0.25500000000E-02 0. -1.
<mgrwt>
<rscale>  0 0.51018754E+02</rscale>
<asrwt>0</asrwt>
<pdfrwt beam="1">  1        1 0.11793327E-01 0.51018754E+02</pdfrwt>
<pdfrwt beam="2">  1       -1 0.13059803E-02 0.51018754E+02</pdfrwt>
<totfact> 0.46394222E+05</totfact>
</mgrwt>
</event>
<event>
 4    1  0.2051373E-002  0.4564085E+02  0.7818608E-02  0.1470380E+00
         -1   -1    0    0  501    0 -0.00000000000E+00  0.00000000000E+00  0.31453799114E+01  0.31453839494E+01  0.50400000000E-02 0.  1.
          1   -1    0    0    0  501  0.00000000000E+00 -0.00000000000E+00 -0.16556712239E+03  0.16556712247E+03  0.50400000000E-02 0.  1.
          2    1    1    2    0  502  0.70007861229E+01 -0.21374258139E+02 -0.95480566697E+02  0.98093876163E+02  0.25500000000E-02 0. -1.
         -2    1    1    2  502    0 -0.70007861229E+01  0.21374258139E+02 -0.66941175783E+02  0.70618630255E+02  0.25500000000E-02 0. -1.
<mgrwt>
<rscale>  0 0.45640852E+02</rscale>
<asrwt>0</asrwt>
<pdfrwt beam="2">  1        1 0.25471859E-01 0.45640852E+02</pdfrwt>
<pdfrwt beam="1">  1       -1 0.48390505E-03 0.45640852E+02</pdfrwt>
<totfact> 0.68354580E+05</totfact>
</mgrwt>
</event>
<event>
 4    1  0.2051373E-002  0.5583431E+02  0.7818608E-02  0.1416194E+00
          1   -1    0    0    0  501  0.00000000000E+00  0.00000000000E+00  0.15923492799E+01  0.15923572560E+01  0.50400000000E-02 0. -1.
         -1   -1    0    0  501    0 -0.00000000000E+00 -0.00000000000E+00 -0.48944380895E+03  0.48944380898E+03  0.50400000000E-02 0. -1.
          2    1    1    2    0  502  0.21043501073E+02 -0.16174030306E+02 -0.32005769725E+03  0.32115628247E+03  0.25500000000E-02 0.  1.
         -2    1    1    2  502    0 -0.21043501073E+02  0.16174030306E+02 -0.16779376242E+03  0.16987988376E+03  0.25500000000E-02 0.  1.
<mgrwt>
<rscale>  0 0.55834307E+02</rscale>
<asrwt>0</asrwt>
<pdfrwt beam="1">  1        1 0.24497782E-03 0.55834307E+02</pdfrwt>
<pdfrwt beam="2">  1       -1 0.75298928E-01 0.55834307E+02</pdfrwt>
<totfact> 0.16786545E+05</totfact>
</mgrwt>
</event>
<event>
 4    1  0.2051373E-002  0.7152105E+02  0.7818608E-02  0.1354996E+00
         -1   -1    0    0  501    0 -0.00000000000E+00  0.00000000000E+00  0.12903493789E+03  0.12903493799E+03  0.50400000000E-02 0. -1.
          1   -1    0    0    0  501  0.00000000000E+00 -0.00000000000E+00 -0.99106120611E+01  0.99106133426E+01  0.50400000000E-02 0. -1.
          2    1    1    2    0  502 -0.23201398463E+02  0.24460752479E+02  0.36397123418E+02  0.49612336188E+02  0.25500000000E-02 0.  1.
         -2    1    1    2  502    0  0.23201398463E+02 -0.24460752479E+02  0.82727202409E+02  0.89333215141E+02  0.25500000000E-02 0.  1.
<mgrwt>
<rscale>  0 0.71521054E+02</rscale>
<asrwt>0</asrwt>
<pdfrwt beam="2">  1        1 0.15247097E-02 0.71521054E+02</pdfrwt>
<pdfrwt beam="1">  1       -1 0.19851529E-01 0.71521054E+02</pdfrwt>
<totfact> 0.14440189E+05</totfact>
</mgrwt>
</event>
<event>
 4    1  0.2051373E-002  0.4635537E+02  0.7818608E-02  0.1466053E+00
         -1   -1    0    0  501    0 -0.00000000000E+00  0.00000000000E+00  0.55438248067E+03  0.55438248070E+03  0.50400000000E-02 0. -1.
          1   -1    0    0    0  501  0.00000000000E+00 -0.00000000000E+00 -0.96900858316E+00  0.96902169008E+00  0.50400000000E-02 0. -1.
          2    1    1    2    0  502 -0.15020285769E+02 -0.17524043952E+02  0.30213187157E+03  0.30301215969E+03  0.25500000000E-02 0. -1.
         -2    1    1    2  502    0  0.15020285769E+02  0.17524043952E+02  0.25128160053E+03  0.25233934269E+03  0.25500000000E-02 0. -1.
<mgrwt>
<rscale>  0 0.46355368E+02</rscale>
<asrwt>0</asrwt>
<pdfrwt beam="2">  1        1 0.14907912E-03 0.46355368E+02</pdfrwt>
<pdfrwt beam="1">  1       -1 0.85289692E-01 0.46355368E+02</pdfrwt>
<totfact> 0.24596693E+05</totfact>
</mgrwt>
</event>
<event>
 4    1  0.2051373E-002  0.4013723E+02  0.7818608E-02  0.1507204E+00
         -1   -1    0    0  501    0 -0.00000000000E+00  0.00000000000E+00  0.25551443570E+03  0.25551443575E+03  0.50400000000E-02 0. -1.
          1   -1    0    0    0  501  0.00000000000E+00 -0.00000000000E+00 -0.15762247781E+01  0.15762328358E+01  0.50400000000E-02 0. -1.
          2    1    1    2    0  502  0.38235087191E-01 -0.20012201029E+02  0.11734075902E+03  0.11903505108E+03  0.25500000000E-02 0.  1.
         -2    1    1    2  502    0 -0.38235087191E-01  0.20012201029E+02  0.13659745191E+03  0.13805561751E+03  0.25500000000E-02 0.  1.
<mgrwt>
<rscale>  0 0.40137226E+02</rscale>
<asrwt>0</asrwt>
<pdfrwt beam="2">  1        1 0.24249685E-03 0.40137226E+02</pdfrwt>
<pdfrwt beam="1">  1       -1 0.39309897E-01 0.40137226E+02</pdfrwt>
<totfact> 0.50918532E+05</totfact>
</mgrwt>
</event>
<event>
 4    1  0.2051373E-002  0.4887382E+02  0.7818608E-02  0.1451512E+00
          1   -1    0    0    0  501  0.00000000000E+00  0.00000000000E+00  0.18142042039E+04  0.18142042039E+04  0.50400000000E-02 0. -1.
         -1   -1    0    0  501    0 -0.00000000000E+00 -0.00000000000E+00 -0.32914027834E+00  0.32917886388E+00  0.50400000000E-02 0. -1.
          2    1    1    2    0  502  0.21398879723E+02  0.31548384226E+01  0.13291041676E+04  0.13292801636E+04  0.25500000000E-02 0. -1.
         -2    1    1    2  502    0 -0.21398879723E+02 -0.31548384226E+01  0.48477089601E+03  0.48525321914E+03  0.25500000000E-02 0. -1.
<mgrwt>
<rscale>  0 0.48873825E+02</rscale>
<asrwt>0</asrwt>
<pdfrwt beam="1">  1        1 0.27910869E+00 0.48873825E+02</pdfrwt>
<pdfrwt beam="2">  1       -1 0.50639871E-04 0.48873825E+02</pdfrwt>
<totfact> 0.45388147E+05</totfact>
</mgrwt>
</event>
<event>
 4    1  0.2051373E-002  0.5569478E+02  0.7818608E-02  0.1416842E+00
          1   -1    0    0    0  501  0.00000000000E+00  0.00000000000E+00  0.18386987664E+01  0.18387056739E+01  0.50400000000E-02 0.  1.
         -1   -1    0    0  501    0 -0.00000000000E+00 -0.00000000000E+00 -0.42175235922E+03  0.42175235925E+03  0.50400000000E-02 0.  1.
          2    1    1    2    0  502  0.27490760067E+02  0.26740421813E+01 -0.23693747317E+03  0.23854194304E+03  0.25500000000E-02 0.  1.
         -2    1    1    2  502    0 -0.27490760067E+02 -0.26740421813E+01 -0.18297618729E+03  0.18504912189E+03  0.25500000000E-02 0.  1.
<mgrwt>
<rscale>  0 0.55694776E+02</rscale>
<asrwt>0</asrwt>
<pdfrwt beam="1">  1        1 0.28287760E-03 0.55694776E+02</pdfrwt>
<pdfrwt beam="2">  1       -1 0.64884902E-01 0.55694776E+02</pdfrwt>
<totfact> 0.18369839E+05</totfact>
</mgrwt>
</event>
<event>
 4    1  0.2051373E-002  0.5082702E+02  0.7818608E-02  0.1440931E+00
          1   -1    0    0    0  501  0.00000000000E+00  0.00000000000E+00  0.56067083493E+02  0.56067083720E+02  0.50400000000E-02 0.  1.
         -1   -1    0    0  501    0 -0.00000000000E+00 -0.00000000000E+00 -0.11519173174E+02  0.11519174276E+02  0.50400000000E-02 0.  1.
          2    1    1    2    0  502  0.15897860432E+02 -0.15109738654E+02  0.52035915450E+01  0.22541595773E+02  0.25500000000E-02 0.  1.
         -2    1    1    2  502    0 -0.15897860432E+02  0.15109738654E+02  0.39344318774E+02  0.45044662223E+02  0.25500000000E-02 0.  1.
<mgrwt>
<rscale>  0 0.50827020E+02</rscale>
<asrwt>0</asrwt>
<pdfrwt beam="1">  1        1 0.86257051E-02 0.50827020E+02</pdfrwt>
<pdfrwt beam="2">  1       -1 0.17721806E-02 0.50827020E+02</pdfrwt>
<totfact> 0.45237322E+05</totfact>
</mgrwt>
</event>
<event>
 4    1  0.2051373E-002  0.6510567E+02  0.7818608E-02  0.1377574E+00
          1   -1    0    0    0  501  0.00000000000E+00  0.00000000000E+00  0.59998894483E+02  0.59998894695E+02  0.50400000000E-02 0. -1.
         -1   -1    0    0  501    0 -0.00000000000E+00 -0.00000000000E+00 -0.17661777812E+02  0.17661778531E+02  0.50400000000E-02 0. -1.
          2    1    1    2    0  502  0.14556714923E+02 -0.27933288232E+02  0.30970239358E+02  0.44173773591E+02  0.25500000000E-02 0.  1.
         -2    1    1    2  502    0 -0.14556714923E+02  0.27933288232E+02  0.11366877313E+02  0.33486899635E+02  0.25500000000E-02 0.  1.
<mgrwt>
<rscale>  0 0.65105673E+02</rscale>
<asrwt>0</asrwt>
<pdfrwt beam="1">  1        1 0.92305992E-02 0.65105673E+02</pdfrwt>
<pdfrwt beam="2">  1       -1 0.27171967E-02 0.65105673E+02</pdfrwt>
<totfact> 0.23965541E+05</totfact>
</mgrwt>
</event>
<event>
 4    1  0.2051373E-002  0.5337475E+02  0.7818608E-02  0.1427945E+00
          1   -1    0    0    0  501  0.00000000000E+00  0.00000000000E+00  0.20615885808E+02  0.20615886424E+02  0.50400000000E-02 0. -1.
         -1   -1    0    0  501    0 -0.00000000000E+00 -0.00000000000E+00 -0.34546951441E+02  0.34546951808E+02  0.50400000000E-02 0. -1.
          2    1    1    2    0  502 -0.21076775247E+02 -0.12768039213E+02 -0.17553883764E+02  0.30255447805E+02  0.25500000000E-02 0. -1.
         -2    1    1    2  502    0  0.21076775247E+02  0.12768039213E+02  0.36228181313E+01  0.24907390427E+02  0.25500000000E-02 0. -1.
<mgrwt>
<rscale>  0 0.53374752E+02</rscale>
<asrwt>0</asrwt>
<pdfrwt beam="1">  1        1 0.31716748E-02 0.53374752E+02</pdfrwt>
<pdfrwt beam="2">  1       -1 0.53149157E-02 0.53374752E+02</pdfrwt>
<totfact> 0.36180440E+05</totfact>
</mgrwt>
</event>
<event>
 4    1  0.2051373E-002  0.4581210E+02  0.7818608E-02  0.1469335E+00
         -1   -1    0    0  501    0 -0.00000000000E+00  0.00000000000E+00  0.97463871028E+00  0.97465174149E+00  0.50400000000E-02 0.  1.
          1   -1    0    0    0  501  0.00000000000E+00 -0.00000000000E+00 -0.53833644529E+03  0.53833644532E+03  0.50400000000E-02 0.  1.
          2    1    1    2    0  502  0.90742905224E+01 -0.18314591263E+02 -0.14695338641E+03  0.14836800459E+03  0.25500000000E-02 0.  1.
         -2    1    1    2  502    0 -0.90742905224E+01  0.18314591263E+02 -0.39040842017E+03  0.39094309247E+03  0.25500000000E-02 0.  1.
<mgrwt>
<rscale>  0 0.45812097E+02</rscale>
<asrwt>0</asrwt>
<pdfrwt beam="2">  1        1 0.82820755E-01 0.45812097E+02</pdfrwt>
<pdfrwt beam="1">  1       -1 0.14994585E-03 0.45812097E+02</pdfrwt>
<totfact> 0.81458736E+05</totfact>
</mgrwt>
</event>
<event>
 4    1  0.2051373E-002  0.9319051E+02  0.7818608E-02  0.1295304E+00
          1   -1    0    0    0  501  0.00000000000E+00  0.00000000000E+00  0.79222194311E+02  0.79222194471E+02  0.50400000000E-02 0. -1.
         -1   -1    0    0  501    0 -0.00000000000E+00 -0.00000000000E+00 -0.27405421682E+02  0.27405422145E+02  0.50400000000E-02 0. -1.
          2    1    1    2    0  502 -0.82402832249E+01  0.32698861588E+02  0.62700798575E+02  0.71193454511E+02  0.25500000000E-02 0. -1.
         -2    1    1    2  502    0  0.82402832249E+01 -0.32698861588E+02 -0.10884025946E+02  0.35434162105E+02  0.25500000000E-02 0. -1.
<mgrwt>
<rscale>  0 0.93190508E+02</rscale>
<asrwt>0</asrwt>
<pdfrwt beam="1">  1        1 0.12188030E-01 0.93190508E+02</pdfrwt>
<pdfrwt beam="2">  1       -1 0.42162188E-02 0.93190508E+02</pdfrwt>
<totfact> 0.94719376E+04</totfact>
</mgrwt>
</event>
<event>
 4    1  0.2051373E-002  0.4509148E+02  0.7818608E-02  0.1473771E+00
         -1   -1    0    0  501    0 -0.00000000000E+00  0.00000000000E+00  0.42924008165E+03  0.42924008168E+03  0.50400000000E-02 0.  1.
          1   -1    0    0    0  501  0.00000000000E+00 -0.00000000000E+00 -0.11842045928E+01  0.11842153179E+01  0.50400000000E-02 0.  1.
          2    1    1    2    0  502 -0.59153226436E+01  0.20547930933E+02  0.28226506244E+03  0.28307379601E+03  0.25500000000E-02 0.  1.
         -2    1    1    2  502    0  0.59153226436E+01 -0.20547930933E+02  0.14579081462E+03  0.14735050099E+03  0.25500000000E-02 0.  1.
<mgrwt>
<rscale>  0 0.45091480E+02</rscale>
<asrwt>0</asrwt>
<pdfrwt beam="2">  1        1 0.18218608E-03 0.45091480E+02</pdfrwt>
<pdfrwt beam="1">  1       -1 0.66036960E-01 0.45091480E+02</pdfrwt>
<totfact> 0.30711290E+05</totfact>
</mgrwt>
</event>
<event>
 4    1  0.2051373E-002  0.1034506E+03  0.7818608E-02  0.1273203E+00
          1   -1    0    0    0  501  0.00000000000E+00  0.00000000000E+00  0.71979762475E+03  0.71979762477E+03  0.50400000000E-02 0.  1.
         -1   -1    0    0  501    0 -0.00000000000E+00 -0.00000000000E+00 -0.37170210067E+01  0.37170244236E+01  0.50400000000E-02 0.  1.
          2    1    1    2    0  502  0.25773966651E+02 -0.41471388793E+02  0.23866688280E+03  0.24361045625E+03  0.25500000000E-02 0.  1.
         -2    1    1    2  502    0 -0.25773966651E+02  0.41471388793E+02  0.47741372095E+03  0.47990419294E+03  0.25500000000E-02 0.  1.
<mgrwt>
<rscale>  0 0.10345055E+03</rscale>
<asrwt>0</asrwt>
<pdfrwt beam="1">  1        1 0.11073809E+00 0.10345055E+03</pdfrwt>
<pdfrwt beam="2">  1       -1 0.57184969E-03 0.10345055E+03</pdfrwt>
<totfact> 0.10155044E+05</totfact>
</mgrwt>
</event>
<event>
 4    1  0.2051373E-002  0.1140547E+03  0.7818608E-02  0.1253240E+00
         -1   -1    0    0  501    0 -0.00000000000E+00  0.00000000000E+00  0.31916365689E+01  0.31916405483E+01  0.50400000000E-02 0. -1.
          1   -1    0    0    0  501  0.00000000000E+00 -0.00000000000E+00 -0.10189488858E+04  0.10189488859E+04  0.50400000000E-02 0. -1.
          2    1    1    2    0  502  0.23036846881E+02 -0.22814849738E+02 -0.92831278888E+03  0.92887881217E+03  0.25500000000E-02 0. -1.
         -2    1    1    2  502    0 -0.23036846881E+02  0.22814849738E+02 -0.87444460392E+02  0.93261714238E+02  0.25500000000E-02 0. -1.
<mgrwt>
<rscale>  0 0.11405466E+03</rscale>
<asrwt>0</asrwt>
<pdfrwt beam="2">  1        1 0.15676111E+00 0.11405466E+03</pdfrwt>
<pdfrwt beam="1">  1       -1 0.49102213E-03 0.11405466E+03</pdfrwt>
<totfact> 0.74404596E+04</totfact>
</mgrwt>
</event>
<event>
 4    1  0.2051373E-002  0.7192674E+02  0.7818608E-02  0.1353661E+00
         -1   -1    0    0  501    0 -0.00000000000E+00  0.00000000000E+00  0.33505767308E+01  0.33505805214E+01  0.50400000000E-02 0.  1.
          1   -1    0    0    0  501  0.00000000000E+00 -0.00000000000E+00 -0.38601215824E+03  0.38601215827E+03  0.50400000000E-02 0.  1.
          2    1    1    2    0  502  0.17431132040E+02 -0.31448658836E+02 -0.19516465569E+03  0.19844925130E+03  0.25500000000E-02 0.  1.
         -2    1    1    2  502    0 -0.17431132040E+02  0.31448658836E+02 -0.18749692582E+03  0.19091348749E+03  0.25500000000E-02 0.  1.
<mgrwt>
<rscale>  0 0.71926743E+02</rscale>
<asrwt>0</asrwt>
<pdfrwt beam="2">  1        1 0.59386451E-01 0.71926743E+02</pdfrwt>
<pdfrwt beam="1">  1       -1 0.51547394E-03 0.71926743E+02</pdfrwt>
<totfact> 0.24983937E+05</totfact>
</mgrwt>
</event>
<event>
 4    1  0.2051373E-002  0.5276041E+02  0.7818608E-02  0.1430997E+00
          1   -1    0    0    0  501  0.00000000000E+00  0.00000000000E+00  0.24057724807E+01  0.24057777600E+01  0.50400000000E-02 0. -1.
         -1   -1    0    0  501    0 -0.00000000000E+00 -0.00000000000E+00 -0.28926861109E+03  0.28926861113E+03  0.50400000000E-02 0. -1.
          2    1    1    2    0  502 -0.22415558805E+02 -0.34605771333E+01 -0.21790587540E+03  0.21908309705E+03  0.25500000000E-02 0.  1.
         -2    1    1    2  502    0  0.22415558805E+02  0.34605771333E+01 -0.68956963205E+02  0.72591291844E+02  0.25500000000E-02 0.  1.
<mgrwt>
<rscale>  0 0.52760411E+02</rscale>
<asrwt>0</asrwt>
<pdfrwt beam="1">  1        1 0.37011948E-03 0.52760411E+02</pdfrwt>
<pdfrwt beam="2">  1       -1 0.44502836E-01 0.52760411E+02</pdfrwt>
<totfact> 0.24887886E+05</totfact>
</mgrwt>
</event>
<event>
 4    1  0.2051373E-002  0.4321075E+02  0.7818608E-02  0.1485831E+00
          1   -1    0    0    0  501  0.00000000000E+00  0.00000000000E+00  0.24459044642E+03  0.24459044647E+03  0.50400000000E-02 0.  1.
         -1   -1    0    0  501    0 -0.00000000000E+00 -0.00000000000E+00 -0.19084609053E+01  0.19084675603E+01  0.50400000000E-02 0.  1.
          2    1    1    2    0  502 -0.66851004719E+01 -0.20523525041E+02  0.11596997166E+03  0.11796160385E+03  0.25500000000E-02 0.  1.
         -2    1    1    2  502    0  0.66851004719E+01  0.20523525041E+02  0.12671201385E+03  0.12853731019E+03  0.25500000000E-02 0.  1.
<mgrwt>
<rscale>  0 0.43210745E+02</rscale>
<asrwt>0</asrwt>
<pdfrwt beam="1">  1        1 0.37629309E-01 0.43210745E+02</pdfrwt>
<pdfrwt beam="2">  1       -1 0.29360982E-03 0.43210745E+02</pdfrwt>
<totfact> 0.83570505E+05</totfact>
</mgrwt>
</event>
<event>
 4    1  0.2051373E-002  0.4583175E+02  0.7818608E-02  0.1469215E+00
         -1   -1    0    0  501    0 -0.00000000000E+00  0.00000000000E+00  0.67292652803E+00  0.67294540174E+00  0.50400000000E-02 0.  1.
          1   -1    0    0    0  501  0.00000000000E+00 -0.00000000000E+00 -0.78036757938E+03  0.78036757940E+03  0.50400000000E-02 0.  1.
          2    1    1    2    0  502 -0.14008061424E+01  0.22497344362E+02 -0.46020333544E+03  0.46075503548E+03  0.25500000000E-02 0. -1.
         -2    1    1    2  502    0  0.14008061424E+01 -0.22497344362E+02 -0.31949131741E+03  0.32028548932E+03  0.25500000000E-02 0. -1.
<mgrwt>
<rscale>  0 0.45831754E+02</rscale>
<asrwt>0</asrwt>
<pdfrwt beam="2">  1        1 0.12005583E+00 0.45831754E+02</pdfrwt>
<pdfrwt beam="1">  1       -1 0.10352924E-03 0.45831754E+02</pdfrwt>
<totfact> 0.81873944E+05</totfact>
</mgrwt>
</event>
<event>
 4    1  0.2051373E-002  0.4618990E+02  0.7818608E-02  0.1467047E+00
          1   -1    0    0    0  501  0.00000000000E+00  0.00000000000E+00  0.51988359386E+00  0.51990802337E+00  0.50400000000E-02 0. -1.
         -1   -1    0    0  501    0 -0.00000000000E+00 -0.00000000000E+00 -0.10259300621E+04  0.10259300622E+04  0.50400000000E-02 0. -1.
          2    1    1    2    0  502 -0.20166133370E+02  0.39906328430E+01 -0.27881123905E+03  0.27956806883E+03  0.25500000000E-02 0.  1.
         -2    1    1    2  502    0  0.20166133370E+02 -0.39906328430E+01 -0.74659893950E+03  0.74688190134E+03  0.25500000000E-02 0.  1.
<mgrwt>
<rscale>  0 0.46189902E+02</rscale>
<asrwt>0</asrwt>
<pdfrwt beam="1">  1        1 0.79984793E-04 0.46189902E+02</pdfrwt>
<pdfrwt beam="2">  1       -1 0.15783378E+00 0.46189902E+02</pdfrwt>
<totfact> 0.14046668E+05</totfact>
</mgrwt>
</event>
<event>
 4    1  0.2051373E-002  0.1494263E+03  0.7818608E-02  0.1201180E+00
         -1   -1    0    0  501    0 -0.00000000000E+00  0.00000000000E+00  0.56995476039E+03  0.56995476041E+03  0.50400000000E-02 0.  1.
          1   -1    0    0    0  501  0.00000000000E+00 -0.00000000000E+00 -0.97938535326E+01  0.97938548294E+01  0.50400000000E-02 0.  1.
          2    1    1    2    0  502  0.54161160921E+02  0.16241192622E+02  0.46955151836E+03  0.47294379802E+03  0.25500000000E-02 0. -1.
         -2    1    1    2  502    0 -0.54161160921E+02 -0.16241192622E+02  0.90609388495E+02  0.10680481721E+03  0.25500000000E-02 0. -1.
<mgrwt>
<rscale>  0 0.14942629E+03</rscale>
<asrwt>0</asrwt>
<pdfrwt beam="2">  1        1 0.15067464E-02 0.14942629E+03</pdfrwt>
<pdfrwt beam="1">  1       -1 0.87685371E-01 0.14942629E+03</pdfrwt>
<totfact> 0.11538219E+04</totfact>
</mgrwt>
</event>
<event>
 4    1  0.2051373E-002  0.6560308E+02  0.7818608E-02  0.1375717E+00
          1   -1    0    0    0  501  0.00000000000E+00  0.00000000000E+00  0.12172465509E+01  0.12172569849E+01  0.50400000000E-02 0. -1.
         -1   -1    0    0  501    0 -0.00000000000E+00 -0.00000000000E+00 -0.88390991766E+03  0.88390991767E+03  0.50400000000E-02 0. -1.
          2    1    1    2    0  502  0.32183368930E+01 -0.32143936176E+02 -0.36460619776E+03  0.36603451992E+03  0.25500000000E-02 0. -1.
         -2    1    1    2  502    0 -0.32183368930E+01  0.32143936176E+02 -0.51808647335E+03  0.51909265473E+03  0.25500000000E-02 0. -1.
<mgrwt>
<rscale>  0 0.65603077E+02</rscale>
<asrwt>0</asrwt>
<pdfrwt beam="1">  1        1 0.18727021E-03 0.65603077E+02</pdfrwt>
<pdfrwt beam="2">  1       -1 0.13598563E+00 0.65603077E+02</pdfrwt>
<totfact> 0.69235641E+04</totfact>
</mgrwt>
</event>
<event>
 4    1  0.2051373E-002  0.5319895E+02  0.7818608E-02  0.1428813E+00
         -1   -1    0    0  501    0 -0.00000000000E+00  0.00000000000E+00  0.49232377236E+01  0.49232403034E+01  0.50400000000E-02 0.  1.
          1   -1    0    0    0  501  0.00000000000E+00 -0.00000000000E+00 -0.14371270894E+03  0.14371270903E+03  0.50400000000E-02 0.  1.
          2    1    1    2    0  502 -0.24543506274E+02 -0.95886310894E+01 -0.79548200651E+02  0.83798817293E+02  0.25500000000E-02 0. -1.
         -2    1    1    2  502    0  0.24543506274E+02  0.95886310894E+01 -0.59241270568E+02  0.64837132042E+02  0.25500000000E-02 0. -1.
<mgrwt>
<rscale>  0 0.53198948E+02</rscale>
<asrwt>0</asrwt>
<pdfrwt beam="2">  1        1 0.22109645E-01 0.53198948E+02</pdfrwt>
<pdfrwt beam="1">  1       -1 0.75742150E-03 0.53198948E+02</pdfrwt>
<totfact> 0.45515518E+05</totfact>
</mgrwt>
</event>
<event>
 4    1  0.2051373E-002  0.1449565E+03  0.7818608E-02  0.1206811E+00
          1   -1    0    0    0  501  0.00000000000E+00  0.00000000000E+00  0.30004395098E+03  0.30004395102E+03  0.50400000000E-02 0.  1.
         -1   -1    0    0  501    0 -0.00000000000E+00 -0.00000000000E+00 -0.17507752709E+02  0.17507753434E+02  0.50400000000E-02 0.  1.
          2    1    1    2    0  502  0.53404943998E+02  0.43251909898E+02  0.90821802256E+02  0.11389212231E+03  0.25500000000E-02 0.  1.
         -2    1    1    2  502    0 -0.53404943998E+02 -0.43251909898E+02  0.19171439602E+03  0.20365958214E+03  0.25500000000E-02 0.  1.
<mgrwt>
<rscale>  0 0.14495648E+03</rscale>
<asrwt>0</asrwt>
<pdfrwt beam="1">  1        1 0.46160607E-01 0.14495648E+03</pdfrwt>
<pdfrwt beam="2">  1       -1 0.26935005E-02 0.14495648E+03</pdfrwt>
<totfact> 0.36098684E+04</totfact>
</mgrwt>
</event>
<event>
 4    1  0.2051373E-002  0.1208787E+03  0.7818608E-02  0.1241654E+00
          1   -1    0    0    0  501  0.00000000000E+00  0.00000000000E+00  0.62494894519E+02  0.62494894723E+02  0.50400000000E-02 0.  1.
         -1   -1    0    0  501    0 -0.00000000000E+00 -0.00000000000E+00 -0.58451399803E+02  0.58451400020E+02  0.50400000000E-02 0.  1.
          2    1    1    2    0  502 -0.58859193766E+02  0.11340091731E+02 -0.57228476389E+01  0.60214228907E+02  0.25500000000E-02 0.  1.
         -2    1    1    2  502    0  0.58859193766E+02 -0.11340091731E+02  0.97663423553E+01  0.60732065836E+02  0.25500000000E-02 0.  1.
<mgrwt>
<rscale>  0 0.12087868E+03</rscale>
<asrwt>0</asrwt>
<pdfrwt beam="1">  1        1 0.96145992E-02 0.12087868E+03</pdfrwt>
<pdfrwt beam="2">  1       -1 0.89925231E-02 0.12087868E+03</pdfrwt>
<totfact> 0.43619812E+04</totfact>
</mgrwt>
</event>
<event>
 4    1  0.2051373E-002  0.7859798E+02  0.7818608E-02  0.1333078E+00
          1   -1    0    0    0  501  0.00000000000E+00  0.00000000000E+00  0.71954693994E+02  0.71954694170E+02  0.50400000000E-02 0.  1.
         -1   -1    0    0  501    0 -0.00000000000E+00 -0.00000000000E+00 -0.21463653202E+02  0.21463653793E+02  0.50400000000E-02 0.  1.
          2    1    1    2    0  502  0.15564589326E+02  0.33844872812E+02  0.10368160346E+02  0.38668211906E+02  0.25500000000E-02 0.  1.
         -2    1    1    2  502    0 -0.15564589326E+02 -0.33844872812E+02  0.40122880446E+02  0.54750136058E+02  0.25500000000E-02 0.  1.
<mgrwt>
<rscale>  0 0.78597980E+02</rscale>
<asrwt>0</asrwt>
<pdfrwt beam="1">  1        1 0.11069953E-01 0.78597980E+02</pdfrwt>
<pdfrwt beam="2">  1       -1 0.33021006E-02 0.78597980E+02</pdfrwt>
<totfact> 0.14849494E+05</totfact>
</mgrwt>
</event>
<event>
 4    1  0.2051373E-002  0.4633763E+02  0.7818608E-02  0.1466160E+00
         -1   -1    0    0  501    0 -0.00000000000E+00  0.00000000000E+00  0.67250849146E+01  0.67250868032E+01  0.50400000000E-02 0. -1.
          1   -1    0    0    0  501  0.00000000000E+00 -0.00000000000E+00 -0.79819657709E+02  0.79819657868E+02  0.50400000000E-02 0. -1.
          2    1    1    2    0  502  0.18774325955E+02 -0.10934106357E+02 -0.21516770411E+02  0.30577792797E+02  0.25500000000E-02 0.  1.
         -2    1    1    2  502    0 -0.18774325955E+02  0.10934106357E+02 -0.51577802383E+02  0.55966951874E+02  0.25500000000E-02 0.  1.
<mgrwt>
<rscale>  0 0.46337633E+02</rscale>
<asrwt>0</asrwt>
<pdfrwt beam="2">  1        1 0.12279947E-01 0.46337633E+02</pdfrwt>
<pdfrwt beam="1">  1       -1 0.10346287E-02 0.46337633E+02</pdfrwt>
<totfact> 0.59430496E+05</totfact>
</mgrwt>
</event>
<event>
 4    1  0.2051373E-002  0.5126454E+02  0.7818608E-02  0.1438638E+00
         -1   -1    0    0  501    0 -0.00000000000E+00  0.00000000000E+00  0.10159767758E+01  0.10159892768E+01  0.50400000000E-02 0.  1.
          1   -1    0    0    0  501  0.00000000000E+00 -0.00000000000E+00 -0.64667735482E+03  0.64667735484E+03  0.50400000000E-02 0.  1.
          2    1    1    2    0  502  0.19442259433E+02  0.16278590783E+02 -0.27552484341E+03  0.27668923599E+03  0.25500000000E-02 0.  1.
         -2    1    1    2  502    0 -0.19442259433E+02 -0.16278590783E+02 -0.37013653464E+03  0.37100410813E+03  0.25500000000E-02 0.  1.
<mgrwt>
<rscale>  0 0.51264539E+02</rscale>
<asrwt>0</asrwt>
<pdfrwt beam="2">  1        1 0.99488496E-01 0.51264539E+02</pdfrwt>
<pdfrwt beam="1">  1       -1 0.15630560E-03 0.51264539E+02</pdfrwt>
<totfact> 0.62339354E+05</totfact>
</mgrwt>
</event>
<event>
 4    1  0.2051373E-002  0.5123613E+02  0.7818608E-02  0.1438786E+00
          1   -1    0    0    0  501  0.00000000000E+00  0.00000000000E+00  0.46744383404E+03  0.46744383407E+03  0.50400000000E-02 0. -1.
         -1   -1    0    0  501    0 -0.00000000000E+00 -0.00000000000E+00 -0.14039827089E+01  0.14039917552E+01  0.50400000000E-02 0. -1.
          2    1    1    2    0  502  0.16081023391E+02 -0.14623856814E+02  0.35708862901E+03  0.35774955692E+03  0.25500000000E-02 0. -1.
         -2    1    1    2  502    0 -0.16081023391E+02  0.14623856814E+02  0.10895122233E+03  0.11109826891E+03  0.25500000000E-02 0. -1.
<mgrwt>
<rscale>  0 0.51236127E+02</rscale>
<asrwt>0</asrwt>
<pdfrwt beam="1">  1        1 0.71914377E-01 0.51236127E+02</pdfrwt>
<pdfrwt beam="2">  1       -1 0.21599822E-03 0.51236127E+02</pdfrwt>
<totfact> 0.60843695E+05</totfact>
</mgrwt>
</event>
<event>
 4    1  0.2051373E-002  0.4410179E+02  0.7818608E-02  0.1480028E+00
          1   -1    0    0    0  501  0.00000000000E+00  0.00000000000E+00  0.38975550968E+01  0.38975583554E+01  0.50400000000E-02 0.  1.
         -1   -1    0    0  501    0 -0.00000000000E+00 -0.00000000000E+00 -0.12475556818E+03  0.12475556829E+03  0.50400000000E-02 0.  1.
          2    1    1    2    0  502 -0.16441009995E+02 -0.14351431948E+02 -0.69640805168E+02  0.72980217591E+02  0.25500000000E-02 0. -1.
         -2    1    1    2  502    0  0.16441009995E+02  0.14351431948E+02 -0.51217207918E+02  0.55672909050E+02  0.25500000000E-02 0. -1.
<mgrwt>
<rscale>  0 0.44101788E+02</rscale>
<asrwt>0</asrwt>
<pdfrwt beam="1">  1        1 0.59962421E-03 0.44101788E+02</pdfrwt>
<pdfrwt beam="2">  1       -1 0.19193162E-01 0.44101788E+02</pdfrwt>
<totfact> 0.48714726E+05</totfact>
</mgrwt>
</event>
<event>
 4    1  0.2051373E-002  0.5762367E+02  0.7818608E-02  0.1408084E+00
          1   -1    0    0    0  501  0.00000000000E+00  0.00000000000E+00  0.19697699676E+03  0.19697699682E+03  0.50400000000E-02 0.  1.
         -1   -1    0    0  501    0 -0.00000000000E+00 -0.00000000000E+00 -0.42143069420E+01  0.42143099557E+01  0.50400000000E-02 0.  1.
          2    1    1    2    0  502  0.11226442532E+02  0.24858639420E+02  0.12878565810E+03  0.13164243504E+03  0.25500000000E-02 0. -1.
         -2    1    1    2  502    0 -0.11226442532E+02 -0.24858639420E+02  0.63977031723E+02  0.69548871740E+02  0.25500000000E-02 0. -1.
<mgrwt>
<rscale>  0 0.57623670E+02</rscale>
<asrwt>0</asrwt>
<pdfrwt beam="1">  1        1 0.30304155E-01 0.57623670E+02</pdfrwt>
<pdfrwt beam="2">  1       -1 0.64835511E-03 0.57623670E+02</pdfrwt>
<totfact> 0.39173330E+05</totfact>
</mgrwt>
</event>
<event>
 4    1  0.2051373E-002  0.5864712E+02  0.7818608E-02  0.1403598E+00
         -1   -1    0    0  501    0 -0.00000000000E+00  0.00000000000E+00  0.30707318054E+01  0.30707359415E+01  0.50400000000E-02 0.  1.
          1   -1    0    0    0  501  0.00000000000E+00 -0.00000000000E+00 -0.28002136359E+03  0.28002136363E+03  0.50400000000E-02 0.  1.
          2    1    1    2    0  502  0.86197159928E+01  0.21343745186E+02 -0.50785600318E+02  0.55758695900E+02  0.25500000000E-02 0.  1.
         -2    1    1    2  502    0 -0.86197159928E+01 -0.21343745186E+02 -0.22616503146E+03  0.22733340367E+03  0.25500000000E-02 0.  1.
<mgrwt>
<rscale>  0 0.58647118E+02</rscale>
<asrwt>0</asrwt>
<pdfrwt beam="2">  1        1 0.43080190E-01 0.58647118E+02</pdfrwt>
<pdfrwt beam="1">  1       -1 0.47242082E-03 0.58647118E+02</pdfrwt>
<totfact> 0.39901159E+05</totfact>
</mgrwt>
</event>
<event>
 4    1  0.2051373E-002  0.9418810E+02  0.7818608E-02  0.1293015E+00
         -1   -1    0    0  501    0 -0.00000000000E+00  0.00000000000E+00  0.16930533343E+01  0.16930608360E+01  0.50400000000E-02 0. -1.
          1   -1    0    0    0  501  0.00000000000E+00 -0.00000000000E+00 -0.13099674127E+04  0.13099674127E+04  0.50400000000E-02 0. -1.
          2    1    1    2    0  502  0.40064913094E+02  0.18477914755E+02 -0.42479419536E+03  0.42707931232E+03  0.25500000000E-02 0.  1.
         -2    1    1    2  502    0 -0.40064913094E+02 -0.18477914755E+02 -0.88348016404E+03  0.88458116126E+03  0.25500000000E-02 0.  1.
<mgrwt>
<rscale>  0 0.94188102E+02</rscale>
<asrwt>0</asrwt>
<pdfrwt beam="2">  1        1 0.20153264E+00 0.94188102E+02</pdfrwt>
<pdfrwt beam="1">  1       -1 0.26047137E-03 0.94188102E+02</pdfrwt>
<totfact> 0.11150046E+05</totfact>
</mgrwt>
</event>
<event>
 4    1  0.2051373E-002  0.8128617E+02  0.7818608E-02  0.1325441E+00
          1   -1    0    0    0  501  0.00000000000E+00  0.00000000000E+00  0.93649480401E+01  0.93649493963E+01  0.50400000000E-02 0. -1.
         -1   -1    0    0  501    0 -0.00000000000E+00 -0.00000000000E+00 -0.17638753127E+03  0.17638753134E+03  0.50400000000E-02 0. -1.
          2    1    1    2    0  502 -0.23447735571E+02  0.32382891503E+02 -0.66810451402E+02  0.77859388571E+02  0.25500000000E-02 0.  1.
         -2    1    1    2  502    0  0.23447735571E+02 -0.32382891503E+02 -0.10021213182E+03  0.10789309216E+03  0.25500000000E-02 0.  1.
<mgrwt>
<rscale>  0 0.81286166E+02</rscale>
<asrwt>0</asrwt>
<pdfrwt beam="1">  1        1 0.14407615E-02 0.81286166E+02</pdfrwt>
<pdfrwt beam="2">  1       -1 0.27136541E-01 0.81286166E+02</pdfrwt>
<totfact> 0.96753462E+04</totfact>
</mgrwt>
</event>
<event>
 4    1  0.2051373E-002  0.9028662E+02  0.7818608E-02  0.1302159E+00
          1   -1    0    0    0  501  0.00000000000E+00  0.00000000000E+00  0.45758996548E+01  0.45759024304E+01  0.50400000000E-02 0.  1.
         -1   -1    0    0  501    0 -0.00000000000E+00 -0.00000000000E+00 -0.44535890313E+03  0.44535890315E+03  0.50400000000E-02 0.  1.
          2    1    1    2    0  502  0.39331779290E+02  0.65059580247E+01 -0.11484185660E+03  0.12156466751E+03  0.25500000000E-02 0. -1.
         -2    1    1    2  502    0 -0.39331779290E+02 -0.65059580247E+01 -0.32594114687E+03  0.32837013808E+03  0.25500000000E-02 0. -1.
<mgrwt>
<rscale>  0 0.90286617E+02</rscale>
<asrwt>0</asrwt>
<pdfrwt beam="1">  1        1 0.70398513E-03 0.90286617E+02</pdfrwt>
<pdfrwt beam="2">  1       -1 0.68516720E-01 0.90286617E+02</pdfrwt>
<totfact> 0.51651909E+04</totfact>
</mgrwt>
</event>
<event>
 4    1  0.2051373E-002  0.4519539E+02  0.7818608E-02  0.1473126E+00
         -1   -1    0    0  501    0 -0.00000000000E+00  0.00000000000E+00  0.11814707389E+03  0.11814707399E+03  0.50400000000E-02 0. -1.
          1   -1    0    0    0  501  0.00000000000E+00 -0.00000000000E+00 -0.43222024941E+01  0.43222054326E+01  0.50400000000E-02 0. -1.
          2    1    1    2    0  502 -0.19698129049E+01  0.20559874966E+02  0.32067025365E+02  0.38142925212E+02  0.25500000000E-02 0.  1.
         -2    1    1    2  502    0  0.19698129049E+01 -0.20559874966E+02  0.81757846028E+02  0.84326354215E+02  0.25500000000E-02 0.  1.
<mgrwt>
<rscale>  0 0.45195388E+02</rscale>
<asrwt>0</asrwt>
<pdfrwt beam="2">  1        1 0.66495447E-03 0.45195388E+02</pdfrwt>
<pdfrwt beam="1">  1       -1 0.18176473E-01 0.45195388E+02</pdfrwt>
<totfact> 0.46353825E+05</totfact>
</mgrwt>
</event>
<event>
 4    1  0.2051373E-002  0.5477665E+02  0.7818608E-02  0.1421158E+00
          1   -1    0    0    0  501  0.00000000000E+00  0.00000000000E+00  0.40707954004E+01  0.40707985204E+01  0.50400000000E-02 0. -1.
         -1   -1    0    0  501    0 -0.00000000000E+00 -0.00000000000E+00 -0.18426869492E+03  0.18426869499E+03  0.50400000000E-02 0. -1.
          2    1    1    2    0  502 -0.23969978396E+02 -0.12382148252E+02 -0.73882996643E+02  0.78654781540E+02  0.25500000000E-02 0.  1.
         -2    1    1    2  502    0  0.23969978396E+02  0.12382148252E+02 -0.10631490288E+03  0.10968471197E+03  0.25500000000E-02 0.  1.
<mgrwt>
<rscale>  0 0.54776654E+02</rscale>
<asrwt>0</asrwt>
<pdfrwt beam="1">  1        1 0.62627660E-03 0.54776654E+02</pdfrwt>
<pdfrwt beam="2">  1       -1 0.28349024E-01 0.54776654E+02</pdfrwt>
<totfact> 0.26111617E+05</totfact>
</mgrwt>
</event>
<event>
 4    1  0.2051373E-002  0.4999744E+02  0.7818608E-02  0.1445355E+00
         -1   -1    0    0  501    0 -0.00000000000E+00  0.00000000000E+00  0.58196432591E+01  0.58196454415E+01  0.50400000000E-02 0. -1.
          1   -1    0    0    0  501  0.00000000000E+00 -0.00000000000E+00 -0.10738386212E+03  0.10738386224E+03  0.50400000000E-02 0. -1.
          2    1    1    2    0  502 -0.13391799559E+02 -0.20820425105E+02 -0.42904336715E+02  0.49533953128E+02  0.25500000000E-02 0.  1.
         -2    1    1    2  502    0  0.13391799559E+02  0.20820425105E+02 -0.58659882144E+02  0.63669554550E+02  0.25500000000E-02 0.  1.
<mgrwt>
<rscale>  0 0.49997436E+02</rscale>
<asrwt>0</asrwt>
<pdfrwt beam="2">  1        1 0.16520593E-01 0.49997436E+02</pdfrwt>
<pdfrwt beam="1">  1       -1 0.89532999E-03 0.49997436E+02</pdfrwt>
<totfact> 0.50990314E+05</totfact>
</mgrwt>
</event>
<event>
 4    1  0.2051373E-002  0.8823917E+02  0.7818608E-02  0.1307173E+00
          1   -1    0    0    0  501  0.00000000000E+00  0.00000000000E+00  0.17729582885E+02  0.17729583602E+02  0.50400000000E-02 0. -1.
         -1   -1    0    0  501    0 -0.00000000000E+00 -0.00000000000E+00 -0.10979038532E+03  0.10979038544E+03  0.50400000000E-02 0. -1.
          2    1    1    2    0  502 -0.19559589056E+02  0.11693775841E+02  0.85656981680E+01  0.24345289258E+02  0.25500000000E-02 0.  1.
         -2    1    1    2  502    0  0.19559589056E+02 -0.11693775841E+02 -0.10062650060E+03  0.10317467978E+03  0.25500000000E-02 0.  1.
<mgrwt>
<rscale>  0 0.88239170E+02</rscale>
<asrwt>0</asrwt>
<pdfrwt beam="1">  1        1 0.27276283E-02 0.88239170E+02</pdfrwt>
<pdfrwt beam="2">  1       -1 0.16890828E-01 0.88239170E+02</pdfrwt>
<totfact> 0.86975141E+04</totfact>
</mgrwt>
</event>
<event>
 4    1  0.2051373E-002  0.5938252E+02  0.7818608E-02  0.1400441E+00
          1   -1    0    0    0  501  0.00000000000E+00  0.00000000000E+00  0.92870331725E+00  0.92871699299E+00  0.50400000000E-02 0. -1.
         -1   -1    0    0  501    0 -0.00000000000E+00 -0.00000000000E+00 -0.94924231839E+03  0.94924231841E+03  0.50400000000E-02 0. -1.
          2    1    1    2    0  502  0.21722303098E+02 -0.15060730034E+02 -0.69054546854E+03  0.69105117623E+03  0.25500000000E-02 0.  1.
         -2    1    1    2  502    0 -0.21722303098E+02  0.15060730034E+02 -0.25776814653E+03  0.25911985917E+03  0.25500000000E-02 0.  1.
<mgrwt>
<rscale>  0 0.59382522E+02</rscale>
<asrwt>0</asrwt>
<pdfrwt beam="1">  1        1 0.14287925E-03 0.59382522E+02</pdfrwt>
<pdfrwt beam="2">  1       -1 0.14603650E+00 0.59382522E+02</pdfrwt>
<totfact> 0.82394312E+04</totfact>
</mgrwt>
</event>
<event>
 4    1  0.2051373E-002  0.5011320E+02  0.7818608E-02  0.1444732E+00
         -1   -1    0    0  501    0 -0.00000000000E+00  0.00000000000E+00  0.96533732959E+00  0.96535048635E+00  0.50400000000E-02 0. -1.
          1   -1    0    0    0  501  0.00000000000E+00 -0.00000000000E+00 -0.65037261996E+03  0.65037261998E+03  0.50400000000E-02 0. -1.
          2    1    1    2    0  502 -0.14183115243E+02 -0.19775952833E+02 -0.40223595590E+03  0.40297147951E+03  0.25500000000E-02 0. -1.
         -2    1    1    2  502    0  0.14183115243E+02  0.19775952833E+02 -0.24717132673E+03  0.24836649096E+03  0.25500000000E-02 0. -1.
<mgrwt>
<rscale>  0 0.50113202E+02</rscale>
<asrwt>0</asrwt>
<pdfrwt beam="2">  1        1 0.10005698E+00 0.50113202E+02</pdfrwt>
<pdfrwt beam="1">  1       -1 0.14851497E-03 0.50113202E+02</pdfrwt>
<totfact> 0.65967349E+05</totfact>
</mgrwt>
</event>
<event>
 4    1  0.2051373E-002  0.5650989E+02  0.7818608E-02  0.1413091E+00
          1   -1    0    0    0  501  0.00000000000E+00  0.00000000000E+00  0.27403872141E+01  0.27403918487E+01  0.50400000000E-02 0. -1.
         -1   -1    0    0  501    0 -0.00000000000E+00 -0.00000000000E+00 -0.29132420797E+03  0.29132420802E+03  0.50400000000E-02 0. -1.
          2    1    1    2    0  502 -0.23885959296E+02 -0.13553223948E+02 -0.10972973722E+03  0.11311429692E+03  0.25500000000E-02 0. -1.
         -2    1    1    2  502    0  0.23885959296E+02  0.13553223948E+02 -0.17885408354E+03  0.18095030295E+03  0.25500000000E-02 0. -1.
<mgrwt>
<rscale>  0 0.56509887E+02</rscale>
<asrwt>0</asrwt>
<pdfrwt beam="1">  1        1 0.42159862E-03 0.56509887E+02</pdfrwt>
<pdfrwt beam="2">  1       -1 0.44819085E-01 0.56509887E+02</pdfrwt>
<totfact> 0.20903679E+05</totfact>
</mgrwt>
</event>
<event>
 4    1  0.2051373E-002  0.5115442E+02  0.7818608E-02  0.1439213E+00
         -1   -1    0    0  501    0 -0.00000000000E+00  0.00000000000E+00  0.18380694047E+01  0.18380763145E+01  0.50400000000E-02 0. -1.
          1   -1    0    0    0  501  0.00000000000E+00 -0.00000000000E+00 -0.35591279133E+03  0.35591279137E+03  0.50400000000E-02 0. -1.
          2    1    1    2    0  502 -0.12295652710E+02 -0.22263157169E+02 -0.15806124142E+03  0.16009430748E+03  0.25500000000E-02 0.  1.
         -2    1    1    2  502    0  0.12295652710E+02  0.22263157169E+02 -0.19601348051E+03  0.19765656020E+03  0.25500000000E-02 0.  1.
<mgrwt>
<rscale>  0 0.51154419E+02</rscale>
<asrwt>0</asrwt>
<pdfrwt beam="2">  1        1 0.54755760E-01 0.51154419E+02</pdfrwt>
<pdfrwt beam="1">  1       -1 0.28278073E-03 0.51154419E+02</pdfrwt>
<totfact> 0.58692046E+05</totfact>
</mgrwt>
</event>
<event>
 4    1  0.2051373E-002  0.5586304E+02  0.7818608E-02  0.1416061E+00
         -1   -1    0    0  501    0 -0.00000000000E+00  0.00000000000E+00  0.64562156788E+00  0.64564123979E+00  0.50400000000E-02 0.  1.
          1   -1    0    0    0  501  0.00000000000E+00 -0.00000000000E+00 -0.12083825966E+04  0.12083825967E+04  0.50400000000E-02 0.  1.
          2    1    1    2    0  502 -0.20090337311E+02 -0.92646248712E+01 -0.97288473239E+03  0.97313624814E+03  0.25500000000E-02 0.  1.
         -2    1    1    2  502    0  0.20090337311E+02  0.92646248712E+01 -0.23485224269E+03  0.23589198976E+03  0.25500000000E-02 0.  1.
<mgrwt>
<rscale>  0 0.55863038E+02</rscale>
<asrwt>0</asrwt>
<pdfrwt beam="2">  1        1 0.18590321E+00 0.55863038E+02</pdfrwt>
<pdfrwt beam="1">  1       -1 0.99328876E-04 0.55863038E+02</pdfrwt>
<totfact> 0.44927553E+05</totfact>
</mgrwt>
</event>
<event>
 4    1  0.2051373E-002  0.4578588E+02  0.7818608E-02  0.1469494E+00
         -1   -1    0    0  501    0 -0.00000000000E+00  0.00000000000E+00  0.70293914636E+02  0.70293914817E+02  0.50400000000E-02 0. -1.
          1   -1    0    0    0  501  0.00000000000E+00 -0.00000000000E+00 -0.74556463076E+01  0.74556480111E+01  0.50400000000E-02 0. -1.
          2    1    1    2    0  502  0.14428733972E+02  0.16885118756E+02  0.21996365223E+02  0.31259169678E+02  0.25500000000E-02 0. -1.
         -2    1    1    2  502    0 -0.14428733972E+02 -0.16885118756E+02  0.40841903106E+02  0.46490393150E+02  0.25500000000E-02 0. -1.
<mgrwt>
<rscale>  0 0.45785877E+02</rscale>
<asrwt>0</asrwt>
<pdfrwt beam="2">  1        1 0.11470226E-02 0.45785877E+02</pdfrwt>
<pdfrwt beam="1">  1       -1 0.10814449E-01 0.45785877E+02</pdfrwt>
<totfact> 0.48689436E+05</totfact>
</mgrwt>
</event>
<event>
 4    1  0.2051373E-002  0.4194405E+02  0.7818608E-02  0.1494374E+00
          1   -1    0    0    0  501  0.00000000000E+00  0.00000000000E+00  0.86864171969E+00  0.86865634101E+00  0.50400000000E-02 0.  1.
         -1   -1    0    0  501    0 -0.00000000000E+00 -0.00000000000E+00 -0.50633309571E+03  0.50633309573E+03  0.50400000000E-02 0.  1.
          2    1    1    2    0  502  0.20639624532E+02  0.36979012591E+01 -0.24793804013E+03  0.24882311051E+03  0.25500000000E-02 0. -1.
         -2    1    1    2  502    0 -0.20639624532E+02 -0.36979012591E+01 -0.25752641386E+03  0.25837864156E+03  0.25500000000E-02 0. -1.
<mgrwt>
<rscale>  0 0.41944047E+02</rscale>
<asrwt>0</asrwt>
<pdfrwt beam="1">  1        1 0.13363872E-03 0.41944047E+02</pdfrwt>
<pdfrwt beam="2">  1       -1 0.77897165E-01 0.41944047E+02</pdfrwt>
<totfact> 0.33298103E+05</totfact>
</mgrwt>
</event>
<event>
 4    1  0.2051373E-002  0.8849498E+02  0.7818608E-02  0.1306538E+00
         -1   -1    0    0  501    0 -0.00000000000E+00  0.00000000000E+00  0.66357448988E+01  0.66357468128E+01  0.50400000000E-02 0.  1.
          1   -1    0    0    0  501  0.00000000000E+00 -0.00000000000E+00 -0.29504450311E+03  0.29504450315E+03  0.50400000000E-02 0.  1.
          2    1    1    2    0  502 -0.10855284933E+02 -0.30713376957E+02 -0.24628652693E+03  0.24843148369E+03  0.25500000000E-02 0. -1.
         -2    1    1    2  502    0  0.10855284933E+02  0.30713376957E+02 -0.42122231276E+02  0.53248766269E+02  0.25500000000E-02 0. -1.
<mgrwt>
<rscale>  0 0.88494980E+02</rscale>
<asrwt>0</asrwt>
<pdfrwt beam="2">  1        1 0.45391452E-01 0.88494980E+02</pdfrwt>
<pdfrwt beam="1">  1       -1 0.10208842E-02 0.88494980E+02</pdfrwt>
<totfact> 0.13826909E+05</totfact>
</mgrwt>
</event>
<event>
 4    1  0.2051373E-002  0.9004048E+02  0.7818608E-02  0.1302754E+00
          1   -1    0    0    0  501  0.00000000000E+00  0.00000000000E+00  0.17528899933E+03  0.17528899940E+03  0.50400000000E-02 0.  1.
         -1   -1    0    0  501    0 -0.00000000000E+00 -0.00000000000E+00 -0.11562744369E+02  0.11562745468E+02  0.50400000000E-02 0.  1.
          2    1    1    2    0  502  0.13109884784E+02 -0.42828330608E+02  0.91301741607E+02  0.10169632741E+03  0.25500000000E-02 0.  1.
         -2    1    1    2  502    0 -0.13109884784E+02  0.42828330608E+02  0.72424513353E+02  0.85155417459E+02  0.25500000000E-02 0.  1.
<mgrwt>
<rscale>  0 0.90040480E+02</rscale>
<asrwt>0</asrwt>
<pdfrwt beam="1">  1        1 0.26967537E-01 0.90040480E+02</pdfrwt>
<pdfrwt beam="2">  1       -1 0.17788839E-02 0.90040480E+02</pdfrwt>
<totfact> 0.11939497E+05</totfact>
</mgrwt>
</event>
<event>
 4    1  0.2051373E-002  0.6922526E+02  0.7818608E-02  0.1362748E+00
          1   -1    0    0    0  501  0.00000000000E+00  0.00000000000E+00  0.29607249727E+03  0.29607249732E+03  0.50400000000E-02 0.  1.
         -1   -1    0    0  501    0 -0.00000000000E+00 -0.00000000000E+00 -0.40464202892E+01  0.40464234279E+01  0.50400000000E-02 0.  1.
          2    1    1    2    0  502  0.20750829229E+02 -0.70578855713E+01  0.26215177912E+03  0.26306646682E+03  0.25500000000E-02 0.  1.
         -2    1    1    2  502    0 -0.20750829229E+02  0.70578855713E+01  0.29874297861E+02  0.37052453922E+02  0.25500000000E-02 0.  1.
<mgrwt>
<rscale>  0 0.69225262E+02</rscale>
<asrwt>0</asrwt>
<pdfrwt beam="1">  1        1 0.45549631E-01 0.69225262E+02</pdfrwt>
<pdfrwt beam="2">  1       -1 0.62252622E-03 0.69225262E+02</pdfrwt>
<totfact> 0.26342399E+05</totfact>
</mgrwt>
</event>
<event>
 4    1  0.2051373E-002  0.5729147E+02  0.7818608E-02  0.1409563E+00
          1   -1    0    0    0  501  0.00000000000E+00  0.00000000000E+00  0.63530130535E+01  0.63530150527E+01  0.50400000000E-02 0. -1.
         -1   -1    0    0  501    0 -0.00000000000E+00 -0.00000000000E+00 -0.12916358470E+03  0.12916358480E+03  0.50400000000E-02 0. -1.
          2    1    1    2    0  502 -0.81254402492E+01  0.27332314403E+02 -0.54927451175E+02  0.61887826662E+02  0.25500000000E-02 0.  1.
         -2    1    1    2  502    0  0.81254402492E+01 -0.27332314403E+02 -0.67883120473E+02  0.73628773191E+02  0.25500000000E-02 0.  1.
<mgrwt>
<rscale>  0 0.57291468E+02</rscale>
<asrwt>0</asrwt>
<pdfrwt beam="1">  1        1 0.97738688E-03 0.57291468E+02</pdfrwt>
<pdfrwt beam="2">  1       -1 0.19871319E-01 0.57291468E+02</pdfrwt>
<totfact> 0.25308120E+05</totfact>
</mgrwt>
</event>
<event>
 4    1  0.2051373E-002  0.7139870E+02  0.7818608E-02  0.1355400E+00
         -1   -1    0    0  501    0 -0.00000000000E+00  0.00000000000E+00  0.13198806692E+01  0.13198902919E+01  0.50400000000E-02 0. -1.
          1   -1    0    0    0  501  0.00000000000E+00 -0.00000000000E+00 -0.96557133235E+03  0.96557133236E+03  0.50400000000E-02 0. -1.
          2    1    1    2    0  502 -0.28012970280E+02  0.46331896981E-01 -0.18244487824E+03  0.18458294139E+03  0.25500000000E-02 0.  1.
         -2    1    1    2  502    0  0.28012970280E+02 -0.46331896981E-01 -0.78180657344E+03  0.78230828126E+03  0.25500000000E-02 0.  1.
<mgrwt>
<rscale>  0 0.71398700E+02</rscale>
<asrwt>0</asrwt>
<pdfrwt beam="2">  1        1 0.14854887E+00 0.71398700E+02</pdfrwt>
<pdfrwt beam="1">  1       -1 0.20306008E-03 0.71398700E+02</pdfrwt>
<totfact> 0.25986383E+05</totfact>
</mgrwt>
</event>
<event>
 4    1  0.2051373E-002  0.8038478E+02  0.7818608E-02  0.1327963E+00
          1   -1    0    0    0  501  0.00000000000E+00  0.00000000000E+00  0.18168855941E+02  0.18168856640E+02  0.50400000000E-02 0.  1.
         -1   -1    0    0  501    0 -0.00000000000E+00 -0.00000000000E+00 -0.88911937812E+02  0.88911937955E+02  0.50400000000E-02 0.  1.
          2    1    1    2    0  502 -0.73467147960E+01 -0.36811839702E+02 -0.54506699476E+02  0.66182067472E+02  0.25500000000E-02 0. -1.
         -2    1    1    2  502    0  0.73467147960E+01  0.36811839702E+02 -0.16236382395E+02  0.40898727123E+02  0.25500000000E-02 0. -1.
<mgrwt>
<rscale>  0 0.80384781E+02</rscale>
<asrwt>0</asrwt>
<pdfrwt beam="1">  1        1 0.27952087E-02 0.80384781E+02</pdfrwt>
<pdfrwt beam="2">  1       -1 0.13678759E-01 0.80384781E+02</pdfrwt>
<totfact> 0.11476604E+05</totfact>
</mgrwt>
</event>
<event>
 4    1  0.2051373E-002  0.5548256E+02  0.7818608E-02  0.1417831E+00
          1   -1    0    0    0  501  0.00000000000E+00  0.00000000000E+00  0.28135481325E+02  0.28135481777E+02  0.50400000000E-02 0.  1.
         -1   -1    0    0  501    0 -0.00000000000E+00 -0.00000000000E+00 -0.27352601377E+02  0.27352601841E+02  0.50400000000E-02 0.  1.
          2    1    1    2    0  502 -0.23909185219E+02  0.58198615388E+01 -0.12418375110E+02  0.27563308457E+02  0.25500000000E-02 0. -1.
         -2    1    1    2  502    0  0.23909185219E+02 -0.58198615388E+01  0.13201255059E+02  0.27924775161E+02  0.25500000000E-02 0. -1.
<mgrwt>
<rscale>  0 0.55482561E+02</rscale>
<asrwt>0</asrwt>
<pdfrwt beam="1">  1        1 0.43285356E-02 0.55482561E+02</pdfrwt>
<pdfrwt beam="2">  1       -1 0.42080926E-02 0.55482561E+02</pdfrwt>
<totfact> 0.33675605E+05</totfact>
</mgrwt>
</event>
<event>
 4    1  0.2051373E-002  0.5866396E+02  0.7818608E-02  0.1403526E+00
          1   -1    0    0    0  501  0.00000000000E+00  0.00000000000E+00  0.27878194821E+03  0.27878194826E+03  0.50400000000E-02 0. -1.
         -1   -1    0    0  501    0 -0.00000000000E+00 -0.00000000000E+00 -0.30861557347E+01  0.30861598501E+01  0.50400000000E-02 0. -1.
          2    1    1    2    0  502  0.52949220082E+01  0.26807417074E+02  0.18907952101E+03  0.19104381456E+03  0.25500000000E-02 0.  1.
         -2    1    1    2  502    0 -0.52949220082E+01 -0.26807417074E+02  0.86616271469E+02  0.90824293551E+02  0.25500000000E-02 0.  1.
<mgrwt>
<rscale>  0 0.58663961E+02</rscale>
<asrwt>0</asrwt>
<pdfrwt beam="1">  1        1 0.42889521E-01 0.58663961E+02</pdfrwt>
<pdfrwt beam="2">  1       -1 0.47479362E-03 0.58663961E+02</pdfrwt>
<totfact> 0.39840106E+05</totfact>
</mgrwt>
</event>
<event>
 4    1  0.2051373E-002  0.5660003E+02  0.7818608E-02  0.1412680E+00
          1   -1    0    0    0  501  0.00000000000E+00  0.00000000000E+00  0.25331207742E+04  0.25331207742E+04  0.50400000000E-02 0. -1.
         -1   -1    0    0  501    0 -0.00000000000E+00 -0.00000000000E+00 -0.31614752362E+00  0.31618769472E+00  0.50400000000E-02 0. -1.
          2    1    1    2    0  502  0.11879173690E+02  0.23949033592E+02  0.85078187952E+03  0.85120178424E+03  0.25500000000E-02 0.  1.
         -2    1    1    2  502    0 -0.11879173690E+02 -0.23949033592E+02  0.16820227471E+04  0.16822351776E+04  0.25500000000E-02 0.  1.
<mgrwt>
<rscale>  0 0.56600027E+02</rscale>
<asrwt>0</asrwt>
<pdfrwt beam="1">  1        1 0.38970725E+00 0.56600027E+02</pdfrwt>
<pdfrwt beam="2">  1       -1 0.48641625E-04 0.56600027E+02</pdfrwt>
<totfact> 0.17623852E+05</totfact>
</mgrwt>
</event>
<event>
 4    1  0.2051373E-002  0.6417209E+02  0.7818608E-02  0.1381113E+00
          1   -1    0    0    0  501  0.00000000000E+00  0.00000000000E+00  0.34091302747E+01  0.34091340002E+01  0.50400000000E-02 0.  1.
         -1   -1    0    0  501    0 -0.00000000000E+00 -0.00000000000E+00 -0.30198721882E+03  0.30198721886E+03  0.50400000000E-02 0.  1.
          2    1    1    2    0  502  0.28165525458E+02  0.13323841449E+02 -0.18574847888E+03  0.18834361945E+03  0.25500000000E-02 0.  1.
         -2    1    1    2  502    0 -0.28165525458E+02 -0.13323841449E+02 -0.11282960967E+03  0.11705273341E+03  0.25500000000E-02 0.  1.
<mgrwt>
<rscale>  0 0.64172092E+02</rscale>
<asrwt>0</asrwt>
<pdfrwt beam="1">  1        1 0.52448211E-03 0.64172092E+02</pdfrwt>
<pdfrwt beam="2">  1       -1 0.46459552E-01 0.64172092E+02</pdfrwt>
<totfact> 0.14953299E+05</totfact>
</mgrwt>
</event>
<event>
 4    1  0.2051373E-002  0.7057054E+02  0.7818608E-02  0.1358164E+00
          1   -1    0    0    0  501  0.00000000000E+00  0.00000000000E+00  0.14317774517E+04  0.14317774517E+04  0.50400000000E-02 0.  1.
         -1   -1    0    0  501    0 -0.00000000000E+00 -0.00000000000E+00 -0.86957632835E+00  0.86959093396E+00  0.50400000000E-02 0.  1.
          2    1    1    2    0  502 -0.17801501798E+02  0.12973178238E+02  0.15585010004E+03  0.15739901686E+03  0.25500000000E-02 0. -1.
         -2    1    1    2  502    0  0.17801501798E+02 -0.12973178238E+02  0.12750577753E+04  0.12752480258E+04  0.25500000000E-02 0. -1.
<mgrwt>
<rscale>  0 0.70570539E+02</rscale>
<asrwt>0</asrwt>
<pdfrwt beam="1">  1        1 0.22027350E+00 0.70570539E+02</pdfrwt>
<pdfrwt beam="2">  1       -1 0.13378207E-03 0.70570539E+02</pdfrwt>
<totfact> 0.22387768E+05</totfact>
</mgrwt>
</event>
<event>
 4    1  0.2051373E-002  0.9043897E+02  0.7818608E-02  0.1301792E+00
         -1   -1    0    0  501    0 -0.00000000000E+00  0.00000000000E+00  0.23844452829E+01  0.23844506094E+01  0.50400000000E-02 0. -1.
          1   -1    0    0    0  501  0.00000000000E+00 -0.00000000000E+00 -0.85755768644E+03  0.85755768645E+03  0.50400000000E-02 0. -1.
          2    1    1    2    0  502 -0.30011283562E+02  0.28837344780E+02 -0.25948924395E+03  0.26280589287E+03  0.25500000000E-02 0. -1.
         -2    1    1    2  502    0  0.30011283562E+02 -0.28837344780E+02 -0.59568399721E+03  0.59713624420E+03  0.25500000000E-02 0. -1.
<mgrwt>
<rscale>  0 0.90438967E+02</rscale>
<asrwt>0</asrwt>
<pdfrwt beam="2">  1        1 0.13193171E+00 0.90438967E+02</pdfrwt>
<pdfrwt beam="1">  1       -1 0.36683883E-03 0.90438967E+02</pdfrwt>
<totfact> 0.14325779E+05</totfact>
</mgrwt>
</event>
<event>
 4    1  0.2051373E-002  0.8163163E+02  0.7818608E-02  0.1324484E+00
          1   -1    0    0    0  501  0.00000000000E+00  0.00000000000E+00  0.51472438905E+03  0.51472438907E+03  0.50400000000E-02 0. -1.
         -1   -1    0    0  501    0 -0.00000000000E+00 -0.00000000000E+00 -0.32365469461E+01  0.32365508703E+01  0.50400000000E-02 0. -1.
          2    1    1    2    0  502  0.12460637387E+02  0.25068783789E+02  0.67280608571E+02  0.72872434438E+02  0.25500000000E-02 0.  1.
         -2    1    1    2  502    0 -0.12460637387E+02 -0.25068783789E+02  0.44420723353E+03  0.44508850551E+03  0.25500000000E-02 0.  1.
<mgrwt>
<rscale>  0 0.81631628E+02</rscale>
<asrwt>0</asrwt>
<pdfrwt beam="1">  1        1 0.79188353E-01 0.81631628E+02</pdfrwt>
<pdfrwt beam="2">  1       -1 0.49793070E-03 0.81631628E+02</pdfrwt>
<totfact> 0.18698231E+05</totfact>
</mgrwt>
</event>
<event>
 4    1  0.2051373E-002  0.5263342E+02  0.7818608E-02  0.1431634E+00
          1   -1    0    0    0  501  0.00000000000E+00  0.00000000000E+00  0.62073643058E+01  0.62073663519E+01  0.50400000000E-02 0.  1.
         -1   -1    0    0  501    0 -0.00000000000E+00 -0.00000000000E+00 -0.11157216573E+03  0.11157216585E+03  0.50400000000E-02 0.  1.
          2    1    1    2    0  502  0.72556916875E+01 -0.24426248124E+02 -0.67404326112E+02  0.72059904555E+02  0.25500000000E-02 0. -1.
         -2    1    1    2  502    0 -0.72556916875E+01  0.24426248124E+02 -0.37960475315E+02  0.45719627644E+02  0.25500000000E-02 0. -1.
<mgrwt>
<rscale>  0 0.52633419E+02</rscale>
<asrwt>0</asrwt>
<pdfrwt beam="1">  1        1 0.95497937E-03 0.52633419E+02</pdfrwt>
<pdfrwt beam="2">  1       -1 0.17164947E-01 0.52633419E+02</pdfrwt>
<totfact> 0.32159841E+05</totfact>
</mgrwt>
</event>
<event>
 4    1  0.2051373E-002  0.4472661E+02  0.7818608E-02  0.1476056E+00
          1   -1    0    0    0  501  0.00000000000E+00  0.00000000000E+00  0.10399467192E+01  0.10399589320E+01  0.50400000000E-02 0.  1.
         -1   -1    0    0  501    0 -0.00000000000E+00 -0.00000000000E+00 -0.48090387055E+03  0.48090387057E+03  0.50400000000E-02 0.  1.
          2    1    1    2    0  502  0.25444170107E+01 -0.21303730937E+02 -0.17195823294E+03  0.17329153727E+03  0.25500000000E-02 0. -1.
         -2    1    1    2  502    0 -0.25444170107E+01  0.21303730937E+02 -0.30790569089E+03  0.30865229223E+03  0.25500000000E-02 0. -1.
<mgrwt>
<rscale>  0 0.44726607E+02</rscale>
<asrwt>0</asrwt>
<pdfrwt beam="1">  1        1 0.15999313E-03 0.44726607E+02</pdfrwt>
<pdfrwt beam="2">  1       -1 0.73985034E-01 0.44726607E+02</pdfrwt>
<totfact> 0.29382968E+05</totfact>
</mgrwt>
</event>
<event>
 4    1  0.2051373E-002  0.4922436E+02  0.7818608E-02  0.1449571E+00
          1   -1    0    0    0  501  0.00000000000E+00  0.00000000000E+00  0.88023188708E+01  0.88023203137E+01  0.50400000000E-02 0.  1.
         -1   -1    0    0  501    0 -0.00000000000E+00 -0.00000000000E+00 -0.68818162920E+02  0.68818163105E+02  0.50400000000E-02 0.  1.
          2    1    1    2    0  502 -0.12939768169E+02 -0.18059398375E+02 -0.46709363583E+02  0.51723728818E+02  0.25500000000E-02 0. -1.
         -2    1    1    2  502    0  0.12939768169E+02  0.18059398375E+02 -0.13306480466E+02  0.25896754600E+02  0.25500000000E-02 0. -1.
<mgrwt>
<rscale>  0 0.49224363E+02</rscale>
<asrwt>0</asrwt>
<pdfrwt beam="1">  1        1 0.13542031E-02 0.49224363E+02</pdfrwt>
<pdfrwt beam="2">  1       -1 0.10587409E-01 0.49224363E+02</pdfrwt>
<totfact> 0.40873085E+05</totfact>
</mgrwt>
</event>
<event>
 4    1  0.2051373E-002  0.4660652E+02  0.7818608E-02  0.1464555E+00
         -1   -1    0    0  501    0 -0.00000000000E+00  0.00000000000E+00  0.70225307662E+02  0.70225307843E+02  0.50400000000E-02 0. -1.
          1   -1    0    0    0  501  0.00000000000E+00 -0.00000000000E+00 -0.77328522493E+01  0.77328538917E+01  0.50400000000E-02 0. -1.
          2    1    1    2    0  502 -0.20815058612E+02 -0.19326741669E+01  0.48470859441E+02  0.52786609248E+02  0.25500000000E-02 0.  1.
         -2    1    1    2  502    0  0.20815058612E+02  0.19326741669E+01  0.14021595972E+02  0.25171552486E+02  0.25500000000E-02 0.  1.
<mgrwt>
<rscale>  0 0.46606523E+02</rscale>
<asrwt>0</asrwt>
<pdfrwt beam="2">  1        1 0.11896698E-02 0.46606523E+02</pdfrwt>
<pdfrwt beam="1">  1       -1 0.10803893E-01 0.46606523E+02</pdfrwt>
<totfact> 0.46621781E+05</totfact>
</mgrwt>
</event>
<event>
 4    1  0.2051373E-002  0.7232183E+02  0.7818608E-02  0.1352371E+00
         -1   -1    0    0  501    0 -0.00000000000E+00  0.00000000000E+00  0.21267395806E+01  0.21267455525E+01  0.50400000000E-02 0. -1.
          1   -1    0    0    0  501  0.00000000000E+00 -0.00000000000E+00 -0.61484249999E+03  0.61484250001E+03  0.50400000000E-02 0. -1.
          2    1    1    2    0  502 -0.31999895060E+02 -0.12506739462E+02 -0.21014404793E+03  0.21293410413E+03  0.25500000000E-02 0. -1.
         -2    1    1    2  502    0  0.31999895060E+02  0.12506739462E+02 -0.40257171247E+03  0.40403514142E+03  0.25500000000E-02 0. -1.
<mgrwt>
<rscale>  0 0.72321829E+02</rscale>
<asrwt>0</asrwt>
<pdfrwt beam="2">  1        1 0.94591013E-01 0.72321829E+02</pdfrwt>
<pdfrwt beam="1">  1       -1 0.32719165E-03 0.72321829E+02</pdfrwt>
<totfact> 0.25990438E+05</totfact>
</mgrwt>
</event>
<event>
 4    1  0.2051373E-002  0.5091470E+02  0.7818608E-02  0.1440469E+00
          1   -1    0    0    0  501  0.00000000000E+00  0.00000000000E+00  0.45487355230E+02  0.45487355509E+02  0.50400000000E-02 0.  1.
         -1   -1    0    0  501    0 -0.00000000000E+00 -0.00000000000E+00 -0.14247399805E+02  0.14247400697E+02  0.50400000000E-02 0.  1.
          2    1    1    2    0  502  0.17140561857E+02 -0.17283512951E+02  0.68750386649E+01  0.25293968527E+02  0.25500000000E-02 0. -1.
         -2    1    1    2  502    0 -0.17140561857E+02  0.17283512951E+02  0.24364916760E+02  0.34440787679E+02  0.25500000000E-02 0. -1.
<mgrwt>
<rscale>  0 0.50914696E+02</rscale>
<asrwt>0</asrwt>
<pdfrwt beam="1">  1        1 0.69980546E-02 0.50914696E+02</pdfrwt>
<pdfrwt beam="2">  1       -1 0.21919078E-02 0.50914696E+02</pdfrwt>
<totfact> 0.44100869E+05</totfact>
</mgrwt>
</event>
<event>
 4    1  0.2051373E-002  0.6347316E+02  0.7818608E-02  0.1383809E+00
         -1   -1    0    0  501    0 -0.00000000000E+00  0.00000000000E+00  0.87451685824E+01  0.87451700347E+01  0.50400000000E-02 0. -1.
          1   -1    0    0    0  501  0.00000000000E+00 -0.00000000000E+00 -0.11517335329E+03  0.11517335340E+03  0.50400000000E-02 0. -1.
          2    1    1    2    0  502  0.12068573948E+02 -0.19309923680E+02 -0.96372105367E+02  0.99025786183E+02  0.25500000000E-02 0.  1.
         -2    1    1    2  502    0 -0.12068573948E+02  0.19309923680E+02 -0.10056079339E+02  0.24892737251E+02  0.25500000000E-02 0.  1.
<mgrwt>
<rscale>  0 0.63473159E+02</rscale>
<asrwt>0</asrwt>
<pdfrwt beam="2">  1        1 0.17718976E-01 0.63473159E+02</pdfrwt>
<pdfrwt beam="1">  1       -1 0.13454108E-02 0.63473159E+02</pdfrwt>
<totfact> 0.27973047E+05</totfact>
</mgrwt>
</event>
<event>
 4    1  0.2051373E-002  0.5248458E+02  0.7818608E-02  0.1432383E+00
         -1   -1    0    0  501    0 -0.00000000000E+00  0.00000000000E+00  0.46841424000E+01  0.46841451114E+01  0.50400000000E-02 0.  1.
          1   -1    0    0    0  501  0.00000000000E+00 -0.00000000000E+00 -0.14701890896E+03  0.14701890904E+03  0.50400000000E-02 0.  1.
          2    1    1    2    0  502  0.10184434897E+01 -0.24937780253E+02 -0.47733918550E+02  0.53865175185E+02  0.25500000000E-02 0. -1.
         -2    1    1    2  502    0 -0.10184434897E+01  0.24937780253E+02 -0.94600848008E+02  0.97837878971E+02  0.25500000000E-02 0. -1.
<mgrwt>
<rscale>  0 0.52484577E+02</rscale>
<asrwt>0</asrwt>
<pdfrwt beam="2">  1        1 0.22618290E-01 0.52484577E+02</pdfrwt>
<pdfrwt beam="1">  1       -1 0.72063762E-03 0.52484577E+02</pdfrwt>
<totfact> 0.47270320E+05</totfact>
</mgrwt>
</event>
<event>
 4    1  0.2051373E-002  0.7521357E+02  0.7818608E-02  0.1343211E+00
         -1   -1    0    0  501    0 -0.00000000000E+00  0.00000000000E+00  0.22570437358E+03  0.22570437363E+03  0.50400000000E-02 0. -1.
          1   -1    0    0    0  501  0.00000000000E+00 -0.00000000000E+00 -0.62660282085E+01  0.62660302354E+01  0.50400000000E-02 0. -1.
          2    1    1    2    0  502  0.32693120466E+02  0.40303670171E+01  0.16567653192E+03  0.16891949923E+03  0.25500000000E-02 0.  1.
         -2    1    1    2  502    0 -0.32693120466E+02 -0.40303670171E+01  0.53761813446E+02  0.63050904638E+02  0.25500000000E-02 0.  1.
<mgrwt>
<rscale>  0 0.75213568E+02</rscale>
<asrwt>0</asrwt>
<pdfrwt beam="2">  1        1 0.96400456E-03 0.75213568E+02</pdfrwt>
<pdfrwt beam="1">  1       -1 0.34723748E-01 0.75213568E+02</pdfrwt>
<totfact> 0.11025914E+05</totfact>
</mgrwt>
</event>
<event>
 4    1  0.2051373E-002  0.4572784E+02  0.7818608E-02  0.1469848E+00
         -1   -1    0    0  501    0 -0.00000000000E+00  0.00000000000E+00  0.17648694893E+02  0.17648695613E+02  0.50400000000E-02 0.  1.
          1   -1    0    0    0  501  0.00000000000E+00 -0.00000000000E+00 -0.29620252311E+02  0.29620252740E+02  0.50400000000E-02 0.  1.
          2    1    1    2    0  502 -0.12776814920E+01  0.22549239633E+02 -0.23080458739E+01  0.22703034165E+02  0.25500000000E-02 0.  1.
         -2    1    1    2  502    0  0.12776814920E+01 -0.22549239633E+02 -0.96635115443E+01  0.24565914188E+02  0.25500000000E-02 0.  1.
<mgrwt>
<rscale>  0 0.45727839E+02</rscale>
<asrwt>0</asrwt>
<pdfrwt beam="2">  1        1 0.45569620E-02 0.45727839E+02</pdfrwt>
<pdfrwt beam="1">  1       -1 0.27151839E-02 0.45727839E+02</pdfrwt>
<totfact> 0.55863559E+05</totfact>
</mgrwt>
</event>
<event>
 4    1  0.2051373E-002  0.5291524E+02  0.7818608E-02  0.1430223E+00
          1   -1    0    0    0  501  0.00000000000E+00  0.00000000000E+00  0.28304418887E+03  0.28304418892E+03  0.50400000000E-02 0.  1.
         -1   -1    0    0  501    0 -0.00000000000E+00 -0.00000000000E+00 -0.24731292625E+01  0.24731343980E+01  0.50400000000E-02 0.  1.
          2    1    1    2    0  502  0.20359285493E+02 -0.13375236848E+02  0.84573770008E+02  0.88012044894E+02  0.25500000000E-02 0. -1.
         -2    1    1    2  502    0 -0.20359285493E+02  0.13375236848E+02  0.19599728960E+03  0.19750527842E+03  0.25500000000E-02 0. -1.
<mgrwt>
<rscale>  0 0.52915238E+02</rscale>
<asrwt>0</asrwt>
<pdfrwt beam="1">  1        1 0.43545264E-01 0.52915238E+02</pdfrwt>
<pdfrwt beam="2">  1       -1 0.38048179E-03 0.52915238E+02</pdfrwt>
<totfact> 0.51844924E+05</totfact>
</mgrwt>
</event>
<event>
 4    1  0.2051373E-002  0.4260862E+02  0.7818608E-02  0.1489848E+00
         -1   -1    0    0  501    0 -0.00000000000E+00  0.00000000000E+00  0.69832845774E+02  0.69832845956E+02  0.50400000000E-02 0.  1.
          1   -1    0    0    0  501  0.00000000000E+00 -0.00000000000E+00 -0.64994270907E+01  0.64994290448E+01  0.50400000000E-02 0.  1.
          2    1    1    2    0  502 -0.91442726635E+01 -0.18293773349E+02  0.20978687724E+02  0.29298211737E+02  0.25500000000E-02 0. -1.
         -2    1    1    2  502    0  0.91442726635E+01  0.18293773349E+02  0.42354730959E+02  0.47034063263E+02  0.25500000000E-02 0. -1.
<mgrwt>
<rscale>  0 0.42608617E+02</rscale>
<asrwt>0</asrwt>
<pdfrwt beam="2">  1        1 0.99991200E-03 0.42608617E+02</pdfrwt>
<pdfrwt beam="1">  1       -1 0.10743515E-01 0.42608617E+02</pdfrwt>
<totfact> 0.58079866E+05</totfact>
</mgrwt>
</event>
<event>
 4    1  0.2051373E-002  0.4430026E+02  0.7818608E-02  0.1478758E+00
          1   -1    0    0    0  501  0.00000000000E+00  0.00000000000E+00  0.12114731093E+04  0.12114731094E+04  0.50400000000E-02 0.  1.
         -1   -1    0    0  501    0 -0.00000000000E+00 -0.00000000000E+00 -0.40496915113E+00  0.40500051230E+00  0.50400000000E-02 0.  1.
          2    1    1    2    0  502  0.20273022012E+02  0.56141543800E+01  0.79528713677E+03  0.79556529843E+03  0.25500000000E-02 0. -1.
         -2    1    1    2  502    0 -0.20273022012E+02 -0.56141543800E+01  0.41578100343E+03  0.41631281144E+03  0.25500000000E-02 0. -1.
<mgrwt>
<rscale>  0 0.44300259E+02</rscale>
<asrwt>0</asrwt>
<pdfrwt beam="1">  1        1 0.18637855E+00 0.44300259E+02</pdfrwt>
<pdfrwt beam="2">  1       -1 0.62306004E-04 0.44300259E+02</pdfrwt>
<totfact> 0.79834438E+05</totfact>
</mgrwt>
</event>
<event>
 4    1  0.2051373E-002  0.6010917E+02  0.7818608E-02  0.1397374E+00
          1   -1    0    0    0  501  0.00000000000E+00  0.00000000000E+00  0.57913257317E+01  0.57913279248E+01  0.50400000000E-02 0.  1.
         -1   -1    0    0  501    0 -0.00000000000E+00 -0.00000000000E+00 -0.15597082598E+03  0.15597082606E+03  0.50400000000E-02 0.  1.
          2    1    1    2    0  502 -0.22953461273E+02  0.13947791446E+02 -0.11138281251E+03  0.11457544763E+03  0.25500000000E-02 0. -1.
         -2    1    1    2  502    0  0.22953461273E+02 -0.13947791446E+02 -0.38796687733E+02  0.47186706350E+02  0.25500000000E-02 0. -1.
<mgrwt>
<rscale>  0 0.60109169E+02</rscale>
<asrwt>0</asrwt>
<pdfrwt beam="1">  1        1 0.89097348E-03 0.60109169E+02</pdfrwt>
<pdfrwt beam="2">  1       -1 0.23995509E-01 0.60109169E+02</pdfrwt>
<totfact> 0.21541071E+05</totfact>
</mgrwt>
</event>
<event>
 4    1  0.2051373E-002  0.6679104E+02  0.7818608E-02  0.1371358E+00
         -1   -1    0    0  501    0 -0.00000000000E+00  0.00000000000E+00  0.65347259093E+00  0.65349202650E+00  0.50400000000E-02 0.  1.
          1   -1    0    0    0  501  0.00000000000E+00 -0.00000000000E+00 -0.17066425081E+04  0.17066425081E+04  0.50400000000E-02 0.  1.
          2    1    1    2    0  502 -0.47163304162E+01  0.20520227158E+02 -0.15155999161E+04  0.15157461625E+04  0.25500000000E-02 0. -1.
         -2    1    1    2  502    0  0.47163304162E+01 -0.20520227158E+02 -0.19038911935E+03  0.19154983756E+03  0.25500000000E-02 0. -1.
<mgrwt>
<rscale>  0 0.66791038E+02</rscale>
<asrwt>0</asrwt>
<pdfrwt beam="2">  1        1 0.26255682E+00 0.66791038E+02</pdfrwt>
<pdfrwt beam="1">  1       -1 0.10053711E-03 0.66791038E+02</pdfrwt>
<totfact> 0.22048813E+05</totfact>
</mgrwt>
</event>
<event>
 4    1  0.2051373E-002  0.6605904E+02  0.7818608E-02  0.1374032E+00
         -1   -1    0    0  501    0 -0.00000000000E+00  0.00000000000E+00  0.79985189782E+01  0.79985205661E+01  0.50400000000E-02 0. -1.
          1   -1    0    0    0  501  0.00000000000E+00 -0.00000000000E+00 -0.13639386668E+03  0.13639386677E+03  0.50400000000E-02 0. -1.
          2    1    1    2    0  502 -0.16789164628E+02  0.18230687108E+02 -0.16473161925E+02  0.29759016644E+02  0.25500000000E-02 0.  1.
         -2    1    1    2  502    0  0.16789164628E+02 -0.18230687108E+02 -0.11192218578E+03  0.11463337070E+03  0.25500000000E-02 0.  1.
<mgrwt>
<rscale>  0 0.66059036E+02</rscale>
<asrwt>0</asrwt>
<pdfrwt beam="2">  1        1 0.20983670E-01 0.66059036E+02</pdfrwt>
<pdfrwt beam="1">  1       -1 0.12305416E-02 0.66059036E+02</pdfrwt>
<totfact> 0.25895667E+05</totfact>
</mgrwt>
</event>
<event>
 4    1  0.2051373E-002  0.6808911E+02  0.7818608E-02  0.1366714E+00
         -1   -1    0    0  501    0 -0.00000000000E+00  0.00000000000E+00  0.82313474944E+00  0.82315017909E+00  0.50400000000E-02 0.  1.
          1   -1    0    0    0  501  0.00000000000E+00 -0.00000000000E+00 -0.14080574331E+04  0.14080574331E+04  0.50400000000E-02 0.  1.
          2    1    1    2    0  502  0.26128201757E+02  0.15542841586E+02 -0.10206592164E+04  0.10211118934E+04  0.25500000000E-02 0. -1.
         -2    1    1    2  502    0 -0.26128201757E+02 -0.15542841586E+02 -0.38657508192E+03  0.38776868984E+03  0.25500000000E-02 0. -1.
<mgrwt>
<rscale>  0 0.68089114E+02</rscale>
<asrwt>0</asrwt>
<pdfrwt beam="2">  1        1 0.21662229E+00 0.68089114E+02</pdfrwt>
<pdfrwt beam="1">  1       -1 0.12663843E-03 0.68089114E+02</pdfrwt>
<totfact> 0.24845958E+05</totfact>
</mgrwt>
</event>
<event>
 4    1  0.2051373E-002  0.5383136E+02  0.7818608E-02  0.1425708E+00
          1   -1    0    0    0  501  0.00000000000E+00  0.00000000000E+00  0.76241041414E+03  0.76241041415E+03  0.50400000000E-02 0.  1.
         -1   -1    0    0  501    0 -0.00000000000E+00 -0.00000000000E+00 -0.95020839821E+00  0.95022176444E+00  0.50400000000E-02 0.  1.
          2    1    1    2    0  502  0.23278005618E+02  0.31368914591E+01  0.56711092183E+03  0.56759713115E+03  0.25500000000E-02 0.  1.
         -2    1    1    2  502    0 -0.23278005618E+02 -0.31368914591E+01  0.19434928391E+03  0.19576350476E+03  0.25500000000E-02 0.  1.
<mgrwt>
<rscale>  0 0.53831362E+02</rscale>
<asrwt>0</asrwt>
<pdfrwt beam="1">  1        1 0.11729363E+00 0.53831362E+02</pdfrwt>
<pdfrwt beam="2">  1       -1 0.14618729E-03 0.53831362E+02</pdfrwt>
<totfact> 0.55042282E+05</totfact>
</mgrwt>
</event>
<event>
 4    1  0.2051373E-002  0.4663882E+02  0.7818608E-02  0.1464363E+00
         -1   -1    0    0  501    0 -0.00000000000E+00  0.00000000000E+00  0.48680693623E+03  0.48680693625E+03  0.50400000000E-02 0. -1.
          1   -1    0    0    0  501  0.00000000000E+00 -0.00000000000E+00 -0.11170590331E+01  0.11170704029E+01  0.50400000000E-02 0. -1.
          2    1    1    2    0  502 -0.11239549880E+02 -0.19867365138E+02  0.19293985608E+03  0.19428542856E+03  0.25500000000E-02 0. -1.
         -2    1    1    2  502    0  0.11239549880E+02  0.19867365138E+02  0.29275002111E+03  0.29363857810E+03  0.25500000000E-02 0. -1.
<mgrwt>
<rscale>  0 0.46638819E+02</rscale>
<asrwt>0</asrwt>
<pdfrwt beam="2">  1        1 0.17185636E-03 0.46638819E+02</pdfrwt>
<pdfrwt beam="1">  1       -1 0.74893270E-01 0.46638819E+02</pdfrwt>
<totfact> 0.26325168E+05</totfact>
</mgrwt>
</event>
<event>
 4    1  0.2051373E-002  0.7744487E+02  0.7818608E-02  0.1336463E+00
         -1   -1    0    0  501    0 -0.00000000000E+00  0.00000000000E+00  0.46133457135E+02  0.46133457411E+02  0.50400000000E-02 0. -1.
          1   -1    0    0    0  501  0.00000000000E+00 -0.00000000000E+00 -0.32501944798E+02  0.32501945189E+02  0.50400000000E-02 0. -1.
          2    1    1    2    0  502  0.83711439968E+01 -0.31937138671E+02  0.27359687889E+02  0.42879008923E+02  0.25500000000E-02 0. -1.
         -2    1    1    2  502    0 -0.83711439968E+01  0.31937138671E+02 -0.13728175552E+02  0.35756393677E+02  0.25500000000E-02 0. -1.
<mgrwt>
<rscale>  0 0.77444873E+02</rscale>
<asrwt>0</asrwt>
<pdfrwt beam="2">  1        1 0.50002992E-02 0.77444873E+02</pdfrwt>
<pdfrwt beam="1">  1       -1 0.70974550E-02 0.77444873E+02</pdfrwt>
<totfact> 0.13898515E+05</totfact>
</mgrwt>
</event>
<event>
 4    1  0.2051373E-002  0.7276801E+02  0.7818608E-02  0.1350925E+00
          1   -1    0    0    0  501  0.00000000000E+00  0.00000000000E+00  0.17789294283E+02  0.17789294997E+02  0.50400000000E-02 0. -1.
         -1   -1    0    0  501    0 -0.00000000000E+00 -0.00000000000E+00 -0.74415311899E+02  0.74415312070E+02  0.50400000000E-02 0. -1.
          2    1    1    2    0  502 -0.31838401212E+02  0.12531255929E+02 -0.12635719311E+02  0.36474341336E+02  0.25500000000E-02 0.  1.
         -2    1    1    2  502    0  0.31838401212E+02 -0.12531255929E+02 -0.43990298305E+02  0.55730265731E+02  0.25500000000E-02 0.  1.
<mgrwt>
<rscale>  0 0.72768013E+02</rscale>
<asrwt>0</asrwt>
<pdfrwt beam="1">  1        1 0.27368146E-02 0.72768013E+02</pdfrwt>
<pdfrwt beam="2">  1       -1 0.11448509E-01 0.72768013E+02</pdfrwt>
<totfact> 0.15210440E+05</totfact>
</mgrwt>
</event>
<event>
 4    1  0.2051373E-002  0.6685056E+02  0.7818608E-02  0.1371143E+00
          1   -1    0    0    0  501  0.00000000000E+00  0.00000000000E+00  0.88421949078E+03  0.88421949079E+03  0.50400000000E-02 0.  1.
         -1   -1    0    0  501    0 -0.00000000000E+00 -0.00000000000E+00 -0.12635379913E+01  0.12635480431E+01  0.50400000000E-02 0.  1.
          2    1    1    2    0  502  0.48450604668E+01  0.31477540080E+02  0.57586757178E+03  0.57674757943E+03  0.25500000000E-02 0.  1.
         -2    1    1    2  502    0 -0.48450604668E+01 -0.31477540080E+02  0.30708838100E+03  0.30873545941E+03  0.25500000000E-02 0.  1.
<mgrwt>
<rscale>  0 0.66850561E+02</rscale>
<asrwt>0</asrwt>
<pdfrwt beam="1">  1        1 0.13603373E+00 0.66850561E+02</pdfrwt>
<pdfrwt beam="2">  1       -1 0.19439129E-03 0.66850561E+02</pdfrwt>
<totfact> 0.31309587E+05</totfact>
</mgrwt>
</event>
<event>
 4    1  0.2051373E-002  0.7549598E+02  0.7818608E-02  0.1342342E+00
          1   -1    0    0    0  501  0.00000000000E+00  0.00000000000E+00  0.12306629594E+03  0.12306629605E+03  0.50400000000E-02 0. -1.
         -1   -1    0    0  501    0 -0.00000000000E+00 -0.00000000000E+00 -0.11578397497E+02  0.11578398594E+02  0.50400000000E-02 0. -1.
          2    1    1    2    0  502  0.30774686877E+02  0.16261156608E+02  0.29690410256E+02  0.45749612395E+02  0.25500000000E-02 0. -1.
         -2    1    1    2  502    0 -0.30774686877E+02 -0.16261156608E+02  0.81797488192E+02  0.88895082247E+02  0.25500000000E-02 0. -1.
<mgrwt>
<rscale>  0 0.75495975E+02</rscale>
<asrwt>0</asrwt>
<pdfrwt beam="1">  1        1 0.18933276E-01 0.75495975E+02</pdfrwt>
<pdfrwt beam="2">  1       -1 0.17812921E-02 0.75495975E+02</pdfrwt>
<totfact> 0.17940253E+05</totfact>
</mgrwt>
</event>
<event>
 4    1  0.2051373E-002  0.4960852E+02  0.7818608E-02  0.1447465E+00
         -1   -1    0    0  501    0 -0.00000000000E+00  0.00000000000E+00  0.53674404300E+00  0.53676770515E+00  0.50400000000E-02 0. -1.
          1   -1    0    0    0  501  0.00000000000E+00 -0.00000000000E+00 -0.11462404052E+04  0.11462404052E+04  0.50400000000E-02 0. -1.
          2    1    1    2    0  502  0.18614038196E+02 -0.10664361102E+02 -0.28501588718E+03  0.28582208971E+03  0.25500000000E-02 0.  1.
         -2    1    1    2  502    0 -0.18614038196E+02  0.10664361102E+02 -0.86068777400E+03  0.86095508323E+03  0.25500000000E-02 0.  1.
<mgrwt>
<rscale>  0 0.49608519E+02</rscale>
<asrwt>0</asrwt>
<pdfrwt beam="2">  1        1 0.17634272E+00 0.49608519E+02</pdfrwt>
<pdfrwt beam="1">  1       -1 0.82578745E-04 0.49608519E+02</pdfrwt>
<totfact> 0.61858992E+05</totfact>
</mgrwt>
</event>
<event>
 4    1  0.2051373E-002  0.5139096E+02  0.7818608E-02  0.1437980E+00
         -1   -1    0    0  501    0 -0.00000000000E+00  0.00000000000E+00  0.67706668405E+00  0.67708544236E+00  0.50400000000E-02 0. -1.
          1   -1    0    0    0  501  0.00000000000E+00 -0.00000000000E+00 -0.97516040977E+03  0.97516040979E+03  0.50400000000E-02 0. -1.
          2    1    1    2    0  502 -0.10922641814E+02  0.20255265605E+02 -0.27017567574E+03  0.27115397038E+03  0.25500000000E-02 0.  1.
         -2    1    1    2  502    0  0.10922641814E+02 -0.20255265605E+02 -0.70430766735E+03  0.70468352484E+03  0.25500000000E-02 0.  1.
<mgrwt>
<rscale>  0 0.51390964E+02</rscale>
<asrwt>0</asrwt>
<pdfrwt beam="2">  1        1 0.15002356E+00 0.51390964E+02</pdfrwt>
<pdfrwt beam="1">  1       -1 0.10416633E-03 0.51390964E+02</pdfrwt>
<totfact> 0.59654033E+05</totfact>
</mgrwt>
</event>
<event>
 4    1  0.2051373E-002  0.4513731E+02  0.7818608E-02  0.1473486E+00
          1   -1    0    0    0  501  0.00000000000E+00  0.00000000000E+00  0.20386244996E+04  0.20386244996E+04  0.50400000000E-02 0. -1.
         -1   -1    0    0  501    0 -0.00000000000E+00 -0.00000000000E+00 -0.24982160166E+00  0.24987243597E+00  0.50400000000E-02 0. -1.
          2    1    1    2    0  502  0.57632982180E+01  0.21799301016E+02  0.97588185083E+03  0.97614231130E+03  0.25500000000E-02 0. -1.
         -2    1    1    2  502    0 -0.57632982180E+01 -0.21799301016E+02  0.10624928271E+04  0.10627320607E+04  0.25500000000E-02 0. -1.
<mgrwt>
<rscale>  0 0.45137313E+02</rscale>
<asrwt>0</asrwt>
<pdfrwt beam="1">  1        1 0.31365028E+00 0.45137313E+02</pdfrwt>
<pdfrwt beam="2">  1       -1 0.38436074E-04 0.45137313E+02</pdfrwt>
<totfact> 0.47226842E+05</totfact>
</mgrwt>
</event>
<event>
 4    1  0.2051373E-002  0.5415147E+02  0.7818608E-02  0.1424155E+00
         -1   -1    0    0  501    0 -0.00000000000E+00  0.00000000000E+00  0.74541907270E+00  0.74543611097E+00  0.50400000000E-02 0.  1.
          1   -1    0    0    0  501  0.00000000000E+00 -0.00000000000E+00 -0.98345609410E+03  0.98345609411E+03  0.50400000000E-02 0.  1.
          2    1    1    2    0  502  0.22058842662E+02  0.96947666920E+01 -0.71581022236E+03  0.71621564872E+03  0.25500000000E-02 0.  1.
         -2    1    1    2  502    0 -0.22058842662E+02 -0.96947666920E+01 -0.26690045267E+03  0.26798588150E+03  0.25500000000E-02 0.  1.
<mgrwt>
<rscale>  0 0.54151466E+02</rscale>
<asrwt>0</asrwt>
<pdfrwt beam="2">  1        1 0.15129990E+00 0.54151466E+02</pdfrwt>
<pdfrwt beam="1">  1       -1 0.11468196E-03 0.54151466E+02</pdfrwt>
<totfact> 0.52244301E+05</totfact>
</mgrwt>
</event>
<event>
 4    1  0.2051373E-002  0.4759763E+02  0.7818608E-02  0.1458747E+00
          1   -1    0    0    0  501  0.00000000000E+00  0.00000000000E+00  0.10125733756E+04  0.10125733756E+04  0.50400000000E-02 0.  1.
         -1   -1    0    0  501    0 -0.00000000000E+00 -0.00000000000E+00 -0.55933926682E+00  0.55936197315E+00  0.50400000000E-02 0.  1.
          2    1    1    2    0  502  0.13831752793E+02 -0.18699062978E+02  0.39870850409E+03  0.39938633374E+03  0.25500000000E-02 0.  1.
         -2    1    1    2  502    0 -0.13831752793E+02  0.18699062978E+02  0.61330553226E+03  0.61374640386E+03  0.25500000000E-02 0.  1.
<mgrwt>
<rscale>  0 0.47597628E+02</rscale>
<asrwt>0</asrwt>
<pdfrwt beam="1">  1        1 0.15577872E+00 0.47597628E+02</pdfrwt>
<pdfrwt beam="2">  1       -1 0.86054937E-04 0.47597628E+02</pdfrwt>
<totfact> 0.71453256E+05</totfact>
</mgrwt>
</event>
<event>
 4    1  0.2051373E-002  0.4320957E+02  0.7818608E-02  0.1485839E+00
          1   -1    0    0    0  501  0.00000000000E+00  0.00000000000E+00  0.29908826011E+02  0.29908826435E+02  0.50400000000E-02 0.  1.
         -1   -1    0    0  501    0 -0.00000000000E+00 -0.00000000000E+00 -0.15606318812E+02  0.15606319626E+02  0.50400000000E-02 0.  1.
          2    1    1    2    0  502  0.20440303527E+02 -0.69928145202E+01  0.74119092466E+01  0.22839480475E+02  0.25500000000E-02 0.  1.
         -2    1    1    2  502    0 -0.20440303527E+02  0.69928145202E+01  0.68905979518E+01  0.22675665587E+02  0.25500000000E-02 0.  1.
<mgrwt>
<rscale>  0 0.43209568E+02</rscale>
<asrwt>0</asrwt>
<pdfrwt beam="1">  1        1 0.46013579E-02 0.43209568E+02</pdfrwt>
<pdfrwt beam="2">  1       -1 0.24009722E-02 0.43209568E+02</pdfrwt>
<totfact> 0.64567966E+05</totfact>
</mgrwt>
</event>
<event>
 4    1  0.2051373E-002  0.8087916E+02  0.7818608E-02  0.1326575E+00
         -1   -1    0    0  501    0 -0.00000000000E+00  0.00000000000E+00  0.16492250085E+02  0.16492250856E+02  0.50400000000E-02 0.  1.
          1   -1    0    0    0  501  0.00000000000E+00 -0.00000000000E+00 -0.99159275335E+02  0.99159275463E+02  0.50400000000E-02 0.  1.
          2    1    1    2    0  502  0.34330360217E+02 -0.58958561404E+01 -0.70708910363E+02  0.78823123279E+02  0.25500000000E-02 0.  1.
         -2    1    1    2  502    0 -0.34330360217E+02  0.58958561404E+01 -0.11958114886E+02  0.36828403039E+02  0.25500000000E-02 0.  1.
<mgrwt>
<rscale>  0 0.80879160E+02</rscale>
<asrwt>0</asrwt>
<pdfrwt beam="2">  1        1 0.15255273E-01 0.80879160E+02</pdfrwt>
<pdfrwt beam="1">  1       -1 0.25372694E-02 0.80879160E+02</pdfrwt>
<totfact> 0.14422576E+05</totfact>
</mgrwt>
</event>
<event>
 4    1  0.2051373E-002  0.4834690E+02  0.7818608E-02  0.1454467E+00
          1   -1    0    0    0  501  0.00000000000E+00  0.00000000000E+00  0.30961371788E+02  0.30961372198E+02  0.50400000000E-02 0.  1.
         -1   -1    0    0  501    0 -0.00000000000E+00 -0.00000000000E+00 -0.18873697745E+02  0.18873698418E+02  0.50400000000E-02 0.  1.
          2    1    1    2    0  502  0.15889148620E+02 -0.17855993136E+02  0.97680907162E+01  0.25820866319E+02  0.25500000000E-02 0. -1.
         -2    1    1    2  502    0 -0.15889148620E+02  0.17855993136E+02  0.23195833266E+01  0.24014204298E+02  0.25500000000E-02 0. -1.
<mgrwt>
<rscale>  0 0.48346896E+02</rscale>
<asrwt>0</asrwt>
<pdfrwt beam="1">  1        1 0.47632881E-02 0.48346896E+02</pdfrwt>
<pdfrwt beam="2">  1       -1 0.29036459E-02 0.48346896E+02</pdfrwt>
<totfact> 0.48619213E+05</totfact>
</mgrwt>
</event>
<event>
 4    1  0.2051373E-002  0.5511518E+02  0.7818608E-02  0.1419555E+00
         -1   -1    0    0  501    0 -0.00000000000E+00  0.00000000000E+00  0.13512818177E+01  0.13512912167E+01  0.50400000000E-02 0.  1.
          1   -1    0    0    0  501  0.00000000000E+00 -0.00000000000E+00 -0.56199836839E+03  0.56199836841E+03  0.50400000000E-02 0.  1.
          2    1    1    2    0  502 -0.26953403884E+02 -0.32011681903E+01 -0.32900895203E+03  0.33012667869E+03  0.25500000000E-02 0. -1.
         -2    1    1    2  502    0  0.26953403884E+02  0.32011681903E+01 -0.23163813454E+03  0.23322298094E+03  0.25500000000E-02 0. -1.
<mgrwt>
<rscale>  0 0.55115182E+02</rscale>
<asrwt>0</asrwt>
<pdfrwt beam="2">  1        1 0.86461101E-01 0.55115182E+02</pdfrwt>
<pdfrwt beam="1">  1       -1 0.20789068E-03 0.55115182E+02</pdfrwt>
<totfact> 0.51650057E+05</totfact>
</mgrwt>
</event>
<event>
 4    1  0.2051373E-002  0.6415208E+02  0.7818608E-02  0.1381190E+00
          1   -1    0    0    0  501  0.00000000000E+00  0.00000000000E+00  0.49414004798E+03  0.49414004801E+03  0.50400000000E-02 0. -1.
         -1   -1    0    0  501    0 -0.00000000000E+00 -0.00000000000E+00 -0.20821441430E+01  0.20821502429E+01  0.50400000000E-02 0. -1.
          2    1    1    2    0  502 -0.27800124941E+02 -0.12658467588E+02  0.17032434684E+03  0.17304180674E+03  0.25500000000E-02 0. -1.
         -2    1    1    2  502    0  0.27800124941E+02  0.12658467588E+02  0.32173355700E+03  0.32318039151E+03  0.25500000000E-02 0. -1.
<mgrwt>
<rscale>  0 0.64152080E+02</rscale>
<asrwt>0</asrwt>
<pdfrwt beam="1">  1        1 0.76021529E-01 0.64152080E+02</pdfrwt>
<pdfrwt beam="2">  1       -1 0.32033041E-03 0.64152080E+02</pdfrwt>
<totfact> 0.34727290E+05</totfact>
</mgrwt>
</event>
<event>
 4    1  0.2051373E-002  0.6468390E+02  0.7818608E-02  0.1379165E+00
         -1   -1    0    0  501    0 -0.00000000000E+00  0.00000000000E+00  0.43558651672E+03  0.43558651675E+03  0.50400000000E-02 0. -1.
          1   -1    0    0    0  501  0.00000000000E+00 -0.00000000000E+00 -0.24013610834E+01  0.24013663724E+01  0.50400000000E-02 0. -1.
          2    1    1    2    0  502  0.27312904820E+02  0.12201152765E+02  0.13334840325E+03  0.13666257554E+03  0.25500000000E-02 0. -1.
         -2    1    1    2  502    0 -0.27312904820E+02 -0.12201152765E+02  0.29983675239E+03  0.30132530758E+03  0.25500000000E-02 0. -1.
<mgrwt>
<rscale>  0 0.64683898E+02</rscale>
<asrwt>0</asrwt>
<pdfrwt beam="2">  1        1 0.36944095E-03 0.64683898E+02</pdfrwt>
<pdfrwt beam="1">  1       -1 0.67013242E-01 0.64683898E+02</pdfrwt>
<totfact> 0.12373429E+05</totfact>
</mgrwt>
</event>
<event>
 4    1  0.2051373E-002  0.4651667E+02  0.7818608E-02  0.1465090E+00
          1   -1    0    0    0  501  0.00000000000E+00  0.00000000000E+00  0.14479626747E+04  0.14479626747E+04  0.50400000000E-02 0.  1.
         -1   -1    0    0  501    0 -0.00000000000E+00 -0.00000000000E+00 -0.37357695560E+00  0.37361095186E+00  0.50400000000E-02 0.  1.
          2    1    1    2    0  502 -0.40840488921E+01  0.22708444567E+02  0.81508791887E+03  0.81541441514E+03  0.25500000000E-02 0. -1.
         -2    1    1    2  502    0  0.40840488921E+01 -0.22708444567E+02  0.63250117884E+03  0.63292187050E+03  0.25500000000E-02 0. -1.
<mgrwt>
<rscale>  0 0.46516669E+02</rscale>
<asrwt>0</asrwt>
<pdfrwt beam="1">  1        1 0.22276694E+00 0.46516669E+02</pdfrwt>
<pdfrwt beam="2">  1       -1 0.57475104E-04 0.46516669E+02</pdfrwt>
<totfact> 0.63662540E+05</totfact>
</mgrwt>
</event>
<event>
 4    1  0.2051373E-002  0.4323912E+02  0.7818608E-02  0.1485644E+00
          1   -1    0    0    0  501  0.00000000000E+00  0.00000000000E+00  0.53901650722E+03  0.53901650724E+03  0.50400000000E-02 0. -1.
         -1   -1    0    0  501    0 -0.00000000000E+00 -0.00000000000E+00 -0.86713750151E+00  0.86715214820E+00  0.50400000000E-02 0. -1.
          2    1    1    2    0  502 -0.20100314913E+02 -0.67397800220E+00  0.17002640586E+03  0.17121172741E+03  0.25500000000E-02 0. -1.
         -2    1    1    2  502    0  0.20100314913E+02  0.67397800220E+00  0.36812296386E+03  0.36867193198E+03  0.25500000000E-02 0. -1.
<mgrwt>
<rscale>  0 0.43239121E+02</rscale>
<asrwt>0</asrwt>
<pdfrwt beam="1">  1        1 0.82925852E-01 0.43239121E+02</pdfrwt>
<pdfrwt beam="2">  1       -1 0.13340652E-03 0.43239121E+02</pdfrwt>
<totfact> 0.93843396E+05</totfact>
</mgrwt>
</event>
<event>
 4    1  0.2051373E-002  0.4409207E+02  0.7818608E-02  0.1480091E+00
          1   -1    0    0    0  501  0.00000000000E+00  0.00000000000E+00  0.30542519613E+02  0.30542520029E+02  0.50400000000E-02 0. -1.
         -1   -1    0    0  501    0 -0.00000000000E+00 -0.00000000000E+00 -0.15913148655E+02  0.15913149453E+02  0.50400000000E-02 0. -1.
          2    1    1    2    0  502  0.92643937079E+01 -0.20003017608E+02  0.76088895094E+01  0.23320482634E+02  0.25500000000E-02 0.  1.
         -2    1    1    2  502    0 -0.92643937079E+01  0.20003017608E+02  0.70204814493E+01  0.23135186848E+02  0.25500000000E-02 0.  1.
<mgrwt>
<rscale>  0 0.44092071E+02</rscale>
<asrwt>0</asrwt>
<pdfrwt beam="1">  1        1 0.46988492E-02 0.44092071E+02</pdfrwt>
<pdfrwt beam="2">  1       -1 0.24481768E-02 0.44092071E+02</pdfrwt>
<totfact> 0.61445345E+05</totfact>
</mgrwt>
</event>
<event>
 4    1  0.2051373E-002  0.1024722E+03  0.7818608E-02  0.1275181E+00
         -1   -1    0    0  501    0 -0.00000000000E+00  0.00000000000E+00  0.12120559684E+02  0.12120560732E+02  0.50400000000E-02 0.  1.
          1   -1    0    0    0  501  0.00000000000E+00 -0.00000000000E+00 -0.21658565750E+03  0.21658565756E+03  0.50400000000E-02 0.  1.
          2    1    1    2    0  502  0.40363170911E+02 -0.16907470928E+02 -0.16170678871E+03  0.16752353166E+03  0.25500000000E-02 0. -1.
         -2    1    1    2  502    0 -0.40363170911E+02  0.16907470928E+02 -0.42758309115E+02  0.61182686637E+02  0.25500000000E-02 0. -1.
<mgrwt>
<rscale>  0 0.10247223E+03</rscale>
<asrwt>0</asrwt>
<pdfrwt beam="2">  1        1 0.33320868E-01 0.10247223E+03</pdfrwt>
<pdfrwt beam="1">  1       -1 0.18647017E-02 0.10247223E+03</pdfrwt>
<totfact> 0.87768198E+04</totfact>
</mgrwt>
</event>
<event>
 4    1  0.2051373E-002  0.4105347E+02  0.7818608E-02  0.1500599E+00
         -1   -1    0    0  501    0 -0.00000000000E+00  0.00000000000E+00  0.38206905708E+02  0.38206906041E+02  0.50400000000E-02 0.  1.
          1   -1    0    0    0  501  0.00000000000E+00 -0.00000000000E+00 -0.11028025270E+02  0.11028026422E+02  0.50400000000E-02 0.  1.
          2    1    1    2    0  502  0.16471091434E+02  0.11503311807E+02  0.18638388420E+02  0.27404608462E+02  0.25500000000E-02 0.  1.
         -2    1    1    2  502    0 -0.16471091434E+02 -0.11503311807E+02  0.85404920181E+01  0.21830324001E+02  0.25500000000E-02 0.  1.
<mgrwt>
<rscale>  0 0.41053466E+02</rscale>
<asrwt>0</asrwt>
<pdfrwt beam="2">  1        1 0.16966194E-02 0.41053466E+02</pdfrwt>
<pdfrwt beam="1">  1       -1 0.58779856E-02 0.41053466E+02</pdfrwt>
<totfact> 0.67845719E+05</totfact>
</mgrwt>
</event>
<event>
 4    1  0.2051373E-002  0.6182124E+02  0.7818608E-02  0.1390344E+00
          1   -1    0    0    0  501  0.00000000000E+00  0.00000000000E+00  0.23055387728E+01  0.23055442817E+01  0.50400000000E-02 0.  1.
         -1   -1    0    0  501    0 -0.00000000000E+00 -0.00000000000E+00 -0.41442170956E+03  0.41442170959E+03  0.50400000000E-02 0.  1.
          2    1    1    2    0  502  0.13785046483E+02  0.21072778249E+02 -0.85215067339E+02  0.88857735723E+02  0.25500000000E-02 0.  1.
         -2    1    1    2  502    0 -0.13785046483E+02 -0.21072778249E+02 -0.32690110344E+03  0.32786951815E+03  0.25500000000E-02 0.  1.
<mgrwt>
<rscale>  0 0.61821241E+02</rscale>
<asrwt>0</asrwt>
<pdfrwt beam="1">  1        1 0.35469903E-03 0.61821241E+02</pdfrwt>
<pdfrwt beam="2">  1       -1 0.63757127E-01 0.61821241E+02</pdfrwt>
<totfact> 0.14252013E+05</totfact>
</mgrwt>
</event>
<event>
 4    1  0.2051373E-002  0.6533111E+02  0.7818608E-02  0.1376730E+00
         -1   -1    0    0  501    0 -0.00000000000E+00  0.00000000000E+00  0.39421158862E+03  0.39421158865E+03  0.50400000000E-02 0. -1.
          1   -1    0    0    0  501  0.00000000000E+00 -0.00000000000E+00 -0.27067636671E+01  0.27067683593E+01  0.50400000000E-02 0. -1.
          2    1    1    2    0  502  0.32530712651E+02 -0.10189321695E+01  0.17883564534E+03  0.18177313756E+03  0.25500000000E-02 0.  1.
         -2    1    1    2  502    0 -0.32530712651E+02  0.10189321695E+01  0.21266917961E+03  0.21514521945E+03  0.25500000000E-02 0.  1.
<mgrwt>
<rscale>  0 0.65331112E+02</rscale>
<asrwt>0</asrwt>
<pdfrwt beam="2">  1        1 0.41642567E-03 0.65331112E+02</pdfrwt>
<pdfrwt beam="1">  1       -1 0.60647919E-01 0.65331112E+02</pdfrwt>
<totfact> 0.12704303E+05</totfact>
</mgrwt>
</event>
<event>
 4    1  0.2051373E-002  0.1840828E+03  0.7818608E-02  0.1163909E+00
         -1   -1    0    0  501    0 -0.00000000000E+00  0.00000000000E+00  0.42720053345E+02  0.42720053643E+02  0.50400000000E-02 0.  1.
          1   -1    0    0    0  501  0.00000000000E+00 -0.00000000000E+00 -0.19830542495E+03  0.19830542501E+03  0.50400000000E-02 0.  1.
          2    1    1    2    0  502 -0.54115326890E+02  0.70591741081E+02 -0.46809457868E+02  0.10051262540E+03  0.25500000000E-02 0. -1.
         -2    1    1    2  502    0  0.54115326890E+02 -0.70591741081E+02 -0.10877591374E+03  0.14051285325E+03  0.25500000000E-02 0. -1.
<mgrwt>
<rscale>  0 0.18408279E+03</rscale>
<asrwt>0</asrwt>
<pdfrwt beam="2">  1        1 0.30508526E-01 0.18408279E+03</pdfrwt>
<pdfrwt beam="1">  1       -1 0.65723161E-02 0.18408279E+03</pdfrwt>
<totfact> 0.16533856E+04</totfact>
</mgrwt>
</event>
<event>
 4    1  0.2051373E-002  0.4709106E+02  0.7818608E-02  0.1461694E+00
          1   -1    0    0    0  501  0.00000000000E+00  0.00000000000E+00  0.29407209721E+03  0.29407209725E+03  0.50400000000E-02 0. -1.
         -1   -1    0    0  501    0 -0.00000000000E+00 -0.00000000000E+00 -0.18852210173E+01  0.18852277543E+01  0.50400000000E-02 0. -1.
          2    1    1    2    0  502 -0.93178497620E+00 -0.22667388109E+02  0.10648770689E+03  0.10887750196E+03  0.25500000000E-02 0. -1.
         -2    1    1    2  502    0  0.93178497620E+00  0.22667388109E+02  0.18569916930E+03  0.18707982305E+03  0.25500000000E-02 0. -1.
<mgrwt>
<rscale>  0 0.47091057E+02</rscale>
<asrwt>0</asrwt>
<pdfrwt beam="1">  1        1 0.45241880E-01 0.47091057E+02</pdfrwt>
<pdfrwt beam="2">  1       -1 0.29003441E-03 0.47091057E+02</pdfrwt>
<totfact> 0.69809906E+05</totfact>
</mgrwt>
</event>
<event>
 4    1  0.2051373E-002  0.4052594E+02  0.7818608E-02  0.1504376E+00
          1   -1    0    0    0  501  0.00000000000E+00  0.00000000000E+00  0.50264903592E+02  0.50264903845E+02  0.50400000000E-02 0.  1.
         -1   -1    0    0  501    0 -0.00000000000E+00 -0.00000000000E+00 -0.81684824944E+01  0.81684840492E+01  0.50400000000E-02 0.  1.
          2    1    1    2    0  502  0.19815287421E+02 -0.42193778395E+01  0.21586295892E+02  0.29604339914E+02  0.25500000000E-02 0.  1.
         -2    1    1    2  502    0 -0.19815287421E+02  0.42193778395E+01  0.20510125206E+02  0.28829047979E+02  0.25500000000E-02 0.  1.
<mgrwt>
<rscale>  0 0.40525944E+02</rscale>
<asrwt>0</asrwt>
<pdfrwt beam="1">  1        1 0.77330622E-02 0.40525944E+02</pdfrwt>
<pdfrwt beam="2">  1       -1 0.12566898E-02 0.40525944E+02</pdfrwt>
<totfact> 0.79146089E+05</totfact>
</mgrwt>
</event>
<event>
 4    1  0.2051373E-002  0.5688934E+02  0.7818608E-02  0.1411370E+00
         -1   -1    0    0  501    0 -0.00000000000E+00  0.00000000000E+00  0.12901527652E+03  0.12901527662E+03  0.50400000000E-02 0.  1.
          1   -1    0    0    0  501  0.00000000000E+00 -0.00000000000E+00 -0.62713427250E+01  0.62713447502E+01  0.50400000000E-02 0.  1.
          2    1    1    2    0  502 -0.28306987945E+02 -0.10205539746E+01  0.67560450617E+02  0.73258047960E+02  0.25500000000E-02 0. -1.
         -2    1    1    2  502    0  0.28306987945E+02  0.10205539746E+01  0.55183483180E+02  0.62028573410E+02  0.25500000000E-02 0. -1.
<mgrwt>
<rscale>  0 0.56889337E+02</rscale>
<asrwt>0</asrwt>
<pdfrwt beam="2">  1        1 0.96482219E-03 0.56889337E+02</pdfrwt>
<pdfrwt beam="1">  1       -1 0.19848503E-01 0.56889337E+02</pdfrwt>
<totfact> 0.25764842E+05</totfact>
</mgrwt>
</event>
<event>
 4    1  0.2051373E-002  0.4232187E+02  0.7818608E-02  0.1491788E+00
         -1   -1    0    0  501    0 -0.00000000000E+00  0.00000000000E+00  0.39612330251E+00  0.39615536396E+00  0.50400000000E-02 0.  1.
          1   -1    0    0    0  501  0.00000000000E+00 -0.00000000000E+00 -0.11303728158E+04  0.11303728158E+04  0.50400000000E-02 0.  1.
          2    1    1    2    0  502 -0.89068977534E+01  0.19194755428E+02 -0.56811292787E+03  0.56850687796E+03  0.25500000000E-02 0.  1.
         -2    1    1    2  502    0  0.89068977534E+01 -0.19194755428E+02 -0.56186376461E+03  0.56226209320E+03  0.25500000000E-02 0.  1.
<mgrwt>
<rscale>  0 0.42321869E+02</rscale>
<asrwt>0</asrwt>
<pdfrwt beam="2">  1        1 0.17390093E+00 0.42321869E+02</pdfrwt>
<pdfrwt beam="1">  1       -1 0.60945419E-04 0.42321869E+02</pdfrwt>
<totfact> 0.91944418E+05</totfact>
</mgrwt>
</event>
<event>
 4    1  0.2051373E-002  0.6524564E+02  0.7818608E-02  0.1377050E+00
          1   -1    0    0    0  501  0.00000000000E+00  0.00000000000E+00  0.11359075042E+04  0.11359075042E+04  0.50400000000E-02 0. -1.
         -1   -1    0    0  501    0 -0.00000000000E+00 -0.00000000000E+00 -0.93690789154E+00  0.93692144752E+00  0.50400000000E-02 0. -1.
          2    1    1    2    0  502  0.22996212883E+02 -0.96644777068E+01  0.20115678144E+03  0.20269750531E+03  0.25500000000E-02 0.  1.
         -2    1    1    2  502    0 -0.22996212883E+02  0.96644777068E+01  0.93381381486E+03  0.93414692033E+03  0.25500000000E-02 0.  1.
<mgrwt>
<rscale>  0 0.65245641E+02</rscale>
<asrwt>0</asrwt>
<pdfrwt beam="1">  1        1 0.17475512E+00 0.65245641E+02</pdfrwt>
<pdfrwt beam="2">  1       -1 0.14414062E-03 0.65245641E+02</pdfrwt>
<totfact> 0.31132431E+05</totfact>
</mgrwt>
</event>
<event>
 4    1  0.2051373E-002  0.5778978E+02  0.7818608E-02  0.1407348E+00
          1   -1    0    0    0  501  0.00000000000E+00  0.00000000000E+00  0.72271467735E+03  0.72271467737E+03  0.50400000000E-02 0.  1.
         -1   -1    0    0  501    0 -0.00000000000E+00 -0.00000000000E+00 -0.11552426515E+01  0.11552536455E+01  0.50400000000E-02 0.  1.
          2    1    1    2    0  502  0.21405881523E+02  0.19354780911E+02  0.34264743878E+03  0.34386056275E+03  0.25500000000E-02 0.  1.
         -2    1    1    2  502    0 -0.21405881523E+02 -0.19354780911E+02  0.37891199592E+03  0.38000936826E+03  0.25500000000E-02 0.  1.
<mgrwt>
<rscale>  0 0.57789785E+02</rscale>
<asrwt>0</asrwt>
<pdfrwt beam="1">  1        1 0.11118657E+00 0.57789785E+02</pdfrwt>
<pdfrwt beam="2">  1       -1 0.17773097E-03 0.57789785E+02</pdfrwt>
<totfact> 0.46166673E+05</totfact>
</mgrwt>
</event>
<event>
 4    1  0.2051373E-002  0.6320439E+02  0.7818608E-02  0.1384856E+00
         -1   -1    0    0  501    0 -0.00000000000E+00  0.00000000000E+00  0.26372001985E+02  0.26372002467E+02  0.50400000000E-02 0.  1.
          1   -1    0    0    0  501  0.00000000000E+00 -0.00000000000E+00 -0.37869657839E+02  0.37869658175E+02  0.50400000000E-02 0.  1.
          2    1    1    2    0  502  0.12864548305E+02 -0.28013080189E+02 -0.12825084120E+02  0.33387303784E+02  0.25500000000E-02 0.  1.
         -2    1    1    2  502    0 -0.12864548305E+02  0.28013080189E+02  0.13274282658E+01  0.30854356858E+02  0.25500000000E-02 0.  1.
<mgrwt>
<rscale>  0 0.63204390E+02</rscale>
<asrwt>0</asrwt>
<pdfrwt beam="2">  1        1 0.58261013E-02 0.63204390E+02</pdfrwt>
<pdfrwt beam="1">  1       -1 0.40572311E-02 0.63204390E+02</pdfrwt>
<totfact> 0.24591831E+05</totfact>
</mgrwt>
</event>
<event>
 4    1  0.2051373E-002  0.4547864E+02  0.7818608E-02  0.1471376E+00
          1   -1    0    0    0  501  0.00000000000E+00  0.00000000000E+00  0.36069093414E+03  0.36069093417E+03  0.50400000000E-02 0.  1.
         -1   -1    0    0  501    0 -0.00000000000E+00 -0.00000000000E+00 -0.14335681626E+01  0.14335770222E+01  0.50400000000E-02 0.  1.
          2    1    1    2    0  502  0.94232915696E+01 -0.18874366195E+02  0.11204733864E+03  0.11401599110E+03  0.25500000000E-02 0. -1.
         -2    1    1    2  502    0 -0.94232915696E+01  0.18874366195E+02  0.24721002733E+03  0.24810852010E+03  0.25500000000E-02 0. -1.
<mgrwt>
<rscale>  0 0.45478639E+02</rscale>
<asrwt>0</asrwt>
<pdfrwt beam="1">  1        1 0.55490901E-01 0.45478639E+02</pdfrwt>
<pdfrwt beam="2">  1       -1 0.22054968E-03 0.45478639E+02</pdfrwt>
<totfact> 0.78724940E+05</totfact>
</mgrwt>
</event>
<event>
 4    1  0.2051373E-002  0.6062479E+02  0.7818608E-02  0.1395228E+00
         -1   -1    0    0  501    0 -0.00000000000E+00  0.00000000000E+00  0.24790529062E+01  0.24790580295E+01  0.50400000000E-02 0. -1.
          1   -1    0    0    0  501  0.00000000000E+00 -0.00000000000E+00 -0.37064170723E+03  0.37064170726E+03  0.50400000000E-02 0. -1.
          2    1    1    2    0  502 -0.13541597108E+02 -0.14797227756E+02 -0.44207030779E+02  0.48544766744E+02  0.25500000000E-02 0.  1.
         -2    1    1    2  502    0  0.13541597108E+02  0.14797227756E+02 -0.32395562355E+03  0.32457599855E+03  0.25500000000E-02 0.  1.
<mgrwt>
<rscale>  0 0.60624792E+02</rscale>
<asrwt>0</asrwt>
<pdfrwt beam="2">  1        1 0.57021757E-01 0.60624792E+02</pdfrwt>
<pdfrwt beam="1">  1       -1 0.38139345E-03 0.60624792E+02</pdfrwt>
<totfact> 0.38500816E+05</totfact>
</mgrwt>
</event>
<event>
 4    1  0.2051373E-002  0.5207500E+02  0.7818608E-02  0.1434460E+00
         -1   -1    0    0  501    0 -0.00000000000E+00  0.00000000000E+00  0.38971130245E+00  0.38974389136E+00  0.50400000000E-02 0. -1.
          1   -1    0    0    0  501  0.00000000000E+00 -0.00000000000E+00 -0.17395517608E+04  0.17395517608E+04  0.50400000000E-02 0. -1.
          2    1    1    2    0  502 -0.16128793346E+02  0.13322509337E+02 -0.13875503680E+04  0.13877080568E+04  0.25500000000E-02 0.  1.
         -2    1    1    2  502    0  0.16128793346E+02 -0.13322509337E+02 -0.35161168146E+03  0.35223344784E+03  0.25500000000E-02 0.  1.
<mgrwt>
<rscale>  0 0.52074997E+02</rscale>
<asrwt>0</asrwt>
<pdfrwt beam="2">  1        1 0.26761713E+00 0.52074997E+02</pdfrwt>
<pdfrwt beam="1">  1       -1 0.59959485E-04 0.52074997E+02</pdfrwt>
<totfact> 0.40642482E+05</totfact>
</mgrwt>
</event>
<event>
 4    1  0.2051373E-002  0.6486043E+02  0.7818608E-02  0.1378497E+00
         -1   -1    0    0  501    0 -0.00000000000E+00  0.00000000000E+00  0.72638494886E+02  0.72638495061E+02  0.50400000000E-02 0.  1.
          1   -1    0    0    0  501  0.00000000000E+00 -0.00000000000E+00 -0.14478805856E+02  0.14478806733E+02  0.50400000000E-02 0.  1.
          2    1    1    2    0  502 -0.28017228601E+02 -0.42140332327E+01  0.78854801993E+01  0.29409249889E+02  0.25500000000E-02 0.  1.
         -2    1    1    2  502    0  0.28017228601E+02  0.42140332327E+01  0.50274208831E+02  0.57708051905E+02  0.25500000000E-02 0.  1.
<mgrwt>
<rscale>  0 0.64860426E+02</rscale>
<asrwt>0</asrwt>
<pdfrwt beam="2">  1        1 0.22275087E-02 0.64860426E+02</pdfrwt>
<pdfrwt beam="1">  1       -1 0.11175153E-01 0.64860426E+02</pdfrwt>
<totfact> 0.20409822E+05</totfact>
</mgrwt>
</event>
<event>
 4    1  0.2051373E-002  0.6058106E+02  0.7818608E-02  0.1395409E+00
          1   -1    0    0    0  501  0.00000000000E+00  0.00000000000E+00  0.68999810850E+01  0.68999829257E+01  0.50400000000E-02 0.  1.
         -1   -1    0    0  501    0 -0.00000000000E+00 -0.00000000000E+00 -0.13297369267E+03  0.13297369276E+03  0.50400000000E-02 0.  1.
          2    1    1    2    0  502  0.39864717645E+01  0.28995220556E+02 -0.81055101349E+02  0.86177399783E+02  0.25500000000E-02 0.  1.
         -2    1    1    2  502    0 -0.39864717645E+01 -0.28995220556E+02 -0.45018610234E+02  0.53696275905E+02  0.25500000000E-02 0.  1.
<mgrwt>
<rscale>  0 0.60581056E+02</rscale>
<asrwt>0</asrwt>
<pdfrwt beam="1">  1        1 0.10615358E-02 0.60581056E+02</pdfrwt>
<pdfrwt beam="2">  1       -1 0.20457489E-01 0.60581056E+02</pdfrwt>
<totfact> 0.21866239E+05</totfact>
</mgrwt>
</event>
<event>
 4    1  0.2051373E-002  0.5496871E+02  0.7818608E-02  0.1420247E+00
          1   -1    0    0    0  501  0.00000000000E+00  0.00000000000E+00  0.92989833512E+03  0.92989833513E+03  0.50400000000E-02 0. -1.
         -1   -1    0    0  501    0 -0.00000000000E+00 -0.00000000000E+00 -0.81232799648E+00  0.81234363139E+00  0.50400000000E-02 0. -1.
          2    1    1    2    0  502 -0.16278488976E+02 -0.18714312420E+02  0.26407987777E+03  0.26524214699E+03  0.25500000000E-02 0. -1.
         -2    1    1    2  502    0  0.16278488976E+02  0.18714312420E+02  0.66500612935E+03  0.66546853177E+03  0.25500000000E-02 0. -1.
<mgrwt>
<rscale>  0 0.54968709E+02</rscale>
<asrwt>0</asrwt>
<pdfrwt beam="1">  1        1 0.14306050E+00 0.54968709E+02</pdfrwt>
<pdfrwt beam="2">  1       -1 0.12497542E-03 0.54968709E+02</pdfrwt>
<totfact> 0.50952426E+05</totfact>
</mgrwt>
</event>
<event>
 4    1  0.2051373E-002  0.5200125E+02  0.7818608E-02  0.1434837E+00
          1   -1    0    0    0  501  0.00000000000E+00  0.00000000000E+00  0.39780057564E+03  0.39780057567E+03  0.50400000000E-02 0.  1.
         -1   -1    0    0  501    0 -0.00000000000E+00 -0.00000000000E+00 -0.16994220082E+01  0.16994294818E+01  0.50400000000E-02 0.  1.
          2    1    1    2    0  502  0.23334953550E+02  0.62887300584E+01  0.27172432622E+03  0.27279695315E+03  0.25500000000E-02 0. -1.
         -2    1    1    2  502    0 -0.23334953550E+02 -0.62887300584E+01  0.12437682741E+03  0.12670305200E+03  0.25500000000E-02 0. -1.
<mgrwt>
<rscale>  0 0.52001252E+02</rscale>
<asrwt>0</asrwt>
<pdfrwt beam="1">  1        1 0.61200164E-01 0.52001252E+02</pdfrwt>
<pdfrwt beam="2">  1       -1 0.26144980E-03 0.52001252E+02</pdfrwt>
<totfact> 0.57333809E+05</totfact>
</mgrwt>
</event>
<event>
 4    1  0.2051373E-002  0.4850700E+02  0.7818608E-02  0.1453565E+00
         -1   -1    0    0  501    0 -0.00000000000E+00  0.00000000000E+00  0.76460406305E+03  0.76460406307E+03  0.50400000000E-02 0.  1.
          1   -1    0    0    0  501  0.00000000000E+00 -0.00000000000E+00 -0.76932100672E+00  0.76933751564E+00  0.50400000000E-02 0.  1.
          2    1    1    2    0  502  0.15915872088E+02  0.17036879349E+02  0.48736534268E+03  0.48792268598E+03  0.25500000000E-02 0. -1.
         -2    1    1    2  502    0 -0.15915872088E+02 -0.17036879349E+02  0.27646939937E+03  0.27745071460E+03  0.25500000000E-02 0. -1.
<mgrwt>
<rscale>  0 0.48507001E+02</rscale>
<asrwt>0</asrwt>
<pdfrwt beam="2">  1        1 0.11835797E-03 0.48507001E+02</pdfrwt>
<pdfrwt beam="1">  1       -1 0.11763177E+00 0.48507001E+02</pdfrwt>
<totfact> 0.17049680E+05</totfact>
</mgrwt>
</event>
<event>
 4    1  0.2051373E-002  0.4785604E+02  0.7818608E-02  0.1457261E+00
         -1   -1    0    0  501    0 -0.00000000000E+00  0.00000000000E+00  0.23279822130E+02  0.23279822676E+02  0.50400000000E-02 0.  1.
          1   -1    0    0    0  501  0.00000000000E+00 -0.00000000000E+00 -0.24594263167E+02  0.24594263683E+02  0.50400000000E-02 0.  1.
          2    1    1    2    0  502  0.12825613719E+02 -0.15718212108E+02 -0.13350249539E+02  0.24285545668E+02  0.25500000000E-02 0.  1.
         -2    1    1    2  502    0 -0.12825613719E+02  0.15718212108E+02  0.12035808502E+02  0.23588540691E+02  0.25500000000E-02 0.  1.
<mgrwt>
<rscale>  0 0.47856038E+02</rscale>
<asrwt>0</asrwt>
<pdfrwt beam="2">  1        1 0.37837329E-02 0.47856038E+02</pdfrwt>
<pdfrwt beam="1">  1       -1 0.35815111E-02 0.47856038E+02</pdfrwt>
<totfact> 0.48928172E+05</totfact>
</mgrwt>
</event>
<event>
 4    1  0.2051373E-002  0.5001668E+02  0.7818608E-02  0.1445252E+00
          1   -1    0    0    0  501  0.00000000000E+00  0.00000000000E+00  0.68491135278E+03  0.68491135280E+03  0.50400000000E-02 0. -1.
         -1   -1    0    0  501    0 -0.00000000000E+00 -0.00000000000E+00 -0.91312866907E+00  0.91314257807E+00  0.50400000000E-02 0. -1.
          2    1    1    2    0  502  0.22744963721E+02  0.68152766397E+01  0.23434913298E+03  0.23554892805E+03  0.25500000000E-02 0. -1.
         -2    1    1    2  502    0 -0.22744963721E+02 -0.68152766397E+01  0.44964909113E+03  0.45027556733E+03  0.25500000000E-02 0. -1.
<mgrwt>
<rscale>  0 0.50016676E+02</rscale>
<asrwt>0</asrwt>
<pdfrwt beam="1">  1        1 0.10537094E+00 0.50016676E+02</pdfrwt>
<pdfrwt beam="2">  1       -1 0.14048246E-03 0.50016676E+02</pdfrwt>
<totfact> 0.66312119E+05</totfact>
</mgrwt>
</event>
<event>
 4    1  0.2051373E-002  0.4975940E+02  0.7818608E-02  0.1446644E+00
         -1   -1    0    0  501    0 -0.00000000000E+00  0.00000000000E+00  0.22136993200E+01  0.22137050573E+01  0.50400000000E-02 0.  1.
          1   -1    0    0    0  501  0.00000000000E+00 -0.00000000000E+00 -0.27962187370E+03  0.27962187374E+03  0.50400000000E-02 0.  1.
          2    1    1    2    0  502  0.52200688766E+00 -0.22506647176E+02 -0.19869345780E+03  0.19996477649E+03  0.25500000000E-02 0.  1.
         -2    1    1    2  502    0 -0.52200688766E+00  0.22506647176E+02 -0.78714716580E+02  0.81870802311E+02  0.25500000000E-02 0.  1.
<mgrwt>
<rscale>  0 0.49759404E+02</rscale>
<asrwt>0</asrwt>
<pdfrwt beam="2">  1        1 0.43018722E-01 0.49759404E+02</pdfrwt>
<pdfrwt beam="1">  1       -1 0.34056979E-03 0.49759404E+02</pdfrwt>
<totfact> 0.60340030E+05</totfact>
</mgrwt>
</event>
<event>
 4    1  0.2051373E-002  0.4314591E+02  0.7818608E-02  0.1486260E+00
          1   -1    0    0    0  501  0.00000000000E+00  0.00000000000E+00  0.92904013460E+00  0.92905380538E+00  0.50400000000E-02 0. -1.
         -1   -1    0    0  501    0 -0.00000000000E+00 -0.00000000000E+00 -0.50093521227E+03  0.50093521229E+03  0.50400000000E-02 0. -1.
          2    1    1    2    0  502  0.17129907970E+02  0.13033631024E+02 -0.23321513029E+03  0.23420633272E+03  0.25500000000E-02 0. -1.
         -2    1    1    2  502    0 -0.17129907970E+02 -0.13033631024E+02 -0.26679104184E+03  0.26765793338E+03  0.25500000000E-02 0. -1.
<mgrwt>
<rscale>  0 0.43145908E+02</rscale>
<asrwt>0</asrwt>
<pdfrwt beam="1">  1        1 0.14293071E-03 0.43145908E+02</pdfrwt>
<pdfrwt beam="2">  1       -1 0.77066741E-01 0.43145908E+02</pdfrwt>
<totfact> 0.31296176E+05</totfact>
</mgrwt>
</event>
<event>
 4    1  0.2051373E-002  0.5647766E+02  0.7818608E-02  0.1413237E+00
          1   -1    0    0    0  501  0.00000000000E+00  0.00000000000E+00  0.10020463122E+03  0.10020463135E+03  0.50400000000E-02 0.  1.
         -1   -1    0    0  501    0 -0.00000000000E+00 -0.00000000000E+00 -0.79580285818E+01  0.79580301777E+01  0.50400000000E-02 0.  1.
          2    1    1    2    0  502 -0.59222682561E+00  0.27854205887E+02  0.37300364490E+02  0.46556682826E+02  0.25500000000E-02 0. -1.
         -2    1    1    2  502    0  0.59222682561E+00 -0.27854205887E+02  0.54946238147E+02  0.61605978697E+02  0.25500000000E-02 0. -1.
<mgrwt>
<rscale>  0 0.56477656E+02</rscale>
<asrwt>0</asrwt>
<pdfrwt beam="1">  1        1 0.15416098E-01 0.56477656E+02</pdfrwt>
<pdfrwt beam="2">  1       -1 0.12243122E-02 0.56477656E+02</pdfrwt>
<totfact> 0.37045157E+05</totfact>
</mgrwt>
</event>
<event>
 4    1  0.2051373E-002  0.4143802E+02  0.7818608E-02  0.1497888E+00
         -1   -1    0    0  501    0 -0.00000000000E+00  0.00000000000E+00  0.38229980951E+03  0.38229980954E+03  0.50400000000E-02 0.  1.
          1   -1    0    0    0  501  0.00000000000E+00 -0.00000000000E+00 -0.11228758168E+01  0.11228871277E+01  0.50400000000E-02 0.  1.
          2    1    1    2    0  502  0.16840751545E+02  0.11958056880E+02  0.17546527087E+03  0.17667673114E+03  0.25500000000E-02 0. -1.
         -2    1    1    2  502    0 -0.16840751545E+02 -0.11958056880E+02  0.20571166282E+03  0.20674596553E+03  0.25500000000E-02 0. -1.
<mgrwt>
<rscale>  0 0.41438020E+02</rscale>
<asrwt>0</asrwt>
<pdfrwt beam="2">  1        1 0.17275077E-03 0.41438020E+02</pdfrwt>
<pdfrwt beam="1">  1       -1 0.58815435E-01 0.41438020E+02</pdfrwt>
<totfact> 0.40019281E+05</totfact>
</mgrwt>
</event>
<event>
 4    1  0.2051373E-002  0.4136252E+02  0.7818608E-02  0.1498418E+00
         -1   -1    0    0  501    0 -0.00000000000E+00  0.00000000000E+00  0.10476577195E+02  0.10476578407E+02  0.50400000000E-02 0.  1.
          1   -1    0    0    0  501  0.00000000000E+00 -0.00000000000E+00 -0.40825786325E+02  0.40825786636E+02  0.50400000000E-02 0.  1.
          2    1    1    2    0  502  0.18889141809E+02 -0.70243245724E+01 -0.94136704570E+01  0.22243156519E+02  0.25500000000E-02 0.  1.
         -2    1    1    2  502    0 -0.18889141809E+02  0.70243245724E+01 -0.20935538674E+02  0.29059208524E+02  0.25500000000E-02 0.  1.
<mgrwt>
<rscale>  0 0.41362521E+02</rscale>
<asrwt>0</asrwt>
<pdfrwt beam="2">  1        1 0.62808902E-02 0.41362521E+02</pdfrwt>
<pdfrwt beam="1">  1       -1 0.16117812E-02 0.41362521E+02</pdfrwt>
<totfact> 0.73886983E+05</totfact>
</mgrwt>
</event>
<event>
 4    1  0.2051373E-002  0.5494427E+02  0.7818608E-02  0.1420363E+00
          1   -1    0    0    0  501  0.00000000000E+00  0.00000000000E+00  0.13389783013E+03  0.13389783022E+03  0.50400000000E-02 0.  1.
         -1   -1    0    0  501    0 -0.00000000000E+00 -0.00000000000E+00 -0.56365217523E+01  0.56365240056E+01  0.50400000000E-02 0.  1.
          2    1    1    2    0  502  0.16082756524E+02  0.20669117038E+02  0.85203006780E+02  0.89137084468E+02  0.25500000000E-02 0.  1.
         -2    1    1    2  502    0 -0.16082756524E+02 -0.20669117038E+02  0.43058301597E+02  0.50397269762E+02  0.25500000000E-02 0.  1.
<mgrwt>
<rscale>  0 0.54944270E+02</rscale>
<asrwt>0</asrwt>
<pdfrwt beam="1">  1        1 0.20599666E-01 0.54944270E+02</pdfrwt>
<pdfrwt beam="2">  1       -1 0.86715741E-03 0.54944270E+02</pdfrwt>
<totfact> 0.41471093E+05</totfact>
</mgrwt>
</event>
<event>
 4    1  0.2051373E-002  0.8559971E+02  0.7818608E-02  0.1313872E+00
          1   -1    0    0    0  501  0.00000000000E+00  0.00000000000E+00  0.16814939454E+03  0.16814939462E+03  0.50400000000E-02 0. -1.
         -1   -1    0    0  501    0 -0.00000000000E+00 -0.00000000000E+00 -0.10894048282E+02  0.10894049448E+02  0.50400000000E-02 0. -1.
          2    1    1    2    0  502 -0.32848435051E+01 -0.30101250943E+02  0.15359496149E+02  0.33952755906E+02  0.25500000000E-02 0. -1.
         -2    1    1    2  502    0  0.32848435051E+01  0.30101250943E+02  0.14189585011E+03  0.14509068816E+03  0.25500000000E-02 0. -1.
<mgrwt>
<rscale>  0 0.85599713E+02</rscale>
<asrwt>0</asrwt>
<pdfrwt beam="1">  1        1 0.25869138E-01 0.85599713E+02</pdfrwt>
<pdfrwt beam="2">  1       -1 0.16760075E-02 0.85599713E+02</pdfrwt>
<totfact> 0.13564528E+05</totfact>
</mgrwt>
</event>
<event>
 4    1  0.2051373E-002  0.4260831E+02  0.7818608E-02  0.1489850E+00
          1   -1    0    0    0  501  0.00000000000E+00  0.00000000000E+00  0.18118635968E+03  0.18118635975E+03  0.50400000000E-02 0. -1.
         -1   -1    0    0  501    0 -0.00000000000E+00 -0.00000000000E+00 -0.25049707138E+01  0.25049757840E+01  0.50400000000E-02 0. -1.
          2    1    1    2    0  502  0.11847846240E+02  0.17025482956E+02  0.11029687264E+03  0.11223029293E+03  0.25500000000E-02 0. -1.
         -2    1    1    2  502    0 -0.11847846240E+02 -0.17025482956E+02  0.68384516325E+02  0.71461042603E+02  0.25500000000E-02 0. -1.
<mgrwt>
<rscale>  0 0.42608309E+02</rscale>
<asrwt>0</asrwt>
<pdfrwt beam="1">  1        1 0.27874827E-01 0.42608309E+02</pdfrwt>
<pdfrwt beam="2">  1       -1 0.38538048E-03 0.42608309E+02</pdfrwt>
<totfact> 0.82205452E+05</totfact>
</mgrwt>
</event>
<event>
 4    1  0.2051373E-002  0.4482828E+02  0.7818608E-02  0.1475416E+00
          1   -1    0    0    0  501  0.00000000000E+00  0.00000000000E+00  0.19276901590E+02  0.19276902248E+02  0.50400000000E-02 0.  1.
         -1   -1    0    0  501    0 -0.00000000000E+00 -0.00000000000E+00 -0.26061953848E+02  0.26061954335E+02  0.50400000000E-02 0.  1.
          2    1    1    2    0  502  0.10554806523E+02 -0.19148385506E+02  0.15961091357E+01  0.21922868861E+02  0.25500000000E-02 0. -1.
         -2    1    1    2  502    0 -0.10554806523E+02  0.19148385506E+02 -0.83811613942E+01  0.23415987723E+02  0.25500000000E-02 0. -1.
<mgrwt>
<rscale>  0 0.44828283E+02</rscale>
<asrwt>0</asrwt>
<pdfrwt beam="1">  1        1 0.29656773E-02 0.44828283E+02</pdfrwt>
<pdfrwt beam="2">  1       -1 0.40095314E-02 0.44828283E+02</pdfrwt>
<totfact> 0.56735190E+05</totfact>
</mgrwt>
</event>
<event>
 4    1  0.2051373E-002  0.8499265E+02  0.7818608E-02  0.1315452E+00
         -1   -1    0    0  501    0 -0.00000000000E+00  0.00000000000E+00  0.14042778077E+04  0.14042778077E+04  0.50400000000E-02 0. -1.
          1   -1    0    0    0  501  0.00000000000E+00 -0.00000000000E+00 -0.12860208326E+01  0.12860307087E+01  0.50400000000E-02 0. -1.
          2    1    1    2    0  502  0.26742131182E+02  0.32731327164E+02  0.77444115714E+03  0.77559369984E+03  0.25500000000E-02 0.  1.
         -2    1    1    2  502    0 -0.26742131182E+02 -0.32731327164E+02  0.62855062972E+03  0.62997013857E+03  0.25500000000E-02 0.  1.
<mgrwt>
<rscale>  0 0.84992646E+02</rscale>
<asrwt>0</asrwt>
<pdfrwt beam="2">  1        1 0.19785019E-03 0.84992646E+02</pdfrwt>
<pdfrwt beam="1">  1       -1 0.21604266E+00 0.84992646E+02</pdfrwt>
<totfact> 0.18745225E+04</totfact>
</mgrwt>
</event>
<event>
 4    1  0.2051373E-002  0.4557590E+02  0.7818608E-02  0.1470778E+00
          1   -1    0    0    0  501  0.00000000000E+00  0.00000000000E+00  0.43559725788E+03  0.43559725791E+03  0.50400000000E-02 0. -1.
         -1   -1    0    0  501    0 -0.00000000000E+00 -0.00000000000E+00 -0.11921296257E+01  0.11921402795E+01  0.50400000000E-02 0. -1.
          2    1    1    2    0  502 -0.20335915538E+02 -0.55350252217E+01  0.13414665570E+03  0.13579216181E+03  0.25500000000E-02 0.  1.
         -2    1    1    2  502    0  0.20335915538E+02  0.55350252217E+01  0.30025847255E+03  0.30099723638E+03  0.25500000000E-02 0.  1.
<mgrwt>
<rscale>  0 0.45575903E+02</rscale>
<asrwt>0</asrwt>
<pdfrwt beam="1">  1        1 0.67014937E-01 0.45575903E+02</pdfrwt>
<pdfrwt beam="2">  1       -1 0.18340545E-03 0.45575903E+02</pdfrwt>
<totfact> 0.80547570E+05</totfact>
</mgrwt>
</event>
<event>
 4    1  0.2051373E-002  0.7024531E+02  0.7818608E-02  0.1359261E+00
          1   -1    0    0    0  501  0.00000000000E+00  0.00000000000E+00  0.25123437258E+02  0.25123437763E+02  0.50400000000E-02 0.  1.
         -1   -1    0    0  501    0 -0.00000000000E+00 -0.00000000000E+00 -0.49101596496E+02  0.49101596755E+02  0.50400000000E-02 0.  1.
          2    1    1    2    0  502  0.29036834563E+02 -0.32975397475E+01 -0.32575938807E+02  0.43763036064E+02  0.25500000000E-02 0. -1.
         -2    1    1    2  502    0 -0.29036834563E+02  0.32975397475E+01  0.85977795688E+01  0.30461998455E+02  0.25500000000E-02 0. -1.
<mgrwt>
<rscale>  0 0.70245310E+02</rscale>
<asrwt>0</asrwt>
<pdfrwt beam="1">  1        1 0.38651443E-02 0.70245310E+02</pdfrwt>
<pdfrwt beam="2">  1       -1 0.75540918E-02 0.70245310E+02</pdfrwt>
<totfact> 0.17602758E+05</totfact>
</mgrwt>
</event>
<event>
 4    1  0.2051373E-002  0.6594204E+02  0.7818608E-02  0.1374463E+00
         -1   -1    0    0  501    0 -0.00000000000E+00  0.00000000000E+00  0.32196327285E+01  0.32196366733E+01  0.50400000000E-02 0. -1.
          1   -1    0    0    0  501  0.00000000000E+00 -0.00000000000E+00 -0.33764336545E+03  0.33764336549E+03  0.50400000000E-02 0. -1.
          2    1    1    2    0  502  0.10016759212E+02 -0.30901879518E+02 -0.19637358535E+03  0.19904232377E+03  0.25500000000E-02 0. -1.
         -2    1    1    2  502    0 -0.10016759212E+02  0.30901879518E+02 -0.13805014737E+03  0.14182067839E+03  0.25500000000E-02 0. -1.
<mgrwt>
<rscale>  0 0.65942045E+02</rscale>
<asrwt>0</asrwt>
<pdfrwt beam="2">  1        1 0.51945106E-01 0.65942045E+02</pdfrwt>
<pdfrwt beam="1">  1       -1 0.49532868E-03 0.65942045E+02</pdfrwt>
<totfact> 0.30567989E+05</totfact>
</mgrwt>
</event>
<event>
 4    1  0.2051373E-002  0.6662967E+02  0.7818608E-02  0.1371944E+00
         -1   -1    0    0  501    0 -0.00000000000E+00  0.00000000000E+00  0.15208732192E+02  0.15208733027E+02  0.50400000000E-02 0.  1.
          1   -1    0    0    0  501  0.00000000000E+00 -0.00000000000E+00 -0.72976387188E+02  0.72976387362E+02  0.50400000000E-02 0.  1.
          2    1    1    2    0  502  0.42280028209E+01 -0.21272062595E+02 -0.62353269947E+02  0.66017474464E+02  0.25500000000E-02 0.  1.
         -2    1    1    2  502    0 -0.42280028209E+01  0.21272062595E+02  0.45856149514E+01  0.22167645926E+02  0.25500000000E-02 0.  1.
<mgrwt>
<rscale>  0 0.66629674E+02</rscale>
<asrwt>0</asrwt>
<pdfrwt beam="2">  1        1 0.11227136E-01 0.66629674E+02</pdfrwt>
<pdfrwt beam="1">  1       -1 0.23398051E-02 0.66629674E+02</pdfrwt>
<totfact> 0.23108762E+05</totfact>
</mgrwt>
</event>
<event>
 4    1  0.2051373E-002  0.1156650E+03  0.7818608E-02  0.1250425E+00
          1   -1    0    0    0  501  0.00000000000E+00  0.00000000000E+00  0.34165244127E+02  0.34165244498E+02  0.50400000000E-02 0.  1.
         -1   -1    0    0  501    0 -0.00000000000E+00 -0.00000000000E+00 -0.97894671223E+02  0.97894671353E+02  0.50400000000E-02 0.  1.
          2    1    1    2    0  502  0.54737456668E+02 -0.96681609366E+01 -0.13634903426E+02  0.57232622658E+02  0.25500000000E-02 0. -1.
         -2    1    1    2  502    0 -0.54737456668E+02  0.96681609366E+01 -0.50094523670E+02  0.74827293193E+02  0.25500000000E-02 0. -1.
<mgrwt>
<rscale>  0 0.11566495E+03</rscale>
<asrwt>0</asrwt>
<pdfrwt beam="1">  1        1 0.52561915E-02 0.11566495E+03</pdfrwt>
<pdfrwt beam="2">  1       -1 0.15060719E-01 0.11566495E+03</pdfrwt>
<totfact> 0.44200687E+04</totfact>
</mgrwt>
</event>
<event>
 4    1  0.2051373E-002  0.5011977E+02  0.7818608E-02  0.1444697E+00
         -1   -1    0    0  501    0 -0.00000000000E+00  0.00000000000E+00  0.10812741889E+02  0.10812743063E+02  0.50400000000E-02 0.  1.
          1   -1    0    0    0  501  0.00000000000E+00 -0.00000000000E+00 -0.58079413011E+02  0.58079413230E+02  0.50400000000E-02 0.  1.
          2    1    1    2    0  502 -0.18056917280E+02  0.17071076023E+02 -0.19174227841E+02  0.31386699700E+02  0.25500000000E-02 0. -1.
         -2    1    1    2  502    0  0.18056917280E+02 -0.17071076023E+02 -0.28092443281E+02  0.37505456593E+02  0.25500000000E-02 0. -1.
<mgrwt>
<rscale>  0 0.50119767E+02</rscale>
<asrwt>0</asrwt>
<pdfrwt beam="2">  1        1 0.89352942E-02 0.50119767E+02</pdfrwt>
<pdfrwt beam="1">  1       -1 0.16634989E-02 0.50119767E+02</pdfrwt>
<totfact> 0.47055238E+05</totfact>
</mgrwt>
</event>
<event>
 4    1  0.2051373E-002  0.7350676E+02  0.7818608E-02  0.1348558E+00
         -1   -1    0    0  501    0 -0.00000000000E+00  0.00000000000E+00  0.52555347008E+00  0.52557763605E+00  0.50400000000E-02 0. -1.
          1   -1    0    0    0  501  0.00000000000E+00 -0.00000000000E+00 -0.25702043089E+04  0.25702043089E+04  0.50400000000E-02 0. -1.
          2    1    1    2    0  502  0.23728867181E+02 -0.27942894883E+02 -0.11926656195E+04  0.11932288735E+04  0.25500000000E-02 0. -1.
         -2    1    1    2  502    0 -0.23728867181E+02  0.27942894883E+02 -0.13770131359E+04  0.13775010130E+04  0.25500000000E-02 0. -1.
<mgrwt>
<rscale>  0 0.73506758E+02</rscale>
<asrwt>0</asrwt>
<pdfrwt beam="2">  1        1 0.39540598E+00 0.73506758E+02</pdfrwt>
<pdfrwt beam="1">  1       -1 0.80858298E-04 0.73506758E+02</pdfrwt>
<totfact> 0.86533758E+04</totfact>
</mgrwt>
</event>
<event>
 4    1  0.2051373E-002  0.4074613E+02  0.7818608E-02  0.1502791E+00
         -1   -1    0    0  501    0 -0.00000000000E+00  0.00000000000E+00  0.26742913316E+02  0.26742913791E+02  0.50400000000E-02 0.  1.
          1   -1    0    0    0  501  0.00000000000E+00 -0.00000000000E+00 -0.15520442295E+02  0.15520443113E+02  0.50400000000E-02 0.  1.
          2    1    1    2    0  502  0.15838706515E+02  0.12776012084E+02  0.66331919161E+01  0.21403045352E+02  0.25500000000E-02 0.  1.
         -2    1    1    2  502    0 -0.15838706515E+02 -0.12776012084E+02  0.45892791054E+01  0.20860311552E+02  0.25500000000E-02 0.  1.
<mgrwt>
<rscale>  0 0.40746135E+02</rscale>
<asrwt>0</asrwt>
<pdfrwt beam="2">  1        1 0.23877605E-02 0.40746135E+02</pdfrwt>
<pdfrwt beam="1">  1       -1 0.41142944E-02 0.40746135E+02</pdfrwt>
<totfact> 0.71210267E+05</totfact>
</mgrwt>
</event>
<event>
 4    1  0.2051373E-002  0.4575553E+02  0.7818608E-02  0.1469679E+00
          1   -1    0    0    0  501  0.00000000000E+00  0.00000000000E+00  0.12064570337E+02  0.12064571390E+02  0.50400000000E-02 0.  1.
         -1   -1    0    0  501    0 -0.00000000000E+00 -0.00000000000E+00 -0.43382575919E+02  0.43382576212E+02  0.50400000000E-02 0.  1.
          2    1    1    2    0  502 -0.70576866600E+01 -0.21193923240E+02 -0.96732297720E+01  0.24342651951E+02  0.25500000000E-02 0. -1.
         -2    1    1    2  502    0  0.70576866600E+01  0.21193923240E+02 -0.21644775810E+02  0.31104495651E+02  0.25500000000E-02 0. -1.
<mgrwt>
<rscale>  0 0.45755532E+02</rscale>
<asrwt>0</asrwt>
<pdfrwt beam="1">  1        1 0.18560879E-02 0.45755532E+02</pdfrwt>
<pdfrwt beam="2">  1       -1 0.66742425E-02 0.45755532E+02</pdfrwt>
<totfact> 0.51539195E+05</totfact>
</mgrwt>
</event>
<event>
 4    1  0.2051373E-002  0.4609547E+02  0.7818608E-02  0.1467616E+00
         -1   -1    0    0  501    0 -0.00000000000E+00  0.00000000000E+00  0.67893770899E+00  0.67895641560E+00  0.50400000000E-02 0. -1.
          1   -1    0    0    0  501  0.00000000000E+00 -0.00000000000E+00 -0.78238520509E+03  0.78238520511E+03  0.50400000000E-02 0. -1.
          2    1    1    2    0  502 -0.11957951142E+01 -0.22136891741E+02 -0.28378066610E+03  0.28464528516E+03  0.25500000000E-02 0. -1.
         -2    1    1    2  502    0  0.11957951142E+01  0.22136891741E+02 -0.49792560128E+03  0.49841887636E+03  0.25500000000E-02 0. -1.
<mgrwt>
<rscale>  0 0.46095473E+02</rscale>
<asrwt>0</asrwt>
<pdfrwt beam="2">  1        1 0.12036624E+00 0.46095473E+02</pdfrwt>
<pdfrwt beam="1">  1       -1 0.10445402E-03 0.46095473E+02</pdfrwt>
<totfact> 0.80713265E+05</totfact>
</mgrwt>
</event>
<event>
 4    1  0.2051373E-002  0.5749516E+02  0.7818608E-02  0.1408654E+00
          1   -1    0    0    0  501  0.00000000000E+00  0.00000000000E+00  0.76719935192E+01  0.76719951746E+01  0.50400000000E-02 0. -1.
         -1   -1    0    0  501    0 -0.00000000000E+00 -0.00000000000E+00 -0.10771949404E+03  0.10771949416E+03  0.50400000000E-02 0. -1.
          2    1    1    2    0  502  0.21692628418E+02  0.13595876512E+02 -0.76268797854E+02  0.80450901290E+02  0.25500000000E-02 0. -1.
         -2    1    1    2  502    0 -0.21692628418E+02 -0.13595876512E+02 -0.23778702669E+02  0.34940588045E+02  0.25500000000E-02 0. -1.
<mgrwt>
<rscale>  0 0.57495160E+02</rscale>
<asrwt>0</asrwt>
<pdfrwt beam="1">  1        1 0.11803069E-02 0.57495160E+02</pdfrwt>
<pdfrwt beam="2">  1       -1 0.16572229E-01 0.57495160E+02</pdfrwt>
<totfact> 0.25955328E+05</totfact>
</mgrwt>
</event>
<event>
 4    1  0.2051373E-002  0.4596476E+02  0.7818608E-02  0.1468407E+00
         -1   -1    0    0  501    0 -0.00000000000E+00  0.00000000000E+00  0.53843588553E+00  0.53845947334E+00  0.50400000000E-02 0. -1.
          1   -1    0    0    0  501  0.00000000000E+00 -0.00000000000E+00 -0.98094922747E+03  0.98094922748E+03  0.50400000000E-02 0. -1.
          2    1    1    2    0  502  0.52243015350E+01  0.21519982094E+02 -0.62146478656E+03  0.62185921550E+03  0.25500000000E-02 0.  1.
         -2    1    1    2  502    0 -0.52243015350E+01 -0.21519982094E+02 -0.35894600502E+03  0.35962847145E+03  0.25500000000E-02 0.  1.
<mgrwt>
<rscale>  0 0.45964762E+02</rscale>
<asrwt>0</asrwt>
<pdfrwt beam="2">  1        1 0.15091384E+00 0.45964762E+02</pdfrwt>
<pdfrwt beam="1">  1       -1 0.82838891E-04 0.45964762E+02</pdfrwt>
<totfact> 0.78507418E+05</totfact>
</mgrwt>
</event>
<event>
 4    1  0.2051373E-002  0.4248716E+02  0.7818608E-02  0.1490667E+00
          1   -1    0    0    0  501  0.00000000000E+00  0.00000000000E+00  0.84117793821E+01  0.84117808920E+01  0.50400000000E-02 0.  1.
         -1   -1    0    0  501    0 -0.00000000000E+00 -0.00000000000E+00 -0.53649734304E+02  0.53649734541E+02  0.50400000000E-02 0.  1.
          2    1    1    2    0  502  0.16066855952E+02  0.13667295732E+02 -0.26300129570E+02  0.33714027566E+02  0.25500000000E-02 0.  1.
         -2    1    1    2  502    0 -0.16066855952E+02 -0.13667295732E+02 -0.18937825352E+02  0.28347487867E+02  0.25500000000E-02 0.  1.
<mgrwt>
<rscale>  0 0.42487164E+02</rscale>
<asrwt>0</asrwt>
<pdfrwt beam="1">  1        1 0.12941201E-02 0.42487164E+02</pdfrwt>
<pdfrwt beam="2">  1       -1 0.82538052E-02 0.42487164E+02</pdfrwt>
<totfact> 0.60354250E+05</totfact>
</mgrwt>
</event>
<event>
 4    1  0.2051373E-002  0.5890772E+02  0.7818608E-02  0.1402474E+00
         -1   -1    0    0  501    0 -0.00000000000E+00  0.00000000000E+00  0.30955975835E+01  0.30956016863E+01  0.50400000000E-02 0. -1.
          1   -1    0    0    0  501  0.00000000000E+00 -0.00000000000E+00 -0.28024615945E+03  0.28024615949E+03  0.50400000000E-02 0. -1.
          2    1    1    2    0  502  0.28882642621E+02  0.22269063281E+01 -0.11295875376E+03  0.11661409098E+03  0.25500000000E-02 0.  1.
         -2    1    1    2  502    0 -0.28882642621E+02 -0.22269063281E+01 -0.16419180810E+03  0.16672767020E+03  0.25500000000E-02 0.  1.
<mgrwt>
<rscale>  0 0.58907722E+02</rscale>
<asrwt>0</asrwt>
<pdfrwt beam="2">  1        1 0.43114774E-01 0.58907722E+02</pdfrwt>
<pdfrwt beam="1">  1       -1 0.47624632E-03 0.58907722E+02</pdfrwt>
<totfact> 0.39459657E+05</totfact>
</mgrwt>
</event>
<event>
 4    1  0.2051373E-002  0.4595099E+02  0.7818608E-02  0.1468491E+00
         -1   -1    0    0  501    0 -0.00000000000E+00  0.00000000000E+00  0.20545175632E+02  0.20545176251E+02  0.50400000000E-02 0. -1.
          1   -1    0    0    0  501  0.00000000000E+00 -0.00000000000E+00 -0.25693299347E+02  0.25693299841E+02  0.50400000000E-02 0. -1.
          2    1    1    2    0  502  0.20759342968E+02  0.90294259171E+01 -0.65219370796E+01  0.23558788649E+02  0.25500000000E-02 0.  1.
         -2    1    1    2  502    0 -0.20759342968E+02 -0.90294259171E+01  0.13738133648E+01  0.22679687443E+02  0.25500000000E-02 0.  1.
<mgrwt>
<rscale>  0 0.45950990E+02</rscale>
<asrwt>0</asrwt>
<pdfrwt beam="2">  1        1 0.39528153E-02 0.45950990E+02</pdfrwt>
<pdfrwt beam="1">  1       -1 0.31607964E-02 0.45950990E+02</pdfrwt>
<totfact> 0.54524368E+05</totfact>
</mgrwt>
</event>
<event>
 4    1  0.2051373E-002  0.4111070E+02  0.7818608E-02  0.1500193E+00
         -1   -1    0    0  501    0 -0.00000000000E+00  0.00000000000E+00  0.24688678783E+02  0.24688679298E+02  0.50400000000E-02 0.  1.
          1   -1    0    0    0  501  0.00000000000E+00 -0.00000000000E+00 -0.17114015206E+02  0.17114015948E+02  0.50400000000E-02 0.  1.
          2    1    1    2    0  502 -0.32248370140E+01  0.20213606333E+02  0.18760683860E+01  0.20555025999E+02  0.25500000000E-02 0. -1.
         -2    1    1    2  502    0  0.32248370140E+01 -0.20213606333E+02  0.56985951912E+01  0.21247669246E+02  0.25500000000E-02 0. -1.
<mgrwt>
<rscale>  0 0.41110702E+02</rscale>
<asrwt>0</asrwt>
<pdfrwt beam="2">  1        1 0.26329255E-02 0.41110702E+02</pdfrwt>
<pdfrwt beam="1">  1       -1 0.37982584E-02 0.41110702E+02</pdfrwt>
<totfact> 0.70150173E+05</totfact>
</mgrwt>
</event>
<event>
 4    1  0.2051373E-002  0.5443702E+02  0.7818608E-02  0.1422780E+00
          1   -1    0    0    0  501  0.00000000000E+00  0.00000000000E+00  0.62617009783E+02  0.62617009986E+02  0.50400000000E-02 0.  1.
         -1   -1    0    0  501    0 -0.00000000000E+00 -0.00000000000E+00 -0.11831404404E+02  0.11831405478E+02  0.50400000000E-02 0.  1.
          2    1    1    2    0  502 -0.91176275287E+01  0.25619717979E+02  0.26979535772E+02  0.38306610892E+02  0.25500000000E-02 0. -1.
         -2    1    1    2  502    0  0.91176275287E+01 -0.25619717979E+02  0.23806069607E+02  0.36141804572E+02  0.25500000000E-02 0. -1.
<mgrwt>
<rscale>  0 0.54437017E+02</rscale>
<asrwt>0</asrwt>
<pdfrwt beam="1">  1        1 0.96333862E-02 0.54437017E+02</pdfrwt>
<pdfrwt beam="2">  1       -1 0.18202162E-02 0.54437017E+02</pdfrwt>
<totfact> 0.38395383E+05</totfact>
</mgrwt>
</event>
<event>
 4    1  0.2051373E-002  0.5336021E+02  0.7818608E-02  0.1428017E+00
         -1   -1    0    0  501    0 -0.00000000000E+00  0.00000000000E+00  0.95521017598E+02  0.95521017731E+02  0.50400000000E-02 0.  1.
          1   -1    0    0    0  501  0.00000000000E+00 -0.00000000000E+00 -0.74520563477E+01  0.74520580520E+01  0.50400000000E-02 0.  1.
          2    1    1    2    0  502 -0.26253584194E+02 -0.42075088923E+01  0.48294988175E+02  0.55130388203E+02  0.25500000000E-02 0. -1.
         -2    1    1    2  502    0  0.26253584194E+02  0.42075088923E+01  0.39773973075E+02  0.47842687579E+02  0.25500000000E-02 0. -1.
<mgrwt>
<rscale>  0 0.53360214E+02</rscale>
<asrwt>0</asrwt>
<pdfrwt beam="2">  1        1 0.11464704E-02 0.53360214E+02</pdfrwt>
<pdfrwt beam="1">  1       -1 0.14695541E-01 0.53360214E+02</pdfrwt>
<totfact> 0.31915042E+05</totfact>
</mgrwt>
</event>
<event>
 4    1  0.2051373E-002  0.4531099E+02  0.7818608E-02  0.1472409E+00
          1   -1    0    0    0  501  0.00000000000E+00  0.00000000000E+00  0.50966792554E+03  0.50966792557E+03  0.50400000000E-02 0. -1.
         -1   -1    0    0  501    0 -0.00000000000E+00 -0.00000000000E+00 -0.10070640265E+01  0.10070766381E+01  0.50400000000E-02 0. -1.
          2    1    1    2    0  502 -0.70641043262E+01  0.21355412193E+02  0.22384548559E+03  0.22497279086E+03  0.25500000000E-02 0.  1.
         -2    1    1    2  502    0  0.70641043262E+01 -0.21355412193E+02  0.28481537592E+03  0.28570221135E+03  0.25500000000E-02 0.  1.
<mgrwt>
<rscale>  0 0.45310990E+02</rscale>
<asrwt>0</asrwt>
<pdfrwt beam="1">  1        1 0.78410555E-01 0.45310990E+02</pdfrwt>
<pdfrwt beam="2">  1       -1 0.15493369E-03 0.45310990E+02</pdfrwt>
<totfact> 0.83257283E+05</totfact>
</mgrwt>
</event>
<event>
 4    1  0.2051373E-002  0.5599290E+02  0.7818608E-02  0.1415461E+00
         -1   -1    0    0  501    0 -0.00000000000E+00  0.00000000000E+00  0.15240572606E+02  0.15240573440E+02  0.50400000000E-02 0. -1.
          1   -1    0    0    0  501  0.00000000000E+00 -0.00000000000E+00 -0.51428587187E+02  0.51428587434E+02  0.50400000000E-02 0. -1.
          2    1    1    2    0  502  0.10289912125E+02  0.19760872701E+02  0.20922427221E+01  0.22377485729E+02  0.25500000000E-02 0. -1.
         -2    1    1    2  502    0 -0.10289912125E+02 -0.19760872701E+02 -0.38280257303E+02  0.44291675145E+02  0.25500000000E-02 0. -1.
<mgrwt>
<rscale>  0 0.55992898E+02</rscale>
<asrwt>0</asrwt>
<pdfrwt beam="2">  1        1 0.79120903E-02 0.55992898E+02</pdfrwt>
<pdfrwt beam="1">  1       -1 0.23447036E-02 0.55992898E+02</pdfrwt>
<totfact> 0.34938642E+05</totfact>
</mgrwt>
</event>
<event>
 4    1  0.2051373E-002  0.5218001E+02  0.7818608E-02  0.1433926E+00
         -1   -1    0    0  501    0 -0.00000000000E+00  0.00000000000E+00  0.29264774290E+01  0.29264817689E+01  0.50400000000E-02 0. -1.
          1   -1    0    0    0  501  0.00000000000E+00 -0.00000000000E+00 -0.23259633046E+03  0.23259633052E+03  0.50400000000E-02 0. -1.
          2    1    1    2    0  502  0.80726889543E+01 -0.24797566554E+02 -0.11833354618E+03  0.12117308188E+03  0.25500000000E-02 0. -1.
         -2    1    1    2  502    0 -0.80726889543E+01  0.24797566554E+02 -0.11133630685E+03  0.11434973041E+03  0.25500000000E-02 0. -1.
<mgrwt>
<rscale>  0 0.52180013E+02</rscale>
<asrwt>0</asrwt>
<pdfrwt beam="2">  1        1 0.35784037E-01 0.52180013E+02</pdfrwt>
<pdfrwt beam="1">  1       -1 0.45022782E-03 0.52180013E+02</pdfrwt>
<totfact> 0.51856420E+05</totfact>
</mgrwt>
</event>
<event>
 4    1  0.2051373E-002  0.4574724E+02  0.7818608E-02  0.1469730E+00
         -1   -1    0    0  501    0 -0.00000000000E+00  0.00000000000E+00  0.98451818884E+00  0.98453108928E+00  0.50400000000E-02 0.  1.
          1   -1    0    0    0  501  0.00000000000E+00 -0.00000000000E+00 -0.53142659570E+03  0.53142659572E+03  0.50400000000E-02 0.  1.
          2    1    1    2    0  502  0.20511723240E+02 -0.83808326723E+01 -0.19914629419E+03  0.20037518719E+03  0.25500000000E-02 0.  1.
         -2    1    1    2  502    0 -0.20511723240E+02  0.83808326723E+01 -0.33129578332E+03  0.33203593962E+03  0.25500000000E-02 0.  1.
<mgrwt>
<rscale>  0 0.45747244E+02</rscale>
<asrwt>0</asrwt>
<pdfrwt beam="2">  1        1 0.81757710E-01 0.45747244E+02</pdfrwt>
<pdfrwt beam="1">  1       -1 0.15146576E-03 0.45747244E+02</pdfrwt>
<totfact> 0.81649131E+05</totfact>
</mgrwt>
</event>
<event>
 4    1  0.2051373E-002  0.4504663E+02  0.7818608E-02  0.1474051E+00
         -1   -1    0    0  501    0 -0.00000000000E+00  0.00000000000E+00  0.51155769146E+01  0.51155793973E+01  0.50400000000E-02 0. -1.
          1   -1    0    0    0  501  0.00000000000E+00 -0.00000000000E+00 -0.99167622770E+02  0.99167622899E+02  0.50400000000E-02 0. -1.
          2    1    1    2    0  502 -0.27301927579E+01  0.21460897252E+02 -0.32517812890E+02  0.39056782062E+02  0.25500000000E-02 0. -1.
         -2    1    1    2  502    0  0.27301927579E+01 -0.21460897252E+02 -0.61534232966E+02  0.65226420234E+02  0.25500000000E-02 0. -1.
<mgrwt>
<rscale>  0 0.45046631E+02</rscale>
<asrwt>0</asrwt>
<pdfrwt beam="2">  1        1 0.15256556E-01 0.45046631E+02</pdfrwt>
<pdfrwt beam="1">  1       -1 0.78701211E-03 0.45046631E+02</pdfrwt>
<totfact> 0.65518432E+05</totfact>
</mgrwt>
</event>
<event>
 4    1  0.2051373E-002  0.4481180E+02  0.7818608E-02  0.1475520E+00
         -1   -1    0    0  501    0 -0.00000000000E+00  0.00000000000E+00  0.30187031702E+02  0.30187032122E+02  0.50400000000E-02 0.  1.
          1   -1    0    0    0  501  0.00000000000E+00 -0.00000000000E+00 -0.16630465520E+02  0.16630466284E+02  0.50400000000E-02 0.  1.
          2    1    1    2    0  502 -0.19809195433E+02 -0.55588484620E+01 -0.24912242224E+01  0.20724652580E+02  0.25500000000E-02 0. -1.
         -2    1    1    2  502    0  0.19809195433E+02  0.55588484620E+01  0.16047790404E+02  0.26092845826E+02  0.25500000000E-02 0. -1.
<mgrwt>
<rscale>  0 0.44811803E+02</rscale>
<asrwt>0</asrwt>
<pdfrwt beam="2">  1        1 0.25585332E-02 0.44811803E+02</pdfrwt>
<pdfrwt beam="1">  1       -1 0.46441588E-02 0.44811803E+02</pdfrwt>
<totfact> 0.56078430E+05</totfact>
</mgrwt>
</event>
<event>
 4    1  0.2051373E-002  0.6902767E+02  0.7818608E-02  0.1363431E+00
         -1   -1    0    0  501    0 -0.00000000000E+00  0.00000000000E+00  0.10348894760E+01  0.10349017486E+01  0.50400000000E-02 0.  1.
          1   -1    0    0    0  501  0.00000000000E+00 -0.00000000000E+00 -0.11510387185E+04  0.11510387185E+04  0.50400000000E-02 0.  1.
          2    1    1    2    0  502 -0.95714622628E+01 -0.33159950281E+02 -0.57335533599E+03  0.57439318982E+03  0.25500000000E-02 0.  1.
         -2    1    1    2  502    0  0.95714622628E+01  0.33159950281E+02 -0.57664849306E+03  0.57768043047E+03  0.25500000000E-02 0.  1.
<mgrwt>
<rscale>  0 0.69027674E+02</rscale>
<asrwt>0</asrwt>
<pdfrwt beam="2">  1        1 0.17708186E+00 0.69027674E+02</pdfrwt>
<pdfrwt beam="1">  1       -1 0.15921563E-03 0.69027674E+02</pdfrwt>
<totfact> 0.26800095E+05</totfact>
</mgrwt>
</event>
<event>
 4    1  0.2051373E-002  0.5006812E+02  0.7818608E-02  0.1444974E+00
          1   -1    0    0    0  501  0.00000000000E+00  0.00000000000E+00  0.71232003334E+00  0.71233786330E+00  0.50400000000E-02 0. -1.
         -1   -1    0    0  501    0 -0.00000000000E+00 -0.00000000000E+00 -0.87979592691E+03  0.87979592693E+03  0.50400000000E-02 0. -1.
          2    1    1    2    0  502 -0.13687052587E+02 -0.14645046809E+02 -0.70327117650E+03  0.70355679267E+03  0.25500000000E-02 0.  1.
         -2    1    1    2  502    0  0.13687052587E+02  0.14645046809E+02 -0.17581243038E+03  0.17695147213E+03  0.25500000000E-02 0.  1.
<mgrwt>
<rscale>  0 0.50068118E+02</rscale>
<asrwt>0</asrwt>
<pdfrwt beam="1">  1        1 0.10958977E-03 0.50068118E+02</pdfrwt>
<pdfrwt beam="2">  1       -1 0.13535235E+00 0.50068118E+02</pdfrwt>
<totfact> 0.13724773E+05</totfact>
</mgrwt>
</event>
<event>
 4    1  0.2051373E-002  0.1149238E+03  0.7818608E-02  0.1251714E+00
          1   -1    0    0    0  501  0.00000000000E+00  0.00000000000E+00  0.61266179928E+02  0.61266180135E+02  0.50400000000E-02 0. -1.
         -1   -1    0    0  501    0 -0.00000000000E+00 -0.00000000000E+00 -0.53893861708E+02  0.53893861944E+02  0.50400000000E-02 0. -1.
          2    1    1    2    0  502 -0.51779207146E+01  0.55532693640E+02  0.17541369712E+02  0.58467004230E+02  0.25500000000E-02 0. -1.
         -2    1    1    2  502    0  0.51779207146E+01 -0.55532693640E+02 -0.10169051492E+02  0.56693037849E+02  0.25500000000E-02 0. -1.
<mgrwt>
<rscale>  0 0.11492382E+03</rscale>
<asrwt>0</asrwt>
<pdfrwt beam="1">  1        1 0.94255661E-02 0.11492382E+03</pdfrwt>
<pdfrwt beam="2">  1       -1 0.82913635E-02 0.11492382E+03</pdfrwt>
<totfact> 0.50289449E+04</totfact>
</mgrwt>
</event>
<event>
 4    1  0.2051373E-002  0.9003978E+02  0.7818608E-02  0.1302755E+00
          1   -1    0    0    0  501  0.00000000000E+00  0.00000000000E+00  0.14916914595E+04  0.14916914595E+04  0.50400000000E-02 0.  1.
         -1   -1    0    0  501    0 -0.00000000000E+00 -0.00000000000E+00 -0.13587148486E+01  0.13587241962E+01  0.50400000000E-02 0.  1.
          2    1    1    2    0  502  0.13996719510E+01 -0.37935787234E+02  0.34385606946E+03  0.34594519731E+03  0.25500000000E-02 0. -1.
         -2    1    1    2  502    0 -0.13996719510E+01  0.37935787234E+02  0.11464766752E+04  0.11471049864E+04  0.25500000000E-02 0. -1.
<mgrwt>
<rscale>  0 0.90039776E+02</rscale>
<asrwt>0</asrwt>
<pdfrwt beam="1">  1        1 0.22949132E+00 0.90039776E+02</pdfrwt>
<pdfrwt beam="2">  1       -1 0.20903347E-03 0.90039776E+02</pdfrwt>
<totfact> 0.11476022E+05</totfact>
</mgrwt>
</event>
<event>
 4    1  0.2051373E-002  0.5639183E+02  0.7818608E-02  0.1413629E+00
          1   -1    0    0    0  501  0.00000000000E+00  0.00000000000E+00  0.21348083473E+03  0.21348083479E+03  0.50400000000E-02 0. -1.
         -1   -1    0    0  501    0 -0.00000000000E+00 -0.00000000000E+00 -0.37240307407E+01  0.37240341512E+01  0.50400000000E-02 0. -1.
          2    1    1    2    0  502  0.97156677632E+01 -0.25526589588E+02  0.13184272161E+03  0.13464213391E+03  0.25500000000E-02 0.  1.
         -2    1    1    2  502    0 -0.97156677632E+01  0.25526589588E+02  0.77914082383E+02  0.82562735034E+02  0.25500000000E-02 0.  1.
<mgrwt>
<rscale>  0 0.56391828E+02</rscale>
<asrwt>0</asrwt>
<pdfrwt beam="1">  1        1 0.32843206E-01 0.56391828E+02</pdfrwt>
<pdfrwt beam="2">  1       -1 0.57292806E-03 0.56391828E+02</pdfrwt>
<totfact> 0.41979238E+05</totfact>
</mgrwt>
</event>
<event>
 4    1  0.2051373E-002  0.6865325E+02  0.7818608E-02  0.1364734E+00
         -1   -1    0    0  501    0 -0.00000000000E+00  0.00000000000E+00  0.41752321735E+01  0.41752352154E+01  0.50400000000E-02 0. -1.
          1   -1    0    0    0  501  0.00000000000E+00 -0.00000000000E+00 -0.28221584820E+03  0.28221584825E+03  0.50400000000E-02 0. -1.
          2    1    1    2    0  502  0.32000345317E+02 -0.10350340856E+02 -0.16766937465E+03  0.17100927126E+03  0.25500000000E-02 0.  1.
         -2    1    1    2  502    0 -0.32000345317E+02  0.10350340856E+02 -0.11037124138E+03  0.11538181220E+03  0.25500000000E-02 0.  1.
<mgrwt>
<rscale>  0 0.68653248E+02</rscale>
<asrwt>0</asrwt>
<pdfrwt beam="2">  1        1 0.43417808E-01 0.68653248E+02</pdfrwt>
<pdfrwt beam="1">  1       -1 0.64234387E-03 0.68653248E+02</pdfrwt>
<totfact> 0.26678109E+05</totfact>
</mgrwt>
</event>
<event>
 4    1  0.2051373E-002  0.6522278E+02  0.7818608E-02  0.1377135E+00
          1   -1    0    0    0  501  0.00000000000E+00  0.00000000000E+00  0.92178653417E+03  0.92178653419E+03  0.50400000000E-02 0. -1.
         -1   -1    0    0  501    0 -0.00000000000E+00 -0.00000000000E+00 -0.11537353881E+01  0.11537463965E+01  0.50400000000E-02 0. -1.
          2    1    1    2    0  502  0.14523478173E+02  0.25392384141E+02  0.66429997772E+03  0.66494373070E+03  0.25500000000E-02 0.  1.
         -2    1    1    2  502    0 -0.14523478173E+02 -0.25392384141E+02  0.25633282106E+03  0.25799654988E+03  0.25500000000E-02 0.  1.
<mgrwt>
<rscale>  0 0.65222782E+02</rscale>
<asrwt>0</asrwt>
<pdfrwt beam="1">  1        1 0.14181297E+00 0.65222782E+02</pdfrwt>
<pdfrwt beam="2">  1       -1 0.17749903E-03 0.65222782E+02</pdfrwt>
<totfact> 0.33104496E+05</totfact>
</mgrwt>
</event>
<event>
 4    1  0.2051373E-002  0.6549394E+02  0.7818608E-02  0.1376123E+00
         -1   -1    0    0  501    0 -0.00000000000E+00  0.00000000000E+00  0.51394511040E+00  0.51396982217E+00  0.50400000000E-02 0.  1.
          1   -1    0    0    0  501  0.00000000000E+00 -0.00000000000E+00 -0.20864838411E+04  0.20864838411E+04  0.50400000000E-02 0.  1.
          2    1    1    2    0  502 -0.15294566970E+02  0.28714677202E+02 -0.92414970589E+03  0.92472219362E+03  0.25500000000E-02 0. -1.
         -2    1    1    2  502    0  0.15294566970E+02 -0.28714677202E+02 -0.11618201901E+04  0.11622756173E+04  0.25500000000E-02 0. -1.
<mgrwt>
<rscale>  0 0.65493937E+02</rscale>
<asrwt>0</asrwt>
<pdfrwt beam="2">  1        1 0.32099073E+00 0.65493937E+02</pdfrwt>
<pdfrwt beam="1">  1       -1 0.79072051E-04 0.65493937E+02</pdfrwt>
<totfact> 0.17740982E+05</totfact>
</mgrwt>
</event>
<event>
 4    1  0.2051373E-002  0.5358436E+02  0.7818608E-02  0.1426915E+00
         -1   -1    0    0  501    0 -0.00000000000E+00  0.00000000000E+00  0.57208889290E+02  0.57208889512E+02  0.50400000000E-02 0. -1.
          1   -1    0    0    0  501  0.00000000000E+00 -0.00000000000E+00 -0.12547368029E+02  0.12547369042E+02  0.50400000000E-02 0. -1.
          2    1    1    2    0  502 -0.19568415225E+02  0.85484835652E+01  0.12664227280E+01  0.21391663767E+02  0.25500000000E-02 0.  1.
         -2    1    1    2  502    0  0.19568415225E+02 -0.85484835652E+01  0.43395098532E+02  0.48364594786E+02  0.25500000000E-02 0.  1.
<mgrwt>
<rscale>  0 0.53584365E+02</rscale>
<asrwt>0</asrwt>
<pdfrwt beam="2">  1        1 0.19303644E-02 0.53584365E+02</pdfrwt>
<pdfrwt beam="1">  1       -1 0.88013676E-02 0.53584365E+02</pdfrwt>
<totfact> 0.33922930E+05</totfact>
</mgrwt>
</event>
<event>
 4    1  0.2051373E-002  0.9521096E+02  0.7818608E-02  0.1290702E+00
         -1   -1    0    0  501    0 -0.00000000000E+00  0.00000000000E+00  0.13799477219E+02  0.13799478139E+02  0.50400000000E-02 0.  1.
          1   -1    0    0    0  501  0.00000000000E+00 -0.00000000000E+00 -0.16422953946E+03  0.16422953954E+03  0.50400000000E-02 0.  1.
          2    1    1    2    0  502  0.46094743697E+02 -0.67760072754E+01 -0.56928614299E+02  0.73562944500E+02  0.25500000000E-02 0. -1.
         -2    1    1    2  502    0 -0.46094743697E+02  0.67760072754E+01 -0.93501447946E+02  0.10446607318E+03  0.25500000000E-02 0. -1.
<mgrwt>
<rscale>  0 0.95210963E+02</rscale>
<asrwt>0</asrwt>
<pdfrwt beam="2">  1        1 0.25266082E-01 0.95210963E+02</pdfrwt>
<pdfrwt beam="1">  1       -1 0.21229967E-02 0.95210963E+02</pdfrwt>
<totfact> 0.10144891E+05</totfact>
</mgrwt>
</event>
<event>
 4    1  0.2051373E-002  0.6399754E+02  0.7818608E-02  0.1381783E+00
         -1   -1    0    0  501    0 -0.00000000000E+00  0.00000000000E+00  0.29271513953E+02  0.29271514387E+02  0.50400000000E-02 0.  1.
          1   -1    0    0    0  501  0.00000000000E+00 -0.00000000000E+00 -0.34980122905E+02  0.34980123268E+02  0.50400000000E-02 0.  1.
          2    1    1    2    0  502 -0.20740346534E+02  0.15283662160E+02  0.16199163299E+02  0.30432962417E+02  0.25500000000E-02 0.  1.
         -2    1    1    2  502    0  0.20740346534E+02 -0.15283662160E+02 -0.21907772251E+02  0.33818675238E+02  0.25500000000E-02 0.  1.
<mgrwt>
<rscale>  0 0.63997537E+02</rscale>
<asrwt>0</asrwt>
<pdfrwt beam="2">  1        1 0.53815574E-02 0.63997537E+02</pdfrwt>
<pdfrwt beam="1">  1       -1 0.45033099E-02 0.63997537E+02</pdfrwt>
<totfact> 0.23577271E+05</totfact>
</mgrwt>
</event>
<event>
 4    1  0.2051373E-002  0.6452859E+02  0.7818608E-02  0.1379754E+00
          1   -1    0    0    0  501  0.00000000000E+00  0.00000000000E+00  0.17222780863E+03  0.17222780871E+03  0.50400000000E-02 0. -1.
         -1   -1    0    0  501    0 -0.00000000000E+00 -0.00000000000E+00 -0.60442298222E+01  0.60442319235E+01  0.50400000000E-02 0. -1.
          2    1    1    2    0  502  0.11931690406E+02 -0.21375277004E+02  0.14115527527E+03  0.14326227503E+03  0.25500000000E-02 0.  1.
         -2    1    1    2  502    0 -0.11931690406E+02  0.21375277004E+02  0.25028303541E+02  0.35009765603E+02  0.25500000000E-02 0.  1.
<mgrwt>
<rscale>  0 0.64528587E+02</rscale>
<asrwt>0</asrwt>
<pdfrwt beam="1">  1        1 0.26496581E-01 0.64528587E+02</pdfrwt>
<pdfrwt beam="2">  1       -1 0.92988187E-03 0.64528587E+02</pdfrwt>
<totfact> 0.28622101E+05</totfact>
</mgrwt>
</event>
<event>
 4    1  0.2051373E-002  0.5810055E+02  0.7818608E-02  0.1405980E+00
          1   -1    0    0    0  501  0.00000000000E+00  0.00000000000E+00  0.22709567435E+03  0.22709567441E+03  0.50400000000E-02 0.  1.
         -1   -1    0    0  501    0 -0.00000000000E+00 -0.00000000000E+00 -0.37161340302E+01  0.37161374480E+01  0.50400000000E-02 0.  1.
          2    1    1    2    0  502  0.23720787216E+02  0.14957030960E+02  0.14182152230E+03  0.14456739852E+03  0.25500000000E-02 0. -1.
         -2    1    1    2  502    0 -0.23720787216E+02 -0.14957030960E+02  0.81558018026E+02  0.86244413339E+02  0.25500000000E-02 0. -1.
<mgrwt>
<rscale>  0 0.58100546E+02</rscale>
<asrwt>0</asrwt>
<pdfrwt beam="1">  1        1 0.34937790E-01 0.58100546E+02</pdfrwt>
<pdfrwt beam="2">  1       -1 0.57171330E-03 0.58100546E+02</pdfrwt>
<totfact> 0.39345042E+05</totfact>
</mgrwt>
</event>
<event>
 4    1  0.2051373E-002  0.6091396E+02  0.7818608E-02  0.1394036E+00
         -1   -1    0    0  501    0 -0.00000000000E+00  0.00000000000E+00  0.86011366270E+00  0.86012842900E+00  0.50400000000E-02 0. -1.
          1   -1    0    0    0  501  0.00000000000E+00 -0.00000000000E+00 -0.10784848377E+04  0.10784848377E+04  0.50400000000E-02 0. -1.
          2    1    1    2    0  502 -0.20718515512E+02 -0.88551656888E+01 -0.17569609625E+03  0.17713494598E+03  0.25500000000E-02 0.  1.
         -2    1    1    2  502    0  0.20718515512E+02  0.88551656888E+01 -0.90192862777E+03  0.90221002014E+03  0.25500000000E-02 0.  1.
<mgrwt>
<rscale>  0 0.60913956E+02</rscale>
<asrwt>0</asrwt>
<pdfrwt beam="2">  1        1 0.16591966E+00 0.60913956E+02</pdfrwt>
<pdfrwt beam="1">  1       -1 0.13232718E-03 0.60913956E+02</pdfrwt>
<totfact> 0.37800959E+05</totfact>
</mgrwt>
</event>
<event>
 4    1  0.2051373E-002  0.4169473E+02  0.7818608E-02  0.1496098E+00
          1   -1    0    0    0  501  0.00000000000E+00  0.00000000000E+00  0.49464174593E+02  0.49464174849E+02  0.50400000000E-02 0.  1.
         -1   -1    0    0  501    0 -0.00000000000E+00 -0.00000000000E+00 -0.87864110919E+01  0.87864125374E+01  0.50400000000E-02 0.  1.
          2    1    1    2    0  502 -0.19283816992E+02 -0.63657846601E+01  0.26924982009E+02  0.33724523345E+02  0.25500000000E-02 0. -1.
         -2    1    1    2  502    0  0.19283816992E+02  0.63657846601E+01  0.13752781492E+02  0.24526064042E+02  0.25500000000E-02 0. -1.
<mgrwt>
<rscale>  0 0.41694730E+02</rscale>
<asrwt>0</asrwt>
<pdfrwt beam="1">  1        1 0.76098730E-02 0.41694730E+02</pdfrwt>
<pdfrwt beam="2">  1       -1 0.13517557E-02 0.41694730E+02</pdfrwt>
<totfact> 0.73644893E+05</totfact>
</mgrwt>
</event>
<event>
 4    1  0.2051373E-002  0.5462428E+02  0.7818608E-02  0.1421884E+00
          1   -1    0    0    0  501  0.00000000000E+00  0.00000000000E+00  0.62930976932E+03  0.62930976934E+03  0.50400000000E-02 0. -1.
         -1   -1    0    0  501    0 -0.00000000000E+00 -0.00000000000E+00 -0.11853456617E+01  0.11853563765E+01  0.50400000000E-02 0. -1.
          2    1    1    2    0  502  0.27306269370E+02 -0.56078937373E+00  0.31496746269E+03  0.31614940992E+03  0.25500000000E-02 0. -1.
         -2    1    1    2  502    0 -0.27306269370E+02  0.56078937373E+00  0.31315696097E+03  0.31434571580E+03  0.25500000000E-02 0. -1.
<mgrwt>
<rscale>  0 0.54624280E+02</rscale>
<asrwt>0</asrwt>
<pdfrwt beam="1">  1        1 0.96816874E-01 0.54624280E+02</pdfrwt>
<pdfrwt beam="2">  1       -1 0.18236172E-03 0.54624280E+02</pdfrwt>
<totfact> 0.53159754E+05</totfact>
</mgrwt>
</event>
<event>
 4    1  0.2051373E-002  0.4293636E+02  0.7818608E-02  0.1487652E+00
         -1   -1    0    0  501    0 -0.00000000000E+00  0.00000000000E+00  0.12913121437E+02  0.12913122420E+02  0.50400000000E-02 0. -1.
          1   -1    0    0    0  501  0.00000000000E+00 -0.00000000000E+00 -0.35691031856E+02  0.35691032212E+02  0.50400000000E-02 0. -1.
          2    1    1    2    0  502  0.74968288631E+01 -0.19685186963E+02 -0.66978063782E+01  0.22103611595E+02  0.25500000000E-02 0.  1.
         -2    1    1    2  502    0 -0.74968288631E+01  0.19685186963E+02 -0.16080104041E+02  0.26500543037E+02  0.25500000000E-02 0.  1.
<mgrwt>
<rscale>  0 0.42936356E+02</rscale>
<asrwt>0</asrwt>
<pdfrwt beam="2">  1        1 0.54909280E-02 0.42936356E+02</pdfrwt>
<pdfrwt beam="1">  1       -1 0.19866342E-02 0.42936356E+02</pdfrwt>
<totfact> 0.66551689E+05</totfact>
</mgrwt>
</event>
<event>
 4    1  0.2051373E-002  0.4580656E+02  0.7818608E-02  0.1469368E+00
          1   -1    0    0    0  501  0.00000000000E+00  0.00000000000E+00  0.63683684578E+01  0.63683704522E+01  0.50400000000E-02 0.  1.
         -1   -1    0    0  501    0 -0.00000000000E+00 -0.00000000000E+00 -0.82369610632E+02  0.82369610786E+02  0.50400000000E-02 0.  1.
          2    1    1    2    0  502  0.21967172772E+02  0.15271842255E+01 -0.50202291633E+02  0.54819331107E+02  0.25500000000E-02 0.  1.
         -2    1    1    2  502    0 -0.21967172772E+02 -0.15271842255E+01 -0.25798950541E+02  0.33918650132E+02  0.25500000000E-02 0.  1.
<mgrwt>
<rscale>  0 0.45806555E+02</rscale>
<asrwt>0</asrwt>
<pdfrwt beam="1">  1        1 0.97974922E-03 0.45806555E+02</pdfrwt>
<pdfrwt beam="2">  1       -1 0.12672247E-01 0.45806555E+02</pdfrwt>
<totfact> 0.47585635E+05</totfact>
</mgrwt>
</event>
<event>
 4    1  0.2051373E-002  0.5852323E+02  0.7818608E-02  0.1404136E+00
         -1   -1    0    0  501    0 -0.00000000000E+00  0.00000000000E+00  0.24056685886E+01  0.24056738682E+01  0.50400000000E-02 0.  1.
          1   -1    0    0    0  501  0.00000000000E+00 -0.00000000000E+00 -0.35592646295E+03  0.35592646299E+03  0.50400000000E-02 0.  1.
          2    1    1    2    0  502  0.11062327721E+02 -0.26686707722E+02 -0.20527406975E+03  0.20729688657E+03  0.25500000000E-02 0.  1.
         -2    1    1    2  502    0 -0.11062327721E+02  0.26686707722E+02 -0.14824672462E+03  0.15103525029E+03  0.25500000000E-02 0.  1.
<mgrwt>
<rscale>  0 0.58523228E+02</rscale>
<asrwt>0</asrwt>
<pdfrwt beam="2">  1        1 0.54757876E-01 0.58523228E+02</pdfrwt>
<pdfrwt beam="1">  1       -1 0.37010355E-03 0.58523228E+02</pdfrwt>
<totfact> 0.41831186E+05</totfact>
</mgrwt>
</event>
<event>
 4    1  0.2051373E-002  0.4347875E+02  0.7818608E-02  0.1484068E+00
         -1   -1    0    0  501    0 -0.00000000000E+00  0.00000000000E+00  0.52167973937E+03  0.52167973939E+03  0.50400000000E-02 0.  1.
          1   -1    0    0    0  501  0.00000000000E+00 -0.00000000000E+00 -0.90591353636E+00  0.90592755613E+00  0.50400000000E-02 0.  1.
          2    1    1    2    0  502 -0.19585637923E+02  0.44535678870E+01  0.36034914679E+03  0.36090849128E+03  0.25500000000E-02 0.  1.
         -2    1    1    2  502    0  0.19585637923E+02 -0.44535678870E+01  0.16042467904E+03  0.16167717567E+03  0.25500000000E-02 0.  1.
<mgrwt>
<rscale>  0 0.43478749E+02</rscale>
<asrwt>0</asrwt>
<pdfrwt beam="2">  1        1 0.13937250E-03 0.43478749E+02</pdfrwt>
<pdfrwt beam="1">  1       -1 0.80258362E-01 0.43478749E+02</pdfrwt>
<totfact> 0.29943012E+05</totfact>
</mgrwt>
</event>
<event>
 4    1  0.2051373E-002  0.5216266E+02  0.7818608E-02  0.1434014E+00
          1   -1    0    0    0  501  0.00000000000E+00  0.00000000000E+00  0.15531024449E+04  0.15531024450E+04  0.50400000000E-02 0. -1.
         -1   -1    0    0  501    0 -0.00000000000E+00 -0.00000000000E+00 -0.43797058119E+00  0.43799957944E+00  0.50400000000E-02 0. -1.
          2    1    1    2    0  502  0.15576561765E+02  0.15537883301E+02  0.11934809387E+04  0.11936837128E+04  0.25500000000E-02 0.  1.
         -2    1    1    2  502    0 -0.15576561765E+02 -0.15537883301E+02  0.35918353564E+03  0.35985673173E+03  0.25500000000E-02 0.  1.
<mgrwt>
<rscale>  0 0.52162658E+02</rscale>
<asrwt>0</asrwt>
<pdfrwt beam="1">  1        1 0.23893901E+00 0.52162658E+02</pdfrwt>
<pdfrwt beam="2">  1       -1 0.67382272E-04 0.52162658E+02</pdfrwt>
<totfact> 0.45249253E+05</totfact>
</mgrwt>
</event>
<event>
 4    1  0.2051373E-002  0.4413219E+02  0.7818608E-02  0.1479833E+00
         -1   -1    0    0  501    0 -0.00000000000E+00  0.00000000000E+00  0.61455237820E+00  0.61457304460E+00  0.50400000000E-02 0. -1.
          1   -1    0    0    0  501  0.00000000000E+00 -0.00000000000E+00 -0.79229107089E+03  0.79229107091E+03  0.50400000000E-02 0. -1.
          2    1    1    2    0  502  0.16634351726E+02 -0.14031881223E+02 -0.46140333973E+03  0.46191626651E+03  0.25500000000E-02 0.  1.
         -2    1    1    2  502    0 -0.16634351726E+02  0.14031881223E+02 -0.33027317878E+03  0.33098937744E+03  0.25500000000E-02 0.  1.
<mgrwt>
<rscale>  0 0.44132191E+02</rscale>
<asrwt>0</asrwt>
<pdfrwt beam="2">  1        1 0.12189012E+00 0.44132191E+02</pdfrwt>
<pdfrwt beam="1">  1       -1 0.94548745E-04 0.44132191E+02</pdfrwt>
<totfact> 0.89703255E+05</totfact>
</mgrwt>
</event>
<event>
 4    1  0.2051373E-002  0.1167330E+03  0.7818608E-02  0.1248586E+00
          1   -1    0    0    0  501  0.00000000000E+00  0.00000000000E+00  0.68452164077E+01  0.68452182631E+01  0.50400000000E-02 0. -1.
         -1   -1    0    0  501    0 -0.00000000000E+00 -0.00000000000E+00 -0.49766864815E+03  0.49766864818E+03  0.50400000000E-02 0. -1.
          2    1    1    2    0  502 -0.30223056009E+02 -0.31950926308E+02 -0.41125032802E+03  0.41359536640E+03  0.25500000000E-02 0.  1.
         -2    1    1    2  502    0  0.30223056009E+02  0.31950926308E+02 -0.79573103728E+02  0.90918500042E+02  0.25500000000E-02 0.  1.
<mgrwt>
<rscale>  0 0.11673303E+03</rscale>
<asrwt>0</asrwt>
<pdfrwt beam="1">  1        1 0.10531107E-02 0.11673303E+03</pdfrwt>
<pdfrwt beam="2">  1       -1 0.76564379E-01 0.11673303E+03</pdfrwt>
<totfact> 0.24528809E+04</totfact>
</mgrwt>
</event>
<event>
 4    1  0.2051373E-002  0.4288556E+02  0.7818608E-02  0.1487990E+00
          1   -1    0    0    0  501  0.00000000000E+00  0.00000000000E+00  0.47319932247E+03  0.47319932250E+03  0.50400000000E-02 0.  1.
         -1   -1    0    0  501    0 -0.00000000000E+00 -0.00000000000E+00 -0.97166166500E+00  0.97167473613E+00  0.50400000000E-02 0.  1.
          2    1    1    2    0  502  0.17510047471E+02  0.98263267245E+01  0.15290610907E+03  0.15421879476E+03  0.25500000000E-02 0. -1.
         -2    1    1    2  502    0 -0.17510047471E+02 -0.98263267245E+01  0.31932155173E+03  0.31995220247E+03  0.25500000000E-02 0. -1.
<mgrwt>
<rscale>  0 0.42885557E+02</rscale>
<asrwt>0</asrwt>
<pdfrwt beam="1">  1        1 0.72800111E-01 0.42885557E+02</pdfrwt>
<pdfrwt beam="2">  1       -1 0.14948698E-03 0.42885557E+02</pdfrwt>
<totfact> 0.94471043E+05</totfact>
</mgrwt>
</event>
<event>
 4    1  0.2051373E-002  0.5285459E+02  0.7818608E-02  0.1430526E+00
          1   -1    0    0    0  501  0.00000000000E+00  0.00000000000E+00  0.13493656272E+01  0.13493750395E+01  0.50400000000E-02 0. -1.
         -1   -1    0    0  501    0 -0.00000000000E+00 -0.00000000000E+00 -0.51757623495E+03  0.51757623498E+03  0.50400000000E-02 0. -1.
          2    1    1    2    0  502  0.12913630860E+02  0.17312017306E+02 -0.40763532375E+03  0.40820708591E+03  0.25500000000E-02 0. -1.
         -2    1    1    2  502    0 -0.12913630860E+02 -0.17312017306E+02 -0.10859154557E+03  0.11071852411E+03  0.25500000000E-02 0. -1.
<mgrwt>
<rscale>  0 0.52854594E+02</rscale>
<asrwt>0</asrwt>
<pdfrwt beam="1">  1        1 0.20759585E-03 0.52854594E+02</pdfrwt>
<pdfrwt beam="2">  1       -1 0.79626955E-01 0.52854594E+02</pdfrwt>
<totfact> 0.18599177E+05</totfact>
</mgrwt>
</event>
<event>
 4    1  0.2051373E-002  0.4088192E+02  0.7818608E-02  0.1501820E+00
         -1   -1    0    0  501    0 -0.00000000000E+00  0.00000000000E+00  0.13527698339E+02  0.13527699278E+02  0.50400000000E-02 0. -1.
          1   -1    0    0    0  501  0.00000000000E+00 -0.00000000000E+00 -0.30887201920E+02  0.30887202331E+02  0.50400000000E-02 0. -1.
          2    1    1    2    0  502 -0.38955197505E+01 -0.19882678192E+02 -0.57370177501E+01  0.21057287228E+02  0.25500000000E-02 0.  1.
         -2    1    1    2  502    0  0.38955197505E+01  0.19882678192E+02 -0.11622485831E+02  0.23357614382E+02  0.25500000000E-02 0.  1.
<mgrwt>
<rscale>  0 0.40881917E+02</rscale>
<asrwt>0</asrwt>
<pdfrwt beam="2">  1        1 0.47518773E-02 0.40881917E+02</pdfrwt>
<pdfrwt beam="1">  1       -1 0.20811845E-02 0.40881917E+02</pdfrwt>
<totfact> 0.74403984E+05</totfact>
</mgrwt>
</event>
<event>
 4    1  0.2051373E-002  0.5397778E+02  0.7818608E-02  0.1424996E+00
          1   -1    0    0    0  501  0.00000000000E+00  0.00000000000E+00  0.12565563438E+04  0.12565563438E+04  0.50400000000E-02 0.  1.
         -1   -1    0    0  501    0 -0.00000000000E+00 -0.00000000000E+00 -0.57966862456E+00  0.57969053460E+00  0.50400000000E-02 0.  1.
          2    1    1    2    0  502  0.47434706000E+01  0.24772426978E+02  0.85165174522E+03  0.85202515738E+03  0.25500000000E-02 0. -1.
         -2    1    1    2  502    0 -0.47434706000E+01 -0.24772426978E+02  0.40432492991E+03  0.40511087693E+03  0.25500000000E-02 0. -1.
<mgrwt>
<rscale>  0 0.53977776E+02</rscale>
<asrwt>0</asrwt>
<pdfrwt beam="1">  1        1 0.19331721E+00 0.53977776E+02</pdfrwt>
<pdfrwt beam="2">  1       -1 0.89181084E-04 0.53977776E+02</pdfrwt>
<totfact> 0.48027256E+05</totfact>
</mgrwt>
</event>
<event>
 4    1  0.2051373E-002  0.4370900E+02  0.7818608E-02  0.1482566E+00
         -1   -1    0    0  501    0 -0.00000000000E+00  0.00000000000E+00  0.62199408576E+03  0.62199408578E+03  0.50400000000E-02 0.  1.
          1   -1    0    0    0  501  0.00000000000E+00 -0.00000000000E+00 -0.76787561740E+00  0.76789215740E+00  0.50400000000E-02 0.  1.
          2    1    1    2    0  502  0.18550759198E+02 -0.97873806183E+01  0.39809081692E+03  0.39864297561E+03  0.25500000000E-02 0. -1.
         -2    1    1    2  502    0 -0.18550759198E+02  0.97873806183E+01  0.22313539322E+03  0.22411900232E+03  0.25500000000E-02 0. -1.
<mgrwt>
<rscale>  0 0.43709004E+02</rscale>
<asrwt>0</asrwt>
<pdfrwt beam="2">  1        1 0.11813621E-03 0.43709004E+02</pdfrwt>
<pdfrwt beam="1">  1       -1 0.95691219E-01 0.43709004E+02</pdfrwt>
<totfact> 0.26154671E+05</totfact>
</mgrwt>
</event>
<event>
 4    1  0.2051373E-002  0.7169540E+02  0.7818608E-02  0.1354421E+00
         -1   -1    0    0  501    0 -0.00000000000E+00  0.00000000000E+00  0.74249908891E+03  0.74249908892E+03  0.50400000000E-02 0. -1.
          1   -1    0    0    0  501  0.00000000000E+00 -0.00000000000E+00 -0.17307155928E+01  0.17307229312E+01  0.50400000000E-02 0. -1.
          2    1    1    2    0  502 -0.24380157494E+02  0.23276048148E+02  0.49704725071E+03  0.49818885570E+03  0.25500000000E-02 0.  1.
         -2    1    1    2  502    0  0.24380157494E+02 -0.23276048148E+02  0.24372112261E+03  0.24604095616E+03  0.25500000000E-02 0.  1.
<mgrwt>
<rscale>  0 0.71695397E+02</rscale>
<asrwt>0</asrwt>
<pdfrwt beam="2">  1        1 0.26626376E-03 0.71695397E+02</pdfrwt>
<pdfrwt beam="1">  1       -1 0.11423095E+00 0.71695397E+02</pdfrwt>
<totfact> 0.65388482E+04</totfact>
</mgrwt>
</event>
<event>
 4    1  0.2051373E-002  0.8401596E+02  0.7818608E-02  0.1318026E+00
          1   -1    0    0    0  501  0.00000000000E+00  0.00000000000E+00  0.44425441164E+02  0.44425441450E+02  0.50400000000E-02 0.  1.
         -1   -1    0    0  501    0 -0.00000000000E+00 -0.00000000000E+00 -0.39722067803E+02  0.39722068123E+02  0.50400000000E-02 0.  1.
          2    1    1    2    0  502 -0.20271334798E+02 -0.33743690942E+02  0.17041167641E+02  0.42894814302E+02  0.25500000000E-02 0.  1.
         -2    1    1    2  502    0  0.20271334798E+02  0.33743690942E+02 -0.12337794280E+02  0.41252695271E+02  0.25500000000E-02 0.  1.
<mgrwt>
<rscale>  0 0.84015961E+02</rscale>
<asrwt>0</asrwt>
<pdfrwt beam="1">  1        1 0.68346833E-02 0.84015961E+02</pdfrwt>
<pdfrwt beam="2">  1       -1 0.61110874E-02 0.84015961E+02</pdfrwt>
<totfact> 0.11572135E+05</totfact>
</mgrwt>
</event>
<event>
 4    1  0.2051373E-002  0.6305498E+02  0.7818608E-02  0.1385441E+00
         -1   -1    0    0  501    0 -0.00000000000E+00  0.00000000000E+00  0.13870869133E+02  0.13870870049E+02  0.50400000000E-02 0. -1.
          1   -1    0    0    0  501  0.00000000000E+00 -0.00000000000E+00 -0.71659708435E+02  0.71659708612E+02  0.50400000000E-02 0. -1.
          2    1    1    2    0  502  0.30769730748E+01  0.30163882704E+02 -0.17174322998E+02  0.34846591800E+02  0.25500000000E-02 0. -1.
         -2    1    1    2  502    0 -0.30769730748E+01 -0.30163882704E+02 -0.40614516304E+02  0.50683986862E+02  0.25500000000E-02 0. -1.
<mgrwt>
<rscale>  0 0.63054976E+02</rscale>
<asrwt>0</asrwt>
<pdfrwt beam="2">  1        1 0.11024570E-01 0.63054976E+02</pdfrwt>
<pdfrwt beam="1">  1       -1 0.21339800E-02 0.63054976E+02</pdfrwt>
<totfact> 0.26649857E+05</totfact>
</mgrwt>
</event>
<event>
 4    1  0.2051373E-002  0.4843461E+02  0.7818608E-02  0.1453972E+00
          1   -1    0    0    0  501  0.00000000000E+00  0.00000000000E+00  0.39487023965E+01  0.39487056130E+01  0.50400000000E-02 0.  1.
         -1   -1    0    0  501    0 -0.00000000000E+00 -0.00000000000E+00 -0.14852414049E+03  0.14852414058E+03  0.50400000000E-02 0.  1.
          2    1    1    2    0  502 -0.19113543166E+02 -0.14845884057E+02 -0.69561333421E+02  0.73651251989E+02  0.25500000000E-02 0.  1.
         -2    1    1    2  502    0  0.19113543166E+02  0.14845884057E+02 -0.75014104676E+02  0.78821594203E+02  0.25500000000E-02 0.  1.
<mgrwt>
<rscale>  0 0.48434611E+02</rscale>
<asrwt>0</asrwt>
<pdfrwt beam="1">  1        1 0.60749305E-03 0.48434611E+02</pdfrwt>
<pdfrwt beam="2">  1       -1 0.22849864E-01 0.48434611E+02</pdfrwt>
<totfact> 0.37329026E+05</totfact>
</mgrwt>
</event>
<event>
 4    1  0.2051373E-002  0.4600268E+02  0.7818608E-02  0.1468177E+00
          1   -1    0    0    0  501  0.00000000000E+00  0.00000000000E+00  0.80602101036E+02  0.80602101194E+02  0.50400000000E-02 0.  1.
         -1   -1    0    0  501    0 -0.00000000000E+00 -0.00000000000E+00 -0.65638666189E+01  0.65638685539E+01  0.50400000000E-02 0.  1.
          2    1    1    2    0  502 -0.22906281932E+02 -0.10810066503E+01  0.33632136281E+02  0.40706104268E+02  0.25500000000E-02 0.  1.
         -2    1    1    2  502    0  0.22906281932E+02  0.10810066503E+01  0.40406098136E+02  0.46459865480E+02  0.25500000000E-02 0.  1.
<mgrwt>
<rscale>  0 0.46002675E+02</rscale>
<asrwt>0</asrwt>
<pdfrwt beam="1">  1        1 0.12400323E-01 0.46002675E+02</pdfrwt>
<pdfrwt beam="2">  1       -1 0.10098258E-02 0.46002675E+02</pdfrwt>
<totfact> 0.60590954E+05</totfact>
</mgrwt>
</event>
<event>
 4    1  0.2051373E-002  0.8258754E+02  0.7818608E-02  0.1321865E+00
          1   -1    0    0    0  501  0.00000000000E+00  0.00000000000E+00  0.14366279192E+01  0.14366367599E+01  0.50400000000E-02 0. -1.
         -1   -1    0    0  501    0 -0.00000000000E+00 -0.00000000000E+00 -0.11869253103E+04  0.11869253103E+04  0.50400000000E-02 0. -1.
          2    1    1    2    0  502  0.37270169772E+01 -0.39954908439E+02 -0.73291085844E+03  0.73400859109E+03  0.25500000000E-02 0. -1.
         -2    1    1    2  502    0 -0.37270169772E+01  0.39954908439E+02 -0.45257782392E+03  0.45435335597E+03  0.25500000000E-02 0. -1.
<mgrwt>
<rscale>  0 0.82587537E+02</rscale>
<asrwt>0</asrwt>
<pdfrwt beam="1">  1        1 0.22102131E-03 0.82587537E+02</pdfrwt>
<pdfrwt beam="2">  1       -1 0.18260311E+00 0.82587537E+02</pdfrwt>
<totfact> 0.26471378E+04</totfact>
</mgrwt>
</event>
<event>
 4    1  0.2051373E-002  0.4324230E+02  0.7818608E-02  0.1485623E+00
         -1   -1    0    0  501    0 -0.00000000000E+00  0.00000000000E+00  0.81423462160E+02  0.81423462316E+02  0.50400000000E-02 0. -1.
          1   -1    0    0    0  501  0.00000000000E+00 -0.00000000000E+00 -0.57412702495E+01  0.57412724617E+01  0.50400000000E-02 0. -1.
          2    1    1    2    0  502 -0.12328009755E+02 -0.17706261890E+02  0.40679383829E+02  0.46046756779E+02  0.25500000000E-02 0. -1.
         -2    1    1    2  502    0  0.12328009755E+02  0.17706261890E+02  0.35002808082E+02  0.41117977999E+02  0.25500000000E-02 0. -1.
<mgrwt>
<rscale>  0 0.43242304E+02</rscale>
<asrwt>0</asrwt>
<pdfrwt beam="2">  1        1 0.88327255E-03 0.43242304E+02</pdfrwt>
<pdfrwt beam="1">  1       -1 0.12526686E-01 0.43242304E+02</pdfrwt>
<totfact> 0.54872671E+05</totfact>
</mgrwt>
</event>
<event>
 4    1  0.2051373E-002  0.5323493E+02  0.7818608E-02  0.1428635E+00
          1   -1    0    0    0  501  0.00000000000E+00  0.00000000000E+00  0.77900526719E+03  0.77900526721E+03  0.50400000000E-02 0.  1.
         -1   -1    0    0  501    0 -0.00000000000E+00 -0.00000000000E+00 -0.90947269531E+00  0.90948666022E+00  0.50400000000E-02 0.  1.
          2    1    1    2    0  502 -0.52269539614E+01 -0.25981975967E+02  0.35284815615E+03  0.35384206283E+03  0.25500000000E-02 0.  1.
         -2    1    1    2  502    0  0.52269539614E+01  0.25981975967E+02  0.42524763835E+03  0.42607269104E+03  0.25500000000E-02 0.  1.
<mgrwt>
<rscale>  0 0.53234931E+02</rscale>
<asrwt>0</asrwt>
<pdfrwt beam="1">  1        1 0.11984671E+00 0.53234931E+02</pdfrwt>
<pdfrwt beam="2">  1       -1 0.13992024E-03 0.53234931E+02</pdfrwt>
<totfact> 0.56515676E+05</totfact>
</mgrwt>
</event>
<event>
 4    1  0.2051373E-002  0.4488084E+02  0.7818608E-02  0.1475087E+00
         -1   -1    0    0  501    0 -0.00000000000E+00  0.00000000000E+00  0.13500988995E+04  0.13500988996E+04  0.50400000000E-02 0. -1.
          1   -1    0    0    0  501  0.00000000000E+00 -0.00000000000E+00 -0.37297219848E+00  0.37300624987E+00  0.50400000000E-02 0. -1.
          2    1    1    2    0  502 -0.19482240741E+02 -0.78736777671E+01  0.43789483208E+03  0.43839871861E+03  0.25500000000E-02 0.  1.
         -2    1    1    2  502    0  0.19482240741E+02  0.78736777671E+01  0.91183109526E+03  0.91207318720E+03  0.25500000000E-02 0.  1.
<mgrwt>
<rscale>  0 0.44880836E+02</rscale>
<asrwt>0</asrwt>
<pdfrwt beam="2">  1        1 0.57383134E-04 0.44880836E+02</pdfrwt>
<pdfrwt beam="1">  1       -1 0.20770689E+00 0.44880836E+02</pdfrwt>
<totfact> 0.10158546E+05</totfact>
</mgrwt>
</event>
<event>
 4    1  0.2051373E-002  0.4442824E+02  0.7818608E-02  0.1477943E+00
          1   -1    0    0    0  501  0.00000000000E+00  0.00000000000E+00  0.46692232505E+03  0.46692232508E+03  0.50400000000E-02 0. -1.
         -1   -1    0    0  501    0 -0.00000000000E+00 -0.00000000000E+00 -0.10568447124E+01  0.10568567300E+01  0.50400000000E-02 0. -1.
          2    1    1    2    0  502 -0.17231622978E+02  0.12807089217E+02  0.17286773217E+03  0.17419587594E+03  0.25500000000E-02 0. -1.
         -2    1    1    2  502    0  0.17231622978E+02 -0.12807089217E+02  0.29299774817E+03  0.29378330586E+03  0.25500000000E-02 0. -1.
<mgrwt>
<rscale>  0 0.44428244E+02</rscale>
<asrwt>0</asrwt>
<pdfrwt beam="1">  1        1 0.71834241E-01 0.44428244E+02</pdfrwt>
<pdfrwt beam="2">  1       -1 0.16259234E-03 0.44428244E+02</pdfrwt>
<totfact> 0.86518125E+05</totfact>
</mgrwt>
</event>
<event>
 4    1  0.2051373E-002  0.4028555E+02  0.7818608E-02  0.1506121E+00
          1   -1    0    0    0  501  0.00000000000E+00  0.00000000000E+00  0.98887546236E+03  0.98887546238E+03  0.50400000000E-02 0.  1.
         -1   -1    0    0  501    0 -0.00000000000E+00 -0.00000000000E+00 -0.41028025836E+00  0.41031121360E+00  0.50400000000E-02 0.  1.
          2    1    1    2    0  502  0.18340501107E+02  0.80709198265E+01  0.44380032832E+03  0.44425245655E+03  0.25500000000E-02 0.  1.
         -2    1    1    2  502    0 -0.18340501107E+02 -0.80709198265E+01  0.54466485379E+03  0.54503331704E+03  0.25500000000E-02 0.  1.
<mgrwt>
<rscale>  0 0.40285551E+02</rscale>
<asrwt>0</asrwt>
<pdfrwt beam="1">  1        1 0.15213108E+00 0.40285551E+02</pdfrwt>
<pdfrwt beam="2">  1       -1 0.63123918E-04 0.40285551E+02</pdfrwt>
<totfact> 0.10809441E+06</totfact>
</mgrwt>
</event>
<event>
 4    1  0.2051373E-002  0.4570618E+02  0.7818608E-02  0.1469981E+00
         -1   -1    0    0  501    0 -0.00000000000E+00  0.00000000000E+00  0.14074637345E+02  0.14074638247E+02  0.50400000000E-02 0.  1.
          1   -1    0    0    0  501  0.00000000000E+00 -0.00000000000E+00 -0.37106718544E+02  0.37106718887E+02  0.50400000000E-02 0.  1.
          2    1    1    2    0  502 -0.59361834205E+01 -0.21273632567E+02 -0.18089309655E+02  0.28548710067E+02  0.25500000000E-02 0.  1.
         -2    1    1    2  502    0  0.59361834205E+01  0.21273632567E+02 -0.49427715444E+01  0.22632647066E+02  0.25500000000E-02 0.  1.
<mgrwt>
<rscale>  0 0.45706176E+02</rscale>
<asrwt>0</asrwt>
<pdfrwt beam="2">  1        1 0.57087260E-02 0.45706176E+02</pdfrwt>
<pdfrwt beam="1">  1       -1 0.21653289E-02 0.45706176E+02</pdfrwt>
<totfact> 0.57004874E+05</totfact>
</mgrwt>
</event>
<event>
 4    1  0.2051373E-002  0.6020515E+02  0.7818608E-02  0.1396973E+00
         -1   -1    0    0  501    0 -0.00000000000E+00  0.00000000000E+00  0.75562496492E+00  0.75564177307E+00  0.50400000000E-02 0.  1.
          1   -1    0    0    0  501  0.00000000000E+00 -0.00000000000E+00 -0.11992125721E+04  0.11992125721E+04  0.50400000000E-02 0.  1.
          2    1    1    2    0  502 -0.13973869747E+02 -0.25361301474E+02 -0.76322388292E+03  0.76377297681E+03  0.25500000000E-02 0.  1.
         -2    1    1    2  502    0  0.13973869747E+02  0.25361301474E+02 -0.43523306425E+03  0.43619523710E+03  0.25500000000E-02 0.  1.
<mgrwt>
<rscale>  0 0.60205151E+02</rscale>
<asrwt>0</asrwt>
<pdfrwt beam="2">  1        1 0.18449272E+00 0.60205151E+02</pdfrwt>
<pdfrwt beam="1">  1       -1 0.11625225E-03 0.60205151E+02</pdfrwt>
<totfact> 0.37320502E+05</totfact>
</mgrwt>
</event>
<event>
 4    1  0.2051373E-002  0.4845642E+02  0.7818608E-02  0.1453850E+00
          1   -1    0    0    0  501  0.00000000000E+00  0.00000000000E+00  0.20148444900E+03  0.20148444906E+03  0.50400000000E-02 0.  1.
         -1   -1    0    0  501    0 -0.00000000000E+00 -0.00000000000E+00 -0.29134049246E+01  0.29134092841E+01  0.50400000000E-02 0.  1.
          2    1    1    2    0  502  0.35571710052E+01  0.23493512257E+02  0.11925299574E+03  0.12159718576E+03  0.25500000000E-02 0.  1.
         -2    1    1    2  502    0 -0.35571710052E+01 -0.23493512257E+02  0.79318048334E+02  0.82800672592E+02  0.25500000000E-02 0.  1.
<mgrwt>
<rscale>  0 0.48456423E+02</rscale>
<asrwt>0</asrwt>
<pdfrwt beam="1">  1        1 0.30997612E-01 0.48456423E+02</pdfrwt>
<pdfrwt beam="2">  1       -1 0.44821642E-03 0.48456423E+02</pdfrwt>
<totfact> 0.60864285E+05</totfact>
</mgrwt>
</event>
<event>
 4    1  0.2051373E-002  0.6177621E+02  0.7818608E-02  0.1390525E+00
         -1   -1    0    0  501    0 -0.00000000000E+00  0.00000000000E+00  0.43675060173E+02  0.43675060463E+02  0.50400000000E-02 0.  1.
          1   -1    0    0    0  501  0.00000000000E+00 -0.00000000000E+00 -0.21844848653E+02  0.21844849234E+02  0.50400000000E-02 0.  1.
          2    1    1    2    0  502 -0.18857067061E+02 -0.11728767283E+02  0.33685250821E+02  0.40346611871E+02  0.25500000000E-02 0.  1.
         -2    1    1    2  502    0  0.18857067061E+02  0.11728767283E+02 -0.11855039301E+02  0.25173297826E+02  0.25500000000E-02 0.  1.
<mgrwt>
<rscale>  0 0.61776213E+02</rscale>
<asrwt>0</asrwt>
<pdfrwt beam="2">  1        1 0.33607460E-02 0.61776213E+02</pdfrwt>
<pdfrwt beam="1">  1       -1 0.67192401E-02 0.61776213E+02</pdfrwt>
<totfact> 0.24600784E+05</totfact>
</mgrwt>
</event>
<event>
 4    1  0.2051373E-002  0.7610100E+02  0.7818608E-02  0.1340495E+00
         -1   -1    0    0  501    0 -0.00000000000E+00  0.00000000000E+00  0.20373747644E+01  0.20373809983E+01  0.50400000000E-02 0.  1.
          1   -1    0    0    0  501  0.00000000000E+00 -0.00000000000E+00 -0.71063920578E+03  0.71063920580E+03  0.50400000000E-02 0.  1.
          2    1    1    2    0  502 -0.10088429399E+02  0.26043255904E+02 -0.59630882459E+03  0.59696251295E+03  0.25500000000E-02 0. -1.
         -2    1    1    2  502    0  0.10088429399E+02 -0.26043255904E+02 -0.11229300643E+03  0.11571407384E+03  0.25500000000E-02 0. -1.
<mgrwt>
<rscale>  0 0.76101002E+02</rscale>
<asrwt>0</asrwt>
<pdfrwt beam="2">  1        1 0.10932891E+00 0.76101002E+02</pdfrwt>
<pdfrwt beam="1">  1       -1 0.31344332E-03 0.76101002E+02</pdfrwt>
<totfact> 0.22829073E+05</totfact>
</mgrwt>
</event>
<event>
 4    1  0.2051373E-002  0.5852416E+02  0.7818608E-02  0.1404132E+00
          1   -1    0    0    0  501  0.00000000000E+00  0.00000000000E+00  0.12940067914E+02  0.12940068895E+02  0.50400000000E-02 0.  1.
         -1   -1    0    0  501    0 -0.00000000000E+00 -0.00000000000E+00 -0.66171932828E+02  0.66171933020E+02  0.50400000000E-02 0.  1.
          2    1    1    2    0  502 -0.14567381565E+02  0.19253454354E+02 -0.42658659425E+01  0.24517376062E+02  0.25500000000E-02 0. -1.
         -2    1    1    2  502    0  0.14567381565E+02 -0.19253454354E+02 -0.48965998972E+02  0.54594625853E+02  0.25500000000E-02 0. -1.
<mgrwt>
<rscale>  0 0.58524161E+02</rscale>
<asrwt>0</asrwt>
<pdfrwt beam="1">  1        1 0.19907798E-02 0.58524161E+02</pdfrwt>
<pdfrwt beam="2">  1       -1 0.10180297E-01 0.58524161E+02</pdfrwt>
<totfact> 0.26747956E+05</totfact>
</mgrwt>
</event>
<event>
 4    1  0.2051373E-002  0.5001368E+02  0.7818608E-02  0.1445268E+00
         -1   -1    0    0  501    0 -0.00000000000E+00  0.00000000000E+00  0.11827011284E+02  0.11827012358E+02  0.50400000000E-02 0.  1.
          1   -1    0    0    0  501  0.00000000000E+00 -0.00000000000E+00 -0.52874046473E+02  0.52874046713E+02  0.50400000000E-02 0.  1.
          2    1    1    2    0  502 -0.23439716669E+02 -0.85392189544E+01 -0.18281549837E+02  0.30928201513E+02  0.25500000000E-02 0. -1.
         -2    1    1    2  502    0  0.23439716669E+02  0.85392189544E+01 -0.22765485352E+02  0.33772857558E+02  0.25500000000E-02 0. -1.
<mgrwt>
<rscale>  0 0.50013678E+02</rscale>
<asrwt>0</asrwt>
<pdfrwt beam="2">  1        1 0.81344686E-02 0.50013678E+02</pdfrwt>
<pdfrwt beam="1">  1       -1 0.18195403E-02 0.50013678E+02</pdfrwt>
<totfact> 0.46854288E+05</totfact>
</mgrwt>
</event>
<event>
 4    1  0.2051373E-002  0.6245123E+02  0.7818608E-02  0.1387824E+00
          1   -1    0    0    0  501  0.00000000000E+00  0.00000000000E+00  0.26423835659E+03  0.26423835663E+03  0.50400000000E-02 0. -1.
         -1   -1    0    0  501    0 -0.00000000000E+00 -0.00000000000E+00 -0.36899957456E+01  0.36899991876E+01  0.50400000000E-02 0. -1.
          2    1    1    2    0  502  0.22873176204E+02 -0.11175633277E+02  0.20784998587E+03  0.20940318432E+03  0.25500000000E-02 0.  1.
         -2    1    1    2  502    0 -0.22873176204E+02  0.11175633277E+02  0.52698374968E+02  0.58525171504E+02  0.25500000000E-02 0.  1.
<mgrwt>
<rscale>  0 0.62451225E+02</rscale>
<asrwt>0</asrwt>
<pdfrwt beam="1">  1        1 0.40652047E-01 0.62451225E+02</pdfrwt>
<pdfrwt beam="2">  1       -1 0.56769203E-03 0.62451225E+02</pdfrwt>
<totfact> 0.33633926E+05</totfact>
</mgrwt>
</event>
<event>
 4    1  0.2051373E-002  0.5354185E+02  0.7818608E-02  0.1427123E+00
         -1   -1    0    0  501    0 -0.00000000000E+00  0.00000000000E+00  0.11999342906E+03  0.11999342916E+03  0.50400000000E-02 0. -1.
          1   -1    0    0    0  501  0.00000000000E+00 -0.00000000000E+00 -0.59726783618E+01  0.59726804883E+01  0.50400000000E-02 0. -1.
          2    1    1    2    0  502 -0.10903916808E+02 -0.19154053392E+02  0.21259973051E+02  0.30622861129E+02  0.25500000000E-02 0.  1.
         -2    1    1    2  502    0  0.10903916808E+02  0.19154053392E+02  0.92760777646E+02  0.95343248524E+02  0.25500000000E-02 0.  1.
<mgrwt>
<rscale>  0 0.53541845E+02</rscale>
<asrwt>0</asrwt>
<pdfrwt beam="2">  1        1 0.91887381E-03 0.53541845E+02</pdfrwt>
<pdfrwt beam="1">  1       -1 0.18460527E-01 0.53541845E+02</pdfrwt>
<totfact> 0.30407440E+05</totfact>
</mgrwt>
</event>
<event>
 4    1  0.2051373E-002  0.4181802E+02  0.7818608E-02  0.1495244E+00
          1   -1    0    0    0  501  0.00000000000E+00  0.00000000000E+00  0.57722309682E+02  0.57722309902E+02  0.50400000000E-02 0.  1.
         -1   -1    0    0  501    0 -0.00000000000E+00 -0.00000000000E+00 -0.75739625369E+01  0.75739642138E+01  0.50400000000E-02 0.  1.
          2    1    1    2    0  502 -0.18526444624E+02 -0.84031983243E+01  0.32618326490E+02  0.38442139925E+02  0.25500000000E-02 0. -1.
         -2    1    1    2  502    0  0.18526444624E+02  0.84031983243E+01  0.17530020655E+02  0.26854134191E+02  0.25500000000E-02 0. -1.
<mgrwt>
<rscale>  0 0.41818019E+02</rscale>
<asrwt>0</asrwt>
<pdfrwt beam="1">  1        1 0.88803554E-02 0.41818019E+02</pdfrwt>
<pdfrwt beam="2">  1       -1 0.11652252E-02 0.41818019E+02</pdfrwt>
<totfact> 0.74169925E+05</totfact>
</mgrwt>
</event>
<event>
 4    1  0.2051373E-002  0.5428217E+02  0.7818608E-02  0.1423524E+00
         -1   -1    0    0  501    0 -0.00000000000E+00  0.00000000000E+00  0.21425297968E+01  0.21425357248E+01  0.50400000000E-02 0.  1.
          1   -1    0    0    0  501  0.00000000000E+00 -0.00000000000E+00 -0.34381667943E+03  0.34381667947E+03  0.50400000000E-02 0.  1.
          2    1    1    2    0  502 -0.23621027052E+02 -0.27395055062E+01 -0.25422344926E+03  0.25533315486E+03  0.25500000000E-02 0.  1.
         -2    1    1    2  502    0  0.23621027052E+02  0.27395055062E+01 -0.87450700375E+02  0.90626060336E+02  0.25500000000E-02 0.  1.
<mgrwt>
<rscale>  0 0.54282171E+02</rscale>
<asrwt>0</asrwt>
<pdfrwt beam="2">  1        1 0.52894830E-01 0.54282171E+02</pdfrwt>
<pdfrwt beam="1">  1       -1 0.32962070E-03 0.54282171E+02</pdfrwt>
<totfact> 0.50293060E+05</totfact>
</mgrwt>
</event>
<event>
 4    1  0.2051373E-002  0.4719532E+02  0.7818608E-02  0.1461084E+00
         -1   -1    0    0  501    0 -0.00000000000E+00  0.00000000000E+00  0.66479355594E+00  0.66481266054E+00  0.50400000000E-02 0.  1.
          1   -1    0    0    0  501  0.00000000000E+00 -0.00000000000E+00 -0.83761562700E+03  0.83761562701E+03  0.50400000000E-02 0.  1.
          2    1    1    2    0  502  0.21274532768E+02  0.91172606020E+01 -0.33684911598E+03  0.33764338751E+03  0.25500000000E-02 0. -1.
         -2    1    1    2  502    0 -0.21274532768E+02 -0.91172606020E+01 -0.50010171746E+03  0.50063705216E+03  0.25500000000E-02 0. -1.
<mgrwt>
<rscale>  0 0.47195317E+02</rscale>
<asrwt>0</asrwt>
<pdfrwt beam="2">  1        1 0.12886310E+00 0.47195317E+02</pdfrwt>
<pdfrwt beam="1">  1       -1 0.10227807E-03 0.47195317E+02</pdfrwt>
<totfact> 0.75665989E+05</totfact>
</mgrwt>
</event>
<event>
 4    1  0.2051373E-002  0.7312080E+02  0.7818608E-02  0.1349791E+00
          1   -1    0    0    0  501  0.00000000000E+00  0.00000000000E+00  0.76397938615E+00  0.76399601050E+00  0.50400000000E-02 0.  1.
         -1   -1    0    0  501    0 -0.00000000000E+00 -0.00000000000E+00 -0.17495866456E+04  0.17495866456E+04  0.50400000000E-02 0.  1.
          2    1    1    2    0  502 -0.28373364252E+02 -0.13491462143E+02 -0.42683515676E+03  0.42798985783E+03  0.25500000000E-02 0.  1.
         -2    1    1    2  502    0  0.28373364252E+02  0.13491462143E+02 -0.13219875094E+04  0.13223607837E+04  0.25500000000E-02 0.  1.
<mgrwt>
<rscale>  0 0.73120796E+02</rscale>
<asrwt>0</asrwt>
<pdfrwt beam="1">  1        1 0.11753797E-03 0.73120796E+02</pdfrwt>
<pdfrwt beam="2">  1       -1 0.26916397E+00 0.73120796E+02</pdfrwt>
<totfact> 0.17682779E+04</totfact>
</mgrwt>
</event>
<event>
 4    1  0.2051373E-002  0.7491310E+02  0.7818608E-02  0.1344140E+00
         -1   -1    0    0  501    0 -0.00000000000E+00  0.00000000000E+00  0.31927003945E+03  0.31927003949E+03  0.50400000000E-02 0.  1.
          1   -1    0    0    0  501  0.00000000000E+00 -0.00000000000E+00 -0.43943756274E+01  0.43943785177E+01  0.50400000000E-02 0.  1.
          2    1    1    2    0  502 -0.26266007810E+02  0.13943783146E+02  0.59041505337E+02  0.66107727337E+02  0.25500000000E-02 0. -1.
         -2    1    1    2  502    0  0.26266007810E+02 -0.13943783146E+02  0.25583415849E+03  0.25755669067E+03  0.25500000000E-02 0. -1.
<mgrwt>
<rscale>  0 0.74913095E+02</rscale>
<asrwt>0</asrwt>
<pdfrwt beam="2">  1        1 0.67605789E-03 0.74913095E+02</pdfrwt>
<pdfrwt beam="1">  1       -1 0.49118477E-01 0.74913095E+02</pdfrwt>
<totfact> 0.98409551E+04</totfact>
</mgrwt>
</event>
<event>
 4    1  0.2051373E-002  0.6615067E+02  0.7818608E-02  0.1373695E+00
          1   -1    0    0    0  501  0.00000000000E+00  0.00000000000E+00  0.18950595974E+02  0.18950596645E+02  0.50400000000E-02 0.  1.
         -1   -1    0    0  501    0 -0.00000000000E+00 -0.00000000000E+00 -0.57727889051E+02  0.57727889271E+02  0.50400000000E-02 0.  1.
          2    1    1    2    0  502 -0.28383762473E+02 -0.12727083421E+02 -0.32418703154E+02  0.44928709588E+02  0.25500000000E-02 0.  1.
         -2    1    1    2  502    0  0.28383762473E+02  0.12727083421E+02 -0.63585899219E+01  0.31749776327E+02  0.25500000000E-02 0.  1.
<mgrwt>
<rscale>  0 0.66150675E+02</rscale>
<asrwt>0</asrwt>
<pdfrwt beam="1">  1        1 0.29154764E-02 0.66150675E+02</pdfrwt>
<pdfrwt beam="2">  1       -1 0.88812137E-02 0.66150675E+02</pdfrwt>
<totfact> 0.20042017E+05</totfact>
</mgrwt>
</event>
<event>
 4    1  0.2051373E-002  0.4504508E+02  0.7818608E-02  0.1474060E+00
          1   -1    0    0    0  501  0.00000000000E+00  0.00000000000E+00  0.20039571682E+03  0.20039571688E+03  0.50400000000E-02 0.  1.
         -1   -1    0    0  501    0 -0.00000000000E+00 -0.00000000000E+00 -0.25313126413E+01  0.25313176588E+01  0.50400000000E-02 0.  1.
          2    1    1    2    0  502 -0.18909401619E+02 -0.10639511846E+02  0.12614913867E+03  0.12800144482E+03  0.25500000000E-02 0.  1.
         -2    1    1    2  502    0  0.18909401619E+02  0.10639511846E+02  0.71715265506E+02  0.74925589721E+02  0.25500000000E-02 0.  1.
<mgrwt>
<rscale>  0 0.45045076E+02</rscale>
<asrwt>0</asrwt>
<pdfrwt beam="1">  1        1 0.30830113E-01 0.45045076E+02</pdfrwt>
<pdfrwt beam="2">  1       -1 0.38943307E-03 0.45045076E+02</pdfrwt>
<totfact> 0.72893568E+05</totfact>
</mgrwt>
</event>
<event>
 4    1  0.2051373E-002  0.4510195E+02  0.7818608E-02  0.1473706E+00
          1   -1    0    0    0  501  0.00000000000E+00  0.00000000000E+00  0.21451266292E+03  0.21451266297E+03  0.50400000000E-02 0. -1.
         -1   -1    0    0  501    0 -0.00000000000E+00 -0.00000000000E+00 -0.23707028260E+01  0.23707081834E+01  0.50400000000E-02 0. -1.
          2    1    1    2    0  502 -0.68137065967E+01 -0.20343200927E+02  0.72660144563E+02  0.75761263427E+02  0.25500000000E-02 0.  1.
         -2    1    1    2  502    0  0.68137065967E+01  0.20343200927E+02  0.13948181553E+03  0.14112210773E+03  0.25500000000E-02 0.  1.
<mgrwt>
<rscale>  0 0.45101945E+02</rscale>
<asrwt>0</asrwt>
<pdfrwt beam="1">  1        1 0.33001954E-01 0.45101945E+02</pdfrwt>
<pdfrwt beam="2">  1       -1 0.36472386E-03 0.45101945E+02</pdfrwt>
<totfact> 0.73518309E+05</totfact>
</mgrwt>
</event>
<event>
 4    1  0.2051373E-002  0.6911247E+02  0.7818608E-02  0.1363137E+00
         -1   -1    0    0  501    0 -0.00000000000E+00  0.00000000000E+00  0.27832291117E+01  0.27832336751E+01  0.50400000000E-02 0. -1.
          1   -1    0    0    0  501  0.00000000000E+00 -0.00000000000E+00 -0.42904566482E+03  0.42904566485E+03  0.50400000000E-02 0. -1.
          2    1    1    2    0  502 -0.18992669306E+02  0.21501693274E+02 -0.92767839501E+02  0.97102607345E+02  0.25500000000E-02 0.  1.
         -2    1    1    2  502    0  0.18992669306E+02 -0.21501693274E+02 -0.33349459621E+03  0.33472629118E+03  0.25500000000E-02 0.  1.
<mgrwt>
<rscale>  0 0.69112470E+02</rscale>
<asrwt>0</asrwt>
<pdfrwt beam="2">  1        1 0.66006973E-01 0.69112470E+02</pdfrwt>
<pdfrwt beam="1">  1       -1 0.42818979E-03 0.69112470E+02</pdfrwt>
<totfact> 0.28156529E+05</totfact>
</mgrwt>
</event>
<event>
 4    1  0.2051373E-002  0.4267703E+02  0.7818608E-02  0.1489387E+00
         -1   -1    0    0  501    0 -0.00000000000E+00  0.00000000000E+00  0.14464015105E+02  0.14464015983E+02  0.50400000000E-02 0. -1.
          1   -1    0    0    0  501  0.00000000000E+00 -0.00000000000E+00 -0.31480347002E+02  0.31480347405E+02  0.50400000000E-02 0. -1.
          2    1    1    2    0  502  0.95993847965E+01  0.18537392220E+02 -0.37482218339E+01  0.21209249685E+02  0.25500000000E-02 0.  1.
         -2    1    1    2  502    0 -0.95993847965E+01 -0.18537392220E+02 -0.13268110063E+02  0.24735113704E+02  0.25500000000E-02 0.  1.
<mgrwt>
<rscale>  0 0.42677031E+02</rscale>
<asrwt>0</asrwt>
<pdfrwt beam="2">  1        1 0.48431304E-02 0.42677031E+02</pdfrwt>
<pdfrwt beam="1">  1       -1 0.22252332E-02 0.42677031E+02</pdfrwt>
<totfact> 0.66893417E+05</totfact>
</mgrwt>
</event>
<event>
 4    1  0.2051373E-002  0.5020406E+02  0.7818608E-02  0.1444244E+00
          1   -1    0    0    0  501  0.00000000000E+00  0.00000000000E+00  0.19908330691E+03  0.19908330697E+03  0.50400000000E-02 0.  1.
         -1   -1    0    0  501    0 -0.00000000000E+00 -0.00000000000E+00 -0.31650647693E+01  0.31650687821E+01  0.50400000000E-02 0.  1.
          2    1    1    2    0  502  0.21153159620E+02  0.11974425079E+02  0.12320385618E+03  0.12557879280E+03  0.25500000000E-02 0. -1.
         -2    1    1    2  502    0 -0.21153159620E+02 -0.11974425079E+02  0.72714385960E+02  0.76669582952E+02  0.25500000000E-02 0. -1.
<mgrwt>
<rscale>  0 0.50204063E+02</rscale>
<asrwt>0</asrwt>
<pdfrwt beam="1">  1        1 0.30628200E-01 0.50204063E+02</pdfrwt>
<pdfrwt beam="2">  1       -1 0.48693338E-03 0.50204063E+02</pdfrwt>
<totfact> 0.55592182E+05</totfact>
</mgrwt>
</event>
<event>
 4    1  0.2051373E-002  0.1650779E+03  0.7818608E-02  0.1183080E+00
         -1   -1    0    0  501    0 -0.00000000000E+00  0.00000000000E+00  0.48294115664E+02  0.48294115927E+02  0.50400000000E-02 0. -1.
          1   -1    0    0    0  501  0.00000000000E+00 -0.00000000000E+00 -0.14106647824E+03  0.14106647833E+03  0.50400000000E-02 0. -1.
          2    1    1    2    0  502 -0.62628967726E+02 -0.30467635585E+02  0.44241363201E+01  0.69787086235E+02  0.25500000000E-02 0.  1.
         -2    1    1    2  502    0  0.62628967726E+02  0.30467635585E+02 -0.97196498894E+02  0.11957350802E+03  0.25500000000E-02 0.  1.
<mgrwt>
<rscale>  0 0.16507793E+03</rscale>
<asrwt>0</asrwt>
<pdfrwt beam="2">  1        1 0.21702535E-01 0.16507793E+03</pdfrwt>
<pdfrwt beam="1">  1       -1 0.74298640E-02 0.16507793E+03</pdfrwt>
<totfact> 0.20922539E+04</totfact>
</mgrwt>
</event>
<event>
 4    1  0.2051373E-002  0.1133320E+03  0.7818608E-02  0.1254521E+00
          1   -1    0    0    0  501  0.00000000000E+00  0.00000000000E+00  0.29663136665E+01  0.29663179482E+01  0.50400000000E-02 0.  1.
         -1   -1    0    0  501    0 -0.00000000000E+00 -0.00000000000E+00 -0.10825005090E+04  0.10825005090E+04  0.50400000000E-02 0.  1.
          2    1    1    2    0  502  0.45909240890E+02  0.31576428221E+02 -0.63851983739E+03  0.64094641895E+03  0.25500000000E-02 0.  1.
         -2    1    1    2  502    0 -0.45909240890E+02 -0.31576428221E+02 -0.44101435797E+03  0.44452040803E+03  0.25500000000E-02 0.  1.
<mgrwt>
<rscale>  0 0.11333205E+03</rscale>
<asrwt>0</asrwt>
<pdfrwt beam="1">  1        1 0.45635714E-03 0.11333205E+03</pdfrwt>
<pdfrwt beam="2">  1       -1 0.16653823E+00 0.11333205E+03</pdfrwt>
<totfact> 0.13019192E+04</totfact>
</mgrwt>
</event>
<event>
 4    1  0.2051373E-002  0.4093365E+02  0.7818608E-02  0.1501451E+00
          1   -1    0    0    0  501  0.00000000000E+00  0.00000000000E+00  0.40805741475E+02  0.40805741786E+02  0.50400000000E-02 0. -1.
         -1   -1    0    0  501    0 -0.00000000000E+00 -0.00000000000E+00 -0.10265489926E+02  0.10265491163E+02  0.50400000000E-02 0. -1.
          2    1    1    2    0  502 -0.52500181024E+01 -0.19649066838E+02  0.18126813206E+02  0.27243896219E+02  0.25500000000E-02 0. -1.
         -2    1    1    2  502    0  0.52500181024E+01  0.19649066838E+02  0.12413438343E+02  0.23827336730E+02  0.25500000000E-02 0. -1.
<mgrwt>
<rscale>  0 0.40933652E+02</rscale>
<asrwt>0</asrwt>
<pdfrwt beam="1">  1        1 0.62778065E-02 0.40933652E+02</pdfrwt>
<pdfrwt beam="2">  1       -1 0.15793063E-02 0.40933652E+02</pdfrwt>
<totfact> 0.75827988E+05</totfact>
</mgrwt>
</event>
<event>
 4    1  0.2051373E-002  0.5760304E+02  0.7818608E-02  0.1408175E+00
          1   -1    0    0    0  501  0.00000000000E+00  0.00000000000E+00  0.61871528811E+01  0.61871549339E+01  0.50400000000E-02 0.  1.
         -1   -1    0    0  501    0 -0.00000000000E+00 -0.00000000000E+00 -0.13407255668E+03  0.13407255677E+03  0.50400000000E-02 0.  1.
          2    1    1    2    0  502  0.19872935271E+02  0.17427238176E+02 -0.91799620686E+02  0.95529118865E+02  0.25500000000E-02 0. -1.
         -2    1    1    2  502    0 -0.19872935271E+02 -0.17427238176E+02 -0.36085783113E+02  0.44730592843E+02  0.25500000000E-02 0. -1.
<mgrwt>
<rscale>  0 0.57603040E+02</rscale>
<asrwt>0</asrwt>
<pdfrwt beam="1">  1        1 0.95186994E-03 0.57603040E+02</pdfrwt>
<pdfrwt beam="2">  1       -1 0.20626545E-01 0.57603040E+02</pdfrwt>
<totfact> 0.24777873E+05</totfact>
</mgrwt>
</event>
<event>
 4    1  0.2051373E-002  0.7823459E+02  0.7818608E-02  0.1334137E+00
         -1   -1    0    0  501    0 -0.00000000000E+00  0.00000000000E+00  0.63717553249E+03  0.63717553251E+03  0.50400000000E-02 0.  1.
          1   -1    0    0    0  501  0.00000000000E+00 -0.00000000000E+00 -0.24014747473E+01  0.24014800361E+01  0.50400000000E-02 0.  1.
          2    1    1    2    0  502  0.38931508120E+02  0.32357205311E+01  0.33379934039E+03  0.33607756822E+03  0.25500000000E-02 0. -1.
         -2    1    1    2  502    0 -0.38931508120E+02 -0.32357205311E+01  0.30097471736E+03  0.30349944433E+03  0.25500000000E-02 0. -1.
<mgrwt>
<rscale>  0 0.78234587E+02</rscale>
<asrwt>0</asrwt>
<pdfrwt beam="2">  1        1 0.36945782E-03 0.78234587E+02</pdfrwt>
<pdfrwt beam="1">  1       -1 0.98027068E-01 0.78234587E+02</pdfrwt>
<totfact> 0.59300722E+04</totfact>
</mgrwt>
</event>
<event>
 4    1  0.2051373E-002  0.5541517E+02  0.7818608E-02  0.1418146E+00
         -1   -1    0    0  501    0 -0.00000000000E+00  0.00000000000E+00  0.82268501687E+00  0.82270045495E+00  0.50400000000E-02 0. -1.
          1   -1    0    0    0  501  0.00000000000E+00 -0.00000000000E+00 -0.93316772454E+03  0.93316772456E+03  0.50400000000E-02 0. -1.
          2    1    1    2    0  502 -0.32784466183E+01  0.27509146185E+02 -0.47387737676E+03  0.47468649607E+03  0.25500000000E-02 0.  1.
         -2    1    1    2  502    0  0.32784466183E+01 -0.27509146185E+02 -0.45846766277E+03  0.45930392895E+03  0.25500000000E-02 0.  1.
<mgrwt>
<rscale>  0 0.55415172E+02</rscale>
<asrwt>0</asrwt>
<pdfrwt beam="2">  1        1 0.14356342E+00 0.55415172E+02</pdfrwt>
<pdfrwt beam="1">  1       -1 0.12656886E-03 0.55415172E+02</pdfrwt>
<totfact> 0.49894048E+05</totfact>
</mgrwt>
</event>
<event>
 4    1  0.2051373E-002  0.4756587E+02  0.7818608E-02  0.1458931E+00
          1   -1    0    0    0  501  0.00000000000E+00  0.00000000000E+00  0.44192256958E+01  0.44192285698E+01  0.50400000000E-02 0. -1.
         -1   -1    0    0  501    0 -0.00000000000E+00 -0.00000000000E+00 -0.12799253070E+03  0.12799253080E+03  0.50400000000E-02 0. -1.
          2    1    1    2    0  502 -0.17836650245E+02 -0.10970023847E+02 -0.93175338344E+02  0.95499377994E+02  0.25500000000E-02 0.  1.
         -2    1    1    2  502    0  0.17836650245E+02  0.10970023847E+02 -0.30397966656E+02  0.36912381372E+02  0.25500000000E-02 0.  1.
<mgrwt>
<rscale>  0 0.47565873E+02</rscale>
<asrwt>0</asrwt>
<pdfrwt beam="1">  1        1 0.67988120E-03 0.47565873E+02</pdfrwt>
<pdfrwt beam="2">  1       -1 0.19691156E-01 0.47565873E+02</pdfrwt>
<totfact> 0.40261160E+05</totfact>
</mgrwt>
</event>
<event>
 4    1  0.2051373E-002  0.4846794E+02  0.7818608E-02  0.1453785E+00
          1   -1    0    0    0  501  0.00000000000E+00  0.00000000000E+00  0.27444174920E+03  0.27444174925E+03  0.50400000000E-02 0.  1.
         -1   -1    0    0  501    0 -0.00000000000E+00 -0.00000000000E+00 -0.21399238267E+01  0.21399297619E+01  0.50400000000E-02 0.  1.
          2    1    1    2    0  502  0.24806399169E-01  0.24184466681E+02  0.12731743456E+03  0.12959405153E+03  0.25500000000E-02 0. -1.
         -2    1    1    2  502    0 -0.24806399169E-01 -0.24184466681E+02  0.14498439081E+03  0.14698762747E+03  0.25500000000E-02 0. -1.
<mgrwt>
<rscale>  0 0.48467938E+02</rscale>
<asrwt>0</asrwt>
<pdfrwt beam="1">  1        1 0.42221785E-01 0.48467938E+02</pdfrwt>
<pdfrwt beam="2">  1       -1 0.32921969E-03 0.48467938E+02</pdfrwt>
<totfact> 0.64210434E+05</totfact>
</mgrwt>
</event>
<event>
 4    1  0.2051373E-002  0.8492426E+02  0.7818608E-02  0.1315631E+00
          1   -1    0    0    0  501  0.00000000000E+00  0.00000000000E+00  0.16352397411E+02  0.16352398187E+02  0.50400000000E-02 0. -1.
         -1   -1    0    0  501    0 -0.00000000000E+00 -0.00000000000E+00 -0.11026103612E+03  0.11026103623E+03  0.50400000000E-02 0. -1.
          2    1    1    2    0  502 -0.35069033434E+02 -0.12362203726E+02 -0.77522140538E+02  0.85978738459E+02  0.25500000000E-02 0.  1.
         -2    1    1    2  502    0  0.35069033434E+02  0.12362203726E+02 -0.16386498167E+02  0.40634695959E+02  0.25500000000E-02 0.  1.
<mgrwt>
<rscale>  0 0.84924257E+02</rscale>
<asrwt>0</asrwt>
<pdfrwt beam="1">  1        1 0.25157536E-02 0.84924257E+02</pdfrwt>
<pdfrwt beam="2">  1       -1 0.16963236E-01 0.84924257E+02</pdfrwt>
<totfact> 0.95903178E+04</totfact>
</mgrwt>
</event>
<event>
 4    1  0.2051373E-002  0.4581932E+02  0.7818608E-02  0.1469291E+00
         -1   -1    0    0  501    0 -0.00000000000E+00  0.00000000000E+00  0.27059174863E+01  0.27059221800E+01  0.50400000000E-02 0.  1.
          1   -1    0    0    0  501  0.00000000000E+00 -0.00000000000E+00 -0.19396452972E+03  0.19396452978E+03  0.50400000000E-02 0.  1.
          2    1    1    2    0  502 -0.22079135590E+02 -0.21048970034E+01 -0.12026191747E+03  0.12229001439E+03  0.25500000000E-02 0.  1.
         -2    1    1    2  502    0  0.22079135590E+02  0.21048970034E+01 -0.70996694763E+02  0.74380437573E+02  0.25500000000E-02 0.  1.
<mgrwt>
<rscale>  0 0.45819318E+02</rscale>
<asrwt>0</asrwt>
<pdfrwt beam="2">  1        1 0.29840686E-01 0.45819318E+02</pdfrwt>
<pdfrwt beam="1">  1       -1 0.41629552E-03 0.45819318E+02</pdfrwt>
<totfact> 0.69495886E+05</totfact>
</mgrwt>
</event>
<event>
 4    1  0.2051373E-002  0.4342159E+02  0.7818608E-02  0.1484443E+00
         -1   -1    0    0  501    0 -0.00000000000E+00  0.00000000000E+00  0.23550483307E+00  0.23555875700E+00  0.50400000000E-02 0.  1.
          1   -1    0    0    0  501  0.00000000000E+00 -0.00000000000E+00 -0.20012528614E+04  0.20012528614E+04  0.50400000000E-02 0.  1.
          2    1    1    2    0  502  0.20783119381E+02  0.60561248530E+01 -0.92415354593E+03  0.92440704842E+03  0.25500000000E-02 0.  1.
         -2    1    1    2  502    0 -0.20783119381E+02 -0.60561248530E+01 -0.10768638106E+04  0.10770813717E+04  0.25500000000E-02 0.  1.
<mgrwt>
<rscale>  0 0.43421593E+02</rscale>
<asrwt>0</asrwt>
<pdfrwt beam="2">  1        1 0.30787144E+00 0.43421593E+02</pdfrwt>
<pdfrwt beam="1">  1       -1 0.36237264E-04 0.43421593E+02</pdfrwt>
<totfact> 0.53453503E+05</totfact>
</mgrwt>
</event>
<event>
 4    1  0.2051373E-002  0.7330350E+02  0.7818608E-02  0.1349207E+00
         -1   -1    0    0  501    0 -0.00000000000E+00  0.00000000000E+00  0.25106801404E+01  0.25106851991E+01  0.50400000000E-02 0. -1.
          1   -1    0    0    0  501  0.00000000000E+00 -0.00000000000E+00 -0.53505392579E+03  0.53505392582E+03  0.50400000000E-02 0. -1.
          2    1    1    2    0  502 -0.17185899991E+02  0.15580417449E+02 -0.47437076349E+03  0.47493760204E+03  0.25500000000E-02 0.  1.
         -2    1    1    2  502    0  0.17185899991E+02 -0.15580417449E+02 -0.58172482161E+02  0.62627008979E+02  0.25500000000E-02 0.  1.
<mgrwt>
<rscale>  0 0.73303496E+02</rscale>
<asrwt>0</asrwt>
<pdfrwt beam="2">  1        1 0.82315898E-01 0.73303496E+02</pdfrwt>
<pdfrwt beam="1">  1       -1 0.38625930E-03 0.73303496E+02</pdfrwt>
<totfact> 0.24847664E+05</totfact>
</mgrwt>
</event>
<event>
 4    1  0.2051373E-002  0.4986905E+02  0.7818608E-02  0.1446049E+00
          1   -1    0    0    0  501  0.00000000000E+00  0.00000000000E+00  0.58686447843E+03  0.58686447845E+03  0.50400000000E-02 0. -1.
         -1   -1    0    0  501    0 -0.00000000000E+00 -0.00000000000E+00 -0.10594047443E+01  0.10594167328E+01  0.50400000000E-02 0. -1.
          2    1    1    2    0  502  0.23005825306E+02  0.64035671490E+01  0.37747163172E+03  0.37822626354E+03  0.25500000000E-02 0.  1.
         -2    1    1    2  502    0 -0.23005825306E+02 -0.64035671490E+01  0.20833344197E+03  0.20969763165E+03  0.25500000000E-02 0.  1.
<mgrwt>
<rscale>  0 0.49869050E+02</rscale>
<asrwt>0</asrwt>
<pdfrwt beam="1">  1        1 0.90286677E-01 0.49869050E+02</pdfrwt>
<pdfrwt beam="2">  1       -1 0.16298657E-03 0.49869050E+02</pdfrwt>
<totfact> 0.66490046E+05</totfact>
</mgrwt>
</event>
<event>
 4    1  0.2051373E-002  0.2630602E+03  0.7818608E-02  0.1105318E+00
         -1   -1    0    0  501    0 -0.00000000000E+00  0.00000000000E+00  0.10577453996E+04  0.10577453996E+04  0.50400000000E-02 0. -1.
          1   -1    0    0    0  501  0.00000000000E+00 -0.00000000000E+00 -0.16355694980E+02  0.16355695756E+02  0.50400000000E-02 0. -1.
          2    1    1    2    0  502  0.10006955827E+03 -0.30144108360E+02  0.84677020026E+03  0.85319537962E+03  0.25500000000E-02 0. -1.
         -2    1    1    2  502    0 -0.10006955827E+03  0.30144108360E+02  0.19461950434E+03  0.22090571572E+03  0.25500000000E-02 0. -1.
<mgrwt>
<rscale>  0 0.26306016E+03</rscale>
<asrwt>0</asrwt>
<pdfrwt beam="2">  1        1 0.25162607E-02 0.26306016E+03</pdfrwt>
<pdfrwt beam="1">  1       -1 0.16273007E+00 0.26306016E+03</pdfrwt>
<totfact> 0.13256444E+03</totfact>
</mgrwt>
</event>
<event>
 4    1  0.2051373E-002  0.4286453E+02  0.7818608E-02  0.1488131E+00
         -1   -1    0    0  501    0 -0.00000000000E+00  0.00000000000E+00  0.29450738267E+03  0.29450738271E+03  0.50400000000E-02 0.  1.
          1   -1    0    0    0  501  0.00000000000E+00 -0.00000000000E+00 -0.15596920247E+01  0.15597001679E+01  0.50400000000E-02 0.  1.
          2    1    1    2    0  502  0.20895933359E+02 -0.33829569996E+01  0.16964858134E+03  0.17096410614E+03  0.25500000000E-02 0. -1.
         -2    1    1    2  502    0 -0.20895933359E+02  0.33829569996E+01  0.12329910930E+03  0.12510297675E+03  0.25500000000E-02 0. -1.
<mgrwt>
<rscale>  0 0.42864532E+02</rscale>
<asrwt>0</asrwt>
<pdfrwt beam="2">  1        1 0.23995336E-03 0.42864532E+02</pdfrwt>
<pdfrwt beam="1">  1       -1 0.45308808E-01 0.42864532E+02</pdfrwt>
<totfact> 0.41241958E+05</totfact>
</mgrwt>
</event>
<event>
 4    1  0.2051373E-002  0.4928359E+02  0.7818608E-02  0.1449244E+00
          1   -1    0    0    0  501  0.00000000000E+00  0.00000000000E+00  0.40559196814E+00  0.40562328116E+00  0.50400000000E-02 0.  1.
         -1   -1    0    0  501    0 -0.00000000000E+00 -0.00000000000E+00 -0.14970577664E+04  0.14970577665E+04  0.50400000000E-02 0.  1.
          2    1    1    2    0  502 -0.19016916362E+02 -0.15621332354E+02 -0.71051073538E+03  0.71093682858E+03  0.25500000000E-02 0.  1.
         -2    1    1    2  502    0  0.19016916362E+02  0.15621332354E+02 -0.78614143910E+03  0.78652656116E+03  0.25500000000E-02 0.  1.
<mgrwt>
<rscale>  0 0.49283590E+02</rscale>
<asrwt>0</asrwt>
<pdfrwt beam="1">  1        1 0.62402372E-04 0.49283590E+02</pdfrwt>
<pdfrwt beam="2">  1       -1 0.23031216E+00 0.49283590E+02</pdfrwt>
<totfact> 0.67068704E+04</totfact>
</mgrwt>
</event>
<event>
 4    1  0.2051373E-002  0.9147319E+02  0.7818608E-02  0.1299323E+00
          1   -1    0    0    0  501  0.00000000000E+00  0.00000000000E+00  0.27930033029E+01  0.27930078503E+01  0.50400000000E-02 0.  1.
         -1   -1    0    0  501    0 -0.00000000000E+00 -0.00000000000E+00 -0.74895523119E+03  0.74895523121E+03  0.50400000000E-02 0.  1.
          2    1    1    2    0  502  0.38650079875E+02  0.11516542546E+02 -0.19579247024E+03  0.19990285350E+03  0.25500000000E-02 0.  1.
         -2    1    1    2  502    0 -0.38650079875E+02 -0.11516542546E+02 -0.55036975764E+03  0.55184538556E+03  0.25500000000E-02 0.  1.
<mgrwt>
<rscale>  0 0.91473191E+02</rscale>
<asrwt>0</asrwt>
<pdfrwt beam="1">  1        1 0.42969376E-03 0.91473191E+02</pdfrwt>
<pdfrwt beam="2">  1       -1 0.11522372E+00 0.91473191E+02</pdfrwt>
<totfact> 0.34434270E+04</totfact>
</mgrwt>
</event>
<event>
 4    1  0.2051373E-002  0.5225167E+02  0.7818608E-02  0.1433562E+00
         -1   -1    0    0  501    0 -0.00000000000E+00  0.00000000000E+00  0.40993964907E+01  0.40993995890E+01  0.50400000000E-02 0. -1.
          1   -1    0    0    0  501  0.00000000000E+00 -0.00000000000E+00 -0.16650231108E+03  0.16650231116E+03  0.50400000000E-02 0. -1.
          2    1    1    2    0  502  0.87285487714E+01 -0.24618874317E+02 -0.82937497349E+02  0.86953464619E+02  0.25500000000E-02 0.  1.
         -2    1    1    2  502    0 -0.87285487714E+01  0.24618874317E+02 -0.79465417242E+02  0.83648246127E+02  0.25500000000E-02 0.  1.
<mgrwt>
<rscale>  0 0.52251670E+02</rscale>
<asrwt>0</asrwt>
<pdfrwt beam="2">  1        1 0.25615735E-01 0.52251670E+02</pdfrwt>
<pdfrwt beam="1">  1       -1 0.63067675E-03 0.52251670E+02</pdfrwt>
<totfact> 0.48779376E+05</totfact>
</mgrwt>
</event>
<event>
 4    1  0.2051373E-002  0.5436289E+02  0.7818608E-02  0.1423136E+00
         -1   -1    0    0  501    0 -0.00000000000E+00  0.00000000000E+00  0.16550670966E+01  0.16550747704E+01  0.50400000000E-02 0. -1.
          1   -1    0    0    0  501  0.00000000000E+00 -0.00000000000E+00 -0.44640440129E+03  0.44640440131E+03  0.50400000000E-02 0. -1.
          2    1    1    2    0  502 -0.17143128128E+02 -0.15541621060E+02 -0.33992148418E+03  0.34070815112E+03  0.25500000000E-02 0.  1.
         -2    1    1    2  502    0  0.17143128128E+02  0.15541621060E+02 -0.10482785001E+03  0.10735132496E+03  0.25500000000E-02 0.  1.
<mgrwt>
<rscale>  0 0.54362890E+02</rscale>
<asrwt>0</asrwt>
<pdfrwt beam="2">  1        1 0.68677505E-01 0.54362890E+02</pdfrwt>
<pdfrwt beam="1">  1       -1 0.25462666E-03 0.54362890E+02</pdfrwt>
<totfact> 0.52154211E+05</totfact>
</mgrwt>
</event>
<event>
 4    1  0.2051373E-002  0.4405235E+02  0.7818608E-02  0.1480346E+00
         -1   -1    0    0  501    0 -0.00000000000E+00  0.00000000000E+00  0.10732759575E+02  0.10732760758E+02  0.50400000000E-02 0. -1.
          1   -1    0    0    0  501  0.00000000000E+00 -0.00000000000E+00 -0.45202938069E+02  0.45202938350E+02  0.50400000000E-02 0. -1.
          2    1    1    2    0  502 -0.21352077904E+02  0.48656425118E+01 -0.14239275857E+02  0.26121690055E+02  0.25500000000E-02 0.  1.
         -2    1    1    2  502    0  0.21352077904E+02 -0.48656425118E+01 -0.20230902637E+02  0.29814009054E+02  0.25500000000E-02 0.  1.
<mgrwt>
<rscale>  0 0.44052346E+02</rscale>
<asrwt>0</asrwt>
<pdfrwt beam="2">  1        1 0.69542982E-02 0.44052346E+02</pdfrwt>
<pdfrwt beam="1">  1       -1 0.16511939E-02 0.44052346E+02</pdfrwt>
<totfact> 0.63660336E+05</totfact>
</mgrwt>
</event>
<event>
 4    1  0.2051373E-002  0.5528043E+02  0.7818608E-02  0.1418777E+00
         -1   -1    0    0  501    0 -0.00000000000E+00  0.00000000000E+00  0.17963994956E+01  0.17964065657E+01  0.50400000000E-02 0. -1.
          1   -1    0    0    0  501  0.00000000000E+00 -0.00000000000E+00 -0.42528406629E+03  0.42528406632E+03  0.50400000000E-02 0. -1.
          2    1    1    2    0  502  0.14417471297E+02  0.17410390097E+02 -0.33462786932E+03  0.33539051283E+03  0.25500000000E-02 0. -1.
         -2    1    1    2  502    0 -0.14417471297E+02 -0.17410390097E+02 -0.88859797471E+02  0.91689960055E+02  0.25500000000E-02 0. -1.
<mgrwt>
<rscale>  0 0.55280434E+02</rscale>
<asrwt>0</asrwt>
<pdfrwt beam="2">  1        1 0.65428238E-01 0.55280434E+02</pdfrwt>
<pdfrwt beam="1">  1       -1 0.27637004E-03 0.55280434E+02</pdfrwt>
<totfact> 0.49670580E+05</totfact>
</mgrwt>
</event>
<event>
 4    1  0.2051373E-002  0.6216143E+02  0.7818608E-02  0.1388979E+00
          1   -1    0    0    0  501  0.00000000000E+00  0.00000000000E+00  0.63285981133E+03  0.63285981135E+03  0.50400000000E-02 0.  1.
         -1   -1    0    0  501    0 -0.00000000000E+00 -0.00000000000E+00 -0.15264172540E+01  0.15264255747E+01  0.50400000000E-02 0.  1.
          2    1    1    2    0  502  0.68957991762E+01  0.21910218528E+02  0.52934900410E+03  0.52984712689E+03  0.25500000000E-02 0. -1.
         -2    1    1    2  502    0 -0.68957991762E+01 -0.21910218528E+02  0.10198438998E+03  0.10453911004E+03  0.25500000000E-02 0. -1.
<mgrwt>
<rscale>  0 0.62161428E+02</rscale>
<asrwt>0</asrwt>
<pdfrwt beam="1">  1        1 0.97363095E-01 0.62161428E+02</pdfrwt>
<pdfrwt beam="2">  1       -1 0.23483395E-03 0.62161428E+02</pdfrwt>
<totfact> 0.38364600E+05</totfact>
</mgrwt>
</event>
<event>
 4    1  0.2051373E-002  0.1295815E+03  0.7818608E-02  0.1228078E+00
          1   -1    0    0    0  501  0.00000000000E+00  0.00000000000E+00  0.13578497696E+02  0.13578498631E+02  0.50400000000E-02 0. -1.
         -1   -1    0    0  501    0 -0.00000000000E+00 -0.00000000000E+00 -0.30915362332E+03  0.30915362336E+03  0.50400000000E-02 0. -1.
          2    1    1    2    0  502  0.63891856962E+02 -0.84526686110E+01 -0.16435032199E+03  0.17653511077E+03  0.25500000000E-02 0.  1.
         -2    1    1    2  502    0 -0.63891856962E+02  0.84526686110E+01 -0.13122480364E+03  0.14619701122E+03  0.25500000000E-02 0.  1.
<mgrwt>
<rscale>  0 0.12958151E+03</rscale>
<asrwt>0</asrwt>
<pdfrwt beam="1">  1        1 0.20889999E-02 0.12958151E+03</pdfrwt>
<pdfrwt beam="2">  1       -1 0.47562091E-01 0.12958151E+03</pdfrwt>
<totfact> 0.23626278E+04</totfact>
</mgrwt>
</event>
<event>
 4    1  0.2051373E-002  0.9899029E+02  0.7818608E-02  0.1282434E+00
          1   -1    0    0    0  501  0.00000000000E+00  0.00000000000E+00  0.10931826146E+03  0.10931826158E+03  0.50400000000E-02 0.  1.
         -1   -1    0    0  501    0 -0.00000000000E+00 -0.00000000000E+00 -0.22409516736E+02  0.22409517302E+02  0.50400000000E-02 0.  1.
          2    1    1    2    0  502 -0.35936382544E+02 -0.29749460351E+02  0.21454666714E+02  0.51349359410E+02  0.25500000000E-02 0. -1.
         -2    1    1    2  502    0  0.35936382544E+02  0.29749460351E+02  0.65454078013E+02  0.80378419470E+02  0.25500000000E-02 0. -1.
<mgrwt>
<rscale>  0 0.98990292E+02</rscale>
<asrwt>0</asrwt>
<pdfrwt beam="1">  1        1 0.16818194E-01 0.98990292E+02</pdfrwt>
<pdfrwt beam="2">  1       -1 0.34476180E-02 0.98990292E+02</pdfrwt>
<totfact> 0.84672244E+04</totfact>
</mgrwt>
</event>
<event>
 4    1  0.2051373E-002  0.5368142E+02  0.7818608E-02  0.1426439E+00
          1   -1    0    0    0  501  0.00000000000E+00  0.00000000000E+00  0.15481037040E+01  0.15481119080E+01  0.50400000000E-02 0. -1.
         -1   -1    0    0  501    0 -0.00000000000E+00 -0.00000000000E+00 -0.46535760610E+03  0.46535760612E+03  0.50400000000E-02 0. -1.
          2    1    1    2    0  502 -0.25488605241E+02  0.82500070765E+01 -0.24617572449E+03  0.24762919648E+03  0.25500000000E-02 0.  1.
         -2    1    1    2  502    0  0.25488605241E+02 -0.82500070765E+01 -0.21763377790E+03  0.21927652155E+03  0.25500000000E-02 0.  1.
<mgrwt>
<rscale>  0 0.53681422E+02</rscale>
<asrwt>0</asrwt>
<pdfrwt beam="1">  1        1 0.23817080E-03 0.53681422E+02</pdfrwt>
<pdfrwt beam="2">  1       -1 0.71593367E-01 0.53681422E+02</pdfrwt>
<totfact> 0.19080617E+05</totfact>
</mgrwt>
</event>
<event>
 4    1  0.2051373E-002  0.4670718E+02  0.7818608E-02  0.1463957E+00
         -1   -1    0    0  501    0 -0.00000000000E+00  0.00000000000E+00  0.83461003238E+00  0.83462524989E+00  0.50400000000E-02 0. -1.
          1   -1    0    0    0  501  0.00000000000E+00 -0.00000000000E+00 -0.65346109557E+03  0.65346109559E+03  0.50400000000E-02 0. -1.
          2    1    1    2    0  502  0.22878098830E+02 -0.31977699325E+01 -0.27828030326E+03  0.27923746225E+03  0.25500000000E-02 0. -1.
         -2    1    1    2  502    0 -0.22878098830E+02  0.31977699325E+01 -0.37434618228E+03  0.37505825858E+03  0.25500000000E-02 0. -1.
<mgrwt>
<rscale>  0 0.46707180E+02</rscale>
<asrwt>0</asrwt>
<pdfrwt beam="2">  1        1 0.10053207E+00 0.46707180E+02</pdfrwt>
<pdfrwt beam="1">  1       -1 0.12840324E-03 0.46707180E+02</pdfrwt>
<totfact> 0.78503153E+05</totfact>
</mgrwt>
</event>
<event>
 4    1  0.2051373E-002  0.4487548E+02  0.7818608E-02  0.1475121E+00
          1   -1    0    0    0  501  0.00000000000E+00  0.00000000000E+00  0.28538467957E+03  0.28538467961E+03  0.50400000000E-02 0.  1.
         -1   -1    0    0  501    0 -0.00000000000E+00 -0.00000000000E+00 -0.17641137531E+01  0.17641209526E+01  0.50400000000E-02 0.  1.
          2    1    1    2    0  502 -0.69022416353E+01 -0.19548326245E+02  0.19673341331E+03  0.19782268302E+03  0.25500000000E-02 0. -1.
         -2    1    1    2  502    0  0.69022416353E+01  0.19548326245E+02  0.86887152510E+02  0.89326117549E+02  0.25500000000E-02 0. -1.
<mgrwt>
<rscale>  0 0.44875476E+02</rscale>
<asrwt>0</asrwt>
<pdfrwt beam="1">  1        1 0.43905371E-01 0.44875476E+02</pdfrwt>
<pdfrwt beam="2">  1       -1 0.27140246E-03 0.44875476E+02</pdfrwt>
<totfact> 0.78223556E+05</totfact>
</mgrwt>
</event>
<event>
 4    1  0.2051373E-002  0.4730308E+02  0.7818608E-02  0.1460456E+00
         -1   -1    0    0  501    0 -0.00000000000E+00  0.00000000000E+00  0.26726824252E+00  0.26731575909E+00  0.50400000000E-02 0.  1.
          1   -1    0    0    0  501  0.00000000000E+00 -0.00000000000E+00 -0.20928252066E+04  0.20928252066E+04  0.50400000000E-02 0.  1.
          2    1    1    2    0  502  0.23475163740E+02 -0.28481316390E+01 -0.10264767427E+04  0.10267490923E+04  0.25500000000E-02 0.  1.
         -2    1    1    2  502    0 -0.23475163740E+02  0.28481316390E+01 -0.10660811956E+04  0.10663434301E+04  0.25500000000E-02 0.  1.
<mgrwt>
<rscale>  0 0.47303084E+02</rscale>
<asrwt>0</asrwt>
<pdfrwt beam="2">  1        1 0.32195999E+00 0.47303084E+02</pdfrwt>
<pdfrwt beam="1">  1       -1 0.41123523E-04 0.47303084E+02</pdfrwt>
<totfact> 0.40333141E+05</totfact>
</mgrwt>
</event>
<event>
 4    1  0.2051373E-002  0.7827924E+02  0.7818608E-02  0.1334007E+00
          1   -1    0    0    0  501  0.00000000000E+00  0.00000000000E+00  0.62700531381E+02  0.62700531583E+02  0.50400000000E-02 0. -1.
         -1   -1    0    0  501    0 -0.00000000000E+00 -0.00000000000E+00 -0.24432169495E+02  0.24432170015E+02  0.50400000000E-02 0. -1.
          2    1    1    2    0  502 -0.24356309831E+02  0.15704559107E+02  0.48416290228E+02  0.56426945436E+02  0.25500000000E-02 0.  1.
         -2    1    1    2  502    0  0.24356309831E+02 -0.15704559107E+02 -0.10147928342E+02  0.30705756162E+02  0.25500000000E-02 0.  1.
<mgrwt>
<rscale>  0 0.78279245E+02</rscale>
<asrwt>0</asrwt>
<pdfrwt beam="1">  1        1 0.96462357E-02 0.78279245E+02</pdfrwt>
<pdfrwt beam="2">  1       -1 0.37587953E-02 0.78279245E+02</pdfrwt>
<totfact> 0.14728047E+05</totfact>
</mgrwt>
</event>
<event>
 4    1  0.2051373E-002  0.4481181E+02  0.7818608E-02  0.1475520E+00
         -1   -1    0    0  501    0 -0.00000000000E+00  0.00000000000E+00  0.62409425177E+03  0.62409425179E+03  0.50400000000E-02 0.  1.
          1   -1    0    0    0  501  0.00000000000E+00 -0.00000000000E+00 -0.80439698819E+00  0.80441277725E+00  0.50400000000E-02 0.  1.
          2    1    1    2    0  502  0.79069319184E+01 -0.20093916360E+02  0.22827855177E+03  0.22929758448E+03  0.25500000000E-02 0. -1.
         -2    1    1    2  502    0 -0.79069319184E+01  0.20093916360E+02  0.39501130302E+03  0.39560108009E+03  0.25500000000E-02 0. -1.
<mgrwt>
<rscale>  0 0.44811805E+02</rscale>
<asrwt>0</asrwt>
<pdfrwt beam="2">  1        1 0.12375403E-03 0.44811805E+02</pdfrwt>
<pdfrwt beam="1">  1       -1 0.96014939E-01 0.44811805E+02</pdfrwt>
<totfact> 0.24548767E+05</totfact>
</mgrwt>
</event>
<event>
 4    1  0.2051373E-002  0.4312379E+02  0.7818608E-02  0.1486406E+00
         -1   -1    0    0  501    0 -0.00000000000E+00  0.00000000000E+00  0.12595810435E+02  0.12595811444E+02  0.50400000000E-02 0. -1.
          1   -1    0    0    0  501  0.00000000000E+00 -0.00000000000E+00 -0.36910312856E+02  0.36910313200E+02  0.50400000000E-02 0. -1.
          2    1    1    2    0  502  0.36623989657E+01  0.21245918863E+02 -0.12543321353E+02  0.24942677314E+02  0.25500000000E-02 0.  1.
         -2    1    1    2  502    0 -0.36623989657E+01 -0.21245918863E+02 -0.11771181068E+02  0.24563447330E+02  0.25500000000E-02 0.  1.
<mgrwt>
<rscale>  0 0.43123791E+02</rscale>
<asrwt>0</asrwt>
<pdfrwt beam="2">  1        1 0.56785097E-02 0.43123791E+02</pdfrwt>
<pdfrwt beam="1">  1       -1 0.19378171E-02 0.43123791E+02</pdfrwt>
<totfact> 0.66007597E+05</totfact>
</mgrwt>
</event>
<event>
 4    1  0.2051373E-002  0.7099469E+02  0.7818608E-02  0.1356743E+00
          1   -1    0    0    0  501  0.00000000000E+00  0.00000000000E+00  0.93187543678E+03  0.93187543679E+03  0.50400000000E-02 0. -1.
         -1   -1    0    0  501    0 -0.00000000000E+00 -0.00000000000E+00 -0.13521734421E+01  0.13521828350E+01  0.50400000000E-02 0. -1.
          2    1    1    2    0  502 -0.33701982644E+02 -0.63398414302E+01  0.34475359042E+03  0.34645498313E+03  0.25500000000E-02 0.  1.
         -2    1    1    2  502    0  0.33701982644E+02  0.63398414302E+01  0.58576967292E+03  0.58677263650E+03  0.25500000000E-02 0.  1.
<mgrwt>
<rscale>  0 0.70994693E+02</rscale>
<asrwt>0</asrwt>
<pdfrwt beam="1">  1        1 0.14336591E+00 0.70994693E+02</pdfrwt>
<pdfrwt beam="2">  1       -1 0.20802674E-03 0.70994693E+02</pdfrwt>
<totfact> 0.26573450E+05</totfact>
</mgrwt>
</event>
<event>
 4    1  0.2051373E-002  0.6754147E+02  0.7818608E-02  0.1368659E+00
          1   -1    0    0    0  501  0.00000000000E+00  0.00000000000E+00  0.90631231252E+03  0.90631231254E+03  0.50400000000E-02 0.  1.
         -1   -1    0    0  501    0 -0.00000000000E+00 -0.00000000000E+00 -0.12583498207E+01  0.12583599139E+01  0.50400000000E-02 0.  1.
          2    1    1    2    0  502 -0.97396288056E+01 -0.32232862792E+02  0.48716457661E+03  0.48832688081E+03  0.25500000000E-02 0.  1.
         -2    1    1    2  502    0  0.97396288056E+01  0.32232862792E+02  0.41788938609E+03  0.41924379164E+03  0.25500000000E-02 0.  1.
<mgrwt>
<rscale>  0 0.67541469E+02</rscale>
<asrwt>0</asrwt>
<pdfrwt beam="1">  1        1 0.13943259E+00 0.67541469E+02</pdfrwt>
<pdfrwt beam="2">  1       -1 0.19359317E-03 0.67541469E+02</pdfrwt>
<totfact> 0.30368520E+05</totfact>
</mgrwt>
</event>
<event>
 4    1  0.2051373E-002  0.6532692E+02  0.7818608E-02  0.1376746E+00
          1   -1    0    0    0  501  0.00000000000E+00  0.00000000000E+00  0.84549881633E+00  0.84551383786E+00  0.50400000000E-02 0. -1.
         -1   -1    0    0  501    0 -0.00000000000E+00 -0.00000000000E+00 -0.12618495185E+04  0.12618495185E+04  0.50400000000E-02 0. -1.
          2    1    1    2    0  502  0.28274543114E+02 -0.10906003126E+02 -0.39495062254E+03  0.39611158143E+03  0.25500000000E-02 0. -1.
         -2    1    1    2  502    0 -0.28274543114E+02  0.10906003126E+02 -0.86605339710E+03  0.86658345088E+03  0.25500000000E-02 0. -1.
<mgrwt>
<rscale>  0 0.65326924E+02</rscale>
<asrwt>0</asrwt>
<pdfrwt beam="1">  1        1 0.13007891E-03 0.65326924E+02</pdfrwt>
<pdfrwt beam="2">  1       -1 0.19412919E+00 0.65326924E+02</pdfrwt>
<totfact> 0.44230056E+04</totfact>
</mgrwt>
</event>
<event>
 4    1  0.2051373E-002  0.5610389E+02  0.7818608E-02  0.1414949E+00
          1   -1    0    0    0  501  0.00000000000E+00  0.00000000000E+00  0.35922027666E+02  0.35922028019E+02  0.50400000000E-02 0. -1.
         -1   -1    0    0  501    0 -0.00000000000E+00 -0.00000000000E+00 -0.21906101389E+02  0.21906101969E+02  0.50400000000E-02 0. -1.
          2    1    1    2    0  502 -0.19606881455E+02  0.19989216482E+02  0.52487508110E+01  0.28487680979E+02  0.25500000000E-02 0. -1.
         -2    1    1    2  502    0  0.19606881455E+02 -0.19989216482E+02  0.87671754652E+01  0.29340449010E+02  0.25500000000E-02 0. -1.
<mgrwt>
<rscale>  0 0.56103890E+02</rscale>
<asrwt>0</asrwt>
<pdfrwt beam="1">  1        1 0.55264658E-02 0.56103890E+02</pdfrwt>
<pdfrwt beam="2">  1       -1 0.33701696E-02 0.56103890E+02</pdfrwt>
<totfact> 0.33503003E+05</totfact>
</mgrwt>
</event>
<event>
 4    1  0.2051373E-002  0.6106866E+02  0.7818608E-02  0.1393401E+00
          1   -1    0    0    0  501  0.00000000000E+00  0.00000000000E+00  0.69483740505E+03  0.69483740507E+03  0.50400000000E-02 0.  1.
         -1   -1    0    0  501    0 -0.00000000000E+00 -0.00000000000E+00 -0.13418130623E+01  0.13418225276E+01  0.50400000000E-02 0.  1.
          2    1    1    2    0  502  0.20041454200E+02  0.22573763317E+02  0.29436939910E+03  0.29591312544E+03  0.25500000000E-02 0. -1.
         -2    1    1    2  502    0 -0.20041454200E+02 -0.22573763317E+02  0.39912619289E+03  0.40026610215E+03  0.25500000000E-02 0. -1.
<mgrwt>
<rscale>  0 0.61068657E+02</rscale>
<asrwt>0</asrwt>
<pdfrwt beam="1">  1        1 0.10689800E+00 0.61068657E+02</pdfrwt>
<pdfrwt beam="2">  1       -1 0.20643363E-03 0.61068657E+02</pdfrwt>
<totfact> 0.40181316E+05</totfact>
</mgrwt>
</event>
<event>
 4    1  0.2051373E-002  0.4236116E+02  0.7818608E-02  0.1491521E+00
         -1   -1    0    0  501    0 -0.00000000000E+00  0.00000000000E+00  0.92608595418E+00  0.92609966857E+00  0.50400000000E-02 0. -1.
          1   -1    0    0    0  501  0.00000000000E+00 -0.00000000000E+00 -0.48441896591E+03  0.48441896594E+03  0.50400000000E-02 0. -1.
          2    1    1    2    0  502 -0.19660059009E+02 -0.76061573620E+01 -0.26535344987E+03  0.26618945304E+03  0.25500000000E-02 0. -1.
         -2    1    1    2  502    0  0.19660059009E+02  0.76061573620E+01 -0.21813943009E+03  0.21915561256E+03  0.25500000000E-02 0. -1.
<mgrwt>
<rscale>  0 0.42361158E+02</rscale>
<asrwt>0</asrwt>
<pdfrwt beam="2">  1        1 0.74525793E-01 0.42361158E+02</pdfrwt>
<pdfrwt beam="1">  1       -1 0.14247621E-03 0.42361158E+02</pdfrwt>
<totfact> 0.97608159E+05</totfact>
</mgrwt>
</event>
<event>
 4    1  0.2051373E-002  0.4432155E+02  0.7818608E-02  0.1478622E+00
         -1   -1    0    0  501    0 -0.00000000000E+00  0.00000000000E+00  0.26969505440E+01  0.26969552534E+01  0.50400000000E-02 0.  1.
          1   -1    0    0    0  501  0.00000000000E+00 -0.00000000000E+00 -0.18209439096E+03  0.18209439103E+03  0.50400000000E-02 0.  1.
          2    1    1    2    0  502  0.16363076229E+02  0.14944873818E+02 -0.89790512751E+02  0.92484786337E+02  0.25500000000E-02 0.  1.
         -2    1    1    2  502    0 -0.16363076229E+02 -0.14944873818E+02 -0.89606927663E+02  0.92306559945E+02  0.25500000000E-02 0.  1.
<mgrwt>
<rscale>  0 0.44321553E+02</rscale>
<asrwt>0</asrwt>
<pdfrwt beam="2">  1        1 0.28014512E-01 0.44321553E+02</pdfrwt>
<pdfrwt beam="1">  1       -1 0.41491598E-03 0.44321553E+02</pdfrwt>
<totfact> 0.74657075E+05</totfact>
</mgrwt>
</event>
<event>
 4    1  0.2051373E-002  0.4709016E+02  0.7818608E-02  0.1461700E+00
         -1   -1    0    0  501    0 -0.00000000000E+00  0.00000000000E+00  0.28925993399E+02  0.28925993838E+02  0.50400000000E-02 0. -1.
          1   -1    0    0    0  501  0.00000000000E+00 -0.00000000000E+00 -0.19165139527E+02  0.19165140190E+02  0.50400000000E-02 0. -1.
          2    1    1    2    0  502  0.13817928280E+02  0.16955655731E+02  0.13780097651E+02  0.25851895501E+02  0.25500000000E-02 0.  1.
         -2    1    1    2  502    0 -0.13817928280E+02 -0.16955655731E+02 -0.40192437789E+01  0.22239238527E+02  0.25500000000E-02 0.  1.
<mgrwt>
<rscale>  0 0.47090157E+02</rscale>
<asrwt>0</asrwt>
<pdfrwt beam="2">  1        1 0.29484831E-02 0.47090157E+02</pdfrwt>
<pdfrwt beam="1">  1       -1 0.44501529E-02 0.47090157E+02</pdfrwt>
<totfact> 0.49920439E+05</totfact>
</mgrwt>
</event>
<event>
 4    1  0.2051373E-002  0.6849315E+02  0.7818608E-02  0.1365293E+00
         -1   -1    0    0  501    0 -0.00000000000E+00  0.00000000000E+00  0.84725847220E+00  0.84727346253E+00  0.50400000000E-02 0.  1.
          1   -1    0    0    0  501  0.00000000000E+00 -0.00000000000E+00 -0.13842497787E+04  0.13842497787E+04  0.50400000000E-02 0.  1.
          2    1    1    2    0  502 -0.15675122155E+02  0.19423568155E+02 -0.21751108097E+03  0.21893847265E+03  0.25500000000E-02 0.  1.
         -2    1    1    2  502    0  0.15675122155E+02 -0.19423568155E+02 -0.11658914393E+04  0.11661585795E+04  0.25500000000E-02 0.  1.
<mgrwt>
<rscale>  0 0.68493145E+02</rscale>
<asrwt>0</asrwt>
<pdfrwt beam="2">  1        1 0.21295970E+00 0.68493145E+02</pdfrwt>
<pdfrwt beam="1">  1       -1 0.13034972E-03 0.68493145E+02</pdfrwt>
<totfact> 0.24758976E+05</totfact>
</mgrwt>
</event>
