<event>
 4    1  0.3946801E-002  0.4468790E+02  0.7818608E-02  0.1476299E+00
         -1   -1    0    0  501    0 -0.00000000000E+00  0.00000000000E+00  0.20339499769E+03  0.20339499776E+03  0.50400000000E-02 0.  1.
          1   -1    0    0    0  501  0.00000000000E+00 -0.00000000000E+00 -0.24545915139E+01  0.24545966882E+01  0.50400000000E-02 0.  1.
          2    1    1    2    0  502 -0.22225650133E+02  0.41856942755E+00  0.90070133325E+02  0.92772752724E+02  0.25500000000E-02 0. -1.
         -2    1    1    2  502    0  0.22225650133E+02 -0.41856942755E+00  0.11087027285E+03  0.11307684172E+03  0.25500000000E-02 0. -1.
<mgrwt>
<rscale>  0 0.44687903E+02</rscale>
<asrwt>0</asrwt>
<pdfrwt beam="2">  1        1 0.37762982E-03 0.44687903E+02</pdfrwt>
<pdfrwt beam="1">  1       -1 0.31291543E-01 0.44687903E+02</pdfrwt>
<totfact> 0.42076571E+05</totfact>
</mgrwt>
</event>
<event>
 4    1  0.3946801E-002  0.4863160E+02  0.7818608E-02  0.1452865E+00
          1   -1    0    0    0  501  0.00000000000E+00  0.00000000000E+00  0.16851322437E+02  0.16851323191E+02  0.50400000000E-02 0. -1.
         -1   -1    0    0  501    0 -0.00000000000E+00 -0.00000000000E+00 -0.35086749389E+02  0.35086749751E+02  0.50400000000E-02 0. -1.
          2    1    1    2    0  502 -0.16138613633E+02  0.16372027812E+02 -0.17578461256E+02  0.28939600055E+02  0.25500000000E-02 0. -1.
         -2    1    1    2  502    0  0.16138613633E+02 -0.16372027812E+02 -0.65696569493E+00  0.22998472887E+02  0.25500000000E-02 0. -1.
<mgrwt>
<rscale>  0 0.48631601E+02</rscale>
<asrwt>0</asrwt>
<pdfrwt beam="1">  1        1 0.25925112E-02 0.48631601E+02</pdfrwt>
<pdfrwt beam="2">  1       -1 0.53979615E-02 0.48631601E+02</pdfrwt>
<totfact> 0.45352680E+05</totfact>
</mgrwt>
</event>
<event>
 4    1  0.3946801E-002  0.5918346E+02  0.7818608E-02  0.1401291E+00
          1   -1    0    0    0  501  0.00000000000E+00  0.00000000000E+00  0.66402417589E+02  0.66402417780E+02  0.50400000000E-02 0. -1.
         -1   -1    0    0  501    0 -0.00000000000E+00 -0.00000000000E+00 -0.13187327041E+02  0.13187328004E+02  0.50400000000E-02 0. -1.
          2    1    1    2    0  502  0.19610796138E+02 -0.18815315549E+02  0.10863019427E+02  0.29267808629E+02  0.25500000000E-02 0. -1.
         -2    1    1    2  502    0 -0.19610796138E+02  0.18815315549E+02  0.42352071121E+02  0.50321937156E+02  0.25500000000E-02 0. -1.
<mgrwt>
<rscale>  0 0.59183459E+02</rscale>
<asrwt>0</asrwt>
<pdfrwt beam="1">  1        1 0.10215757E-01 0.59183459E+02</pdfrwt>
<pdfrwt beam="2">  1       -1 0.20288196E-02 0.59183459E+02</pdfrwt>
<totfact> 0.31142561E+05</totfact>
</mgrwt>
</event>
<event>
 4    1  0.3946801E-002  0.5432464E+02  0.7818608E-02  0.1423320E+00
          1   -1    0    0    0  501  0.00000000000E+00  0.00000000000E+00  0.65930753294E+03  0.65930753296E+03  0.50400000000E-02 0.  1.
         -1   -1    0    0  501    0 -0.00000000000E+00 -0.00000000000E+00 -0.11190344472E+01  0.11190457970E+01  0.50400000000E-02 0.  1.
          2    1    1    2    0  502  0.65674868654E+01 -0.25645915440E+02  0.25519914349E+03  0.25656860234E+03  0.25500000000E-02 0.  1.
         -2    1    1    2  502    0 -0.65674868654E+01  0.25645915440E+02  0.40298935500E+03  0.40385797641E+03  0.25500000000E-02 0.  1.
<mgrwt>
<rscale>  0 0.54324639E+02</rscale>
<asrwt>0</asrwt>
<pdfrwt beam="1">  1        1 0.10143207E+00 0.54324639E+02</pdfrwt>
<pdfrwt beam="2">  1       -1 0.17215978E-03 0.54324639E+02</pdfrwt>
<totfact> 0.53960154E+05</totfact>
</mgrwt>
</event>
<event>
 4    1  0.3946801E-002  0.7913417E+02  0.7818608E-02  0.1331527E+00
         -1   -1    0    0  501    0 -0.00000000000E+00  0.00000000000E+00  0.19416669950E+02  0.19416670605E+02  0.50400000000E-02 0. -1.
          1   -1    0    0    0  501  0.00000000000E+00 -0.00000000000E+00 -0.80629386164E+02  0.80629386321E+02  0.50400000000E-02 0. -1.
          2    1    1    2    0  502 -0.30050165924E+02 -0.25708560999E+02 -0.29001380496E+02  0.49041030351E+02  0.25500000000E-02 0. -1.
         -2    1    1    2  502    0  0.30050165924E+02  0.25708560999E+02 -0.32211335717E+02  0.51005026575E+02  0.25500000000E-02 0. -1.
<mgrwt>
<rscale>  0 0.79134170E+02</rscale>
<asrwt>0</asrwt>
<pdfrwt beam="2">  1        1 0.12404521E-01 0.79134170E+02</pdfrwt>
<pdfrwt beam="1">  1       -1 0.29871801E-02 0.79134170E+02</pdfrwt>
<totfact> 0.14821016E+05</totfact>
</mgrwt>
</event>
<event>
 4    1  0.3946801E-002  0.7934667E+02  0.7818608E-02  0.1330916E+00
          1   -1    0    0    0  501  0.00000000000E+00  0.00000000000E+00  0.44930728108E+01  0.44930756376E+01  0.50400000000E-02 0. -1.
         -1   -1    0    0  501    0 -0.00000000000E+00 -0.00000000000E+00 -0.35031107513E+03  0.35031107517E+03  0.50400000000E-02 0. -1.
          2    1    1    2    0  502 -0.44131919819E+01 -0.30478018015E+02 -0.61067211652E+02  0.68392910386E+02  0.25500000000E-02 0. -1.
         -2    1    1    2  502    0  0.44131919819E+01  0.30478018015E+02 -0.28475079067E+03  0.28641124042E+03  0.25500000000E-02 0. -1.
<mgrwt>
<rscale>  0 0.79346674E+02</rscale>
<asrwt>0</asrwt>
<pdfrwt beam="1">  1        1 0.69124247E-03 0.79346674E+02</pdfrwt>
<pdfrwt beam="2">  1       -1 0.53893990E-01 0.79346674E+02</pdfrwt>
<totfact> 0.81513073E+04</totfact>
</mgrwt>
</event>
<event>
 4    1  0.3946801E-002  0.6255358E+02  0.7818608E-02  0.1387418E+00
          1   -1    0    0    0  501  0.00000000000E+00  0.00000000000E+00  0.44422537155E+03  0.44422537158E+03  0.50400000000E-02 0.  1.
         -1   -1    0    0  501    0 -0.00000000000E+00 -0.00000000000E+00 -0.22021173627E+01  0.22021231302E+01  0.50400000000E-02 0.  1.
          2    1    1    2    0  502  0.90644443632E+01 -0.23785756522E+02  0.91305505397E+02  0.94787244328E+02  0.25500000000E-02 0. -1.
         -2    1    1    2  502    0 -0.90644443632E+01  0.23785756522E+02  0.35071774879E+03  0.35164025038E+03  0.25500000000E-02 0. -1.
<mgrwt>
<rscale>  0 0.62553583E+02</rscale>
<asrwt>0</asrwt>
<pdfrwt beam="1">  1        1 0.68342344E-01 0.62553583E+02</pdfrwt>
<pdfrwt beam="2">  1       -1 0.33878784E-03 0.62553583E+02</pdfrwt>
<totfact> 0.36542034E+05</totfact>
</mgrwt>
</event>
<event>
 4    1  0.3946801E-002  0.1009027E+03  0.7818608E-02  0.1278409E+00
         -1   -1    0    0  501    0 -0.00000000000E+00  0.00000000000E+00  0.18365608594E+02  0.18365609285E+02  0.50400000000E-02 0. -1.
          1   -1    0    0    0  501  0.00000000000E+00 -0.00000000000E+00 -0.13859270188E+03  0.13859270198E+03  0.50400000000E-02 0. -1.
          2    1    1    2    0  502  0.35869190110E+02 -0.20107678725E+02 -0.14644312303E+02  0.43650583412E+02  0.25500000000E-02 0.  1.
         -2    1    1    2  502    0 -0.35869190110E+02  0.20107678725E+02 -0.10558278099E+03  0.11330772785E+03  0.25500000000E-02 0.  1.
<mgrwt>
<rscale>  0 0.10090271E+03</rscale>
<asrwt>0</asrwt>
<pdfrwt beam="2">  1        1 0.21321954E-01 0.10090271E+03</pdfrwt>
<pdfrwt beam="1">  1       -1 0.28254784E-02 0.10090271E+03</pdfrwt>
<totfact> 0.83889749E+04</totfact>
</mgrwt>
</event>
<event>
 4    1  0.3946801E-002  0.8212524E+02  0.7818608E-02  0.1323126E+00
         -1   -1    0    0  501    0 -0.00000000000E+00  0.00000000000E+00  0.24943402098E+02  0.24943402607E+02  0.50400000000E-02 0. -1.
          1   -1    0    0    0  501  0.00000000000E+00 -0.00000000000E+00 -0.67598585788E+02  0.67598585976E+02  0.50400000000E-02 0. -1.
          2    1    1    2    0  502  0.25247693792E+02 -0.25766183540E+02 -0.43431940489E+02  0.56459505109E+02  0.25500000000E-02 0. -1.
         -2    1    1    2  502    0 -0.25247693792E+02  0.25766183540E+02  0.77675679830E+00  0.36082483474E+02  0.25500000000E-02 0. -1.
<mgrwt>
<rscale>  0 0.82125239E+02</rscale>
<asrwt>0</asrwt>
<pdfrwt beam="2">  1        1 0.10399782E-01 0.82125239E+02</pdfrwt>
<pdfrwt beam="1">  1       -1 0.38374466E-02 0.82125239E+02</pdfrwt>
<totfact> 0.13067706E+05</totfact>
</mgrwt>
</event>
<event>
 4    1  0.3946801E-002  0.5263928E+02  0.7818608E-02  0.1431605E+00
          1   -1    0    0    0  501  0.00000000000E+00  0.00000000000E+00  0.64169792243E+01  0.64169812035E+01  0.50400000000E-02 0.  1.
         -1   -1    0    0  501    0 -0.00000000000E+00 -0.00000000000E+00 -0.10795161643E+03  0.10795161655E+03  0.50400000000E-02 0.  1.
          2    1    1    2    0  502 -0.22548020221E+02 -0.13548462341E+02 -0.52648098387E+02  0.58854025503E+02  0.25500000000E-02 0.  1.
         -2    1    1    2  502    0  0.22548020221E+02  0.13548462341E+02 -0.48886538820E+02  0.55514572249E+02  0.25500000000E-02 0.  1.
<mgrwt>
<rscale>  0 0.52639278E+02</rscale>
<asrwt>0</asrwt>
<pdfrwt beam="1">  1        1 0.98722781E-03 0.52639278E+02</pdfrwt>
<pdfrwt beam="2">  1       -1 0.16607940E-01 0.52639278E+02</pdfrwt>
<totfact> 0.32339760E+05</totfact>
</mgrwt>
</event>
<event>
 4    1  0.3946801E-002  0.5834434E+02  0.7818608E-02  0.1404914E+00
          1   -1    0    0    0  501  0.00000000000E+00  0.00000000000E+00  0.16601418679E+01  0.16601495183E+01  0.50400000000E-02 0. -1.
         -1   -1    0    0  501    0 -0.00000000000E+00 -0.00000000000E+00 -0.51261502815E+03  0.51261502818E+03  0.50400000000E-02 0. -1.
          2    1    1    2    0  502 -0.21420115538E+01 -0.28659021679E+02 -0.29962726475E+03  0.30100236797E+03  0.25500000000E-02 0. -1.
         -2    1    1    2  502    0  0.21420115538E+01  0.28659021679E+02 -0.21132762153E+03  0.21327280972E+03  0.25500000000E-02 0. -1.
<mgrwt>
<rscale>  0 0.58344345E+02</rscale>
<asrwt>0</asrwt>
<pdfrwt beam="1">  1        1 0.25540744E-03 0.58344345E+02</pdfrwt>
<pdfrwt beam="2">  1       -1 0.78863725E-01 0.58344345E+02</pdfrwt>
<totfact> 0.14608600E+05</totfact>
</mgrwt>
</event>
<event>
 4    1  0.3946801E-002  0.4996337E+02  0.7818608E-02  0.1445539E+00
         -1   -1    0    0  501    0 -0.00000000000E+00  0.00000000000E+00  0.37062565211E+00  0.37065991907E+00  0.50400000000E-02 0. -1.
          1   -1    0    0    0  501  0.00000000000E+00 -0.00000000000E+00 -0.16837899605E+04  0.16837899605E+04  0.50400000000E-02 0. -1.
          2    1    1    2    0  502  0.20349611810E+02 -0.12821612661E+02 -0.10692920980E+04  0.10695625700E+04  0.25500000000E-02 0. -1.
         -2    1    1    2  502    0 -0.20349611810E+02  0.12821612661E+02 -0.61412723690E+03  0.61459805041E+03  0.25500000000E-02 0. -1.
<mgrwt>
<rscale>  0 0.49963371E+02</rscale>
<asrwt>0</asrwt>
<pdfrwt beam="2">  1        1 0.25903849E+00 0.49963371E+02</pdfrwt>
<pdfrwt beam="1">  1       -1 0.57023316E-04 0.49963371E+02</pdfrwt>
<totfact> 0.46687824E+05</totfact>
</mgrwt>
</event>
<event>
 4    1  0.3946801E-002  0.6073260E+02  0.7818608E-02  0.1394783E+00
         -1   -1    0    0  501    0 -0.00000000000E+00  0.00000000000E+00  0.28200108321E+03  0.28200108326E+03  0.50400000000E-02 0. -1.
          1   -1    0    0    0  501  0.00000000000E+00 -0.00000000000E+00 -0.32698863689E+01  0.32698902531E+01  0.50400000000E-02 0. -1.
          2    1    1    2    0  502  0.37567370416E+01 -0.29901723008E+02  0.12186215970E+03  0.12553331066E+03  0.25500000000E-02 0.  1.
         -2    1    1    2  502    0 -0.37567370416E+01  0.29901723008E+02  0.15686903715E+03  0.15973766285E+03  0.25500000000E-02 0.  1.
<mgrwt>
<rscale>  0 0.60732596E+02</rscale>
<asrwt>0</asrwt>
<pdfrwt beam="2">  1        1 0.50305955E-03 0.60732596E+02</pdfrwt>
<pdfrwt beam="1">  1       -1 0.43384799E-01 0.60732596E+02</pdfrwt>
<totfact> 0.17647596E+05</totfact>
</mgrwt>
</event>
<event>
 4    1  0.3946801E-002  0.6645309E+02  0.7818608E-02  0.1372587E+00
          1   -1    0    0    0  501  0.00000000000E+00  0.00000000000E+00  0.67689432587E+02  0.67689432774E+02  0.50400000000E-02 0. -1.
         -1   -1    0    0  501    0 -0.00000000000E+00 -0.00000000000E+00 -0.16309831867E+02  0.16309832646E+02  0.50400000000E-02 0. -1.
          2    1    1    2    0  502 -0.16153613933E+02 -0.28369835534E+02  0.17875579368E+02  0.37219929548E+02  0.25500000000E-02 0.  1.
         -2    1    1    2  502    0  0.16153613933E+02  0.28369835534E+02  0.33504021352E+02  0.46779335872E+02  0.25500000000E-02 0.  1.
<mgrwt>
<rscale>  0 0.66453090E+02</rscale>
<asrwt>0</asrwt>
<pdfrwt beam="1">  1        1 0.10413759E-01 0.66453090E+02</pdfrwt>
<pdfrwt beam="2">  1       -1 0.25092050E-02 0.66453090E+02</pdfrwt>
<totfact> 0.23046647E+05</totfact>
</mgrwt>
</event>
<event>
 4    1  0.3946801E-002  0.7348920E+02  0.7818608E-02  0.1348614E+00
          1   -1    0    0    0  501  0.00000000000E+00  0.00000000000E+00  0.70894551534E+03  0.70894551535E+03  0.50400000000E-02 0.  1.
         -1   -1    0    0  501    0 -0.00000000000E+00 -0.00000000000E+00 -0.19044671067E+01  0.19044737756E+01  0.50400000000E-02 0.  1.
          2    1    1    2    0  502 -0.31347111318E+01 -0.36575983183E+02  0.36892687058E+03  0.37074878935E+03  0.25500000000E-02 0. -1.
         -2    1    1    2  502    0  0.31347111318E+01  0.36575983183E+02  0.33811417765E+03  0.34010119978E+03  0.25500000000E-02 0. -1.
<mgrwt>
<rscale>  0 0.73489204E+02</rscale>
<asrwt>0</asrwt>
<pdfrwt beam="1">  1        1 0.10906840E+00 0.73489204E+02</pdfrwt>
<pdfrwt beam="2">  1       -1 0.29299583E-03 0.73489204E+02</pdfrwt>
<totfact> 0.24993706E+05</totfact>
</mgrwt>
</event>
<event>
 4    1  0.3946801E-002  0.4299562E+02  0.7818608E-02  0.1487257E+00
          1   -1    0    0    0  501  0.00000000000E+00  0.00000000000E+00  0.55233742583E+03  0.55233742585E+03  0.50400000000E-02 0. -1.
         -1   -1    0    0  501    0 -0.00000000000E+00 -0.00000000000E+00 -0.83671985230E+00  0.83673503144E+00  0.50400000000E-02 0. -1.
          2    1    1    2    0  502  0.94709980924E+01  0.19158413298E+02  0.30567904591E+03  0.30642523349E+03  0.25500000000E-02 0.  1.
         -2    1    1    2  502    0 -0.94709980924E+01 -0.19158413298E+02  0.24582166007E+03  0.24674892740E+03  0.25500000000E-02 0.  1.
<mgrwt>
<rscale>  0 0.42995623E+02</rscale>
<asrwt>0</asrwt>
<pdfrwt beam="1">  1        1 0.84974770E-01 0.42995623E+02</pdfrwt>
<pdfrwt beam="2">  1       -1 0.12872763E-03 0.42995623E+02</pdfrwt>
<totfact> 0.95334866E+05</totfact>
</mgrwt>
</event>
<event>
 4    1  0.3946801E-002  0.1685369E+03  0.7818608E-02  0.1179382E+00
         -1   -1    0    0  501    0 -0.00000000000E+00  0.00000000000E+00  0.71282090635E+01  0.71282108453E+01  0.50400000000E-02 0. -1.
          1   -1    0    0    0  501  0.00000000000E+00 -0.00000000000E+00 -0.99620706296E+03  0.99620706297E+03  0.50400000000E-02 0. -1.
          2    1    1    2    0  502 -0.52775980851E+02 -0.32290437679E+01 -0.10391453170E+03  0.11659314209E+03  0.25500000000E-02 0.  1.
         -2    1    1    2  502    0  0.52775980851E+02  0.32290437679E+01 -0.88516432220E+03  0.88674213172E+03  0.25500000000E-02 0.  1.
<mgrwt>
<rscale>  0 0.16853692E+03</rscale>
<asrwt>0</asrwt>
<pdfrwt beam="2">  1        1 0.15326251E+00 0.16853692E+03</pdfrwt>
<pdfrwt beam="1">  1       -1 0.10966485E-02 0.16853692E+03</pdfrwt>
<totfact> 0.25613334E+04</totfact>
</mgrwt>
</event>
<event>
 4    1  0.3946801E-002  0.5385923E+02  0.7818608E-02  0.1425572E+00
          1   -1    0    0    0  501  0.00000000000E+00  0.00000000000E+00  0.51716768151E+01  0.51716792709E+01  0.50400000000E-02 0.  1.
         -1   -1    0    0  501    0 -0.00000000000E+00 -0.00000000000E+00 -0.14022610319E+03  0.14022610329E+03  0.50400000000E-02 0.  1.
          2    1    1    2    0  502 -0.21663323065E+01  0.26063192914E+02 -0.84859591603E+02  0.88798273148E+02  0.25500000000E-02 0. -1.
         -2    1    1    2  502    0  0.21663323065E+01 -0.26063192914E+02 -0.50194834776E+02  0.56599509408E+02  0.25500000000E-02 0. -1.
<mgrwt>
<rscale>  0 0.53859234E+02</rscale>
<asrwt>0</asrwt>
<pdfrwt beam="1">  1        1 0.79564289E-03 0.53859234E+02</pdfrwt>
<pdfrwt beam="2">  1       -1 0.21573244E-01 0.53859234E+02</pdfrwt>
<totfact> 0.29041983E+05</totfact>
</mgrwt>
</event>
<event>
 4    1  0.3946801E-002  0.5248218E+02  0.7818608E-02  0.1432395E+00
          1   -1    0    0    0  501  0.00000000000E+00  0.00000000000E+00  0.17249432354E+01  0.17249505984E+01  0.50400000000E-02 0. -1.
         -1   -1    0    0  501    0 -0.00000000000E+00 -0.00000000000E+00 -0.39919760178E+03  0.39919760181E+03  0.50400000000E-02 0. -1.
          2    1    1    2    0  502  0.15456128163E+02  0.20838337849E+02 -0.16869327580E+03  0.17067673986E+03  0.25500000000E-02 0.  1.
         -2    1    1    2  502    0 -0.15456128163E+02 -0.20838337849E+02 -0.22877938275E+03  0.23024581255E+03  0.25500000000E-02 0.  1.
<mgrwt>
<rscale>  0 0.52482175E+02</rscale>
<asrwt>0</asrwt>
<pdfrwt beam="1">  1        1 0.26537677E-03 0.52482175E+02</pdfrwt>
<pdfrwt beam="2">  1       -1 0.61414943E-01 0.52482175E+02</pdfrwt>
<totfact> 0.21920406E+05</totfact>
</mgrwt>
</event>
<event>
 4    1  0.3946801E-002  0.5417830E+02  0.7818608E-02  0.1424025E+00
          1   -1    0    0    0  501  0.00000000000E+00  0.00000000000E+00  0.25576940125E+03  0.25576940130E+03  0.50400000000E-02 0.  1.
         -1   -1    0    0  501    0 -0.00000000000E+00 -0.00000000000E+00 -0.28690748010E+01  0.28690792278E+01  0.50400000000E-02 0.  1.
          2    1    1    2    0  502 -0.98243727467E+01  0.24868337099E+02  0.14718732882E+03  0.14959633104E+03  0.25500000000E-02 0. -1.
         -2    1    1    2  502    0  0.98243727467E+01 -0.24868337099E+02  0.10571299763E+03  0.10904214948E+03  0.25500000000E-02 0. -1.
<mgrwt>
<rscale>  0 0.54178303E+02</rscale>
<asrwt>0</asrwt>
<pdfrwt beam="1">  1        1 0.39349134E-01 0.54178303E+02</pdfrwt>
<pdfrwt beam="2">  1       -1 0.44139652E-03 0.54178303E+02</pdfrwt>
<totfact> 0.47977240E+05</totfact>
</mgrwt>
</event>
<event>
 4    1  0.3946801E-002  0.6320257E+02  0.7818608E-02  0.1384863E+00
         -1   -1    0    0  501    0 -0.00000000000E+00  0.00000000000E+00  0.11596665680E+02  0.11596666775E+02  0.50400000000E-02 0.  1.
          1   -1    0    0    0  501  0.00000000000E+00 -0.00000000000E+00 -0.86114501636E+02  0.86114501783E+02  0.50400000000E-02 0.  1.
          2    1    1    2    0  502 -0.29969201512E+02  0.94482448170E+01 -0.42437157258E+02  0.52804684376E+02  0.25500000000E-02 0. -1.
         -2    1    1    2  502    0  0.29969201512E+02 -0.94482448170E+01 -0.32080678697E+02  0.44906484182E+02  0.25500000000E-02 0. -1.
<mgrwt>
<rscale>  0 0.63202568E+02</rscale>
<asrwt>0</asrwt>
<pdfrwt beam="2">  1        1 0.13248385E-01 0.63202568E+02</pdfrwt>
<pdfrwt beam="1">  1       -1 0.17841026E-02 0.63202568E+02</pdfrwt>
<totfact> 0.27131165E+05</totfact>
</mgrwt>
</event>
<event>
 4    1  0.3946801E-002  0.1074330E+03  0.7818608E-02  0.1265399E+00
          1   -1    0    0    0  501  0.00000000000E+00  0.00000000000E+00  0.27845658378E+03  0.27845658383E+03  0.50400000000E-02 0.  1.
         -1   -1    0    0  501    0 -0.00000000000E+00 -0.00000000000E+00 -0.10362342007E+02  0.10362343233E+02  0.50400000000E-02 0.  1.
          2    1    1    2    0  502 -0.16801361557E+02  0.21788253961E+02  0.10019179498E+02  0.29281354565E+02  0.25500000000E-02 0. -1.
         -2    1    1    2  502    0  0.16801361557E+02 -0.21788253961E+02  0.25807506227E+03  0.25953757249E+03  0.25500000000E-02 0. -1.
<mgrwt>
<rscale>  0 0.10743300E+03</rscale>
<asrwt>0</asrwt>
<pdfrwt beam="1">  1        1 0.42839472E-01 0.10743300E+03</pdfrwt>
<pdfrwt beam="2">  1       -1 0.15942066E-02 0.10743300E+03</pdfrwt>
<totfact> 0.81216151E+04</totfact>
</mgrwt>
</event>
<event>
 4    1  0.3946801E-002  0.1078035E+03  0.7818608E-02  0.1264692E+00
         -1   -1    0    0  501    0 -0.00000000000E+00  0.00000000000E+00  0.33613533658E+01  0.33613571442E+01  0.50400000000E-02 0.  1.
          1   -1    0    0    0  501  0.00000000000E+00 -0.00000000000E+00 -0.86435286905E+03  0.86435286907E+03  0.50400000000E-02 0.  1.
          2    1    1    2    0  502 -0.44506159212E+02  0.12831717127E+02 -0.65238452181E+03  0.65402676970E+03  0.25500000000E-02 0. -1.
         -2    1    1    2  502    0  0.44506159212E+02 -0.12831717127E+02 -0.20860699388E+03  0.21368745652E+03  0.25500000000E-02 0. -1.
<mgrwt>
<rscale>  0 0.10780347E+03</rscale>
<asrwt>0</asrwt>
<pdfrwt beam="2">  1        1 0.13297719E+00 0.10780347E+03</pdfrwt>
<pdfrwt beam="1">  1       -1 0.51713227E-03 0.10780347E+03</pdfrwt>
<totfact> 0.89633800E+04</totfact>
</mgrwt>
</event>
<event>
 4    1  0.3946801E-002  0.5963278E+02  0.7818608E-02  0.1399379E+00
          1   -1    0    0    0  501  0.00000000000E+00  0.00000000000E+00  0.77520249973E+03  0.77520249975E+03  0.50400000000E-02 0.  1.
         -1   -1    0    0  501    0 -0.00000000000E+00 -0.00000000000E+00 -0.11468135227E+01  0.11468245975E+01  0.50400000000E-02 0.  1.
          2    1    1    2    0  502 -0.17109685202E+02 -0.22339850560E+02  0.51538508477E+03  0.51615268658E+03  0.25500000000E-02 0.  1.
         -2    1    1    2  502    0  0.17109685202E+02  0.22339850560E+02  0.25867060144E+03  0.26019663777E+03  0.25500000000E-02 0.  1.
<mgrwt>
<rscale>  0 0.59632777E+02</rscale>
<asrwt>0</asrwt>
<pdfrwt beam="1">  1        1 0.11926174E+00 0.59632777E+02</pdfrwt>
<pdfrwt beam="2">  1       -1 0.17643397E-03 0.59632777E+02</pdfrwt>
<totfact> 0.42502836E+05</totfact>
</mgrwt>
</event>
<event>
 4    1  0.3946801E-002  0.7998739E+02  0.7818608E-02  0.1329087E+00
         -1   -1    0    0  501    0 -0.00000000000E+00  0.00000000000E+00  0.10356931390E+01  0.10357054020E+01  0.50400000000E-02 0. -1.
          1   -1    0    0    0  501  0.00000000000E+00 -0.00000000000E+00 -0.15443630276E+04  0.15443630276E+04  0.50400000000E-02 0. -1.
          2    1    1    2    0  502 -0.32101398111E+02  0.22034606868E+02 -0.94818185027E+03  0.94898095073E+03  0.25500000000E-02 0. -1.
         -2    1    1    2  502    0  0.32101398111E+02 -0.22034606868E+02 -0.59514548417E+03  0.59641778226E+03  0.25500000000E-02 0. -1.
<mgrwt>
<rscale>  0 0.79987391E+02</rscale>
<asrwt>0</asrwt>
<pdfrwt beam="2">  1        1 0.23759247E+00 0.79987391E+02</pdfrwt>
<pdfrwt beam="1">  1       -1 0.15933959E-03 0.79987391E+02</pdfrwt>
<totfact> 0.15219443E+05</totfact>
</mgrwt>
</event>
<event>
 4    1  0.3946801E-002  0.4899034E+02  0.7818608E-02  0.1450865E+00
         -1   -1    0    0  501    0 -0.00000000000E+00  0.00000000000E+00  0.55249591373E+01  0.55249614361E+01  0.50400000000E-02 0.  1.
          1   -1    0    0    0  501  0.00000000000E+00 -0.00000000000E+00 -0.10860046511E+03  0.10860046523E+03  0.50400000000E-02 0.  1.
          2    1    1    2    0  502 -0.16408273708E+02  0.15373375558E+02 -0.74176511353E+02  0.77509528221E+02  0.25500000000E-02 0. -1.
         -2    1    1    2  502    0  0.16408273708E+02 -0.15373375558E+02 -0.28898994618E+02  0.36615898440E+02  0.25500000000E-02 0. -1.
<mgrwt>
<rscale>  0 0.48990337E+02</rscale>
<asrwt>0</asrwt>
<pdfrwt beam="2">  1        1 0.16707762E-01 0.48990337E+02</pdfrwt>
<pdfrwt beam="1">  1       -1 0.84999398E-03 0.48990337E+02</pdfrwt>
<totfact> 0.53753859E+05</totfact>
</mgrwt>
</event>
<event>
 4    1  0.3946801E-002  0.7722950E+02  0.7818608E-02  0.1337103E+00
         -1   -1    0    0  501    0 -0.00000000000E+00  0.00000000000E+00  0.12659805105E+01  0.12659905428E+01  0.50400000000E-02 0.  1.
          1   -1    0    0    0  501  0.00000000000E+00 -0.00000000000E+00 -0.11778167497E+04  0.11778167497E+04  0.50400000000E-02 0.  1.
          2    1    1    2    0  502  0.24148073764E+02  0.71833346796E+01 -0.14149759932E+03  0.14372299879E+03  0.25500000000E-02 0.  1.
         -2    1    1    2  502    0 -0.24148073764E+02 -0.71833346796E+01 -0.10350531699E+04  0.10353597415E+04  0.25500000000E-02 0.  1.
<mgrwt>
<rscale>  0 0.77229501E+02</rscale>
<asrwt>0</asrwt>
<pdfrwt beam="2">  1        1 0.18120170E+00 0.77229501E+02</pdfrwt>
<pdfrwt beam="1">  1       -1 0.19476795E-03 0.77229501E+02</pdfrwt>
<totfact> 0.19846989E+05</totfact>
</mgrwt>
</event>
<event>
 4    1  0.3946801E-002  0.5157481E+02  0.7818608E-02  0.1437028E+00
         -1   -1    0    0  501    0 -0.00000000000E+00  0.00000000000E+00  0.26947142399E+02  0.26947142871E+02  0.50400000000E-02 0.  1.
          1   -1    0    0    0  501  0.00000000000E+00 -0.00000000000E+00 -0.24677574569E+02  0.24677575084E+02  0.50400000000E-02 0.  1.
          2    1    1    2    0  502  0.10301048003E+02 -0.19069991115E+02 -0.12850637429E+02  0.25197520512E+02  0.25500000000E-02 0. -1.
         -2    1    1    2  502    0 -0.10301048003E+02  0.19069991115E+02  0.15120205259E+02  0.26427197443E+02  0.25500000000E-02 0. -1.
<mgrwt>
<rscale>  0 0.51574806E+02</rscale>
<asrwt>0</asrwt>
<pdfrwt beam="2">  1        1 0.37965500E-02 0.51574806E+02</pdfrwt>
<pdfrwt beam="1">  1       -1 0.41457143E-02 0.51574806E+02</pdfrwt>
<totfact> 0.40293462E+05</totfact>
</mgrwt>
</event>
<event>
 4    1  0.3946801E-002  0.7557509E+02  0.7818608E-02  0.1342099E+00
          1   -1    0    0    0  501  0.00000000000E+00  0.00000000000E+00  0.31038236878E+02  0.31038237287E+02  0.50400000000E-02 0.  1.
         -1   -1    0    0  501    0 -0.00000000000E+00 -0.00000000000E+00 -0.46004496483E+02  0.46004496759E+02  0.50400000000E-02 0.  1.
          2    1    1    2    0  502 -0.33939339374E+02  0.15622886883E+02 -0.17213675135E+01  0.37402091711E+02  0.25500000000E-02 0. -1.
         -2    1    1    2  502    0  0.33939339374E+02 -0.15622886883E+02 -0.13244892092E+02  0.39640642335E+02  0.25500000000E-02 0. -1.
<mgrwt>
<rscale>  0 0.75575088E+02</rscale>
<asrwt>0</asrwt>
<pdfrwt beam="1">  1        1 0.47751134E-02 0.75575088E+02</pdfrwt>
<pdfrwt beam="2">  1       -1 0.70776149E-02 0.75575088E+02</pdfrwt>
<totfact> 0.14782440E+05</totfact>
</mgrwt>
</event>
<event>
 4    1  0.3946801E-002  0.6944606E+02  0.7818608E-02  0.1361987E+00
          1   -1    0    0    0  501  0.00000000000E+00  0.00000000000E+00  0.25180077163E+01  0.25180127603E+01  0.50400000000E-02 0. -1.
         -1   -1    0    0  501    0 -0.00000000000E+00 -0.00000000000E+00 -0.47882598481E+03  0.47882598484E+03  0.50400000000E-02 0. -1.
          2    1    1    2    0  502 -0.45002928539E+01  0.22146048068E+02 -0.55429472693E+02  0.59859222600E+02  0.25500000000E-02 0. -1.
         -2    1    1    2  502    0  0.45002928539E+01 -0.22146048068E+02 -0.42087850440E+03  0.42148477500E+03  0.25500000000E-02 0. -1.
<mgrwt>
<rscale>  0 0.69446058E+02</rscale>
<asrwt>0</asrwt>
<pdfrwt beam="1">  1        1 0.38738657E-03 0.69446058E+02</pdfrwt>
<pdfrwt beam="2">  1       -1 0.73665464E-01 0.69446058E+02</pdfrwt>
<totfact> 0.97823036E+04</totfact>
</mgrwt>
</event>
<event>
 4    1  0.3946801E-002  0.6334298E+02  0.7818608E-02  0.1384315E+00
          1   -1    0    0    0  501  0.00000000000E+00  0.00000000000E+00  0.43042829690E+03  0.43042829693E+03  0.50400000000E-02 0. -1.
         -1   -1    0    0  501    0 -0.00000000000E+00 -0.00000000000E+00 -0.23304277236E+01  0.23304331735E+01  0.50400000000E-02 0. -1.
          2    1    1    2    0  502 -0.21469852439E+02 -0.17884135679E+02  0.31590895268E+03  0.31714233912E+03  0.25500000000E-02 0.  1.
         -2    1    1    2  502    0  0.21469852439E+02  0.17884135679E+02  0.11218891650E+03  0.11561639098E+03  0.25500000000E-02 0.  1.
<mgrwt>
<rscale>  0 0.63342978E+02</rscale>
<asrwt>0</asrwt>
<pdfrwt beam="1">  1        1 0.66219702E-01 0.63342978E+02</pdfrwt>
<pdfrwt beam="2">  1       -1 0.35852796E-03 0.63342978E+02</pdfrwt>
<totfact> 0.35233795E+05</totfact>
</mgrwt>
</event>
<event>
 4    1  0.3946801E-002  0.5461075E+02  0.7818608E-02  0.1421949E+00
          1   -1    0    0    0  501  0.00000000000E+00  0.00000000000E+00  0.46141383060E+01  0.46141410585E+01  0.50400000000E-02 0.  1.
         -1   -1    0    0  501    0 -0.00000000000E+00 -0.00000000000E+00 -0.16158666672E+03  0.16158666680E+03  0.50400000000E-02 0.  1.
          2    1    1    2    0  502 -0.24527753511E+02 -0.49019903173E+01 -0.45155680586E+02  0.51620496870E+02  0.25500000000E-02 0. -1.
         -2    1    1    2  502    0  0.24527753511E+02  0.49019903173E+01 -0.11181684783E+03  0.11458031099E+03  0.25500000000E-02 0. -1.
<mgrwt>
<rscale>  0 0.54610749E+02</rscale>
<asrwt>0</asrwt>
<pdfrwt beam="1">  1        1 0.70986777E-03 0.54610749E+02</pdfrwt>
<pdfrwt beam="2">  1       -1 0.24859483E-01 0.54610749E+02</pdfrwt>
<totfact> 0.27180089E+05</totfact>
</mgrwt>
</event>
<event>
 4    1  0.3946801E-002  0.1495961E+03  0.7818608E-02  0.1200970E+00
          1   -1    0    0    0  501  0.00000000000E+00  0.00000000000E+00  0.18999320162E+04  0.18999320162E+04  0.50400000000E-02 0.  1.
         -1   -1    0    0  501    0 -0.00000000000E+00 -0.00000000000E+00 -0.29447062292E+01  0.29447105423E+01  0.50400000000E-02 0.  1.
          2    1    1    2    0  502 -0.42553102248E+02  0.61499985132E+02  0.96522947900E+03  0.96812238990E+03  0.25500000000E-02 0. -1.
         -2    1    1    2  502    0  0.42553102248E+02 -0.61499985132E+02  0.93175783096E+03  0.93475433685E+03  0.25500000000E-02 0. -1.
<mgrwt>
<rscale>  0 0.14959607E+03</rscale>
<asrwt>0</asrwt>
<pdfrwt beam="1">  1        1 0.29229729E+00 0.14959607E+03</pdfrwt>
<pdfrwt beam="2">  1       -1 0.45303197E-03 0.14959607E+03</pdfrwt>
<totfact> 0.22385409E+04</totfact>
</mgrwt>
</event>
<event>
 4    1  0.3946801E-002  0.4500082E+02  0.7818608E-02  0.1474337E+00
          1   -1    0    0    0  501  0.00000000000E+00  0.00000000000E+00  0.14432046776E+03  0.14432046785E+03  0.50400000000E-02 0.  1.
         -1   -1    0    0  501    0 -0.00000000000E+00 -0.00000000000E+00 -0.35079439152E+01  0.35079475358E+01  0.50400000000E-02 0.  1.
          2    1    1    2    0  502  0.21691181692E+02 -0.59645879726E+01  0.68994463464E+02  0.72569412758E+02  0.25500000000E-02 0. -1.
         -2    1    1    2  502    0 -0.21691181692E+02  0.59645879726E+01  0.71818060381E+02  0.75259002626E+02  0.25500000000E-02 0. -1.
<mgrwt>
<rscale>  0 0.45000817E+02</rscale>
<asrwt>0</asrwt>
<pdfrwt beam="1">  1        1 0.22203145E-01 0.45000817E+02</pdfrwt>
<pdfrwt beam="2">  1       -1 0.53968407E-03 0.45000817E+02</pdfrwt>
<totfact> 0.69277125E+05</totfact>
</mgrwt>
</event>
<event>
 4    1  0.3946801E-002  0.5124888E+02  0.7818608E-02  0.1438720E+00
         -1   -1    0    0  501    0 -0.00000000000E+00  0.00000000000E+00  0.26162619465E+00  0.26167473574E+00  0.50400000000E-02 0.  1.
          1   -1    0    0    0  501  0.00000000000E+00 -0.00000000000E+00 -0.25095002935E+04  0.25095002935E+04  0.50400000000E-02 0.  1.
          2    1    1    2    0  502  0.16262019281E+02 -0.19788755683E+02 -0.12178477966E+04  0.12181171141E+04  0.25500000000E-02 0. -1.
         -2    1    1    2  502    0 -0.16262019281E+02  0.19788755683E+02 -0.12913908708E+04  0.12916448541E+04  0.25500000000E-02 0. -1.
<mgrwt>
<rscale>  0 0.51248880E+02</rscale>
<asrwt>0</asrwt>
<pdfrwt beam="2">  1        1 0.38605770E+00 0.51248880E+02</pdfrwt>
<pdfrwt beam="1">  1       -1 0.40255928E-04 0.51248880E+02</pdfrwt>
<totfact> 0.23191588E+05</totfact>
</mgrwt>
</event>
<event>
 4    1  0.3946801E-002  0.4583641E+02  0.7818608E-02  0.1469187E+00
          1   -1    0    0    0  501  0.00000000000E+00  0.00000000000E+00  0.24333020834E+02  0.24333021356E+02  0.50400000000E-02 0. -1.
         -1   -1    0    0  501    0 -0.00000000000E+00 -0.00000000000E+00 -0.21585651346E+02  0.21585651935E+02  0.50400000000E-02 0. -1.
          2    1    1    2    0  502 -0.28180872225E+01 -0.21930604461E+02 -0.46663228284E+01  0.22597955723E+02  0.25500000000E-02 0.  1.
         -2    1    1    2  502    0  0.28180872225E+01  0.21930604461E+02  0.74136923165E+01  0.23320717568E+02  0.25500000000E-02 0.  1.
<mgrwt>
<rscale>  0 0.45836410E+02</rscale>
<asrwt>0</asrwt>
<pdfrwt beam="1">  1        1 0.37435417E-02 0.45836410E+02</pdfrwt>
<pdfrwt beam="2">  1       -1 0.33208695E-02 0.45836410E+02</pdfrwt>
<totfact> 0.54627256E+05</totfact>
</mgrwt>
</event>
<event>
 4    1  0.3946801E-002  0.4358420E+02  0.7818608E-02  0.1483379E+00
          1   -1    0    0    0  501  0.00000000000E+00  0.00000000000E+00  0.45859981324E+03  0.45859981327E+03  0.50400000000E-02 0.  1.
         -1   -1    0    0  501    0 -0.00000000000E+00 -0.00000000000E+00 -0.10355278386E+01  0.10355401036E+01  0.50400000000E-02 0.  1.
          2    1    1    2    0  502  0.19620888529E+02  0.94818811825E+01  0.22770901898E+03  0.22874938835E+03  0.25500000000E-02 0. -1.
         -2    1    1    2  502    0 -0.19620888529E+02 -0.94818811825E+01  0.22985526642E+03  0.23088596503E+03  0.25500000000E-02 0. -1.
<mgrwt>
<rscale>  0 0.43584203E+02</rscale>
<asrwt>0</asrwt>
<pdfrwt beam="1">  1        1 0.70553973E-01 0.43584203E+02</pdfrwt>
<pdfrwt beam="2">  1       -1 0.15931257E-03 0.43584203E+02</pdfrwt>
<totfact> 0.90472766E+05</totfact>
</mgrwt>
</event>
<event>
 4    1  0.3946801E-002  0.4340107E+02  0.7818608E-02  0.1484578E+00
          1   -1    0    0    0  501  0.00000000000E+00  0.00000000000E+00  0.17540855382E+03  0.17540855389E+03  0.50400000000E-02 0.  1.
         -1   -1    0    0  501    0 -0.00000000000E+00 -0.00000000000E+00 -0.26846630159E+01  0.26846677468E+01  0.50400000000E-02 0.  1.
          2    1    1    2    0  502  0.91269196444E+01  0.19231793546E+02  0.10365035609E+03  0.10581379337E+03  0.25500000000E-02 0. -1.
         -2    1    1    2  502    0 -0.91269196444E+01 -0.19231793546E+02  0.69073534721E+02  0.72279428266E+02  0.25500000000E-02 0. -1.
<mgrwt>
<rscale>  0 0.43401073E+02</rscale>
<asrwt>0</asrwt>
<pdfrwt beam="1">  1        1 0.26985930E-01 0.43401073E+02</pdfrwt>
<pdfrwt beam="2">  1       -1 0.41302548E-03 0.43401073E+02</pdfrwt>
<totfact> 0.78142497E+05</totfact>
</mgrwt>
</event>
<event>
 4    1  0.3946801E-002  0.4495825E+02  0.7818608E-02  0.1474602E+00
         -1   -1    0    0  501    0 -0.00000000000E+00  0.00000000000E+00  0.47419436227E+01  0.47419463011E+01  0.50400000000E-02 0. -1.
          1   -1    0    0    0  501  0.00000000000E+00 -0.00000000000E+00 -0.10656199560E+03  0.10656199572E+03  0.50400000000E-02 0. -1.
          2    1    1    2    0  502 -0.18616452783E+02  0.10561591097E+02 -0.67917252146E+02  0.71210060147E+02  0.25500000000E-02 0. -1.
         -2    1    1    2  502    0  0.18616452783E+02 -0.10561591097E+02 -0.33902799833E+02  0.40093881874E+02  0.25500000000E-02 0. -1.
<mgrwt>
<rscale>  0 0.44958253E+02</rscale>
<asrwt>0</asrwt>
<pdfrwt beam="2">  1        1 0.16394152E-01 0.44958253E+02</pdfrwt>
<pdfrwt beam="1">  1       -1 0.72953008E-03 0.44958253E+02</pdfrwt>
<totfact> 0.66468726E+05</totfact>
</mgrwt>
</event>
<event>
 4    1  0.3946801E-002  0.5695506E+02  0.7818608E-02  0.1411073E+00
          1   -1    0    0    0  501  0.00000000000E+00  0.00000000000E+00  0.30391102798E+03  0.30391102802E+03  0.50400000000E-02 0.  1.
         -1   -1    0    0  501    0 -0.00000000000E+00 -0.00000000000E+00 -0.26684418615E+01  0.26684466211E+01  0.50400000000E-02 0.  1.
          2    1    1    2    0  502  0.20985176103E+02 -0.82628743373E+01  0.57028584645E+02  0.61326276436E+02  0.25500000000E-02 0.  1.
         -2    1    1    2  502    0 -0.20985176103E+02  0.82628743373E+01  0.24421400147E+03  0.24525319820E+03  0.25500000000E-02 0.  1.
<mgrwt>
<rscale>  0 0.56955058E+02</rscale>
<asrwt>0</asrwt>
<pdfrwt beam="1">  1        1 0.46755555E-01 0.56955058E+02</pdfrwt>
<pdfrwt beam="2">  1       -1 0.41052978E-03 0.56955058E+02</pdfrwt>
<totfact> 0.43610801E+05</totfact>
</mgrwt>
</event>
<event>
 4    1  0.3946801E-002  0.7351637E+02  0.7818608E-02  0.1348528E+00
          1   -1    0    0    0  501  0.00000000000E+00  0.00000000000E+00  0.78436120463E+03  0.78436120464E+03  0.50400000000E-02 0. -1.
         -1   -1    0    0  501    0 -0.00000000000E+00 -0.00000000000E+00 -0.17226261710E+01  0.17226335439E+01  0.50400000000E-02 0. -1.
          2    1    1    2    0  502  0.34216510507E+02 -0.12747777704E+02  0.34609485801E+03  0.34801569818E+03  0.25500000000E-02 0. -1.
         -2    1    1    2  502    0 -0.34216510507E+02  0.12747777704E+02  0.43654372044E+03  0.43806814001E+03  0.25500000000E-02 0. -1.
<mgrwt>
<rscale>  0 0.73516367E+02</rscale>
<asrwt>0</asrwt>
<pdfrwt beam="1">  1        1 0.12067116E+00 0.73516367E+02</pdfrwt>
<pdfrwt beam="2">  1       -1 0.26501954E-03 0.73516367E+02</pdfrwt>
<totfact> 0.24855799E+05</totfact>
</mgrwt>
</event>
<event>
 4    1  0.3946801E-002  0.6678742E+02  0.7818608E-02  0.1371371E+00
          1   -1    0    0    0  501  0.00000000000E+00  0.00000000000E+00  0.11156172150E+03  0.11156172162E+03  0.50400000000E-02 0. -1.
         -1   -1    0    0  501    0 -0.00000000000E+00 -0.00000000000E+00 -0.99957213236E+01  0.99957225943E+01  0.50400000000E-02 0. -1.
          2    1    1    2    0  502  0.40752696205E+01 -0.28213055744E+02  0.19124561861E+02  0.34326858431E+02  0.25500000000E-02 0.  1.
         -2    1    1    2  502    0 -0.40752696205E+01  0.28213055744E+02  0.82441438318E+02  0.87230585779E+02  0.25500000000E-02 0.  1.
<mgrwt>
<rscale>  0 0.66787423E+02</rscale>
<asrwt>0</asrwt>
<pdfrwt beam="1">  1        1 0.17163342E-01 0.66787423E+02</pdfrwt>
<pdfrwt beam="2">  1       -1 0.15378034E-02 0.66787423E+02</pdfrwt>
<totfact> 0.24380985E+05</totfact>
</mgrwt>
</event>
<event>
 4    1  0.3946801E-002  0.6262593E+02  0.7818608E-02  0.1387131E+00
         -1   -1    0    0  501    0 -0.00000000000E+00  0.00000000000E+00  0.19123565473E+03  0.19123565479E+03  0.50400000000E-02 0.  1.
          1   -1    0    0    0  501  0.00000000000E+00 -0.00000000000E+00 -0.51271906947E+01  0.51271931718E+01  0.50400000000E-02 0.  1.
          2    1    1    2    0  502 -0.21431977454E+02 -0.16301298364E+02  0.42941336948E+02  0.50685504943E+02  0.25500000000E-02 0. -1.
         -2    1    1    2  502    0  0.21431977454E+02  0.16301298364E+02  0.14316712709E+03  0.14567734302E+03  0.25500000000E-02 0. -1.
<mgrwt>
<rscale>  0 0.62625935E+02</rscale>
<asrwt>0</asrwt>
<pdfrwt beam="2">  1        1 0.78879870E-03 0.62625935E+02</pdfrwt>
<pdfrwt beam="1">  1       -1 0.29420872E-01 0.62625935E+02</pdfrwt>
<totfact> 0.18460558E+05</totfact>
</mgrwt>
</event>
<event>
 4    1  0.3946801E-002  0.8964574E+02  0.7818608E-02  0.1303712E+00
          1   -1    0    0    0  501  0.00000000000E+00  0.00000000000E+00  0.55813303732E+02  0.55813303959E+02  0.50400000000E-02 0.  1.
         -1   -1    0    0  501    0 -0.00000000000E+00 -0.00000000000E+00 -0.35996610094E+02  0.35996610446E+02  0.50400000000E-02 0.  1.
          2    1    1    2    0  502  0.29178612862E+01 -0.21290662010E+02  0.50193486233E+02  0.54600295512E+02  0.25500000000E-02 0. -1.
         -2    1    1    2  502    0 -0.29178612862E+01  0.21290662010E+02 -0.30376792595E+02  0.37209618893E+02  0.25500000000E-02 0. -1.
<mgrwt>
<rscale>  0 0.89645742E+02</rscale>
<asrwt>0</asrwt>
<pdfrwt beam="1">  1        1 0.85866622E-02 0.89645742E+02</pdfrwt>
<pdfrwt beam="2">  1       -1 0.55379400E-02 0.89645742E+02</pdfrwt>
<totfact> 0.99913766E+04</totfact>
</mgrwt>
</event>
<event>
 4    1  0.3946801E-002  0.6162882E+02  0.7818608E-02  0.1391121E+00
         -1   -1    0    0  501    0 -0.00000000000E+00  0.00000000000E+00  0.15353012798E+01  0.15353095523E+01  0.50400000000E-02 0. -1.
          1   -1    0    0    0  501  0.00000000000E+00 -0.00000000000E+00 -0.61846178351E+03  0.61846178353E+03  0.50400000000E-02 0. -1.
          2    1    1    2    0  502  0.19099984113E+02  0.22068724739E+02 -0.40789618052E+03  0.40893903224E+03  0.25500000000E-02 0.  1.
         -2    1    1    2  502    0 -0.19099984113E+02 -0.22068724739E+02 -0.20903030171E+03  0.21105806083E+03  0.25500000000E-02 0.  1.
<mgrwt>
<rscale>  0 0.61628816E+02</rscale>
<asrwt>0</asrwt>
<pdfrwt beam="2">  1        1 0.95147769E-01 0.61628816E+02</pdfrwt>
<pdfrwt beam="1">  1       -1 0.23620133E-03 0.61628816E+02</pdfrwt>
<totfact> 0.39178304E+05</totfact>
</mgrwt>
</event>
<event>
 4    1  0.3946801E-002  0.2577873E+03  0.7818608E-02  0.1108480E+00
         -1   -1    0    0  501    0 -0.00000000000E+00  0.00000000000E+00  0.16369492448E+03  0.16369492456E+03  0.50400000000E-02 0. -1.
          1   -1    0    0    0  501  0.00000000000E+00 -0.00000000000E+00 -0.10149103790E+03  0.10149103803E+03  0.50400000000E-02 0. -1.
          2    1    1    2    0  502  0.46540304888E+02  0.33556346197E+02  0.14983353476E+03  0.16044349939E+03  0.25500000000E-02 0. -1.
         -2    1    1    2  502    0 -0.46540304888E+02 -0.33556346197E+02 -0.87629648188E+02  0.10474246320E+03  0.25500000000E-02 0. -1.
<mgrwt>
<rscale>  0 0.25778726E+03</rscale>
<asrwt>0</asrwt>
<pdfrwt beam="2">  1        1 0.15614006E-01 0.25778726E+03</pdfrwt>
<pdfrwt beam="1">  1       -1 0.25183834E-01 0.25778726E+03</pdfrwt>
<totfact> 0.48124119E+03</totfact>
</mgrwt>
</event>
<event>
 4    1  0.3946801E-002  0.4324451E+02  0.7818608E-02  0.1485608E+00
         -1   -1    0    0  501    0 -0.00000000000E+00  0.00000000000E+00  0.63670505261E+01  0.63670525209E+01  0.50400000000E-02 0. -1.
          1   -1    0    0    0  501  0.00000000000E+00 -0.00000000000E+00 -0.73428307808E+02  0.73428307981E+02  0.50400000000E-02 0. -1.
          2    1    1    2    0  502  0.20006671890E+02 -0.36670072561E+01 -0.19995263532E+02  0.28522349702E+02  0.25500000000E-02 0.  1.
         -2    1    1    2  502    0 -0.20006671890E+02  0.36670072561E+01 -0.47065993750E+02  0.51273010800E+02  0.25500000000E-02 0.  1.
<mgrwt>
<rscale>  0 0.43244506E+02</rscale>
<asrwt>0</asrwt>
<pdfrwt beam="2">  1        1 0.11296662E-01 0.43244506E+02</pdfrwt>
<pdfrwt beam="1">  1       -1 0.97954645E-03 0.43244506E+02</pdfrwt>
<totfact> 0.69962119E+05</totfact>
</mgrwt>
</event>
<event>
 4    1  0.3946801E-002  0.4077605E+02  0.7818608E-02  0.1502577E+00
          1   -1    0    0    0  501  0.00000000000E+00  0.00000000000E+00  0.20903332326E+03  0.20903332332E+03  0.50400000000E-02 0. -1.
         -1   -1    0    0  501    0 -0.00000000000E+00 -0.00000000000E+00 -0.19885384361E+01  0.19885448231E+01  0.50400000000E-02 0. -1.
          2    1    1    2    0  502 -0.18844063688E+02  0.74369438128E+01  0.91648171443E+02  0.93860503967E+02  0.25500000000E-02 0.  1.
         -2    1    1    2  502    0  0.18844063688E+02 -0.74369438128E+01  0.11539661338E+03  0.11716136418E+03  0.25500000000E-02 0.  1.
<mgrwt>
<rscale>  0 0.40776046E+02</rscale>
<asrwt>0</asrwt>
<pdfrwt beam="1">  1        1 0.32158960E-01 0.40776046E+02</pdfrwt>
<pdfrwt beam="2">  1       -1 0.30592962E-03 0.40776046E+02</pdfrwt>
<totfact> 0.93756248E+05</totfact>
</mgrwt>
</event>
<event>
 4    1  0.3946801E-002  0.4734660E+02  0.7818608E-02  0.1460202E+00
         -1   -1    0    0  501    0 -0.00000000000E+00  0.00000000000E+00  0.15288375530E+01  0.15288458605E+01  0.50400000000E-02 0. -1.
          1   -1    0    0    0  501  0.00000000000E+00 -0.00000000000E+00 -0.36656850161E+03  0.36656850165E+03  0.50400000000E-02 0. -1.
          2    1    1    2    0  502  0.85046157420E+00  0.21709116145E+02 -0.25562360712E+03  0.25654519589E+03  0.25500000000E-02 0. -1.
         -2    1    1    2  502    0 -0.85046157420E+00 -0.21709116145E+02 -0.10941605694E+03  0.11155215162E+03  0.25500000000E-02 0. -1.
<mgrwt>
<rscale>  0 0.47346604E+02</rscale>
<asrwt>0</asrwt>
<pdfrwt beam="2">  1        1 0.56395085E-01 0.47346604E+02</pdfrwt>
<pdfrwt beam="1">  1       -1 0.23520671E-03 0.47346604E+02</pdfrwt>
<totfact> 0.71465995E+05</totfact>
</mgrwt>
</event>
<event>
 4    1  0.3946801E-002  0.4378859E+02  0.7818608E-02  0.1482049E+00
         -1   -1    0    0  501    0 -0.00000000000E+00  0.00000000000E+00  0.31517243989E+02  0.31517244392E+02  0.50400000000E-02 0. -1.
          1   -1    0    0    0  501  0.00000000000E+00 -0.00000000000E+00 -0.15209453443E+02  0.15209454278E+02  0.50400000000E-02 0. -1.
          2    1    1    2    0  502  0.13275848084E+02  0.16467623646E+02  0.21241507392E+01  0.21258946206E+02  0.25500000000E-02 0.  1.
         -2    1    1    2  502    0 -0.13275848084E+02 -0.16467623646E+02  0.14183639806E+02  0.25467752464E+02  0.25500000000E-02 0.  1.
<mgrwt>
<rscale>  0 0.43788587E+02</rscale>
<asrwt>0</asrwt>
<pdfrwt beam="2">  1        1 0.23399160E-02 0.43788587E+02</pdfrwt>
<pdfrwt beam="1">  1       -1 0.48488068E-02 0.43788587E+02</pdfrwt>
<totfact> 0.59077971E+05</totfact>
</mgrwt>
</event>
<event>
 4    1  0.3946801E-002  0.4497244E+02  0.7818608E-02  0.1474514E+00
         -1   -1    0    0  501    0 -0.00000000000E+00  0.00000000000E+00  0.35255828846E+01  0.35255864871E+01  0.50400000000E-02 0. -1.
          1   -1    0    0    0  501  0.00000000000E+00 -0.00000000000E+00 -0.14341735927E+03  0.14341735935E+03  0.50400000000E-02 0. -1.
          2    1    1    2    0  502 -0.11189190522E+02 -0.16723657041E+02 -0.37149367815E+02  0.42248718618E+02  0.25500000000E-02 0.  1.
         -2    1    1    2  502    0  0.11189190522E+02  0.16723657041E+02 -0.10274240857E+03  0.10469422722E+03  0.25500000000E-02 0.  1.
<mgrwt>
<rscale>  0 0.44972439E+02</rscale>
<asrwt>0</asrwt>
<pdfrwt beam="2">  1        1 0.22064205E-01 0.44972439E+02</pdfrwt>
<pdfrwt beam="1">  1       -1 0.54239776E-03 0.44972439E+02</pdfrwt>
<totfact> 0.69318853E+05</totfact>
</mgrwt>
</event>
<event>
 4    1  0.3946801E-002  0.4425358E+02  0.7818608E-02  0.1479056E+00
          1   -1    0    0    0  501  0.00000000000E+00  0.00000000000E+00  0.27925612239E+03  0.27925612244E+03  0.50400000000E-02 0.  1.
         -1   -1    0    0  501    0 -0.00000000000E+00 -0.00000000000E+00 -0.17532071818E+01  0.17532144261E+01  0.50400000000E-02 0.  1.
          2    1    1    2    0  502  0.41683775584E+01 -0.21545989607E+02  0.12080243700E+03  0.12277961489E+03  0.25500000000E-02 0. -1.
         -2    1    1    2  502    0 -0.41683775584E+01  0.21545989607E+02  0.15670047821E+03  0.15822972197E+03  0.25500000000E-02 0. -1.
<mgrwt>
<rscale>  0 0.44253581E+02</rscale>
<asrwt>0</asrwt>
<pdfrwt beam="1">  1        1 0.42962459E-01 0.44253581E+02</pdfrwt>
<pdfrwt beam="2">  1       -1 0.26972488E-03 0.44253581E+02</pdfrwt>
<totfact> 0.80651585E+05</totfact>
</mgrwt>
</event>
<event>
 4    1  0.3946801E-002  0.6977979E+02  0.7818608E-02  0.1360843E+00
          1   -1    0    0    0  501  0.00000000000E+00  0.00000000000E+00  0.21882710202E+02  0.21882710783E+02  0.50400000000E-02 0.  1.
         -1   -1    0    0  501    0 -0.00000000000E+00 -0.00000000000E+00 -0.55628604975E+02  0.55628605203E+02  0.50400000000E-02 0.  1.
          2    1    1    2    0  502 -0.15164186247E+02 -0.24247728732E+02  0.53263575652E+01  0.29090805844E+02  0.25500000000E-02 0.  1.
         -2    1    1    2  502    0  0.15164186247E+02  0.24247728732E+02 -0.39072252338E+02  0.48420510143E+02  0.25500000000E-02 0.  1.
<mgrwt>
<rscale>  0 0.69779787E+02</rscale>
<asrwt>0</asrwt>
<pdfrwt beam="1">  1        1 0.33665709E-02 0.69779787E+02</pdfrwt>
<pdfrwt beam="2">  1       -1 0.85582469E-02 0.69779787E+02</pdfrwt>
<totfact> 0.17612032E+05</totfact>
</mgrwt>
</event>
<event>
 4    1  0.3946801E-002  0.5795373E+02  0.7818608E-02  0.1406625E+00
          1   -1    0    0    0  501  0.00000000000E+00  0.00000000000E+00  0.39144971771E+03  0.39144971774E+03  0.50400000000E-02 0.  1.
         -1   -1    0    0  501    0 -0.00000000000E+00 -0.00000000000E+00 -0.21449949579E+01  0.21450008790E+01  0.50400000000E-02 0.  1.
          2    1    1    2    0  502 -0.22424854942E+02  0.51526976349E+01  0.31427484816E+03  0.31511601769E+03  0.25500000000E-02 0.  1.
         -2    1    1    2  502    0  0.22424854942E+02 -0.51526976349E+01  0.75029874587E+02  0.78478700927E+02  0.25500000000E-02 0.  1.
<mgrwt>
<rscale>  0 0.57953735E+02</rscale>
<asrwt>0</asrwt>
<pdfrwt beam="1">  1        1 0.60223023E-01 0.57953735E+02</pdfrwt>
<pdfrwt beam="2">  1       -1 0.32999974E-03 0.57953735E+02</pdfrwt>
<totfact> 0.43544597E+05</totfact>
</mgrwt>
</event>
<event>
 4    1  0.3946801E-002  0.7718496E+02  0.7818608E-02  0.1337235E+00
          1   -1    0    0    0  501  0.00000000000E+00  0.00000000000E+00  0.92029473981E+03  0.92029473983E+03  0.50400000000E-02 0. -1.
         -1   -1    0    0  501    0 -0.00000000000E+00 -0.00000000000E+00 -0.16183684525E+01  0.16183763003E+01  0.50400000000E-02 0. -1.
          2    1    1    2    0  502  0.30852438443E+02  0.17114099108E+02  0.64614734679E+03  0.64710985089E+03  0.25500000000E-02 0. -1.
         -2    1    1    2  502    0 -0.30852438443E+02 -0.17114099108E+02  0.27252902457E+03  0.27480326524E+03  0.25500000000E-02 0. -1.
<mgrwt>
<rscale>  0 0.77184962E+02</rscale>
<asrwt>0</asrwt>
<pdfrwt beam="1">  1        1 0.14158398E+00 0.77184962E+02</pdfrwt>
<pdfrwt beam="2">  1       -1 0.24898006E-03 0.77184962E+02</pdfrwt>
<totfact> 0.21453840E+05</totfact>
</mgrwt>
</event>
<event>
 4    1  0.3946801E-002  0.1074958E+03  0.7818608E-02  0.1265279E+00
         -1   -1    0    0  501    0 -0.00000000000E+00  0.00000000000E+00  0.11745003952E+02  0.11745005033E+02  0.50400000000E-02 0. -1.
          1   -1    0    0    0  501  0.00000000000E+00 -0.00000000000E+00 -0.24596320708E+03  0.24596320713E+03  0.50400000000E-02 0. -1.
          2    1    1    2    0  502  0.49975310529E+02  0.16217653236E+02 -0.89954619295E+02  0.10417474491E+03  0.25500000000E-02 0. -1.
         -2    1    1    2  502    0 -0.49975310529E+02 -0.16217653236E+02 -0.14426358383E+03  0.15353346725E+03  0.25500000000E-02 0. -1.
<mgrwt>
<rscale>  0 0.10749584E+03</rscale>
<asrwt>0</asrwt>
<pdfrwt beam="2">  1        1 0.37840490E-01 0.10749584E+03</pdfrwt>
<pdfrwt beam="1">  1       -1 0.18069239E-02 0.10749584E+03</pdfrwt>
<totfact> 0.79075208E+04</totfact>
</mgrwt>
</event>
<event>
 4    1  0.3946801E-002  0.4660427E+02  0.7818608E-02  0.1464568E+00
          1   -1    0    0    0  501  0.00000000000E+00  0.00000000000E+00  0.21882520530E+01  0.21882578571E+01  0.50400000000E-02 0. -1.
         -1   -1    0    0  501    0 -0.00000000000E+00 -0.00000000000E+00 -0.24813811848E+03  0.24813811853E+03  0.50400000000E-02 0. -1.
          2    1    1    2    0  502 -0.79761630701E+01 -0.18616106678E+02 -0.61073925733E+02  0.64344409362E+02  0.25500000000E-02 0. -1.
         -2    1    1    2  502    0  0.79761630701E+01  0.18616106678E+02 -0.18487594069E+03  0.18598196702E+03  0.25500000000E-02 0. -1.
<mgrwt>
<rscale>  0 0.46604269E+02</rscale>
<asrwt>0</asrwt>
<pdfrwt beam="1">  1        1 0.33665481E-03 0.46604269E+02</pdfrwt>
<pdfrwt beam="2">  1       -1 0.38175073E-01 0.46604269E+02</pdfrwt>
<totfact> 0.35722132E+05</totfact>
</mgrwt>
</event>
<event>
 4    1  0.3946801E-002  0.1133239E+03  0.7818608E-02  0.1254536E+00
         -1   -1    0    0  501    0 -0.00000000000E+00  0.00000000000E+00  0.79967744176E+02  0.79967744335E+02  0.50400000000E-02 0. -1.
          1   -1    0    0    0  501  0.00000000000E+00 -0.00000000000E+00 -0.40148359767E+02  0.40148360083E+02  0.50400000000E-02 0. -1.
          2    1    1    2    0  502 -0.55430792333E+01  0.37198261394E+02 -0.25011336576E+02  0.45166396159E+02  0.25500000000E-02 0. -1.
         -2    1    1    2  502    0  0.55430792333E+01 -0.37198261394E+02  0.64830720986E+02  0.74949708260E+02  0.25500000000E-02 0. -1.
<mgrwt>
<rscale>  0 0.11332385E+03</rscale>
<asrwt>0</asrwt>
<pdfrwt beam="2">  1        1 0.61766708E-02 0.11332385E+03</pdfrwt>
<pdfrwt beam="1">  1       -1 0.12302730E-01 0.11332385E+03</pdfrwt>
<totfact> 0.48472346E+04</totfact>
</mgrwt>
</event>
<event>
 4    1  0.3946801E-002  0.8401594E+02  0.7818608E-02  0.1318026E+00
          1   -1    0    0    0  501  0.00000000000E+00  0.00000000000E+00  0.71832415388E+01  0.71832433069E+01  0.50400000000E-02 0. -1.
         -1   -1    0    0  501    0 -0.00000000000E+00 -0.00000000000E+00 -0.24566476053E+03  0.24566476058E+03  0.50400000000E-02 0. -1.
          2    1    1    2    0  502  0.83775697791E+01 -0.39699122269E+02 -0.86484531943E+02  0.95528939366E+02  0.25500000000E-02 0. -1.
         -2    1    1    2  502    0 -0.83775697791E+01  0.39699122269E+02 -0.15199698705E+03  0.15731906453E+03  0.25500000000E-02 0. -1.
<mgrwt>
<rscale>  0 0.84015940E+02</rscale>
<asrwt>0</asrwt>
<pdfrwt beam="1">  1        1 0.11051144E-02 0.84015940E+02</pdfrwt>
<pdfrwt beam="2">  1       -1 0.37794572E-01 0.84015940E+02</pdfrwt>
<totfact> 0.80601258E+04</totfact>
</mgrwt>
</event>
<event>
 4    1  0.3946801E-002  0.6258635E+02  0.7818608E-02  0.1387288E+00
         -1   -1    0    0  501    0 -0.00000000000E+00  0.00000000000E+00  0.20602352628E+03  0.20602352634E+03  0.50400000000E-02 0. -1.
          1   -1    0    0    0  501  0.00000000000E+00 -0.00000000000E+00 -0.47531586387E+01  0.47531613108E+01  0.50400000000E-02 0. -1.
          2    1    1    2    0  502  0.16967578673E+01 -0.28826260534E+02  0.14124871059E+03  0.14417014439E+03  0.25500000000E-02 0. -1.
         -2    1    1    2  502    0 -0.16967578673E+01  0.28826260534E+02  0.60021657050E+02  0.66606543261E+02  0.25500000000E-02 0. -1.
<mgrwt>
<rscale>  0 0.62586350E+02</rscale>
<asrwt>0</asrwt>
<pdfrwt beam="2">  1        1 0.73125558E-03 0.62586350E+02</pdfrwt>
<pdfrwt beam="1">  1       -1 0.31695919E-01 0.62586350E+02</pdfrwt>
<totfact> 0.18112042E+05</totfact>
</mgrwt>
</event>
<event>
 4    1  0.3946801E-002  0.5679485E+02  0.7818608E-02  0.1411797E+00
          1   -1    0    0    0  501  0.00000000000E+00  0.00000000000E+00  0.93376041414E+02  0.93376041550E+02  0.50400000000E-02 0. -1.
         -1   -1    0    0  501    0 -0.00000000000E+00 -0.00000000000E+00 -0.86361943580E+01  0.86361958286E+01  0.50400000000E-02 0. -1.
          2    1    1    2    0  502  0.24053079039E+02  0.52867127902E+01  0.16973960796E+02  0.29910120277E+02  0.25500000000E-02 0. -1.
         -2    1    1    2  502    0 -0.24053079039E+02 -0.52867127902E+01  0.67765886261E+02  0.72102117102E+02  0.25500000000E-02 0. -1.
<mgrwt>
<rscale>  0 0.56794849E+02</rscale>
<asrwt>0</asrwt>
<pdfrwt beam="1">  1        1 0.14365544E-01 0.56794849E+02</pdfrwt>
<pdfrwt beam="2">  1       -1 0.13286455E-02 0.56794849E+02</pdfrwt>
<totfact> 0.36166087E+05</totfact>
</mgrwt>
</event>
<event>
 4    1  0.3946801E-002  0.4643327E+02  0.7818608E-02  0.1465587E+00
         -1   -1    0    0  501    0 -0.00000000000E+00  0.00000000000E+00  0.12656606205E+01  0.12656706554E+01  0.50400000000E-02 0.  1.
          1   -1    0    0    0  501  0.00000000000E+00 -0.00000000000E+00 -0.42587239420E+03  0.42587239423E+03  0.50400000000E-02 0.  1.
          2    1    1    2    0  502 -0.78868679727E+01 -0.19578733159E+02 -0.30124485417E+03  0.30198342943E+03  0.25500000000E-02 0. -1.
         -2    1    1    2  502    0  0.78868679727E+01  0.19578733159E+02 -0.12336187941E+03  0.12515463545E+03  0.25500000000E-02 0. -1.
<mgrwt>
<rscale>  0 0.46433267E+02</rscale>
<asrwt>0</asrwt>
<pdfrwt beam="2">  1        1 0.65518716E-01 0.46433267E+02</pdfrwt>
<pdfrwt beam="1">  1       -1 0.19471813E-03 0.46433267E+02</pdfrwt>
<totfact> 0.76698322E+05</totfact>
</mgrwt>
</event>
<event>
 4    1  0.3946801E-002  0.4760391E+02  0.7818608E-02  0.1458711E+00
         -1   -1    0    0  501    0 -0.00000000000E+00  0.00000000000E+00  0.31109465782E+03  0.31109465786E+03  0.50400000000E-02 0.  1.
          1   -1    0    0    0  501  0.00000000000E+00 -0.00000000000E+00 -0.18210916406E+01  0.18210986148E+01  0.50400000000E-02 0.  1.
          2    1    1    2    0  502 -0.13680900262E+02 -0.16198861698E+02  0.83546743980E+02  0.86195293308E+02  0.25500000000E-02 0. -1.
         -2    1    1    2  502    0  0.13680900262E+02  0.16198861698E+02  0.22572682220E+03  0.22672046316E+03  0.25500000000E-02 0. -1.
<mgrwt>
<rscale>  0 0.47603906E+02</rscale>
<asrwt>0</asrwt>
<pdfrwt beam="2">  1        1 0.28016808E-03 0.47603906E+02</pdfrwt>
<pdfrwt beam="1">  1       -1 0.47860786E-01 0.47603906E+02</pdfrwt>
<totfact> 0.31217591E+05</totfact>
</mgrwt>
</event>
<event>
 4    1  0.3946801E-002  0.4764711E+02  0.7818608E-02  0.1458462E+00
         -1   -1    0    0  501    0 -0.00000000000E+00  0.00000000000E+00  0.17709769939E+01  0.17709841655E+01  0.50400000000E-02 0. -1.
          1   -1    0    0    0  501  0.00000000000E+00 -0.00000000000E+00 -0.32047880385E+03  0.32047880389E+03  0.50400000000E-02 0. -1.
          2    1    1    2    0  502  0.22659117296E+02  0.21092812522E+01 -0.11168512485E+03  0.11398004993E+03  0.25500000000E-02 0. -1.
         -2    1    1    2  502    0 -0.22659117296E+02 -0.21092812522E+01 -0.20702270201E+03  0.20826973812E+03  0.25500000000E-02 0. -1.
<mgrwt>
<rscale>  0 0.47647109E+02</rscale>
<asrwt>0</asrwt>
<pdfrwt beam="2">  1        1 0.49304386E-01 0.47647109E+02</pdfrwt>
<pdfrwt beam="1">  1       -1 0.27245881E-03 0.47647109E+02</pdfrwt>
<totfact> 0.68818689E+05</totfact>
</mgrwt>
</event>
<event>
 4    1  0.3946801E-002  0.1267598E+03  0.7818608E-02  0.1232344E+00
         -1   -1    0    0  501    0 -0.00000000000E+00  0.00000000000E+00  0.11448794755E+02  0.11448795864E+02  0.50400000000E-02 0.  1.
          1   -1    0    0    0  501  0.00000000000E+00 -0.00000000000E+00 -0.35086753290E+03  0.35086753294E+03  0.50400000000E-02 0.  1.
          2    1    1    2    0  502 -0.41699413728E+02  0.36110759130E+02 -0.80496687255E+02  0.97583526764E+02  0.25500000000E-02 0. -1.
         -2    1    1    2  502    0  0.41699413728E+02 -0.36110759130E+02 -0.25892205089E+03  0.26473280204E+03  0.25500000000E-02 0. -1.
<mgrwt>
<rscale>  0 0.12675978E+03</rscale>
<asrwt>0</asrwt>
<pdfrwt beam="2">  1        1 0.53979612E-01 0.12675978E+03</pdfrwt>
<pdfrwt beam="1">  1       -1 0.17613534E-02 0.12675978E+03</pdfrwt>
<totfact> 0.54085487E+04</totfact>
</mgrwt>
</event>
<event>
 4    1  0.3946801E-002  0.4696478E+02  0.7818608E-02  0.1462436E+00
         -1   -1    0    0  501    0 -0.00000000000E+00  0.00000000000E+00  0.20597125415E+02  0.20597126032E+02  0.50400000000E-02 0. -1.
          1   -1    0    0    0  501  0.00000000000E+00 -0.00000000000E+00 -0.26771822553E+02  0.26771823028E+02  0.50400000000E-02 0. -1.
          2    1    1    2    0  502  0.53137552500E+01 -0.20293688396E+02 -0.13730545129E+02  0.25071849944E+02  0.25500000000E-02 0. -1.
         -2    1    1    2  502    0 -0.53137552500E+01  0.20293688396E+02  0.75558479914E+01  0.22297099115E+02  0.25500000000E-02 0. -1.
<mgrwt>
<rscale>  0 0.46964779E+02</rscale>
<asrwt>0</asrwt>
<pdfrwt beam="2">  1        1 0.41187420E-02 0.46964779E+02</pdfrwt>
<pdfrwt beam="1">  1       -1 0.31687886E-02 0.46964779E+02</pdfrwt>
<totfact> 0.51731451E+05</totfact>
</mgrwt>
</event>
<event>
 4    1  0.3946801E-002  0.1188829E+03  0.7818608E-02  0.1244951E+00
          1   -1    0    0    0  501  0.00000000000E+00  0.00000000000E+00  0.19784032558E+04  0.19784032558E+04  0.50400000000E-02 0.  1.
         -1   -1    0    0  501    0 -0.00000000000E+00 -0.00000000000E+00 -0.17859255941E+01  0.17859327057E+01  0.50400000000E-02 0.  1.
          2    1    1    2    0  502 -0.15415849791E+02  0.52602693791E+02  0.13712649472E+04  0.13723601012E+04  0.25500000000E-02 0. -1.
         -2    1    1    2  502    0  0.15415849791E+02 -0.52602693791E+02  0.60535238301E+03  0.60782908736E+03  0.25500000000E-02 0. -1.
<mgrwt>
<rscale>  0 0.11888293E+03</rscale>
<asrwt>0</asrwt>
<pdfrwt beam="1">  1        1 0.30437056E+00 0.11888293E+03</pdfrwt>
<pdfrwt beam="2">  1       -1 0.27475759E-03 0.11888293E+03</pdfrwt>
<totfact> 0.39712142E+04</totfact>
</mgrwt>
</event>
<event>
 4    1  0.3946801E-002  0.4847808E+02  0.7818608E-02  0.1453728E+00
         -1   -1    0    0  501    0 -0.00000000000E+00  0.00000000000E+00  0.39938214028E+00  0.39941394014E+00  0.50400000000E-02 0. -1.
          1   -1    0    0    0  501  0.00000000000E+00 -0.00000000000E+00 -0.14710411657E+04  0.14710411657E+04  0.50400000000E-02 0. -1.
          2    1    1    2    0  502 -0.14027891174E+02  0.15260780227E+02 -0.11166767326E+04  0.11168691052E+04  0.25500000000E-02 0.  1.
         -2    1    1    2  502    0  0.14027891174E+02 -0.15260780227E+02 -0.35396505094E+03  0.35457147437E+03  0.25500000000E-02 0.  1.
<mgrwt>
<rscale>  0 0.48478076E+02</rscale>
<asrwt>0</asrwt>
<pdfrwt beam="2">  1        1 0.22630969E+00 0.48478076E+02</pdfrwt>
<pdfrwt beam="1">  1       -1 0.61447031E-04 0.48478076E+02</pdfrwt>
<totfact> 0.56790402E+05</totfact>
</mgrwt>
</event>
<event>
 4    1  0.3946801E-002  0.4763457E+02  0.7818608E-02  0.1458534E+00
          1   -1    0    0    0  501  0.00000000000E+00  0.00000000000E+00  0.50743649798E+03  0.50743649800E+03  0.50400000000E-02 0.  1.
         -1   -1    0    0  501    0 -0.00000000000E+00 -0.00000000000E+00 -0.11178939114E+01  0.11179052727E+01  0.50400000000E-02 0.  1.
          2    1    1    2    0  502  0.21789205006E+02  0.96156088054E+01  0.25120021028E+03  0.25232672280E+03  0.25500000000E-02 0. -1.
         -2    1    1    2  502    0 -0.21789205006E+02 -0.96156088054E+01  0.25511839379E+03  0.25622768048E+03  0.25500000000E-02 0. -1.
<mgrwt>
<rscale>  0 0.47634570E+02</rscale>
<asrwt>0</asrwt>
<pdfrwt beam="1">  1        1 0.78067035E-01 0.47634570E+02</pdfrwt>
<pdfrwt beam="2">  1       -1 0.17198482E-03 0.47634570E+02</pdfrwt>
<totfact> 0.73582713E+05</totfact>
</mgrwt>
</event>
<event>
 4    1  0.3946801E-002  0.8090510E+02  0.7818608E-02  0.1326502E+00
         -1   -1    0    0  501    0 -0.00000000000E+00  0.00000000000E+00  0.19035438832E+01  0.19035505553E+01  0.50400000000E-02 0.  1.
          1   -1    0    0    0  501  0.00000000000E+00 -0.00000000000E+00 -0.85966273032E+03  0.85966273033E+03  0.50400000000E-02 0.  1.
          2    1    1    2    0  502 -0.27859607128E+02 -0.48929417996E+01 -0.73684112356E+03  0.73738384845E+03  0.25500000000E-02 0.  1.
         -2    1    1    2  502    0  0.27859607128E+02  0.48929417996E+01 -0.12091806288E+03  0.12418243243E+03  0.25500000000E-02 0.  1.
<mgrwt>
<rscale>  0 0.80905095E+02</rscale>
<asrwt>0</asrwt>
<pdfrwt beam="2">  1        1 0.13225550E+00 0.80905095E+02</pdfrwt>
<pdfrwt beam="1">  1       -1 0.29285411E-03 0.80905095E+02</pdfrwt>
<totfact> 0.19189960E+05</totfact>
</mgrwt>
</event>
<event>
 4    1  0.3946801E-002  0.4953403E+02  0.7818608E-02  0.1447871E+00
         -1   -1    0    0  501    0 -0.00000000000E+00  0.00000000000E+00  0.23963628552E+02  0.23963629082E+02  0.50400000000E-02 0.  1.
          1   -1    0    0    0  501  0.00000000000E+00 -0.00000000000E+00 -0.25597331203E+02  0.25597331699E+02  0.50400000000E-02 0.  1.
          2    1    1    2    0  502  0.18102948086E+02  0.10269754231E+02 -0.14248769040E+02  0.25223243389E+02  0.25500000000E-02 0. -1.
         -2    1    1    2  502    0 -0.18102948086E+02 -0.10269754231E+02  0.12615066389E+02  0.24337717393E+02  0.25500000000E-02 0. -1.
<mgrwt>
<rscale>  0 0.49534027E+02</rscale>
<asrwt>0</asrwt>
<pdfrwt beam="2">  1        1 0.39380510E-02 0.49534027E+02</pdfrwt>
<pdfrwt beam="1">  1       -1 0.36867122E-02 0.49534027E+02</pdfrwt>
<totfact> 0.44908845E+05</totfact>
</mgrwt>
</event>
<event>
 4    1  0.3946801E-002  0.5948197E+02  0.7818608E-02  0.1400019E+00
         -1   -1    0    0  501    0 -0.00000000000E+00  0.00000000000E+00  0.13337055199E+03  0.13337055208E+03  0.50400000000E-02 0.  1.
          1   -1    0    0    0  501  0.00000000000E+00 -0.00000000000E+00 -0.66320946558E+01  0.66320965709E+01  0.50400000000E-02 0.  1.
          2    1    1    2    0  502  0.90278075376E+00  0.28500174322E+02  0.83264780371E+02  0.88011923092E+02  0.25500000000E-02 0. -1.
         -2    1    1    2  502    0 -0.90278075376E+00 -0.28500174322E+02  0.43473676960E+02  0.51990725562E+02  0.25500000000E-02 0. -1.
<mgrwt>
<rscale>  0 0.59481973E+02</rscale>
<asrwt>0</asrwt>
<pdfrwt beam="2">  1        1 0.10203225E-02 0.59481973E+02</pdfrwt>
<pdfrwt beam="1">  1       -1 0.20518546E-01 0.59481973E+02</pdfrwt>
<totfact> 0.22883266E+05</totfact>
</mgrwt>
</event>
<event>
 4    1  0.3946801E-002  0.5545924E+02  0.7818608E-02  0.1417940E+00
          1   -1    0    0    0  501  0.00000000000E+00  0.00000000000E+00  0.22181968072E+03  0.22181968078E+03  0.50400000000E-02 0. -1.
         -1   -1    0    0  501    0 -0.00000000000E+00 -0.00000000000E+00 -0.34664704931E+01  0.34664741570E+01  0.50400000000E-02 0. -1.
          2    1    1    2    0  502  0.24796434090E+02  0.30184011636E+01  0.60268420423E+02  0.65239990773E+02  0.25500000000E-02 0. -1.
         -2    1    1    2  502    0 -0.24796434090E+02 -0.30184011636E+01  0.15808478981E+03  0.16004616417E+03  0.25500000000E-02 0. -1.
<mgrwt>
<rscale>  0 0.55459239E+02</rscale>
<asrwt>0</asrwt>
<pdfrwt beam="1">  1        1 0.34126118E-01 0.55459239E+02</pdfrwt>
<pdfrwt beam="2">  1       -1 0.53330324E-03 0.55459239E+02</pdfrwt>
<totfact> 0.44091574E+05</totfact>
</mgrwt>
</event>
<event>
 4    1  0.3946801E-002  0.5023213E+02  0.7818608E-02  0.1444094E+00
          1   -1    0    0    0  501  0.00000000000E+00  0.00000000000E+00  0.16471566923E+02  0.16471567694E+02  0.50400000000E-02 0. -1.
         -1   -1    0    0  501    0 -0.00000000000E+00 -0.00000000000E+00 -0.38297307915E+02  0.38297308247E+02  0.50400000000E-02 0. -1.
          2    1    1    2    0  502 -0.17768480718E+02  0.10592822767E+02  0.46175225521E+01  0.21195478815E+02  0.25500000000E-02 0. -1.
         -2    1    1    2  502    0  0.17768480718E+02 -0.10592822767E+02 -0.26443263545E+02  0.33573397126E+02  0.25500000000E-02 0. -1.
<mgrwt>
<rscale>  0 0.50232129E+02</rscale>
<asrwt>0</asrwt>
<pdfrwt beam="1">  1        1 0.25340873E-02 0.50232129E+02</pdfrwt>
<pdfrwt beam="2">  1       -1 0.58918936E-02 0.50232129E+02</pdfrwt>
<totfact> 0.41551158E+05</totfact>
</mgrwt>
</event>
<event>
 4    1  0.3946801E-002  0.4487659E+02  0.7818608E-02  0.1475114E+00
         -1   -1    0    0  501    0 -0.00000000000E+00  0.00000000000E+00  0.15846198620E+03  0.15846198628E+03  0.50400000000E-02 0. -1.
          1   -1    0    0    0  501  0.00000000000E+00 -0.00000000000E+00 -0.31772711252E+01  0.31772751226E+01  0.50400000000E-02 0. -1.
          2    1    1    2    0  502  0.14227951657E+02 -0.15954309749E+02  0.53080299309E+02  0.57223184018E+02  0.25500000000E-02 0.  1.
         -2    1    1    2  502    0 -0.14227951657E+02  0.15954309749E+02  0.10220441576E+03  0.10441607738E+03  0.25500000000E-02 0.  1.
<mgrwt>
<rscale>  0 0.44876587E+02</rscale>
<asrwt>0</asrwt>
<pdfrwt beam="2">  1        1 0.48881122E-03 0.44876587E+02</pdfrwt>
<pdfrwt beam="1">  1       -1 0.24378769E-01 0.44876587E+02</pdfrwt>
<totfact> 0.44381936E+05</totfact>
</mgrwt>
</event>
<event>
 4    1  0.3946801E-002  0.9851587E+02  0.7818608E-02  0.1283448E+00
         -1   -1    0    0  501    0 -0.00000000000E+00  0.00000000000E+00  0.20233716594E+01  0.20233779365E+01  0.50400000000E-02 0.  1.
          1   -1    0    0    0  501  0.00000000000E+00 -0.00000000000E+00 -0.11991570717E+04  0.11991570717E+04  0.50400000000E-02 0.  1.
          2    1    1    2    0  502 -0.30886672815E+02  0.34015890186E+02 -0.81506196567E+03  0.81635597336E+03  0.25500000000E-02 0.  1.
         -2    1    1    2  502    0  0.30886672815E+02 -0.34015890186E+02 -0.38207173438E+03  0.38482447630E+03  0.25500000000E-02 0.  1.
<mgrwt>
<rscale>  0 0.98515871E+02</rscale>
<asrwt>0</asrwt>
<pdfrwt beam="2">  1        1 0.18448514E+00 0.98515871E+02</pdfrwt>
<pdfrwt beam="1">  1       -1 0.31128939E-03 0.98515871E+02</pdfrwt>
<totfact> 0.10369321E+05</totfact>
</mgrwt>
</event>
<event>
 4    1  0.3946801E-002  0.9813390E+02  0.7818608E-02  0.1284270E+00
         -1   -1    0    0  501    0 -0.00000000000E+00  0.00000000000E+00  0.15810162774E+03  0.15810162782E+03  0.50400000000E-02 0.  1.
          1   -1    0    0    0  501  0.00000000000E+00 -0.00000000000E+00 -0.15227962738E+02  0.15227963572E+02  0.50400000000E-02 0.  1.
          2    1    1    2    0  502  0.40254126428E+02 -0.27163960383E+02  0.59036466524E+02  0.76443311181E+02  0.25500000000E-02 0. -1.
         -2    1    1    2  502    0 -0.40254126428E+02  0.27163960383E+02  0.83837198473E+02  0.96886280207E+02  0.25500000000E-02 0. -1.
<mgrwt>
<rscale>  0 0.98133904E+02</rscale>
<asrwt>0</asrwt>
<pdfrwt beam="2">  1        1 0.23427636E-02 0.98133904E+02</pdfrwt>
<pdfrwt beam="1">  1       -1 0.24323327E-01 0.98133904E+02</pdfrwt>
<totfact> 0.60986697E+04</totfact>
</mgrwt>
</event>
<event>
 4    1  0.3946801E-002  0.6591008E+02  0.7818608E-02  0.1374580E+00
          1   -1    0    0    0  501  0.00000000000E+00  0.00000000000E+00  0.44982591214E+01  0.44982619449E+01  0.50400000000E-02 0.  1.
         -1   -1    0    0  501    0 -0.00000000000E+00 -0.00000000000E+00 -0.24143439359E+03  0.24143439365E+03  0.50400000000E-02 0.  1.
          2    1    1    2    0  502  0.28361455395E+02 -0.92745607330E+01 -0.66276671940E+02  0.72684158377E+02  0.25500000000E-02 0.  1.
         -2    1    1    2  502    0 -0.28361455395E+02  0.92745607330E+01 -0.17065946253E+03  0.17324849721E+03  0.25500000000E-02 0.  1.
<mgrwt>
<rscale>  0 0.65910085E+02</rscale>
<asrwt>0</asrwt>
<pdfrwt beam="1">  1        1 0.69204028E-03 0.65910085E+02</pdfrwt>
<pdfrwt beam="2">  1       -1 0.37143743E-01 0.65910085E+02</pdfrwt>
<totfact> 0.15132195E+05</totfact>
</mgrwt>
</event>
<event>
 4    1  0.3946801E-002  0.7647428E+02  0.7818608E-02  0.1339365E+00
          1   -1    0    0    0  501  0.00000000000E+00  0.00000000000E+00  0.72432491920E+03  0.72432491921E+03  0.50400000000E-02 0. -1.
         -1   -1    0    0  501    0 -0.00000000000E+00 -0.00000000000E+00 -0.20185371513E+01  0.20185434434E+01  0.50400000000E-02 0. -1.
          2    1    1    2    0  502 -0.33747303864E+02 -0.10395454140E+02  0.22184386676E+03  0.22463670049E+03  0.25500000000E-02 0. -1.
         -2    1    1    2  502    0  0.33747303864E+02  0.10395454140E+02  0.50046251529E+03  0.50170676216E+03  0.25500000000E-02 0. -1.
<mgrwt>
<rscale>  0 0.76474285E+02</rscale>
<asrwt>0</asrwt>
<pdfrwt beam="1">  1        1 0.11143469E+00 0.76474285E+02</pdfrwt>
<pdfrwt beam="2">  1       -1 0.31054441E-03 0.76474285E+02</pdfrwt>
<totfact> 0.22530637E+05</totfact>
</mgrwt>
</event>
<event>
 4    1  0.3946801E-002  0.1238247E+03  0.7818608E-02  0.1236918E+00
          1   -1    0    0    0  501  0.00000000000E+00  0.00000000000E+00  0.10266443482E+03  0.10266443494E+03  0.50400000000E-02 0. -1.
         -1   -1    0    0  501    0 -0.00000000000E+00 -0.00000000000E+00 -0.37336559498E+02  0.37336559838E+02  0.50400000000E-02 0. -1.
          2    1    1    2    0  502  0.42859871724E+02 -0.12996576380E+02 -0.15666842660E+02  0.47448177702E+02  0.25500000000E-02 0.  1.
         -2    1    1    2  502    0 -0.42859871724E+02  0.12996576380E+02  0.80994717980E+02  0.92552817078E+02  0.25500000000E-02 0.  1.
<mgrwt>
<rscale>  0 0.12382466E+03</rscale>
<asrwt>0</asrwt>
<pdfrwt beam="1">  1        1 0.15794529E-01 0.12382466E+03</pdfrwt>
<pdfrwt beam="2">  1       -1 0.57440861E-02 0.12382466E+03</pdfrwt>
<totfact> 0.44767567E+04</totfact>
</mgrwt>
</event>
<event>
 4    1  0.3946801E-002  0.5836004E+02  0.7818608E-02  0.1404846E+00
          1   -1    0    0    0  501  0.00000000000E+00  0.00000000000E+00  0.95304360168E+03  0.95304360169E+03  0.50400000000E-02 0.  1.
         -1   -1    0    0  501    0 -0.00000000000E+00 -0.00000000000E+00 -0.89341853804E+00  0.89343275389E+00  0.50400000000E-02 0.  1.
          2    1    1    2    0  502 -0.17873973723E+02  0.23060036167E+02  0.48390394163E+03  0.48478270280E+03  0.25500000000E-02 0.  1.
         -2    1    1    2  502    0  0.17873973723E+02 -0.23060036167E+02  0.46824624151E+03  0.46915433164E+03  0.25500000000E-02 0.  1.
<mgrwt>
<rscale>  0 0.58360041E+02</rscale>
<asrwt>0</asrwt>
<pdfrwt beam="1">  1        1 0.14662263E+00 0.58360041E+02</pdfrwt>
<pdfrwt beam="2">  1       -1 0.13744959E-03 0.58360041E+02</pdfrwt>
<totfact> 0.43603666E+05</totfact>
</mgrwt>
</event>
<event>
 4    1  0.3946801E-002  0.5026291E+02  0.7818608E-02  0.1443929E+00
          1   -1    0    0    0  501  0.00000000000E+00  0.00000000000E+00  0.71450244893E+03  0.71450244895E+03  0.50400000000E-02 0. -1.
         -1   -1    0    0  501    0 -0.00000000000E+00 -0.00000000000E+00 -0.88395050814E+00  0.88396487625E+00  0.50400000000E-02 0. -1.
          2    1    1    2    0  502  0.18348744178E+01 -0.21701746712E+02  0.17832553779E+03  0.17965057754E+03  0.25500000000E-02 0. -1.
         -2    1    1    2  502    0 -0.18348744178E+01  0.21701746712E+02  0.53529296063E+03  0.53573583629E+03  0.25500000000E-02 0. -1.
<mgrwt>
<rscale>  0 0.50262907E+02</rscale>
<asrwt>0</asrwt>
<pdfrwt beam="1">  1        1 0.10992309E+00 0.50262907E+02</pdfrwt>
<pdfrwt beam="2">  1       -1 0.13599394E-03 0.50262907E+02</pdfrwt>
<totfact> 0.65471437E+05</totfact>
</mgrwt>
</event>
<event>
 4    1  0.3946801E-002  0.4711579E+02  0.7818608E-02  0.1461549E+00
         -1   -1    0    0  501    0 -0.00000000000E+00  0.00000000000E+00  0.28331836437E+00  0.28336318955E+00  0.50400000000E-02 0.  1.
          1   -1    0    0    0  501  0.00000000000E+00 -0.00000000000E+00 -0.19586819265E+04  0.19586819265E+04  0.50400000000E-02 0.  1.
          2    1    1    2    0  502 -0.31726181123E+01 -0.22072920250E+02 -0.12950122285E+04  0.12952042122E+04  0.25500000000E-02 0.  1.
         -2    1    1    2  502    0  0.31726181123E+01  0.22072920250E+02 -0.66338637957E+03  0.66376107744E+03  0.25500000000E-02 0.  1.
<mgrwt>
<rscale>  0 0.47115792E+02</rscale>
<asrwt>0</asrwt>
<pdfrwt beam="2">  1        1 0.30132484E+00 0.47115792E+02</pdfrwt>
<pdfrwt beam="1">  1       -1 0.43592458E-04 0.47115792E+02</pdfrwt>
<totfact> 0.45007196E+05</totfact>
</mgrwt>
</event>
<event>
 4    1  0.3946801E-002  0.6245684E+02  0.7818608E-02  0.1387801E+00
         -1   -1    0    0  501    0 -0.00000000000E+00  0.00000000000E+00  0.34736369287E+02  0.34736369653E+02  0.50400000000E-02 0. -1.
          1   -1    0    0    0  501  0.00000000000E+00 -0.00000000000E+00 -0.28074728341E+02  0.28074728794E+02  0.50400000000E-02 0. -1.
          2    1    1    2    0  502 -0.77324631056E+01 -0.19390216676E+02 -0.20026823750E+02  0.28928276209E+02  0.25500000000E-02 0. -1.
         -2    1    1    2  502    0  0.77324631056E+01  0.19390216676E+02  0.26688464696E+02  0.33882822237E+02  0.25500000000E-02 0. -1.
<mgrwt>
<rscale>  0 0.62456838E+02</rscale>
<asrwt>0</asrwt>
<pdfrwt beam="2">  1        1 0.43191891E-02 0.62456838E+02</pdfrwt>
<pdfrwt beam="1">  1       -1 0.53440569E-02 0.62456838E+02</pdfrwt>
<totfact> 0.24567149E+05</totfact>
</mgrwt>
</event>
<event>
 4    1  0.3946801E-002  0.7493647E+02  0.7818608E-02  0.1344068E+00
         -1   -1    0    0  501    0 -0.00000000000E+00  0.00000000000E+00  0.13984090432E+02  0.13984091340E+02  0.50400000000E-02 0.  1.
          1   -1    0    0    0  501  0.00000000000E+00 -0.00000000000E+00 -0.10039041994E+03  0.10039042007E+03  0.50400000000E-02 0.  1.
          2    1    1    2    0  502 -0.24220998758E+01  0.24608917963E+02 -0.86167604387E+02  0.89645532312E+02  0.25500000000E-02 0. -1.
         -2    1    1    2  502    0  0.24220998758E+01 -0.24608917963E+02 -0.23872512510E+00  0.24728979099E+02  0.25500000000E-02 0. -1.
<mgrwt>
<rscale>  0 0.74936474E+02</rscale>
<asrwt>0</asrwt>
<pdfrwt beam="2">  1        1 0.15444680E-01 0.74936474E+02</pdfrwt>
<pdfrwt beam="1">  1       -1 0.21513987E-02 0.74936474E+02</pdfrwt>
<totfact> 0.17717841E+05</totfact>
</mgrwt>
</event>
<event>
 4    1  0.3946801E-002  0.7988787E+02  0.7818608E-02  0.1329370E+00
         -1   -1    0    0  501    0 -0.00000000000E+00  0.00000000000E+00  0.51986339178E+03  0.51986339180E+03  0.50400000000E-02 0. -1.
          1   -1    0    0    0  501  0.00000000000E+00 -0.00000000000E+00 -0.30691077975E+01  0.30691119357E+01  0.50400000000E-02 0. -1.
          2    1    1    2    0  502  0.28621255602E+02 -0.27492669355E+02  0.22876343980E+03  0.23218039223E+03  0.25500000000E-02 0.  1.
         -2    1    1    2  502    0 -0.28621255602E+02  0.27492669355E+02  0.28803084419E+03  0.29075211151E+03  0.25500000000E-02 0.  1.
<mgrwt>
<rscale>  0 0.79887868E+02</rscale>
<asrwt>0</asrwt>
<pdfrwt beam="2">  1        1 0.47217057E-03 0.79887868E+02</pdfrwt>
<pdfrwt beam="1">  1       -1 0.79979014E-01 0.79887868E+02</pdfrwt>
<totfact> 0.64809704E+04</totfact>
</mgrwt>
</event>
<event>
 4    1  0.3946801E-002  0.1350780E+03  0.7818608E-02  0.1220110E+00
         -1   -1    0    0  501    0 -0.00000000000E+00  0.00000000000E+00  0.93112750029E+02  0.93112750165E+02  0.50400000000E-02 0. -1.
          1   -1    0    0    0  501  0.00000000000E+00 -0.00000000000E+00 -0.48989148743E+02  0.48989149002E+02  0.50400000000E-02 0. -1.
          2    1    1    2    0  502 -0.38915175313E+02  0.44753639597E+02 -0.11933159627E+02  0.60495284378E+02  0.25500000000E-02 0.  1.
         -2    1    1    2  502    0  0.38915175313E+02 -0.44753639597E+02  0.56056760913E+02  0.81606614789E+02  0.25500000000E-02 0.  1.
<mgrwt>
<rscale>  0 0.13507797E+03</rscale>
<asrwt>0</asrwt>
<pdfrwt beam="2">  1        1 0.75367921E-02 0.13507797E+03</pdfrwt>
<pdfrwt beam="1">  1       -1 0.14325039E-01 0.13507797E+03</pdfrwt>
<totfact> 0.29924313E+04</totfact>
</mgrwt>
</event>
<event>
 4    1  0.3946801E-002  0.5719822E+02  0.7818608E-02  0.1409980E+00
         -1   -1    0    0  501    0 -0.00000000000E+00  0.00000000000E+00  0.25594007653E+02  0.25594008149E+02  0.50400000000E-02 0.  1.
          1   -1    0    0    0  501  0.00000000000E+00 -0.00000000000E+00 -0.31957051668E+02  0.31957052065E+02  0.50400000000E-02 0.  1.
          2    1    1    2    0  502 -0.93741187502E+01 -0.24072232425E+02 -0.15527608997E+02  0.30140556132E+02  0.25500000000E-02 0. -1.
         -2    1    1    2  502    0  0.93741187502E+01  0.24072232425E+02  0.91645649819E+01  0.27410504083E+02  0.25500000000E-02 0. -1.
<mgrwt>
<rscale>  0 0.57198219E+02</rscale>
<asrwt>0</asrwt>
<pdfrwt beam="2">  1        1 0.49164696E-02 0.57198219E+02</pdfrwt>
<pdfrwt beam="1">  1       -1 0.39375397E-02 0.57198219E+02</pdfrwt>
<totfact> 0.31473060E+05</totfact>
</mgrwt>
</event>
<event>
 4    1  0.3946801E-002  0.1457790E+03  0.7818608E-02  0.1205758E+00
         -1   -1    0    0  501    0 -0.00000000000E+00  0.00000000000E+00  0.28280882956E+02  0.28280883405E+02  0.50400000000E-02 0.  1.
          1   -1    0    0    0  501  0.00000000000E+00 -0.00000000000E+00 -0.18786112727E+03  0.18786112734E+03  0.50400000000E-02 0.  1.
          2    1    1    2    0  502 -0.12179616266E+02 -0.70561504876E+02 -0.99989799757E+02  0.12298467012E+03  0.25500000000E-02 0. -1.
         -2    1    1    2  502    0  0.12179616266E+02  0.70561504876E+02 -0.59590444558E+02  0.93157340623E+02  0.25500000000E-02 0. -1.
<mgrwt>
<rscale>  0 0.14577899E+03</rscale>
<asrwt>0</asrwt>
<pdfrwt beam="2">  1        1 0.28901711E-01 0.14577899E+03</pdfrwt>
<pdfrwt beam="1">  1       -1 0.43509052E-02 0.14577899E+03</pdfrwt>
<totfact> 0.32003521E+04</totfact>
</mgrwt>
</event>
<event>
 4    1  0.3946801E-002  0.5094824E+02  0.7818608E-02  0.1440293E+00
         -1   -1    0    0  501    0 -0.00000000000E+00  0.00000000000E+00  0.44654480382E+01  0.44654508824E+01  0.50400000000E-02 0.  1.
          1   -1    0    0    0  501  0.00000000000E+00 -0.00000000000E+00 -0.14532263675E+03  0.14532263684E+03  0.50400000000E-02 0.  1.
          2    1    1    2    0  502 -0.16563339025E+02  0.19167555932E+02 -0.62544393497E+02  0.67479927123E+02  0.25500000000E-02 0.  1.
         -2    1    1    2  502    0  0.16563339025E+02 -0.19167555932E+02 -0.78312795213E+02  0.82308160596E+02  0.25500000000E-02 0.  1.
<mgrwt>
<rscale>  0 0.50948244E+02</rscale>
<asrwt>0</asrwt>
<pdfrwt beam="2">  1        1 0.22357325E-01 0.50948244E+02</pdfrwt>
<pdfrwt beam="1">  1       -1 0.68699234E-03 0.50948244E+02</pdfrwt>
<totfact> 0.50855492E+05</totfact>
</mgrwt>
</event>
<event>
 4    1  0.3946801E-002  0.4596433E+02  0.7818608E-02  0.1468410E+00
         -1   -1    0    0  501    0 -0.00000000000E+00  0.00000000000E+00  0.61893217137E+01  0.61893237657E+01  0.50400000000E-02 0.  1.
          1   -1    0    0    0  501  0.00000000000E+00 -0.00000000000E+00 -0.85337276837E+02  0.85337276986E+02  0.50400000000E-02 0.  1.
          2    1    1    2    0  502 -0.92973715075E+01 -0.20978420669E+02 -0.37020275338E+02  0.43554977250E+02  0.25500000000E-02 0. -1.
         -2    1    1    2  502    0  0.92973715075E+01  0.20978420669E+02 -0.42127679786E+02  0.47971623501E+02  0.25500000000E-02 0. -1.
<mgrwt>
<rscale>  0 0.45964332E+02</rscale>
<asrwt>0</asrwt>
<pdfrwt beam="2">  1        1 0.13128811E-01 0.45964332E+02</pdfrwt>
<pdfrwt beam="1">  1       -1 0.95220357E-03 0.45964332E+02</pdfrwt>
<totfact> 0.61134047E+05</totfact>
</mgrwt>
</event>
<event>
 4    1  0.3946801E-002  0.5571426E+02  0.7818608E-02  0.1416751E+00
         -1   -1    0    0  501    0 -0.00000000000E+00  0.00000000000E+00  0.17485325380E+01  0.17485398017E+01  0.50400000000E-02 0. -1.
          1   -1    0    0    0  501  0.00000000000E+00 -0.00000000000E+00 -0.44381103260E+03  0.44381103263E+03  0.50400000000E-02 0. -1.
          2    1    1    2    0  502 -0.17883779469E+02  0.12603792288E+02 -0.35893055419E+03  0.35959675733E+03  0.25500000000E-02 0. -1.
         -2    1    1    2  502    0  0.17883779469E+02 -0.12603792288E+02 -0.83131945875E+02  0.85962815098E+02  0.25500000000E-02 0. -1.
<mgrwt>
<rscale>  0 0.55714259E+02</rscale>
<asrwt>0</asrwt>
<pdfrwt beam="2">  1        1 0.68278531E-01 0.55714259E+02</pdfrwt>
<pdfrwt beam="1">  1       -1 0.26900592E-03 0.55714259E+02</pdfrwt>
<totfact> 0.48993723E+05</totfact>
</mgrwt>
</event>
<event>
 4    1  0.3946801E-002  0.4941656E+02  0.7818608E-02  0.1448514E+00
          1   -1    0    0    0  501  0.00000000000E+00  0.00000000000E+00  0.44701191592E+01  0.44701220005E+01  0.50400000000E-02 0. -1.
         -1   -1    0    0  501    0 -0.00000000000E+00 -0.00000000000E+00 -0.13657326591E+03  0.13657326600E+03  0.50400000000E-02 0. -1.
          2    1    1    2    0  502  0.20127902357E+02  0.23530928459E+01 -0.10639846085E+03  0.10831113506E+03  0.25500000000E-02 0.  1.
         -2    1    1    2  502    0 -0.20127902357E+02 -0.23530928459E+01 -0.25704685895E+02  0.32732252943E+02  0.25500000000E-02 0.  1.
<mgrwt>
<rscale>  0 0.49416555E+02</rscale>
<asrwt>0</asrwt>
<pdfrwt beam="1">  1        1 0.68771097E-03 0.49416555E+02</pdfrwt>
<pdfrwt beam="2">  1       -1 0.21011269E-01 0.49416555E+02</pdfrwt>
<totfact> 0.36165011E+05</totfact>
</mgrwt>
</event>
<event>
 4    1  0.3946801E-002  0.4379689E+02  0.7818608E-02  0.1481995E+00
         -1   -1    0    0  501    0 -0.00000000000E+00  0.00000000000E+00  0.10830349455E+02  0.10830350628E+02  0.50400000000E-02 0. -1.
          1   -1    0    0    0  501  0.00000000000E+00 -0.00000000000E+00 -0.44277602096E+02  0.44277602383E+02  0.50400000000E-02 0. -1.
          2    1    1    2    0  502  0.74335391028E+01 -0.19126230499E+02 -0.71020994805E+01  0.21714281481E+02  0.25500000000E-02 0.  1.
         -2    1    1    2  502    0 -0.74335391028E+01  0.19126230499E+02 -0.26345153160E+02  0.33393671530E+02  0.25500000000E-02 0.  1.
<mgrwt>
<rscale>  0 0.43796892E+02</rscale>
<asrwt>0</asrwt>
<pdfrwt beam="2">  1        1 0.68119388E-02 0.43796892E+02</pdfrwt>
<pdfrwt beam="1">  1       -1 0.16662077E-02 0.43796892E+02</pdfrwt>
<totfact> 0.64479701E+05</totfact>
</mgrwt>
</event>
<event>
 4    1  0.3946801E-002  0.4130664E+02  0.7818608E-02  0.1498810E+00
          1   -1    0    0    0  501  0.00000000000E+00  0.00000000000E+00  0.35706047791E+02  0.35706048147E+02  0.50400000000E-02 0. -1.
         -1   -1    0    0  501    0 -0.00000000000E+00 -0.00000000000E+00 -0.11946426584E+02  0.11946427647E+02  0.50400000000E-02 0. -1.
          2    1    1    2    0  502  0.16518450551E+02  0.12012268938E+02  0.83417476611E+01  0.22062152529E+02  0.25500000000E-02 0.  1.
         -2    1    1    2  502    0 -0.16518450551E+02 -0.12012268938E+02  0.15417873546E+02  0.25590323265E+02  0.25500000000E-02 0.  1.
<mgrwt>
<rscale>  0 0.41306644E+02</rscale>
<asrwt>0</asrwt>
<pdfrwt beam="1">  1        1 0.54932382E-02 0.41306644E+02</pdfrwt>
<pdfrwt beam="2">  1       -1 0.18379119E-02 0.41306644E+02</pdfrwt>
<totfact> 0.73331149E+05</totfact>
</mgrwt>
</event>
<event>
 4    1  0.3946801E-002  0.5041583E+02  0.7818608E-02  0.1443111E+00
         -1   -1    0    0  501    0 -0.00000000000E+00  0.00000000000E+00  0.70877041480E+01  0.70877059399E+01  0.50400000000E-02 0. -1.
          1   -1    0    0    0  501  0.00000000000E+00 -0.00000000000E+00 -0.89653703455E+02  0.89653703597E+02  0.50400000000E-02 0. -1.
          2    1    1    2    0  502 -0.39960034325E+01 -0.24842338714E+02 -0.38354489774E+02  0.45871306157E+02  0.25500000000E-02 0.  1.
         -2    1    1    2  502    0  0.39960034325E+01  0.24842338714E+02 -0.44211509533E+02  0.50870103380E+02  0.25500000000E-02 0.  1.
<mgrwt>
<rscale>  0 0.50415832E+02</rscale>
<asrwt>0</asrwt>
<pdfrwt beam="2">  1        1 0.13792877E-01 0.50415832E+02</pdfrwt>
<pdfrwt beam="1">  1       -1 0.10904162E-02 0.50415832E+02</pdfrwt>
<totfact> 0.48745235E+05</totfact>
</mgrwt>
</event>
<event>
 4    1  0.3946801E-002  0.5543943E+02  0.7818608E-02  0.1418032E+00
          1   -1    0    0    0  501  0.00000000000E+00  0.00000000000E+00  0.37954065386E+03  0.37954065389E+03  0.50400000000E-02 0. -1.
         -1   -1    0    0  501    0 -0.00000000000E+00 -0.00000000000E+00 -0.20245032250E+01  0.20245094985E+01  0.50400000000E-02 0. -1.
          2    1    1    2    0  502 -0.14468838380E+02  0.23440818019E+02  0.16747410987E+03  0.16972447294E+03  0.25500000000E-02 0. -1.
         -2    1    1    2  502    0  0.14468838380E+02 -0.23440818019E+02  0.21004204077E+03  0.21184069045E+03  0.25500000000E-02 0. -1.
<mgrwt>
<rscale>  0 0.55439426E+02</rscale>
<asrwt>0</asrwt>
<pdfrwt beam="1">  1        1 0.58390846E-01 0.55439426E+02</pdfrwt>
<pdfrwt beam="2">  1       -1 0.31146265E-03 0.55439426E+02</pdfrwt>
<totfact> 0.48467512E+05</totfact>
</mgrwt>
</event>
<event>
 4    1  0.3946801E-002  0.4637961E+02  0.7818608E-02  0.1465908E+00
         -1   -1    0    0  501    0 -0.00000000000E+00  0.00000000000E+00  0.27107706364E+03  0.27107706369E+03  0.50400000000E-02 0.  1.
          1   -1    0    0    0  501  0.00000000000E+00 -0.00000000000E+00 -0.19838126445E+01  0.19838190467E+01  0.50400000000E-02 0.  1.
          2    1    1    2    0  502  0.12925311799E+02 -0.18178622901E+02  0.97198688496E+02  0.99725177701E+02  0.25500000000E-02 0. -1.
         -2    1    1    2  502    0 -0.12925311799E+02  0.18178622901E+02  0.17189456250E+03  0.17333570504E+03  0.25500000000E-02 0. -1.
<mgrwt>
<rscale>  0 0.46379607E+02</rscale>
<asrwt>0</asrwt>
<pdfrwt beam="2">  1        1 0.30520228E-03 0.46379607E+02</pdfrwt>
<pdfrwt beam="1">  1       -1 0.41704187E-01 0.46379607E+02</pdfrwt>
<totfact> 0.35066949E+05</totfact>
</mgrwt>
</event>
<event>
 4    1  0.3946801E-002  0.8463310E+02  0.7818608E-02  0.1316395E+00
          1   -1    0    0    0  501  0.00000000000E+00  0.00000000000E+00  0.21075242560E+02  0.21075243163E+02  0.50400000000E-02 0. -1.
         -1   -1    0    0  501    0 -0.00000000000E+00 -0.00000000000E+00 -0.84966545472E+02  0.84966545621E+02  0.50400000000E-02 0. -1.
          2    1    1    2    0  502  0.30775855654E+02  0.19767491226E+02 -0.58606999939E+02  0.69084639746E+02  0.25500000000E-02 0.  1.
         -2    1    1    2  502    0 -0.30775855654E+02 -0.19767491226E+02 -0.52843029727E+01  0.36957149038E+02  0.25500000000E-02 0.  1.
<mgrwt>
<rscale>  0 0.84633105E+02</rscale>
<asrwt>0</asrwt>
<pdfrwt beam="1">  1        1 0.32423451E-02 0.84633105E+02</pdfrwt>
<pdfrwt beam="2">  1       -1 0.13071776E-01 0.84633105E+02</pdfrwt>
<totfact> 0.10137859E+05</totfact>
</mgrwt>
</event>
<event>
 4    1  0.3946801E-002  0.7146237E+02  0.7818608E-02  0.1355190E+00
          1   -1    0    0    0  501  0.00000000000E+00  0.00000000000E+00  0.28259415969E+03  0.28259415974E+03  0.50400000000E-02 0.  1.
         -1   -1    0    0  501    0 -0.00000000000E+00 -0.00000000000E+00 -0.45178475749E+01  0.45178503862E+01  0.50400000000E-02 0.  1.
          2    1    1    2    0  502 -0.13725562296E+02 -0.32890653560E+02  0.12877021431E+03  0.13361120556E+03  0.25500000000E-02 0. -1.
         -2    1    1    2  502    0  0.13725562296E+02  0.32890653560E+02  0.14930609781E+03  0.15350080457E+03  0.25500000000E-02 0. -1.
<mgrwt>
<rscale>  0 0.71462375E+02</rscale>
<asrwt>0</asrwt>
<pdfrwt beam="1">  1        1 0.43476026E-01 0.71462375E+02</pdfrwt>
<pdfrwt beam="2">  1       -1 0.69505368E-03 0.71462375E+02</pdfrwt>
<totfact> 0.24050246E+05</totfact>
</mgrwt>
</event>
<event>
 4    1  0.3946801E-002  0.6607135E+02  0.7818608E-02  0.1373986E+00
         -1   -1    0    0  501    0 -0.00000000000E+00  0.00000000000E+00  0.97242750422E+02  0.97242750553E+02  0.50400000000E-02 0.  1.
          1   -1    0    0    0  501  0.00000000000E+00 -0.00000000000E+00 -0.11223003932E+02  0.11223005064E+02  0.50400000000E-02 0.  1.
          2    1    1    2    0  502 -0.17551069133E+02 -0.12300278321E+02  0.84280827914E+02  0.86963180915E+02  0.25500000000E-02 0. -1.
         -2    1    1    2  502    0  0.17551069133E+02  0.12300278321E+02  0.17389185762E+01  0.21502574702E+02  0.25500000000E-02 0. -1.
<mgrwt>
<rscale>  0 0.66071350E+02</rscale>
<asrwt>0</asrwt>
<pdfrwt beam="2">  1        1 0.17266160E-02 0.66071350E+02</pdfrwt>
<pdfrwt beam="1">  1       -1 0.14960424E-01 0.66071350E+02</pdfrwt>
<totfact> 0.18615287E+05</totfact>
</mgrwt>
</event>
<event>
 4    1  0.3946801E-002  0.4691015E+02  0.7818608E-02  0.1462757E+00
         -1   -1    0    0  501    0 -0.00000000000E+00  0.00000000000E+00  0.56404003913E+00  0.56406255623E+00  0.50400000000E-02 0.  1.
          1   -1    0    0    0  501  0.00000000000E+00 -0.00000000000E+00 -0.97533769006E+03  0.97533769008E+03  0.50400000000E-02 0.  1.
          2    1    1    2    0  502 -0.61923038444E+01  0.22370075628E+02 -0.55755273641E+03  0.55803567878E+03  0.25500000000E-02 0.  1.
         -2    1    1    2  502    0  0.61923038444E+01 -0.22370075628E+02 -0.41722091362E+03  0.41786607385E+03  0.25500000000E-02 0.  1.
<mgrwt>
<rscale>  0 0.46910148E+02</rscale>
<asrwt>0</asrwt>
<pdfrwt beam="2">  1        1 0.15005060E+00 0.46910148E+02</pdfrwt>
<pdfrwt beam="1">  1       -1 0.86777904E-04 0.46910148E+02</pdfrwt>
<totfact> 0.74774835E+05</totfact>
</mgrwt>
</event>
<event>
 4    1  0.3946801E-002  0.4963296E+02  0.7818608E-02  0.1447331E+00
          1   -1    0    0    0  501  0.00000000000E+00  0.00000000000E+00  0.15077559720E+04  0.15077559720E+04  0.50400000000E-02 0. -1.
         -1   -1    0    0  501    0 -0.00000000000E+00 -0.00000000000E+00 -0.40844421288E+00  0.40847530725E+00  0.50400000000E-02 0. -1.
          2    1    1    2    0  502 -0.18063008630E+01  0.24075980802E+02  0.57927074327E+03  0.57977367100E+03  0.25500000000E-02 0.  1.
         -2    1    1    2  502    0  0.18063008630E+01 -0.24075980802E+02  0.92807678453E+03  0.92839077633E+03  0.25500000000E-02 0.  1.
<mgrwt>
<rscale>  0 0.49632959E+02</rscale>
<asrwt>0</asrwt>
<pdfrwt beam="1">  1        1 0.23196251E+00 0.49632959E+02</pdfrwt>
<pdfrwt beam="2">  1       -1 0.62839950E-04 0.49632959E+02</pdfrwt>
<totfact> 0.52527750E+05</totfact>
</mgrwt>
</event>
<event>
 4    1  0.3946801E-002  0.5402769E+02  0.7818608E-02  0.1424754E+00
          1   -1    0    0    0  501  0.00000000000E+00  0.00000000000E+00  0.93190044800E+03  0.93190044802E+03  0.50400000000E-02 0.  1.
         -1   -1    0    0  501    0 -0.00000000000E+00 -0.00000000000E+00 -0.78306669983E+00  0.78308291897E+00  0.50400000000E-02 0.  1.
          2    1    1    2    0  502  0.60383857227E+01  0.23527072471E+02  0.26147265025E+03  0.26259842360E+03  0.25500000000E-02 0. -1.
         -2    1    1    2  502    0 -0.60383857227E+01 -0.23527072471E+02  0.66964473105E+03  0.67008510734E+03  0.25500000000E-02 0. -1.
<mgrwt>
<rscale>  0 0.54027688E+02</rscale>
<asrwt>0</asrwt>
<pdfrwt beam="1">  1        1 0.14336925E+00 0.54027688E+02</pdfrwt>
<pdfrwt beam="2">  1       -1 0.12047309E-03 0.54027688E+02</pdfrwt>
<totfact> 0.53181025E+05</totfact>
</mgrwt>
</event>
<event>
 4    1  0.3946801E-002  0.5388297E+02  0.7818608E-02  0.1425456E+00
         -1   -1    0    0  501    0 -0.00000000000E+00  0.00000000000E+00  0.29391700089E+01  0.29391743301E+01  0.50400000000E-02 0. -1.
          1   -1    0    0    0  501  0.00000000000E+00 -0.00000000000E+00 -0.24695515652E+03  0.24695515657E+03  0.50400000000E-02 0. -1.
          2    1    1    2    0  502 -0.25970816248E+02 -0.54475842177E+01 -0.14360418302E+03  0.14603534112E+03  0.25500000000E-02 0. -1.
         -2    1    1    2  502    0  0.25970816248E+02  0.54475842177E+01 -0.10041180350E+03  0.10385898978E+03  0.25500000000E-02 0. -1.
<mgrwt>
<rscale>  0 0.53882975E+02</rscale>
<asrwt>0</asrwt>
<pdfrwt beam="2">  1        1 0.37993085E-01 0.53882975E+02</pdfrwt>
<pdfrwt beam="1">  1       -1 0.45218053E-03 0.53882975E+02</pdfrwt>
<totfact> 0.48340098E+05</totfact>
</mgrwt>
</event>
<event>
 4    1  0.3946801E-002  0.4341380E+02  0.7818608E-02  0.1484494E+00
         -1   -1    0    0  501    0 -0.00000000000E+00  0.00000000000E+00  0.15599033821E+01  0.15599115241E+01  0.50400000000E-02 0. -1.
          1   -1    0    0    0  501  0.00000000000E+00 -0.00000000000E+00 -0.30206242510E+03  0.30206242514E+03  0.50400000000E-02 0. -1.
          2    1    1    2    0  502  0.90043662435E+01  0.19746840848E+02 -0.14734152303E+03  0.14893132897E+03  0.25500000000E-02 0.  1.
         -2    1    1    2  502    0 -0.90043662435E+01 -0.19746840848E+02 -0.15316099869E+03  0.15469100769E+03  0.25500000000E-02 0.  1.
<mgrwt>
<rscale>  0 0.43413797E+02</rscale>
<asrwt>0</asrwt>
<pdfrwt beam="2">  1        1 0.46471096E-01 0.43413797E+02</pdfrwt>
<pdfrwt beam="1">  1       -1 0.23998601E-03 0.43413797E+02</pdfrwt>
<totfact> 0.85687544E+05</totfact>
</mgrwt>
</event>
<event>
 4    1  0.3946801E-002  0.4561725E+02  0.7818608E-02  0.1470525E+00
         -1   -1    0    0  501    0 -0.00000000000E+00  0.00000000000E+00  0.78328771008E+00  0.78330392465E+00  0.50400000000E-02 0. -1.
          1   -1    0    0    0  501  0.00000000000E+00 -0.00000000000E+00 -0.66415937265E+03  0.66415937267E+03  0.50400000000E-02 0. -1.
          2    1    1    2    0  502 -0.40172200340E+01 -0.22068135935E+02 -0.27142389507E+03  0.27234917203E+03  0.25500000000E-02 0.  1.
         -2    1    1    2  502    0  0.40172200340E+01  0.22068135935E+02 -0.39195218987E+03  0.39259350457E+03  0.25500000000E-02 0.  1.
<mgrwt>
<rscale>  0 0.45617245E+02</rscale>
<asrwt>0</asrwt>
<pdfrwt beam="2">  1        1 0.10217792E+00 0.45617245E+02</pdfrwt>
<pdfrwt beam="1">  1       -1 0.12050758E-03 0.45617245E+02</pdfrwt>
<totfact> 0.83209571E+05</totfact>
</mgrwt>
</event>
<event>
 4    1  0.3946801E-002  0.8426385E+02  0.7818608E-02  0.1317369E+00
         -1   -1    0    0  501    0 -0.00000000000E+00  0.00000000000E+00  0.54189863607E+01  0.54189887045E+01  0.50400000000E-02 0.  1.
          1   -1    0    0    0  501  0.00000000000E+00 -0.00000000000E+00 -0.32757023657E+03  0.32757023661E+03  0.50400000000E-02 0.  1.
          2    1    1    2    0  502  0.25237276878E+02 -0.33379875580E+02 -0.18042013091E+03  0.18520950268E+03  0.25500000000E-02 0. -1.
         -2    1    1    2  502    0 -0.25237276878E+02  0.33379875580E+02 -0.14173111930E+03  0.14777972264E+03  0.25500000000E-02 0. -1.
<mgrwt>
<rscale>  0 0.84263848E+02</rscale>
<asrwt>0</asrwt>
<pdfrwt beam="2">  1        1 0.50395406E-01 0.84263848E+02</pdfrwt>
<pdfrwt beam="1">  1       -1 0.83369065E-03 0.84263848E+02</pdfrwt>
<totfact> 0.16051790E+05</totfact>
</mgrwt>
</event>
<event>
 4    1  0.3946801E-002  0.4904897E+02  0.7818608E-02  0.1450540E+00
          1   -1    0    0    0  501  0.00000000000E+00  0.00000000000E+00  0.13281428875E+01  0.13281524503E+01  0.50400000000E-02 0.  1.
         -1   -1    0    0  501    0 -0.00000000000E+00 -0.00000000000E+00 -0.45284909457E+03  0.45284909460E+03  0.50400000000E-02 0.  1.
          2    1    1    2    0  502  0.64025904034E+01 -0.23417768142E+02 -0.25792426052E+03  0.25906429550E+03  0.25500000000E-02 0. -1.
         -2    1    1    2  502    0 -0.64025904034E+01  0.23417768142E+02 -0.19359669116E+03  0.19511295156E+03  0.25500000000E-02 0. -1.
<mgrwt>
<rscale>  0 0.49048975E+02</rscale>
<asrwt>0</asrwt>
<pdfrwt beam="1">  1        1 0.20433077E-03 0.49048975E+02</pdfrwt>
<pdfrwt beam="2">  1       -1 0.69668969E-01 0.49048975E+02</pdfrwt>
<totfact> 0.24248297E+05</totfact>
</mgrwt>
</event>
<event>
 4    1  0.3946801E-002  0.4209949E+02  0.7818608E-02  0.1493306E+00
         -1   -1    0    0  501    0 -0.00000000000E+00  0.00000000000E+00  0.17795495542E+00  0.17802631199E+00  0.50400000000E-02 0. -1.
          1   -1    0    0    0  501  0.00000000000E+00 -0.00000000000E+00 -0.24894110298E+04  0.24894110298E+04  0.50400000000E-02 0. -1.
          2    1    1    2    0  502 -0.96550769177E+01  0.18600519202E+02 -0.13612810491E+04  0.13614423581E+04  0.25500000000E-02 0.  1.
         -2    1    1    2  502    0  0.96550769177E+01 -0.18600519202E+02 -0.11279520258E+04  0.11281466980E+04  0.25500000000E-02 0.  1.
<mgrwt>
<rscale>  0 0.42099495E+02</rscale>
<asrwt>0</asrwt>
<pdfrwt beam="2">  1        1 0.38295844E+00 0.42099495E+02</pdfrwt>
<pdfrwt beam="1">  1       -1 0.27385169E-04 0.42099495E+02</pdfrwt>
<totfact> 0.38727518E+05</totfact>
</mgrwt>
</event>
<event>
 4    1  0.3946801E-002  0.4095738E+02  0.7818608E-02  0.1501282E+00
          1   -1    0    0    0  501  0.00000000000E+00  0.00000000000E+00  0.16892305016E+04  0.16892305016E+04  0.50400000000E-02 0.  1.
         -1   -1    0    0  501    0 -0.00000000000E+00 -0.00000000000E+00 -0.24823931376E+00  0.24829047202E+00  0.50400000000E-02 0.  1.
          2    1    1    2    0  502  0.88321221015E+01  0.18352093325E+02  0.93268181320E+03  0.93290415928E+03  0.25500000000E-02 0. -1.
         -2    1    1    2  502    0 -0.88321221015E+01 -0.18352093325E+02  0.75630044908E+03  0.75657463280E+03  0.25500000000E-02 0. -1.
<mgrwt>
<rscale>  0 0.40957375E+02</rscale>
<asrwt>0</asrwt>
<pdfrwt beam="1">  1        1 0.25988029E+00 0.40957375E+02</pdfrwt>
<pdfrwt beam="2">  1       -1 0.38194795E-04 0.40957375E+02</pdfrwt>
<totfact> 0.76111395E+05</totfact>
</mgrwt>
</event>
<event>
 4    1  0.3946801E-002  0.8705680E+02  0.7818608E-02  0.1310140E+00
         -1   -1    0    0  501    0 -0.00000000000E+00  0.00000000000E+00  0.18776168081E+03  0.18776168087E+03  0.50400000000E-02 0.  1.
          1   -1    0    0    0  501  0.00000000000E+00 -0.00000000000E+00 -0.10091096755E+02  0.10091098014E+02  0.50400000000E-02 0.  1.
          2    1    1    2    0  502  0.41194438476E+02 -0.12293679656E+01  0.56999159539E+02  0.70337737394E+02  0.25500000000E-02 0. -1.
         -2    1    1    2  502    0 -0.41194438476E+02  0.12293679656E+01  0.12067142451E+03  0.12751504149E+03  0.25500000000E-02 0. -1.
<mgrwt>
<rscale>  0 0.87056796E+02</rscale>
<asrwt>0</asrwt>
<pdfrwt beam="2">  1        1 0.15524767E-02 0.87056796E+02</pdfrwt>
<pdfrwt beam="1">  1       -1 0.28886409E-01 0.87056796E+02</pdfrwt>
<totfact> 0.79681522E+04</totfact>
</mgrwt>
</event>
<event>
 4    1  0.3946801E-002  0.6360037E+02  0.7818608E-02  0.1383315E+00
          1   -1    0    0    0  501  0.00000000000E+00  0.00000000000E+00  0.17914199902E+04  0.17914199902E+04  0.50400000000E-02 0. -1.
         -1   -1    0    0  501    0 -0.00000000000E+00 -0.00000000000E+00 -0.56448598309E+00  0.56450848240E+00  0.50400000000E-02 0. -1.
          2    1    1    2    0  502  0.22961177531E+02 -0.93962199656E+01  0.14559378675E+04  0.14561492295E+04  0.25500000000E-02 0. -1.
         -2    1    1    2  502    0 -0.22961177531E+02  0.93962199656E+01  0.33491763669E+03  0.33583526913E+03  0.25500000000E-02 0. -1.
<mgrwt>
<rscale>  0 0.63600366E+02</rscale>
<asrwt>0</asrwt>
<pdfrwt beam="1">  1        1 0.27560089E+00 0.63600366E+02</pdfrwt>
<pdfrwt beam="2">  1       -1 0.86846418E-04 0.63600366E+02</pdfrwt>
<totfact> 0.23663899E+05</totfact>
</mgrwt>
</event>
<event>
 4    1  0.3946801E-002  0.8351283E+02  0.7818608E-02  0.1319368E+00
         -1   -1    0    0  501    0 -0.00000000000E+00  0.00000000000E+00  0.38498105119E+02  0.38498105449E+02  0.50400000000E-02 0. -1.
          1   -1    0    0    0  501  0.00000000000E+00 -0.00000000000E+00 -0.45290490767E+02  0.45290491048E+02  0.50400000000E-02 0. -1.
          2    1    1    2    0  502  0.19329380568E+02  0.32725330002E+02 -0.20745660007E+02  0.43300745866E+02  0.25500000000E-02 0.  1.
         -2    1    1    2  502    0 -0.19329380568E+02 -0.32725330002E+02  0.13953274359E+02  0.40487850631E+02  0.25500000000E-02 0.  1.
<mgrwt>
<rscale>  0 0.83512828E+02</rscale>
<asrwt>0</asrwt>
<pdfrwt beam="2">  1        1 0.69677679E-02 0.83512828E+02</pdfrwt>
<pdfrwt beam="1">  1       -1 0.59227855E-02 0.83512828E+02</pdfrwt>
<totfact> 0.11797964E+05</totfact>
</mgrwt>
</event>
<event>
 4    1  0.3946801E-002  0.5754590E+02  0.7818608E-02  0.1408429E+00
          1   -1    0    0    0  501  0.00000000000E+00  0.00000000000E+00  0.17143782585E+03  0.17143782593E+03  0.50400000000E-02 0. -1.
         -1   -1    0    0  501    0 -0.00000000000E+00 -0.00000000000E+00 -0.48290533131E+01  0.48290559432E+01  0.50400000000E-02 0. -1.
          2    1    1    2    0  502 -0.21347383449E+02 -0.42627247580E+01  0.25673061667E+02  0.33659882715E+02  0.25500000000E-02 0.  1.
         -2    1    1    2  502    0  0.21347383449E+02  0.42627247580E+01  0.14093571087E+03  0.14260699916E+03  0.25500000000E-02 0.  1.
<mgrwt>
<rscale>  0 0.57545900E+02</rscale>
<asrwt>0</asrwt>
<pdfrwt beam="1">  1        1 0.26375051E-01 0.57545900E+02</pdfrwt>
<pdfrwt beam="2">  1       -1 0.74293147E-03 0.57545900E+02</pdfrwt>
<totfact> 0.38372889E+05</totfact>
</mgrwt>
</event>
<event>
 4    1  0.3946801E-002  0.4459561E+02  0.7818608E-02  0.1476882E+00
          1   -1    0    0    0  501  0.00000000000E+00  0.00000000000E+00  0.26431083168E+03  0.26431083173E+03  0.50400000000E-02 0.  1.
         -1   -1    0    0  501    0 -0.00000000000E+00 -0.00000000000E+00 -0.18810850624E+01  0.18810918142E+01  0.50400000000E-02 0.  1.
          2    1    1    2    0  502 -0.22249291040E+02  0.12691082811E+01  0.12678624816E+03  0.12872992782E+03  0.25500000000E-02 0.  1.
         -2    1    1    2  502    0  0.22249291040E+02 -0.12691082811E+01  0.13564349846E+03  0.13746199573E+03  0.25500000000E-02 0.  1.
<mgrwt>
<rscale>  0 0.44595608E+02</rscale>
<asrwt>0</asrwt>
<pdfrwt beam="1">  1        1 0.40663195E-01 0.44595608E+02</pdfrwt>
<pdfrwt beam="2">  1       -1 0.28939830E-03 0.44595608E+02</pdfrwt>
<totfact> 0.78381876E+05</totfact>
</mgrwt>
</event>
<event>
 4    1  0.3946801E-002  0.1942100E+03  0.7818608E-02  0.1154718E+00
          1   -1    0    0    0  501  0.00000000000E+00  0.00000000000E+00  0.32005259695E+02  0.32005260092E+02  0.50400000000E-02 0.  1.
         -1   -1    0    0  501    0 -0.00000000000E+00 -0.00000000000E+00 -0.29461977840E+03  0.29461977845E+03  0.50400000000E-02 0.  1.
          2    1    1    2    0  502 -0.28973637998E+02  0.28481917563E+01 -0.28710710067E+03  0.28857940183E+03  0.25500000000E-02 0.  1.
         -2    1    1    2  502    0  0.28973637998E+02 -0.28481917563E+01  0.24492581964E+02  0.38045636713E+02  0.25500000000E-02 0.  1.
<mgrwt>
<rscale>  0 0.19421002E+03</rscale>
<asrwt>0</asrwt>
<pdfrwt beam="1">  1        1 0.49238863E-02 0.19421002E+03</pdfrwt>
<pdfrwt beam="2">  1       -1 0.45326118E-01 0.19421002E+03</pdfrwt>
<totfact> 0.81350501E+03</totfact>
</mgrwt>
</event>
<event>
 4    1  0.3946801E-002  0.5049034E+02  0.7818608E-02  0.1442715E+00
         -1   -1    0    0  501    0 -0.00000000000E+00  0.00000000000E+00  0.39962118654E+01  0.39962150436E+01  0.50400000000E-02 0. -1.
          1   -1    0    0    0  501  0.00000000000E+00 -0.00000000000E+00 -0.15948058802E+03  0.15948058810E+03  0.50400000000E-02 0. -1.
          2    1    1    2    0  502 -0.75122715523E+01 -0.23895640296E+02 -0.87920696195E+02  0.91419279559E+02  0.25500000000E-02 0.  1.
         -2    1    1    2  502    0  0.75122715523E+01  0.23895640296E+02 -0.67563679957E+02  0.72057523583E+02  0.25500000000E-02 0.  1.
<mgrwt>
<rscale>  0 0.50490335E+02</rscale>
<asrwt>0</asrwt>
<pdfrwt beam="2">  1        1 0.24535470E-01 0.50490335E+02</pdfrwt>
<pdfrwt beam="1">  1       -1 0.61480220E-03 0.50490335E+02</pdfrwt>
<totfact> 0.52801893E+05</totfact>
</mgrwt>
</event>
<event>
 4    1  0.3946801E-002  0.9234395E+02  0.7818608E-02  0.1297273E+00
         -1   -1    0    0  501    0 -0.00000000000E+00  0.00000000000E+00  0.43106781796E+02  0.43106782090E+02  0.50400000000E-02 0.  1.
          1   -1    0    0    0  501  0.00000000000E+00 -0.00000000000E+00 -0.49455119942E+02  0.49455120199E+02  0.50400000000E-02 0.  1.
          2    1    1    2    0  502 -0.39482738168E+02 -0.16825180427E+02  0.13891813636E+02  0.45110484394E+02  0.25500000000E-02 0.  1.
         -2    1    1    2  502    0  0.39482738168E+02  0.16825180427E+02 -0.20240151783E+02  0.47451417896E+02  0.25500000000E-02 0.  1.
<mgrwt>
<rscale>  0 0.92343946E+02</rscale>
<asrwt>0</asrwt>
<pdfrwt beam="2">  1        1 0.76084800E-02 0.92343946E+02</pdfrwt>
<pdfrwt beam="1">  1       -1 0.66318126E-02 0.92343946E+02</pdfrwt>
<totfact> 0.90332204E+04</totfact>
</mgrwt>
</event>
<event>
 4    1  0.3946801E-002  0.7247125E+02  0.7818608E-02  0.1351886E+00
          1   -1    0    0    0  501  0.00000000000E+00  0.00000000000E+00  0.24294610803E+03  0.24294610808E+03  0.50400000000E-02 0. -1.
         -1   -1    0    0  501    0 -0.00000000000E+00 -0.00000000000E+00 -0.54045745095E+01  0.54045768595E+01  0.50400000000E-02 0. -1.
          2    1    1    2    0  502  0.99006803324E+01  0.20603315237E+02  0.21512053670E+03  0.21633160977E+03  0.25500000000E-02 0.  1.
         -2    1    1    2  502    0 -0.99006803324E+01 -0.20603315237E+02  0.22420996818E+02  0.32019075168E+02  0.25500000000E-02 0.  1.
<mgrwt>
<rscale>  0 0.72471253E+02</rscale>
<asrwt>0</asrwt>
<pdfrwt beam="1">  1        1 0.37376327E-01 0.72471253E+02</pdfrwt>
<pdfrwt beam="2">  1       -1 0.83147313E-03 0.72471253E+02</pdfrwt>
<totfact> 0.22543732E+05</totfact>
</mgrwt>
</event>
<event>
 4    1  0.3946801E-002  0.5081463E+02  0.7818608E-02  0.1440997E+00
         -1   -1    0    0  501    0 -0.00000000000E+00  0.00000000000E+00  0.23213859101E+01  0.23213913813E+01  0.50400000000E-02 0.  1.
          1   -1    0    0    0  501  0.00000000000E+00 -0.00000000000E+00 -0.27807991824E+03  0.27807991829E+03  0.50400000000E-02 0.  1.
          2    1    1    2    0  502  0.22065818596E+02 -0.16492017812E+01 -0.20678100280E+03  0.20796154294E+03  0.25500000000E-02 0.  1.
         -2    1    1    2  502    0 -0.22065818596E+02  0.16492017812E+01 -0.68977529532E+02  0.72439766728E+02  0.25500000000E-02 0.  1.
<mgrwt>
<rscale>  0 0.50814627E+02</rscale>
<asrwt>0</asrwt>
<pdfrwt beam="2">  1        1 0.42781500E-01 0.50814627E+02</pdfrwt>
<pdfrwt beam="1">  1       -1 0.35713694E-03 0.50814627E+02</pdfrwt>
<totfact> 0.57204525E+05</totfact>
</mgrwt>
</event>
<event>
 4    1  0.3946801E-002  0.6353358E+02  0.7818608E-02  0.1383574E+00
          1   -1    0    0    0  501  0.00000000000E+00  0.00000000000E+00  0.20967140847E+03  0.20967140853E+03  0.50400000000E-02 0. -1.
         -1   -1    0    0  501    0 -0.00000000000E+00 -0.00000000000E+00 -0.48129047323E+01  0.48129073712E+01  0.50400000000E-02 0. -1.
          2    1    1    2    0  502 -0.22488366392E+02  0.59786162484E+01  0.17543491945E+03  0.17697141420E+03  0.25500000000E-02 0.  1.
         -2    1    1    2  502    0  0.22488366392E+02 -0.59786162484E+01  0.29423584290E+02  0.37512901703E+02  0.25500000000E-02 0.  1.
<mgrwt>
<rscale>  0 0.63533575E+02</rscale>
<asrwt>0</asrwt>
<pdfrwt beam="1">  1        1 0.32257134E-01 0.63533575E+02</pdfrwt>
<pdfrwt beam="2">  1       -1 0.74044722E-03 0.63533575E+02</pdfrwt>
<totfact> 0.30854480E+05</totfact>
</mgrwt>
</event>
<event>
 4    1  0.3946801E-002  0.5710852E+02  0.7818608E-02  0.1410383E+00
          1   -1    0    0    0  501  0.00000000000E+00  0.00000000000E+00  0.29524988103E+02  0.29524988533E+02  0.50400000000E-02 0. -1.
         -1   -1    0    0  501    0 -0.00000000000E+00 -0.00000000000E+00 -0.27615442203E+02  0.27615442663E+02  0.50400000000E-02 0. -1.
          2    1    1    2    0  502  0.16586553883E+02  0.19741010857E+02  0.13230465792E+02  0.28980450496E+02  0.25500000000E-02 0. -1.
         -2    1    1    2  502    0 -0.16586553883E+02 -0.19741010857E+02 -0.11320919893E+02  0.28159980701E+02  0.25500000000E-02 0. -1.
<mgrwt>
<rscale>  0 0.57108515E+02</rscale>
<asrwt>0</asrwt>
<pdfrwt beam="1">  1        1 0.45423059E-02 0.57108515E+02</pdfrwt>
<pdfrwt beam="2">  1       -1 0.42485297E-02 0.57108515E+02</pdfrwt>
<totfact> 0.31352706E+05</totfact>
</mgrwt>
</event>
<event>
 4    1  0.3946801E-002  0.5882947E+02  0.7818608E-02  0.1402811E+00
         -1   -1    0    0  501    0 -0.00000000000E+00  0.00000000000E+00  0.94619588740E+02  0.94619588875E+02  0.50400000000E-02 0. -1.
          1   -1    0    0    0  501  0.00000000000E+00 -0.00000000000E+00 -0.91442650692E+01  0.91442664581E+01  0.50400000000E-02 0. -1.
          2    1    1    2    0  502 -0.19319114977E+02 -0.20950202516E+02  0.55588966610E+02  0.62468171129E+02  0.25500000000E-02 0. -1.
         -2    1    1    2  502    0  0.19319114977E+02  0.20950202516E+02  0.29886357061E+02  0.41295684203E+02  0.25500000000E-02 0. -1.
<mgrwt>
<rscale>  0 0.58829471E+02</rscale>
<asrwt>0</asrwt>
<pdfrwt beam="2">  1        1 0.14068102E-02 0.58829471E+02</pdfrwt>
<pdfrwt beam="1">  1       -1 0.14556859E-01 0.58829471E+02</pdfrwt>
<totfact> 0.25050854E+05</totfact>
</mgrwt>
</event>
<event>
 4    1  0.3946801E-002  0.8600777E+02  0.7818608E-02  0.1312818E+00
          1   -1    0    0    0  501  0.00000000000E+00  0.00000000000E+00  0.41170270688E+01  0.41170301538E+01  0.50400000000E-02 0.  1.
         -1   -1    0    0  501    0 -0.00000000000E+00 -0.00000000000E+00 -0.44919150508E+03  0.44919150511E+03  0.50400000000E-02 0.  1.
          2    1    1    2    0  502  0.26003154978E+02  0.16369603144E+02 -0.38111050661E+03  0.38234715407E+03  0.25500000000E-02 0. -1.
         -2    1    1    2  502    0 -0.26003154978E+02 -0.16369603144E+02 -0.63963971409E+02  0.70961381193E+02  0.25500000000E-02 0. -1.
<mgrwt>
<rscale>  0 0.86007774E+02</rscale>
<asrwt>0</asrwt>
<pdfrwt beam="1">  1        1 0.63338937E-03 0.86007774E+02</pdfrwt>
<pdfrwt beam="2">  1       -1 0.69106347E-01 0.86007774E+02</pdfrwt>
<totfact> 0.58361440E+04</totfact>
</mgrwt>
</event>
<event>
 4    1  0.3946801E-002  0.5281312E+02  0.7818608E-02  0.1430733E+00
          1   -1    0    0    0  501  0.00000000000E+00  0.00000000000E+00  0.11697550246E+01  0.11697658822E+01  0.50400000000E-02 0. -1.
         -1   -1    0    0  501    0 -0.00000000000E+00 -0.00000000000E+00 -0.59611045677E+03  0.59611045679E+03  0.50400000000E-02 0. -1.
          2    1    1    2    0  502  0.68601011718E+01  0.20622314755E+02 -0.12784359928E+03  0.12967778043E+03  0.25500000000E-02 0. -1.
         -2    1    1    2  502    0 -0.68601011718E+01 -0.20622314755E+02 -0.46709710246E+03  0.46760244224E+03  0.25500000000E-02 0. -1.
<mgrwt>
<rscale>  0 0.52813122E+02</rscale>
<asrwt>0</asrwt>
<pdfrwt beam="1">  1        1 0.17996362E-03 0.52813122E+02</pdfrwt>
<pdfrwt beam="2">  1       -1 0.91709059E-01 0.52813122E+02</pdfrwt>
<totfact> 0.16931511E+05</totfact>
</mgrwt>
</event>
<event>
 4    1  0.3946801E-002  0.4869543E+02  0.7818608E-02  0.1452508E+00
          1   -1    0    0    0  501  0.00000000000E+00  0.00000000000E+00  0.17549675417E+02  0.17549676141E+02  0.50400000000E-02 0. -1.
         -1   -1    0    0  501    0 -0.00000000000E+00 -0.00000000000E+00 -0.33779039081E+02  0.33779039457E+02  0.50400000000E-02 0. -1.
          2    1    1    2    0  502  0.19227413148E+02 -0.14914668001E+02 -0.72515896360E+01  0.25391461099E+02  0.25500000000E-02 0.  1.
         -2    1    1    2  502    0 -0.19227413148E+02  0.14914668001E+02 -0.89777740280E+01  0.25937254500E+02  0.25500000000E-02 0.  1.
<mgrwt>
<rscale>  0 0.48695429E+02</rscale>
<asrwt>0</asrwt>
<pdfrwt beam="1">  1        1 0.26999501E-02 0.48695429E+02</pdfrwt>
<pdfrwt beam="2">  1       -1 0.51967753E-02 0.48695429E+02</pdfrwt>
<totfact> 0.45370555E+05</totfact>
</mgrwt>
</event>
<event>
 4    1  0.3946801E-002  0.5232148E+02  0.7818608E-02  0.1433208E+00
         -1   -1    0    0  501    0 -0.00000000000E+00  0.00000000000E+00  0.63974968215E+00  0.63976953461E+00  0.50400000000E-02 0. -1.
          1   -1    0    0    0  501  0.00000000000E+00 -0.00000000000E+00 -0.10697522992E+04  0.10697522992E+04  0.50400000000E-02 0. -1.
          2    1    1    2    0  502  0.13593624107E+02 -0.21681813898E+02 -0.64566526273E+03  0.64617220551E+03  0.25500000000E-02 0.  1.
         -2    1    1    2  502    0 -0.13593624107E+02  0.21681813898E+02 -0.42344728675E+03  0.42421986320E+03  0.25500000000E-02 0.  1.
<mgrwt>
<rscale>  0 0.52321480E+02</rscale>
<asrwt>0</asrwt>
<pdfrwt beam="2">  1        1 0.16457585E+00 0.52321480E+02</pdfrwt>
<pdfrwt beam="1">  1       -1 0.98425412E-04 0.52321480E+02</pdfrwt>
<totfact> 0.55568478E+05</totfact>
</mgrwt>
</event>
<event>
 4    1  0.3946801E-002  0.4582304E+02  0.7818608E-02  0.1469268E+00
         -1   -1    0    0  501    0 -0.00000000000E+00  0.00000000000E+00  0.25363755648E+02  0.25363756149E+02  0.50400000000E-02 0.  1.
          1   -1    0    0    0  501  0.00000000000E+00 -0.00000000000E+00 -0.20696374874E+02  0.20696375488E+02  0.50400000000E-02 0.  1.
          2    1    1    2    0  502  0.18153671927E+02 -0.13934722791E+02  0.34373286807E+01  0.23141900066E+02  0.25500000000E-02 0. -1.
         -2    1    1    2  502    0 -0.18153671927E+02  0.13934722791E+02  0.12300520932E+01  0.22918231571E+02  0.25500000000E-02 0. -1.
<mgrwt>
<rscale>  0 0.45823043E+02</rscale>
<asrwt>0</asrwt>
<pdfrwt beam="2">  1        1 0.31840577E-02 0.45823043E+02</pdfrwt>
<pdfrwt beam="1">  1       -1 0.39021164E-02 0.45823043E+02</pdfrwt>
<totfact> 0.53932682E+05</totfact>
</mgrwt>
</event>
<event>
 4    1  0.3946801E-002  0.4616738E+02  0.7818608E-02  0.1467183E+00
          1   -1    0    0    0  501  0.00000000000E+00  0.00000000000E+00  0.72422064763E+01  0.72422082300E+01  0.50400000000E-02 0.  1.
         -1   -1    0    0  501    0 -0.00000000000E+00 -0.00000000000E+00 -0.73576553920E+02  0.73576554092E+02  0.50400000000E-02 0.  1.
          2    1    1    2    0  502  0.20490643762E+02 -0.68412946812E+01 -0.18925437972E+02  0.28720062738E+02  0.25500000000E-02 0.  1.
         -2    1    1    2  502    0 -0.20490643762E+02  0.68412946812E+01 -0.47408909471E+02  0.52098699585E+02  0.25500000000E-02 0.  1.
<mgrwt>
<rscale>  0 0.46167377E+02</rscale>
<asrwt>0</asrwt>
<pdfrwt beam="1">  1        1 0.11141858E-02 0.46167377E+02</pdfrwt>
<pdfrwt beam="2">  1       -1 0.11319469E-01 0.46167377E+02</pdfrwt>
<totfact> 0.47421305E+05</totfact>
</mgrwt>
</event>
<event>
 4    1  0.3946801E-002  0.5779623E+02  0.7818608E-02  0.1407320E+00
         -1   -1    0    0  501    0 -0.00000000000E+00  0.00000000000E+00  0.23032226069E+03  0.23032226074E+03  0.50400000000E-02 0. -1.
          1   -1    0    0    0  501  0.00000000000E+00 -0.00000000000E+00 -0.36257924726E+01  0.36257959755E+01  0.50400000000E-02 0. -1.
          2    1    1    2    0  502  0.23269910610E+02  0.10848966690E+02  0.59661371381E+02  0.64951274504E+02  0.25500000000E-02 0.  1.
         -2    1    1    2  502    0 -0.23269910610E+02 -0.10848966690E+02  0.16703509683E+03  0.16899678221E+03  0.25500000000E-02 0.  1.
<mgrwt>
<rscale>  0 0.57796233E+02</rscale>
<asrwt>0</asrwt>
<pdfrwt beam="2">  1        1 0.55781440E-03 0.57796233E+02</pdfrwt>
<pdfrwt beam="1">  1       -1 0.35434201E-01 0.57796233E+02</pdfrwt>
<totfact> 0.21417395E+05</totfact>
</mgrwt>
</event>
<event>
 4    1  0.3946801E-002  0.4669123E+02  0.7818608E-02  0.1464052E+00
          1   -1    0    0    0  501  0.00000000000E+00  0.00000000000E+00  0.69945578191E+02  0.69945578373E+02  0.50400000000E-02 0.  1.
         -1   -1    0    0  501    0 -0.00000000000E+00 -0.00000000000E+00 -0.77920244055E+01  0.77920260355E+01  0.50400000000E-02 0.  1.
          2    1    1    2    0  502  0.15149356594E+02  0.14145852360E+02  0.48962922435E+02  0.53169313745E+02  0.25500000000E-02 0.  1.
         -2    1    1    2  502    0 -0.15149356594E+02 -0.14145852360E+02  0.13190631350E+02  0.24568290663E+02  0.25500000000E-02 0.  1.
<mgrwt>
<rscale>  0 0.46691229E+02</rscale>
<asrwt>0</asrwt>
<pdfrwt beam="1">  1        1 0.10760858E-01 0.46691229E+02</pdfrwt>
<pdfrwt beam="2">  1       -1 0.11987731E-02 0.46691229E+02</pdfrwt>
<totfact> 0.57433993E+05</totfact>
</mgrwt>
</event>
<event>
 4    1  0.3946801E-002  0.6087142E+02  0.7818608E-02  0.1394211E+00
          1   -1    0    0    0  501  0.00000000000E+00  0.00000000000E+00  0.25440943909E+03  0.25440943914E+03  0.50400000000E-02 0.  1.
         -1   -1    0    0  501    0 -0.00000000000E+00 -0.00000000000E+00 -0.36411072897E+01  0.36411107779E+01  0.50400000000E-02 0.  1.
          2    1    1    2    0  502 -0.94250837411E+01 -0.17952121027E+02  0.29159060749E+02  0.35515654058E+02  0.25500000000E-02 0.  1.
         -2    1    1    2  502    0  0.94250837411E+01  0.17952121027E+02  0.22160927105E+03  0.22253489586E+03  0.25500000000E-02 0.  1.
<mgrwt>
<rscale>  0 0.60871423E+02</rscale>
<asrwt>0</asrwt>
<pdfrwt beam="1">  1        1 0.39139926E-01 0.60871423E+02</pdfrwt>
<pdfrwt beam="2">  1       -1 0.56017045E-03 0.60871423E+02</pdfrwt>
<totfact> 0.35663139E+05</totfact>
</mgrwt>
</event>
<event>
 4    1  0.3946801E-002  0.5561386E+02  0.7818608E-02  0.1417218E+00
          1   -1    0    0    0  501  0.00000000000E+00  0.00000000000E+00  0.69989695424E+03  0.69989695426E+03  0.50400000000E-02 0.  1.
         -1   -1    0    0  501    0 -0.00000000000E+00 -0.00000000000E+00 -0.11047645070E+01  0.11047760033E+01  0.50400000000E-02 0.  1.
          2    1    1    2    0  502  0.11075931156E+02 -0.19227511015E+02  0.13815678254E+03  0.13992737401E+03  0.25500000000E-02 0. -1.
         -2    1    1    2  502    0 -0.11075931156E+02  0.19227511015E+02  0.56063540720E+03  0.56107435625E+03  0.25500000000E-02 0. -1.
<mgrwt>
<rscale>  0 0.55613860E+02</rscale>
<asrwt>0</asrwt>
<pdfrwt beam="1">  1        1 0.10767641E+00 0.55613860E+02</pdfrwt>
<pdfrwt beam="2">  1       -1 0.16996473E-03 0.55613860E+02</pdfrwt>
<totfact> 0.50881446E+05</totfact>
</mgrwt>
</event>
<event>
 4    1  0.3946801E-002  0.4615441E+02  0.7818608E-02  0.1467261E+00
         -1   -1    0    0  501    0 -0.00000000000E+00  0.00000000000E+00  0.76671975996E+03  0.76671975997E+03  0.50400000000E-02 0. -1.
          1   -1    0    0    0  501  0.00000000000E+00 -0.00000000000E+00 -0.69458268919E+00  0.69460097446E+00  0.50400000000E-02 0. -1.
          2    1    1    2    0  502  0.14021990772E+02  0.18311771858E+02  0.36991959793E+03  0.37063789088E+03  0.25500000000E-02 0. -1.
         -2    1    1    2  502    0 -0.14021990772E+02 -0.18311771858E+02  0.39610557934E+03  0.39677647007E+03  0.25500000000E-02 0. -1.
<mgrwt>
<rscale>  0 0.46154406E+02</rscale>
<asrwt>0</asrwt>
<pdfrwt beam="2">  1        1 0.10686020E-03 0.46154406E+02</pdfrwt>
<pdfrwt beam="1">  1       -1 0.11795697E+00 0.46154406E+02</pdfrwt>
<totfact> 0.19219723E+05</totfact>
</mgrwt>
</event>
<event>
 4    1  0.3946801E-002  0.5874090E+02  0.7818608E-02  0.1403193E+00
         -1   -1    0    0  501    0 -0.00000000000E+00  0.00000000000E+00  0.24716482208E+01  0.24716533593E+01  0.50400000000E-02 0.  1.
          1   -1    0    0    0  501  0.00000000000E+00 -0.00000000000E+00 -0.34900700710E+03  0.34900700714E+03  0.50400000000E-02 0.  1.
          2    1    1    2    0  502 -0.28152092832E+02  0.81523963467E+01 -0.18465458773E+03  0.18696608963E+03  0.25500000000E-02 0. -1.
         -2    1    1    2  502    0  0.28152092832E+02 -0.81523963467E+01 -0.16188077115E+03  0.16451257086E+03  0.25500000000E-02 0. -1.
<mgrwt>
<rscale>  0 0.58740904E+02</rscale>
<asrwt>0</asrwt>
<pdfrwt beam="2">  1        1 0.53693347E-01 0.58740904E+02</pdfrwt>
<pdfrwt beam="1">  1       -1 0.38025425E-03 0.58740904E+02</pdfrwt>
<totfact> 0.41303721E+05</totfact>
</mgrwt>
</event>
<event>
 4    1  0.3946801E-002  0.5945673E+02  0.7818608E-02  0.1400126E+00
          1   -1    0    0    0  501  0.00000000000E+00  0.00000000000E+00  0.46836689332E+01  0.46836716449E+01  0.50400000000E-02 0.  1.
         -1   -1    0    0  501    0 -0.00000000000E+00 -0.00000000000E+00 -0.18869295288E+03  0.18869295295E+03  0.50400000000E-02 0.  1.
          2    1    1    2    0  502  0.26760927845E+02  0.87050357863E+01 -0.60834114041E+02  0.67027713259E+02  0.25500000000E-02 0. -1.
         -2    1    1    2  502    0 -0.26760927845E+02 -0.87050357863E+01 -0.12317516991E+03  0.12634891133E+03  0.25500000000E-02 0. -1.
<mgrwt>
<rscale>  0 0.59456727E+02</rscale>
<asrwt>0</asrwt>
<pdfrwt beam="1">  1        1 0.72056481E-03 0.59456727E+02</pdfrwt>
<pdfrwt beam="2">  1       -1 0.29029680E-01 0.59456727E+02</pdfrwt>
<totfact> 0.21122157E+05</totfact>
</mgrwt>
</event>
<event>
 4    1  0.3946801E-002  0.4578792E+02  0.7818608E-02  0.1469482E+00
          1   -1    0    0    0  501  0.00000000000E+00  0.00000000000E+00  0.58438651826E+01  0.58438673560E+01  0.50400000000E-02 0.  1.
         -1   -1    0    0  501    0 -0.00000000000E+00 -0.00000000000E+00 -0.89689477409E+02  0.89689477550E+02  0.50400000000E-02 0.  1.
          2    1    1    2    0  502 -0.84142522761E+00  0.22590354210E+02 -0.34370841467E+02  0.41138629649E+02  0.25500000000E-02 0. -1.
         -2    1    1    2  502    0  0.84142522761E+00 -0.22590354210E+02 -0.49474770759E+02  0.54394715258E+02  0.25500000000E-02 0. -1.
<mgrwt>
<rscale>  0 0.45787917E+02</rscale>
<asrwt>0</asrwt>
<pdfrwt beam="1">  1        1 0.89905642E-03 0.45787917E+02</pdfrwt>
<pdfrwt beam="2">  1       -1 0.13798380E-01 0.45787917E+02</pdfrwt>
<totfact> 0.47032590E+05</totfact>
</mgrwt>
</event>
<event>
 4    1  0.3946801E-002  0.5213734E+02  0.7818608E-02  0.1434143E+00
         -1   -1    0    0  501    0 -0.00000000000E+00  0.00000000000E+00  0.12264181667E+01  0.12264285227E+01  0.50400000000E-02 0. -1.
          1   -1    0    0    0  501  0.00000000000E+00 -0.00000000000E+00 -0.55411162656E+03  0.55411162659E+03  0.50400000000E-02 0. -1.
          2    1    1    2    0  502 -0.16373416671E+02 -0.17705214322E+02 -0.17099217726E+03  0.17268435968E+03  0.25500000000E-02 0.  1.
         -2    1    1    2  502    0  0.16373416671E+02  0.17705214322E+02 -0.38189303114E+03  0.38265369543E+03  0.25500000000E-02 0.  1.
<mgrwt>
<rscale>  0 0.52137336E+02</rscale>
<asrwt>0</asrwt>
<pdfrwt beam="2">  1        1 0.85247744E-01 0.52137336E+02</pdfrwt>
<pdfrwt beam="1">  1       -1 0.18868096E-03 0.52137336E+02</pdfrwt>
<totfact> 0.59285688E+05</totfact>
</mgrwt>
</event>
<event>
 4    1  0.3946801E-002  0.4782116E+02  0.7818608E-02  0.1457461E+00
         -1   -1    0    0  501    0 -0.00000000000E+00  0.00000000000E+00  0.85052938788E+01  0.85052953721E+01  0.50400000000E-02 0. -1.
          1   -1    0    0    0  501  0.00000000000E+00 -0.00000000000E+00 -0.67218804158E+02  0.67218804347E+02  0.50400000000E-02 0. -1.
          2    1    1    2    0  502 -0.23573314329E+02 -0.69291875760E+00 -0.35597868465E+02  0.42701165448E+02  0.25500000000E-02 0.  1.
         -2    1    1    2  502    0  0.23573314329E+02  0.69291875760E+00 -0.23115641814E+02  0.33022934271E+02  0.25500000000E-02 0.  1.
<mgrwt>
<rscale>  0 0.47821156E+02</rscale>
<asrwt>0</asrwt>
<pdfrwt beam="2">  1        1 0.10341354E-01 0.47821156E+02</pdfrwt>
<pdfrwt beam="1">  1       -1 0.13085069E-02 0.47821156E+02</pdfrwt>
<totfact> 0.53839137E+05</totfact>
</mgrwt>
</event>
<event>
 4    1  0.3946801E-002  0.8571951E+02  0.7818608E-02  0.1313562E+00
          1   -1    0    0    0  501  0.00000000000E+00  0.00000000000E+00  0.35077169130E+02  0.35077169493E+02  0.50400000000E-02 0.  1.
         -1   -1    0    0  501    0 -0.00000000000E+00 -0.00000000000E+00 -0.52369062308E+02  0.52369062550E+02  0.50400000000E-02 0.  1.
          2    1    1    2    0  502  0.96004307757E+01  0.39877457882E+02 -0.21329357419E+02  0.46231173602E+02  0.25500000000E-02 0.  1.
         -2    1    1    2  502    0 -0.96004307757E+01 -0.39877457882E+02  0.40374642415E+01  0.41215058440E+02  0.25500000000E-02 0.  1.
<mgrwt>
<rscale>  0 0.85719507E+02</rscale>
<asrwt>0</asrwt>
<pdfrwt beam="1">  1        1 0.53964876E-02 0.85719507E+02</pdfrwt>
<pdfrwt beam="2">  1       -1 0.80567789E-02 0.85719507E+02</pdfrwt>
<totfact> 0.10579032E+05</totfact>
</mgrwt>
</event>
<event>
 4    1  0.3946801E-002  0.4286985E+02  0.7818608E-02  0.1488095E+00
          1   -1    0    0    0  501  0.00000000000E+00  0.00000000000E+00  0.12351860902E+02  0.12351861930E+02  0.50400000000E-02 0.  1.
         -1   -1    0    0  501    0 -0.00000000000E+00 -0.00000000000E+00 -0.37197300446E+02  0.37197300788E+02  0.50400000000E-02 0.  1.
          2    1    1    2    0  502  0.19172037032E+02 -0.88202967247E+01 -0.80840212669E+01  0.22599027515E+02  0.25500000000E-02 0.  1.
         -2    1    1    2  502    0 -0.19172037032E+02  0.88202967247E+01 -0.16761418277E+02  0.26950135203E+02  0.25500000000E-02 0.  1.
<mgrwt>
<rscale>  0 0.42869846E+02</rscale>
<asrwt>0</asrwt>
<pdfrwt beam="1">  1        1 0.19002864E-02 0.42869846E+02</pdfrwt>
<pdfrwt beam="2">  1       -1 0.57226617E-02 0.42869846E+02</pdfrwt>
<totfact> 0.61273375E+05</totfact>
</mgrwt>
</event>
<event>
 4    1  0.3946801E-002  0.6439519E+02  0.7818608E-02  0.1380261E+00
          1   -1    0    0    0  501  0.00000000000E+00  0.00000000000E+00  0.30326420336E+02  0.30326420755E+02  0.50400000000E-02 0. -1.
         -1   -1    0    0  501    0 -0.00000000000E+00 -0.00000000000E+00 -0.34184218370E+02  0.34184218742E+02  0.50400000000E-02 0. -1.
          2    1    1    2    0  502  0.18201523784E+02  0.25359009358E+02 -0.98367306406E+01  0.32728215654E+02  0.25500000000E-02 0. -1.
         -2    1    1    2  502    0 -0.18201523784E+02 -0.25359009358E+02  0.59789326065E+01  0.31782423843E+02  0.25500000000E-02 0. -1.
<mgrwt>
<rscale>  0 0.64395186E+02</rscale>
<asrwt>0</asrwt>
<pdfrwt beam="1">  1        1 0.46656032E-02 0.64395186E+02</pdfrwt>
<pdfrwt beam="2">  1       -1 0.52591106E-02 0.64395186E+02</pdfrwt>
<totfact> 0.22820467E+05</totfact>
</mgrwt>
</event>
<event>
 4    1  0.3946801E-002  0.5033750E+02  0.7818608E-02  0.1443530E+00
         -1   -1    0    0  501    0 -0.00000000000E+00  0.00000000000E+00  0.23931907681E+03  0.23931907686E+03  0.50400000000E-02 0. -1.
          1   -1    0    0    0  501  0.00000000000E+00 -0.00000000000E+00 -0.26469493806E+01  0.26469541788E+01  0.50400000000E-02 0. -1.
          2    1    1    2    0  502  0.11220277179E+02  0.17213326235E+02  0.18820506963E+03  0.18932337801E+03  0.25500000000E-02 0.  1.
         -2    1    1    2  502    0 -0.11220277179E+02 -0.17213326235E+02  0.48467057798E+02  0.52642653031E+02  0.25500000000E-02 0.  1.
<mgrwt>
<rscale>  0 0.50337504E+02</rscale>
<asrwt>0</asrwt>
<pdfrwt beam="2">  1        1 0.40722323E-03 0.50337504E+02</pdfrwt>
<pdfrwt beam="1">  1       -1 0.36818332E-01 0.50337504E+02</pdfrwt>
<totfact> 0.29882116E+05</totfact>
</mgrwt>
</event>
<event>
 4    1  0.3946801E-002  0.5227031E+02  0.7818608E-02  0.1433467E+00
          1   -1    0    0    0  501  0.00000000000E+00  0.00000000000E+00  0.14194151790E+01  0.14194241268E+01  0.50400000000E-02 0.  1.
         -1   -1    0    0  501    0 -0.00000000000E+00 -0.00000000000E+00 -0.48121515421E+03  0.48121515424E+03  0.50400000000E-02 0.  1.
          2    1    1    2    0  502 -0.22745201278E+02 -0.99474890564E+01 -0.16446033308E+03  0.16632347364E+03  0.25500000000E-02 0. -1.
         -2    1    1    2  502    0  0.22745201278E+02  0.99474890564E+01 -0.31533540595E+03  0.31631110473E+03  0.25500000000E-02 0. -1.
<mgrwt>
<rscale>  0 0.52270307E+02</rscale>
<asrwt>0</asrwt>
<pdfrwt beam="1">  1        1 0.21837264E-03 0.52270307E+02</pdfrwt>
<pdfrwt beam="2">  1       -1 0.74032971E-01 0.52270307E+02</pdfrwt>
<totfact> 0.19995551E+05</totfact>
</mgrwt>
</event>
<event>
 4    1  0.3946801E-002  0.4986156E+02  0.7818608E-02  0.1446090E+00
          1   -1    0    0    0  501  0.00000000000E+00  0.00000000000E+00  0.48938943654E+03  0.48938943657E+03  0.50400000000E-02 0.  1.
         -1   -1    0    0  501    0 -0.00000000000E+00 -0.00000000000E+00 -0.12700343211E+01  0.12700443214E+01  0.50400000000E-02 0.  1.
          2    1    1    2    0  502 -0.21834738833E+02  0.16815807117E+01  0.36130562976E+03  0.36196870256E+03  0.25500000000E-02 0. -1.
         -2    1    1    2  502    0  0.21834738833E+02 -0.16815807117E+01  0.12681377247E+03  0.12869077833E+03  0.25500000000E-02 0. -1.
<mgrwt>
<rscale>  0 0.49861562E+02</rscale>
<asrwt>0</asrwt>
<pdfrwt beam="1">  1        1 0.75290784E-01 0.49861562E+02</pdfrwt>
<pdfrwt beam="2">  1       -1 0.19539040E-03 0.49861562E+02</pdfrwt>
<totfact> 0.65455644E+05</totfact>
</mgrwt>
</event>
<event>
 4    1  0.3946801E-002  0.6162407E+02  0.7818608E-02  0.1391140E+00
         -1   -1    0    0  501    0 -0.00000000000E+00  0.00000000000E+00  0.16707625824E+03  0.16707625832E+03  0.50400000000E-02 0. -1.
          1   -1    0    0    0  501  0.00000000000E+00 -0.00000000000E+00 -0.56823225402E+01  0.56823247754E+01  0.50400000000E-02 0. -1.
          2    1    1    2    0  502 -0.10209947203E+02  0.21742180524E+02  0.26596201764E+02  0.35837457926E+02  0.25500000000E-02 0. -1.
         -2    1    1    2  502    0  0.10209947203E+02 -0.21742180524E+02  0.13479773394E+03  0.13692112517E+03  0.25500000000E-02 0. -1.
<mgrwt>
<rscale>  0 0.61624066E+02</rscale>
<asrwt>0</asrwt>
<pdfrwt beam="2">  1        1 0.87420347E-03 0.61624066E+02</pdfrwt>
<pdfrwt beam="1">  1       -1 0.25704045E-01 0.61624066E+02</pdfrwt>
<totfact> 0.19904420E+05</totfact>
</mgrwt>
</event>
<event>
 4    1  0.3946801E-002  0.6384409E+02  0.7818608E-02  0.1382373E+00
          1   -1    0    0    0  501  0.00000000000E+00  0.00000000000E+00  0.10202990603E+03  0.10202990616E+03  0.50400000000E-02 0. -1.
         -1   -1    0    0  501    0 -0.00000000000E+00 -0.00000000000E+00 -0.99874329279E+01  0.99874341995E+01  0.50400000000E-02 0. -1.
          2    1    1    2    0  502 -0.27320200100E+02 -0.90328167007E+01  0.21770920584E+02  0.36082656507E+02  0.25500000000E-02 0. -1.
         -2    1    1    2  502    0  0.27320200100E+02  0.90328167007E+01  0.70271552521E+02  0.75934683849E+02  0.25500000000E-02 0. -1.
<mgrwt>
<rscale>  0 0.63844089E+02</rscale>
<asrwt>0</asrwt>
<pdfrwt beam="1">  1        1 0.15696910E-01 0.63844089E+02</pdfrwt>
<pdfrwt beam="2">  1       -1 0.15365281E-02 0.63844089E+02</pdfrwt>
<totfact> 0.27061899E+05</totfact>
</mgrwt>
</event>
<event>
 4    1  0.3946801E-002  0.8115551E+02  0.7818608E-02  0.1325804E+00
         -1   -1    0    0  501    0 -0.00000000000E+00  0.00000000000E+00  0.12594967718E+02  0.12594968727E+02  0.50400000000E-02 0. -1.
          1   -1    0    0    0  501  0.00000000000E+00 -0.00000000000E+00 -0.13073110398E+03  0.13073110407E+03  0.50400000000E-02 0. -1.
          2    1    1    2    0  502  0.29985930008E+02 -0.26162177916E+02 -0.45057182545E+02  0.60114601031E+02  0.25500000000E-02 0. -1.
         -2    1    1    2  502    0 -0.29985930008E+02  0.26162177916E+02 -0.73078953714E+02  0.83211471770E+02  0.25500000000E-02 0. -1.
<mgrwt>
<rscale>  0 0.81155508E+02</rscale>
<asrwt>0</asrwt>
<pdfrwt beam="2">  1        1 0.20112477E-01 0.81155508E+02</pdfrwt>
<pdfrwt beam="1">  1       -1 0.19376875E-02 0.81155508E+02</pdfrwt>
<totfact> 0.14953589E+05</totfact>
</mgrwt>
</event>
<event>
 4    1  0.3946801E-002  0.5222288E+02  0.7818608E-02  0.1433708E+00
          1   -1    0    0    0  501  0.00000000000E+00  0.00000000000E+00  0.22742144750E+01  0.22742200597E+01  0.50400000000E-02 0. -1.
         -1   -1    0    0  501    0 -0.00000000000E+00 -0.00000000000E+00 -0.29979863421E+03  0.29979863425E+03  0.50400000000E-02 0. -1.
          2    1    1    2    0  502 -0.15530601520E+02  0.20840451833E+02 -0.16326134364E+03  0.16531724154E+03  0.25500000000E-02 0.  1.
         -2    1    1    2  502    0  0.15530601520E+02 -0.20840451833E+02 -0.13426307609E+03  0.13675561277E+03  0.25500000000E-02 0.  1.
<mgrwt>
<rscale>  0 0.52222878E+02</rscale>
<asrwt>0</asrwt>
<pdfrwt beam="1">  1        1 0.34987982E-03 0.52222878E+02</pdfrwt>
<pdfrwt beam="2">  1       -1 0.46122836E-01 0.52222878E+02</pdfrwt>
<totfact> 0.25184160E+05</totfact>
</mgrwt>
</event>
<event>
 4    1  0.3946801E-002  0.7604799E+02  0.7818608E-02  0.1340656E+00
          1   -1    0    0    0  501  0.00000000000E+00  0.00000000000E+00  0.41052858769E+03  0.41052858772E+03  0.50400000000E-02 0.  1.
         -1   -1    0    0  501    0 -0.00000000000E+00 -0.00000000000E+00 -0.35218582135E+01  0.35218618198E+01  0.50400000000E-02 0.  1.
          2    1    1    2    0  502 -0.25966471293E+02  0.14806909259E+01  0.35452331050E+03  0.35547605794E+03  0.25500000000E-02 0.  1.
         -2    1    1    2  502    0  0.25966471293E+02 -0.14806909259E+01  0.52483418982E+02  0.58574391602E+02  0.25500000000E-02 0.  1.
<mgrwt>
<rscale>  0 0.76047991E+02</rscale>
<asrwt>0</asrwt>
<pdfrwt beam="1">  1        1 0.63158255E-01 0.76047991E+02</pdfrwt>
<pdfrwt beam="2">  1       -1 0.54182453E-03 0.76047991E+02</pdfrwt>
<totfact> 0.21830007E+05</totfact>
</mgrwt>
</event>
<event>
 4    1  0.3946801E-002  0.9705444E+02  0.7818608E-02  0.1286615E+00
         -1   -1    0    0  501    0 -0.00000000000E+00  0.00000000000E+00  0.41348840344E+01  0.41348871060E+01  0.50400000000E-02 0.  1.
          1   -1    0    0    0  501  0.00000000000E+00 -0.00000000000E+00 -0.56951785648E+03  0.56951785650E+03  0.50400000000E-02 0.  1.
          2    1    1    2    0  502 -0.35003988158E+02 -0.32110886687E+02 -0.34135367446E+03  0.34464288663E+03  0.25500000000E-02 0. -1.
         -2    1    1    2  502    0  0.35003988158E+02  0.32110886687E+02 -0.22402929798E+03  0.22900985698E+03  0.25500000000E-02 0. -1.
<mgrwt>
<rscale>  0 0.97054442E+02</rscale>
<asrwt>0</asrwt>
<pdfrwt beam="2">  1        1 0.87618070E-01 0.97054442E+02</pdfrwt>
<pdfrwt beam="1">  1       -1 0.63613669E-03 0.97054442E+02</pdfrwt>
<totfact> 0.11950541E+05</totfact>
</mgrwt>
</event>
<event>
 4    1  0.3946801E-002  0.4820722E+02  0.7818608E-02  0.1455258E+00
          1   -1    0    0    0  501  0.00000000000E+00  0.00000000000E+00  0.14092026530E+04  0.14092026530E+04  0.50400000000E-02 0. -1.
         -1   -1    0    0  501    0 -0.00000000000E+00 -0.00000000000E+00 -0.41226307142E+00  0.41229387778E+00  0.50400000000E-02 0. -1.
          2    1    1    2    0  502 -0.20148576673E+02 -0.78958116767E+01  0.39400920378E+03  0.39460304313E+03  0.25500000000E-02 0.  1.
         -2    1    1    2  502    0  0.20148576673E+02  0.78958116767E+01  0.10147811861E+04  0.10150119037E+04  0.25500000000E-02 0.  1.
<mgrwt>
<rscale>  0 0.48207217E+02</rscale>
<asrwt>0</asrwt>
<pdfrwt beam="1">  1        1 0.21679682E+00 0.48207217E+02</pdfrwt>
<pdfrwt beam="2">  1       -1 0.63428509E-04 0.48207217E+02</pdfrwt>
<totfact> 0.59412591E+05</totfact>
</mgrwt>
</event>
<event>
 4    1  0.3946801E-002  0.5800518E+02  0.7818608E-02  0.1406399E+00
          1   -1    0    0    0  501  0.00000000000E+00  0.00000000000E+00  0.37900655864E+03  0.37900655867E+03  0.50400000000E-02 0.  1.
         -1   -1    0    0  501    0 -0.00000000000E+00 -0.00000000000E+00 -0.22193521348E+01  0.22193578576E+01  0.50400000000E-02 0.  1.
          2    1    1    2    0  502 -0.35951302265E+01  0.27221655773E+02  0.12701876668E+03  0.12995272448E+03  0.25500000000E-02 0.  1.
         -2    1    1    2  502    0  0.35951302265E+01 -0.27221655773E+02  0.24976843982E+03  0.25127319205E+03  0.25500000000E-02 0.  1.
<mgrwt>
<rscale>  0 0.58005176E+02</rscale>
<asrwt>0</asrwt>
<pdfrwt beam="1">  1        1 0.58308683E-01 0.58005176E+02</pdfrwt>
<pdfrwt beam="2">  1       -1 0.34143934E-03 0.58005176E+02</pdfrwt>
<totfact> 0.43224639E+05</totfact>
</mgrwt>
</event>
<event>
 4    1  0.3946801E-002  0.5648131E+02  0.7818608E-02  0.1413221E+00
          1   -1    0    0    0  501  0.00000000000E+00  0.00000000000E+00  0.67626342867E+03  0.67626342869E+03  0.50400000000E-02 0. -1.
         -1   -1    0    0  501    0 -0.00000000000E+00 -0.00000000000E+00 -0.11793199187E+01  0.11793306882E+01  0.50400000000E-02 0. -1.
          2    1    1    2    0  502 -0.17492878691E+02 -0.15437780747E+02  0.14668546501E+03  0.14852929520E+03  0.25500000000E-02 0. -1.
         -2    1    1    2  502    0  0.17492878691E+02  0.15437780747E+02  0.52839864374E+03  0.52891346418E+03  0.25500000000E-02 0. -1.
<mgrwt>
<rscale>  0 0.56481310E+02</rscale>
<asrwt>0</asrwt>
<pdfrwt beam="1">  1        1 0.10404071E+00 0.56481310E+02</pdfrwt>
<pdfrwt beam="2">  1       -1 0.18143435E-03 0.56481310E+02</pdfrwt>
<totfact> 0.48948283E+05</totfact>
</mgrwt>
</event>
<event>
 4    1  0.3946801E-002  0.4289638E+02  0.7818608E-02  0.1487918E+00
          1   -1    0    0    0  501  0.00000000000E+00  0.00000000000E+00  0.57013343640E+02  0.57013343863E+02  0.50400000000E-02 0.  1.
         -1   -1    0    0  501    0 -0.00000000000E+00 -0.00000000000E+00 -0.80687199574E+01  0.80687215315E+01  0.50400000000E-02 0.  1.
          2    1    1    2    0  502  0.13469849683E+02 -0.16374446869E+02  0.19564153818E+02  0.28849878368E+02  0.25500000000E-02 0. -1.
         -2    1    1    2  502    0 -0.13469849683E+02  0.16374446869E+02  0.29380469865E+02  0.36232187026E+02  0.25500000000E-02 0. -1.
<mgrwt>
<rscale>  0 0.42896376E+02</rscale>
<asrwt>0</asrwt>
<pdfrwt beam="1">  1        1 0.87712841E-02 0.42896376E+02</pdfrwt>
<pdfrwt beam="2">  1       -1 0.12413416E-02 0.42896376E+02</pdfrwt>
<totfact> 0.69535734E+05</totfact>
</mgrwt>
</event>
<event>
 4    1  0.3946801E-002  0.5604867E+02  0.7818608E-02  0.1415204E+00
          1   -1    0    0    0  501  0.00000000000E+00  0.00000000000E+00  0.75588546318E+02  0.75588546486E+02  0.50400000000E-02 0.  1.
         -1   -1    0    0  501    0 -0.00000000000E+00 -0.00000000000E+00 -0.10389978956E+02  0.10389980178E+02  0.50400000000E-02 0.  1.
          2    1    1    2    0  502  0.55742078514E+01 -0.27452434317E+02  0.33841268274E+02  0.43931075425E+02  0.25500000000E-02 0.  1.
         -2    1    1    2  502    0 -0.55742078514E+01  0.27452434317E+02  0.31357299088E+02  0.42047451239E+02  0.25500000000E-02 0.  1.
<mgrwt>
<rscale>  0 0.56048674E+02</rscale>
<asrwt>0</asrwt>
<pdfrwt beam="1">  1        1 0.11629007E-01 0.56048674E+02</pdfrwt>
<pdfrwt beam="2">  1       -1 0.15984584E-02 0.56048674E+02</pdfrwt>
<totfact> 0.36413567E+05</totfact>
</mgrwt>
</event>
<event>
 4    1  0.3946801E-002  0.6435439E+02  0.7818608E-02  0.1380417E+00
          1   -1    0    0    0  501  0.00000000000E+00  0.00000000000E+00  0.15309876646E+03  0.15309876654E+03  0.50400000000E-02 0.  1.
         -1   -1    0    0  501    0 -0.00000000000E+00 -0.00000000000E+00 -0.67627693326E+01  0.67627712106E+01  0.50400000000E-02 0.  1.
          2    1    1    2    0  502  0.21220319813E+01  0.24627285312E+02  0.21995584406E+02  0.33087942538E+02  0.25500000000E-02 0.  1.
         -2    1    1    2  502    0 -0.21220319813E+01 -0.24627285312E+02  0.12434041272E+03  0.12677359521E+03  0.25500000000E-02 0.  1.
<mgrwt>
<rscale>  0 0.64354388E+02</rscale>
<asrwt>0</asrwt>
<pdfrwt beam="1">  1        1 0.23553653E-01 0.64354388E+02</pdfrwt>
<pdfrwt beam="2">  1       -1 0.10404263E-02 0.64354388E+02</pdfrwt>
<totfact> 0.28248992E+05</totfact>
</mgrwt>
</event>
<event>
 4    1  0.3946801E-002  0.1195175E+03  0.7818608E-02  0.1243895E+00
         -1   -1    0    0  501    0 -0.00000000000E+00  0.00000000000E+00  0.10267004427E+02  0.10267005664E+02  0.50400000000E-02 0.  1.
          1   -1    0    0    0  501  0.00000000000E+00 -0.00000000000E+00 -0.34782402065E+03  0.34782402069E+03  0.50400000000E-02 0.  1.
          2    1    1    2    0  502 -0.56145843118E+01  0.46586344702E+02 -0.57909271234E+02  0.74533849834E+02  0.25500000000E-02 0. -1.
         -2    1    1    2  502    0  0.56145843118E+01 -0.46586344702E+02 -0.27964774499E+03  0.28355717652E+03  0.25500000000E-02 0. -1.
<mgrwt>
<rscale>  0 0.11951755E+03</rscale>
<asrwt>0</asrwt>
<pdfrwt beam="2">  1        1 0.53511379E-01 0.11951755E+03</pdfrwt>
<pdfrwt beam="1">  1       -1 0.15795395E-02 0.11951755E+03</pdfrwt>
<totfact> 0.63453676E+04</totfact>
</mgrwt>
</event>
<event>
 4    1  0.3946801E-002  0.1037238E+03  0.7818608E-02  0.1272655E+00
          1   -1    0    0    0  501  0.00000000000E+00  0.00000000000E+00  0.39391722452E+03  0.39391722455E+03  0.50400000000E-02 0.  1.
         -1   -1    0    0  501    0 -0.00000000000E+00 -0.00000000000E+00 -0.68279763232E+01  0.68279781833E+01  0.50400000000E-02 0.  1.
          2    1    1    2    0  502 -0.17181135823E+02 -0.33306080738E+02  0.33205118480E+03  0.33415935686E+03  0.25500000000E-02 0.  1.
         -2    1    1    2  502    0  0.17181135823E+02  0.33306080738E+02  0.55038063399E+02  0.66585845880E+02  0.25500000000E-02 0.  1.
<mgrwt>
<rscale>  0 0.10372382E+03</rscale>
<asrwt>0</asrwt>
<pdfrwt beam="1">  1        1 0.60602650E-01 0.10372382E+03</pdfrwt>
<pdfrwt beam="2">  1       -1 0.10504580E-02 0.10372382E+03</pdfrwt>
<totfact> 0.95318455E+04</totfact>
</mgrwt>
</event>
<event>
 4    1  0.3946801E-002  0.5403217E+02  0.7818608E-02  0.1424732E+00
         -1   -1    0    0  501    0 -0.00000000000E+00  0.00000000000E+00  0.33840096717E+02  0.33840097092E+02  0.50400000000E-02 0.  1.
          1   -1    0    0    0  501  0.00000000000E+00 -0.00000000000E+00 -0.21568163784E+02  0.21568164373E+02  0.50400000000E-02 0.  1.
          2    1    1    2    0  502 -0.24794673057E+02  0.48423806497E+01 -0.36809451252E+01  0.25529861454E+02  0.25500000000E-02 0.  1.
         -2    1    1    2  502    0  0.24794673057E+02 -0.48423806497E+01  0.15952878059E+02  0.29878400011E+02  0.25500000000E-02 0.  1.
<mgrwt>
<rscale>  0 0.54032167E+02</rscale>
<asrwt>0</asrwt>
<pdfrwt beam="2">  1        1 0.33181791E-02 0.54032167E+02</pdfrwt>
<pdfrwt beam="1">  1       -1 0.52061688E-02 0.54032167E+02</pdfrwt>
<totfact> 0.35182334E+05</totfact>
</mgrwt>
</event>
<event>
 4    1  0.3946801E-002  0.4955593E+02  0.7818608E-02  0.1447752E+00
          1   -1    0    0    0  501  0.00000000000E+00  0.00000000000E+00  0.92926967971E+01  0.92926981638E+01  0.50400000000E-02 0. -1.
         -1   -1    0    0  501    0 -0.00000000000E+00 -0.00000000000E+00 -0.66067743364E+02  0.66067743556E+02  0.50400000000E-02 0. -1.
          2    1    1    2    0  502  0.81768198906E+01 -0.22501457510E+02 -0.38097688076E+02  0.44995664423E+02  0.25500000000E-02 0. -1.
         -2    1    1    2  502    0 -0.81768198906E+01  0.22501457510E+02 -0.18677358491E+02  0.30364777297E+02  0.25500000000E-02 0. -1.
<mgrwt>
<rscale>  0 0.49555931E+02</rscale>
<asrwt>0</asrwt>
<pdfrwt beam="1">  1        1 0.14296458E-02 0.49555931E+02</pdfrwt>
<pdfrwt beam="2">  1       -1 0.10164268E-01 0.49555931E+02</pdfrwt>
<totfact> 0.40415734E+05</totfact>
</mgrwt>
</event>
<event>
 4    1  0.3946801E-002  0.5683146E+02  0.7818608E-02  0.1411631E+00
          1   -1    0    0    0  501  0.00000000000E+00  0.00000000000E+00  0.71259467997E+03  0.71259467999E+03  0.50400000000E-02 0.  1.
         -1   -1    0    0  501    0 -0.00000000000E+00 -0.00000000000E+00 -0.11331123395E+01  0.11331235482E+01  0.50400000000E-02 0.  1.
          2    1    1    2    0  502  0.18397472963E+02 -0.20589361088E+02  0.27142379657E+03  0.27282460694E+03  0.25500000000E-02 0.  1.
         -2    1    1    2  502    0 -0.18397472963E+02  0.20589361088E+02  0.44003777106E+03  0.44090319660E+03  0.25500000000E-02 0.  1.
<mgrwt>
<rscale>  0 0.56831464E+02</rscale>
<asrwt>0</asrwt>
<pdfrwt beam="1">  1        1 0.10962972E+00 0.56831464E+02</pdfrwt>
<pdfrwt beam="2">  1       -1 0.17432621E-03 0.56831464E+02</pdfrwt>
<totfact> 0.48170329E+05</totfact>
</mgrwt>
</event>
<event>
 4    1  0.3946801E-002  0.4990737E+02  0.7818608E-02  0.1445842E+00
          1   -1    0    0    0  501  0.00000000000E+00  0.00000000000E+00  0.20710550208E+03  0.20710550215E+03  0.50400000000E-02 0.  1.
         -1   -1    0    0  501    0 -0.00000000000E+00 -0.00000000000E+00 -0.30066125418E+01  0.30066167660E+01  0.50400000000E-02 0.  1.
          2    1    1    2    0  502 -0.15378271007E+02  0.17282405952E+02  0.62665034647E+02  0.66798797508E+02  0.25500000000E-02 0.  1.
         -2    1    1    2  502    0  0.15378271007E+02 -0.17282405952E+02  0.14143385490E+03  0.14331332140E+03  0.25500000000E-02 0.  1.
<mgrwt>
<rscale>  0 0.49907372E+02</rscale>
<asrwt>0</asrwt>
<pdfrwt beam="1">  1        1 0.31862394E-01 0.49907372E+02</pdfrwt>
<pdfrwt beam="2">  1       -1 0.46255598E-03 0.49907372E+02</pdfrwt>
<totfact> 0.56810580E+05</totfact>
</mgrwt>
</event>
<event>
 4    1  0.3946801E-002  0.4775119E+02  0.7818608E-02  0.1457863E+00
          1   -1    0    0    0  501  0.00000000000E+00  0.00000000000E+00  0.84238559075E+02  0.84238559225E+02  0.50400000000E-02 0. -1.
         -1   -1    0    0  501    0 -0.00000000000E+00 -0.00000000000E+00 -0.67670205104E+01  0.67670223873E+01  0.50400000000E-02 0. -1.
          2    1    1    2    0  502  0.44702070729E+01 -0.21370848717E+02  0.20322250029E+02  0.29827668010E+02  0.25500000000E-02 0.  1.
         -2    1    1    2  502    0 -0.44702070729E+01  0.21370848717E+02  0.57149288535E+02  0.61177913602E+02  0.25500000000E-02 0.  1.
<mgrwt>
<rscale>  0 0.47751195E+02</rscale>
<asrwt>0</asrwt>
<pdfrwt beam="1">  1        1 0.12959777E-01 0.47751195E+02</pdfrwt>
<pdfrwt beam="2">  1       -1 0.10410804E-02 0.47751195E+02</pdfrwt>
<totfact> 0.55466715E+05</totfact>
</mgrwt>
</event>
<event>
 4    1  0.3946801E-002  0.9771290E+02  0.7818608E-02  0.1285180E+00
          1   -1    0    0    0  501  0.00000000000E+00  0.00000000000E+00  0.20813261640E+03  0.20813261646E+03  0.50400000000E-02 0.  1.
         -1   -1    0    0  501    0 -0.00000000000E+00 -0.00000000000E+00 -0.11468421154E+02  0.11468422261E+02  0.50400000000E-02 0.  1.
          2    1    1    2    0  502  0.39893674580E+02 -0.11681544910E+02  0.40639309103E+02  0.58133615180E+02  0.25500000000E-02 0.  1.
         -2    1    1    2  502    0 -0.39893674580E+02  0.11681544910E+02  0.15602488614E+03  0.16146742354E+03  0.25500000000E-02 0.  1.
<mgrwt>
<rscale>  0 0.97712898E+02</rscale>
<asrwt>0</asrwt>
<pdfrwt beam="1">  1        1 0.32020401E-01 0.97712898E+02</pdfrwt>
<pdfrwt beam="2">  1       -1 0.17643726E-02 0.97712898E+02</pdfrwt>
<totfact> 0.99038256E+04</totfact>
</mgrwt>
</event>
<event>
 4    1  0.3946801E-002  0.7304847E+02  0.7818608E-02  0.1350023E+00
         -1   -1    0    0  501    0 -0.00000000000E+00  0.00000000000E+00  0.10538875565E+03  0.10538875577E+03  0.50400000000E-02 0.  1.
          1   -1    0    0    0  501  0.00000000000E+00 -0.00000000000E+00 -0.12658082325E+02  0.12658083328E+02  0.50400000000E-02 0.  1.
          2    1    1    2    0  502 -0.20367316551E+02 -0.20573137623E+02  0.82353274870E+02  0.87293433106E+02  0.25500000000E-02 0.  1.
         -2    1    1    2  502    0  0.20367316551E+02  0.20573137623E+02  0.10377398459E+02  0.30753405997E+02  0.25500000000E-02 0.  1.
<mgrwt>
<rscale>  0 0.73048466E+02</rscale>
<asrwt>0</asrwt>
<pdfrwt beam="2">  1        1 0.19473973E-02 0.73048466E+02</pdfrwt>
<pdfrwt beam="1">  1       -1 0.16213655E-01 0.73048466E+02</pdfrwt>
<totfact> 0.14225427E+05</totfact>
</mgrwt>
</event>
<event>
 4    1  0.3946801E-002  0.5677030E+02  0.7818608E-02  0.1411908E+00
         -1   -1    0    0  501    0 -0.00000000000E+00  0.00000000000E+00  0.12851897196E+01  0.12851996020E+01  0.50400000000E-02 0. -1.
          1   -1    0    0    0  501  0.00000000000E+00 -0.00000000000E+00 -0.62692193437E+03  0.62692193439E+03  0.50400000000E-02 0. -1.
          2    1    1    2    0  502 -0.20321256120E+02 -0.17208735347E+02 -0.20404533014E+03  0.20577558354E+03  0.25500000000E-02 0. -1.
         -2    1    1    2  502    0  0.20321256120E+02  0.17208735347E+02 -0.42159141451E+03  0.42243155045E+03  0.25500000000E-02 0. -1.
<mgrwt>
<rscale>  0 0.56770300E+02</rscale>
<asrwt>0</asrwt>
<pdfrwt beam="2">  1        1 0.96449285E-01 0.56770300E+02</pdfrwt>
<pdfrwt beam="1">  1       -1 0.19772276E-03 0.56770300E+02</pdfrwt>
<totfact> 0.48248732E+05</totfact>
</mgrwt>
</event>
<event>
 4    1  0.3946801E-002  0.1179146E+03  0.7818608E-02  0.1246577E+00
          1   -1    0    0    0  501  0.00000000000E+00  0.00000000000E+00  0.61026324753E+03  0.61026324755E+03  0.50400000000E-02 0.  1.
         -1   -1    0    0  501    0 -0.00000000000E+00 -0.00000000000E+00 -0.56958448404E+01  0.56958470702E+01  0.50400000000E-02 0.  1.
          2    1    1    2    0  502 -0.23013976590E+02 -0.54244877214E+02  0.29207977062E+03  0.29796433048E+03  0.25500000000E-02 0. -1.
         -2    1    1    2  502    0  0.23013976590E+02  0.54244877214E+02  0.31248763207E+03  0.31799476415E+03  0.25500000000E-02 0. -1.
<mgrwt>
<rscale>  0 0.11791464E+03</rscale>
<asrwt>0</asrwt>
<pdfrwt beam="1">  1        1 0.93886639E-01 0.11791464E+03</pdfrwt>
<pdfrwt beam="2">  1       -1 0.87628413E-03 0.11791464E+03</pdfrwt>
<totfact> 0.71145788E+04</totfact>
</mgrwt>
</event>
<event>
 4    1  0.3946801E-002  0.6046343E+02  0.7818608E-02  0.1395897E+00
          1   -1    0    0    0  501  0.00000000000E+00  0.00000000000E+00  0.64344874352E+03  0.64344874354E+03  0.50400000000E-02 0.  1.
         -1   -1    0    0  501    0 -0.00000000000E+00 -0.00000000000E+00 -0.14203987450E+01  0.14204076867E+01  0.50400000000E-02 0.  1.
          2    1    1    2    0  502 -0.30202213296E+01  0.21913344765E+02  0.54079478635E+03  0.54124700218E+03  0.25500000000E-02 0.  1.
         -2    1    1    2  502    0  0.30202213296E+01 -0.21913344765E+02  0.10123355842E+03  0.10362214904E+03  0.25500000000E-02 0.  1.
<mgrwt>
<rscale>  0 0.60463433E+02</rscale>
<asrwt>0</asrwt>
<pdfrwt beam="1">  1        1 0.98992023E-01 0.60463433E+02</pdfrwt>
<pdfrwt beam="2">  1       -1 0.21852378E-03 0.60463433E+02</pdfrwt>
<totfact> 0.41180664E+05</totfact>
</mgrwt>
</event>
<event>
 4    1  0.3946801E-002  0.4852088E+02  0.7818608E-02  0.1453487E+00
         -1   -1    0    0  501    0 -0.00000000000E+00  0.00000000000E+00  0.18749878680E+01  0.18749946418E+01  0.50400000000E-02 0.  1.
          1   -1    0    0    0  501  0.00000000000E+00 -0.00000000000E+00 -0.31390486409E+03  0.31390486413E+03  0.50400000000E-02 0.  1.
          2    1    1    2    0  502 -0.20872859001E+02 -0.97114454462E+01 -0.10620314336E+03  0.10866966495E+03  0.25500000000E-02 0.  1.
         -2    1    1    2  502    0  0.20872859001E+02  0.97114454462E+01 -0.20582673286E+03  0.20711019382E+03  0.25500000000E-02 0.  1.
<mgrwt>
<rscale>  0 0.48520877E+02</rscale>
<asrwt>0</asrwt>
<pdfrwt beam="2">  1        1 0.48293015E-01 0.48520877E+02</pdfrwt>
<pdfrwt beam="1">  1       -1 0.28846045E-03 0.48520877E+02</pdfrwt>
<totfact> 0.65553530E+05</totfact>
</mgrwt>
</event>
<event>
 4    1  0.3946801E-002  0.4607328E+02  0.7818608E-02  0.1467750E+00
          1   -1    0    0    0  501  0.00000000000E+00  0.00000000000E+00  0.10041848138E+03  0.10041848151E+03  0.50400000000E-02 0. -1.
         -1   -1    0    0  501    0 -0.00000000000E+00 -0.00000000000E+00 -0.52847516332E+01  0.52847540365E+01  0.50400000000E-02 0. -1.
          2    1    1    2    0  502 -0.11962983876E+02  0.18109762758E+02  0.65280187189E+02  0.68793744892E+02  0.25500000000E-02 0.  1.
         -2    1    1    2  502    0  0.11962983876E+02 -0.18109762758E+02  0.29853542558E+02  0.36909490651E+02  0.25500000000E-02 0.  1.
<mgrwt>
<rscale>  0 0.46073284E+02</rscale>
<asrwt>0</asrwt>
<pdfrwt beam="1">  1        1 0.15448997E-01 0.46073284E+02</pdfrwt>
<pdfrwt beam="2">  1       -1 0.81303894E-03 0.46073284E+02</pdfrwt>
<totfact> 0.62036808E+05</totfact>
</mgrwt>
</event>
<event>
 4    1  0.3946801E-002  0.6464352E+02  0.7818608E-02  0.1379317E+00
         -1   -1    0    0  501    0 -0.00000000000E+00  0.00000000000E+00  0.15776540286E+02  0.15776541091E+02  0.50400000000E-02 0.  1.
          1   -1    0    0    0  501  0.00000000000E+00 -0.00000000000E+00 -0.66218327608E+02  0.66218327800E+02  0.50400000000E-02 0.  1.
          2    1    1    2    0  502 -0.19768867285E+02 -0.10090163515E+02 -0.55023988544E+02  0.59331769190E+02  0.25500000000E-02 0. -1.
         -2    1    1    2  502    0  0.19768867285E+02  0.10090163515E+02  0.45822012222E+01  0.22663099701E+02  0.25500000000E-02 0. -1.
<mgrwt>
<rscale>  0 0.64643520E+02</rscale>
<asrwt>0</asrwt>
<pdfrwt beam="2">  1        1 0.10187435E-01 0.64643520E+02</pdfrwt>
<pdfrwt beam="1">  1       -1 0.24271602E-02 0.64643520E+02</pdfrwt>
<totfact> 0.24718122E+05</totfact>
</mgrwt>
</event>
<event>
 4    1  0.3946801E-002  0.4070436E+02  0.7818608E-02  0.1503091E+00
         -1   -1    0    0  501    0 -0.00000000000E+00  0.00000000000E+00  0.44669413396E+01  0.44669441829E+01  0.50400000000E-02 0.  1.
          1   -1    0    0    0  501  0.00000000000E+00 -0.00000000000E+00 -0.92728134955E+02  0.92728135092E+02  0.50400000000E-02 0.  1.
          2    1    1    2    0  502  0.10752447582E+02  0.17175024709E+02 -0.48670409604E+02  0.52720066202E+02  0.25500000000E-02 0.  1.
         -2    1    1    2  502    0 -0.10752447582E+02 -0.17175024709E+02 -0.39590784011E+02  0.44475013073E+02  0.25500000000E-02 0.  1.
<mgrwt>
<rscale>  0 0.40704363E+02</rscale>
<asrwt>0</asrwt>
<pdfrwt beam="2">  1        1 0.14265866E-01 0.40704363E+02</pdfrwt>
<pdfrwt beam="1">  1       -1 0.68722204E-03 0.40704363E+02</pdfrwt>
<totfact> 0.83498352E+05</totfact>
</mgrwt>
</event>
<event>
 4    1  0.3946801E-002  0.4422029E+02  0.7818608E-02  0.1479269E+00
          1   -1    0    0    0  501  0.00000000000E+00  0.00000000000E+00  0.32926771003E+02  0.32926771389E+02  0.50400000000E-02 0.  1.
         -1   -1    0    0  501    0 -0.00000000000E+00 -0.00000000000E+00 -0.14846837751E+02  0.14846838606E+02  0.50400000000E-02 0.  1.
          2    1    1    2    0  502 -0.95760043857E+01  0.19831030108E+02  0.11170440642E+02  0.24693083359E+02  0.25500000000E-02 0. -1.
         -2    1    1    2  502    0  0.95760043857E+01 -0.19831030108E+02  0.69094926110E+01  0.23080526636E+02  0.25500000000E-02 0. -1.
<mgrwt>
<rscale>  0 0.44220287E+02</rscale>
<asrwt>0</asrwt>
<pdfrwt beam="1">  1        1 0.50656571E-02 0.44220287E+02</pdfrwt>
<pdfrwt beam="2">  1       -1 0.22841290E-02 0.44220287E+02</pdfrwt>
<totfact> 0.61369509E+05</totfact>
</mgrwt>
</event>
<event>
 4    1  0.3946801E-002  0.5775288E+02  0.7818608E-02  0.1407511E+00
          1   -1    0    0    0  501  0.00000000000E+00  0.00000000000E+00  0.95847380441E+02  0.95847380574E+02  0.50400000000E-02 0. -1.
         -1   -1    0    0  501    0 -0.00000000000E+00 -0.00000000000E+00 -0.86997551638E+01  0.86997566238E+01  0.50400000000E-02 0. -1.
          2    1    1    2    0  502  0.28220356852E+02  0.48647360760E+01  0.36850343954E+02  0.46669069564E+02  0.25500000000E-02 0.  1.
         -2    1    1    2  502    0 -0.28220356852E+02 -0.48647360760E+01  0.50297281324E+02  0.57878067634E+02  0.25500000000E-02 0.  1.
<mgrwt>
<rscale>  0 0.57752881E+02</rscale>
<asrwt>0</asrwt>
<pdfrwt beam="1">  1        1 0.14745752E-01 0.57752881E+02</pdfrwt>
<pdfrwt beam="2">  1       -1 0.13384239E-02 0.57752881E+02</pdfrwt>
<totfact> 0.34767414E+05</totfact>
</mgrwt>
</event>
<event>
 4    1  0.3946801E-002  0.7904846E+02  0.7818608E-02  0.1331774E+00
         -1   -1    0    0  501    0 -0.00000000000E+00  0.00000000000E+00  0.75790794115E+02  0.75790794283E+02  0.50400000000E-02 0. -1.
          1   -1    0    0    0  501  0.00000000000E+00 -0.00000000000E+00 -0.20611535925E+02  0.20611536542E+02  0.50400000000E-02 0. -1.
          2    1    1    2    0  502 -0.38074440889E+02 -0.41381770348E+01  0.15679504778E+02  0.41383987662E+02  0.25500000000E-02 0.  1.
         -2    1    1    2  502    0  0.38074440889E+02  0.41381770348E+01  0.39499753412E+02  0.55018343162E+02  0.25500000000E-02 0.  1.
<mgrwt>
<rscale>  0 0.79048459E+02</rscale>
<asrwt>0</asrwt>
<pdfrwt beam="2">  1        1 0.31710056E-02 0.79048459E+02</pdfrwt>
<pdfrwt beam="1">  1       -1 0.11660122E-01 0.79048459E+02</pdfrwt>
<totfact> 0.12292206E+05</totfact>
</mgrwt>
</event>
<event>
 4    1  0.3946801E-002  0.8520368E+02  0.7818608E-02  0.1314901E+00
         -1   -1    0    0  501    0 -0.00000000000E+00  0.00000000000E+00  0.66578458820E+01  0.66578477897E+01  0.50400000000E-02 0.  1.
          1   -1    0    0    0  501  0.00000000000E+00 -0.00000000000E+00 -0.27259813644E+03  0.27259813648E+03  0.50400000000E-02 0.  1.
          2    1    1    2    0  502  0.35166792746E+02  0.93080451197E+01 -0.60302943150E+02  0.70425762154E+02  0.25500000000E-02 0. -1.
         -2    1    1    2  502    0 -0.35166792746E+02 -0.93080451197E+01 -0.20563734740E+03  0.20883022212E+03  0.25500000000E-02 0. -1.
<mgrwt>
<rscale>  0 0.85203677E+02</rscale>
<asrwt>0</asrwt>
<pdfrwt beam="2">  1        1 0.41938166E-01 0.85203677E+02</pdfrwt>
<pdfrwt beam="1">  1       -1 0.10242843E-02 0.85203677E+02</pdfrwt>
<totfact> 0.15058947E+05</totfact>
</mgrwt>
</event>
<event>
 4    1  0.3946801E-002  0.4145404E+02  0.7818608E-02  0.1497776E+00
          1   -1    0    0    0  501  0.00000000000E+00  0.00000000000E+00  0.32807391226E+02  0.32807391613E+02  0.50400000000E-02 0. -1.
         -1   -1    0    0  501    0 -0.00000000000E+00 -0.00000000000E+00 -0.13094891343E+02  0.13094892313E+02  0.50400000000E-02 0. -1.
          2    1    1    2    0  502  0.20410078325E+02 -0.62008495189E+00  0.59173778035E+01  0.21259613571E+02  0.25500000000E-02 0.  1.
         -2    1    1    2  502    0 -0.20410078325E+02  0.62008495189E+00  0.13795122079E+02  0.24642670356E+02  0.25500000000E-02 0.  1.
<mgrwt>
<rscale>  0 0.41454035E+02</rscale>
<asrwt>0</asrwt>
<pdfrwt beam="1">  1        1 0.50472911E-02 0.41454035E+02</pdfrwt>
<pdfrwt beam="2">  1       -1 0.20145988E-02 0.41454035E+02</pdfrwt>
<totfact> 0.72195726E+05</totfact>
</mgrwt>
</event>
<event>
 4    1  0.3946801E-002  0.6520311E+02  0.7818608E-02  0.1377209E+00
          1   -1    0    0    0  501  0.00000000000E+00  0.00000000000E+00  0.96654535679E+02  0.96654535810E+02  0.50400000000E-02 0.  1.
         -1   -1    0    0  501    0 -0.00000000000E+00 -0.00000000000E+00 -0.10996497156E+02  0.10996498311E+02  0.50400000000E-02 0.  1.
          2    1    1    2    0  502 -0.73914532455E+01 -0.20102268657E+02  0.83409190385E+02  0.86115200943E+02  0.25500000000E-02 0.  1.
         -2    1    1    2  502    0  0.73914532455E+01  0.20102268657E+02  0.22488481383E+01  0.21535833179E+02  0.25500000000E-02 0.  1.
<mgrwt>
<rscale>  0 0.65203110E+02</rscale>
<asrwt>0</asrwt>
<pdfrwt beam="1">  1        1 0.14869928E-01 0.65203110E+02</pdfrwt>
<pdfrwt beam="2">  1       -1 0.16917690E-02 0.65203110E+02</pdfrwt>
<totfact> 0.25415993E+05</totfact>
</mgrwt>
</event>
<event>
 4    1  0.3946801E-002  0.5427085E+02  0.7818608E-02  0.1423579E+00
         -1   -1    0    0  501    0 -0.00000000000E+00  0.00000000000E+00  0.16419664814E+02  0.16419665588E+02  0.50400000000E-02 0.  1.
          1   -1    0    0    0  501  0.00000000000E+00 -0.00000000000E+00 -0.44844478509E+02  0.44844478793E+02  0.50400000000E-02 0.  1.
          2    1    1    2    0  502 -0.99565239695E+01  0.21632261473E+02 -0.28898174906E+02  0.37445849241E+02  0.25500000000E-02 0. -1.
         -2    1    1    2  502    0  0.99565239695E+01 -0.21632261473E+02  0.47336121132E+00  0.23818295139E+02  0.25500000000E-02 0. -1.
<mgrwt>
<rscale>  0 0.54270852E+02</rscale>
<asrwt>0</asrwt>
<pdfrwt beam="2">  1        1 0.68991506E-02 0.54270852E+02</pdfrwt>
<pdfrwt beam="1">  1       -1 0.25261024E-02 0.54270852E+02</pdfrwt>
<totfact> 0.37352481E+05</totfact>
</mgrwt>
</event>
<event>
 4    1  0.3946801E-002  0.7284973E+02  0.7818608E-02  0.1350662E+00
          1   -1    0    0    0  501  0.00000000000E+00  0.00000000000E+00  0.40099518519E+02  0.40099518836E+02  0.50400000000E-02 0. -1.
         -1   -1    0    0  501    0 -0.00000000000E+00 -0.00000000000E+00 -0.33086954478E+02  0.33086954862E+02  0.50400000000E-02 0. -1.
          2    1    1    2    0  502  0.92756725908E+00 -0.35879971412E+02  0.97428943322E+01  0.37190815076E+02  0.25500000000E-02 0. -1.
         -2    1    1    2  502    0 -0.92756725908E+00  0.35879971412E+02 -0.27303302911E+01  0.35995658621E+02  0.25500000000E-02 0. -1.
<mgrwt>
<rscale>  0 0.72849735E+02</rscale>
<asrwt>0</asrwt>
<pdfrwt beam="1">  1        1 0.61691567E-02 0.72849735E+02</pdfrwt>
<pdfrwt beam="2">  1       -1 0.50903007E-02 0.72849735E+02</pdfrwt>
<totfact> 0.16889554E+05</totfact>
</mgrwt>
</event>
<event>
 4    1  0.3946801E-002  0.5365159E+02  0.7818608E-02  0.1426585E+00
          1   -1    0    0    0  501  0.00000000000E+00  0.00000000000E+00  0.38129655207E+02  0.38129655540E+02  0.50400000000E-02 0. -1.
         -1   -1    0    0  501    0 -0.00000000000E+00 -0.00000000000E+00 -0.18873059770E+02  0.18873060443E+02  0.50400000000E-02 0. -1.
          2    1    1    2    0  502  0.10478128225E+02  0.20263669884E+02 -0.53676816030E+01  0.23435432588E+02  0.25500000000E-02 0. -1.
         -2    1    1    2  502    0 -0.10478128225E+02 -0.20263669884E+02  0.24624277040E+02  0.33567283395E+02  0.25500000000E-02 0. -1.
<mgrwt>
<rscale>  0 0.53651590E+02</rscale>
<asrwt>0</asrwt>
<pdfrwt beam="1">  1        1 0.58661008E-02 0.53651590E+02</pdfrwt>
<pdfrwt beam="2">  1       -1 0.29035478E-02 0.53651590E+02</pdfrwt>
<totfact> 0.37870291E+05</totfact>
</mgrwt>
</event>
<event>
 4    1  0.3946801E-002  0.8025532E+02  0.7818608E-02  0.1328328E+00
         -1   -1    0    0  501    0 -0.00000000000E+00  0.00000000000E+00  0.40935681612E+03  0.40935681615E+03  0.50400000000E-02 0.  1.
          1   -1    0    0    0  501  0.00000000000E+00 -0.00000000000E+00 -0.39335569873E+01  0.39335602161E+01  0.50400000000E-02 0.  1.
          2    1    1    2    0  502  0.30773900945E+02 -0.23183017743E+02  0.26045799533E+03  0.26329233303E+03  0.25500000000E-02 0. -1.
         -2    1    1    2  502    0 -0.30773900945E+02  0.23183017743E+02  0.14496526380E+03  0.14999804334E+03  0.25500000000E-02 0. -1.
<mgrwt>
<rscale>  0 0.80255319E+02</rscale>
<asrwt>0</asrwt>
<pdfrwt beam="2">  1        1 0.60516293E-03 0.80255319E+02</pdfrwt>
<pdfrwt beam="1">  1       -1 0.62977966E-01 0.80255319E+02</pdfrwt>
<totfact> 0.73446429E+04</totfact>
</mgrwt>
</event>
<event>
 4    1  0.3946801E-002  0.8295470E+02  0.7818608E-02  0.1320870E+00
         -1   -1    0    0  501    0 -0.00000000000E+00  0.00000000000E+00  0.70804370976E+01  0.70804388914E+01  0.50400000000E-02 0. -1.
          1   -1    0    0    0  501  0.00000000000E+00 -0.00000000000E+00 -0.24297513670E+03  0.24297513675E+03  0.50400000000E-02 0. -1.
          2    1    1    2    0  502  0.35937342501E+02 -0.20666741345E+02 -0.12195045597E+03  0.12880419442E+03  0.25500000000E-02 0.  1.
         -2    1    1    2  502    0 -0.35937342501E+02  0.20666741345E+02 -0.11394424364E+03  0.12125138122E+03  0.25500000000E-02 0.  1.
<mgrwt>
<rscale>  0 0.82954696E+02</rscale>
<asrwt>0</asrwt>
<pdfrwt beam="2">  1        1 0.37380784E-01 0.82954696E+02</pdfrwt>
<pdfrwt beam="1">  1       -1 0.10892983E-02 0.82954696E+02</pdfrwt>
<totfact> 0.15810575E+05</totfact>
</mgrwt>
</event>
<event>
 4    1  0.3946801E-002  0.5598520E+02  0.7818608E-02  0.1415496E+00
          1   -1    0    0    0  501  0.00000000000E+00  0.00000000000E+00  0.26248492951E+03  0.26248492956E+03  0.50400000000E-02 0. -1.
         -1   -1    0    0  501    0 -0.00000000000E+00 -0.00000000000E+00 -0.29852571883E+01  0.29852614428E+01  0.50400000000E-02 0. -1.
          2    1    1    2    0  502 -0.26842280010E+02 -0.79202949542E+01  0.13254113326E+03  0.13546361534E+03  0.25500000000E-02 0.  1.
         -2    1    1    2  502    0  0.26842280010E+02  0.79202949542E+01  0.12695853906E+03  0.13000657566E+03  0.25500000000E-02 0.  1.
<mgrwt>
<rscale>  0 0.55985198E+02</rscale>
<asrwt>0</asrwt>
<pdfrwt beam="1">  1        1 0.40382288E-01 0.55985198E+02</pdfrwt>
<pdfrwt beam="2">  1       -1 0.45927077E-03 0.55985198E+02</pdfrwt>
<totfact> 0.44368021E+05</totfact>
</mgrwt>
</event>
<event>
 4    1  0.3946801E-002  0.9513932E+02  0.7818608E-02  0.1290863E+00
         -1   -1    0    0  501    0 -0.00000000000E+00  0.00000000000E+00  0.14870272467E+01  0.14870357878E+01  0.50400000000E-02 0. -1.
          1   -1    0    0    0  501  0.00000000000E+00 -0.00000000000E+00 -0.15217381541E+04  0.15217381541E+04  0.50400000000E-02 0. -1.
          2    1    1    2    0  502 -0.43645710311E+02 -0.17668511841E+02 -0.65183481138E+03  0.65353327816E+03  0.25500000000E-02 0. -1.
         -2    1    1    2  502    0  0.43645710311E+02  0.17668511841E+02 -0.86841631551E+03  0.86969191177E+03  0.25500000000E-02 0. -1.
<mgrwt>
<rscale>  0 0.95139321E+02</rscale>
<asrwt>0</asrwt>
<pdfrwt beam="2">  1        1 0.23411232E+00 0.95139321E+02</pdfrwt>
<pdfrwt beam="1">  1       -1 0.22877530E-03 0.95139321E+02</pdfrwt>
<totfact> 0.97543034E+04</totfact>
</mgrwt>
</event>
<event>
 4    1  0.3946801E-002  0.1018275E+03  0.7818608E-02  0.1276499E+00
          1   -1    0    0    0  501  0.00000000000E+00  0.00000000000E+00  0.19583459238E+02  0.19583459887E+02  0.50400000000E-02 0.  1.
         -1   -1    0    0  501    0 -0.00000000000E+00 -0.00000000000E+00 -0.13236726953E+03  0.13236726963E+03  0.50400000000E-02 0.  1.
          2    1    1    2    0  502 -0.38659588559E+02  0.22858515165E+02 -0.20605164971E+02  0.49413038088E+02  0.25500000000E-02 0.  1.
         -2    1    1    2  502    0  0.38659588559E+02 -0.22858515165E+02 -0.92178645320E+02  0.10253769142E+03  0.25500000000E-02 0.  1.
<mgrwt>
<rscale>  0 0.10182748E+03</rscale>
<asrwt>0</asrwt>
<pdfrwt beam="1">  1        1 0.30128400E-02 0.10182748E+03</pdfrwt>
<pdfrwt beam="2">  1       -1 0.20364195E-01 0.10182748E+03</pdfrwt>
<totfact> 0.57735873E+04</totfact>
</mgrwt>
</event>
<event>
 4    1  0.3946801E-002  0.5602487E+02  0.7818608E-02  0.1415313E+00
         -1   -1    0    0  501    0 -0.00000000000E+00  0.00000000000E+00  0.30750470062E+01  0.30750511364E+01  0.50400000000E-02 0.  1.
          1   -1    0    0    0  501  0.00000000000E+00 -0.00000000000E+00 -0.25518174018E+03  0.25518174023E+03  0.50400000000E-02 0.  1.
          2    1    1    2    0  502 -0.25722449205E+02  0.10618868058E+02 -0.14084146631E+03  0.14356435279E+03  0.25500000000E-02 0.  1.
         -2    1    1    2  502    0  0.25722449205E+02 -0.10618868058E+02 -0.11126522686E+03  0.11469243857E+03  0.25500000000E-02 0.  1.
<mgrwt>
<rscale>  0 0.56024865E+02</rscale>
<asrwt>0</asrwt>
<pdfrwt beam="2">  1        1 0.39258713E-01 0.56024865E+02</pdfrwt>
<pdfrwt beam="1">  1       -1 0.47308468E-03 0.56024865E+02</pdfrwt>
<totfact> 0.44063497E+05</totfact>
</mgrwt>
</event>
<event>
 4    1  0.3946801E-002  0.4148507E+02  0.7818608E-02  0.1497559E+00
          1   -1    0    0    0  501  0.00000000000E+00  0.00000000000E+00  0.11834610228E+04  0.11834610228E+04  0.50400000000E-02 0. -1.
         -1   -1    0    0  501    0 -0.00000000000E+00 -0.00000000000E+00 -0.36353723297E+00  0.36357216801E+00  0.50400000000E-02 0. -1.
          2    1    1    2    0  502 -0.19661110628E+02 -0.62320471724E+01  0.52867107709E+03  0.52907325149E+03  0.25500000000E-02 0. -1.
         -2    1    1    2  502    0  0.19661110628E+02  0.62320471724E+01  0.65442640850E+03  0.65475134351E+03  0.25500000000E-02 0. -1.
<mgrwt>
<rscale>  0 0.41485073E+02</rscale>
<asrwt>0</asrwt>
<pdfrwt beam="1">  1        1 0.18206947E+00 0.41485073E+02</pdfrwt>
<pdfrwt beam="2">  1       -1 0.55931941E-04 0.41485073E+02</pdfrwt>
<totfact> 0.94733655E+05</totfact>
</mgrwt>
</event>
<event>
 4    1  0.3946801E-002  0.4475925E+02  0.7818608E-02  0.1475850E+00
         -1   -1    0    0  501    0 -0.00000000000E+00  0.00000000000E+00  0.75149351511E+00  0.75151041567E+00  0.50400000000E-02 0. -1.
          1   -1    0    0    0  501  0.00000000000E+00 -0.00000000000E+00 -0.66646215099E+03  0.66646215101E+03  0.50400000000E-02 0. -1.
          2    1    1    2    0  502 -0.18247530443E+02  0.92842946921E+01 -0.46757541450E+03  0.46802343825E+03  0.25500000000E-02 0.  1.
         -2    1    1    2  502    0  0.18247530443E+02 -0.92842946921E+01 -0.19813524297E+03  0.19919022318E+03  0.25500000000E-02 0.  1.
<mgrwt>
<rscale>  0 0.44759251E+02</rscale>
<asrwt>0</asrwt>
<pdfrwt beam="2">  1        1 0.10253217E+00 0.44759251E+02</pdfrwt>
<pdfrwt beam="1">  1       -1 0.11561622E-03 0.44759251E+02</pdfrwt>
<totfact> 0.87174409E+05</totfact>
</mgrwt>
</event>
<event>
 4    1  0.3946801E-002  0.5724412E+02  0.7818608E-02  0.1409775E+00
          1   -1    0    0    0  501  0.00000000000E+00  0.00000000000E+00  0.12879845527E+03  0.12879845537E+03  0.50400000000E-02 0.  1.
         -1   -1    0    0  501    0 -0.00000000000E+00 -0.00000000000E+00 -0.63604969084E+01  0.63604989052E+01  0.50400000000E-02 0.  1.
          2    1    1    2    0  502 -0.72222108878E+01 -0.26026855592E+02  0.83576562497E+02  0.87832791982E+02  0.25500000000E-02 0. -1.
         -2    1    1    2  502    0  0.72222108878E+01  0.26026855592E+02  0.38861395861E+02  0.47326162288E+02  0.25500000000E-02 0. -1.
<mgrwt>
<rscale>  0 0.57244120E+02</rscale>
<asrwt>0</asrwt>
<pdfrwt beam="1">  1        1 0.19815147E-01 0.57244120E+02</pdfrwt>
<pdfrwt beam="2">  1       -1 0.97853813E-03 0.57244120E+02</pdfrwt>
<totfact> 0.37127640E+05</totfact>
</mgrwt>
</event>
<event>
 4    1  0.3946801E-002  0.6385611E+02  0.7818608E-02  0.1382327E+00
         -1   -1    0    0  501    0 -0.00000000000E+00  0.00000000000E+00  0.89588996437E+00  0.89590414100E+00  0.50400000000E-02 0. -1.
          1   -1    0    0    0  501  0.00000000000E+00 -0.00000000000E+00 -0.11378546322E+04  0.11378546322E+04  0.50400000000E-02 0. -1.
          2    1    1    2    0  502  0.13169847647E+02  0.25207136666E+02 -0.82724700424E+03  0.82773573721E+03  0.25500000000E-02 0.  1.
         -2    1    1    2  502    0 -0.13169847647E+02 -0.25207136666E+02 -0.30971173800E+03  0.31101479915E+03  0.25500000000E-02 0.  1.
<mgrwt>
<rscale>  0 0.63856108E+02</rscale>
<asrwt>0</asrwt>
<pdfrwt beam="2">  1        1 0.17505340E+00 0.63856108E+02</pdfrwt>
<pdfrwt beam="1">  1       -1 0.13783123E-03 0.63856108E+02</pdfrwt>
<totfact> 0.32868279E+05</totfact>
</mgrwt>
</event>
<event>
 4    1  0.3946801E-002  0.8104637E+02  0.7818608E-02  0.1326108E+00
         -1   -1    0    0  501    0 -0.00000000000E+00  0.00000000000E+00  0.33904569220E+01  0.33904606680E+01  0.50400000000E-02 0.  1.
          1   -1    0    0    0  501  0.00000000000E+00 -0.00000000000E+00 -0.48433811611E+03  0.48433811613E+03  0.50400000000E-02 0.  1.
          2    1    1    2    0  502 -0.10116069613E+02  0.26695273794E+02 -0.41355042273E+03  0.41453458801E+03  0.25500000000E-02 0. -1.
         -2    1    1    2  502    0  0.10116069613E+02 -0.26695273794E+02 -0.67397236456E+02  0.73193988795E+02  0.25500000000E-02 0. -1.
<mgrwt>
<rscale>  0 0.81046368E+02</rscale>
<asrwt>0</asrwt>
<pdfrwt beam="2">  1        1 0.74513502E-01 0.81046368E+02</pdfrwt>
<pdfrwt beam="1">  1       -1 0.52160943E-03 0.81046368E+02</pdfrwt>
<totfact> 0.18919835E+05</totfact>
</mgrwt>
</event>
<event>
 4    1  0.3946801E-002  0.5583390E+02  0.7818608E-02  0.1416196E+00
          1   -1    0    0    0  501  0.00000000000E+00  0.00000000000E+00  0.89237894329E+02  0.89237894471E+02  0.50400000000E-02 0. -1.
         -1   -1    0    0  501    0 -0.00000000000E+00 -0.00000000000E+00 -0.87334650762E+01  0.87334665304E+01  0.50400000000E-02 0. -1.
          2    1    1    2    0  502  0.19871201722E+02  0.18768990581E+02  0.30292659339E+02  0.40801775472E+02  0.25500000000E-02 0.  1.
         -2    1    1    2  502    0 -0.19871201722E+02 -0.18768990581E+02  0.50211769914E+02  0.57169585530E+02  0.25500000000E-02 0.  1.
<mgrwt>
<rscale>  0 0.55833901E+02</rscale>
<asrwt>0</asrwt>
<pdfrwt beam="1">  1        1 0.13728907E-01 0.55833901E+02</pdfrwt>
<pdfrwt beam="2">  1       -1 0.13436101E-02 0.55833901E+02</pdfrwt>
<totfact> 0.37557911E+05</totfact>
</mgrwt>
</event>
<event>
 4    1  0.3946801E-002  0.8337069E+02  0.7818608E-02  0.1319749E+00
         -1   -1    0    0  501    0 -0.00000000000E+00  0.00000000000E+00  0.24258220622E+03  0.24258220627E+03  0.50400000000E-02 0.  1.
          1   -1    0    0    0  501  0.00000000000E+00 -0.00000000000E+00 -0.71632122256E+01  0.71632139986E+01  0.50400000000E-02 0.  1.
          2    1    1    2    0  502  0.17726250285E+02  0.10406395487E+02  0.22634520629E+03  0.22727662756E+03  0.25500000000E-02 0.  1.
         -2    1    1    2  502    0 -0.17726250285E+02 -0.10406395487E+02  0.90737877021E+01  0.22468792713E+02  0.25500000000E-02 0.  1.
<mgrwt>
<rscale>  0 0.83370692E+02</rscale>
<asrwt>0</asrwt>
<pdfrwt beam="2">  1        1 0.11020328E-02 0.83370692E+02</pdfrwt>
<pdfrwt beam="1">  1       -1 0.37320338E-01 0.83370692E+02</pdfrwt>
<totfact> 0.82574122E+04</totfact>
</mgrwt>
</event>
<event>
 4    1  0.3946801E-002  0.7214820E+02  0.7818608E-02  0.1352937E+00
          1   -1    0    0    0  501  0.00000000000E+00  0.00000000000E+00  0.53254916621E+01  0.53254940470E+01  0.50400000000E-02 0.  1.
         -1   -1    0    0  501    0 -0.00000000000E+00 -0.00000000000E+00 -0.24436060067E+03  0.24436060073E+03  0.50400000000E-02 0.  1.
          2    1    1    2    0  502 -0.11380815792E+02  0.31473637319E+02 -0.16610633076E+03  0.16944446269E+03  0.25500000000E-02 0.  1.
         -2    1    1    2  502    0  0.11380815792E+02 -0.31473637319E+02 -0.72928778257E+02  0.80241632079E+02  0.25500000000E-02 0.  1.
<mgrwt>
<rscale>  0 0.72148199E+02</rscale>
<asrwt>0</asrwt>
<pdfrwt beam="1">  1        1 0.81930679E-03 0.72148199E+02</pdfrwt>
<pdfrwt beam="2">  1       -1 0.37593930E-01 0.72148199E+02</pdfrwt>
<totfact> 0.11962521E+05</totfact>
</mgrwt>
</event>
<event>
 4    1  0.3946801E-002  0.6962116E+02  0.7818608E-02  0.1361386E+00
          1   -1    0    0    0  501  0.00000000000E+00  0.00000000000E+00  0.48594067400E+01  0.48594093537E+01  0.50400000000E-02 0.  1.
         -1   -1    0    0  501    0 -0.00000000000E+00 -0.00000000000E+00 -0.24936713045E+03  0.24936713050E+03  0.50400000000E-02 0.  1.
          2    1    1    2    0  502  0.25334417521E+02 -0.87602868005E+01 -0.20334841993E+03  0.20510766742E+03  0.25500000000E-02 0. -1.
         -2    1    1    2  502    0 -0.25334417521E+02  0.87602868005E+01 -0.41159303775E+02  0.49118872439E+02  0.25500000000E-02 0. -1.
<mgrwt>
<rscale>  0 0.69621165E+02</rscale>
<asrwt>0</asrwt>
<pdfrwt beam="1">  1        1 0.74760144E-03 0.69621165E+02</pdfrwt>
<pdfrwt beam="2">  1       -1 0.38364164E-01 0.69621165E+02</pdfrwt>
<totfact> 0.13018627E+05</totfact>
</mgrwt>
</event>
<event>
 4    1  0.3946801E-002  0.1137313E+03  0.7818608E-02  0.1253812E+00
         -1   -1    0    0  501    0 -0.00000000000E+00  0.00000000000E+00  0.51620979898E+02  0.51620980144E+02  0.50400000000E-02 0. -1.
          1   -1    0    0    0  501  0.00000000000E+00 -0.00000000000E+00 -0.62643153841E+02  0.62643154044E+02  0.50400000000E-02 0. -1.
          2    1    1    2    0  502  0.17764507145E+02  0.21523081444E+02  0.44267797821E+02  0.52330284533E+02  0.25500000000E-02 0.  1.
         -2    1    1    2  502    0 -0.17764507145E+02 -0.21523081444E+02 -0.55289971764E+02  0.61933849655E+02  0.25500000000E-02 0.  1.
<mgrwt>
<rscale>  0 0.11373128E+03</rscale>
<asrwt>0</asrwt>
<pdfrwt beam="2">  1        1 0.96374083E-02 0.11373128E+03</pdfrwt>
<pdfrwt beam="1">  1       -1 0.79416893E-02 0.11373128E+03</pdfrwt>
<totfact> 0.52028315E+04</totfact>
</mgrwt>
</event>
<event>
 4    1  0.3946801E-002  0.5559956E+02  0.7818608E-02  0.1417285E+00
          1   -1    0    0    0  501  0.00000000000E+00  0.00000000000E+00  0.68161297225E+03  0.68161297227E+03  0.50400000000E-02 0.  1.
         -1   -1    0    0  501    0 -0.00000000000E+00 -0.00000000000E+00 -0.11338163774E+01  0.11338275791E+01  0.50400000000E-02 0.  1.
          2    1    1    2    0  502 -0.15141196361E+01  0.22784966931E+02  0.53493426765E+03  0.53542143961E+03  0.25500000000E-02 0.  1.
         -2    1    1    2  502    0  0.15141196361E+01 -0.22784966931E+02  0.14554488822E+03  0.14732536024E+03  0.25500000000E-02 0.  1.
<mgrwt>
<rscale>  0 0.55599560E+02</rscale>
<asrwt>0</asrwt>
<pdfrwt beam="1">  1        1 0.10486333E+00 0.55599560E+02</pdfrwt>
<pdfrwt beam="2">  1       -1 0.17443450E-03 0.55599560E+02</pdfrwt>
<totfact> 0.50923208E+05</totfact>
</mgrwt>
</event>
<event>
 4    1  0.3946801E-002  0.4866627E+02  0.7818608E-02  0.1452671E+00
          1   -1    0    0    0  501  0.00000000000E+00  0.00000000000E+00  0.31113799940E+00  0.31117881719E+00  0.50400000000E-02 0.  1.
         -1   -1    0    0  501    0 -0.00000000000E+00 -0.00000000000E+00 -0.19028936576E+04  0.19028936576E+04  0.50400000000E-02 0.  1.
          2    1    1    2    0  502 -0.97741817551E+01 -0.21440584963E+02 -0.71383554961E+03  0.71422435215E+03  0.25500000000E-02 0. -1.
         -2    1    1    2  502    0  0.97741817551E+01  0.21440584963E+02 -0.11887469700E+04  0.11889804843E+04  0.25500000000E-02 0. -1.
<mgrwt>
<rscale>  0 0.48666267E+02</rscale>
<asrwt>0</asrwt>
<pdfrwt beam="1">  1        1 0.47872049E-04 0.48666267E+02</pdfrwt>
<pdfrwt beam="2">  1       -1 0.29274355E+00 0.48666267E+02</pdfrwt>
<totfact> 0.40367035E+04</totfact>
</mgrwt>
</event>
<event>
 4    1  0.3946801E-002  0.6122515E+02  0.7818608E-02  0.1392761E+00
         -1   -1    0    0  501    0 -0.00000000000E+00  0.00000000000E+00  0.26651949914E+03  0.26651949919E+03  0.50400000000E-02 0.  1.
          1   -1    0    0    0  501  0.00000000000E+00 -0.00000000000E+00 -0.35161747251E+01  0.35161783372E+01  0.50400000000E-02 0.  1.
          2    1    1    2    0  502  0.24445490505E+02 -0.59594105834E+01  0.20840615387E+03  0.20991955973E+03  0.25500000000E-02 0. -1.
         -2    1    1    2  502    0 -0.24445490505E+02  0.59594105834E+01  0.54597170548E+02  0.60116117797E+02  0.25500000000E-02 0. -1.
<mgrwt>
<rscale>  0 0.61225146E+02</rscale>
<asrwt>0</asrwt>
<pdfrwt beam="2">  1        1 0.54095012E-03 0.61225146E+02</pdfrwt>
<pdfrwt beam="1">  1       -1 0.41003009E-01 0.61225146E+02</pdfrwt>
<totfact> 0.17646883E+05</totfact>
</mgrwt>
</event>
<event>
 4    1  0.3946801E-002  0.8264976E+02  0.7818608E-02  0.1321696E+00
         -1   -1    0    0  501    0 -0.00000000000E+00  0.00000000000E+00  0.33402783159E+01  0.33402821182E+01  0.50400000000E-02 0.  1.
          1   -1    0    0    0  501  0.00000000000E+00 -0.00000000000E+00 -0.51125820176E+03  0.51125820178E+03  0.50400000000E-02 0.  1.
          2    1    1    2    0  502  0.15193575608E+02  0.14888737925E+02 -0.47455004012E+03  0.47502658857E+03  0.25500000000E-02 0. -1.
         -2    1    1    2  502    0 -0.15193575608E+02 -0.14888737925E+02 -0.33367883317E+02  0.39571895334E+02  0.25500000000E-02 0. -1.
<mgrwt>
<rscale>  0 0.82649759E+02</rscale>
<asrwt>0</asrwt>
<pdfrwt beam="2">  1        1 0.78655046E-01 0.82649759E+02</pdfrwt>
<pdfrwt beam="1">  1       -1 0.51388967E-03 0.82649759E+02</pdfrwt>
<totfact> 0.18086948E+05</totfact>
</mgrwt>
</event>
<event>
 4    1  0.3946801E-002  0.8859720E+02  0.7818608E-02  0.1306285E+00
          1   -1    0    0    0  501  0.00000000000E+00  0.00000000000E+00  0.69778939442E+03  0.69778939444E+03  0.50400000000E-02 0.  1.
         -1   -1    0    0  501    0 -0.00000000000E+00 -0.00000000000E+00 -0.28122591279E+01  0.28122636441E+01  0.50400000000E-02 0.  1.
          2    1    1    2    0  502 -0.41732722033E+02 -0.13772453568E+02  0.30341369323E+03  0.30657979355E+03  0.25500000000E-02 0. -1.
         -2    1    1    2  502    0  0.41732722033E+02  0.13772453568E+02  0.39156344206E+03  0.39402186454E+03  0.25500000000E-02 0. -1.
<mgrwt>
<rscale>  0 0.88597205E+02</rscale>
<asrwt>0</asrwt>
<pdfrwt beam="1">  1        1 0.10735228E+00 0.88597205E+02</pdfrwt>
<pdfrwt beam="2">  1       -1 0.43265533E-03 0.88597205E+02</pdfrwt>
<totfact> 0.15337391E+05</totfact>
</mgrwt>
</event>
<event>
 4    1  0.3946801E-002  0.4667387E+02  0.7818608E-02  0.1464155E+00
          1   -1    0    0    0  501  0.00000000000E+00  0.00000000000E+00  0.16632713312E+04  0.16632713312E+04  0.50400000000E-02 0.  1.
         -1   -1    0    0  501    0 -0.00000000000E+00 -0.00000000000E+00 -0.32741522755E+00  0.32745401636E+00  0.50400000000E-02 0.  1.
          2    1    1    2    0  502  0.14183491403E+02 -0.17613883043E+02  0.10368214145E+04  0.10370680142E+04  0.25500000000E-02 0.  1.
         -2    1    1    2  502    0 -0.14183491403E+02  0.17613883043E+02  0.62612250144E+03  0.62653077109E+03  0.25500000000E-02 0.  1.
<mgrwt>
<rscale>  0 0.46673874E+02</rscale>
<asrwt>0</asrwt>
<pdfrwt beam="1">  1        1 0.25589716E+00 0.46673874E+02</pdfrwt>
<pdfrwt beam="2">  1       -1 0.50372735E-04 0.46673874E+02</pdfrwt>
<totfact> 0.56013701E+05</totfact>
</mgrwt>
</event>
<event>
 4    1  0.3946801E-002  0.6079477E+02  0.7818608E-02  0.1394526E+00
         -1   -1    0    0  501    0 -0.00000000000E+00  0.00000000000E+00  0.33822311779E+01  0.33822349331E+01  0.50400000000E-02 0.  1.
          1   -1    0    0    0  501  0.00000000000E+00 -0.00000000000E+00 -0.27319255306E+03  0.27319255310E+03  0.50400000000E-02 0.  1.
          2    1    1    2    0  502  0.98236030313E+01  0.27871937185E+02 -0.16728302959E+03  0.16987336476E+03  0.25500000000E-02 0.  1.
         -2    1    1    2  502    0 -0.98236030313E+01 -0.27871937185E+02 -0.10252729229E+03  0.10670142327E+03  0.25500000000E-02 0.  1.
<mgrwt>
<rscale>  0 0.60794766E+02</rscale>
<asrwt>0</asrwt>
<pdfrwt beam="2">  1        1 0.42029606E-01 0.60794766E+02</pdfrwt>
<pdfrwt beam="1">  1       -1 0.52034377E-03 0.60794766E+02</pdfrwt>
<totfact> 0.36246137E+05</totfact>
</mgrwt>
</event>
<event>
 4    1  0.3946801E-002  0.4477377E+02  0.7818608E-02  0.1475759E+00
         -1   -1    0    0  501    0 -0.00000000000E+00  0.00000000000E+00  0.41470574429E+01  0.41470605055E+01  0.50400000000E-02 0.  1.
          1   -1    0    0    0  501  0.00000000000E+00 -0.00000000000E+00 -0.12085013453E+03  0.12085013464E+03  0.50400000000E-02 0.  1.
          2    1    1    2    0  502 -0.17636897694E+02  0.11004969489E+02 -0.35160992227E+02  0.40846846814E+02  0.25500000000E-02 0. -1.
         -2    1    1    2  502    0  0.17636897694E+02 -0.11004969489E+02 -0.81542084863E+02  0.84150348330E+02  0.25500000000E-02 0. -1.
<mgrwt>
<rscale>  0 0.44773771E+02</rscale>
<asrwt>0</asrwt>
<pdfrwt beam="2">  1        1 0.18592326E-01 0.44773771E+02</pdfrwt>
<pdfrwt beam="1">  1       -1 0.63800917E-03 0.44773771E+02</pdfrwt>
<totfact> 0.68330750E+05</totfact>
</mgrwt>
</event>
<event>
 4    1  0.3946801E-002  0.4149865E+02  0.7818608E-02  0.1497464E+00
          1   -1    0    0    0  501  0.00000000000E+00  0.00000000000E+00  0.38494891444E+01  0.38494924438E+01  0.50400000000E-02 0.  1.
         -1   -1    0    0  501    0 -0.00000000000E+00 -0.00000000000E+00 -0.11184195434E+03  0.11184195445E+03  0.50400000000E-02 0.  1.
          2    1    1    2    0  502 -0.17293929771E+02 -0.11244456853E+02 -0.60240464664E+02  0.63674417205E+02  0.25500000000E-02 0.  1.
         -2    1    1    2  502    0  0.17293929771E+02  0.11244456853E+02 -0.47752000532E+02  0.52017029694E+02  0.25500000000E-02 0.  1.
<mgrwt>
<rscale>  0 0.41498655E+02</rscale>
<asrwt>0</asrwt>
<pdfrwt beam="1">  1        1 0.59222945E-03 0.41498655E+02</pdfrwt>
<pdfrwt beam="2">  1       -1 0.17206452E-01 0.41498655E+02</pdfrwt>
<totfact> 0.57650286E+05</totfact>
</mgrwt>
</event>
<event>
 4    1  0.3946801E-002  0.4124548E+02  0.7818608E-02  0.1499241E+00
          1   -1    0    0    0  501  0.00000000000E+00  0.00000000000E+00  0.55736730194E+01  0.55736752981E+01  0.50400000000E-02 0.  1.
         -1   -1    0    0  501    0 -0.00000000000E+00 -0.00000000000E+00 -0.76304692092E+02  0.76304692259E+02  0.50400000000E-02 0.  1.
          2    1    1    2    0  502  0.95590430347E+01  0.17696517542E+02 -0.26321542982E+02  0.33126510054E+02  0.25500000000E-02 0.  1.
         -2    1    1    2  502    0 -0.95590430347E+01 -0.17696517542E+02 -0.44409476091E+02  0.48751857503E+02  0.25500000000E-02 0.  1.
<mgrwt>
<rscale>  0 0.41245485E+02</rscale>
<asrwt>0</asrwt>
<pdfrwt beam="1">  1        1 0.85748840E-03 0.41245485E+02</pdfrwt>
<pdfrwt beam="2">  1       -1 0.11739183E-01 0.41245485E+02</pdfrwt>
<totfact> 0.62107582E+05</totfact>
</mgrwt>
</event>
<event>
 4    1  0.3946801E-002  0.1259450E+03  0.7818608E-02  0.1233600E+00
          1   -1    0    0    0  501  0.00000000000E+00  0.00000000000E+00  0.50762744975E+02  0.50762745225E+02  0.50400000000E-02 0.  1.
         -1   -1    0    0  501    0 -0.00000000000E+00 -0.00000000000E+00 -0.78119026638E+02  0.78119026801E+02  0.50400000000E-02 0.  1.
          2    1    1    2    0  502 -0.13981754839E+02  0.43673376659E+02  0.30487039731E+02  0.55066440735E+02  0.25500000000E-02 0. -1.
         -2    1    1    2  502    0  0.13981754839E+02 -0.43673376659E+02 -0.57843321394E+02  0.73815331291E+02  0.25500000000E-02 0. -1.
<mgrwt>
<rscale>  0 0.12594501E+03</rscale>
<asrwt>0</asrwt>
<pdfrwt beam="1">  1        1 0.78096531E-02 0.12594501E+03</pdfrwt>
<pdfrwt beam="2">  1       -1 0.12018312E-01 0.12594501E+03</pdfrwt>
<totfact> 0.37149479E+04</totfact>
</mgrwt>
</event>
<event>
 4    1  0.3946801E-002  0.9194605E+02  0.7818608E-02  0.1298206E+00
          1   -1    0    0    0  501  0.00000000000E+00  0.00000000000E+00  0.15515550491E+03  0.15515550499E+03  0.50400000000E-02 0. -1.
         -1   -1    0    0  501    0 -0.00000000000E+00 -0.00000000000E+00 -0.13621940454E+02  0.13621941386E+02  0.50400000000E-02 0. -1.
          2    1    1    2    0  502 -0.44451382134E+02 -0.47518414001E+00  0.92280924656E+02  0.10243007486E+03  0.25500000000E-02 0.  1.
         -2    1    1    2  502    0  0.44451382134E+02  0.47518414001E+00  0.49252639796E+02  0.66347371515E+02  0.25500000000E-02 0.  1.
<mgrwt>
<rscale>  0 0.91946052E+02</rscale>
<asrwt>0</asrwt>
<pdfrwt beam="1">  1        1 0.23870076E-01 0.91946052E+02</pdfrwt>
<pdfrwt beam="2">  1       -1 0.20956833E-02 0.91946052E+02</pdfrwt>
<totfact> 0.11030399E+05</totfact>
</mgrwt>
</event>
<event>
 4    1  0.3946801E-002  0.5450441E+02  0.7818608E-02  0.1422457E+00
         -1   -1    0    0  501    0 -0.00000000000E+00  0.00000000000E+00  0.45178047170E+02  0.45178047451E+02  0.50400000000E-02 0.  1.
          1   -1    0    0    0  501  0.00000000000E+00 -0.00000000000E+00 -0.16439014332E+02  0.16439015104E+02  0.50400000000E-02 0.  1.
          2    1    1    2    0  502 -0.20923960244E+02 -0.14917834912E+02  0.24627097241E+02  0.35592805955E+02  0.25500000000E-02 0. -1.
         -2    1    1    2  502    0  0.20923960244E+02  0.14917834912E+02  0.41119355966E+01  0.26024256600E+02  0.25500000000E-02 0. -1.
<mgrwt>
<rscale>  0 0.54504407E+02</rscale>
<asrwt>0</asrwt>
<pdfrwt beam="2">  1        1 0.25290793E-02 0.54504407E+02</pdfrwt>
<pdfrwt beam="1">  1       -1 0.69504687E-02 0.54504407E+02</pdfrwt>
<totfact> 0.33415760E+05</totfact>
</mgrwt>
</event>
<event>
 4    1  0.3946801E-002  0.4461853E+02  0.7818608E-02  0.1476737E+00
          1   -1    0    0    0  501  0.00000000000E+00  0.00000000000E+00  0.11561508503E+03  0.11561508514E+03  0.50400000000E-02 0. -1.
         -1   -1    0    0  501    0 -0.00000000000E+00 -0.00000000000E+00 -0.43048293659E+01  0.43048323162E+01  0.50400000000E-02 0. -1.
          2    1    1    2    0  502  0.20302849448E+02  0.91208528439E+01  0.59738032691E+02  0.63749731047E+02  0.25500000000E-02 0.  1.
         -2    1    1    2  502    0 -0.20302849448E+02 -0.91208528439E+01  0.51572222974E+02  0.56170186410E+02  0.25500000000E-02 0.  1.
<mgrwt>
<rscale>  0 0.44618534E+02</rscale>
<asrwt>0</asrwt>
<pdfrwt beam="1">  1        1 0.17786938E-01 0.44618534E+02</pdfrwt>
<pdfrwt beam="2">  1       -1 0.66228162E-03 0.44618534E+02</pdfrwt>
<totfact> 0.68494890E+05</totfact>
</mgrwt>
</event>
<event>
 4    1  0.3946801E-002  0.4842475E+02  0.7818608E-02  0.1454028E+00
          1   -1    0    0    0  501  0.00000000000E+00  0.00000000000E+00  0.15106888917E+03  0.15106888926E+03  0.50400000000E-02 0.  1.
         -1   -1    0    0  501    0 -0.00000000000E+00 -0.00000000000E+00 -0.38806056625E+01  0.38806089354E+01  0.50400000000E-02 0.  1.
          2    1    1    2    0  502 -0.21287684662E+02 -0.11037689577E+02  0.62865059424E+02  0.67283072258E+02  0.25500000000E-02 0.  1.
         -2    1    1    2  502    0  0.21287684662E+02  0.11037689577E+02  0.84323224087E+02  0.87666425936E+02  0.25500000000E-02 0.  1.
<mgrwt>
<rscale>  0 0.48424748E+02</rscale>
<asrwt>0</asrwt>
<pdfrwt beam="1">  1        1 0.23241370E-01 0.48424748E+02</pdfrwt>
<pdfrwt beam="2">  1       -1 0.59701647E-03 0.48424748E+02</pdfrwt>
<totfact> 0.58122584E+05</totfact>
</mgrwt>
</event>
<event>
 4    1  0.3946801E-002  0.1833775E+03  0.7818608E-02  0.1164574E+00
         -1   -1    0    0  501    0 -0.00000000000E+00  0.00000000000E+00  0.12281171702E+02  0.12281172736E+02  0.50400000000E-02 0.  1.
          1   -1    0    0    0  501  0.00000000000E+00 -0.00000000000E+00 -0.68452963749E+03  0.68452963751E+03  0.50400000000E-02 0.  1.
          2    1    1    2    0  502 -0.72051592292E+02  0.14392359101E+02 -0.12771059870E+03  0.14733828076E+03  0.25500000000E-02 0. -1.
         -2    1    1    2  502    0  0.72051592292E+02 -0.14392359101E+02 -0.54453786709E+03  0.54947252948E+03  0.25500000000E-02 0. -1.
<mgrwt>
<rscale>  0 0.18337749E+03</rscale>
<asrwt>0</asrwt>
<pdfrwt beam="2">  1        1 0.10531222E+00 0.18337749E+03</pdfrwt>
<pdfrwt beam="1">  1       -1 0.18894116E-02 0.18337749E+03</pdfrwt>
<totfact> 0.21033654E+04</totfact>
</mgrwt>
</event>
<event>
 4    1  0.3946801E-002  0.5864573E+02  0.7818608E-02  0.1403604E+00
          1   -1    0    0    0  501  0.00000000000E+00  0.00000000000E+00  0.20427700633E+02  0.20427701255E+02  0.50400000000E-02 0. -1.
         -1   -1    0    0  501    0 -0.00000000000E+00 -0.00000000000E+00 -0.42091388743E+02  0.42091389045E+02  0.50400000000E-02 0. -1.
          2    1    1    2    0  502 -0.10335215280E+02  0.24927273129E+02  0.13996061310E+01  0.27021186583E+02  0.25500000000E-02 0.  1.
         -2    1    1    2  502    0  0.10335215280E+02 -0.24927273129E+02 -0.23063294241E+02  0.35497903717E+02  0.25500000000E-02 0.  1.
<mgrwt>
<rscale>  0 0.58645727E+02</rscale>
<asrwt>0</asrwt>
<pdfrwt beam="1">  1        1 0.31427232E-02 0.58645727E+02</pdfrwt>
<pdfrwt beam="2">  1       -1 0.64755984E-02 0.58645727E+02</pdfrwt>
<totfact> 0.28100112E+05</totfact>
</mgrwt>
</event>
<event>
 4    1  0.3946801E-002  0.5792697E+02  0.7818608E-02  0.1406743E+00
         -1   -1    0    0  501    0 -0.00000000000E+00  0.00000000000E+00  0.16559206359E+02  0.16559207126E+02  0.50400000000E-02 0. -1.
          1   -1    0    0    0  501  0.00000000000E+00 -0.00000000000E+00 -0.50659632891E+02  0.50659633142E+02  0.50400000000E-02 0. -1.
          2    1    1    2    0  502 -0.27123097787E+02 -0.58289059000E+01 -0.73940698797E+01  0.28710814225E+02  0.25500000000E-02 0. -1.
         -2    1    1    2  502    0  0.27123097787E+02  0.58289059000E+01 -0.26706356652E+02  0.38508026043E+02  0.25500000000E-02 0. -1.
<mgrwt>
<rscale>  0 0.57926966E+02</rscale>
<asrwt>0</asrwt>
<pdfrwt beam="2">  1        1 0.77937897E-02 0.57926966E+02</pdfrwt>
<pdfrwt beam="1">  1       -1 0.25475703E-02 0.57926966E+02</pdfrwt>
<totfact> 0.31933568E+05</totfact>
</mgrwt>
</event>
<event>
 4    1  0.3946801E-002  0.4263116E+02  0.7818608E-02  0.1489696E+00
          1   -1    0    0    0  501  0.00000000000E+00  0.00000000000E+00  0.46317049706E+03  0.46317049709E+03  0.50400000000E-02 0.  1.
         -1   -1    0    0  501    0 -0.00000000000E+00 -0.00000000000E+00 -0.98095807928E+00  0.98097102654E+00  0.50400000000E-02 0.  1.
          2    1    1    2    0  502 -0.19668900933E+02  0.37105838266E+01  0.31089416748E+03  0.31153782672E+03  0.25500000000E-02 0. -1.
         -2    1    1    2  502    0  0.19668900933E+02 -0.37105838266E+01  0.15129537151E+03  0.15261364140E+03  0.25500000000E-02 0. -1.
<mgrwt>
<rscale>  0 0.42631155E+02</rscale>
<asrwt>0</asrwt>
<pdfrwt beam="1">  1        1 0.71257256E-01 0.42631155E+02</pdfrwt>
<pdfrwt beam="2">  1       -1 0.15091708E-03 0.42631155E+02</pdfrwt>
<totfact> 0.95604046E+05</totfact>
</mgrwt>
</event>
<event>
 4    1  0.3946801E-002  0.5839278E+02  0.7818608E-02  0.1404703E+00
          1   -1    0    0    0  501  0.00000000000E+00  0.00000000000E+00  0.10414153424E+04  0.10414153424E+04  0.50400000000E-02 0.  1.
         -1   -1    0    0  501    0 -0.00000000000E+00 -0.00000000000E+00 -0.81852169693E+00  0.81853721354E+00  0.50400000000E-02 0.  1.
          2    1    1    2    0  502 -0.27419939770E+02 -0.74496053239E+01  0.64013659396E+03  0.64076689104E+03  0.25500000000E-02 0.  1.
         -2    1    1    2  502    0  0.27419939770E+02  0.74496053239E+01  0.40046022669E+03  0.40146698854E+03  0.25500000000E-02 0.  1.
<mgrwt>
<rscale>  0 0.58392779E+02</rscale>
<asrwt>0</asrwt>
<pdfrwt beam="1">  1        1 0.16021838E+00 0.58392779E+02</pdfrwt>
<pdfrwt beam="2">  1       -1 0.12592711E-03 0.58392779E+02</pdfrwt>
<totfact> 0.42546565E+05</totfact>
</mgrwt>
</event>
<event>
 4    1  0.3946801E-002  0.4955229E+02  0.7818608E-02  0.1447771E+00
          1   -1    0    0    0  501  0.00000000000E+00  0.00000000000E+00  0.12607944453E+04  0.12607944453E+04  0.50400000000E-02 0.  1.
         -1   -1    0    0  501    0 -0.00000000000E+00 -0.00000000000E+00 -0.48686840665E+00  0.48689449267E+00  0.50400000000E-02 0.  1.
          2    1    1    2    0  502 -0.18905934190E+02 -0.15210123034E+02  0.75761287138E+03  0.75800134900E+03  0.25500000000E-02 0. -1.
         -2    1    1    2  502    0  0.18905934190E+02  0.15210123034E+02  0.50269470549E+03  0.50327999079E+03  0.25500000000E-02 0. -1.
<mgrwt>
<rscale>  0 0.49552293E+02</rscale>
<asrwt>0</asrwt>
<pdfrwt beam="1">  1        1 0.19396960E+00 0.49552293E+02</pdfrwt>
<pdfrwt beam="2">  1       -1 0.74904366E-04 0.49552293E+02</pdfrwt>
<totfact> 0.59354068E+05</totfact>
</mgrwt>
</event>
<event>
 4    1  0.3946801E-002  0.1348471E+03  0.7818608E-02  0.1220436E+00
          1   -1    0    0    0  501  0.00000000000E+00  0.00000000000E+00  0.76928204633E+03  0.76928204635E+03  0.50400000000E-02 0. -1.
         -1   -1    0    0  501    0 -0.00000000000E+00 -0.00000000000E+00 -0.59093233333E+01  0.59093254825E+01  0.50400000000E-02 0. -1.
          2    1    1    2    0  502 -0.27820348689E+02  0.60713830587E+02  0.32843862784E+03  0.33515977278E+03  0.25500000000E-02 0. -1.
         -2    1    1    2  502    0  0.27820348689E+02 -0.60713830587E+02  0.43493409515E+03  0.44003159904E+03  0.25500000000E-02 0. -1.
<mgrwt>
<rscale>  0 0.13484713E+03</rscale>
<asrwt>0</asrwt>
<pdfrwt beam="1">  1        1 0.11835109E+00 0.13484713E+03</pdfrwt>
<pdfrwt beam="2">  1       -1 0.90912681E-03 0.13484713E+03</pdfrwt>
<totfact> 0.49389443E+04</totfact>
</mgrwt>
</event>
<event>
 4    1  0.3946801E-002  0.4484247E+02  0.7818608E-02  0.1475327E+00
          1   -1    0    0    0  501  0.00000000000E+00  0.00000000000E+00  0.53097114041E+01  0.53097137961E+01  0.50400000000E-02 0. -1.
         -1   -1    0    0  501    0 -0.00000000000E+00 -0.00000000000E+00 -0.94677767057E+02  0.94677767192E+02  0.50400000000E-02 0. -1.
          2    1    1    2    0  502  0.14535007772E+02  0.16706409825E+02 -0.36850920262E+02  0.42992568088E+02  0.25500000000E-02 0. -1.
         -2    1    1    2  502    0 -0.14535007772E+02 -0.16706409825E+02 -0.52517135392E+02  0.56994912900E+02  0.25500000000E-02 0. -1.
<mgrwt>
<rscale>  0 0.44842469E+02</rscale>
<asrwt>0</asrwt>
<pdfrwt beam="1">  1        1 0.81687894E-03 0.44842469E+02</pdfrwt>
<pdfrwt beam="2">  1       -1 0.14565809E-01 0.44842469E+02</pdfrwt>
<totfact> 0.49082760E+05</totfact>
</mgrwt>
</event>
<event>
 4    1  0.3946801E-002  0.4192989E+02  0.7818608E-02  0.1494471E+00
          1   -1    0    0    0  501  0.00000000000E+00  0.00000000000E+00  0.73270054511E+02  0.73270054685E+02  0.50400000000E-02 0.  1.
         -1   -1    0    0  501    0 -0.00000000000E+00 -0.00000000000E+00 -0.59987508774E+01  0.59987529946E+01  0.50400000000E-02 0.  1.
          2    1    1    2    0  502 -0.19582560297E+02 -0.73737847007E+01  0.36085680302E+02  0.41713615259E+02  0.25500000000E-02 0. -1.
         -2    1    1    2  502    0  0.19582560297E+02  0.73737847007E+01  0.31185623332E+02  0.37555192420E+02  0.25500000000E-02 0. -1.
<mgrwt>
<rscale>  0 0.41929889E+02</rscale>
<asrwt>0</asrwt>
<pdfrwt beam="1">  1        1 0.11272317E-01 0.41929889E+02</pdfrwt>
<pdfrwt beam="2">  1       -1 0.92288485E-03 0.41929889E+02</pdfrwt>
<totfact> 0.75514301E+05</totfact>
</mgrwt>
</event>
<event>
 4    1  0.3946801E-002  0.4570897E+02  0.7818608E-02  0.1469964E+00
          1   -1    0    0    0  501  0.00000000000E+00  0.00000000000E+00  0.17043243715E+03  0.17043243723E+03  0.50400000000E-02 0.  1.
         -1   -1    0    0  501    0 -0.00000000000E+00 -0.00000000000E+00 -0.30647167580E+01  0.30647209022E+01  0.50400000000E-02 0.  1.
          2    1    1    2    0  502  0.11204896677E+02  0.18908722564E+02  0.59907553727E+02  0.63812259783E+02  0.25500000000E-02 0. -1.
         -2    1    1    2  502    0 -0.11204896677E+02 -0.18908722564E+02  0.10746016667E+03  0.10968489835E+03  0.25500000000E-02 0. -1.
<mgrwt>
<rscale>  0 0.45708971E+02</rscale>
<asrwt>0</asrwt>
<pdfrwt beam="1">  1        1 0.26220375E-01 0.45708971E+02</pdfrwt>
<pdfrwt beam="2">  1       -1 0.47149522E-03 0.45708971E+02</pdfrwt>
<totfact> 0.68422502E+05</totfact>
</mgrwt>
</event>
<event>
 4    1  0.3946801E-002  0.5531442E+02  0.7818608E-02  0.1418618E+00
          1   -1    0    0    0  501  0.00000000000E+00  0.00000000000E+00  0.33650759858E+03  0.33650759862E+03  0.50400000000E-02 0.  1.
         -1   -1    0    0  501    0 -0.00000000000E+00 -0.00000000000E+00 -0.22731144484E+01  0.22731200358E+01  0.50400000000E-02 0.  1.
          2    1    1    2    0  502 -0.21897832419E+01  0.23500553539E+02  0.25541616590E+03  0.25650436444E+03  0.25500000000E-02 0.  1.
         -2    1    1    2  502    0  0.21897832419E+01 -0.23500553539E+02  0.78818318228E+02  0.82276354209E+02  0.25500000000E-02 0.  1.
<mgrwt>
<rscale>  0 0.55314419E+02</rscale>
<asrwt>0</asrwt>
<pdfrwt beam="1">  1        1 0.51770375E-01 0.55314419E+02</pdfrwt>
<pdfrwt beam="2">  1       -1 0.34971052E-03 0.55314419E+02</pdfrwt>
<totfact> 0.47789676E+05</totfact>
</mgrwt>
</event>
<event>
 4    1  0.3946801E-002  0.4084879E+02  0.7818608E-02  0.1502057E+00
         -1   -1    0    0  501    0 -0.00000000000E+00  0.00000000000E+00  0.29516015973E+00  0.29520318679E+00  0.50400000000E-02 0. -1.
          1   -1    0    0    0  501  0.00000000000E+00 -0.00000000000E+00 -0.14132177639E+04  0.14132177639E+04  0.50400000000E-02 0. -1.
          2    1    1    2    0  502 -0.17848234470E+02 -0.98860746504E+01 -0.73858943229E+03  0.73887119544E+03  0.25500000000E-02 0. -1.
         -2    1    1    2  502    0  0.17848234470E+02  0.98860746504E+01 -0.67433317144E+03  0.67464177165E+03  0.25500000000E-02 0. -1.
<mgrwt>
<rscale>  0 0.40848794E+02</rscale>
<asrwt>0</asrwt>
<pdfrwt beam="2">  1        1 0.21741270E+00 0.40848794E+02</pdfrwt>
<pdfrwt beam="1">  1       -1 0.45413697E-04 0.40848794E+02</pdfrwt>
<totfact> 0.89130192E+05</totfact>
</mgrwt>
</event>
<event>
 4    1  0.3946801E-002  0.4727342E+02  0.7818608E-02  0.1460628E+00
         -1   -1    0    0  501    0 -0.00000000000E+00  0.00000000000E+00  0.37477099582E+02  0.37477099921E+02  0.50400000000E-02 0. -1.
          1   -1    0    0    0  501  0.00000000000E+00 -0.00000000000E+00 -0.14907611380E+02  0.14907612232E+02  0.50400000000E-02 0. -1.
          2    1    1    2    0  502  0.20069333768E+02  0.57335757164E+01 -0.10070209191E+01  0.20896558234E+02  0.25500000000E-02 0. -1.
         -2    1    1    2  502    0 -0.20069333768E+02 -0.57335757164E+01  0.23576509121E+02  0.31488153919E+02  0.25500000000E-02 0. -1.
<mgrwt>
<rscale>  0 0.47273420E+02</rscale>
<asrwt>0</asrwt>
<pdfrwt beam="2">  1        1 0.22934788E-02 0.47273420E+02</pdfrwt>
<pdfrwt beam="1">  1       -1 0.57657077E-02 0.47273420E+02</pdfrwt>
<totfact> 0.48288630E+05</totfact>
</mgrwt>
</event>
<event>
 4    1  0.3946801E-002  0.5110125E+02  0.7818608E-02  0.1439491E+00
          1   -1    0    0    0  501  0.00000000000E+00  0.00000000000E+00  0.62806426350E+01  0.62806446572E+01  0.50400000000E-02 0. -1.
         -1   -1    0    0  501    0 -0.00000000000E+00 -0.00000000000E+00 -0.10394385764E+03  0.10394385776E+03  0.50400000000E-02 0. -1.
          2    1    1    2    0  502  0.23824926668E+02  0.86778748606E+01 -0.55618975225E+02  0.61126124157E+02  0.25500000000E-02 0.  1.
         -2    1    1    2  502    0 -0.23824926668E+02 -0.86778748606E+01 -0.42044239779E+02  0.49098378262E+02  0.25500000000E-02 0.  1.
<mgrwt>
<rscale>  0 0.51101246E+02</rscale>
<asrwt>0</asrwt>
<pdfrwt beam="1">  1        1 0.96625295E-03 0.51101246E+02</pdfrwt>
<pdfrwt beam="2">  1       -1 0.15991362E-01 0.51101246E+02</pdfrwt>
<totfact> 0.35038946E+05</totfact>
</mgrwt>
</event>
<event>
 4    1  0.3946801E-002  0.1102041E+03  0.7818608E-02  0.1260192E+00
          1   -1    0    0    0  501  0.00000000000E+00  0.00000000000E+00  0.72628555258E+03  0.72628555260E+03  0.50400000000E-02 0.  1.
         -1   -1    0    0  501    0 -0.00000000000E+00 -0.00000000000E+00 -0.41804972008E+01  0.41805002389E+01  0.50400000000E-02 0.  1.
          2    1    1    2    0  502 -0.34021804777E+02 -0.43181876079E+02  0.38592253799E+03  0.38981837175E+03  0.25500000000E-02 0. -1.
         -2    1    1    2  502    0  0.34021804777E+02  0.43181876079E+02  0.33618251739E+03  0.34064768108E+03  0.25500000000E-02 0. -1.
<mgrwt>
<rscale>  0 0.11020410E+03</rscale>
<asrwt>0</asrwt>
<pdfrwt beam="1">  1        1 0.11173632E+00 0.11020410E+03</pdfrwt>
<pdfrwt beam="2">  1       -1 0.64315320E-03 0.11020410E+03</pdfrwt>
<totfact> 0.85676699E+04</totfact>
</mgrwt>
</event>
<event>
 4    1  0.3946801E-002  0.4873838E+02  0.7818608E-02  0.1452268E+00
          1   -1    0    0    0  501  0.00000000000E+00  0.00000000000E+00  0.60530465541E+03  0.60530465543E+03  0.50400000000E-02 0. -1.
         -1   -1    0    0  501    0 -0.00000000000E+00 -0.00000000000E+00 -0.98108209109E+00  0.98109503671E+00  0.50400000000E-02 0. -1.
          2    1    1    2    0  502 -0.36079663085E+01 -0.21924497963E+02  0.42665500875E+03  0.42723318870E+03  0.25500000000E-02 0.  1.
         -2    1    1    2  502    0  0.36079663085E+01  0.21924497963E+02  0.17766856457E+03  0.17905256177E+03  0.25500000000E-02 0.  1.
<mgrwt>
<rscale>  0 0.48738383E+02</rscale>
<asrwt>0</asrwt>
<pdfrwt beam="1">  1        1 0.93124086E-01 0.48738383E+02</pdfrwt>
<pdfrwt beam="2">  1       -1 0.15093623E-03 0.48738383E+02</pdfrwt>
<totfact> 0.70496265E+05</totfact>
</mgrwt>
</event>
<event>
 4    1  0.3946801E-002  0.4402781E+02  0.7818608E-02  0.1480504E+00
          1   -1    0    0    0  501  0.00000000000E+00  0.00000000000E+00  0.47255342886E+00  0.47258030506E+00  0.50400000000E-02 0. -1.
         -1   -1    0    0  501    0 -0.00000000000E+00 -0.00000000000E+00 -0.10254885273E+04  0.10254885273E+04  0.50400000000E-02 0. -1.
          2    1    1    2    0  502  0.15652608064E+02  0.14541841382E+02 -0.38888873914E+03  0.38947518628E+03  0.25500000000E-02 0.  1.
         -2    1    1    2  502    0 -0.15652608064E+02 -0.14541841382E+02 -0.63612723469E+03  0.63648592130E+03  0.25500000000E-02 0.  1.
<mgrwt>
<rscale>  0 0.44027805E+02</rscale>
<asrwt>0</asrwt>
<pdfrwt beam="1">  1        1 0.72703417E-04 0.44027805E+02</pdfrwt>
<pdfrwt beam="2">  1       -1 0.15776569E+00 0.44027805E+02</pdfrwt>
<totfact> 0.15805571E+05</totfact>
</mgrwt>
</event>
<event>
 4    1  0.3946801E-002  0.9202624E+02  0.7818608E-02  0.1298018E+00
         -1   -1    0    0  501    0 -0.00000000000E+00  0.00000000000E+00  0.18350142740E+02  0.18350143432E+02  0.50400000000E-02 0. -1.
          1   -1    0    0    0  501  0.00000000000E+00 -0.00000000000E+00 -0.11537823134E+03  0.11537823145E+03  0.50400000000E-02 0. -1.
          2    1    1    2    0  502  0.74939265547E+01  0.18910112079E+02 -0.10849002205E+03  0.11038041568E+03  0.25500000000E-02 0. -1.
         -2    1    1    2  502    0 -0.74939265547E+01 -0.18910112079E+02  0.11461933451E+02  0.23347959204E+02  0.25500000000E-02 0. -1.
<mgrwt>
<rscale>  0 0.92026237E+02</rscale>
<asrwt>0</asrwt>
<pdfrwt beam="2">  1        1 0.17750497E-01 0.92026237E+02</pdfrwt>
<pdfrwt beam="1">  1       -1 0.28230990E-02 0.92026237E+02</pdfrwt>
<totfact> 0.10434547E+05</totfact>
</mgrwt>
</event>
<event>
 4    1  0.3946801E-002  0.9146324E+02  0.7818608E-02  0.1299346E+00
          1   -1    0    0    0  501  0.00000000000E+00  0.00000000000E+00  0.28012378000E+03  0.28012378004E+03  0.50400000000E-02 0.  1.
         -1   -1    0    0  501    0 -0.00000000000E+00 -0.00000000000E+00 -0.74659165737E+01  0.74659182748E+01  0.50400000000E-02 0.  1.
          2    1    1    2    0  502 -0.34505824498E+02 -0.17641261424E+02  0.21267280210E+03  0.21617489861E+03  0.25500000000E-02 0. -1.
         -2    1    1    2  502    0  0.34505824498E+02  0.17641261424E+02  0.59985061321E+02  0.71414799707E+02  0.25500000000E-02 0. -1.
<mgrwt>
<rscale>  0 0.91463239E+02</rscale>
<asrwt>0</asrwt>
<pdfrwt beam="1">  1        1 0.43095966E-01 0.91463239E+02</pdfrwt>
<pdfrwt beam="2">  1       -1 0.11486027E-02 0.91463239E+02</pdfrwt>
<totfact> 0.12538984E+05</totfact>
</mgrwt>
</event>
<event>
 4    1  0.3946801E-002  0.6250937E+02  0.7818608E-02  0.1387593E+00
          1   -1    0    0    0  501  0.00000000000E+00  0.00000000000E+00  0.11183837402E+03  0.11183837414E+03  0.50400000000E-02 0.  1.
         -1   -1    0    0  501    0 -0.00000000000E+00 -0.00000000000E+00 -0.87345252271E+01  0.87345266812E+01  0.50400000000E-02 0.  1.
          2    1    1    2    0  502  0.25593713915E+02  0.18696877468E-01  0.86154535434E+02  0.89875705971E+02  0.25500000000E-02 0. -1.
         -2    1    1    2  502    0 -0.25593713915E+02 -0.18696877468E-01  0.16949313364E+02  0.30697194848E+02  0.25500000000E-02 0. -1.
<mgrwt>
<rscale>  0 0.62509365E+02</rscale>
<asrwt>0</asrwt>
<pdfrwt beam="1">  1        1 0.17205905E-01 0.62509365E+02</pdfrwt>
<pdfrwt beam="2">  1       -1 0.13437731E-02 0.62509365E+02</pdfrwt>
<totfact> 0.28978052E+05</totfact>
</mgrwt>
</event>
<event>
 4    1  0.3946801E-002  0.4575297E+02  0.7818608E-02  0.1469695E+00
          1   -1    0    0    0  501  0.00000000000E+00  0.00000000000E+00  0.22905109278E+01  0.22905164727E+01  0.50400000000E-02 0. -1.
         -1   -1    0    0  501    0 -0.00000000000E+00 -0.00000000000E+00 -0.22847867044E+03  0.22847867050E+03  0.50400000000E-02 0. -1.
          2    1    1    2    0  502 -0.81533645888E+01  0.21370534990E+02 -0.11508884828E+03  0.11733976361E+03  0.25500000000E-02 0. -1.
         -2    1    1    2  502    0  0.81533645888E+01 -0.21370534990E+02 -0.11109931123E+03  0.11342942336E+03  0.25500000000E-02 0. -1.
<mgrwt>
<rscale>  0 0.45752969E+02</rscale>
<asrwt>0</asrwt>
<pdfrwt beam="1">  1        1 0.35238691E-03 0.45752969E+02</pdfrwt>
<pdfrwt beam="2">  1       -1 0.35150547E-01 0.45752969E+02</pdfrwt>
<totfact> 0.38376719E+05</totfact>
</mgrwt>
</event>
<event>
 4    1  0.3946801E-002  0.4520012E+02  0.7818608E-02  0.1473096E+00
          1   -1    0    0    0  501  0.00000000000E+00  0.00000000000E+00  0.94372210288E+02  0.94372210423E+02  0.50400000000E-02 0.  1.
         -1   -1    0    0  501    0 -0.00000000000E+00 -0.00000000000E+00 -0.54122136645E+01  0.54122160112E+01  0.50400000000E-02 0.  1.
          2    1    1    2    0  502 -0.35540508555E+01  0.21674223314E+02  0.32723659710E+02  0.39411180458E+02  0.25500000000E-02 0.  1.
         -2    1    1    2  502    0  0.35540508555E+01 -0.21674223314E+02  0.56236336913E+02  0.60373245976E+02  0.25500000000E-02 0.  1.
<mgrwt>
<rscale>  0 0.45200119E+02</rscale>
<asrwt>0</asrwt>
<pdfrwt beam="1">  1        1 0.14518801E-01 0.45200119E+02</pdfrwt>
<pdfrwt beam="2">  1       -1 0.83264847E-03 0.45200119E+02</pdfrwt>
<totfact> 0.64552451E+05</totfact>
</mgrwt>
</event>
<event>
 4    1  0.3946801E-002  0.4089080E+02  0.7818608E-02  0.1501757E+00
         -1   -1    0    0  501    0 -0.00000000000E+00  0.00000000000E+00  0.25721243609E+00  0.25726180999E+00  0.50400000000E-02 0.  1.
          1   -1    0    0    0  501  0.00000000000E+00 -0.00000000000E+00 -0.16250155142E+04  0.16250155142E+04  0.50400000000E-02 0.  1.
          2    1    1    2    0  502  0.13765585249E+02  0.14598443280E+02 -0.96839905112E+03  0.96860690071E+03  0.25500000000E-02 0. -1.
         -2    1    1    2  502    0 -0.13765585249E+02 -0.14598443280E+02 -0.65635925066E+03  0.65666587533E+03  0.25500000000E-02 0. -1.
<mgrwt>
<rscale>  0 0.40890797E+02</rscale>
<asrwt>0</asrwt>
<pdfrwt beam="2">  1        1 0.24999417E+00 0.40890797E+02</pdfrwt>
<pdfrwt beam="1">  1       -1 0.39576244E-04 0.40890797E+02</pdfrwt>
<totfact> 0.79390809E+05</totfact>
</mgrwt>
</event>
<event>
 4    1  0.3946801E-002  0.4252731E+02  0.7818608E-02  0.1490396E+00
          1   -1    0    0    0  501  0.00000000000E+00  0.00000000000E+00  0.83254112362E+02  0.83254112515E+02  0.50400000000E-02 0.  1.
         -1   -1    0    0  501    0 -0.00000000000E+00 -0.00000000000E+00 -0.54308788329E+01  0.54308811715E+01  0.50400000000E-02 0.  1.
          2    1    1    2    0  502  0.15055696700E+02  0.14946744242E+02  0.41907535921E+02  0.46971488586E+02  0.25500000000E-02 0.  1.
         -2    1    1    2  502    0 -0.15055696700E+02 -0.14946744242E+02  0.35915697609E+02  0.41713505100E+02  0.25500000000E-02 0.  1.
<mgrwt>
<rscale>  0 0.42527314E+02</rscale>
<asrwt>0</asrwt>
<pdfrwt beam="1">  1        1 0.12808325E-01 0.42527314E+02</pdfrwt>
<pdfrwt beam="2">  1       -1 0.83552003E-03 0.42527314E+02</pdfrwt>
<totfact> 0.73978115E+05</totfact>
</mgrwt>
</event>
<event>
 4    1  0.3946801E-002  0.4050832E+02  0.7818608E-02  0.1504504E+00
          1   -1    0    0    0  501  0.00000000000E+00  0.00000000000E+00  0.64749988414E+01  0.64750008029E+01  0.50400000000E-02 0. -1.
         -1   -1    0    0  501    0 -0.00000000000E+00 -0.00000000000E+00 -0.63356136271E+02  0.63356136472E+02  0.50400000000E-02 0. -1.
          2    1    1    2    0  502  0.16335129607E+02 -0.11948392407E+02 -0.27071813080E+02  0.33800645118E+02  0.25500000000E-02 0.  1.
         -2    1    1    2  502    0 -0.16335129607E+02  0.11948392407E+02 -0.29809324349E+02  0.36030492157E+02  0.25500000000E-02 0.  1.
<mgrwt>
<rscale>  0 0.40508319E+02</rscale>
<asrwt>0</asrwt>
<pdfrwt beam="1">  1        1 0.99615388E-03 0.40508319E+02</pdfrwt>
<pdfrwt beam="2">  1       -1 0.97470976E-02 0.40508319E+02</pdfrwt>
<totfact> 0.66445745E+05</totfact>
</mgrwt>
</event>
<event>
 4    1  0.3946801E-002  0.4593538E+02  0.7818608E-02  0.1468585E+00
         -1   -1    0    0  501    0 -0.00000000000E+00  0.00000000000E+00  0.47363494139E+00  0.47366175622E+00  0.50400000000E-02 0.  1.
          1   -1    0    0    0  501  0.00000000000E+00 -0.00000000000E+00 -0.11137266280E+04  0.11137266280E+04  0.50400000000E-02 0.  1.
          2    1    1    2    0  502  0.22939375480E+02 -0.94024836904E+00 -0.57226670804E+03  0.57272705903E+03  0.25500000000E-02 0.  1.
         -2    1    1    2  502    0 -0.22939375480E+02  0.94024836904E+00 -0.54098628504E+03  0.54147323075E+03  0.25500000000E-02 0.  1.
<mgrwt>
<rscale>  0 0.45935380E+02</rscale>
<asrwt>0</asrwt>
<pdfrwt beam="2">  1        1 0.17134046E+00 0.45935380E+02</pdfrwt>
<pdfrwt beam="1">  1       -1 0.72869869E-04 0.45935380E+02</pdfrwt>
<totfact> 0.75652935E+05</totfact>
</mgrwt>
</event>
<event>
 4    1  0.3946801E-002  0.5217913E+02  0.7818608E-02  0.1433930E+00
          1   -1    0    0    0  501  0.00000000000E+00  0.00000000000E+00  0.25198982868E+01  0.25199033270E+01  0.50400000000E-02 0. -1.
         -1   -1    0    0  501    0 -0.00000000000E+00 -0.00000000000E+00 -0.27011592954E+03  0.27011592959E+03  0.50400000000E-02 0. -1.
          2    1    1    2    0  502  0.16548925863E+02  0.18998979977E+02 -0.98423133492E+02  0.10159695566E+03  0.25500000000E-02 0. -1.
         -2    1    1    2  502    0 -0.16548925863E+02 -0.18998979977E+02 -0.16917289776E+03  0.17103887725E+03  0.25500000000E-02 0. -1.
<mgrwt>
<rscale>  0 0.52179128E+02</rscale>
<asrwt>0</asrwt>
<pdfrwt beam="1">  1        1 0.38767726E-03 0.52179128E+02</pdfrwt>
<pdfrwt beam="2">  1       -1 0.41556275E-01 0.52179128E+02</pdfrwt>
<totfact> 0.26234937E+05</totfact>
</mgrwt>
</event>
<event>
 4    1  0.3946801E-002  0.7335178E+02  0.7818608E-02  0.1349052E+00
          1   -1    0    0    0  501  0.00000000000E+00  0.00000000000E+00  0.61152703758E+03  0.61152703760E+03  0.50400000000E-02 0. -1.
         -1   -1    0    0  501    0 -0.00000000000E+00 -0.00000000000E+00 -0.21996066931E+01  0.21996124672E+01  0.50400000000E-02 0. -1.
          2    1    1    2    0  502 -0.93445823294E+01 -0.34070918056E+02  0.38705621218E+03  0.38866522879E+03  0.25500000000E-02 0.  1.
         -2    1    1    2  502    0  0.93445823294E+01  0.34070918056E+02  0.22227121871E+03  0.22506142128E+03  0.25500000000E-02 0.  1.
<mgrwt>
<rscale>  0 0.73351776E+02</rscale>
<asrwt>0</asrwt>
<pdfrwt beam="1">  1        1 0.94081278E-01 0.73351776E+02</pdfrwt>
<pdfrwt beam="2">  1       -1 0.33840077E-03 0.73351776E+02</pdfrwt>
<totfact> 0.25050277E+05</totfact>
</mgrwt>
</event>
<event>
 4    1  0.3946801E-002  0.4866827E+02  0.7818608E-02  0.1452660E+00
         -1   -1    0    0  501    0 -0.00000000000E+00  0.00000000000E+00  0.18831182807E+02  0.18831183482E+02  0.50400000000E-02 0.  1.
          1   -1    0    0    0  501  0.00000000000E+00 -0.00000000000E+00 -0.31445195035E+02  0.31445195438E+02  0.50400000000E-02 0.  1.
          2    1    1    2    0  502 -0.15590793552E+02 -0.15522573948E+02  0.44349976189E+01  0.22443091497E+02  0.25500000000E-02 0. -1.
         -2    1    1    2  502    0  0.15590793552E+02  0.15522573948E+02 -0.17049009846E+02  0.27833287423E+02  0.25500000000E-02 0. -1.
<mgrwt>
<rscale>  0 0.48668275E+02</rscale>
<asrwt>0</asrwt>
<pdfrwt beam="2">  1        1 0.48377224E-02 0.48668275E+02</pdfrwt>
<pdfrwt beam="1">  1       -1 0.28971051E-02 0.48668275E+02</pdfrwt>
<totfact> 0.47863044E+05</totfact>
</mgrwt>
</event>
<event>
 4    1  0.3946801E-002  0.4630422E+02  0.7818608E-02  0.1466360E+00
         -1   -1    0    0  501    0 -0.00000000000E+00  0.00000000000E+00  0.85657649044E+00  0.85659131770E+00  0.50400000000E-02 0. -1.
          1   -1    0    0    0  501  0.00000000000E+00 -0.00000000000E+00 -0.62576496719E+03  0.62576496721E+03  0.50400000000E-02 0. -1.
          2    1    1    2    0  502 -0.94366932144E+01 -0.18028697383E+02 -0.46188809066E+03  0.46233612601E+03  0.25500000000E-02 0.  1.
         -2    1    1    2  502    0  0.94366932144E+01  0.18028697383E+02 -0.16302030004E+03  0.16428543252E+03  0.25500000000E-02 0.  1.
<mgrwt>
<rscale>  0 0.46304221E+02</rscale>
<asrwt>0</asrwt>
<pdfrwt beam="2">  1        1 0.96271169E-01 0.46304221E+02</pdfrwt>
<pdfrwt beam="1">  1       -1 0.13178264E-03 0.46304221E+02</pdfrwt>
<totfact> 0.80100284E+05</totfact>
</mgrwt>
</event>
<event>
 4    1  0.3946801E-002  0.4708637E+02  0.7818608E-02  0.1461722E+00
         -1   -1    0    0  501    0 -0.00000000000E+00  0.00000000000E+00  0.47690626951E+00  0.47693290042E+00  0.50400000000E-02 0. -1.
          1   -1    0    0    0  501  0.00000000000E+00 -0.00000000000E+00 -0.11622119613E+04  0.11622119613E+04  0.50400000000E-02 0. -1.
          2    1    1    2    0  502  0.48704612182E+01 -0.22386844731E+02 -0.44700348020E+03  0.44759021831E+03  0.25500000000E-02 0.  1.
         -2    1    1    2  502    0 -0.48704612182E+01  0.22386844731E+02 -0.71473157482E+03  0.71509867589E+03  0.25500000000E-02 0.  1.
<mgrwt>
<rscale>  0 0.47086374E+02</rscale>
<asrwt>0</asrwt>
<pdfrwt beam="2">  1        1 0.17879958E+00 0.47086374E+02</pdfrwt>
<pdfrwt beam="1">  1       -1 0.73373175E-04 0.47086374E+02</pdfrwt>
<totfact> 0.69990453E+05</totfact>
</mgrwt>
</event>
<event>
 4    1  0.3946801E-002  0.6716286E+02  0.7818608E-02  0.1370016E+00
          1   -1    0    0    0  501  0.00000000000E+00  0.00000000000E+00  0.34310466892E+02  0.34310467262E+02  0.50400000000E-02 0.  1.
         -1   -1    0    0  501    0 -0.00000000000E+00 -0.00000000000E+00 -0.32867883396E+02  0.32867883783E+02  0.50400000000E-02 0.  1.
          2    1    1    2    0  502 -0.18614719822E+01 -0.33088978444E+02 -0.46990790666E+01  0.33472778836E+02  0.25500000000E-02 0. -1.
         -2    1    1    2  502    0  0.18614719822E+01  0.33088978444E+02  0.61416625617E+01  0.33705572209E+02  0.25500000000E-02 0. -1.
<mgrwt>
<rscale>  0 0.67162860E+02</rscale>
<asrwt>0</asrwt>
<pdfrwt beam="1">  1        1 0.52785334E-02 0.67162860E+02</pdfrwt>
<pdfrwt beam="2">  1       -1 0.50565976E-02 0.67162860E+02</pdfrwt>
<totfact> 0.20659847E+05</totfact>
</mgrwt>
</event>
<event>
 4    1  0.3946801E-002  0.5678320E+02  0.7818608E-02  0.1411849E+00
         -1   -1    0    0  501    0 -0.00000000000E+00  0.00000000000E+00  0.42919104422E+03  0.42919104425E+03  0.50400000000E-02 0.  1.
          1   -1    0    0    0  501  0.00000000000E+00 -0.00000000000E+00 -0.18781411920E+01  0.18781479544E+01  0.50400000000E-02 0.  1.
          2    1    1    2    0  502  0.27003664107E+01  0.27751600559E+02  0.17302989133E+03  0.17526205126E+03  0.25500000000E-02 0. -1.
         -2    1    1    2  502    0 -0.27003664107E+01 -0.27751600559E+02  0.25428301170E+03  0.25580714095E+03  0.25500000000E-02 0. -1.
<mgrwt>
<rscale>  0 0.56783196E+02</rscale>
<asrwt>0</asrwt>
<pdfrwt beam="2">  1        1 0.28894508E-03 0.56783196E+02</pdfrwt>
<pdfrwt beam="1">  1       -1 0.66029448E-01 0.56783196E+02</pdfrwt>
<totfact> 0.17337491E+05</totfact>
</mgrwt>
</event>
<event>
 4    1  0.3946801E-002  0.4327659E+02  0.7818608E-02  0.1485397E+00
         -1   -1    0    0  501    0 -0.00000000000E+00  0.00000000000E+00  0.44051859002E+02  0.44051859290E+02  0.50400000000E-02 0. -1.
          1   -1    0    0    0  501  0.00000000000E+00 -0.00000000000E+00 -0.10628738866E+02  0.10628740061E+02  0.50400000000E-02 0. -1.
          2    1    1    2    0  502 -0.69292093039E+01 -0.19759892623E+02  0.98200820503E+01  0.23127933674E+02  0.25500000000E-02 0. -1.
         -2    1    1    2  502    0  0.69292093039E+01  0.19759892623E+02  0.23603038085E+02  0.31552665678E+02  0.25500000000E-02 0. -1.
<mgrwt>
<rscale>  0 0.43276587E+02</rscale>
<asrwt>0</asrwt>
<pdfrwt beam="2">  1        1 0.16351907E-02 0.43276587E+02</pdfrwt>
<pdfrwt beam="1">  1       -1 0.67772092E-02 0.43276587E+02</pdfrwt>
<totfact> 0.58924950E+05</totfact>
</mgrwt>
</event>
<event>
 4    1  0.3946801E-002  0.4092501E+02  0.7818608E-02  0.1501513E+00
         -1   -1    0    0  501    0 -0.00000000000E+00  0.00000000000E+00  0.17630460281E+01  0.17630532320E+01  0.50400000000E-02 0.  1.
          1   -1    0    0    0  501  0.00000000000E+00 -0.00000000000E+00 -0.23749426983E+03  0.23749426988E+03  0.50400000000E-02 0.  1.
          2    1    1    2    0  502 -0.50104572161E+01  0.19572399042E+02 -0.13683726280E+03  0.13832071423E+03  0.25500000000E-02 0.  1.
         -2    1    1    2  502    0  0.50104572161E+01 -0.19572399042E+02 -0.98893960998E+02  0.10093660889E+03  0.25500000000E-02 0.  1.
<mgrwt>
<rscale>  0 0.40925014E+02</rscale>
<asrwt>0</asrwt>
<pdfrwt beam="2">  1        1 0.36537555E-01 0.40925014E+02</pdfrwt>
<pdfrwt beam="1">  1       -1 0.27123860E-03 0.40925014E+02</pdfrwt>
<totfact> 0.94967114E+05</totfact>
</mgrwt>
</event>
<event>
 4    1  0.3946801E-002  0.4229067E+02  0.7818608E-02  0.1492001E+00
         -1   -1    0    0  501    0 -0.00000000000E+00  0.00000000000E+00  0.38689770654E+01  0.38689803482E+01  0.50400000000E-02 0. -1.
          1   -1    0    0    0  501  0.00000000000E+00 -0.00000000000E+00 -0.11556674279E+03  0.11556674290E+03  0.50400000000E-02 0. -1.
          2    1    1    2    0  502  0.20789939235E+02 -0.69785970472E+00 -0.66572034431E+02  0.69746285610E+02  0.25500000000E-02 0. -1.
         -2    1    1    2  502    0 -0.20789939235E+02  0.69785970472E+00 -0.45125731296E+02  0.49689437641E+02  0.25500000000E-02 0. -1.
<mgrwt>
<rscale>  0 0.42290674E+02</rscale>
<asrwt>0</asrwt>
<pdfrwt beam="2">  1        1 0.17779497E-01 0.42290674E+02</pdfrwt>
<pdfrwt beam="1">  1       -1 0.59522759E-03 0.42290674E+02</pdfrwt>
<totfact> 0.78208294E+05</totfact>
</mgrwt>
</event>
<event>
 4    1  0.3946801E-002  0.5800180E+02  0.7818608E-02  0.1406414E+00
          1   -1    0    0    0  501  0.00000000000E+00  0.00000000000E+00  0.10984677276E+02  0.10984678432E+02  0.50400000000E-02 0. -1.
         -1   -1    0    0  501    0 -0.00000000000E+00 -0.00000000000E+00 -0.76565932832E+02  0.76565932998E+02  0.50400000000E-02 0. -1.
          2    1    1    2    0  502 -0.94021013844E+01 -0.21839343203E+02 -0.57853608648E+02  0.62549152369E+02  0.25500000000E-02 0.  1.
         -2    1    1    2  502    0  0.94021013844E+01  0.21839343203E+02 -0.77276469088E+01  0.25001459062E+02  0.25500000000E-02 0.  1.
<mgrwt>
<rscale>  0 0.58001797E+02</rscale>
<asrwt>0</asrwt>
<pdfrwt beam="1">  1        1 0.16899505E-02 0.58001797E+02</pdfrwt>
<pdfrwt beam="2">  1       -1 0.11779374E-01 0.58001797E+02</pdfrwt>
<totfact> 0.26808366E+05</totfact>
</mgrwt>
</event>
<event>
 4    1  0.3946801E-002  0.4845833E+02  0.7818608E-02  0.1453839E+00
          1   -1    0    0    0  501  0.00000000000E+00  0.00000000000E+00  0.64554630941E+03  0.64554630943E+03  0.50400000000E-02 0. -1.
         -1   -1    0    0  501    0 -0.00000000000E+00 -0.00000000000E+00 -0.90938164683E+00  0.90939561313E+00  0.50400000000E-02 0. -1.
          2    1    1    2    0  502 -0.15627703050E+02 -0.18361626503E+02  0.35410695425E+03  0.35492690724E+03  0.25500000000E-02 0. -1.
         -2    1    1    2  502    0  0.15627703050E+02  0.18361626503E+02  0.29052997351E+03  0.29152879780E+03  0.25500000000E-02 0. -1.
<mgrwt>
<rscale>  0 0.48458332E+02</rscale>
<asrwt>0</asrwt>
<pdfrwt beam="1">  1        1 0.99315127E-01 0.48458332E+02</pdfrwt>
<pdfrwt beam="2">  1       -1 0.13990551E-03 0.48458332E+02</pdfrwt>
<totfact> 0.71675204E+05</totfact>
</mgrwt>
</event>
<event>
 4    1  0.3946801E-002  0.5074847E+02  0.7818608E-02  0.1441346E+00
         -1   -1    0    0  501    0 -0.00000000000E+00  0.00000000000E+00  0.39152124844E+00  0.39155368671E+00  0.50400000000E-02 0.  1.
          1   -1    0    0    0  501  0.00000000000E+00 -0.00000000000E+00 -0.16444192316E+04  0.16444192316E+04  0.50400000000E-02 0.  1.
          2    1    1    2    0  502  0.24834503587E+02 -0.37907159850E+01 -0.70637566979E+03  0.70682226123E+03  0.25500000000E-02 0.  1.
         -2    1    1    2  502    0 -0.24834503587E+02  0.37907159850E+01 -0.93765204054E+03  0.93798852404E+03  0.25500000000E-02 0.  1.
<mgrwt>
<rscale>  0 0.50748468E+02</rscale>
<asrwt>0</asrwt>
<pdfrwt beam="2">  1        1 0.25298205E+00 0.50748468E+02</pdfrwt>
<pdfrwt beam="1">  1       -1 0.60237851E-04 0.50748468E+02</pdfrwt>
<totfact> 0.45983097E+05</totfact>
</mgrwt>
</event>
<event>
 4    1  0.3946801E-002  0.1185444E+03  0.7818608E-02  0.1245518E+00
         -1   -1    0    0  501    0 -0.00000000000E+00  0.00000000000E+00  0.14953978830E+02  0.14953979680E+02  0.50400000000E-02 0.  1.
          1   -1    0    0    0  501  0.00000000000E+00 -0.00000000000E+00 -0.23493387300E+03  0.23493387305E+03  0.50400000000E-02 0.  1.
          2    1    1    2    0  502  0.25582398666E+02 -0.53463246294E+02 -0.11135353325E+03  0.12614431101E+03  0.25500000000E-02 0.  1.
         -2    1    1    2  502    0 -0.25582398666E+02  0.53463246294E+02 -0.10862636092E+03  0.12374354173E+03  0.25500000000E-02 0.  1.
<mgrwt>
<rscale>  0 0.11854444E+03</rscale>
<asrwt>0</asrwt>
<pdfrwt beam="2">  1        1 0.36143670E-01 0.11854444E+03</pdfrwt>
<pdfrwt beam="1">  1       -1 0.23006124E-02 0.11854444E+03</pdfrwt>
<totfact> 0.59922025E+04</totfact>
</mgrwt>
</event>
<event>
 4    1  0.3946801E-002  0.6728909E+02  0.7818608E-02  0.1369562E+00
         -1   -1    0    0  501    0 -0.00000000000E+00  0.00000000000E+00  0.19695232428E+02  0.19695233073E+02  0.50400000000E-02 0.  1.
          1   -1    0    0    0  501  0.00000000000E+00 -0.00000000000E+00 -0.57473565213E+02  0.57473565434E+02  0.50400000000E-02 0.  1.
          2    1    1    2    0  502 -0.23108594014E+02 -0.20948522839E+02 -0.33354966957E+02  0.45666197056E+02  0.25500000000E-02 0.  1.
         -2    1    1    2  502    0  0.23108594014E+02  0.20948522839E+02 -0.44233658277E+01  0.31502601451E+02  0.25500000000E-02 0.  1.
<mgrwt>
<rscale>  0 0.67289086E+02</rscale>
<asrwt>0</asrwt>
<pdfrwt beam="2">  1        1 0.88420869E-02 0.67289086E+02</pdfrwt>
<pdfrwt beam="1">  1       -1 0.30300359E-02 0.67289086E+02</pdfrwt>
<totfact> 0.21845594E+05</totfact>
</mgrwt>
</event>
<event>
 4    1  0.3946801E-002  0.6836001E+02  0.7818608E-02  0.1365760E+00
          1   -1    0    0    0  501  0.00000000000E+00  0.00000000000E+00  0.25900212791E+03  0.25900212795E+03  0.50400000000E-02 0.  1.
         -1   -1    0    0  501    0 -0.00000000000E+00 -0.00000000000E+00 -0.45106671320E+01  0.45106699477E+01  0.50400000000E-02 0.  1.
          2    1    1    2    0  502 -0.19235783345E+02 -0.24400253222E+02  0.72339124100E+02  0.78729515432E+02  0.25500000000E-02 0.  1.
         -2    1    1    2  502    0  0.19235783345E+02  0.24400253222E+02  0.18215233667E+03  0.18478328247E+03  0.25500000000E-02 0.  1.
<mgrwt>
<rscale>  0 0.68360011E+02</rscale>
<asrwt>0</asrwt>
<pdfrwt beam="1">  1        1 0.39846496E-01 0.68360011E+02</pdfrwt>
<pdfrwt beam="2">  1       -1 0.69394876E-03 0.68360011E+02</pdfrwt>
<totfact> 0.26549181E+05</totfact>
</mgrwt>
</event>
<event>
 4    1  0.3946801E-002  0.4504311E+02  0.7818608E-02  0.1474073E+00
          1   -1    0    0    0  501  0.00000000000E+00  0.00000000000E+00  0.62410901449E+01  0.62410921799E+01  0.50400000000E-02 0. -1.
         -1   -1    0    0  501    0 -0.00000000000E+00 -0.00000000000E+00 -0.81271101538E+02  0.81271101694E+02  0.50400000000E-02 0. -1.
          2    1    1    2    0  502 -0.14565856034E+02 -0.17174441812E+02 -0.36916976671E+02  0.43243366966E+02  0.25500000000E-02 0. -1.
         -2    1    1    2  502    0  0.14565856034E+02  0.17174441812E+02 -0.38113034722E+02  0.44268826907E+02  0.25500000000E-02 0. -1.
<mgrwt>
<rscale>  0 0.45043107E+02</rscale>
<asrwt>0</asrwt>
<pdfrwt beam="1">  1        1 0.96016794E-03 0.45043107E+02</pdfrwt>
<pdfrwt beam="2">  1       -1 0.12503246E-01 0.45043107E+02</pdfrwt>
<totfact> 0.49681055E+05</totfact>
</mgrwt>
</event>
<event>
 4    1  0.3946801E-002  0.5237295E+02  0.7818608E-02  0.1432947E+00
         -1   -1    0    0  501    0 -0.00000000000E+00  0.00000000000E+00  0.10437305659E+03  0.10437305671E+03  0.50400000000E-02 0. -1.
          1   -1    0    0    0  501  0.00000000000E+00 -0.00000000000E+00 -0.65700047551E+01  0.65700066882E+01  0.50400000000E-02 0. -1.
          2    1    1    2    0  502  0.19611667060E+02  0.14824281424E+02  0.68008179029E+02  0.72315207432E+02  0.25500000000E-02 0.  1.
         -2    1    1    2  502    0 -0.19611667060E+02 -0.14824281424E+02  0.29794872806E+02  0.38627855967E+02  0.25500000000E-02 0.  1.
<mgrwt>
<rscale>  0 0.52372955E+02</rscale>
<asrwt>0</asrwt>
<pdfrwt beam="2">  1        1 0.10107702E-02 0.52372955E+02</pdfrwt>
<pdfrwt beam="1">  1       -1 0.16057392E-01 0.52372955E+02</pdfrwt>
<totfact> 0.32942509E+05</totfact>
</mgrwt>
</event>
<event>
 4    1  0.3946801E-002  0.4659157E+02  0.7818608E-02  0.1464644E+00
          1   -1    0    0    0  501  0.00000000000E+00  0.00000000000E+00  0.43418978871E+03  0.43418978874E+03  0.50400000000E-02 0. -1.
         -1   -1    0    0  501    0 -0.00000000000E+00 -0.00000000000E+00 -0.12498945858E+01  0.12499047472E+01  0.50400000000E-02 0. -1.
          2    1    1    2    0  502  0.19748134947E+02  0.51548401016E+01  0.32143242690E+03  0.32207975142E+03  0.25500000000E-02 0. -1.
         -2    1    1    2  502    0 -0.19748134947E+02 -0.51548401016E+01  0.11150746723E+03  0.11335994206E+03  0.25500000000E-02 0. -1.
<mgrwt>
<rscale>  0 0.46591574E+02</rscale>
<asrwt>0</asrwt>
<pdfrwt beam="1">  1        1 0.66798374E-01 0.46591574E+02</pdfrwt>
<pdfrwt beam="2">  1       -1 0.19229242E-03 0.46591574E+02</pdfrwt>
<totfact> 0.76261170E+05</totfact>
</mgrwt>
</event>
<event>
 4    1  0.3946801E-002  0.6295725E+02  0.7818608E-02  0.1385824E+00
         -1   -1    0    0  501    0 -0.00000000000E+00  0.00000000000E+00  0.14303610750E+01  0.14303699544E+01  0.50400000000E-02 0.  1.
          1   -1    0    0    0  501  0.00000000000E+00 -0.00000000000E+00 -0.69276276458E+03  0.69276276460E+03  0.50400000000E-02 0.  1.
          2    1    1    2    0  502  0.76701862739E+01 -0.28835282660E+02 -0.23507242314E+03  0.23695853943E+03  0.25500000000E-02 0.  1.
         -2    1    1    2  502    0 -0.76701862739E+01  0.28835282660E+02 -0.45625998037E+03  0.45723459513E+03  0.25500000000E-02 0.  1.
<mgrwt>
<rscale>  0 0.62957255E+02</rscale>
<asrwt>0</asrwt>
<pdfrwt beam="2">  1        1 0.10657862E+00 0.62957255E+02</pdfrwt>
<pdfrwt beam="1">  1       -1 0.22005679E-03 0.62957255E+02</pdfrwt>
<totfact> 0.37188976E+05</totfact>
</mgrwt>
</event>
<event>
 4    1  0.3946801E-002  0.6369186E+02  0.7818608E-02  0.1382961E+00
         -1   -1    0    0  501    0 -0.00000000000E+00  0.00000000000E+00  0.34027749289E+01  0.34027786613E+01  0.50400000000E-02 0. -1.
          1   -1    0    0    0  501  0.00000000000E+00 -0.00000000000E+00 -0.29803985504E+03  0.29803985509E+03  0.50400000000E-02 0. -1.
          2    1    1    2    0  502  0.14136335431E+02  0.21536753944E+02 -0.23592429091E+03  0.23732664999E+03  0.25500000000E-02 0. -1.
         -2    1    1    2  502    0 -0.14136335431E+02 -0.21536753944E+02 -0.58712789205E+02  0.64115983753E+02  0.25500000000E-02 0. -1.
<mgrwt>
<rscale>  0 0.63691856E+02</rscale>
<asrwt>0</asrwt>
<pdfrwt beam="2">  1        1 0.45852265E-01 0.63691856E+02</pdfrwt>
<pdfrwt beam="1">  1       -1 0.52350436E-03 0.63691856E+02</pdfrwt>
<totfact> 0.32688505E+05</totfact>
</mgrwt>
</event>
<event>
 4    1  0.3946801E-002  0.4757906E+02  0.7818608E-02  0.1458855E+00
         -1   -1    0    0  501    0 -0.00000000000E+00  0.00000000000E+00  0.14873927843E+03  0.14873927851E+03  0.50400000000E-02 0. -1.
          1   -1    0    0    0  501  0.00000000000E+00 -0.00000000000E+00 -0.38049221627E+01  0.38049255007E+01  0.50400000000E-02 0. -1.
          2    1    1    2    0  502 -0.17109308848E+02  0.15353916481E+02  0.92092836560E+02  0.94918711289E+02  0.25500000000E-02 0.  1.
         -2    1    1    2  502    0  0.17109308848E+02 -0.15353916481E+02  0.52841519705E+02  0.57625492725E+02  0.25500000000E-02 0.  1.
<mgrwt>
<rscale>  0 0.47579056E+02</rscale>
<asrwt>0</asrwt>
<pdfrwt beam="2">  1        1 0.58537296E-03 0.47579056E+02</pdfrwt>
<pdfrwt beam="1">  1       -1 0.22882964E-01 0.47579056E+02</pdfrwt>
<totfact> 0.38993881E+05</totfact>
</mgrwt>
</event>
<event>
 4    1  0.3946801E-002  0.6428687E+02  0.7818608E-02  0.1380674E+00
         -1   -1    0    0  501    0 -0.00000000000E+00  0.00000000000E+00  0.21194416054E+01  0.21194475979E+01  0.50400000000E-02 0.  1.
          1   -1    0    0    0  501  0.00000000000E+00 -0.00000000000E+00 -0.48748641866E+03  0.48748641869E+03  0.50400000000E-02 0.  1.
          2    1    1    2    0  502 -0.19738427243E+02 -0.24470745306E+02 -0.19172053109E+03  0.19428120067E+03  0.25500000000E-02 0.  1.
         -2    1    1    2  502    0  0.19738427243E+02  0.24470745306E+02 -0.29364644596E+03  0.29532466561E+03  0.25500000000E-02 0.  1.
<mgrwt>
<rscale>  0 0.64286872E+02</rscale>
<asrwt>0</asrwt>
<pdfrwt beam="2">  1        1 0.74997822E-01 0.64286872E+02</pdfrwt>
<pdfrwt beam="1">  1       -1 0.32606879E-03 0.64286872E+02</pdfrwt>
<totfact> 0.34486956E+05</totfact>
</mgrwt>
</event>
<event>
 4    1  0.3946801E-002  0.4174121E+02  0.7818608E-02  0.1495775E+00
          1   -1    0    0    0  501  0.00000000000E+00  0.00000000000E+00  0.82070608407E+01  0.82070623882E+01  0.50400000000E-02 0.  1.
         -1   -1    0    0  501    0 -0.00000000000E+00 -0.00000000000E+00 -0.53074067002E+02  0.53074067242E+02  0.50400000000E-02 0.  1.
          2    1    1    2    0  502 -0.20406037433E+02  0.15077851341E+01 -0.16397694302E+02  0.26221444748E+02  0.25500000000E-02 0. -1.
         -2    1    1    2  502    0  0.20406037433E+02 -0.15077851341E+01 -0.28469311860E+02  0.35059684882E+02  0.25500000000E-02 0. -1.
<mgrwt>
<rscale>  0 0.41741210E+02</rscale>
<asrwt>0</asrwt>
<pdfrwt beam="1">  1        1 0.12626249E-02 0.41741210E+02</pdfrwt>
<pdfrwt beam="2">  1       -1 0.81652410E-02 0.41741210E+02</pdfrwt>
<totfact> 0.63072321E+05</totfact>
</mgrwt>
</event>
<event>
 4    1  0.3946801E-002  0.5747977E+02  0.7818608E-02  0.1408723E+00
         -1   -1    0    0  501    0 -0.00000000000E+00  0.00000000000E+00  0.27214333872E+03  0.27214333877E+03  0.50400000000E-02 0. -1.
          1   -1    0    0    0  501  0.00000000000E+00 -0.00000000000E+00 -0.30350933354E+01  0.30350975200E+01  0.50400000000E-02 0. -1.
          2    1    1    2    0  502 -0.27010162889E+02  0.77542698295E+01  0.10570895443E+03  0.10938034857E+03  0.25500000000E-02 0. -1.
         -2    1    1    2  502    0  0.27010162889E+02 -0.77542698295E+01  0.16339929096E+03  0.16579808772E+03  0.25500000000E-02 0. -1.
<mgrwt>
<rscale>  0 0.57479771E+02</rscale>
<asrwt>0</asrwt>
<pdfrwt beam="2">  1        1 0.46693769E-03 0.57479771E+02</pdfrwt>
<pdfrwt beam="1">  1       -1 0.41868213E-01 0.57479771E+02</pdfrwt>
<totfact> 0.20538200E+05</totfact>
</mgrwt>
</event>
<event>
 4    1  0.3946801E-002  0.7675991E+02  0.7818608E-02  0.1338506E+00
          1   -1    0    0    0  501  0.00000000000E+00  0.00000000000E+00  0.10203178838E+03  0.10203178851E+03  0.50400000000E-02 0.  1.
         -1   -1    0    0  501    0 -0.00000000000E+00 -0.00000000000E+00 -0.14436880571E+02  0.14436881451E+02  0.50400000000E-02 0.  1.
          2    1    1    2    0  502  0.22260019589E+02  0.31070877063E+02  0.49078246797E+02  0.62205965861E+02  0.25500000000E-02 0. -1.
         -2    1    1    2  502    0 -0.22260019589E+02 -0.31070877063E+02  0.38516661014E+02  0.54262704095E+02  0.25500000000E-02 0. -1.
<mgrwt>
<rscale>  0 0.76759906E+02</rscale>
<asrwt>0</asrwt>
<pdfrwt beam="1">  1        1 0.15697198E-01 0.76759906E+02</pdfrwt>
<pdfrwt beam="2">  1       -1 0.22210586E-02 0.76759906E+02</pdfrwt>
<totfact> 0.16661272E+05</totfact>
</mgrwt>
</event>
<event>
 4    1  0.3946801E-002  0.4270377E+02  0.7818608E-02  0.1489208E+00
          1   -1    0    0    0  501  0.00000000000E+00  0.00000000000E+00  0.19883622954E+03  0.19883622960E+03  0.50400000000E-02 0.  1.
         -1   -1    0    0  501    0 -0.00000000000E+00 -0.00000000000E+00 -0.22928540707E+01  0.22928596099E+01  0.50400000000E-02 0.  1.
          2    1    1    2    0  502 -0.60720877154E+01  0.20130799383E+02  0.80785655181E+02  0.83477191032E+02  0.25500000000E-02 0.  1.
         -2    1    1    2  502    0  0.60720877154E+01 -0.20130799383E+02  0.11575772029E+03  0.11765189818E+03  0.25500000000E-02 0.  1.
<mgrwt>
<rscale>  0 0.42703771E+02</rscale>
<asrwt>0</asrwt>
<pdfrwt beam="1">  1        1 0.30590187E-01 0.42703771E+02</pdfrwt>
<pdfrwt beam="2">  1       -1 0.35274724E-03 0.42703771E+02</pdfrwt>
<totfact> 0.83032799E+05</totfact>
</mgrwt>
</event>
<event>
 4    1  0.3946801E-002  0.6186890E+02  0.7818608E-02  0.1390152E+00
         -1   -1    0    0  501    0 -0.00000000000E+00  0.00000000000E+00  0.14594476672E+02  0.14594477542E+02  0.50400000000E-02 0. -1.
          1   -1    0    0    0  501  0.00000000000E+00 -0.00000000000E+00 -0.65568649635E+02  0.65568649829E+02  0.50400000000E-02 0. -1.
          2    1    1    2    0  502  0.20536418066E+02  0.54363321056E+01 -0.54622677298E+02  0.58608318995E+02  0.25500000000E-02 0.  1.
         -2    1    1    2  502    0 -0.20536418066E+02 -0.54363321056E+01  0.36485043350E+01  0.21554808376E+02  0.25500000000E-02 0.  1.
<mgrwt>
<rscale>  0 0.61868899E+02</rscale>
<asrwt>0</asrwt>
<pdfrwt beam="2">  1        1 0.10087484E-01 0.61868899E+02</pdfrwt>
<pdfrwt beam="1">  1       -1 0.22453042E-02 0.61868899E+02</pdfrwt>
<totfact> 0.27700421E+05</totfact>
</mgrwt>
</event>
<event>
 4    1  0.3946801E-002  0.7584846E+02  0.7818608E-02  0.1341264E+00
         -1   -1    0    0  501    0 -0.00000000000E+00  0.00000000000E+00  0.49713933503E+01  0.49713959051E+01  0.50400000000E-02 0. -1.
          1   -1    0    0    0  501  0.00000000000E+00 -0.00000000000E+00 -0.28930457916E+03  0.28930457921E+03  0.50400000000E-02 0. -1.
          2    1    1    2    0  502  0.36909176986E+02 -0.34016181687E+01 -0.17329905649E+03  0.17721856940E+03  0.25500000000E-02 0.  1.
         -2    1    1    2  502    0 -0.36909176986E+02  0.34016181687E+01 -0.11103412932E+03  0.11705740572E+03  0.25500000000E-02 0.  1.
<mgrwt>
<rscale>  0 0.75848461E+02</rscale>
<asrwt>0</asrwt>
<pdfrwt beam="2">  1        1 0.44508384E-01 0.75848461E+02</pdfrwt>
<pdfrwt beam="1">  1       -1 0.76483017E-03 0.75848461E+02</pdfrwt>
<totfact> 0.20683474E+05</totfact>
</mgrwt>
</event>
<event>
 4    1  0.3946801E-002  0.8288672E+02  0.7818608E-02  0.1321053E+00
         -1   -1    0    0  501    0 -0.00000000000E+00  0.00000000000E+00  0.51211820314E+01  0.51211845115E+01  0.50400000000E-02 0. -1.
          1   -1    0    0    0  501  0.00000000000E+00 -0.00000000000E+00 -0.33538190619E+03  0.33538190623E+03  0.50400000000E-02 0. -1.
          2    1    1    2    0  502 -0.14102692620E+02 -0.21625479099E+02 -0.29831019443E+03  0.29942531522E+03  0.25500000000E-02 0.  1.
         -2    1    1    2  502    0  0.14102692620E+02  0.21625479099E+02 -0.31950529726E+02  0.41077775520E+02  0.25500000000E-02 0.  1.
<mgrwt>
<rscale>  0 0.82886723E+02</rscale>
<asrwt>0</asrwt>
<pdfrwt beam="2">  1        1 0.51597200E-01 0.82886723E+02</pdfrwt>
<pdfrwt beam="1">  1       -1 0.78787461E-03 0.82886723E+02</pdfrwt>
<totfact> 0.16836244E+05</totfact>
</mgrwt>
</event>
<event>
 4    1  0.3946801E-002  0.5789619E+02  0.7818608E-02  0.1406879E+00
          1   -1    0    0    0  501  0.00000000000E+00  0.00000000000E+00  0.13762620356E+02  0.13762621279E+02  0.50400000000E-02 0.  1.
         -1   -1    0    0  501    0 -0.00000000000E+00 -0.00000000000E+00 -0.60889006867E+02  0.60889007076E+02  0.50400000000E-02 0.  1.
          2    1    1    2    0  502  0.27061494790E+02 -0.24050163545E+01 -0.10676644640E+02  0.29190740847E+02  0.25500000000E-02 0.  1.
         -2    1    1    2  502    0 -0.27061494790E+02  0.24050163545E+01 -0.36449741871E+02  0.45460887507E+02  0.25500000000E-02 0.  1.
<mgrwt>
<rscale>  0 0.57896194E+02</rscale>
<asrwt>0</asrwt>
<pdfrwt beam="1">  1        1 0.21173263E-02 0.57896194E+02</pdfrwt>
<pdfrwt beam="2">  1       -1 0.93675394E-02 0.57896194E+02</pdfrwt>
<totfact> 0.27775585E+05</totfact>
</mgrwt>
</event>
<event>
 4    1  0.3946801E-002  0.1802745E+03  0.7818608E-02  0.1167538E+00
         -1   -1    0    0  501    0 -0.00000000000E+00  0.00000000000E+00  0.29100748063E+03  0.29100748067E+03  0.50400000000E-02 0.  1.
          1   -1    0    0    0  501  0.00000000000E+00 -0.00000000000E+00 -0.27919296544E+02  0.27919296999E+02  0.50400000000E-02 0.  1.
          2    1    1    2    0  502 -0.36772602571E+02  0.73168756985E+02  0.19818214563E+03  0.21443426534E+03  0.25500000000E-02 0.  1.
         -2    1    1    2  502    0  0.36772602571E+02 -0.73168756985E+02  0.64906038451E+02  0.10449251233E+03  0.25500000000E-02 0.  1.
<mgrwt>
<rscale>  0 0.18027450E+03</rscale>
<asrwt>0</asrwt>
<pdfrwt beam="2">  1        1 0.42952764E-02 0.18027450E+03</pdfrwt>
<pdfrwt beam="1">  1       -1 0.44770382E-01 0.18027450E+03</pdfrwt>
<totfact> 0.99902018E+03</totfact>
</mgrwt>
</event>
<event>
 4    1  0.3946801E-002  0.4314308E+02  0.7818608E-02  0.1486278E+00
         -1   -1    0    0  501    0 -0.00000000000E+00  0.00000000000E+00  0.45141653217E+01  0.45141681353E+01  0.50400000000E-02 0.  1.
          1   -1    0    0    0  501  0.00000000000E+00 -0.00000000000E+00 -0.10308245459E+03  0.10308245471E+03  0.50400000000E-02 0.  1.
          2    1    1    2    0  502 -0.49414997230E+01  0.20294669161E+02 -0.62723582859E+02  0.66110058759E+02  0.25500000000E-02 0.  1.
         -2    1    1    2  502    0  0.49414997230E+01 -0.20294669161E+02 -0.35844706404E+02  0.41486564085E+02  0.25500000000E-02 0.  1.
<mgrwt>
<rscale>  0 0.43143083E+02</rscale>
<asrwt>0</asrwt>
<pdfrwt beam="2">  1        1 0.15858838E-01 0.43143083E+02</pdfrwt>
<pdfrwt beam="1">  1       -1 0.69448728E-03 0.43143083E+02</pdfrwt>
<totfact> 0.73310959E+05</totfact>
</mgrwt>
</event>
<event>
 4    1  0.3946801E-002  0.1123974E+03  0.7818608E-02  0.1256194E+00
         -1   -1    0    0  501    0 -0.00000000000E+00  0.00000000000E+00  0.51653001550E+01  0.51653026139E+01  0.50400000000E-02 0.  1.
          1   -1    0    0    0  501  0.00000000000E+00 -0.00000000000E+00 -0.61144478638E+03  0.61144478640E+03  0.50400000000E-02 0.  1.
          2    1    1    2    0  502  0.50578183646E+02 -0.18670186346E+02 -0.21612718266E+03  0.22275028083E+03  0.25500000000E-02 0. -1.
         -2    1    1    2  502    0 -0.50578183646E+02  0.18670186346E+02 -0.39015230357E+03  0.39385980819E+03  0.25500000000E-02 0. -1.
<mgrwt>
<rscale>  0 0.11239745E+03</rscale>
<asrwt>0</asrwt>
<pdfrwt beam="2">  1        1 0.94068372E-01 0.11239745E+03</pdfrwt>
<pdfrwt beam="1">  1       -1 0.79466224E-03 0.11239745E+03</pdfrwt>
<totfact> 0.81009262E+04</totfact>
</mgrwt>
</event>
<event>
 4    1  0.3946801E-002  0.6048239E+02  0.7818608E-02  0.1395818E+00
          1   -1    0    0    0  501  0.00000000000E+00  0.00000000000E+00  0.17331266719E+03  0.17331266726E+03  0.50400000000E-02 0.  1.
         -1   -1    0    0  501    0 -0.00000000000E+00 -0.00000000000E+00 -0.52767612899E+01  0.52767636968E+01  0.50400000000E-02 0.  1.
          2    1    1    2    0  502  0.99409541024E+01  0.24381665045E+02  0.12793774270E+03  0.13061911871E+03  0.25500000000E-02 0. -1.
         -2    1    1    2  502    0 -0.99409541024E+01 -0.24381665045E+02  0.40098163196E+02  0.47970312247E+02  0.25500000000E-02 0. -1.
<mgrwt>
<rscale>  0 0.60482387E+02</rscale>
<asrwt>0</asrwt>
<pdfrwt beam="1">  1        1 0.26663481E-01 0.60482387E+02</pdfrwt>
<pdfrwt beam="2">  1       -1 0.81180981E-03 0.60482387E+02</pdfrwt>
<totfact> 0.33850953E+05</totfact>
</mgrwt>
</event>
<event>
 4    1  0.3946801E-002  0.7265951E+02  0.7818608E-02  0.1351276E+00
         -1   -1    0    0  501    0 -0.00000000000E+00  0.00000000000E+00  0.20543982608E+02  0.20543983226E+02  0.50400000000E-02 0. -1.
          1   -1    0    0    0  501  0.00000000000E+00 -0.00000000000E+00 -0.64245135373E+02  0.64245135571E+02  0.50400000000E-02 0. -1.
          2    1    1    2    0  502 -0.10566501888E+02  0.17102107491E+02  0.13461929330E+02  0.24194143725E+02  0.25500000000E-02 0. -1.
         -2    1    1    2  502    0  0.10566501888E+02 -0.17102107491E+02 -0.57163082095E+02  0.60594975072E+02  0.25500000000E-02 0. -1.
<mgrwt>
<rscale>  0 0.72659507E+02</rscale>
<asrwt>0</asrwt>
<pdfrwt beam="2">  1        1 0.98838669E-02 0.72659507E+02</pdfrwt>
<pdfrwt beam="1">  1       -1 0.31606128E-02 0.72659507E+02</pdfrwt>
<totfact> 0.18056852E+05</totfact>
</mgrwt>
</event>
<event>
 4    1  0.3946801E-002  0.5149311E+02  0.7818608E-02  0.1437451E+00
         -1   -1    0    0  501    0 -0.00000000000E+00  0.00000000000E+00  0.35271773741E+01  0.35271809750E+01  0.50400000000E-02 0. -1.
          1   -1    0    0    0  501  0.00000000000E+00 -0.00000000000E+00 -0.18793629804E+03  0.18793629811E+03  0.50400000000E-02 0. -1.
          2    1    1    2    0  502 -0.15502290919E+02 -0.15595576889E+02 -0.42410469376E+02  0.47772282355E+02  0.25500000000E-02 0. -1.
         -2    1    1    2  502    0  0.15502290919E+02  0.15595576889E+02 -0.14199865129E+03  0.14369119673E+03  0.25500000000E-02 0. -1.
<mgrwt>
<rscale>  0 0.51493107E+02</rscale>
<asrwt>0</asrwt>
<pdfrwt beam="2">  1        1 0.28913269E-01 0.51493107E+02</pdfrwt>
<pdfrwt beam="1">  1       -1 0.54264310E-03 0.51493107E+02</pdfrwt>
<totfact> 0.51652373E+05</totfact>
</mgrwt>
</event>
<event>
 4    1  0.3946801E-002  0.5197055E+02  0.7818608E-02  0.1434994E+00
         -1   -1    0    0  501    0 -0.00000000000E+00  0.00000000000E+00  0.43153001808E+00  0.43155944910E+00  0.50400000000E-02 0.  1.
          1   -1    0    0    0  501  0.00000000000E+00 -0.00000000000E+00 -0.15646918787E+04  0.15646918787E+04  0.50400000000E-02 0.  1.
          2    1    1    2    0  502 -0.23068215239E+02 -0.58136363525E+01 -0.10969692905E+04  0.10972272168E+04  0.25500000000E-02 0. -1.
         -2    1    1    2  502    0  0.23068215239E+02  0.58136363525E+01 -0.46729105822E+03  0.46789622142E+03  0.25500000000E-02 0. -1.
<mgrwt>
<rscale>  0 0.51970551E+02</rscale>
<asrwt>0</asrwt>
<pdfrwt beam="2">  1        1 0.24071729E+00 0.51970551E+02</pdfrwt>
<pdfrwt beam="1">  1       -1 0.66392751E-04 0.51970551E+02</pdfrwt>
<totfact> 0.45373549E+05</totfact>
</mgrwt>
</event>
<event>
 4    1  0.3946801E-002  0.5596324E+02  0.7818608E-02  0.1415598E+00
         -1   -1    0    0  501    0 -0.00000000000E+00  0.00000000000E+00  0.85355690808E+00  0.85357178780E+00  0.50400000000E-02 0.  1.
          1   -1    0    0    0  501  0.00000000000E+00 -0.00000000000E+00 -0.91729593942E+03  0.91729593943E+03  0.50400000000E-02 0.  1.
          2    1    1    2    0  502  0.45009519804E+00  0.27249109311E+02 -0.35412900035E+03  0.35517610483E+03  0.25500000000E-02 0.  1.
         -2    1    1    2  502    0 -0.45009519804E+00 -0.27249109311E+02 -0.56231338216E+03  0.56297340639E+03  0.25500000000E-02 0.  1.
<mgrwt>
<rscale>  0 0.55963242E+02</rscale>
<asrwt>0</asrwt>
<pdfrwt beam="2">  1        1 0.14112166E+00 0.55963242E+02</pdfrwt>
<pdfrwt beam="1">  1       -1 0.13131833E-03 0.55963242E+02</pdfrwt>
<totfact> 0.48839470E+05</totfact>
</mgrwt>
</event>
<event>
 4    1  0.3946801E-002  0.6531350E+02  0.7818608E-02  0.1376796E+00
         -1   -1    0    0  501    0 -0.00000000000E+00  0.00000000000E+00  0.26970149037E+01  0.26970196129E+01  0.50400000000E-02 0. -1.
          1   -1    0    0    0  501  0.00000000000E+00 -0.00000000000E+00 -0.39542324274E+03  0.39542324277E+03  0.50400000000E-02 0. -1.
          2    1    1    2    0  502 -0.21466933398E+02  0.60431450422E+01 -0.50947465724E+02  0.55614684228E+02  0.25500000000E-02 0.  1.
         -2    1    1    2  502    0  0.21466933398E+02 -0.60431450422E+01 -0.34177876211E+03  0.34250557815E+03  0.25500000000E-02 0.  1.
<mgrwt>
<rscale>  0 0.65313500E+02</rscale>
<asrwt>0</asrwt>
<pdfrwt beam="2">  1        1 0.60834299E-01 0.65313500E+02</pdfrwt>
<pdfrwt beam="1">  1       -1 0.41492605E-03 0.65313500E+02</pdfrwt>
<totfact> 0.32161446E+05</totfact>
</mgrwt>
</event>
<event>
 4    1  0.3946801E-002  0.4245009E+02  0.7818608E-02  0.1490918E+00
         -1   -1    0    0  501    0 -0.00000000000E+00  0.00000000000E+00  0.16176433201E+03  0.16176433208E+03  0.50400000000E-02 0.  1.
          1   -1    0    0    0  501  0.00000000000E+00 -0.00000000000E+00 -0.27849291076E+01  0.27849336681E+01  0.50400000000E-02 0.  1.
          2    1    1    2    0  502 -0.16158361468E+02 -0.12839695665E+02  0.60282592283E+02  0.63717669206E+02  0.25500000000E-02 0.  1.
         -2    1    1    2  502    0  0.16158361468E+02  0.12839695665E+02  0.98696810615E+02  0.10083159655E+03  0.25500000000E-02 0.  1.
<mgrwt>
<rscale>  0 0.42450092E+02</rscale>
<asrwt>0</asrwt>
<pdfrwt beam="2">  1        1 0.42845093E-03 0.42450092E+02</pdfrwt>
<pdfrwt beam="1">  1       -1 0.24886824E-01 0.42450092E+02</pdfrwt>
<totfact> 0.50593339E+05</totfact>
</mgrwt>
</event>
<event>
 4    1  0.3946801E-002  0.9889102E+02  0.7818608E-02  0.1282645E+00
         -1   -1    0    0  501    0 -0.00000000000E+00  0.00000000000E+00  0.16066323596E+01  0.16066402648E+01  0.50400000000E-02 0. -1.
          1   -1    0    0    0  501  0.00000000000E+00 -0.00000000000E+00 -0.15217247729E+04  0.15217247729E+04  0.50400000000E-02 0. -1.
          2    1    1    2    0  502  0.12023217700E+02 -0.45597474439E+02 -0.98914662400E+03  0.99027002944E+03  0.25500000000E-02 0.  1.
         -2    1    1    2  502    0 -0.12023217700E+02  0.45597474439E+02 -0.53097151657E+03  0.53306138376E+03  0.25500000000E-02 0.  1.
<mgrwt>
<rscale>  0 0.98891017E+02</rscale>
<asrwt>0</asrwt>
<pdfrwt beam="2">  1        1 0.23411035E+00 0.98891017E+02</pdfrwt>
<pdfrwt beam="1">  1       -1 0.24717604E-03 0.98891017E+02</pdfrwt>
<totfact> 0.87995953E+04</totfact>
</mgrwt>
</event>
<event>
 4    1  0.3946801E-002  0.7959426E+02  0.7818608E-02  0.1330207E+00
          1   -1    0    0    0  501  0.00000000000E+00  0.00000000000E+00  0.27192350606E+03  0.27192350611E+03  0.50400000000E-02 0. -1.
         -1   -1    0    0  501    0 -0.00000000000E+00 -0.00000000000E+00 -0.58244738201E+01  0.58244760007E+01  0.50400000000E-02 0. -1.
          2    1    1    2    0  502  0.25617284382E+01 -0.37786840827E+02  0.17570256185E+03  0.17973813741E+03  0.25500000000E-02 0. -1.
         -2    1    1    2  502    0 -0.25617284382E+01  0.37786840827E+02  0.90396470391E+02  0.98009844699E+02  0.25500000000E-02 0. -1.
<mgrwt>
<rscale>  0 0.79594262E+02</rscale>
<asrwt>0</asrwt>
<pdfrwt beam="1">  1        1 0.41834382E-01 0.79594262E+02</pdfrwt>
<pdfrwt beam="2">  1       -1 0.89607315E-03 0.79594262E+02</pdfrwt>
<totfact> 0.18015624E+05</totfact>
</mgrwt>
</event>
<event>
 4    1  0.3946801E-002  0.5368353E+02  0.7818608E-02  0.1426429E+00
         -1   -1    0    0  501    0 -0.00000000000E+00  0.00000000000E+00  0.39773507630E+02  0.39773507949E+02  0.50400000000E-02 0. -1.
          1   -1    0    0    0  501  0.00000000000E+00 -0.00000000000E+00 -0.18114575372E+02  0.18114576073E+02  0.50400000000E-02 0. -1.
          2    1    1    2    0  502 -0.10502790278E+02 -0.19602232998E+02  0.27037465425E+02  0.35008294520E+02  0.25500000000E-02 0. -1.
         -2    1    1    2  502    0  0.10502790278E+02  0.19602232998E+02 -0.53785331669E+01  0.22879789502E+02  0.25500000000E-02 0. -1.
<mgrwt>
<rscale>  0 0.53683526E+02</rscale>
<asrwt>0</asrwt>
<pdfrwt beam="2">  1        1 0.27868579E-02 0.53683526E+02</pdfrwt>
<pdfrwt beam="1">  1       -1 0.61190012E-02 0.53683526E+02</pdfrwt>
<totfact> 0.35164426E+05</totfact>
</mgrwt>
</event>
<event>
 4    1  0.3946801E-002  0.4355479E+02  0.7818608E-02  0.1483571E+00
         -1   -1    0    0  501    0 -0.00000000000E+00  0.00000000000E+00  0.26495395176E+00  0.26500188330E+00  0.50400000000E-02 0.  1.
          1   -1    0    0    0  501  0.00000000000E+00 -0.00000000000E+00 -0.17897901836E+04  0.17897901836E+04  0.50400000000E-02 0.  1.
          2    1    1    2    0  502 -0.13077987581E+02  0.15822486295E+02 -0.59592492014E+03  0.59627837063E+03  0.25500000000E-02 0. -1.
         -2    1    1    2  502    0  0.13077987581E+02 -0.15822486295E+02 -0.11936003095E+04  0.11937768149E+04  0.25500000000E-02 0. -1.
<mgrwt>
<rscale>  0 0.43554788E+02</rscale>
<asrwt>0</asrwt>
<pdfrwt beam="2">  1        1 0.27534266E+00 0.43554788E+02</pdfrwt>
<pdfrwt beam="1">  1       -1 0.40767267E-04 0.43554788E+02</pdfrwt>
<totfact> 0.61403493E+05</totfact>
</mgrwt>
</event>
<event>
 4    1  0.3946801E-002  0.4254863E+02  0.7818608E-02  0.1490252E+00
          1   -1    0    0    0  501  0.00000000000E+00  0.00000000000E+00  0.15078625089E+04  0.15078625089E+04  0.50400000000E-02 0.  1.
         -1   -1    0    0  501    0 -0.00000000000E+00 -0.00000000000E+00 -0.30013649584E+00  0.30017880960E+00  0.50400000000E-02 0.  1.
          2    1    1    2    0  502  0.18816508264E+02 -0.86148246144E+01  0.92858342605E+03  0.92881400470E+03  0.25500000000E-02 0. -1.
         -2    1    1    2  502    0 -0.18816508264E+02  0.86148246144E+01  0.57897894639E+03  0.57934868305E+03  0.25500000000E-02 0. -1.
<mgrwt>
<rscale>  0 0.42548630E+02</rscale>
<asrwt>0</asrwt>
<pdfrwt beam="1">  1        1 0.23197607E+00 0.42548630E+02</pdfrwt>
<pdfrwt beam="2">  1       -1 0.46178655E-04 0.42548630E+02</pdfrwt>
<totfact> 0.76861277E+05</totfact>
</mgrwt>
</event>
<event>
 4    1  0.3946801E-002  0.8634038E+02  0.7818608E-02  0.1311964E+00
          1   -1    0    0    0  501  0.00000000000E+00  0.00000000000E+00  0.14695865001E+03  0.14695865009E+03  0.50400000000E-02 0. -1.
         -1   -1    0    0  501    0 -0.00000000000E+00 -0.00000000000E+00 -0.12681562171E+02  0.12681563173E+02  0.50400000000E-02 0. -1.
          2    1    1    2    0  502  0.10164887598E+02 -0.41796304674E+02  0.73909213168E+02  0.85515073653E+02  0.25500000000E-02 0.  1.
         -2    1    1    2  502    0 -0.10164887598E+02  0.41796304674E+02  0.60367874668E+02  0.74125139614E+02  0.25500000000E-02 0.  1.
<mgrwt>
<rscale>  0 0.86340381E+02</rscale>
<asrwt>0</asrwt>
<pdfrwt beam="1">  1        1 0.22609022E-01 0.86340381E+02</pdfrwt>
<pdfrwt beam="2">  1       -1 0.19510097E-02 0.86340381E+02</pdfrwt>
<totfact> 0.12934112E+05</totfact>
</mgrwt>
</event>
<event>
 4    1  0.3946801E-002  0.6512545E+02  0.7818608E-02  0.1377500E+00
          1   -1    0    0    0  501  0.00000000000E+00  0.00000000000E+00  0.46392861062E+03  0.46392861064E+03  0.50400000000E-02 0.  1.
         -1   -1    0    0  501    0 -0.00000000000E+00 -0.00000000000E+00 -0.22855450047E+01  0.22855505617E+01  0.50400000000E-02 0.  1.
          2    1    1    2    0  502  0.13573264691E+01 -0.30754943231E+02  0.30679232064E+03  0.30833299674E+03  0.25500000000E-02 0. -1.
         -2    1    1    2  502    0 -0.13573264691E+01  0.30754943231E+02  0.15485074498E+03  0.15788116447E+03  0.25500000000E-02 0. -1.
<mgrwt>
<rscale>  0 0.65125449E+02</rscale>
<asrwt>0</asrwt>
<pdfrwt beam="1">  1        1 0.71373602E-01 0.65125449E+02</pdfrwt>
<pdfrwt beam="2">  1       -1 0.35162289E-03 0.65125449E+02</pdfrwt>
<totfact> 0.33157714E+05</totfact>
</mgrwt>
</event>
<event>
 4    1  0.3946801E-002  0.5280631E+02  0.7818608E-02  0.1430767E+00
         -1   -1    0    0  501    0 -0.00000000000E+00  0.00000000000E+00  0.58430206802E+00  0.58432380432E+00  0.50400000000E-02 0.  1.
          1   -1    0    0    0  501  0.00000000000E+00 -0.00000000000E+00 -0.11930704038E+04  0.11930704038E+04  0.50400000000E-02 0.  1.
          2    1    1    2    0  502 -0.21026445999E+02  0.51719773806E+01 -0.25472531655E+03  0.25564398620E+03  0.25500000000E-02 0.  1.
         -2    1    1    2  502    0  0.21026445999E+02 -0.51719773806E+01 -0.93776078517E+03  0.93801074141E+03  0.25500000000E-02 0.  1.
<mgrwt>
<rscale>  0 0.52806306E+02</rscale>
<asrwt>0</asrwt>
<pdfrwt beam="2">  1        1 0.18354734E+00 0.52806306E+02</pdfrwt>
<pdfrwt beam="1">  1       -1 0.89895254E-04 0.52806306E+02</pdfrwt>
<totfact> 0.52039459E+05</totfact>
</mgrwt>
</event>
<event>
 4    1  0.3946801E-002  0.4981543E+02  0.7818608E-02  0.1446340E+00
          1   -1    0    0    0  501  0.00000000000E+00  0.00000000000E+00  0.28084485956E+03  0.28084485961E+03  0.50400000000E-02 0.  1.
         -1   -1    0    0  501    0 -0.00000000000E+00 -0.00000000000E+00 -0.22090250570E+01  0.22090308065E+01  0.50400000000E-02 0.  1.
          2    1    1    2    0  502 -0.17374510372E+02  0.16907291099E+02  0.10684358338E+03  0.10955948803E+03  0.25500000000E-02 0. -1.
         -2    1    1    2  502    0  0.17374510372E+02 -0.16907291099E+02  0.17179225113E+03  0.17349440238E+03  0.25500000000E-02 0. -1.
<mgrwt>
<rscale>  0 0.49815425E+02</rscale>
<asrwt>0</asrwt>
<pdfrwt beam="1">  1        1 0.43206880E-01 0.49815425E+02</pdfrwt>
<pdfrwt beam="2">  1       -1 0.33985062E-03 0.49815425E+02</pdfrwt>
<totfact> 0.60217377E+05</totfact>
</mgrwt>
</event>
<event>
 4    1  0.3946801E-002  0.6860520E+02  0.7818608E-02  0.1364901E+00
          1   -1    0    0    0  501  0.00000000000E+00  0.00000000000E+00  0.15998577638E+03  0.15998577646E+03  0.50400000000E-02 0. -1.
         -1   -1    0    0  501    0 -0.00000000000E+00 -0.00000000000E+00 -0.73548294964E+01  0.73548312233E+01  0.50400000000E-02 0. -1.
          2    1    1    2    0  502 -0.66684199290E+00 -0.28147980511E+02  0.28522754817E+02  0.40078685532E+02  0.25500000000E-02 0.  1.
         -2    1    1    2  502    0  0.66684199290E+00  0.28147980511E+02  0.12410819207E+03  0.12726192215E+03  0.25500000000E-02 0.  1.
<mgrwt>
<rscale>  0 0.68605197E+02</rscale>
<asrwt>0</asrwt>
<pdfrwt beam="1">  1        1 0.24613194E-01 0.68605197E+02</pdfrwt>
<pdfrwt beam="2">  1       -1 0.11315125E-02 0.68605197E+02</pdfrwt>
<totfact> 0.24104893E+05</totfact>
</mgrwt>
</event>
<event>
 4    1  0.3946801E-002  0.6383047E+02  0.7818608E-02  0.1382426E+00
         -1   -1    0    0  501    0 -0.00000000000E+00  0.00000000000E+00  0.76392256128E+02  0.76392256294E+02  0.50400000000E-02 0.  1.
          1   -1    0    0    0  501  0.00000000000E+00 -0.00000000000E+00 -0.13333577800E+02  0.13333578752E+02  0.50400000000E-02 0.  1.
          2    1    1    2    0  502  0.23154123461E+02  0.24116399736E+01  0.83978987742E+00  0.23294520690E+02  0.25500000000E-02 0.  1.
         -2    1    1    2  502    0 -0.23154123461E+02 -0.24116399736E+01  0.62218888451E+02  0.66431314357E+02  0.25500000000E-02 0.  1.
<mgrwt>
<rscale>  0 0.63830467E+02</rscale>
<asrwt>0</asrwt>
<pdfrwt beam="2">  1        1 0.20513197E-02 0.63830467E+02</pdfrwt>
<pdfrwt beam="1">  1       -1 0.11752655E-01 0.63830467E+02</pdfrwt>
<totfact> 0.21094960E+05</totfact>
</mgrwt>
</event>
<event>
 4    1  0.3946801E-002  0.4689381E+02  0.7818608E-02  0.1462854E+00
         -1   -1    0    0  501    0 -0.00000000000E+00  0.00000000000E+00  0.60004071864E+03  0.60004071866E+03  0.50400000000E-02 0.  1.
          1   -1    0    0    0  501  0.00000000000E+00 -0.00000000000E+00 -0.91619328530E+00  0.91620714777E+00  0.50400000000E-02 0.  1.
          2    1    1    2    0  502 -0.11341626030E+02 -0.20495829825E+02  0.28645604730E+03  0.28741221018E+03  0.25500000000E-02 0.  1.
         -2    1    1    2  502    0  0.11341626030E+02  0.20495829825E+02  0.31266847806E+03  0.31354471563E+03  0.25500000000E-02 0.  1.
<mgrwt>
<rscale>  0 0.46893814E+02</rscale>
<asrwt>0</asrwt>
<pdfrwt beam="2">  1        1 0.14095360E-03 0.46893814E+02</pdfrwt>
<pdfrwt beam="1">  1       -1 0.92314141E-01 0.46893814E+02</pdfrwt>
<totfact> 0.22614282E+05</totfact>
</mgrwt>
</event>
<event>
 4    1  0.3946801E-002  0.4285300E+02  0.7818608E-02  0.1488208E+00
         -1   -1    0    0  501    0 -0.00000000000E+00  0.00000000000E+00  0.84602466100E+00  0.84603967320E+00  0.50400000000E-02 0. -1.
          1   -1    0    0    0  501  0.00000000000E+00 -0.00000000000E+00 -0.54264483810E+03  0.54264483813E+03  0.50400000000E-02 0. -1.
          2    1    1    2    0  502  0.14100051769E+02 -0.15503380487E+02 -0.21428189578E+03  0.21530419673E+03  0.25500000000E-02 0. -1.
         -2    1    1    2  502    0 -0.14100051769E+02  0.15503380487E+02 -0.32751691766E+03  0.32818668107E+03  0.25500000000E-02 0. -1.
<mgrwt>
<rscale>  0 0.42853005E+02</rscale>
<asrwt>0</asrwt>
<pdfrwt beam="2">  1        1 0.83483544E-01 0.42853005E+02</pdfrwt>
<pdfrwt beam="1">  1       -1 0.13015923E-03 0.42853005E+02</pdfrwt>
<totfact> 0.95971371E+05</totfact>
</mgrwt>
</event>
<event>
 4    1  0.3946801E-002  0.4557682E+02  0.7818608E-02  0.1470772E+00
         -1   -1    0    0  501    0 -0.00000000000E+00  0.00000000000E+00  0.35964730730E+00  0.35968262017E+00  0.50400000000E-02 0.  1.
          1   -1    0    0    0  501  0.00000000000E+00 -0.00000000000E+00 -0.14438762732E+04  0.14438762732E+04  0.50400000000E-02 0.  1.
          2    1    1    2    0  502 -0.16510876150E+02 -0.15691426680E+02 -0.74375374521E+03  0.74410245493E+03  0.25500000000E-02 0. -1.
         -2    1    1    2  502    0  0.16510876150E+02  0.15691426680E+02 -0.69976288067E+03  0.70013350089E+03  0.25500000000E-02 0. -1.
<mgrwt>
<rscale>  0 0.45576824E+02</rscale>
<asrwt>0</asrwt>
<pdfrwt beam="2">  1        1 0.22213017E+00 0.45576824E+02</pdfrwt>
<pdfrwt beam="1">  1       -1 0.55334228E-04 0.45576824E+02</pdfrwt>
<totfact> 0.67094955E+05</totfact>
</mgrwt>
</event>
<event>
 4    1  0.3946801E-002  0.4871151E+02  0.7818608E-02  0.1452418E+00
          1   -1    0    0    0  501  0.00000000000E+00  0.00000000000E+00  0.80335117046E+02  0.80335117204E+02  0.50400000000E-02 0.  1.
         -1   -1    0    0  501    0 -0.00000000000E+00 -0.00000000000E+00 -0.73841017773E+01  0.73841034973E+01  0.50400000000E-02 0.  1.
          2    1    1    2    0  502 -0.57610553104E+01 -0.20684824907E+02  0.15774168465E+02  0.26643500840E+02  0.25500000000E-02 0.  1.
         -2    1    1    2  502    0  0.57610553104E+01  0.20684824907E+02  0.57176846803E+02  0.61075719861E+02  0.25500000000E-02 0.  1.
<mgrwt>
<rscale>  0 0.48711508E+02</rscale>
<asrwt>0</asrwt>
<pdfrwt beam="1">  1        1 0.12359249E-01 0.48711508E+02</pdfrwt>
<pdfrwt beam="2">  1       -1 0.11360158E-02 0.48711508E+02</pdfrwt>
<totfact> 0.52451505E+05</totfact>
</mgrwt>
</event>
<event>
 4    1  0.3946801E-002  0.8180982E+02  0.7818608E-02  0.1323992E+00
          1   -1    0    0    0  501  0.00000000000E+00  0.00000000000E+00  0.89846967900E+03  0.89846967902E+03  0.50400000000E-02 0. -1.
         -1   -1    0    0  501    0 -0.00000000000E+00 -0.00000000000E+00 -0.18622871312E+01  0.18622939511E+01  0.50400000000E-02 0. -1.
          2    1    1    2    0  502  0.22835963285E+02 -0.33833847458E+02  0.47742303826E+03  0.47916486507E+03  0.25500000000E-02 0.  1.
         -2    1    1    2  502    0 -0.22835963285E+02  0.33833847458E+02  0.41918435361E+03  0.42116710790E+03  0.25500000000E-02 0.  1.
<mgrwt>
<rscale>  0 0.81809818E+02</rscale>
<asrwt>0</asrwt>
<pdfrwt beam="1">  1        1 0.13822656E+00 0.81809818E+02</pdfrwt>
<pdfrwt beam="2">  1       -1 0.28650530E-03 0.81809818E+02</pdfrwt>
<totfact> 0.18513617E+05</totfact>
</mgrwt>
</event>
<event>
 4    1  0.3946801E-002  0.5007702E+02  0.7818608E-02  0.1444927E+00
         -1   -1    0    0  501    0 -0.00000000000E+00  0.00000000000E+00  0.64640020196E+01  0.64640039844E+01  0.50400000000E-02 0. -1.
          1   -1    0    0    0  501  0.00000000000E+00 -0.00000000000E+00 -0.96987400159E+02  0.96987400290E+02  0.50400000000E-02 0. -1.
          2    1    1    2    0  502  0.49397327257E+01  0.19660581319E+02 -0.14900969735E+02  0.25159060451E+02  0.25500000000E-02 0. -1.
         -2    1    1    2  502    0 -0.49397327257E+01 -0.19660581319E+02 -0.75622428404E+02  0.78292343824E+02  0.25500000000E-02 0. -1.
<mgrwt>
<rscale>  0 0.50077015E+02</rscale>
<asrwt>0</asrwt>
<pdfrwt beam="2">  1        1 0.14921138E-01 0.50077015E+02</pdfrwt>
<pdfrwt beam="1">  1       -1 0.99446208E-03 0.50077015E+02</pdfrwt>
<totfact> 0.50091997E+05</totfact>
</mgrwt>
</event>
<event>
 4    1  0.3946801E-002  0.5055436E+02  0.7818608E-02  0.1442374E+00
          1   -1    0    0    0  501  0.00000000000E+00  0.00000000000E+00  0.53499537742E+03  0.53499537744E+03  0.50400000000E-02 0.  1.
         -1   -1    0    0  501    0 -0.00000000000E+00 -0.00000000000E+00 -0.11942776348E+01  0.11942882695E+01  0.50400000000E-02 0.  1.
          2    1    1    2    0  502  0.22673554586E+02 -0.28015468130E+01  0.38162273200E+03  0.38230596167E+03  0.25500000000E-02 0.  1.
         -2    1    1    2  502    0 -0.22673554586E+02  0.28015468130E+01  0.15217836779E+03  0.15388370405E+03  0.25500000000E-02 0.  1.
<mgrwt>
<rscale>  0 0.50554362E+02</rscale>
<asrwt>0</asrwt>
<pdfrwt beam="1">  1        1 0.82307016E-01 0.50554362E+02</pdfrwt>
<pdfrwt beam="2">  1       -1 0.18373576E-03 0.50554362E+02</pdfrwt>
<totfact> 0.63825600E+05</totfact>
</mgrwt>
</event>
<event>
 4    1  0.3946801E-002  0.4865164E+02  0.7818608E-02  0.1452753E+00
         -1   -1    0    0  501    0 -0.00000000000E+00  0.00000000000E+00  0.13356021635E+01  0.13356116729E+01  0.50400000000E-02 0.  1.
          1   -1    0    0    0  501  0.00000000000E+00 -0.00000000000E+00 -0.44305362143E+03  0.44305362146E+03  0.50400000000E-02 0.  1.
          2    1    1    2    0  502  0.14159293364E+02  0.17091173814E+02 -0.12990620722E+03  0.13178852944E+03  0.25500000000E-02 0.  1.
         -2    1    1    2  502    0 -0.14159293364E+02 -0.17091173814E+02 -0.31181181205E+03  0.31260070370E+03  0.25500000000E-02 0.  1.
<mgrwt>
<rscale>  0 0.48651639E+02</rscale>
<asrwt>0</asrwt>
<pdfrwt beam="2">  1        1 0.68161979E-01 0.48651639E+02</pdfrwt>
<pdfrwt beam="1">  1       -1 0.20547834E-03 0.48651639E+02</pdfrwt>
<totfact> 0.68716694E+05</totfact>
</mgrwt>
</event>
<event>
 4    1  0.3946801E-002  0.5653320E+02  0.7818608E-02  0.1412984E+00
          1   -1    0    0    0  501  0.00000000000E+00  0.00000000000E+00  0.51462154445E+00  0.51464622374E+00  0.50400000000E-02 0.  1.
         -1   -1    0    0  501    0 -0.00000000000E+00 -0.00000000000E+00 -0.15525612564E+04  0.15525612564E+04  0.50400000000E-02 0.  1.
          2    1    1    2    0  502  0.36462131508E+01  0.25301995895E+02 -0.44463082997E+03  0.44536508713E+03  0.25500000000E-02 0. -1.
         -2    1    1    2  502    0 -0.36462131508E+01 -0.25301995895E+02 -0.11074158049E+04  0.11077108155E+04  0.25500000000E-02 0. -1.
<mgrwt>
<rscale>  0 0.56533199E+02</rscale>
<asrwt>0</asrwt>
<pdfrwt beam="1">  1        1 0.79175688E-04 0.56533199E+02</pdfrwt>
<pdfrwt beam="2">  1       -1 0.23885183E+00 0.56533199E+02</pdfrwt>
<totfact> 0.44303275E+04</totfact>
</mgrwt>
</event>
<event>
 4    1  0.3946801E-002  0.4780092E+02  0.7818608E-02  0.1457577E+00
          1   -1    0    0    0  501  0.00000000000E+00  0.00000000000E+00  0.11496784611E+02  0.11496785716E+02  0.50400000000E-02 0. -1.
         -1   -1    0    0  501    0 -0.00000000000E+00 -0.00000000000E+00 -0.49686235464E+02  0.49686235719E+02  0.50400000000E-02 0. -1.
          2    1    1    2    0  502 -0.21509233614E+02  0.10115588214E+01 -0.32369381942E+02  0.38877336273E+02  0.25500000000E-02 0. -1.
         -2    1    1    2  502    0  0.21509233614E+02 -0.10115588214E+01 -0.58200689108E+01  0.22305685162E+02  0.25500000000E-02 0. -1.
<mgrwt>
<rscale>  0 0.47800920E+02</rscale>
<asrwt>0</asrwt>
<pdfrwt beam="1">  1        1 0.17687362E-02 0.47800920E+02</pdfrwt>
<pdfrwt beam="2">  1       -1 0.76440362E-02 0.47800920E+02</pdfrwt>
<totfact> 0.45664954E+05</totfact>
</mgrwt>
</event>
<event>
 4    1  0.3946801E-002  0.1093894E+03  0.7818608E-02  0.1261705E+00
          1   -1    0    0    0  501  0.00000000000E+00  0.00000000000E+00  0.16062624516E+02  0.16062625307E+02  0.50400000000E-02 0.  1.
         -1   -1    0    0  501    0 -0.00000000000E+00 -0.00000000000E+00 -0.18624036022E+03  0.18624036029E+03  0.50400000000E-02 0.  1.
          2    1    1    2    0  502  0.27580854033E+02 -0.46951744070E+02 -0.75597494635E+02  0.93167327868E+02  0.25500000000E-02 0.  1.
         -2    1    1    2  502    0 -0.27580854033E+02  0.46951744070E+02 -0.94580241067E+02  0.10913565773E+03  0.25500000000E-02 0.  1.
<mgrwt>
<rscale>  0 0.10938938E+03</rscale>
<asrwt>0</asrwt>
<pdfrwt beam="1">  1        1 0.24711732E-02 0.10938938E+03</pdfrwt>
<pdfrwt beam="2">  1       -1 0.28652362E-01 0.10938938E+03</pdfrwt>
<totfact> 0.43977890E+04</totfact>
</mgrwt>
</event>
<event>
 4    1  0.3946801E-002  0.4851559E+02  0.7818608E-02  0.1453516E+00
          1   -1    0    0    0  501  0.00000000000E+00  0.00000000000E+00  0.82570460734E+03  0.82570460736E+03  0.50400000000E-02 0. -1.
         -1   -1    0    0  501    0 -0.00000000000E+00 -0.00000000000E+00 -0.71264387773E+00  0.71266169959E+00  0.50400000000E-02 0. -1.
          2    1    1    2    0  502  0.21235077693E+02  0.65053970041E+01  0.24630087961E+03  0.24730016582E+03  0.25500000000E-02 0.  1.
         -2    1    1    2  502    0 -0.21235077693E+02 -0.65053970041E+01  0.57869108386E+03  0.57911710323E+03  0.25500000000E-02 0.  1.
<mgrwt>
<rscale>  0 0.48515594E+02</rscale>
<asrwt>0</asrwt>
<pdfrwt beam="1">  1        1 0.12703182E+00 0.48515594E+02</pdfrwt>
<pdfrwt beam="2">  1       -1 0.10963860E-03 0.48515594E+02</pdfrwt>
<totfact> 0.70801184E+05</totfact>
</mgrwt>
</event>
<event>
 4    1  0.3946801E-002  0.5097498E+02  0.7818608E-02  0.1440153E+00
         -1   -1    0    0  501    0 -0.00000000000E+00  0.00000000000E+00  0.26939148511E+01  0.26939195658E+01  0.50400000000E-02 0. -1.
          1   -1    0    0    0  501  0.00000000000E+00 -0.00000000000E+00 -0.24114038429E+03  0.24114038434E+03  0.50400000000E-02 0. -1.
          2    1    1    2    0  502 -0.81630059148E+01 -0.24106146148E+02 -0.11267976349E+03  0.11551826719E+03  0.25500000000E-02 0. -1.
         -2    1    1    2  502    0  0.81630059148E+01  0.24106146148E+02 -0.12576670595E+03  0.12831603672E+03  0.25500000000E-02 0. -1.
<mgrwt>
<rscale>  0 0.50974984E+02</rscale>
<asrwt>0</asrwt>
<pdfrwt beam="2">  1        1 0.37098504E-01 0.50974984E+02</pdfrwt>
<pdfrwt beam="1">  1       -1 0.41444899E-03 0.50974984E+02</pdfrwt>
<totfact> 0.55337991E+05</totfact>
</mgrwt>
</event>
<event>
 4    1  0.3946801E-002  0.4486782E+02  0.7818608E-02  0.1475169E+00
          1   -1    0    0    0  501  0.00000000000E+00  0.00000000000E+00  0.42990245647E+03  0.42990245650E+03  0.50400000000E-02 0. -1.
         -1   -1    0    0  501    0 -0.00000000000E+00 -0.00000000000E+00 -0.11706794783E+01  0.11706903273E+01  0.50400000000E-02 0. -1.
          2    1    1    2    0  502 -0.92718765412E+01 -0.19864490512E+02  0.16857606580E+03  0.16999545772E+03  0.25500000000E-02 0. -1.
         -2    1    1    2  502    0  0.92718765412E+01  0.19864490512E+02  0.26015571119E+03  0.26107768911E+03  0.25500000000E-02 0. -1.
<mgrwt>
<rscale>  0 0.44867820E+02</rscale>
<asrwt>0</asrwt>
<pdfrwt beam="1">  1        1 0.66138902E-01 0.44867820E+02</pdfrwt>
<pdfrwt beam="2">  1       -1 0.18010521E-03 0.44867820E+02</pdfrwt>
<totfact> 0.83554579E+05</totfact>
</mgrwt>
</event>
<event>
 4    1  0.3946801E-002  0.4153419E+02  0.7818608E-02  0.1497216E+00
          1   -1    0    0    0  501  0.00000000000E+00  0.00000000000E+00  0.46828790461E+02  0.46828790733E+02  0.50400000000E-02 0. -1.
         -1   -1    0    0  501    0 -0.00000000000E+00 -0.00000000000E+00 -0.92095516313E+01  0.92095530104E+01  0.50400000000E-02 0. -1.
          2    1    1    2    0  502 -0.11944077749E+01  0.20731156505E+02  0.18466316799E+02  0.27788708545E+02  0.25500000000E-02 0.  1.
         -2    1    1    2  502    0  0.11944077749E+01 -0.20731156505E+02  0.19152922031E+02  0.28249635198E+02  0.25500000000E-02 0.  1.
<mgrwt>
<rscale>  0 0.41534189E+02</rscale>
<asrwt>0</asrwt>
<pdfrwt beam="1">  1        1 0.72044294E-02 0.41534189E+02</pdfrwt>
<pdfrwt beam="2">  1       -1 0.14168542E-02 0.41534189E+02</pdfrwt>
<totfact> 0.73993116E+05</totfact>
</mgrwt>
</event>
<event>
 4    1  0.3946801E-002  0.1274606E+03  0.7818608E-02  0.1231273E+00
         -1   -1    0    0  501    0 -0.00000000000E+00  0.00000000000E+00  0.22760181755E+03  0.22760181760E+03  0.50400000000E-02 0. -1.
          1   -1    0    0    0  501  0.00000000000E+00 -0.00000000000E+00 -0.17844992078E+02  0.17844992790E+02  0.50400000000E-02 0. -1.
          2    1    1    2    0  502  0.32704199070E+02  0.17671859575E+02  0.20456205722E+03  0.20791222792E+03  0.25500000000E-02 0. -1.
         -2    1    1    2  502    0 -0.32704199070E+02 -0.17671859575E+02  0.51947682466E+01  0.37534582471E+02  0.25500000000E-02 0. -1.
<mgrwt>
<rscale>  0 0.12746062E+03</rscale>
<asrwt>0</asrwt>
<pdfrwt beam="2">  1        1 0.27453836E-02 0.12746062E+03</pdfrwt>
<pdfrwt beam="1">  1       -1 0.35015663E-01 0.12746062E+03</pdfrwt>
<totfact> 0.27637213E+04</totfact>
</mgrwt>
</event>
<event>
 4    1  0.3946801E-002  0.3714185E+03  0.7818608E-02  0.1054152E+00
         -1   -1    0    0  501    0 -0.00000000000E+00  0.00000000000E+00  0.52183052596E+03  0.52183052599E+03  0.50400000000E-02 0. -1.
          1   -1    0    0    0  501  0.00000000000E+00 -0.00000000000E+00 -0.66090294871E+02  0.66090295064E+02  0.50400000000E-02 0. -1.
          2    1    1    2    0  502  0.13192287867E+03  0.24533497479E+02  0.24650596963E+02  0.13643016658E+03  0.25500000000E-02 0. -1.
         -2    1    1    2  502    0 -0.13192287867E+03 -0.24533497479E+02  0.43108963413E+03  0.45149065447E+03  0.25500000000E-02 0. -1.
<mgrwt>
<rscale>  0 0.37141854E+03</rscale>
<asrwt>0</asrwt>
<pdfrwt beam="2">  1        1 0.10167738E-01 0.37141854E+03</pdfrwt>
<pdfrwt beam="1">  1       -1 0.80281619E-01 0.37141854E+03</pdfrwt>
<totfact> 0.10191714E+03</totfact>
</mgrwt>
</event>
<event>
 4    1  0.3946801E-002  0.7417497E+02  0.7818608E-02  0.1346445E+00
         -1   -1    0    0  501    0 -0.00000000000E+00  0.00000000000E+00  0.26601363189E+02  0.26601363667E+02  0.50400000000E-02 0. -1.
          1   -1    0    0    0  501  0.00000000000E+00 -0.00000000000E+00 -0.51707179111E+02  0.51707179356E+02  0.50400000000E-02 0. -1.
          2    1    1    2    0  502 -0.14305625228E+02  0.33016178709E+02 -0.22040514373E+02  0.42196009883E+02  0.25500000000E-02 0. -1.
         -2    1    1    2  502    0  0.14305625228E+02 -0.33016178709E+02 -0.30653015486E+01  0.36112533140E+02  0.25500000000E-02 0. -1.
<mgrwt>
<rscale>  0 0.74174968E+02</rscale>
<asrwt>0</asrwt>
<pdfrwt beam="2">  1        1 0.79549507E-02 0.74174968E+02</pdfrwt>
<pdfrwt beam="1">  1       -1 0.40925175E-02 0.74174968E+02</pdfrwt>
<totfact> 0.16608109E+05</totfact>
</mgrwt>
</event>
<event>
 4    1  0.3946801E-002  0.4374374E+02  0.7818608E-02  0.1482340E+00
          1   -1    0    0    0  501  0.00000000000E+00  0.00000000000E+00  0.10591367575E+04  0.10591367575E+04  0.50400000000E-02 0. -1.
         -1   -1    0    0  501    0 -0.00000000000E+00 -0.00000000000E+00 -0.45165441051E+00  0.45168253025E+00  0.50400000000E-02 0. -1.
          2    1    1    2    0  502 -0.17044512040E+02  0.12578937753E+02  0.39748237466E+03  0.39804645864E+03  0.25500000000E-02 0.  1.
         -2    1    1    2  502    0  0.17044512040E+02 -0.12578937753E+02  0.66120272839E+03  0.66154198136E+03  0.25500000000E-02 0.  1.
<mgrwt>
<rscale>  0 0.43743740E+02</rscale>
<asrwt>0</asrwt>
<pdfrwt beam="1">  1        1 0.16294240E+00 0.43743740E+02</pdfrwt>
<pdfrwt beam="2">  1       -1 0.69488192E-04 0.43743740E+02</pdfrwt>
<totfact> 0.86766816E+05</totfact>
</mgrwt>
</event>
<event>
 4    1  0.3946801E-002  0.1153793E+03  0.7818608E-02  0.1250920E+00
          1   -1    0    0    0  501  0.00000000000E+00  0.00000000000E+00  0.56990751962E+02  0.56990752185E+02  0.50400000000E-02 0.  1.
         -1   -1    0    0  501    0 -0.00000000000E+00 -0.00000000000E+00 -0.58397147635E+02  0.58397147853E+02  0.50400000000E-02 0.  1.
          2    1    1    2    0  502  0.26476377170E+01 -0.32161032891E+02  0.47120385447E+02  0.57111056313E+02  0.25500000000E-02 0.  1.
         -2    1    1    2  502    0 -0.26476377170E+01  0.32161032891E+02 -0.48526781120E+02  0.58276843724E+02  0.25500000000E-02 0.  1.
<mgrwt>
<rscale>  0 0.11537933E+03</rscale>
<asrwt>0</asrwt>
<pdfrwt beam="1">  1        1 0.87678080E-02 0.11537933E+03</pdfrwt>
<pdfrwt beam="2">  1       -1 0.89841766E-02 0.11537933E+03</pdfrwt>
<totfact> 0.49069862E+04</totfact>
</mgrwt>
</event>
<event>
 4    1  0.3946801E-002  0.4140371E+02  0.7818608E-02  0.1498129E+00
          1   -1    0    0    0  501  0.00000000000E+00  0.00000000000E+00  0.18883709986E+01  0.18883777243E+01  0.50400000000E-02 0. -1.
         -1   -1    0    0  501    0 -0.00000000000E+00 -0.00000000000E+00 -0.22695007339E+03  0.22695007345E+03  0.50400000000E-02 0. -1.
          2    1    1    2    0  502  0.73885841294E+01 -0.19149515293E+02 -0.12743491225E+03  0.12907731008E+03  0.25500000000E-02 0.  1.
         -2    1    1    2  502    0 -0.73885841294E+01  0.19149515293E+02 -0.97626790141E+02  0.99761141088E+02  0.25500000000E-02 0.  1.
<mgrwt>
<rscale>  0 0.41403706E+02</rscale>
<asrwt>0</asrwt>
<pdfrwt beam="1">  1        1 0.29051932E-03 0.41403706E+02</pdfrwt>
<pdfrwt beam="2">  1       -1 0.34915375E-01 0.41403706E+02</pdfrwt>
<totfact> 0.49073732E+05</totfact>
</mgrwt>
</event>
<event>
 4    1  0.3946801E-002  0.6116541E+02  0.7818608E-02  0.1393005E+00
         -1   -1    0    0  501    0 -0.00000000000E+00  0.00000000000E+00  0.61732950176E+00  0.61735007520E+00  0.50400000000E-02 0. -1.
          1   -1    0    0    0  501  0.00000000000E+00 -0.00000000000E+00 -0.15150518003E+04  0.15150518003E+04  0.50400000000E-02 0. -1.
          2    1    1    2    0  502  0.24675120666E+02  0.17967239909E+02 -0.80435416420E+03  0.80493310577E+03  0.25500000000E-02 0.  1.
         -2    1    1    2  502    0 -0.24675120666E+02 -0.17967239909E+02 -0.71008030656E+03  0.71073604458E+03  0.25500000000E-02 0.  1.
<mgrwt>
<rscale>  0 0.61165408E+02</rscale>
<asrwt>0</asrwt>
<pdfrwt beam="2">  1        1 0.23308192E+00 0.61165408E+02</pdfrwt>
<pdfrwt beam="1">  1       -1 0.94976565E-04 0.61165408E+02</pdfrwt>
<totfact> 0.30912039E+05</totfact>
</mgrwt>
</event>
<event>
 4    1  0.3946801E-002  0.4969659E+02  0.7818608E-02  0.1446985E+00
          1   -1    0    0    0  501  0.00000000000E+00  0.00000000000E+00  0.19572570771E+03  0.19572570777E+03  0.50400000000E-02 0.  1.
         -1   -1    0    0  501    0 -0.00000000000E+00 -0.00000000000E+00 -0.31546052568E+01  0.31546092829E+01  0.50400000000E-02 0.  1.
          2    1    1    2    0  502  0.74061342602E+01  0.23210218423E+02  0.11583866069E+03  0.11837297149E+03  0.25500000000E-02 0. -1.
         -2    1    1    2  502    0 -0.74061342602E+01 -0.23210218423E+02  0.76732441765E+02  0.80507345564E+02  0.25500000000E-02 0. -1.
<mgrwt>
<rscale>  0 0.49696590E+02</rscale>
<asrwt>0</asrwt>
<pdfrwt beam="1">  1        1 0.30111643E-01 0.49696590E+02</pdfrwt>
<pdfrwt beam="2">  1       -1 0.48532428E-03 0.49696590E+02</pdfrwt>
<totfact> 0.56856883E+05</totfact>
</mgrwt>
</event>
<event>
 4    1  0.3946801E-002  0.4341353E+02  0.7818608E-02  0.1484496E+00
         -1   -1    0    0  501    0 -0.00000000000E+00  0.00000000000E+00  0.52655391910E+01  0.52655416031E+01  0.50400000000E-02 0.  1.
          1   -1    0    0    0  501  0.00000000000E+00 -0.00000000000E+00 -0.89484363990E+02  0.89484364132E+02  0.50400000000E-02 0.  1.
          2    1    1    2    0  502  0.24732743773E+01 -0.19922058438E+02 -0.24088532463E+02  0.31357023157E+02  0.25500000000E-02 0. -1.
         -2    1    1    2  502    0 -0.24732743773E+01  0.19922058438E+02 -0.60130292336E+02  0.63392882578E+02  0.25500000000E-02 0. -1.
<mgrwt>
<rscale>  0 0.43413525E+02</rscale>
<asrwt>0</asrwt>
<pdfrwt beam="2">  1        1 0.13766824E-01 0.43413525E+02</pdfrwt>
<pdfrwt beam="1">  1       -1 0.81008321E-03 0.43413525E+02</pdfrwt>
<totfact> 0.70899620E+05</totfact>
</mgrwt>
</event>
<event>
 4    1  0.3946801E-002  0.9235702E+02  0.7818608E-02  0.1297242E+00
          1   -1    0    0    0  501  0.00000000000E+00  0.00000000000E+00  0.90409609202E+03  0.90409609203E+03  0.50400000000E-02 0.  1.
         -1   -1    0    0  501    0 -0.00000000000E+00 -0.00000000000E+00 -0.23586567435E+01  0.23586621282E+01  0.50400000000E-02 0.  1.
          2    1    1    2    0  502  0.32091665255E+02 -0.26302130937E+02  0.25194816557E+03  0.25534203574E+03  0.25500000000E-02 0. -1.
         -2    1    1    2  502    0 -0.32091665255E+02  0.26302130937E+02  0.64978926970E+03  0.65111271843E+03  0.25500000000E-02 0. -1.
<mgrwt>
<rscale>  0 0.92357020E+02</rscale>
<asrwt>0</asrwt>
<pdfrwt beam="1">  1        1 0.13909198E+00 0.92357020E+02</pdfrwt>
<pdfrwt beam="2">  1       -1 0.36286996E-03 0.92357020E+02</pdfrwt>
<totfact> 0.13441459E+05</totfact>
</mgrwt>
</event>
<event>
 4    1  0.3946801E-002  0.1262274E+03  0.7818608E-02  0.1233163E+00
         -1   -1    0    0  501    0 -0.00000000000E+00  0.00000000000E+00  0.64838868834E+01  0.64838888422E+01  0.50400000000E-02 0. -1.
          1   -1    0    0    0  501  0.00000000000E+00 -0.00000000000E+00 -0.61434422815E+03  0.61434422817E+03  0.50400000000E-02 0. -1.
          2    1    1    2    0  502  0.55689631124E+02 -0.32928506401E+01 -0.44909687167E+03  0.45254853666E+03  0.25500000000E-02 0. -1.
         -2    1    1    2  502    0 -0.55689631124E+02  0.32928506401E+01 -0.15876346960E+03  0.16827958036E+03  0.25500000000E-02 0. -1.
<mgrwt>
<rscale>  0 0.12622740E+03</rscale>
<asrwt>0</asrwt>
<pdfrwt beam="2">  1        1 0.94514451E-01 0.12622740E+03</pdfrwt>
<pdfrwt beam="1">  1       -1 0.99752170E-03 0.12622740E+03</pdfrwt>
<totfact> 0.59128463E+04</totfact>
</mgrwt>
</event>
<event>
 4    1  0.3946801E-002  0.5508711E+02  0.7818608E-02  0.1419687E+00
         -1   -1    0    0  501    0 -0.00000000000E+00  0.00000000000E+00  0.13033601149E+01  0.13033698595E+01  0.50400000000E-02 0. -1.
          1   -1    0    0    0  501  0.00000000000E+00 -0.00000000000E+00 -0.58206820421E+03  0.58206820423E+03  0.50400000000E-02 0. -1.
          2    1    1    2    0  502 -0.22810307524E+02 -0.10028846011E+02 -0.41467808885E+03  0.41542605270E+03  0.25500000000E-02 0.  1.
         -2    1    1    2  502    0  0.22810307524E+02  0.10028846011E+02 -0.16608675524E+03  0.16794552139E+03  0.25500000000E-02 0.  1.
<mgrwt>
<rscale>  0 0.55087107E+02</rscale>
<asrwt>0</asrwt>
<pdfrwt beam="2">  1        1 0.89548748E-01 0.55087107E+02</pdfrwt>
<pdfrwt beam="1">  1       -1 0.20051816E-03 0.55087107E+02</pdfrwt>
<totfact> 0.51843946E+05</totfact>
</mgrwt>
</event>
<event>
 4    1  0.3946801E-002  0.7111322E+02  0.7818608E-02  0.1356348E+00
         -1   -1    0    0  501    0 -0.00000000000E+00  0.00000000000E+00  0.10925521797E+04  0.10925521797E+04  0.50400000000E-02 0. -1.
          1   -1    0    0    0  501  0.00000000000E+00 -0.00000000000E+00 -0.11571681223E+01  0.11571790980E+01  0.50400000000E-02 0. -1.
          2    1    1    2    0  502 -0.19746682399E+02  0.23784508739E+02  0.81589196524E+03  0.81647739300E+03  0.25500000000E-02 0. -1.
         -2    1    1    2  502    0  0.19746682399E+02 -0.23784508739E+02  0.27550304632E+03  0.27723196580E+03  0.25500000000E-02 0. -1.
<mgrwt>
<rscale>  0 0.71113221E+02</rscale>
<asrwt>0</asrwt>
<pdfrwt beam="2">  1        1 0.17802702E-03 0.71113221E+02</pdfrwt>
<pdfrwt beam="1">  1       -1 0.16808466E+00 0.71113221E+02</pdfrwt>
<totfact> 0.43767622E+04</totfact>
</mgrwt>
</event>
<event>
 4    1  0.3946801E-002  0.5929472E+02  0.7818608E-02  0.1400816E+00
          1   -1    0    0    0  501  0.00000000000E+00  0.00000000000E+00  0.36098889541E+00  0.36102407705E+00  0.50400000000E-02 0.  1.
         -1   -1    0    0  501    0 -0.00000000000E+00 -0.00000000000E+00 -0.24347653260E+04  0.24347653260E+04  0.50400000000E-02 0.  1.
          2    1    1    2    0  502 -0.24945278216E+02 -0.15745121733E+02 -0.13389630350E+04  0.13392879395E+04  0.25500000000E-02 0.  1.
         -2    1    1    2  502    0  0.24945278216E+02  0.15745121733E+02 -0.10954413021E+04  0.10958384106E+04  0.25500000000E-02 0.  1.
<mgrwt>
<rscale>  0 0.59294724E+02</rscale>
<asrwt>0</asrwt>
<pdfrwt beam="1">  1        1 0.55541409E-04 0.59294724E+02</pdfrwt>
<pdfrwt beam="2">  1       -1 0.37456613E+00 0.59294724E+02</pdfrwt>
<totfact> 0.10818608E+04</totfact>
</mgrwt>
</event>
<event>
 4    1  0.3946801E-002  0.9541656E+02  0.7818608E-02  0.1290241E+00
         -1   -1    0    0  501    0 -0.00000000000E+00  0.00000000000E+00  0.10086852904E+02  0.10086854164E+02  0.50400000000E-02 0.  1.
          1   -1    0    0    0  501  0.00000000000E+00 -0.00000000000E+00 -0.22564816865E+03  0.22564816871E+03  0.50400000000E-02 0.  1.
          2    1    1    2    0  502  0.16884736656E+01 -0.35149405710E+02 -0.18736843568E+03  0.19064433472E+03  0.25500000000E-02 0.  1.
         -2    1    1    2  502    0 -0.16884736656E+01  0.35149405710E+02 -0.28192880070E+02  0.45090688154E+02  0.25500000000E-02 0.  1.
<mgrwt>
<rscale>  0 0.95416561E+02</rscale>
<asrwt>0</asrwt>
<pdfrwt beam="2">  1        1 0.34715099E-01 0.95416561E+02</pdfrwt>
<pdfrwt beam="1">  1       -1 0.15518238E-02 0.95416561E+02</pdfrwt>
<totfact> 0.10729769E+05</totfact>
</mgrwt>
</event>
<event>
 4    1  0.3946801E-002  0.4895771E+02  0.7818608E-02  0.1451046E+00
         -1   -1    0    0  501    0 -0.00000000000E+00  0.00000000000E+00  0.35654386844E+01  0.35654422466E+01  0.50400000000E-02 0. -1.
          1   -1    0    0    0  501  0.00000000000E+00 -0.00000000000E+00 -0.16806182409E+03  0.16806182417E+03  0.50400000000E-02 0. -1.
          2    1    1    2    0  502 -0.23864814348E+02  0.53110362633E+01 -0.86510033026E+02  0.89898399823E+02  0.25500000000E-02 0. -1.
         -2    1    1    2  502    0  0.23864814348E+02 -0.53110362633E+01 -0.77986352382E+02  0.81728866592E+02  0.25500000000E-02 0. -1.
<mgrwt>
<rscale>  0 0.48957714E+02</rscale>
<asrwt>0</asrwt>
<pdfrwt beam="2">  1        1 0.25855659E-01 0.48957714E+02</pdfrwt>
<pdfrwt beam="1">  1       -1 0.54852944E-03 0.48957714E+02</pdfrwt>
<totfact> 0.57532550E+05</totfact>
</mgrwt>
</event>
<event>
 4    1  0.3946801E-002  0.4486619E+02  0.7818608E-02  0.1475179E+00
         -1   -1    0    0  501    0 -0.00000000000E+00  0.00000000000E+00  0.97746858431E+02  0.97746858561E+02  0.50400000000E-02 0.  1.
          1   -1    0    0    0  501  0.00000000000E+00 -0.00000000000E+00 -0.51484366743E+01  0.51484391412E+01  0.50400000000E-02 0.  1.
          2    1    1    2    0  502  0.16992465241E+02 -0.14645028432E+02  0.45952120493E+02  0.51135292284E+02  0.25500000000E-02 0. -1.
         -2    1    1    2  502    0 -0.16992465241E+02  0.14645028432E+02  0.46646301264E+02  0.51760005418E+02  0.25500000000E-02 0. -1.
<mgrwt>
<rscale>  0 0.44866185E+02</rscale>
<asrwt>0</asrwt>
<pdfrwt beam="2">  1        1 0.79206746E-03 0.44866185E+02</pdfrwt>
<pdfrwt beam="1">  1       -1 0.15037977E-01 0.44866185E+02</pdfrwt>
<totfact> 0.48768923E+05</totfact>
</mgrwt>
</event>
<event>
 4    1  0.3946801E-002  0.6957600E+02  0.7818608E-02  0.1361541E+00
         -1   -1    0    0  501    0 -0.00000000000E+00  0.00000000000E+00  0.14527056563E+02  0.14527057438E+02  0.50400000000E-02 0. -1.
          1   -1    0    0    0  501  0.00000000000E+00 -0.00000000000E+00 -0.83306958802E+02  0.83306958954E+02  0.50400000000E-02 0. -1.
          2    1    1    2    0  502  0.15741015736E+02  0.30254078387E+02 -0.44041902864E+02  0.55702585666E+02  0.25500000000E-02 0. -1.
         -2    1    1    2  502    0 -0.15741015736E+02 -0.30254078387E+02 -0.24737999374E+02  0.42131430726E+02  0.25500000000E-02 0. -1.
<mgrwt>
<rscale>  0 0.69576000E+02</rscale>
<asrwt>0</asrwt>
<pdfrwt beam="2">  1        1 0.12816455E-01 0.69576000E+02</pdfrwt>
<pdfrwt beam="1">  1       -1 0.22349319E-02 0.69576000E+02</pdfrwt>
<totfact> 0.20986202E+05</totfact>
</mgrwt>
</event>
<event>
 4    1  0.3946801E-002  0.6792263E+02  0.7818608E-02  0.1367303E+00
         -1   -1    0    0  501    0 -0.00000000000E+00  0.00000000000E+00  0.18795336361E+01  0.18795403935E+01  0.50400000000E-02 0. -1.
          1   -1    0    0    0  501  0.00000000000E+00 -0.00000000000E+00 -0.61364635048E+03  0.61364635050E+03  0.50400000000E-02 0. -1.
          2    1    1    2    0  502 -0.15814999119E+02  0.24884657723E+02 -0.45860453534E+03  0.45955139019E+03  0.25500000000E-02 0. -1.
         -2    1    1    2  502    0  0.15814999119E+02 -0.24884657723E+02 -0.15316228151E+03  0.15597450070E+03  0.25500000000E-02 0. -1.
<mgrwt>
<rscale>  0 0.67922634E+02</rscale>
<asrwt>0</asrwt>
<pdfrwt beam="2">  1        1 0.94406972E-01 0.67922634E+02</pdfrwt>
<pdfrwt beam="1">  1       -1 0.28916003E-03 0.67922634E+02</pdfrwt>
<totfact> 0.30549275E+05</totfact>
</mgrwt>
</event>
<event>
 4    1  0.3946801E-002  0.5227070E+02  0.7818608E-02  0.1433465E+00
         -1   -1    0    0  501    0 -0.00000000000E+00  0.00000000000E+00  0.10148615497E+03  0.10148615510E+03  0.50400000000E-02 0. -1.
          1   -1    0    0    0  501  0.00000000000E+00 -0.00000000000E+00 -0.67305373153E+01  0.67305392023E+01  0.50400000000E-02 0. -1.
          2    1    1    2    0  502 -0.83552253699E+01  0.24701785317E+02  0.51004383832E+02  0.57283812420E+02  0.25500000000E-02 0.  1.
         -2    1    1    2  502    0  0.83552253699E+01 -0.24701785317E+02  0.43751233826E+02  0.50932881880E+02  0.25500000000E-02 0.  1.
<mgrwt>
<rscale>  0 0.52270698E+02</rscale>
<asrwt>0</asrwt>
<pdfrwt beam="2">  1        1 0.10354675E-02 0.52270698E+02</pdfrwt>
<pdfrwt beam="1">  1       -1 0.15613254E-01 0.52270698E+02</pdfrwt>
<totfact> 0.33261105E+05</totfact>
</mgrwt>
</event>
<event>
 4    1  0.3946801E-002  0.4300358E+02  0.7818608E-02  0.1487204E+00
         -1   -1    0    0  501    0 -0.00000000000E+00  0.00000000000E+00  0.20565887582E+03  0.20565887589E+03  0.50400000000E-02 0. -1.
          1   -1    0    0    0  501  0.00000000000E+00 -0.00000000000E+00 -0.22480256986E+01  0.22480313484E+01  0.50400000000E-02 0. -1.
          2    1    1    2    0  502 -0.82600846176E+01  0.19783973984E+02  0.93772485807E+02  0.96192066853E+02  0.25500000000E-02 0.  1.
         -2    1    1    2  502    0  0.82600846176E+01 -0.19783973984E+02  0.10963836432E+03  0.11171484038E+03  0.25500000000E-02 0.  1.
<mgrwt>
<rscale>  0 0.43003583E+02</rscale>
<asrwt>0</asrwt>
<pdfrwt beam="2">  1        1 0.34585066E-03 0.43003583E+02</pdfrwt>
<pdfrwt beam="1">  1       -1 0.31639817E-01 0.43003583E+02</pdfrwt>
<totfact> 0.46074991E+05</totfact>
</mgrwt>
</event>
<event>
 4    1  0.3946801E-002  0.5514115E+02  0.7818608E-02  0.1419433E+00
          1   -1    0    0    0  501  0.00000000000E+00  0.00000000000E+00  0.79703885219E+03  0.79703885220E+03  0.50400000000E-02 0.  1.
         -1   -1    0    0  501    0 -0.00000000000E+00 -0.00000000000E+00 -0.95369428184E+00  0.95370759922E+00  0.50400000000E-02 0.  1.
          2    1    1    2    0  502 -0.21320015003E+02 -0.17481237292E+02  0.39799211056E+03  0.39894593214E+03  0.25500000000E-02 0.  1.
         -2    1    1    2  502    0  0.21320015003E+02  0.17481237292E+02  0.39809304734E+03  0.39904662766E+03  0.25500000000E-02 0.  1.
<mgrwt>
<rscale>  0 0.55141154E+02</rscale>
<asrwt>0</asrwt>
<pdfrwt beam="1">  1        1 0.12262206E+00 0.55141154E+02</pdfrwt>
<pdfrwt beam="2">  1       -1 0.14672238E-03 0.55141154E+02</pdfrwt>
<totfact> 0.51659215E+05</totfact>
</mgrwt>
</event>
<event>
 4    1  0.3946801E-002  0.1592827E+03  0.7818608E-02  0.1189509E+00
          1   -1    0    0    0  501  0.00000000000E+00  0.00000000000E+00  0.41049943807E+02  0.41049944116E+02  0.50400000000E-02 0. -1.
         -1   -1    0    0  501    0 -0.00000000000E+00 -0.00000000000E+00 -0.15451292272E+03  0.15451292280E+03  0.50400000000E-02 0. -1.
          2    1    1    2    0  502  0.20530526171E+02 -0.76794583768E+02 -0.62725761610E+02  0.10125923058E+03  0.25500000000E-02 0. -1.
         -2    1    1    2  502    0 -0.20530526171E+02  0.76794583768E+02 -0.50737217301E+02  0.94303636339E+02  0.25500000000E-02 0. -1.
<mgrwt>
<rscale>  0 0.15928273E+03</rscale>
<asrwt>0</asrwt>
<pdfrwt beam="1">  1        1 0.63153761E-02 0.15928273E+03</pdfrwt>
<pdfrwt beam="2">  1       -1 0.23771219E-01 0.15928273E+03</pdfrwt>
<totfact> 0.17211071E+04</totfact>
</mgrwt>
</event>
<event>
 4    1  0.3946801E-002  0.6304133E+02  0.7818608E-02  0.1385494E+00
          1   -1    0    0    0  501  0.00000000000E+00  0.00000000000E+00  0.99696469571E+01  0.99696482310E+01  0.50400000000E-02 0.  1.
         -1   -1    0    0  501    0 -0.00000000000E+00 -0.00000000000E+00 -0.99657702130E+02  0.99657702257E+02  0.50400000000E-02 0.  1.
          2    1    1    2    0  502  0.15934355460E+02  0.16389046283E+02 -0.82586122670E+02  0.85691144152E+02  0.25500000000E-02 0.  1.
         -2    1    1    2  502    0 -0.15934355460E+02 -0.16389046283E+02 -0.71019325028E+01  0.23936206336E+02  0.25500000000E-02 0.  1.
<mgrwt>
<rscale>  0 0.63041326E+02</rscale>
<asrwt>0</asrwt>
<pdfrwt beam="1">  1        1 0.15337920E-02 0.63041326E+02</pdfrwt>
<pdfrwt beam="2">  1       -1 0.15331954E-01 0.63041326E+02</pdfrwt>
<totfact> 0.20873651E+05</totfact>
</mgrwt>
</event>
<event>
 4    1  0.3946801E-002  0.8818161E+02  0.7818608E-02  0.1307316E+00
          1   -1    0    0    0  501  0.00000000000E+00  0.00000000000E+00  0.16568655217E+04  0.16568655217E+04  0.50400000000E-02 0.  1.
         -1   -1    0    0  501    0 -0.00000000000E+00 -0.00000000000E+00 -0.11732938459E+01  0.11733046707E+01  0.50400000000E-02 0.  1.
          2    1    1    2    0  502  0.12731942753E+02 -0.34986794177E+02  0.12719290498E+04  0.12724738449E+04  0.25500000000E-02 0. -1.
         -2    1    1    2  502    0 -0.12731942753E+02  0.34986794177E+02  0.38376317808E+03  0.38556498154E+03  0.25500000000E-02 0. -1.
<mgrwt>
<rscale>  0 0.88181610E+02</rscale>
<asrwt>0</asrwt>
<pdfrwt beam="1">  1        1 0.25490145E+00 0.88181610E+02</pdfrwt>
<pdfrwt beam="2">  1       -1 0.18050824E-03 0.88181610E+02</pdfrwt>
<totfact> 0.11021020E+05</totfact>
</mgrwt>
</event>
<event>
 4    1  0.3946801E-002  0.5491758E+02  0.7818608E-02  0.1420489E+00
         -1   -1    0    0  501    0 -0.00000000000E+00  0.00000000000E+00  0.36640730150E+00  0.36644196292E+00  0.50400000000E-02 0. -1.
          1   -1    0    0    0  501  0.00000000000E+00 -0.00000000000E+00 -0.20576813275E+04  0.20576813275E+04  0.50400000000E-02 0. -1.
          2    1    1    2    0  502 -0.84249466991E+01  0.26133625392E+02 -0.10360607692E+04  0.10364245576E+04  0.25500000000E-02 0.  1.
         -2    1    1    2  502    0  0.84249466991E+01 -0.26133625392E+02 -0.10212541510E+04  0.10216232119E+04  0.25500000000E-02 0.  1.
<mgrwt>
<rscale>  0 0.54917580E+02</rscale>
<asrwt>0</asrwt>
<pdfrwt beam="2">  1        1 0.31655711E+00 0.54917580E+02</pdfrwt>
<pdfrwt beam="1">  1       -1 0.56374668E-04 0.54917580E+02</pdfrwt>
<totfact> 0.28451177E+05</totfact>
</mgrwt>
</event>
<event>
 4    1  0.3946801E-002  0.4655079E+02  0.7818608E-02  0.1464886E+00
          1   -1    0    0    0  501  0.00000000000E+00  0.00000000000E+00  0.12262314051E+03  0.12262314061E+03  0.50400000000E-02 0. -1.
         -1   -1    0    0  501    0 -0.00000000000E+00 -0.00000000000E+00 -0.44179575334E+01  0.44179604082E+01  0.50400000000E-02 0. -1.
          2    1    1    2    0  502 -0.13399066205E+02 -0.18847502277E+02  0.51892073645E+02  0.56811536073E+02  0.25500000000E-02 0.  1.
         -2    1    1    2  502    0  0.13399066205E+02  0.18847502277E+02  0.66313109330E+02  0.70229564948E+02  0.25500000000E-02 0.  1.
<mgrwt>
<rscale>  0 0.46550790E+02</rscale>
<asrwt>0</asrwt>
<pdfrwt beam="1">  1        1 0.18865097E-01 0.46550790E+02</pdfrwt>
<pdfrwt beam="2">  1       -1 0.67968607E-03 0.46550790E+02</pdfrwt>
<totfact> 0.62148130E+05</totfact>
</mgrwt>
</event>
<event>
 4    1  0.3946801E-002  0.6656399E+02  0.7818608E-02  0.1372183E+00
         -1   -1    0    0  501    0 -0.00000000000E+00  0.00000000000E+00  0.10434549431E+03  0.10434549443E+03  0.50400000000E-02 0. -1.
          1   -1    0    0    0  501  0.00000000000E+00 -0.00000000000E+00 -0.10615609754E+02  0.10615610950E+02  0.50400000000E-02 0. -1.
          2    1    1    2    0  502  0.27452457582E+02 -0.18295883329E+02  0.54455113262E+02  0.63668957436E+02  0.25500000000E-02 0.  1.
         -2    1    1    2  502    0 -0.27452457582E+02  0.18295883329E+02  0.39274771289E+02  0.51292147941E+02  0.25500000000E-02 0.  1.
<mgrwt>
<rscale>  0 0.66563988E+02</rscale>
<asrwt>0</asrwt>
<pdfrwt beam="2">  1        1 0.16331708E-02 0.66563988E+02</pdfrwt>
<pdfrwt beam="1">  1       -1 0.16053154E-01 0.66563988E+02</pdfrwt>
<totfact> 0.18047265E+05</totfact>
</mgrwt>
</event>
<event>
 4    1  0.3946801E-002  0.6383722E+02  0.7818608E-02  0.1382400E+00
         -1   -1    0    0  501    0 -0.00000000000E+00  0.00000000000E+00  0.78332764605E+02  0.78332764767E+02  0.50400000000E-02 0.  1.
          1   -1    0    0    0  501  0.00000000000E+00 -0.00000000000E+00 -0.13006020108E+02  0.13006021085E+02  0.50400000000E-02 0.  1.
          2    1    1    2    0  502  0.21830092470E+02 -0.18140645664E+02  0.53553243827E+02  0.60610113787E+02  0.25500000000E-02 0. -1.
         -2    1    1    2  502    0 -0.21830092470E+02  0.18140645664E+02  0.11773500669E+02  0.30728672065E+02  0.25500000000E-02 0. -1.
<mgrwt>
<rscale>  0 0.63837217E+02</rscale>
<asrwt>0</asrwt>
<pdfrwt beam="2">  1        1 0.20009263E-02 0.63837217E+02</pdfrwt>
<pdfrwt beam="1">  1       -1 0.12051195E-01 0.63837217E+02</pdfrwt>
<totfact> 0.21011589E+05</totfact>
</mgrwt>
</event>
<event>
 4    1  0.3946801E-002  0.6396704E+02  0.7818608E-02  0.1381900E+00
         -1   -1    0    0  501    0 -0.00000000000E+00  0.00000000000E+00  0.21603735367E+01  0.21603794157E+01  0.50400000000E-02 0. -1.
          1   -1    0    0    0  501  0.00000000000E+00 -0.00000000000E+00 -0.47350330964E+03  0.47350330966E+03  0.50400000000E-02 0. -1.
          2    1    1    2    0  502  0.27854751372E+02  0.15677851387E+02 -0.22731383667E+03  0.22955013079E+03  0.25500000000E-02 0. -1.
         -2    1    1    2  502    0 -0.27854751372E+02 -0.15677851387E+02 -0.24402909943E+03  0.24611355828E+03  0.25500000000E-02 0. -1.
<mgrwt>
<rscale>  0 0.63967036E+02</rscale>
<asrwt>0</asrwt>
<pdfrwt beam="2">  1        1 0.72846581E-01 0.63967036E+02</pdfrwt>
<pdfrwt beam="1">  1       -1 0.33236599E-03 0.63967036E+02</pdfrwt>
<totfact> 0.34806170E+05</totfact>
</mgrwt>
</event>
<event>
 4    1  0.3946801E-002  0.6334869E+02  0.7818608E-02  0.1384293E+00
          1   -1    0    0    0  501  0.00000000000E+00  0.00000000000E+00  0.39246621452E+02  0.39246621776E+02  0.50400000000E-02 0. -1.
         -1   -1    0    0  501    0 -0.00000000000E+00 -0.00000000000E+00 -0.25563066982E+02  0.25563067478E+02  0.50400000000E-02 0. -1.
          2    1    1    2    0  502  0.11948438054E+02 -0.28437703887E+02 -0.52113865986E+00  0.30850279841E+02  0.25500000000E-02 0.  1.
         -2    1    1    2  502    0 -0.11948438054E+02  0.28437703887E+02  0.14204693130E+02  0.33959409413E+02  0.25500000000E-02 0.  1.
<mgrwt>
<rscale>  0 0.63348687E+02</rscale>
<asrwt>0</asrwt>
<pdfrwt beam="1">  1        1 0.60379418E-02 0.63348687E+02</pdfrwt>
<pdfrwt beam="2">  1       -1 0.39327796E-02 0.63348687E+02</pdfrwt>
<totfact> 0.24539309E+05</totfact>
</mgrwt>
</event>
<event>
 4    1  0.3946801E-002  0.4245731E+02  0.7818608E-02  0.1490869E+00
         -1   -1    0    0  501    0 -0.00000000000E+00  0.00000000000E+00  0.15077412791E+03  0.15077412799E+03  0.50400000000E-02 0.  1.
          1   -1    0    0    0  501  0.00000000000E+00 -0.00000000000E+00 -0.29889445341E+01  0.29889487834E+01  0.50400000000E-02 0.  1.
          2    1    1    2    0  502 -0.12403749021E+02 -0.17227275162E+02  0.74451689464E+02  0.77418899953E+02  0.25500000000E-02 0.  1.
         -2    1    1    2  502    0  0.12403749021E+02  0.17227275162E+02  0.73333493912E+02  0.76344176825E+02  0.25500000000E-02 0.  1.
<mgrwt>
<rscale>  0 0.42457312E+02</rscale>
<asrwt>0</asrwt>
<pdfrwt beam="2">  1        1 0.45983801E-03 0.42457312E+02</pdfrwt>
<pdfrwt beam="1">  1       -1 0.23196017E-01 0.42457312E+02</pdfrwt>
<totfact> 0.51391150E+05</totfact>
</mgrwt>
</event>
<event>
 4    1  0.3946801E-002  0.4290247E+02  0.7818608E-02  0.1487878E+00
         -1   -1    0    0  501    0 -0.00000000000E+00  0.00000000000E+00  0.10028917186E+03  0.10028917199E+03  0.50400000000E-02 0. -1.
          1   -1    0    0    0  501  0.00000000000E+00 -0.00000000000E+00 -0.45882861801E+01  0.45882889482E+01  0.50400000000E-02 0. -1.
          2    1    1    2    0  502 -0.15722913756E+02 -0.13295089115E+02  0.62555646556E+02  0.65857257262E+02  0.25500000000E-02 0.  1.
         -2    1    1    2  502    0  0.15722913756E+02  0.13295089115E+02  0.33145239123E+02  0.39020203672E+02  0.25500000000E-02 0.  1.
<mgrwt>
<rscale>  0 0.42902474E+02</rscale>
<asrwt>0</asrwt>
<pdfrwt beam="2">  1        1 0.70589047E-03 0.42902474E+02</pdfrwt>
<pdfrwt beam="1">  1       -1 0.15429102E-01 0.42902474E+02</pdfrwt>
<totfact> 0.54176040E+05</totfact>
</mgrwt>
</event>
<event>
 4    1  0.3946801E-002  0.4248467E+02  0.7818608E-02  0.1490684E+00
         -1   -1    0    0  501    0 -0.00000000000E+00  0.00000000000E+00  0.50698199479E+01  0.50698224530E+01  0.50400000000E-02 0. -1.
          1   -1    0    0    0  501  0.00000000000E+00 -0.00000000000E+00 -0.89004479153E+02  0.89004479296E+02  0.50400000000E-02 0. -1.
          2    1    1    2    0  502  0.16180067353E+02  0.13700250455E+02 -0.39041956695E+02  0.44427084433E+02  0.25500000000E-02 0.  1.
         -2    1    1    2  502    0 -0.16180067353E+02 -0.13700250455E+02 -0.44892702510E+02  0.49647217316E+02  0.25500000000E-02 0.  1.
<mgrwt>
<rscale>  0 0.42484671E+02</rscale>
<asrwt>0</asrwt>
<pdfrwt beam="2">  1        1 0.13692996E-01 0.42484671E+02</pdfrwt>
<pdfrwt beam="1">  1       -1 0.77997257E-03 0.42484671E+02</pdfrwt>
<totfact> 0.74756166E+05</totfact>
</mgrwt>
</event>
<event>
 4    1  0.3946801E-002  0.4585137E+02  0.7818608E-02  0.1469096E+00
         -1   -1    0    0  501    0 -0.00000000000E+00  0.00000000000E+00  0.44954577196E+02  0.44954577479E+02  0.50400000000E-02 0.  1.
          1   -1    0    0    0  501  0.00000000000E+00 -0.00000000000E+00 -0.11691511547E+02  0.11691512634E+02  0.50400000000E-02 0.  1.
          2    1    1    2    0  502  0.20903483352E+02  0.13545325551E+01  0.51216995260E+01  0.21564373101E+02  0.25500000000E-02 0.  1.
         -2    1    1    2  502    0 -0.20903483352E+02 -0.13545325551E+01  0.28141366123E+02  0.35081717011E+02  0.25500000000E-02 0.  1.
<mgrwt>
<rscale>  0 0.45851368E+02</rscale>
<asrwt>0</asrwt>
<pdfrwt beam="2">  1        1 0.17986942E-02 0.45851368E+02</pdfrwt>
<pdfrwt beam="1">  1       -1 0.69160889E-02 0.45851368E+02</pdfrwt>
<totfact> 0.51091826E+05</totfact>
</mgrwt>
</event>
<event>
 4    1  0.3946801E-002  0.6448905E+02  0.7818608E-02  0.1379904E+00
         -1   -1    0    0  501    0 -0.00000000000E+00  0.00000000000E+00  0.68894162011E+00  0.68896005510E+00  0.50400000000E-02 0. -1.
          1   -1    0    0    0  501  0.00000000000E+00 -0.00000000000E+00 -0.15091197119E+04  0.15091197119E+04  0.50400000000E-02 0. -1.
          2    1    1    2    0  502 -0.23571563686E+01  0.32138330967E+02 -0.72771969100E+03  0.72843282269E+03  0.25500000000E-02 0. -1.
         -2    1    1    2  502    0  0.23571563686E+01 -0.32138330967E+02 -0.78071107929E+03  0.78137584928E+03  0.25500000000E-02 0. -1.
<mgrwt>
<rscale>  0 0.64489047E+02</rscale>
<asrwt>0</asrwt>
<pdfrwt beam="2">  1        1 0.23216962E+00 0.64489047E+02</pdfrwt>
<pdfrwt beam="1">  1       -1 0.10599365E-03 0.64489047E+02</pdfrwt>
<totfact> 0.27094762E+05</totfact>
</mgrwt>
</event>
<event>
 4    1  0.3946801E-002  0.5158872E+02  0.7818608E-02  0.1436956E+00
         -1   -1    0    0  501    0 -0.00000000000E+00  0.00000000000E+00  0.15067344115E+01  0.15067428409E+01  0.50400000000E-02 0. -1.
          1   -1    0    0    0  501  0.00000000000E+00 -0.00000000000E+00 -0.44158225731E+03  0.44158225734E+03  0.50400000000E-02 0. -1.
          2    1    1    2    0  502  0.21384925575E+02 -0.36061363524E+01 -0.33998401166E+03  0.34067498801E+03  0.25500000000E-02 0.  1.
         -2    1    1    2  502    0 -0.21384925575E+02  0.36061363524E+01 -0.10009151124E+03  0.10241401217E+03  0.25500000000E-02 0.  1.
<mgrwt>
<rscale>  0 0.51588722E+02</rscale>
<asrwt>0</asrwt>
<pdfrwt beam="2">  1        1 0.67935630E-01 0.51588722E+02</pdfrwt>
<pdfrwt beam="1">  1       -1 0.23180630E-03 0.51588722E+02</pdfrwt>
<totfact> 0.59372529E+05</totfact>
</mgrwt>
</event>
<event>
 4    1  0.3946801E-002  0.4259911E+02  0.7818608E-02  0.1489912E+00
         -1   -1    0    0  501    0 -0.00000000000E+00  0.00000000000E+00  0.21615366042E+01  0.21615424800E+01  0.50400000000E-02 0. -1.
          1   -1    0    0    0  501  0.00000000000E+00 -0.00000000000E+00 -0.20988332158E+03  0.20988332164E+03  0.50400000000E-02 0. -1.
          2    1    1    2    0  502 -0.20956464335E+02  0.19892710950E+01 -0.87700274126E+02  0.90191289408E+02  0.25500000000E-02 0.  1.
         -2    1    1    2  502    0  0.20956464335E+02 -0.19892710950E+01 -0.12002151085E+03  0.12185357471E+03  0.25500000000E-02 0.  1.
<mgrwt>
<rscale>  0 0.42599113E+02</rscale>
<asrwt>0</asrwt>
<pdfrwt beam="2">  1        1 0.32289726E-01 0.42599113E+02</pdfrwt>
<pdfrwt beam="1">  1       -1 0.33254472E-03 0.42599113E+02</pdfrwt>
<totfact> 0.84302454E+05</totfact>
</mgrwt>
</event>
<event>
 4    1  0.3946801E-002  0.4448862E+02  0.7818608E-02  0.1477560E+00
          1   -1    0    0    0  501  0.00000000000E+00  0.00000000000E+00  0.26330172102E+01  0.26330220338E+01  0.50400000000E-02 0.  1.
         -1   -1    0    0  501    0 -0.00000000000E+00 -0.00000000000E+00 -0.18792462659E+03  0.18792462666E+03  0.50400000000E-02 0.  1.
          2    1    1    2    0  502  0.12434931170E+01  0.22124642002E+02 -0.10095492014E+03  0.10335831832E+03  0.25500000000E-02 0. -1.
         -2    1    1    2  502    0 -0.12434931170E+01 -0.22124642002E+02 -0.84336689238E+02  0.87199330371E+02  0.25500000000E-02 0. -1.
<mgrwt>
<rscale>  0 0.44488616E+02</rscale>
<asrwt>0</asrwt>
<pdfrwt beam="1">  1        1 0.40508009E-03 0.44488616E+02</pdfrwt>
<pdfrwt beam="2">  1       -1 0.28911471E-01 0.44488616E+02</pdfrwt>
<totfact> 0.43466787E+05</totfact>
</mgrwt>
</event>
<event>
 4    1  0.3946801E-002  0.4154263E+02  0.7818608E-02  0.1497157E+00
          1   -1    0    0    0  501  0.00000000000E+00  0.00000000000E+00  0.22355054458E+03  0.22355054464E+03  0.50400000000E-02 0. -1.
         -1   -1    0    0  501    0 -0.00000000000E+00 -0.00000000000E+00 -0.19299745157E+01  0.19299810965E+01  0.50400000000E-02 0. -1.
          2    1    1    2    0  502 -0.19999332001E+02  0.33267279062E+01  0.13532950723E+03  0.13683974545E+03  0.25500000000E-02 0. -1.
         -2    1    1    2  502    0  0.19999332001E+02 -0.33267279062E+01  0.86291062835E+02  0.88640780292E+02  0.25500000000E-02 0. -1.
<mgrwt>
<rscale>  0 0.41542634E+02</rscale>
<asrwt>0</asrwt>
<pdfrwt beam="1">  1        1 0.34392391E-01 0.41542634E+02</pdfrwt>
<pdfrwt beam="2">  1       -1 0.29691967E-03 0.41542634E+02</pdfrwt>
<totfact> 0.90616281E+05</totfact>
</mgrwt>
</event>
<event>
 4    1  0.3946801E-002  0.4575408E+02  0.7818608E-02  0.1469688E+00
         -1   -1    0    0  501    0 -0.00000000000E+00  0.00000000000E+00  0.18897633968E+02  0.18897634640E+02  0.50400000000E-02 0. -1.
          1   -1    0    0    0  501  0.00000000000E+00 -0.00000000000E+00 -0.27694409823E+02  0.27694410281E+02  0.50400000000E-02 0. -1.
          2    1    1    2    0  502 -0.16989689375E+02 -0.13840671506E+02  0.22904052292E+01  0.22033149920E+02  0.25500000000E-02 0.  1.
         -2    1    1    2  502    0  0.16989689375E+02  0.13840671506E+02 -0.11087181084E+02  0.24558895001E+02  0.25500000000E-02 0.  1.
<mgrwt>
<rscale>  0 0.45754075E+02</rscale>
<asrwt>0</asrwt>
<pdfrwt beam="2">  1        1 0.42606786E-02 0.45754075E+02</pdfrwt>
<pdfrwt beam="1">  1       -1 0.29073284E-02 0.45754075E+02</pdfrwt>
<totfact> 0.55471928E+05</totfact>
</mgrwt>
</event>
<event>
 4    1  0.3946801E-002  0.4121268E+02  0.7818608E-02  0.1499472E+00
          1   -1    0    0    0  501  0.00000000000E+00  0.00000000000E+00  0.15129831273E+02  0.15129832112E+02  0.50400000000E-02 0. -1.
         -1   -1    0    0  501    0 -0.00000000000E+00 -0.00000000000E+00 -0.28065171110E+02  0.28065171562E+02  0.50400000000E-02 0. -1.
          2    1    1    2    0  502  0.16808375127E+02  0.11771052797E+02 -0.84402611856E+01  0.22188221509E+02  0.25500000000E-02 0.  1.
         -2    1    1    2  502    0 -0.16808375127E+02 -0.11771052797E+02 -0.44950786511E+01  0.21006782165E+02  0.25500000000E-02 0.  1.
<mgrwt>
<rscale>  0 0.41212684E+02</rscale>
<asrwt>0</asrwt>
<pdfrwt beam="1">  1        1 0.23276664E-02 0.41212684E+02</pdfrwt>
<pdfrwt beam="2">  1       -1 0.43177187E-02 0.41212684E+02</pdfrwt>
<totfact> 0.69026593E+05</totfact>
</mgrwt>
</event>
<event>
 4    1  0.3946801E-002  0.4116982E+02  0.7818608E-02  0.1499775E+00
          1   -1    0    0    0  501  0.00000000000E+00  0.00000000000E+00  0.15261337614E+01  0.15261420835E+01  0.50400000000E-02 0.  1.
         -1   -1    0    0  501    0 -0.00000000000E+00 -0.00000000000E+00 -0.27765418196E+03  0.27765418200E+03  0.50400000000E-02 0.  1.
          2    1    1    2    0  502  0.76858891631E+01 -0.18746918078E+02 -0.16271879931E+03  0.16397538683E+03  0.25500000000E-02 0. -1.
         -2    1    1    2  502    0 -0.76858891631E+01  0.18746918078E+02 -0.11340924889E+03  0.11520493726E+03  0.25500000000E-02 0. -1.
<mgrwt>
<rscale>  0 0.41169823E+02</rscale>
<asrwt>0</asrwt>
<pdfrwt beam="1">  1        1 0.23479067E-03 0.41169823E+02</pdfrwt>
<pdfrwt beam="2">  1       -1 0.42715988E-01 0.41169823E+02</pdfrwt>
<totfact> 0.46500964E+05</totfact>
</mgrwt>
</event>
<event>
 4    1  0.3946801E-002  0.1292891E+03  0.7818608E-02  0.1228514E+00
          1   -1    0    0    0  501  0.00000000000E+00  0.00000000000E+00  0.73641645087E+02  0.73641645260E+02  0.50400000000E-02 0.  1.
         -1   -1    0    0  501    0 -0.00000000000E+00 -0.00000000000E+00 -0.56746671162E+02  0.56746671385E+02  0.50400000000E-02 0.  1.
          2    1    1    2    0  502  0.28859964968E+02 -0.24477580608E+02  0.61303657660E+02  0.72042959264E+02  0.25500000000E-02 0.  1.
         -2    1    1    2  502    0 -0.28859964968E+02  0.24477580608E+02 -0.44408683735E+02  0.58345357381E+02  0.25500000000E-02 0.  1.
<mgrwt>
<rscale>  0 0.12928911E+03</rscale>
<asrwt>0</asrwt>
<pdfrwt beam="1">  1        1 0.11329484E-01 0.12928911E+03</pdfrwt>
<pdfrwt beam="2">  1       -1 0.87302572E-02 0.12928911E+03</pdfrwt>
<totfact> 0.37040429E+04</totfact>
</mgrwt>
</event>
<event>
 4    1  0.3946801E-002  0.4730991E+02  0.7818608E-02  0.1460416E+00
         -1   -1    0    0  501    0 -0.00000000000E+00  0.00000000000E+00  0.48018815175E+00  0.48021460066E+00  0.50400000000E-02 0. -1.
          1   -1    0    0    0  501  0.00000000000E+00 -0.00000000000E+00 -0.11652547450E+04  0.11652547450E+04  0.50400000000E-02 0. -1.
          2    1    1    2    0  502 -0.20154541416E+02  0.40500335023E+01 -0.29403291883E+03  0.29475068392E+03  0.25500000000E-02 0.  1.
         -2    1    1    2  502    0  0.20154541416E+02 -0.40500335023E+01 -0.87074163804E+03  0.87098427571E+03  0.25500000000E-02 0.  1.
<mgrwt>
<rscale>  0 0.47309912E+02</rscale>
<asrwt>0</asrwt>
<pdfrwt beam="2">  1        1 0.17926770E+00 0.47309912E+02</pdfrwt>
<pdfrwt beam="1">  1       -1 0.73878068E-04 0.47309912E+02</pdfrwt>
<totfact> 0.69100487E+05</totfact>
</mgrwt>
</event>
<event>
 4    1  0.3946801E-002  0.5937294E+02  0.7818608E-02  0.1400482E+00
          1   -1    0    0    0  501  0.00000000000E+00  0.00000000000E+00  0.40068388763E+03  0.40068388766E+03  0.50400000000E-02 0.  1.
         -1   -1    0    0  501    0 -0.00000000000E+00 -0.00000000000E+00 -0.21994528419E+01  0.21994586164E+01  0.50400000000E-02 0.  1.
          2    1    1    2    0  502  0.19926811240E+02 -0.15381823289E+02  0.30601812285E+03  0.30705173801E+03  0.25500000000E-02 0.  1.
         -2    1    1    2  502    0 -0.19926811240E+02  0.15381823289E+02  0.92466311933E+02  0.95831608266E+02  0.25500000000E-02 0.  1.
<mgrwt>
<rscale>  0 0.59372939E+02</rscale>
<asrwt>0</asrwt>
<pdfrwt beam="1">  1        1 0.61643687E-01 0.59372939E+02</pdfrwt>
<pdfrwt beam="2">  1       -1 0.33837775E-03 0.59372939E+02</pdfrwt>
<totfact> 0.41103802E+05</totfact>
</mgrwt>
</event>
<event>
 4    1  0.3946801E-002  0.4382160E+02  0.7818608E-02  0.1481835E+00
          1   -1    0    0    0  501  0.00000000000E+00  0.00000000000E+00  0.90893339267E+02  0.90893339406E+02  0.50400000000E-02 0.  1.
         -1   -1    0    0  501    0 -0.00000000000E+00 -0.00000000000E+00 -0.52818273471E+01  0.52818297518E+01  0.50400000000E-02 0.  1.
          2    1    1    2    0  502 -0.16738277796E+02 -0.14137500855E+02  0.43266991858E+02  0.48498159397E+02  0.25500000000E-02 0. -1.
         -2    1    1    2  502    0  0.16738277796E+02  0.14137500855E+02  0.42344520062E+02  0.47677009761E+02  0.25500000000E-02 0. -1.
<mgrwt>
<rscale>  0 0.43821595E+02</rscale>
<asrwt>0</asrwt>
<pdfrwt beam="1">  1        1 0.13983591E-01 0.43821595E+02</pdfrwt>
<pdfrwt beam="2">  1       -1 0.81258899E-03 0.43821595E+02</pdfrwt>
<totfact> 0.69402953E+05</totfact>
</mgrwt>
</event>
<event>
 4    1  0.3946801E-002  0.4123070E+02  0.7818608E-02  0.1499345E+00
         -1   -1    0    0  501    0 -0.00000000000E+00  0.00000000000E+00  0.71034057773E+01  0.71034075653E+01  0.50400000000E-02 0.  1.
          1   -1    0    0    0  501  0.00000000000E+00 -0.00000000000E+00 -0.59829425477E+02  0.59829425689E+02  0.50400000000E-02 0.  1.
          2    1    1    2    0  502  0.17158040778E+02 -0.11305331218E+02 -0.29071597582E+02  0.35600093676E+02  0.25500000000E-02 0.  1.
         -2    1    1    2  502    0 -0.17158040778E+02  0.11305331218E+02 -0.23654422118E+02  0.31332739579E+02  0.25500000000E-02 0.  1.
<mgrwt>
<rscale>  0 0.41230705E+02</rscale>
<asrwt>0</asrwt>
<pdfrwt beam="2">  1        1 0.92045268E-02 0.41230705E+02</pdfrwt>
<pdfrwt beam="1">  1       -1 0.10928319E-02 0.41230705E+02</pdfrwt>
<totfact> 0.77087227E+05</totfact>
</mgrwt>
</event>
<event>
 4    1  0.3946801E-002  0.6046401E+02  0.7818608E-02  0.1395895E+00
          1   -1    0    0    0  501  0.00000000000E+00  0.00000000000E+00  0.79117227618E+03  0.79117227620E+03  0.50400000000E-02 0. -1.
         -1   -1    0    0  501    0 -0.00000000000E+00 -0.00000000000E+00 -0.11552095273E+01  0.11552205216E+01  0.50400000000E-02 0. -1.
          2    1    1    2    0  502  0.18820009190E+02 -0.14596641087E+02  0.63901249315E+03  0.63945619169E+03  0.25500000000E-02 0.  1.
         -2    1    1    2  502    0 -0.18820009190E+02  0.14596641087E+02  0.15100457350E+03  0.15287130503E+03  0.25500000000E-02 0.  1.
<mgrwt>
<rscale>  0 0.60464010E+02</rscale>
<asrwt>0</asrwt>
<pdfrwt beam="1">  1        1 0.12171903E+00 0.60464010E+02</pdfrwt>
<pdfrwt beam="2">  1       -1 0.17772508E-03 0.60464010E+02</pdfrwt>
<totfact> 0.40975496E+05</totfact>
</mgrwt>
</event>
<event>
 4    1  0.3946801E-002  0.4992323E+02  0.7818608E-02  0.1445756E+00
          1   -1    0    0    0  501  0.00000000000E+00  0.00000000000E+00  0.41736425651E+03  0.41736425654E+03  0.50400000000E-02 0.  1.
         -1   -1    0    0  501    0 -0.00000000000E+00 -0.00000000000E+00 -0.14928938357E+01  0.14929023432E+01  0.50400000000E-02 0.  1.
          2    1    1    2    0  502 -0.19356502512E+02  0.11597069829E+02  0.11838770652E+03  0.12051894158E+03  0.25500000000E-02 0. -1.
         -2    1    1    2  502    0  0.19356502512E+02 -0.11597069829E+02  0.29748365616E+03  0.29833821731E+03  0.25500000000E-02 0. -1.
<mgrwt>
<rscale>  0 0.49923234E+02</rscale>
<asrwt>0</asrwt>
<pdfrwt beam="1">  1        1 0.64209879E-01 0.49923234E+02</pdfrwt>
<pdfrwt beam="2">  1       -1 0.22967666E-03 0.49923234E+02</pdfrwt>
<totfact> 0.63921602E+05</totfact>
</mgrwt>
</event>
<event>
 4    1  0.3946801E-002  0.5465539E+02  0.7818608E-02  0.1421736E+00
          1   -1    0    0    0  501  0.00000000000E+00  0.00000000000E+00  0.20939495651E+03  0.20939495657E+03  0.50400000000E-02 0. -1.
         -1   -1    0    0  501    0 -0.00000000000E+00 -0.00000000000E+00 -0.35664779993E+01  0.35664815605E+01  0.50400000000E-02 0. -1.
          2    1    1    2    0  502  0.73392063756E+01 -0.26218381115E+02  0.11208158294E+03  0.11534101048E+03  0.25500000000E-02 0.  1.
         -2    1    1    2  502    0 -0.73392063756E+01  0.26218381115E+02  0.93746895573E+02  0.97620427650E+02  0.25500000000E-02 0.  1.
<mgrwt>
<rscale>  0 0.54655389E+02</rscale>
<asrwt>0</asrwt>
<pdfrwt beam="1">  1        1 0.32214618E-01 0.54655389E+02</pdfrwt>
<pdfrwt beam="2">  1       -1 0.54868904E-03 0.54655389E+02</pdfrwt>
<totfact> 0.45286270E+05</totfact>
</mgrwt>
</event>
<event>
 4    1  0.3946801E-002  0.4524677E+02  0.7818608E-02  0.1472807E+00
         -1   -1    0    0  501    0 -0.00000000000E+00  0.00000000000E+00  0.15707552196E+02  0.15707553004E+02  0.50400000000E-02 0.  1.
          1   -1    0    0    0  501  0.00000000000E+00 -0.00000000000E+00 -0.32584172419E+02  0.32584172808E+02  0.50400000000E-02 0.  1.
          2    1    1    2    0  502 -0.74718800202E+01  0.21345468584E+02 -0.90783245104E+01  0.24369530207E+02  0.25500000000E-02 0. -1.
         -2    1    1    2  502    0  0.74718800202E+01 -0.21345468584E+02 -0.77982957125E+01  0.23922195606E+02  0.25500000000E-02 0. -1.
<mgrwt>
<rscale>  0 0.45246773E+02</rscale>
<asrwt>0</asrwt>
<pdfrwt beam="2">  1        1 0.50129497E-02 0.45246773E+02</pdfrwt>
<pdfrwt beam="1">  1       -1 0.24165466E-02 0.45246773E+02</pdfrwt>
<totfact> 0.57846329E+05</totfact>
</mgrwt>
</event>
<event>
 4    1  0.3946801E-002  0.5018276E+02  0.7818608E-02  0.1444358E+00
          1   -1    0    0    0  501  0.00000000000E+00  0.00000000000E+00  0.79424083179E+02  0.79424083339E+02  0.50400000000E-02 0. -1.
         -1   -1    0    0  501    0 -0.00000000000E+00 -0.00000000000E+00 -0.79267796079E+01  0.79267812101E+01  0.50400000000E-02 0. -1.
          2    1    1    2    0  502  0.98207488984E+01 -0.23067792339E+02  0.37495493382E+02  0.45105234538E+02  0.25500000000E-02 0.  1.
         -2    1    1    2  502    0 -0.98207488984E+01  0.23067792339E+02  0.34001810189E+02  0.42245630010E+02  0.25500000000E-02 0.  1.
<mgrwt>
<rscale>  0 0.50182757E+02</rscale>
<asrwt>0</asrwt>
<pdfrwt beam="1">  1        1 0.12219090E-01 0.50182757E+02</pdfrwt>
<pdfrwt beam="2">  1       -1 0.12195047E-02 0.50182757E+02</pdfrwt>
<totfact> 0.48584701E+05</totfact>
</mgrwt>
</event>
<event>
 4    1  0.3946801E-002  0.4544371E+02  0.7818608E-02  0.1471591E+00
          1   -1    0    0    0  501  0.00000000000E+00  0.00000000000E+00  0.10217628170E+02  0.10217629413E+02  0.50400000000E-02 0.  1.
         -1   -1    0    0  501    0 -0.00000000000E+00 -0.00000000000E+00 -0.50528614452E+02  0.50528614703E+02  0.50400000000E-02 0.  1.
          2    1    1    2    0  502  0.12614253470E+02  0.18190907153E+02 -0.27004767607E+02  0.34918275640E+02  0.25500000000E-02 0.  1.
         -2    1    1    2  502    0 -0.12614253470E+02 -0.18190907153E+02 -0.13306218675E+02  0.25827968476E+02  0.25500000000E-02 0.  1.
<mgrwt>
<rscale>  0 0.45443708E+02</rscale>
<asrwt>0</asrwt>
<pdfrwt beam="1">  1        1 0.15719429E-02 0.45443708E+02</pdfrwt>
<pdfrwt beam="2">  1       -1 0.77736330E-02 0.45443708E+02</pdfrwt>
<totfact> 0.51577772E+05</totfact>
</mgrwt>
</event>
<event>
 4    1  0.3946801E-002  0.1247699E+03  0.7818608E-02  0.1235429E+00
         -1   -1    0    0  501    0 -0.00000000000E+00  0.00000000000E+00  0.48491392638E+01  0.48491418830E+01  0.50400000000E-02 0. -1.
          1   -1    0    0    0  501  0.00000000000E+00 -0.00000000000E+00 -0.80259209032E+03  0.80259209034E+03  0.50400000000E-02 0. -1.
          2    1    1    2    0  502 -0.12436457724E+02  0.19462407199E+02 -0.23838614217E+02  0.33192323043E+02  0.25500000000E-02 0. -1.
         -2    1    1    2  502    0  0.12436457724E+02 -0.19462407199E+02 -0.77390433684E+03  0.77424890918E+03  0.25500000000E-02 0. -1.
<mgrwt>
<rscale>  0 0.12476990E+03</rscale>
<asrwt>0</asrwt>
<pdfrwt beam="2">  1        1 0.12347560E+00 0.12476990E+03</pdfrwt>
<pdfrwt beam="1">  1       -1 0.74602227E-03 0.12476990E+03</pdfrwt>
<totfact> 0.60879239E+04</totfact>
</mgrwt>
</event>
<event>
 4    1  0.3946801E-002  0.6266492E+02  0.7818608E-02  0.1386977E+00
         -1   -1    0    0  501    0 -0.00000000000E+00  0.00000000000E+00  0.13970692331E+01  0.13970783241E+01  0.50400000000E-02 0.  1.
          1   -1    0    0    0  501  0.00000000000E+00 -0.00000000000E+00 -0.70269950863E+03  0.70269950864E+03  0.50400000000E-02 0.  1.
          2    1    1    2    0  502  0.10806738736E+02  0.28218168318E+02 -0.25754065088E+03  0.25930722606E+03  0.25500000000E-02 0.  1.
         -2    1    1    2  502    0 -0.10806738736E+02 -0.28218168318E+02 -0.44376178852E+03  0.44478936091E+03  0.25500000000E-02 0.  1.
<mgrwt>
<rscale>  0 0.62664921E+02</rscale>
<asrwt>0</asrwt>
<pdfrwt beam="2">  1        1 0.10810734E+00 0.62664921E+02</pdfrwt>
<pdfrwt beam="1">  1       -1 0.21493499E-03 0.62664921E+02</pdfrwt>
<totfact> 0.37626409E+05</totfact>
</mgrwt>
</event>
<event>
 4    1  0.3946801E-002  0.5946908E+02  0.7818608E-02  0.1400073E+00
          1   -1    0    0    0  501  0.00000000000E+00  0.00000000000E+00  0.94738516356E+00  0.94739856963E+00  0.50400000000E-02 0.  1.
         -1   -1    0    0  501    0 -0.00000000000E+00 -0.00000000000E+00 -0.93323866727E+03  0.93323866729E+03  0.50400000000E-02 0.  1.
          2    1    1    2    0  502  0.26368563062E+02 -0.13326458888E+02 -0.41346360305E+03  0.41451784845E+03  0.25500000000E-02 0. -1.
         -2    1    1    2  502    0 -0.26368563062E+02  0.13326458888E+02 -0.51882767906E+03  0.51966821741E+03  0.25500000000E-02 0. -1.
<mgrwt>
<rscale>  0 0.59469076E+02</rscale>
<asrwt>0</asrwt>
<pdfrwt beam="1">  1        1 0.14575334E-03 0.59469076E+02</pdfrwt>
<pdfrwt beam="2">  1       -1 0.14357445E+00 0.59469076E+02</pdfrwt>
<totfact> 0.83690291E+04</totfact>
</mgrwt>
</event>
<event>
 4    1  0.3946801E-002  0.6258114E+02  0.7818608E-02  0.1387308E+00
         -1   -1    0    0  501    0 -0.00000000000E+00  0.00000000000E+00  0.51421644195E+02  0.51421644442E+02  0.50400000000E-02 0. -1.
          1   -1    0    0    0  501  0.00000000000E+00 -0.00000000000E+00 -0.19040612503E+02  0.19040613170E+02  0.50400000000E-02 0. -1.
          2    1    1    2    0  502 -0.43776163894E+01 -0.29963746712E+02  0.25063992802E+02  0.39308947886E+02  0.25500000000E-02 0.  1.
         -2    1    1    2  502    0  0.43776163894E+01  0.29963746712E+02  0.73170388901E+01  0.31153309726E+02  0.25500000000E-02 0.  1.
<mgrwt>
<rscale>  0 0.62581136E+02</rscale>
<asrwt>0</asrwt>
<pdfrwt beam="2">  1        1 0.29293251E-02 0.62581136E+02</pdfrwt>
<pdfrwt beam="1">  1       -1 0.79110222E-02 0.62581136E+02</pdfrwt>
<totfact> 0.23365968E+05</totfact>
</mgrwt>
</event>
<event>
 4    1  0.3946801E-002  0.4636694E+02  0.7818608E-02  0.1465984E+00
         -1   -1    0    0  501    0 -0.00000000000E+00  0.00000000000E+00  0.11311685681E+03  0.11311685693E+03  0.50400000000E-02 0. -1.
          1   -1    0    0    0  501  0.00000000000E+00 -0.00000000000E+00 -0.47514854089E+01  0.47514880820E+01  0.50400000000E-02 0. -1.
          2    1    1    2    0  502  0.20570034551E+02 -0.60319038834E+01  0.76628388877E+02  0.79570221655E+02  0.25500000000E-02 0. -1.
         -2    1    1    2  502    0 -0.20570034551E+02  0.60319038834E+01  0.31736982527E+02  0.38298123352E+02  0.25500000000E-02 0. -1.
<mgrwt>
<rscale>  0 0.46366939E+02</rscale>
<asrwt>0</asrwt>
<pdfrwt beam="2">  1        1 0.73099792E-03 0.46366939E+02</pdfrwt>
<pdfrwt beam="1">  1       -1 0.17402595E-01 0.46366939E+02</pdfrwt>
<totfact> 0.43879563E+05</totfact>
</mgrwt>
</event>
<event>
 4    1  0.3946801E-002  0.4429973E+02  0.7818608E-02  0.1478761E+00
         -1   -1    0    0  501    0 -0.00000000000E+00  0.00000000000E+00  0.40629743162E+02  0.40629743474E+02  0.50400000000E-02 0. -1.
          1   -1    0    0    0  501  0.00000000000E+00 -0.00000000000E+00 -0.12075306088E+02  0.12075307140E+02  0.50400000000E-02 0. -1.
          2    1    1    2    0  502  0.77396847195E+01  0.20160757460E+02  0.20136932269E+02  0.29527189312E+02  0.25500000000E-02 0. -1.
         -2    1    1    2  502    0 -0.77396847195E+01 -0.20160757460E+02  0.84175048043E+01  0.23177861303E+02  0.25500000000E-02 0. -1.
<mgrwt>
<rscale>  0 0.44299735E+02</rscale>
<asrwt>0</asrwt>
<pdfrwt beam="2">  1        1 0.18577395E-02 0.44299735E+02</pdfrwt>
<pdfrwt beam="1">  1       -1 0.62507298E-02 0.44299735E+02</pdfrwt>
<totfact> 0.56119002E+05</totfact>
</mgrwt>
</event>
<event>
 4    1  0.3946801E-002  0.7273406E+02  0.7818608E-02  0.1351035E+00
          1   -1    0    0    0  501  0.00000000000E+00  0.00000000000E+00  0.14161849715E+03  0.14161849724E+03  0.50400000000E-02 0.  1.
         -1   -1    0    0  501    0 -0.00000000000E+00 -0.00000000000E+00 -0.93388974336E+01  0.93388987936E+01  0.50400000000E-02 0.  1.
          2    1    1    2    0  502 -0.25974540129E+02  0.23107296855E+02  0.88293620487E+02  0.94891450237E+02  0.25500000000E-02 0.  1.
         -2    1    1    2  502    0  0.25974540129E+02 -0.23107296855E+02  0.43985979233E+02  0.56065945800E+02  0.25500000000E-02 0.  1.
<mgrwt>
<rscale>  0 0.72734056E+02</rscale>
<asrwt>0</asrwt>
<pdfrwt beam="1">  1        1 0.21787461E-01 0.72734056E+02</pdfrwt>
<pdfrwt beam="2">  1       -1 0.14367536E-02 0.72734056E+02</pdfrwt>
<totfact> 0.20260761E+05</totfact>
</mgrwt>
</event>
<event>
 4    1  0.3946801E-002  0.5105093E+02  0.7818608E-02  0.1439754E+00
         -1   -1    0    0  501    0 -0.00000000000E+00  0.00000000000E+00  0.88265732131E+00  0.88267171047E+00  0.50400000000E-02 0.  1.
          1   -1    0    0    0  501  0.00000000000E+00 -0.00000000000E+00 -0.73816188829E+03  0.73816188831E+03  0.50400000000E-02 0.  1.
          2    1    1    2    0  502  0.23773670915E+02 -0.92370981843E+01 -0.38338801229E+03  0.38423544785E+03  0.25500000000E-02 0. -1.
         -2    1    1    2  502    0 -0.23773670915E+02  0.92370981843E+01 -0.35389121868E+03  0.35480911217E+03  0.25500000000E-02 0. -1.
<mgrwt>
<rscale>  0 0.51050928E+02</rscale>
<asrwt>0</asrwt>
<pdfrwt beam="2">  1        1 0.11356287E+00 0.51050928E+02</pdfrwt>
<pdfrwt beam="1">  1       -1 0.13579513E-03 0.51050928E+02</pdfrwt>
<totfact> 0.62923216E+05</totfact>
</mgrwt>
</event>
<event>
 4    1  0.3946801E-002  0.6634929E+02  0.7818608E-02  0.1372967E+00
          1   -1    0    0    0  501  0.00000000000E+00  0.00000000000E+00  0.38800619959E+01  0.38800652693E+01  0.50400000000E-02 0. -1.
         -1   -1    0    0  501    0 -0.00000000000E+00 -0.00000000000E+00 -0.28364403869E+03  0.28364403873E+03  0.50400000000E-02 0. -1.
          2    1    1    2    0  502 -0.18451490160E+02  0.26304099627E+02 -0.17566775991E+03  0.17858198405E+03  0.25500000000E-02 0. -1.
         -2    1    1    2  502    0  0.18451490160E+02 -0.26304099627E+02 -0.10409621678E+03  0.10894211995E+03  0.25500000000E-02 0. -1.
<mgrwt>
<rscale>  0 0.66349286E+02</rscale>
<asrwt>0</asrwt>
<pdfrwt beam="1">  1        1 0.59693309E-03 0.66349286E+02</pdfrwt>
<pdfrwt beam="2">  1       -1 0.43637528E-01 0.66349286E+02</pdfrwt>
<totfact> 0.14067984E+05</totfact>
</mgrwt>
</event>
<event>
 4    1  0.3946801E-002  0.6589419E+02  0.7818608E-02  0.1374639E+00
         -1   -1    0    0  501    0 -0.00000000000E+00  0.00000000000E+00  0.52052178851E+01  0.52052203251E+01  0.50400000000E-02 0.  1.
          1   -1    0    0    0  501  0.00000000000E+00 -0.00000000000E+00 -0.20854282709E+03  0.20854282716E+03  0.50400000000E-02 0.  1.
          2    1    1    2    0  502 -0.27787339089E+02  0.13150583955E+02 -0.63227699953E+02  0.70305164247E+02  0.25500000000E-02 0.  1.
         -2    1    1    2  502    0  0.27787339089E+02 -0.13150583955E+02 -0.14010990926E+03  0.14344288323E+03  0.25500000000E-02 0.  1.
<mgrwt>
<rscale>  0 0.65894192E+02</rscale>
<asrwt>0</asrwt>
<pdfrwt beam="2">  1        1 0.32083505E-01 0.65894192E+02</pdfrwt>
<pdfrwt beam="1">  1       -1 0.80080311E-03 0.65894192E+02</pdfrwt>
<totfact> 0.28055550E+05</totfact>
</mgrwt>
</event>
<event>
 4    1  0.3946801E-002  0.5953722E+02  0.7818608E-02  0.1399784E+00
         -1   -1    0    0  501    0 -0.00000000000E+00  0.00000000000E+00  0.10100082742E+03  0.10100082754E+03  0.50400000000E-02 0. -1.
          1   -1    0    0    0  501  0.00000000000E+00 -0.00000000000E+00 -0.87738876788E+01  0.87738891264E+01  0.50400000000E-02 0. -1.
          2    1    1    2    0  502  0.23917198765E+02  0.54329623188E+01  0.77219666285E+02  0.81021147511E+02  0.25500000000E-02 0. -1.
         -2    1    1    2  502    0 -0.23917198765E+02 -0.54329623188E+01  0.15007273453E+02  0.28753569158E+02  0.25500000000E-02 0. -1.
<mgrwt>
<rscale>  0 0.59537215E+02</rscale>
<asrwt>0</asrwt>
<pdfrwt beam="2">  1        1 0.13498289E-02 0.59537215E+02</pdfrwt>
<pdfrwt beam="1">  1       -1 0.15538590E-01 0.59537215E+02</pdfrwt>
<totfact> 0.24047805E+05</totfact>
</mgrwt>
</event>
<event>
 4    1  0.3946801E-002  0.8716702E+02  0.7818608E-02  0.1309861E+00
          1   -1    0    0    0  501  0.00000000000E+00  0.00000000000E+00  0.59196757218E+03  0.59196757220E+03  0.50400000000E-02 0.  1.
         -1   -1    0    0  501    0 -0.00000000000E+00 -0.00000000000E+00 -0.32088266968E+01  0.32088306549E+01  0.50400000000E-02 0.  1.
          2    1    1    2    0  502  0.23324363325E+02  0.14224908793E+02  0.52624486373E+03  0.52695353738E+03  0.25500000000E-02 0.  1.
         -2    1    1    2  502    0 -0.23324363325E+02 -0.14224908793E+02  0.62513881755E+02  0.68222865472E+02  0.25500000000E-02 0.  1.
<mgrwt>
<rscale>  0 0.87167024E+02</rscale>
<asrwt>0</asrwt>
<pdfrwt beam="1">  1        1 0.91071882E-01 0.87167024E+02</pdfrwt>
<pdfrwt beam="2">  1       -1 0.49366624E-03 0.87167024E+02</pdfrwt>
<totfact> 0.15930738E+05</totfact>
</mgrwt>
</event>
<event>
 4    1  0.3946801E-002  0.1340884E+03  0.7818608E-02  0.1221512E+00
          1   -1    0    0    0  501  0.00000000000E+00  0.00000000000E+00  0.73292867755E+03  0.73292867757E+03  0.50400000000E-02 0.  1.
         -1   -1    0    0  501    0 -0.00000000000E+00 -0.00000000000E+00 -0.61328225025E+01  0.61328245735E+01  0.50400000000E-02 0.  1.
          2    1    1    2    0  502  0.52252305172E+02  0.41719818501E+02  0.33635348383E+03  0.34293514363E+03  0.25500000000E-02 0.  1.
         -2    1    1    2  502    0 -0.52252305172E+02 -0.41719818501E+02  0.39044237122E+03  0.39612635851E+03  0.25500000000E-02 0.  1.
<mgrwt>
<rscale>  0 0.13408836E+03</rscale>
<asrwt>0</asrwt>
<pdfrwt beam="1">  1        1 0.11275830E+00 0.13408836E+03</pdfrwt>
<pdfrwt beam="2">  1       -1 0.94351095E-03 0.13408836E+03</pdfrwt>
<totfact> 0.50263368E+04</totfact>
</mgrwt>
</event>
<event>
 4    1  0.3946801E-002  0.5058129E+02  0.7818608E-02  0.1442231E+00
         -1   -1    0    0  501    0 -0.00000000000E+00  0.00000000000E+00  0.14034001256E+01  0.14034091756E+01  0.50400000000E-02 0.  1.
          1   -1    0    0    0  501  0.00000000000E+00 -0.00000000000E+00 -0.45576080113E+03  0.45576080115E+03  0.50400000000E-02 0.  1.
          2    1    1    2    0  502 -0.72337165123E+01  0.23154595227E+02 -0.29182235501E+03  0.29282887294E+03  0.25500000000E-02 0.  1.
         -2    1    1    2  502    0  0.72337165123E+01 -0.23154595227E+02 -0.16253504599E+03  0.16433533739E+03  0.25500000000E-02 0.  1.
<mgrwt>
<rscale>  0 0.50581295E+02</rscale>
<asrwt>0</asrwt>
<pdfrwt beam="2">  1        1 0.70116929E-01 0.50581295E+02</pdfrwt>
<pdfrwt beam="1">  1       -1 0.21590877E-03 0.50581295E+02</pdfrwt>
<totfact> 0.62623392E+05</totfact>
</mgrwt>
</event>
<event>
 4    1  0.3946801E-002  0.4464722E+02  0.7818608E-02  0.1476556E+00
         -1   -1    0    0  501    0 -0.00000000000E+00  0.00000000000E+00  0.16576840849E+03  0.16576840856E+03  0.50400000000E-02 0. -1.
          1   -1    0    0    0  501  0.00000000000E+00 -0.00000000000E+00 -0.30062620373E+01  0.30062662621E+01  0.50400000000E-02 0. -1.
          2    1    1    2    0  502  0.17803620717E+02 -0.12339587265E+02  0.10177630979E+03  0.10405600206E+03  0.25500000000E-02 0.  1.
         -2    1    1    2  502    0 -0.17803620717E+02  0.12339587265E+02  0.60985836661E+02  0.64718672763E+02  0.25500000000E-02 0.  1.
<mgrwt>
<rscale>  0 0.44647223E+02</rscale>
<asrwt>0</asrwt>
<pdfrwt beam="2">  1        1 0.46250202E-03 0.44647223E+02</pdfrwt>
<pdfrwt beam="1">  1       -1 0.25502841E-01 0.44647223E+02</pdfrwt>
<totfact> 0.44469381E+05</totfact>
</mgrwt>
</event>
<event>
 4    1  0.3946801E-002  0.1183916E+03  0.7818608E-02  0.1245774E+00
         -1   -1    0    0  501    0 -0.00000000000E+00  0.00000000000E+00  0.33479926380E+04  0.33479926380E+04  0.50400000000E-02 0. -1.
          1   -1    0    0    0  501  0.00000000000E+00 -0.00000000000E+00 -0.10466334922E+01  0.10466456270E+01  0.50400000000E-02 0. -1.
          2    1    1    2    0  502 -0.53527393894E+02 -0.25275786340E+02  0.16647874829E+04  0.16658395512E+04  0.25500000000E-02 0. -1.
         -2    1    1    2  502    0  0.53527393894E+02  0.25275786340E+02  0.16821585216E+04  0.16831997324E+04  0.25500000000E-02 0. -1.
<mgrwt>
<rscale>  0 0.11839158E+03</rscale>
<asrwt>0</asrwt>
<pdfrwt beam="2">  1        1 0.16102322E-03 0.11839158E+03</pdfrwt>
<pdfrwt beam="1">  1       -1 0.51507020E+00 0.11839158E+03</pdfrwt>
<totfact> 0.30963638E+02</totfact>
</mgrwt>
</event>
<event>
 4    1  0.3946801E-002  0.8180578E+02  0.7818608E-02  0.1324004E+00
         -1   -1    0    0  501    0 -0.00000000000E+00  0.00000000000E+00  0.31323474193E+03  0.31323474198E+03  0.50400000000E-02 0.  1.
          1   -1    0    0    0  501  0.00000000000E+00 -0.00000000000E+00 -0.53411888832E+01  0.53411912611E+01  0.50400000000E-02 0.  1.
          2    1    1    2    0  502 -0.22697452011E+02 -0.33832345967E+02  0.13977435281E+03  0.14559076781E+03  0.25500000000E-02 0.  1.
         -2    1    1    2  502    0  0.22697452011E+02  0.33832345967E+02  0.16811920024E+03  0.17298516542E+03  0.25500000000E-02 0.  1.
<mgrwt>
<rscale>  0 0.81805777E+02</rscale>
<asrwt>0</asrwt>
<pdfrwt beam="2">  1        1 0.82172140E-03 0.81805777E+02</pdfrwt>
<pdfrwt beam="1">  1       -1 0.48189969E-01 0.81805777E+02</pdfrwt>
<totfact> 0.78985720E+04</totfact>
</mgrwt>
</event>
<event>
 4    1  0.3946801E-002  0.6357397E+02  0.7818608E-02  0.1383417E+00
          1   -1    0    0    0  501  0.00000000000E+00  0.00000000000E+00  0.21609812094E+03  0.21609812100E+03  0.50400000000E-02 0.  1.
         -1   -1    0    0  501    0 -0.00000000000E+00 -0.00000000000E+00 -0.46757101683E+01  0.46757128846E+01  0.50400000000E-02 0.  1.
          2    1    1    2    0  502  0.21378477091E+02  0.18328642008E+02  0.54503883912E+02  0.61348608531E+02  0.25500000000E-02 0. -1.
         -2    1    1    2  502    0 -0.21378477091E+02 -0.18328642008E+02  0.15691852686E+03  0.15942522536E+03  0.25500000000E-02 0. -1.
<mgrwt>
<rscale>  0 0.63573972E+02</rscale>
<asrwt>0</asrwt>
<pdfrwt beam="1">  1        1 0.33245857E-01 0.63573972E+02</pdfrwt>
<pdfrwt beam="2">  1       -1 0.71934041E-03 0.63573972E+02</pdfrwt>
<totfact> 0.30972965E+05</totfact>
</mgrwt>
</event>
<event>
 4    1  0.3946801E-002  0.5980636E+02  0.7818608E-02  0.1398646E+00
         -1   -1    0    0  501    0 -0.00000000000E+00  0.00000000000E+00  0.16439979220E+01  0.16440056476E+01  0.50400000000E-02 0.  1.
          1   -1    0    0    0  501  0.00000000000E+00 -0.00000000000E+00 -0.54391678325E+03  0.54391678327E+03  0.50400000000E-02 0.  1.
          2    1    1    2    0  502  0.22561405092E+02 -0.47602501746E+01 -0.97450848944E+02  0.10014162445E+03  0.25500000000E-02 0.  1.
         -2    1    1    2  502    0 -0.22561405092E+02  0.47602501746E+01 -0.44482193638E+03  0.44541916447E+03  0.25500000000E-02 0.  1.
<mgrwt>
<rscale>  0 0.59806360E+02</rscale>
<asrwt>0</asrwt>
<pdfrwt beam="2">  1        1 0.83679362E-01 0.59806360E+02</pdfrwt>
<pdfrwt beam="1">  1       -1 0.25292379E-03 0.59806360E+02</pdfrwt>
<totfact> 0.41920251E+05</totfact>
</mgrwt>
</event>
<event>
 4    1  0.3946801E-002  0.6937065E+02  0.7818608E-02  0.1362246E+00
         -1   -1    0    0  501    0 -0.00000000000E+00  0.00000000000E+00  0.15672338223E+04  0.15672338224E+04  0.50400000000E-02 0.  1.
          1   -1    0    0    0  501  0.00000000000E+00 -0.00000000000E+00 -0.76763204456E+00  0.76764858981E+00  0.50400000000E-02 0.  1.
          2    1    1    2    0  502 -0.21431045243E+02 -0.27257571103E+02  0.76292798696E+03  0.76371550866E+03  0.25500000000E-02 0.  1.
         -2    1    1    2  502    0  0.21431045243E+02  0.27257571103E+02  0.80353820334E+03  0.80428596228E+03  0.25500000000E-02 0.  1.
<mgrwt>
<rscale>  0 0.69370653E+02</rscale>
<asrwt>0</asrwt>
<pdfrwt beam="2">  1        1 0.11809970E-03 0.69370653E+02</pdfrwt>
<pdfrwt beam="1">  1       -1 0.24111046E+00 0.69370653E+02</pdfrwt>
<totfact> 0.25801405E+04</totfact>
</mgrwt>
</event>
<event>
 4    1  0.3946801E-002  0.7450887E+02  0.7818608E-02  0.1345399E+00
         -1   -1    0    0  501    0 -0.00000000000E+00  0.00000000000E+00  0.10051361244E+03  0.10051361257E+03  0.50400000000E-02 0. -1.
          1   -1    0    0    0  501  0.00000000000E+00 -0.00000000000E+00 -0.13808008611E+02  0.13808009531E+02  0.50400000000E-02 0. -1.
          2    1    1    2    0  502 -0.61339826601E+01  0.34542313345E+02  0.24121769905E+02  0.42575309093E+02  0.25500000000E-02 0.  1.
         -2    1    1    2  502    0  0.61339826601E+01 -0.34542313345E+02  0.62583833924E+02  0.71746313004E+02  0.25500000000E-02 0.  1.
<mgrwt>
<rscale>  0 0.74508869E+02</rscale>
<asrwt>0</asrwt>
<pdfrwt beam="2">  1        1 0.21243091E-02 0.74508869E+02</pdfrwt>
<pdfrwt beam="1">  1       -1 0.15463632E-01 0.74508869E+02</pdfrwt>
<totfact> 0.13640651E+05</totfact>
</mgrwt>
</event>
<event>
 4    1  0.3946801E-002  0.5661791E+02  0.7818608E-02  0.1412599E+00
         -1   -1    0    0  501    0 -0.00000000000E+00  0.00000000000E+00  0.47327722689E+02  0.47327722957E+02  0.50400000000E-02 0.  1.
          1   -1    0    0    0  501  0.00000000000E+00 -0.00000000000E+00 -0.16932927776E+02  0.16932928526E+02  0.50400000000E-02 0.  1.
          2    1    1    2    0  502 -0.66857489872E+01 -0.26410960138E+02  0.23927136559E+02  0.36259425331E+02  0.25500000000E-02 0.  1.
         -2    1    1    2  502    0  0.66857489872E+01  0.26410960138E+02  0.64676583543E+01  0.28001226152E+02  0.25500000000E-02 0.  1.
<mgrwt>
<rscale>  0 0.56617910E+02</rscale>
<asrwt>0</asrwt>
<pdfrwt beam="2">  1        1 0.26050659E-02 0.56617910E+02</pdfrwt>
<pdfrwt beam="1">  1       -1 0.72811881E-02 0.56617910E+02</pdfrwt>
<totfact> 0.30258258E+05</totfact>
</mgrwt>
</event>
<event>
 4    1  0.3946801E-002  0.4463145E+02  0.7818608E-02  0.1476656E+00
         -1   -1    0    0  501    0 -0.00000000000E+00  0.00000000000E+00  0.25075087521E+02  0.25075088027E+02  0.50400000000E-02 0. -1.
          1   -1    0    0    0  501  0.00000000000E+00 -0.00000000000E+00 -0.19860016926E+02  0.19860017566E+02  0.50400000000E-02 0. -1.
          2    1    1    2    0  502 -0.14601794822E+02  0.13974348626E+02 -0.69171053524E+01  0.21362143725E+02  0.25500000000E-02 0.  1.
         -2    1    1    2  502    0  0.14601794822E+02 -0.13974348626E+02  0.12132175947E+02  0.23572961869E+02  0.25500000000E-02 0.  1.
<mgrwt>
<rscale>  0 0.44631455E+02</rscale>
<asrwt>0</asrwt>
<pdfrwt beam="2">  1        1 0.30553873E-02 0.44631455E+02</pdfrwt>
<pdfrwt beam="1">  1       -1 0.38577059E-02 0.44631455E+02</pdfrwt>
<totfact> 0.57524641E+05</totfact>
</mgrwt>
</event>
<event>
 4    1  0.3946801E-002  0.5988329E+02  0.7818608E-02  0.1398322E+00
          1   -1    0    0    0  501  0.00000000000E+00  0.00000000000E+00  0.12222628588E+02  0.12222629627E+02  0.50400000000E-02 0.  1.
         -1   -1    0    0  501    0 -0.00000000000E+00 -0.00000000000E+00 -0.73347735554E+02  0.73347735727E+02  0.50400000000E-02 0.  1.
          2    1    1    2    0  502  0.73178316065E+01  0.26483527937E+02 -0.13560167520E+02  0.30639942250E+02  0.25500000000E-02 0.  1.
         -2    1    1    2  502    0 -0.73178316065E+01 -0.26483527937E+02 -0.47564939446E+02  0.54930423104E+02  0.25500000000E-02 0.  1.
<mgrwt>
<rscale>  0 0.59883293E+02</rscale>
<asrwt>0</asrwt>
<pdfrwt beam="1">  1        1 0.18804045E-02 0.59883293E+02</pdfrwt>
<pdfrwt beam="2">  1       -1 0.11284267E-01 0.59883293E+02</pdfrwt>
<totfact> 0.24903633E+05</totfact>
</mgrwt>
</event>
<event>
 4    1  0.3946801E-002  0.8448894E+02  0.7818608E-02  0.1316774E+00
         -1   -1    0    0  501    0 -0.00000000000E+00  0.00000000000E+00  0.13427378030E+02  0.13427378976E+02  0.50400000000E-02 0.  1.
          1   -1    0    0    0  501  0.00000000000E+00 -0.00000000000E+00 -0.13290721010E+03  0.13290721020E+03  0.50400000000E-02 0.  1.
          2    1    1    2    0  502  0.37797424041E+02 -0.16330893866E+02 -0.76102664082E+02  0.86527214479E+02  0.25500000000E-02 0. -1.
         -2    1    1    2  502    0 -0.37797424041E+02  0.16330893866E+02 -0.43377167991E+02  0.59807374696E+02  0.25500000000E-02 0. -1.
<mgrwt>
<rscale>  0 0.84488944E+02</rscale>
<asrwt>0</asrwt>
<pdfrwt beam="2">  1        1 0.20447262E-01 0.84488944E+02</pdfrwt>
<pdfrwt beam="1">  1       -1 0.20657506E-02 0.84488944E+02</pdfrwt>
<totfact> 0.13466039E+05</totfact>
</mgrwt>
</event>
<event>
 4    1  0.3946801E-002  0.6030713E+02  0.7818608E-02  0.1396547E+00
         -1   -1    0    0  501    0 -0.00000000000E+00  0.00000000000E+00  0.15160219542E+01  0.15160303319E+01  0.50400000000E-02 0.  1.
          1   -1    0    0    0  501  0.00000000000E+00 -0.00000000000E+00 -0.59975058262E+03  0.59975058264E+03  0.50400000000E-02 0.  1.
          2    1    1    2    0  502  0.14133574120E+02  0.25155369923E+02 -0.38642634258E+03  0.38750208877E+03  0.25500000000E-02 0.  1.
         -2    1    1    2  502    0 -0.14133574120E+02 -0.25155369923E+02 -0.21180821809E+03  0.21376452421E+03  0.25500000000E-02 0.  1.
<mgrwt>
<rscale>  0 0.60307133E+02</rscale>
<asrwt>0</asrwt>
<pdfrwt beam="2">  1        1 0.92269132E-01 0.60307133E+02</pdfrwt>
<pdfrwt beam="1">  1       -1 0.23323527E-03 0.60307133E+02</pdfrwt>
<totfact> 0.41332277E+05</totfact>
</mgrwt>
</event>
<event>
 4    1  0.3946801E-002  0.6106943E+02  0.7818608E-02  0.1393398E+00
         -1   -1    0    0  501    0 -0.00000000000E+00  0.00000000000E+00  0.13798671575E+02  0.13798672495E+02  0.50400000000E-02 0. -1.
          1   -1    0    0    0  501  0.00000000000E+00 -0.00000000000E+00 -0.67569457730E+02  0.67569457918E+02  0.50400000000E-02 0. -1.
          2    1    1    2    0  502  0.29658598360E+02  0.67505384250E+01 -0.23318532721E+02  0.38326964404E+02  0.25500000000E-02 0. -1.
         -2    1    1    2  502    0 -0.29658598360E+02 -0.67505384250E+01 -0.30452253435E+02  0.43041166009E+02  0.25500000000E-02 0. -1.
<mgrwt>
<rscale>  0 0.61069429E+02</rscale>
<asrwt>0</asrwt>
<pdfrwt beam="2">  1        1 0.10395301E-01 0.61069429E+02</pdfrwt>
<pdfrwt beam="1">  1       -1 0.21228727E-02 0.61069429E+02</pdfrwt>
<totfact> 0.28761855E+05</totfact>
</mgrwt>
</event>
<event>
 4    1  0.3946801E-002  0.7104902E+02  0.7818608E-02  0.1356562E+00
         -1   -1    0    0  501    0 -0.00000000000E+00  0.00000000000E+00  0.22224571515E+03  0.22224571521E+03  0.50400000000E-02 0. -1.
          1   -1    0    0    0  501  0.00000000000E+00 -0.00000000000E+00 -0.56783574049E+01  0.56783596416E+01  0.50400000000E-02 0. -1.
          2    1    1    2    0  502  0.18132619663E+02  0.16381864292E+02  0.19099949168E+03  0.19255638967E+03  0.25500000000E-02 0. -1.
         -2    1    1    2  502    0 -0.18132619663E+02 -0.16381864292E+02  0.25567866070E+02  0.35367685186E+02  0.25500000000E-02 0. -1.
<mgrwt>
<rscale>  0 0.71049021E+02</rscale>
<asrwt>0</asrwt>
<pdfrwt beam="2">  1        1 0.87359349E-03 0.71049021E+02</pdfrwt>
<pdfrwt beam="1">  1       -1 0.34191654E-01 0.71049021E+02</pdfrwt>
<totfact> 0.12821539E+05</totfact>
</mgrwt>
</event>
<event>
 4    1  0.3946801E-002  0.6377036E+02  0.7818608E-02  0.1382657E+00
         -1   -1    0    0  501    0 -0.00000000000E+00  0.00000000000E+00  0.79689424167E+00  0.79691017939E+00  0.50400000000E-02 0.  1.
          1   -1    0    0    0  501  0.00000000000E+00 -0.00000000000E+00 -0.12757710727E+04  0.12757710727E+04  0.50400000000E-02 0.  1.
          2    1    1    2    0  502  0.29588235558E+02  0.45999826450E+01 -0.85681320622E+03  0.85733627818E+03  0.25500000000E-02 0.  1.
         -2    1    1    2  502    0 -0.29588235558E+02 -0.45999826450E+01 -0.41816097220E+03  0.41923170467E+03  0.25500000000E-02 0.  1.
<mgrwt>
<rscale>  0 0.63770363E+02</rscale>
<asrwt>0</asrwt>
<pdfrwt beam="2">  1        1 0.19627084E+00 0.63770363E+02</pdfrwt>
<pdfrwt beam="1">  1       -1 0.12260136E-03 0.63770363E+02</pdfrwt>
<totfact> 0.31246209E+05</totfact>
</mgrwt>
</event>
<event>
 4    1  0.3946801E-002  0.4210313E+02  0.7818608E-02  0.1493281E+00
         -1   -1    0    0  501    0 -0.00000000000E+00  0.00000000000E+00  0.75671678327E+01  0.75671695111E+01  0.50400000000E-02 0. -1.
          1   -1    0    0    0  501  0.00000000000E+00 -0.00000000000E+00 -0.58564617608E+02  0.58564617825E+02  0.50400000000E-02 0. -1.
          2    1    1    2    0  502 -0.80288253879E+01 -0.19386017156E+02 -0.22829143075E+02  0.31007248803E+02  0.25500000000E-02 0. -1.
         -2    1    1    2  502    0  0.80288253879E+01  0.19386017156E+02 -0.28168306700E+02  0.35124538533E+02  0.25500000000E-02 0. -1.
<mgrwt>
<rscale>  0 0.42103128E+02</rscale>
<asrwt>0</asrwt>
<pdfrwt beam="2">  1        1 0.90099410E-02 0.42103128E+02</pdfrwt>
<pdfrwt beam="1">  1       -1 0.11641798E-02 0.42103128E+02</pdfrwt>
<totfact> 0.73031932E+05</totfact>
</mgrwt>
</event>
<event>
 4    1  0.3946801E-002  0.1017220E+03  0.7818608E-02  0.1276716E+00
         -1   -1    0    0  501    0 -0.00000000000E+00  0.00000000000E+00  0.77986685911E+03  0.77986685913E+03  0.50400000000E-02 0. -1.
          1   -1    0    0    0  501  0.00000000000E+00 -0.00000000000E+00 -0.33170244826E+01  0.33170283116E+01  0.50400000000E-02 0. -1.
          2    1    1    2    0  502 -0.15884282796E+02  0.45068420815E+02  0.25417377366E+03  0.25862671984E+03  0.25500000000E-02 0.  1.
         -2    1    1    2  502    0  0.15884282796E+02 -0.45068420815E+02  0.52237606097E+03  0.52455716759E+03  0.25500000000E-02 0.  1.
<mgrwt>
<rscale>  0 0.10172195E+03</rscale>
<asrwt>0</asrwt>
<pdfrwt beam="2">  1        1 0.51031145E-03 0.10172195E+03</pdfrwt>
<pdfrwt beam="1">  1       -1 0.11997959E+00 0.10172195E+03</pdfrwt>
<totfact> 0.25062921E+04</totfact>
</mgrwt>
</event>
<event>
 4    1  0.3946801E-002  0.5316713E+02  0.7818608E-02  0.1428971E+00
          1   -1    0    0    0  501  0.00000000000E+00  0.00000000000E+00  0.12141768441E+03  0.12141768452E+03  0.50400000000E-02 0.  1.
         -1   -1    0    0  501    0 -0.00000000000E+00 -0.00000000000E+00 -0.58202873018E+01  0.58202894840E+01  0.50400000000E-02 0.  1.
          2    1    1    2    0  502 -0.19446323009E+02  0.10146068915E+02  0.21854613851E+02  0.30963306447E+02  0.25500000000E-02 0.  1.
         -2    1    1    2  502    0  0.19446323009E+02 -0.10146068915E+02  0.93742783258E+02  0.96274667553E+02  0.25500000000E-02 0.  1.
<mgrwt>
<rscale>  0 0.53167131E+02</rscale>
<asrwt>0</asrwt>
<pdfrwt beam="1">  1        1 0.18679643E-01 0.53167131E+02</pdfrwt>
<pdfrwt beam="2">  1       -1 0.89542902E-03 0.53167131E+02</pdfrwt>
<totfact> 0.44421405E+05</totfact>
</mgrwt>
</event>
<event>
 4    1  0.3946801E-002  0.2401505E+03  0.7818608E-02  0.1119693E+00
          1   -1    0    0    0  501  0.00000000000E+00  0.00000000000E+00  0.92592048286E+03  0.92592048287E+03  0.50400000000E-02 0.  1.
         -1   -1    0    0  501    0 -0.00000000000E+00 -0.00000000000E+00 -0.15571601463E+02  0.15571602279E+02  0.50400000000E-02 0.  1.
          2    1    1    2    0  502  0.96476057580E+02  0.44399031975E+02  0.67482889222E+03  0.68313464083E+03  0.25500000000E-02 0.  1.
         -2    1    1    2  502    0 -0.96476057580E+02 -0.44399031975E+02  0.23551998918E+03  0.25835744432E+03  0.25500000000E-02 0.  1.
<mgrwt>
<rscale>  0 0.24015050E+03</rscale>
<asrwt>0</asrwt>
<pdfrwt beam="1">  1        1 0.14244933E+00 0.24015050E+03</pdfrwt>
<pdfrwt beam="2">  1       -1 0.23956306E-02 0.24015050E+03</pdfrwt>
<totfact> 0.95158281E+03</totfact>
</mgrwt>
</event>
<event>
 4    1  0.3946801E-002  0.5601197E+02  0.7818608E-02  0.1415373E+00
          1   -1    0    0    0  501  0.00000000000E+00  0.00000000000E+00  0.22453729500E+03  0.22453729505E+03  0.50400000000E-02 0. -1.
         -1   -1    0    0  501    0 -0.00000000000E+00 -0.00000000000E+00 -0.34931161129E+01  0.34931197488E+01  0.50400000000E-02 0. -1.
          2    1    1    2    0  502 -0.15084586669E+02 -0.22880337099E+02  0.13400803155E+03  0.13678160368E+03  0.25500000000E-02 0. -1.
         -2    1    1    2  502    0  0.15084586669E+02  0.22880337099E+02  0.87036147337E+02  0.91248811119E+02  0.25500000000E-02 0. -1.
<mgrwt>
<rscale>  0 0.56011972E+02</rscale>
<asrwt>0</asrwt>
<pdfrwt beam="1">  1        1 0.34544202E-01 0.56011972E+02</pdfrwt>
<pdfrwt beam="2">  1       -1 0.53740272E-03 0.56011972E+02</pdfrwt>
<totfact> 0.43090999E+05</totfact>
</mgrwt>
</event>
<event>
 4    1  0.3946801E-002  0.5749669E+02  0.7818608E-02  0.1408648E+00
         -1   -1    0    0  501    0 -0.00000000000E+00  0.00000000000E+00  0.49862099367E+01  0.49862124839E+01  0.50400000000E-02 0. -1.
          1   -1    0    0    0  501  0.00000000000E+00 -0.00000000000E+00 -0.16575054647E+03  0.16575054655E+03  0.50400000000E-02 0. -1.
          2    1    1    2    0  502  0.28585812949E+02  0.81382521775E+00 -0.71645446504E+02  0.77141953726E+02  0.25500000000E-02 0. -1.
         -2    1    1    2  502    0 -0.28585812949E+02 -0.81382521775E+00 -0.89118890032E+02  0.93594805307E+02  0.25500000000E-02 0. -1.
<mgrwt>
<rscale>  0 0.57496687E+02</rscale>
<asrwt>0</asrwt>
<pdfrwt beam="2">  1        1 0.25500080E-01 0.57496687E+02</pdfrwt>
<pdfrwt beam="1">  1       -1 0.76710955E-03 0.57496687E+02</pdfrwt>
<totfact> 0.38238307E+05</totfact>
</mgrwt>
</event>
<event>
 4    1  0.3946801E-002  0.4224279E+02  0.7818608E-02  0.1492327E+00
          1   -1    0    0    0  501  0.00000000000E+00  0.00000000000E+00  0.69278439838E+00  0.69280273111E+00  0.50400000000E-02 0.  1.
         -1   -1    0    0  501    0 -0.00000000000E+00 -0.00000000000E+00 -0.64393401990E+03  0.64393401992E+03  0.50400000000E-02 0.  1.
          2    1    1    2    0  502  0.21071316592E+02  0.31799003370E+00 -0.34326542082E+03  0.34391169017E+03  0.25500000000E-02 0. -1.
         -2    1    1    2  502    0 -0.21071316592E+02 -0.31799003370E+00 -0.29997581468E+03  0.30071513248E+03  0.25500000000E-02 0. -1.
<mgrwt>
<rscale>  0 0.42242791E+02</rscale>
<asrwt>0</asrwt>
<pdfrwt beam="1">  1        1 0.10658414E-03 0.42242791E+02</pdfrwt>
<pdfrwt beam="2">  1       -1 0.99066295E-01 0.42242791E+02</pdfrwt>
<totfact> 0.27672100E+05</totfact>
</mgrwt>
</event>
<event>
 4    1  0.3946801E-002  0.8960944E+02  0.7818608E-02  0.1303800E+00
         -1   -1    0    0  501    0 -0.00000000000E+00  0.00000000000E+00  0.87562560205E+02  0.87562560350E+02  0.50400000000E-02 0.  1.
          1   -1    0    0    0  501  0.00000000000E+00 -0.00000000000E+00 -0.22926041309E+02  0.22926041863E+02  0.50400000000E-02 0.  1.
          2    1    1    2    0  502  0.18149718151E+02  0.35704276900E+02  0.57078435702E+02  0.69729158080E+02  0.25500000000E-02 0. -1.
         -2    1    1    2  502    0 -0.18149718151E+02 -0.35704276900E+02  0.75580831950E+01  0.40759444133E+02  0.25500000000E-02 0. -1.
<mgrwt>
<rscale>  0 0.89609439E+02</rscale>
<asrwt>0</asrwt>
<pdfrwt beam="2">  1        1 0.35270834E-02 0.89609439E+02</pdfrwt>
<pdfrwt beam="1">  1       -1 0.13471163E-01 0.89609439E+02</pdfrwt>
<totfact> 0.87133248E+04</totfact>
</mgrwt>
</event>
<event>
 4    1  0.3946801E-002  0.7010984E+02  0.7818608E-02  0.1359720E+00
         -1   -1    0    0  501    0 -0.00000000000E+00  0.00000000000E+00  0.24041490469E+01  0.24041543298E+01  0.50400000000E-02 0. -1.
          1   -1    0    0    0  501  0.00000000000E+00 -0.00000000000E+00 -0.51113559126E+03  0.51113559129E+03  0.50400000000E-02 0. -1.
          2    1    1    2    0  502 -0.27271716107E+02  0.45696114362E+00 -0.93071925044E+02  0.96986280220E+02  0.25500000000E-02 0. -1.
         -2    1    1    2  502    0  0.27271716107E+02 -0.45696114362E+00 -0.41565951717E+03  0.41655346540E+03  0.25500000000E-02 0. -1.
<mgrwt>
<rscale>  0 0.70109843E+02</rscale>
<asrwt>0</asrwt>
<pdfrwt beam="2">  1        1 0.78636159E-01 0.70109843E+02</pdfrwt>
<pdfrwt beam="1">  1       -1 0.36986990E-03 0.70109843E+02</pdfrwt>
<totfact> 0.27750685E+05</totfact>
</mgrwt>
</event>
<event>
 4    1  0.3946801E-002  0.7734210E+02  0.7818608E-02  0.1336768E+00
          1   -1    0    0    0  501  0.00000000000E+00  0.00000000000E+00  0.30589145261E+03  0.30589145265E+03  0.50400000000E-02 0. -1.
         -1   -1    0    0  501    0 -0.00000000000E+00 -0.00000000000E+00 -0.48888250957E+01  0.48888276936E+01  0.50400000000E-02 0. -1.
          2    1    1    2    0  502 -0.26989482087E+02  0.10943201621E+02  0.48271318316E+02  0.56376466575E+02  0.25500000000E-02 0. -1.
         -2    1    1    2  502    0  0.26989482087E+02 -0.10943201621E+02  0.25273130919E+03  0.25440381377E+03  0.25500000000E-02 0. -1.
<mgrwt>
<rscale>  0 0.77342103E+02</rscale>
<asrwt>0</asrwt>
<pdfrwt beam="1">  1        1 0.47060224E-01 0.77342103E+02</pdfrwt>
<pdfrwt beam="2">  1       -1 0.75212713E-03 0.77342103E+02</pdfrwt>
<totfact> 0.19858403E+05</totfact>
</mgrwt>
</event>
<event>
 4    1  0.3946801E-002  0.5039986E+02  0.7818608E-02  0.1443197E+00
         -1   -1    0    0  501    0 -0.00000000000E+00  0.00000000000E+00  0.64658901965E+00  0.64660866212E+00  0.50400000000E-02 0.  1.
          1   -1    0    0    0  501  0.00000000000E+00 -0.00000000000E+00 -0.98211807075E+03  0.98211807076E+03  0.50400000000E-02 0.  1.
          2    1    1    2    0  502  0.23831846726E+02 -0.71700919313E+00 -0.64982632411E+03  0.65026357928E+03  0.25500000000E-02 0.  1.
         -2    1    1    2  502    0 -0.23831846726E+02  0.71700919313E+00 -0.33164515762E+03  0.33250110015E+03  0.25500000000E-02 0.  1.
<mgrwt>
<rscale>  0 0.50399858E+02</rscale>
<asrwt>0</asrwt>
<pdfrwt beam="2">  1        1 0.15109390E+00 0.50399858E+02</pdfrwt>
<pdfrwt beam="1">  1       -1 0.99477532E-04 0.50399858E+02</pdfrwt>
<totfact> 0.62507221E+05</totfact>
</mgrwt>
</event>
<event>
 4    1  0.3946801E-002  0.4790997E+02  0.7818608E-02  0.1456952E+00
         -1   -1    0    0  501    0 -0.00000000000E+00  0.00000000000E+00  0.16848689149E+01  0.16848764531E+01  0.50400000000E-02 0. -1.
          1   -1    0    0    0  501  0.00000000000E+00 -0.00000000000E+00 -0.34058442891E+03  0.34058442895E+03  0.50400000000E-02 0. -1.
          2    1    1    2    0  502 -0.21933575996E+02 -0.76716885554E+01 -0.12785173686E+03  0.12994615494E+03  0.25500000000E-02 0. -1.
         -2    1    1    2  502    0  0.21933575996E+02  0.76716885554E+01 -0.21104782314E+03  0.21232315046E+03  0.25500000000E-02 0. -1.
<mgrwt>
<rscale>  0 0.47909974E+02</rscale>
<asrwt>0</asrwt>
<pdfrwt beam="2">  1        1 0.52397550E-01 0.47909974E+02</pdfrwt>
<pdfrwt beam="1">  1       -1 0.25921146E-03 0.47909974E+02</pdfrwt>
<totfact> 0.68582503E+05</totfact>
</mgrwt>
</event>
<event>
 4    1  0.3946801E-002  0.5488282E+02  0.7818608E-02  0.1420654E+00
         -1   -1    0    0  501    0 -0.00000000000E+00  0.00000000000E+00  0.85740159470E+01  0.85740174283E+01  0.50400000000E-02 0.  1.
          1   -1    0    0    0  501  0.00000000000E+00 -0.00000000000E+00 -0.87827095113E+02  0.87827095257E+02  0.50400000000E-02 0.  1.
          2    1    1    2    0  502 -0.15356063014E+02  0.19432166588E+02 -0.60380877895E+02  0.65263069124E+02  0.25500000000E-02 0.  1.
         -2    1    1    2  502    0  0.15356063014E+02 -0.19432166588E+02 -0.18872201271E+02  0.31138043562E+02  0.25500000000E-02 0.  1.
<mgrwt>
<rscale>  0 0.54882820E+02</rscale>
<asrwt>0</asrwt>
<pdfrwt beam="2">  1        1 0.13511860E-01 0.54882820E+02</pdfrwt>
<pdfrwt beam="1">  1       -1 0.13190796E-02 0.54882820E+02</pdfrwt>
<totfact> 0.39166905E+05</totfact>
</mgrwt>
</event>
<event>
 4    1  0.3946801E-002  0.5238589E+02  0.7818608E-02  0.1432882E+00
         -1   -1    0    0  501    0 -0.00000000000E+00  0.00000000000E+00  0.96117434656E+02  0.96117434789E+02  0.50400000000E-02 0.  1.
          1   -1    0    0    0  501  0.00000000000E+00 -0.00000000000E+00 -0.71378345668E+01  0.71378363462E+01  0.50400000000E-02 0.  1.
          2    1    1    2    0  502  0.12149918617E+02  0.23162954985E+02  0.47226250616E+02  0.53985755156E+02  0.25500000000E-02 0. -1.
         -2    1    1    2  502    0 -0.12149918617E+02 -0.23162954985E+02  0.41753349474E+02  0.49269515979E+02  0.25500000000E-02 0. -1.
<mgrwt>
<rscale>  0 0.52385893E+02</rscale>
<asrwt>0</asrwt>
<pdfrwt beam="2">  1        1 0.10981285E-02 0.52385893E+02</pdfrwt>
<pdfrwt beam="1">  1       -1 0.14787298E-01 0.52385893E+02</pdfrwt>
<totfact> 0.33378184E+05</totfact>
</mgrwt>
</event>
<event>
 4    1  0.3946801E-002  0.5271600E+02  0.7818608E-02  0.1431219E+00
          1   -1    0    0    0  501  0.00000000000E+00  0.00000000000E+00  0.96780448749E+00  0.96781761071E+00  0.50400000000E-02 0. -1.
         -1   -1    0    0  501    0 -0.00000000000E+00 -0.00000000000E+00 -0.71785098085E+03  0.71785098087E+03  0.50400000000E-02 0. -1.
          2    1    1    2    0  502  0.25360904412E+02  0.71409303225E+01 -0.36878817764E+03  0.36972812759E+03  0.25500000000E-02 0.  1.
         -2    1    1    2  502    0 -0.25360904412E+02 -0.71409303225E+01 -0.34809499873E+03  0.34909067089E+03  0.25500000000E-02 0.  1.
<mgrwt>
<rscale>  0 0.52715998E+02</rscale>
<asrwt>0</asrwt>
<pdfrwt beam="1">  1        1 0.14889458E-03 0.52715998E+02</pdfrwt>
<pdfrwt beam="2">  1       -1 0.11043819E+00 0.52715998E+02</pdfrwt>
<totfact> 0.14673687E+05</totfact>
</mgrwt>
</event>
<event>
 4    1  0.3946801E-002  0.1038235E+03  0.7818608E-02  0.1272455E+00
          1   -1    0    0    0  501  0.00000000000E+00  0.00000000000E+00  0.86303524802E+03  0.86303524803E+03  0.50400000000E-02 0.  1.
         -1   -1    0    0  501    0 -0.00000000000E+00 -0.00000000000E+00 -0.31224999920E+01  0.31225040595E+01  0.50400000000E-02 0.  1.
          2    1    1    2    0  502 -0.29310629741E+02 -0.86994639866E+01  0.77995158211E+03  0.78055061599E+03  0.25500000000E-02 0.  1.
         -2    1    1    2  502    0  0.29310629741E+02  0.86994639866E+01  0.79961165918E+02  0.85607136098E+02  0.25500000000E-02 0.  1.
<mgrwt>
<rscale>  0 0.10382349E+03</rscale>
<asrwt>0</asrwt>
<pdfrwt beam="1">  1        1 0.13277478E+00 0.10382349E+03</pdfrwt>
<pdfrwt beam="2">  1       -1 0.48038448E-03 0.10382349E+03</pdfrwt>
<totfact> 0.99165711E+04</totfact>
</mgrwt>
</event>
<event>
 4    1  0.3946801E-002  0.4997696E+02  0.7818608E-02  0.1445466E+00
          1   -1    0    0    0  501  0.00000000000E+00  0.00000000000E+00  0.62768022462E+02  0.62768022664E+02  0.50400000000E-02 0.  1.
         -1   -1    0    0  501    0 -0.00000000000E+00 -0.00000000000E+00 -0.99481228294E+01  0.99481241061E+01  0.50400000000E-02 0.  1.
          2    1    1    2    0  502  0.15172202078E+02 -0.18928280427E+02  0.17686231972E+02  0.30021297835E+02  0.25500000000E-02 0. -1.
         -2    1    1    2  502    0 -0.15172202078E+02  0.18928280427E+02  0.35133667660E+02  0.42694848935E+02  0.25500000000E-02 0. -1.
<mgrwt>
<rscale>  0 0.49976957E+02</rscale>
<asrwt>0</asrwt>
<pdfrwt beam="1">  1        1 0.96566191E-02 0.49976957E+02</pdfrwt>
<pdfrwt beam="2">  1       -1 0.15304805E-02 0.49976957E+02</pdfrwt>
<totfact> 0.47792207E+05</totfact>
</mgrwt>
</event>
<event>
 4    1  0.3946801E-002  0.4971738E+02  0.7818608E-02  0.1446872E+00
          1   -1    0    0    0  501  0.00000000000E+00  0.00000000000E+00  0.32300642637E+01  0.32300681958E+01  0.50400000000E-02 0.  1.
         -1   -1    0    0  501    0 -0.00000000000E+00 -0.00000000000E+00 -0.19131321251E+03  0.19131321257E+03  0.50400000000E-02 0.  1.
          2    1    1    2    0  502 -0.12360205695E+02 -0.17604078770E+02 -0.45281953524E+02  0.50131163917E+02  0.25500000000E-02 0. -1.
         -2    1    1    2  502    0  0.12360205695E+02  0.17604078770E+02 -0.14280119472E+03  0.14441211685E+03  0.25500000000E-02 0. -1.
<mgrwt>
<rscale>  0 0.49717376E+02</rscale>
<asrwt>0</asrwt>
<pdfrwt beam="1">  1        1 0.49693342E-03 0.49717376E+02</pdfrwt>
<pdfrwt beam="2">  1       -1 0.29432793E-01 0.49717376E+02</pdfrwt>
<totfact> 0.32906132E+05</totfact>
</mgrwt>
</event>
<event>
 4    1  0.3946801E-002  0.1108558E+03  0.7818608E-02  0.1258993E+00
          1   -1    0    0    0  501  0.00000000000E+00  0.00000000000E+00  0.70436537837E+02  0.70436538017E+02  0.50400000000E-02 0. -1.
         -1   -1    0    0  501    0 -0.00000000000E+00 -0.00000000000E+00 -0.43617286935E+02  0.43617287226E+02  0.50400000000E-02 0. -1.
          2    1    1    2    0  502  0.34080529404E+02  0.34572935873E+02 -0.14110498175E+02  0.50555677669E+02  0.25500000000E-02 0.  1.
         -2    1    1    2  502    0 -0.34080529404E+02 -0.34572935873E+02  0.40929749077E+02  0.63498147574E+02  0.25500000000E-02 0.  1.
<mgrwt>
<rscale>  0 0.11085577E+03</rscale>
<asrwt>0</asrwt>
<pdfrwt beam="1">  1        1 0.10836390E-01 0.11085577E+03</pdfrwt>
<pdfrwt beam="2">  1       -1 0.67103519E-02 0.11085577E+03</pdfrwt>
<totfact> 0.57157467E+04</totfact>
</mgrwt>
</event>
<event>
 4    1  0.3946801E-002  0.4164760E+02  0.7818608E-02  0.1496425E+00
         -1   -1    0    0  501    0 -0.00000000000E+00  0.00000000000E+00  0.48168279144E+00  0.48170915828E+00  0.50400000000E-02 0.  1.
          1   -1    0    0    0  501  0.00000000000E+00 -0.00000000000E+00 -0.90021651133E+03  0.90021651134E+03  0.50400000000E-02 0.  1.
          2    1    1    2    0  502  0.61917714401E+01 -0.19598314656E+02 -0.52223985421E+03  0.52264414022E+03  0.25500000000E-02 0. -1.
         -2    1    1    2  502    0 -0.61917714401E+01  0.19598314656E+02 -0.37749497432E+03  0.37805408028E+03  0.25500000000E-02 0. -1.
<mgrwt>
<rscale>  0 0.41647602E+02</rscale>
<asrwt>0</asrwt>
<pdfrwt beam="2">  1        1 0.13849350E+00 0.41647602E+02</pdfrwt>
<pdfrwt beam="1">  1       -1 0.74107794E-04 0.41647602E+02</pdfrwt>
<totfact> 0.10167694E+06</totfact>
</mgrwt>
</event>
<event>
 4    1  0.3946801E-002  0.4152545E+02  0.7818608E-02  0.1497277E+00
         -1   -1    0    0  501    0 -0.00000000000E+00  0.00000000000E+00  0.75470701259E+00  0.75472384118E+00  0.50400000000E-02 0.  1.
          1   -1    0    0    0  501  0.00000000000E+00 -0.00000000000E+00 -0.57119628751E+03  0.57119628753E+03  0.50400000000E-02 0.  1.
          2    1    1    2    0  502  0.10568104378E+02 -0.17524428203E+02 -0.33352682171E+03  0.33415405312E+03  0.25500000000E-02 0. -1.
         -2    1    1    2  502    0 -0.10568104378E+02  0.17524428203E+02 -0.23691475879E+03  0.23779695825E+03  0.25500000000E-02 0. -1.
<mgrwt>
<rscale>  0 0.41525446E+02</rscale>
<asrwt>0</asrwt>
<pdfrwt beam="2">  1        1 0.87876008E-01 0.41525446E+02</pdfrwt>
<pdfrwt beam="1">  1       -1 0.11611052E-03 0.41525446E+02</pdfrwt>
<totfact> 0.10400687E+06</totfact>
</mgrwt>
</event>
<event>
 4    1  0.3946801E-002  0.4762591E+02  0.7818608E-02  0.1458584E+00
          1   -1    0    0    0  501  0.00000000000E+00  0.00000000000E+00  0.21637357923E+01  0.21637416622E+01  0.50400000000E-02 0.  1.
         -1   -1    0    0  501    0 -0.00000000000E+00 -0.00000000000E+00 -0.26207271990E+03  0.26207271995E+03  0.50400000000E-02 0.  1.
          2    1    1    2    0  502  0.18140607875E+02  0.15402086493E+02 -0.13476247386E+03  0.13684747090E+03  0.25500000000E-02 0. -1.
         -2    1    1    2  502    0 -0.18140607875E+02 -0.15402086493E+02 -0.12514651024E+03  0.12738899071E+03  0.25500000000E-02 0. -1.
<mgrwt>
<rscale>  0 0.47625913E+02</rscale>
<asrwt>0</asrwt>
<pdfrwt beam="1">  1        1 0.33288309E-03 0.47625913E+02</pdfrwt>
<pdfrwt beam="2">  1       -1 0.40318855E-01 0.47625913E+02</pdfrwt>
<totfact> 0.33243967E+05</totfact>
</mgrwt>
</event>
<event>
 4    1  0.3946801E-002  0.6711012E+02  0.7818608E-02  0.1370205E+00
          1   -1    0    0    0  501  0.00000000000E+00  0.00000000000E+00  0.34488539230E+01  0.34488576056E+01  0.50400000000E-02 0. -1.
         -1   -1    0    0  501    0 -0.00000000000E+00 -0.00000000000E+00 -0.32646830837E+03  0.32646830841E+03  0.50400000000E-02 0. -1.
          2    1    1    2    0  502 -0.25629308414E+02  0.17903589689E+02 -0.22142557690E+03  0.22362174779E+03  0.25500000000E-02 0.  1.
         -2    1    1    2  502    0  0.25629308414E+02 -0.17903589689E+02 -0.10159387754E+03  0.10629541822E+03  0.25500000000E-02 0.  1.
<mgrwt>
<rscale>  0 0.67110122E+02</rscale>
<asrwt>0</asrwt>
<pdfrwt beam="1">  1        1 0.53059346E-03 0.67110122E+02</pdfrwt>
<pdfrwt beam="2">  1       -1 0.50225869E-01 0.67110122E+02</pdfrwt>
<totfact> 0.12926997E+05</totfact>
</mgrwt>
</event>
<event>
 4    1  0.3946801E-002  0.5867808E+02  0.7818608E-02  0.1403464E+00
          1   -1    0    0    0  501  0.00000000000E+00  0.00000000000E+00  0.10337986601E+02  0.10337987830E+02  0.50400000000E-02 0.  1.
         -1   -1    0    0  501    0 -0.00000000000E+00 -0.00000000000E+00 -0.83263710078E+02  0.83263710231E+02  0.50400000000E-02 0.  1.
          2    1    1    2    0  502 -0.21101811906E+02 -0.17037558307E+01 -0.40612088916E+01  0.21556499572E+02  0.25500000000E-02 0.  1.
         -2    1    1    2  502    0  0.21101811906E+02  0.17037558307E+01 -0.68864514585E+02  0.72045198488E+02  0.25500000000E-02 0.  1.
<mgrwt>
<rscale>  0 0.58678077E+02</rscale>
<asrwt>0</asrwt>
<pdfrwt beam="1">  1        1 0.15904596E-02 0.58678077E+02</pdfrwt>
<pdfrwt beam="2">  1       -1 0.12809801E-01 0.58678077E+02</pdfrwt>
<totfact> 0.25723574E+05</totfact>
</mgrwt>
</event>
<event>
 4    1  0.3946801E-002  0.8514065E+02  0.7818608E-02  0.1315065E+00
          1   -1    0    0    0  501  0.00000000000E+00  0.00000000000E+00  0.37596467454E+03  0.37596467457E+03  0.50400000000E-02 0.  1.
         -1   -1    0    0  501    0 -0.00000000000E+00 -0.00000000000E+00 -0.48202185587E+01  0.48202211936E+01  0.50400000000E-02 0.  1.
          2    1    1    2    0  502  0.35132386607E+02 -0.85562330488E+01  0.85093050926E+02  0.92457130796E+02  0.25500000000E-02 0.  1.
         -2    1    1    2  502    0 -0.35132386607E+02  0.85562330488E+01  0.28605140506E+03  0.28832776497E+03  0.25500000000E-02 0.  1.
<mgrwt>
<rscale>  0 0.85140646E+02</rscale>
<asrwt>0</asrwt>
<pdfrwt beam="1">  1        1 0.57840735E-01 0.85140646E+02</pdfrwt>
<pdfrwt beam="2">  1       -1 0.74157210E-03 0.85140646E+02</pdfrwt>
<totfact> 0.16002840E+05</totfact>
</mgrwt>
</event>
<event>
 4    1  0.3946801E-002  0.4625087E+02  0.7818608E-02  0.1466680E+00
         -1   -1    0    0  501    0 -0.00000000000E+00  0.00000000000E+00  0.10428499973E+01  0.10428621762E+01  0.50400000000E-02 0.  1.
          1   -1    0    0    0  501  0.00000000000E+00 -0.00000000000E+00 -0.51280885799E+03  0.51280885801E+03  0.50400000000E-02 0.  1.
          2    1    1    2    0  502 -0.47320809642E+00 -0.22602291542E+02 -0.20179800909E+03  0.20306039493E+03  0.25500000000E-02 0. -1.
         -2    1    1    2  502    0  0.47320809642E+00  0.22602291542E+02 -0.30996799890E+03  0.31079132526E+03  0.25500000000E-02 0. -1.
<mgrwt>
<rscale>  0 0.46250875E+02</rscale>
<asrwt>0</asrwt>
<pdfrwt beam="2">  1        1 0.78893470E-01 0.46250875E+02</pdfrwt>
<pdfrwt beam="1">  1       -1 0.16043981E-03 0.46250875E+02</pdfrwt>
<totfact> 0.79211475E+05</totfact>
</mgrwt>
</event>
<event>
 4    1  0.3946801E-002  0.5055666E+02  0.7818608E-02  0.1442362E+00
          1   -1    0    0    0  501  0.00000000000E+00  0.00000000000E+00  0.82145124782E+01  0.82145140244E+01  0.50400000000E-02 0. -1.
         -1   -1    0    0  501    0 -0.00000000000E+00 -0.00000000000E+00 -0.77788428590E+02  0.77788428753E+02  0.50400000000E-02 0. -1.
          2    1    1    2    0  502  0.18937378546E+02 -0.14175350783E+02 -0.19626057046E+02  0.30736736939E+02  0.25500000000E-02 0. -1.
         -2    1    1    2  502    0 -0.18937378546E+02  0.14175350783E+02 -0.49947859066E+02  0.55266205838E+02  0.25500000000E-02 0. -1.
<mgrwt>
<rscale>  0 0.50556665E+02</rscale>
<asrwt>0</asrwt>
<pdfrwt beam="1">  1        1 0.12637713E-02 0.50556665E+02</pdfrwt>
<pdfrwt beam="2">  1       -1 0.11967450E-01 0.50556665E+02</pdfrwt>
<totfact> 0.37636658E+05</totfact>
</mgrwt>
</event>
<event>
 4    1  0.3946801E-002  0.8333119E+02  0.7818608E-02  0.1319855E+00
          1   -1    0    0    0  501  0.00000000000E+00  0.00000000000E+00  0.45632806180E+01  0.45632834013E+01  0.50400000000E-02 0. -1.
         -1   -1    0    0  501    0 -0.00000000000E+00 -0.00000000000E+00 -0.38043269339E+03  0.38043269342E+03  0.50400000000E-02 0. -1.
          2    1    1    2    0  502 -0.32281122553E+02  0.22946312565E+01 -0.66691034004E+02  0.74128471109E+02  0.25500000000E-02 0. -1.
         -2    1    1    2  502    0  0.32281122553E+02 -0.22946312565E+01 -0.30917837877E+03  0.31086750571E+03  0.25500000000E-02 0. -1.
<mgrwt>
<rscale>  0 0.83331187E+02</rscale>
<asrwt>0</asrwt>
<pdfrwt beam="1">  1        1 0.70204369E-03 0.83331187E+02</pdfrwt>
<pdfrwt beam="2">  1       -1 0.58528082E-01 0.83331187E+02</pdfrwt>
<totfact> 0.69084760E+04</totfact>
</mgrwt>
</event>
<event>
 4    1  0.3946801E-002  0.6867128E+02  0.7818608E-02  0.1364671E+00
         -1   -1    0    0  501    0 -0.00000000000E+00  0.00000000000E+00  0.23302413464E+01  0.23302467969E+01  0.50400000000E-02 0.  1.
          1   -1    0    0    0  501  0.00000000000E+00 -0.00000000000E+00 -0.50592818109E+03  0.50592818112E+03  0.50400000000E-02 0.  1.
          2    1    1    2    0  502  0.15587867996E+02  0.25882267854E+02 -0.13107278589E+03  0.13451003169E+03  0.25500000000E-02 0.  1.
         -2    1    1    2  502    0 -0.15587867996E+02 -0.25882267854E+02 -0.37252515386E+03  0.37374839623E+03  0.25500000000E-02 0.  1.
<mgrwt>
<rscale>  0 0.68671280E+02</rscale>
<asrwt>0</asrwt>
<pdfrwt beam="2">  1        1 0.77835018E-01 0.68671280E+02</pdfrwt>
<pdfrwt beam="1">  1       -1 0.35849949E-03 0.68671280E+02</pdfrwt>
<totfact> 0.29240816E+05</totfact>
</mgrwt>
</event>
<event>
 4    1  0.3946801E-002  0.4619573E+02  0.7818608E-02  0.1467012E+00
         -1   -1    0    0  501    0 -0.00000000000E+00  0.00000000000E+00  0.39339265044E+00  0.39342493442E+00  0.50400000000E-02 0. -1.
          1   -1    0    0    0  501  0.00000000000E+00 -0.00000000000E+00 -0.13561248330E+04  0.13561248330E+04  0.50400000000E-02 0. -1.
          2    1    1    2    0  502 -0.46559516190E+01  0.19838457202E+02 -0.99721030114E+03  0.99741848137E+03  0.25500000000E-02 0. -1.
         -2    1    1    2  502    0  0.46559516190E+01 -0.19838457202E+02 -0.35852113919E+03  0.35909977655E+03  0.25500000000E-02 0. -1.
<mgrwt>
<rscale>  0 0.46195733E+02</rscale>
<asrwt>0</asrwt>
<pdfrwt beam="2">  1        1 0.20863085E+00 0.46195733E+02</pdfrwt>
<pdfrwt beam="1">  1       -1 0.60525516E-04 0.46195733E+02</pdfrwt>
<totfact> 0.67715026E+05</totfact>
</mgrwt>
</event>
<event>
 4    1  0.3946801E-002  0.7795791E+02  0.7818608E-02  0.1334949E+00
          1   -1    0    0    0  501  0.00000000000E+00  0.00000000000E+00  0.10011859154E+03  0.10011859167E+03  0.50400000000E-02 0.  1.
         -1   -1    0    0  501    0 -0.00000000000E+00 -0.00000000000E+00 -0.15175593695E+02  0.15175594532E+02  0.50400000000E-02 0.  1.
          2    1    1    2    0  502  0.65514927477E+01 -0.38101722169E+02  0.49821018863E+02  0.63061852308E+02  0.25500000000E-02 0.  1.
         -2    1    1    2  502    0 -0.65514927477E+01  0.38101722169E+02  0.35121978982E+02  0.52232333890E+02  0.25500000000E-02 0.  1.
<mgrwt>
<rscale>  0 0.77957915E+02</rscale>
<asrwt>0</asrwt>
<pdfrwt beam="1">  1        1 0.15402860E-01 0.77957915E+02</pdfrwt>
<pdfrwt beam="2">  1       -1 0.23347069E-02 0.77957915E+02</pdfrwt>
<totfact> 0.15939778E+05</totfact>
</mgrwt>
</event>
<event>
 4    1  0.3946801E-002  0.5445395E+02  0.7818608E-02  0.1422699E+00
          1   -1    0    0    0  501  0.00000000000E+00  0.00000000000E+00  0.21017588530E+03  0.21017588536E+03  0.50400000000E-02 0.  1.
         -1   -1    0    0  501    0 -0.00000000000E+00 -0.00000000000E+00 -0.35270826113E+01  0.35270862122E+01  0.50400000000E-02 0.  1.
          2    1    1    2    0  502 -0.24312432311E+01 -0.21331419305E+02  0.37612326046E+02  0.43308514986E+02  0.25500000000E-02 0. -1.
         -2    1    1    2  502    0  0.24312432311E+01  0.21331419305E+02  0.16903647664E+03  0.17039445659E+03  0.25500000000E-02 0. -1.
<mgrwt>
<rscale>  0 0.54453948E+02</rscale>
<asrwt>0</asrwt>
<pdfrwt beam="1">  1        1 0.32334760E-01 0.54453948E+02</pdfrwt>
<pdfrwt beam="2">  1       -1 0.54262824E-03 0.54453948E+02</pdfrwt>
<totfact> 0.45741236E+05</totfact>
</mgrwt>
</event>
<event>
 4    1  0.3946801E-002  0.4178292E+02  0.7818608E-02  0.1495486E+00
          1   -1    0    0    0  501  0.00000000000E+00  0.00000000000E+00  0.53664108826E+01  0.53664132493E+01  0.50400000000E-02 0. -1.
         -1   -1    0    0  501    0 -0.00000000000E+00 -0.00000000000E+00 -0.81330507094E+02  0.81330507250E+02  0.50400000000E-02 0. -1.
          2    1    1    2    0  502  0.17130161185E+02 -0.11208870167E+02 -0.46630287200E+02  0.50926072729E+02  0.25500000000E-02 0.  1.
         -2    1    1    2  502    0 -0.17130161185E+02  0.11208870167E+02 -0.29333809011E+02  0.35770847771E+02  0.25500000000E-02 0.  1.
<mgrwt>
<rscale>  0 0.41782916E+02</rscale>
<asrwt>0</asrwt>
<pdfrwt beam="1">  1        1 0.82560193E-03 0.41782916E+02</pdfrwt>
<pdfrwt beam="2">  1       -1 0.12512385E-01 0.41782916E+02</pdfrwt>
<totfact> 0.59656380E+05</totfact>
</mgrwt>
</event>
<event>
 4    1  0.3946801E-002  0.5005215E+02  0.7818608E-02  0.1445060E+00
         -1   -1    0    0  501    0 -0.00000000000E+00  0.00000000000E+00  0.15159499501E+02  0.15159500339E+02  0.50400000000E-02 0. -1.
          1   -1    0    0    0  501  0.00000000000E+00 -0.00000000000E+00 -0.41314326610E+02  0.41314326917E+02  0.50400000000E-02 0. -1.
          2    1    1    2    0  502 -0.23962222389E+02 -0.53635865691E+01 -0.18529375173E+02  0.30761890604E+02  0.25500000000E-02 0.  1.
         -2    1    1    2  502    0  0.23962222389E+02  0.53635865691E+01 -0.76254519351E+01  0.25711936653E+02  0.25500000000E-02 0.  1.
<mgrwt>
<rscale>  0 0.50052155E+02</rscale>
<asrwt>0</asrwt>
<pdfrwt beam="2">  1        1 0.63560503E-02 0.50052155E+02</pdfrwt>
<pdfrwt beam="1">  1       -1 0.23322308E-02 0.50052155E+02</pdfrwt>
<totfact> 0.45653458E+05</totfact>
</mgrwt>
</event>
<event>
 4    1  0.3946801E-002  0.1056680E+03  0.7818608E-02  0.1268809E+00
         -1   -1    0    0  501    0 -0.00000000000E+00  0.00000000000E+00  0.61547957600E+02  0.61547957806E+02  0.50400000000E-02 0. -1.
          1   -1    0    0    0  501  0.00000000000E+00 -0.00000000000E+00 -0.45353761763E+02  0.45353762043E+02  0.50400000000E-02 0. -1.
          2    1    1    2    0  502  0.27966393346E+02  0.15865594431E+02  0.50510258919E+02  0.59875892527E+02  0.25500000000E-02 0.  1.
         -2    1    1    2  502    0 -0.27966393346E+02 -0.15865594431E+02 -0.34316063081E+02  0.47025827322E+02  0.25500000000E-02 0.  1.
<mgrwt>
<rscale>  0 0.10566800E+03</rscale>
<asrwt>0</asrwt>
<pdfrwt beam="2">  1        1 0.69775018E-02 0.10566800E+03</pdfrwt>
<pdfrwt beam="1">  1       -1 0.94689166E-02 0.10566800E+03</pdfrwt>
<totfact> 0.60738709E+04</totfact>
</mgrwt>
</event>
<event>
 4    1  0.3946801E-002  0.8738048E+02  0.7818608E-02  0.1309322E+00
         -1   -1    0    0  501    0 -0.00000000000E+00  0.00000000000E+00  0.20408234772E+02  0.20408235395E+02  0.50400000000E-02 0. -1.
          1   -1    0    0    0  501  0.00000000000E+00 -0.00000000000E+00 -0.93532688104E+02  0.93532688240E+02  0.50400000000E-02 0. -1.
          2    1    1    2    0  502  0.27667243094E+02 -0.26781677892E+02 -0.63478959186E+02  0.74244951862E+02  0.25500000000E-02 0. -1.
         -2    1    1    2  502    0 -0.27667243094E+02  0.26781677892E+02 -0.96454941463E+01  0.39695971773E+02  0.25500000000E-02 0. -1.
<mgrwt>
<rscale>  0 0.87380481E+02</rscale>
<asrwt>0</asrwt>
<pdfrwt beam="2">  1        1 0.14389644E-01 0.87380481E+02</pdfrwt>
<pdfrwt beam="1">  1       -1 0.31397286E-02 0.87380481E+02</pdfrwt>
<totfact> 0.11598312E+05</totfact>
</mgrwt>
</event>
<event>
 4    1  0.3946801E-002  0.4577951E+02  0.7818608E-02  0.1469533E+00
          1   -1    0    0    0  501  0.00000000000E+00  0.00000000000E+00  0.62191919258E+03  0.62191919260E+03  0.50400000000E-02 0.  1.
         -1   -1    0    0  501    0 -0.00000000000E+00 -0.00000000000E+00 -0.84245069334E+00  0.84246576922E+00  0.50400000000E-02 0.  1.
          2    1    1    2    0  502  0.22387299460E+02  0.51725667756E+00  0.37503993869E+03  0.37570788434E+03  0.25500000000E-02 0.  1.
         -2    1    1    2  502    0 -0.22387299460E+02 -0.51725667756E+00  0.24603680319E+03  0.24705377403E+03  0.25500000000E-02 0.  1.
<mgrwt>
<rscale>  0 0.45779513E+02</rscale>
<asrwt>0</asrwt>
<pdfrwt beam="1">  1        1 0.95679992E-01 0.45779513E+02</pdfrwt>
<pdfrwt beam="2">  1       -1 0.12960880E-03 0.45779513E+02</pdfrwt>
<totfact> 0.82354999E+05</totfact>
</mgrwt>
</event>
<event>
 4    1  0.3946801E-002  0.5095740E+02  0.7818608E-02  0.1440245E+00
          1   -1    0    0    0  501  0.00000000000E+00  0.00000000000E+00  0.47128843607E+03  0.47128843610E+03  0.50400000000E-02 0.  1.
         -1   -1    0    0  501    0 -0.00000000000E+00 -0.00000000000E+00 -0.13774196631E+01  0.13774288838E+01  0.50400000000E-02 0.  1.
          2    1    1    2    0  502  0.14471633041E+02 -0.13882926193E+02  0.89176244241E+02  0.91403316931E+02  0.25500000000E-02 0. -1.
         -2    1    1    2  502    0 -0.14471633041E+02  0.13882926193E+02  0.38073477217E+03  0.38126254805E+03  0.25500000000E-02 0. -1.
<mgrwt>
<rscale>  0 0.50957400E+02</rscale>
<asrwt>0</asrwt>
<pdfrwt beam="1">  1        1 0.72505898E-01 0.50957400E+02</pdfrwt>
<pdfrwt beam="2">  1       -1 0.21191148E-03 0.50957400E+02</pdfrwt>
<totfact> 0.61737973E+05</totfact>
</mgrwt>
</event>
<event>
 4    1  0.3946801E-002  0.5147321E+02  0.7818608E-02  0.1437554E+00
          1   -1    0    0    0  501  0.00000000000E+00  0.00000000000E+00  0.91614247767E+03  0.91614247769E+03  0.50400000000E-02 0.  1.
         -1   -1    0    0  501    0 -0.00000000000E+00 -0.00000000000E+00 -0.72299308102E+00  0.72301064778E+00  0.50400000000E-02 0.  1.
          2    1    1    2    0  502 -0.21995591236E+02  0.80571717675E+01  0.26781777426E+03  0.26884025790E+03  0.25500000000E-02 0. -1.
         -2    1    1    2  502    0  0.21995591236E+02 -0.80571717675E+01  0.64760171033E+03  0.64802523044E+03  0.25500000000E-02 0. -1.
<mgrwt>
<rscale>  0 0.51473206E+02</rscale>
<asrwt>0</asrwt>
<pdfrwt beam="1">  1        1 0.14094478E+00 0.51473206E+02</pdfrwt>
<pdfrwt beam="2">  1       -1 0.11123123E-03 0.51473206E+02</pdfrwt>
<totfact> 0.60209833E+05</totfact>
</mgrwt>
</event>
<event>
 4    1  0.3946801E-002  0.6155204E+02  0.7818608E-02  0.1391432E+00
          1   -1    0    0    0  501  0.00000000000E+00  0.00000000000E+00  0.22420553474E+02  0.22420554040E+02  0.50400000000E-02 0. -1.
         -1   -1    0    0  501    0 -0.00000000000E+00 -0.00000000000E+00 -0.42245312688E+02  0.42245312989E+02  0.50400000000E-02 0. -1.
          2    1    1    2    0  502 -0.13088181696E+02 -0.20390818662E+02 -0.29848037033E+02  0.38444652516E+02  0.25500000000E-02 0. -1.
         -2    1    1    2  502    0  0.13088181696E+02  0.20390818662E+02  0.10023277818E+02  0.26221214513E+02  0.25500000000E-02 0. -1.
<mgrwt>
<rscale>  0 0.61552037E+02</rscale>
<asrwt>0</asrwt>
<pdfrwt beam="1">  1        1 0.34493160E-02 0.61552037E+02</pdfrwt>
<pdfrwt beam="2">  1       -1 0.64992790E-02 0.61552037E+02</pdfrwt>
<totfact> 0.24918206E+05</totfact>
</mgrwt>
</event>
<event>
 4    1  0.3946801E-002  0.2007075E+03  0.7818608E-02  0.1149143E+00
          1   -1    0    0    0  501  0.00000000000E+00  0.00000000000E+00  0.24654273090E+02  0.24654273605E+02  0.50400000000E-02 0. -1.
         -1   -1    0    0  501    0 -0.00000000000E+00 -0.00000000000E+00 -0.40848395821E+03  0.40848395824E+03  0.50400000000E-02 0. -1.
          2    1    1    2    0  502 -0.55653102331E+02 -0.67782918928E+02 -0.86653782633E+02  0.12329099703E+03  0.25500000000E-02 0. -1.
         -2    1    1    2  502    0  0.55653102331E+02  0.67782918928E+02 -0.29717590249E+03  0.30984723481E+03  0.25500000000E-02 0. -1.
<mgrwt>
<rscale>  0 0.20070750E+03</rscale>
<asrwt>0</asrwt>
<pdfrwt beam="1">  1        1 0.37929654E-02 0.20070750E+03</pdfrwt>
<pdfrwt beam="2">  1       -1 0.62843681E-01 0.20070750E+03</pdfrwt>
<totfact> 0.63576921E+03</totfact>
</mgrwt>
</event>
<event>
 4    1  0.3946801E-002  0.6120804E+02  0.7818608E-02  0.1392831E+00
          1   -1    0    0    0  501  0.00000000000E+00  0.00000000000E+00  0.94362477733E+00  0.94363823682E+00  0.50400000000E-02 0.  1.
         -1   -1    0    0  501    0 -0.00000000000E+00 -0.00000000000E+00 -0.99255486951E+03  0.99255486953E+03  0.50400000000E-02 0.  1.
          2    1    1    2    0  502  0.12700027003E+02 -0.23470015441E+02 -0.73899327224E+03  0.73947494125E+03  0.25500000000E-02 0. -1.
         -2    1    1    2  502    0 -0.12700027003E+02  0.23470015441E+02 -0.25261797249E+03  0.25402356651E+03  0.25500000000E-02 0. -1.
<mgrwt>
<rscale>  0 0.61208041E+02</rscale>
<asrwt>0</asrwt>
<pdfrwt beam="1">  1        1 0.14517487E-03 0.61208041E+02</pdfrwt>
<pdfrwt beam="2">  1       -1 0.15269992E+00 0.61208041E+02</pdfrwt>
<totfact> 0.72443317E+04</totfact>
</mgrwt>
</event>
<event>
 4    1  0.3946801E-002  0.7417141E+02  0.7818608E-02  0.1346456E+00
          1   -1    0    0    0  501  0.00000000000E+00  0.00000000000E+00  0.16927330505E+01  0.16927405536E+01  0.50400000000E-02 0. -1.
         -1   -1    0    0  501    0 -0.00000000000E+00 -0.00000000000E+00 -0.81250040191E+03  0.81250040193E+03  0.50400000000E-02 0. -1.
          2    1    1    2    0  502 -0.33319810506E+01  0.24012679234E+02 -0.71347737080E+03  0.71388911570E+03  0.25500000000E-02 0. -1.
         -2    1    1    2  502    0  0.33319810506E+01 -0.24012679234E+02 -0.97330298066E+02  0.10030402679E+03  0.25500000000E-02 0. -1.
<mgrwt>
<rscale>  0 0.74171405E+02</rscale>
<asrwt>0</asrwt>
<pdfrwt beam="1">  1        1 0.26042170E-03 0.74171405E+02</pdfrwt>
<pdfrwt beam="2">  1       -1 0.12499975E+00 0.74171405E+02</pdfrwt>
<totfact> 0.55063238E+04</totfact>
</mgrwt>
</event>
<event>
 4    1  0.3946801E-002  0.4872931E+02  0.7818608E-02  0.1452318E+00
         -1   -1    0    0  501    0 -0.00000000000E+00  0.00000000000E+00  0.27492191088E+03  0.27492191093E+03  0.50400000000E-02 0. -1.
          1   -1    0    0    0  501  0.00000000000E+00 -0.00000000000E+00 -0.21592883024E+01  0.21592941843E+01  0.50400000000E-02 0. -1.
          2    1    1    2    0  502  0.17213160419E+02 -0.13724826516E+02  0.77023799512E+02  0.80108235858E+02  0.25500000000E-02 0.  1.
         -2    1    1    2  502    0 -0.17213160419E+02  0.13724826516E+02  0.19573882307E+03  0.19697296925E+03  0.25500000000E-02 0.  1.
<mgrwt>
<rscale>  0 0.48729313E+02</rscale>
<asrwt>0</asrwt>
<pdfrwt beam="2">  1        1 0.33219843E-03 0.48729313E+02</pdfrwt>
<pdfrwt beam="1">  1       -1 0.42295707E-01 0.48729313E+02</pdfrwt>
<totfact> 0.30888914E+05</totfact>
</mgrwt>
</event>
<event>
 4    1  0.3946801E-002  0.4688223E+02  0.7818608E-02  0.1462922E+00
          1   -1    0    0    0  501  0.00000000000E+00  0.00000000000E+00  0.13805872572E+02  0.13805873492E+02  0.50400000000E-02 0. -1.
         -1   -1    0    0  501    0 -0.00000000000E+00 -0.00000000000E+00 -0.39800874979E+02  0.39800875298E+02  0.50400000000E-02 0. -1.
          2    1    1    2    0  502  0.20356195335E+02  0.48728006802E+01 -0.93077658037E+00  0.20951974287E+02  0.25500000000E-02 0. -1.
         -2    1    1    2  502    0 -0.20356195335E+02 -0.48728006802E+01 -0.25064225827E+02  0.32654774502E+02  0.25500000000E-02 0. -1.
<mgrwt>
<rscale>  0 0.46882229E+02</rscale>
<asrwt>0</asrwt>
<pdfrwt beam="1">  1        1 0.21239805E-02 0.46882229E+02</pdfrwt>
<pdfrwt beam="2">  1       -1 0.61232116E-02 0.46882229E+02</pdfrwt>
<totfact> 0.48990273E+05</totfact>
</mgrwt>
</event>
<event>
 4    1  0.3946801E-002  0.5327797E+02  0.7818608E-02  0.1428423E+00
          1   -1    0    0    0  501  0.00000000000E+00  0.00000000000E+00  0.28550353782E+01  0.28550398268E+01  0.50400000000E-02 0. -1.
         -1   -1    0    0  501    0 -0.00000000000E+00 -0.00000000000E+00 -0.24855554461E+03  0.24855554466E+03  0.50400000000E-02 0. -1.
          2    1    1    2    0  502 -0.19988237479E+02  0.11757564165E+02 -0.60987359368E+02  0.65247436438E+02  0.25500000000E-02 0.  1.
         -2    1    1    2  502    0  0.19988237479E+02 -0.11757564165E+02 -0.18471314987E+03  0.18616314805E+03  0.25500000000E-02 0.  1.
<mgrwt>
<rscale>  0 0.53277967E+02</rscale>
<asrwt>0</asrwt>
<pdfrwt beam="1">  1        1 0.43923675E-03 0.53277967E+02</pdfrwt>
<pdfrwt beam="2">  1       -1 0.38239298E-01 0.53277967E+02</pdfrwt>
<totfact> 0.25628246E+05</totfact>
</mgrwt>
</event>
<event>
 4    1  0.3946801E-002  0.9660890E+02  0.7818608E-02  0.1287593E+00
          1   -1    0    0    0  501  0.00000000000E+00  0.00000000000E+00  0.27383620370E+02  0.27383620834E+02  0.50400000000E-02 0. -1.
         -1   -1    0    0  501    0 -0.00000000000E+00 -0.00000000000E+00 -0.85208592655E+02  0.85208592804E+02  0.50400000000E-02 0. -1.
          2    1    1    2    0  502 -0.43956953309E+02  0.10730605386E+02 -0.92044212060E+01  0.46174462773E+02  0.25500000000E-02 0. -1.
         -2    1    1    2  502    0  0.43956953309E+02 -0.10730605386E+02 -0.48620551079E+02  0.66417750865E+02  0.25500000000E-02 0. -1.
<mgrwt>
<rscale>  0 0.96608898E+02</rscale>
<asrwt>0</asrwt>
<pdfrwt beam="1">  1        1 0.42128647E-02 0.96608898E+02</pdfrwt>
<pdfrwt beam="2">  1       -1 0.13109014E-01 0.96608898E+02</pdfrwt>
<totfact> 0.72176377E+04</totfact>
</mgrwt>
</event>
<event>
 4    1  0.3946801E-002  0.4260882E+02  0.7818608E-02  0.1489846E+00
          1   -1    0    0    0  501  0.00000000000E+00  0.00000000000E+00  0.63532058285E+00  0.63534057370E+00  0.50400000000E-02 0.  1.
         -1   -1    0    0  501    0 -0.00000000000E+00 -0.00000000000E+00 -0.71439639741E+03  0.71439639743E+03  0.50400000000E-02 0.  1.
          2    1    1    2    0  502 -0.19248046019E+02 -0.63210131477E+01 -0.46747865254E+03  0.46791744258E+03  0.25500000000E-02 0. -1.
         -2    1    1    2  502    0  0.19248046019E+02  0.63210131477E+01 -0.24628242429E+03  0.24711429542E+03  0.25500000000E-02 0. -1.
<mgrwt>
<rscale>  0 0.42608820E+02</rscale>
<asrwt>0</asrwt>
<pdfrwt beam="1">  1        1 0.97743738E-04 0.42608820E+02</pdfrwt>
<pdfrwt beam="2">  1       -1 0.10990650E+00 0.42608820E+02</pdfrwt>
<totfact> 0.24878256E+05</totfact>
</mgrwt>
</event>
<event>
 4    1  0.3946801E-002  0.5171718E+02  0.7818608E-02  0.1436294E+00
         -1   -1    0    0  501    0 -0.00000000000E+00  0.00000000000E+00  0.20132512108E+01  0.20132575194E+01  0.50400000000E-02 0. -1.
          1   -1    0    0    0  501  0.00000000000E+00 -0.00000000000E+00 -0.33213220875E+03  0.33213220878E+03  0.50400000000E-02 0. -1.
          2    1    1    2    0  502 -0.18239813259E+02  0.12727051265E+02 -0.25028563158E+03  0.25127189657E+03  0.25500000000E-02 0.  1.
         -2    1    1    2  502    0  0.18239813259E+02 -0.12727051265E+02 -0.79833325956E+02  0.82873569739E+02  0.25500000000E-02 0.  1.
<mgrwt>
<rscale>  0 0.51717178E+02</rscale>
<asrwt>0</asrwt>
<pdfrwt beam="2">  1        1 0.51097220E-01 0.51717178E+02</pdfrwt>
<pdfrwt beam="1">  1       -1 0.30973171E-03 0.51717178E+02</pdfrwt>
<totfact> 0.56458000E+05</totfact>
</mgrwt>
</event>
<event>
 4    1  0.3946801E-002  0.5082450E+02  0.7818608E-02  0.1440944E+00
         -1   -1    0    0  501    0 -0.00000000000E+00  0.00000000000E+00  0.28914296850E+03  0.28914296854E+03  0.50400000000E-02 0. -1.
          1   -1    0    0    0  501  0.00000000000E+00 -0.00000000000E+00 -0.22334336980E+01  0.22334393846E+01  0.50400000000E-02 0. -1.
          2    1    1    2    0  502 -0.15914158119E+02 -0.13513479348E+02  0.22651548454E+03  0.22747557956E+03  0.25500000000E-02 0.  1.
         -2    1    1    2  502    0  0.15914158119E+02  0.13513479348E+02  0.60394050254E+02  0.63900828362E+02  0.25500000000E-02 0.  1.
<mgrwt>
<rscale>  0 0.50824501E+02</rscale>
<asrwt>0</asrwt>
<pdfrwt beam="2">  1        1 0.34360582E-03 0.50824501E+02</pdfrwt>
<pdfrwt beam="1">  1       -1 0.44483508E-01 0.50824501E+02</pdfrwt>
<totfact> 0.27317814E+05</totfact>
</mgrwt>
</event>
<event>
 4    1  0.3946801E-002  0.5275243E+02  0.7818608E-02  0.1431037E+00
          1   -1    0    0    0  501  0.00000000000E+00  0.00000000000E+00  0.10032287584E+03  0.10032287596E+03  0.50400000000E-02 0. -1.
         -1   -1    0    0  501    0 -0.00000000000E+00 -0.00000000000E+00 -0.69346569565E+01  0.69346587880E+01  0.50400000000E-02 0. -1.
          2    1    1    2    0  502 -0.45281343520E+01 -0.22439870976E+02  0.73332686672E+02  0.76822748917E+02  0.25500000000E-02 0.  1.
         -2    1    1    2  502    0  0.45281343520E+01  0.22439870976E+02  0.20055532209E+02  0.30434785835E+02  0.25500000000E-02 0.  1.
<mgrwt>
<rscale>  0 0.52752434E+02</rscale>
<asrwt>0</asrwt>
<pdfrwt beam="1">  1        1 0.15434286E-01 0.52752434E+02</pdfrwt>
<pdfrwt beam="2">  1       -1 0.10668706E-02 0.52752434E+02</pdfrwt>
<totfact> 0.44103838E+05</totfact>
</mgrwt>
</event>
<event>
 4    1  0.3946801E-002  0.8900228E+02  0.7818608E-02  0.1305286E+00
          1   -1    0    0    0  501  0.00000000000E+00  0.00000000000E+00  0.38244167121E+02  0.38244167453E+02  0.50400000000E-02 0.  1.
         -1   -1    0    0  501    0 -0.00000000000E+00 -0.00000000000E+00 -0.51781791855E+02  0.51781792100E+02  0.50400000000E-02 0.  1.
          2    1    1    2    0  502  0.32716179327E+02  0.17871493999E+02  0.17813235462E+02  0.41316462235E+02  0.25500000000E-02 0. -1.
         -2    1    1    2  502    0 -0.32716179327E+02 -0.17871493999E+02 -0.31350860196E+02  0.48709497318E+02  0.25500000000E-02 0. -1.
<mgrwt>
<rscale>  0 0.89002281E+02</rscale>
<asrwt>0</asrwt>
<pdfrwt beam="1">  1        1 0.58837181E-02 0.89002281E+02</pdfrwt>
<pdfrwt beam="2">  1       -1 0.79664295E-02 0.89002281E+02</pdfrwt>
<totfact> 0.96395265E+04</totfact>
</mgrwt>
</event>
<event>
 4    1  0.3946801E-002  0.5126780E+02  0.7818608E-02  0.1438621E+00
          1   -1    0    0    0  501  0.00000000000E+00  0.00000000000E+00  0.56255961798E+03  0.56255961800E+03  0.50400000000E-02 0.  1.
         -1   -1    0    0  501    0 -0.00000000000E+00 -0.00000000000E+00 -0.11680427542E+01  0.11680536277E+01  0.50400000000E-02 0.  1.
          2    1    1    2    0  502 -0.68706658877E+01 -0.24462896523E+02  0.31791503825E+03  0.31892884929E+03  0.25500000000E-02 0. -1.
         -2    1    1    2  502    0  0.68706658877E+01  0.24462896523E+02  0.24347653697E+03  0.24479882233E+03  0.25500000000E-02 0. -1.
<mgrwt>
<rscale>  0 0.51267797E+02</rscale>
<asrwt>0</asrwt>
<pdfrwt beam="1">  1        1 0.86547512E-01 0.51267797E+02</pdfrwt>
<pdfrwt beam="2">  1       -1 0.17969998E-03 0.51267797E+02</pdfrwt>
<totfact> 0.61895354E+05</totfact>
</mgrwt>
</event>
<event>
 4    1  0.3946801E-002  0.4184841E+02  0.7818608E-02  0.1495034E+00
          1   -1    0    0    0  501  0.00000000000E+00  0.00000000000E+00  0.92063533954E+02  0.92063534092E+02  0.50400000000E-02 0.  1.
         -1   -1    0    0  501    0 -0.00000000000E+00 -0.00000000000E+00 -0.47556524863E+01  0.47556551570E+01  0.50400000000E-02 0.  1.
          2    1    1    2    0  502  0.17192886064E+02 -0.11436189077E+02  0.35828550792E+02  0.41352954068E+02  0.25500000000E-02 0.  1.
         -2    1    1    2  502    0 -0.17192886064E+02  0.11436189077E+02  0.51479330676E+02  0.55466235181E+02  0.25500000000E-02 0.  1.
<mgrwt>
<rscale>  0 0.41848408E+02</rscale>
<asrwt>0</asrwt>
<pdfrwt beam="1">  1        1 0.14163620E-01 0.41848408E+02</pdfrwt>
<pdfrwt beam="2">  1       -1 0.73163913E-03 0.41848408E+02</pdfrwt>
<totfact> 0.77917333E+05</totfact>
</mgrwt>
</event>
<event>
 4    1  0.3946801E-002  0.4766919E+02  0.7818608E-02  0.1458335E+00
          1   -1    0    0    0  501  0.00000000000E+00  0.00000000000E+00  0.39822827404E+00  0.39826016603E+00  0.50400000000E-02 0. -1.
         -1   -1    0    0  501    0 -0.00000000000E+00 -0.00000000000E+00 -0.14264815153E+04  0.14264815153E+04  0.50400000000E-02 0. -1.
          2    1    1    2    0  502 -0.17978804223E+02  0.10191949530E+02 -0.35763929582E+03  0.35823592667E+03  0.25500000000E-02 0.  1.
         -2    1    1    2  502    0  0.17978804223E+02 -0.10191949530E+02 -0.10684439912E+04  0.10686438488E+04  0.25500000000E-02 0.  1.
<mgrwt>
<rscale>  0 0.47669195E+02</rscale>
<asrwt>0</asrwt>
<pdfrwt beam="1">  1        1 0.61269484E-04 0.47669195E+02</pdfrwt>
<pdfrwt beam="2">  1       -1 0.21945461E+00 0.47669195E+02</pdfrwt>
<totfact> 0.79619519E+04</totfact>
</mgrwt>
</event>
<event>
 4    1  0.3946801E-002  0.4215236E+02  0.7818608E-02  0.1492944E+00
          1   -1    0    0    0  501  0.00000000000E+00  0.00000000000E+00  0.64068509843E+03  0.64068509845E+03  0.50400000000E-02 0. -1.
         -1   -1    0    0  501    0 -0.00000000000E+00 -0.00000000000E+00 -0.69331956031E+00  0.69333787889E+00  0.50400000000E-02 0. -1.
          2    1    1    2    0  502  0.11509055958E+02 -0.17280990451E+02  0.37509776899E+03  0.37567196769E+03  0.25500000000E-02 0.  1.
         -2    1    1    2  502    0 -0.11509055958E+02  0.17280990451E+02  0.26489400988E+03  0.26570646863E+03  0.25500000000E-02 0.  1.
<mgrwt>
<rscale>  0 0.42152361E+02</rscale>
<asrwt>0</asrwt>
<pdfrwt beam="1">  1        1 0.98567448E-01 0.42152361E+02</pdfrwt>
<pdfrwt beam="2">  1       -1 0.10666541E-03 0.42152361E+02</pdfrwt>
<totfact> 0.10084115E+06</totfact>
</mgrwt>
</event>
<event>
 4    1  0.3946801E-002  0.1270082E+03  0.7818608E-02  0.1231964E+00
         -1   -1    0    0  501    0 -0.00000000000E+00  0.00000000000E+00  0.32936732327E+01  0.32936770888E+01  0.50400000000E-02 0. -1.
          1   -1    0    0    0  501  0.00000000000E+00 -0.00000000000E+00 -0.12243990198E+04  0.12243990198E+04  0.50400000000E-02 0. -1.
          2    1    1    2    0  502  0.54299475199E+02 -0.30760502854E+02 -0.49694607785E+03  0.50084932449E+03  0.25500000000E-02 0. -1.
         -2    1    1    2  502    0 -0.54299475199E+02  0.30760502854E+02 -0.72415926866E+03  0.72684337236E+03  0.25500000000E-02 0. -1.
<mgrwt>
<rscale>  0 0.12700823E+03</rscale>
<asrwt>0</asrwt>
<pdfrwt beam="2">  1        1 0.18836872E+00 0.12700823E+03</pdfrwt>
<pdfrwt beam="1">  1       -1 0.50672023E-03 0.12700823E+03</pdfrwt>
<totfact> 0.51762183E+04</totfact>
</mgrwt>
</event>
<event>
 4    1  0.3946801E-002  0.1671134E+03  0.7818608E-02  0.1180892E+00
          1   -1    0    0    0  501  0.00000000000E+00  0.00000000000E+00  0.53305854977E+02  0.53305855215E+02  0.50400000000E-02 0.  1.
         -1   -1    0    0  501    0 -0.00000000000E+00 -0.00000000000E+00 -0.13097474908E+03  0.13097474918E+03  0.50400000000E-02 0.  1.
          2    1    1    2    0  502 -0.42201908926E+02  0.66997588791E+02 -0.68259787263E+02  0.10454222393E+03  0.25500000000E-02 0.  1.
         -2    1    1    2  502    0  0.42201908926E+02 -0.66997588791E+02 -0.94091068422E+01  0.79738380463E+02  0.25500000000E-02 0.  1.
<mgrwt>
<rscale>  0 0.16711339E+03</rscale>
<asrwt>0</asrwt>
<pdfrwt beam="1">  1        1 0.82009008E-02 0.16711339E+03</pdfrwt>
<pdfrwt beam="2">  1       -1 0.20149961E-01 0.16711339E+03</pdfrwt>
<totfact> 0.15879056E+04</totfact>
</mgrwt>
</event>
<event>
 4    1  0.3946801E-002  0.5579595E+02  0.7818608E-02  0.1416372E+00
         -1   -1    0    0  501    0 -0.00000000000E+00  0.00000000000E+00  0.46029533366E+02  0.46029533642E+02  0.50400000000E-02 0. -1.
          1   -1    0    0    0  501  0.00000000000E+00 -0.00000000000E+00 -0.16908645595E+02  0.16908646347E+02  0.50400000000E-02 0. -1.
          2    1    1    2    0  502 -0.67595471785E+01 -0.20173582270E+02 -0.57947454067E+01  0.22050940581E+02  0.25500000000E-02 0. -1.
         -2    1    1    2  502    0  0.67595471785E+01  0.20173582270E+02  0.34915633177E+02  0.40887239407E+02  0.25500000000E-02 0. -1.
<mgrwt>
<rscale>  0 0.55795953E+02</rscale>
<asrwt>0</asrwt>
<pdfrwt beam="2">  1        1 0.26013302E-02 0.55795953E+02</pdfrwt>
<pdfrwt beam="1">  1       -1 0.70814666E-02 0.55795953E+02</pdfrwt>
<totfact> 0.31471543E+05</totfact>
</mgrwt>
</event>
<event>
 4    1  0.3946801E-002  0.4562506E+02  0.7818608E-02  0.1470477E+00
          1   -1    0    0    0  501  0.00000000000E+00  0.00000000000E+00  0.48594207097E+02  0.48594207359E+02  0.50400000000E-02 0. -1.
         -1   -1    0    0  501    0 -0.00000000000E+00 -0.00000000000E+00 -0.10709333033E+02  0.10709334219E+02  0.50400000000E-02 0. -1.
          2    1    1    2    0  502 -0.15551107176E+02 -0.14080366781E+02  0.30591295868E+02  0.37093409825E+02  0.25500000000E-02 0. -1.
         -2    1    1    2  502    0  0.15551107176E+02  0.14080366781E+02  0.72935781956E+01  0.22210131753E+02  0.25500000000E-02 0. -1.
<mgrwt>
<rscale>  0 0.45625063E+02</rscale>
<asrwt>0</asrwt>
<pdfrwt beam="1">  1        1 0.74760319E-02 0.45625063E+02</pdfrwt>
<pdfrwt beam="2">  1       -1 0.16475898E-02 0.45625063E+02</pdfrwt>
<totfact> 0.58661703E+05</totfact>
</mgrwt>
</event>
<event>
 4    1  0.3946801E-002  0.2235209E+03  0.7818608E-02  0.1131285E+00
         -1   -1    0    0  501    0 -0.00000000000E+00  0.00000000000E+00  0.17403824418E+02  0.17403825147E+02  0.50400000000E-02 0.  1.
          1   -1    0    0    0  501  0.00000000000E+00 -0.00000000000E+00 -0.71768123315E+03  0.71768123317E+03  0.50400000000E-02 0.  1.
          2    1    1    2    0  502  0.45624644602E+02 -0.45349450654E+01 -0.68532798145E+03  0.68685996833E+03  0.25500000000E-02 0.  1.
         -2    1    1    2  502    0 -0.45624644602E+02  0.45349450654E+01 -0.14949427278E+02  0.48225089987E+02  0.25500000000E-02 0.  1.
<mgrwt>
<rscale>  0 0.22352090E+03</rscale>
<asrwt>0</asrwt>
<pdfrwt beam="2">  1        1 0.11041247E+00 0.22352090E+03</pdfrwt>
<pdfrwt beam="1">  1       -1 0.26775121E-02 0.22352090E+03</pdfrwt>
<totfact> 0.11958330E+04</totfact>
</mgrwt>
</event>
<event>
 4    1  0.3946801E-002  0.6361705E+02  0.7818608E-02  0.1383250E+00
          1   -1    0    0    0  501  0.00000000000E+00  0.00000000000E+00  0.11848246675E+04  0.11848246675E+04  0.50400000000E-02 0. -1.
         -1   -1    0    0  501    0 -0.00000000000E+00 -0.00000000000E+00 -0.85394351622E+00  0.85395838921E+00  0.50400000000E-02 0. -1.
          2    1    1    2    0  502  0.10985367250E+02  0.28453300901E+02  0.76025600195E+03  0.76086756872E+03  0.25500000000E-02 0.  1.
         -2    1    1    2  502    0 -0.10985367250E+02 -0.28453300901E+02  0.42371472205E+03  0.42481105720E+03  0.25500000000E-02 0.  1.
<mgrwt>
<rscale>  0 0.63617047E+02</rscale>
<asrwt>0</asrwt>
<pdfrwt beam="1">  1        1 0.18228269E+00 0.63617047E+02</pdfrwt>
<pdfrwt beam="2">  1       -1 0.13137565E-03 0.63617047E+02</pdfrwt>
<totfact> 0.32617893E+05</totfact>
</mgrwt>
</event>
<event>
 4    1  0.3946801E-002  0.4063456E+02  0.7818608E-02  0.1503593E+00
          1   -1    0    0    0  501  0.00000000000E+00  0.00000000000E+00  0.83552981178E+03  0.83552981179E+03  0.50400000000E-02 0. -1.
         -1   -1    0    0  501    0 -0.00000000000E+00 -0.00000000000E+00 -0.49403520005E+00  0.49406090767E+00  0.50400000000E-02 0. -1.
          2    1    1    2    0  502 -0.18728209459E+02 -0.71332986265E+01  0.48625577136E+03  0.48666857816E+03  0.25500000000E-02 0.  1.
         -2    1    1    2  502    0  0.18728209459E+02  0.71332986265E+01  0.34878000522E+03  0.34935529455E+03  0.25500000000E-02 0.  1.
<mgrwt>
<rscale>  0 0.40634561E+02</rscale>
<asrwt>0</asrwt>
<pdfrwt beam="1">  1        1 0.12854231E+00 0.40634561E+02</pdfrwt>
<pdfrwt beam="2">  1       -1 0.76007831E-04 0.40634561E+02</pdfrwt>
<totfact> 0.10908395E+06</totfact>
</mgrwt>
</event>
<event>
 4    1  0.3946801E-002  0.8596447E+02  0.7818608E-02  0.1312929E+00
          1   -1    0    0    0  501  0.00000000000E+00  0.00000000000E+00  0.17903558801E+03  0.17903558808E+03  0.50400000000E-02 0. -1.
         -1   -1    0    0  501    0 -0.00000000000E+00 -0.00000000000E+00 -0.10319024441E+02  0.10319025672E+02  0.50400000000E-02 0. -1.
          2    1    1    2    0  502 -0.26271877940E+02 -0.20592619353E+02  0.14400267716E+03  0.14782096799E+03  0.25500000000E-02 0.  1.
         -2    1    1    2  502    0  0.26271877940E+02  0.20592619353E+02  0.24713886408E+02  0.41533645760E+02  0.25500000000E-02 0.  1.
<mgrwt>
<rscale>  0 0.85964475E+02</rscale>
<asrwt>0</asrwt>
<pdfrwt beam="1">  1        1 0.27543935E-01 0.85964475E+02</pdfrwt>
<pdfrwt beam="2">  1       -1 0.15875424E-02 0.85964475E+02</pdfrwt>
<totfact> 0.13568917E+05</totfact>
</mgrwt>
</event>
<event>
 4    1  0.3946801E-002  0.5158632E+02  0.7818608E-02  0.1436968E+00
          1   -1    0    0    0  501  0.00000000000E+00  0.00000000000E+00  0.20163413586E+01  0.20163476575E+01  0.50400000000E-02 0.  1.
         -1   -1    0    0  501    0 -0.00000000000E+00 -0.00000000000E+00 -0.32994714317E+03  0.32994714321E+03  0.50400000000E-02 0.  1.
          2    1    1    2    0  502  0.12268788188E+02  0.20978757515E+02 -0.10836381061E+03  0.11105560268E+03  0.25500000000E-02 0.  1.
         -2    1    1    2  502    0 -0.12268788188E+02 -0.20978757515E+02 -0.21956699120E+03  0.22090788818E+03  0.25500000000E-02 0.  1.
<mgrwt>
<rscale>  0 0.51586321E+02</rscale>
<asrwt>0</asrwt>
<pdfrwt beam="1">  1        1 0.31020711E-03 0.51586321E+02</pdfrwt>
<pdfrwt beam="2">  1       -1 0.50761057E-01 0.51586321E+02</pdfrwt>
<totfact> 0.24976085E+05</totfact>
</mgrwt>
</event>
<event>
 4    1  0.3946801E-002  0.4532569E+02  0.7818608E-02  0.1472319E+00
         -1   -1    0    0  501    0 -0.00000000000E+00  0.00000000000E+00  0.76169595542E+01  0.76169612217E+01  0.50400000000E-02 0.  1.
          1   -1    0    0    0  501  0.00000000000E+00 -0.00000000000E+00 -0.67429069537E+02  0.67429069725E+02  0.50400000000E-02 0.  1.
          2    1    1    2    0  502  0.10889157931E+02 -0.19797460157E+02 -0.32817165893E+02  0.39843187283E+02  0.25500000000E-02 0.  1.
         -2    1    1    2  502    0 -0.10889157931E+02  0.19797460157E+02 -0.26994944090E+02  0.35202843664E+02  0.25500000000E-02 0.  1.
<mgrwt>
<rscale>  0 0.45325691E+02</rscale>
<asrwt>0</asrwt>
<pdfrwt beam="2">  1        1 0.10373703E-01 0.45325691E+02</pdfrwt>
<pdfrwt beam="1">  1       -1 0.11718401E-02 0.45325691E+02</pdfrwt>
<totfact> 0.61632244E+05</totfact>
</mgrwt>
</event>
<event>
 4    1  0.3946801E-002  0.4605969E+02  0.7818608E-02  0.1467833E+00
          1   -1    0    0    0  501  0.00000000000E+00  0.00000000000E+00  0.16046368206E+04  0.16046368206E+04  0.50400000000E-02 0.  1.
         -1   -1    0    0  501    0 -0.00000000000E+00 -0.00000000000E+00 -0.33050653802E+00  0.33054496407E+00  0.50400000000E-02 0.  1.
          2    1    1    2    0  502 -0.75463340818E+01  0.19231464458E+02  0.44752133086E+03  0.44799792183E+03  0.25500000000E-02 0. -1.
         -2    1    1    2  502    0  0.75463340818E+01 -0.19231464458E+02  0.11567849832E+04  0.11569694437E+04  0.25500000000E-02 0. -1.
<mgrwt>
<rscale>  0 0.46059692E+02</rscale>
<asrwt>0</asrwt>
<pdfrwt beam="1">  1        1 0.24686773E+00 0.46059692E+02</pdfrwt>
<pdfrwt beam="2">  1       -1 0.50850009E-04 0.46059692E+02</pdfrwt>
<totfact> 0.59920971E+05</totfact>
</mgrwt>
</event>
<event>
 4    1  0.3946801E-002  0.5403838E+02  0.7818608E-02  0.1424702E+00
          1   -1    0    0    0  501  0.00000000000E+00  0.00000000000E+00  0.13304732893E+01  0.13304828353E+01  0.50400000000E-02 0.  1.
         -1   -1    0    0  501    0 -0.00000000000E+00 -0.00000000000E+00 -0.54870254858E+03  0.54870254860E+03  0.50400000000E-02 0.  1.
          2    1    1    2    0  502 -0.18975803157E+02 -0.14753155022E+02 -0.14807251178E+03  0.15001068442E+03  0.25500000000E-02 0.  1.
         -2    1    1    2  502    0  0.18975803157E+02  0.14753155022E+02 -0.39929956350E+03  0.40002234701E+03  0.25500000000E-02 0.  1.
<mgrwt>
<rscale>  0 0.54038383E+02</rscale>
<asrwt>0</asrwt>
<pdfrwt beam="1">  1        1 0.20468937E-03 0.54038383E+02</pdfrwt>
<pdfrwt beam="2">  1       -1 0.84415597E-01 0.54038383E+02</pdfrwt>
<totfact> 0.16941391E+05</totfact>
</mgrwt>
</event>
<event>
 4    1  0.3946801E-002  0.5998811E+02  0.7818608E-02  0.1397882E+00
         -1   -1    0    0  501    0 -0.00000000000E+00  0.00000000000E+00  0.12807604130E+03  0.12807604140E+03  0.50400000000E-02 0. -1.
          1   -1    0    0    0  501  0.00000000000E+00 -0.00000000000E+00 -0.70242894067E+01  0.70242912148E+01  0.50400000000E-02 0. -1.
          2    1    1    2    0  502 -0.16133437777E+02  0.24611354487E+02  0.47464225573E+02  0.55846748338E+02  0.25500000000E-02 0. -1.
         -2    1    1    2  502    0  0.16133437777E+02 -0.24611354487E+02  0.73587526324E+02  0.79253584279E+02  0.25500000000E-02 0. -1.
<mgrwt>
<rscale>  0 0.59988109E+02</rscale>
<asrwt>0</asrwt>
<pdfrwt beam="2">  1        1 0.10806601E-02 0.59988109E+02</pdfrwt>
<pdfrwt beam="1">  1       -1 0.19704006E-01 0.59988109E+02</pdfrwt>
<totfact> 0.22585352E+05</totfact>
</mgrwt>
</event>
<event>
 4    1  0.3946801E-002  0.6954318E+02  0.7818608E-02  0.1361653E+00
          1   -1    0    0    0  501  0.00000000000E+00  0.00000000000E+00  0.28496449631E+02  0.28496450076E+02  0.50400000000E-02 0. -1.
         -1   -1    0    0  501    0 -0.00000000000E+00 -0.00000000000E+00 -0.42428567484E+02  0.42428567783E+02  0.50400000000E-02 0. -1.
          2    1    1    2    0  502  0.26048081734E+02  0.19741284215E+01 -0.30371219789E+02  0.40060089154E+02  0.25500000000E-02 0.  1.
         -2    1    1    2  502    0 -0.26048081734E+02 -0.19741284215E+01  0.16439101935E+02  0.30864928706E+02  0.25500000000E-02 0.  1.
<mgrwt>
<rscale>  0 0.69543183E+02</rscale>
<asrwt>0</asrwt>
<pdfrwt beam="1">  1        1 0.43840692E-02 0.69543183E+02</pdfrwt>
<pdfrwt beam="2">  1       -1 0.65274720E-02 0.69543183E+02</pdfrwt>
<totfact> 0.18382456E+05</totfact>
</mgrwt>
</event>
<event>
 4    1  0.3946801E-002  0.5231976E+02  0.7818608E-02  0.1433216E+00
         -1   -1    0    0  501    0 -0.00000000000E+00  0.00000000000E+00  0.65931840363E+02  0.65931840556E+02  0.50400000000E-02 0. -1.
          1   -1    0    0    0  501  0.00000000000E+00 -0.00000000000E+00 -0.10379497492E+02  0.10379498716E+02  0.50400000000E-02 0. -1.
          2    1    1    2    0  502 -0.11181773171E+02 -0.17569463568E+02  0.50866616508E+02  0.54964814043E+02  0.25500000000E-02 0. -1.
         -2    1    1    2  502    0  0.11181773171E+02  0.17569463568E+02  0.46857263624E+01  0.21346525229E+02  0.25500000000E-02 0. -1.
<mgrwt>
<rscale>  0 0.52319764E+02</rscale>
<asrwt>0</asrwt>
<pdfrwt beam="2">  1        1 0.15968458E-02 0.52319764E+02</pdfrwt>
<pdfrwt beam="1">  1       -1 0.10143360E-01 0.52319764E+02</pdfrwt>
<totfact> 0.35359131E+05</totfact>
</mgrwt>
</event>
<event>
 4    1  0.3946801E-002  0.6732917E+02  0.7818608E-02  0.1369418E+00
          1   -1    0    0    0  501  0.00000000000E+00  0.00000000000E+00  0.40297219079E+03  0.40297219083E+03  0.50400000000E-02 0.  1.
         -1   -1    0    0  501    0 -0.00000000000E+00 -0.00000000000E+00 -0.28123614618E+01  0.28123659778E+01  0.50400000000E-02 0.  1.
          2    1    1    2    0  502  0.27087946755E+02 -0.19088636654E+02  0.16433720473E+03  0.16764501118E+03  0.25500000000E-02 0.  1.
         -2    1    1    2  502    0 -0.27087946755E+02  0.19088636654E+02  0.23582262461E+03  0.23813954563E+03  0.25500000000E-02 0.  1.
<mgrwt>
<rscale>  0 0.67329173E+02</rscale>
<asrwt>0</asrwt>
<pdfrwt beam="1">  1        1 0.61995654E-01 0.67329173E+02</pdfrwt>
<pdfrwt beam="2">  1       -1 0.43267182E-03 0.67329173E+02</pdfrwt>
<totfact> 0.29833920E+05</totfact>
</mgrwt>
</event>
<event>
 4    1  0.3946801E-002  0.4581597E+02  0.7818608E-02  0.1469311E+00
          1   -1    0    0    0  501  0.00000000000E+00  0.00000000000E+00  0.32715378084E+03  0.32715378088E+03  0.50400000000E-02 0.  1.
         -1   -1    0    0  501    0 -0.00000000000E+00 -0.00000000000E+00 -0.16040606690E+01  0.16040685869E+01  0.50400000000E-02 0.  1.
          2    1    1    2    0  502  0.10414743024E+02 -0.18017156585E+02  0.94064439629E+02  0.96339003590E+02  0.25500000000E-02 0.  1.
         -2    1    1    2  502    0 -0.10414743024E+02  0.18017156585E+02  0.23148528054E+03  0.23241884588E+03  0.25500000000E-02 0.  1.
<mgrwt>
<rscale>  0 0.45815972E+02</rscale>
<asrwt>0</asrwt>
<pdfrwt beam="1">  1        1 0.50331394E-01 0.45815972E+02</pdfrwt>
<pdfrwt beam="2">  1       -1 0.24677897E-03 0.45815972E+02</pdfrwt>
<totfact> 0.76081777E+05</totfact>
</mgrwt>
</event>
<event>
 4    1  0.3946801E-002  0.4319981E+02  0.7818608E-02  0.1485903E+00
          1   -1    0    0    0  501  0.00000000000E+00  0.00000000000E+00  0.15776781506E+04  0.15776781506E+04  0.50400000000E-02 0.  1.
         -1   -1    0    0  501    0 -0.00000000000E+00 -0.00000000000E+00 -0.29570157775E+00  0.29574452604E+00  0.50400000000E-02 0.  1.
          2    1    1    2    0  502  0.74284730411E+01  0.20199388919E+02  0.72175265491E+03  0.72207346745E+03  0.25500000000E-02 0.  1.
         -2    1    1    2  502    0 -0.74284730411E+01 -0.20199388919E+02  0.85562979407E+03  0.85590042764E+03  0.25500000000E-02 0.  1.
<mgrwt>
<rscale>  0 0.43199806E+02</rscale>
<asrwt>0</asrwt>
<pdfrwt beam="1">  1        1 0.24271902E+00 0.43199806E+02</pdfrwt>
<pdfrwt beam="2">  1       -1 0.45495985E-04 0.43199806E+02</pdfrwt>
<totfact> 0.71268155E+05</totfact>
</mgrwt>
</event>
<event>
 4    1  0.3946801E-002  0.6293188E+02  0.7818608E-02  0.1385924E+00
          1   -1    0    0    0  501  0.00000000000E+00  0.00000000000E+00  0.42342828330E+02  0.42342828630E+02  0.50400000000E-02 0.  1.
         -1   -1    0    0  501    0 -0.00000000000E+00 -0.00000000000E+00 -0.23383068505E+02  0.23383069048E+02  0.50400000000E-02 0.  1.
          2    1    1    2    0  502  0.14561796808E+02  0.26128146329E+02 -0.71995053125E+00  0.29920633218E+02  0.25500000000E-02 0.  1.
         -2    1    1    2  502    0 -0.14561796808E+02 -0.26128146329E+02  0.19679710356E+02  0.35805264461E+02  0.25500000000E-02 0.  1.
<mgrwt>
<rscale>  0 0.62931877E+02</rscale>
<asrwt>0</asrwt>
<pdfrwt beam="1">  1        1 0.65142814E-02 0.62931877E+02</pdfrwt>
<pdfrwt beam="2">  1       -1 0.35973952E-02 0.62931877E+02</pdfrwt>
<totfact> 0.25184887E+05</totfact>
</mgrwt>
</event>
<event>
 4    1  0.3946801E-002  0.4358702E+02  0.7818608E-02  0.1483360E+00
         -1   -1    0    0  501    0 -0.00000000000E+00  0.00000000000E+00  0.33247492783E+02  0.33247493165E+02  0.50400000000E-02 0. -1.
          1   -1    0    0    0  501  0.00000000000E+00 -0.00000000000E+00 -0.14285497814E+02  0.14285498703E+02  0.50400000000E-02 0. -1.
          2    1    1    2    0  502 -0.12288549932E+02  0.17667584901E+02  0.13227886922E+02  0.25261215620E+02  0.25500000000E-02 0. -1.
         -2    1    1    2  502    0  0.12288549932E+02 -0.17667584901E+02  0.57341080463E+01  0.22271776248E+02  0.25500000000E-02 0. -1.
<mgrwt>
<rscale>  0 0.43587017E+02</rscale>
<asrwt>0</asrwt>
<pdfrwt beam="2">  1        1 0.21977690E-02 0.43587017E+02</pdfrwt>
<pdfrwt beam="1">  1       -1 0.51149990E-02 0.43587017E+02</pdfrwt>
<totfact> 0.59461276E+05</totfact>
</mgrwt>
</event>
<event>
 4    1  0.3946801E-002  0.5236852E+02  0.7818608E-02  0.1432970E+00
          1   -1    0    0    0  501  0.00000000000E+00  0.00000000000E+00  0.30328680762E+03  0.30328680766E+03  0.50400000000E-02 0. -1.
         -1   -1    0    0  501    0 -0.00000000000E+00 -0.00000000000E+00 -0.22606149639E+01  0.22606205822E+01  0.50400000000E-02 0. -1.
          2    1    1    2    0  502 -0.19873852034E+02 -0.82733241476E+01  0.63541377867E+02  0.67088930494E+02  0.25500000000E-02 0.  1.
         -2    1    1    2  502    0  0.19873852034E+02  0.82733241476E+01  0.23748481479E+03  0.23845849775E+03  0.25500000000E-02 0.  1.
<mgrwt>
<rscale>  0 0.52368523E+02</rscale>
<asrwt>0</asrwt>
<pdfrwt beam="1">  1        1 0.46659494E-01 0.52368523E+02</pdfrwt>
<pdfrwt beam="2">  1       -1 0.34778747E-03 0.52368523E+02</pdfrwt>
<totfact> 0.53866781E+05</totfact>
</mgrwt>
</event>
<event>
 4    1  0.3946801E-002  0.5012567E+02  0.7818608E-02  0.1444665E+00
          1   -1    0    0    0  501  0.00000000000E+00  0.00000000000E+00  0.71905751195E+02  0.71905751372E+02  0.50400000000E-02 0.  1.
         -1   -1    0    0  501    0 -0.00000000000E+00 -0.00000000000E+00 -0.87356803822E+01  0.87356818361E+01  0.50400000000E-02 0.  1.
          2    1    1    2    0  502 -0.72316771887E+01  0.23144240724E+02  0.41784363228E+02  0.48310309982E+02  0.25500000000E-02 0. -1.
         -2    1    1    2  502    0  0.72316771887E+01 -0.23144240724E+02  0.21385707585E+02  0.32331123226E+02  0.25500000000E-02 0. -1.
<mgrwt>
<rscale>  0 0.50125671E+02</rscale>
<asrwt>0</asrwt>
<pdfrwt beam="1">  1        1 0.11062423E-01 0.50125671E+02</pdfrwt>
<pdfrwt beam="2">  1       -1 0.13439510E-02 0.50125671E+02</pdfrwt>
<totfact> 0.48158332E+05</totfact>
</mgrwt>
</event>
<event>
 4    1  0.3946801E-002  0.8074925E+02  0.7818608E-02  0.1326939E+00
          1   -1    0    0    0  501  0.00000000000E+00  0.00000000000E+00  0.48633877481E+01  0.48633903596E+01  0.50400000000E-02 0. -1.
         -1   -1    0    0  501    0 -0.00000000000E+00 -0.00000000000E+00 -0.33517990320E+03  0.33517990324E+03  0.50400000000E-02 0. -1.
          2    1    1    2    0  502 -0.37329765098E+02  0.88419956000E+01 -0.21816096205E+03  0.22150823374E+03  0.25500000000E-02 0. -1.
         -2    1    1    2  502    0  0.37329765098E+02 -0.88419956000E+01 -0.11215555340E+03  0.11853505985E+03  0.25500000000E-02 0. -1.
<mgrwt>
<rscale>  0 0.80749249E+02</rscale>
<asrwt>0</asrwt>
<pdfrwt beam="1">  1        1 0.74821397E-03 0.80749249E+02</pdfrwt>
<pdfrwt beam="2">  1       -1 0.51566121E-01 0.80749249E+02</pdfrwt>
<totfact> 0.79415072E+04</totfact>
</mgrwt>
</event>
<event>
 4    1  0.3946801E-002  0.5446735E+02  0.7818608E-02  0.1422635E+00
          1   -1    0    0    0  501  0.00000000000E+00  0.00000000000E+00  0.12679870509E+04  0.12679870509E+04  0.50400000000E-02 0. -1.
         -1   -1    0    0  501    0 -0.00000000000E+00 -0.00000000000E+00 -0.58491082430E+00  0.58493253798E+00  0.50400000000E-02 0. -1.
          2    1    1    2    0  502  0.13557115323E+02 -0.17796603353E+02  0.99538588493E+03  0.99563727049E+03  0.25500000000E-02 0.  1.
         -2    1    1    2  502    0 -0.13557115323E+02  0.17796603353E+02  0.27201625512E+03  0.27293471293E+03  0.25500000000E-02 0.  1.
<mgrwt>
<rscale>  0 0.54467353E+02</rscale>
<asrwt>0</asrwt>
<pdfrwt beam="1">  1        1 0.19507360E+00 0.54467353E+02</pdfrwt>
<pdfrwt beam="2">  1       -1 0.89988567E-04 0.54467353E+02</pdfrwt>
<totfact> 0.46727975E+05</totfact>
</mgrwt>
</event>
<event>
 4    1  0.3946801E-002  0.7183180E+02  0.7818608E-02  0.1353972E+00
          1   -1    0    0    0  501  0.00000000000E+00  0.00000000000E+00  0.11416675984E+03  0.11416675995E+03  0.50400000000E-02 0.  1.
         -1   -1    0    0  501    0 -0.00000000000E+00 -0.00000000000E+00 -0.11298838367E+02  0.11298839491E+02  0.50400000000E-02 0.  1.
          2    1    1    2    0  502 -0.33903756695E+02  0.55032587838E+01  0.69769817402E+02  0.77766175180E+02  0.25500000000E-02 0.  1.
         -2    1    1    2  502    0  0.33903756695E+02 -0.55032587838E+01  0.33098104067E+02  0.47699424259E+02  0.25500000000E-02 0.  1.
<mgrwt>
<rscale>  0 0.71831799E+02</rscale>
<asrwt>0</asrwt>
<pdfrwt beam="1">  1        1 0.17564118E-01 0.71831799E+02</pdfrwt>
<pdfrwt beam="2">  1       -1 0.17382828E-02 0.71831799E+02</pdfrwt>
<totfact> 0.20213156E+05</totfact>
</mgrwt>
</event>
<event>
 4    1  0.3946801E-002  0.4835886E+02  0.7818608E-02  0.1454400E+00
         -1   -1    0    0  501    0 -0.00000000000E+00  0.00000000000E+00  0.53490639158E+00  0.53493013502E+00  0.50400000000E-02 0. -1.
          1   -1    0    0    0  501  0.00000000000E+00 -0.00000000000E+00 -0.10929609490E+04  0.10929609490E+04  0.50400000000E-02 0. -1.
          2    1    1    2    0  502  0.23271418161E+02  0.18776098291E+01 -0.40398938940E+03  0.40466345409E+03  0.25500000000E-02 0.  1.
         -2    1    1    2  502    0 -0.23271418161E+02 -0.18776098291E+01 -0.68843665319E+03  0.68883242504E+03  0.25500000000E-02 0.  1.
<mgrwt>
<rscale>  0 0.48358858E+02</rscale>
<asrwt>0</asrwt>
<pdfrwt beam="2">  1        1 0.16814605E+00 0.48358858E+02</pdfrwt>
<pdfrwt beam="1">  1       -1 0.82295993E-04 0.48358858E+02</pdfrwt>
<totfact> 0.67092441E+05</totfact>
</mgrwt>
</event>
<event>
 4    1  0.3946801E-002  0.1266658E+03  0.7818608E-02  0.1232489E+00
         -1   -1    0    0  501    0 -0.00000000000E+00  0.00000000000E+00  0.27294332515E+01  0.27294379048E+01  0.50400000000E-02 0. -1.
          1   -1    0    0    0  501  0.00000000000E+00 -0.00000000000E+00 -0.14695560647E+04  0.14695560647E+04  0.50400000000E-02 0. -1.
          2    1    1    2    0  502 -0.36484223207E+02  0.37180591650E+02 -0.11521074484E+04  0.11532844695E+04  0.25500000000E-02 0.  1.
         -2    1    1    2  502    0  0.36484223207E+02 -0.37180591650E+02 -0.31471918306E+03  0.31900103311E+03  0.25500000000E-02 0.  1.
<mgrwt>
<rscale>  0 0.12666584E+03</rscale>
<asrwt>0</asrwt>
<pdfrwt beam="2">  1        1 0.22608492E+00 0.12666584E+03</pdfrwt>
<pdfrwt beam="1">  1       -1 0.41991434E-03 0.12666584E+03</pdfrwt>
<totfact> 0.46426669E+04</totfact>
</mgrwt>
</event>
<event>
 4    1  0.3946801E-002  0.5900973E+02  0.7818608E-02  0.1402035E+00
          1   -1    0    0    0  501  0.00000000000E+00  0.00000000000E+00  0.74707352533E+03  0.74707352534E+03  0.50400000000E-02 0. -1.
         -1   -1    0    0  501    0 -0.00000000000E+00 -0.00000000000E+00 -0.11652572681E+01  0.11652681676E+01  0.50400000000E-02 0. -1.
          2    1    1    2    0  502 -0.27214088851E+01 -0.28925956533E+02  0.43812931561E+03  0.43909157841E+03  0.25500000000E-02 0.  1.
         -2    1    1    2  502    0  0.27214088851E+01  0.28925956533E+02  0.30777895245E+03  0.30914721511E+03  0.25500000000E-02 0.  1.
<mgrwt>
<rscale>  0 0.59009726E+02</rscale>
<asrwt>0</asrwt>
<pdfrwt beam="1">  1        1 0.11493460E+00 0.59009726E+02</pdfrwt>
<pdfrwt beam="2">  1       -1 0.17927086E-03 0.59009726E+02</pdfrwt>
<totfact> 0.43740061E+05</totfact>
</mgrwt>
</event>
<event>
 4    1  0.3946801E-002  0.4291492E+02  0.7818608E-02  0.1487795E+00
          1   -1    0    0    0  501  0.00000000000E+00  0.00000000000E+00  0.21104541136E+04  0.21104541136E+04  0.50400000000E-02 0. -1.
         -1   -1    0    0  501    0 -0.00000000000E+00 -0.00000000000E+00 -0.21813368578E+00  0.21819190285E+00  0.50400000000E-02 0. -1.
          2    1    1    2    0  502  0.10553416372E+02 -0.17204752026E+02  0.14133237967E+04  0.14134679099E+04  0.25500000000E-02 0. -1.
         -2    1    1    2  502    0 -0.10553416372E+02  0.17204752026E+02  0.69691218324E+03  0.69720439560E+03  0.25500000000E-02 0. -1.
<mgrwt>
<rscale>  0 0.42914920E+02</rscale>
<asrwt>0</asrwt>
<pdfrwt beam="1">  1        1 0.32469871E+00 0.42914920E+02</pdfrwt>
<pdfrwt beam="2">  1       -1 0.33562116E-04 0.42914920E+02</pdfrwt>
<totfact> 0.50688130E+05</totfact>
</mgrwt>
</event>
<event>
 4    1  0.3946801E-002  0.8594180E+02  0.7818608E-02  0.1312988E+00
          1   -1    0    0    0  501  0.00000000000E+00  0.00000000000E+00  0.32391431857E+02  0.32391432249E+02  0.50400000000E-02 0. -1.
         -1   -1    0    0  501    0 -0.00000000000E+00 -0.00000000000E+00 -0.57005755879E+02  0.57005756102E+02  0.50400000000E-02 0. -1.
          2    1    1    2    0  502 -0.60945590424E-01 -0.42483095601E+02 -0.55915090229E+01  0.42849528654E+02  0.25500000000E-02 0.  1.
         -2    1    1    2  502    0  0.60945590424E-01  0.42483095601E+02 -0.19022815000E+02  0.46547659697E+02  0.25500000000E-02 0.  1.
<mgrwt>
<rscale>  0 0.85941796E+02</rscale>
<asrwt>0</asrwt>
<pdfrwt beam="1">  1        1 0.49832973E-02 0.85941796E+02</pdfrwt>
<pdfrwt beam="2">  1       -1 0.87701163E-02 0.85941796E+02</pdfrwt>
<totfact> 0.10379763E+05</totfact>
</mgrwt>
</event>
<event>
 4    1  0.3946801E-002  0.4757723E+02  0.7818608E-02  0.1458865E+00
          1   -1    0    0    0  501  0.00000000000E+00  0.00000000000E+00  0.33476408063E+03  0.33476408066E+03  0.50400000000E-02 0.  1.
         -1   -1    0    0  501    0 -0.00000000000E+00 -0.00000000000E+00 -0.16904349513E+01  0.16904424646E+01  0.50400000000E-02 0.  1.
          2    1    1    2    0  502 -0.11675768140E+02  0.18804401287E+02  0.10489922414E+03  0.10720903088E+03  0.25500000000E-02 0. -1.
         -2    1    1    2  502    0  0.11675768140E+02 -0.18804401287E+02  0.22817442153E+03  0.22924549225E+03  0.25500000000E-02 0. -1.
<mgrwt>
<rscale>  0 0.47577229E+02</rscale>
<asrwt>0</asrwt>
<pdfrwt beam="1">  1        1 0.51502137E-01 0.47577229E+02</pdfrwt>
<pdfrwt beam="2">  1       -1 0.26006765E-03 0.47577229E+02</pdfrwt>
<totfact> 0.69577510E+05</totfact>
</mgrwt>
</event>
<event>
 4    1  0.3946801E-002  0.4392548E+02  0.7818608E-02  0.1481163E+00
         -1   -1    0    0  501    0 -0.00000000000E+00  0.00000000000E+00  0.21104657314E+01  0.21104717494E+01  0.50400000000E-02 0.  1.
          1   -1    0    0    0  501  0.00000000000E+00 -0.00000000000E+00 -0.22855672823E+03  0.22855672829E+03  0.50400000000E-02 0.  1.
          2    1    1    2    0  502 -0.21699315181E+02 -0.22205342419E+01 -0.12668415225E+03  0.12854830022E+03  0.25500000000E-02 0. -1.
         -2    1    1    2  502    0  0.21699315181E+02  0.22205342419E+01 -0.99762110253E+02  0.10211889982E+03  0.25500000000E-02 0. -1.
<mgrwt>
<rscale>  0 0.43925475E+02</rscale>
<asrwt>0</asrwt>
<pdfrwt beam="2">  1        1 0.35162555E-01 0.43925475E+02</pdfrwt>
<pdfrwt beam="1">  1       -1 0.32468768E-03 0.43925475E+02</pdfrwt>
<totfact> 0.79333262E+05</totfact>
</mgrwt>
</event>
<event>
 4    1  0.3946801E-002  0.9747556E+02  0.7818608E-02  0.1285696E+00
         -1   -1    0    0  501    0 -0.00000000000E+00  0.00000000000E+00  0.19208650314E+01  0.19208716434E+01  0.50400000000E-02 0.  1.
          1   -1    0    0    0  501  0.00000000000E+00 -0.00000000000E+00 -0.12366132658E+04  0.12366132658E+04  0.50400000000E-02 0.  1.
          2    1    1    2    0  502  0.61574034323E+01  0.43425810631E+02 -0.88737894404E+03  0.88846221359E+03  0.25500000000E-02 0.  1.
         -2    1    1    2  502    0 -0.61574034323E+01 -0.43425810631E+02 -0.34731345673E+03  0.35007192387E+03  0.25500000000E-02 0.  1.
<mgrwt>
<rscale>  0 0.97475562E+02</rscale>
<asrwt>0</asrwt>
<pdfrwt beam="2">  1        1 0.19024756E+00 0.97475562E+02</pdfrwt>
<pdfrwt beam="1">  1       -1 0.29551919E-03 0.97475562E+02</pdfrwt>
<totfact> 0.10506935E+05</totfact>
</mgrwt>
</event>
<event>
 4    1  0.3946801E-002  0.1051820E+03  0.7818608E-02  0.1269761E+00
          1   -1    0    0    0  501  0.00000000000E+00  0.00000000000E+00  0.63500866523E+02  0.63500866723E+02  0.50400000000E-02 0.  1.
         -1   -1    0    0  501    0 -0.00000000000E+00 -0.00000000000E+00 -0.43555516786E+02  0.43555517078E+02  0.50400000000E-02 0.  1.
          2    1    1    2    0  502  0.49976388273E+02 -0.13919621950E+02  0.18752980332E+02  0.55164023945E+02  0.25500000000E-02 0.  1.
         -2    1    1    2  502    0 -0.49976388273E+02  0.13919621950E+02  0.11923694046E+01  0.51892359855E+02  0.25500000000E-02 0.  1.
<mgrwt>
<rscale>  0 0.10518200E+03</rscale>
<asrwt>0</asrwt>
<pdfrwt beam="1">  1        1 0.97693641E-02 0.10518200E+03</pdfrwt>
<pdfrwt beam="2">  1       -1 0.67008488E-02 0.10518200E+03</pdfrwt>
<totfact> 0.65158719E+04</totfact>
</mgrwt>
</event>
<event>
 4    1  0.3946801E-002  0.4635568E+02  0.7818608E-02  0.1466052E+00
         -1   -1    0    0  501    0 -0.00000000000E+00  0.00000000000E+00  0.77237981857E+00  0.77239626212E+00  0.50400000000E-02 0.  1.
          1   -1    0    0    0  501  0.00000000000E+00 -0.00000000000E+00 -0.69552113600E+03  0.69552113601E+03  0.50400000000E-02 0.  1.
          2    1    1    2    0  502  0.15711421993E+02 -0.13986470839E+02 -0.49357891489E+03  0.49402693791E+03  0.25500000000E-02 0.  1.
         -2    1    1    2  502    0 -0.15711421993E+02  0.13986470839E+02 -0.20116984128E+03  0.20226659436E+03  0.25500000000E-02 0.  1.
<mgrwt>
<rscale>  0 0.46355678E+02</rscale>
<asrwt>0</asrwt>
<pdfrwt beam="2">  1        1 0.10700275E+00 0.46355678E+02</pdfrwt>
<pdfrwt beam="1">  1       -1 0.11882949E-03 0.46355678E+02</pdfrwt>
<totfact> 0.79992581E+05</totfact>
</mgrwt>
</event>
<event>
 4    1  0.3946801E-002  0.5419252E+02  0.7818608E-02  0.1423957E+00
         -1   -1    0    0  501    0 -0.00000000000E+00  0.00000000000E+00  0.11241465536E+02  0.11241466666E+02  0.50400000000E-02 0.  1.
          1   -1    0    0    0  501  0.00000000000E+00 -0.00000000000E+00 -0.65312407797E+02  0.65312407991E+02  0.50400000000E-02 0.  1.
          2    1    1    2    0  502 -0.60722121599E+01 -0.25999348987E+02 -0.33565621400E+02  0.42889262698E+02  0.25500000000E-02 0.  1.
         -2    1    1    2  502    0  0.60722121599E+01  0.25999348987E+02 -0.20505320860E+02  0.33664611959E+02  0.25500000000E-02 0.  1.
<mgrwt>
<rscale>  0 0.54192517E+02</rscale>
<asrwt>0</asrwt>
<pdfrwt beam="2">  1        1 0.10048063E-01 0.54192517E+02</pdfrwt>
<pdfrwt beam="1">  1       -1 0.17294564E-02 0.54192517E+02</pdfrwt>
<totfact> 0.39028262E+05</totfact>
</mgrwt>
</event>
<event>
 4    1  0.3946801E-002  0.5548200E+02  0.7818608E-02  0.1417833E+00
          1   -1    0    0    0  501  0.00000000000E+00  0.00000000000E+00  0.26453298738E+01  0.26453346750E+01  0.50400000000E-02 0.  1.
         -1   -1    0    0  501    0 -0.00000000000E+00 -0.00000000000E+00 -0.29091358716E+03  0.29091358720E+03  0.50400000000E-02 0.  1.
          2    1    1    2    0  502  0.25907120741E+02  0.58331939519E+01 -0.18658089466E+03  0.18846123028E+03  0.25500000000E-02 0. -1.
         -2    1    1    2  502    0 -0.25907120741E+02 -0.58331939519E+01 -0.10168736262E+03  0.10509769160E+03  0.25500000000E-02 0. -1.
<mgrwt>
<rscale>  0 0.55482001E+02</rscale>
<asrwt>0</asrwt>
<pdfrwt beam="1">  1        1 0.40697443E-03 0.55482001E+02</pdfrwt>
<pdfrwt beam="2">  1       -1 0.44755912E-01 0.55482001E+02</pdfrwt>
<totfact> 0.21900321E+05</totfact>
</mgrwt>
</event>
<event>
 4    1  0.3946801E-002  0.4173038E+02  0.7818608E-02  0.1495850E+00
         -1   -1    0    0  501    0 -0.00000000000E+00  0.00000000000E+00  0.47536503711E+02  0.47536503978E+02  0.50400000000E-02 0. -1.
          1   -1    0    0    0  501  0.00000000000E+00 -0.00000000000E+00 -0.91583553173E+01  0.91583567041E+01  0.50400000000E-02 0. -1.
          2    1    1    2    0  502 -0.18148109680E+02 -0.10295262953E+02  0.19053842756E+02  0.28255888846E+02  0.25500000000E-02 0. -1.
         -2    1    1    2  502    0  0.18148109680E+02  0.10295262953E+02  0.19324305638E+02  0.28438971836E+02  0.25500000000E-02 0. -1.
<mgrwt>
<rscale>  0 0.41730384E+02</rscale>
<asrwt>0</asrwt>
<pdfrwt beam="2">  1        1 0.14089779E-02 0.41730384E+02</pdfrwt>
<pdfrwt beam="1">  1       -1 0.73133083E-02 0.41730384E+02</pdfrwt>
<totfact> 0.63853609E+05</totfact>
</mgrwt>
</event>
<event>
 4    1  0.3946801E-002  0.5750006E+02  0.7818608E-02  0.1408633E+00
         -1   -1    0    0  501    0 -0.00000000000E+00  0.00000000000E+00  0.59789688445E+02  0.59789688657E+02  0.50400000000E-02 0.  1.
          1   -1    0    0    0  501  0.00000000000E+00 -0.00000000000E+00 -0.13824526797E+02  0.13824527716E+02  0.50400000000E-02 0.  1.
          2    1    1    2    0  502 -0.58705008014E+01 -0.26149725650E+02  0.36305337804E+02  0.45125918171E+02  0.25500000000E-02 0.  1.
         -2    1    1    2  502    0  0.58705008014E+01  0.26149725650E+02  0.96598238442E+01  0.28488298202E+02  0.25500000000E-02 0.  1.
<mgrwt>
<rscale>  0 0.57500059E+02</rscale>
<asrwt>0</asrwt>
<pdfrwt beam="2">  1        1 0.21268504E-02 0.57500059E+02</pdfrwt>
<pdfrwt beam="1">  1       -1 0.91984136E-02 0.57500059E+02</pdfrwt>
<totfact> 0.28319543E+05</totfact>
</mgrwt>
</event>
<event>
 4    1  0.3946801E-002  0.4709107E+02  0.7818608E-02  0.1461694E+00
         -1   -1    0    0  501    0 -0.00000000000E+00  0.00000000000E+00  0.86209934729E+00  0.86211407957E+00  0.50400000000E-02 0.  1.
          1   -1    0    0    0  501  0.00000000000E+00 -0.00000000000E+00 -0.64306673704E+03  0.64306673706E+03  0.50400000000E-02 0.  1.
          2    1    1    2    0  502  0.16270290920E+01 -0.22633088990E+02 -0.40703000282E+03  0.40766202563E+03  0.25500000000E-02 0.  1.
         -2    1    1    2  502    0 -0.16270290920E+01  0.22633088990E+02 -0.23517463488E+03  0.23626682551E+03  0.25500000000E-02 0.  1.
<mgrwt>
<rscale>  0 0.47091068E+02</rscale>
<asrwt>0</asrwt>
<pdfrwt beam="2">  1        1 0.98932962E-01 0.47091068E+02</pdfrwt>
<pdfrwt beam="1">  1       -1 0.13263232E-03 0.47091068E+02</pdfrwt>
<totfact> 0.76911369E+05</totfact>
</mgrwt>
</event>
<event>
 4    1  0.3946801E-002  0.4810472E+02  0.7818608E-02  0.1455841E+00
          1   -1    0    0    0  501  0.00000000000E+00  0.00000000000E+00  0.34218278736E+03  0.34218278740E+03  0.50400000000E-02 0.  1.
         -1   -1    0    0  501    0 -0.00000000000E+00 -0.00000000000E+00 -0.16906601081E+01  0.16906676204E+01  0.50400000000E-02 0.  1.
          2    1    1    2    0  502 -0.20998703285E+02  0.10887353712E+02  0.20143492894E+03  0.20281891089E+03  0.25500000000E-02 0.  1.
         -2    1    1    2  502    0  0.20998703285E+02 -0.10887353712E+02  0.13905719831E+03  0.14105454413E+03  0.25500000000E-02 0.  1.
<mgrwt>
<rscale>  0 0.48104723E+02</rscale>
<asrwt>0</asrwt>
<pdfrwt beam="1">  1        1 0.52643483E-01 0.48104723E+02</pdfrwt>
<pdfrwt beam="2">  1       -1 0.26010225E-03 0.48104723E+02</pdfrwt>
<totfact> 0.67948950E+05</totfact>
</mgrwt>
</event>
<event>
 4    1  0.3946801E-002  0.1026400E+03  0.7818608E-02  0.1274840E+00
          1   -1    0    0    0  501  0.00000000000E+00  0.00000000000E+00  0.16005450406E+04  0.16005450406E+04  0.50400000000E-02 0.  1.
         -1   -1    0    0  501    0 -0.00000000000E+00 -0.00000000000E+00 -0.16455253394E+01  0.16455330577E+01  0.50400000000E-02 0.  1.
          2    1    1    2    0  502  0.11779000949E+02  0.28631086359E+02  0.16054151471E+03  0.16349942484E+03  0.25500000000E-02 0.  1.
         -2    1    1    2  502    0 -0.11779000949E+02 -0.28631086359E+02  0.14383580005E+04  0.14386911488E+04  0.25500000000E-02 0.  1.
<mgrwt>
<rscale>  0 0.10264002E+03</rscale>
<asrwt>0</asrwt>
<pdfrwt beam="1">  1        1 0.24623945E+00 0.10264002E+03</pdfrwt>
<pdfrwt beam="2">  1       -1 0.25315654E-03 0.10264002E+03</pdfrwt>
<totfact> 0.76132074E+04</totfact>
</mgrwt>
</event>
<event>
 4    1  0.3946801E-002  0.4575865E+02  0.7818608E-02  0.1469660E+00
          1   -1    0    0    0  501  0.00000000000E+00  0.00000000000E+00  0.83529664268E+00  0.83531184767E+00  0.50400000000E-02 0.  1.
         -1   -1    0    0  501    0 -0.00000000000E+00 -0.00000000000E+00 -0.62667405263E+03  0.62667405265E+03  0.50400000000E-02 0.  1.
          2    1    1    2    0  502 -0.11973281106E+01  0.22079917404E+02 -0.23236269224E+03  0.23341246132E+03  0.25500000000E-02 0.  1.
         -2    1    1    2  502    0  0.11973281106E+01 -0.22079917404E+02 -0.39347606374E+03  0.39409690317E+03  0.25500000000E-02 0.  1.
<mgrwt>
<rscale>  0 0.45758650E+02</rscale>
<asrwt>0</asrwt>
<pdfrwt beam="1">  1        1 0.12850885E-03 0.45758650E+02</pdfrwt>
<pdfrwt beam="2">  1       -1 0.96411018E-01 0.45758650E+02</pdfrwt>
<totfact> 0.23251405E+05</totfact>
</mgrwt>
</event>
<event>
 4    1  0.3946801E-002  0.6984604E+02  0.7818608E-02  0.1360617E+00
          1   -1    0    0    0  501  0.00000000000E+00  0.00000000000E+00  0.24201529843E+01  0.24201582322E+01  0.50400000000E-02 0. -1.
         -1   -1    0    0  501    0 -0.00000000000E+00 -0.00000000000E+00 -0.50394175569E+03  0.50394175571E+03  0.50400000000E-02 0. -1.
          2    1    1    2    0  502 -0.14554446914E+02  0.30783890580E+02 -0.30698099862E+03  0.30886374563E+03  0.25500000000E-02 0. -1.
         -2    1    1    2  502    0  0.14554446914E+02 -0.30783890580E+02 -0.19454060408E+03  0.19749816832E+03  0.25500000000E-02 0. -1.
<mgrwt>
<rscale>  0 0.69846044E+02</rscale>
<asrwt>0</asrwt>
<pdfrwt beam="1">  1        1 0.37233203E-03 0.69846044E+02</pdfrwt>
<pdfrwt beam="2">  1       -1 0.77529418E-01 0.69846044E+02</pdfrwt>
<totfact> 0.93458968E+04</totfact>
</mgrwt>
</event>
<event>
 4    1  0.3946801E-002  0.5544886E+02  0.7818608E-02  0.1417988E+00
         -1   -1    0    0  501    0 -0.00000000000E+00  0.00000000000E+00  0.25469113867E+01  0.25469163734E+01  0.50400000000E-02 0. -1.
          1   -1    0    0    0  501  0.00000000000E+00 -0.00000000000E+00 -0.30179427298E+03  0.30179427302E+03  0.50400000000E-02 0. -1.
          2    1    1    2    0  502  0.61555306094E+01  0.21216165192E+02 -0.57677550079E+02  0.61763387311E+02  0.25500000000E-02 0.  1.
         -2    1    1    2  502    0 -0.61555306094E+01 -0.21216165192E+02 -0.24156981151E+03  0.24257780208E+03  0.25500000000E-02 0.  1.
<mgrwt>
<rscale>  0 0.55448861E+02</rscale>
<asrwt>0</asrwt>
<pdfrwt beam="2">  1        1 0.46429860E-01 0.55448861E+02</pdfrwt>
<pdfrwt beam="1">  1       -1 0.39183315E-03 0.55448861E+02</pdfrwt>
<totfact> 0.46610467E+05</totfact>
</mgrwt>
</event>
<event>
 4    1  0.3946801E-002  0.5718081E+02  0.7818608E-02  0.1410058E+00
          1   -1    0    0    0  501  0.00000000000E+00  0.00000000000E+00  0.12215064903E+04  0.12215064903E+04  0.50400000000E-02 0. -1.
         -1   -1    0    0  501    0 -0.00000000000E+00 -0.00000000000E+00 -0.66917334942E+00  0.66919232899E+00  0.50400000000E-02 0. -1.
          2    1    1    2    0  502 -0.23494087529E+02 -0.37156565920E+01  0.94947126990E+03  0.94976916702E+03  0.25500000000E-02 0.  1.
         -2    1    1    2  502    0  0.23494087529E+02  0.37156565920E+01  0.27136604706E+03  0.27240651563E+03  0.25500000000E-02 0.  1.
<mgrwt>
<rscale>  0 0.57180808E+02</rscale>
<asrwt>0</asrwt>
<pdfrwt beam="1">  1        1 0.18792320E+00 0.57180808E+02</pdfrwt>
<pdfrwt beam="2">  1       -1 0.10295169E-03 0.57180808E+02</pdfrwt>
<totfact> 0.42146527E+05</totfact>
</mgrwt>
</event>
<event>
 4    1  0.3946801E-002  0.1063979E+03  0.7818608E-02  0.1267390E+00
          1   -1    0    0    0  501  0.00000000000E+00  0.00000000000E+00  0.73229930968E+01  0.73229948312E+01  0.50400000000E-02 0.  1.
         -1   -1    0    0  501    0 -0.00000000000E+00 -0.00000000000E+00 -0.38647162301E+03  0.38647162304E+03  0.50400000000E-02 0.  1.
          2    1    1    2    0  502 -0.21917511095E+02  0.24629729802E+02 -0.34410023428E+03  0.34567610870E+03  0.25500000000E-02 0. -1.
         -2    1    1    2  502    0  0.21917511095E+02 -0.24629729802E+02 -0.35048395627E+02  0.48118509175E+02  0.25500000000E-02 0. -1.
<mgrwt>
<rscale>  0 0.10639792E+03</rscale>
<asrwt>0</asrwt>
<pdfrwt beam="1">  1        1 0.11266148E-02 0.10639792E+03</pdfrwt>
<pdfrwt beam="2">  1       -1 0.59457157E-01 0.10639792E+03</pdfrwt>
<totfact> 0.36095474E+04</totfact>
</mgrwt>
</event>
<event>
 4    1  0.3946801E-002  0.4968238E+02  0.7818608E-02  0.1447062E+00
         -1   -1    0    0  501    0 -0.00000000000E+00  0.00000000000E+00  0.20392366535E+04  0.20392366535E+04  0.50400000000E-02 0. -1.
          1   -1    0    0    0  501  0.00000000000E+00 -0.00000000000E+00 -0.30258479365E+00  0.30262676508E+00  0.50400000000E-02 0. -1.
          2    1    1    2    0  502  0.71565576675E+01 -0.22007151078E+02  0.13901918998E+04  0.13903844969E+04  0.25500000000E-02 0.  1.
         -2    1    1    2  502    0 -0.71565576675E+01  0.22007151078E+02  0.64874216892E+03  0.64915478336E+03  0.25500000000E-02 0.  1.
<mgrwt>
<rscale>  0 0.49682384E+02</rscale>
<asrwt>0</asrwt>
<pdfrwt beam="2">  1        1 0.46552883E-04 0.49682384E+02</pdfrwt>
<pdfrwt beam="1">  1       -1 0.31374120E+00 0.49682384E+02</pdfrwt>
<totfact> 0.31527837E+04</totfact>
</mgrwt>
</event>
<event>
 4    1  0.3946801E-002  0.6845314E+02  0.7818608E-02  0.1365434E+00
         -1   -1    0    0  501    0 -0.00000000000E+00  0.00000000000E+00  0.52298845150E+01  0.52298869435E+01  0.50400000000E-02 0. -1.
          1   -1    0    0    0  501  0.00000000000E+00 -0.00000000000E+00 -0.22399305849E+03  0.22399305855E+03  0.50400000000E-02 0. -1.
          2    1    1    2    0  502 -0.24466122178E+02 -0.17832624735E+02 -0.55922768460E+02  0.63592056722E+02  0.25500000000E-02 0. -1.
         -2    1    1    2  502    0  0.24466122178E+02  0.17832624735E+02 -0.16284040552E+03  0.16563088877E+03  0.25500000000E-02 0. -1.
<mgrwt>
<rscale>  0 0.68453141E+02</rscale>
<asrwt>0</asrwt>
<pdfrwt beam="2">  1        1 0.34460463E-01 0.68453141E+02</pdfrwt>
<pdfrwt beam="1">  1       -1 0.80459798E-03 0.68453141E+02</pdfrwt>
<totfact> 0.25755401E+05</totfact>
</mgrwt>
</event>
<event>
 4    1  0.3946801E-002  0.6008926E+02  0.7818608E-02  0.1397458E+00
         -1   -1    0    0  501    0 -0.00000000000E+00  0.00000000000E+00  0.85860064424E+02  0.85860064572E+02  0.50400000000E-02 0. -1.
          1   -1    0    0    0  501  0.00000000000E+00 -0.00000000000E+00 -0.10513381549E+02  0.10513382757E+02  0.50400000000E-02 0. -1.
          2    1    1    2    0  502 -0.16802876795E+02  0.22259431007E+02  0.55594806694E+02  0.62198082568E+02  0.25500000000E-02 0. -1.
         -2    1    1    2  502    0  0.16802876795E+02 -0.22259431007E+02  0.19751876181E+02  0.34175364761E+02  0.25500000000E-02 0. -1.
<mgrwt>
<rscale>  0 0.60089256E+02</rscale>
<asrwt>0</asrwt>
<pdfrwt beam="2">  1        1 0.16174434E-02 0.60089256E+02</pdfrwt>
<pdfrwt beam="1">  1       -1 0.13209241E-01 0.60089256E+02</pdfrwt>
<totfact> 0.24123846E+05</totfact>
</mgrwt>
</event>
<event>
 4    1  0.3946801E-002  0.4519609E+02  0.7818608E-02  0.1473121E+00
         -1   -1    0    0  501    0 -0.00000000000E+00  0.00000000000E+00  0.18684887555E+03  0.18684887561E+03  0.50400000000E-02 0. -1.
          1   -1    0    0    0  501  0.00000000000E+00 -0.00000000000E+00 -0.27330704737E+01  0.27330751208E+01  0.50400000000E-02 0. -1.
          2    1    1    2    0  502 -0.19773113193E+02  0.10820002101E+02  0.85264201717E+02  0.88193154790E+02  0.25500000000E-02 0. -1.
         -2    1    1    2  502    0  0.19773113193E+02 -0.10820002101E+02  0.98851603356E+02  0.10138879595E+03  0.25500000000E-02 0. -1.
<mgrwt>
<rscale>  0 0.45196088E+02</rscale>
<asrwt>0</asrwt>
<pdfrwt beam="2">  1        1 0.42047282E-03 0.45196088E+02</pdfrwt>
<pdfrwt beam="1">  1       -1 0.28745976E-01 0.45196088E+02</pdfrwt>
<totfact> 0.41881803E+05</totfact>
</mgrwt>
</event>
<event>
 4    1  0.3946801E-002  0.4154400E+02  0.7818608E-02  0.1497147E+00
          1   -1    0    0    0  501  0.00000000000E+00  0.00000000000E+00  0.33685364746E+02  0.33685365123E+02  0.50400000000E-02 0. -1.
         -1   -1    0    0  501    0 -0.00000000000E+00 -0.00000000000E+00 -0.12809003224E+02  0.12809004215E+02  0.50400000000E-02 0. -1.
          2    1    1    2    0  502 -0.19092207036E+02  0.75625901324E+01  0.13936487014E+02  0.24817953497E+02  0.25500000000E-02 0.  1.
         -2    1    1    2  502    0  0.19092207036E+02 -0.75625901324E+01  0.69398745082E+01  0.21676415841E+02  0.25500000000E-02 0.  1.
<mgrwt>
<rscale>  0 0.41544000E+02</rscale>
<asrwt>0</asrwt>
<pdfrwt beam="1">  1        1 0.51823638E-02 0.41544000E+02</pdfrwt>
<pdfrwt beam="2">  1       -1 0.19706160E-02 0.41544000E+02</pdfrwt>
<totfact> 0.71954022E+05</totfact>
</mgrwt>
</event>
<event>
 4    1  0.3946801E-002  0.9695146E+02  0.7818608E-02  0.1286840E+00
          1   -1    0    0    0  501  0.00000000000E+00  0.00000000000E+00  0.10200788943E+03  0.10200788956E+03  0.50400000000E-02 0.  1.
         -1   -1    0    0  501    0 -0.00000000000E+00 -0.00000000000E+00 -0.23036415820E+02  0.23036416371E+02  0.50400000000E-02 0.  1.
          2    1    1    2    0  502 -0.32604959251E+02  0.33170877704E+02  0.21871832293E+02  0.51398127883E+02  0.25500000000E-02 0. -1.
         -2    1    1    2  502    0  0.32604959251E+02 -0.33170877704E+02  0.57099641319E+02  0.73646178045E+02  0.25500000000E-02 0. -1.
<mgrwt>
<rscale>  0 0.96951456E+02</rscale>
<asrwt>0</asrwt>
<pdfrwt beam="1">  1        1 0.15693522E-01 0.96951456E+02</pdfrwt>
<pdfrwt beam="2">  1       -1 0.35440640E-02 0.96951456E+02</pdfrwt>
<totfact> 0.88582268E+04</totfact>
</mgrwt>
</event>
<event>
 4    1  0.3946801E-002  0.4539277E+02  0.7818608E-02  0.1471904E+00
         -1   -1    0    0  501    0 -0.00000000000E+00  0.00000000000E+00  0.14933487831E+01  0.14933572880E+01  0.50400000000E-02 0. -1.
          1   -1    0    0    0  501  0.00000000000E+00 -0.00000000000E+00 -0.34494586964E+03  0.34494586968E+03  0.50400000000E-02 0. -1.
          2    1    1    2    0  502  0.14489410226E+02  0.16765451106E+02 -0.20919528280E+03  0.21036560962E+03  0.25500000000E-02 0. -1.
         -2    1    1    2  502    0 -0.14489410226E+02 -0.16765451106E+02 -0.13425723806E+03  0.13607361735E+03  0.25500000000E-02 0. -1.
<mgrwt>
<rscale>  0 0.45392774E+02</rscale>
<asrwt>0</asrwt>
<pdfrwt beam="2">  1        1 0.53068532E-01 0.45392774E+02</pdfrwt>
<pdfrwt beam="1">  1       -1 0.22974690E-03 0.45392774E+02</pdfrwt>
<totfact> 0.78525360E+05</totfact>
</mgrwt>
</event>
<event>
 4    1  0.3946801E-002  0.4452498E+02  0.7818608E-02  0.1477329E+00
         -1   -1    0    0  501    0 -0.00000000000E+00  0.00000000000E+00  0.60753678384E+00  0.60755768888E+00  0.50400000000E-02 0.  1.
          1   -1    0    0    0  501  0.00000000000E+00 -0.00000000000E+00 -0.81576936243E+03  0.81576936244E+03  0.50400000000E-02 0.  1.
          2    1    1    2    0  502 -0.13752749198E+02 -0.14942587843E+02 -0.24033825635E+03  0.24119472738E+03  0.25500000000E-02 0.  1.
         -2    1    1    2  502    0  0.13752749198E+02  0.14942587843E+02 -0.57482356929E+03  0.57518219276E+03  0.25500000000E-02 0.  1.
<mgrwt>
<rscale>  0 0.44524979E+02</rscale>
<asrwt>0</asrwt>
<pdfrwt beam="2">  1        1 0.12550210E+00 0.44524979E+02</pdfrwt>
<pdfrwt beam="1">  1       -1 0.93469459E-04 0.44524979E+02</pdfrwt>
<totfact> 0.87547064E+05</totfact>
</mgrwt>
</event>
<event>
 4    1  0.3946801E-002  0.6661798E+02  0.7818608E-02  0.1371987E+00
          1   -1    0    0    0  501  0.00000000000E+00  0.00000000000E+00  0.17870659523E+03  0.17870659530E+03  0.50400000000E-02 0. -1.
         -1   -1    0    0  501    0 -0.00000000000E+00 -0.00000000000E+00 -0.62084368004E+01  0.62084388461E+01  0.50400000000E-02 0. -1.
          2    1    1    2    0  502  0.14442653844E+02 -0.18807881441E+02  0.15117808967E+03  0.15302660376E+03  0.25500000000E-02 0. -1.
         -2    1    1    2  502    0 -0.14442653844E+02  0.18807881441E+02  0.21320068759E+02  0.31888430391E+02  0.25500000000E-02 0. -1.
<mgrwt>
<rscale>  0 0.66617979E+02</rscale>
<asrwt>0</asrwt>
<pdfrwt beam="1">  1        1 0.27493324E-01 0.66617979E+02</pdfrwt>
<pdfrwt beam="2">  1       -1 0.95514425E-03 0.66617979E+02</pdfrwt>
<totfact> 0.26526338E+05</totfact>
</mgrwt>
</event>
<event>
 4    1  0.3946801E-002  0.7760877E+02  0.7818608E-02  0.1335978E+00
          1   -1    0    0    0  501  0.00000000000E+00  0.00000000000E+00  0.24313980623E+03  0.24313980628E+03  0.50400000000E-02 0.  1.
         -1   -1    0    0  501    0 -0.00000000000E+00 -0.00000000000E+00 -0.61930621618E+01  0.61930642126E+01  0.50400000000E-02 0.  1.
          2    1    1    2    0  502  0.17144136982E+02  0.24287583170E+02  0.38350927911E+02  0.48524239378E+02  0.25500000000E-02 0. -1.
         -2    1    1    2  502    0 -0.17144136982E+02 -0.24287583170E+02  0.19859581616E+03  0.20080863112E+03  0.25500000000E-02 0. -1.
<mgrwt>
<rscale>  0 0.77608767E+02</rscale>
<asrwt>0</asrwt>
<pdfrwt beam="1">  1        1 0.37406117E-01 0.77608767E+02</pdfrwt>
<pdfrwt beam="2">  1       -1 0.95277914E-03 0.77608767E+02</pdfrwt>
<totfact> 0.18848507E+05</totfact>
</mgrwt>
</event>
<event>
 4    1  0.3946801E-002  0.4113107E+02  0.7818608E-02  0.1500049E+00
          1   -1    0    0    0  501  0.00000000000E+00  0.00000000000E+00  0.44264724450E+01  0.44264753142E+01  0.50400000000E-02 0.  1.
         -1   -1    0    0  501    0 -0.00000000000E+00 -0.00000000000E+00 -0.95548128607E+02  0.95548128740E+02  0.50400000000E-02 0.  1.
          2    1    1    2    0  502 -0.20182500769E+02  0.22356967279E+01 -0.53477992409E+02  0.57203385877E+02  0.25500000000E-02 0.  1.
         -2    1    1    2  502    0  0.20182500769E+02 -0.22356967279E+01 -0.37643663753E+02  0.42771218177E+02  0.25500000000E-02 0.  1.
<mgrwt>
<rscale>  0 0.41131074E+02</rscale>
<asrwt>0</asrwt>
<pdfrwt beam="1">  1        1 0.68099606E-03 0.41131074E+02</pdfrwt>
<pdfrwt beam="2">  1       -1 0.14699711E-01 0.41131074E+02</pdfrwt>
<totfact> 0.60488286E+05</totfact>
</mgrwt>
</event>
<event>
 4    1  0.3946801E-002  0.1373943E+03  0.7818608E-02  0.1216879E+00
         -1   -1    0    0  501    0 -0.00000000000E+00  0.00000000000E+00  0.13953872976E+02  0.13953873886E+02  0.50400000000E-02 0. -1.
          1   -1    0    0    0  501  0.00000000000E+00 -0.00000000000E+00 -0.33820708002E+03  0.33820708006E+03  0.50400000000E-02 0. -1.
          2    1    1    2    0  502 -0.29774715809E+02 -0.41022439955E+02 -0.43280739051E+02  0.66652806848E+02  0.25500000000E-02 0. -1.
         -2    1    1    2  502    0  0.29774715809E+02  0.41022439955E+02 -0.28097246800E+03  0.28550814710E+03  0.25500000000E-02 0. -1.
<mgrwt>
<rscale>  0 0.13739431E+03</rscale>
<asrwt>0</asrwt>
<pdfrwt beam="2">  1        1 0.52031852E-01 0.13739431E+03</pdfrwt>
<pdfrwt beam="1">  1       -1 0.21467500E-02 0.13739431E+03</pdfrwt>
<totfact> 0.42974924E+04</totfact>
</mgrwt>
</event>
<event>
 4    1  0.3946801E-002  0.5750328E+02  0.7818608E-02  0.1408618E+00
         -1   -1    0    0  501    0 -0.00000000000E+00  0.00000000000E+00  0.20151995187E+03  0.20151995194E+03  0.50400000000E-02 0.  1.
          1   -1    0    0    0  501  0.00000000000E+00 -0.00000000000E+00 -0.41021073072E+01  0.41021104034E+01  0.50400000000E-02 0.  1.
          2    1    1    2    0  502 -0.13056949165E+02 -0.17777395009E+02  0.16465729628E+03  0.16612809793E+03  0.25500000000E-02 0.  1.
         -2    1    1    2  502    0  0.13056949165E+02  0.17777395009E+02  0.32760548284E+02  0.39493964414E+02  0.25500000000E-02 0.  1.
<mgrwt>
<rscale>  0 0.57503280E+02</rscale>
<asrwt>0</asrwt>
<pdfrwt beam="2">  1        1 0.63109371E-03 0.57503280E+02</pdfrwt>
<pdfrwt beam="1">  1       -1 0.31003068E-01 0.57503280E+02</pdfrwt>
<totfact> 0.22565457E+05</totfact>
</mgrwt>
</event>
<event>
 4    1  0.3946801E-002  0.4937795E+02  0.7818608E-02  0.1448726E+00
          1   -1    0    0    0  501  0.00000000000E+00  0.00000000000E+00  0.72239542402E+02  0.72239542578E+02  0.50400000000E-02 0. -1.
         -1   -1    0    0  501    0 -0.00000000000E+00 -0.00000000000E+00 -0.84378374908E+01  0.84378389960E+01  0.50400000000E-02 0. -1.
          2    1    1    2    0  502 -0.43825011827E+01  0.22052875170E+02  0.48563966593E+02  0.53516301046E+02  0.25500000000E-02 0. -1.
         -2    1    1    2  502    0  0.43825011827E+01 -0.22052875170E+02  0.15237738319E+02  0.27161080529E+02  0.25500000000E-02 0. -1.
<mgrwt>
<rscale>  0 0.49377954E+02</rscale>
<asrwt>0</asrwt>
<pdfrwt beam="1">  1        1 0.11113776E-01 0.49377954E+02</pdfrwt>
<pdfrwt beam="2">  1       -1 0.12981290E-02 0.49377954E+02</pdfrwt>
<totfact> 0.50053950E+05</totfact>
</mgrwt>
</event>
<event>
 4    1  0.3946801E-002  0.9272513E+02  0.7818608E-02  0.1296383E+00
          1   -1    0    0    0  501  0.00000000000E+00  0.00000000000E+00  0.52761125993E+03  0.52761125996E+03  0.50400000000E-02 0.  1.
         -1   -1    0    0  501    0 -0.00000000000E+00 -0.00000000000E+00 -0.40739968321E+01  0.40739999496E+01  0.50400000000E-02 0.  1.
          2    1    1    2    0  502 -0.10777740409E+01  0.38536642602E+02  0.40944016478E+03  0.41125111910E+03  0.25500000000E-02 0.  1.
         -2    1    1    2  502    0  0.10777740409E+01 -0.38536642602E+02  0.11409709832E+03  0.12043414080E+03  0.25500000000E-02 0.  1.
<mgrwt>
<rscale>  0 0.92725130E+02</rscale>
<asrwt>0</asrwt>
<pdfrwt beam="1">  1        1 0.81170933E-01 0.92725130E+02</pdfrwt>
<pdfrwt beam="2">  1       -1 0.62676922E-03 0.92725130E+02</pdfrwt>
<totfact> 0.13397770E+05</totfact>
</mgrwt>
</event>
<event>
 4    1  0.3946801E-002  0.5176208E+02  0.7818608E-02  0.1436063E+00
          1   -1    0    0    0  501  0.00000000000E+00  0.00000000000E+00  0.74079947945E+01  0.74079965090E+01  0.50400000000E-02 0. -1.
         -1   -1    0    0  501    0 -0.00000000000E+00 -0.00000000000E+00 -0.90419641132E+02  0.90419641272E+02  0.50400000000E-02 0. -1.
          2    1    1    2    0  502 -0.39708033042E+01 -0.25446048750E+02 -0.36665327966E+02  0.44806416474E+02  0.25500000000E-02 0. -1.
         -2    1    1    2  502    0  0.39708033042E+01  0.25446048750E+02 -0.46346318372E+02  0.53021221308E+02  0.25500000000E-02 0. -1.
<mgrwt>
<rscale>  0 0.51762083E+02</rscale>
<asrwt>0</asrwt>
<pdfrwt beam="1">  1        1 0.11396917E-02 0.51762083E+02</pdfrwt>
<pdfrwt beam="2">  1       -1 0.13910713E-01 0.51762083E+02</pdfrwt>
<totfact> 0.34722207E+05</totfact>
</mgrwt>
</event>
<event>
 4    1  0.3946801E-002  0.5429058E+02  0.7818608E-02  0.1423484E+00
          1   -1    0    0    0  501  0.00000000000E+00  0.00000000000E+00  0.11060845078E+02  0.11060846226E+02  0.50400000000E-02 0.  1.
         -1   -1    0    0  501    0 -0.00000000000E+00 -0.00000000000E+00 -0.66619381837E+02  0.66619382028E+02  0.50400000000E-02 0.  1.
          2    1    1    2    0  502  0.25064323684E+02  0.48985451159E+01 -0.14614865830E+02  0.29424655915E+02  0.25500000000E-02 0.  1.
         -2    1    1    2  502    0 -0.25064323684E+02 -0.48985451159E+01 -0.40943670930E+02  0.48255572339E+02  0.25500000000E-02 0.  1.
<mgrwt>
<rscale>  0 0.54290578E+02</rscale>
<asrwt>0</asrwt>
<pdfrwt beam="1">  1        1 0.17016686E-02 0.54290578E+02</pdfrwt>
<pdfrwt beam="2">  1       -1 0.10249136E-01 0.54290578E+02</pdfrwt>
<totfact> 0.32216688E+05</totfact>
</mgrwt>
</event>
<event>
 4    1  0.3946801E-002  0.4179757E+02  0.7818608E-02  0.1495385E+00
         -1   -1    0    0  501    0 -0.00000000000E+00  0.00000000000E+00  0.47975681014E+00  0.47978328282E+00  0.50400000000E-02 0.  1.
          1   -1    0    0    0  501  0.00000000000E+00 -0.00000000000E+00 -0.91035122617E+03  0.91035122618E+03  0.50400000000E-02 0.  1.
          2    1    1    2    0  502 -0.19059111274E+02 -0.71772385175E+01 -0.55713936339E+03  0.55751146421E+03  0.25500000000E-02 0.  1.
         -2    1    1    2  502    0  0.19059111274E+02  0.71772385175E+01 -0.35273210597E+03  0.35331954526E+03  0.25500000000E-02 0.  1.
<mgrwt>
<rscale>  0 0.41797572E+02</rscale>
<asrwt>0</asrwt>
<pdfrwt beam="2">  1        1 0.14005265E+00 0.41797572E+02</pdfrwt>
<pdfrwt beam="1">  1       -1 0.73811506E-04 0.41797572E+02</pdfrwt>
<totfact> 0.10059601E+06</totfact>
</mgrwt>
</event>
<event>
 4    1  0.3946801E-002  0.9847536E+02  0.7818608E-02  0.1283535E+00
          1   -1    0    0    0  501  0.00000000000E+00  0.00000000000E+00  0.21636919763E+02  0.21636920350E+02  0.50400000000E-02 0.  1.
         -1   -1    0    0  501    0 -0.00000000000E+00 -0.00000000000E+00 -0.11204685974E+03  0.11204685985E+03  0.50400000000E-02 0.  1.
          2    1    1    2    0  502  0.28452176948E+02 -0.37164433062E+02 -0.65954732629E+02  0.80874892399E+02  0.25500000000E-02 0. -1.
         -2    1    1    2  502    0 -0.28452176948E+02  0.37164433062E+02 -0.24455207345E+02  0.52808887800E+02  0.25500000000E-02 0. -1.
<mgrwt>
<rscale>  0 0.98475357E+02</rscale>
<asrwt>0</asrwt>
<pdfrwt beam="1">  1        1 0.33287570E-02 0.98475357E+02</pdfrwt>
<pdfrwt beam="2">  1       -1 0.17237978E-01 0.98475357E+02</pdfrwt>
<totfact> 0.65237428E+04</totfact>
</mgrwt>
</event>
<event>
 4    1  0.3946801E-002  0.5319200E+02  0.7818608E-02  0.1428848E+00
         -1   -1    0    0  501    0 -0.00000000000E+00  0.00000000000E+00  0.52804146727E+00  0.52806551938E+00  0.50400000000E-02 0.  1.
          1   -1    0    0    0  501  0.00000000000E+00 -0.00000000000E+00 -0.13395368367E+04  0.13395368367E+04  0.50400000000E-02 0.  1.
          2    1    1    2    0  502 -0.24001214698E+02 -0.11061714106E+02 -0.59423138915E+03  0.59481876541E+03  0.25500000000E-02 0. -1.
         -2    1    1    2  502    0  0.24001214698E+02  0.11061714106E+02 -0.74477740606E+03  0.74524613680E+03  0.25500000000E-02 0. -1.
<mgrwt>
<rscale>  0 0.53191996E+02</rscale>
<asrwt>0</asrwt>
<pdfrwt beam="2">  1        1 0.20607987E+00 0.53191996E+02</pdfrwt>
<pdfrwt beam="1">  1       -1 0.81240072E-04 0.53191996E+02</pdfrwt>
<totfact> 0.48046544E+05</totfact>
</mgrwt>
</event>
<event>
 4    1  0.3946801E-002  0.7297080E+02  0.7818608E-02  0.1350272E+00
         -1   -1    0    0  501    0 -0.00000000000E+00  0.00000000000E+00  0.10316811061E+02  0.10316812292E+02  0.50400000000E-02 0. -1.
          1   -1    0    0    0  501  0.00000000000E+00 -0.00000000000E+00 -0.12903061530E+03  0.12903061540E+03  0.50400000000E-02 0. -1.
          2    1    1    2    0  502 -0.23482559746E+02 -0.10278810777E+02 -0.97762782725E+01  0.27434653025E+02  0.25500000000E-02 0.  1.
         -2    1    1    2  502    0  0.23482559746E+02  0.10278810777E+02 -0.10893752597E+03  0.11191277467E+03  0.25500000000E-02 0.  1.
<mgrwt>
<rscale>  0 0.72970804E+02</rscale>
<asrwt>0</asrwt>
<pdfrwt beam="2">  1        1 0.19850863E-01 0.72970804E+02</pdfrwt>
<pdfrwt beam="1">  1       -1 0.15872019E-02 0.72970804E+02</pdfrwt>
<totfact> 0.19778396E+05</totfact>
</mgrwt>
</event>
<event>
 4    1  0.3946801E-002  0.1759135E+03  0.7818608E-02  0.1171818E+00
          1   -1    0    0    0  501  0.00000000000E+00  0.00000000000E+00  0.17324427405E+03  0.17324427413E+03  0.50400000000E-02 0. -1.
         -1   -1    0    0  501    0 -0.00000000000E+00 -0.00000000000E+00 -0.44655948265E+02  0.44655948549E+02  0.50400000000E-02 0. -1.
          2    1    1    2    0  502  0.42267170658E+02  0.59383047609E+02  0.12527347682E+03  0.14493551690E+03  0.25500000000E-02 0. -1.
         -2    1    1    2  502    0 -0.42267170658E+02 -0.59383047609E+02  0.33148489724E+01  0.72964705776E+02  0.25500000000E-02 0. -1.
<mgrwt>
<rscale>  0 0.17591347E+03</rscale>
<asrwt>0</asrwt>
<pdfrwt beam="1">  1        1 0.26652966E-01 0.17591347E+03</pdfrwt>
<pdfrwt beam="2">  1       -1 0.68701458E-02 0.17591347E+03</pdfrwt>
<totfact> 0.18257154E+04</totfact>
</mgrwt>
</event>
<event>
 4    1  0.3946801E-002  0.4493685E+02  0.7818608E-02  0.1474736E+00
         -1   -1    0    0  501    0 -0.00000000000E+00  0.00000000000E+00  0.23865480860E+00  0.23870802096E+00  0.50400000000E-02 0.  1.
          1   -1    0    0    0  501  0.00000000000E+00 -0.00000000000E+00 -0.21150790380E+04  0.21150790380E+04  0.50400000000E-02 0.  1.
          2    1    1    2    0  502  0.19817780531E+02 -0.95834442652E+01 -0.84562652981E+03  0.84591300662E+03  0.25500000000E-02 0.  1.
         -2    1    1    2  502    0 -0.19817780531E+02  0.95834442652E+01 -0.12692138533E+04  0.12694047394E+04  0.25500000000E-02 0.  1.
<mgrwt>
<rscale>  0 0.44936848E+02</rscale>
<asrwt>0</asrwt>
<pdfrwt beam="2">  1        1 0.32538177E+00 0.44936848E+02</pdfrwt>
<pdfrwt beam="1">  1       -1 0.36721912E-04 0.44936848E+02</pdfrwt>
<totfact> 0.45062149E+05</totfact>
</mgrwt>
</event>
<event>
 4    1  0.3946801E-002  0.4984922E+02  0.7818608E-02  0.1446157E+00
         -1   -1    0    0  501    0 -0.00000000000E+00  0.00000000000E+00  0.24500669263E+01  0.24500721102E+01  0.50400000000E-02 0.  1.
          1   -1    0    0    0  501  0.00000000000E+00 -0.00000000000E+00 -0.25355859643E+03  0.25355859648E+03  0.50400000000E-02 0.  1.
          2    1    1    2    0  502 -0.25396127786E+01 -0.20341019489E+02 -0.19837015784E+03  0.19942649332E+03  0.25500000000E-02 0.  1.
         -2    1    1    2  502    0  0.25396127786E+01  0.20341019489E+02 -0.52738371663E+02  0.56582175277E+02  0.25500000000E-02 0.  1.
<mgrwt>
<rscale>  0 0.49849221E+02</rscale>
<asrwt>0</asrwt>
<pdfrwt beam="2">  1        1 0.39008995E-01 0.49849221E+02</pdfrwt>
<pdfrwt beam="1">  1       -1 0.37693398E-03 0.49849221E+02</pdfrwt>
<totfact> 0.59035850E+05</totfact>
</mgrwt>
</event>
<event>
 4    1  0.3946801E-002  0.4240598E+02  0.7818608E-02  0.1491217E+00
          1   -1    0    0    0  501  0.00000000000E+00  0.00000000000E+00  0.36659162360E+01  0.36659197005E+01  0.50400000000E-02 0. -1.
         -1   -1    0    0  501    0 -0.00000000000E+00 -0.00000000000E+00 -0.12263416697E+03  0.12263416707E+03  0.50400000000E-02 0. -1.
          2    1    1    2    0  502  0.74959534915E-01  0.21189295285E+02 -0.61742475100E+02  0.65277293844E+02  0.25500000000E-02 0. -1.
         -2    1    1    2  502    0 -0.74959534915E-01 -0.21189295285E+02 -0.57225775633E+02  0.61022792929E+02  0.25500000000E-02 0. -1.
<mgrwt>
<rscale>  0 0.42405981E+02</rscale>
<asrwt>0</asrwt>
<pdfrwt beam="1">  1        1 0.56398748E-03 0.42405981E+02</pdfrwt>
<pdfrwt beam="2">  1       -1 0.18866792E-01 0.42405981E+02</pdfrwt>
<totfact> 0.53781200E+05</totfact>
</mgrwt>
</event>
<event>
 4    1  0.3946801E-002  0.6212837E+02  0.7818608E-02  0.1389111E+00
          1   -1    0    0    0  501  0.00000000000E+00  0.00000000000E+00  0.23858554643E+01  0.23858607876E+01  0.50400000000E-02 0. -1.
         -1   -1    0    0  501    0 -0.00000000000E+00 -0.00000000000E+00 -0.40445968466E+03  0.40445968469E+03  0.50400000000E-02 0. -1.
          2    1    1    2    0  502  0.23459657480E+02 -0.20334994485E+02 -0.19411935975E+03  0.19658635092E+03  0.25500000000E-02 0. -1.
         -2    1    1    2  502    0 -0.23459657480E+02  0.20334994485E+02 -0.20795446944E+03  0.21025919456E+03  0.25500000000E-02 0. -1.
<mgrwt>
<rscale>  0 0.62128365E+02</rscale>
<asrwt>0</asrwt>
<pdfrwt beam="1">  1        1 0.36705542E-03 0.62128365E+02</pdfrwt>
<pdfrwt beam="2">  1       -1 0.62224513E-01 0.62128365E+02</pdfrwt>
<totfact> 0.14250864E+05</totfact>
</mgrwt>
</event>
<event>
 4    1  0.3946801E-002  0.5049633E+02  0.7818608E-02  0.1442683E+00
         -1   -1    0    0  501    0 -0.00000000000E+00  0.00000000000E+00  0.10777041168E+01  0.10777159017E+01  0.50400000000E-02 0.  1.
          1   -1    0    0    0  501  0.00000000000E+00 -0.00000000000E+00 -0.59150412529E+03  0.59150412531E+03  0.50400000000E-02 0.  1.
          2    1    1    2    0  502  0.20236133421E+02 -0.11901884526E+02 -0.40423895026E+03  0.40492009689E+03  0.25500000000E-02 0. -1.
         -2    1    1    2  502    0 -0.20236133421E+02  0.11901884526E+02 -0.18618747092E+03  0.18766174433E+03  0.25500000000E-02 0. -1.
<mgrwt>
<rscale>  0 0.50496334E+02</rscale>
<asrwt>0</asrwt>
<pdfrwt beam="2">  1        1 0.91000376E-01 0.50496334E+02</pdfrwt>
<pdfrwt beam="1">  1       -1 0.16580201E-03 0.50496334E+02</pdfrwt>
<totfact> 0.64488380E+05</totfact>
</mgrwt>
</event>
<event>
 4    1  0.3946801E-002  0.1165697E+03  0.7818608E-02  0.1248866E+00
          1   -1    0    0    0  501  0.00000000000E+00  0.00000000000E+00  0.15143489236E+03  0.15143489244E+03  0.50400000000E-02 0.  1.
         -1   -1    0    0  501    0 -0.00000000000E+00 -0.00000000000E+00 -0.22432902479E+02  0.22432903045E+02  0.50400000000E-02 0.  1.
          2    1    1    2    0  502  0.17895115589E+02 -0.19348661641E+02  0.14203956070E+03  0.14446398402E+03  0.25500000000E-02 0. -1.
         -2    1    1    2  502    0 -0.17895115589E+02  0.19348661641E+02 -0.13037570821E+02  0.29403811464E+02  0.25500000000E-02 0. -1.
<mgrwt>
<rscale>  0 0.11656971E+03</rscale>
<asrwt>0</asrwt>
<pdfrwt beam="1">  1        1 0.23297676E-01 0.11656971E+03</pdfrwt>
<pdfrwt beam="2">  1       -1 0.34512157E-02 0.11656971E+03</pdfrwt>
<totfact> 0.57313572E+04</totfact>
</mgrwt>
</event>
<event>
 4    1  0.3946801E-002  0.4643374E+02  0.7818608E-02  0.1465585E+00
          1   -1    0    0    0  501  0.00000000000E+00  0.00000000000E+00  0.15834607759E+04  0.15834607759E+04  0.50400000000E-02 0.  1.
         -1   -1    0    0  501    0 -0.00000000000E+00 -0.00000000000E+00 -0.34038955118E+00  0.34042686168E+00  0.50400000000E-02 0.  1.
          2    1    1    2    0  502  0.25023784622E+01  0.22879666353E+02  0.68764280649E+03  0.68802788487E+03  0.25500000000E-02 0. -1.
         -2    1    1    2  502    0 -0.25023784622E+01 -0.22879666353E+02  0.89547757981E+03  0.89577331785E+03  0.25500000000E-02 0. -1.
<mgrwt>
<rscale>  0 0.46433740E+02</rscale>
<asrwt>0</asrwt>
<pdfrwt beam="1">  1        1 0.24360909E+00 0.46433740E+02</pdfrwt>
<pdfrwt beam="2">  1       -1 0.52370549E-04 0.46433740E+02</pdfrwt>
<totfact> 0.59449206E+05</totfact>
</mgrwt>
</event>
<event>
 4    1  0.3946801E-002  0.6360421E+02  0.7818608E-02  0.1383300E+00
         -1   -1    0    0  501    0 -0.00000000000E+00  0.00000000000E+00  0.45519852685E+01  0.45519880587E+01  0.50400000000E-02 0. -1.
          1   -1    0    0    0  501  0.00000000000E+00 -0.00000000000E+00 -0.22218296056E+03  0.22218296061E+03  0.50400000000E-02 0. -1.
          2    1    1    2    0  502  0.26676287081E+02 -0.99892119601E+01 -0.15922469268E+03  0.16175262414E+03  0.25500000000E-02 0. -1.
         -2    1    1    2  502    0 -0.26676287081E+02  0.99892119601E+01 -0.58406282603E+02  0.64982324535E+02  0.25500000000E-02 0. -1.
<mgrwt>
<rscale>  0 0.63604210E+02</rscale>
<asrwt>0</asrwt>
<pdfrwt beam="2">  1        1 0.34181986E-01 0.63604210E+02</pdfrwt>
<pdfrwt beam="1">  1       -1 0.70030582E-03 0.63604210E+02</pdfrwt>
<totfact> 0.31091556E+05</totfact>
</mgrwt>
</event>
<event>
 4    1  0.3946801E-002  0.4342312E+02  0.7818608E-02  0.1484433E+00
          1   -1    0    0    0  501  0.00000000000E+00  0.00000000000E+00  0.91802004394E+00  0.91803387883E+00  0.50400000000E-02 0. -1.
         -1   -1    0    0  501    0 -0.00000000000E+00 -0.00000000000E+00 -0.51348364562E+03  0.51348364564E+03  0.50400000000E-02 0. -1.
          2    1    1    2    0  502 -0.50536032177E+01  0.20438825059E+02 -0.31908740394E+03  0.31978126248E+03  0.25500000000E-02 0.  1.
         -2    1    1    2  502    0  0.50536032177E+01 -0.20438825059E+02 -0.19347822164E+03  0.19462041704E+03  0.25500000000E-02 0.  1.
<mgrwt>
<rscale>  0 0.43423120E+02</rscale>
<asrwt>0</asrwt>
<pdfrwt beam="1">  1        1 0.14123533E-03 0.43423120E+02</pdfrwt>
<pdfrwt beam="2">  1       -1 0.78997255E-01 0.43423120E+02</pdfrwt>
<totfact> 0.30340287E+05</totfact>
</mgrwt>
</event>
<event>
 4    1  0.3946801E-002  0.4067852E+02  0.7818608E-02  0.1503277E+00
          1   -1    0    0    0  501  0.00000000000E+00  0.00000000000E+00  0.76994856659E+03  0.76994856660E+03  0.50400000000E-02 0.  1.
         -1   -1    0    0  501    0 -0.00000000000E+00 -0.00000000000E+00 -0.53727803709E+00  0.53730167572E+00  0.50400000000E-02 0.  1.
          2    1    1    2    0  502  0.19190718543E+02 -0.67379968470E+01  0.38538363523E+03  0.38591997952E+03  0.25500000000E-02 0. -1.
         -2    1    1    2  502    0 -0.19190718543E+02  0.67379968470E+01  0.38402765332E+03  0.38456588876E+03  0.25500000000E-02 0. -1.
<mgrwt>
<rscale>  0 0.40678523E+02</rscale>
<asrwt>0</asrwt>
<pdfrwt beam="1">  1        1 0.11845450E+00 0.40678523E+02</pdfrwt>
<pdfrwt beam="2">  1       -1 0.82659370E-04 0.40678523E+02</pdfrwt>
<totfact> 0.10959639E+06</totfact>
</mgrwt>
</event>
<event>
 4    1  0.3946801E-002  0.6595719E+02  0.7818608E-02  0.1374407E+00
          1   -1    0    0    0  501  0.00000000000E+00  0.00000000000E+00  0.97657051232E+03  0.97657051233E+03  0.50400000000E-02 0.  1.
         -1   -1    0    0  501    0 -0.00000000000E+00 -0.00000000000E+00 -0.11136751499E+01  0.11136865542E+01  0.50400000000E-02 0.  1.
          2    1    1    2    0  502  0.18709652469E+02  0.18285696028E+02  0.78536107664E+03  0.78579669030E+03  0.25500000000E-02 0.  1.
         -2    1    1    2  502    0 -0.18709652469E+02 -0.18285696028E+02  0.19009576053E+03  0.19188750859E+03  0.25500000000E-02 0.  1.
<mgrwt>
<rscale>  0 0.65957195E+02</rscale>
<asrwt>0</asrwt>
<pdfrwt beam="1">  1        1 0.15024181E+00 0.65957195E+02</pdfrwt>
<pdfrwt beam="2">  1       -1 0.17133530E-03 0.65957195E+02</pdfrwt>
<totfact> 0.31769873E+05</totfact>
</mgrwt>
</event>
<event>
 4    1  0.3946801E-002  0.7929276E+02  0.7818608E-02  0.1331071E+00
         -1   -1    0    0  501    0 -0.00000000000E+00  0.00000000000E+00  0.13653911877E+02  0.13653912807E+02  0.50400000000E-02 0. -1.
          1   -1    0    0    0  501  0.00000000000E+00 -0.00000000000E+00 -0.11511977918E+03  0.11511977930E+03  0.50400000000E-02 0. -1.
          2    1    1    2    0  502 -0.23291378514E+02  0.26783814358E+02 -0.79417815776E+02  0.86988795220E+02  0.25500000000E-02 0.  1.
         -2    1    1    2  502    0  0.23291378514E+02 -0.26783814358E+02 -0.22048051532E+02  0.41784896883E+02  0.25500000000E-02 0.  1.
<mgrwt>
<rscale>  0 0.79292758E+02</rscale>
<asrwt>0</asrwt>
<pdfrwt beam="2">  1        1 0.17710735E-01 0.79292758E+02</pdfrwt>
<pdfrwt beam="1">  1       -1 0.21006020E-02 0.79292758E+02</pdfrwt>
<totfact> 0.15575179E+05</totfact>
</mgrwt>
</event>
<event>
 4    1  0.3946801E-002  0.1093545E+03  0.7818608E-02  0.1261770E+00
         -1   -1    0    0  501    0 -0.00000000000E+00  0.00000000000E+00  0.26792560524E+01  0.26792607928E+01  0.50400000000E-02 0. -1.
          1   -1    0    0    0  501  0.00000000000E+00 -0.00000000000E+00 -0.11158308140E+04  0.11158308140E+04  0.50400000000E-02 0. -1.
          2    1    1    2    0  502 -0.17077725247E+02  0.51808841003E+02 -0.51858703395E+03  0.52144828746E+03  0.25500000000E-02 0.  1.
         -2    1    1    2  502    0  0.17077725247E+02 -0.51808841003E+02 -0.59456452398E+03  0.59706178733E+03  0.25500000000E-02 0.  1.
<mgrwt>
<rscale>  0 0.10935445E+03</rscale>
<asrwt>0</asrwt>
<pdfrwt beam="2">  1        1 0.17166591E+00 0.10935445E+03</pdfrwt>
<pdfrwt beam="1">  1       -1 0.41219449E-03 0.10935445E+03</pdfrwt>
<totfact> 0.80857335E+04</totfact>
</mgrwt>
</event>
<event>
 4    1  0.3946801E-002  0.7360681E+02  0.7818608E-02  0.1348240E+00
         -1   -1    0    0  501    0 -0.00000000000E+00  0.00000000000E+00  0.14816130133E+02  0.14816130990E+02  0.50400000000E-02 0.  1.
          1   -1    0    0    0  501  0.00000000000E+00 -0.00000000000E+00 -0.91419987106E+02  0.91419987245E+02  0.50400000000E-02 0.  1.
          2    1    1    2    0  502 -0.77487066859E+01 -0.29810338867E+02 -0.67375996819E+02  0.74082546612E+02  0.25500000000E-02 0.  1.
         -2    1    1    2  502    0  0.77487066859E+01  0.29810338867E+02 -0.92278601542E+01  0.32153571624E+02  0.25500000000E-02 0.  1.
<mgrwt>
<rscale>  0 0.73606806E+02</rscale>
<asrwt>0</asrwt>
<pdfrwt beam="2">  1        1 0.14064613E-01 0.73606806E+02</pdfrwt>
<pdfrwt beam="1">  1       -1 0.22794048E-02 0.73606806E+02</pdfrwt>
<totfact> 0.18321019E+05</totfact>
</mgrwt>
</event>
<event>
 4    1  0.3946801E-002  0.6442707E+02  0.7818608E-02  0.1380140E+00
          1   -1    0    0    0  501  0.00000000000E+00  0.00000000000E+00  0.49871805166E+01  0.49871830633E+01  0.50400000000E-02 0. -1.
         -1   -1    0    0  501    0 -0.00000000000E+00 -0.00000000000E+00 -0.20807579104E+03  0.20807579111E+03  0.50400000000E-02 0. -1.
          2    1    1    2    0  502  0.15869982712E+02 -0.19413683109E+02 -0.34666449443E+02  0.42784461743E+02  0.25500000000E-02 0.  1.
         -2    1    1    2  502    0 -0.15869982712E+02  0.19413683109E+02 -0.16842216109E+03  0.17027851243E+03  0.25500000000E-02 0.  1.
<mgrwt>
<rscale>  0 0.64427069E+02</rscale>
<asrwt>0</asrwt>
<pdfrwt beam="1">  1        1 0.76725891E-03 0.64427069E+02</pdfrwt>
<pdfrwt beam="2">  1       -1 0.32011654E-01 0.64427069E+02</pdfrwt>
<totfact> 0.16779782E+05</totfact>
</mgrwt>
</event>
<event>
 4    1  0.3946801E-002  0.5377676E+02  0.7818608E-02  0.1425974E+00
         -1   -1    0    0  501    0 -0.00000000000E+00  0.00000000000E+00  0.65754372799E+02  0.65754372992E+02  0.50400000000E-02 0. -1.
          1   -1    0    0    0  501  0.00000000000E+00 -0.00000000000E+00 -0.10995237308E+02  0.10995238463E+02  0.50400000000E-02 0. -1.
          2    1    1    2    0  502  0.11932619417E+02  0.19796413423E+02  0.77745596242E+01  0.24387069821E+02  0.25500000000E-02 0.  1.
         -2    1    1    2  502    0 -0.11932619417E+02 -0.19796413423E+02  0.46984575866E+02  0.52362541635E+02  0.25500000000E-02 0.  1.
<mgrwt>
<rscale>  0 0.53776760E+02</rscale>
<asrwt>0</asrwt>
<pdfrwt beam="2">  1        1 0.16915750E-02 0.53776760E+02</pdfrwt>
<pdfrwt beam="1">  1       -1 0.10116058E-01 0.53776760E+02</pdfrwt>
<totfact> 0.33042563E+05</totfact>
</mgrwt>
</event>
<event>
 4    1  0.3946801E-002  0.4013217E+02  0.7818608E-02  0.1507241E+00
         -1   -1    0    0  501    0 -0.00000000000E+00  0.00000000000E+00  0.51022390718E+00  0.51024879918E+00  0.50400000000E-02 0. -1.
          1   -1    0    0    0  501  0.00000000000E+00 -0.00000000000E+00 -0.78913955205E+03  0.78913955207E+03  0.50400000000E-02 0. -1.
          2    1    1    2    0  502 -0.31590698507E+01 -0.19758917948E+02 -0.36477977810E+03  0.36532818270E+03  0.25500000000E-02 0.  1.
         -2    1    1    2  502    0  0.31590698507E+01  0.19758917948E+02 -0.42384955005E+03  0.42432161817E+03  0.25500000000E-02 0.  1.
<mgrwt>
<rscale>  0 0.40132167E+02</rscale>
<asrwt>0</asrwt>
<pdfrwt beam="2">  1        1 0.12140511E+00 0.40132167E+02</pdfrwt>
<pdfrwt beam="1">  1       -1 0.78498533E-04 0.40132167E+02</pdfrwt>
<totfact> 0.11304096E+06</totfact>
</mgrwt>
</event>
<event>
 4    1  0.3946801E-002  0.1633859E+03  0.7818608E-02  0.1184926E+00
         -1   -1    0    0  501    0 -0.00000000000E+00  0.00000000000E+00  0.54562032543E+01  0.54562055821E+01  0.50400000000E-02 0.  1.
          1   -1    0    0    0  501  0.00000000000E+00 -0.00000000000E+00 -0.12231472340E+04  0.12231472340E+04  0.50400000000E-02 0.  1.
          2    1    1    2    0  502 -0.11602143065E+02 -0.24298077100E+02 -0.11888206302E+04  0.11891255178E+04  0.25500000000E-02 0. -1.
         -2    1    1    2  502    0  0.11602143065E+02  0.24298077100E+02 -0.28870400505E+02  0.39477921757E+02  0.25500000000E-02 0. -1.
<mgrwt>
<rscale>  0 0.16338594E+03</rscale>
<asrwt>0</asrwt>
<pdfrwt beam="2">  1        1 0.18817628E+00 0.16338594E+03</pdfrwt>
<pdfrwt beam="1">  1       -1 0.83941704E-03 0.16338594E+03</pdfrwt>
<totfact> 0.25869942E+04</totfact>
</mgrwt>
</event>
<event>
 4    1  0.3946801E-002  0.4150049E+02  0.7818608E-02  0.1497451E+00
         -1   -1    0    0  501    0 -0.00000000000E+00  0.00000000000E+00  0.55879041469E+03  0.55879041471E+03  0.50400000000E-02 0. -1.
          1   -1    0    0    0  501  0.00000000000E+00 -0.00000000000E+00 -0.77053568178E+00  0.77055216468E+00  0.50400000000E-02 0. -1.
          2    1    1    2    0  502 -0.93326868772E+01  0.18192632515E+02  0.23133635876E+03  0.23223820059E+03  0.25500000000E-02 0. -1.
         -2    1    1    2  502    0  0.93326868772E+01 -0.18192632515E+02  0.32668352024E+03  0.32732276628E+03  0.25500000000E-02 0. -1.
<mgrwt>
<rscale>  0 0.41500485E+02</rscale>
<asrwt>0</asrwt>
<pdfrwt beam="2">  1        1 0.11854489E-03 0.41500485E+02</pdfrwt>
<pdfrwt beam="1">  1       -1 0.85967996E-01 0.41500485E+02</pdfrwt>
<totfact> 0.32039992E+05</totfact>
</mgrwt>
</event>
<event>
 4    1  0.3946801E-002  0.5101527E+02  0.7818608E-02  0.1439941E+00
         -1   -1    0    0  501    0 -0.00000000000E+00  0.00000000000E+00  0.31787166266E+03  0.31787166270E+03  0.50400000000E-02 0. -1.
          1   -1    0    0    0  501  0.00000000000E+00 -0.00000000000E+00 -0.20468592453E+01  0.20468654504E+01  0.50400000000E-02 0. -1.
          2    1    1    2    0  502  0.21655108747E+02  0.10639284385E+02  0.20981498912E+03  0.21119769832E+03  0.25500000000E-02 0.  1.
         -2    1    1    2  502    0 -0.21655108747E+02 -0.10639284385E+02  0.10600981429E+03  0.10872082983E+03  0.25500000000E-02 0.  1.
<mgrwt>
<rscale>  0 0.51015274E+02</rscale>
<asrwt>0</asrwt>
<pdfrwt beam="2">  1        1 0.31490226E-03 0.51015274E+02</pdfrwt>
<pdfrwt beam="1">  1       -1 0.48903278E-01 0.51015274E+02</pdfrwt>
<totfact> 0.26077021E+05</totfact>
</mgrwt>
</event>
<event>
 4    1  0.3946801E-002  0.4986518E+02  0.7818608E-02  0.1446070E+00
          1   -1    0    0    0  501  0.00000000000E+00  0.00000000000E+00  0.24431877771E+03  0.24431877776E+03  0.50400000000E-02 0.  1.
         -1   -1    0    0  501    0 -0.00000000000E+00 -0.00000000000E+00 -0.25443536318E+01  0.25443586236E+01  0.50400000000E-02 0.  1.
          2    1    1    2    0  502  0.16045682006E+02  0.14247010676E+02  0.18374102617E+03  0.18498974547E+03  0.25500000000E-02 0. -1.
         -2    1    1    2  502    0 -0.16045682006E+02 -0.14247010676E+02  0.58033397908E+02  0.61873390916E+02  0.25500000000E-02 0. -1.
<mgrwt>
<rscale>  0 0.49865178E+02</rscale>
<asrwt>0</asrwt>
<pdfrwt beam="1">  1        1 0.37587519E-01 0.49865178E+02</pdfrwt>
<pdfrwt beam="2">  1       -1 0.39143926E-03 0.49865178E+02</pdfrwt>
<totfact> 0.58604144E+05</totfact>
</mgrwt>
</event>
<event>
 4    1  0.3946801E-002  0.6904108E+02  0.7818608E-02  0.1363385E+00
          1   -1    0    0    0  501  0.00000000000E+00  0.00000000000E+00  0.67978763724E+03  0.67978763726E+03  0.50400000000E-02 0. -1.
         -1   -1    0    0  501    0 -0.00000000000E+00 -0.00000000000E+00 -0.17529963750E+01  0.17530036202E+01  0.50400000000E-02 0. -1.
          2    1    1    2    0  502 -0.15773072110E+02  0.30661793167E+02  0.35533482789E+03  0.35700388693E+03  0.25500000000E-02 0. -1.
         -2    1    1    2  502    0  0.15773072110E+02 -0.30661793167E+02  0.32269981298E+03  0.32453675395E+03  0.25500000000E-02 0. -1.
<mgrwt>
<rscale>  0 0.69041082E+02</rscale>
<asrwt>0</asrwt>
<pdfrwt beam="1">  1        1 0.10458263E+00 0.69041082E+02</pdfrwt>
<pdfrwt beam="2">  1       -1 0.26969251E-03 0.69041082E+02</pdfrwt>
<totfact> 0.29370953E+05</totfact>
</mgrwt>
</event>
<event>
 4    1  0.3946801E-002  0.4356981E+02  0.7818608E-02  0.1483473E+00
          1   -1    0    0    0  501  0.00000000000E+00  0.00000000000E+00  0.48813632407E+03  0.48813632409E+03  0.50400000000E-02 0.  1.
         -1   -1    0    0  501    0 -0.00000000000E+00 -0.00000000000E+00 -0.97222608682E+00  0.97223915036E+00  0.50400000000E-02 0.  1.
          2    1    1    2    0  502 -0.76692153642E+01 -0.20384980966E+02  0.23834365460E+03  0.23933671263E+03  0.25500000000E-02 0.  1.
         -2    1    1    2  502    0  0.76692153642E+01  0.20384980966E+02  0.24882044338E+03  0.24977185062E+03  0.25500000000E-02 0.  1.
<mgrwt>
<rscale>  0 0.43569809E+02</rscale>
<asrwt>0</asrwt>
<pdfrwt beam="1">  1        1 0.75097948E-01 0.43569809E+02</pdfrwt>
<pdfrwt beam="2">  1       -1 0.14957415E-03 0.43569809E+02</pdfrwt>
<totfact> 0.91217353E+05</totfact>
</mgrwt>
</event>
<event>
 4    1  0.3946801E-002  0.6123905E+02  0.7818608E-02  0.1392704E+00
         -1   -1    0    0  501    0 -0.00000000000E+00  0.00000000000E+00  0.14914355644E+04  0.14914355644E+04  0.50400000000E-02 0.  1.
          1   -1    0    0    0  501  0.00000000000E+00 -0.00000000000E+00 -0.62861600683E+00  0.62863621089E+00  0.50400000000E-02 0.  1.
          2    1    1    2    0  502 -0.28547076852E+02  0.10710294140E+02  0.67688158979E+03  0.67756795423E+03  0.25500000000E-02 0. -1.
         -2    1    1    2  502    0  0.28547076852E+02 -0.10710294140E+02  0.81392535861E+03  0.81449624640E+03  0.25500000000E-02 0. -1.
<mgrwt>
<rscale>  0 0.61239051E+02</rscale>
<asrwt>0</asrwt>
<pdfrwt beam="2">  1        1 0.96713517E-04 0.61239051E+02</pdfrwt>
<pdfrwt beam="1">  1       -1 0.22944734E+00 0.61239051E+02</pdfrwt>
<totfact> 0.39126265E+04</totfact>
</mgrwt>
</event>
<event>
 4    1  0.3946801E-002  0.9291924E+02  0.7818608E-02  0.1295932E+00
          1   -1    0    0    0  501  0.00000000000E+00  0.00000000000E+00  0.86689311590E+02  0.86689311736E+02  0.50400000000E-02 0. -1.
         -1   -1    0    0  501    0 -0.00000000000E+00 -0.00000000000E+00 -0.24899219906E+02  0.24899220416E+02  0.50400000000E-02 0. -1.
          2    1    1    2    0  502 -0.31123011929E+02  0.11291178240E+02 -0.82476313676E+01  0.34119730469E+02  0.25500000000E-02 0. -1.
         -2    1    1    2  502    0  0.31123011929E+02 -0.11291178240E+02  0.70037723051E+02  0.77468801684E+02  0.25500000000E-02 0. -1.
<mgrwt>
<rscale>  0 0.92919240E+02</rscale>
<asrwt>0</asrwt>
<pdfrwt beam="1">  1        1 0.13336817E-01 0.92919240E+02</pdfrwt>
<pdfrwt beam="2">  1       -1 0.38306493E-02 0.92919240E+02</pdfrwt>
<totfact> 0.96876353E+04</totfact>
</mgrwt>
</event>
<event>
 4    1  0.3946801E-002  0.5102490E+02  0.7818608E-02  0.1439891E+00
         -1   -1    0    0  501    0 -0.00000000000E+00  0.00000000000E+00  0.32274888411E+02  0.32274888805E+02  0.50400000000E-02 0.  1.
          1   -1    0    0    0  501  0.00000000000E+00 -0.00000000000E+00 -0.20166918429E+02  0.20166919059E+02  0.50400000000E-02 0.  1.
          2    1    1    2    0  502  0.14345461862E+02 -0.18647904976E+02 -0.40865290858E+01  0.23879622327E+02  0.25500000000E-02 0. -1.
         -2    1    1    2  502    0 -0.14345461862E+02  0.18647904976E+02  0.16194499068E+02  0.28562185536E+02  0.25500000000E-02 0. -1.
<mgrwt>
<rscale>  0 0.51024899E+02</rscale>
<asrwt>0</asrwt>
<pdfrwt beam="2">  1        1 0.31026030E-02 0.51024899E+02</pdfrwt>
<pdfrwt beam="1">  1       -1 0.49653674E-02 0.51024899E+02</pdfrwt>
<totfact> 0.40662767E+05</totfact>
</mgrwt>
</event>
<event>
 4    1  0.3946801E-002  0.7108548E+02  0.7818608E-02  0.1356440E+00
          1   -1    0    0    0  501  0.00000000000E+00  0.00000000000E+00  0.15674988833E+03  0.15674988841E+03  0.50400000000E-02 0. -1.
         -1   -1    0    0  501    0 -0.00000000000E+00 -0.00000000000E+00 -0.80592471693E+01  0.80592487452E+01  0.50400000000E-02 0. -1.
          2    1    1    2    0  502 -0.20558477024E+01  0.34860401039E+02  0.89691409454E+02  0.96249794840E+02  0.25500000000E-02 0. -1.
         -2    1    1    2  502    0  0.20558477024E+01 -0.34860401039E+02  0.58999231709E+02  0.68559342318E+02  0.25500000000E-02 0. -1.
<mgrwt>
<rscale>  0 0.71085476E+02</rscale>
<asrwt>0</asrwt>
<pdfrwt beam="1">  1        1 0.24115367E-01 0.71085476E+02</pdfrwt>
<pdfrwt beam="2">  1       -1 0.12398843E-02 0.71085476E+02</pdfrwt>
<totfact> 0.21892940E+05</totfact>
</mgrwt>
</event>
<event>
 4    1  0.3946801E-002  0.4059621E+02  0.7818608E-02  0.1503869E+00
          1   -1    0    0    0  501  0.00000000000E+00  0.00000000000E+00  0.19040082680E+02  0.19040083347E+02  0.50400000000E-02 0. -1.
         -1   -1    0    0  501    0 -0.00000000000E+00 -0.00000000000E+00 -0.21639242148E+02  0.21639242735E+02  0.50400000000E-02 0. -1.
          2    1    1    2    0  502 -0.38569699839E+01 -0.19918711874E+02 -0.68051347125E+00  0.20300108503E+02  0.25500000000E-02 0. -1.
         -2    1    1    2  502    0  0.38569699839E+01  0.19918711874E+02 -0.19186459963E+01  0.20379217579E+02  0.25500000000E-02 0. -1.
<mgrwt>
<rscale>  0 0.40596206E+02</rscale>
<asrwt>0</asrwt>
<pdfrwt beam="1">  1        1 0.29292436E-02 0.40596206E+02</pdfrwt>
<pdfrwt beam="2">  1       -1 0.33291143E-02 0.40596206E+02</pdfrwt>
<totfact> 0.73027464E+05</totfact>
</mgrwt>
</event>
<event>
 4    1  0.3946801E-002  0.4414439E+02  0.7818608E-02  0.1479755E+00
         -1   -1    0    0  501    0 -0.00000000000E+00  0.00000000000E+00  0.79624404991E+01  0.79624420942E+01  0.50400000000E-02 0.  1.
          1   -1    0    0    0  501  0.00000000000E+00 -0.00000000000E+00 -0.61184975265E+02  0.61184975472E+02  0.50400000000E-02 0.  1.
          2    1    1    2    0  502  0.10305015348E+02  0.18794140253E+02 -0.34865533547E+02  0.40926989692E+02  0.25500000000E-02 0.  1.
         -2    1    1    2  502    0 -0.10305015348E+02 -0.18794140253E+02 -0.18357001218E+02  0.28220427875E+02  0.25500000000E-02 0.  1.
<mgrwt>
<rscale>  0 0.44144390E+02</rscale>
<asrwt>0</asrwt>
<pdfrwt beam="2">  1        1 0.94130729E-02 0.44144390E+02</pdfrwt>
<pdfrwt beam="1">  1       -1 0.12249910E-02 0.44144390E+02</pdfrwt>
<totfact> 0.65181311E+05</totfact>
</mgrwt>
</event>
<event>
 4    1  0.3946801E-002  0.5767014E+02  0.7818608E-02  0.1407878E+00
          1   -1    0    0    0  501  0.00000000000E+00  0.00000000000E+00  0.37900086967E+03  0.37900086971E+03  0.50400000000E-02 0.  1.
         -1   -1    0    0  501    0 -0.00000000000E+00 -0.00000000000E+00 -0.21938212382E+01  0.21938270276E+01  0.50400000000E-02 0.  1.
          2    1    1    2    0  502  0.18917413521E+02 -0.15585148983E+02  0.88007678865E+02  0.91357084831E+02  0.25500000000E-02 0. -1.
         -2    1    1    2  502    0 -0.18917413521E+02  0.15585148983E+02  0.28879936957E+03  0.28983761190E+03  0.25500000000E-02 0. -1.
<mgrwt>
<rscale>  0 0.57670140E+02</rscale>
<asrwt>0</asrwt>
<pdfrwt beam="1">  1        1 0.58307782E-01 0.57670140E+02</pdfrwt>
<pdfrwt beam="2">  1       -1 0.33751167E-03 0.57670140E+02</pdfrwt>
<totfact> 0.43862934E+05</totfact>
</mgrwt>
</event>
<event>
 4    1  0.3946801E-002  0.1301040E+03  0.7818608E-02  0.1227302E+00
         -1   -1    0    0  501    0 -0.00000000000E+00  0.00000000000E+00  0.10016053148E+04  0.10016053148E+04  0.50400000000E-02 0. -1.
          1   -1    0    0    0  501  0.00000000000E+00 -0.00000000000E+00 -0.42249767035E+01  0.42249797096E+01  0.50400000000E-02 0. -1.
          2    1    1    2    0  502  0.88594861445E+01 -0.63726216715E+02  0.57293949241E+03  0.57654070382E+03  0.25500000000E-02 0.  1.
         -2    1    1    2  502    0 -0.88594861445E+01  0.63726216715E+02  0.42444084566E+03  0.42928959067E+03  0.25500000000E-02 0.  1.
<mgrwt>
<rscale>  0 0.13010397E+03</rscale>
<asrwt>0</asrwt>
<pdfrwt beam="2">  1        1 0.64999594E-03 0.13010397E+03</pdfrwt>
<pdfrwt beam="1">  1       -1 0.15409329E+00 0.13010397E+03</pdfrwt>
<totfact> 0.99108158E+03</totfact>
</mgrwt>
</event>
<event>
 4    1  0.3946801E-002  0.7538688E+02  0.7818608E-02  0.1342677E+00
         -1   -1    0    0  501    0 -0.00000000000E+00  0.00000000000E+00  0.44899001647E+02  0.44899001930E+02  0.50400000000E-02 0. -1.
          1   -1    0    0    0  501  0.00000000000E+00 -0.00000000000E+00 -0.31644255619E+02  0.31644256021E+02  0.50400000000E-02 0. -1.
          2    1    1    2    0  502 -0.16683428253E+02  0.29098720591E+02 -0.10833013294E+02  0.35248070895E+02  0.25500000000E-02 0.  1.
         -2    1    1    2  502    0  0.16683428253E+02 -0.29098720591E+02  0.24087759321E+02  0.41295187055E+02  0.25500000000E-02 0.  1.
<mgrwt>
<rscale>  0 0.75386882E+02</rscale>
<asrwt>0</asrwt>
<pdfrwt beam="2">  1        1 0.48683471E-02 0.75386882E+02</pdfrwt>
<pdfrwt beam="1">  1       -1 0.69075388E-02 0.75386882E+02</pdfrwt>
<totfact> 0.14922536E+05</totfact>
</mgrwt>
</event>
<event>
 4    1  0.3946801E-002  0.6905193E+02  0.7818608E-02  0.1363347E+00
         -1   -1    0    0  501    0 -0.00000000000E+00  0.00000000000E+00  0.34726166366E+01  0.34726202941E+01  0.50400000000E-02 0. -1.
          1   -1    0    0    0  501  0.00000000000E+00 -0.00000000000E+00 -0.34326896141E+03  0.34326896145E+03  0.50400000000E-02 0. -1.
          2    1    1    2    0  502 -0.26862153529E+02 -0.80051643043E+01 -0.27112567631E+03  0.27257070699E+03  0.25500000000E-02 0.  1.
         -2    1    1    2  502    0  0.26862153529E+02  0.80051643043E+01 -0.68670668468E+02  0.74170874756E+02  0.25500000000E-02 0.  1.
<mgrwt>
<rscale>  0 0.69051927E+02</rscale>
<asrwt>0</asrwt>
<pdfrwt beam="2">  1        1 0.52810583E-01 0.69051927E+02</pdfrwt>
<pdfrwt beam="1">  1       -1 0.53424927E-03 0.69051927E+02</pdfrwt>
<totfact> 0.27222500E+05</totfact>
</mgrwt>
</event>
<event>
 4    1  0.3946801E-002  0.5430760E+02  0.7818608E-02  0.1423402E+00
         -1   -1    0    0  501    0 -0.00000000000E+00  0.00000000000E+00  0.18214792414E+01  0.18214862142E+01  0.50400000000E-02 0. -1.
          1   -1    0    0    0  501  0.00000000000E+00 -0.00000000000E+00 -0.40479596114E+03  0.40479596117E+03  0.50400000000E-02 0. -1.
          2    1    1    2    0  502  0.26105554808E+02  0.24057526562E+01 -0.25445228540E+03  0.25579924391E+03  0.25500000000E-02 0. -1.
         -2    1    1    2  502    0 -0.26105554808E+02 -0.24057526562E+01 -0.14852219650E+03  0.15081820347E+03  0.25500000000E-02 0. -1.
<mgrwt>
<rscale>  0 0.54307600E+02</rscale>
<asrwt>0</asrwt>
<pdfrwt beam="2">  1        1 0.62276231E-01 0.54307600E+02</pdfrwt>
<pdfrwt beam="1">  1       -1 0.28022844E-03 0.54307600E+02</pdfrwt>
<totfact> 0.51562047E+05</totfact>
</mgrwt>
</event>
<event>
 4    1  0.3946801E-002  0.4709379E+02  0.7818608E-02  0.1461678E+00
          1   -1    0    0    0  501  0.00000000000E+00  0.00000000000E+00  0.72263149064E+01  0.72263166640E+01  0.50400000000E-02 0.  1.
         -1   -1    0    0  501    0 -0.00000000000E+00 -0.00000000000E+00 -0.76727373842E+02  0.76727374008E+02  0.50400000000E-02 0.  1.
          2    1    1    2    0  502 -0.22260528673E+02 -0.66632582484E+01 -0.41544920787E+02  0.47601581875E+02  0.25500000000E-02 0. -1.
         -2    1    1    2  502    0  0.22260528673E+02  0.66632582484E+01 -0.27956138149E+02  0.36352108797E+02  0.25500000000E-02 0. -1.
<mgrwt>
<rscale>  0 0.47093789E+02</rscale>
<asrwt>0</asrwt>
<pdfrwt beam="1">  1        1 0.11117410E-02 0.47093789E+02</pdfrwt>
<pdfrwt beam="2">  1       -1 0.11804211E-01 0.47093789E+02</pdfrwt>
<totfact> 0.44907346E+05</totfact>
</mgrwt>
</event>
<event>
 4    1  0.3946801E-002  0.6369541E+02  0.7818608E-02  0.1382947E+00
          1   -1    0    0    0  501  0.00000000000E+00  0.00000000000E+00  0.52908729629E+01  0.52908753634E+01  0.50400000000E-02 0.  1.
         -1   -1    0    0  501    0 -0.00000000000E+00 -0.00000000000E+00 -0.19170298596E+03  0.19170298602E+03  0.50400000000E-02 0.  1.
          2    1    1    2    0  502  0.21795443949E+02  0.17606815152E+02 -0.46380271693E+02  0.54186445958E+02  0.25500000000E-02 0. -1.
         -2    1    1    2  502    0 -0.21795443949E+02 -0.17606815152E+02 -0.14003184130E+03  0.14280741543E+03  0.25500000000E-02 0. -1.
<mgrwt>
<rscale>  0 0.63695412E+02</rscale>
<asrwt>0</asrwt>
<pdfrwt beam="1">  1        1 0.81398079E-03 0.63695412E+02</pdfrwt>
<pdfrwt beam="2">  1       -1 0.29492762E-01 0.63695412E+02</pdfrwt>
<totfact> 0.17673004E+05</totfact>
</mgrwt>
</event>
<event>
 4    1  0.3946801E-002  0.5126719E+02  0.7818608E-02  0.1438624E+00
          1   -1    0    0    0  501  0.00000000000E+00  0.00000000000E+00  0.30347495319E+00  0.30351680154E+00  0.50400000000E-02 0. -1.
         -1   -1    0    0  501    0 -0.00000000000E+00 -0.00000000000E+00 -0.21650416956E+04  0.21650416956E+04  0.50400000000E-02 0. -1.
          2    1    1    2    0  502 -0.23931561584E+02 -0.80001274074E+01 -0.12729466751E+04  0.12731967481E+04  0.25500000000E-02 0. -1.
         -2    1    1    2  502    0  0.23931561584E+02  0.80001274074E+01 -0.89179154554E+03  0.89214846432E+03  0.25500000000E-02 0. -1.
<mgrwt>
<rscale>  0 0.51267192E+02</rscale>
<asrwt>0</asrwt>
<pdfrwt beam="1">  1        1 0.46693408E-04 0.51267192E+02</pdfrwt>
<pdfrwt beam="2">  1       -1 0.33307097E+00 0.51267192E+02</pdfrwt>
<totfact> 0.24143186E+04</totfact>
</mgrwt>
</event>
<event>
 4    1  0.3946801E-002  0.7340511E+02  0.7818608E-02  0.1348882E+00
          1   -1    0    0    0  501  0.00000000000E+00  0.00000000000E+00  0.11969981845E+02  0.11969982906E+02  0.50400000000E-02 0.  1.
         -1   -1    0    0  501    0 -0.00000000000E+00 -0.00000000000E+00 -0.11253797895E+03  0.11253797906E+03  0.50400000000E-02 0.  1.
          2    1    1    2    0  502 -0.79315957682E+01 -0.24920241922E+02 -0.66046288722E+01  0.26973131036E+02  0.25500000000E-02 0. -1.
         -2    1    1    2  502    0  0.79315957682E+01  0.24920241922E+02 -0.93963368233E+02  0.97534830932E+02  0.25500000000E-02 0. -1.
<mgrwt>
<rscale>  0 0.73405113E+02</rscale>
<asrwt>0</asrwt>
<pdfrwt beam="1">  1        1 0.18415358E-02 0.73405113E+02</pdfrwt>
<pdfrwt beam="2">  1       -1 0.17313535E-01 0.73405113E+02</pdfrwt>
<totfact> 0.13880969E+05</totfact>
</mgrwt>
</event>
<event>
 4    1  0.3946801E-002  0.8851897E+02  0.7818608E-02  0.1306478E+00
          1   -1    0    0    0  501  0.00000000000E+00  0.00000000000E+00  0.21757498056E+03  0.21757498062E+03  0.50400000000E-02 0.  1.
         -1   -1    0    0  501    0 -0.00000000000E+00 -0.00000000000E+00 -0.90033412280E+01  0.90033426386E+01  0.50400000000E-02 0.  1.
          2    1    1    2    0  502  0.38926036071E+02 -0.87659485062E+00  0.15815414873E+03  0.16287645462E+03  0.25500000000E-02 0.  1.
         -2    1    1    2  502    0 -0.38926036071E+02  0.87659485062E+00  0.50417490606E+02  0.63701868640E+02  0.25500000000E-02 0.  1.
<mgrwt>
<rscale>  0 0.88518969E+02</rscale>
<asrwt>0</asrwt>
<pdfrwt beam="1">  1        1 0.33473071E-01 0.88518969E+02</pdfrwt>
<pdfrwt beam="2">  1       -1 0.13851296E-02 0.88518969E+02</pdfrwt>
<totfact> 0.13026284E+05</totfact>
</mgrwt>
</event>
<event>
 4    1  0.3946801E-002  0.4254582E+02  0.7818608E-02  0.1490271E+00
          1   -1    0    0    0  501  0.00000000000E+00  0.00000000000E+00  0.38418366844E+01  0.38418399903E+01  0.50400000000E-02 0.  1.
         -1   -1    0    0  501    0 -0.00000000000E+00 -0.00000000000E+00 -0.11779168893E+03  0.11779168904E+03  0.50400000000E-02 0.  1.
          2    1    1    2    0  502  0.36049007525E+01 -0.20207780245E+02 -0.72940437246E+02  0.75773722912E+02  0.25500000000E-02 0. -1.
         -2    1    1    2  502    0 -0.36049007525E+01  0.20207780245E+02 -0.41009415003E+02  0.45859806119E+02  0.25500000000E-02 0. -1.
<mgrwt>
<rscale>  0 0.42545817E+02</rscale>
<asrwt>0</asrwt>
<pdfrwt beam="1">  1        1 0.59105215E-03 0.42545817E+02</pdfrwt>
<pdfrwt beam="2">  1       -1 0.18121796E-01 0.42545817E+02</pdfrwt>
<totfact> 0.53756913E+05</totfact>
</mgrwt>
</event>
<event>
 4    1  0.3946801E-002  0.8463548E+02  0.7818608E-02  0.1316389E+00
          1   -1    0    0    0  501  0.00000000000E+00  0.00000000000E+00  0.25921242553E+01  0.25921291550E+01  0.50400000000E-02 0. -1.
         -1   -1    0    0  501    0 -0.00000000000E+00 -0.00000000000E+00 -0.69085781640E+03  0.69085781642E+03  0.50400000000E-02 0. -1.
          2    1    1    2    0  502  0.25178242965E+02 -0.29494571412E+02 -0.20534831315E+03  0.20897799736E+03  0.25500000000E-02 0. -1.
         -2    1    1    2  502    0 -0.25178242965E+02  0.29494571412E+02 -0.48291737900E+03  0.48447194821E+03  0.25500000000E-02 0. -1.
<mgrwt>
<rscale>  0 0.84635477E+02</rscale>
<asrwt>0</asrwt>
<pdfrwt beam="1">  1        1 0.39878927E-03 0.84635477E+02</pdfrwt>
<pdfrwt beam="2">  1       -1 0.10628567E+00 0.84635477E+02</pdfrwt>
<totfact> 0.45275482E+04</totfact>
</mgrwt>
</event>
<event>
 4    1  0.3946801E-002  0.4111802E+02  0.7818608E-02  0.1500142E+00
         -1   -1    0    0  501    0 -0.00000000000E+00  0.00000000000E+00  0.21399509191E+03  0.21399509197E+03  0.50400000000E-02 0.  1.
          1   -1    0    0    0  501  0.00000000000E+00 -0.00000000000E+00 -0.19751491994E+01  0.19751556297E+01  0.50400000000E-02 0.  1.
          2    1    1    2    0  502 -0.17503097739E+02  0.10746606956E+02  0.11078056210E+03  0.11266845582E+03  0.25500000000E-02 0.  1.
         -2    1    1    2  502    0  0.17503097739E+02 -0.10746606956E+02  0.10123938061E+03  0.10330179178E+03  0.25500000000E-02 0.  1.
<mgrwt>
<rscale>  0 0.41118022E+02</rscale>
<asrwt>0</asrwt>
<pdfrwt beam="2">  1        1 0.30386959E-03 0.41118022E+02</pdfrwt>
<pdfrwt beam="1">  1       -1 0.32922325E-01 0.41118022E+02</pdfrwt>
<totfact> 0.50793267E+05</totfact>
</mgrwt>
</event>
<event>
 4    1  0.3946801E-002  0.4696580E+02  0.7818608E-02  0.1462430E+00
         -1   -1    0    0  501    0 -0.00000000000E+00  0.00000000000E+00  0.23847747795E+03  0.23847747800E+03  0.50400000000E-02 0.  1.
          1   -1    0    0    0  501  0.00000000000E+00 -0.00000000000E+00 -0.23123602540E+01  0.23123657466E+01  0.50400000000E-02 0.  1.
          2    1    1    2    0  502 -0.21097130290E+02  0.85093267973E+01  0.14795492817E+03  0.14969354804E+03  0.25500000000E-02 0.  1.
         -2    1    1    2  502    0  0.21097130290E+02 -0.85093267973E+01  0.88210189528E+02  0.91096295710E+02  0.25500000000E-02 0.  1.
<mgrwt>
<rscale>  0 0.46965796E+02</rscale>
<asrwt>0</asrwt>
<pdfrwt beam="2">  1        1 0.35574834E-03 0.46965796E+02</pdfrwt>
<pdfrwt beam="1">  1       -1 0.36688825E-01 0.46965796E+02</pdfrwt>
<totfact> 0.35504794E+05</totfact>
</mgrwt>
</event>
<event>
 4    1  0.3946801E-002  0.5897449E+02  0.7818608E-02  0.1402186E+00
          1   -1    0    0    0  501  0.00000000000E+00  0.00000000000E+00  0.82082515204E+03  0.82082515205E+03  0.50400000000E-02 0. -1.
         -1   -1    0    0  501    0 -0.00000000000E+00 -0.00000000000E+00 -0.10592908156E+01  0.10593028055E+01  0.50400000000E-02 0. -1.
          2    1    1    2    0  502 -0.37342325545E+01  0.23612334708E+02  0.16930128897E+03  0.17098073955E+03  0.25500000000E-02 0.  1.
         -2    1    1    2  502    0  0.37342325545E+01 -0.23612334708E+02  0.65046457225E+03  0.65090371531E+03  0.25500000000E-02 0.  1.
<mgrwt>
<rscale>  0 0.58974485E+02</rscale>
<asrwt>0</asrwt>
<pdfrwt beam="1">  1        1 0.12628063E+00 0.58974485E+02</pdfrwt>
<pdfrwt beam="2">  1       -1 0.16296895E-03 0.58974485E+02</pdfrwt>
<totfact> 0.43495338E+05</totfact>
</mgrwt>
</event>
<event>
 4    1  0.3946801E-002  0.5339610E+02  0.7818608E-02  0.1427840E+00
         -1   -1    0    0  501    0 -0.00000000000E+00  0.00000000000E+00  0.12377069368E+01  0.12377171983E+01  0.50400000000E-02 0.  1.
          1   -1    0    0    0  501  0.00000000000E+00 -0.00000000000E+00 -0.57588982933E+03  0.57588982935E+03  0.50400000000E-02 0.  1.
          2    1    1    2    0  502  0.21345493318E+02  0.13297180832E+02 -0.19044696510E+03  0.19210021246E+03  0.25500000000E-02 0. -1.
         -2    1    1    2  502    0 -0.21345493318E+02 -0.13297180832E+02 -0.38420515729E+03  0.38502733409E+03  0.25500000000E-02 0. -1.
<mgrwt>
<rscale>  0 0.53396097E+02</rscale>
<asrwt>0</asrwt>
<pdfrwt beam="2">  1        1 0.88598222E-01 0.53396097E+02</pdfrwt>
<pdfrwt beam="1">  1       -1 0.19041770E-03 0.53396097E+02</pdfrwt>
<totfact> 0.56016036E+05</totfact>
</mgrwt>
</event>
<event>
 4    1  0.3946801E-002  0.4165566E+02  0.7818608E-02  0.1496369E+00
          1   -1    0    0    0  501  0.00000000000E+00  0.00000000000E+00  0.44824814896E+02  0.44824815180E+02  0.50400000000E-02 0. -1.
         -1   -1    0    0  501    0 -0.00000000000E+00 -0.00000000000E+00 -0.96776392471E+01  0.96776405595E+01  0.50400000000E-02 0. -1.
          2    1    1    2    0  502  0.36708840029E+01 -0.20354365387E+02  0.14362568369E+02  0.25180527324E+02  0.25500000000E-02 0.  1.
         -2    1    1    2  502    0 -0.36708840029E+01  0.20354365387E+02  0.20784607280E+02  0.29321928415E+02  0.25500000000E-02 0.  1.
<mgrwt>
<rscale>  0 0.41655657E+02</rscale>
<asrwt>0</asrwt>
<pdfrwt beam="1">  1        1 0.68961255E-02 0.41655657E+02</pdfrwt>
<pdfrwt beam="2">  1       -1 0.14888677E-02 0.41655657E+02</pdfrwt>
<totfact> 0.73176725E+05</totfact>
</mgrwt>
</event>
<event>
 4    1  0.3946801E-002  0.6306722E+02  0.7818608E-02  0.1385393E+00
          1   -1    0    0    0  501  0.00000000000E+00  0.00000000000E+00  0.25866358496E+01  0.25866407598E+01  0.50400000000E-02 0.  1.
         -1   -1    0    0  501    0 -0.00000000000E+00 -0.00000000000E+00 -0.38442506885E+03  0.38442506888E+03  0.50400000000E-02 0.  1.
          2    1    1    2    0  502  0.17555347820E+02 -0.24400384906E+02 -0.24939315648E+03  0.25119815988E+03  0.25500000000E-02 0. -1.
         -2    1    1    2  502    0 -0.17555347820E+02  0.24400384906E+02 -0.13244527652E+03  0.13581354977E+03  0.25500000000E-02 0. -1.
<mgrwt>
<rscale>  0 0.63067222E+02</rscale>
<asrwt>0</asrwt>
<pdfrwt beam="1">  1        1 0.39794466E-03 0.63067222E+02</pdfrwt>
<pdfrwt beam="2">  1       -1 0.59142273E-01 0.63067222E+02</pdfrwt>
<totfact> 0.14068777E+05</totfact>
</mgrwt>
</event>
<event>
 4    1  0.3946801E-002  0.4899546E+02  0.7818608E-02  0.1450836E+00
         -1   -1    0    0  501    0 -0.00000000000E+00  0.00000000000E+00  0.18986280955E+01  0.18986347849E+01  0.50400000000E-02 0.  1.
          1   -1    0    0    0  501  0.00000000000E+00 -0.00000000000E+00 -0.31609019918E+03  0.31609019922E+03  0.50400000000E-02 0.  1.
          2    1    1    2    0  502 -0.18255128607E+02 -0.10879827244E+02 -0.23619027060E+03  0.23714439545E+03  0.25500000000E-02 0. -1.
         -2    1    1    2  502    0  0.18255128607E+02  0.10879827244E+02 -0.78001300480E+02  0.80844438549E+02  0.25500000000E-02 0. -1.
<mgrwt>
<rscale>  0 0.48995461E+02</rscale>
<asrwt>0</asrwt>
<pdfrwt beam="2">  1        1 0.48629220E-01 0.48995461E+02</pdfrwt>
<pdfrwt beam="1">  1       -1 0.29209740E-03 0.48995461E+02</pdfrwt>
<totfact> 0.64063169E+05</totfact>
</mgrwt>
</event>
<event>
 4    1  0.3946801E-002  0.4508450E+02  0.7818608E-02  0.1473815E+00
          1   -1    0    0    0  501  0.00000000000E+00  0.00000000000E+00  0.52461804228E+02  0.52461804470E+02  0.50400000000E-02 0.  1.
         -1   -1    0    0  501    0 -0.00000000000E+00 -0.00000000000E+00 -0.96861498336E+01  0.96861511449E+01  0.50400000000E-02 0.  1.
          2    1    1    2    0  502 -0.11910136037E+01 -0.21099508513E+02  0.32202082015E+02  0.38517293071E+02  0.25500000000E-02 0. -1.
         -2    1    1    2  502    0  0.11910136037E+01  0.21099508513E+02  0.10573572379E+02  0.23630662544E+02  0.25500000000E-02 0. -1.
<mgrwt>
<rscale>  0 0.45084496E+02</rscale>
<asrwt>0</asrwt>
<pdfrwt beam="1">  1        1 0.80710471E-02 0.45084496E+02</pdfrwt>
<pdfrwt beam="2">  1       -1 0.14901770E-02 0.45084496E+02</pdfrwt>
<totfact> 0.60890936E+05</totfact>
</mgrwt>
</event>
<event>
 4    1  0.3946801E-002  0.9345728E+02  0.7818608E-02  0.1294689E+00
          1   -1    0    0    0  501  0.00000000000E+00  0.00000000000E+00  0.21957582611E+01  0.21957640453E+01  0.50400000000E-02 0. -1.
         -1   -1    0    0  501    0 -0.00000000000E+00 -0.00000000000E+00 -0.99444585704E+03  0.99444585705E+03  0.50400000000E-02 0. -1.
          2    1    1    2    0  502  0.36238735584E+02 -0.29324031328E+02 -0.53055027605E+03  0.53259434863E+03  0.25500000000E-02 0.  1.
         -2    1    1    2  502    0 -0.36238735584E+02  0.29324031328E+02 -0.46169982272E+03  0.46404727246E+03  0.25500000000E-02 0.  1.
<mgrwt>
<rscale>  0 0.93457276E+02</rscale>
<asrwt>0</asrwt>
<pdfrwt beam="1">  1        1 0.33781020E-03 0.93457276E+02</pdfrwt>
<pdfrwt beam="2">  1       -1 0.15299131E+00 0.93457276E+02</pdfrwt>
<totfact> 0.24192835E+04</totfact>
</mgrwt>
</event>
<event>
 4    1  0.3946801E-002  0.5830962E+02  0.7818608E-02  0.1405066E+00
         -1   -1    0    0  501    0 -0.00000000000E+00  0.00000000000E+00  0.59180402043E+03  0.59180402045E+03  0.50400000000E-02 0.  1.
          1   -1    0    0    0  501  0.00000000000E+00 -0.00000000000E+00 -0.14362866700E+01  0.14362955127E+01  0.50400000000E-02 0.  1.
          2    1    1    2    0  502 -0.64431650485E+01  0.19698481413E+02  0.50380194303E+03  0.50422806581E+03  0.25500000000E-02 0. -1.
         -2    1    1    2  502    0  0.64431650485E+01 -0.19698481413E+02  0.86565790729E+02  0.89012250150E+02  0.25500000000E-02 0. -1.
<mgrwt>
<rscale>  0 0.58309617E+02</rscale>
<asrwt>0</asrwt>
<pdfrwt beam="2">  1        1 0.22096807E-03 0.58309617E+02</pdfrwt>
<pdfrwt beam="1">  1       -1 0.91046688E-01 0.58309617E+02</pdfrwt>
<totfact> 0.13282040E+05</totfact>
</mgrwt>
</event>
<event>
 4    1  0.3946801E-002  0.4201173E+02  0.7818608E-02  0.1493908E+00
         -1   -1    0    0  501    0 -0.00000000000E+00  0.00000000000E+00  0.18534691131E+01  0.18534759655E+01  0.50400000000E-02 0.  1.
          1   -1    0    0    0  501  0.00000000000E+00 -0.00000000000E+00 -0.23806472359E+03  0.23806472364E+03  0.50400000000E-02 0.  1.
          2    1    1    2    0  502 -0.16326439683E+02 -0.13072177328E+02 -0.10695580442E+03  0.10898155146E+03  0.25500000000E-02 0.  1.
         -2    1    1    2  502    0  0.16326439683E+02  0.13072177328E+02 -0.12925545006E+03  0.13093664815E+03  0.25500000000E-02 0.  1.
<mgrwt>
<rscale>  0 0.42011734E+02</rscale>
<asrwt>0</asrwt>
<pdfrwt beam="2">  1        1 0.36625318E-01 0.42011734E+02</pdfrwt>
<pdfrwt beam="1">  1       -1 0.28514981E-03 0.42011734E+02</pdfrwt>
<totfact> 0.89118276E+05</totfact>
</mgrwt>
</event>
<event>
 4    1  0.3946801E-002  0.5841847E+02  0.7818608E-02  0.1404591E+00
          1   -1    0    0    0  501  0.00000000000E+00  0.00000000000E+00  0.26959341153E+03  0.26959341158E+03  0.50400000000E-02 0.  1.
         -1   -1    0    0  501    0 -0.00000000000E+00 -0.00000000000E+00 -0.31646873838E+01  0.31646913970E+01  0.50400000000E-02 0.  1.
          2    1    1    2    0  502 -0.14341568523E+02 -0.21206258363E+02  0.19887928137E+03  0.20052020982E+03  0.25500000000E-02 0. -1.
         -2    1    1    2  502    0  0.14341568523E+02  0.21206258363E+02  0.67549442774E+02  0.72237893152E+02  0.25500000000E-02 0. -1.
<mgrwt>
<rscale>  0 0.58418470E+02</rscale>
<asrwt>0</asrwt>
<pdfrwt beam="1">  1        1 0.41475907E-01 0.58418470E+02</pdfrwt>
<pdfrwt beam="2">  1       -1 0.48687533E-03 0.58418470E+02</pdfrwt>
<totfact> 0.40023370E+05</totfact>
</mgrwt>
</event>
<event>
 4    1  0.3946801E-002  0.4543621E+02  0.7818608E-02  0.1471637E+00
          1   -1    0    0    0  501  0.00000000000E+00  0.00000000000E+00  0.50369699912E+01  0.50369725127E+01  0.50400000000E-02 0.  1.
         -1   -1    0    0  501    0 -0.00000000000E+00 -0.00000000000E+00 -0.10246478393E+03  0.10246478405E+03  0.50400000000E-02 0.  1.
          2    1    1    2    0  502  0.10154507295E+02 -0.20222833129E+02 -0.43961157429E+02  0.49443506825E+02  0.25500000000E-02 0. -1.
         -2    1    1    2  502    0 -0.10154507295E+02  0.20222833129E+02 -0.53466656510E+02  0.58058249742E+02  0.25500000000E-02 0. -1.
<mgrwt>
<rscale>  0 0.45436205E+02</rscale>
<asrwt>0</asrwt>
<pdfrwt beam="1">  1        1 0.77491874E-03 0.45436205E+02</pdfrwt>
<pdfrwt beam="2">  1       -1 0.15763812E-01 0.45436205E+02</pdfrwt>
<totfact> 0.46917453E+05</totfact>
</mgrwt>
</event>
<event>
 4    1  0.3946801E-002  0.5488030E+02  0.7818608E-02  0.1420666E+00
         -1   -1    0    0  501    0 -0.00000000000E+00  0.00000000000E+00  0.19097309847E+04  0.19097309847E+04  0.50400000000E-02 0.  1.
          1   -1    0    0    0  501  0.00000000000E+00 -0.00000000000E+00 -0.39426022199E+00  0.39429243493E+00  0.50400000000E-02 0.  1.
          2    1    1    2    0  502 -0.17208767871E+02 -0.20519098235E+02  0.11628804241E+04  0.11631887447E+04  0.25500000000E-02 0. -1.
         -2    1    1    2  502    0  0.17208767871E+02  0.20519098235E+02  0.74645630044E+03  0.74693653248E+03  0.25500000000E-02 0. -1.
<mgrwt>
<rscale>  0 0.54880296E+02</rscale>
<asrwt>0</asrwt>
<pdfrwt beam="2">  1        1 0.60656636E-04 0.54880296E+02</pdfrwt>
<pdfrwt beam="1">  1       -1 0.29381088E+00 0.54880296E+02</pdfrwt>
<totfact> 0.29549415E+04</totfact>
</mgrwt>
</event>
<event>
 4    1  0.3946801E-002  0.4357973E+02  0.7818608E-02  0.1483408E+00
         -1   -1    0    0  501    0 -0.00000000000E+00  0.00000000000E+00  0.17169556850E+01  0.17169630822E+01  0.50400000000E-02 0. -1.
          1   -1    0    0    0  501  0.00000000000E+00 -0.00000000000E+00 -0.27653434293E+03  0.27653434297E+03  0.50400000000E-02 0. -1.
          2    1    1    2    0  502 -0.20081024032E+02  0.71943744720E+01 -0.10900373815E+03  0.11107124509E+03  0.25500000000E-02 0. -1.
         -2    1    1    2  502    0  0.20081024032E+02 -0.71943744720E+01 -0.16581364910E+03  0.16718006096E+03  0.25500000000E-02 0. -1.
<mgrwt>
<rscale>  0 0.43579731E+02</rscale>
<asrwt>0</asrwt>
<pdfrwt beam="2">  1        1 0.42543710E-01 0.43579731E+02</pdfrwt>
<pdfrwt beam="1">  1       -1 0.26414782E-03 0.43579731E+02</pdfrwt>
<totfact> 0.83607407E+05</totfact>
</mgrwt>
</event>
<event>
 4    1  0.3946801E-002  0.4889140E+02  0.7818608E-02  0.1451414E+00
          1   -1    0    0    0  501  0.00000000000E+00  0.00000000000E+00  0.14337405338E+03  0.14337405347E+03  0.50400000000E-02 0. -1.
         -1   -1    0    0  501    0 -0.00000000000E+00 -0.00000000000E+00 -0.41680619116E+01  0.41680649587E+01  0.50400000000E-02 0. -1.
          2    1    1    2    0  502 -0.22378408331E+02 -0.17657334086E+01  0.98811529296E+02  0.10132931117E+03  0.25500000000E-02 0.  1.
         -2    1    1    2  502    0  0.22378408331E+02  0.17657334086E+01  0.40394462176E+02  0.46212807261E+02  0.25500000000E-02 0.  1.
<mgrwt>
<rscale>  0 0.48891396E+02</rscale>
<asrwt>0</asrwt>
<pdfrwt beam="1">  1        1 0.22057550E-01 0.48891396E+02</pdfrwt>
<pdfrwt beam="2">  1       -1 0.64124046E-03 0.48891396E+02</pdfrwt>
<totfact> 0.56280420E+05</totfact>
</mgrwt>
</event>
<event>
 4    1  0.3946801E-002  0.1618610E+03  0.7818608E-02  0.1186612E+00
         -1   -1    0    0  501    0 -0.00000000000E+00  0.00000000000E+00  0.24914120522E+01  0.24914171500E+01  0.50400000000E-02 0. -1.
          1   -1    0    0    0  501  0.00000000000E+00 -0.00000000000E+00 -0.26289255320E+04  0.26289255320E+04  0.50400000000E-02 0. -1.
          2    1    1    2    0  502 -0.57803795245E+02 -0.29878671968E+02 -0.53088440624E+03  0.53485723944E+03  0.25500000000E-02 0.  1.
         -2    1    1    2  502    0  0.57803795245E+02  0.29878671968E+02 -0.20955497137E+04  0.20965597097E+04  0.25500000000E-02 0.  1.
<mgrwt>
<rscale>  0 0.16186097E+03</rscale>
<asrwt>0</asrwt>
<pdfrwt beam="2">  1        1 0.40444786E+00 0.16186097E+03</pdfrwt>
<pdfrwt beam="1">  1       -1 0.38329666E-03 0.16186097E+03</pdfrwt>
<totfact> 0.96148610E+03</totfact>
</mgrwt>
</event>
<event>
 4    1  0.3946801E-002  0.5275504E+02  0.7818608E-02  0.1431024E+00
         -1   -1    0    0  501    0 -0.00000000000E+00  0.00000000000E+00  0.47836502157E+01  0.47836528707E+01  0.50400000000E-02 0. -1.
          1   -1    0    0    0  501  0.00000000000E+00 -0.00000000000E+00 -0.14544820414E+03  0.14544820423E+03  0.50400000000E-02 0. -1.
          2    1    1    2    0  502  0.18621728818E+02 -0.18304297926E+02 -0.80971275541E+02  0.85077397563E+02  0.25500000000E-02 0.  1.
         -2    1    1    2  502    0 -0.18621728818E+02  0.18304297926E+02 -0.59693278382E+02  0.65154459534E+02  0.25500000000E-02 0.  1.
<mgrwt>
<rscale>  0 0.52755039E+02</rscale>
<asrwt>0</asrwt>
<pdfrwt beam="2">  1        1 0.22376644E-01 0.52755039E+02</pdfrwt>
<pdfrwt beam="1">  1       -1 0.73594651E-03 0.52755039E+02</pdfrwt>
<totfact> 0.46580081E+05</totfact>
</mgrwt>
</event>
<event>
 4    1  0.3946801E-002  0.5345032E+02  0.7818608E-02  0.1427573E+00
          1   -1    0    0    0  501  0.00000000000E+00  0.00000000000E+00  0.20595620967E+03  0.20595620973E+03  0.50400000000E-02 0. -1.
         -1   -1    0    0  501    0 -0.00000000000E+00 -0.00000000000E+00 -0.34678911003E+01  0.34678947627E+01  0.50400000000E-02 0. -1.
          2    1    1    2    0  502  0.74402126837E+01 -0.25615260932E+02  0.94763589236E+02  0.98446108145E+02  0.25500000000E-02 0.  1.
         -2    1    1    2  502    0 -0.74402126837E+01  0.25615260932E+02  0.10772472933E+03  0.11097799635E+03  0.25500000000E-02 0.  1.
<mgrwt>
<rscale>  0 0.53450317E+02</rscale>
<asrwt>0</asrwt>
<pdfrwt beam="1">  1        1 0.31685576E-01 0.53450317E+02</pdfrwt>
<pdfrwt beam="2">  1       -1 0.53352190E-03 0.53450317E+02</pdfrwt>
<totfact> 0.47771554E+05</totfact>
</mgrwt>
</event>
<event>
 4    1  0.3946801E-002  0.4812720E+02  0.7818608E-02  0.1455713E+00
         -1   -1    0    0  501    0 -0.00000000000E+00  0.00000000000E+00  0.28573338670E+01  0.28573383120E+01  0.50400000000E-02 0. -1.
          1   -1    0    0    0  501  0.00000000000E+00 -0.00000000000E+00 -0.20265616122E+03  0.20265616128E+03  0.50400000000E-02 0. -1.
          2    1    1    2    0  502  0.23593362334E+02  0.33024638029E+01 -0.11438278342E+03  0.11683738342E+03  0.25500000000E-02 0.  1.
         -2    1    1    2  502    0 -0.23593362334E+02 -0.33024638029E+01 -0.85416043933E+02  0.88676116181E+02  0.25500000000E-02 0.  1.
<mgrwt>
<rscale>  0 0.48127197E+02</rscale>
<asrwt>0</asrwt>
<pdfrwt beam="2">  1        1 0.31177860E-01 0.48127197E+02</pdfrwt>
<pdfrwt beam="1">  1       -1 0.43959033E-03 0.48127197E+02</pdfrwt>
<totfact> 0.61969261E+05</totfact>
</mgrwt>
</event>
<event>
 4    1  0.3946801E-002  0.6974350E+02  0.7818608E-02  0.1360967E+00
         -1   -1    0    0  501    0 -0.00000000000E+00  0.00000000000E+00  0.31902187771E+01  0.31902227583E+01  0.50400000000E-02 0. -1.
          1   -1    0    0    0  501  0.00000000000E+00 -0.00000000000E+00 -0.38117705967E+03  0.38117705971E+03  0.50400000000E-02 0. -1.
          2    1    1    2    0  502  0.15825204999E+02  0.19343022601E+02 -0.32302324368E+03  0.32398858869E+03  0.25500000000E-02 0. -1.
         -2    1    1    2  502    0 -0.15825204999E+02 -0.19343022601E+02 -0.54963597212E+02  0.60378693772E+02  0.25500000000E-02 0. -1.
<mgrwt>
<rscale>  0 0.69743501E+02</rscale>
<asrwt>0</asrwt>
<pdfrwt beam="2">  1        1 0.58642589E-01 0.69743501E+02</pdfrwt>
<pdfrwt beam="1">  1       -1 0.49080350E-03 0.69743501E+02</pdfrwt>
<totfact> 0.27002340E+05</totfact>
</mgrwt>
</event>
<event>
 4    1  0.3946801E-002  0.5751045E+02  0.7818608E-02  0.1408586E+00
          1   -1    0    0    0  501  0.00000000000E+00  0.00000000000E+00  0.17204168171E+02  0.17204168910E+02  0.50400000000E-02 0. -1.
         -1   -1    0    0  501    0 -0.00000000000E+00 -0.00000000000E+00 -0.48061777523E+02  0.48061777787E+02  0.50400000000E-02 0. -1.
          2    1    1    2    0  502  0.19123990634E+02 -0.11529069595E+02  0.51310512077E+01  0.22912314516E+02  0.25500000000E-02 0.  1.
         -2    1    1    2  502    0 -0.19123990634E+02  0.11529069595E+02 -0.35988660559E+02  0.42353632180E+02  0.25500000000E-02 0.  1.
<mgrwt>
<rscale>  0 0.57510449E+02</rscale>
<asrwt>0</asrwt>
<pdfrwt beam="1">  1        1 0.26467952E-02 0.57510449E+02</pdfrwt>
<pdfrwt beam="2">  1       -1 0.73941196E-02 0.57510449E+02</pdfrwt>
<totfact> 0.29057092E+05</totfact>
</mgrwt>
</event>
<event>
 4    1  0.3946801E-002  0.6076379E+02  0.7818608E-02  0.1394654E+00
         -1   -1    0    0  501    0 -0.00000000000E+00  0.00000000000E+00  0.39196034514E+01  0.39196066918E+01  0.50400000000E-02 0.  1.
          1   -1    0    0    0  501  0.00000000000E+00 -0.00000000000E+00 -0.23549808793E+03  0.23549808798E+03  0.50400000000E-02 0.  1.
          2    1    1    2    0  502 -0.26378786932E+02 -0.56463282401E+01 -0.60720537820E+02  0.66443247529E+02  0.25500000000E-02 0. -1.
         -2    1    1    2  502    0  0.26378786932E+02  0.56463282401E+01 -0.17085794666E+03  0.17297444714E+03  0.25500000000E-02 0. -1.
<mgrwt>
<rscale>  0 0.60763789E+02</rscale>
<asrwt>0</asrwt>
<pdfrwt beam="2">  1        1 0.36230464E-01 0.60763789E+02</pdfrwt>
<pdfrwt beam="1">  1       -1 0.60301636E-03 0.60763789E+02</pdfrwt>
<totfact> 0.35326629E+05</totfact>
</mgrwt>
</event>
<event>
 4    1  0.3946801E-002  0.5495013E+02  0.7818608E-02  0.1420335E+00
         -1   -1    0    0  501    0 -0.00000000000E+00  0.00000000000E+00  0.11118125519E+01  0.11118239754E+01  0.50400000000E-02 0.  1.
          1   -1    0    0    0  501  0.00000000000E+00 -0.00000000000E+00 -0.67895925727E+03  0.67895925729E+03  0.50400000000E-02 0.  1.
          2    1    1    2    0  502  0.12376998625E+02 -0.23381206703E+02 -0.24713274287E+03  0.24854469121E+03  0.25500000000E-02 0. -1.
         -2    1    1    2  502    0 -0.12376998625E+02  0.23381206703E+02 -0.43071470185E+03  0.43152639006E+03  0.25500000000E-02 0. -1.
<mgrwt>
<rscale>  0 0.54950134E+02</rscale>
<asrwt>0</asrwt>
<pdfrwt beam="2">  1        1 0.10445494E+00 0.54950134E+02</pdfrwt>
<pdfrwt beam="1">  1       -1 0.17104951E-03 0.54950134E+02</pdfrwt>
<totfact> 0.52446627E+05</totfact>
</mgrwt>
</event>
<event>
 4    1  0.3946801E-002  0.9109191E+02  0.7818608E-02  0.1300229E+00
          1   -1    0    0    0  501  0.00000000000E+00  0.00000000000E+00  0.44001773430E+02  0.44001773719E+02  0.50400000000E-02 0. -1.
         -1   -1    0    0  501    0 -0.00000000000E+00 -0.00000000000E+00 -0.47144326400E+02  0.47144326670E+02  0.50400000000E-02 0. -1.
          2    1    1    2    0  502 -0.30364656104E+01 -0.44767313290E+02 -0.93926731494E+01  0.45842717829E+02  0.25500000000E-02 0.  1.
         -2    1    1    2  502    0  0.30364656104E+01  0.44767313290E+02  0.62501201797E+01  0.45303382560E+02  0.25500000000E-02 0.  1.
<mgrwt>
<rscale>  0 0.91091910E+02</rscale>
<asrwt>0</asrwt>
<pdfrwt beam="1">  1        1 0.67695036E-02 0.91091910E+02</pdfrwt>
<pdfrwt beam="2">  1       -1 0.72529734E-02 0.91091910E+02</pdfrwt>
<totfact> 0.92222170E+04</totfact>
</mgrwt>
</event>
<event>
 4    1  0.3946801E-002  0.4171840E+02  0.7818608E-02  0.1495934E+00
         -1   -1    0    0  501    0 -0.00000000000E+00  0.00000000000E+00  0.38587742691E+02  0.38587743020E+02  0.50400000000E-02 0.  1.
          1   -1    0    0    0  501  0.00000000000E+00 -0.00000000000E+00 -0.11275760089E+02  0.11275761215E+02  0.50400000000E-02 0.  1.
          2    1    1    2    0  502  0.71601340844E+01  0.19131705211E+02  0.18701050991E+02  0.27695107493E+02  0.25500000000E-02 0. -1.
         -2    1    1    2  502    0 -0.71601340844E+01 -0.19131705211E+02  0.86109316112E+01  0.22168396742E+02  0.25500000000E-02 0. -1.
<mgrwt>
<rscale>  0 0.41718397E+02</rscale>
<asrwt>0</asrwt>
<pdfrwt beam="2">  1        1 0.17347324E-02 0.41718397E+02</pdfrwt>
<pdfrwt beam="1">  1       -1 0.59365760E-02 0.41718397E+02</pdfrwt>
<totfact> 0.65210791E+05</totfact>
</mgrwt>
</event>
<event>
 4    1  0.3946801E-002  0.5846408E+02  0.7818608E-02  0.1404393E+00
         -1   -1    0    0  501    0 -0.00000000000E+00  0.00000000000E+00  0.36505115361E+02  0.36505115708E+02  0.50400000000E-02 0. -1.
          1   -1    0    0    0  501  0.00000000000E+00 -0.00000000000E+00 -0.23408009534E+02  0.23408010077E+02  0.50400000000E-02 0. -1.
          2    1    1    2    0  502  0.24940305563E+02 -0.31016303889E+01 -0.87504015403E+01  0.26612186800E+02  0.25500000000E-02 0. -1.
         -2    1    1    2  502    0 -0.24940305563E+02  0.31016303889E+01  0.21847507367E+02  0.33300938985E+02  0.25500000000E-02 0. -1.
<mgrwt>
<rscale>  0 0.58464078E+02</rscale>
<asrwt>0</asrwt>
<pdfrwt beam="2">  1        1 0.36012323E-02 0.58464078E+02</pdfrwt>
<pdfrwt beam="1">  1       -1 0.56161716E-02 0.58464078E+02</pdfrwt>
<totfact> 0.28756796E+05</totfact>
</mgrwt>
</event>
<event>
 4    1  0.3946801E-002  0.5741566E+02  0.7818608E-02  0.1409009E+00
         -1   -1    0    0  501    0 -0.00000000000E+00  0.00000000000E+00  0.11037341073E+02  0.11037342224E+02  0.50400000000E-02 0.  1.
          1   -1    0    0    0  501  0.00000000000E+00 -0.00000000000E+00 -0.74668289532E+02  0.74668289702E+02  0.50400000000E-02 0.  1.
          2    1    1    2    0  502 -0.19048421658E+02  0.13257433119E+02 -0.57039280130E+02  0.61579878084E+02  0.25500000000E-02 0.  1.
         -2    1    1    2  502    0  0.19048421658E+02 -0.13257433119E+02 -0.65916683290E+01  0.24125753842E+02  0.25500000000E-02 0.  1.
<mgrwt>
<rscale>  0 0.57415658E+02</rscale>
<asrwt>0</asrwt>
<pdfrwt beam="2">  1        1 0.11487429E-01 0.57415658E+02</pdfrwt>
<pdfrwt beam="1">  1       -1 0.16980526E-02 0.57415658E+02</pdfrwt>
<totfact> 0.34169046E+05</totfact>
</mgrwt>
</event>
<event>
 4    1  0.3946801E-002  0.5577860E+02  0.7818608E-02  0.1416452E+00
         -1   -1    0    0  501    0 -0.00000000000E+00  0.00000000000E+00  0.39208176451E+01  0.39208208844E+01  0.50400000000E-02 0. -1.
          1   -1    0    0    0  501  0.00000000000E+00 -0.00000000000E+00 -0.19838025606E+03  0.19838025613E+03  0.50400000000E-02 0. -1.
          2    1    1    2    0  502 -0.27623701164E+02  0.32070709643E+01 -0.10488828829E+03  0.10851224445E+03  0.25500000000E-02 0.  1.
         -2    1    1    2  502    0  0.27623701164E+02 -0.32070709643E+01 -0.89571150128E+02  0.93788832555E+02  0.25500000000E-02 0.  1.
<mgrwt>
<rscale>  0 0.55778603E+02</rscale>
<asrwt>0</asrwt>
<pdfrwt beam="2">  1        1 0.30520032E-01 0.55778603E+02</pdfrwt>
<pdfrwt beam="1">  1       -1 0.60320312E-03 0.55778603E+02</pdfrwt>
<totfact> 0.42604280E+05</totfact>
</mgrwt>
</event>
<event>
 4    1  0.3946801E-002  0.6683889E+02  0.7818608E-02  0.1371185E+00
          1   -1    0    0    0  501  0.00000000000E+00  0.00000000000E+00  0.13300070257E+04  0.13300070258E+04  0.50400000000E-02 0.  1.
         -1   -1    0    0  501    0 -0.00000000000E+00 -0.00000000000E+00 -0.83973185044E+00  0.83974697513E+00  0.50400000000E-02 0.  1.
          2    1    1    2    0  502 -0.22224437589E+02  0.53602462939E+01  0.11499455428E+04  0.11501727736E+04  0.25500000000E-02 0. -1.
         -2    1    1    2  502    0  0.22224437589E+02 -0.53602462939E+01  0.17922175112E+03  0.18067399909E+03  0.25500000000E-02 0. -1.
<mgrwt>
<rscale>  0 0.66838891E+02</rscale>
<asrwt>0</asrwt>
<pdfrwt beam="1">  1        1 0.20461647E+00 0.66838891E+02</pdfrwt>
<pdfrwt beam="2">  1       -1 0.12919068E-03 0.66838891E+02</pdfrwt>
<totfact> 0.27047820E+05</totfact>
</mgrwt>
</event>
<event>
 4    1  0.3946801E-002  0.1614678E+03  0.7818608E-02  0.1187049E+00
         -1   -1    0    0  501    0 -0.00000000000E+00  0.00000000000E+00  0.12152267902E+02  0.12152268948E+02  0.50400000000E-02 0. -1.
          1   -1    0    0    0  501  0.00000000000E+00 -0.00000000000E+00 -0.53635797034E+03  0.53635797036E+03  0.50400000000E-02 0. -1.
          2    1    1    2    0  502 -0.29826680421E+02 -0.36584276935E+02 -0.48459955920E+03  0.48689297896E+03  0.25500000000E-02 0.  1.
         -2    1    1    2  502    0  0.29826680421E+02  0.36584276935E+02 -0.39606143240E+02  0.61617260347E+02  0.25500000000E-02 0.  1.
<mgrwt>
<rscale>  0 0.16146784E+03</rscale>
<asrwt>0</asrwt>
<pdfrwt beam="2">  1        1 0.82516593E-01 0.16146784E+03</pdfrwt>
<pdfrwt beam="1">  1       -1 0.18695802E-02 0.16146784E+03</pdfrwt>
<totfact> 0.29580887E+04</totfact>
</mgrwt>
</event>
<event>
 4    1  0.3946801E-002  0.6590863E+02  0.7818608E-02  0.1374586E+00
          1   -1    0    0    0  501  0.00000000000E+00  0.00000000000E+00  0.17893765063E+04  0.17893765063E+04  0.50400000000E-02 0.  1.
         -1   -1    0    0  501    0 -0.00000000000E+00 -0.00000000000E+00 -0.60689756530E+00  0.60691849236E+00  0.50400000000E-02 0.  1.
          2    1    1    2    0  502  0.14506479500E+02 -0.25494113620E+02  0.13023052560E+04  0.13026355467E+04  0.25500000000E-02 0.  1.
         -2    1    1    2  502    0 -0.14506479500E+02  0.25494113620E+02  0.48646435274E+03  0.48734787809E+03  0.25500000000E-02 0.  1.
<mgrwt>
<rscale>  0 0.65908633E+02</rscale>
<asrwt>0</asrwt>
<pdfrwt beam="1">  1        1 0.27529045E+00 0.65908633E+02</pdfrwt>
<pdfrwt beam="2">  1       -1 0.93369871E-04 0.65908633E+02</pdfrwt>
<totfact> 0.21625383E+05</totfact>
</mgrwt>
</event>
<event>
 4    1  0.3946801E-002  0.4796090E+02  0.7818608E-02  0.1456661E+00
          1   -1    0    0    0  501  0.00000000000E+00  0.00000000000E+00  0.50195069978E+02  0.50195070231E+02  0.50400000000E-02 0.  1.
         -1   -1    0    0  501    0 -0.00000000000E+00 -0.00000000000E+00 -0.11456544081E+02  0.11456545189E+02  0.50400000000E-02 0.  1.
          2    1    1    2    0  502 -0.15850090666E+02 -0.12200001884E+02  0.36374080081E+02  0.41510711007E+02  0.25500000000E-02 0.  1.
         -2    1    1    2  502    0  0.15850090666E+02  0.12200001884E+02  0.23644458169E+01  0.20140904414E+02  0.25500000000E-02 0.  1.
<mgrwt>
<rscale>  0 0.47960904E+02</rscale>
<asrwt>0</asrwt>
<pdfrwt beam="1">  1        1 0.77223188E-02 0.47960904E+02</pdfrwt>
<pdfrwt beam="2">  1       -1 0.17625453E-02 0.47960904E+02</pdfrwt>
<totfact> 0.51857521E+05</totfact>
</mgrwt>
</event>
<event>
 4    1  0.3946801E-002  0.6553404E+02  0.7818608E-02  0.1375974E+00
         -1   -1    0    0  501    0 -0.00000000000E+00  0.00000000000E+00  0.15840015061E+02  0.15840015862E+02  0.50400000000E-02 0. -1.
          1   -1    0    0    0  501  0.00000000000E+00 -0.00000000000E+00 -0.67782616567E+02  0.67782616755E+02  0.50400000000E-02 0. -1.
          2    1    1    2    0  502 -0.28197919084E+02 -0.11835075432E+02 -0.10955106158E+02  0.32483934623E+02  0.25500000000E-02 0.  1.
         -2    1    1    2  502    0  0.28197919084E+02  0.11835075432E+02 -0.40987495349E+02  0.51138697995E+02  0.25500000000E-02 0.  1.
<mgrwt>
<rscale>  0 0.65534043E+02</rscale>
<asrwt>0</asrwt>
<pdfrwt beam="2">  1        1 0.10428095E-01 0.65534043E+02</pdfrwt>
<pdfrwt beam="1">  1       -1 0.24369255E-02 0.65534043E+02</pdfrwt>
<totfact> 0.23913187E+05</totfact>
</mgrwt>
</event>
<event>
 4    1  0.3946801E-002  0.4351630E+02  0.7818608E-02  0.1483822E+00
         -1   -1    0    0  501    0 -0.00000000000E+00  0.00000000000E+00  0.16046780143E+01  0.16046859292E+01  0.50400000000E-02 0. -1.
          1   -1    0    0    0  501  0.00000000000E+00 -0.00000000000E+00 -0.29502232255E+03  0.29502232260E+03  0.50400000000E-02 0. -1.
          2    1    1    2    0  502  0.98704369922E+01  0.18061173850E+02 -0.19480495082E+03  0.19588925544E+03  0.25500000000E-02 0. -1.
         -2    1    1    2  502    0 -0.98704369922E+01 -0.18061173850E+02 -0.98612693721E+02  0.10073775309E+03  0.25500000000E-02 0. -1.
<mgrwt>
<rscale>  0 0.43516296E+02</rscale>
<asrwt>0</asrwt>
<pdfrwt beam="2">  1        1 0.45388007E-01 0.43516296E+02</pdfrwt>
<pdfrwt beam="1">  1       -1 0.24687439E-03 0.43516296E+02</pdfrwt>
<totfact> 0.84850344E+05</totfact>
</mgrwt>
</event>
<event>
 4    1  0.3946801E-002  0.6015592E+02  0.7818608E-02  0.1397179E+00
          1   -1    0    0    0  501  0.00000000000E+00  0.00000000000E+00  0.17849054861E+02  0.17849055572E+02  0.50400000000E-02 0.  1.
         -1   -1    0    0  501    0 -0.00000000000E+00 -0.00000000000E+00 -0.50685236956E+02  0.50685237207E+02  0.50400000000E-02 0.  1.
          2    1    1    2    0  502 -0.14219403137E+02  0.18297885869E+02  0.54275259954E+01  0.23800464235E+02  0.25500000000E-02 0.  1.
         -2    1    1    2  502    0  0.14219403137E+02 -0.18297885869E+02 -0.38263708091E+02  0.44733828544E+02  0.25500000000E-02 0.  1.
<mgrwt>
<rscale>  0 0.60155918E+02</rscale>
<asrwt>0</asrwt>
<pdfrwt beam="1">  1        1 0.27460085E-02 0.60155918E+02</pdfrwt>
<pdfrwt beam="2">  1       -1 0.77977288E-02 0.60155918E+02</pdfrwt>
<totfact> 0.25826382E+05</totfact>
</mgrwt>
</event>
<event>
 4    1  0.3946801E-002  0.4467537E+02  0.7818608E-02  0.1476378E+00
         -1   -1    0    0  501    0 -0.00000000000E+00  0.00000000000E+00  0.40823692576E+02  0.40823692887E+02  0.50400000000E-02 0.  1.
          1   -1    0    0    0  501  0.00000000000E+00 -0.00000000000E+00 -0.12222609115E+02  0.12222610154E+02  0.50400000000E-02 0.  1.
          2    1    1    2    0  502 -0.21461201699E+02  0.46816043379E+01  0.94815834109E+01  0.23924903930E+02  0.25500000000E-02 0. -1.
         -2    1    1    2  502    0  0.21461201699E+02 -0.46816043379E+01  0.19119500050E+02  0.29121399111E+02  0.25500000000E-02 0. -1.
<mgrwt>
<rscale>  0 0.44675366E+02</rscale>
<asrwt>0</asrwt>
<pdfrwt beam="2">  1        1 0.18804015E-02 0.44675366E+02</pdfrwt>
<pdfrwt beam="1">  1       -1 0.62805682E-02 0.44675366E+02</pdfrwt>
<totfact> 0.54954070E+05</totfact>
</mgrwt>
</event>
<event>
 4    1  0.3946801E-002  0.1091220E+03  0.7818608E-02  0.1262205E+00
         -1   -1    0    0  501    0 -0.00000000000E+00  0.00000000000E+00  0.11194751249E+02  0.11194752384E+02  0.50400000000E-02 0. -1.
          1   -1    0    0    0  501  0.00000000000E+00 -0.00000000000E+00 -0.26591931164E+03  0.26591931168E+03  0.50400000000E-02 0. -1.
          2    1    1    2    0  502 -0.52892243539E+02 -0.31968138058E+01 -0.94339967247E+02  0.10820276555E+03  0.25500000000E-02 0.  1.
         -2    1    1    2  502    0  0.52892243539E+02  0.31968138058E+01 -0.16038459314E+03  0.16891129852E+03  0.25500000000E-02 0.  1.
<mgrwt>
<rscale>  0 0.10912196E+03</rscale>
<asrwt>0</asrwt>
<pdfrwt beam="2">  1        1 0.40910659E-01 0.10912196E+03</pdfrwt>
<pdfrwt beam="1">  1       -1 0.17222697E-02 0.10912196E+03</pdfrwt>
<totfact> 0.77124030E+04</totfact>
</mgrwt>
</event>
<event>
 4    1  0.3946801E-002  0.1647572E+03  0.7818608E-02  0.1183428E+00
          1   -1    0    0    0  501  0.00000000000E+00  0.00000000000E+00  0.45913559888E+03  0.45913559890E+03  0.50400000000E-02 0. -1.
         -1   -1    0    0  501    0 -0.00000000000E+00 -0.00000000000E+00 -0.14780461820E+02  0.14780462679E+02  0.50400000000E-02 0. -1.
          2    1    1    2    0  502 -0.76812761762E+01 -0.32405166189E+02  0.43890891367E+03  0.44017057070E+03  0.25500000000E-02 0.  1.
         -2    1    1    2  502    0  0.76812761762E+01  0.32405166189E+02  0.54462233821E+01  0.33745490885E+02  0.25500000000E-02 0.  1.
<mgrwt>
<rscale>  0 0.16475723E+03</rscale>
<asrwt>0</asrwt>
<pdfrwt beam="1">  1        1 0.70636255E-01 0.16475723E+03</pdfrwt>
<pdfrwt beam="2">  1       -1 0.22739170E-02 0.16475723E+03</pdfrwt>
<totfact> 0.27353835E+04</totfact>
</mgrwt>
</event>
<event>
 4    1  0.3946801E-002  0.6115874E+02  0.7818608E-02  0.1393032E+00
          1   -1    0    0    0  501  0.00000000000E+00  0.00000000000E+00  0.24465194175E+03  0.24465194180E+03  0.50400000000E-02 0. -1.
         -1   -1    0    0  501    0 -0.00000000000E+00 -0.00000000000E+00 -0.38221541174E+01  0.38221574404E+01  0.50400000000E-02 0. -1.
          2    1    1    2    0  502  0.81154684181E+01  0.26206527413E+02  0.65536624662E+02  0.71047111731E+02  0.25500000000E-02 0. -1.
         -2    1    1    2  502    0 -0.81154684181E+01 -0.26206527413E+02  0.17529316297E+03  0.17742698751E+03  0.25500000000E-02 0. -1.
<mgrwt>
<rscale>  0 0.61158739E+02</rscale>
<asrwt>0</asrwt>
<pdfrwt beam="1">  1        1 0.37638771E-01 0.61158739E+02</pdfrwt>
<pdfrwt beam="2">  1       -1 0.58802381E-03 0.61158739E+02</pdfrwt>
<totfact> 0.34987571E+05</totfact>
</mgrwt>
</event>
<event>
 4    1  0.3946801E-002  0.7459472E+02  0.7818608E-02  0.1345131E+00
          1   -1    0    0    0  501  0.00000000000E+00  0.00000000000E+00  0.14335838945E+01  0.14335927539E+01  0.50400000000E-02 0.  1.
         -1   -1    0    0  501    0 -0.00000000000E+00 -0.00000000000E+00 -0.97035753549E+03  0.97035753550E+03  0.50400000000E-02 0.  1.
          2    1    1    2    0  502 -0.36289013883E+02 -0.63975347630E-01 -0.37224543727E+03  0.37401010975E+03  0.25500000000E-02 0. -1.
         -2    1    1    2  502    0  0.36289013883E+02  0.63975347630E-01 -0.59667851432E+03  0.59778101850E+03  0.25500000000E-02 0. -1.
<mgrwt>
<rscale>  0 0.74594725E+02</rscale>
<asrwt>0</asrwt>
<pdfrwt beam="1">  1        1 0.22055283E-03 0.74594725E+02</pdfrwt>
<pdfrwt beam="2">  1       -1 0.14928525E+00 0.74594725E+02</pdfrwt>
<totfact> 0.44861101E+04</totfact>
</mgrwt>
</event>
<event>
 4    1  0.3946801E-002  0.4530842E+02  0.7818608E-02  0.1472425E+00
          1   -1    0    0    0  501  0.00000000000E+00  0.00000000000E+00  0.47514672502E+03  0.47514672505E+03  0.50400000000E-02 0. -1.
         -1   -1    0    0  501    0 -0.00000000000E+00 -0.00000000000E+00 -0.10801091895E+01  0.10801209482E+01  0.50400000000E-02 0. -1.
          2    1    1    2    0  502 -0.17849194998E+00  0.21892258075E+02  0.17582632961E+03  0.17718408793E+03  0.25500000000E-02 0.  1.
         -2    1    1    2  502    0  0.17849194998E+00 -0.21892258075E+02  0.29824028622E+03  0.29904275807E+03  0.25500000000E-02 0.  1.
<mgrwt>
<rscale>  0 0.45308416E+02</rscale>
<asrwt>0</asrwt>
<pdfrwt beam="1">  1        1 0.73099510E-01 0.45308416E+02</pdfrwt>
<pdfrwt beam="2">  1       -1 0.16617152E-03 0.45308416E+02</pdfrwt>
<totfact> 0.82628497E+05</totfact>
</mgrwt>
</event>
<event>
 4    1  0.3946801E-002  0.4779237E+02  0.7818608E-02  0.1457626E+00
         -1   -1    0    0  501    0 -0.00000000000E+00  0.00000000000E+00  0.21176058070E+02  0.21176058670E+02  0.50400000000E-02 0.  1.
          1   -1    0    0    0  501  0.00000000000E+00 -0.00000000000E+00 -0.26965722970E+02  0.26965723441E+02  0.50400000000E-02 0.  1.
          2    1    1    2    0  502 -0.23592217702E+02 -0.21460867890E+01 -0.60529266786E+01  0.24450692270E+02  0.25500000000E-02 0. -1.
         -2    1    1    2  502    0  0.23592217702E+02  0.21460867890E+01  0.26326177873E+00  0.23691089841E+02  0.25500000000E-02 0. -1.
<mgrwt>
<rscale>  0 0.47792374E+02</rscale>
<asrwt>0</asrwt>
<pdfrwt beam="2">  1        1 0.41485729E-02 0.47792374E+02</pdfrwt>
<pdfrwt beam="1">  1       -1 0.32578552E-02 0.47792374E+02</pdfrwt>
<totfact> 0.49488036E+05</totfact>
</mgrwt>
</event>
<event>
 4    1  0.3946801E-002  0.4559990E+02  0.7818608E-02  0.1470631E+00
         -1   -1    0    0  501    0 -0.00000000000E+00  0.00000000000E+00  0.69315998946E+02  0.69315999129E+02  0.50400000000E-02 0.  1.
          1   -1    0    0    0  501  0.00000000000E+00 -0.00000000000E+00 -0.74995342652E+01  0.74995359588E+01  0.50400000000E-02 0.  1.
          2    1    1    2    0  502  0.87630726825E+01 -0.20945250940E+02  0.27397725610E+02  0.35582725512E+02  0.25500000000E-02 0.  1.
         -2    1    1    2  502    0 -0.87630726825E+01  0.20945250940E+02  0.34418739071E+02  0.41232809576E+02  0.25500000000E-02 0.  1.
<mgrwt>
<rscale>  0 0.45599903E+02</rscale>
<asrwt>0</asrwt>
<pdfrwt beam="2">  1        1 0.11537746E-02 0.45599903E+02</pdfrwt>
<pdfrwt beam="1">  1       -1 0.10664000E-01 0.45599903E+02</pdfrwt>
<totfact> 0.49266831E+05</totfact>
</mgrwt>
</event>
<event>
 4    1  0.3946801E-002  0.4494048E+02  0.7818608E-02  0.1474714E+00
         -1   -1    0    0  501    0 -0.00000000000E+00  0.00000000000E+00  0.72046437183E+02  0.72046437359E+02  0.50400000000E-02 0. -1.
          1   -1    0    0    0  501  0.00000000000E+00 -0.00000000000E+00 -0.70081411276E+01  0.70081429399E+01  0.50400000000E-02 0. -1.
          2    1    1    2    0  502  0.58633951009E+01 -0.21585881882E+02  0.28753709251E+02  0.36429459246E+02  0.25500000000E-02 0. -1.
         -2    1    1    2  502    0 -0.58633951009E+01  0.21585881882E+02  0.36284586804E+02  0.42625121053E+02  0.25500000000E-02 0. -1.
<mgrwt>
<rscale>  0 0.44940480E+02</rscale>
<asrwt>0</asrwt>
<pdfrwt beam="2">  1        1 0.10781757E-02 0.44940480E+02</pdfrwt>
<pdfrwt beam="1">  1       -1 0.11084068E-01 0.44940480E+02</pdfrwt>
<totfact> 0.50795694E+05</totfact>
</mgrwt>
</event>
<event>
 4    1  0.3946801E-002  0.6081117E+02  0.7818608E-02  0.1394459E+00
         -1   -1    0    0  501    0 -0.00000000000E+00  0.00000000000E+00  0.27571673897E+02  0.27571674358E+02  0.50400000000E-02 0.  1.
          1   -1    0    0    0  501  0.00000000000E+00 -0.00000000000E+00 -0.33530775793E+02  0.33530776171E+02  0.50400000000E-02 0.  1.
          2    1    1    2    0  502 -0.21395756972E+02 -0.86115073625E+01  0.16928558928E+02  0.28609659022E+02  0.25500000000E-02 0.  1.
         -2    1    1    2  502    0  0.21395756972E+02  0.86115073625E+01 -0.22887660823E+02  0.32492791507E+02  0.25500000000E-02 0.  1.
<mgrwt>
<rscale>  0 0.60811171E+02</rscale>
<asrwt>0</asrwt>
<pdfrwt beam="2">  1        1 0.51585810E-02 0.60811171E+02</pdfrwt>
<pdfrwt beam="1">  1       -1 0.42417960E-02 0.60811171E+02</pdfrwt>
<totfact> 0.26895491E+05</totfact>
</mgrwt>
</event>
<event>
 4    1  0.3946801E-002  0.5414168E+02  0.7818608E-02  0.1424202E+00
          1   -1    0    0    0  501  0.00000000000E+00  0.00000000000E+00  0.16108565993E+01  0.16108644838E+01  0.50400000000E-02 0.  1.
         -1   -1    0    0  501    0 -0.00000000000E+00 -0.00000000000E+00 -0.45493090717E+03  0.45493090720E+03  0.50400000000E-02 0.  1.
          2    1    1    2    0  502 -0.25073075984E+02 -0.74515544815E+01 -0.28547256590E+03  0.28666839849E+03  0.25500000000E-02 0. -1.
         -2    1    1    2  502    0  0.25073075984E+02  0.74515544815E+01 -0.16784748467E+03  0.16987337319E+03  0.25500000000E-02 0. -1.
<mgrwt>
<rscale>  0 0.54141676E+02</rscale>
<asrwt>0</asrwt>
<pdfrwt beam="1">  1        1 0.24782506E-03 0.54141676E+02</pdfrwt>
<pdfrwt beam="2">  1       -1 0.69989269E-01 0.54141676E+02</pdfrwt>
<totfact> 0.18920592E+05</totfact>
</mgrwt>
</event>
<event>
 4    1  0.3946801E-002  0.6154314E+02  0.7818608E-02  0.1391468E+00
          1   -1    0    0    0  501  0.00000000000E+00  0.00000000000E+00  0.57661319164E+02  0.57661319384E+02  0.50400000000E-02 0. -1.
         -1   -1    0    0  501    0 -0.00000000000E+00 -0.00000000000E+00 -0.16421569127E+02  0.16421569901E+02  0.50400000000E-02 0. -1.
          2    1    1    2    0  502  0.28030541911E+02  0.80214817881E+01  0.32465338243E+02  0.43635463142E+02  0.25500000000E-02 0. -1.
         -2    1    1    2  502    0 -0.28030541911E+02 -0.80214817881E+01  0.87744117931E+01  0.30447426142E+02  0.25500000000E-02 0. -1.
<mgrwt>
<rscale>  0 0.61543135E+02</rscale>
<asrwt>0</asrwt>
<pdfrwt beam="1">  1        1 0.88709722E-02 0.61543135E+02</pdfrwt>
<pdfrwt beam="2">  1       -1 0.25263953E-02 0.61543135E+02</pdfrwt>
<totfact> 0.27659642E+05</totfact>
</mgrwt>
</event>
<event>
 4    1  0.3946801E-002  0.1003370E+03  0.7818608E-02  0.1279589E+00
         -1   -1    0    0  501    0 -0.00000000000E+00  0.00000000000E+00  0.24675700900E+01  0.24675752371E+01  0.50400000000E-02 0.  1.
          1   -1    0    0    0  501  0.00000000000E+00 -0.00000000000E+00 -0.10199823547E+04  0.10199823547E+04  0.50400000000E-02 0.  1.
          2    1    1    2    0  502  0.14354507149E+02 -0.34299421463E+02 -0.16554755986E+03  0.16967173239E+03  0.25500000000E-02 0.  1.
         -2    1    1    2  502    0 -0.14354507149E+02  0.34299421463E+02 -0.85196722471E+03  0.85277819753E+03  0.25500000000E-02 0.  1.
<mgrwt>
<rscale>  0 0.10033704E+03</rscale>
<asrwt>0</asrwt>
<pdfrwt beam="2">  1        1 0.15692003E+00 0.10033704E+03</pdfrwt>
<pdfrwt beam="1">  1       -1 0.37962738E-03 0.10033704E+03</pdfrwt>
<totfact> 0.10490905E+05</totfact>
</mgrwt>
</event>
<event>
 4    1  0.3946801E-002  0.4110132E+02  0.7818608E-02  0.1500260E+00
         -1   -1    0    0  501    0 -0.00000000000E+00  0.00000000000E+00  0.13065561101E+03  0.13065561111E+03  0.50400000000E-02 0. -1.
          1   -1    0    0    0  501  0.00000000000E+00 -0.00000000000E+00 -0.32323853403E+01  0.32323892695E+01  0.50400000000E-02 0. -1.
          2    1    1    2    0  502  0.15154746531E+02  0.13817398464E+02  0.59411325396E+02  0.62851351892E+02  0.25500000000E-02 0.  1.
         -2    1    1    2  502    0 -0.15154746531E+02 -0.13817398464E+02  0.68011900275E+02  0.71036648487E+02  0.25500000000E-02 0.  1.
<mgrwt>
<rscale>  0 0.41101316E+02</rscale>
<asrwt>0</asrwt>
<pdfrwt beam="2">  1        1 0.49729028E-03 0.41101316E+02</pdfrwt>
<pdfrwt beam="1">  1       -1 0.20100867E-01 0.41101316E+02</pdfrwt>
<totfact> 0.57308037E+05</totfact>
</mgrwt>
</event>
<event>
 4    1  0.3946801E-002  0.5425761E+02  0.7818608E-02  0.1423643E+00
          1   -1    0    0    0  501  0.00000000000E+00  0.00000000000E+00  0.57437351498E+03  0.57437351501E+03  0.50400000000E-02 0.  1.
         -1   -1    0    0  501    0 -0.00000000000E+00 -0.00000000000E+00 -0.12813424051E+01  0.12813523172E+01  0.50400000000E-02 0.  1.
          2    1    1    2    0  502  0.31085242519E+01  0.22513251825E+02  0.44372046883E+03  0.44430210881E+03  0.25500000000E-02 0. -1.
         -2    1    1    2  502    0 -0.31085242519E+01 -0.22513251825E+02  0.12937170375E+03  0.13135275851E+03  0.25500000000E-02 0. -1.
<mgrwt>
<rscale>  0 0.54257608E+02</rscale>
<asrwt>0</asrwt>
<pdfrwt beam="1">  1        1 0.88365269E-01 0.54257608E+02</pdfrwt>
<pdfrwt beam="2">  1       -1 0.19713012E-03 0.54257608E+02</pdfrwt>
<totfact> 0.53806645E+05</totfact>
</mgrwt>
</event>
<event>
 4    1  0.3946801E-002  0.4383060E+02  0.7818608E-02  0.1481777E+00
          1   -1    0    0    0  501  0.00000000000E+00  0.00000000000E+00  0.81506157557E+03  0.81506157558E+03  0.50400000000E-02 0. -1.
         -1   -1    0    0  501    0 -0.00000000000E+00 -0.00000000000E+00 -0.58924587510E+00  0.58926742904E+00  0.50400000000E-02 0. -1.
          2    1    1    2    0  502 -0.75463111631E+01  0.19629359845E+02  0.52198377052E+03  0.52240723126E+03  0.25500000000E-02 0.  1.
         -2    1    1    2  502    0  0.75463111631E+01 -0.19629359845E+02  0.29248855917E+03  0.29324361175E+03  0.25500000000E-02 0.  1.
<mgrwt>
<rscale>  0 0.43830604E+02</rscale>
<asrwt>0</asrwt>
<pdfrwt beam="1">  1        1 0.12539492E+00 0.43830604E+02</pdfrwt>
<pdfrwt beam="2">  1       -1 0.90654273E-04 0.43830604E+02</pdfrwt>
<totfact> 0.90981777E+05</totfact>
</mgrwt>
</event>
<event>
 4    1  0.3946801E-002  0.5653939E+02  0.7818608E-02  0.1412956E+00
          1   -1    0    0    0  501  0.00000000000E+00  0.00000000000E+00  0.42171663063E+01  0.42171693180E+01  0.50400000000E-02 0.  1.
         -1   -1    0    0  501    0 -0.00000000000E+00 -0.00000000000E+00 -0.18950530194E+03  0.18950530200E+03  0.50400000000E-02 0.  1.
          2    1    1    2    0  502  0.12776427047E+01 -0.27351292769E+02 -0.68549875537E+02  0.73816062138E+02  0.25500000000E-02 0. -1.
         -2    1    1    2  502    0 -0.12776427047E+01  0.27351292769E+02 -0.11673826009E+03  0.11990640918E+03  0.25500000000E-02 0. -1.
<mgrwt>
<rscale>  0 0.56539391E+02</rscale>
<asrwt>0</asrwt>
<pdfrwt beam="1">  1        1 0.64879520E-03 0.56539391E+02</pdfrwt>
<pdfrwt beam="2">  1       -1 0.29154655E-01 0.56539391E+02</pdfrwt>
<totfact> 0.23942440E+05</totfact>
</mgrwt>
</event>
<event>
 4    1  0.3946801E-002  0.1274949E+03  0.7818608E-02  0.1231221E+00
          1   -1    0    0    0  501  0.00000000000E+00  0.00000000000E+00  0.49524910308E+01  0.49524935953E+01  0.50400000000E-02 0. -1.
         -1   -1    0    0  501    0 -0.00000000000E+00 -0.00000000000E+00 -0.82054387596E+03  0.82054387598E+03  0.50400000000E-02 0. -1.
          2    1    1    2    0  502  0.45247993052E+02 -0.65639222501E+01 -0.12017789183E+03  0.12858145916E+03  0.25500000000E-02 0.  1.
         -2    1    1    2  502    0 -0.45247993052E+02  0.65639222501E+01 -0.69541349311E+03  0.69691491041E+03  0.25500000000E-02 0.  1.
<mgrwt>
<rscale>  0 0.12749490E+03</rscale>
<asrwt>0</asrwt>
<pdfrwt beam="1">  1        1 0.76192255E-03 0.12749490E+03</pdfrwt>
<pdfrwt beam="2">  1       -1 0.12623741E+00 0.12749490E+03</pdfrwt>
<totfact> 0.13041257E+04</totfact>
</mgrwt>
</event>
<event>
 4    1  0.3946801E-002  0.4599532E+02  0.7818608E-02  0.1468222E+00
         -1   -1    0    0  501    0 -0.00000000000E+00  0.00000000000E+00  0.43272779108E+00  0.43275714064E+00  0.50400000000E-02 0. -1.
          1   -1    0    0    0  501  0.00000000000E+00 -0.00000000000E+00 -0.12221872699E+04  0.12221872699E+04  0.50400000000E-02 0. -1.
          2    1    1    2    0  502  0.21227555087E+02  0.88313544238E+01 -0.59655230838E+03  0.59699519140E+03  0.25500000000E-02 0. -1.
         -2    1    1    2  502    0 -0.21227555087E+02 -0.88313544238E+01 -0.62520223368E+03  0.62562483560E+03  0.25500000000E-02 0. -1.
<mgrwt>
<rscale>  0 0.45995319E+02</rscale>
<asrwt>0</asrwt>
<pdfrwt beam="2">  1        1 0.18802605E+00 0.45995319E+02</pdfrwt>
<pdfrwt beam="1">  1       -1 0.66576743E-04 0.45995319E+02</pdfrwt>
<totfact> 0.72494511E+05</totfact>
</mgrwt>
</event>
<event>
 4    1  0.3946801E-002  0.7212829E+02  0.7818608E-02  0.1353002E+00
         -1   -1    0    0  501    0 -0.00000000000E+00  0.00000000000E+00  0.14088220244E+03  0.14088220253E+03  0.50400000000E-02 0.  1.
          1   -1    0    0    0  501  0.00000000000E+00 -0.00000000000E+00 -0.92319864230E+01  0.92319877988E+01  0.50400000000E-02 0.  1.
          2    1    1    2    0  502  0.25199211848E+02  0.10408992204E+02  0.16694630910E+02  0.31969643479E+02  0.25500000000E-02 0. -1.
         -2    1    1    2  502    0 -0.25199211848E+02 -0.10408992204E+02  0.11495558510E+03  0.11814454685E+03  0.25500000000E-02 0. -1.
<mgrwt>
<rscale>  0 0.72128294E+02</rscale>
<asrwt>0</asrwt>
<pdfrwt beam="2">  1        1 0.14203059E-02 0.72128294E+02</pdfrwt>
<pdfrwt beam="1">  1       -1 0.21674183E-01 0.72128294E+02</pdfrwt>
<totfact> 0.13872572E+05</totfact>
</mgrwt>
</event>
<event>
 4    1  0.3946801E-002  0.8536075E+02  0.7818608E-02  0.1314492E+00
          1   -1    0    0    0  501  0.00000000000E+00  0.00000000000E+00  0.17685791525E+03  0.17685791532E+03  0.50400000000E-02 0. -1.
         -1   -1    0    0  501    0 -0.00000000000E+00 -0.00000000000E+00 -0.10299875122E+02  0.10299876355E+02  0.50400000000E-02 0. -1.
          2    1    1    2    0  502  0.56798782110E+01 -0.35653347046E+02  0.33368144917E+02  0.49161522289E+02  0.25500000000E-02 0.  1.
         -2    1    1    2  502    0 -0.56798782110E+01  0.35653347046E+02  0.13318989521E+03  0.13799626939E+03  0.25500000000E-02 0.  1.
<mgrwt>
<rscale>  0 0.85360754E+02</rscale>
<asrwt>0</asrwt>
<pdfrwt beam="1">  1        1 0.27208911E-01 0.85360754E+02</pdfrwt>
<pdfrwt beam="2">  1       -1 0.15845962E-02 0.85360754E+02</pdfrwt>
<totfact> 0.13794702E+05</totfact>
</mgrwt>
</event>
<event>
 4    1  0.3946801E-002  0.4602292E+02  0.7818608E-02  0.1468055E+00
         -1   -1    0    0  501    0 -0.00000000000E+00  0.00000000000E+00  0.94471892095E+02  0.94471892230E+02  0.50400000000E-02 0. -1.
          1   -1    0    0    0  501  0.00000000000E+00 -0.00000000000E+00 -0.56051295071E+01  0.56051317730E+01  0.50400000000E-02 0. -1.
          2    1    1    2    0  502 -0.16633880807E+02  0.15695725875E+02  0.49971114231E+02  0.54955928392E+02  0.25500000000E-02 0.  1.
         -2    1    1    2  502    0  0.16633880807E+02 -0.15695725875E+02  0.38895648357E+02  0.45121095611E+02  0.25500000000E-02 0.  1.
<mgrwt>
<rscale>  0 0.46022921E+02</rscale>
<asrwt>0</asrwt>
<pdfrwt beam="2">  1        1 0.86232780E-03 0.46022921E+02</pdfrwt>
<pdfrwt beam="1">  1       -1 0.14534137E-01 0.46022921E+02</pdfrwt>
<totfact> 0.46070830E+05</totfact>
</mgrwt>
</event>
<event>
 4    1  0.3946801E-002  0.4622080E+02  0.7818608E-02  0.1466861E+00
         -1   -1    0    0  501    0 -0.00000000000E+00  0.00000000000E+00  0.10456314286E+02  0.10456315501E+02  0.50400000000E-02 0. -1.
          1   -1    0    0    0  501  0.00000000000E+00 -0.00000000000E+00 -0.51078277849E+02  0.51078278097E+02  0.50400000000E-02 0. -1.
          2    1    1    2    0  502 -0.12634170130E+02 -0.17232153948E+02 -0.32032721503E+02  0.38505384532E+02  0.25500000000E-02 0. -1.
         -2    1    1    2  502    0  0.12634170130E+02  0.17232153948E+02 -0.85892420594E+01  0.23029209066E+02  0.25500000000E-02 0. -1.
<mgrwt>
<rscale>  0 0.46220799E+02</rscale>
<asrwt>0</asrwt>
<pdfrwt beam="2">  1        1 0.78581966E-02 0.46220799E+02</pdfrwt>
<pdfrwt beam="1">  1       -1 0.16086639E-02 0.46220799E+02</pdfrwt>
<totfact> 0.57040506E+05</totfact>
</mgrwt>
</event>
<event>
 4    1  0.3946801E-002  0.4652556E+02  0.7818608E-02  0.1465037E+00
          1   -1    0    0    0  501  0.00000000000E+00  0.00000000000E+00  0.19473195147E+02  0.19473195799E+02  0.50400000000E-02 0. -1.
         -1   -1    0    0  501    0 -0.00000000000E+00 -0.00000000000E+00 -0.27789834625E+02  0.27789835082E+02  0.50400000000E-02 0. -1.
          2    1    1    2    0  502 -0.11342657595E+02 -0.19429550757E+02  0.18509830803E+01  0.22574088438E+02  0.25500000000E-02 0.  1.
         -2    1    1    2  502    0  0.11342657595E+02  0.19429550757E+02 -0.10167622558E+02  0.24688942443E+02  0.25500000000E-02 0.  1.
<mgrwt>
<rscale>  0 0.46525559E+02</rscale>
<asrwt>0</asrwt>
<pdfrwt beam="1">  1        1 0.29958763E-02 0.46525559E+02</pdfrwt>
<pdfrwt beam="2">  1       -1 0.42753593E-02 0.46525559E+02</pdfrwt>
<totfact> 0.51580959E+05</totfact>
</mgrwt>
</event>
<event>
 4    1  0.3946801E-002  0.4881493E+02  0.7818608E-02  0.1451840E+00
         -1   -1    0    0  501    0 -0.00000000000E+00  0.00000000000E+00  0.40713286656E+03  0.40713286659E+03  0.50400000000E-02 0.  1.
          1   -1    0    0    0  501  0.00000000000E+00 -0.00000000000E+00 -0.14632140922E+01  0.14632227723E+01  0.50400000000E-02 0.  1.
          2    1    1    2    0  502  0.13450458963E+02 -0.19020322885E+02  0.26379274992E+03  0.26481937703E+03  0.25500000000E-02 0. -1.
         -2    1    1    2  502    0 -0.13450458963E+02  0.19020322885E+02  0.14187690255E+03  0.14377671234E+03  0.25500000000E-02 0. -1.
<mgrwt>
<rscale>  0 0.48814929E+02</rscale>
<asrwt>0</asrwt>
<pdfrwt beam="2">  1        1 0.22511064E-03 0.48814929E+02</pdfrwt>
<pdfrwt beam="1">  1       -1 0.62635796E-01 0.48814929E+02</pdfrwt>
<totfact> 0.25975425E+05</totfact>
</mgrwt>
</event>
<event>
 4    1  0.3946801E-002  0.4510932E+02  0.7818608E-02  0.1473660E+00
         -1   -1    0    0  501    0 -0.00000000000E+00  0.00000000000E+00  0.17364161068E+01  0.17364234211E+01  0.50400000000E-02 0.  1.
          1   -1    0    0    0  501  0.00000000000E+00 -0.00000000000E+00 -0.29296643968E+03  0.29296643972E+03  0.50400000000E-02 0.  1.
          2    1    1    2    0  502  0.20058316100E+02 -0.10272851346E+02 -0.13960882960E+03  0.14141602748E+03  0.25500000000E-02 0. -1.
         -2    1    1    2  502    0 -0.20058316100E+02  0.10272851346E+02 -0.15162119397E+03  0.15328683566E+03  0.25500000000E-02 0. -1.
<mgrwt>
<rscale>  0 0.45109322E+02</rscale>
<asrwt>0</asrwt>
<pdfrwt beam="2">  1        1 0.45071721E-01 0.45109322E+02</pdfrwt>
<pdfrwt beam="1">  1       -1 0.26714174E-03 0.45109322E+02</pdfrwt>
<totfact> 0.77580146E+05</totfact>
</mgrwt>
</event>
<event>
 4    1  0.3946801E-002  0.5598283E+02  0.7818608E-02  0.1415507E+00
         -1   -1    0    0  501    0 -0.00000000000E+00  0.00000000000E+00  0.47129469161E+03  0.47129469164E+03  0.50400000000E-02 0. -1.
          1   -1    0    0    0  501  0.00000000000E+00 -0.00000000000E+00 -0.16624786941E+01  0.16624863338E+01  0.50400000000E-02 0. -1.
          2    1    1    2    0  502 -0.11218311535E+02  0.25569759924E+02  0.21822640610E+03  0.22000551689E+03  0.25500000000E-02 0.  1.
         -2    1    1    2  502    0  0.11218311535E+02 -0.25569759924E+02  0.25140580682E+03  0.25295166108E+03  0.25500000000E-02 0.  1.
<mgrwt>
<rscale>  0 0.55982826E+02</rscale>
<asrwt>0</asrwt>
<pdfrwt beam="2">  1        1 0.25576649E-03 0.55982826E+02</pdfrwt>
<pdfrwt beam="1">  1       -1 0.72506892E-01 0.55982826E+02</pdfrwt>
<totfact> 0.17052372E+05</totfact>
</mgrwt>
</event>
<event>
 4    1  0.3946801E-002  0.4547662E+02  0.7818608E-02  0.1471388E+00
         -1   -1    0    0  501    0 -0.00000000000E+00  0.00000000000E+00  0.19587604020E+01  0.19587668861E+01  0.50400000000E-02 0. -1.
          1   -1    0    0    0  501  0.00000000000E+00 -0.00000000000E+00 -0.26395768856E+03  0.26395768861E+03  0.50400000000E-02 0. -1.
          2    1    1    2    0  502  0.20836496608E+01 -0.22380517032E+02 -0.11091189755E+03  0.11316659473E+03  0.25500000000E-02 0. -1.
         -2    1    1    2  502    0 -0.20836496608E+01  0.22380517032E+02 -0.15108703061E+03  0.15274986076E+03  0.25500000000E-02 0. -1.
<mgrwt>
<rscale>  0 0.45476620E+02</rscale>
<asrwt>0</asrwt>
<pdfrwt beam="2">  1        1 0.40608848E-01 0.45476620E+02</pdfrwt>
<pdfrwt beam="1">  1       -1 0.30134847E-03 0.45476620E+02</pdfrwt>
<totfact> 0.74673501E+05</totfact>
</mgrwt>
</event>
<event>
 4    1  0.3946801E-002  0.5074961E+02  0.7818608E-02  0.1441340E+00
          1   -1    0    0    0  501  0.00000000000E+00  0.00000000000E+00  0.13864854667E+03  0.13864854676E+03  0.50400000000E-02 0.  1.
         -1   -1    0    0  501    0 -0.00000000000E+00 -0.00000000000E+00 -0.46439759513E+01  0.46439786862E+01  0.50400000000E-02 0.  1.
          2    1    1    2    0  502  0.14611858017E+02 -0.19658505729E+02  0.85713823484E+02  0.89144953783E+02  0.25500000000E-02 0. -1.
         -2    1    1    2  502    0 -0.14611858017E+02  0.19658505729E+02  0.48290747233E+02  0.54147571663E+02  0.25500000000E-02 0. -1.
<mgrwt>
<rscale>  0 0.50749610E+02</rscale>
<asrwt>0</asrwt>
<pdfrwt beam="1">  1        1 0.21330548E-01 0.50749610E+02</pdfrwt>
<pdfrwt beam="2">  1       -1 0.71445797E-03 0.50749610E+02</pdfrwt>
<totfact> 0.50982308E+05</totfact>
</mgrwt>
</event>
<event>
 4    1  0.3946801E-002  0.6773834E+02  0.7818608E-02  0.1367957E+00
         -1   -1    0    0  501    0 -0.00000000000E+00  0.00000000000E+00  0.35063906372E+02  0.35063906735E+02  0.50400000000E-02 0.  1.
          1   -1    0    0    0  501  0.00000000000E+00 -0.00000000000E+00 -0.32715139564E+02  0.32715139952E+02  0.50400000000E-02 0.  1.
          2    1    1    2    0  502  0.25815713111E+02 -0.84154746527E+01  0.21431286227E+02  0.34591491626E+02  0.25500000000E-02 0. -1.
         -2    1    1    2  502    0 -0.25815713111E+02  0.84154746527E+01 -0.19082519418E+02  0.33187555061E+02  0.25500000000E-02 0. -1.
<mgrwt>
<rscale>  0 0.67738338E+02</rscale>
<asrwt>0</asrwt>
<pdfrwt beam="2">  1        1 0.50330985E-02 0.67738338E+02</pdfrwt>
<pdfrwt beam="1">  1       -1 0.53944472E-02 0.67738338E+02</pdfrwt>
<totfact> 0.20076480E+05</totfact>
</mgrwt>
</event>
<event>
 4    1  0.3946801E-002  0.5399477E+02  0.7818608E-02  0.1424913E+00
         -1   -1    0    0  501    0 -0.00000000000E+00  0.00000000000E+00  0.12846472128E+01  0.12846570993E+01  0.50400000000E-02 0.  1.
          1   -1    0    0    0  501  0.00000000000E+00 -0.00000000000E+00 -0.56735878478E+03  0.56735878481E+03  0.50400000000E-02 0.  1.
          2    1    1    2    0  502  0.23633424605E+02  0.10448898051E+02 -0.36538500721E+03  0.36629758630E+03  0.25500000000E-02 0. -1.
         -2    1    1    2  502    0 -0.23633424605E+02 -0.10448898051E+02 -0.20068913036E+03  0.20234585560E+03  0.25500000000E-02 0. -1.
<mgrwt>
<rscale>  0 0.53994766E+02</rscale>
<asrwt>0</asrwt>
<pdfrwt beam="2">  1        1 0.87285768E-01 0.53994766E+02</pdfrwt>
<pdfrwt beam="1">  1       -1 0.19763925E-03 0.53994766E+02</pdfrwt>
<totfact> 0.54417735E+05</totfact>
</mgrwt>
</event>
<event>
 4    1  0.3946801E-002  0.4350818E+02  0.7818608E-02  0.1483876E+00
          1   -1    0    0    0  501  0.00000000000E+00  0.00000000000E+00  0.77266446532E+03  0.77266446534E+03  0.50400000000E-02 0.  1.
         -1   -1    0    0  501    0 -0.00000000000E+00 -0.00000000000E+00 -0.61246807619E+00  0.61248881292E+00  0.50400000000E-02 0.  1.
          2    1    1    2    0  502  0.20347997098E+02  0.34705499781E+01  0.26397920443E+03  0.26478501861E+03  0.25500000000E-02 0.  1.
         -2    1    1    2  502    0 -0.20347997098E+02 -0.34705499781E+01  0.50807279282E+03  0.50849193554E+03  0.25500000000E-02 0.  1.
<mgrwt>
<rscale>  0 0.43508176E+02</rscale>
<asrwt>0</asrwt>
<pdfrwt beam="1">  1        1 0.11887147E+00 0.43508176E+02</pdfrwt>
<pdfrwt beam="2">  1       -1 0.94227447E-04 0.43508176E+02</pdfrwt>
<totfact> 0.93049672E+05</totfact>
</mgrwt>
</event>
<event>
 4    1  0.3946801E-002  0.4434754E+02  0.7818608E-02  0.1478456E+00
          1   -1    0    0    0  501  0.00000000000E+00  0.00000000000E+00  0.68865020754E+03  0.68865020756E+03  0.50400000000E-02 0. -1.
         -1   -1    0    0  501    0 -0.00000000000E+00 -0.00000000000E+00 -0.71396192054E+00  0.71397970950E+00  0.50400000000E-02 0. -1.
          2    1    1    2    0  502  0.12156624652E+02  0.17433066849E+02  0.24567911327E+03  0.24659667890E+03  0.25500000000E-02 0. -1.
         -2    1    1    2  502    0 -0.12156624652E+02 -0.17433066849E+02  0.44225713235E+03  0.44276750837E+03  0.25500000000E-02 0. -1.
<mgrwt>
<rscale>  0 0.44347544E+02</rscale>
<asrwt>0</asrwt>
<pdfrwt beam="1">  1        1 0.10594562E+00 0.44347544E+02</pdfrwt>
<pdfrwt beam="2">  1       -1 0.10984225E-03 0.44347544E+02</pdfrwt>
<totfact> 0.89170710E+05</totfact>
</mgrwt>
</event>
<event>
 4    1  0.3946801E-002  0.7393189E+02  0.7818608E-02  0.1347211E+00
         -1   -1    0    0  501    0 -0.00000000000E+00  0.00000000000E+00  0.30276994615E+03  0.30276994619E+03  0.50400000000E-02 0.  1.
          1   -1    0    0    0  501  0.00000000000E+00 -0.00000000000E+00 -0.45132636778E+01  0.45132664919E+01  0.50400000000E-02 0.  1.
          2    1    1    2    0  502  0.16013231078E+01 -0.36021080093E+02  0.18299609941E+03  0.18651448966E+03  0.25500000000E-02 0. -1.
         -2    1    1    2  502    0 -0.16013231078E+01  0.36021080093E+02  0.11526058306E+03  0.12076872302E+03  0.25500000000E-02 0. -1.
<mgrwt>
<rscale>  0 0.73931889E+02</rscale>
<asrwt>0</asrwt>
<pdfrwt beam="2">  1        1 0.69434820E-03 0.73931889E+02</pdfrwt>
<pdfrwt beam="1">  1       -1 0.46580011E-01 0.73931889E+02</pdfrwt>
<totfact> 0.10400438E+05</totfact>
</mgrwt>
</event>
<event>
 4    1  0.3946801E-002  0.5400166E+02  0.7818608E-02  0.1424880E+00
          1   -1    0    0    0  501  0.00000000000E+00  0.00000000000E+00  0.26597894738E+02  0.26597895215E+02  0.50400000000E-02 0.  1.
         -1   -1    0    0  501    0 -0.00000000000E+00 -0.00000000000E+00 -0.27409865381E+02  0.27409865845E+02  0.50400000000E-02 0.  1.
          2    1    1    2    0  502 -0.91486360818E+01 -0.24526579208E+02 -0.70244446877E+01  0.27103384649E+02  0.25500000000E-02 0. -1.
         -2    1    1    2  502    0  0.91486360818E+01  0.24526579208E+02  0.62124740440E+01  0.26904376410E+02  0.25500000000E-02 0. -1.
<mgrwt>
<rscale>  0 0.54001657E+02</rscale>
<asrwt>0</asrwt>
<pdfrwt beam="1">  1        1 0.40919839E-02 0.54001657E+02</pdfrwt>
<pdfrwt beam="2">  1       -1 0.42169024E-02 0.54001657E+02</pdfrwt>
<totfact> 0.35965837E+05</totfact>
</mgrwt>
</event>
<event>
 4    1  0.3946801E-002  0.5335350E+02  0.7818608E-02  0.1428050E+00
         -1   -1    0    0  501    0 -0.00000000000E+00  0.00000000000E+00  0.44644419128E+01  0.44644447576E+01  0.50400000000E-02 0. -1.
          1   -1    0    0    0  501  0.00000000000E+00 -0.00000000000E+00 -0.15940375261E+03  0.15940375269E+03  0.50400000000E-02 0. -1.
          2    1    1    2    0  502  0.22450828473E+02  0.11713497460E+02 -0.10324047749E+03  0.10630071458E+03  0.25500000000E-02 0.  1.
         -2    1    1    2  502    0 -0.22450828473E+02 -0.11713497460E+02 -0.51698833202E+02  0.57567482859E+02  0.25500000000E-02 0.  1.
<mgrwt>
<rscale>  0 0.53353502E+02</rscale>
<asrwt>0</asrwt>
<pdfrwt beam="2">  1        1 0.24523650E-01 0.53353502E+02</pdfrwt>
<pdfrwt beam="1">  1       -1 0.68683756E-03 0.53353502E+02</pdfrwt>
<totfact> 0.45942690E+05</totfact>
</mgrwt>
</event>
<event>
 4    1  0.3946801E-002  0.4193693E+02  0.7818608E-02  0.1494423E+00
          1   -1    0    0    0  501  0.00000000000E+00  0.00000000000E+00  0.50859691254E+00  0.50862188416E+00  0.50400000000E-02 0. -1.
         -1   -1    0    0  501    0 -0.00000000000E+00 -0.00000000000E+00 -0.86446792184E+03  0.86446792185E+03  0.50400000000E-02 0. -1.
          2    1    1    2    0  502 -0.15282697319E+01  0.20550309861E+02 -0.51193080055E+03  0.51234538682E+03  0.25500000000E-02 0. -1.
         -2    1    1    2  502    0  0.15282697319E+01 -0.20550309861E+02 -0.35202852438E+03  0.35263115691E+03  0.25500000000E-02 0. -1.
<mgrwt>
<rscale>  0 0.41936930E+02</rscale>
<asrwt>0</asrwt>
<pdfrwt beam="1">  1        1 0.78248293E-04 0.41936930E+02</pdfrwt>
<pdfrwt beam="2">  1       -1 0.13299389E+00 0.41936930E+02</pdfrwt>
<totfact> 0.21589028E+05</totfact>
</mgrwt>
</event>
<event>
 4    1  0.3946801E-002  0.4735104E+02  0.7818608E-02  0.1460176E+00
         -1   -1    0    0  501    0 -0.00000000000E+00  0.00000000000E+00  0.31163154576E+01  0.31163195332E+01  0.50400000000E-02 0. -1.
          1   -1    0    0    0  501  0.00000000000E+00 -0.00000000000E+00 -0.17986945689E+03  0.17986945696E+03  0.50400000000E-02 0. -1.
          2    1    1    2    0  502  0.93898569147E+01 -0.21431618633E+02 -0.10233502423E+03  0.10497590619E+03  0.25500000000E-02 0. -1.
         -2    1    1    2  502    0 -0.93898569147E+01  0.21431618633E+02 -0.74418117200E+02  0.78009870300E+02  0.25500000000E-02 0. -1.
<mgrwt>
<rscale>  0 0.47351044E+02</rscale>
<asrwt>0</asrwt>
<pdfrwt beam="2">  1        1 0.27672216E-01 0.47351044E+02</pdfrwt>
<pdfrwt beam="1">  1       -1 0.47943361E-03 0.47351044E+02</pdfrwt>
<totfact> 0.63235079E+05</totfact>
</mgrwt>
</event>
<event>
 4    1  0.3946801E-002  0.5117726E+02  0.7818608E-02  0.1439093E+00
         -1   -1    0    0  501    0 -0.00000000000E+00  0.00000000000E+00  0.11104448544E+02  0.11104449688E+02  0.50400000000E-02 0.  1.
          1   -1    0    0    0  501  0.00000000000E+00 -0.00000000000E+00 -0.58965370719E+02  0.58965370934E+02  0.50400000000E-02 0.  1.
          2    1    1    2    0  502  0.22860495719E+02 -0.11318087053E+02 -0.21166045032E+02  0.33146686529E+02  0.25500000000E-02 0. -1.
         -2    1    1    2  502    0 -0.22860495719E+02  0.11318087053E+02 -0.26694877143E+02  0.36923134093E+02  0.25500000000E-02 0. -1.
<mgrwt>
<rscale>  0 0.51177260E+02</rscale>
<asrwt>0</asrwt>
<pdfrwt beam="2">  1        1 0.90715954E-02 0.51177260E+02</pdfrwt>
<pdfrwt beam="1">  1       -1 0.17083768E-02 0.51177260E+02</pdfrwt>
<totfact> 0.44688538E+05</totfact>
</mgrwt>
</event>
<event>
 4    1  0.3946801E-002  0.1010159E+03  0.7818608E-02  0.1278174E+00
          1   -1    0    0    0  501  0.00000000000E+00  0.00000000000E+00  0.18162925743E+03  0.18162925750E+03  0.50400000000E-02 0.  1.
         -1   -1    0    0  501    0 -0.00000000000E+00 -0.00000000000E+00 -0.14045373524E+02  0.14045374428E+02  0.50400000000E-02 0.  1.
          2    1    1    2    0  502 -0.24463724769E+02 -0.37175022929E+02  0.37520947290E+02  0.58208913848E+02  0.25500000000E-02 0.  1.
         -2    1    1    2  502    0  0.24463724769E+02  0.37175022929E+02  0.13006293662E+03  0.13746571808E+03  0.25500000000E-02 0.  1.
<mgrwt>
<rscale>  0 0.10101586E+03</rscale>
<asrwt>0</asrwt>
<pdfrwt beam="1">  1        1 0.27942961E-01 0.10101586E+03</pdfrwt>
<pdfrwt beam="2">  1       -1 0.21608269E-02 0.10101586E+03</pdfrwt>
<totfact> 0.88098344E+04</totfact>
</mgrwt>
</event>
<event>
 4    1  0.3946801E-002  0.9877501E+02  0.7818608E-02  0.1282893E+00
          1   -1    0    0    0  501  0.00000000000E+00  0.00000000000E+00  0.81799549121E+01  0.81799564648E+01  0.50400000000E-02 0.  1.
         -1   -1    0    0  501    0 -0.00000000000E+00 -0.00000000000E+00 -0.29818324749E+03  0.29818324753E+03  0.50400000000E-02 0.  1.
          2    1    1    2    0  502  0.15787385975E+02 -0.40868427203E+02 -0.74297086155E+02  0.86252692222E+02  0.25500000000E-02 0. -1.
         -2    1    1    2  502    0 -0.15787385975E+02  0.40868427203E+02 -0.21570620642E+03  0.22011051177E+03  0.25500000000E-02 0. -1.
<mgrwt>
<rscale>  0 0.98775012E+02</rscale>
<asrwt>0</asrwt>
<pdfrwt beam="1">  1        1 0.12584550E-02 0.98775012E+02</pdfrwt>
<pdfrwt beam="2">  1       -1 0.45874338E-01 0.98775012E+02</pdfrwt>
<totfact> 0.49228633E+04</totfact>
</mgrwt>
</event>
<event>
 4    1  0.3946801E-002  0.5039545E+02  0.7818608E-02  0.1443220E+00
          1   -1    0    0    0  501  0.00000000000E+00  0.00000000000E+00  0.52864647415E+03  0.52864647417E+03  0.50400000000E-02 0.  1.
         -1   -1    0    0  501    0 -0.00000000000E+00 -0.00000000000E+00 -0.12010342952E+01  0.12010448700E+01  0.50400000000E-02 0.  1.
          2    1    1    2    0  502  0.24077866975E+02 -0.32732883536E+01  0.19361275958E+03  0.19513164473E+03  0.25500000000E-02 0.  1.
         -2    1    1    2  502    0 -0.24077866975E+02  0.32732883536E+01  0.33383268027E+03  0.33471587432E+03  0.25500000000E-02 0.  1.
<mgrwt>
<rscale>  0 0.50395450E+02</rscale>
<asrwt>0</asrwt>
<pdfrwt beam="1">  1        1 0.81330333E-01 0.50395450E+02</pdfrwt>
<pdfrwt beam="2">  1       -1 0.18477508E-03 0.50395450E+02</pdfrwt>
<totfact> 0.64256801E+05</totfact>
</mgrwt>
</event>
<event>
 4    1  0.3946801E-002  0.4801795E+02  0.7818608E-02  0.1456335E+00
          1   -1    0    0    0  501  0.00000000000E+00  0.00000000000E+00  0.28450384200E+03  0.28450384204E+03  0.50400000000E-02 0. -1.
         -1   -1    0    0  501    0 -0.00000000000E+00 -0.00000000000E+00 -0.20260887746E+01  0.20260950432E+01  0.50400000000E-02 0. -1.
          2    1    1    2    0  502 -0.80428268106E+01  0.19710724889E+02  0.20747984968E+03  0.20856914386E+03  0.25500000000E-02 0. -1.
         -2    1    1    2  502    0  0.80428268106E+01 -0.19710724889E+02  0.74997903539E+02  0.77960793226E+02  0.25500000000E-02 0. -1.
<mgrwt>
<rscale>  0 0.48017953E+02</rscale>
<asrwt>0</asrwt>
<pdfrwt beam="1">  1        1 0.43769817E-01 0.48017953E+02</pdfrwt>
<pdfrwt beam="2">  1       -1 0.31170649E-03 0.48017953E+02</pdfrwt>
<totfact> 0.66133473E+05</totfact>
</mgrwt>
</event>
<event>
 4    1  0.3946801E-002  0.6137484E+02  0.7818608E-02  0.1392151E+00
          1   -1    0    0    0  501  0.00000000000E+00  0.00000000000E+00  0.12328586121E+03  0.12328586131E+03  0.50400000000E-02 0.  1.
         -1   -1    0    0  501    0 -0.00000000000E+00 -0.00000000000E+00 -0.76384896212E+01  0.76384912840E+01  0.50400000000E-02 0.  1.
          2    1    1    2    0  502 -0.29498159021E+02 -0.83682650373E+01  0.55169052326E+02  0.63117300215E+02  0.25500000000E-02 0. -1.
         -2    1    1    2  502    0  0.29498159021E+02  0.83682650373E+01  0.60478319262E+02  0.67807052382E+02  0.25500000000E-02 0. -1.
<mgrwt>
<rscale>  0 0.61374845E+02</rscale>
<asrwt>0</asrwt>
<pdfrwt beam="1">  1        1 0.18967054E-01 0.61374845E+02</pdfrwt>
<pdfrwt beam="2">  1       -1 0.11751525E-02 0.61374845E+02</pdfrwt>
<totfact> 0.30834484E+05</totfact>
</mgrwt>
</event>
<event>
 4    1  0.3946801E-002  0.7055228E+02  0.7818608E-02  0.1358225E+00
         -1   -1    0    0  501    0 -0.00000000000E+00  0.00000000000E+00  0.86451849727E+03  0.86451849728E+03  0.50400000000E-02 0. -1.
          1   -1    0    0    0  501  0.00000000000E+00 -0.00000000000E+00 -0.14394164772E+01  0.14394253007E+01  0.50400000000E-02 0. -1.
          2    1    1    2    0  502 -0.27092349451E+02  0.46228997435E+01  0.70296942798E+03  0.70350649128E+03  0.25500000000E-02 0.  1.
         -2    1    1    2  502    0  0.27092349451E+02 -0.46228997435E+01  0.16010965282E+03  0.16245143130E+03  0.25500000000E-02 0.  1.
<mgrwt>
<rscale>  0 0.70552278E+02</rscale>
<asrwt>0</asrwt>
<pdfrwt beam="2">  1        1 0.22144900E-03 0.70552278E+02</pdfrwt>
<pdfrwt beam="1">  1       -1 0.13300307E+00 0.70552278E+02</pdfrwt>
<totfact> 0.58830172E+04</totfact>
</mgrwt>
</event>
<event>
 4    1  0.3946801E-002  0.4408041E+02  0.7818608E-02  0.1480165E+00
          1   -1    0    0    0  501  0.00000000000E+00  0.00000000000E+00  0.57353861101E+01  0.57353883246E+01  0.50400000000E-02 0. -1.
         -1   -1    0    0  501    0 -0.00000000000E+00 -0.00000000000E+00 -0.84697097322E+02  0.84697097472E+02  0.50400000000E-02 0. -1.
          2    1    1    2    0  502 -0.28476414499E+01 -0.21681440825E+02 -0.45127876439E+02  0.50146975746E+02  0.25500000000E-02 0.  1.
         -2    1    1    2  502    0  0.28476414499E+01  0.21681440825E+02 -0.33833834773E+02  0.40285510051E+02  0.25500000000E-02 0.  1.
<mgrwt>
<rscale>  0 0.44080411E+02</rscale>
<asrwt>0</asrwt>
<pdfrwt beam="1">  1        1 0.88236734E-03 0.44080411E+02</pdfrwt>
<pdfrwt beam="2">  1       -1 0.13030322E-01 0.44080411E+02</pdfrwt>
<totfact> 0.52062740E+05</totfact>
</mgrwt>
</event>
<event>
 4    1  0.3946801E-002  0.5330839E+02  0.7818608E-02  0.1428272E+00
          1   -1    0    0    0  501  0.00000000000E+00  0.00000000000E+00  0.30033875842E+03  0.30033875847E+03  0.50400000000E-02 0. -1.
         -1   -1    0    0  501    0 -0.00000000000E+00 -0.00000000000E+00 -0.23654795485E+01  0.23654849177E+01  0.50400000000E-02 0. -1.
          2    1    1    2    0  502 -0.17684763444E+02  0.16141651224E+02  0.21548464110E+03  0.21681082611E+03  0.25500000000E-02 0.  1.
         -2    1    1    2  502    0  0.17684763444E+02 -0.16141651224E+02  0.82488637771E+02  0.85893417269E+02  0.25500000000E-02 0.  1.
<mgrwt>
<rscale>  0 0.53308386E+02</rscale>
<asrwt>0</asrwt>
<pdfrwt beam="1">  1        1 0.46205983E-01 0.53308386E+02</pdfrwt>
<pdfrwt beam="2">  1       -1 0.36392019E-03 0.53308386E+02</pdfrwt>
<totfact> 0.51425774E+05</totfact>
</mgrwt>
</event>
<event>
 4    1  0.3946801E-002  0.6595134E+02  0.7818608E-02  0.1374428E+00
         -1   -1    0    0  501    0 -0.00000000000E+00  0.00000000000E+00  0.30748717712E+02  0.30748718125E+02  0.50400000000E-02 0.  1.
          1   -1    0    0    0  501  0.00000000000E+00 -0.00000000000E+00 -0.35363903138E+02  0.35363903497E+02  0.50400000000E-02 0.  1.
          2    1    1    2    0  502  0.17378288510E+02 -0.22988404922E+02  0.13760424475E+02  0.31934635752E+02  0.25500000000E-02 0. -1.
         -2    1    1    2  502    0 -0.17378288510E+02  0.22988404922E+02 -0.18375609900E+02  0.34177985870E+02  0.25500000000E-02 0. -1.
<mgrwt>
<rscale>  0 0.65951337E+02</rscale>
<asrwt>0</asrwt>
<pdfrwt beam="2">  1        1 0.54406006E-02 0.65951337E+02</pdfrwt>
<pdfrwt beam="1">  1       -1 0.47305720E-02 0.65951337E+02</pdfrwt>
<totfact> 0.21774807E+05</totfact>
</mgrwt>
</event>
<event>
 4    1  0.3946801E-002  0.6823540E+02  0.7818608E-02  0.1366199E+00
          1   -1    0    0    0  501  0.00000000000E+00  0.00000000000E+00  0.15439862718E+03  0.15439862726E+03  0.50400000000E-02 0.  1.
         -1   -1    0    0  501    0 -0.00000000000E+00 -0.00000000000E+00 -0.75390401444E+01  0.75390418291E+01  0.50400000000E-02 0.  1.
          2    1    1    2    0  502 -0.12118234113E+02 -0.23473318992E+02  0.22189696568E+02  0.34499723807E+02  0.25500000000E-02 0.  1.
         -2    1    1    2  502    0  0.12118234113E+02  0.23473318992E+02  0.12466989047E+03  0.12743794528E+03  0.25500000000E-02 0.  1.
<mgrwt>
<rscale>  0 0.68235404E+02</rscale>
<asrwt>0</asrwt>
<pdfrwt beam="1">  1        1 0.23753632E-01 0.68235404E+02</pdfrwt>
<pdfrwt beam="2">  1       -1 0.11598526E-02 0.68235404E+02</pdfrwt>
<totfact> 0.24298011E+05</totfact>
</mgrwt>
</event>
<event>
 4    1  0.3946801E-002  0.6641780E+02  0.7818608E-02  0.1372716E+00
         -1   -1    0    0  501    0 -0.00000000000E+00  0.00000000000E+00  0.81384385343E+03  0.81384385345E+03  0.50400000000E-02 0.  1.
          1   -1    0    0    0  501  0.00000000000E+00 -0.00000000000E+00 -0.13550846730E+01  0.13550940457E+01  0.50400000000E-02 0.  1.
          2    1    1    2    0  502  0.24735069346E+02  0.19897890140E+02  0.28656288206E+03  0.28831585989E+03  0.25500000000E-02 0. -1.
         -2    1    1    2  502    0 -0.24735069346E+02 -0.19897890140E+02  0.52592588671E+03  0.52688308760E+03  0.25500000000E-02 0. -1.
<mgrwt>
<rscale>  0 0.66417804E+02</rscale>
<asrwt>0</asrwt>
<pdfrwt beam="2">  1        1 0.20847537E-03 0.66417804E+02</pdfrwt>
<pdfrwt beam="1">  1       -1 0.12520670E+00 0.66417804E+02</pdfrwt>
<totfact> 0.72985937E+04</totfact>
</mgrwt>
</event>
<event>
 4    1  0.3946801E-002  0.4548757E+02  0.7818608E-02  0.1471321E+00
         -1   -1    0    0  501    0 -0.00000000000E+00  0.00000000000E+00  0.13993711225E+01  0.13993801986E+01  0.50400000000E-02 0. -1.
          1   -1    0    0    0  501  0.00000000000E+00 -0.00000000000E+00 -0.36965031526E+03  0.36965031530E+03  0.50400000000E-02 0. -1.
          2    1    1    2    0  502 -0.18392459893E+02 -0.12267826532E+02 -0.22767092875E+03  0.22874185002E+03  0.25500000000E-02 0. -1.
         -2    1    1    2  502    0  0.18392459893E+02  0.12267826532E+02 -0.14058001539E+03  0.14230784547E+03  0.25500000000E-02 0. -1.
<mgrwt>
<rscale>  0 0.45487566E+02</rscale>
<asrwt>0</asrwt>
<pdfrwt beam="2">  1        1 0.56869202E-01 0.45487566E+02</pdfrwt>
<pdfrwt beam="1">  1       -1 0.21528886E-03 0.45487566E+02</pdfrwt>
<totfact> 0.78992083E+05</totfact>
</mgrwt>
</event>
<event>
 4    1  0.3946801E-002  0.4416632E+02  0.7818608E-02  0.1479614E+00
          1   -1    0    0    0  501  0.00000000000E+00  0.00000000000E+00  0.16480189308E+02  0.16480190078E+02  0.50400000000E-02 0.  1.
         -1   -1    0    0  501    0 -0.00000000000E+00 -0.00000000000E+00 -0.29591045107E+02  0.29591045536E+02  0.50400000000E-02 0.  1.
          2    1    1    2    0  502 -0.17167253771E+02  0.13336391266E+02 -0.10607840114E+02  0.24188844793E+02  0.25500000000E-02 0. -1.
         -2    1    1    2  502    0  0.17167253771E+02 -0.13336391266E+02 -0.25030156852E+01  0.21882390821E+02  0.25500000000E-02 0. -1.
<mgrwt>
<rscale>  0 0.44166324E+02</rscale>
<asrwt>0</asrwt>
<pdfrwt beam="1">  1        1 0.25354138E-02 0.44166324E+02</pdfrwt>
<pdfrwt beam="2">  1       -1 0.45524686E-02 0.44166324E+02</pdfrwt>
<totfact> 0.58180419E+05</totfact>
</mgrwt>
</event>
<event>
 4    1  0.3946801E-002  0.5164123E+02  0.7818608E-02  0.1436685E+00
         -1   -1    0    0  501    0 -0.00000000000E+00  0.00000000000E+00  0.27059907171E+03  0.27059907175E+03  0.50400000000E-02 0. -1.
          1   -1    0    0    0  501  0.00000000000E+00 -0.00000000000E+00 -0.24638058323E+01  0.24638109873E+01  0.50400000000E-02 0. -1.
          2    1    1    2    0  502 -0.13161922231E+02  0.22213596409E+02  0.13324484750E+03  0.13572350369E+03  0.25500000000E-02 0.  1.
         -2    1    1    2  502    0  0.13161922231E+02 -0.22213596409E+02  0.13489041837E+03  0.13733937905E+03  0.25500000000E-02 0.  1.
<mgrwt>
<rscale>  0 0.51641235E+02</rscale>
<asrwt>0</asrwt>
<pdfrwt beam="2">  1        1 0.37904754E-03 0.51641235E+02</pdfrwt>
<pdfrwt beam="1">  1       -1 0.41630617E-01 0.51641235E+02</pdfrwt>
<totfact> 0.26903200E+05</totfact>
</mgrwt>
</event>
<event>
 4    1  0.3946801E-002  0.8224147E+02  0.7818608E-02  0.1322808E+00
          1   -1    0    0    0  501  0.00000000000E+00  0.00000000000E+00  0.58109687283E+02  0.58109687502E+02  0.50400000000E-02 0. -1.
         -1   -1    0    0  501    0 -0.00000000000E+00 -0.00000000000E+00 -0.29098674998E+02  0.29098675435E+02  0.50400000000E-02 0. -1.
          2    1    1    2    0  502 -0.13635066881E+02 -0.19071718881E+02 -0.21317443971E+02  0.31687204577E+02  0.25500000000E-02 0.  1.
         -2    1    1    2  502    0  0.13635066881E+02  0.19071718881E+02  0.50328456257E+02  0.55521158360E+02  0.25500000000E-02 0.  1.
<mgrwt>
<rscale>  0 0.82241472E+02</rscale>
<asrwt>0</asrwt>
<pdfrwt beam="1">  1        1 0.89399518E-02 0.82241472E+02</pdfrwt>
<pdfrwt beam="2">  1       -1 0.44767193E-02 0.82241472E+02</pdfrwt>
<totfact> 0.12741338E+05</totfact>
</mgrwt>
</event>
<event>
 4    1  0.3946801E-002  0.7780279E+02  0.7818608E-02  0.1335405E+00
         -1   -1    0    0  501    0 -0.00000000000E+00  0.00000000000E+00  0.87467679198E+03  0.87467679199E+03  0.50400000000E-02 0. -1.
          1   -1    0    0    0  501  0.00000000000E+00 -0.00000000000E+00 -0.17301420993E+01  0.17301494402E+01  0.50400000000E-02 0. -1.
          2    1    1    2    0  502  0.22895442212E+02 -0.68426823953E+01  0.90689993026E+02  0.93785384884E+02  0.25500000000E-02 0.  1.
         -2    1    1    2  502    0 -0.22895442212E+02  0.68426823953E+01  0.78225665685E+03  0.78262155655E+03  0.25500000000E-02 0.  1.
<mgrwt>
<rscale>  0 0.77802786E+02</rscale>
<asrwt>0</asrwt>
<pdfrwt beam="2">  1        1 0.26617655E-03 0.77802786E+02</pdfrwt>
<pdfrwt beam="1">  1       -1 0.13456552E+00 0.77802786E+02</pdfrwt>
<totfact> 0.45150892E+04</totfact>
</mgrwt>
</event>
<event>
 4    1  0.3946801E-002  0.7525051E+02  0.7818608E-02  0.1343097E+00
         -1   -1    0    0  501    0 -0.00000000000E+00  0.00000000000E+00  0.13921709766E+02  0.13921710678E+02  0.50400000000E-02 0. -1.
          1   -1    0    0    0  501  0.00000000000E+00 -0.00000000000E+00 -0.10168719583E+03  0.10168719596E+03  0.50400000000E-02 0. -1.
          2    1    1    2    0  502 -0.18622159921E+02  0.94744599319E+01  0.41898431492E+01  0.21309740103E+02  0.25500000000E-02 0.  1.
         -2    1    1    2  502    0  0.18622159921E+02 -0.94744599319E+01 -0.91955329216E+02  0.94299166533E+02  0.25500000000E-02 0.  1.
<mgrwt>
<rscale>  0 0.75250507E+02</rscale>
<asrwt>0</asrwt>
<pdfrwt beam="2">  1        1 0.15644184E-01 0.75250507E+02</pdfrwt>
<pdfrwt beam="1">  1       -1 0.21418017E-02 0.75250507E+02</pdfrwt>
<totfact> 0.17556757E+05</totfact>
</mgrwt>
</event>
<event>
 4    1  0.3946801E-002  0.4831826E+02  0.7818608E-02  0.1454629E+00
          1   -1    0    0    0  501  0.00000000000E+00  0.00000000000E+00  0.13408884052E+03  0.13408884061E+03  0.50400000000E-02 0.  1.
         -1   -1    0    0  501    0 -0.00000000000E+00 -0.00000000000E+00 -0.43528107970E+01  0.43528137148E+01  0.50400000000E-02 0.  1.
          2    1    1    2    0  502  0.19223505848E+02 -0.14551401597E+02  0.60450497755E+02  0.65081096725E+02  0.25500000000E-02 0.  1.
         -2    1    1    2  502    0 -0.19223505848E+02  0.14551401597E+02  0.69285531967E+02  0.73360557604E+02  0.25500000000E-02 0.  1.
<mgrwt>
<rscale>  0 0.48318260E+02</rscale>
<asrwt>0</asrwt>
<pdfrwt beam="1">  1        1 0.20629052E-01 0.48318260E+02</pdfrwt>
<pdfrwt beam="2">  1       -1 0.66966347E-03 0.48318260E+02</pdfrwt>
<totfact> 0.57374745E+05</totfact>
</mgrwt>
</event>
<event>
 4    1  0.3946801E-002  0.5283209E+02  0.7818608E-02  0.1430638E+00
         -1   -1    0    0  501    0 -0.00000000000E+00  0.00000000000E+00  0.14359068365E+03  0.14359068374E+03  0.50400000000E-02 0. -1.
          1   -1    0    0    0  501  0.00000000000E+00 -0.00000000000E+00 -0.48596970013E+01  0.48596996148E+01  0.50400000000E-02 0. -1.
          2    1    1    2    0  502 -0.44950548101E+01 -0.21730804724E+02  0.29097843184E+02  0.36593959559E+02  0.25500000000E-02 0.  1.
         -2    1    1    2  502    0  0.44950548101E+01  0.21730804724E+02  0.10963314347E+03  0.11185642380E+03  0.25500000000E-02 0.  1.
<mgrwt>
<rscale>  0 0.52832089E+02</rscale>
<asrwt>0</asrwt>
<pdfrwt beam="2">  1        1 0.74764580E-03 0.52832089E+02</pdfrwt>
<pdfrwt beam="1">  1       -1 0.22090878E-01 0.52832089E+02</pdfrwt>
<totfact> 0.30316753E+05</totfact>
</mgrwt>
</event>
<event>
 4    1  0.3946801E-002  0.6767279E+02  0.7818608E-02  0.1368191E+00
          1   -1    0    0    0  501  0.00000000000E+00  0.00000000000E+00  0.13471744280E+04  0.13471744280E+04  0.50400000000E-02 0.  1.
         -1   -1    0    0  501    0 -0.00000000000E+00 -0.00000000000E+00 -0.84984646065E+00  0.84986140533E+00  0.50400000000E-02 0.  1.
          2    1    1    2    0  502  0.15206656386E+02  0.13010258076E+02  0.12968101045E+03  0.13121613350E+03  0.25500000000E-02 0.  1.
         -2    1    1    2  502    0 -0.15206656386E+02 -0.13010258076E+02  0.12166435711E+04  0.12168081559E+04  0.25500000000E-02 0.  1.
<mgrwt>
<rscale>  0 0.67672786E+02</rscale>
<asrwt>0</asrwt>
<pdfrwt beam="1">  1        1 0.20725874E+00 0.67672786E+02</pdfrwt>
<pdfrwt beam="2">  1       -1 0.13074604E-03 0.67672786E+02</pdfrwt>
<totfact> 0.25993083E+05</totfact>
</mgrwt>
</event>
<event>
 4    1  0.3946801E-002  0.5518088E+02  0.7818608E-02  0.1419245E+00
         -1   -1    0    0  501    0 -0.00000000000E+00  0.00000000000E+00  0.24200996464E+03  0.24200996469E+03  0.50400000000E-02 0.  1.
          1   -1    0    0    0  501  0.00000000000E+00 -0.00000000000E+00 -0.31454572356E+01  0.31454612734E+01  0.50400000000E-02 0.  1.
          2    1    1    2    0  502  0.22492277970E+02  0.15378985836E+02  0.10016034342E+03  0.10380033803E+03  0.25500000000E-02 0.  1.
         -2    1    1    2  502    0 -0.22492277970E+02 -0.15378985836E+02  0.13870416398E+03  0.14135508793E+03  0.25500000000E-02 0.  1.
<mgrwt>
<rscale>  0 0.55180884E+02</rscale>
<asrwt>0</asrwt>
<pdfrwt beam="2">  1        1 0.48391670E-03 0.55180884E+02</pdfrwt>
<pdfrwt beam="1">  1       -1 0.37232311E-01 0.55180884E+02</pdfrwt>
<totfact> 0.23681434E+05</totfact>
</mgrwt>
</event>
<event>
 4    1  0.3946801E-002  0.5666347E+02  0.7818608E-02  0.1412392E+00
         -1   -1    0    0  501    0 -0.00000000000E+00  0.00000000000E+00  0.45976062995E+00  0.45978825393E+00  0.50400000000E-02 0. -1.
          1   -1    0    0    0  501  0.00000000000E+00 -0.00000000000E+00 -0.17458284691E+04  0.17458284691E+04  0.50400000000E-02 0. -1.
          2    1    1    2    0  502  0.28153839227E+02  0.26639216362E+01 -0.92563652360E+03  0.92606841484E+03  0.25500000000E-02 0.  1.
         -2    1    1    2  502    0 -0.28153839227E+02 -0.26639216362E+01 -0.81973218487E+03  0.82021984251E+03  0.25500000000E-02 0.  1.
<mgrwt>
<rscale>  0 0.56663474E+02</rscale>
<asrwt>0</asrwt>
<pdfrwt beam="2">  1        1 0.26858369E+00 0.56663474E+02</pdfrwt>
<pdfrwt beam="1">  1       -1 0.70735928E-04 0.56663474E+02</pdfrwt>
<totfact> 0.32721920E+05</totfact>
</mgrwt>
</event>
<event>
 4    1  0.3946801E-002  0.7217792E+02  0.7818608E-02  0.1352840E+00
         -1   -1    0    0  501    0 -0.00000000000E+00  0.00000000000E+00  0.28995910905E+02  0.28995911343E+02  0.50400000000E-02 0.  1.
          1   -1    0    0    0  501  0.00000000000E+00 -0.00000000000E+00 -0.44917126412E+02  0.44917126695E+02  0.50400000000E-02 0.  1.
          2    1    1    2    0  502  0.66066072559E+01  0.26391357410E+02 -0.32242697689E+02  0.42186995226E+02  0.25500000000E-02 0. -1.
         -2    1    1    2  502    0 -0.66066072559E+01 -0.26391357410E+02  0.16321482182E+02  0.31726042812E+02  0.25500000000E-02 0. -1.
<mgrwt>
<rscale>  0 0.72177920E+02</rscale>
<asrwt>0</asrwt>
<pdfrwt beam="2">  1        1 0.69103272E-02 0.72177920E+02</pdfrwt>
<pdfrwt beam="1">  1       -1 0.44609094E-02 0.72177920E+02</pdfrwt>
<totfact> 0.17564477E+05</totfact>
</mgrwt>
</event>
<event>
 4    1  0.3946801E-002  0.6320701E+02  0.7818608E-02  0.1384846E+00
         -1   -1    0    0  501    0 -0.00000000000E+00  0.00000000000E+00  0.61954924318E+00  0.61956974290E+00  0.50400000000E-02 0.  1.
          1   -1    0    0    0  501  0.00000000000E+00 -0.00000000000E+00 -0.16120830856E+04  0.16120830856E+04  0.50400000000E-02 0.  1.
          2    1    1    2    0  502  0.22808670887E+01 -0.25418091879E+02 -0.12813585062E+04  0.12816126182E+04  0.25500000000E-02 0. -1.
         -2    1    1    2  502    0 -0.22808670887E+01  0.25418091879E+02 -0.33010503015E+03  0.33109003713E+03  0.25500000000E-02 0. -1.
<mgrwt>
<rscale>  0 0.63207006E+02</rscale>
<asrwt>0</asrwt>
<pdfrwt beam="2">  1        1 0.24800943E+00 0.63207006E+02</pdfrwt>
<pdfrwt beam="1">  1       -1 0.95318137E-04 0.63207006E+02</pdfrwt>
<totfact> 0.26904075E+05</totfact>
</mgrwt>
</event>
<event>
 4    1  0.3946801E-002  0.4428952E+02  0.7818608E-02  0.1478826E+00
          1   -1    0    0    0  501  0.00000000000E+00  0.00000000000E+00  0.25846521946E+03  0.25846521950E+03  0.50400000000E-02 0.  1.
         -1   -1    0    0  501    0 -0.00000000000E+00 -0.00000000000E+00 -0.18973136144E+01  0.18973203085E+01  0.50400000000E-02 0.  1.
          2    1    1    2    0  502  0.15744041456E+01  0.22067630172E+02  0.12261052026E+03  0.12459052426E+03  0.25500000000E-02 0.  1.
         -2    1    1    2  502    0 -0.15744041456E+01 -0.22067630172E+02  0.13395738558E+03  0.13577201555E+03  0.25500000000E-02 0.  1.
<mgrwt>
<rscale>  0 0.44289523E+02</rscale>
<asrwt>0</asrwt>
<pdfrwt beam="1">  1        1 0.39763873E-01 0.44289523E+02</pdfrwt>
<pdfrwt beam="2">  1       -1 0.29189497E-03 0.44289523E+02</pdfrwt>
<totfact> 0.79410631E+05</totfact>
</mgrwt>
</event>
<event>
 4    1  0.3946801E-002  0.4760500E+02  0.7818608E-02  0.1458705E+00
          1   -1    0    0    0  501  0.00000000000E+00  0.00000000000E+00  0.11525051544E+02  0.11525052646E+02  0.50400000000E-02 0. -1.
         -1   -1    0    0  501    0 -0.00000000000E+00 -0.00000000000E+00 -0.49158918190E+02  0.49158918449E+02  0.50400000000E-02 0. -1.
          2    1    1    2    0  502 -0.21499868886E+02  0.13677577714E+01 -0.31719157997E+02  0.38343449428E+02  0.25500000000E-02 0. -1.
         -2    1    1    2  502    0  0.21499868886E+02 -0.13677577714E+01 -0.59147086493E+01  0.22340521667E+02  0.25500000000E-02 0. -1.
<mgrwt>
<rscale>  0 0.47605004E+02</rscale>
<asrwt>0</asrwt>
<pdfrwt beam="1">  1        1 0.17730850E-02 0.47605004E+02</pdfrwt>
<pdfrwt beam="2">  1       -1 0.75629105E-02 0.47605004E+02</pdfrwt>
<totfact> 0.46179698E+05</totfact>
</mgrwt>
</event>
<event>
 4    1  0.3946801E-002  0.5187013E+02  0.7818608E-02  0.1435508E+00
          1   -1    0    0    0  501  0.00000000000E+00  0.00000000000E+00  0.12367729102E+03  0.12367729113E+03  0.50400000000E-02 0.  1.
         -1   -1    0    0  501    0 -0.00000000000E+00 -0.00000000000E+00 -0.54385687035E+01  0.54385710388E+01  0.50400000000E-02 0.  1.
          2    1    1    2    0  502  0.43038176984E+01  0.25213419601E+02  0.48445240398E+02  0.54783032943E+02  0.25500000000E-02 0.  1.
         -2    1    1    2  502    0 -0.43038176984E+01 -0.25213419601E+02  0.69793481923E+02  0.74332829223E+02  0.25500000000E-02 0.  1.
<mgrwt>
<rscale>  0 0.51870130E+02</rscale>
<asrwt>0</asrwt>
<pdfrwt beam="1">  1        1 0.19027276E-01 0.51870130E+02</pdfrwt>
<pdfrwt beam="2">  1       -1 0.83670307E-03 0.51870130E+02</pdfrwt>
<totfact> 0.47421115E+05</totfact>
</mgrwt>
</event>
<event>
 4    1  0.3946801E-002  0.5771051E+02  0.7818608E-02  0.1407699E+00
          1   -1    0    0    0  501  0.00000000000E+00  0.00000000000E+00  0.30651194099E+02  0.30651194514E+02  0.50400000000E-02 0. -1.
         -1   -1    0    0  501    0 -0.00000000000E+00 -0.00000000000E+00 -0.27164543961E+02  0.27164544429E+02  0.50400000000E-02 0. -1.
          2    1    1    2    0  502  0.92589688061E+01 -0.25494116702E+02 -0.81208073124E+01  0.28313000683E+02  0.25500000000E-02 0. -1.
         -2    1    1    2  502    0 -0.92589688061E+01  0.25494116702E+02  0.11607457451E+02  0.29502738259E+02  0.25500000000E-02 0. -1.
<mgrwt>
<rscale>  0 0.57710510E+02</rscale>
<asrwt>0</asrwt>
<pdfrwt beam="1">  1        1 0.47155684E-02 0.57710510E+02</pdfrwt>
<pdfrwt beam="2">  1       -1 0.41791607E-02 0.57710510E+02</pdfrwt>
<totfact> 0.30611024E+05</totfact>
</mgrwt>
</event>
<event>
 4    1  0.3946801E-002  0.4704783E+02  0.7818608E-02  0.1461948E+00
         -1   -1    0    0  501    0 -0.00000000000E+00  0.00000000000E+00  0.82637284256E+00  0.82638821175E+00  0.50400000000E-02 0. -1.
          1   -1    0    0    0  501  0.00000000000E+00 -0.00000000000E+00 -0.66963657169E+03  0.66963657171E+03  0.50400000000E-02 0. -1.
          2    1    1    2    0  502  0.20734100283E+02  0.97676581476E+01 -0.25891076527E+03  0.25992324721E+03  0.25500000000E-02 0. -1.
         -2    1    1    2  502    0 -0.20734100283E+02 -0.97676581476E+01 -0.40989943357E+03  0.41053971271E+03  0.25500000000E-02 0. -1.
<mgrwt>
<rscale>  0 0.47047833E+02</rscale>
<asrwt>0</asrwt>
<pdfrwt beam="2">  1        1 0.10302058E+00 0.47047833E+02</pdfrwt>
<pdfrwt beam="1">  1       -1 0.12713600E-03 0.47047833E+02</pdfrwt>
<totfact> 0.77134537E+05</totfact>
</mgrwt>
</event>
<event>
 4    1  0.3946801E-002  0.4739068E+02  0.7818608E-02  0.1459946E+00
         -1   -1    0    0  501    0 -0.00000000000E+00  0.00000000000E+00  0.32667833431E+01  0.32667872310E+01  0.50400000000E-02 0. -1.
          1   -1    0    0    0  501  0.00000000000E+00 -0.00000000000E+00 -0.17187209134E+03  0.17187209142E+03  0.50400000000E-02 0. -1.
          2    1    1    2    0  502 -0.36669665723E+00  0.20507086843E+02 -0.40451412803E+02  0.45354072381E+02  0.25500000000E-02 0. -1.
         -2    1    1    2  502    0  0.36669665723E+00 -0.20507086843E+02 -0.12815389520E+03  0.12978480627E+03  0.25500000000E-02 0. -1.
<mgrwt>
<rscale>  0 0.47390684E+02</rscale>
<asrwt>0</asrwt>
<pdfrwt beam="2">  1        1 0.26441853E-01 0.47390684E+02</pdfrwt>
<pdfrwt beam="1">  1       -1 0.50258249E-03 0.47390684E+02</pdfrwt>
<totfact> 0.62629711E+05</totfact>
</mgrwt>
</event>
<event>
 4    1  0.3946801E-002  0.4070697E+02  0.7818608E-02  0.1503072E+00
          1   -1    0    0    0  501  0.00000000000E+00  0.00000000000E+00  0.74983178160E+02  0.74983178329E+02  0.50400000000E-02 0. -1.
         -1   -1    0    0  501    0 -0.00000000000E+00 -0.00000000000E+00 -0.55247626105E+01  0.55247649094E+01  0.50400000000E-02 0. -1.
          2    1    1    2    0  502  0.20251624787E+02 -0.20152667587E+01  0.34188500665E+02  0.39787475301E+02  0.25500000000E-02 0.  1.
         -2    1    1    2  502    0 -0.20251624787E+02  0.20152667587E+01  0.35269914884E+02  0.40720467938E+02  0.25500000000E-02 0.  1.
<mgrwt>
<rscale>  0 0.40706970E+02</rscale>
<asrwt>0</asrwt>
<pdfrwt beam="1">  1        1 0.11535873E-01 0.40706970E+02</pdfrwt>
<pdfrwt beam="2">  1       -1 0.84996372E-03 0.40706970E+02</pdfrwt>
<totfact> 0.81449506E+05</totfact>
</mgrwt>
</event>
<event>
 4    1  0.3946801E-002  0.9913231E+02  0.7818608E-02  0.1282131E+00
          1   -1    0    0    0  501  0.00000000000E+00  0.00000000000E+00  0.32512834097E+02  0.32512834487E+02  0.50400000000E-02 0. -1.
         -1   -1    0    0  501    0 -0.00000000000E+00 -0.00000000000E+00 -0.75564122918E+02  0.75564123086E+02  0.50400000000E-02 0. -1.
          2    1    1    2    0  502 -0.20412494478E+02 -0.45132560603E+02 -0.19579696962E+02  0.53263331637E+02  0.25500000000E-02 0. -1.
         -2    1    1    2  502    0  0.20412494478E+02  0.45132560603E+02 -0.23471591860E+02  0.54813625937E+02  0.25500000000E-02 0. -1.
<mgrwt>
<rscale>  0 0.99132312E+02</rscale>
<asrwt>0</asrwt>
<pdfrwt beam="1">  1        1 0.50019746E-02 0.99132312E+02</pdfrwt>
<pdfrwt beam="2">  1       -1 0.11625250E-01 0.99132312E+02</pdfrwt>
<totfact> 0.68993097E+04</totfact>
</mgrwt>
</event>
<event>
 4    1  0.3946801E-002  0.4721542E+02  0.7818608E-02  0.1460967E+00
         -1   -1    0    0  501    0 -0.00000000000E+00  0.00000000000E+00  0.19908028498E+01  0.19908092296E+01  0.50400000000E-02 0. -1.
          1   -1    0    0    0  501  0.00000000000E+00 -0.00000000000E+00 -0.27994888273E+03  0.27994888277E+03  0.50400000000E-02 0. -1.
          2    1    1    2    0  502 -0.23248630435E+02  0.46693781802E+00 -0.16331335222E+03  0.16496050397E+03  0.25500000000E-02 0. -1.
         -2    1    1    2  502    0  0.23248630435E+02 -0.46693781802E+00 -0.11464472766E+03  0.11697918804E+03  0.25500000000E-02 0. -1.
<mgrwt>
<rscale>  0 0.47215419E+02</rscale>
<asrwt>0</asrwt>
<pdfrwt beam="2">  1        1 0.43069028E-01 0.47215419E+02</pdfrwt>
<pdfrwt beam="1">  1       -1 0.30627808E-03 0.47215419E+02</pdfrwt>
<totfact> 0.68761847E+05</totfact>
</mgrwt>
</event>
<event>
 4    1  0.3946801E-002  0.6112643E+02  0.7818608E-02  0.1393165E+00
         -1   -1    0    0  501    0 -0.00000000000E+00  0.00000000000E+00  0.11794923675E+02  0.11794924752E+02  0.50400000000E-02 0.  1.
          1   -1    0    0    0  501  0.00000000000E+00 -0.00000000000E+00 -0.79195934924E+02  0.79195935084E+02  0.50400000000E-02 0.  1.
          2    1    1    2    0  502 -0.67364755336E+01 -0.29307001255E+02 -0.41830545934E+02  0.51517715446E+02  0.25500000000E-02 0.  1.
         -2    1    1    2  502    0  0.67364755336E+01  0.29307001255E+02 -0.25570465314E+02  0.39473144390E+02  0.25500000000E-02 0.  1.
<mgrwt>
<rscale>  0 0.61126428E+02</rscale>
<asrwt>0</asrwt>
<pdfrwt beam="2">  1        1 0.12183990E-01 0.61126428E+02</pdfrwt>
<pdfrwt beam="1">  1       -1 0.18146038E-02 0.61126428E+02</pdfrwt>
<totfact> 0.29269547E+05</totfact>
</mgrwt>
</event>
<event>
 4    1  0.3946801E-002  0.4338759E+02  0.7818608E-02  0.1484666E+00
         -1   -1    0    0  501    0 -0.00000000000E+00  0.00000000000E+00  0.58899790991E+02  0.58899791206E+02  0.50400000000E-02 0. -1.
          1   -1    0    0    0  501  0.00000000000E+00 -0.00000000000E+00 -0.79901939230E+01  0.79901955125E+01  0.50400000000E-02 0. -1.
          2    1    1    2    0  502  0.10686035522E+02  0.17719535504E+02  0.35499144675E+02  0.41089689373E+02  0.25500000000E-02 0. -1.
         -2    1    1    2  502    0 -0.10686035522E+02 -0.17719535504E+02  0.15410452393E+02  0.25800297345E+02  0.25500000000E-02 0. -1.
<mgrwt>
<rscale>  0 0.43387593E+02</rscale>
<asrwt>0</asrwt>
<pdfrwt beam="2">  1        1 0.12292608E-02 0.43387593E+02</pdfrwt>
<pdfrwt beam="1">  1       -1 0.90615063E-02 0.43387593E+02</pdfrwt>
<totfact> 0.56752710E+05</totfact>
</mgrwt>
</event>
<event>
 4    1  0.3946801E-002  0.5324509E+02  0.7818608E-02  0.1428585E+00
         -1   -1    0    0  501    0 -0.00000000000E+00  0.00000000000E+00  0.14804906565E+02  0.14804907423E+02  0.50400000000E-02 0.  1.
          1   -1    0    0    0  501  0.00000000000E+00 -0.00000000000E+00 -0.47873308359E+02  0.47873308624E+02  0.50400000000E-02 0.  1.
          2    1    1    2    0  502 -0.25844075768E+02 -0.85132367259E+00 -0.23990296595E+02  0.35272869766E+02  0.25500000000E-02 0. -1.
         -2    1    1    2  502    0  0.25844075768E+02  0.85132367259E+00 -0.90781051991E+01  0.27405346282E+02  0.25500000000E-02 0. -1.
<mgrwt>
<rscale>  0 0.53245090E+02</rscale>
<asrwt>0</asrwt>
<pdfrwt beam="2">  1        1 0.73651244E-02 0.53245090E+02</pdfrwt>
<pdfrwt beam="1">  1       -1 0.22776780E-02 0.53245090E+02</pdfrwt>
<totfact> 0.39503220E+05</totfact>
</mgrwt>
</event>
<event>
 4    1  0.3946801E-002  0.2607357E+03  0.7818608E-02  0.1106702E+00
         -1   -1    0    0  501    0 -0.00000000000E+00  0.00000000000E+00  0.52331259674E+02  0.52331259916E+02  0.50400000000E-02 0. -1.
          1   -1    0    0    0  501  0.00000000000E+00 -0.00000000000E+00 -0.32477297116E+03  0.32477297120E+03  0.50400000000E-02 0. -1.
          2    1    1    2    0  502 -0.74086449758E+02 -0.62167531750E+02 -0.26265645049E+03  0.27989643626E+03  0.25500000000E-02 0.  1.
         -2    1    1    2  502    0  0.74086449758E+02  0.62167531750E+02 -0.97852609995E+01  0.97207794857E+02  0.25500000000E-02 0.  1.
<mgrwt>
<rscale>  0 0.26073572E+03</rscale>
<asrwt>0</asrwt>
<pdfrwt beam="2">  1        1 0.49965071E-01 0.26073572E+03</pdfrwt>
<pdfrwt beam="1">  1       -1 0.80509632E-02 0.26073572E+03</pdfrwt>
<totfact> 0.66880257E+03</totfact>
</mgrwt>
</event>
<event>
 4    1  0.3946801E-002  0.4570573E+02  0.7818608E-02  0.1469983E+00
         -1   -1    0    0  501    0 -0.00000000000E+00  0.00000000000E+00  0.92266044234E+03  0.92266044235E+03  0.50400000000E-02 0.  1.
          1   -1    0    0    0  501  0.00000000000E+00 -0.00000000000E+00 -0.56601867627E+00  0.56604111466E+00  0.50400000000E-02 0.  1.
          2    1    1    2    0  502 -0.44112278530E+01 -0.21470187499E+02  0.59168182973E+03  0.59208767553E+03  0.25500000000E-02 0. -1.
         -2    1    1    2  502    0  0.44112278530E+01  0.21470187499E+02  0.33041259394E+03  0.33113880793E+03  0.25500000000E-02 0. -1.
<mgrwt>
<rscale>  0 0.45705729E+02</rscale>
<asrwt>0</asrwt>
<pdfrwt beam="2">  1        1 0.87082299E-04 0.45705729E+02</pdfrwt>
<pdfrwt beam="1">  1       -1 0.14194650E+00 0.45705729E+02</pdfrwt>
<totfact> 0.16319560E+05</totfact>
</mgrwt>
</event>
<event>
 4    1  0.3946801E-002  0.4647920E+02  0.7818608E-02  0.1465313E+00
          1   -1    0    0    0  501  0.00000000000E+00  0.00000000000E+00  0.11041789488E+03  0.11041789499E+03  0.50400000000E-02 0. -1.
         -1   -1    0    0  501    0 -0.00000000000E+00 -0.00000000000E+00 -0.48912261265E+01  0.48912287231E+01  0.50400000000E-02 0. -1.
          2    1    1    2    0  502  0.86431929146E+01 -0.20920273803E+02  0.65824244453E+02  0.69607426357E+02  0.25500000000E-02 0. -1.
         -2    1    1    2  502    0 -0.86431929146E+01  0.20920273803E+02  0.39702424296E+02  0.45701697356E+02  0.25500000000E-02 0. -1.
<mgrwt>
<rscale>  0 0.46479202E+02</rscale>
<asrwt>0</asrwt>
<pdfrwt beam="1">  1        1 0.16987368E-01 0.46479202E+02</pdfrwt>
<pdfrwt beam="2">  1       -1 0.75249656E-03 0.46479202E+02</pdfrwt>
<totfact> 0.61472089E+05</totfact>
</mgrwt>
</event>
<event>
 4    1  0.3946801E-002  0.2923210E+03  0.7818608E-02  0.1089144E+00
         -1   -1    0    0  501    0 -0.00000000000E+00  0.00000000000E+00  0.48881852684E+03  0.48881852687E+03  0.50400000000E-02 0. -1.
          1   -1    0    0    0  501  0.00000000000E+00 -0.00000000000E+00 -0.43703105886E+02  0.43703106176E+02  0.50400000000E-02 0. -1.
          2    1    1    2    0  502  0.14435671863E+03  0.20893362714E+02  0.23959749791E+03  0.28050375369E+03  0.25500000000E-02 0. -1.
         -2    1    1    2  502    0 -0.14435671863E+03 -0.20893362714E+02  0.20551792304E+03  0.25201787936E+03  0.25500000000E-02 0. -1.
<mgrwt>
<rscale>  0 0.29232097E+03</rscale>
<asrwt>0</asrwt>
<pdfrwt beam="2">  1        1 0.67235543E-02 0.29232097E+03</pdfrwt>
<pdfrwt beam="1">  1       -1 0.75202855E-01 0.29232097E+03</pdfrwt>
<totfact> 0.20464323E+03</totfact>
</mgrwt>
</event>
<event>
 4    1  0.3946801E-002  0.5148237E+02  0.7818608E-02  0.1437506E+00
          1   -1    0    0    0  501  0.00000000000E+00  0.00000000000E+00  0.17908667500E+04  0.17908667500E+04  0.50400000000E-02 0.  1.
         -1   -1    0    0  501    0 -0.00000000000E+00 -0.00000000000E+00 -0.36997614024E+00  0.37001046735E+00  0.50400000000E-02 0.  1.
          2    1    1    2    0  502  0.20689388935E+02  0.14330457588E+02  0.70724952145E+03  0.70769717989E+03  0.25500000000E-02 0.  1.
         -2    1    1    2  502    0 -0.20689388935E+02 -0.14330457588E+02  0.10832472524E+04  0.10835395806E+04  0.25500000000E-02 0.  1.
<mgrwt>
<rscale>  0 0.51482374E+02</rscale>
<asrwt>0</asrwt>
<pdfrwt beam="1">  1        1 0.27552138E+00 0.51482374E+02</pdfrwt>
<pdfrwt beam="2">  1       -1 0.56921342E-04 0.51482374E+02</pdfrwt>
<totfact> 0.40458986E+05</totfact>
</mgrwt>
</event>
<event>
 4    1  0.3946801E-002  0.4095996E+02  0.7818608E-02  0.1501264E+00
         -1   -1    0    0  501    0 -0.00000000000E+00  0.00000000000E+00  0.15558715336E+02  0.15558716152E+02  0.50400000000E-02 0.  1.
          1   -1    0    0    0  501  0.00000000000E+00 -0.00000000000E+00 -0.26957857516E+02  0.26957857988E+02  0.50400000000E-02 0.  1.
          2    1    1    2    0  502  0.19985677585E+02  0.95688164570E+00 -0.11647061007E+01  0.20042441912E+02  0.25500000000E-02 0.  1.
         -2    1    1    2  502    0 -0.19985677585E+02 -0.95688164570E+00 -0.10234436080E+02  0.22474132228E+02  0.25500000000E-02 0.  1.
<mgrwt>
<rscale>  0 0.40959964E+02</rscale>
<asrwt>0</asrwt>
<pdfrwt beam="2">  1        1 0.41473628E-02 0.40959964E+02</pdfrwt>
<pdfrwt beam="1">  1       -1 0.23936486E-02 0.40959964E+02</pdfrwt>
<totfact> 0.73287871E+05</totfact>
</mgrwt>
</event>
<event>
 4    1  0.3946801E-002  0.5796094E+02  0.7818608E-02  0.1406594E+00
          1   -1    0    0    0  501  0.00000000000E+00  0.00000000000E+00  0.95179222608E+02  0.95179222741E+02  0.50400000000E-02 0.  1.
         -1   -1    0    0  501    0 -0.00000000000E+00 -0.00000000000E+00 -0.88240648152E+01  0.88240662546E+01  0.50400000000E-02 0.  1.
          2    1    1    2    0  502 -0.60288775438E+01 -0.25923893200E+02  0.22603119253E+02  0.34918427937E+02  0.25500000000E-02 0.  1.
         -2    1    1    2  502    0  0.60288775438E+01  0.25923893200E+02  0.63752038540E+02  0.69084861059E+02  0.25500000000E-02 0.  1.
<mgrwt>
<rscale>  0 0.57960942E+02</rscale>
<asrwt>0</asrwt>
<pdfrwt beam="1">  1        1 0.14642958E-01 0.57960942E+02</pdfrwt>
<pdfrwt beam="2">  1       -1 0.13575485E-02 0.57960942E+02</pdfrwt>
<totfact> 0.34414294E+05</totfact>
</mgrwt>
</event>
<event>
 4    1  0.3946801E-002  0.4842120E+02  0.7818608E-02  0.1454048E+00
         -1   -1    0    0  501    0 -0.00000000000E+00  0.00000000000E+00  0.30048689158E+00  0.30052915601E+00  0.50400000000E-02 0. -1.
          1   -1    0    0    0  501  0.00000000000E+00 -0.00000000000E+00 -0.19505408305E+04  0.19505408305E+04  0.50400000000E-02 0. -1.
          2    1    1    2    0  502 -0.23794504982E+02 -0.38939388216E+01 -0.10634987339E+04  0.10637720142E+04  0.25500000000E-02 0.  1.
         -2    1    1    2  502    0  0.23794504982E+02  0.38939388216E+01 -0.88674160977E+03  0.88706934550E+03  0.25500000000E-02 0.  1.
<mgrwt>
<rscale>  0 0.48421201E+02</rscale>
<asrwt>0</asrwt>
<pdfrwt beam="2">  1        1 0.30007307E+00 0.48421201E+02</pdfrwt>
<pdfrwt beam="1">  1       -1 0.46233566E-04 0.48421201E+02</pdfrwt>
<totfact> 0.42282337E+05</totfact>
</mgrwt>
</event>
<event>
 4    1  0.3946801E-002  0.5114205E+02  0.7818608E-02  0.1439277E+00
          1   -1    0    0    0  501  0.00000000000E+00  0.00000000000E+00  0.80933766701E+01  0.80933782394E+01  0.50400000000E-02 0.  1.
         -1   -1    0    0  501    0 -0.00000000000E+00 -0.00000000000E+00 -0.80791633437E+02  0.80791633594E+02  0.50400000000E-02 0.  1.
          2    1    1    2    0  502  0.11975653481E+02  0.16267879847E+02 -0.90997625248E+01  0.22155493123E+02  0.25500000000E-02 0.  1.
         -2    1    1    2  502    0 -0.11975653481E+02 -0.16267879847E+02 -0.63598494242E+02  0.66729518710E+02  0.25500000000E-02 0.  1.
<mgrwt>
<rscale>  0 0.51142045E+02</rscale>
<asrwt>0</asrwt>
<pdfrwt beam="1">  1        1 0.12451351E-02 0.51142045E+02</pdfrwt>
<pdfrwt beam="2">  1       -1 0.12429482E-01 0.51142045E+02</pdfrwt>
<totfact> 0.36383642E+05</totfact>
</mgrwt>
</event>
<event>
 4    1  0.3946801E-002  0.5747929E+02  0.7818608E-02  0.1408725E+00
         -1   -1    0    0  501    0 -0.00000000000E+00  0.00000000000E+00  0.85427109862E+01  0.85427124730E+01  0.50400000000E-02 0.  1.
          1   -1    0    0    0  501  0.00000000000E+00 -0.00000000000E+00 -0.96686774252E+02  0.96686774383E+02  0.50400000000E-02 0.  1.
          2    1    1    2    0  502  0.24701595176E+02  0.11416522234E+02 -0.27147712582E+02  0.38438315378E+02  0.25500000000E-02 0. -1.
         -2    1    1    2  502    0 -0.24701595176E+02 -0.11416522234E+02 -0.60996350683E+02  0.66791171478E+02  0.25500000000E-02 0. -1.
<mgrwt>
<rscale>  0 0.57479292E+02</rscale>
<asrwt>0</asrwt>
<pdfrwt beam="2">  1        1 0.14874888E-01 0.57479292E+02</pdfrwt>
<pdfrwt beam="1">  1       -1 0.13142634E-02 0.57479292E+02</pdfrwt>
<totfact> 0.35236573E+05</totfact>
</mgrwt>
</event>
<event>
 4    1  0.3946801E-002  0.5270077E+02  0.7818608E-02  0.1431296E+00
         -1   -1    0    0  501    0 -0.00000000000E+00  0.00000000000E+00  0.10311671999E+01  0.10311795168E+01  0.50400000000E-02 0. -1.
          1   -1    0    0    0  501  0.00000000000E+00 -0.00000000000E+00 -0.67335216879E+03  0.67335216881E+03  0.50400000000E-02 0. -1.
          2    1    1    2    0  502  0.22369521672E+02 -0.12506059646E+01 -0.15867063563E+03  0.16024459471E+03  0.25500000000E-02 0. -1.
         -2    1    1    2  502    0 -0.22369521672E+02  0.12506059646E+01 -0.51365036596E+03  0.51413875362E+03  0.25500000000E-02 0. -1.
<mgrwt>
<rscale>  0 0.52700772E+02</rscale>
<asrwt>0</asrwt>
<pdfrwt beam="2">  1        1 0.10359229E+00 0.52700772E+02</pdfrwt>
<pdfrwt beam="1">  1       -1 0.15864259E-03 0.52700772E+02</pdfrwt>
<totfact> 0.58224768E+05</totfact>
</mgrwt>
</event>
<event>
 4    1  0.3946801E-002  0.4834665E+02  0.7818608E-02  0.1454469E+00
          1   -1    0    0    0  501  0.00000000000E+00  0.00000000000E+00  0.89241388607E+00  0.89242811792E+00  0.50400000000E-02 0. -1.
         -1   -1    0    0  501    0 -0.00000000000E+00 -0.00000000000E+00 -0.65479148973E+03  0.65479148975E+03  0.50400000000E-02 0. -1.
          2    1    1    2    0  502  0.12805988315E+02 -0.18768170214E+02 -0.43887795697E+03  0.43946569681E+03  0.25500000000E-02 0. -1.
         -2    1    1    2  502    0 -0.12805988315E+02  0.18768170214E+02 -0.21502111887E+03  0.21621822106E+03  0.25500000000E-02 0. -1.
<mgrwt>
<rscale>  0 0.48346652E+02</rscale>
<asrwt>0</asrwt>
<pdfrwt beam="1">  1        1 0.13729606E-03 0.48346652E+02</pdfrwt>
<pdfrwt beam="2">  1       -1 0.10073677E+00 0.48346652E+02</pdfrwt>
<totfact> 0.19628736E+05</totfact>
</mgrwt>
</event>
<event>
 4    1  0.3946801E-002  0.6535904E+02  0.7818608E-02  0.1376626E+00
          1   -1    0    0    0  501  0.00000000000E+00  0.00000000000E+00  0.13108728795E+03  0.13108728804E+03  0.50400000000E-02 0.  1.
         -1   -1    0    0  501    0 -0.00000000000E+00 -0.00000000000E+00 -0.81468685223E+01  0.81468700813E+01  0.50400000000E-02 0.  1.
          2    1    1    2    0  502  0.13902832582E+01 -0.24313042380E+02  0.15046641932E+02  0.28626183072E+02  0.25500000000E-02 0. -1.
         -2    1    1    2  502    0 -0.13902832582E+01  0.24313042380E+02  0.10789377749E+03  0.11060797505E+03  0.25500000000E-02 0. -1.
<mgrwt>
<rscale>  0 0.65359040E+02</rscale>
<asrwt>0</asrwt>
<pdfrwt beam="1">  1        1 0.20167273E-01 0.65359040E+02</pdfrwt>
<pdfrwt beam="2">  1       -1 0.12533646E-02 0.65359040E+02</pdfrwt>
<totfact> 0.26452682E+05</totfact>
</mgrwt>
</event>
<event>
 4    1  0.3946801E-002  0.5038868E+02  0.7818608E-02  0.1443256E+00
         -1   -1    0    0  501    0 -0.00000000000E+00  0.00000000000E+00  0.68468283180E+02  0.68468283365E+02  0.50400000000E-02 0. -1.
          1   -1    0    0    0  501  0.00000000000E+00 -0.00000000000E+00 -0.92707848557E+01  0.92707862257E+01  0.50400000000E-02 0. -1.
          2    1    1    2    0  502 -0.14879905632E+02 -0.19144854795E+02  0.19042455048E+02  0.30831025891E+02  0.25500000000E-02 0. -1.
         -2    1    1    2  502    0  0.14879905632E+02  0.19144854795E+02  0.40155043276E+02  0.46908043700E+02  0.25500000000E-02 0. -1.
<mgrwt>
<rscale>  0 0.50388681E+02</rscale>
<asrwt>0</asrwt>
<pdfrwt beam="2">  1        1 0.14262748E-02 0.50388681E+02</pdfrwt>
<pdfrwt beam="1">  1       -1 0.10533582E-01 0.50388681E+02</pdfrwt>
<totfact> 0.38611339E+05</totfact>
</mgrwt>
</event>
<event>
 4    1  0.3946801E-002  0.8806007E+02  0.7818608E-02  0.1307619E+00
          1   -1    0    0    0  501  0.00000000000E+00  0.00000000000E+00  0.46415870117E+03  0.46415870120E+03  0.50400000000E-02 0.  1.
         -1   -1    0    0  501    0 -0.00000000000E+00 -0.00000000000E+00 -0.41766818967E+01  0.41766849376E+01  0.50400000000E-02 0.  1.
          2    1    1    2    0  502  0.29625553870E+02  0.23829394074E+02  0.34809345167E+03  0.35016362542E+03  0.25500000000E-02 0.  1.
         -2    1    1    2  502    0 -0.29625553870E+02 -0.23829394074E+02  0.11188856760E+03  0.11817176072E+03  0.25500000000E-02 0.  1.
<mgrwt>
<rscale>  0 0.88060070E+02</rscale>
<asrwt>0</asrwt>
<pdfrwt beam="1">  1        1 0.71409023E-01 0.88060070E+02</pdfrwt>
<pdfrwt beam="2">  1       -1 0.64256676E-03 0.88060070E+02</pdfrwt>
<totfact> 0.15125151E+05</totfact>
</mgrwt>
</event>
<event>
 4    1  0.3946801E-002  0.5089516E+02  0.7818608E-02  0.1440572E+00
          1   -1    0    0    0  501  0.00000000000E+00  0.00000000000E+00  0.21939204802E+02  0.21939205381E+02  0.50400000000E-02 0.  1.
         -1   -1    0    0  501    0 -0.00000000000E+00 -0.00000000000E+00 -0.29516995853E+02  0.29516996283E+02  0.50400000000E-02 0.  1.
          2    1    1    2    0  502  0.13844968404E+02  0.19324173223E+02  0.53926562313E+01  0.24375962927E+02  0.25500000000E-02 0.  1.
         -2    1    1    2  502    0 -0.13844968404E+02 -0.19324173223E+02 -0.12970447282E+02  0.27080238738E+02  0.25500000000E-02 0.  1.
<mgrwt>
<rscale>  0 0.50895165E+02</rscale>
<asrwt>0</asrwt>
<pdfrwt beam="1">  1        1 0.33752623E-02 0.50895165E+02</pdfrwt>
<pdfrwt beam="2">  1       -1 0.45410764E-02 0.50895165E+02</pdfrwt>
<totfact> 0.41261806E+05</totfact>
</mgrwt>
</event>
<event>
 4    1  0.3946801E-002  0.6305938E+02  0.7818608E-02  0.1385424E+00
         -1   -1    0    0  501    0 -0.00000000000E+00  0.00000000000E+00  0.22909739904E+01  0.22909795342E+01  0.50400000000E-02 0.  1.
          1   -1    0    0    0  501  0.00000000000E+00 -0.00000000000E+00 -0.43392903102E+03  0.43392903105E+03  0.50400000000E-02 0.  1.
          2    1    1    2    0  502  0.22676110212E+02 -0.21863308716E+02 -0.22538208033E+03  0.22757260903E+03  0.25500000000E-02 0. -1.
         -2    1    1    2  502    0 -0.22676110212E+02  0.21863308716E+02 -0.20625597670E+03  0.20864740155E+03  0.25500000000E-02 0. -1.
<mgrwt>
<rscale>  0 0.63059380E+02</rscale>
<asrwt>0</asrwt>
<pdfrwt beam="2">  1        1 0.66758248E-01 0.63059380E+02</pdfrwt>
<pdfrwt beam="1">  1       -1 0.35245831E-03 0.63059380E+02</pdfrwt>
<totfact> 0.35681275E+05</totfact>
</mgrwt>
</event>
<event>
 4    1  0.3946801E-002  0.4382927E+02  0.7818608E-02  0.1481785E+00
         -1   -1    0    0  501    0 -0.00000000000E+00  0.00000000000E+00  0.57352815896E+00  0.57355030357E+00  0.50400000000E-02 0. -1.
          1   -1    0    0    0  501  0.00000000000E+00 -0.00000000000E+00 -0.83734680253E+03  0.83734680254E+03  0.50400000000E-02 0. -1.
          2    1    1    2    0  502  0.21260020991E+02  0.52730313526E+01 -0.40544999245E+03  0.40604124142E+03  0.25500000000E-02 0. -1.
         -2    1    1    2  502    0 -0.21260020991E+02 -0.52730313526E+01 -0.43132328192E+03  0.43187911143E+03  0.25500000000E-02 0. -1.
<mgrwt>
<rscale>  0 0.43829271E+02</rscale>
<asrwt>0</asrwt>
<pdfrwt beam="2">  1        1 0.12882161E+00 0.43829271E+02</pdfrwt>
<pdfrwt beam="1">  1       -1 0.88237476E-04 0.43829271E+02</pdfrwt>
<totfact> 0.90721384E+05</totfact>
</mgrwt>
</event>
<event>
 4    1  0.3946801E-002  0.6859053E+02  0.7818608E-02  0.1364953E+00
         -1   -1    0    0  501    0 -0.00000000000E+00  0.00000000000E+00  0.77700028749E+02  0.77700028913E+02  0.50400000000E-02 0. -1.
          1   -1    0    0    0  501  0.00000000000E+00 -0.00000000000E+00 -0.15137255903E+02  0.15137256742E+02  0.50400000000E-02 0. -1.
          2    1    1    2    0  502  0.25828923649E+02 -0.22507859371E+02  0.33390514968E+02  0.47839978330E+02  0.25500000000E-02 0. -1.
         -2    1    1    2  502    0 -0.25828923649E+02  0.22507859371E+02  0.29172257878E+02  0.44997307325E+02  0.25500000000E-02 0. -1.
<mgrwt>
<rscale>  0 0.68590532E+02</rscale>
<asrwt>0</asrwt>
<pdfrwt beam="2">  1        1 0.23288087E-02 0.68590532E+02</pdfrwt>
<pdfrwt beam="1">  1       -1 0.11953851E-01 0.68590532E+02</pdfrwt>
<totfact> 0.17550022E+05</totfact>
</mgrwt>
</event>
<event>
 4    1  0.3946801E-002  0.4147708E+02  0.7818608E-02  0.1497615E+00
         -1   -1    0    0  501    0 -0.00000000000E+00  0.00000000000E+00  0.99329260888E+03  0.99329260890E+03  0.50400000000E-02 0. -1.
          1   -1    0    0    0  501  0.00000000000E+00 -0.00000000000E+00 -0.43297651673E+00  0.43300584943E+00  0.50400000000E-02 0. -1.
          2    1    1    2    0  502  0.17811340261E+02  0.95725959393E+01  0.38609477397E+03  0.38662391666E+03  0.25500000000E-02 0. -1.
         -2    1    1    2  502    0 -0.17811340261E+02 -0.95725959393E+01  0.60676485839E+03  0.60710169809E+03  0.25500000000E-02 0. -1.
<mgrwt>
<rscale>  0 0.41477076E+02</rscale>
<asrwt>0</asrwt>
<pdfrwt beam="2">  1        1 0.66614818E-04 0.41477076E+02</pdfrwt>
<pdfrwt beam="1">  1       -1 0.15281244E+00 0.41477076E+02</pdfrwt>
<totfact> 0.19000048E+05</totfact>
</mgrwt>
</event>
<event>
 4    1  0.3946801E-002  0.1868016E+03  0.7818608E-02  0.1161378E+00
          1   -1    0    0    0  501  0.00000000000E+00  0.00000000000E+00  0.32823548413E+03  0.32823548417E+03  0.50400000000E-02 0.  1.
         -1   -1    0    0  501    0 -0.00000000000E+00 -0.00000000000E+00 -0.26577606451E+02  0.26577606929E+02  0.50400000000E-02 0.  1.
          2    1    1    2    0  502 -0.75208806959E+02  0.21254696547E+02  0.53687728350E+02  0.94818241660E+02  0.25500000000E-02 0.  1.
         -2    1    1    2  502    0  0.75208806959E+02 -0.21254696547E+02  0.24797014933E+03  0.25999484944E+03  0.25500000000E-02 0.  1.
<mgrwt>
<rscale>  0 0.18680164E+03</rscale>
<asrwt>0</asrwt>
<pdfrwt beam="1">  1        1 0.50497768E-01 0.18680164E+03</pdfrwt>
<pdfrwt beam="2">  1       -1 0.40888625E-02 0.18680164E+03</pdfrwt>
<totfact> 0.17910112E+04</totfact>
</mgrwt>
</event>
<event>
 4    1  0.3946801E-002  0.5250552E+02  0.7818608E-02  0.1432278E+00
         -1   -1    0    0  501    0 -0.00000000000E+00  0.00000000000E+00  0.94271839589E+01  0.94271853062E+01  0.50400000000E-02 0.  1.
          1   -1    0    0    0  501  0.00000000000E+00 -0.00000000000E+00 -0.73108506313E+02  0.73108506487E+02  0.50400000000E-02 0.  1.
          2    1    1    2    0  502  0.11370125003E+02 -0.21839223085E+02 -0.46159672968E+02  0.52315837206E+02  0.25500000000E-02 0. -1.
         -2    1    1    2  502    0 -0.11370125003E+02  0.21839223085E+02 -0.17521649386E+02  0.30219854586E+02  0.25500000000E-02 0. -1.
<mgrwt>
<rscale>  0 0.52505520E+02</rscale>
<asrwt>0</asrwt>
<pdfrwt beam="2">  1        1 0.11247462E-01 0.52505520E+02</pdfrwt>
<pdfrwt beam="1">  1       -1 0.14503362E-02 0.52505520E+02</pdfrwt>
<totfact> 0.42879977E+05</totfact>
</mgrwt>
</event>
<event>
 4    1  0.3946801E-002  0.5107159E+02  0.7818608E-02  0.1439646E+00
          1   -1    0    0    0  501  0.00000000000E+00  0.00000000000E+00  0.15850006177E+02  0.15850006978E+02  0.50400000000E-02 0.  1.
         -1   -1    0    0  501    0 -0.00000000000E+00 -0.00000000000E+00 -0.41140482944E+02  0.41140483253E+02  0.50400000000E-02 0.  1.
          2    1    1    2    0  502  0.17690377801E+02  0.13796618297E+02  0.96596135675E+00  0.22455049121E+02  0.25500000000E-02 0.  1.
         -2    1    1    2  502    0 -0.17690377801E+02 -0.13796618297E+02 -0.26256438125E+02  0.34535441110E+02  0.25500000000E-02 0.  1.
<mgrwt>
<rscale>  0 0.51071594E+02</rscale>
<asrwt>0</asrwt>
<pdfrwt beam="1">  1        1 0.24384626E-02 0.51071594E+02</pdfrwt>
<pdfrwt beam="2">  1       -1 0.63293051E-02 0.51071594E+02</pdfrwt>
<totfact> 0.39611651E+05</totfact>
</mgrwt>
</event>
<event>
 4    1  0.3946801E-002  0.5719677E+02  0.7818608E-02  0.1409987E+00
         -1   -1    0    0  501    0 -0.00000000000E+00  0.00000000000E+00  0.22258121262E+02  0.22258121832E+02  0.50400000000E-02 0. -1.
          1   -1    0    0    0  501  0.00000000000E+00 -0.00000000000E+00 -0.36744686446E+02  0.36744686792E+02  0.50400000000E-02 0. -1.
          2    1    1    2    0  502  0.19355500110E+02  0.19923105889E+02 -0.14262712644E+02  0.31224838050E+02  0.25500000000E-02 0. -1.
         -2    1    1    2  502    0 -0.19355500110E+02 -0.19923105889E+02 -0.22385254006E+00  0.27777970574E+02  0.25500000000E-02 0. -1.
<mgrwt>
<rscale>  0 0.57196773E+02</rscale>
<asrwt>0</asrwt>
<pdfrwt beam="2">  1        1 0.56530287E-02 0.57196773E+02</pdfrwt>
<pdfrwt beam="1">  1       -1 0.34243264E-02 0.57196773E+02</pdfrwt>
<totfact> 0.31922261E+05</totfact>
</mgrwt>
</event>
<event>
 4    1  0.3946801E-002  0.4385457E+02  0.7818608E-02  0.1481622E+00
          1   -1    0    0    0  501  0.00000000000E+00  0.00000000000E+00  0.14464083421E+04  0.14464083421E+04  0.50400000000E-02 0.  1.
         -1   -1    0    0  501    0 -0.00000000000E+00 -0.00000000000E+00 -0.33239453413E+00  0.33243274195E+00  0.50400000000E-02 0.  1.
          2    1    1    2    0  502  0.20658828640E+02  0.18330210724E+01  0.48823539758E+03  0.48867571111E+03  0.25500000000E-02 0.  1.
         -2    1    1    2  502    0 -0.20658828640E+02 -0.18330210724E+01  0.95784054997E+03  0.95806506373E+03  0.25500000000E-02 0.  1.
<mgrwt>
<rscale>  0 0.43854572E+02</rscale>
<asrwt>0</asrwt>
<pdfrwt beam="1">  1        1 0.22252127E+00 0.43854572E+02</pdfrwt>
<pdfrwt beam="2">  1       -1 0.51141271E-04 0.43854572E+02</pdfrwt>
<totfact> 0.73673314E+05</totfact>
</mgrwt>
</event>
<event>
 4    1  0.3946801E-002  0.5980026E+02  0.7818608E-02  0.1398672E+00
          1   -1    0    0    0  501  0.00000000000E+00  0.00000000000E+00  0.13387995939E+04  0.13387995939E+04  0.50400000000E-02 0. -1.
         -1   -1    0    0  501    0 -0.00000000000E+00 -0.00000000000E+00 -0.66776614798E+00  0.66778516754E+00  0.50400000000E-02 0. -1.
          2    1    1    2    0  502  0.28107462115E+02  0.69014865272E+01  0.83721954315E+03  0.83771965679E+03  0.25500000000E-02 0.  1.
         -2    1    1    2  502    0 -0.28107462115E+02 -0.69014865272E+01  0.50091228456E+03  0.50174772223E+03  0.25500000000E-02 0.  1.
<mgrwt>
<rscale>  0 0.59800261E+02</rscale>
<asrwt>0</asrwt>
<pdfrwt beam="1">  1        1 0.20596869E+00 0.59800261E+02</pdfrwt>
<pdfrwt beam="2">  1       -1 0.10273496E-03 0.59800261E+02</pdfrwt>
<totfact> 0.35779807E+05</totfact>
</mgrwt>
</event>
<event>
 4    1  0.3946801E-002  0.7227728E+02  0.7818608E-02  0.1352516E+00
          1   -1    0    0    0  501  0.00000000000E+00  0.00000000000E+00  0.14125046141E+03  0.14125046150E+03  0.50400000000E-02 0. -1.
         -1   -1    0    0  501    0 -0.00000000000E+00 -0.00000000000E+00 -0.92459957673E+01  0.92459971410E+01  0.50400000000E-02 0. -1.
          2    1    1    2    0  502 -0.22042109391E+02  0.27370449008E+02  0.48456577973E+02  0.59858466575E+02  0.25500000000E-02 0. -1.
         -2    1    1    2  502    0  0.22042109391E+02 -0.27370449008E+02  0.83547887672E+02  0.90637992069E+02  0.25500000000E-02 0. -1.
<mgrwt>
<rscale>  0 0.72277279E+02</rscale>
<asrwt>0</asrwt>
<pdfrwt beam="1">  1        1 0.21730840E-01 0.72277279E+02</pdfrwt>
<pdfrwt beam="2">  1       -1 0.14224610E-02 0.72277279E+02</pdfrwt>
<totfact> 0.20589710E+05</totfact>
</mgrwt>
</event>
<event>
 4    1  0.3946801E-002  0.6543763E+02  0.7818608E-02  0.1376333E+00
          1   -1    0    0    0  501  0.00000000000E+00  0.00000000000E+00  0.93202048975E+00  0.93203411682E+00  0.50400000000E-02 0. -1.
         -1   -1    0    0  501    0 -0.00000000000E+00 -0.00000000000E+00 -0.11485939616E+04  0.11485939616E+04  0.50400000000E-02 0. -1.
          2    1    1    2    0  502 -0.20831694302E+02  0.24041164857E+02 -0.70828695837E+03  0.70900095380E+03  0.25500000000E-02 0.  1.
         -2    1    1    2  502    0  0.20831694302E+02 -0.24041164857E+02 -0.43937498271E+03  0.44052504189E+03  0.25500000000E-02 0.  1.
<mgrwt>
<rscale>  0 0.65437633E+02</rscale>
<asrwt>0</asrwt>
<pdfrwt beam="1">  1        1 0.14338974E-03 0.65437633E+02</pdfrwt>
<pdfrwt beam="2">  1       -1 0.17670563E+00 0.65437633E+02</pdfrwt>
<totfact> 0.50594871E+04</totfact>
</mgrwt>
</event>
<event>
 4    1  0.3946801E-002  0.6098926E+02  0.7818608E-02  0.1393727E+00
          1   -1    0    0    0  501  0.00000000000E+00  0.00000000000E+00  0.20163662183E+01  0.20163725171E+01  0.50400000000E-02 0.  1.
         -1   -1    0    0  501    0 -0.00000000000E+00 -0.00000000000E+00 -0.46118657536E+03  0.46118657539E+03  0.50400000000E-02 0.  1.
          2    1    1    2    0  502  0.29616279285E+02 -0.56113082780E+01 -0.26464633024E+03  0.26635744948E+03  0.25500000000E-02 0.  1.
         -2    1    1    2  502    0 -0.29616279285E+02  0.56113082780E+01 -0.19452387890E+03  0.19684549842E+03  0.25500000000E-02 0.  1.
<mgrwt>
<rscale>  0 0.60989261E+02</rscale>
<asrwt>0</asrwt>
<pdfrwt beam="1">  1        1 0.31021104E-03 0.60989261E+02</pdfrwt>
<pdfrwt beam="2">  1       -1 0.70951698E-01 0.60989261E+02</pdfrwt>
<totfact> 0.13916005E+05</totfact>
</mgrwt>
</event>
<event>
 4    1  0.3946801E-002  0.7440408E+02  0.7818608E-02  0.1345726E+00
         -1   -1    0    0  501    0 -0.00000000000E+00  0.00000000000E+00  0.20859313067E+01  0.20859373955E+01  0.50400000000E-02 0. -1.
          1   -1    0    0    0  501  0.00000000000E+00 -0.00000000000E+00 -0.66348774407E+03  0.66348774409E+03  0.50400000000E-02 0. -1.
          2    1    1    2    0  502 -0.35053440573E+02  0.79842712478E+01 -0.24513338157E+03  0.24775565998E+03  0.25500000000E-02 0. -1.
         -2    1    1    2  502    0  0.35053440573E+02 -0.79842712478E+01 -0.41626843119E+03  0.41781802151E+03  0.25500000000E-02 0. -1.
<mgrwt>
<rscale>  0 0.74404083E+02</rscale>
<asrwt>0</asrwt>
<pdfrwt beam="2">  1        1 0.10207487E+00 0.74404083E+02</pdfrwt>
<pdfrwt beam="1">  1       -1 0.32091351E-03 0.74404083E+02</pdfrwt>
<totfact> 0.24207287E+05</totfact>
</mgrwt>
</event>
<event>
 4    1  0.3946801E-002  0.5091537E+02  0.7818608E-02  0.1440466E+00
          1   -1    0    0    0  501  0.00000000000E+00  0.00000000000E+00  0.17396965495E+03  0.17396965503E+03  0.50400000000E-02 0. -1.
         -1   -1    0    0  501    0 -0.00000000000E+00 -0.00000000000E+00 -0.37253237988E+01  0.37253272081E+01  0.50400000000E-02 0. -1.
          2    1    1    2    0  502  0.51897658235E+01  0.24578885506E+02  0.70716290493E+02  0.75045646307E+02  0.25500000000E-02 0. -1.
         -2    1    1    2  502    0 -0.51897658235E+01 -0.24578885506E+02  0.99528040662E+02  0.10264933593E+03  0.25500000000E-02 0. -1.
<mgrwt>
<rscale>  0 0.50915365E+02</rscale>
<asrwt>0</asrwt>
<pdfrwt beam="1">  1        1 0.26764569E-01 0.50915365E+02</pdfrwt>
<pdfrwt beam="2">  1       -1 0.57312687E-03 0.50915365E+02</pdfrwt>
<totfact> 0.52446557E+05</totfact>
</mgrwt>
</event>
<event>
 4    1  0.3946801E-002  0.4016600E+02  0.7818608E-02  0.1506993E+00
          1   -1    0    0    0  501  0.00000000000E+00  0.00000000000E+00  0.26357676080E+02  0.26357676561E+02  0.50400000000E-02 0. -1.
         -1   -1    0    0  501    0 -0.00000000000E+00 -0.00000000000E+00 -0.15302061246E+02  0.15302062076E+02  0.50400000000E-02 0. -1.
          2    1    1    2    0  502 -0.53616780509E+01  0.19298594521E+02  0.40093069286E+01  0.20426891358E+02  0.25500000000E-02 0.  1.
         -2    1    1    2  502    0  0.53616780509E+01 -0.19298594521E+02  0.70463079052E+01  0.21232847279E+02  0.25500000000E-02 0.  1.
<mgrwt>
<rscale>  0 0.40165996E+02</rscale>
<asrwt>0</asrwt>
<pdfrwt beam="1">  1        1 0.40550272E-02 0.40165996E+02</pdfrwt>
<pdfrwt beam="2">  1       -1 0.23541634E-02 0.40165996E+02</pdfrwt>
<totfact> 0.76848445E+05</totfact>
</mgrwt>
</event>
<event>
 4    1  0.3946801E-002  0.5539719E+02  0.7818608E-02  0.1418230E+00
          1   -1    0    0    0  501  0.00000000000E+00  0.00000000000E+00  0.62296328101E+03  0.62296328104E+03  0.50400000000E-02 0.  1.
         -1   -1    0    0  501    0 -0.00000000000E+00 -0.00000000000E+00 -0.12315477405E+01  0.12315580534E+01  0.50400000000E-02 0.  1.
          2    1    1    2    0  502 -0.57387366516E+01  0.27097230012E+02  0.31242987458E+03  0.31365525583E+03  0.25500000000E-02 0. -1.
         -2    1    1    2  502    0  0.57387366516E+01 -0.27097230012E+02  0.30930185869E+03  0.31053958326E+03  0.25500000000E-02 0. -1.
<mgrwt>
<rscale>  0 0.55397193E+02</rscale>
<asrwt>0</asrwt>
<pdfrwt beam="1">  1        1 0.95840808E-01 0.55397193E+02</pdfrwt>
<pdfrwt beam="2">  1       -1 0.18946908E-03 0.55397193E+02</pdfrwt>
<totfact> 0.51299581E+05</totfact>
</mgrwt>
</event>
<event>
 4    1  0.3946801E-002  0.4291146E+02  0.7818608E-02  0.1487818E+00
          1   -1    0    0    0  501  0.00000000000E+00  0.00000000000E+00  0.11091214210E+04  0.11091214210E+04  0.50400000000E-02 0. -1.
         -1   -1    0    0  501    0 -0.00000000000E+00 -0.00000000000E+00 -0.41504135992E+00  0.41507196008E+00  0.50400000000E-02 0. -1.
          2    1    1    2    0  502 -0.18920637981E+02 -0.69052884616E+01  0.74554157604E+03  0.74581359277E+03  0.25500000000E-02 0.  1.
         -2    1    1    2  502    0  0.18920637981E+02  0.69052884616E+01  0.36316480358E+03  0.36372290018E+03  0.25500000000E-02 0.  1.
<mgrwt>
<rscale>  0 0.42911455E+02</rscale>
<asrwt>0</asrwt>
<pdfrwt beam="1">  1        1 0.17063229E+00 0.42911455E+02</pdfrwt>
<pdfrwt beam="2">  1       -1 0.63855535E-04 0.42911455E+02</pdfrwt>
<totfact> 0.89521036E+05</totfact>
</mgrwt>
</event>
<event>
 4    1  0.3946801E-002  0.4563237E+02  0.7818608E-02  0.1470432E+00
          1   -1    0    0    0  501  0.00000000000E+00  0.00000000000E+00  0.44303757754E+02  0.44303758041E+02  0.50400000000E-02 0. -1.
         -1   -1    0    0  501    0 -0.00000000000E+00 -0.00000000000E+00 -0.11750205467E+02  0.11750206548E+02  0.50400000000E-02 0. -1.
          2    1    1    2    0  502 -0.12931612354E+02 -0.18409879546E+02  0.11610861810E+02  0.25317234869E+02  0.25500000000E-02 0.  1.
         -2    1    1    2  502    0  0.12931612354E+02  0.18409879546E+02  0.20942690476E+02  0.30736729720E+02  0.25500000000E-02 0.  1.
<mgrwt>
<rscale>  0 0.45632370E+02</rscale>
<asrwt>0</asrwt>
<pdfrwt beam="1">  1        1 0.68159628E-02 0.45632370E+02</pdfrwt>
<pdfrwt beam="2">  1       -1 0.18077240E-02 0.45632370E+02</pdfrwt>
<totfact> 0.58141128E+05</totfact>
</mgrwt>
</event>
<event>
 4    1  0.3946801E-002  0.4997260E+02  0.7818608E-02  0.1445489E+00
         -1   -1    0    0  501    0 -0.00000000000E+00  0.00000000000E+00  0.19411119482E+02  0.19411120136E+02  0.50400000000E-02 0.  1.
          1   -1    0    0    0  501  0.00000000000E+00 -0.00000000000E+00 -0.32162755557E+02  0.32162755952E+02  0.50400000000E-02 0.  1.
          2    1    1    2    0  502  0.21043812684E+02 -0.10066544259E+02  0.28629999731E+01  0.23502641149E+02  0.25500000000E-02 0. -1.
         -2    1    1    2  502    0 -0.21043812684E+02  0.10066544259E+02 -0.15614636048E+02  0.28071234940E+02  0.25500000000E-02 0. -1.
<mgrwt>
<rscale>  0 0.49972597E+02</rscale>
<asrwt>0</asrwt>
<pdfrwt beam="2">  1        1 0.49481163E-02 0.49972597E+02</pdfrwt>
<pdfrwt beam="1">  1       -1 0.29863261E-02 0.49972597E+02</pdfrwt>
<totfact> 0.44801024E+05</totfact>
</mgrwt>
</event>
<event>
 4    1  0.3946801E-002  0.5614851E+02  0.7818608E-02  0.1414744E+00
          1   -1    0    0    0  501  0.00000000000E+00  0.00000000000E+00  0.59713578742E+03  0.59713578744E+03  0.50400000000E-02 0. -1.
         -1   -1    0    0  501    0 -0.00000000000E+00 -0.00000000000E+00 -0.13199022875E+01  0.13199119100E+01  0.50400000000E-02 0. -1.
          2    1    1    2    0  502  0.65450889453E+01 -0.25721891935E+02  0.39542533400E+03  0.39631508764E+03  0.25500000000E-02 0. -1.
         -2    1    1    2  502    0 -0.65450889453E+01  0.25721891935E+02  0.20039055112E+03  0.20214061170E+03  0.25500000000E-02 0. -1.
<mgrwt>
<rscale>  0 0.56148509E+02</rscale>
<asrwt>0</asrwt>
<pdfrwt beam="1">  1        1 0.91867048E-01 0.56148509E+02</pdfrwt>
<pdfrwt beam="2">  1       -1 0.20306263E-03 0.56148509E+02</pdfrwt>
<totfact> 0.49492769E+05</totfact>
</mgrwt>
</event>
<event>
 4    1  0.3946801E-002  0.5274013E+02  0.7818608E-02  0.1431099E+00
         -1   -1    0    0  501    0 -0.00000000000E+00  0.00000000000E+00  0.68510732280E+01  0.68510750818E+01  0.50400000000E-02 0.  1.
          1   -1    0    0    0  501  0.00000000000E+00 -0.00000000000E+00 -0.10149944116E+03  0.10149944128E+03  0.50400000000E-02 0.  1.
          2    1    1    2    0  502 -0.40527703958E-01 -0.20559134606E+02 -0.81250197422E+02  0.83810943473E+02  0.25500000000E-02 0. -1.
         -2    1    1    2  502    0  0.40527703958E-01  0.20559134606E+02 -0.13398170508E+02  0.24539572892E+02  0.25500000000E-02 0. -1.
<mgrwt>
<rscale>  0 0.52740126E+02</rscale>
<asrwt>0</asrwt>
<pdfrwt beam="2">  1        1 0.15615298E-01 0.52740126E+02</pdfrwt>
<pdfrwt beam="1">  1       -1 0.10540115E-02 0.52740126E+02</pdfrwt>
<totfact> 0.44200244E+05</totfact>
</mgrwt>
</event>
<event>
 4    1  0.3946801E-002  0.4319554E+02  0.7818608E-02  0.1485931E+00
         -1   -1    0    0  501    0 -0.00000000000E+00  0.00000000000E+00  0.26087177145E+01  0.26087225831E+01  0.50400000000E-02 0. -1.
          1   -1    0    0    0  501  0.00000000000E+00 -0.00000000000E+00 -0.17880938875E+03  0.17880938882E+03  0.50400000000E-02 0. -1.
          2    1    1    2    0  502 -0.11600871603E+01 -0.20700229738E+02 -0.62685277304E+02  0.66024914318E+02  0.25500000000E-02 0.  1.
         -2    1    1    2  502    0  0.11600871603E+01  0.20700229738E+02 -0.11351539373E+03  0.11539319708E+03  0.25500000000E-02 0.  1.
<mgrwt>
<rscale>  0 0.43195540E+02</rscale>
<asrwt>0</asrwt>
<pdfrwt beam="2">  1        1 0.27509128E-01 0.43195540E+02</pdfrwt>
<pdfrwt beam="1">  1       -1 0.40134171E-03 0.43195540E+02</pdfrwt>
<totfact> 0.79311189E+05</totfact>
</mgrwt>
</event>
<event>
 4    1  0.3946801E-002  0.6703620E+02  0.7818608E-02  0.1370472E+00
         -1   -1    0    0  501    0 -0.00000000000E+00  0.00000000000E+00  0.23198168425E+01  0.23198223174E+01  0.50400000000E-02 0. -1.
          1   -1    0    0    0  501  0.00000000000E+00 -0.00000000000E+00 -0.48428902990E+03  0.48428902993E+03  0.50400000000E-02 0. -1.
          2    1    1    2    0  502 -0.20194470576E+02 -0.76153045211E+01 -0.54831961153E+02  0.58926678807E+02  0.25500000000E-02 0. -1.
         -2    1    1    2  502    0  0.20194470576E+02  0.76153045211E+01 -0.42713725191E+03  0.42768217344E+03  0.25500000000E-02 0. -1.
<mgrwt>
<rscale>  0 0.67036205E+02</rscale>
<asrwt>0</asrwt>
<pdfrwt beam="2">  1        1 0.74505925E-01 0.67036205E+02</pdfrwt>
<pdfrwt beam="1">  1       -1 0.35689571E-03 0.67036205E+02</pdfrwt>
<totfact> 0.30953453E+05</totfact>
</mgrwt>
</event>
<event>
 4    1  0.3946801E-002  0.1233821E+03  0.7818608E-02  0.1237620E+00
         -1   -1    0    0  501    0 -0.00000000000E+00  0.00000000000E+00  0.66599570648E+03  0.66599570650E+03  0.50400000000E-02 0. -1.
          1   -1    0    0    0  501  0.00000000000E+00 -0.00000000000E+00 -0.57144278231E+01  0.57144300457E+01  0.50400000000E-02 0. -1.
          2    1    1    2    0  502  0.33592013740E+01 -0.58443113221E+02  0.22416792986E+03  0.23168543869E+03  0.25500000000E-02 0.  1.
         -2    1    1    2  502    0 -0.33592013740E+01  0.58443113221E+02  0.43611334879E+03  0.44002469785E+03  0.25500000000E-02 0.  1.
<mgrwt>
<rscale>  0 0.12338209E+03</rscale>
<asrwt>0</asrwt>
<pdfrwt beam="2">  1        1 0.87914308E-03 0.12338209E+03</pdfrwt>
<pdfrwt beam="1">  1       -1 0.10246086E+00 0.12338209E+03</pdfrwt>
<totfact> 0.17191936E+04</totfact>
</mgrwt>
</event>
<event>
 4    1  0.3946801E-002  0.6574401E+02  0.7818608E-02  0.1375194E+00
          1   -1    0    0    0  501  0.00000000000E+00  0.00000000000E+00  0.28954676898E+03  0.28954676903E+03  0.50400000000E-02 0. -1.
         -1   -1    0    0  501    0 -0.00000000000E+00 -0.00000000000E+00 -0.37319302456E+01  0.37319336489E+01  0.50400000000E-02 0. -1.
          2    1    1    2    0  502  0.62981898846E+01  0.20975552521E+02  0.33553218107E+02  0.40068185025E+02  0.25500000000E-02 0.  1.
         -2    1    1    2  502    0 -0.62981898846E+01 -0.20975552521E+02  0.25226162063E+03  0.25321051765E+03  0.25500000000E-02 0.  1.
<mgrwt>
<rscale>  0 0.65744014E+02</rscale>
<asrwt>0</asrwt>
<pdfrwt beam="1">  1        1 0.44545657E-01 0.65744014E+02</pdfrwt>
<pdfrwt beam="2">  1       -1 0.57414338E-03 0.65744014E+02</pdfrwt>
<totfact> 0.29972644E+05</totfact>
</mgrwt>
</event>
<event>
 4    1  0.3946801E-002  0.4356811E+02  0.7818608E-02  0.1483484E+00
         -1   -1    0    0  501    0 -0.00000000000E+00  0.00000000000E+00  0.14694799030E+01  0.14694885460E+01  0.50400000000E-02 0.  1.
          1   -1    0    0    0  501  0.00000000000E+00 -0.00000000000E+00 -0.32293310794E+03  0.32293310798E+03  0.50400000000E-02 0.  1.
          2    1    1    2    0  502 -0.62805234198E+01  0.20858767106E+02 -0.15991703354E+03  0.16139389940E+03  0.25500000000E-02 0.  1.
         -2    1    1    2  502    0  0.62805234198E+01 -0.20858767106E+02 -0.16154659450E+03  0.16300869713E+03  0.25500000000E-02 0.  1.
<mgrwt>
<rscale>  0 0.43568113E+02</rscale>
<asrwt>0</asrwt>
<pdfrwt beam="2">  1        1 0.49681961E-01 0.43568113E+02</pdfrwt>
<pdfrwt beam="1">  1       -1 0.22607476E-03 0.43568113E+02</pdfrwt>
<totfact> 0.85909745E+05</totfact>
</mgrwt>
</event>
<event>
 4    1  0.3946801E-002  0.4642674E+02  0.7818608E-02  0.1465626E+00
         -1   -1    0    0  501    0 -0.00000000000E+00  0.00000000000E+00  0.75788765029E+01  0.75788781788E+01  0.50400000000E-02 0.  1.
          1   -1    0    0    0  501  0.00000000000E+00 -0.00000000000E+00 -0.71100306178E+02  0.71100306356E+02  0.50400000000E-02 0.  1.
          2    1    1    2    0  502 -0.14022822056E+02 -0.16483515272E+02 -0.45991585824E+02  0.50828847983E+02  0.25500000000E-02 0.  1.
         -2    1    1    2  502    0  0.14022822056E+02  0.16483515272E+02 -0.17529843850E+02  0.27850336552E+02  0.25500000000E-02 0.  1.
<mgrwt>
<rscale>  0 0.46426739E+02</rscale>
<asrwt>0</asrwt>
<pdfrwt beam="2">  1        1 0.10938508E-01 0.46426739E+02</pdfrwt>
<pdfrwt beam="1">  1       -1 0.11659812E-02 0.46426739E+02</pdfrwt>
<totfact> 0.58366266E+05</totfact>
</mgrwt>
</event>
<event>
 4    1  0.3946801E-002  0.7809473E+02  0.7818608E-02  0.1334547E+00
          1   -1    0    0    0  501  0.00000000000E+00  0.00000000000E+00  0.19450580535E+03  0.19450580542E+03  0.50400000000E-02 0. -1.
         -1   -1    0    0  501    0 -0.00000000000E+00 -0.00000000000E+00 -0.78388235196E+01  0.78388251399E+01  0.50400000000E-02 0. -1.
          2    1    1    2    0  502 -0.25504946429E+02  0.15400605698E+02  0.27938411385E+02  0.40844042227E+02  0.25500000000E-02 0. -1.
         -2    1    1    2  502    0  0.25504946429E+02 -0.15400605698E+02  0.15872857045E+03  0.16150058833E+03  0.25500000000E-02 0. -1.
<mgrwt>
<rscale>  0 0.78094734E+02</rscale>
<asrwt>0</asrwt>
<pdfrwt beam="1">  1        1 0.29923967E-01 0.78094734E+02</pdfrwt>
<pdfrwt beam="2">  1       -1 0.12059731E-02 0.78094734E+02</pdfrwt>
<totfact> 0.17778894E+05</totfact>
</mgrwt>
</event>
<event>
 4    1  0.3946801E-002  0.6177544E+02  0.7818608E-02  0.1390529E+00
          1   -1    0    0    0  501  0.00000000000E+00  0.00000000000E+00  0.62019986360E+01  0.62020006839E+01  0.50400000000E-02 0. -1.
         -1   -1    0    0  501    0 -0.00000000000E+00 -0.00000000000E+00 -0.15382962301E+03  0.15382962309E+03  0.50400000000E-02 0. -1.
          2    1    1    2    0  502 -0.28856592769E+02  0.44038022277E+01 -0.99971172433E+02  0.10414572360E+03  0.25500000000E-02 0. -1.
         -2    1    1    2  502    0  0.28856592769E+02 -0.44038022277E+01 -0.47656451942E+02  0.55885900176E+02  0.25500000000E-02 0. -1.
<mgrwt>
<rscale>  0 0.61775441E+02</rscale>
<asrwt>0</asrwt>
<pdfrwt beam="1">  1        1 0.95415392E-03 0.61775441E+02</pdfrwt>
<pdfrwt beam="2">  1       -1 0.23666093E-01 0.61775441E+02</pdfrwt>
<totfact> 0.20169757E+05</totfact>
</mgrwt>
</event>
<event>
 4    1  0.3946801E-002  0.4479160E+02  0.7818608E-02  0.1475647E+00
          1   -1    0    0    0  501  0.00000000000E+00  0.00000000000E+00  0.64934137393E+03  0.64934137395E+03  0.50400000000E-02 0.  1.
         -1   -1    0    0  501    0 -0.00000000000E+00 -0.00000000000E+00 -0.77242332362E+00  0.77243976624E+00  0.50400000000E-02 0.  1.
          2    1    1    2    0  502  0.16053335194E+02  0.15309541560E+02  0.36897341746E+03  0.36963965484E+03  0.25500000000E-02 0.  1.
         -2    1    1    2  502    0 -0.16053335194E+02 -0.15309541560E+02  0.27959553315E+03  0.28047415888E+03  0.25500000000E-02 0.  1.
<mgrwt>
<rscale>  0 0.44791596E+02</rscale>
<asrwt>0</asrwt>
<pdfrwt beam="1">  1        1 0.99898932E-01 0.44791596E+02</pdfrwt>
<pdfrwt beam="2">  1       -1 0.11883532E-03 0.44791596E+02</pdfrwt>
<totfact> 0.86987875E+05</totfact>
</mgrwt>
</event>
<event>
 4    1  0.3946801E-002  0.1793707E+03  0.7818608E-02  0.1168413E+00
          1   -1    0    0    0  501  0.00000000000E+00  0.00000000000E+00  0.11779982650E+04  0.11779982650E+04  0.50400000000E-02 0.  1.
         -1   -1    0    0  501    0 -0.00000000000E+00 -0.00000000000E+00 -0.68280763370E+01  0.68280781971E+01  0.50400000000E-02 0.  1.
          2    1    1    2    0  502  0.84983056525E+02  0.15724998302E+02  0.42732015074E+03  0.43597236919E+03  0.25500000000E-02 0. -1.
         -2    1    1    2  502    0 -0.84983056525E+02 -0.15724998302E+02  0.74385003790E+03  0.74885397399E+03  0.25500000000E-02 0. -1.
<mgrwt>
<rscale>  0 0.17937071E+03</rscale>
<asrwt>0</asrwt>
<pdfrwt beam="1">  1        1 0.18123038E+00 0.17937071E+03</pdfrwt>
<pdfrwt beam="2">  1       -1 0.10504741E-02 0.17937071E+03</pdfrwt>
<totfact> 0.20284075E+04</totfact>
</mgrwt>
</event>
<event>
 4    1  0.3946801E-002  0.4615296E+02  0.7818608E-02  0.1467270E+00
         -1   -1    0    0  501    0 -0.00000000000E+00  0.00000000000E+00  0.16240351297E+04  0.16240351298E+04  0.50400000000E-02 0. -1.
          1   -1    0    0    0  501  0.00000000000E+00 -0.00000000000E+00 -0.32788236669E+00  0.32792110025E+00  0.50400000000E-02 0. -1.
          2    1    1    2    0  502 -0.13078657329E+02  0.18398020790E+02  0.64311657220E+03  0.64351259808E+03  0.25500000000E-02 0.  1.
         -2    1    1    2  502    0  0.13078657329E+02 -0.18398020790E+02  0.98059067518E+03  0.98085045278E+03  0.25500000000E-02 0.  1.
<mgrwt>
<rscale>  0 0.46152961E+02</rscale>
<asrwt>0</asrwt>
<pdfrwt beam="2">  1        1 0.50445679E-04 0.46152961E+02</pdfrwt>
<pdfrwt beam="1">  1       -1 0.24985524E+00 0.46152961E+02</pdfrwt>
<totfact> 0.67057068E+04</totfact>
</mgrwt>
</event>
<event>
 4    1  0.3946801E-002  0.4066012E+02  0.7818608E-02  0.1503409E+00
          1   -1    0    0    0  501  0.00000000000E+00  0.00000000000E+00  0.36334155061E+00  0.36337650447E+00  0.50400000000E-02 0.  1.
         -1   -1    0    0  501    0 -0.00000000000E+00 -0.00000000000E+00 -0.11374737782E+04  0.11374737782E+04  0.50400000000E-02 0.  1.
          2    1    1    2    0  502 -0.19041041251E+02  0.66534897295E+01 -0.63979768765E+03  0.64011554528E+03  0.25500000000E-02 0. -1.
         -2    1    1    2  502    0  0.19041041251E+02 -0.66534897295E+01 -0.49731274896E+03  0.49772160940E+03  0.25500000000E-02 0. -1.
<mgrwt>
<rscale>  0 0.40660122E+02</rscale>
<asrwt>0</asrwt>
<pdfrwt beam="1">  1        1 0.55902301E-04 0.40660122E+02</pdfrwt>
<pdfrwt beam="2">  1       -1 0.17499312E+00 0.40660122E+02</pdfrwt>
<totfact> 0.16762581E+05</totfact>
</mgrwt>
</event>
<event>
 4    1  0.3946801E-002  0.5685428E+02  0.7818608E-02  0.1411528E+00
          1   -1    0    0    0  501  0.00000000000E+00  0.00000000000E+00  0.32665749821E+02  0.32665750210E+02  0.50400000000E-02 0. -1.
         -1   -1    0    0  501    0 -0.00000000000E+00 -0.00000000000E+00 -0.24738514958E+02  0.24738515472E+02  0.50400000000E-02 0. -1.
          2    1    1    2    0  502  0.35511733936E+01 -0.19846317109E+02 -0.16270581268E+02  0.25907893712E+02  0.25500000000E-02 0. -1.
         -2    1    1    2  502    0 -0.35511733936E+01  0.19846317109E+02  0.24197816131E+02  0.31496371970E+02  0.25500000000E-02 0. -1.
<mgrwt>
<rscale>  0 0.56854276E+02</rscale>
<asrwt>0</asrwt>
<pdfrwt beam="1">  1        1 0.50255001E-02 0.56854276E+02</pdfrwt>
<pdfrwt beam="2">  1       -1 0.38059254E-02 0.56854276E+02</pdfrwt>
<totfact> 0.32047931E+05</totfact>
</mgrwt>
</event>
<event>
 4    1  0.3946801E-002  0.4330892E+02  0.7818608E-02  0.1485184E+00
         -1   -1    0    0  501    0 -0.00000000000E+00  0.00000000000E+00  0.31235675483E+00  0.31239741338E+00  0.50400000000E-02 0.  1.
          1   -1    0    0    0  501  0.00000000000E+00 -0.00000000000E+00 -0.15011202714E+04  0.15011202714E+04  0.50400000000E-02 0.  1.
          2    1    1    2    0  502  0.19961391868E+02  0.24072184450E+01 -0.47162572997E+03  0.47205410818E+03  0.25500000000E-02 0. -1.
         -2    1    1    2  502    0 -0.19961391868E+02 -0.24072184450E+01 -0.10291821847E+04  0.10293785606E+04  0.25500000000E-02 0. -1.
<mgrwt>
<rscale>  0 0.43308918E+02</rscale>
<asrwt>0</asrwt>
<pdfrwt beam="2">  1        1 0.23093581E+00 0.43308918E+02</pdfrwt>
<pdfrwt beam="1">  1       -1 0.48059215E-04 0.43308918E+02</pdfrwt>
<totfact> 0.73854571E+05</totfact>
</mgrwt>
</event>
<event>
 4    1  0.3946801E-002  0.1175210E+03  0.7818608E-02  0.1247244E+00
          1   -1    0    0    0  501  0.00000000000E+00  0.00000000000E+00  0.25919286696E+02  0.25919287186E+02  0.50400000000E-02 0. -1.
         -1   -1    0    0  501    0 -0.00000000000E+00 -0.00000000000E+00 -0.13321329561E+03  0.13321329571E+03  0.50400000000E-02 0. -1.
          2    1    1    2    0  502 -0.29273176920E+02  0.49120685461E+02 -0.71966289466E+02  0.91917938691E+02  0.25500000000E-02 0. -1.
         -2    1    1    2  502    0  0.29273176920E+02 -0.49120685461E+02 -0.35327719450E+02  0.67214644202E+02  0.25500000000E-02 0. -1.
<mgrwt>
<rscale>  0 0.11752095E+03</rscale>
<asrwt>0</asrwt>
<pdfrwt beam="1">  1        1 0.39875827E-02 0.11752095E+03</pdfrwt>
<pdfrwt beam="2">  1       -1 0.20494353E-01 0.11752095E+03</pdfrwt>
<totfact> 0.39670821E+04</totfact>
</mgrwt>
</event>
<event>
 4    1  0.3946801E-002  0.5792819E+02  0.7818608E-02  0.1406738E+00
         -1   -1    0    0  501    0 -0.00000000000E+00  0.00000000000E+00  0.64971723929E+01  0.64971743477E+01  0.50400000000E-02 0.  1.
          1   -1    0    0    0  501  0.00000000000E+00 -0.00000000000E+00 -0.12912058825E+03  0.12912058835E+03  0.50400000000E-02 0.  1.
          2    1    1    2    0  502 -0.20119196437E+02 -0.47792652830E+01 -0.13832492566E+02  0.24878932835E+02  0.25500000000E-02 0.  1.
         -2    1    1    2  502    0  0.20119196437E+02  0.47792652830E+01 -0.10879092329E+03  0.11073882986E+03  0.25500000000E-02 0.  1.
<mgrwt>
<rscale>  0 0.57928192E+02</rscale>
<asrwt>0</asrwt>
<pdfrwt beam="2">  1        1 0.19864704E-01 0.57928192E+02</pdfrwt>
<pdfrwt beam="1">  1       -1 0.99956524E-03 0.57928192E+02</pdfrwt>
<totfact> 0.36029630E+05</totfact>
</mgrwt>
</event>
<event>
 4    1  0.3946801E-002  0.5366150E+02  0.7818608E-02  0.1426537E+00
         -1   -1    0    0  501    0 -0.00000000000E+00  0.00000000000E+00  0.84059481379E+02  0.84059481530E+02  0.50400000000E-02 0. -1.
          1   -1    0    0    0  501  0.00000000000E+00 -0.00000000000E+00 -0.85640429926E+01  0.85640444757E+01  0.50400000000E-02 0. -1.
          2    1    1    2    0  502 -0.21566826087E+02 -0.15920158696E+02  0.35772411790E+02  0.44701732541E+02  0.25500000000E-02 0.  1.
         -2    1    1    2  502    0  0.21566826087E+02  0.15920158696E+02  0.39723026596E+02  0.47921793465E+02  0.25500000000E-02 0.  1.
<mgrwt>
<rscale>  0 0.53661498E+02</rscale>
<asrwt>0</asrwt>
<pdfrwt beam="2">  1        1 0.13175452E-02 0.53661498E+02</pdfrwt>
<pdfrwt beam="1">  1       -1 0.12932228E-01 0.53661498E+02</pdfrwt>
<totfact> 0.32103716E+05</totfact>
</mgrwt>
</event>
<event>
 4    1  0.3946801E-002  0.4245732E+02  0.7818608E-02  0.1490869E+00
          1   -1    0    0    0  501  0.00000000000E+00  0.00000000000E+00  0.17305506881E+03  0.17305506888E+03  0.50400000000E-02 0.  1.
         -1   -1    0    0  501    0 -0.00000000000E+00 -0.00000000000E+00 -0.26041162469E+01  0.26041211241E+01  0.50400000000E-02 0.  1.
          2    1    1    2    0  502  0.58067840621E+01  0.20057638503E+02  0.69401491207E+02  0.72474785903E+02  0.25500000000E-02 0.  1.
         -2    1    1    2  502    0 -0.58067840621E+01 -0.20057638503E+02  0.10104946135E+03  0.10318440410E+03  0.25500000000E-02 0.  1.
<mgrwt>
<rscale>  0 0.42457317E+02</rscale>
<asrwt>0</asrwt>
<pdfrwt beam="1">  1        1 0.26623855E-01 0.42457317E+02</pdfrwt>
<pdfrwt beam="2">  1       -1 0.40063368E-03 0.42457317E+02</pdfrwt>
<totfact> 0.82305739E+05</totfact>
</mgrwt>
</event>
<event>
 4    1  0.3946801E-002  0.9456619E+02  0.7818608E-02  0.1292156E+00
          1   -1    0    0    0  501  0.00000000000E+00  0.00000000000E+00  0.16729989626E+03  0.16729989633E+03  0.50400000000E-02 0. -1.
         -1   -1    0    0  501    0 -0.00000000000E+00 -0.00000000000E+00 -0.13363373497E+02  0.13363374447E+02  0.50400000000E-02 0. -1.
          2    1    1    2    0  502 -0.76512175359E+01 -0.28292541234E+02  0.14785268335E+03  0.15072964207E+03  0.25500000000E-02 0.  1.
         -2    1    1    2  502    0  0.76512175359E+01  0.28292541234E+02  0.60838394138E+01  0.29933628711E+02  0.25500000000E-02 0.  1.
<mgrwt>
<rscale>  0 0.94566190E+02</rscale>
<asrwt>0</asrwt>
<pdfrwt beam="1">  1        1 0.25738447E-01 0.94566190E+02</pdfrwt>
<pdfrwt beam="2">  1       -1 0.20559036E-02 0.94566190E+02</pdfrwt>
<totfact> 0.10369576E+05</totfact>
</mgrwt>
</event>
<event>
 4    1  0.3946801E-002  0.1275124E+03  0.7818608E-02  0.1231194E+00
         -1   -1    0    0  501    0 -0.00000000000E+00  0.00000000000E+00  0.98331958582E+01  0.98331971499E+01  0.50400000000E-02 0.  1.
          1   -1    0    0    0  501  0.00000000000E+00 -0.00000000000E+00 -0.41338093802E+03  0.41338093806E+03  0.50400000000E-02 0.  1.
          2    1    1    2    0  502 -0.61880987967E+02 -0.14622447354E+02 -0.21726453553E+03  0.22637789433E+03  0.25500000000E-02 0.  1.
         -2    1    1    2  502    0  0.61880987967E+02  0.14622447354E+02 -0.18628320664E+03  0.19683624087E+03  0.25500000000E-02 0.  1.
<mgrwt>
<rscale>  0 0.12751245E+03</rscale>
<asrwt>0</asrwt>
<pdfrwt beam="2">  1        1 0.63597054E-01 0.12751245E+03</pdfrwt>
<pdfrwt beam="1">  1       -1 0.15127998E-02 0.12751245E+03</pdfrwt>
<totfact> 0.54822797E+04</totfact>
</mgrwt>
</event>
<event>
 4    1  0.3946801E-002  0.4926547E+02  0.7818608E-02  0.1449344E+00
         -1   -1    0    0  501    0 -0.00000000000E+00  0.00000000000E+00  0.23394147434E+01  0.23394201725E+01  0.50400000000E-02 0.  1.
          1   -1    0    0    0  501  0.00000000000E+00 -0.00000000000E+00 -0.25936865423E+03  0.25936865428E+03  0.50400000000E-02 0.  1.
          2    1    1    2    0  502 -0.23584568048E+01 -0.23749507735E+02 -0.16090168092E+03  0.16266208029E+03  0.25500000000E-02 0.  1.
         -2    1    1    2  502    0  0.23584568048E+01  0.23749507735E+02 -0.96127558566E+02  0.99045994157E+02  0.25500000000E-02 0.  1.
<mgrwt>
<rscale>  0 0.49265467E+02</rscale>
<asrwt>0</asrwt>
<pdfrwt beam="2">  1        1 0.39902848E-01 0.49265467E+02</pdfrwt>
<pdfrwt beam="1">  1       -1 0.35991059E-03 0.49265467E+02</pdfrwt>
<totfact> 0.61040216E+05</totfact>
</mgrwt>
</event>
<event>
 4    1  0.3946801E-002  0.4822350E+02  0.7818608E-02  0.1455166E+00
         -1   -1    0    0  501    0 -0.00000000000E+00  0.00000000000E+00  0.60353752429E+02  0.60353752639E+02  0.50400000000E-02 0. -1.
          1   -1    0    0    0  501  0.00000000000E+00 -0.00000000000E+00 -0.96328143128E+01  0.96328156313E+01  0.50400000000E-02 0. -1.
          2    1    1    2    0  502 -0.88859639232E+01 -0.20863421328E+02  0.37251696114E+02  0.43611140483E+02  0.25500000000E-02 0.  1.
         -2    1    1    2  502    0  0.88859639232E+01  0.20863421328E+02  0.13469242002E+02  0.26375427788E+02  0.25500000000E-02 0.  1.
<mgrwt>
<rscale>  0 0.48223502E+02</rscale>
<asrwt>0</asrwt>
<pdfrwt beam="2">  1        1 0.14819715E-02 0.48223502E+02</pdfrwt>
<pdfrwt beam="1">  1       -1 0.92851929E-02 0.48223502E+02</pdfrwt>
<totfact> 0.43705086E+05</totfact>
</mgrwt>
</event>
<event>
 4    1  0.3946801E-002  0.4606985E+02  0.7818608E-02  0.1467771E+00
         -1   -1    0    0  501    0 -0.00000000000E+00  0.00000000000E+00  0.30585254120E+00  0.30589406427E+00  0.50400000000E-02 0.  1.
          1   -1    0    0    0  501  0.00000000000E+00 -0.00000000000E+00 -0.17347302503E+04  0.17347302504E+04  0.50400000000E-02 0.  1.
          2    1    1    2    0  502  0.14069724390E+00 -0.22012395157E+02 -0.61166539022E+03  0.61206136533E+03  0.25500000000E-02 0.  1.
         -2    1    1    2  502    0 -0.14069724390E+00  0.22012395157E+02 -0.11227590076E+04  0.11229747791E+04  0.25500000000E-02 0.  1.
<mgrwt>
<rscale>  0 0.46069846E+02</rscale>
<asrwt>0</asrwt>
<pdfrwt beam="2">  1        1 0.26687370E+00 0.46069846E+02</pdfrwt>
<pdfrwt beam="1">  1       -1 0.47058821E-04 0.46069846E+02</pdfrwt>
<totfact> 0.55363240E+05</totfact>
</mgrwt>
</event>
<event>
 4    1  0.3946801E-002  0.5614858E+02  0.7818608E-02  0.1414744E+00
          1   -1    0    0    0  501  0.00000000000E+00  0.00000000000E+00  0.19455480877E+01  0.19455546159E+01  0.50400000000E-02 0. -1.
         -1   -1    0    0  501    0 -0.00000000000E+00 -0.00000000000E+00 -0.40511176949E+03  0.40511176952E+03  0.50400000000E-02 0. -1.
          2    1    1    2    0  502  0.27874014101E+02  0.25865449179E+01 -0.21698733782E+03  0.21878563860E+03  0.25500000000E-02 0.  1.
         -2    1    1    2  502    0 -0.27874014101E+02 -0.25865449179E+01 -0.18617888359E+03  0.18827168554E+03  0.25500000000E-02 0.  1.
<mgrwt>
<rscale>  0 0.56148580E+02</rscale>
<asrwt>0</asrwt>
<pdfrwt beam="1">  1        1 0.29931592E-03 0.56148580E+02</pdfrwt>
<pdfrwt beam="2">  1       -1 0.62324821E-01 0.56148580E+02</pdfrwt>
<totfact> 0.18378251E+05</totfact>
</mgrwt>
</event>
<event>
 4    1  0.3946801E-002  0.7327095E+02  0.7818608E-02  0.1349310E+00
         -1   -1    0    0  501    0 -0.00000000000E+00  0.00000000000E+00  0.42202767919E+03  0.42202767922E+03  0.50400000000E-02 0. -1.
          1   -1    0    0    0  501  0.00000000000E+00 -0.00000000000E+00 -0.31802585338E+01  0.31802625274E+01  0.50400000000E-02 0. -1.
          2    1    1    2    0  502  0.72347506348E+01 -0.20267769262E+02  0.37366704239E+02  0.43120698972E+02  0.25500000000E-02 0. -1.
         -2    1    1    2  502    0 -0.72347506348E+01  0.20267769262E+02  0.38148071641E+03  0.38208724277E+03  0.25500000000E-02 0. -1.
<mgrwt>
<rscale>  0 0.73270949E+02</rscale>
<asrwt>0</asrwt>
<pdfrwt beam="2">  1        1 0.48927090E-03 0.73270949E+02</pdfrwt>
<pdfrwt beam="1">  1       -1 0.64927329E-01 0.73270949E+02</pdfrwt>
<totfact> 0.91468088E+04</totfact>
</mgrwt>
</event>
<event>
 4    1  0.3946801E-002  0.5987483E+02  0.7818608E-02  0.1398358E+00
          1   -1    0    0    0  501  0.00000000000E+00  0.00000000000E+00  0.77414542481E+00  0.77416183086E+00  0.50400000000E-02 0. -1.
         -1   -1    0    0  501    0 -0.00000000000E+00 -0.00000000000E+00 -0.11577142307E+04  0.11577142307E+04  0.50400000000E-02 0. -1.
          2    1    1    2    0  502 -0.25689835267E+02 -0.60185249611E+01 -0.30480090724E+03  0.30594081673E+03  0.25500000000E-02 0. -1.
         -2    1    1    2  502    0  0.25689835267E+02  0.60185249611E+01 -0.85213917807E+03  0.85254757585E+03  0.25500000000E-02 0. -1.
<mgrwt>
<rscale>  0 0.59874826E+02</rscale>
<asrwt>0</asrwt>
<pdfrwt beam="1">  1        1 0.11910148E-03 0.59874826E+02</pdfrwt>
<pdfrwt beam="2">  1       -1 0.17810850E+00 0.59874826E+02</pdfrwt>
<totfact> 0.62701915E+04</totfact>
</mgrwt>
</event>
<event>
 4    1  0.3946801E-002  0.4870518E+02  0.7818608E-02  0.1452453E+00
          1   -1    0    0    0  501  0.00000000000E+00  0.00000000000E+00  0.64864933927E+02  0.64864934123E+02  0.50400000000E-02 0.  1.
         -1   -1    0    0  501    0 -0.00000000000E+00 -0.00000000000E+00 -0.91428214897E+01  0.91428228789E+01  0.50400000000E-02 0.  1.
          2    1    1    2    0  502  0.20104628326E+02 -0.12023682459E+02  0.17749376626E+02  0.29390566464E+02  0.25500000000E-02 0. -1.
         -2    1    1    2  502    0 -0.20104628326E+02  0.12023682459E+02  0.37972735811E+02  0.44617190537E+02  0.25500000000E-02 0. -1.
<mgrwt>
<rscale>  0 0.48705177E+02</rscale>
<asrwt>0</asrwt>
<pdfrwt beam="1">  1        1 0.99792206E-02 0.48705177E+02</pdfrwt>
<pdfrwt beam="2">  1       -1 0.14065881E-02 0.48705177E+02</pdfrwt>
<totfact> 0.51203403E+05</totfact>
</mgrwt>
</event>
<event>
 4    1  0.3946801E-002  0.6480256E+02  0.7818608E-02  0.1378716E+00
          1   -1    0    0    0  501  0.00000000000E+00  0.00000000000E+00  0.18555931844E+02  0.18555932528E+02  0.50400000000E-02 0. -1.
         -1   -1    0    0  501    0 -0.00000000000E+00 -0.00000000000E+00 -0.56577219225E+02  0.56577219450E+02  0.50400000000E-02 0. -1.
          2    1    1    2    0  502  0.26235965306E+02  0.58528650467E+01  0.19636162715E+01  0.26952508235E+02  0.25500000000E-02 0.  1.
         -2    1    1    2  502    0 -0.26235965306E+02 -0.58528650467E+01 -0.39984903653E+02  0.48180643742E+02  0.25500000000E-02 0.  1.
<mgrwt>
<rscale>  0 0.64802563E+02</rscale>
<asrwt>0</asrwt>
<pdfrwt beam="1">  1        1 0.28547588E-02 0.64802563E+02</pdfrwt>
<pdfrwt beam="2">  1       -1 0.87041876E-02 0.64802563E+02</pdfrwt>
<totfact> 0.21159022E+05</totfact>
</mgrwt>
</event>
<event>
 4    1  0.3946801E-002  0.4222170E+02  0.7818608E-02  0.1492471E+00
          1   -1    0    0    0  501  0.00000000000E+00  0.00000000000E+00  0.49751403110E+03  0.49751403113E+03  0.50400000000E-02 0. -1.
         -1   -1    0    0  501    0 -0.00000000000E+00 -0.00000000000E+00 -0.89578282933E+00  0.89579700766E+00  0.50400000000E-02 0. -1.
          2    1    1    2    0  502  0.21038276504E+02  0.15650481170E+01  0.25752582206E+03  0.25838848173E+03  0.25500000000E-02 0.  1.
         -2    1    1    2  502    0 -0.21038276504E+02 -0.15650481170E+01  0.23909242621E+03  0.24002134641E+03  0.25500000000E-02 0.  1.
<mgrwt>
<rscale>  0 0.42221704E+02</rscale>
<asrwt>0</asrwt>
<pdfrwt beam="1">  1        1 0.76540517E-01 0.42221704E+02</pdfrwt>
<pdfrwt beam="2">  1       -1 0.13781402E-03 0.42221704E+02</pdfrwt>
<totfact> 0.98682175E+05</totfact>
</mgrwt>
</event>
<event>
 4    1  0.3946801E-002  0.4626940E+02  0.7818608E-02  0.1466569E+00
          1   -1    0    0    0  501  0.00000000000E+00  0.00000000000E+00  0.74767833827E+02  0.74767833997E+02  0.50400000000E-02 0. -1.
         -1   -1    0    0  501    0 -0.00000000000E+00 -0.00000000000E+00 -0.71583489739E+01  0.71583507482E+01  0.50400000000E-02 0. -1.
          2    1    1    2    0  502 -0.12112496914E+01  0.20624292329E+02  0.15370937675E+02  0.25750617301E+02  0.25500000000E-02 0.  1.
         -2    1    1    2  502    0  0.12112496914E+01 -0.20624292329E+02  0.52238547178E+02  0.56175567444E+02  0.25500000000E-02 0.  1.
<mgrwt>
<rscale>  0 0.46269399E+02</rscale>
<asrwt>0</asrwt>
<pdfrwt beam="1">  1        1 0.11502744E-01 0.46269399E+02</pdfrwt>
<pdfrwt beam="2">  1       -1 0.11012846E-02 0.46269399E+02</pdfrwt>
<totfact> 0.59200617E+05</totfact>
</mgrwt>
</event>
<event>
 4    1  0.3946801E-002  0.1406271E+03  0.7818608E-02  0.1212488E+00
         -1   -1    0    0  501    0 -0.00000000000E+00  0.00000000000E+00  0.88506754938E+03  0.88506754940E+03  0.50400000000E-02 0. -1.
          1   -1    0    0    0  501  0.00000000000E+00 -0.00000000000E+00 -0.55860078626E+01  0.55860101363E+01  0.50400000000E-02 0. -1.
          2    1    1    2    0  502 -0.99420916978E+01 -0.61229818192E+02  0.23006084778E+03  0.23827700164E+03  0.25500000000E-02 0.  1.
         -2    1    1    2  502    0  0.99420916978E+01  0.61229818192E+02  0.64942069375E+03  0.65237655790E+03  0.25500000000E-02 0.  1.
<mgrwt>
<rscale>  0 0.14062710E+03</rscale>
<asrwt>0</asrwt>
<pdfrwt beam="2">  1        1 0.85938556E-03 0.14062710E+03</pdfrwt>
<pdfrwt beam="1">  1       -1 0.13616431E+00 0.14062710E+03</pdfrwt>
<totfact> 0.92503367E+03</totfact>
</mgrwt>
</event>
<event>
 4    1  0.3946801E-002  0.1014960E+03  0.7818608E-02  0.1277181E+00
         -1   -1    0    0  501    0 -0.00000000000E+00  0.00000000000E+00  0.26425910794E+01  0.26425958856E+01  0.50400000000E-02 0.  1.
          1   -1    0    0    0  501  0.00000000000E+00 -0.00000000000E+00 -0.97455768855E+03  0.97455768857E+03  0.50400000000E-02 0.  1.
          2    1    1    2    0  502  0.77271405787E+01 -0.50115042727E+02 -0.46638269588E+03  0.46913115995E+03  0.25500000000E-02 0. -1.
         -2    1    1    2  502    0 -0.77271405787E+01  0.50115042727E+02 -0.50553240159E+03  0.50806912451E+03  0.25500000000E-02 0. -1.
<mgrwt>
<rscale>  0 0.10149601E+03</rscale>
<asrwt>0</asrwt>
<pdfrwt beam="2">  1        1 0.14993167E+00 0.10149601E+03</pdfrwt>
<pdfrwt beam="1">  1       -1 0.40655362E-03 0.10149601E+03</pdfrwt>
<totfact> 0.10296956E+05</totfact>
</mgrwt>
</event>
<event>
 4    1  0.3946801E-002  0.4855784E+02  0.7818608E-02  0.1453279E+00
          1   -1    0    0    0  501  0.00000000000E+00  0.00000000000E+00  0.35300696047E+02  0.35300696407E+02  0.50400000000E-02 0. -1.
         -1   -1    0    0  501    0 -0.00000000000E+00 -0.00000000000E+00 -0.16698423853E+02  0.16698424614E+02  0.50400000000E-02 0. -1.
          2    1    1    2    0  502  0.21808948440E+01  0.23971203207E+02  0.12702917085E+02  0.27216520617E+02  0.25500000000E-02 0.  1.
         -2    1    1    2  502    0 -0.21808948440E+01 -0.23971203207E+02  0.58993551087E+01  0.24782600403E+02  0.25500000000E-02 0.  1.
<mgrwt>
<rscale>  0 0.48557842E+02</rscale>
<asrwt>0</asrwt>
<pdfrwt beam="1">  1        1 0.54308764E-02 0.48557842E+02</pdfrwt>
<pdfrwt beam="2">  1       -1 0.25689884E-02 0.48557842E+02</pdfrwt>
<totfact> 0.48637346E+05</totfact>
</mgrwt>
</event>
<event>
 4    1  0.3946801E-002  0.5499584E+02  0.7818608E-02  0.1420119E+00
          1   -1    0    0    0  501  0.00000000000E+00  0.00000000000E+00  0.34680407109E+03  0.34680407113E+03  0.50400000000E-02 0. -1.
         -1   -1    0    0  501    0 -0.00000000000E+00 -0.00000000000E+00 -0.21802928729E+01  0.21802986982E+01  0.50400000000E-02 0. -1.
          2    1    1    2    0  502 -0.70573566589E+01 -0.21706189637E+02  0.26962415963E+03  0.27058852971E+03  0.25500000000E-02 0. -1.
         -2    1    1    2  502    0  0.70573566589E+01  0.21706189637E+02  0.74999618594E+02  0.78395840115E+02  0.25500000000E-02 0. -1.
<mgrwt>
<rscale>  0 0.54995835E+02</rscale>
<asrwt>0</asrwt>
<pdfrwt beam="1">  1        1 0.53354494E-01 0.54995835E+02</pdfrwt>
<pdfrwt beam="2">  1       -1 0.33542999E-03 0.54995835E+02</pdfrwt>
<totfact> 0.48736801E+05</totfact>
</mgrwt>
</event>
<event>
 4    1  0.3946801E-002  0.5178474E+02  0.7818608E-02  0.1435946E+00
         -1   -1    0    0  501    0 -0.00000000000E+00  0.00000000000E+00  0.67660217420E+00  0.67662094539E+00  0.50400000000E-02 0. -1.
          1   -1    0    0    0  501  0.00000000000E+00 -0.00000000000E+00 -0.99084150562E+03  0.99084150563E+03  0.50400000000E-02 0. -1.
          2    1    1    2    0  502  0.39287153239E+01 -0.21909231056E+02 -0.74834747015E+03  0.74867842582E+03  0.25500000000E-02 0.  1.
         -2    1    1    2  502    0 -0.39287153239E+01  0.21909231056E+02 -0.24181743330E+03  0.24283970076E+03  0.25500000000E-02 0.  1.
<mgrwt>
<rscale>  0 0.51784740E+02</rscale>
<asrwt>0</asrwt>
<pdfrwt beam="2">  1        1 0.15243600E+00 0.51784740E+02</pdfrwt>
<pdfrwt beam="1">  1       -1 0.10409488E-03 0.51784740E+02</pdfrwt>
<totfact> 0.58300325E+05</totfact>
</mgrwt>
</event>
<event>
 4    1  0.3946801E-002  0.4509915E+02  0.7818608E-02  0.1473724E+00
         -1   -1    0    0  501    0 -0.00000000000E+00  0.00000000000E+00  0.83915043265E+01  0.83915058401E+01  0.50400000000E-02 0. -1.
          1   -1    0    0    0  501  0.00000000000E+00 -0.00000000000E+00 -0.60595002948E+02  0.60595003158E+02  0.50400000000E-02 0. -1.
          2    1    1    2    0  502  0.97791174400E-01 -0.22365798456E+02 -0.30493981908E+02  0.37816946503E+02  0.25500000000E-02 0.  1.
         -2    1    1    2  502    0 -0.97791174400E-01  0.22365798456E+02 -0.21709516713E+02  0.31169562495E+02  0.25500000000E-02 0.  1.
<mgrwt>
<rscale>  0 0.45099148E+02</rscale>
<asrwt>0</asrwt>
<pdfrwt beam="2">  1        1 0.93223080E-02 0.45099148E+02</pdfrwt>
<pdfrwt beam="1">  1       -1 0.12910008E-02 0.45099148E+02</pdfrwt>
<totfact> 0.61715879E+05</totfact>
</mgrwt>
</event>
<event>
 4    1  0.3946801E-002  0.4323710E+02  0.7818608E-02  0.1485657E+00
         -1   -1    0    0  501    0 -0.00000000000E+00  0.00000000000E+00  0.23728166081E+02  0.23728166616E+02  0.50400000000E-02 0.  1.
          1   -1    0    0    0  501  0.00000000000E+00 -0.00000000000E+00 -0.19696490064E+02  0.19696490709E+02  0.50400000000E-02 0.  1.
          2    1    1    2    0  502 -0.19288594439E+02  0.74635033024E+01 -0.43049397001E+01  0.21125488617E+02  0.25500000000E-02 0. -1.
         -2    1    1    2  502    0  0.19288594439E+02 -0.74635033024E+01  0.83366157168E+01  0.22299168709E+02  0.25500000000E-02 0. -1.
<mgrwt>
<rscale>  0 0.43237096E+02</rscale>
<asrwt>0</asrwt>
<pdfrwt beam="2">  1        1 0.30302293E-02 0.43237096E+02</pdfrwt>
<pdfrwt beam="1">  1       -1 0.36504872E-02 0.43237096E+02</pdfrwt>
<totfact> 0.62368861E+05</totfact>
</mgrwt>
</event>
<event>
 4    1  0.3946801E-002  0.4718732E+02  0.7818608E-02  0.1461131E+00
         -1   -1    0    0  501    0 -0.00000000000E+00  0.00000000000E+00  0.22479006936E+02  0.22479007501E+02  0.50400000000E-02 0.  1.
          1   -1    0    0    0  501  0.00000000000E+00 -0.00000000000E+00 -0.24763578623E+02  0.24763579136E+02  0.50400000000E-02 0.  1.
          2    1    1    2    0  502 -0.38134578629E+01  0.19935405116E+02  0.10900845371E+02  0.23038907837E+02  0.25500000000E-02 0.  1.
         -2    1    1    2  502    0  0.38134578629E+01 -0.19935405116E+02 -0.13185417058E+02  0.24203678801E+02  0.25500000000E-02 0.  1.
<mgrwt>
<rscale>  0 0.47187315E+02</rscale>
<asrwt>0</asrwt>
<pdfrwt beam="2">  1        1 0.38097814E-02 0.47187315E+02</pdfrwt>
<pdfrwt beam="1">  1       -1 0.34583089E-02 0.47187315E+02</pdfrwt>
<totfact> 0.50767950E+05</totfact>
</mgrwt>
</event>
<event>
 4    1  0.3946801E-002  0.4387711E+02  0.7818608E-02  0.1481476E+00
         -1   -1    0    0  501    0 -0.00000000000E+00  0.00000000000E+00  0.63857488926E+01  0.63857508815E+01  0.50400000000E-02 0. -1.
          1   -1    0    0    0  501  0.00000000000E+00 -0.00000000000E+00 -0.75370976113E+02  0.75370976282E+02  0.50400000000E-02 0. -1.
          2    1    1    2    0  502  0.18895993514E+01  0.20337522483E+02 -0.49412469502E+02  0.53467537397E+02  0.25500000000E-02 0.  1.
         -2    1    1    2  502    0 -0.18895993514E+01 -0.20337522483E+02 -0.19572757718E+02  0.28289189766E+02  0.25500000000E-02 0.  1.
<mgrwt>
<rscale>  0 0.43877111E+02</rscale>
<asrwt>0</asrwt>
<pdfrwt beam="2">  1        1 0.11595534E-01 0.43877111E+02</pdfrwt>
<pdfrwt beam="1">  1       -1 0.98242312E-03 0.43877111E+02</pdfrwt>
<totfact> 0.67672068E+05</totfact>
</mgrwt>
</event>
<event>
 4    1  0.3946801E-002  0.6947510E+02  0.7818608E-02  0.1361887E+00
          1   -1    0    0    0  501  0.00000000000E+00  0.00000000000E+00  0.86025581866E+03  0.86025581868E+03  0.50400000000E-02 0.  1.
         -1   -1    0    0  501    0 -0.00000000000E+00 -0.00000000000E+00 -0.14027147020E+01  0.14027237564E+01  0.50400000000E-02 0.  1.
          2    1    1    2    0  502  0.17051502821E+02  0.13386515400E+02  0.76606565994E+03  0.76637232980E+03  0.25500000000E-02 0.  1.
         -2    1    1    2  502    0 -0.17051502821E+02 -0.13386515400E+02  0.92787444026E+02  0.95286212635E+02  0.25500000000E-02 0.  1.
<mgrwt>
<rscale>  0 0.69475100E+02</rscale>
<asrwt>0</asrwt>
<pdfrwt beam="1">  1        1 0.13234709E+00 0.69475100E+02</pdfrwt>
<pdfrwt beam="2">  1       -1 0.21580290E-03 0.69475100E+02</pdfrwt>
<totfact> 0.28478968E+05</totfact>
</mgrwt>
</event>
<event>
 4    1  0.3946801E-002  0.4954278E+02  0.7818608E-02  0.1447823E+00
         -1   -1    0    0  501    0 -0.00000000000E+00  0.00000000000E+00  0.40247998885E+02  0.40247999201E+02  0.50400000000E-02 0. -1.
          1   -1    0    0    0  501  0.00000000000E+00 -0.00000000000E+00 -0.15246015805E+02  0.15246016638E+02  0.50400000000E-02 0. -1.
          2    1    1    2    0  502  0.19615530931E+02  0.13812473862E+02  0.55898977428E+01  0.24633319938E+02  0.25500000000E-02 0.  1.
         -2    1    1    2  502    0 -0.19615530931E+02 -0.13812473862E+02  0.19412085337E+02  0.30860695901E+02  0.25500000000E-02 0.  1.
<mgrwt>
<rscale>  0 0.49542776E+02</rscale>
<asrwt>0</asrwt>
<pdfrwt beam="2">  1        1 0.23455410E-02 0.49542776E+02</pdfrwt>
<pdfrwt beam="1">  1       -1 0.61919998E-02 0.49542776E+02</pdfrwt>
<totfact> 0.42766398E+05</totfact>
</mgrwt>
</event>
<event>
 4    1  0.3946801E-002  0.4092482E+02  0.7818608E-02  0.1501514E+00
         -1   -1    0    0  501    0 -0.00000000000E+00  0.00000000000E+00  0.11992270734E+03  0.11992270744E+03  0.50400000000E-02 0.  1.
          1   -1    0    0    0  501  0.00000000000E+00 -0.00000000000E+00 -0.34914987906E+01  0.34915024282E+01  0.50400000000E-02 0.  1.
          2    1    1    2    0  502  0.36401116189E+01  0.20053623060E+02  0.52727483422E+02  0.56529511983E+02  0.25500000000E-02 0. -1.
         -2    1    1    2  502    0 -0.36401116189E+01 -0.20053623060E+02  0.63703725123E+02  0.66884697887E+02  0.25500000000E-02 0. -1.
<mgrwt>
<rscale>  0 0.40924820E+02</rscale>
<asrwt>0</asrwt>
<pdfrwt beam="2">  1        1 0.53715395E-03 0.40924820E+02</pdfrwt>
<pdfrwt beam="1">  1       -1 0.18449648E-01 0.40924820E+02</pdfrwt>
<totfact> 0.58875874E+05</totfact>
</mgrwt>
</event>
<event>
 4    1  0.3946801E-002  0.8065898E+02  0.7818608E-02  0.1327192E+00
         -1   -1    0    0  501    0 -0.00000000000E+00  0.00000000000E+00  0.30979028638E+02  0.30979029048E+02  0.50400000000E-02 0. -1.
          1   -1    0    0    0  501  0.00000000000E+00 -0.00000000000E+00 -0.52502221920E+02  0.52502222162E+02  0.50400000000E-02 0. -1.
          2    1    1    2    0  502 -0.23245588271E+02 -0.14286087547E+01 -0.44838865877E+02  0.50526450466E+02  0.25500000000E-02 0. -1.
         -2    1    1    2  502    0  0.23245588271E+02  0.14286087547E+01  0.23315672595E+02  0.32954800744E+02  0.25500000000E-02 0. -1.
<mgrwt>
<rscale>  0 0.80658982E+02</rscale>
<asrwt>0</asrwt>
<pdfrwt beam="2">  1        1 0.80772650E-02 0.80658982E+02</pdfrwt>
<pdfrwt beam="1">  1       -1 0.47660044E-02 0.80658982E+02</pdfrwt>
<totfact> 0.13249449E+05</totfact>
</mgrwt>
</event>
<event>
 4    1  0.3946801E-002  0.6368487E+02  0.7818608E-02  0.1382988E+00
          1   -1    0    0    0  501  0.00000000000E+00  0.00000000000E+00  0.62044840690E+03  0.62044840692E+03  0.50400000000E-02 0. -1.
         -1   -1    0    0  501    0 -0.00000000000E+00 -0.00000000000E+00 -0.16342022557E+01  0.16342100276E+01  0.50400000000E-02 0. -1.
          2    1    1    2    0  502  0.30621872988E+02 -0.84550814575E+01  0.28811100193E+03  0.28985709745E+03  0.25500000000E-02 0. -1.
         -2    1    1    2  502    0 -0.30621872988E+02  0.84550814575E+01  0.33070320271E+03  0.33222551949E+03  0.25500000000E-02 0. -1.
<mgrwt>
<rscale>  0 0.63684868E+02</rscale>
<asrwt>0</asrwt>
<pdfrwt beam="1">  1        1 0.95453612E-01 0.63684868E+02</pdfrwt>
<pdfrwt beam="2">  1       -1 0.25141630E-03 0.63684868E+02</pdfrwt>
<totfact> 0.36043094E+05</totfact>
</mgrwt>
</event>
<event>
 4    1  0.3946801E-002  0.1045613E+03  0.7818608E-02  0.1270986E+00
          1   -1    0    0    0  501  0.00000000000E+00  0.00000000000E+00  0.66778741945E+02  0.66778742135E+02  0.50400000000E-02 0.  1.
         -1   -1    0    0  501    0 -0.00000000000E+00 -0.00000000000E+00 -0.40930168540E+02  0.40930168850E+02  0.50400000000E-02 0.  1.
          2    1    1    2    0  502  0.19356624644E+02 -0.46962709732E+02  0.17885961611E+00  0.50795738209E+02  0.25500000000E-02 0.  1.
         -2    1    1    2  502    0 -0.19356624644E+02  0.46962709732E+02  0.25669713789E+02  0.56913172776E+02  0.25500000000E-02 0.  1.
<mgrwt>
<rscale>  0 0.10456128E+03</rscale>
<asrwt>0</asrwt>
<pdfrwt beam="1">  1        1 0.10273653E-01 0.10456128E+03</pdfrwt>
<pdfrwt beam="2">  1       -1 0.62969491E-02 0.10456128E+03</pdfrwt>
<totfact> 0.66822663E+04</totfact>
</mgrwt>
</event>
<event>
 4    1  0.3946801E-002  0.1123875E+03  0.7818608E-02  0.1256211E+00
          1   -1    0    0    0  501  0.00000000000E+00  0.00000000000E+00  0.24255995163E+02  0.24255995687E+02  0.50400000000E-02 0.  1.
         -1   -1    0    0  501    0 -0.00000000000E+00 -0.00000000000E+00 -0.13018377491E+03  0.13018377501E+03  0.50400000000E-02 0.  1.
          2    1    1    2    0  502  0.52788269213E+02  0.17435176551E+02 -0.64224584338E+02  0.84943416389E+02  0.25500000000E-02 0. -1.
         -2    1    1    2  502    0 -0.52788269213E+02 -0.17435176551E+02 -0.41703195408E+02  0.69496354304E+02  0.25500000000E-02 0. -1.
<mgrwt>
<rscale>  0 0.11238749E+03</rscale>
<asrwt>0</asrwt>
<pdfrwt beam="1">  1        1 0.37316917E-02 0.11238749E+03</pdfrwt>
<pdfrwt beam="2">  1       -1 0.20028273E-01 0.11238749E+03</pdfrwt>
<totfact> 0.44816008E+04</totfact>
</mgrwt>
</event>
<event>
 4    1  0.3946801E-002  0.4839956E+02  0.7818608E-02  0.1454170E+00
          1   -1    0    0    0  501  0.00000000000E+00  0.00000000000E+00  0.13152223228E+02  0.13152224194E+02  0.50400000000E-02 0.  1.
         -1   -1    0    0  501    0 -0.00000000000E+00 -0.00000000000E+00 -0.44527014473E+02  0.44527014758E+02  0.50400000000E-02 0.  1.
          2    1    1    2    0  502  0.21493112754E+02 -0.34250507915E+01 -0.30784342341E+01  0.21980937937E+02  0.25500000000E-02 0.  1.
         -2    1    1    2  502    0 -0.21493112754E+02  0.34250507915E+01 -0.28296357010E+02  0.35698301015E+02  0.25500000000E-02 0.  1.
<mgrwt>
<rscale>  0 0.48399557E+02</rscale>
<asrwt>0</asrwt>
<pdfrwt beam="1">  1        1 0.20234191E-02 0.48399557E+02</pdfrwt>
<pdfrwt beam="2">  1       -1 0.68503100E-02 0.48399557E+02</pdfrwt>
<totfact> 0.44814680E+05</totfact>
</mgrwt>
</event>
<event>
 4    1  0.3946801E-002  0.6201363E+02  0.7818608E-02  0.1389571E+00
          1   -1    0    0    0  501  0.00000000000E+00  0.00000000000E+00  0.10220363892E+04  0.10220363892E+04  0.50400000000E-02 0.  1.
         -1   -1    0    0  501    0 -0.00000000000E+00 -0.00000000000E+00 -0.94068629932E+00  0.94069980085E+00  0.50400000000E-02 0.  1.
          2    1    1    2    0  502 -0.30481981780E+02  0.50982153843E+01  0.46921055937E+03  0.47022727701E+03  0.25500000000E-02 0.  1.
         -2    1    1    2  502    0  0.30481981780E+02 -0.50982153843E+01  0.55188514349E+03  0.55274981196E+03  0.25500000000E-02 0.  1.
<mgrwt>
<rscale>  0 0.62013629E+02</rscale>
<asrwt>0</asrwt>
<pdfrwt beam="1">  1        1 0.15723592E+00 0.62013629E+02</pdfrwt>
<pdfrwt beam="2">  1       -1 0.14472242E-03 0.62013629E+02</pdfrwt>
<totfact> 0.36733468E+05</totfact>
</mgrwt>
</event>
<event>
 4    1  0.3946801E-002  0.4663958E+02  0.7818608E-02  0.1464358E+00
         -1   -1    0    0  501    0 -0.00000000000E+00  0.00000000000E+00  0.51974534614E+00  0.51976978215E+00  0.50400000000E-02 0.  1.
          1   -1    0    0    0  501  0.00000000000E+00 -0.00000000000E+00 -0.10462813175E+04  0.10462813175E+04  0.50400000000E-02 0.  1.
          2    1    1    2    0  502 -0.16685484226E+02  0.15937450513E+02 -0.44708314522E+03  0.44767817287E+03  0.25500000000E-02 0. -1.
         -2    1    1    2  502    0  0.16685484226E+02 -0.15937450513E+02 -0.59867842691E+03  0.59912291441E+03  0.25500000000E-02 0. -1.
<mgrwt>
<rscale>  0 0.46639582E+02</rscale>
<asrwt>0</asrwt>
<pdfrwt beam="2">  1        1 0.16096467E+00 0.46639582E+02</pdfrwt>
<pdfrwt beam="1">  1       -1 0.79963540E-04 0.46639582E+02</pdfrwt>
<totfact> 0.74420523E+05</totfact>
</mgrwt>
</event>
<event>
 4    1  0.3946801E-002  0.6218784E+02  0.7818608E-02  0.1388873E+00
          1   -1    0    0    0  501  0.00000000000E+00  0.00000000000E+00  0.82380693966E+01  0.82380709384E+01  0.50400000000E-02 0. -1.
         -1   -1    0    0  501    0 -0.00000000000E+00 -0.00000000000E+00 -0.11736143726E+03  0.11736143737E+03  0.50400000000E-02 0. -1.
          2    1    1    2    0  502  0.23213902568E+02  0.33336178156E+01 -0.95796473769E+02  0.98625365263E+02  0.25500000000E-02 0.  1.
         -2    1    1    2  502    0 -0.23213902568E+02 -0.33336178156E+01 -0.13326894092E+02  0.26974143042E+02  0.25500000000E-02 0.  1.
<mgrwt>
<rscale>  0 0.62187837E+02</rscale>
<asrwt>0</asrwt>
<pdfrwt beam="1">  1        1 0.12673955E-02 0.62187837E+02</pdfrwt>
<pdfrwt beam="2">  1       -1 0.18055605E-01 0.62187837E+02</pdfrwt>
<totfact> 0.20980359E+05</totfact>
</mgrwt>
</event>
<event>
 4    1  0.3946801E-002  0.1087018E+03  0.7818608E-02  0.1262993E+00
          1   -1    0    0    0  501  0.00000000000E+00  0.00000000000E+00  0.14116869869E+03  0.14116869878E+03  0.50400000000E-02 0.  1.
         -1   -1    0    0  501    0 -0.00000000000E+00 -0.00000000000E+00 -0.20925470529E+02  0.20925471136E+02  0.50400000000E-02 0.  1.
          2    1    1    2    0  502  0.40037119344E+02  0.31044111254E+02  0.30774728645E+02  0.59277244357E+02  0.25500000000E-02 0. -1.
         -2    1    1    2  502    0 -0.40037119344E+02 -0.31044111254E+02  0.89468499512E+02  0.10281692555E+03  0.25500000000E-02 0. -1.
<mgrwt>
<rscale>  0 0.10870182E+03</rscale>
<asrwt>0</asrwt>
<pdfrwt beam="1">  1        1 0.21718261E-01 0.10870182E+03</pdfrwt>
<pdfrwt beam="2">  1       -1 0.32193032E-02 0.10870182E+03</pdfrwt>
<totfact> 0.68607197E+04</totfact>
</mgrwt>
</event>
<event>
 4    1  0.3946801E-002  0.4782946E+02  0.7818608E-02  0.1457413E+00
         -1   -1    0    0  501    0 -0.00000000000E+00  0.00000000000E+00  0.39051094787E+02  0.39051095112E+02  0.50400000000E-02 0. -1.
          1   -1    0    0    0  501  0.00000000000E+00 -0.00000000000E+00 -0.14645280922E+02  0.14645281789E+02  0.50400000000E-02 0. -1.
          2    1    1    2    0  502  0.27737759017E+01 -0.23120950353E+02  0.60906161565E+01  0.24070060026E+02  0.25500000000E-02 0.  1.
         -2    1    1    2  502    0 -0.27737759017E+01  0.23120950353E+02  0.18315197708E+02  0.29626316875E+02  0.25500000000E-02 0.  1.
<mgrwt>
<rscale>  0 0.47829459E+02</rscale>
<asrwt>0</asrwt>
<pdfrwt beam="2">  1        1 0.22531203E-02 0.47829459E+02</pdfrwt>
<pdfrwt beam="1">  1       -1 0.60078607E-02 0.47829459E+02</pdfrwt>
<totfact> 0.46745016E+05</totfact>
</mgrwt>
</event>
<event>
 4    1  0.3946801E-002  0.5033578E+02  0.7818608E-02  0.1443539E+00
          1   -1    0    0    0  501  0.00000000000E+00  0.00000000000E+00  0.45091443978E+03  0.45091443981E+03  0.50400000000E-02 0. -1.
         -1   -1    0    0  501    0 -0.00000000000E+00 -0.00000000000E+00 -0.14047466952E+01  0.14047557365E+01  0.50400000000E-02 0. -1.
          2    1    1    2    0  502 -0.17129896191E+02  0.18317142949E+02  0.20575294716E+03  0.20727572540E+03  0.25500000000E-02 0.  1.
         -2    1    1    2  502    0  0.17129896191E+02 -0.18317142949E+02  0.24375674592E+03  0.24504347014E+03  0.25500000000E-02 0.  1.
<mgrwt>
<rscale>  0 0.50335777E+02</rscale>
<asrwt>0</asrwt>
<pdfrwt beam="1">  1        1 0.69371534E-01 0.50335777E+02</pdfrwt>
<pdfrwt beam="2">  1       -1 0.21611532E-03 0.50335777E+02</pdfrwt>
<totfact> 0.63298100E+05</totfact>
</mgrwt>
</event>
<event>
 4    1  0.3946801E-002  0.4181196E+02  0.7818608E-02  0.1495285E+00
          1   -1    0    0    0  501  0.00000000000E+00  0.00000000000E+00  0.21492192625E+04  0.21492192625E+04  0.50400000000E-02 0. -1.
         -1   -1    0    0  501    0 -0.00000000000E+00 -0.00000000000E+00 -0.20332634651E+00  0.20338880201E+00  0.50400000000E-02 0. -1.
          2    1    1    2    0  502 -0.20477372442E+02 -0.31701279803E+01  0.93197522329E+03  0.93220555101E+03  0.25500000000E-02 0.  1.
         -2    1    1    2  502    0  0.20477372442E+02  0.31701279803E+01  0.12170407129E+04  0.12172171003E+04  0.25500000000E-02 0.  1.
<mgrwt>
<rscale>  0 0.41811961E+02</rscale>
<asrwt>0</asrwt>
<pdfrwt beam="1">  1        1 0.33064201E+00 0.41811961E+02</pdfrwt>
<pdfrwt beam="2">  1       -1 0.31286454E-04 0.41811961E+02</pdfrwt>
<totfact> 0.52476237E+05</totfact>
</mgrwt>
</event>
<event>
 4    1  0.3946801E-002  0.1413144E+03  0.7818608E-02  0.1211571E+00
         -1   -1    0    0  501    0 -0.00000000000E+00  0.00000000000E+00  0.27852421628E+02  0.27852422084E+02  0.50400000000E-02 0. -1.
          1   -1    0    0    0  501  0.00000000000E+00 -0.00000000000E+00 -0.17924623897E+03  0.17924623904E+03  0.50400000000E-02 0. -1.
          2    1    1    2    0  502  0.31290981185E+02 -0.25012067234E+02  0.96021195033E+01  0.41193806771E+02  0.25500000000E-02 0. -1.
         -2    1    1    2  502    0 -0.31290981185E+02  0.25012067234E+02 -0.16099593685E+03  0.16590485436E+03  0.25500000000E-02 0. -1.
<mgrwt>
<rscale>  0 0.14131443E+03</rscale>
<asrwt>0</asrwt>
<pdfrwt beam="2">  1        1 0.27576344E-01 0.14131443E+03</pdfrwt>
<pdfrwt beam="1">  1       -1 0.42849881E-02 0.14131443E+03</pdfrwt>
<totfact> 0.34592437E+04</totfact>
</mgrwt>
</event>
<event>
 4    1  0.3946801E-002  0.5656548E+02  0.7818608E-02  0.1412837E+00
          1   -1    0    0    0  501  0.00000000000E+00  0.00000000000E+00  0.65427986768E+03  0.65427986770E+03  0.50400000000E-02 0.  1.
         -1   -1    0    0  501    0 -0.00000000000E+00 -0.00000000000E+00 -0.12225808594E+01  0.12225912479E+01  0.50400000000E-02 0.  1.
          2    1    1    2    0  502 -0.20690776584E+02 -0.17866551980E+02  0.24248966947E+03  0.24402573987E+03  0.25500000000E-02 0.  1.
         -2    1    1    2  502    0  0.20690776584E+02  0.17866551980E+02  0.41056761736E+03  0.41147671908E+03  0.25500000000E-02 0.  1.
<mgrwt>
<rscale>  0 0.56565483E+02</rscale>
<asrwt>0</asrwt>
<pdfrwt beam="1">  1        1 0.10065839E+00 0.56565483E+02</pdfrwt>
<pdfrwt beam="2">  1       -1 0.18809026E-03 0.56565483E+02</pdfrwt>
<totfact> 0.48747611E+05</totfact>
</mgrwt>
</event>
<event>
 4    1  0.3946801E-002  0.5028591E+02  0.7818608E-02  0.1443805E+00
          1   -1    0    0    0  501  0.00000000000E+00  0.00000000000E+00  0.12232267042E+03  0.12232267053E+03  0.50400000000E-02 0. -1.
         -1   -1    0    0  501    0 -0.00000000000E+00 -0.00000000000E+00 -0.51680369288E+01  0.51680393864E+01  0.50400000000E-02 0. -1.
          2    1    1    2    0  502  0.20565589678E+02  0.13794345544E+02  0.69611271952E+02  0.73884752399E+02  0.25500000000E-02 0.  1.
         -2    1    1    2  502    0 -0.20565589678E+02 -0.13794345544E+02  0.47543361542E+02  0.53605957514E+02  0.25500000000E-02 0.  1.
<mgrwt>
<rscale>  0 0.50285912E+02</rscale>
<asrwt>0</asrwt>
<pdfrwt beam="1">  1        1 0.18818873E-01 0.50285912E+02</pdfrwt>
<pdfrwt beam="2">  1       -1 0.79508277E-03 0.50285912E+02</pdfrwt>
<totfact> 0.51196870E+05</totfact>
</mgrwt>
</event>
<event>
 4    1  0.3946801E-002  0.5113224E+02  0.7818608E-02  0.1439328E+00
         -1   -1    0    0  501    0 -0.00000000000E+00  0.00000000000E+00  0.44081768355E+01  0.44081797167E+01  0.50400000000E-02 0. -1.
          1   -1    0    0    0  501  0.00000000000E+00 -0.00000000000E+00 -0.14827589476E+03  0.14827589485E+03  0.50400000000E-02 0. -1.
          2    1    1    2    0  502  0.90758821804E+00 -0.25512720009E+02 -0.76054177147E+02  0.80224438089E+02  0.25500000000E-02 0.  1.
         -2    1    1    2  502    0 -0.90758821804E+00  0.25512720009E+02 -0.67813540780E+02  0.72459636477E+02  0.25500000000E-02 0.  1.
<mgrwt>
<rscale>  0 0.51132244E+02</rscale>
<asrwt>0</asrwt>
<pdfrwt beam="2">  1        1 0.22811673E-01 0.51132244E+02</pdfrwt>
<pdfrwt beam="1">  1       -1 0.67818139E-03 0.51132244E+02</pdfrwt>
<totfact> 0.50556740E+05</totfact>
</mgrwt>
</event>
<event>
 4    1  0.3946801E-002  0.4027823E+02  0.7818608E-02  0.1506174E+00
         -1   -1    0    0  501    0 -0.00000000000E+00  0.00000000000E+00  0.37822548850E+03  0.37822548853E+03  0.50400000000E-02 0. -1.
          1   -1    0    0    0  501  0.00000000000E+00 -0.00000000000E+00 -0.10723280252E+01  0.10723398693E+01  0.50400000000E-02 0. -1.
          2    1    1    2    0  502  0.16092936922E+01 -0.20054106479E+02  0.18001272946E+03  0.18113348610E+03  0.25500000000E-02 0. -1.
         -2    1    1    2  502    0 -0.16092936922E+01  0.20054106479E+02  0.19714043102E+03  0.19816434230E+03  0.25500000000E-02 0. -1.
<mgrwt>
<rscale>  0 0.40278235E+02</rscale>
<asrwt>0</asrwt>
<pdfrwt beam="2">  1        1 0.16497419E-03 0.40278235E+02</pdfrwt>
<pdfrwt beam="1">  1       -1 0.58188632E-01 0.40278235E+02</pdfrwt>
<totfact> 0.43085628E+05</totfact>
</mgrwt>
</event>
<event>
 4    1  0.3946801E-002  0.8363642E+02  0.7818608E-02  0.1319037E+00
          1   -1    0    0    0  501  0.00000000000E+00  0.00000000000E+00  0.36989591525E+02  0.36989591868E+02  0.50400000000E-02 0.  1.
         -1   -1    0    0  501    0 -0.00000000000E+00 -0.00000000000E+00 -0.47277160326E+02  0.47277160595E+02  0.50400000000E-02 0.  1.
          2    1    1    2    0  502  0.25936788862E+02 -0.28637981729E+02  0.10974024441E+02  0.40165659872E+02  0.25500000000E-02 0. -1.
         -2    1    1    2  502    0 -0.25936788862E+02  0.28637981729E+02 -0.21261593242E+02  0.44101092591E+02  0.25500000000E-02 0. -1.
<mgrwt>
<rscale>  0 0.83636424E+02</rscale>
<asrwt>0</asrwt>
<pdfrwt beam="1">  1        1 0.56907064E-02 0.83636424E+02</pdfrwt>
<pdfrwt beam="2">  1       -1 0.72734093E-02 0.83636424E+02</pdfrwt>
<totfact> 0.11420773E+05</totfact>
</mgrwt>
</event>
<event>
 4    1  0.3946801E-002  0.4842575E+02  0.7818608E-02  0.1454022E+00
          1   -1    0    0    0  501  0.00000000000E+00  0.00000000000E+00  0.80754229774E+02  0.80754229931E+02  0.50400000000E-02 0. -1.
         -1   -1    0    0  501    0 -0.00000000000E+00 -0.00000000000E+00 -0.72598453073E+01  0.72598470568E+01  0.50400000000E-02 0. -1.
          2    1    1    2    0  502  0.66629041356E+00  0.21930414959E+02  0.55360105976E+02  0.59549377691E+02  0.25500000000E-02 0.  1.
         -2    1    1    2  502    0 -0.66629041356E+00 -0.21930414959E+02  0.18134278490E+02  0.28464699297E+02  0.25500000000E-02 0.  1.
<mgrwt>
<rscale>  0 0.48425749E+02</rscale>
<asrwt>0</asrwt>
<pdfrwt beam="1">  1        1 0.12423726E-01 0.48425749E+02</pdfrwt>
<pdfrwt beam="2">  1       -1 0.11168995E-02 0.48425749E+02</pdfrwt>
<totfact> 0.53268825E+05</totfact>
</mgrwt>
</event>
<event>
 4    1  0.3946801E-002  0.5060964E+02  0.7818608E-02  0.1442081E+00
         -1   -1    0    0  501    0 -0.00000000000E+00  0.00000000000E+00  0.10826093127E+01  0.10826210443E+01  0.50400000000E-02 0. -1.
          1   -1    0    0    0  501  0.00000000000E+00 -0.00000000000E+00 -0.59146946232E+03  0.59146946234E+03  0.50400000000E-02 0. -1.
          2    1    1    2    0  502 -0.21033873918E+02  0.47384729718E+01 -0.45028152414E+03  0.45079743562E+03  0.25500000000E-02 0. -1.
         -2    1    1    2  502    0  0.21033873918E+02 -0.47384729718E+01 -0.14010532886E+03  0.14175464776E+03  0.25500000000E-02 0. -1.
<mgrwt>
<rscale>  0 0.50609637E+02</rscale>
<asrwt>0</asrwt>
<pdfrwt beam="2">  1        1 0.90995045E-01 0.50609637E+02</pdfrwt>
<pdfrwt beam="1">  1       -1 0.16655666E-03 0.50609637E+02</pdfrwt>
<totfact> 0.64130032E+05</totfact>
</mgrwt>
</event>
<event>
 4    1  0.3946801E-002  0.5659474E+02  0.7818608E-02  0.1412704E+00
          1   -1    0    0    0  501  0.00000000000E+00  0.00000000000E+00  0.16113542578E+04  0.16113542578E+04  0.50400000000E-02 0.  1.
         -1   -1    0    0  501    0 -0.00000000000E+00 -0.00000000000E+00 -0.49692393604E+00  0.49694949423E+00  0.50400000000E-02 0.  1.
          2    1    1    2    0  502 -0.23912653696E+02 -0.15079842452E+02  0.84059316821E+03  0.84106842237E+03  0.25500000000E-02 0. -1.
         -2    1    1    2  502    0  0.23912653696E+02  0.15079842452E+02  0.77026416560E+03  0.77078278489E+03  0.25500000000E-02 0. -1.
<mgrwt>
<rscale>  0 0.56594738E+02</rscale>
<asrwt>0</asrwt>
<pdfrwt beam="1">  1        1 0.24790523E+00 0.56594738E+02</pdfrwt>
<pdfrwt beam="2">  1       -1 0.76450393E-04 0.56594738E+02</pdfrwt>
<totfact> 0.35648441E+05</totfact>
</mgrwt>
</event>
<event>
 4    1  0.3946801E-002  0.5810376E+02  0.7818608E-02  0.1405966E+00
         -1   -1    0    0  501    0 -0.00000000000E+00  0.00000000000E+00  0.96904424220E+00  0.96905734863E+00  0.50400000000E-02 0. -1.
          1   -1    0    0    0  501  0.00000000000E+00 -0.00000000000E+00 -0.87096735331E+03  0.87096735333E+03  0.50400000000E-02 0. -1.
          2    1    1    2    0  502 -0.16716873351E+02  0.21304484608E+02 -0.27712585222E+03  0.27844581680E+03  0.25500000000E-02 0. -1.
         -2    1    1    2  502    0  0.16716873351E+02 -0.21304484608E+02 -0.59287245686E+03  0.59349059388E+03  0.25500000000E-02 0. -1.
<mgrwt>
<rscale>  0 0.58103756E+02</rscale>
<asrwt>0</asrwt>
<pdfrwt beam="2">  1        1 0.13399435E+00 0.58103756E+02</pdfrwt>
<pdfrwt beam="1">  1       -1 0.14908544E-03 0.58103756E+02</pdfrwt>
<totfact> 0.44823670E+05</totfact>
</mgrwt>
</event>
<event>
 4    1  0.3946801E-002  0.4258567E+02  0.7818608E-02  0.1490002E+00
         -1   -1    0    0  501    0 -0.00000000000E+00  0.00000000000E+00  0.40827599840E+02  0.40827600151E+02  0.50400000000E-02 0.  1.
          1   -1    0    0    0  501  0.00000000000E+00 -0.00000000000E+00 -0.11104862128E+02  0.11104863271E+02  0.50400000000E-02 0.  1.
          2    1    1    2    0  502 -0.64002909264E+01  0.20256733973E+02  0.16622624860E+02  0.26974259192E+02  0.25500000000E-02 0. -1.
         -2    1    1    2  502    0  0.64002909264E+01 -0.20256733973E+02  0.13100112852E+02  0.24958204231E+02  0.25500000000E-02 0. -1.
<mgrwt>
<rscale>  0 0.42585674E+02</rscale>
<asrwt>0</asrwt>
<pdfrwt beam="2">  1        1 0.17084405E-02 0.42585674E+02</pdfrwt>
<pdfrwt beam="1">  1       -1 0.62811692E-02 0.42585674E+02</pdfrwt>
<totfact> 0.61723712E+05</totfact>
</mgrwt>
</event>
<event>
 4    1  0.3946801E-002  0.4323528E+02  0.7818608E-02  0.1485669E+00
         -1   -1    0    0  501    0 -0.00000000000E+00  0.00000000000E+00  0.38677292398E+02  0.38677292726E+02  0.50400000000E-02 0.  1.
          1   -1    0    0    0  501  0.00000000000E+00 -0.00000000000E+00 -0.12082599269E+02  0.12082600320E+02  0.50400000000E-02 0.  1.
          2    1    1    2    0  502  0.70450032742E+01 -0.19983933048E+02  0.82705127746E+01  0.22746231320E+02  0.25500000000E-02 0. -1.
         -2    1    1    2  502    0 -0.70450032742E+01  0.19983933048E+02  0.18324180354E+02  0.28013661727E+02  0.25500000000E-02 0. -1.
<mgrwt>
<rscale>  0 0.43235275E+02</rscale>
<asrwt>0</asrwt>
<pdfrwt beam="2">  1        1 0.18588615E-02 0.43235275E+02</pdfrwt>
<pdfrwt beam="1">  1       -1 0.59503528E-02 0.43235275E+02</pdfrwt>
<totfact> 0.59809987E+05</totfact>
</mgrwt>
</event>
<event>
 4    1  0.3946801E-002  0.4271095E+02  0.7818608E-02  0.1489159E+00
         -1   -1    0    0  501    0 -0.00000000000E+00  0.00000000000E+00  0.27940554691E+00  0.27945099972E+00  0.50400000000E-02 0.  1.
          1   -1    0    0    0  501  0.00000000000E+00 -0.00000000000E+00 -0.16321047111E+04  0.16321047111E+04  0.50400000000E-02 0.  1.
          2    1    1    2    0  502 -0.17811053474E+02  0.95139003491E+01 -0.55027233971E+03  0.55064271155E+03  0.25500000000E-02 0. -1.
         -2    1    1    2  502    0  0.17811053474E+02 -0.95139003491E+01 -0.10815529659E+04  0.10817414506E+04  0.25500000000E-02 0. -1.
<mgrwt>
<rscale>  0 0.42710945E+02</rscale>
<asrwt>0</asrwt>
<pdfrwt beam="2">  1        1 0.25108540E+00 0.42710945E+02</pdfrwt>
<pdfrwt beam="1">  1       -1 0.42990273E-04 0.42710945E+02</pdfrwt>
<totfact> 0.71036627E+05</totfact>
</mgrwt>
</event>
<event>
 4    1  0.3946801E-002  0.1705045E+03  0.7818608E-02  0.1177323E+00
         -1   -1    0    0  501    0 -0.00000000000E+00  0.00000000000E+00  0.36135671635E+03  0.36135671639E+03  0.50400000000E-02 0.  1.
          1   -1    0    0    0  501  0.00000000000E+00 -0.00000000000E+00 -0.20112939716E+02  0.20112940348E+02  0.50400000000E-02 0.  1.
          2    1    1    2    0  502 -0.32259568929E+02 -0.73880558958E+01 -0.51547434137E+01  0.33493798583E+02  0.25500000000E-02 0. -1.
         -2    1    1    2  502    0  0.32259568929E+02  0.73880558958E+01  0.34639852005E+03  0.34797585815E+03  0.25500000000E-02 0. -1.
<mgrwt>
<rscale>  0 0.17050450E+03</rscale>
<asrwt>0</asrwt>
<pdfrwt beam="2">  1        1 0.30942988E-02 0.17050450E+03</pdfrwt>
<pdfrwt beam="1">  1       -1 0.55593334E-01 0.17050450E+03</pdfrwt>
<totfact> 0.10537164E+04</totfact>
</mgrwt>
</event>
<event>
 4    1  0.3946801E-002  0.4539175E+02  0.7818608E-02  0.1471911E+00
         -1   -1    0    0  501    0 -0.00000000000E+00  0.00000000000E+00  0.72932887840E+00  0.72934629256E+00  0.50400000000E-02 0. -1.
          1   -1    0    0    0  501  0.00000000000E+00 -0.00000000000E+00 -0.70626093990E+03  0.70626093992E+03  0.50400000000E-02 0. -1.
          2    1    1    2    0  502  0.17522690297E+02  0.12132916588E+02 -0.47426348081E+03  0.47474214219E+03  0.25500000000E-02 0.  1.
         -2    1    1    2  502    0 -0.17522690297E+02 -0.12132916588E+02 -0.23126813022E+03  0.23224814402E+03  0.25500000000E-02 0.  1.
<mgrwt>
<rscale>  0 0.45391746E+02</rscale>
<asrwt>0</asrwt>
<pdfrwt beam="2">  1        1 0.10865498E+00 0.45391746E+02</pdfrwt>
<pdfrwt beam="1">  1       -1 0.11220635E-03 0.45391746E+02</pdfrwt>
<totfact> 0.84207588E+05</totfact>
</mgrwt>
</event>
<event>
 4    1  0.3946801E-002  0.5774293E+02  0.7818608E-02  0.1407555E+00
          1   -1    0    0    0  501  0.00000000000E+00  0.00000000000E+00  0.79609544306E+02  0.79609544466E+02  0.50400000000E-02 0. -1.
         -1   -1    0    0  501    0 -0.00000000000E+00 -0.00000000000E+00 -0.10470621752E+02  0.10470622965E+02  0.50400000000E-02 0. -1.
          2    1    1    2    0  502  0.21108055452E+02 -0.19432536026E+02  0.39597478553E+02  0.48899220603E+02  0.25500000000E-02 0. -1.
         -2    1    1    2  502    0 -0.21108055452E+02  0.19432536026E+02  0.29541444002E+02  0.41180946827E+02  0.25500000000E-02 0. -1.
<mgrwt>
<rscale>  0 0.57742930E+02</rscale>
<asrwt>0</asrwt>
<pdfrwt beam="1">  1        1 0.12247622E-01 0.57742930E+02</pdfrwt>
<pdfrwt beam="2">  1       -1 0.16108650E-02 0.57742930E+02</pdfrwt>
<totfact> 0.33942014E+05</totfact>
</mgrwt>
</event>
<event>
 4    1  0.3946801E-002  0.4878173E+02  0.7818608E-02  0.1452026E+00
          1   -1    0    0    0  501  0.00000000000E+00  0.00000000000E+00  0.32601274605E+03  0.32601274609E+03  0.50400000000E-02 0. -1.
         -1   -1    0    0  501    0 -0.00000000000E+00 -0.00000000000E+00 -0.18248156306E+01  0.18248225906E+01  0.50400000000E-02 0. -1.
          2    1    1    2    0  502 -0.22556360310E+02 -0.27934376514E+01  0.22157004374E+03  0.22273274787E+03  0.25500000000E-02 0.  1.
         -2    1    1    2  502    0  0.22556360310E+02  0.27934376514E+01  0.10261788668E+03  0.10510482081E+03  0.25500000000E-02 0.  1.
<mgrwt>
<rscale>  0 0.48781730E+02</rscale>
<asrwt>0</asrwt>
<pdfrwt beam="1">  1        1 0.50155846E-01 0.48781730E+02</pdfrwt>
<pdfrwt beam="2">  1       -1 0.28074119E-03 0.48781730E+02</pdfrwt>
<totfact> 0.65104232E+05</totfact>
</mgrwt>
</event>
<event>
 4    1  0.3946801E-002  0.5757241E+02  0.7818608E-02  0.1408311E+00
          1   -1    0    0    0  501  0.00000000000E+00  0.00000000000E+00  0.62844900168E+03  0.62844900170E+03  0.50400000000E-02 0.  1.
         -1   -1    0    0  501    0 -0.00000000000E+00 -0.00000000000E+00 -0.13185519619E+01  0.13185615943E+01  0.50400000000E-02 0.  1.
          2    1    1    2    0  502 -0.40587060187E+01 -0.23032315492E+02  0.12997576390E+03  0.13206309045E+03  0.25500000000E-02 0.  1.
         -2    1    1    2  502    0  0.40587060187E+01  0.23032315492E+02  0.49715468582E+03  0.49770447285E+03  0.25500000000E-02 0.  1.
<mgrwt>
<rscale>  0 0.57572414E+02</rscale>
<asrwt>0</asrwt>
<pdfrwt beam="1">  1        1 0.96684576E-01 0.57572414E+02</pdfrwt>
<pdfrwt beam="2">  1       -1 0.20285465E-03 0.57572414E+02</pdfrwt>
<totfact> 0.46577108E+05</totfact>
</mgrwt>
</event>
<event>
 4    1  0.3946801E-002  0.6812353E+02  0.7818608E-02  0.1366593E+00
          1   -1    0    0    0  501  0.00000000000E+00  0.00000000000E+00  0.12377308258E+03  0.12377308269E+03  0.50400000000E-02 0. -1.
         -1   -1    0    0  501    0 -0.00000000000E+00 -0.00000000000E+00 -0.93736342114E+01  0.93736355664E+01  0.50400000000E-02 0. -1.
          2    1    1    2    0  502  0.31504164365E+02  0.10276557022E+02  0.72599774073E+02  0.79805057475E+02  0.25500000000E-02 0.  1.
         -2    1    1    2  502    0 -0.31504164365E+02 -0.10276557022E+02  0.41799674300E+02  0.53341660779E+02  0.25500000000E-02 0.  1.
<mgrwt>
<rscale>  0 0.68123526E+02</rscale>
<asrwt>0</asrwt>
<pdfrwt beam="1">  1        1 0.19042010E-01 0.68123526E+02</pdfrwt>
<pdfrwt beam="2">  1       -1 0.14420979E-02 0.68123526E+02</pdfrwt>
<totfact> 0.23527654E+05</totfact>
</mgrwt>
</event>
<event>
 4    1  0.3946801E-002  0.5872502E+02  0.7818608E-02  0.1403261E+00
         -1   -1    0    0  501    0 -0.00000000000E+00  0.00000000000E+00  0.53499576570E+01  0.53499600310E+01  0.50400000000E-02 0. -1.
          1   -1    0    0    0  501  0.00000000000E+00 -0.00000000000E+00 -0.16115207101E+03  0.16115207109E+03  0.50400000000E-02 0. -1.
          2    1    1    2    0  502  0.18736560084E+01  0.29062003255E+02 -0.88527253709E+02  0.93194341437E+02  0.25500000000E-02 0. -1.
         -2    1    1    2  502    0 -0.18736560084E+01 -0.29062003255E+02 -0.67274859643E+02  0.73307689682E+02  0.25500000000E-02 0. -1.
<mgrwt>
<rscale>  0 0.58725019E+02</rscale>
<asrwt>0</asrwt>
<pdfrwt beam="2">  1        1 0.24792623E-01 0.58725019E+02</pdfrwt>
<pdfrwt beam="1">  1       -1 0.82307072E-03 0.58725019E+02</pdfrwt>
<totfact> 0.36058071E+05</totfact>
</mgrwt>
</event>
<event>
 4    1  0.3946801E-002  0.4270460E+02  0.7818608E-02  0.1489202E+00
         -1   -1    0    0  501    0 -0.00000000000E+00  0.00000000000E+00  0.33530931972E+01  0.33530969850E+01  0.50400000000E-02 0. -1.
          1   -1    0    0    0  501  0.00000000000E+00 -0.00000000000E+00 -0.13597012329E+03  0.13597012338E+03  0.50400000000E-02 0. -1.
          2    1    1    2    0  502 -0.94979291922E+01  0.18893565055E+02 -0.56661643219E+02  0.60479081327E+02  0.25500000000E-02 0. -1.
         -2    1    1    2  502    0  0.94979291922E+01 -0.18893565055E+02 -0.75955386873E+02  0.78844139040E+02  0.25500000000E-02 0. -1.
<mgrwt>
<rscale>  0 0.42704602E+02</rscale>
<asrwt>0</asrwt>
<pdfrwt beam="2">  1        1 0.20918477E-01 0.42704602E+02</pdfrwt>
<pdfrwt beam="1">  1       -1 0.51586090E-03 0.42704602E+02</pdfrwt>
<totfact> 0.78154358E+05</totfact>
</mgrwt>
</event>
<event>
 4    1  0.3946801E-002  0.5840206E+02  0.7818608E-02  0.1404663E+00
          1   -1    0    0    0  501  0.00000000000E+00  0.00000000000E+00  0.42905956962E+03  0.42905956965E+03  0.50400000000E-02 0.  1.
         -1   -1    0    0  501    0 -0.00000000000E+00 -0.00000000000E+00 -0.19873670369E+01  0.19873734276E+01  0.50400000000E-02 0.  1.
          2    1    1    2    0  502  0.36254828209E+01 -0.24141851529E+02  0.95277634809E+02  0.98355481912E+02  0.25500000000E-02 0.  1.
         -2    1    1    2  502    0 -0.36254828209E+01  0.24141851529E+02  0.33179456778E+03  0.33269146117E+03  0.25500000000E-02 0.  1.
<mgrwt>
<rscale>  0 0.58402063E+02</rscale>
<asrwt>0</asrwt>
<pdfrwt beam="1">  1        1 0.66009161E-01 0.58402063E+02</pdfrwt>
<pdfrwt beam="2">  1       -1 0.30574929E-03 0.58402063E+02</pdfrwt>
<totfact> 0.43295459E+05</totfact>
</mgrwt>
</event>
<event>
 4    1  0.3946801E-002  0.4464279E+02  0.7818608E-02  0.1476584E+00
          1   -1    0    0    0  501  0.00000000000E+00  0.00000000000E+00  0.94273188958E+02  0.94273189092E+02  0.50400000000E-02 0. -1.
         -1   -1    0    0  501    0 -0.00000000000E+00 -0.00000000000E+00 -0.52851138377E+01  0.52851162408E+01  0.50400000000E-02 0. -1.
          2    1    1    2    0  502 -0.44593614369E+01 -0.21715463102E+02  0.50308345186E+02  0.54976147955E+02  0.25500000000E-02 0. -1.
         -2    1    1    2  502    0  0.44593614369E+01  0.21715463102E+02  0.38679729934E+02  0.44582157378E+02  0.25500000000E-02 0. -1.
<mgrwt>
<rscale>  0 0.44642789E+02</rscale>
<asrwt>0</asrwt>
<pdfrwt beam="1">  1        1 0.14503569E-01 0.44642789E+02</pdfrwt>
<pdfrwt beam="2">  1       -1 0.81309457E-03 0.44642789E+02</pdfrwt>
<totfact> 0.66571768E+05</totfact>
</mgrwt>
</event>
<event>
 4    1  0.3946801E-002  0.6288730E+02  0.7818608E-02  0.1386100E+00
         -1   -1    0    0  501    0 -0.00000000000E+00  0.00000000000E+00  0.29655409571E+01  0.29655452398E+01  0.50400000000E-02 0.  1.
          1   -1    0    0    0  501  0.00000000000E+00 -0.00000000000E+00 -0.33339693464E+03  0.33339693467E+03  0.50400000000E-02 0.  1.
          2    1    1    2    0  502  0.19070925694E+02 -0.24999681252E+02 -0.16448397986E+03  0.16746242536E+03  0.25500000000E-02 0.  1.
         -2    1    1    2  502    0 -0.19070925694E+02  0.24999681252E+02 -0.16594741382E+03  0.16890005456E+03  0.25500000000E-02 0.  1.
<mgrwt>
<rscale>  0 0.62887296E+02</rscale>
<asrwt>0</asrwt>
<pdfrwt beam="2">  1        1 0.51291807E-01 0.62887296E+02</pdfrwt>
<pdfrwt beam="1">  1       -1 0.45623767E-03 0.62887296E+02</pdfrwt>
<totfact> 0.34447458E+05</totfact>
</mgrwt>
</event>
<event>
 4    1  0.3946801E-002  0.5704594E+02  0.7818608E-02  0.1410664E+00
          1   -1    0    0    0  501  0.00000000000E+00  0.00000000000E+00  0.72225087746E+02  0.72225087922E+02  0.50400000000E-02 0.  1.
         -1   -1    0    0  501    0 -0.00000000000E+00 -0.00000000000E+00 -0.11264225999E+02  0.11264227127E+02  0.50400000000E-02 0.  1.
          2    1    1    2    0  502 -0.25418460089E+02  0.68437847562E+00  0.49393223390E+02  0.55554090853E+02  0.25500000000E-02 0. -1.
         -2    1    1    2  502    0  0.25418460089E+02 -0.68437847562E+00  0.11567638357E+02  0.27935224195E+02  0.25500000000E-02 0. -1.
<mgrwt>
<rscale>  0 0.57045938E+02</rscale>
<asrwt>0</asrwt>
<pdfrwt beam="1">  1        1 0.11111552E-01 0.57045938E+02</pdfrwt>
<pdfrwt beam="2">  1       -1 0.17329580E-02 0.57045938E+02</pdfrwt>
<totfact> 0.34602727E+05</totfact>
</mgrwt>
</event>
<event>
 4    1  0.3946801E-002  0.4292586E+02  0.7818608E-02  0.1487722E+00
          1   -1    0    0    0  501  0.00000000000E+00  0.00000000000E+00  0.10881397442E+01  0.10881514162E+01  0.50400000000E-02 0. -1.
         -1   -1    0    0  501    0 -0.00000000000E+00 -0.00000000000E+00 -0.42334164844E+03  0.42334164847E+03  0.50400000000E-02 0. -1.
          2    1    1    2    0  502  0.20771422770E+02 -0.54009063117E+01 -0.21299119906E+03  0.21406978460E+03  0.25500000000E-02 0.  1.
         -2    1    1    2  502    0 -0.20771422770E+02  0.54009063117E+01 -0.20926230964E+03  0.21036001529E+03  0.25500000000E-02 0.  1.
<mgrwt>
<rscale>  0 0.42925860E+02</rscale>
<asrwt>0</asrwt>
<pdfrwt beam="1">  1        1 0.16740735E-03 0.42925860E+02</pdfrwt>
<pdfrwt beam="2">  1       -1 0.65129354E-01 0.42925860E+02</pdfrwt>
<totfact> 0.34887342E+05</totfact>
</mgrwt>
</event>
<event>
 4    1  0.3946801E-002  0.7095851E+02  0.7818608E-02  0.1356864E+00
         -1   -1    0    0  501    0 -0.00000000000E+00  0.00000000000E+00  0.12372155204E+01  0.12372257860E+01  0.50400000000E-02 0. -1.
          1   -1    0    0    0  501  0.00000000000E+00 -0.00000000000E+00 -0.10174234999E+04  0.10174234999E+04  0.50400000000E-02 0. -1.
          2    1    1    2    0  502  0.20789594664E+02 -0.93801918746E+01 -0.11794953171E+03  0.12013445502E+03  0.25500000000E-02 0.  1.
         -2    1    1    2  502    0 -0.20789594664E+02  0.93801918746E+01 -0.89823675267E+03  0.89852627068E+03  0.25500000000E-02 0.  1.
<mgrwt>
<rscale>  0 0.70958506E+02</rscale>
<asrwt>0</asrwt>
<pdfrwt beam="2">  1        1 0.15652602E+00 0.70958506E+02</pdfrwt>
<pdfrwt beam="1">  1       -1 0.19034245E-03 0.70958506E+02</pdfrwt>
<totfact> 0.26051982E+05</totfact>
</mgrwt>
</event>
<event>
 4    1  0.3946801E-002  0.4936750E+02  0.7818608E-02  0.1448783E+00
          1   -1    0    0    0  501  0.00000000000E+00  0.00000000000E+00  0.22986628708E+04  0.22986628708E+04  0.50400000000E-02 0. -1.
         -1   -1    0    0  501    0 -0.00000000000E+00 -0.00000000000E+00 -0.26503773840E+00  0.26508565479E+00  0.50400000000E-02 0. -1.
          2    1    1    2    0  502  0.21159440829E+02  0.12125392900E+02  0.13267700527E+04  0.13269941673E+04  0.25500000000E-02 0.  1.
         -2    1    1    2  502    0 -0.21159440829E+02 -0.12125392900E+02  0.97162778034E+03  0.97193378922E+03  0.25500000000E-02 0.  1.
<mgrwt>
<rscale>  0 0.49367499E+02</rscale>
<asrwt>0</asrwt>
<pdfrwt beam="1">  1        1 0.35364104E+00 0.49367499E+02</pdfrwt>
<pdfrwt beam="2">  1       -1 0.40778655E-04 0.49367499E+02</pdfrwt>
<totfact> 0.30690177E+05</totfact>
</mgrwt>
</event>
<event>
 4    1  0.3946801E-002  0.1193622E+03  0.7818608E-02  0.1244153E+00
          1   -1    0    0    0  501  0.00000000000E+00  0.00000000000E+00  0.37976244038E+02  0.37976244373E+02  0.50400000000E-02 0. -1.
         -1   -1    0    0  501    0 -0.00000000000E+00 -0.00000000000E+00 -0.93791114302E+02  0.93791114437E+02  0.50400000000E-02 0. -1.
          2    1    1    2    0  502  0.37944482652E+02  0.33000901695E+02  0.75730262121E+01  0.50854636061E+02  0.25500000000E-02 0.  1.
         -2    1    1    2  502    0 -0.37944482652E+02 -0.33000901695E+02 -0.63387896476E+02  0.80912722748E+02  0.25500000000E-02 0.  1.
<mgrwt>
<rscale>  0 0.11936221E+03</rscale>
<asrwt>0</asrwt>
<pdfrwt beam="1">  1        1 0.58424991E-02 0.11936221E+03</pdfrwt>
<pdfrwt beam="2">  1       -1 0.14429402E-01 0.11936221E+03</pdfrwt>
<totfact> 0.41104406E+04</totfact>
</mgrwt>
</event>
<event>
 4    1  0.3946801E-002  0.5754498E+02  0.7818608E-02  0.1408433E+00
          1   -1    0    0    0  501  0.00000000000E+00  0.00000000000E+00  0.15458430599E+02  0.15458431421E+02  0.50400000000E-02 0. -1.
         -1   -1    0    0  501    0 -0.00000000000E+00 -0.00000000000E+00 -0.53553697784E+02  0.53553698021E+02  0.50400000000E-02 0. -1.
          2    1    1    2    0  502 -0.24700085172E+02 -0.37531329090E-01 -0.36744956611E+02  0.44275133641E+02  0.25500000000E-02 0.  1.
         -2    1    1    2  502    0  0.24700085172E+02  0.37531329090E-01 -0.13503105743E+01  0.24736995801E+02  0.25500000000E-02 0.  1.
<mgrwt>
<rscale>  0 0.57544979E+02</rscale>
<asrwt>0</asrwt>
<pdfrwt beam="1">  1        1 0.23782202E-02 0.57544979E+02</pdfrwt>
<pdfrwt beam="2">  1       -1 0.82390304E-02 0.57544979E+02</pdfrwt>
<totfact> 0.28648770E+05</totfact>
</mgrwt>
</event>
<event>
 4    1  0.3946801E-002  0.1641979E+03  0.7818608E-02  0.1184037E+00
          1   -1    0    0    0  501  0.00000000000E+00  0.00000000000E+00  0.42617036383E+02  0.42617036681E+02  0.50400000000E-02 0.  1.
         -1   -1    0    0  501    0 -0.00000000000E+00 -0.00000000000E+00 -0.15815837696E+03  0.15815837704E+03  0.50400000000E-02 0.  1.
          2    1    1    2    0  502  0.70977445736E+02  0.24170347091E+02 -0.16881348686E+02  0.76856902239E+02  0.25500000000E-02 0.  1.
         -2    1    1    2  502    0 -0.70977445736E+02 -0.24170347091E+02 -0.98659991892E+02  0.12391851148E+03  0.25500000000E-02 0.  1.
<mgrwt>
<rscale>  0 0.16419795E+03</rscale>
<asrwt>0</asrwt>
<pdfrwt beam="1">  1        1 0.65564673E-02 0.16419795E+03</pdfrwt>
<pdfrwt beam="2">  1       -1 0.24332058E-01 0.16419795E+03</pdfrwt>
<totfact> 0.15784703E+04</totfact>
</mgrwt>
</event>
<event>
 4    1  0.3946801E-002  0.1227435E+03  0.7818608E-02  0.1238639E+00
          1   -1    0    0    0  501  0.00000000000E+00  0.00000000000E+00  0.24411105929E+03  0.24411105935E+03  0.50400000000E-02 0. -1.
         -1   -1    0    0  501    0 -0.00000000000E+00 -0.00000000000E+00 -0.15429414245E+02  0.15429415068E+02  0.50400000000E-02 0. -1.
          2    1    1    2    0  502 -0.32288804331E+02 -0.46228021663E+02  0.63115295037E+02  0.84635319732E+02  0.25500000000E-02 0.  1.
         -2    1    1    2  502    0  0.32288804331E+02  0.46228021663E+02  0.16556635001E+03  0.17490515468E+03  0.25500000000E-02 0.  1.
<mgrwt>
<rscale>  0 0.12274348E+03</rscale>
<asrwt>0</asrwt>
<pdfrwt beam="1">  1        1 0.37555543E-01 0.12274348E+03</pdfrwt>
<pdfrwt beam="2">  1       -1 0.23737564E-02 0.12274348E+03</pdfrwt>
<totfact> 0.54875121E+04</totfact>
</mgrwt>
</event>
<event>
 4    1  0.3946801E-002  0.7462068E+02  0.7818608E-02  0.1345050E+00
          1   -1    0    0    0  501  0.00000000000E+00  0.00000000000E+00  0.10848678462E+02  0.10848679633E+02  0.50400000000E-02 0. -1.
         -1   -1    0    0  501    0 -0.00000000000E+00 -0.00000000000E+00 -0.12831623421E+03  0.12831623431E+03  0.50400000000E-02 0. -1.
          2    1    1    2    0  502 -0.11314204106E+02 -0.33496081109E+02 -0.80962320539E+02  0.88345322558E+02  0.25500000000E-02 0. -1.
         -2    1    1    2  502    0  0.11314204106E+02  0.33496081109E+02 -0.36505235209E+02  0.50819591383E+02  0.25500000000E-02 0. -1.
<mgrwt>
<rscale>  0 0.74620685E+02</rscale>
<asrwt>0</asrwt>
<pdfrwt beam="1">  1        1 0.16690276E-02 0.74620685E+02</pdfrwt>
<pdfrwt beam="2">  1       -1 0.19740958E-01 0.74620685E+02</pdfrwt>
<totfact> 0.12972272E+05</totfact>
</mgrwt>
</event>
<event>
 4    1  0.3946801E-002  0.4852137E+02  0.7818608E-02  0.1453484E+00
         -1   -1    0    0  501    0 -0.00000000000E+00  0.00000000000E+00  0.57595912120E+00  0.57598117235E+00  0.50400000000E-02 0.  1.
          1   -1    0    0    0  501  0.00000000000E+00 -0.00000000000E+00 -0.10218946279E+04  0.10218946279E+04  0.50400000000E-02 0.  1.
          2    1    1    2    0  502 -0.15525533939E+02  0.18501145762E+02 -0.46239342695E+03  0.46302377465E+03  0.25500000000E-02 0. -1.
         -2    1    1    2  502    0  0.15525533939E+02 -0.18501145762E+02 -0.55892524186E+03  0.55944683447E+03  0.25500000000E-02 0. -1.
<mgrwt>
<rscale>  0 0.48521369E+02</rscale>
<asrwt>0</asrwt>
<pdfrwt beam="2">  1        1 0.15721311E+00 0.48521369E+02</pdfrwt>
<pdfrwt beam="1">  1       -1 0.88611611E-04 0.48521369E+02</pdfrwt>
<totfact> 0.67965285E+05</totfact>
</mgrwt>
</event>
<event>
 4    1  0.3946801E-002  0.7557777E+02  0.7818608E-02  0.1342091E+00
         -1   -1    0    0  501    0 -0.00000000000E+00  0.00000000000E+00  0.34049023075E+01  0.34049060377E+01  0.50400000000E-02 0. -1.
          1   -1    0    0    0  501  0.00000000000E+00 -0.00000000000E+00 -0.41939498597E+03  0.41939498600E+03  0.50400000000E-02 0. -1.
          2    1    1    2    0  502 -0.14601631489E+02  0.29293144288E+02 -0.10233891796E+03  0.10744556799E+03  0.25500000000E-02 0. -1.
         -2    1    1    2  502    0  0.14601631489E+02 -0.29293144288E+02 -0.31365116570E+03  0.31535432404E+03  0.25500000000E-02 0. -1.
<mgrwt>
<rscale>  0 0.75577768E+02</rscale>
<asrwt>0</asrwt>
<pdfrwt beam="2">  1        1 0.64522265E-01 0.75577768E+02</pdfrwt>
<pdfrwt beam="1">  1       -1 0.52383175E-03 0.75577768E+02</pdfrwt>
<totfact> 0.22258582E+05</totfact>
</mgrwt>
</event>
<event>
 4    1  0.3946801E-002  0.4786488E+02  0.7818608E-02  0.1457210E+00
         -1   -1    0    0  501    0 -0.00000000000E+00  0.00000000000E+00  0.10592790684E+03  0.10592790696E+03  0.50400000000E-02 0. -1.
          1   -1    0    0    0  501  0.00000000000E+00 -0.00000000000E+00 -0.54070878741E+01  0.54070902230E+01  0.50400000000E-02 0. -1.
          2    1    1    2    0  502 -0.14928277115E+02 -0.18193908930E+02  0.60369894213E+02  0.64795030006E+02  0.25500000000E-02 0.  1.
         -2    1    1    2  502    0  0.14928277115E+02  0.18193908930E+02  0.40150924755E+02  0.46539967178E+02  0.25500000000E-02 0.  1.
<mgrwt>
<rscale>  0 0.47864878E+02</rscale>
<asrwt>0</asrwt>
<pdfrwt beam="2">  1        1 0.83185984E-03 0.47864878E+02</pdfrwt>
<pdfrwt beam="1">  1       -1 0.16296602E-01 0.47864878E+02</pdfrwt>
<totfact> 0.41050074E+05</totfact>
</mgrwt>
</event>
<event>
 4    1  0.3946801E-002  0.4173536E+02  0.7818608E-02  0.1495816E+00
          1   -1    0    0    0  501  0.00000000000E+00  0.00000000000E+00  0.82804160873E+03  0.82804160874E+03  0.50400000000E-02 0. -1.
         -1   -1    0    0  501    0 -0.00000000000E+00 -0.00000000000E+00 -0.52587940574E+00  0.52590355673E+00  0.50400000000E-02 0. -1.
          2    1    1    2    0  502  0.14227178748E+02  0.14945110248E+02  0.47556096514E+03  0.47600840382E+03  0.25500000000E-02 0.  1.
         -2    1    1    2  502    0 -0.14227178748E+02 -0.14945110248E+02  0.35195476419E+03  0.35255910848E+03  0.25500000000E-02 0.  1.
<mgrwt>
<rscale>  0 0.41735359E+02</rscale>
<asrwt>0</asrwt>
<pdfrwt beam="1">  1        1 0.12739103E+00 0.41735359E+02</pdfrwt>
<pdfrwt beam="2">  1       -1 0.80906374E-04 0.41735359E+02</pdfrwt>
<totfact> 0.10233884E+06</totfact>
</mgrwt>
</event>
<event>
 4    1  0.3946801E-002  0.5671397E+02  0.7818608E-02  0.1412163E+00
         -1   -1    0    0  501    0 -0.00000000000E+00  0.00000000000E+00  0.33180596448E+02  0.33180596831E+02  0.50400000000E-02 0.  1.
          1   -1    0    0    0  501  0.00000000000E+00 -0.00000000000E+00 -0.24234602249E+02  0.24234602773E+02  0.50400000000E-02 0.  1.
          2    1    1    2    0  502 -0.72699191850E+01  0.19917301933E+02  0.23535791475E+02  0.31677817603E+02  0.25500000000E-02 0. -1.
         -2    1    1    2  502    0  0.72699191850E+01 -0.19917301933E+02 -0.14589797275E+02  0.25737382001E+02  0.25500000000E-02 0. -1.
<mgrwt>
<rscale>  0 0.56713969E+02</rscale>
<asrwt>0</asrwt>
<pdfrwt beam="2">  1        1 0.37284004E-02 0.56713969E+02</pdfrwt>
<pdfrwt beam="1">  1       -1 0.51047072E-02 0.56713969E+02</pdfrwt>
<totfact> 0.31300257E+05</totfact>
</mgrwt>
</event>
<event>
 4    1  0.3946801E-002  0.5282109E+02  0.7818608E-02  0.1430693E+00
          1   -1    0    0    0  501  0.00000000000E+00  0.00000000000E+00  0.11861916631E+02  0.11861917701E+02  0.50400000000E-02 0.  1.
         -1   -1    0    0  501    0 -0.00000000000E+00 -0.00000000000E+00 -0.58803041766E+02  0.58803041982E+02  0.50400000000E-02 0.  1.
          2    1    1    2    0  502  0.29536855577E+01 -0.26097541618E+02 -0.19755648429E+02  0.32864746891E+02  0.25500000000E-02 0. -1.
         -2    1    1    2  502    0 -0.29536855577E+01  0.26097541618E+02 -0.27185476706E+02  0.37800212792E+02  0.25500000000E-02 0. -1.
<mgrwt>
<rscale>  0 0.52821088E+02</rscale>
<asrwt>0</asrwt>
<pdfrwt beam="1">  1        1 0.18249104E-02 0.52821088E+02</pdfrwt>
<pdfrwt beam="2">  1       -1 0.90466217E-02 0.52821088E+02</pdfrwt>
<totfact> 0.35032825E+05</totfact>
</mgrwt>
</event>
<event>
 4    1  0.3946801E-002  0.5245394E+02  0.7818608E-02  0.1432538E+00
         -1   -1    0    0  501    0 -0.00000000000E+00  0.00000000000E+00  0.85604426912E+00  0.85605910561E+00  0.50400000000E-02 0.  1.
          1   -1    0    0    0  501  0.00000000000E+00 -0.00000000000E+00 -0.80351917863E+03  0.80351917864E+03  0.50400000000E-02 0.  1.
          2    1    1    2    0  502  0.17159970211E+02  0.16915752782E+02 -0.56013961759E+03  0.56065764818E+03  0.25500000000E-02 0.  1.
         -2    1    1    2  502    0 -0.17159970211E+02 -0.16915752782E+02 -0.24252351677E+03  0.24371758956E+03  0.25500000000E-02 0.  1.
<mgrwt>
<rscale>  0 0.52453940E+02</rscale>
<asrwt>0</asrwt>
<pdfrwt beam="2">  1        1 0.12361773E+00 0.52453940E+02</pdfrwt>
<pdfrwt beam="1">  1       -1 0.13170090E-03 0.52453940E+02</pdfrwt>
<totfact> 0.58488776E+05</totfact>
</mgrwt>
</event>
<event>
 4    1  0.3946801E-002  0.9825440E+02  0.7818608E-02  0.1284010E+00
          1   -1    0    0    0  501  0.00000000000E+00  0.00000000000E+00  0.31447942923E+02  0.31447943327E+02  0.50400000000E-02 0. -1.
         -1   -1    0    0  501    0 -0.00000000000E+00 -0.00000000000E+00 -0.76745298641E+02  0.76745298807E+02  0.50400000000E-02 0. -1.
          2    1    1    2    0  502  0.38377425546E+02 -0.30566711188E+02 -0.19877973735E+02  0.52936608040E+02  0.25500000000E-02 0. -1.
         -2    1    1    2  502    0 -0.38377425546E+02  0.30566711188E+02 -0.25419381983E+02  0.55256634094E+02  0.25500000000E-02 0. -1.
<mgrwt>
<rscale>  0 0.98254400E+02</rscale>
<asrwt>0</asrwt>
<pdfrwt beam="1">  1        1 0.48381451E-02 0.98254400E+02</pdfrwt>
<pdfrwt beam="2">  1       -1 0.11806969E-01 0.98254400E+02</pdfrwt>
<totfact> 0.70393304E+04</totfact>
</mgrwt>
</event>
<event>
 4    1  0.3946801E-002  0.1636787E+03  0.7818608E-02  0.1184605E+00
          1   -1    0    0    0  501  0.00000000000E+00  0.00000000000E+00  0.77128298442E+03  0.77128298444E+03  0.50400000000E-02 0. -1.
         -1   -1    0    0  501    0 -0.00000000000E+00 -0.00000000000E+00 -0.86838165314E+01  0.86838179939E+01  0.50400000000E-02 0. -1.
          2    1    1    2    0  502  0.59861500338E+02 -0.54774785584E+02  0.43217924683E+03  0.43973011922E+03  0.25500000000E-02 0. -1.
         -2    1    1    2  502    0 -0.59861500338E+02  0.54774785584E+02  0.33041992107E+03  0.34023668321E+03  0.25500000000E-02 0. -1.
<mgrwt>
<rscale>  0 0.16367872E+03</rscale>
<asrwt>0</asrwt>
<pdfrwt beam="1">  1        1 0.11865887E+00 0.16367872E+03</pdfrwt>
<pdfrwt beam="2">  1       -1 0.13359725E-02 0.16367872E+03</pdfrwt>
<totfact> 0.28885771E+04</totfact>
</mgrwt>
</event>
<event>
 4    1  0.3946801E-002  0.4591888E+02  0.7818608E-02  0.1468685E+00
          1   -1    0    0    0  501  0.00000000000E+00  0.00000000000E+00  0.26263468834E+03  0.26263468838E+03  0.50400000000E-02 0. -1.
         -1   -1    0    0  501    0 -0.00000000000E+00 -0.00000000000E+00 -0.20071040385E+01  0.20071103664E+01  0.50400000000E-02 0. -1.
          2    1    1    2    0  502  0.46135199645E+01  0.20298507953E+02  0.18613759641E+03  0.18729794125E+03  0.25500000000E-02 0.  1.
         -2    1    1    2  502    0 -0.46135199645E+01 -0.20298507953E+02  0.74489987885E+02  0.77343857501E+02  0.25500000000E-02 0.  1.
<mgrwt>
<rscale>  0 0.45918884E+02</rscale>
<asrwt>0</asrwt>
<pdfrwt beam="1">  1        1 0.40405366E-01 0.45918884E+02</pdfrwt>
<pdfrwt beam="2">  1       -1 0.30878551E-03 0.45918884E+02</pdfrwt>
<totfact> 0.72845318E+05</totfact>
</mgrwt>
</event>
<event>
 4    1  0.3946801E-002  0.4426655E+02  0.7818608E-02  0.1478973E+00
          1   -1    0    0    0  501  0.00000000000E+00  0.00000000000E+00  0.61091948468E+03  0.61091948470E+03  0.50400000000E-02 0. -1.
         -1   -1    0    0  501    0 -0.00000000000E+00 -0.00000000000E+00 -0.80186837848E+00  0.80188421733E+00  0.50400000000E-02 0. -1.
          2    1    1    2    0  502  0.16476358652E+02 -0.11744926827E+02  0.42902121786E+03  0.42949810138E+03  0.25500000000E-02 0.  1.
         -2    1    1    2  502    0 -0.16476358652E+02  0.11744926827E+02  0.18109639843E+03  0.18222326754E+03  0.25500000000E-02 0.  1.
<mgrwt>
<rscale>  0 0.44266550E+02</rscale>
<asrwt>0</asrwt>
<pdfrwt beam="1">  1        1 0.93987804E-01 0.44266550E+02</pdfrwt>
<pdfrwt beam="2">  1       -1 0.12336534E-03 0.44266550E+02</pdfrwt>
<totfact> 0.89353710E+05</totfact>
</mgrwt>
</event>
<event>
 4    1  0.3946801E-002  0.8258457E+02  0.7818608E-02  0.1321873E+00
          1   -1    0    0    0  501  0.00000000000E+00  0.00000000000E+00  0.46510433907E+02  0.46510434180E+02  0.50400000000E-02 0. -1.
         -1   -1    0    0  501    0 -0.00000000000E+00 -0.00000000000E+00 -0.36659575920E+02  0.36659576266E+02  0.50400000000E-02 0. -1.
          2    1    1    2    0  502 -0.78098057336E+01  0.38332248148E+02  0.18236482121E+02  0.43161598677E+02  0.25500000000E-02 0. -1.
         -2    1    1    2  502    0  0.78098057336E+01 -0.38332248148E+02 -0.83856241340E+01  0.40008411770E+02  0.25500000000E-02 0. -1.
<mgrwt>
<rscale>  0 0.82584570E+02</rscale>
<asrwt>0</asrwt>
<pdfrwt beam="1">  1        1 0.71554514E-02 0.82584570E+02</pdfrwt>
<pdfrwt beam="2">  1       -1 0.56399348E-02 0.82584570E+02</pdfrwt>
<totfact> 0.12212935E+05</totfact>
</mgrwt>
</event>
<event>
 4    1  0.3946801E-002  0.4560317E+02  0.7818608E-02  0.1470611E+00
          1   -1    0    0    0  501  0.00000000000E+00  0.00000000000E+00  0.81753171938E+02  0.81753172094E+02  0.50400000000E-02 0. -1.
         -1   -1    0    0  501    0 -0.00000000000E+00 -0.00000000000E+00 -0.63595361158E+01  0.63595381129E+01  0.50400000000E-02 0. -1.
          2    1    1    2    0  502 -0.82129665801E+01  0.19517462386E+02  0.54037947958E+02  0.58038642163E+02  0.25500000000E-02 0.  1.
         -2    1    1    2  502    0  0.82129665801E+01 -0.19517462386E+02  0.21355687865E+02  0.30074068044E+02  0.25500000000E-02 0.  1.
<mgrwt>
<rscale>  0 0.45603173E+02</rscale>
<asrwt>0</asrwt>
<pdfrwt beam="1">  1        1 0.12577412E-01 0.45603173E+02</pdfrwt>
<pdfrwt beam="2">  1       -1 0.97839031E-03 0.45603173E+02</pdfrwt>
<totfact> 0.62032934E+05</totfact>
</mgrwt>
</event>
<event>
 4    1  0.3946801E-002  0.4571924E+02  0.7818608E-02  0.1469901E+00
         -1   -1    0    0  501    0 -0.00000000000E+00  0.00000000000E+00  0.51280187299E+00  0.51282663985E+00  0.50400000000E-02 0. -1.
          1   -1    0    0    0  501  0.00000000000E+00 -0.00000000000E+00 -0.10190087157E+04  0.10190087157E+04  0.50400000000E-02 0. -1.
          2    1    1    2    0  502  0.21053721906E+02 -0.70081813655E+01 -0.63177089248E+03  0.63216044989E+03  0.25500000000E-02 0.  1.
         -2    1    1    2  502    0 -0.21053721906E+02  0.70081813655E+01 -0.38672502132E+03  0.38736109244E+03  0.25500000000E-02 0.  1.
<mgrwt>
<rscale>  0 0.45719239E+02</rscale>
<asrwt>0</asrwt>
<pdfrwt beam="2">  1        1 0.15676895E+00 0.45719239E+02</pdfrwt>
<pdfrwt beam="1">  1       -1 0.78895317E-04 0.45719239E+02</pdfrwt>
<totfact> 0.78763305E+05</totfact>
</mgrwt>
</event>
<event>
 4    1  0.3946801E-002  0.4823272E+02  0.7818608E-02  0.1455114E+00
          1   -1    0    0    0  501  0.00000000000E+00  0.00000000000E+00  0.55639788264E+02  0.55639788492E+02  0.50400000000E-02 0.  1.
         -1   -1    0    0  501    0 -0.00000000000E+00 -0.00000000000E+00 -0.10452927511E+02  0.10452928726E+02  0.50400000000E-02 0.  1.
          2    1    1    2    0  502 -0.22531812809E+02  0.29626252073E+01  0.33652850605E+02  0.40607562066E+02  0.25500000000E-02 0. -1.
         -2    1    1    2  502    0  0.22531812809E+02 -0.29626252073E+01  0.11534010148E+02  0.25485155153E+02  0.25500000000E-02 0. -1.
<mgrwt>
<rscale>  0 0.48232716E+02</rscale>
<asrwt>0</asrwt>
<pdfrwt beam="1">  1        1 0.85599678E-02 0.48232716E+02</pdfrwt>
<pdfrwt beam="2">  1       -1 0.16081428E-02 0.48232716E+02</pdfrwt>
<totfact> 0.51644645E+05</totfact>
</mgrwt>
</event>
<event>
 4    1  0.3946801E-002  0.5052134E+02  0.7818608E-02  0.1442550E+00
         -1   -1    0    0  501    0 -0.00000000000E+00  0.00000000000E+00  0.14105292418E+02  0.14105293319E+02  0.50400000000E-02 0. -1.
          1   -1    0    0    0  501  0.00000000000E+00 -0.00000000000E+00 -0.45238438755E+02  0.45238439036E+02  0.50400000000E-02 0. -1.
          2    1    1    2    0  502  0.23171502666E+02 -0.99929091458E+01 -0.16918500380E+02  0.30381119641E+02  0.25500000000E-02 0.  1.
         -2    1    1    2  502    0 -0.23171502666E+02  0.99929091458E+01 -0.14214645956E+02  0.28962612713E+02  0.25500000000E-02 0.  1.
<mgrwt>
<rscale>  0 0.50521340E+02</rscale>
<asrwt>0</asrwt>
<pdfrwt beam="2">  1        1 0.69597598E-02 0.50521340E+02</pdfrwt>
<pdfrwt beam="1">  1       -1 0.21700451E-02 0.50521340E+02</pdfrwt>
<totfact> 0.44962120E+05</totfact>
</mgrwt>
</event>
<event>
 4    1  0.3946801E-002  0.7546502E+02  0.7818608E-02  0.1342437E+00
         -1   -1    0    0  501    0 -0.00000000000E+00  0.00000000000E+00  0.36591403776E+01  0.36591438486E+01  0.50400000000E-02 0. -1.
          1   -1    0    0    0  501  0.00000000000E+00 -0.00000000000E+00 -0.38909187369E+03  0.38909187373E+03  0.50400000000E-02 0. -1.
          2    1    1    2    0  502 -0.31310148147E+02 -0.86157447021E+01 -0.92717694296E+02  0.98240151037E+02  0.25500000000E-02 0.  1.
         -2    1    1    2  502    0  0.31310148147E+02  0.86157447021E+01 -0.29271503902E+03  0.29451086654E+03  0.25500000000E-02 0.  1.
<mgrwt>
<rscale>  0 0.75465024E+02</rscale>
<asrwt>0</asrwt>
<pdfrwt beam="2">  1        1 0.59860256E-01 0.75465024E+02</pdfrwt>
<pdfrwt beam="1">  1       -1 0.56294525E-03 0.75465024E+02</pdfrwt>
<totfact> 0.22082841E+05</totfact>
</mgrwt>
</event>
<event>
 4    1  0.3946801E-002  0.4298633E+02  0.7818608E-02  0.1487319E+00
         -1   -1    0    0  501    0 -0.00000000000E+00  0.00000000000E+00  0.14701350549E+02  0.14701351413E+02  0.50400000000E-02 0. -1.
          1   -1    0    0    0  501  0.00000000000E+00 -0.00000000000E+00 -0.31422692792E+02  0.31422693196E+02  0.50400000000E-02 0. -1.
          2    1    1    2    0  502 -0.17161161791E+02  0.10550368344E+02 -0.32107158820E+00  0.20147427619E+02  0.25500000000E-02 0. -1.
         -2    1    1    2  502    0  0.17161161791E+02 -0.10550368344E+02 -0.16400270654E+02  0.25976616990E+02  0.25500000000E-02 0. -1.
<mgrwt>
<rscale>  0 0.42986326E+02</rscale>
<asrwt>0</asrwt>
<pdfrwt beam="2">  1        1 0.48342605E-02 0.42986326E+02</pdfrwt>
<pdfrwt beam="1">  1       -1 0.22617463E-02 0.42986326E+02</pdfrwt>
<totfact> 0.65677327E+05</totfact>
</mgrwt>
</event>
<event>
 4    1  0.3946801E-002  0.5457355E+02  0.7818608E-02  0.1422126E+00
         -1   -1    0    0  501    0 -0.00000000000E+00  0.00000000000E+00  0.41046971897E+01  0.41047002839E+01  0.50400000000E-02 0. -1.
          1   -1    0    0    0  501  0.00000000000E+00 -0.00000000000E+00 -0.18139406255E+03  0.18139406262E+03  0.50400000000E-02 0. -1.
          2    1    1    2    0  502 -0.22621275647E+02 -0.14938550705E+02 -0.99223121618E+02  0.10285966303E+03  0.25500000000E-02 0. -1.
         -2    1    1    2  502    0  0.22621275647E+02  0.14938550705E+02 -0.78066243746E+02  0.82639099875E+02  0.25500000000E-02 0. -1.
<mgrwt>
<rscale>  0 0.54573546E+02</rscale>
<asrwt>0</asrwt>
<pdfrwt beam="2">  1        1 0.27906773E-01 0.54573546E+02</pdfrwt>
<pdfrwt beam="1">  1       -1 0.63149226E-03 0.54573546E+02</pdfrwt>
<totfact> 0.44335267E+05</totfact>
</mgrwt>
</event>
<event>
 4    1  0.3946801E-002  0.6088768E+02  0.7818608E-02  0.1394144E+00
          1   -1    0    0    0  501  0.00000000000E+00  0.00000000000E+00  0.45921840196E+02  0.45921840473E+02  0.50400000000E-02 0.  1.
         -1   -1    0    0  501    0 -0.00000000000E+00 -0.00000000000E+00 -0.20182710887E+02  0.20182711516E+02  0.50400000000E-02 0.  1.
          2    1    1    2    0  502  0.20537495206E+02  0.16309552587E+02  0.29655075654E+02  0.39588050387E+02  0.25500000000E-02 0. -1.
         -2    1    1    2  502    0 -0.20537495206E+02 -0.16309552587E+02 -0.39159463446E+01  0.26516501602E+02  0.25500000000E-02 0. -1.
<mgrwt>
<rscale>  0 0.60887675E+02</rscale>
<asrwt>0</asrwt>
<pdfrwt beam="1">  1        1 0.70648986E-02 0.60887675E+02</pdfrwt>
<pdfrwt beam="2">  1       -1 0.31050325E-02 0.60887675E+02</pdfrwt>
<totfact> 0.27727406E+05</totfact>
</mgrwt>
</event>
<event>
 4    1  0.3946801E-002  0.5341376E+02  0.7818608E-02  0.1427753E+00
         -1   -1    0    0  501    0 -0.00000000000E+00  0.00000000000E+00  0.10371377047E+01  0.10371499507E+01  0.50400000000E-02 0.  1.
          1   -1    0    0    0  501  0.00000000000E+00 -0.00000000000E+00 -0.68771320015E+03  0.68771320017E+03  0.50400000000E-02 0.  1.
          2    1    1    2    0  502  0.84825344117E+01  0.22407016901E+02 -0.19118709834E+03  0.19268247034E+03  0.25500000000E-02 0. -1.
         -2    1    1    2  502    0 -0.84825344117E+01 -0.22407016901E+02 -0.49548896410E+03  0.49606787978E+03  0.25500000000E-02 0. -1.
<mgrwt>
<rscale>  0 0.53413763E+02</rscale>
<asrwt>0</asrwt>
<pdfrwt beam="2">  1        1 0.10580167E+00 0.53413763E+02</pdfrwt>
<pdfrwt beam="1">  1       -1 0.15956114E-03 0.53413763E+02</pdfrwt>
<totfact> 0.56303551E+05</totfact>
</mgrwt>
</event>
<event>
 4    1  0.3946801E-002  0.4934837E+02  0.7818608E-02  0.1448888E+00
         -1   -1    0    0  501    0 -0.00000000000E+00  0.00000000000E+00  0.43560344731E+01  0.43560373888E+01  0.50400000000E-02 0. -1.
          1   -1    0    0    0  501  0.00000000000E+00 -0.00000000000E+00 -0.13976364567E+03  0.13976364576E+03  0.50400000000E-02 0. -1.
          2    1    1    2    0  502 -0.13190642103E+02 -0.19870389109E+02 -0.86172088719E+02  0.89411712226E+02  0.25500000000E-02 0. -1.
         -2    1    1    2  502    0  0.13190642103E+02  0.19870389109E+02 -0.49235522479E+02  0.54707970925E+02  0.25500000000E-02 0. -1.
<mgrwt>
<rscale>  0 0.49348373E+02</rscale>
<asrwt>0</asrwt>
<pdfrwt beam="2">  1        1 0.21502096E-01 0.49348373E+02</pdfrwt>
<pdfrwt beam="1">  1       -1 0.67015949E-03 0.49348373E+02</pdfrwt>
<totfact> 0.54766085E+05</totfact>
</mgrwt>
</event>
<event>
 4    1  0.3946801E-002  0.1733410E+03  0.7818608E-02  0.1174408E+00
          1   -1    0    0    0  501  0.00000000000E+00  0.00000000000E+00  0.17213369714E+04  0.17213369714E+04  0.50400000000E-02 0. -1.
         -1   -1    0    0  501    0 -0.00000000000E+00 -0.00000000000E+00 -0.43639183052E+01  0.43639212157E+01  0.50400000000E-02 0. -1.
          2    1    1    2    0  502  0.32997050158E+01  0.57620649496E+02  0.15021980074E+04  0.15033063163E+04  0.25500000000E-02 0.  1.
         -2    1    1    2  502    0 -0.32997050158E+01 -0.57620649496E+02  0.21477504573E+03  0.22239457632E+03  0.25500000000E-02 0.  1.
<mgrwt>
<rscale>  0 0.17334101E+03</rscale>
<asrwt>0</asrwt>
<pdfrwt beam="1">  1        1 0.26482132E+00 0.17334101E+03</pdfrwt>
<pdfrwt beam="2">  1       -1 0.67137164E-03 0.17334101E+03</pdfrwt>
<totfact> 0.16787835E+04</totfact>
</mgrwt>
</event>
<event>
 4    1  0.3946801E-002  0.6270779E+02  0.7818608E-02  0.1386807E+00
         -1   -1    0    0  501    0 -0.00000000000E+00  0.00000000000E+00  0.14549239145E+02  0.14549240017E+02  0.50400000000E-02 0.  1.
          1   -1    0    0    0  501  0.00000000000E+00 -0.00000000000E+00 -0.67568255497E+02  0.67568255685E+02  0.50400000000E-02 0.  1.
          2    1    1    2    0  502  0.12053414880E+02 -0.22195859548E+02 -0.50837310637E+02  0.56765950628E+02  0.25500000000E-02 0. -1.
         -2    1    1    2  502    0 -0.12053414880E+02  0.22195859548E+02 -0.21817057156E+01  0.25351545075E+02  0.25500000000E-02 0. -1.
<mgrwt>
<rscale>  0 0.62707791E+02</rscale>
<asrwt>0</asrwt>
<pdfrwt beam="2">  1        1 0.10395116E-01 0.62707791E+02</pdfrwt>
<pdfrwt beam="1">  1       -1 0.22383446E-02 0.62707791E+02</pdfrwt>
<totfact> 0.26840306E+05</totfact>
</mgrwt>
</event>
<event>
 4    1  0.3946801E-002  0.5264803E+02  0.7818608E-02  0.1431561E+00
          1   -1    0    0    0  501  0.00000000000E+00  0.00000000000E+00  0.28500552844E+03  0.28500552849E+03  0.50400000000E-02 0. -1.
         -1   -1    0    0  501    0 -0.00000000000E+00 -0.00000000000E+00 -0.24313667171E+01  0.24313719408E+01  0.50400000000E-02 0. -1.
          2    1    1    2    0  502  0.16447047600E+02  0.20458789239E+02  0.15204992783E+03  0.15429921578E+03  0.25500000000E-02 0.  1.
         -2    1    1    2  502    0 -0.16447047600E+02 -0.20458789239E+02  0.13052423390E+03  0.13313768465E+03  0.25500000000E-02 0.  1.
<mgrwt>
<rscale>  0 0.52648028E+02</rscale>
<asrwt>0</asrwt>
<pdfrwt beam="1">  1        1 0.43847021E-01 0.52648028E+02</pdfrwt>
<pdfrwt beam="2">  1       -1 0.37405668E-03 0.52648028E+02</pdfrwt>
<totfact> 0.52572906E+05</totfact>
</mgrwt>
</event>
<event>
 4    1  0.3946801E-002  0.1283855E+03  0.7818608E-02  0.1229871E+00
          1   -1    0    0    0  501  0.00000000000E+00  0.00000000000E+00  0.41006332175E+02  0.41006332485E+02  0.50400000000E-02 0. -1.
         -1   -1    0    0  501    0 -0.00000000000E+00 -0.00000000000E+00 -0.10048963245E+03  0.10048963258E+03  0.50400000000E-02 0. -1.
          2    1    1    2    0  502  0.32964224694E+02 -0.22668944204E+02 -0.85069605349E+02  0.94007227923E+02  0.25500000000E-02 0. -1.
         -2    1    1    2  502    0 -0.32964224694E+02  0.22668944204E+02  0.25586305076E+02  0.47488737138E+02  0.25500000000E-02 0. -1.
<mgrwt>
<rscale>  0 0.12838553E+03</rscale>
<asrwt>0</asrwt>
<pdfrwt beam="1">  1        1 0.63086665E-02 0.12838553E+03</pdfrwt>
<pdfrwt beam="2">  1       -1 0.15459943E-01 0.12838553E+03</pdfrwt>
<totfact> 0.33561693E+04</totfact>
</mgrwt>
</event>
<event>
 4    1  0.3946801E-002  0.1004340E+03  0.7818608E-02  0.1279386E+00
         -1   -1    0    0  501    0 -0.00000000000E+00  0.00000000000E+00  0.25328145308E+03  0.25328145313E+03  0.50400000000E-02 0.  1.
          1   -1    0    0    0  501  0.00000000000E+00 -0.00000000000E+00 -0.99563047059E+01  0.99563059815E+01  0.50400000000E-02 0.  1.
          2    1    1    2    0  502  0.35543166968E+02 -0.28107733063E+02  0.64938241393E+02  0.79185456858E+02  0.25500000000E-02 0.  1.
         -2    1    1    2  502    0 -0.35543166968E+02  0.28107733063E+02  0.17838690698E+03  0.18405230226E+03  0.25500000000E-02 0.  1.
<mgrwt>
<rscale>  0 0.10043401E+03</rscale>
<asrwt>0</asrwt>
<pdfrwt beam="2">  1        1 0.15317395E-02 0.10043401E+03</pdfrwt>
<pdfrwt beam="1">  1       -1 0.38966373E-01 0.10043401E+03</pdfrwt>
<totfact> 0.50043555E+04</totfact>
</mgrwt>
</event>
<event>
 4    1  0.3946801E-002  0.2518990E+03  0.7818608E-02  0.1112111E+00
         -1   -1    0    0  501    0 -0.00000000000E+00  0.00000000000E+00  0.27953686182E+02  0.27953686637E+02  0.50400000000E-02 0.  1.
          1   -1    0    0    0  501  0.00000000000E+00 -0.00000000000E+00 -0.56748438089E+03  0.56748438092E+03  0.50400000000E-02 0.  1.
          2    1    1    2    0  502 -0.11535872437E+03 -0.20241440230E+02 -0.37926627512E+03  0.39693860815E+03  0.25500000000E-02 0.  1.
         -2    1    1    2  502    0  0.11535872437E+03  0.20241440230E+02 -0.16026441959E+03  0.19849945940E+03  0.25500000000E-02 0.  1.
<mgrwt>
<rscale>  0 0.25189903E+03</rscale>
<asrwt>0</asrwt>
<pdfrwt beam="2">  1        1 0.87305281E-01 0.25189903E+03</pdfrwt>
<pdfrwt beam="1">  1       -1 0.43005676E-02 0.25189903E+03</pdfrwt>
<totfact> 0.83169443E+03</totfact>
</mgrwt>
</event>
<event>
 4    1  0.3946801E-002  0.5965295E+02  0.7818608E-02  0.1399294E+00
          1   -1    0    0    0  501  0.00000000000E+00  0.00000000000E+00  0.25292863930E+03  0.25292863935E+03  0.50400000000E-02 0.  1.
         -1   -1    0    0  501    0 -0.00000000000E+00 -0.00000000000E+00 -0.35172693438E+01  0.35172729547E+01  0.50400000000E-02 0.  1.
          2    1    1    2    0  502  0.16570395473E+02 -0.12087335102E+02  0.31611817226E+02  0.37682737040E+02  0.25500000000E-02 0. -1.
         -2    1    1    2  502    0 -0.16570395473E+02  0.12087335102E+02  0.21779955273E+03  0.21876317526E+03  0.25500000000E-02 0. -1.
<mgrwt>
<rscale>  0 0.59652950E+02</rscale>
<asrwt>0</asrwt>
<pdfrwt beam="1">  1        1 0.38912092E-01 0.59652950E+02</pdfrwt>
<pdfrwt beam="2">  1       -1 0.54111874E-03 0.59652950E+02</pdfrwt>
<totfact> 0.37511592E+05</totfact>
</mgrwt>
</event>
<event>
 4    1  0.3946801E-002  0.9496547E+02  0.7818608E-02  0.1291254E+00
          1   -1    0    0    0  501  0.00000000000E+00  0.00000000000E+00  0.41483049044E+03  0.41483049047E+03  0.50400000000E-02 0. -1.
         -1   -1    0    0  501    0 -0.00000000000E+00 -0.00000000000E+00 -0.54350146718E+01  0.54350170087E+01  0.50400000000E-02 0. -1.
          2    1    1    2    0  502  0.24528983092E+00  0.28695460561E+02  0.37211341959E+03  0.37321828287E+03  0.25500000000E-02 0.  1.
         -2    1    1    2  502    0 -0.24528983092E+00 -0.28695460561E+02  0.37282056176E+02  0.47047224606E+02  0.25500000000E-02 0.  1.
<mgrwt>
<rscale>  0 0.94965474E+02</rscale>
<asrwt>0</asrwt>
<pdfrwt beam="1">  1        1 0.63820066E-01 0.94965474E+02</pdfrwt>
<pdfrwt beam="2">  1       -1 0.83615641E-03 0.94965474E+02</pdfrwt>
<totfact> 0.12175344E+05</totfact>
</mgrwt>
</event>
<event>
 4    1  0.3946801E-002  0.5077328E+02  0.7818608E-02  0.1441215E+00
          1   -1    0    0    0  501  0.00000000000E+00  0.00000000000E+00  0.13403591555E+01  0.13403686311E+01  0.50400000000E-02 0.  1.
         -1   -1    0    0  501    0 -0.00000000000E+00 -0.00000000000E+00 -0.48082569931E+03  0.48082569934E+03  0.50400000000E-02 0.  1.
          2    1    1    2    0  502  0.83981957421E+01  0.19611508792E+02 -0.10907048805E+03  0.11113735798E+03  0.25500000000E-02 0.  1.
         -2    1    1    2  502    0 -0.83981957421E+01 -0.19611508792E+02 -0.37041485210E+03  0.37102870999E+03  0.25500000000E-02 0.  1.
<mgrwt>
<rscale>  0 0.50773277E+02</rscale>
<asrwt>0</asrwt>
<pdfrwt beam="1">  1        1 0.20621022E-03 0.50773277E+02</pdfrwt>
<pdfrwt beam="2">  1       -1 0.73973047E-01 0.50773277E+02</pdfrwt>
<totfact> 0.21503089E+05</totfact>
</mgrwt>
</event>
<event>
 4    1  0.3946801E-002  0.5848931E+02  0.7818608E-02  0.1404283E+00
          1   -1    0    0    0  501  0.00000000000E+00  0.00000000000E+00  0.90435953392E+01  0.90435967436E+01  0.50400000000E-02 0. -1.
         -1   -1    0    0  501    0 -0.00000000000E+00 -0.00000000000E+00 -0.94569672641E+02  0.94569672775E+02  0.50400000000E-02 0. -1.
          2    1    1    2    0  502  0.24585412032E+02  0.54637649953E+01 -0.69095441570E+02  0.73542336548E+02  0.25500000000E-02 0. -1.
         -2    1    1    2  502    0 -0.24585412032E+02 -0.54637649953E+01 -0.16430635732E+02  0.30070932971E+02  0.25500000000E-02 0. -1.
<mgrwt>
<rscale>  0 0.58489313E+02</rscale>
<asrwt>0</asrwt>
<pdfrwt beam="1">  1        1 0.13913225E-02 0.58489313E+02</pdfrwt>
<pdfrwt beam="2">  1       -1 0.14549180E-01 0.58489313E+02</pdfrwt>
<totfact> 0.25419689E+05</totfact>
</mgrwt>
</event>
<event>
 4    1  0.3946801E-002  0.4653884E+02  0.7818608E-02  0.1464957E+00
          1   -1    0    0    0  501  0.00000000000E+00  0.00000000000E+00  0.20344487197E+02  0.20344487821E+02  0.50400000000E-02 0. -1.
         -1   -1    0    0  501    0 -0.00000000000E+00 -0.00000000000E+00 -0.26614869599E+02  0.26614870076E+02  0.50400000000E-02 0. -1.
          2    1    1    2    0  502 -0.86117527564E+01  0.20799318046E+02  0.28080194018E+01  0.22686094776E+02  0.25500000000E-02 0.  1.
         -2    1    1    2  502    0  0.86117527564E+01 -0.20799318046E+02 -0.90784018035E+01  0.24273263121E+02  0.25500000000E-02 0.  1.
<mgrwt>
<rscale>  0 0.46538840E+02</rscale>
<asrwt>0</asrwt>
<pdfrwt beam="1">  1        1 0.31299212E-02 0.46538840E+02</pdfrwt>
<pdfrwt beam="2">  1       -1 0.40945954E-02 0.46538840E+02</pdfrwt>
<totfact> 0.51738366E+05</totfact>
</mgrwt>
</event>
<event>
 4    1  0.3946801E-002  0.5134404E+02  0.7818608E-02  0.1438224E+00
          1   -1    0    0    0  501  0.00000000000E+00  0.00000000000E+00  0.24007435142E+03  0.24007435147E+03  0.50400000000E-02 0. -1.
         -1   -1    0    0  501    0 -0.00000000000E+00 -0.00000000000E+00 -0.27451998527E+01  0.27452044792E+01  0.50400000000E-02 0. -1.
          2    1    1    2    0  502  0.24179265203E+02  0.45009315846E+01  0.83861113136E+02  0.87393258057E+02  0.25500000000E-02 0. -1.
         -2    1    1    2  502    0 -0.24179265203E+02 -0.45009315846E+01  0.15346803843E+03  0.15542629789E+03  0.25500000000E-02 0. -1.
<mgrwt>
<rscale>  0 0.51344041E+02</rscale>
<asrwt>0</asrwt>
<pdfrwt beam="1">  1        1 0.36934520E-01 0.51344041E+02</pdfrwt>
<pdfrwt beam="2">  1       -1 0.42233875E-03 0.51344041E+02</pdfrwt>
<totfact> 0.54304623E+05</totfact>
</mgrwt>
</event>
<event>
 4    1  0.3946801E-002  0.4394388E+02  0.7818608E-02  0.1481045E+00
          1   -1    0    0    0  501  0.00000000000E+00  0.00000000000E+00  0.13070714697E+03  0.13070714706E+03  0.50400000000E-02 0.  1.
         -1   -1    0    0  501    0 -0.00000000000E+00 -0.00000000000E+00 -0.36934933447E+01  0.36934967834E+01  0.50400000000E-02 0.  1.
          2    1    1    2    0  502 -0.20506681972E+02 -0.40987154956E+01  0.84124286130E+02  0.86684594927E+02  0.25500000000E-02 0. -1.
         -2    1    1    2  502    0  0.20506681972E+02  0.40987154956E+01  0.42889367492E+02  0.47716048921E+02  0.25500000000E-02 0. -1.
<mgrwt>
<rscale>  0 0.43943883E+02</rscale>
<asrwt>0</asrwt>
<pdfrwt beam="1">  1        1 0.20108792E-01 0.43943883E+02</pdfrwt>
<pdfrwt beam="2">  1       -1 0.56823001E-03 0.43943883E+02</pdfrwt>
<totfact> 0.72395154E+05</totfact>
</mgrwt>
</event>
<event>
 4    1  0.3946801E-002  0.6410385E+02  0.7818608E-02  0.1381375E+00
          1   -1    0    0    0  501  0.00000000000E+00  0.00000000000E+00  0.35659143835E+02  0.35659144192E+02  0.50400000000E-02 0.  1.
         -1   -1    0    0  501    0 -0.00000000000E+00 -0.00000000000E+00 -0.28809605828E+02  0.28809606269E+02  0.50400000000E-02 0.  1.
          2    1    1    2    0  502 -0.16823811511E+02  0.23584617723E+02 -0.10366462304E+02  0.30769113963E+02  0.25500000000E-02 0.  1.
         -2    1    1    2  502    0  0.16823811511E+02 -0.23584617723E+02  0.17216000311E+02  0.33699636498E+02  0.25500000000E-02 0.  1.
<mgrwt>
<rscale>  0 0.64103850E+02</rscale>
<asrwt>0</asrwt>
<pdfrwt beam="1">  1        1 0.54860222E-02 0.64103850E+02</pdfrwt>
<pdfrwt beam="2">  1       -1 0.44322471E-02 0.64103850E+02</pdfrwt>
<totfact> 0.23522968E+05</totfact>
</mgrwt>
</event>
<event>
 4    1  0.3946801E-002  0.4753880E+02  0.7818608E-02  0.1459087E+00
         -1   -1    0    0  501    0 -0.00000000000E+00  0.00000000000E+00  0.10915537154E+01  0.10915653509E+01  0.50400000000E-02 0.  1.
          1   -1    0    0    0  501  0.00000000000E+00 -0.00000000000E+00 -0.51759382340E+03  0.51759382342E+03  0.50400000000E-02 0.  1.
          2    1    1    2    0  502 -0.20902306939E+02 -0.27581247712E+01 -0.37800695743E+03  0.37859447111E+03  0.25500000000E-02 0.  1.
         -2    1    1    2  502    0  0.20902306939E+02  0.27581247712E+01 -0.13849531225E+03  0.14009091766E+03  0.25500000000E-02 0.  1.
<mgrwt>
<rscale>  0 0.47538805E+02</rscale>
<asrwt>0</asrwt>
<pdfrwt beam="2">  1        1 0.79629624E-01 0.47538805E+02</pdfrwt>
<pdfrwt beam="1">  1       -1 0.16793265E-03 0.47538805E+02</pdfrwt>
<totfact> 0.74096939E+05</totfact>
</mgrwt>
</event>
<event>
 4    1  0.3946801E-002  0.1031078E+03  0.7818608E-02  0.1273893E+00
         -1   -1    0    0  501    0 -0.00000000000E+00  0.00000000000E+00  0.12072668478E+02  0.12072669530E+02  0.50400000000E-02 0. -1.
          1   -1    0    0    0  501  0.00000000000E+00 -0.00000000000E+00 -0.22015040743E+03  0.22015040749E+03  0.50400000000E-02 0. -1.
          2    1    1    2    0  502  0.42393710378E+02  0.23529885724E+02 -0.14349614996E+03  0.15146625783E+03  0.25500000000E-02 0. -1.
         -2    1    1    2  502    0 -0.42393710378E+02 -0.23529885724E+02 -0.64581588994E+02  0.80756819187E+02  0.25500000000E-02 0. -1.
<mgrwt>
<rscale>  0 0.10310777E+03</rscale>
<asrwt>0</asrwt>
<pdfrwt beam="2">  1        1 0.33869290E-01 0.10310777E+03</pdfrwt>
<pdfrwt beam="1">  1       -1 0.18573339E-02 0.10310777E+03</pdfrwt>
<totfact> 0.86591881E+04</totfact>
</mgrwt>
</event>
<event>
 4    1  0.3946801E-002  0.5231097E+02  0.7818608E-02  0.1433261E+00
         -1   -1    0    0  501    0 -0.00000000000E+00  0.00000000000E+00  0.33323472025E+02  0.33323472407E+02  0.50400000000E-02 0. -1.
          1   -1    0    0    0  501  0.00000000000E+00 -0.00000000000E+00 -0.20529350939E+02  0.20529351557E+02  0.50400000000E-02 0. -1.
          2    1    1    2    0  502  0.11764091015E+02  0.19720466403E+02  0.19288891045E+02  0.29989197335E+02  0.25500000000E-02 0. -1.
         -2    1    1    2  502    0 -0.11764091015E+02 -0.19720466403E+02 -0.64947699581E+01  0.23863626629E+02  0.25500000000E-02 0. -1.
<mgrwt>
<rscale>  0 0.52310966E+02</rscale>
<asrwt>0</asrwt>
<pdfrwt beam="2">  1        1 0.31583618E-02 0.52310966E+02</pdfrwt>
<pdfrwt beam="1">  1       -1 0.51266880E-02 0.52310966E+02</pdfrwt>
<totfact> 0.38145966E+05</totfact>
</mgrwt>
</event>
<event>
 4    1  0.3946801E-002  0.8385022E+02  0.7818608E-02  0.1318467E+00
          1   -1    0    0    0  501  0.00000000000E+00  0.00000000000E+00  0.75593320906E+03  0.75593320907E+03  0.50400000000E-02 0. -1.
         -1   -1    0    0  501    0 -0.00000000000E+00 -0.00000000000E+00 -0.23252221841E+01  0.23252276463E+01  0.50400000000E-02 0. -1.
          2    1    1    2    0  502 -0.52267559079E+01 -0.38499384130E+02  0.51926892752E+03  0.52072040544E+03  0.25500000000E-02 0. -1.
         -2    1    1    2  502    0  0.52267559079E+01  0.38499384130E+02  0.23433905936E+03  0.23753803127E+03  0.25500000000E-02 0. -1.
<mgrwt>
<rscale>  0 0.83850218E+02</rscale>
<asrwt>0</asrwt>
<pdfrwt beam="1">  1        1 0.11629740E+00 0.83850218E+02</pdfrwt>
<pdfrwt beam="2">  1       -1 0.35772695E-03 0.83850218E+02</pdfrwt>
<totfact> 0.17686255E+05</totfact>
</mgrwt>
</event>
<event>
 4    1  0.3946801E-002  0.6213349E+02  0.7818608E-02  0.1389090E+00
          1   -1    0    0    0  501  0.00000000000E+00  0.00000000000E+00  0.16458363888E+03  0.16458363896E+03  0.50400000000E-02 0.  1.
         -1   -1    0    0  501    0 -0.00000000000E+00 -0.00000000000E+00 -0.58641455138E+01  0.58641476796E+01  0.50400000000E-02 0.  1.
          2    1    1    2    0  502 -0.28410596160E+02 -0.11867947210E+02  0.68005055478E+02  0.74650503831E+02  0.25500000000E-02 0.  1.
         -2    1    1    2  502    0  0.28410596160E+02  0.11867947210E+02  0.90714437889E+02  0.95797282806E+02  0.25500000000E-02 0.  1.
<mgrwt>
<rscale>  0 0.62133489E+02</rscale>
<asrwt>0</asrwt>
<pdfrwt beam="1">  1        1 0.25320560E-01 0.62133489E+02</pdfrwt>
<pdfrwt beam="2">  1       -1 0.90217641E-03 0.62133489E+02</pdfrwt>
<totfact> 0.31311312E+05</totfact>
</mgrwt>
</event>
<event>
 4    1  0.3946801E-002  0.5100899E+02  0.7818608E-02  0.1439974E+00
         -1   -1    0    0  501    0 -0.00000000000E+00  0.00000000000E+00  0.51167545658E+01  0.51167570480E+01  0.50400000000E-02 0. -1.
          1   -1    0    0    0  501  0.00000000000E+00 -0.00000000000E+00 -0.12712729564E+03  0.12712729574E+03  0.50400000000E-02 0. -1.
          2    1    1    2    0  502  0.25244508720E+02  0.35527362255E+01 -0.62966351448E+02  0.67931351940E+02  0.25500000000E-02 0. -1.
         -2    1    1    2  502    0 -0.25244508720E+02 -0.35527362255E+01 -0.59044189625E+02  0.64312700846E+02  0.25500000000E-02 0. -1.
<mgrwt>
<rscale>  0 0.51008993E+02</rscale>
<asrwt>0</asrwt>
<pdfrwt beam="2">  1        1 0.19558043E-01 0.51008993E+02</pdfrwt>
<pdfrwt beam="1">  1       -1 0.78719330E-03 0.51008993E+02</pdfrwt>
<totfact> 0.49671276E+05</totfact>
</mgrwt>
</event>
<event>
 4    1  0.3946801E-002  0.4381204E+02  0.7818608E-02  0.1481897E+00
         -1   -1    0    0  501    0 -0.00000000000E+00  0.00000000000E+00  0.87201699639E+00  0.87203156112E+00  0.50400000000E-02 0.  1.
          1   -1    0    0    0  501  0.00000000000E+00 -0.00000000000E+00 -0.55029854888E+03  0.55029854890E+03  0.50400000000E-02 0.  1.
          2    1    1    2    0  502 -0.19691204663E+02 -0.84479062783E+01 -0.21738906319E+03  0.21844247633E+03  0.25500000000E-02 0.  1.
         -2    1    1    2  502    0  0.19691204663E+02  0.84479062783E+01 -0.33203746869E+03  0.33272810414E+03  0.25500000000E-02 0.  1.
<mgrwt>
<rscale>  0 0.43812040E+02</rscale>
<asrwt>0</asrwt>
<pdfrwt beam="2">  1        1 0.84661039E-01 0.43812040E+02</pdfrwt>
<pdfrwt beam="1">  1       -1 0.13415802E-03 0.43812040E+02</pdfrwt>
<totfact> 0.91033995E+05</totfact>
</mgrwt>
</event>
<event>
 4    1  0.3946801E-002  0.6462906E+02  0.7818608E-02  0.1379372E+00
          1   -1    0    0    0  501  0.00000000000E+00  0.00000000000E+00  0.88937564901E+02  0.88937565043E+02  0.50400000000E-02 0. -1.
         -1   -1    0    0  501    0 -0.00000000000E+00 -0.00000000000E+00 -0.11741142986E+02  0.11741144068E+02  0.50400000000E-02 0. -1.
          2    1    1    2    0  502 -0.21736795670E+02  0.28905067338E+01  0.16228331022E+01  0.21988108354E+02  0.25500000000E-02 0.  1.
         -2    1    1    2  502    0  0.21736795670E+02 -0.28905067338E+01  0.75573588812E+02  0.78690600758E+02  0.25500000000E-02 0.  1.
<mgrwt>
<rscale>  0 0.64629056E+02</rscale>
<asrwt>0</asrwt>
<pdfrwt beam="1">  1        1 0.13682703E-01 0.64629056E+02</pdfrwt>
<pdfrwt beam="2">  1       -1 0.18063298E-02 0.64629056E+02</pdfrwt>
<totfact> 0.25707699E+05</totfact>
</mgrwt>
</event>
<event>
 4    1  0.3946801E-002  0.1149288E+03  0.7818608E-02  0.1251705E+00
          1   -1    0    0    0  501  0.00000000000E+00  0.00000000000E+00  0.15633998565E+03  0.15633998573E+03  0.50400000000E-02 0. -1.
         -1   -1    0    0  501    0 -0.00000000000E+00 -0.00000000000E+00 -0.21121650748E+02  0.21121651349E+02  0.50400000000E-02 0. -1.
          2    1    1    2    0  502 -0.20866146439E+02  0.36980635220E+02  0.78224636698E+01  0.43175854280E+02  0.25500000000E-02 0. -1.
         -2    1    1    2  502    0  0.20866146439E+02 -0.36980635220E+02  0.12739587123E+03  0.13428578280E+03  0.25500000000E-02 0. -1.
<mgrwt>
<rscale>  0 0.11492882E+03</rscale>
<asrwt>0</asrwt>
<pdfrwt beam="1">  1        1 0.24052306E-01 0.11492882E+03</pdfrwt>
<pdfrwt beam="2">  1       -1 0.32494848E-02 0.11492882E+03</pdfrwt>
<totfact> 0.60000580E+04</totfact>
</mgrwt>
</event>
<event>
 4    1  0.3946801E-002  0.6557023E+02  0.7818608E-02  0.1375839E+00
         -1   -1    0    0  501    0 -0.00000000000E+00  0.00000000000E+00  0.49613466081E+02  0.49613466337E+02  0.50400000000E-02 0.  1.
          1   -1    0    0    0  501  0.00000000000E+00 -0.00000000000E+00 -0.21664754941E+02  0.21664755527E+02  0.50400000000E-02 0.  1.
          2    1    1    2    0  502  0.29986057882E+02  0.36243938415E+01  0.27834315716E+02  0.41073702486E+02  0.25500000000E-02 0.  1.
         -2    1    1    2  502    0 -0.29986057882E+02 -0.36243938415E+01  0.11439542373E+00  0.30204519378E+02  0.25500000000E-02 0.  1.
<mgrwt>
<rscale>  0 0.65570225E+02</rscale>
<asrwt>0</asrwt>
<pdfrwt beam="2">  1        1 0.33330393E-02 0.65570225E+02</pdfrwt>
<pdfrwt beam="1">  1       -1 0.76328410E-02 0.65570225E+02</pdfrwt>
<totfact> 0.20885665E+05</totfact>
</mgrwt>
</event>
<event>
 4    1  0.3946801E-002  0.4649580E+02  0.7818608E-02  0.1465214E+00
          1   -1    0    0    0  501  0.00000000000E+00  0.00000000000E+00  0.13569462521E+03  0.13569462530E+03  0.50400000000E-02 0. -1.
         -1   -1    0    0  501    0 -0.00000000000E+00 -0.00000000000E+00 -0.39829481611E+01  0.39829513498E+01  0.50400000000E-02 0. -1.
          2    1    1    2    0  502 -0.11841228696E+02 -0.19407413915E+02  0.51261256219E+02  0.56076544183E+02  0.25500000000E-02 0.  1.
         -2    1    1    2  502    0  0.11841228696E+02  0.19407413915E+02  0.80450420829E+02  0.83601032470E+02  0.25500000000E-02 0.  1.
<mgrwt>
<rscale>  0 0.46495801E+02</rscale>
<asrwt>0</asrwt>
<pdfrwt beam="1">  1        1 0.20876093E-01 0.46495801E+02</pdfrwt>
<pdfrwt beam="2">  1       -1 0.61276161E-03 0.46495801E+02</pdfrwt>
<totfact> 0.63272603E+05</totfact>
</mgrwt>
</event>
<event>
 4    1  0.3946801E-002  0.7018066E+02  0.7818608E-02  0.1359480E+00
         -1   -1    0    0  501    0 -0.00000000000E+00  0.00000000000E+00  0.87362679589E+00  0.87364133378E+00  0.50400000000E-02 0. -1.
          1   -1    0    0    0  501  0.00000000000E+00 -0.00000000000E+00 -0.14094359418E+04  0.14094359418E+04  0.50400000000E-02 0. -1.
          2    1    1    2    0  502 -0.29886179396E+02 -0.50888200693E+00 -0.33489232355E+03  0.33622360276E+03  0.25500000000E-02 0. -1.
         -2    1    1    2  502    0  0.29886179396E+02  0.50888200693E+00 -0.10736699915E+04  0.10740859804E+04  0.25500000000E-02 0. -1.
<mgrwt>
<rscale>  0 0.70180660E+02</rscale>
<asrwt>0</asrwt>
<pdfrwt beam="2">  1        1 0.21683448E+00 0.70180660E+02</pdfrwt>
<pdfrwt beam="1">  1       -1 0.13440637E-03 0.70180660E+02</pdfrwt>
<totfact> 0.22967594E+05</totfact>
</mgrwt>
</event>
<event>
 4    1  0.3946801E-002  0.1430122E+03  0.7818608E-02  0.1209332E+00
         -1   -1    0    0  501    0 -0.00000000000E+00  0.00000000000E+00  0.26336691902E+02  0.26336692385E+02  0.50400000000E-02 0.  1.
          1   -1    0    0    0  501  0.00000000000E+00 -0.00000000000E+00 -0.19414451995E+03  0.19414452001E+03  0.50400000000E-02 0.  1.
          2    1    1    2    0  502 -0.41720433012E+02  0.57038711381E+02 -0.10072996676E+03  0.12304688268E+03  0.25500000000E-02 0. -1.
         -2    1    1    2  502    0  0.41720433012E+02 -0.57038711381E+02 -0.67077861287E+02  0.97434329721E+02  0.25500000000E-02 0. -1.
<mgrwt>
<rscale>  0 0.14301223E+03</rscale>
<asrwt>0</asrwt>
<pdfrwt beam="2">  1        1 0.29868387E-01 0.14301223E+03</pdfrwt>
<pdfrwt beam="1">  1       -1 0.40517989E-02 0.14301223E+03</pdfrwt>
<totfact> 0.34044474E+04</totfact>
</mgrwt>
</event>
<event>
 4    1  0.3946801E-002  0.8192937E+02  0.7818608E-02  0.1323664E+00
          1   -1    0    0    0  501  0.00000000000E+00  0.00000000000E+00  0.10952879568E+04  0.10952879568E+04  0.50400000000E-02 0.  1.
         -1   -1    0    0  501    0 -0.00000000000E+00 -0.00000000000E+00 -0.15321093490E+01  0.15321176387E+01  0.50400000000E-02 0.  1.
          2    1    1    2    0  502 -0.47258262692E+01 -0.22146003390E+02  0.10038814925E+04  0.10041368581E+04  0.25500000000E-02 0.  1.
         -2    1    1    2  502    0  0.47258262692E+01  0.22146003390E+02  0.89874354995E+02  0.92683216346E+02  0.25500000000E-02 0.  1.
<mgrwt>
<rscale>  0 0.81929371E+02</rscale>
<asrwt>0</asrwt>
<pdfrwt beam="1">  1        1 0.16850517E+00 0.81929371E+02</pdfrwt>
<pdfrwt beam="2">  1       -1 0.23571071E-03 0.81929371E+02</pdfrwt>
<totfact> 0.17515805E+05</totfact>
</mgrwt>
</event>
<event>
 4    1  0.3946801E-002  0.8772296E+02  0.7818608E-02  0.1308461E+00
         -1   -1    0    0  501    0 -0.00000000000E+00  0.00000000000E+00  0.52664801326E+01  0.52664825442E+01  0.50400000000E-02 0.  1.
          1   -1    0    0    0  501  0.00000000000E+00 -0.00000000000E+00 -0.36529692429E+03  0.36529692432E+03  0.50400000000E-02 0.  1.
          2    1    1    2    0  502  0.13538329797E+02  0.28701002538E+02 -0.30791962426E+03  0.30955052727E+03  0.25500000000E-02 0.  1.
         -2    1    1    2  502    0 -0.13538329797E+02 -0.28701002538E+02 -0.52110819895E+02  0.61012879599E+02  0.25500000000E-02 0.  1.
<mgrwt>
<rscale>  0 0.87722960E+02</rscale>
<asrwt>0</asrwt>
<pdfrwt beam="2">  1        1 0.56199507E-01 0.87722960E+02</pdfrwt>
<pdfrwt beam="1">  1       -1 0.81022819E-03 0.87722960E+02</pdfrwt>
<totfact> 0.14715226E+05</totfact>
</mgrwt>
</event>
<event>
 4    1  0.3946801E-002  0.4772577E+02  0.7818608E-02  0.1458009E+00
          1   -1    0    0    0  501  0.00000000000E+00  0.00000000000E+00  0.52678973494E+03  0.52678973496E+03  0.50400000000E-02 0. -1.
         -1   -1    0    0  501    0 -0.00000000000E+00 -0.00000000000E+00 -0.10809513173E+01  0.10809630669E+01  0.50400000000E-02 0. -1.
          2    1    1    2    0  502 -0.23189239081E+02 -0.53711619796E+01  0.28151672787E+03  0.28252125277E+03  0.25500000000E-02 0. -1.
         -2    1    1    2  502    0  0.23189239081E+02  0.53711619796E+01  0.24419205575E+03  0.24534944526E+03  0.25500000000E-02 0. -1.
<mgrwt>
<rscale>  0 0.47725765E+02</rscale>
<asrwt>0</asrwt>
<pdfrwt beam="1">  1        1 0.81044458E-01 0.47725765E+02</pdfrwt>
<pdfrwt beam="2">  1       -1 0.16630135E-03 0.47725765E+02</pdfrwt>
<totfact> 0.73506437E+05</totfact>
</mgrwt>
</event>
<event>
 4    1  0.3946801E-002  0.8200638E+02  0.7818608E-02  0.1323452E+00
          1   -1    0    0    0  501  0.00000000000E+00  0.00000000000E+00  0.52566517961E+02  0.52566518202E+02  0.50400000000E-02 0. -1.
         -1   -1    0    0  501    0 -0.00000000000E+00 -0.00000000000E+00 -0.31983503700E+02  0.31983504098E+02  0.50400000000E-02 0. -1.
          2    1    1    2    0  502  0.14369564540E+02  0.34445238668E+02 -0.72146319960E+01  0.38013284169E+02  0.25500000000E-02 0.  1.
         -2    1    1    2  502    0 -0.14369564540E+02 -0.34445238668E+02  0.27797646256E+02  0.46536738131E+02  0.25500000000E-02 0.  1.
<mgrwt>
<rscale>  0 0.82006377E+02</rscale>
<asrwt>0</asrwt>
<pdfrwt beam="1">  1        1 0.80871566E-02 0.82006377E+02</pdfrwt>
<pdfrwt beam="2">  1       -1 0.49205391E-02 0.82006377E+02</pdfrwt>
<totfact> 0.12663613E+05</totfact>
</mgrwt>
</event>
<event>
 4    1  0.3946801E-002  0.4531874E+02  0.7818608E-02  0.1472362E+00
         -1   -1    0    0  501    0 -0.00000000000E+00  0.00000000000E+00  0.33928817028E+00  0.33932560188E+00  0.50400000000E-02 0.  1.
          1   -1    0    0    0  501  0.00000000000E+00 -0.00000000000E+00 -0.15132232980E+04  0.15132232980E+04  0.50400000000E-02 0.  1.
          2    1    1    2    0  502  0.19650810614E+02  0.11080233401E+02 -0.82745658948E+03  0.82776405660E+03  0.25500000000E-02 0.  1.
         -2    1    1    2  502    0 -0.19650810614E+02 -0.11080233401E+02 -0.68542742034E+03  0.68579856699E+03  0.25500000000E-02 0.  1.
<mgrwt>
<rscale>  0 0.45318742E+02</rscale>
<asrwt>0</asrwt>
<pdfrwt beam="2">  1        1 0.23279818E+00 0.45318742E+02</pdfrwt>
<pdfrwt beam="1">  1       -1 0.52202272E-04 0.45318742E+02</pdfrwt>
<totfact> 0.65629295E+05</totfact>
</mgrwt>
</event>
<event>
 4    1  0.3946801E-002  0.1279451E+03  0.7818608E-02  0.1230537E+00
         -1   -1    0    0  501    0 -0.00000000000E+00  0.00000000000E+00  0.20183612033E+02  0.20183612662E+02  0.50400000000E-02 0.  1.
          1   -1    0    0    0  501  0.00000000000E+00 -0.00000000000E+00 -0.20276287242E+03  0.20276287248E+03  0.50400000000E-02 0.  1.
          2    1    1    2    0  502  0.50511605554E+02 -0.33696243541E+00 -0.22887215008E+02  0.55455932565E+02  0.25500000000E-02 0. -1.
         -2    1    1    2  502    0 -0.50511605554E+02  0.33696243541E+00 -0.15969204538E+03  0.16749055258E+03  0.25500000000E-02 0. -1.
<mgrwt>
<rscale>  0 0.12794510E+03</rscale>
<asrwt>0</asrwt>
<pdfrwt beam="2">  1        1 0.31194287E-01 0.12794510E+03</pdfrwt>
<pdfrwt beam="1">  1       -1 0.31051713E-02 0.12794510E+03</pdfrwt>
<totfact> 0.47005311E+04</totfact>
</mgrwt>
</event>
<event>
 4    1  0.3946801E-002  0.4625740E+02  0.7818608E-02  0.1466641E+00
          1   -1    0    0    0  501  0.00000000000E+00  0.00000000000E+00  0.40772171606E+01  0.40772202756E+01  0.50400000000E-02 0.  1.
         -1   -1    0    0  501    0 -0.00000000000E+00 -0.00000000000E+00 -0.13120139750E+03  0.13120139759E+03  0.50400000000E-02 0.  1.
          2    1    1    2    0  502 -0.38817155228E+01  0.22618667431E+02 -0.55154558351E+02  0.59738573344E+02  0.25500000000E-02 0.  1.
         -2    1    1    2  502    0  0.38817155228E+01 -0.22618667431E+02 -0.71969621984E+02  0.75540044524E+02  0.25500000000E-02 0.  1.
<mgrwt>
<rscale>  0 0.46257402E+02</rscale>
<asrwt>0</asrwt>
<pdfrwt beam="1">  1        1 0.62726453E-03 0.46257402E+02</pdfrwt>
<pdfrwt beam="2">  1       -1 0.20184827E-01 0.46257402E+02</pdfrwt>
<totfact> 0.42909302E+05</totfact>
</mgrwt>
</event>
<event>
 4    1  0.3946801E-002  0.5566867E+02  0.7818608E-02  0.1416963E+00
         -1   -1    0    0  501    0 -0.00000000000E+00  0.00000000000E+00  0.15319196626E+01  0.15319279533E+01  0.50400000000E-02 0. -1.
          1   -1    0    0    0  501  0.00000000000E+00 -0.00000000000E+00 -0.50573673176E+03  0.50573673179E+03  0.50400000000E-02 0. -1.
          2    1    1    2    0  502  0.26141515009E+02 -0.93583414050E+01 -0.23435616677E+03  0.23599527595E+03  0.25500000000E-02 0.  1.
         -2    1    1    2  502    0 -0.26141515009E+02  0.93583414050E+01 -0.26984864533E+03  0.27127338379E+03  0.25500000000E-02 0.  1.
<mgrwt>
<rscale>  0 0.55668668E+02</rscale>
<asrwt>0</asrwt>
<pdfrwt beam="2">  1        1 0.77805518E-01 0.55668668E+02</pdfrwt>
<pdfrwt beam="1">  1       -1 0.23568099E-03 0.55668668E+02</pdfrwt>
<totfact> 0.49883113E+05</totfact>
</mgrwt>
</event>
<event>
 4    1  0.3946801E-002  0.5979309E+02  0.7818608E-02  0.1398702E+00
          1   -1    0    0    0  501  0.00000000000E+00  0.00000000000E+00  0.68826740378E+01  0.68826758831E+01  0.50400000000E-02 0. -1.
         -1   -1    0    0  501    0 -0.00000000000E+00 -0.00000000000E+00 -0.12986280178E+03  0.12986280188E+03  0.50400000000E-02 0. -1.
          2    1    1    2    0  502  0.23079853547E+02  0.63915356592E+01 -0.10241815677E+03  0.10518084527E+03  0.25500000000E-02 0. -1.
         -2    1    1    2  502    0 -0.23079853547E+02 -0.63915356592E+01 -0.20561970971E+02  0.31564632496E+02  0.25500000000E-02 0. -1.
<mgrwt>
<rscale>  0 0.59793092E+02</rscale>
<asrwt>0</asrwt>
<pdfrwt beam="1">  1        1 0.10588732E-02 0.59793092E+02</pdfrwt>
<pdfrwt beam="2">  1       -1 0.19978891E-01 0.59793092E+02</pdfrwt>
<totfact> 0.22707854E+05</totfact>
</mgrwt>
</event>
<event>
 4    1  0.3946801E-002  0.4184455E+02  0.7818608E-02  0.1495060E+00
          1   -1    0    0    0  501  0.00000000000E+00  0.00000000000E+00  0.45081073241E+02  0.45081073523E+02  0.50400000000E-02 0.  1.
         -1   -1    0    0  501    0 -0.00000000000E+00 -0.00000000000E+00 -0.97100952761E+01  0.97100965841E+01  0.50400000000E-02 0.  1.
          2    1    1    2    0  502 -0.10952738373E+02 -0.17457547812E+02  0.12962009088E+02  0.24346296218E+02  0.25500000000E-02 0. -1.
         -2    1    1    2  502    0  0.10952738373E+02  0.17457547812E+02  0.22408968877E+02  0.30444873889E+02  0.25500000000E-02 0. -1.
<mgrwt>
<rscale>  0 0.41844549E+02</rscale>
<asrwt>0</asrwt>
<pdfrwt beam="1">  1        1 0.69355498E-02 0.41844549E+02</pdfrwt>
<pdfrwt beam="2">  1       -1 0.14938609E-02 0.41844549E+02</pdfrwt>
<totfact> 0.72392060E+05</totfact>
</mgrwt>
</event>
<event>
 4    1  0.3946801E-002  0.4356616E+02  0.7818608E-02  0.1483497E+00
          1   -1    0    0    0  501  0.00000000000E+00  0.00000000000E+00  0.17884604294E+04  0.17884604294E+04  0.50400000000E-02 0.  1.
         -1   -1    0    0  501    0 -0.00000000000E+00 -0.00000000000E+00 -0.26528951888E+00  0.26533738980E+00  0.50400000000E-02 0.  1.
          2    1    1    2    0  502 -0.16997132461E+02 -0.13614749189E+02  0.91415765386E+03  0.91441701648E+03  0.25500000000E-02 0.  1.
         -2    1    1    2  502    0  0.16997132461E+02  0.13614749189E+02  0.87403748597E+03  0.87430875027E+03  0.25500000000E-02 0.  1.
<mgrwt>
<rscale>  0 0.43566162E+02</rscale>
<asrwt>0</asrwt>
<pdfrwt beam="1">  1        1 0.27515081E+00 0.43566162E+02</pdfrwt>
<pdfrwt beam="2">  1       -1 0.40817002E-04 0.43566162E+02</pdfrwt>
<totfact> 0.61413774E+05</totfact>
</mgrwt>
</event>
<event>
 4    1  0.3946801E-002  0.6730233E+02  0.7818608E-02  0.1369515E+00
          1   -1    0    0    0  501  0.00000000000E+00  0.00000000000E+00  0.46790489430E+03  0.46790489432E+03  0.50400000000E-02 0. -1.
         -1   -1    0    0  501    0 -0.00000000000E+00 -0.00000000000E+00 -0.24201489377E+01  0.24201541857E+01  0.50400000000E-02 0. -1.
          2    1    1    2    0  502 -0.30386673242E+02 -0.28918635082E+01  0.33174089613E+03  0.33314221431E+03  0.25500000000E-02 0.  1.
         -2    1    1    2  502    0  0.30386673242E+02  0.28918635082E+01  0.13374384923E+03  0.13718283420E+03  0.25500000000E-02 0.  1.
<mgrwt>
<rscale>  0 0.67302326E+02</rscale>
<asrwt>0</asrwt>
<pdfrwt beam="1">  1        1 0.71985403E-01 0.67302326E+02</pdfrwt>
<pdfrwt beam="2">  1       -1 0.37233083E-03 0.67302326E+02</pdfrwt>
<totfact> 0.30509020E+05</totfact>
</mgrwt>
</event>
<event>
 4    1  0.3946801E-002  0.6977132E+02  0.7818608E-02  0.1360872E+00
         -1   -1    0    0  501    0 -0.00000000000E+00  0.00000000000E+00  0.20451596383E+03  0.20451596390E+03  0.50400000000E-02 0. -1.
          1   -1    0    0    0  501  0.00000000000E+00 -0.00000000000E+00 -0.59506792944E+01  0.59506814288E+01  0.50400000000E-02 0. -1.
          2    1    1    2    0  502 -0.30022865368E+02 -0.12198875497E+02  0.13824415352E+03  0.14199165820E+03  0.25500000000E-02 0. -1.
         -2    1    1    2  502    0  0.30022865368E+02  0.12198875497E+02  0.60321131017E+02  0.68474987126E+02  0.25500000000E-02 0. -1.
<mgrwt>
<rscale>  0 0.69771316E+02</rscale>
<asrwt>0</asrwt>
<pdfrwt beam="2">  1        1 0.91548945E-03 0.69771316E+02</pdfrwt>
<pdfrwt beam="1">  1       -1 0.31463989E-01 0.69771316E+02</pdfrwt>
<totfact> 0.13763892E+05</totfact>
</mgrwt>
</event>
<event>
 4    1  0.3946801E-002  0.5194381E+02  0.7818608E-02  0.1435131E+00
         -1   -1    0    0  501    0 -0.00000000000E+00  0.00000000000E+00  0.17272295093E+01  0.17272368625E+01  0.50400000000E-02 0. -1.
          1   -1    0    0    0  501  0.00000000000E+00 -0.00000000000E+00 -0.39053199009E+03  0.39053199012E+03  0.50400000000E-02 0. -1.
          2    1    1    2    0  502  0.56696105893E+01 -0.24974819020E+02 -0.16178699945E+03  0.16380146296E+03  0.25500000000E-02 0.  1.
         -2    1    1    2  502    0 -0.56696105893E+01  0.24974819020E+02 -0.22701776113E+03  0.22845776402E+03  0.25500000000E-02 0.  1.
<mgrwt>
<rscale>  0 0.51943809E+02</rscale>
<asrwt>0</asrwt>
<pdfrwt beam="2">  1        1 0.60081775E-01 0.51943809E+02</pdfrwt>
<pdfrwt beam="1">  1       -1 0.26572850E-03 0.51943809E+02</pdfrwt>
<totfact> 0.57329905E+05</totfact>
</mgrwt>
</event>
<event>
 4    1  0.3946801E-002  0.4506046E+02  0.7818608E-02  0.1473965E+00
          1   -1    0    0    0  501  0.00000000000E+00  0.00000000000E+00  0.25192248797E+01  0.25192299212E+01  0.50400000000E-02 0.  1.
         -1   -1    0    0  501    0 -0.00000000000E+00 -0.00000000000E+00 -0.20149485527E+03  0.20149485534E+03  0.50400000000E-02 0.  1.
          2    1    1    2    0  502 -0.15615947280E+02  0.15496333525E+02 -0.12149065467E+03  0.12346648671E+03  0.25500000000E-02 0.  1.
         -2    1    1    2  502    0  0.15615947280E+02 -0.15496333525E+02 -0.77484975725E+02  0.80547598547E+02  0.25500000000E-02 0.  1.
<mgrwt>
<rscale>  0 0.45060465E+02</rscale>
<asrwt>0</asrwt>
<pdfrwt beam="1">  1        1 0.38757361E-03 0.45060465E+02</pdfrwt>
<pdfrwt beam="2">  1       -1 0.30999196E-01 0.45060465E+02</pdfrwt>
<totfact> 0.41337789E+05</totfact>
</mgrwt>
</event>
<event>
 4    1  0.3946801E-002  0.5812131E+02  0.7818608E-02  0.1405889E+00
          1   -1    0    0    0  501  0.00000000000E+00  0.00000000000E+00  0.26832921532E+03  0.26832921537E+03  0.50400000000E-02 0. -1.
         -1   -1    0    0  501    0 -0.00000000000E+00 -0.00000000000E+00 -0.31473319914E+01  0.31473360268E+01  0.50400000000E-02 0. -1.
          2    1    1    2    0  502 -0.49805398539E+01 -0.25135195383E+02  0.68557911959E+02  0.73189965998E+02  0.25500000000E-02 0. -1.
         -2    1    1    2  502    0  0.49805398539E+01  0.25135195383E+02  0.19662397137E+03  0.19828658540E+03  0.25500000000E-02 0. -1.
<mgrwt>
<rscale>  0 0.58121310E+02</rscale>
<asrwt>0</asrwt>
<pdfrwt beam="1">  1        1 0.41281433E-01 0.58121310E+02</pdfrwt>
<pdfrwt beam="2">  1       -1 0.48420506E-03 0.58121310E+02</pdfrwt>
<totfact> 0.40510806E+05</totfact>
</mgrwt>
</event>
<event>
 4    1  0.3946801E-002  0.9067985E+02  0.7818608E-02  0.1301214E+00
         -1   -1    0    0  501    0 -0.00000000000E+00  0.00000000000E+00  0.24932797813E+01  0.24932848753E+01  0.50400000000E-02 0.  1.
          1   -1    0    0    0  501  0.00000000000E+00 -0.00000000000E+00 -0.82449895208E+03  0.82449895210E+03  0.50400000000E-02 0.  1.
          2    1    1    2    0  502 -0.18822722070E+02  0.28320908127E+02 -0.13750581525E+03  0.14164821897E+03  0.25500000000E-02 0.  1.
         -2    1    1    2  502    0  0.18822722070E+02 -0.28320908127E+02 -0.68449985705E+03  0.68534401801E+03  0.25500000000E-02 0.  1.
<mgrwt>
<rscale>  0 0.90679847E+02</rscale>
<asrwt>0</asrwt>
<pdfrwt beam="2">  1        1 0.12684578E+00 0.90679847E+02</pdfrwt>
<pdfrwt beam="1">  1       -1 0.38358256E-03 0.90679847E+02</pdfrwt>
<totfact> 0.14293458E+05</totfact>
</mgrwt>
</event>
<event>
 4    1  0.3946801E-002  0.8731195E+02  0.7818608E-02  0.1309495E+00
          1   -1    0    0    0  501  0.00000000000E+00  0.00000000000E+00  0.54649040880E+03  0.54649040882E+03  0.50400000000E-02 0. -1.
         -1   -1    0    0  501    0 -0.00000000000E+00 -0.00000000000E+00 -0.34874231795E+01  0.34874268214E+01  0.50400000000E-02 0. -1.
          2    1    1    2    0  502  0.42717880901E+02 -0.46418375362E+01  0.32008156030E+03  0.32295289015E+03  0.25500000000E-02 0. -1.
         -2    1    1    2  502    0 -0.42717880901E+02  0.46418375362E+01  0.22292142532E+03  0.22702494550E+03  0.25500000000E-02 0. -1.
<mgrwt>
<rscale>  0 0.87311954E+02</rscale>
<asrwt>0</asrwt>
<pdfrwt beam="1">  1        1 0.84075446E-01 0.87311954E+02</pdfrwt>
<pdfrwt beam="2">  1       -1 0.53652693E-03 0.87311954E+02</pdfrwt>
<totfact> 0.15762131E+05</totfact>
</mgrwt>
</event>
<event>
 4    1  0.3946801E-002  0.9207580E+02  0.7818608E-02  0.1297901E+00
          1   -1    0    0    0  501  0.00000000000E+00  0.00000000000E+00  0.11436630535E+03  0.11436630546E+03  0.50400000000E-02 0. -1.
         -1   -1    0    0  501    0 -0.00000000000E+00 -0.00000000000E+00 -0.18532452230E+02  0.18532452916E+02  0.50400000000E-02 0. -1.
          2    1    1    2    0  502 -0.44860568992E+02 -0.80271486130E+01  0.38498239740E+02  0.59657524544E+02  0.25500000000E-02 0. -1.
         -2    1    1    2  502    0  0.44860568992E+02  0.80271486130E+01  0.57335613379E+02  0.73241233832E+02  0.25500000000E-02 0. -1.
<mgrwt>
<rscale>  0 0.92075798E+02</rscale>
<asrwt>0</asrwt>
<pdfrwt beam="1">  1        1 0.17594816E-01 0.92075798E+02</pdfrwt>
<pdfrwt beam="2">  1       -1 0.28511466E-02 0.92075798E+02</pdfrwt>
<totfact> 0.10403449E+05</totfact>
</mgrwt>
</event>
<event>
 4    1  0.3946801E-002  0.4565390E+02  0.7818608E-02  0.1470300E+00
         -1   -1    0    0  501    0 -0.00000000000E+00  0.00000000000E+00  0.13063771266E+03  0.13063771276E+03  0.50400000000E-02 0.  1.
          1   -1    0    0    0  501  0.00000000000E+00 -0.00000000000E+00 -0.39886595775E+01  0.39886627617E+01  0.50400000000E-02 0.  1.
          2    1    1    2    0  502 -0.15959476465E+02 -0.16273055410E+02  0.66998601906E+02  0.70769554791E+02  0.25500000000E-02 0.  1.
         -2    1    1    2  502    0  0.15959476465E+02  0.16273055410E+02  0.59650451174E+02  0.63856820726E+02  0.25500000000E-02 0.  1.
<mgrwt>
<rscale>  0 0.45653897E+02</rscale>
<asrwt>0</asrwt>
<pdfrwt beam="2">  1        1 0.61364027E-03 0.45653897E+02</pdfrwt>
<pdfrwt beam="1">  1       -1 0.20098107E-01 0.45653897E+02</pdfrwt>
<totfact> 0.44353745E+05</totfact>
</mgrwt>
</event>
<event>
 4    1  0.3946801E-002  0.5452133E+02  0.7818608E-02  0.1422376E+00
         -1   -1    0    0  501    0 -0.00000000000E+00  0.00000000000E+00  0.85277715434E+02  0.85277715583E+02  0.50400000000E-02 0. -1.
          1   -1    0    0    0  501  0.00000000000E+00 -0.00000000000E+00 -0.87143959740E+01  0.87143974314E+01  0.50400000000E-02 0. -1.
          2    1    1    2    0  502  0.11351299916E+02 -0.22495762751E+02  0.20346559351E+02  0.32386630505E+02  0.25500000000E-02 0. -1.
         -2    1    1    2  502    0 -0.11351299916E+02  0.22495762751E+02  0.56216760109E+02  0.61605482510E+02  0.25500000000E-02 0. -1.
<mgrwt>
<rscale>  0 0.54521330E+02</rscale>
<asrwt>0</asrwt>
<pdfrwt beam="2">  1        1 0.13406764E-02 0.54521330E+02</pdfrwt>
<pdfrwt beam="1">  1       -1 0.13119649E-01 0.54521330E+02</pdfrwt>
<totfact> 0.30791576E+05</totfact>
</mgrwt>
</event>
<event>
 4    1  0.3946801E-002  0.4311367E+02  0.7818608E-02  0.1486473E+00
          1   -1    0    0    0  501  0.00000000000E+00  0.00000000000E+00  0.42052530558E+02  0.42052530860E+02  0.50400000000E-02 0. -1.
         -1   -1    0    0  501    0 -0.00000000000E+00 -0.00000000000E+00 -0.11050394432E+02  0.11050395581E+02  0.50400000000E-02 0. -1.
          2    1    1    2    0  502  0.13105756934E+02  0.15540551681E+02  0.24333922318E+02  0.31708191265E+02  0.25500000000E-02 0.  1.
         -2    1    1    2  502    0 -0.13105756934E+02 -0.15540551681E+02  0.66682138083E+01  0.21394735177E+02  0.25500000000E-02 0.  1.
<mgrwt>
<rscale>  0 0.43113668E+02</rscale>
<asrwt>0</asrwt>
<pdfrwt beam="1">  1        1 0.64696200E-02 0.43113668E+02</pdfrwt>
<pdfrwt beam="2">  1       -1 0.17000608E-02 0.43113668E+02</pdfrwt>
<totfact> 0.66777740E+05</totfact>
</mgrwt>
</event>
<event>
 4    1  0.3946801E-002  0.6513043E+02  0.7818608E-02  0.1377482E+00
          1   -1    0    0    0  501  0.00000000000E+00  0.00000000000E+00  0.34899281136E+03  0.34899281140E+03  0.50400000000E-02 0.  1.
         -1   -1    0    0  501    0 -0.00000000000E+00 -0.00000000000E+00 -0.30387229743E+01  0.30387271539E+01  0.50400000000E-02 0.  1.
          2    1    1    2    0  502 -0.23183702787E+02 -0.58895350930E+00  0.49408421745E+02  0.54580427692E+02  0.25500000000E-02 0.  1.
         -2    1    1    2  502    0  0.23183702787E+02  0.58895350930E+00  0.29654566664E+03  0.29745111086E+03  0.25500000000E-02 0.  1.
<mgrwt>
<rscale>  0 0.65130430E+02</rscale>
<asrwt>0</asrwt>
<pdfrwt beam="1">  1        1 0.53691187E-01 0.65130430E+02</pdfrwt>
<pdfrwt beam="2">  1       -1 0.46749630E-03 0.65130430E+02</pdfrwt>
<totfact> 0.31735882E+05</totfact>
</mgrwt>
</event>
<event>
 4    1  0.3946801E-002  0.1388067E+03  0.7818608E-02  0.1214944E+00
          1   -1    0    0    0  501  0.00000000000E+00  0.00000000000E+00  0.16584865749E+04  0.16584865749E+04  0.50400000000E-02 0. -1.
         -1   -1    0    0  501    0 -0.00000000000E+00 -0.00000000000E+00 -0.29043469936E+01  0.29043513666E+01  0.50400000000E-02 0. -1.
          2    1    1    2    0  502 -0.32154522191E+02  0.31570342486E+02  0.14595763631E+04  0.14602718101E+04  0.25500000000E-02 0.  1.
         -2    1    1    2  502    0  0.32154522191E+02 -0.31570342486E+02  0.19600586486E+03  0.20111911617E+03  0.25500000000E-02 0.  1.
<mgrwt>
<rscale>  0 0.13880669E+03</rscale>
<asrwt>0</asrwt>
<pdfrwt beam="1">  1        1 0.25515123E+00 0.13880669E+03</pdfrwt>
<pdfrwt beam="2">  1       -1 0.44682392E-03 0.13880669E+03</pdfrwt>
<totfact> 0.32383442E+04</totfact>
</mgrwt>
</event>
<event>
 4    1  0.3946801E-002  0.4190943E+02  0.7818608E-02  0.1494612E+00
         -1   -1    0    0  501    0 -0.00000000000E+00  0.00000000000E+00  0.24195970982E+01  0.24196023473E+01  0.50400000000E-02 0.  1.
          1   -1    0    0    0  501  0.00000000000E+00 -0.00000000000E+00 -0.18147634651E+03  0.18147634658E+03  0.50400000000E-02 0.  1.
          2    1    1    2    0  502 -0.15988052967E+02  0.13449319549E+02 -0.82455638241E+02  0.85061356198E+02  0.25500000000E-02 0. -1.
         -2    1    1    2  502    0  0.15988052967E+02 -0.13449319549E+02 -0.96601111170E+02  0.98834592729E+02  0.25500000000E-02 0. -1.
<mgrwt>
<rscale>  0 0.41909432E+02</rscale>
<asrwt>0</asrwt>
<pdfrwt beam="2">  1        1 0.27919428E-01 0.41909432E+02</pdfrwt>
<pdfrwt beam="1">  1       -1 0.37224626E-03 0.41909432E+02</pdfrwt>
<totfact> 0.85632036E+05</totfact>
</mgrwt>
</event>
<event>
 4    1  0.3946801E-002  0.4202750E+02  0.7818608E-02  0.1493800E+00
          1   -1    0    0    0  501  0.00000000000E+00  0.00000000000E+00  0.67035180715E+01  0.67035199662E+01  0.50400000000E-02 0. -1.
         -1   -1    0    0  501    0 -0.00000000000E+00 -0.00000000000E+00 -0.65872521775E+02  0.65872521968E+02  0.50400000000E-02 0. -1.
          2    1    1    2    0  502  0.18185888214E+02  0.10483333226E+02 -0.31268447175E+02  0.37660889539E+02  0.25500000000E-02 0.  1.
         -2    1    1    2  502    0 -0.18185888214E+02 -0.10483333226E+02 -0.27900556528E+02  0.34915152395E+02  0.25500000000E-02 0.  1.
<mgrwt>
<rscale>  0 0.42027501E+02</rscale>
<asrwt>0</asrwt>
<pdfrwt beam="1">  1        1 0.10313107E-02 0.42027501E+02</pdfrwt>
<pdfrwt beam="2">  1       -1 0.10134234E-01 0.42027501E+02</pdfrwt>
<totfact> 0.60493357E+05</totfact>
</mgrwt>
</event>
<event>
 4    1  0.3946801E-002  0.6119988E+02  0.7818608E-02  0.1392864E+00
          1   -1    0    0    0  501  0.00000000000E+00  0.00000000000E+00  0.38474976377E+00  0.38478277290E+00  0.50400000000E-02 0.  1.
         -1   -1    0    0  501    0 -0.00000000000E+00 -0.00000000000E+00 -0.24335714574E+04  0.24335714574E+04  0.50400000000E-02 0.  1.
          2    1    1    2    0  502 -0.26665653158E+02  0.12210164283E+02 -0.86940018091E+03  0.86989471762E+03  0.25500000000E-02 0.  1.
         -2    1    1    2  502    0  0.26665653158E+02 -0.12210164283E+02 -0.15637865267E+04  0.15640615225E+04  0.25500000000E-02 0.  1.
<mgrwt>
<rscale>  0 0.61199877E+02</rscale>
<asrwt>0</asrwt>
<pdfrwt beam="1">  1        1 0.59196760E-04 0.61199877E+02</pdfrwt>
<pdfrwt beam="2">  1       -1 0.37438328E+00 0.61199877E+02</pdfrwt>
<totfact> 0.99917388E+03</totfact>
</mgrwt>
</event>
<event>
 4    1  0.3946801E-002  0.7261249E+02  0.7818608E-02  0.1351428E+00
         -1   -1    0    0  501    0 -0.00000000000E+00  0.00000000000E+00  0.19947607739E+01  0.19947671409E+01  0.50400000000E-02 0.  1.
          1   -1    0    0    0  501  0.00000000000E+00 -0.00000000000E+00 -0.66080178417E+03  0.66080178418E+03  0.50400000000E-02 0.  1.
          2    1    1    2    0  502  0.34813252950E+02 -0.51650900999E+01 -0.41079148527E+03  0.41229635593E+03  0.25500000000E-02 0. -1.
         -2    1    1    2  502    0 -0.34813252950E+02  0.51650900999E+01 -0.24801553812E+03  0.25050019539E+03  0.25500000000E-02 0. -1.
<mgrwt>
<rscale>  0 0.72612495E+02</rscale>
<asrwt>0</asrwt>
<pdfrwt beam="2">  1        1 0.10166164E+00 0.72612495E+02</pdfrwt>
<pdfrwt beam="1">  1       -1 0.30688729E-03 0.72612495E+02</pdfrwt>
<totfact> 0.25782252E+05</totfact>
</mgrwt>
</event>
<event>
 4    1  0.3946801E-002  0.1091422E+03  0.7818608E-02  0.1262167E+00
         -1   -1    0    0  501    0 -0.00000000000E+00  0.00000000000E+00  0.38140066408E+02  0.38140066741E+02  0.50400000000E-02 0.  1.
          1   -1    0    0    0  501  0.00000000000E+00 -0.00000000000E+00 -0.78080713540E+02  0.78080713703E+02  0.50400000000E-02 0.  1.
          2    1    1    2    0  502  0.52535539756E+02  0.10458861636E+02 -0.31069017180E+02  0.61924587679E+02  0.25500000000E-02 0. -1.
         -2    1    1    2  502    0 -0.52535539756E+02 -0.10458861636E+02 -0.88716299527E+01  0.54296192764E+02  0.25500000000E-02 0. -1.
<mgrwt>
<rscale>  0 0.10914218E+03</rscale>
<asrwt>0</asrwt>
<pdfrwt beam="2">  1        1 0.12012417E-01 0.10914218E+03</pdfrwt>
<pdfrwt beam="1">  1       -1 0.58677026E-02 0.10914218E+03</pdfrwt>
<totfact> 0.60829771E+04</totfact>
</mgrwt>
</event>
<event>
 4    1  0.3946801E-002  0.4256139E+02  0.7818608E-02  0.1490166E+00
         -1   -1    0    0  501    0 -0.00000000000E+00  0.00000000000E+00  0.13455517537E+01  0.13455611928E+01  0.50400000000E-02 0.  1.
          1   -1    0    0    0  501  0.00000000000E+00 -0.00000000000E+00 -0.33656553500E+03  0.33656553503E+03  0.50400000000E-02 0.  1.
          2    1    1    2    0  502  0.20921456970E+02 -0.32031284254E+01 -0.15003444072E+03  0.15151996833E+03  0.25500000000E-02 0.  1.
         -2    1    1    2  502    0 -0.20921456970E+02  0.32031284254E+01 -0.18518554252E+03  0.18639112790E+03  0.25500000000E-02 0.  1.
<mgrwt>
<rscale>  0 0.42561388E+02</rscale>
<asrwt>0</asrwt>
<pdfrwt beam="2">  1        1 0.51779247E-01 0.42561388E+02</pdfrwt>
<pdfrwt beam="1">  1       -1 0.20700896E-03 0.42561388E+02</pdfrwt>
<totfact> 0.91589119E+05</totfact>
</mgrwt>
</event>
<event>
 4    1  0.3946801E-002  0.4287910E+02  0.7818608E-02  0.1488034E+00
          1   -1    0    0    0  501  0.00000000000E+00  0.00000000000E+00  0.48448240816E+03  0.48448240819E+03  0.50400000000E-02 0.  1.
         -1   -1    0    0  501    0 -0.00000000000E+00 -0.00000000000E+00 -0.94874661832E+00  0.94876000516E+00  0.50400000000E-02 0.  1.
          2    1    1    2    0  502  0.17239409864E+02 -0.11821511893E+02  0.29571541378E+03  0.29645328696E+03  0.25500000000E-02 0.  1.
         -2    1    1    2  502    0 -0.17239409864E+02  0.11821511893E+02  0.18781824777E+03  0.18897788124E+03  0.25500000000E-02 0.  1.
<mgrwt>
<rscale>  0 0.42879100E+02</rscale>
<asrwt>0</asrwt>
<pdfrwt beam="1">  1        1 0.74535797E-01 0.42879100E+02</pdfrwt>
<pdfrwt beam="2">  1       -1 0.14596197E-03 0.42879100E+02</pdfrwt>
<totfact> 0.94763067E+05</totfact>
</mgrwt>
</event>
<event>
 4    1  0.3946801E-002  0.5010334E+02  0.7818608E-02  0.1444785E+00
         -1   -1    0    0  501    0 -0.00000000000E+00  0.00000000000E+00  0.11020650016E+01  0.11020765261E+01  0.50400000000E-02 0.  1.
          1   -1    0    0    0  501  0.00000000000E+00 -0.00000000000E+00 -0.56946092712E+03  0.56946092714E+03  0.50400000000E-02 0.  1.
          2    1    1    2    0  502  0.14238951619E+02  0.18947876947E+02 -0.19179385626E+03  0.19325282169E+03  0.25500000000E-02 0.  1.
         -2    1    1    2  502    0 -0.14238951619E+02 -0.18947876947E+02 -0.37656500586E+03  0.37731018198E+03  0.25500000000E-02 0.  1.
<mgrwt>
<rscale>  0 0.50103343E+02</rscale>
<asrwt>0</asrwt>
<pdfrwt beam="2">  1        1 0.87609139E-01 0.50103343E+02</pdfrwt>
<pdfrwt beam="1">  1       -1 0.16954980E-03 0.50103343E+02</pdfrwt>
<totfact> 0.65591428E+05</totfact>
</mgrwt>
</event>
<event>
 4    1  0.3946801E-002  0.4738321E+02  0.7818608E-02  0.1459989E+00
         -1   -1    0    0  501    0 -0.00000000000E+00  0.00000000000E+00  0.30090835292E+00  0.30095055816E+00  0.50400000000E-02 0.  1.
          1   -1    0    0    0  501  0.00000000000E+00 -0.00000000000E+00 -0.18651950773E+04  0.18651950773E+04  0.50400000000E-02 0.  1.
          2    1    1    2    0  502  0.21771462358E+02  0.14396628383E+01 -0.12958999623E+04  0.12960836321E+04  0.25500000000E-02 0. -1.
         -2    1    1    2  502    0 -0.21771462358E+02 -0.14396628383E+01 -0.56899420668E+03  0.56941239575E+03  0.25500000000E-02 0. -1.
<mgrwt>
<rscale>  0 0.47383210E+02</rscale>
<asrwt>0</asrwt>
<pdfrwt beam="2">  1        1 0.28694384E+00 0.47383210E+02</pdfrwt>
<pdfrwt beam="1">  1       -1 0.46298333E-04 0.47383210E+02</pdfrwt>
<totfact> 0.47382470E+05</totfact>
</mgrwt>
</event>
<event>
 4    1  0.3946801E-002  0.6342137E+02  0.7818608E-02  0.1384010E+00
          1   -1    0    0    0  501  0.00000000000E+00  0.00000000000E+00  0.75407673514E+02  0.75407673682E+02  0.50400000000E-02 0. -1.
         -1   -1    0    0  501    0 -0.00000000000E+00 -0.00000000000E+00 -0.13335082426E+02  0.13335083379E+02  0.50400000000E-02 0. -1.
          2    1    1    2    0  502 -0.24659066431E+02  0.11668472457E+02  0.53656899767E+02  0.60193734773E+02  0.25500000000E-02 0.  1.
         -2    1    1    2  502    0  0.24659066431E+02 -0.11668472457E+02  0.84156913202E+01  0.28549022289E+02  0.25500000000E-02 0.  1.
<mgrwt>
<rscale>  0 0.63421372E+02</rscale>
<asrwt>0</asrwt>
<pdfrwt beam="1">  1        1 0.11601181E-01 0.63421372E+02</pdfrwt>
<pdfrwt beam="2">  1       -1 0.20515512E-02 0.63421372E+02</pdfrwt>
<totfact> 0.26419962E+05</totfact>
</mgrwt>
</event>
<event>
 4    1  0.3946801E-002  0.4608536E+02  0.7818608E-02  0.1467678E+00
          1   -1    0    0    0  501  0.00000000000E+00  0.00000000000E+00  0.96795919746E+02  0.96795919877E+02  0.50400000000E-02 0.  1.
         -1   -1    0    0  501    0 -0.00000000000E+00 -0.00000000000E+00 -0.54854056492E+01  0.54854079646E+01  0.50400000000E-02 0.  1.
          2    1    1    2    0  502 -0.30019239460E+01 -0.20211090509E+02  0.69296205650E+02  0.72245856981E+02  0.25500000000E-02 0.  1.
         -2    1    1    2  502    0  0.30019239460E+01  0.20211090509E+02  0.22014308446E+02  0.30035470860E+02  0.25500000000E-02 0.  1.
<mgrwt>
<rscale>  0 0.46085356E+02</rscale>
<asrwt>0</asrwt>
<pdfrwt beam="1">  1        1 0.14891682E-01 0.46085356E+02</pdfrwt>
<pdfrwt beam="2">  1       -1 0.84390867E-03 0.46085356E+02</pdfrwt>
<totfact> 0.61699996E+05</totfact>
</mgrwt>
</event>
<event>
 4    1  0.3946801E-002  0.4101503E+02  0.7818608E-02  0.1500872E+00
          1   -1    0    0    0  501  0.00000000000E+00  0.00000000000E+00  0.16667868617E+03  0.16667868625E+03  0.50400000000E-02 0. -1.
         -1   -1    0    0  501    0 -0.00000000000E+00 -0.00000000000E+00 -0.25231639456E+01  0.25231689793E+01  0.50400000000E-02 0. -1.
          2    1    1    2    0  502 -0.17340020357E+02  0.10631340910E+02  0.71275641224E+02  0.74120973779E+02  0.25500000000E-02 0.  1.
         -2    1    1    2  502    0  0.17340020357E+02 -0.10631340910E+02  0.92879881003E+02  0.95080881449E+02  0.25500000000E-02 0.  1.
<mgrwt>
<rscale>  0 0.41015026E+02</rscale>
<asrwt>0</asrwt>
<pdfrwt beam="1">  1        1 0.25642870E-01 0.41015026E+02</pdfrwt>
<pdfrwt beam="2">  1       -1 0.38817954E-03 0.41015026E+02</pdfrwt>
<totfact> 0.89045105E+05</totfact>
</mgrwt>
</event>
<event>
 4    1  0.3946801E-002  0.4837997E+02  0.7818608E-02  0.1454281E+00
         -1   -1    0    0  501    0 -0.00000000000E+00  0.00000000000E+00  0.82313500526E+00  0.82315043490E+00  0.50400000000E-02 0.  1.
          1   -1    0    0    0  501  0.00000000000E+00 -0.00000000000E+00 -0.71087968487E+03  0.71087968489E+03  0.50400000000E-02 0.  1.
          2    1    1    2    0  502 -0.13530029899E+02  0.16739856753E+02 -0.19262935496E+03  0.19382815304E+03  0.25500000000E-02 0.  1.
         -2    1    1    2  502    0  0.13530029899E+02 -0.16739856753E+02 -0.51742719490E+03  0.51787468228E+03  0.25500000000E-02 0.  1.
<mgrwt>
<rscale>  0 0.48379973E+02</rscale>
<asrwt>0</asrwt>
<pdfrwt beam="2">  1        1 0.10936562E+00 0.48379973E+02</pdfrwt>
<pdfrwt beam="1">  1       -1 0.12663791E-03 0.48379973E+02</pdfrwt>
<totfact> 0.71971346E+05</totfact>
</mgrwt>
</event>
<event>
 4    1  0.3946801E-002  0.1759283E+03  0.7818608E-02  0.1171803E+00
          1   -1    0    0    0  501  0.00000000000E+00  0.00000000000E+00  0.39161674488E+03  0.39161674491E+03  0.50400000000E-02 0. -1.
         -1   -1    0    0  501    0 -0.00000000000E+00 -0.00000000000E+00 -0.19758337497E+02  0.19758338140E+02  0.50400000000E-02 0. -1.
          2    1    1    2    0  502 -0.44610248631E+02  0.84001745977E+01  0.97462645884E+01  0.46428729211E+02  0.25500000000E-02 0. -1.
         -2    1    1    2  502    0  0.44610248631E+02 -0.84001745977E+01  0.36211214279E+03  0.36494635384E+03  0.25500000000E-02 0. -1.
<mgrwt>
<rscale>  0 0.17592835E+03</rscale>
<asrwt>0</asrwt>
<pdfrwt beam="1">  1        1 0.60248726E-01 0.17592835E+03</pdfrwt>
<pdfrwt beam="2">  1       -1 0.30397445E-02 0.17592835E+03</pdfrwt>
<totfact> 0.22076487E+04</totfact>
</mgrwt>
</event>
<event>
 4    1  0.3946801E-002  0.5095183E+02  0.7818608E-02  0.1440274E+00
          1   -1    0    0    0  501  0.00000000000E+00  0.00000000000E+00  0.10303506618E+04  0.10303506618E+04  0.50400000000E-02 0.  1.
         -1   -1    0    0  501    0 -0.00000000000E+00 -0.00000000000E+00 -0.62989425725E+00  0.62991442031E+00  0.50400000000E-02 0.  1.
          2    1    1    2    0  502  0.18718206381E+02  0.10811835898E+02  0.24206676090E+03  0.24303000593E+03  0.25500000000E-02 0. -1.
         -2    1    1    2  502    0 -0.18718206381E+02 -0.10811835898E+02  0.78765400668E+03  0.78795057033E+03  0.25500000000E-02 0. -1.
<mgrwt>
<rscale>  0 0.50951835E+02</rscale>
<asrwt>0</asrwt>
<pdfrwt beam="1">  1        1 0.15851328E+00 0.50951835E+02</pdfrwt>
<pdfrwt beam="2">  1       -1 0.96909710E-04 0.50951835E+02</pdfrwt>
<totfact> 0.60060227E+05</totfact>
</mgrwt>
</event>
<event>
 4    1  0.3946801E-002  0.5429313E+02  0.7818608E-02  0.1423472E+00
         -1   -1    0    0  501    0 -0.00000000000E+00  0.00000000000E+00  0.32555353880E+00  0.32559254940E+00  0.50400000000E-02 0.  1.
          1   -1    0    0    0  501  0.00000000000E+00 -0.00000000000E+00 -0.22635039457E+04  0.22635039458E+04  0.50400000000E-02 0.  1.
          2    1    1    2    0  502  0.24614233407E+02  0.11256026970E+02 -0.10443524638E+04  0.10447031288E+04  0.25500000000E-02 0. -1.
         -2    1    1    2  502    0 -0.24614233407E+02 -0.11256026970E+02 -0.12188259284E+04  0.12191264095E+04  0.25500000000E-02 0. -1.
<mgrwt>
<rscale>  0 0.54293126E+02</rscale>
<asrwt>0</asrwt>
<pdfrwt beam="2">  1        1 0.34821878E+00 0.54293126E+02</pdfrwt>
<pdfrwt beam="1">  1       -1 0.50089974E-04 0.54293126E+02</pdfrwt>
<totfact> 0.24853452E+05</totfact>
</mgrwt>
</event>
