<event>
 4    1  0.4837985E-002  0.5014466E+02  0.7818608E-02  0.1444563E+00
         -2   -1    0    0  501    0 -0.00000000000E+00  0.00000000000E+00  0.89600543768E+00  0.89600906628E+00  0.25500000000E-02 0. -1.
          2   -1    0    0    0  501  0.00000000000E+00 -0.00000000000E+00 -0.70158120191E+03  0.70158120191E+03  0.25500000000E-02 0. -1.
          2    1    1    2    0  502  0.21481448949E+02 -0.12717245277E+02 -0.31766565009E+03  0.31864501601E+03  0.25500000000E-02 0. -1.
         -2    1    1    2  502    0 -0.21481448949E+02  0.12717245277E+02 -0.38301954638E+03  0.38383219497E+03  0.25500000000E-02 0. -1.
<mgrwt>
<rscale>  0 0.50144665E+02</rscale>
<asrwt>0</asrwt>
<pdfrwt beam="2">  1        2 0.10793513E+00 0.50144665E+02</pdfrwt>
<pdfrwt beam="1">  1       -2 0.13784783E-03 0.50144665E+02</pdfrwt>
<totfact> 0.10931015E+06</totfact>
</mgrwt>
</event>
<event>
 4    1  0.4837985E-002  0.4524045E+02  0.7818608E-02  0.1472846E+00
          2   -1    0    0    0  501  0.00000000000E+00  0.00000000000E+00  0.15903210285E+03  0.15903210287E+03  0.25500000000E-02 0. -1.
         -2   -1    0    0  501    0 -0.00000000000E+00 -0.00000000000E+00 -0.32174284956E+01  0.32174295061E+01  0.25500000000E-02 0. -1.
          2    1    1    2    0  502  0.18236941769E+02 -0.13124968859E+02  0.68538951809E+02  0.72127933384E+02  0.25500000000E-02 0.  1.
         -2    1    1    2  502    0 -0.18236941769E+02  0.13124968859E+02  0.87275722541E+02  0.90121598988E+02  0.25500000000E-02 0.  1.
<mgrwt>
<rscale>  0 0.45240447E+02</rscale>
<asrwt>0</asrwt>
<pdfrwt beam="1">  1        2 0.24466474E-01 0.45240447E+02</pdfrwt>
<pdfrwt beam="2">  1       -2 0.49498915E-03 0.45240447E+02</pdfrwt>
<totfact> 0.87775575E+05</totfact>
</mgrwt>
</event>
<event>
 4    1  0.4837985E-002  0.5304056E+02  0.7818608E-02  0.1429599E+00
          2   -1    0    0    0  501  0.00000000000E+00  0.00000000000E+00  0.10258714945E+04  0.10258714945E+04  0.25500000000E-02 0. -1.
         -2   -1    0    0  501    0 -0.00000000000E+00 -0.00000000000E+00 -0.68558558846E+00  0.68559033074E+00  0.25500000000E-02 0. -1.
          2    1    1    2    0  502 -0.78253975141E+01  0.25329876941E+02  0.52608033231E+03  0.52674790513E+03  0.25500000000E-02 0. -1.
         -2    1    1    2  502    0  0.78253975141E+01 -0.25329876941E+02  0.49910557662E+03  0.49980917972E+03  0.25500000000E-02 0. -1.
<mgrwt>
<rscale>  0 0.53040556E+02</rscale>
<asrwt>0</asrwt>
<pdfrwt beam="1">  1        2 0.15782554E+00 0.53040556E+02</pdfrwt>
<pdfrwt beam="2">  1       -2 0.10547563E-03 0.53040556E+02</pdfrwt>
<totfact> 0.10012128E+06</totfact>
</mgrwt>
</event>
<event>
 4    1  0.4837985E-002  0.5566664E+02  0.7818608E-02  0.1416972E+00
         -2   -1    0    0  501    0 -0.00000000000E+00  0.00000000000E+00  0.50531806884E+01  0.50531813318E+01  0.25500000000E-02 0. -1.
          2   -1    0    0    0  501  0.00000000000E+00 -0.00000000000E+00 -0.15330814943E+03  0.15330814946E+03  0.25500000000E-02 0. -1.
          2    1    1    2    0  502  0.69214571713E+01 -0.22496860665E+02 -0.11638793524E+03  0.11874412316E+03  0.25500000000E-02 0.  1.
         -2    1    1    2  502    0 -0.69214571713E+01  0.22496860665E+02 -0.31867033503E+02  0.39617207624E+02  0.25500000000E-02 0.  1.
<mgrwt>
<rscale>  0 0.55666645E+02</rscale>
<asrwt>0</asrwt>
<pdfrwt beam="2">  1        2 0.23585866E-01 0.55666645E+02</pdfrwt>
<pdfrwt beam="1">  1       -2 0.77741258E-03 0.55666645E+02</pdfrwt>
<totfact> 0.51519876E+05</totfact>
</mgrwt>
</event>
<event>
 4    1  0.4837985E-002  0.8941053E+02  0.7818608E-02  0.1304285E+00
         -2   -1    0    0  501    0 -0.00000000000E+00  0.00000000000E+00  0.61578595576E+03  0.61578595577E+03  0.25500000000E-02 0. -1.
          2   -1    0    0    0  501  0.00000000000E+00 -0.00000000000E+00 -0.32455440052E+01  0.32455450069E+01  0.25500000000E-02 0. -1.
          2    1    1    2    0  502 -0.31889896784E+02  0.11626811348E+02  0.10484440268E+03  0.11020207366E+03  0.25500000000E-02 0.  1.
         -2    1    1    2  502    0  0.31889896784E+02 -0.11626811348E+02  0.50769600907E+03  0.50882942711E+03  0.25500000000E-02 0.  1.
<mgrwt>
<rscale>  0 0.89410530E+02</rscale>
<asrwt>0</asrwt>
<pdfrwt beam="2">  1        2 0.49931440E-03 0.89410530E+02</pdfrwt>
<pdfrwt beam="1">  1       -2 0.94736327E-01 0.89410530E+02</pdfrwt>
<totfact> 0.32152572E+04</totfact>
</mgrwt>
</event>
<event>
 4    1  0.4837985E-002  0.1366216E+03  0.7818608E-02  0.1217948E+00
          2   -1    0    0    0  501  0.00000000000E+00  0.00000000000E+00  0.88961374784E+03  0.88961374785E+03  0.25500000000E-02 0.  1.
         -2   -1    0    0  501    0 -0.00000000000E+00 -0.00000000000E+00 -0.52453850196E+01  0.52453856395E+01  0.25500000000E-02 0.  1.
          2    1    1    2    0  502  0.11988471635E+02  0.67062319793E+02  0.40924607864E+03  0.41487760976E+03  0.25500000000E-02 0. -1.
         -2    1    1    2  502    0 -0.11988471635E+02 -0.67062319793E+02  0.47512228418E+03  0.47998152373E+03  0.25500000000E-02 0. -1.
<mgrwt>
<rscale>  0 0.13662162E+03</rscale>
<asrwt>0</asrwt>
<pdfrwt beam="1">  1        2 0.13686351E+00 0.13662162E+03</pdfrwt>
<pdfrwt beam="2">  1       -2 0.80698318E-03 0.13662162E+03</pdfrwt>
<totfact> 0.83534455E+04</totfact>
</mgrwt>
</event>
<event>
 4    1  0.4837985E-002  0.4063502E+02  0.7818608E-02  0.1503590E+00
         -2   -1    0    0  501    0 -0.00000000000E+00  0.00000000000E+00  0.18066599781E+03  0.18066599783E+03  0.25500000000E-02 0.  1.
          2   -1    0    0    0  501  0.00000000000E+00 -0.00000000000E+00 -0.22848850445E+01  0.22848864674E+01  0.25500000000E-02 0.  1.
          2    1    1    2    0  502 -0.11134569788E+02 -0.16818580678E+02  0.78201022944E+02  0.80760406738E+02  0.25500000000E-02 0. -1.
         -2    1    1    2  502    0  0.11134569788E+02  0.16818580678E+02  0.10018008982E+03  0.10219047756E+03  0.25500000000E-02 0. -1.
<mgrwt>
<rscale>  0 0.40635018E+02</rscale>
<asrwt>0</asrwt>
<pdfrwt beam="2">  1        2 0.35152090E-03 0.40635018E+02</pdfrwt>
<pdfrwt beam="1">  1       -2 0.27794768E-01 0.40635018E+02</pdfrwt>
<totfact> 0.48600384E+05</totfact>
</mgrwt>
</event>
<event>
 4    1  0.4837985E-002  0.6000209E+02  0.7818608E-02  0.1397823E+00
          2   -1    0    0    0  501  0.00000000000E+00  0.00000000000E+00  0.72799203125E+03  0.72799203126E+03  0.25500000000E-02 0.  1.
         -2   -1    0    0  501    0 -0.00000000000E+00 -0.00000000000E+00 -0.12363622232E+01  0.12363648529E+01  0.25500000000E-02 0.  1.
          2    1    1    2    0  502 -0.12314039805E+02  0.17403868465E+02  0.61990709260E+03  0.62027359583E+03  0.25500000000E-02 0.  1.
         -2    1    1    2  502    0  0.12314039805E+02 -0.17403868465E+02  0.10684857643E+03  0.10895480028E+03  0.25500000000E-02 0.  1.
<mgrwt>
<rscale>  0 0.60002094E+02</rscale>
<asrwt>0</asrwt>
<pdfrwt beam="1">  1        2 0.11199904E+00 0.60002094E+02</pdfrwt>
<pdfrwt beam="2">  1       -2 0.19020933E-03 0.60002094E+02</pdfrwt>
<totfact> 0.70411976E+05</totfact>
</mgrwt>
</event>
<event>
 4    1  0.4837985E-002  0.5362203E+02  0.7818608E-02  0.1426730E+00
         -2   -1    0    0  501    0 -0.00000000000E+00  0.00000000000E+00  0.72773890976E+00  0.72774337735E+00  0.25500000000E-02 0. -1.
          2   -1    0    0    0  501  0.00000000000E+00 -0.00000000000E+00 -0.98775572153E+03  0.98775572153E+03  0.25500000000E-02 0. -1.
          2    1    1    2    0  502 -0.17738755116E+02  0.18743715351E+02 -0.62751507241E+03  0.62804550504E+03  0.25500000000E-02 0.  1.
         -2    1    1    2  502    0  0.17738755116E+02 -0.18743715351E+02 -0.35951291022E+03  0.36043795987E+03  0.25500000000E-02 0.  1.
<mgrwt>
<rscale>  0 0.53622028E+02</rscale>
<asrwt>0</asrwt>
<pdfrwt beam="2">  1        2 0.15196135E+00 0.53622028E+02</pdfrwt>
<pdfrwt beam="1">  1       -2 0.11196097E-03 0.53622028E+02</pdfrwt>
<totfact> 0.97305078E+05</totfact>
</mgrwt>
</event>
<event>
 4    1  0.4837985E-002  0.4348637E+02  0.7818608E-02  0.1484018E+00
          2   -1    0    0    0  501  0.00000000000E+00  0.00000000000E+00  0.87959620276E+01  0.87959623972E+01  0.25500000000E-02 0.  1.
         -2   -1    0    0  501    0 -0.00000000000E+00 -0.00000000000E+00 -0.53748089614E+02  0.53748089675E+02  0.25500000000E-02 0.  1.
          2    1    1    2    0  502 -0.71415354387E+01  0.20103953160E+02 -0.28509102511E+02  0.35608136620E+02  0.25500000000E-02 0.  1.
         -2    1    1    2  502    0  0.71415354387E+01 -0.20103953160E+02 -0.16443025076E+02  0.26935915452E+02  0.25500000000E-02 0.  1.
<mgrwt>
<rscale>  0 0.43486373E+02</rscale>
<asrwt>0</asrwt>
<pdfrwt beam="1">  1        2 0.13532250E-02 0.43486373E+02</pdfrwt>
<pdfrwt beam="2">  1       -2 0.82689367E-02 0.43486373E+02</pdfrwt>
<totfact> 0.56244286E+05</totfact>
</mgrwt>
</event>
<event>
 4    1  0.4837985E-002  0.4641724E+02  0.7818608E-02  0.1465683E+00
          2   -1    0    0    0  501  0.00000000000E+00  0.00000000000E+00  0.28944503151E+02  0.28944503264E+02  0.25500000000E-02 0. -1.
         -2   -1    0    0  501    0 -0.00000000000E+00 -0.00000000000E+00 -0.18609404294E+02  0.18609404469E+02  0.25500000000E-02 0. -1.
          2    1    1    2    0  502  0.19065369385E+02 -0.96070920355E+01  0.14492948511E+02  0.25803683656E+02  0.25500000000E-02 0.  1.
         -2    1    1    2  502    0 -0.19065369385E+02  0.96070920355E+01 -0.41578496538E+01  0.21750224077E+02  0.25500000000E-02 0.  1.
<mgrwt>
<rscale>  0 0.46417237E+02</rscale>
<asrwt>0</asrwt>
<pdfrwt beam="1">  1        2 0.44530005E-02 0.46417237E+02</pdfrwt>
<pdfrwt beam="2">  1       -2 0.28629853E-02 0.46417237E+02</pdfrwt>
<totfact> 0.56644708E+05</totfact>
</mgrwt>
</event>
<event>
 4    1  0.4837985E-002  0.5405068E+02  0.7818608E-02  0.1424642E+00
          2   -1    0    0    0  501  0.00000000000E+00  0.00000000000E+00  0.52205853310E+03  0.52205853310E+03  0.25500000000E-02 0. -1.
         -2   -1    0    0  501    0 -0.00000000000E+00 -0.00000000000E+00 -0.13990164892E+01  0.13990188131E+01  0.25500000000E-02 0. -1.
          2    1    1    2    0  502  0.26002469290E+02  0.62435955365E+01  0.29815938019E+03  0.29935618733E+03  0.25500000000E-02 0. -1.
         -2    1    1    2  502    0 -0.26002469290E+02 -0.62435955365E+01  0.22250013642E+03  0.22410136458E+03  0.25500000000E-02 0. -1.
<mgrwt>
<rscale>  0 0.54050684E+02</rscale>
<asrwt>0</asrwt>
<pdfrwt beam="1">  1        2 0.80316680E-01 0.54050684E+02</pdfrwt>
<pdfrwt beam="2">  1       -2 0.21523353E-03 0.54050684E+02</pdfrwt>
<totfact> 0.83856832E+05</totfact>
</mgrwt>
</event>
<event>
 4    1  0.4837985E-002  0.5461619E+02  0.7818608E-02  0.1421923E+00
         -2   -1    0    0  501    0 -0.00000000000E+00  0.00000000000E+00  0.25317482514E+00  0.25318766673E+00  0.25500000000E-02 0. -1.
          2   -1    0    0    0  501  0.00000000000E+00 -0.00000000000E+00 -0.29454469678E+04  0.29454469678E+04  0.25500000000E-02 0. -1.
          2    1    1    2    0  502 -0.27090491736E+02 -0.52056107236E+00 -0.16560236109E+04  0.16562452613E+04  0.25500000000E-02 0. -1.
         -2    1    1    2  502    0  0.27090491736E+02  0.52056107236E+00 -0.12891701821E+04  0.12894548942E+04  0.25500000000E-02 0. -1.
<mgrwt>
<rscale>  0 0.54616186E+02</rscale>
<asrwt>0</asrwt>
<pdfrwt beam="2">  1        2 0.45311825E+00 0.54616186E+02</pdfrwt>
<pdfrwt beam="1">  1       -2 0.38953320E-04 0.54616186E+02</pdfrwt>
<totfact> 0.40649199E+05</totfact>
</mgrwt>
</event>
<event>
 4    1  0.4837985E-002  0.4581034E+02  0.7818608E-02  0.1469345E+00
         -2   -1    0    0  501    0 -0.00000000000E+00  0.00000000000E+00  0.17626868698E+02  0.17626868883E+02  0.25500000000E-02 0.  1.
          2   -1    0    0    0  501  0.00000000000E+00 -0.00000000000E+00 -0.29764038907E+02  0.29764039017E+02  0.25500000000E-02 0.  1.
          2    1    1    2    0  502  0.94852178169E+01  0.20737288213E+02 -0.82975301764E+01  0.24266303653E+02  0.25500000000E-02 0. -1.
         -2    1    1    2  502    0 -0.94852178169E+01 -0.20737288213E+02 -0.38396400326E+01  0.23124604246E+02  0.25500000000E-02 0. -1.
<mgrwt>
<rscale>  0 0.45810340E+02</rscale>
<asrwt>0</asrwt>
<pdfrwt beam="2">  1        2 0.45790829E-02 0.45810340E+02</pdfrwt>
<pdfrwt beam="1">  1       -2 0.27118260E-02 0.45810340E+02</pdfrwt>
<totfact> 0.58854464E+05</totfact>
</mgrwt>
</event>
<event>
 4    1  0.4837985E-002  0.4335603E+02  0.7818608E-02  0.1484873E+00
          2   -1    0    0    0  501  0.00000000000E+00  0.00000000000E+00  0.17319230498E+04  0.17319230498E+04  0.25500000000E-02 0.  1.
         -2   -1    0    0  501    0 -0.00000000000E+00 -0.00000000000E+00 -0.27133193410E+00  0.27134391639E+00  0.25500000000E-02 0.  1.
          2    1    1    2    0  502 -0.24778537021E+01  0.20410770367E+02  0.59134963354E+03  0.59170696160E+03  0.25500000000E-02 0.  1.
         -2    1    1    2  502    0  0.24778537021E+01 -0.20410770367E+02  0.11403020843E+04  0.11404874321E+04  0.25500000000E-02 0.  1.
<mgrwt>
<rscale>  0 0.43356034E+02</rscale>
<asrwt>0</asrwt>
<pdfrwt beam="1">  1        2 0.26645598E+00 0.43356034E+02</pdfrwt>
<pdfrwt beam="2">  1       -2 0.41743313E-04 0.43356034E+02</pdfrwt>
<totfact> 0.14554347E+06</totfact>
</mgrwt>
</event>
<event>
 4    1  0.4837985E-002  0.1558442E+03  0.7818608E-02  0.1193470E+00
          2   -1    0    0    0  501  0.00000000000E+00  0.00000000000E+00  0.35501667882E+02  0.35501667974E+02  0.25500000000E-02 0. -1.
         -2   -1    0    0  501    0 -0.00000000000E+00 -0.00000000000E+00 -0.17103007591E+03  0.17103007593E+03  0.25500000000E-02 0. -1.
          2    1    1    2    0  502 -0.18027918600E+02 -0.63041088449E+02 -0.11967322148E+02  0.66651342730E+02  0.25500000000E-02 0. -1.
         -2    1    1    2  502    0  0.18027918600E+02  0.63041088449E+02 -0.12356108588E+03  0.13988040117E+03  0.25500000000E-02 0. -1.
<mgrwt>
<rscale>  0 0.15584419E+03</rscale>
<asrwt>0</asrwt>
<pdfrwt beam="1">  1        2 0.54617952E-02 0.15584419E+03</pdfrwt>
<pdfrwt beam="2">  1       -2 0.26312319E-01 0.15584419E+03</pdfrwt>
<totfact> 0.17064895E+04</totfact>
</mgrwt>
</event>
<event>
 4    1  0.4837985E-002  0.6379872E+02  0.7818608E-02  0.1382548E+00
         -2   -1    0    0  501    0 -0.00000000000E+00  0.00000000000E+00  0.10343201336E+03  0.10343201340E+03  0.25500000000E-02 0. -1.
          2   -1    0    0    0  501  0.00000000000E+00 -0.00000000000E+00 -0.98380469747E+01  0.98380473052E+01  0.25500000000E-02 0. -1.
          2    1    1    2    0  502 -0.31445862094E+02  0.51566055744E+01  0.44202064384E+02  0.54490873788E+02  0.25500000000E-02 0.  1.
         -2    1    1    2  502    0  0.31445862094E+02 -0.51566055744E+01  0.49391902006E+02  0.58779186913E+02  0.25500000000E-02 0.  1.
<mgrwt>
<rscale>  0 0.63798716E+02</rscale>
<asrwt>0</asrwt>
<pdfrwt beam="2">  1        2 0.15135458E-02 0.63798716E+02</pdfrwt>
<pdfrwt beam="1">  1       -2 0.15912617E-01 0.63798716E+02</pdfrwt>
<totfact> 0.19213362E+05</totfact>
</mgrwt>
</event>
<event>
 4    1  0.4837985E-002  0.4141048E+02  0.7818608E-02  0.1498081E+00
          2   -1    0    0    0  501  0.00000000000E+00  0.00000000000E+00  0.23443746347E+03  0.23443746348E+03  0.25500000000E-02 0.  1.
         -2   -1    0    0  501    0 -0.00000000000E+00 -0.00000000000E+00 -0.18286610680E+01  0.18286628460E+01  0.25500000000E-02 0.  1.
          2    1    1    2    0  502  0.17030932410E+02  0.11602396020E+02  0.12777028369E+03  0.12942145747E+03  0.25500000000E-02 0. -1.
         -2    1    1    2  502    0 -0.17030932410E+02 -0.11602396020E+02  0.10483851871E+03  0.10684466886E+03  0.25500000000E-02 0. -1.
<mgrwt>
<rscale>  0 0.41410476E+02</rscale>
<asrwt>0</asrwt>
<pdfrwt beam="1">  1        2 0.36067320E-01 0.41410476E+02</pdfrwt>
<pdfrwt beam="2">  1       -2 0.28133247E-03 0.41410476E+02</pdfrwt>
<totfact> 0.12368169E+06</totfact>
</mgrwt>
</event>
<event>
 4    1  0.4837985E-002  0.4301014E+02  0.7818608E-02  0.1487160E+00
         -2   -1    0    0  501    0 -0.00000000000E+00  0.00000000000E+00  0.70811198828E+00  0.70811657970E+00  0.25500000000E-02 0.  1.
          2   -1    0    0    0  501  0.00000000000E+00 -0.00000000000E+00 -0.65309807134E+03  0.65309807135E+03  0.25500000000E-02 0.  1.
          2    1    1    2    0  502 -0.20443786660E+02  0.43887741600E+00 -0.22498751761E+03  0.22591486032E+03  0.25500000000E-02 0.  1.
         -2    1    1    2  502    0  0.20443786660E+02 -0.43887741600E+00 -0.42740244175E+03  0.42789132761E+03  0.25500000000E-02 0.  1.
<mgrwt>
<rscale>  0 0.43010142E+02</rscale>
<asrwt>0</asrwt>
<pdfrwt beam="2">  1        2 0.10047614E+00 0.43010142E+02</pdfrwt>
<pdfrwt beam="1">  1       -2 0.10894118E-03 0.43010142E+02</pdfrwt>
<totfact> 0.15648363E+06</totfact>
</mgrwt>
</event>
<event>
 4    1  0.4837985E-002  0.4316004E+02  0.7818608E-02  0.1486166E+00
          2   -1    0    0    0  501  0.00000000000E+00  0.00000000000E+00  0.18706630977E+03  0.18706630978E+03  0.25500000000E-02 0.  1.
         -2   -1    0    0  501    0 -0.00000000000E+00 -0.00000000000E+00 -0.24894762614E+01  0.24894775674E+01  0.25500000000E-02 0.  1.
          2    1    1    2    0  502  0.50014056492E+01 -0.20960443501E+02  0.97378140541E+02  0.99733928590E+02  0.25500000000E-02 0.  1.
         -2    1    1    2  502    0 -0.50014056492E+01  0.20960443501E+02  0.87198692964E+02  0.89821858761E+02  0.25500000000E-02 0.  1.
<mgrwt>
<rscale>  0 0.43160040E+02</rscale>
<asrwt>0</asrwt>
<pdfrwt beam="1">  1        2 0.28779426E-01 0.43160040E+02</pdfrwt>
<pdfrwt beam="2">  1       -2 0.38299653E-03 0.43160040E+02</pdfrwt>
<totfact> 0.10376921E+06</totfact>
</mgrwt>
</event>
<event>
 4    1  0.4837985E-002  0.1400100E+03  0.7818608E-02  0.1213316E+00
          2   -1    0    0    0  501  0.00000000000E+00  0.00000000000E+00  0.12745014822E+04  0.12745014822E+04  0.25500000000E-02 0. -1.
         -2   -1    0    0  501    0 -0.00000000000E+00 -0.00000000000E+00 -0.38451877934E+01  0.38451886390E+01  0.25500000000E-02 0. -1.
          2    1    1    2    0  502 -0.21631148153E+02  0.44471537877E+02  0.10877274775E+04  0.10888510869E+04  0.25500000000E-02 0. -1.
         -2    1    1    2  502    0  0.21631148153E+02 -0.44471537877E+02  0.18292881699E+03  0.18949558397E+03  0.25500000000E-02 0. -1.
<mgrwt>
<rscale>  0 0.14000997E+03</rscale>
<asrwt>0</asrwt>
<pdfrwt beam="1">  1        2 0.19607694E+00 0.14000997E+03</pdfrwt>
<pdfrwt beam="2">  1       -2 0.59156805E-03 0.14000997E+03</pdfrwt>
<totfact> 0.77864750E+04</totfact>
</mgrwt>
</event>
<event>
 4    1  0.4837985E-002  0.6691258E+02  0.7818608E-02  0.1370918E+00
          2   -1    0    0    0  501  0.00000000000E+00  0.00000000000E+00  0.22786725429E+04  0.22786725429E+04  0.25500000000E-02 0.  1.
         -2   -1    0    0  501    0 -0.00000000000E+00 -0.00000000000E+00 -0.49121399429E+00  0.49122061305E+00  0.25500000000E-02 0.  1.
          2    1    1    2    0  502 -0.31818909108E+02  0.17241504183E+01  0.79188114069E+03  0.79252202282E+03  0.25500000000E-02 0.  1.
         -2    1    1    2  502    0  0.31818909108E+02 -0.17241504183E+01  0.14863001882E+04  0.14866417407E+04  0.25500000000E-02 0.  1.
<mgrwt>
<rscale>  0 0.66912581E+02</rscale>
<asrwt>0</asrwt>
<pdfrwt beam="1">  1        2 0.35057276E+00 0.66912581E+02</pdfrwt>
<pdfrwt beam="2">  1       -2 0.75570221E-04 0.66912581E+02</pdfrwt>
<totfact> 0.38193198E+05</totfact>
</mgrwt>
</event>
<event>
 4    1  0.4837985E-002  0.4560545E+02  0.7818608E-02  0.1470597E+00
         -2   -1    0    0  501    0 -0.00000000000E+00  0.00000000000E+00  0.67828172021E+00  0.67828651356E+00  0.25500000000E-02 0. -1.
          2   -1    0    0    0  501  0.00000000000E+00 -0.00000000000E+00 -0.76658763429E+03  0.76658763430E+03  0.25500000000E-02 0. -1.
          2    1    1    2    0  502  0.22008270568E+02 -0.46148640699E+01 -0.31932688549E+03  0.32011766703E+03  0.25500000000E-02 0.  1.
         -2    1    1    2  502    0 -0.22008270568E+02  0.46148640699E+01 -0.44658246708E+03  0.44714825378E+03  0.25500000000E-02 0.  1.
<mgrwt>
<rscale>  0 0.45605448E+02</rscale>
<asrwt>0</asrwt>
<pdfrwt beam="2">  1        2 0.11793587E+00 0.45605448E+02</pdfrwt>
<pdfrwt beam="1">  1       -2 0.10435202E-03 0.45605448E+02</pdfrwt>
<totfact> 0.14050924E+06</totfact>
</mgrwt>
</event>
<event>
 4    1  0.4837985E-002  0.4750692E+02  0.7818608E-02  0.1459272E+00
          2   -1    0    0    0  501  0.00000000000E+00  0.00000000000E+00  0.11655018768E+04  0.11655018768E+04  0.25500000000E-02 0. -1.
         -2   -1    0    0  501    0 -0.00000000000E+00 -0.00000000000E+00 -0.48410300738E+00  0.48410972336E+00  0.25500000000E-02 0. -1.
          2    1    1    2    0  502 -0.16520620907E+02 -0.14687429866E+02  0.36914222168E+03  0.36980350369E+03  0.25500000000E-02 0.  1.
         -2    1    1    2  502    0  0.16520620907E+02  0.14687429866E+02  0.79587555211E+03  0.79618248283E+03  0.25500000000E-02 0.  1.
<mgrwt>
<rscale>  0 0.47506921E+02</rscale>
<asrwt>0</asrwt>
<pdfrwt beam="1">  1        2 0.17930637E+00 0.47506921E+02</pdfrwt>
<pdfrwt beam="2">  1       -2 0.74478573E-04 0.47506921E+02</pdfrwt>
<totfact> 0.13103752E+06</totfact>
</mgrwt>
</event>
<event>
 4    1  0.4837985E-002  0.1552284E+03  0.7818608E-02  0.1194192E+00
         -2   -1    0    0  501    0 -0.00000000000E+00  0.00000000000E+00  0.70100201609E+02  0.70100201655E+02  0.25500000000E-02 0. -1.
          2   -1    0    0    0  501  0.00000000000E+00 -0.00000000000E+00 -0.85933582218E+02  0.85933582256E+02  0.25500000000E-02 0. -1.
          2    1    1    2    0  502 -0.26215930723E+02  0.68502140998E+02 -0.33428351012E+02  0.80605663591E+02  0.25500000000E-02 0.  1.
         -2    1    1    2  502    0  0.26215930723E+02 -0.68502140998E+02  0.17594970403E+02  0.75428120320E+02  0.25500000000E-02 0.  1.
<mgrwt>
<rscale>  0 0.15522837E+03</rscale>
<asrwt>0</asrwt>
<pdfrwt beam="2">  1        2 0.13220551E-01 0.15522837E+03</pdfrwt>
<pdfrwt beam="1">  1       -2 0.10784646E-01 0.15522837E+03</pdfrwt>
<totfact> 0.24944283E+04</totfact>
</mgrwt>
</event>
<event>
 4    1  0.4837985E-002  0.4767369E+02  0.7818608E-02  0.1458309E+00
         -2   -1    0    0  501    0 -0.00000000000E+00  0.00000000000E+00  0.16228623604E+02  0.16228623804E+02  0.25500000000E-02 0.  1.
          2   -1    0    0    0  501  0.00000000000E+00 -0.00000000000E+00 -0.35011910257E+02  0.35011910350E+02  0.25500000000E-02 0.  1.
          2    1    1    2    0  502 -0.31968499737E+01  0.23179100693E+02 -0.14282307687E+02  0.27413042116E+02  0.25500000000E-02 0. -1.
         -2    1    1    2  502    0  0.31968499737E+01 -0.23179100693E+02 -0.45009789656E+01  0.23827492038E+02  0.25500000000E-02 0. -1.
<mgrwt>
<rscale>  0 0.47673688E+02</rscale>
<asrwt>0</asrwt>
<pdfrwt beam="2">  1        2 0.53864477E-02 0.47673688E+02</pdfrwt>
<pdfrwt beam="1">  1       -2 0.24967114E-02 0.47673688E+02</pdfrwt>
<totfact> 0.54476605E+05</totfact>
</mgrwt>
</event>
<event>
 4    1  0.4837985E-002  0.8583235E+02  0.7818608E-02  0.1313270E+00
         -2   -1    0    0  501    0 -0.00000000000E+00  0.00000000000E+00  0.38912506132E+02  0.38912506216E+02  0.25500000000E-02 0. -1.
          2   -1    0    0    0  501  0.00000000000E+00 -0.00000000000E+00 -0.47331774942E+02  0.47331775011E+02  0.25500000000E-02 0. -1.
          2    1    1    2    0  502 -0.28411628443E+01 -0.38733500692E+02 -0.22557657169E+02  0.44913296312E+02  0.25500000000E-02 0.  1.
         -2    1    1    2  502    0  0.28411628443E+01  0.38733500692E+02  0.14138388358E+02  0.41330984915E+02  0.25500000000E-02 0.  1.
<mgrwt>
<rscale>  0 0.85832348E+02</rscale>
<asrwt>0</asrwt>
<pdfrwt beam="2">  1        2 0.72818116E-02 0.85832348E+02</pdfrwt>
<pdfrwt beam="1">  1       -2 0.59865394E-02 0.85832348E+02</pdfrwt>
<totfact> 0.11831103E+05</totfact>
</mgrwt>
</event>
<event>
 4    1  0.4837985E-002  0.4831197E+02  0.7818608E-02  0.1454665E+00
         -2   -1    0    0  501    0 -0.00000000000E+00  0.00000000000E+00  0.28445680100E+02  0.28445680214E+02  0.25500000000E-02 0. -1.
          2   -1    0    0    0  501  0.00000000000E+00 -0.00000000000E+00 -0.20513186017E+02  0.20513186175E+02  0.25500000000E-02 0. -1.
          2    1    1    2    0  502 -0.16222518285E+02 -0.15518236843E+02 -0.50708829826E+01  0.23015204430E+02  0.25500000000E-02 0.  1.
         -2    1    1    2  502    0  0.16222518285E+02  0.15518236843E+02  0.13003377066E+02  0.25943661959E+02  0.25500000000E-02 0.  1.
<mgrwt>
<rscale>  0 0.48311967E+02</rscale>
<asrwt>0</asrwt>
<pdfrwt beam="2">  1        2 0.31558748E-02 0.48311967E+02</pdfrwt>
<pdfrwt beam="1">  1       -2 0.43762584E-02 0.48311967E+02</pdfrwt>
<totfact> 0.48427438E+05</totfact>
</mgrwt>
</event>
<event>
 4    1  0.4837985E-002  0.6094764E+02  0.7818608E-02  0.1393897E+00
          2   -1    0    0    0  501  0.00000000000E+00  0.00000000000E+00  0.11748473884E+04  0.11748473884E+04  0.25500000000E-02 0. -1.
         -2   -1    0    0  501    0 -0.00000000000E+00 -0.00000000000E+00 -0.79044429161E+00  0.79044840479E+00  0.25500000000E-02 0. -1.
          2    1    1    2    0  502  0.24039057791E+02  0.17216835768E+02  0.72924456107E+03  0.72984376793E+03  0.25500000000E-02 0.  1.
         -2    1    1    2  502    0 -0.24039057791E+02 -0.17216835768E+02  0.44481238305E+03  0.44579406889E+03  0.25500000000E-02 0.  1.
<mgrwt>
<rscale>  0 0.60947644E+02</rscale>
<asrwt>0</asrwt>
<pdfrwt beam="1">  1        2 0.18074605E+00 0.60947644E+02</pdfrwt>
<pdfrwt beam="2">  1       -2 0.12160693E-03 0.60947644E+02</pdfrwt>
<totfact> 0.70419783E+05</totfact>
</mgrwt>
</event>
<event>
 4    1  0.4837985E-002  0.5554002E+02  0.7818608E-02  0.1417562E+00
          2   -1    0    0    0  501  0.00000000000E+00  0.00000000000E+00  0.11440058510E+03  0.11440058513E+03  0.25500000000E-02 0.  1.
         -2   -1    0    0  501    0 -0.00000000000E+00 -0.00000000000E+00 -0.67409930492E+01  0.67409935315E+01  0.25500000000E-02 0.  1.
          2    1    1    2    0  502  0.11799440741E+02 -0.24612996037E+02  0.42676589673E+02  0.50658836231E+02  0.25500000000E-02 0.  1.
         -2    1    1    2  502    0 -0.11799440741E+02  0.24612996037E+02  0.64983002375E+02  0.70482742425E+02  0.25500000000E-02 0.  1.
<mgrwt>
<rscale>  0 0.55540024E+02</rscale>
<asrwt>0</asrwt>
<pdfrwt beam="1">  1        2 0.17600091E-01 0.55540024E+02</pdfrwt>
<pdfrwt beam="2">  1       -2 0.10370759E-02 0.55540024E+02</pdfrwt>
<totfact> 0.47508521E+05</totfact>
</mgrwt>
</event>
<event>
 4    1  0.4837985E-002  0.5610583E+02  0.7818608E-02  0.1414941E+00
         -2   -1    0    0  501    0 -0.00000000000E+00  0.00000000000E+00  0.41389493168E+02  0.41389493247E+02  0.25500000000E-02 0.  1.
          2   -1    0    0    0  501  0.00000000000E+00 -0.00000000000E+00 -0.19013664875E+02  0.19013665046E+02  0.25500000000E-02 0.  1.
          2    1    1    2    0  502 -0.10857674825E+01  0.26236717164E+02  0.56167446759E+00  0.26265180435E+02  0.25500000000E-02 0. -1.
         -2    1    1    2  502    0  0.10857674825E+01 -0.26236717164E+02  0.21814153825E+02  0.34137977857E+02  0.25500000000E-02 0. -1.
<mgrwt>
<rscale>  0 0.56105827E+02</rscale>
<asrwt>0</asrwt>
<pdfrwt beam="2">  1        2 0.29251792E-02 0.56105827E+02</pdfrwt>
<pdfrwt beam="1">  1       -2 0.63676144E-02 0.56105827E+02</pdfrwt>
<totfact> 0.31975696E+05</totfact>
</mgrwt>
</event>
<event>
 4    1  0.4837985E-002  0.5732549E+02  0.7818608E-02  0.1409411E+00
         -2   -1    0    0  501    0 -0.00000000000E+00  0.00000000000E+00  0.11698048748E+01  0.11698076541E+01  0.25500000000E-02 0. -1.
          2   -1    0    0    0  501  0.00000000000E+00 -0.00000000000E+00 -0.70229832129E+03  0.70229832130E+03  0.25500000000E-02 0. -1.
          2    1    1    2    0  502 -0.11767215091E+01  0.21995762499E+02 -0.12550576155E+03  0.12742407320E+03  0.25500000000E-02 0.  1.
         -2    1    1    2  502    0  0.11767215091E+01 -0.21995762499E+02 -0.57562275487E+03  0.57604405575E+03  0.25500000000E-02 0.  1.
<mgrwt>
<rscale>  0 0.57325491E+02</rscale>
<asrwt>0</asrwt>
<pdfrwt beam="2">  1        2 0.10804556E+00 0.57325491E+02</pdfrwt>
<pdfrwt beam="1">  1       -2 0.17997076E-03 0.57325491E+02</pdfrwt>
<totfact> 0.78360618E+05</totfact>
</mgrwt>
</event>
<event>
 4    1  0.4837985E-002  0.6104906E+02  0.7818608E-02  0.1393481E+00
         -2   -1    0    0  501    0 -0.00000000000E+00  0.00000000000E+00  0.24718706054E+01  0.24718719207E+01  0.25500000000E-02 0.  1.
          2   -1    0    0    0  501  0.00000000000E+00 -0.00000000000E+00 -0.37693994850E+03  0.37693994850E+03  0.25500000000E-02 0.  1.
          2    1    1    2    0  502  0.98735651776E+01  0.28640450988E+02 -0.21047490126E+03  0.21264394369E+03  0.25500000000E-02 0.  1.
         -2    1    1    2  502    0 -0.98735651776E+01 -0.28640450988E+02 -0.16399317663E+03  0.16676787673E+03  0.25500000000E-02 0.  1.
<mgrwt>
<rscale>  0 0.61049063E+02</rscale>
<asrwt>0</asrwt>
<pdfrwt beam="2">  1        2 0.57990716E-01 0.61049063E+02</pdfrwt>
<pdfrwt beam="1">  1       -2 0.38028819E-03 0.61049063E+02</pdfrwt>
<totfact> 0.55436140E+05</totfact>
</mgrwt>
</event>
<event>
 4    1  0.4837985E-002  0.7527770E+02  0.7818608E-02  0.1343013E+00
          2   -1    0    0    0  501  0.00000000000E+00  0.00000000000E+00  0.43004594392E+03  0.43004594393E+03  0.25500000000E-02 0. -1.
         -2   -1    0    0  501    0 -0.00000000000E+00 -0.00000000000E+00 -0.32942594489E+01  0.32942604359E+01  0.25500000000E-02 0. -1.
          2    1    1    2    0  502 -0.24636136377E+02  0.15078642080E+02  0.74455680872E+02  0.79862087897E+02  0.25500000000E-02 0.  1.
         -2    1    1    2  502    0  0.24636136377E+02 -0.15078642080E+02  0.35229600360E+03  0.35347811647E+03  0.25500000000E-02 0.  1.
<mgrwt>
<rscale>  0 0.75277703E+02</rscale>
<asrwt>0</asrwt>
<pdfrwt beam="1">  1        2 0.66160910E-01 0.75277703E+02</pdfrwt>
<pdfrwt beam="2">  1       -2 0.50680926E-03 0.75277703E+02</pdfrwt>
<totfact> 0.33866701E+05</totfact>
</mgrwt>
</event>
<event>
 4    1  0.4837985E-002  0.5837825E+02  0.7818608E-02  0.1404766E+00
         -2   -1    0    0  501    0 -0.00000000000E+00  0.00000000000E+00  0.82207734294E+00  0.82208129785E+00  0.25500000000E-02 0.  1.
          2   -1    0    0    0  501  0.00000000000E+00 -0.00000000000E+00 -0.10364024094E+04  0.10364024094E+04  0.25500000000E-02 0.  1.
          2    1    1    2    0  502 -0.67731217117E+00  0.26684343104E+02 -0.72763411547E+03  0.72812356020E+03  0.25500000000E-02 0.  1.
         -2    1    1    2  502    0  0.67731217117E+00 -0.26684343104E+02 -0.30794621658E+03  0.30910093049E+03  0.25500000000E-02 0.  1.
<mgrwt>
<rscale>  0 0.58378249E+02</rscale>
<asrwt>0</asrwt>
<pdfrwt beam="2">  1        2 0.15944548E+00 0.58378249E+02</pdfrwt>
<pdfrwt beam="1">  1       -2 0.12647457E-03 0.58378249E+02</pdfrwt>
<totfact> 0.78816414E+05</totfact>
</mgrwt>
</event>
<event>
 4    1  0.4837985E-002  0.5953295E+02  0.7818608E-02  0.1399802E+00
          2   -1    0    0    0  501  0.00000000000E+00  0.00000000000E+00  0.16619885830E+02  0.16619886025E+02  0.25500000000E-02 0.  1.
         -2   -1    0    0  501    0 -0.00000000000E+00 -0.00000000000E+00 -0.53312212421E+02  0.53312212482E+02  0.25500000000E-02 0.  1.
          2    1    1    2    0  502 -0.15112531529E+01 -0.24871717946E+02 -0.37474202391E+02  0.45002245400E+02  0.25500000000E-02 0.  1.
         -2    1    1    2  502    0  0.15112531529E+01  0.24871717946E+02  0.78187579949E+00  0.24929853108E+02  0.25500000000E-02 0.  1.
<mgrwt>
<rscale>  0 0.59532945E+02</rscale>
<asrwt>0</asrwt>
<pdfrwt beam="1">  1        2 0.25569055E-02 0.59532945E+02</pdfrwt>
<pdfrwt beam="2">  1       -2 0.82018788E-02 0.59532945E+02</pdfrwt>
<totfact> 0.26460438E+05</totfact>
</mgrwt>
</event>
<event>
 4    1  0.4837985E-002  0.5669056E+02  0.7818608E-02  0.1412269E+00
         -2   -1    0    0  501    0 -0.00000000000E+00  0.00000000000E+00  0.40159275387E+01  0.40159283483E+01  0.25500000000E-02 0. -1.
          2   -1    0    0    0  501  0.00000000000E+00 -0.00000000000E+00 -0.20006702601E+03  0.20006702602E+03  0.25500000000E-02 0. -1.
          2    1    1    2    0  502 -0.20453117548E+02  0.16980965071E+02 -0.62611963377E+02  0.68021622713E+02  0.25500000000E-02 0.  1.
         -2    1    1    2  502    0  0.20453117548E+02 -0.16980965071E+02 -0.13343913509E+03  0.13606133166E+03  0.25500000000E-02 0.  1.
<mgrwt>
<rscale>  0 0.56690555E+02</rscale>
<asrwt>0</asrwt>
<pdfrwt beam="2">  1        2 0.30779535E-01 0.56690555E+02</pdfrwt>
<pdfrwt beam="1">  1       -2 0.61783523E-03 0.56690555E+02</pdfrwt>
<totfact> 0.53629544E+05</totfact>
</mgrwt>
</event>
<event>
 4    1  0.4837985E-002  0.7721118E+02  0.7818608E-02  0.1337157E+00
          2   -1    0    0    0  501  0.00000000000E+00  0.00000000000E+00  0.40973709463E+03  0.40973709464E+03  0.25500000000E-02 0. -1.
         -2   -1    0    0  501    0 -0.00000000000E+00 -0.00000000000E+00 -0.36374337199E+01  0.36374346137E+01  0.25500000000E-02 0. -1.
          2    1    1    2    0  502  0.57766902182E+01  0.27918856478E+02  0.63690174339E+02  0.69780162014E+02  0.25500000000E-02 0.  1.
         -2    1    1    2  502    0 -0.57766902182E+01 -0.27918856478E+02  0.34240948657E+03  0.34359436724E+03  0.25500000000E-02 0.  1.
<mgrwt>
<rscale>  0 0.77211183E+02</rscale>
<asrwt>0</asrwt>
<pdfrwt beam="1">  1        2 0.63036492E-01 0.77211183E+02</pdfrwt>
<pdfrwt beam="2">  1       -2 0.55960511E-03 0.77211183E+02</pdfrwt>
<totfact> 0.31177325E+05</totfact>
</mgrwt>
</event>
<event>
 4    1  0.4837985E-002  0.4343867E+02  0.7818608E-02  0.1484331E+00
         -2   -1    0    0  501    0 -0.00000000000E+00  0.00000000000E+00  0.39270651914E+02  0.39270651997E+02  0.25500000000E-02 0. -1.
          2   -1    0    0    0  501  0.00000000000E+00 -0.00000000000E+00 -0.12012265437E+02  0.12012265708E+02  0.25500000000E-02 0. -1.
          2    1    1    2    0  502  0.16061304490E+02 -0.13494496463E+02  0.20272269333E+02  0.29172450139E+02  0.25500000000E-02 0.  1.
         -2    1    1    2  502    0 -0.16061304490E+02  0.13494496463E+02  0.69861171436E+01  0.22110467565E+02  0.25500000000E-02 0.  1.
<mgrwt>
<rscale>  0 0.43438670E+02</rscale>
<asrwt>0</asrwt>
<pdfrwt beam="2">  1        2 0.18480409E-02 0.43438670E+02</pdfrwt>
<pdfrwt beam="1">  1       -2 0.60416388E-02 0.43438670E+02</pdfrwt>
<totfact> 0.59287276E+05</totfact>
</mgrwt>
</event>
<event>
 4    1  0.4837985E-002  0.4165295E+02  0.7818608E-02  0.1496388E+00
         -2   -1    0    0  501    0 -0.00000000000E+00  0.00000000000E+00  0.42287585686E+01  0.42287593375E+01  0.25500000000E-02 0. -1.
          2   -1    0    0    0  501  0.00000000000E+00 -0.00000000000E+00 -0.10256956734E+03  0.10256956737E+03  0.25500000000E-02 0. -1.
          2    1    1    2    0  502 -0.82456914328E+01 -0.18604224321E+02 -0.60531397490E+02  0.63860462560E+02  0.25500000000E-02 0. -1.
         -2    1    1    2  502    0  0.82456914328E+01  0.18604224321E+02 -0.37809411284E+02  0.42937864151E+02  0.25500000000E-02 0. -1.
<mgrwt>
<rscale>  0 0.41652946E+02</rscale>
<asrwt>0</asrwt>
<pdfrwt beam="2">  1        2 0.15779932E-01 0.41652946E+02</pdfrwt>
<pdfrwt beam="1">  1       -2 0.65057838E-03 0.41652946E+02</pdfrwt>
<totfact> 0.95173123E+05</totfact>
</mgrwt>
</event>
<event>
 4    1  0.4837985E-002  0.6570447E+02  0.7818608E-02  0.1375341E+00
          2   -1    0    0    0  501  0.00000000000E+00  0.00000000000E+00  0.96994779322E+02  0.96994779355E+02  0.25500000000E-02 0.  1.
         -2   -1    0    0  501    0 -0.00000000000E+00 -0.00000000000E+00 -0.11127086517E+02  0.11127086809E+02  0.25500000000E-02 0.  1.
          2    1    1    2    0  502  0.24363482982E+02  0.15993467712E+02  0.67884800810E+02  0.73876359547E+02  0.25500000000E-02 0.  1.
         -2    1    1    2  502    0 -0.24363482982E+02 -0.15993467712E+02  0.17982891995E+02  0.34245506617E+02  0.25500000000E-02 0.  1.
<mgrwt>
<rscale>  0 0.65704469E+02</rscale>
<asrwt>0</asrwt>
<pdfrwt beam="1">  1        2 0.14922274E-01 0.65704469E+02</pdfrwt>
<pdfrwt beam="2">  1       -2 0.17118594E-02 0.65704469E+02</pdfrwt>
<totfact> 0.29349828E+05</totfact>
</mgrwt>
</event>
<event>
 4    1  0.4837985E-002  0.7893856E+02  0.7818608E-02  0.1332091E+00
         -2   -1    0    0  501    0 -0.00000000000E+00  0.00000000000E+00  0.35042810536E+01  0.35042819814E+01  0.25500000000E-02 0.  1.
          2   -1    0    0    0  501  0.00000000000E+00 -0.00000000000E+00 -0.44454873400E+03  0.44454873400E+03  0.25500000000E-02 0.  1.
          2    1    1    2    0  502  0.22821617716E+02 -0.42261796142E+01 -0.40172153143E+03  0.40239144580E+03  0.25500000000E-02 0. -1.
         -2    1    1    2  502    0 -0.22821617716E+02  0.42261796142E+01 -0.39322921514E+02  0.45661570190E+02  0.25500000000E-02 0. -1.
<mgrwt>
<rscale>  0 0.78938556E+02</rscale>
<asrwt>0</asrwt>
<pdfrwt beam="2">  1        2 0.68392068E-01 0.78938556E+02</pdfrwt>
<pdfrwt beam="1">  1       -2 0.53912059E-03 0.78938556E+02</pdfrwt>
<totfact> 0.30266625E+05</totfact>
</mgrwt>
</event>
<event>
 4    1  0.4837985E-002  0.1152342E+03  0.7818608E-02  0.1251173E+00
         -2   -1    0    0  501    0 -0.00000000000E+00  0.00000000000E+00  0.15611113612E+02  0.15611113820E+02  0.25500000000E-02 0.  1.
          2   -1    0    0    0  501  0.00000000000E+00 -0.00000000000E+00 -0.21265179291E+03  0.21265179293E+03  0.25500000000E-02 0.  1.
          2    1    1    2    0  502 -0.29205792137E+02  0.53553711478E+01 -0.19632898277E+03  0.19856164730E+03  0.25500000000E-02 0. -1.
         -2    1    1    2  502    0  0.29205792137E+02 -0.53553711478E+01 -0.71169652777E+00  0.29701259450E+02  0.25500000000E-02 0. -1.
<mgrwt>
<rscale>  0 0.11523422E+03</rscale>
<asrwt>0</asrwt>
<pdfrwt beam="2">  1        2 0.32715658E-01 0.11523422E+03</pdfrwt>
<pdfrwt beam="1">  1       -2 0.24017100E-02 0.11523422E+03</pdfrwt>
<totfact> 0.83496506E+04</totfact>
</mgrwt>
</event>
<event>
 4    1  0.4837985E-002  0.4136927E+02  0.7818608E-02  0.1498370E+00
          2   -1    0    0    0  501  0.00000000000E+00  0.00000000000E+00  0.25775799246E+02  0.25775799373E+02  0.25500000000E-02 0. -1.
         -2   -1    0    0  501    0 -0.00000000000E+00 -0.00000000000E+00 -0.16599059524E+02  0.16599059720E+02  0.25500000000E-02 0. -1.
          2    1    1    2    0  502 -0.18632961284E+02 -0.87521940414E+01  0.66537866867E+01  0.21634718175E+02  0.25500000000E-02 0.  1.
         -2    1    1    2  502    0  0.18632961284E+02  0.87521940414E+01  0.25229530356E+01  0.20740140917E+02  0.25500000000E-02 0.  1.
<mgrwt>
<rscale>  0 0.41369266E+02</rscale>
<asrwt>0</asrwt>
<pdfrwt beam="1">  1        2 0.39655076E-02 0.41369266E+02</pdfrwt>
<pdfrwt beam="2">  1       -2 0.25537015E-02 0.41369266E+02</pdfrwt>
<totfact> 0.74853267E+05</totfact>
</mgrwt>
</event>
<event>
 4    1  0.4837985E-002  0.2528013E+03  0.7818608E-02  0.1111547E+00
          2   -1    0    0    0  501  0.00000000000E+00  0.00000000000E+00  0.33342400573E+03  0.33342400574E+03  0.25500000000E-02 0.  1.
         -2   -1    0    0  501    0 -0.00000000000E+00 -0.00000000000E+00 -0.47918355888E+02  0.47918355956E+02  0.25500000000E-02 0.  1.
          2    1    1    2    0  502 -0.40511559682E+02  0.11793867407E+03  0.17390230630E+03  0.21399235839E+03  0.25500000000E-02 0.  1.
         -2    1    1    2  502    0  0.40511559682E+02 -0.11793867407E+03  0.11160334355E+03  0.16735000330E+03  0.25500000000E-02 0.  1.
<mgrwt>
<rscale>  0 0.25280135E+03</rscale>
<asrwt>0</asrwt>
<pdfrwt beam="1">  1        2 0.51296000E-01 0.25280135E+03</pdfrwt>
<pdfrwt beam="2">  1       -2 0.73720548E-02 0.25280135E+03</pdfrwt>
<totfact> 0.10340792E+04</totfact>
</mgrwt>
</event>
<event>
 4    1  0.4837985E-002  0.6067166E+02  0.7818608E-02  0.1395035E+00
          2   -1    0    0    0  501  0.00000000000E+00  0.00000000000E+00  0.50327100837E+02  0.50327100902E+02  0.25500000000E-02 0. -1.
         -2   -1    0    0  501    0 -0.00000000000E+00 -0.00000000000E+00 -0.18285624596E+02  0.18285624773E+02  0.25500000000E-02 0. -1.
          2    1    1    2    0  502  0.18993262388E+02  0.23599441155E+02  0.17838911489E+02  0.35155432135E+02  0.25500000000E-02 0. -1.
         -2    1    1    2  502    0 -0.18993262388E+02 -0.23599441155E+02  0.14202564753E+02  0.33457293540E+02  0.25500000000E-02 0. -1.
<mgrwt>
<rscale>  0 0.60671657E+02</rscale>
<asrwt>0</asrwt>
<pdfrwt beam="1">  1        2 0.77426309E-02 0.60671657E+02</pdfrwt>
<pdfrwt beam="2">  1       -2 0.28131730E-02 0.60671657E+02</pdfrwt>
<totfact> 0.30989089E+05</totfact>
</mgrwt>
</event>
<event>
 4    1  0.4837985E-002  0.4671509E+02  0.7818608E-02  0.1463910E+00
          2   -1    0    0    0  501  0.00000000000E+00  0.00000000000E+00  0.92286069181E+03  0.92286069182E+03  0.25500000000E-02 0.  1.
         -2   -1    0    0  501    0 -0.00000000000E+00 -0.00000000000E+00 -0.59117524825E+00  0.59118074786E+00  0.25500000000E-02 0.  1.
          2    1    1    2    0  502 -0.11213000950E+02  0.20488678862E+02  0.45639127425E+03  0.45698852564E+03  0.25500000000E-02 0.  1.
         -2    1    1    2  502    0  0.11213000950E+02 -0.20488678862E+02  0.46587824232E+03  0.46646334692E+03  0.25500000000E-02 0.  1.
<mgrwt>
<rscale>  0 0.46715091E+02</rscale>
<asrwt>0</asrwt>
<pdfrwt beam="1">  1        2 0.14197842E+00 0.46715091E+02</pdfrwt>
<pdfrwt beam="2">  1       -2 0.90950559E-04 0.46715091E+02</pdfrwt>
<totfact> 0.13606490E+06</totfact>
</mgrwt>
</event>
<event>
 4    1  0.4837985E-002  0.2081446E+03  0.7818608E-02  0.1143044E+00
          2   -1    0    0    0  501  0.00000000000E+00  0.00000000000E+00  0.95261505539E+03  0.95261505539E+03  0.25500000000E-02 0. -1.
         -2   -1    0    0  501    0 -0.00000000000E+00 -0.00000000000E+00 -0.11369802358E+02  0.11369802644E+02  0.25500000000E-02 0. -1.
          2    1    1    2    0  502  0.65226480011E+02  0.57066644160E+02  0.73747481704E+03  0.74254979722E+03  0.25500000000E-02 0.  1.
         -2    1    1    2  502    0 -0.65226480011E+02 -0.57066644160E+02  0.20377043599E+03  0.22143506082E+03  0.25500000000E-02 0.  1.
<mgrwt>
<rscale>  0 0.20814461E+03</rscale>
<asrwt>0</asrwt>
<pdfrwt beam="1">  1        2 0.14655617E+00 0.20814461E+03</pdfrwt>
<pdfrwt beam="2">  1       -2 0.17492002E-02 0.20814461E+03</pdfrwt>
<totfact> 0.25932532E+04</totfact>
</mgrwt>
</event>
<event>
 4    1  0.4837985E-002  0.5995858E+02  0.7818608E-02  0.1398006E+00
         -2   -1    0    0  501    0 -0.00000000000E+00  0.00000000000E+00  0.73630223052E+03  0.73630223052E+03  0.25500000000E-02 0.  1.
          2   -1    0    0    0  501  0.00000000000E+00 -0.00000000000E+00 -0.12206358227E+01  0.12206384863E+01  0.25500000000E-02 0.  1.
          2    1    1    2    0  502 -0.21658796464E+02  0.18320203330E+02  0.48681451540E+03  0.48764034465E+03  0.25500000000E-02 0.  1.
         -2    1    1    2  502    0  0.21658796464E+02 -0.18320203330E+02  0.24826707929E+03  0.24988252436E+03  0.25500000000E-02 0.  1.
<mgrwt>
<rscale>  0 0.59958581E+02</rscale>
<asrwt>0</asrwt>
<pdfrwt beam="2">  1        2 0.18779052E-03 0.59958581E+02</pdfrwt>
<pdfrwt beam="1">  1       -2 0.11327715E+00 0.59958581E+02</pdfrwt>
<totfact> 0.75424755E+04</totfact>
</mgrwt>
</event>
<event>
 4    1  0.4837985E-002  0.1284760E+03  0.7818608E-02  0.1229735E+00
         -2   -1    0    0  501    0 -0.00000000000E+00  0.00000000000E+00  0.16940353598E+01  0.16940372790E+01  0.25500000000E-02 0. -1.
          2   -1    0    0    0  501  0.00000000000E+00 -0.00000000000E+00 -0.24359103651E+04  0.24359103651E+04  0.25500000000E-02 0. -1.
          2    1    1    2    0  502  0.32838553145E+02 -0.54786534591E+02 -0.10876088583E+04  0.10894828882E+04  0.25500000000E-02 0. -1.
         -2    1    1    2  502    0 -0.32838553145E+02  0.54786534591E+02 -0.13466074714E+04  0.13481215142E+04  0.25500000000E-02 0. -1.
<mgrwt>
<rscale>  0 0.12847600E+03</rscale>
<asrwt>0</asrwt>
<pdfrwt beam="2">  1        2 0.37475264E+00 0.12847600E+03</pdfrwt>
<pdfrwt beam="1">  1       -2 0.26062292E-03 0.12847600E+03</pdfrwt>
<totfact> 0.61444277E+04</totfact>
</mgrwt>
</event>
<event>
 4    1  0.4837985E-002  0.8997693E+02  0.7818608E-02  0.1302908E+00
         -2   -1    0    0  501    0 -0.00000000000E+00  0.00000000000E+00  0.21956769194E+01  0.21956784001E+01  0.25500000000E-02 0. -1.
          2   -1    0    0    0  501  0.00000000000E+00 -0.00000000000E+00 -0.92179376510E+03  0.92179376511E+03  0.25500000000E-02 0. -1.
          2    1    1    2    0  502 -0.23740366462E+02 -0.29654008946E+02 -0.21227198508E+03  0.21564406067E+03  0.25500000000E-02 0. -1.
         -2    1    1    2  502    0  0.23740366462E+02  0.29654008946E+02 -0.70732610310E+03  0.70834538283E+03  0.25500000000E-02 0. -1.
<mgrwt>
<rscale>  0 0.89976930E+02</rscale>
<asrwt>0</asrwt>
<pdfrwt beam="2">  1        2 0.14181412E+00 0.89976930E+02</pdfrwt>
<pdfrwt beam="1">  1       -2 0.33779730E-03 0.89976930E+02</pdfrwt>
<totfact> 0.25738518E+05</totfact>
</mgrwt>
</event>
<event>
 4    1  0.4837985E-002  0.8034171E+02  0.7818608E-02  0.1328085E+00
         -2   -1    0    0  501    0 -0.00000000000E+00  0.00000000000E+00  0.37419528243E+01  0.37419536931E+01  0.25500000000E-02 0. -1.
          2   -1    0    0    0  501  0.00000000000E+00 -0.00000000000E+00 -0.43124468677E+03  0.43124468678E+03  0.25500000000E-02 0. -1.
          2    1    1    2    0  502 -0.39085561756E+02 -0.22564550646E+01 -0.16504614849E+03  0.16962607071E+03  0.25500000000E-02 0.  1.
         -2    1    1    2  502    0  0.39085561756E+02  0.22564550646E+01 -0.26245658546E+03  0.26536056977E+03  0.25500000000E-02 0.  1.
<mgrwt>
<rscale>  0 0.80341707E+02</rscale>
<asrwt>0</asrwt>
<pdfrwt beam="2">  1        2 0.66345297E-01 0.80341707E+02</pdfrwt>
<pdfrwt beam="1">  1       -2 0.57568546E-03 0.80341707E+02</pdfrwt>
<totfact> 0.28605669E+05</totfact>
</mgrwt>
</event>
<event>
 4    1  0.4837985E-002  0.6691094E+02  0.7818608E-02  0.1370924E+00
         -2   -1    0    0  501    0 -0.00000000000E+00  0.00000000000E+00  0.17253250066E+03  0.17253250068E+03  0.25500000000E-02 0.  1.
          2   -1    0    0    0  501  0.00000000000E+00 -0.00000000000E+00 -0.64872911600E+01  0.64872916612E+01  0.25500000000E-02 0.  1.
          2    1    1    2    0  502 -0.27275810842E+02 -0.19370168743E+02  0.83848600912E+02  0.90276027691E+02  0.25500000000E-02 0. -1.
         -2    1    1    2  502    0  0.27275810842E+02  0.19370168743E+02  0.82196608591E+02  0.88743764652E+02  0.25500000000E-02 0. -1.
<mgrwt>
<rscale>  0 0.66910944E+02</rscale>
<asrwt>0</asrwt>
<pdfrwt beam="2">  1        2 0.99804482E-03 0.66910944E+02</pdfrwt>
<pdfrwt beam="1">  1       -2 0.26543462E-01 0.66910944E+02</pdfrwt>
<totfact> 0.14485857E+05</totfact>
</mgrwt>
</event>
<event>
 4    1  0.4837985E-002  0.4496231E+02  0.7818608E-02  0.1474577E+00
          2   -1    0    0    0  501  0.00000000000E+00  0.00000000000E+00  0.56753449175E+02  0.56753449232E+02  0.25500000000E-02 0. -1.
         -2   -1    0    0  501    0 -0.00000000000E+00 -0.00000000000E+00 -0.89052268620E+01  0.89052272271E+01  0.25500000000E-02 0. -1.
          2    1    1    2    0  502 -0.22366351220E+02  0.19672062491E+01  0.22272752378E+02  0.31625924055E+02  0.25500000000E-02 0.  1.
         -2    1    1    2  502    0  0.22366351220E+02 -0.19672062491E+01  0.25575469935E+02  0.34032752404E+02  0.25500000000E-02 0.  1.
<mgrwt>
<rscale>  0 0.44962311E+02</rscale>
<asrwt>0</asrwt>
<pdfrwt beam="1">  1        2 0.87312998E-02 0.44962311E+02</pdfrwt>
<pdfrwt beam="2">  1       -2 0.13700349E-02 0.44962311E+02</pdfrwt>
<totfact> 0.68898684E+05</totfact>
</mgrwt>
</event>
<event>
 4    1  0.4837985E-002  0.4910195E+02  0.7818608E-02  0.1450246E+00
          2   -1    0    0    0  501  0.00000000000E+00  0.00000000000E+00  0.24849640763E+01  0.24849653847E+01  0.25500000000E-02 0.  1.
         -2   -1    0    0  501    0 -0.00000000000E+00 -0.00000000000E+00 -0.24255891061E+03  0.24255891063E+03  0.25500000000E-02 0.  1.
          2    1    1    2    0  502  0.18003909682E+02  0.14548230485E+02 -0.16087344198E+03  0.16253016986E+03  0.25500000000E-02 0. -1.
         -2    1    1    2  502    0 -0.18003909682E+02 -0.14548230485E+02 -0.79200504556E+02  0.82513706149E+02  0.25500000000E-02 0. -1.
<mgrwt>
<rscale>  0 0.49101949E+02</rscale>
<asrwt>0</asrwt>
<pdfrwt beam="1">  1        2 0.38230246E-03 0.49101949E+02</pdfrwt>
<pdfrwt beam="2">  1       -2 0.37316737E-01 0.49101949E+02</pdfrwt>
<totfact> 0.27068800E+05</totfact>
</mgrwt>
</event>
<event>
 4    1  0.4837985E-002  0.8021131E+02  0.7818608E-02  0.1328453E+00
          2   -1    0    0    0  501  0.00000000000E+00  0.00000000000E+00  0.22663124651E+04  0.22663124651E+04  0.25500000000E-02 0.  1.
         -2   -1    0    0  501    0 -0.00000000000E+00 -0.00000000000E+00 -0.70972480681E+00  0.70972938779E+00  0.25500000000E-02 0.  1.
          2    1    1    2    0  502 -0.21243897985E+02 -0.16543570062E+02  0.19728727772E+04  0.19730565091E+04  0.25500000000E-02 0. -1.
         -2    1    1    2  502    0  0.21243897985E+02  0.16543570062E+02  0.29272996303E+03  0.29396568537E+03  0.25500000000E-02 0. -1.
<mgrwt>
<rscale>  0 0.80211305E+02</rscale>
<asrwt>0</asrwt>
<pdfrwt beam="1">  1        2 0.34866482E+00 0.80211305E+02</pdfrwt>
<pdfrwt beam="2">  1       -2 0.10918836E-03 0.80211305E+02</pdfrwt>
<totfact> 0.24026983E+05</totfact>
</mgrwt>
</event>
<event>
 4    1  0.4837985E-002  0.8591647E+02  0.7818608E-02  0.1313053E+00
         -2   -1    0    0  501    0 -0.00000000000E+00  0.00000000000E+00  0.23344268214E+04  0.23344268214E+04  0.25500000000E-02 0. -1.
          2   -1    0    0    0  501  0.00000000000E+00 -0.00000000000E+00 -0.79051738547E+00  0.79052149827E+00  0.25500000000E-02 0. -1.
          2    1    1    2    0  502  0.40999456848E+02 -0.80189565732E+01  0.89481257687E+03  0.89578725536E+03  0.25500000000E-02 0. -1.
         -2    1    1    2  502    0 -0.40999456848E+02  0.80189565732E+01  0.14388237271E+04  0.14394300875E+04  0.25500000000E-02 0. -1.
<mgrwt>
<rscale>  0 0.85916466E+02</rscale>
<asrwt>0</asrwt>
<pdfrwt beam="2">  1        2 0.12162140E-03 0.85916466E+02</pdfrwt>
<pdfrwt beam="1">  1       -2 0.35913367E+00 0.85916466E+02</pdfrwt>
<totfact> 0.42084961E+03</totfact>
</mgrwt>
</event>
<event>
 4    1  0.4837985E-002  0.8856070E+02  0.7818608E-02  0.1306375E+00
         -2   -1    0    0  501    0 -0.00000000000E+00  0.00000000000E+00  0.55066590907E+01  0.55066596811E+01  0.25500000000E-02 0. -1.
          2   -1    0    0    0  501  0.00000000000E+00 -0.00000000000E+00 -0.35606873567E+03  0.35606873568E+03  0.25500000000E-02 0. -1.
          2    1    1    2    0  502 -0.91128964353E+01  0.33953330876E+02 -0.28520430111E+03  0.28736277932E+03  0.25500000000E-02 0. -1.
         -2    1    1    2  502    0  0.91128964353E+01 -0.33953330876E+02 -0.65357775464E+02  0.74212616038E+02  0.25500000000E-02 0. -1.
<mgrwt>
<rscale>  0 0.88560697E+02</rscale>
<asrwt>0</asrwt>
<pdfrwt beam="2">  1        2 0.54779788E-01 0.88560697E+02</pdfrwt>
<pdfrwt beam="1">  1       -2 0.84717864E-03 0.88560697E+02</pdfrwt>
<totfact> 0.20677175E+05</totfact>
</mgrwt>
</event>
<event>
 4    1  0.4837985E-002  0.6579318E+02  0.7818608E-02  0.1375012E+00
          2   -1    0    0    0  501  0.00000000000E+00  0.00000000000E+00  0.13457734133E+03  0.13457734135E+03  0.25500000000E-02 0. -1.
         -2   -1    0    0  501    0 -0.00000000000E+00 -0.00000000000E+00 -0.80413644151E+01  0.80413648194E+01  0.25500000000E-02 0. -1.
          2    1    1    2    0  502 -0.13063603877E+02 -0.29127975425E+02  0.80485551168E+02  0.86585337396E+02  0.25500000000E-02 0.  1.
         -2    1    1    2  502    0  0.13063603877E+02  0.29127975425E+02  0.46050425746E+02  0.56033368777E+02  0.25500000000E-02 0.  1.
<mgrwt>
<rscale>  0 0.65793175E+02</rscale>
<asrwt>0</asrwt>
<pdfrwt beam="1">  1        2 0.20704205E-01 0.65793175E+02</pdfrwt>
<pdfrwt beam="2">  1       -2 0.12371331E-02 0.65793175E+02</pdfrwt>
<totfact> 0.32160455E+05</totfact>
</mgrwt>
</event>
<event>
 4    1  0.4837985E-002  0.5673548E+02  0.7818608E-02  0.1412065E+00
         -2   -1    0    0  501    0 -0.00000000000E+00  0.00000000000E+00  0.10707847830E+03  0.10707847833E+03  0.25500000000E-02 0.  1.
          2   -1    0    0    0  501  0.00000000000E+00 -0.00000000000E+00 -0.75153161077E+01  0.75153165403E+01  0.25500000000E-02 0.  1.
          2    1    1    2    0  502  0.67543642199E+01 -0.26378138356E+02  0.33711735292E+02  0.43334844202E+02  0.25500000000E-02 0. -1.
         -2    1    1    2  502    0 -0.67543642199E+01  0.26378138356E+02  0.65851426905E+02  0.71258950673E+02  0.25500000000E-02 0. -1.
<mgrwt>
<rscale>  0 0.56735479E+02</rscale>
<asrwt>0</asrwt>
<pdfrwt beam="2">  1        2 0.11562027E-02 0.56735479E+02</pdfrwt>
<pdfrwt beam="1">  1       -2 0.16473610E-01 0.56735479E+02</pdfrwt>
<totfact> 0.25433747E+05</totfact>
</mgrwt>
</event>
<event>
 4    1  0.4837985E-002  0.4250647E+02  0.7818608E-02  0.1490537E+00
         -2   -1    0    0  501    0 -0.00000000000E+00  0.00000000000E+00  0.43423851212E+01  0.43423858700E+01  0.25500000000E-02 0.  1.
          2   -1    0    0    0  501  0.00000000000E+00 -0.00000000000E+00 -0.10402114615E+03  0.10402114618E+03  0.25500000000E-02 0.  1.
          2    1    1    2    0  502  0.55124270295E+01  0.19954614413E+02 -0.62099152711E+02  0.65458981523E+02  0.25500000000E-02 0. -1.
         -2    1    1    2  502    0 -0.55124270295E+01 -0.19954614413E+02 -0.37579608314E+02  0.42904550524E+02  0.25500000000E-02 0. -1.
<mgrwt>
<rscale>  0 0.42506466E+02</rscale>
<asrwt>0</asrwt>
<pdfrwt beam="2">  1        2 0.16003251E-01 0.42506466E+02</pdfrwt>
<pdfrwt beam="1">  1       -2 0.66805939E-03 0.42506466E+02</pdfrwt>
<totfact> 0.90845744E+05</totfact>
</mgrwt>
</event>
<event>
 4    1  0.4837985E-002  0.4956951E+02  0.7818608E-02  0.1447677E+00
          2   -1    0    0    0  501  0.00000000000E+00  0.00000000000E+00  0.20983466393E+04  0.20983466393E+04  0.25500000000E-02 0.  1.
         -2   -1    0    0  501    0 -0.00000000000E+00 -0.00000000000E+00 -0.29274110984E+00  0.29275221586E+00  0.25500000000E-02 0.  1.
          2    1    1    2    0  502  0.18789421575E+02  0.10169887728E+02  0.51716691037E+03  0.51760803913E+03  0.25500000000E-02 0.  1.
         -2    1    1    2  502    0 -0.18789421575E+02 -0.10169887728E+02  0.15808869878E+04  0.15810313524E+04  0.25500000000E-02 0.  1.
<mgrwt>
<rscale>  0 0.49569506E+02</rscale>
<asrwt>0</asrwt>
<pdfrwt beam="1">  1        2 0.32281810E+00 0.49569506E+02</pdfrwt>
<pdfrwt beam="2">  1       -2 0.45038571E-04 0.49569506E+02</pdfrwt>
<totfact> 0.89831155E+05</totfact>
</mgrwt>
</event>
<event>
 4    1  0.4837985E-002  0.6911248E+02  0.7818608E-02  0.1363137E+00
         -2   -1    0    0  501    0 -0.00000000000E+00  0.00000000000E+00  0.34266104699E+01  0.34266114188E+01  0.25500000000E-02 0.  1.
          2   -1    0    0    0  501  0.00000000000E+00 -0.00000000000E+00 -0.34848827332E+03  0.34848827333E+03  0.25500000000E-02 0.  1.
          2    1    1    2    0  502  0.11512096372E+02 -0.27199075341E+02 -0.81185838245E+02  0.86391309750E+02  0.25500000000E-02 0.  1.
         -2    1    1    2  502    0 -0.11512096372E+02  0.27199075341E+02 -0.26387582461E+03  0.26552357500E+03  0.25500000000E-02 0.  1.
<mgrwt>
<rscale>  0 0.69112480E+02</rscale>
<asrwt>0</asrwt>
<pdfrwt beam="2">  1        2 0.53613553E-01 0.69112480E+02</pdfrwt>
<pdfrwt beam="1">  1       -2 0.52717119E-03 0.69112480E+02</pdfrwt>
<totfact> 0.39247363E+05</totfact>
</mgrwt>
</event>
<event>
 4    1  0.4837985E-002  0.5210560E+02  0.7818608E-02  0.1434304E+00
         -2   -1    0    0  501    0 -0.00000000000E+00  0.00000000000E+00  0.18005679383E+03  0.18005679385E+03  0.25500000000E-02 0.  1.
          2   -1    0    0    0  501  0.00000000000E+00 -0.00000000000E+00 -0.37696342218E+01  0.37696350842E+01  0.25500000000E-02 0.  1.
          2    1    1    2    0  502 -0.15384653351E+02 -0.13275109375E+02  0.30622452174E+02  0.36751199590E+02  0.25500000000E-02 0.  1.
         -2    1    1    2  502    0  0.15384653351E+02  0.13275109375E+02  0.14566470743E+03  0.14707522934E+03  0.25500000000E-02 0.  1.
<mgrwt>
<rscale>  0 0.52105598E+02</rscale>
<asrwt>0</asrwt>
<pdfrwt beam="2">  1        2 0.57994393E-03 0.52105598E+02</pdfrwt>
<pdfrwt beam="1">  1       -2 0.27701039E-01 0.52105598E+02</pdfrwt>
<totfact> 0.26558778E+05</totfact>
</mgrwt>
</event>
<event>
 4    1  0.4837985E-002  0.5906464E+02  0.7818608E-02  0.1401799E+00
          2   -1    0    0    0  501  0.00000000000E+00  0.00000000000E+00  0.83787637687E+03  0.83787637688E+03  0.25500000000E-02 0. -1.
         -2   -1    0    0  501    0 -0.00000000000E+00 -0.00000000000E+00 -0.10409131369E+01  0.10409162603E+01  0.25500000000E-02 0. -1.
          2    1    1    2    0  502 -0.22515868726E+02  0.13233911392E+02  0.61422717423E+03  0.61478217469E+03  0.25500000000E-02 0. -1.
         -2    1    1    2  502    0  0.22515868726E+02 -0.13233911392E+02  0.22260828951E+03  0.22413511845E+03  0.25500000000E-02 0. -1.
<mgrwt>
<rscale>  0 0.59064637E+02</rscale>
<asrwt>0</asrwt>
<pdfrwt beam="1">  1        2 0.12890425E+00 0.59064637E+02</pdfrwt>
<pdfrwt beam="2">  1       -2 0.16014049E-03 0.59064637E+02</pdfrwt>
<totfact> 0.75143874E+05</totfact>
</mgrwt>
</event>
<event>
 4    1  0.4837985E-002  0.6851462E+02  0.7818608E-02  0.1365218E+00
         -2   -1    0    0  501    0 -0.00000000000E+00  0.00000000000E+00  0.14648840582E+03  0.14648840585E+03  0.25500000000E-02 0.  1.
          2   -1    0    0    0  501  0.00000000000E+00 -0.00000000000E+00 -0.80113051435E+01  0.80113055493E+01  0.25500000000E-02 0.  1.
          2    1    1    2    0  502 -0.19580749352E+02 -0.25063726416E+02  0.97936969168E+02  0.10297206448E+03  0.25500000000E-02 0.  1.
         -2    1    1    2  502    0  0.19580749352E+02  0.25063726416E+02  0.40540131513E+02  0.51527646915E+02  0.25500000000E-02 0.  1.
<mgrwt>
<rscale>  0 0.68514622E+02</rscale>
<asrwt>0</asrwt>
<pdfrwt beam="2">  1        2 0.12325086E-02 0.68514622E+02</pdfrwt>
<pdfrwt beam="1">  1       -2 0.22536677E-01 0.68514622E+02</pdfrwt>
<totfact> 0.14473674E+05</totfact>
</mgrwt>
</event>
<event>
 4    1  0.4837985E-002  0.9138030E+02  0.7818608E-02  0.1299543E+00
         -2   -1    0    0  501    0 -0.00000000000E+00  0.00000000000E+00  0.63087610874E+01  0.63087616028E+01  0.25500000000E-02 0. -1.
          2   -1    0    0    0  501  0.00000000000E+00 -0.00000000000E+00 -0.33090330717E+03  0.33090330718E+03  0.25500000000E-02 0. -1.
          2    1    1    2    0  502 -0.25171231267E+02 -0.35485441012E+02 -0.21379944807E+03  0.21818114357E+03  0.25500000000E-02 0.  1.
         -2    1    1    2  502    0  0.25171231267E+02  0.35485441012E+02 -0.11079509802E+03  0.11903092522E+03  0.25500000000E-02 0.  1.
<mgrwt>
<rscale>  0 0.91380304E+02</rscale>
<asrwt>0</asrwt>
<pdfrwt beam="2">  1        2 0.50908188E-01 0.91380304E+02</pdfrwt>
<pdfrwt beam="1">  1       -2 0.97057892E-03 0.91380304E+02</pdfrwt>
<totfact> 0.18521076E+05</totfact>
</mgrwt>
</event>
<event>
 4    1  0.4837985E-002  0.1209604E+03  0.7818608E-02  0.1241521E+00
         -2   -1    0    0  501    0 -0.00000000000E+00  0.00000000000E+00  0.14275998870E+02  0.14275999097E+02  0.25500000000E-02 0.  1.
          2   -1    0    0    0  501  0.00000000000E+00 -0.00000000000E+00 -0.25622393569E+03  0.25622393571E+03  0.25500000000E-02 0.  1.
          2    1    1    2    0  502  0.87023434721E+01 -0.59692613763E+02 -0.13069948262E+03  0.14394892734E+03  0.25500000000E-02 0.  1.
         -2    1    1    2  502    0 -0.87023434721E+01  0.59692613763E+02 -0.11124845421E+03  0.12655100746E+03  0.25500000000E-02 0.  1.
<mgrwt>
<rscale>  0 0.12096037E+03</rscale>
<asrwt>0</asrwt>
<pdfrwt beam="2">  1        2 0.39419063E-01 0.12096037E+03</pdfrwt>
<pdfrwt beam="1">  1       -2 0.21963077E-02 0.12096037E+03</pdfrwt>
<totfact> 0.78463578E+04</totfact>
</mgrwt>
</event>
<event>
 4    1  0.4837985E-002  0.6203240E+02  0.7818608E-02  0.1389495E+00
         -2   -1    0    0  501    0 -0.00000000000E+00  0.00000000000E+00  0.43183090886E+02  0.43183090961E+02  0.25500000000E-02 0.  1.
          2   -1    0    0    0  501  0.00000000000E+00 -0.00000000000E+00 -0.22277346263E+02  0.22277346409E+02  0.25500000000E-02 0.  1.
          2    1    1    2    0  502 -0.90769115562E+01 -0.29521050259E+02  0.13460264950E+02  0.33690673351E+02  0.25500000000E-02 0. -1.
         -2    1    1    2  502    0  0.90769115562E+01  0.29521050259E+02  0.74454796730E+01  0.31769764020E+02  0.25500000000E-02 0. -1.
<mgrwt>
<rscale>  0 0.62032400E+02</rscale>
<asrwt>0</asrwt>
<pdfrwt beam="2">  1        2 0.34272841E-02 0.62032400E+02</pdfrwt>
<pdfrwt beam="1">  1       -2 0.66435524E-02 0.62032400E+02</pdfrwt>
<totfact> 0.24959169E+05</totfact>
</mgrwt>
</event>
<event>
 4    1  0.4837985E-002  0.4445172E+02  0.7818608E-02  0.1477794E+00
         -2   -1    0    0  501    0 -0.00000000000E+00  0.00000000000E+00  0.27449949198E+00  0.27451133601E+00  0.25500000000E-02 0.  1.
          2   -1    0    0    0  501  0.00000000000E+00 -0.00000000000E+00 -0.17995597955E+04  0.17995597955E+04  0.25500000000E-02 0.  1.
          2    1    1    2    0  502  0.17280766085E+02  0.13856133748E+02 -0.97398922106E+03  0.97424104824E+03  0.25500000000E-02 0.  1.
         -2    1    1    2  502    0 -0.17280766085E+02 -0.13856133748E+02 -0.82529607493E+03  0.82559325859E+03  0.25500000000E-02 0.  1.
<mgrwt>
<rscale>  0 0.44451723E+02</rscale>
<asrwt>0</asrwt>
<pdfrwt beam="2">  1        2 0.27684591E+00 0.44451723E+02</pdfrwt>
<pdfrwt beam="1">  1       -2 0.42233043E-04 0.44451723E+02</pdfrwt>
<totfact> 0.13369086E+06</totfact>
</mgrwt>
</event>
<event>
 4    1  0.4837985E-002  0.1006850E+03  0.7818608E-02  0.1278862E+00
          2   -1    0    0    0  501  0.00000000000E+00  0.00000000000E+00  0.25914450801E+03  0.25914450802E+03  0.25500000000E-02 0. -1.
         -2   -1    0    0  501    0 -0.00000000000E+00 -0.00000000000E+00 -0.97797415788E+01  0.97797419113E+01  0.25500000000E-02 0. -1.
          2    1    1    2    0  502 -0.35301382632E+02 -0.23232873511E+02  0.51612949807E+02  0.66707200672E+02  0.25500000000E-02 0. -1.
         -2    1    1    2  502    0  0.35301382632E+02  0.23232873511E+02  0.19775181662E+03  0.20221704926E+03  0.25500000000E-02 0. -1.
<mgrwt>
<rscale>  0 0.10068498E+03</rscale>
<asrwt>0</asrwt>
<pdfrwt beam="1">  1        2 0.39868386E-01 0.10068498E+03</pdfrwt>
<pdfrwt beam="2">  1       -2 0.15045756E-02 0.10068498E+03</pdfrwt>
<totfact> 0.13023859E+05</totfact>
</mgrwt>
</event>
<event>
 4    1  0.4837985E-002  0.4448608E+02  0.7818608E-02  0.1477576E+00
          2   -1    0    0    0  501  0.00000000000E+00  0.00000000000E+00  0.17540284646E+03  0.17540284648E+03  0.25500000000E-02 0.  1.
         -2   -1    0    0  501    0 -0.00000000000E+00 -0.00000000000E+00 -0.28206651213E+01  0.28206662739E+01  0.25500000000E-02 0.  1.
          2    1    1    2    0  502 -0.40728511146E+01  0.20093007202E+02  0.51726484409E+02  0.55641227974E+02  0.25500000000E-02 0. -1.
         -2    1    1    2  502    0  0.40728511146E+01 -0.20093007202E+02  0.12085569693E+03  0.12258228477E+03  0.25500000000E-02 0. -1.
<mgrwt>
<rscale>  0 0.44486079E+02</rscale>
<asrwt>0</asrwt>
<pdfrwt beam="1">  1        2 0.26985056E-01 0.44486079E+02</pdfrwt>
<pdfrwt beam="2">  1       -2 0.43394853E-03 0.44486079E+02</pdfrwt>
<totfact> 0.94345306E+05</totfact>
</mgrwt>
</event>
<event>
 4    1  0.4837985E-002  0.5301859E+02  0.7818608E-02  0.1429708E+00
         -2   -1    0    0  501    0 -0.00000000000E+00  0.00000000000E+00  0.31101600274E+01  0.31101610728E+01  0.25500000000E-02 0.  1.
          2   -1    0    0    0  501  0.00000000000E+00 -0.00000000000E+00 -0.22595063110E+03  0.22595063112E+03  0.25500000000E-02 0.  1.
          2    1    1    2    0  502 -0.16341030513E+02 -0.20122072350E+02 -0.13540350181E+03  0.13786237842E+03  0.25500000000E-02 0. -1.
         -2    1    1    2  502    0  0.16341030513E+02  0.20122072350E+02 -0.87436969266E+02  0.91198413774E+02  0.25500000000E-02 0. -1.
<mgrwt>
<rscale>  0 0.53018591E+02</rscale>
<asrwt>0</asrwt>
<pdfrwt beam="2">  1        2 0.34761623E-01 0.53018591E+02</pdfrwt>
<pdfrwt beam="1">  1       -2 0.47848642E-03 0.53018591E+02</pdfrwt>
<totfact> 0.66211328E+05</totfact>
</mgrwt>
</event>
<event>
 4    1  0.4837985E-002  0.6871236E+02  0.7818608E-02  0.1364527E+00
         -2   -1    0    0  501    0 -0.00000000000E+00  0.00000000000E+00  0.49284521566E+01  0.49284528163E+01  0.25500000000E-02 0. -1.
          2   -1    0    0    0  501  0.00000000000E+00 -0.00000000000E+00 -0.23949650157E+03  0.23949650158E+03  0.25500000000E-02 0. -1.
          2    1    1    2    0  502 -0.30955027117E+02  0.13320874572E+02 -0.14106363768E+03  0.14503313168E+03  0.25500000000E-02 0. -1.
         -2    1    1    2  502    0  0.30955027117E+02 -0.13320874572E+02 -0.93504411727E+02  0.99391822712E+02  0.25500000000E-02 0. -1.
<mgrwt>
<rscale>  0 0.68712361E+02</rscale>
<asrwt>0</asrwt>
<pdfrwt beam="2">  1        2 0.36845607E-01 0.68712361E+02</pdfrwt>
<pdfrwt beam="1">  1       -2 0.75822365E-03 0.68712361E+02</pdfrwt>
<totfact> 0.34829032E+05</totfact>
</mgrwt>
</event>
<event>
 4    1  0.4837985E-002  0.4653788E+02  0.7818608E-02  0.1464963E+00
         -2   -1    0    0  501    0 -0.00000000000E+00  0.00000000000E+00  0.29336301891E+01  0.29336312973E+01  0.25500000000E-02 0.  1.
          2   -1    0    0    0  501  0.00000000000E+00 -0.00000000000E+00 -0.18456435116E+03  0.18456435118E+03  0.25500000000E-02 0.  1.
          2    1    1    2    0  502 -0.16226219264E+02 -0.13001958335E+02 -0.48732292172E+02  0.52982803050E+02  0.25500000000E-02 0.  1.
         -2    1    1    2  502    0  0.16226219264E+02  0.13001958335E+02 -0.13289842880E+03  0.13451517942E+03  0.25500000000E-02 0.  1.
<mgrwt>
<rscale>  0 0.46537884E+02</rscale>
<asrwt>0</asrwt>
<pdfrwt beam="2">  1        2 0.28394507E-01 0.46537884E+02</pdfrwt>
<pdfrwt beam="1">  1       -2 0.45132795E-03 0.46537884E+02</pdfrwt>
<totfact> 0.85754866E+05</totfact>
</mgrwt>
</event>
<event>
 4    1  0.4837985E-002  0.6066793E+02  0.7818608E-02  0.1395050E+00
         -2   -1    0    0  501    0 -0.00000000000E+00  0.00000000000E+00  0.73420017297E+00  0.73420460125E+00  0.25500000000E-02 0. -1.
          2   -1    0    0    0  501  0.00000000000E+00 -0.00000000000E+00 -0.12532642108E+04  0.12532642108E+04  0.25500000000E-02 0. -1.
          2    1    1    2    0  502 -0.27803493773E+02 -0.11862498197E+02 -0.67854156846E+03  0.67921455613E+03  0.25500000000E-02 0.  1.
         -2    1    1    2  502    0  0.27803493773E+02  0.11862498197E+02 -0.57398844218E+03  0.57478385929E+03  0.25500000000E-02 0.  1.
<mgrwt>
<rscale>  0 0.60667935E+02</rscale>
<asrwt>0</asrwt>
<pdfrwt beam="2">  1        2 0.19280817E+00 0.60667935E+02</pdfrwt>
<pdfrwt beam="1">  1       -2 0.11295522E-03 0.60667935E+02</pdfrwt>
<totfact> 0.70700509E+05</totfact>
</mgrwt>
</event>
<event>
 4    1  0.4837985E-002  0.6949237E+02  0.7818608E-02  0.1361828E+00
          2   -1    0    0    0  501  0.00000000000E+00  0.00000000000E+00  0.27014627739E+04  0.27014627739E+04  0.25500000000E-02 0. -1.
         -2   -1    0    0  501    0 -0.00000000000E+00 -0.00000000000E+00 -0.44690145714E+00  0.44690873218E+00  0.25500000000E-02 0. -1.
          2    1    1    2    0  502 -0.50475282678E+01  0.30092112112E+02  0.70424073032E+03  0.70490142503E+03  0.25500000000E-02 0.  1.
         -2    1    1    2  502    0  0.50475282678E+01 -0.30092112112E+02  0.19967751421E+04  0.19970082576E+04  0.25500000000E-02 0.  1.
<mgrwt>
<rscale>  0 0.69492373E+02</rscale>
<asrwt>0</asrwt>
<pdfrwt beam="1">  1        2 0.41561817E+00 0.69492373E+02</pdfrwt>
<pdfrwt beam="2">  1       -2 0.68753223E-04 0.69492373E+02</pdfrwt>
<totfact> 0.26368709E+05</totfact>
</mgrwt>
</event>
<event>
 4    1  0.4837985E-002  0.4080043E+02  0.7818608E-02  0.1502402E+00
          2   -1    0    0    0  501  0.00000000000E+00  0.00000000000E+00  0.76382051855E+03  0.76382051856E+03  0.25500000000E-02 0. -1.
         -2   -1    0    0  501    0 -0.00000000000E+00 -0.00000000000E+00 -0.54484849205E+00  0.54485445927E+00  0.25500000000E-02 0. -1.
          2    1    1    2    0  502 -0.19805261388E+02 -0.37710976365E+01  0.43998284688E+03  0.44044451990E+03  0.25500000000E-02 0.  1.
         -2    1    1    2  502    0  0.19805261388E+02  0.37710976365E+01  0.32329282318E+03  0.32392085311E+03  0.25500000000E-02 0.  1.
<mgrwt>
<rscale>  0 0.40800428E+02</rscale>
<asrwt>0</asrwt>
<pdfrwt beam="1">  1        2 0.11751099E+00 0.40800428E+02</pdfrwt>
<pdfrwt beam="2">  1       -2 0.83823205E-04 0.40800428E+02</pdfrwt>
<totfact> 0.18391307E+06</totfact>
</mgrwt>
</event>
<event>
 4    1  0.4837985E-002  0.5551519E+02  0.7818608E-02  0.1417678E+00
         -2   -1    0    0  501    0 -0.00000000000E+00  0.00000000000E+00  0.31753430272E+00  0.31754454161E+00  0.25500000000E-02 0. -1.
          2   -1    0    0    0  501  0.00000000000E+00 -0.00000000000E+00 -0.24264200037E+04  0.24264200037E+04  0.25500000000E-02 0. -1.
          2    1    1    2    0  502  0.26687523639E+01 -0.24604312182E+02 -0.17624975045E+04  0.17626712534E+04  0.25500000000E-02 0. -1.
         -2    1    1    2  502    0 -0.26687523639E+01  0.24604312182E+02 -0.66360496489E+03  0.66406629478E+03  0.25500000000E-02 0. -1.
<mgrwt>
<rscale>  0 0.55515187E+02</rscale>
<asrwt>0</asrwt>
<pdfrwt beam="2">  1        2 0.37328054E+00 0.55515187E+02</pdfrwt>
<pdfrwt beam="1">  1       -2 0.48854162E-04 0.55515187E+02</pdfrwt>
<totfact> 0.56401077E+05</totfact>
</mgrwt>
</event>
<event>
 4    1  0.4837985E-002  0.8295240E+02  0.7818608E-02  0.1320876E+00
          2   -1    0    0    0  501  0.00000000000E+00  0.00000000000E+00  0.55301829907E+01  0.55301835786E+01  0.25500000000E-02 0.  1.
         -2   -1    0    0  501    0 -0.00000000000E+00 -0.00000000000E+00 -0.31107019574E+03  0.31107019575E+03  0.25500000000E-02 0.  1.
          2    1    1    2    0  502 -0.20567335730E+02  0.35877564526E+02 -0.14066438642E+03  0.14661747695E+03  0.25500000000E-02 0.  1.
         -2    1    1    2  502    0  0.20567335730E+02 -0.35877564526E+02 -0.16487562633E+03  0.16998290238E+03  0.25500000000E-02 0.  1.
<mgrwt>
<rscale>  0 0.82952401E+02</rscale>
<asrwt>0</asrwt>
<pdfrwt beam="1">  1        2 0.85079767E-03 0.82952401E+02</pdfrwt>
<pdfrwt beam="2">  1       -2 0.47856940E-01 0.82952401E+02</pdfrwt>
<totfact> 0.63694072E+04</totfact>
</mgrwt>
</event>
<event>
 4    1  0.4837985E-002  0.4988203E+02  0.7818608E-02  0.1445979E+00
         -2   -1    0    0  501    0 -0.00000000000E+00  0.00000000000E+00  0.33178635171E+00  0.33179615080E+00  0.25500000000E-02 0.  1.
          2   -1    0    0    0  501  0.00000000000E+00 -0.00000000000E+00 -0.18748364741E+04  0.18748364741E+04  0.25500000000E-02 0.  1.
          2    1    1    2    0  502  0.50579316444E+01 -0.23892135488E+02 -0.74691055737E+03  0.74730970657E+03  0.25500000000E-02 0.  1.
         -2    1    1    2  502    0 -0.50579316444E+01  0.23892135488E+02 -0.11275941304E+04  0.11278585637E+04  0.25500000000E-02 0.  1.
<mgrwt>
<rscale>  0 0.49882035E+02</rscale>
<asrwt>0</asrwt>
<pdfrwt beam="2">  1        2 0.28842790E+00 0.49882035E+02</pdfrwt>
<pdfrwt beam="1">  1       -2 0.51046309E-04 0.49882035E+02</pdfrwt>
<totfact> 0.97665647E+05</totfact>
</mgrwt>
</event>
<event>
 4    1  0.4837985E-002  0.6802275E+02  0.7818608E-02  0.1366949E+00
          2   -1    0    0    0  501  0.00000000000E+00  0.00000000000E+00  0.17196897706E+02  0.17196897895E+02  0.25500000000E-02 0.  1.
         -2   -1    0    0  501    0 -0.00000000000E+00 -0.00000000000E+00 -0.67266418517E+02  0.67266418565E+02  0.25500000000E-02 0.  1.
          2    1    1    2    0  502 -0.18517566510E+02  0.96993322804E+01  0.82786245103E+01  0.22483615066E+02  0.25500000000E-02 0.  1.
         -2    1    1    2  502    0  0.18517566510E+02 -0.96993322804E+01 -0.58348145321E+02  0.61979701395E+02  0.25500000000E-02 0.  1.
<mgrwt>
<rscale>  0 0.68022753E+02</rscale>
<asrwt>0</asrwt>
<pdfrwt beam="1">  1        2 0.26456766E-02 0.68022753E+02</pdfrwt>
<pdfrwt beam="2">  1       -2 0.10348680E-01 0.68022753E+02</pdfrwt>
<totfact> 0.18225266E+05</totfact>
</mgrwt>
</event>
<event>
 4    1  0.4837985E-002  0.1209118E+03  0.7818608E-02  0.1241600E+00
          2   -1    0    0    0  501  0.00000000000E+00  0.00000000000E+00  0.26069536449E+03  0.26069536450E+03  0.25500000000E-02 0.  1.
         -2   -1    0    0  501    0 -0.00000000000E+00 -0.00000000000E+00 -0.14019877930E+02  0.14019878162E+02  0.25500000000E-02 0.  1.
          2    1    1    2    0  502 -0.13322598014E+02  0.56465132999E+02  0.84705599018E+02  0.10266859975E+03  0.25500000000E-02 0.  1.
         -2    1    1    2  502    0  0.13322598014E+02 -0.56465132999E+02  0.16196988754E+03  0.17204664291E+03  0.25500000000E-02 0.  1.
<mgrwt>
<rscale>  0 0.12091182E+03</rscale>
<asrwt>0</asrwt>
<pdfrwt beam="1">  1        2 0.40106976E-01 0.12091182E+03</pdfrwt>
<pdfrwt beam="2">  1       -2 0.21569045E-02 0.12091182E+03</pdfrwt>
<totfact> 0.79085819E+04</totfact>
</mgrwt>
</event>
<event>
 4    1  0.4837985E-002  0.4232426E+02  0.7818608E-02  0.1491772E+00
         -2   -1    0    0  501    0 -0.00000000000E+00  0.00000000000E+00  0.20035178223E+03  0.20035178225E+03  0.25500000000E-02 0.  1.
          2   -1    0    0    0  501  0.00000000000E+00 -0.00000000000E+00 -0.22352467943E+01  0.22352482489E+01  0.25500000000E-02 0.  1.
          2    1    1    2    0  502 -0.19887212984E+02 -0.40741858371E+01  0.12767188140E+03  0.12927571132E+03  0.25500000000E-02 0. -1.
         -2    1    1    2  502    0  0.19887212984E+02  0.40741858371E+01  0.70444654034E+02  0.73311319173E+02  0.25500000000E-02 0. -1.
<mgrwt>
<rscale>  0 0.42324264E+02</rscale>
<asrwt>0</asrwt>
<pdfrwt beam="2">  1        2 0.34388422E-03 0.42324264E+02</pdfrwt>
<pdfrwt beam="1">  1       -2 0.30823353E-01 0.42324264E+02</pdfrwt>
<totfact> 0.42290850E+05</totfact>
</mgrwt>
</event>
<event>
 4    1  0.4837985E-002  0.1071114E+03  0.7818608E-02  0.1266015E+00
          2   -1    0    0    0  501  0.00000000000E+00  0.00000000000E+00  0.32142539784E+02  0.32142539885E+02  0.25500000000E-02 0. -1.
         -2   -1    0    0  501    0 -0.00000000000E+00 -0.00000000000E+00 -0.89234210468E+02  0.89234210504E+02  0.25500000000E-02 0. -1.
          2    1    1    2    0  502 -0.39360657491E+02 -0.11388298621E+02 -0.67624348269E+02  0.79069635063E+02  0.25500000000E-02 0. -1.
         -2    1    1    2  502    0  0.39360657491E+02  0.11388298621E+02  0.10532677585E+02  0.42307115326E+02  0.25500000000E-02 0. -1.
<mgrwt>
<rscale>  0 0.10711142E+03</rscale>
<asrwt>0</asrwt>
<pdfrwt beam="1">  1        2 0.49450062E-02 0.10711142E+03</pdfrwt>
<pdfrwt beam="2">  1       -2 0.13728340E-01 0.10711142E+03</pdfrwt>
<totfact> 0.55466920E+04</totfact>
</mgrwt>
</event>
<event>
 4    1  0.4837985E-002  0.4668364E+02  0.7818608E-02  0.1464097E+00
          2   -1    0    0    0  501  0.00000000000E+00  0.00000000000E+00  0.19473072866E+04  0.19473072866E+04  0.25500000000E-02 0. -1.
         -2   -1    0    0  501    0 -0.00000000000E+00 -0.00000000000E+00 -0.27978596093E+00  0.27979758118E+00  0.25500000000E-02 0. -1.
          2    1    1    2    0  502 -0.29321861794E+01  0.22906540191E+02  0.11151935926E+04  0.11154326768E+04  0.25500000000E-02 0. -1.
         -2    1    1    2  502    0  0.29321861794E+01 -0.22906540191E+02  0.83183390797E+03  0.83215440740E+03  0.25500000000E-02 0. -1.
<mgrwt>
<rscale>  0 0.46683640E+02</rscale>
<asrwt>0</asrwt>
<pdfrwt beam="1">  1        2 0.29959266E+00 0.46683640E+02</pdfrwt>
<pdfrwt beam="2">  1       -2 0.43043893E-04 0.46683640E+02</pdfrwt>
<totfact> 0.11173005E+06</totfact>
</mgrwt>
</event>
<event>
 4    1  0.4837985E-002  0.6054321E+02  0.7818608E-02  0.1395566E+00
          2   -1    0    0    0  501  0.00000000000E+00  0.00000000000E+00  0.28372915433E+02  0.28372915548E+02  0.25500000000E-02 0.  1.
         -2   -1    0    0  501    0 -0.00000000000E+00 -0.00000000000E+00 -0.32297351450E+02  0.32297351551E+02  0.25500000000E-02 0.  1.
          2    1    1    2    0  502 -0.23141335679E+02 -0.10018559547E+02 -0.18744814522E+02  0.31420710214E+02  0.25500000000E-02 0.  1.
         -2    1    1    2  502    0  0.23141335679E+02  0.10018559547E+02  0.14820378504E+02  0.29249556884E+02  0.25500000000E-02 0.  1.
<mgrwt>
<rscale>  0 0.60543209E+02</rscale>
<asrwt>0</asrwt>
<pdfrwt beam="1">  1        2 0.43650639E-02 0.60543209E+02</pdfrwt>
<pdfrwt beam="2">  1       -2 0.49688233E-02 0.60543209E+02</pdfrwt>
<totfact> 0.27910906E+05</totfact>
</mgrwt>
</event>
<event>
 4    1  0.4837985E-002  0.1434876E+03  0.7818608E-02  0.1208712E+00
          2   -1    0    0    0  501  0.00000000000E+00  0.00000000000E+00  0.30179614184E+04  0.30179614184E+04  0.25500000000E-02 0. -1.
         -2   -1    0    0  501    0 -0.00000000000E+00 -0.00000000000E+00 -0.17055123215E+01  0.17055142278E+01  0.25500000000E-02 0. -1.
          2    1    1    2    0  502 -0.34363900450E+02 -0.62831883623E+02  0.14177332688E+04  0.14195408923E+04  0.25500000000E-02 0. -1.
         -2    1    1    2  502    0  0.34363900450E+02  0.62831883623E+02  0.15985226372E+04  0.16001260403E+04  0.25500000000E-02 0. -1.
<mgrwt>
<rscale>  0 0.14348761E+03</rscale>
<asrwt>0</asrwt>
<pdfrwt beam="1">  1        2 0.46430382E+00 0.14348761E+03</pdfrwt>
<pdfrwt beam="2">  1       -2 0.26238549E-03 0.14348761E+03</pdfrwt>
<totfact> 0.29192111E+04</totfact>
</mgrwt>
</event>
<event>
 4    1  0.4837985E-002  0.6119758E+02  0.7818608E-02  0.1392874E+00
         -2   -1    0    0  501    0 -0.00000000000E+00  0.00000000000E+00  0.24641754322E+02  0.24641754454E+02  0.25500000000E-02 0. -1.
          2   -1    0    0    0  501  0.00000000000E+00 -0.00000000000E+00 -0.37995913382E+02  0.37995913468E+02  0.25500000000E-02 0. -1.
          2    1    1    2    0  502 -0.21474379100E+02 -0.20374596644E+02  0.12520102092E+01  0.29628376300E+02  0.25500000000E-02 0.  1.
         -2    1    1    2  502    0  0.21474379100E+02  0.20374596644E+02 -0.14606169270E+02  0.33009291621E+02  0.25500000000E-02 0.  1.
<mgrwt>
<rscale>  0 0.61197581E+02</rscale>
<asrwt>0</asrwt>
<pdfrwt beam="2">  1        2 0.58455251E-02 0.61197581E+02</pdfrwt>
<pdfrwt beam="1">  1       -2 0.37910392E-02 0.61197581E+02</pdfrwt>
<totfact> 0.28638118E+05</totfact>
</mgrwt>
</event>
<event>
 4    1  0.4837985E-002  0.4405814E+02  0.7818608E-02  0.1480309E+00
         -2   -1    0    0  501    0 -0.00000000000E+00  0.00000000000E+00  0.38740922050E+00  0.38741761269E+00  0.25500000000E-02 0. -1.
          2   -1    0    0    0  501  0.00000000000E+00 -0.00000000000E+00 -0.12526149810E+04  0.12526149810E+04  0.25500000000E-02 0. -1.
          2    1    1    2    0  502  0.18068620716E+02  0.97433531001E+01 -0.39882366243E+03  0.39935162664E+03  0.25500000000E-02 0. -1.
         -2    1    1    2  502    0 -0.18068620716E+02 -0.97433531001E+01 -0.85340390935E+03  0.85365077197E+03  0.25500000000E-02 0. -1.
<mgrwt>
<rscale>  0 0.44058137E+02</rscale>
<asrwt>0</asrwt>
<pdfrwt beam="2">  1        2 0.19270676E+00 0.44058137E+02</pdfrwt>
<pdfrwt beam="1">  1       -2 0.59603067E-04 0.44058137E+02</pdfrwt>
<totfact> 0.15633034E+06</totfact>
</mgrwt>
</event>
<event>
 4    1  0.4837985E-002  0.6086228E+02  0.7818608E-02  0.1394248E+00
          2   -1    0    0    0  501  0.00000000000E+00  0.00000000000E+00  0.92803792116E+01  0.92803795619E+01  0.25500000000E-02 0.  1.
         -2   -1    0    0  501    0 -0.00000000000E+00 -0.00000000000E+00 -0.99786263990E+02  0.99786264022E+02  0.25500000000E-02 0.  1.
          2    1    1    2    0  502  0.15458964848E+02  0.20835982351E+02 -0.16752633385E+02  0.30883142433E+02  0.25500000000E-02 0.  1.
         -2    1    1    2  502    0 -0.15458964848E+02 -0.20835982351E+02 -0.73753251393E+02  0.78183501151E+02  0.25500000000E-02 0.  1.
<mgrwt>
<rscale>  0 0.60862284E+02</rscale>
<asrwt>0</asrwt>
<pdfrwt beam="1">  1        2 0.14277507E-02 0.60862284E+02</pdfrwt>
<pdfrwt beam="2">  1       -2 0.15351732E-01 0.60862284E+02</pdfrwt>
<totfact> 0.21794853E+05</totfact>
</mgrwt>
</event>
<event>
 4    1  0.4837985E-002  0.6818436E+02  0.7818608E-02  0.1366378E+00
         -2   -1    0    0  501    0 -0.00000000000E+00  0.00000000000E+00  0.13762261390E+01  0.13762285014E+01  0.25500000000E-02 0. -1.
          2   -1    0    0    0  501  0.00000000000E+00 -0.00000000000E+00 -0.84453822754E+03  0.84453822754E+03  0.25500000000E-02 0. -1.
          2    1    1    2    0  502 -0.17241684604E+02 -0.17328311384E+02 -0.12675733992E+03  0.12909287080E+03  0.25500000000E-02 0. -1.
         -2    1    1    2  502    0  0.17241684604E+02  0.17328311384E+02 -0.71640466148E+03  0.71682158524E+03  0.25500000000E-02 0. -1.
<mgrwt>
<rscale>  0 0.68184356E+02</rscale>
<asrwt>0</asrwt>
<pdfrwt beam="2">  1        2 0.12992854E+00 0.68184356E+02</pdfrwt>
<pdfrwt beam="1">  1       -2 0.21172796E-03 0.68184356E+02</pdfrwt>
<totfact> 0.52274626E+05</totfact>
</mgrwt>
</event>
<event>
 4    1  0.4837985E-002  0.5480932E+02  0.7818608E-02  0.1421003E+00
         -2   -1    0    0  501    0 -0.00000000000E+00  0.00000000000E+00  0.43428286313E+00  0.43429034955E+00  0.25500000000E-02 0. -1.
          2   -1    0    0    0  501  0.00000000000E+00 -0.00000000000E+00 -0.17293082041E+04  0.17293082041E+04  0.25500000000E-02 0. -1.
          2    1    1    2    0  502 -0.23831915848E+02  0.13525583289E+02 -0.85379199535E+03  0.85423162723E+03  0.25500000000E-02 0. -1.
         -2    1    1    2  502    0  0.23831915848E+02 -0.13525583289E+02 -0.87508192591E+03  0.87551086726E+03  0.25500000000E-02 0. -1.
<mgrwt>
<rscale>  0 0.54809320E+02</rscale>
<asrwt>0</asrwt>
<pdfrwt beam="2">  1        2 0.26604190E+00 0.54809320E+02</pdfrwt>
<pdfrwt beam="1">  1       -2 0.66814709E-04 0.54809320E+02</pdfrwt>
<totfact> 0.81497040E+05</totfact>
</mgrwt>
</event>
<event>
 4    1  0.4837985E-002  0.4144999E+02  0.7818608E-02  0.1497804E+00
         -2   -1    0    0  501    0 -0.00000000000E+00  0.00000000000E+00  0.11003592556E+02  0.11003592852E+02  0.25500000000E-02 0. -1.
          2   -1    0    0    0  501  0.00000000000E+00 -0.00000000000E+00 -0.39035010600E+02  0.39035010683E+02  0.25500000000E-02 0. -1.
          2    1    1    2    0  502 -0.33715967032E+01  0.20438417999E+02 -0.14806183985E+02  0.25462122561E+02  0.25500000000E-02 0. -1.
         -2    1    1    2  502    0  0.33715967032E+01 -0.20438417999E+02 -0.13225234058E+02  0.24576480973E+02  0.25500000000E-02 0. -1.
<mgrwt>
<rscale>  0 0.41449987E+02</rscale>
<asrwt>0</asrwt>
<pdfrwt beam="2">  1        2 0.60053862E-02 0.41449987E+02</pdfrwt>
<pdfrwt beam="1">  1       -2 0.16928605E-02 0.41449987E+02</pdfrwt>
<totfact> 0.79191257E+05</totfact>
</mgrwt>
</event>
<event>
 4    1  0.4837985E-002  0.6046647E+02  0.7818608E-02  0.1395885E+00
         -2   -1    0    0  501    0 -0.00000000000E+00  0.00000000000E+00  0.11626403755E+01  0.11626431720E+01  0.25500000000E-02 0. -1.
          2   -1    0    0    0  501  0.00000000000E+00 -0.00000000000E+00 -0.78618245154E+03  0.78618245154E+03  0.25500000000E-02 0. -1.
          2    1    1    2    0  502  0.23207513575E+02  0.53529737486E+01 -0.63499972496E+03  0.63544621623E+03  0.25500000000E-02 0. -1.
         -2    1    1    2  502    0 -0.23207513575E+02 -0.53529737486E+01 -0.15002008621E+03  0.15189887849E+03  0.25500000000E-02 0. -1.
<mgrwt>
<rscale>  0 0.60466472E+02</rscale>
<asrwt>0</asrwt>
<pdfrwt beam="2">  1        2 0.12095072E+00 0.60466472E+02</pdfrwt>
<pdfrwt beam="1">  1       -2 0.17886859E-03 0.60466472E+02</pdfrwt>
<totfact> 0.70099298E+05</totfact>
</mgrwt>
</event>
<event>
 4    1  0.4837985E-002  0.4335980E+02  0.7818608E-02  0.1484849E+00
          2   -1    0    0    0  501  0.00000000000E+00  0.00000000000E+00  0.93985734587E+03  0.93985734587E+03  0.25500000000E-02 0. -1.
         -2   -1    0    0  501    0 -0.00000000000E+00 -0.00000000000E+00 -0.50009189389E+00  0.50009839515E+00  0.25500000000E-02 0. -1.
          2    1    1    2    0  502  0.67986933557E+01 -0.20142454667E+02  0.37746960160E+03  0.37806777283E+03  0.25500000000E-02 0. -1.
         -2    1    1    2  502    0 -0.67986933557E+01  0.20142454667E+02  0.56188765237E+03  0.56228967143E+03  0.25500000000E-02 0. -1.
<mgrwt>
<rscale>  0 0.43359802E+02</rscale>
<asrwt>0</asrwt>
<pdfrwt beam="1">  1        2 0.14459387E+00 0.43359802E+02</pdfrwt>
<pdfrwt beam="2">  1       -2 0.76937486E-04 0.43359802E+02</pdfrwt>
<totfact> 0.16342295E+06</totfact>
</mgrwt>
</event>
<event>
 4    1  0.4837985E-002  0.7031746E+02  0.7818608E-02  0.1359017E+00
          2   -1    0    0    0  501  0.00000000000E+00  0.00000000000E+00  0.15803554917E+03  0.15803554919E+03  0.25500000000E-02 0.  1.
         -2   -1    0    0  501    0 -0.00000000000E+00 -0.00000000000E+00 -0.78218868483E+01  0.78218872640E+01  0.25500000000E-02 0.  1.
          2    1    1    2    0  502  0.32282521655E+02 -0.11483931097E+02  0.56520324195E+02  0.66095301887E+02  0.25500000000E-02 0.  1.
         -2    1    1    2  502    0 -0.32282521655E+02  0.11483931097E+02  0.93693338127E+02  0.99762134568E+02  0.25500000000E-02 0.  1.
<mgrwt>
<rscale>  0 0.70317458E+02</rscale>
<asrwt>0</asrwt>
<pdfrwt beam="1">  1        2 0.24313161E-01 0.70317458E+02</pdfrwt>
<pdfrwt beam="2">  1       -2 0.12033673E-02 0.70317458E+02</pdfrwt>
<totfact> 0.28439371E+05</totfact>
</mgrwt>
</event>
<event>
 4    1  0.4837985E-002  0.9577094E+02  0.7818608E-02  0.1289449E+00
         -2   -1    0    0  501    0 -0.00000000000E+00  0.00000000000E+00  0.20986521601E+01  0.20986537094E+01  0.25500000000E-02 0. -1.
          2   -1    0    0    0  501  0.00000000000E+00 -0.00000000000E+00 -0.10926142004E+04  0.10926142004E+04  0.25500000000E-02 0. -1.
          2    1    1    2    0  502 -0.13448139511E+02  0.31098939388E+02 -0.15846948888E+03  0.16205115057E+03  0.25500000000E-02 0.  1.
         -2    1    1    2  502    0  0.13448139511E+02 -0.31098939388E+02 -0.93204605935E+03  0.93266170353E+03  0.25500000000E-02 0.  1.
<mgrwt>
<rscale>  0 0.95770935E+02</rscale>
<asrwt>0</asrwt>
<pdfrwt beam="2">  1        2 0.16809404E+00 0.95770935E+02</pdfrwt>
<pdfrwt beam="1">  1       -2 0.32287056E-03 0.95770935E+02</pdfrwt>
<totfact> 0.21979182E+05</totfact>
</mgrwt>
</event>
<event>
 4    1  0.4837985E-002  0.7676670E+02  0.7818608E-02  0.1338486E+00
         -2   -1    0    0  501    0 -0.00000000000E+00  0.00000000000E+00  0.10044672612E+01  0.10044704980E+01  0.25500000000E-02 0. -1.
          2   -1    0    0    0  501  0.00000000000E+00 -0.00000000000E+00 -0.14667268118E+04  0.14667268118E+04  0.25500000000E-02 0. -1.
          2    1    1    2    0  502 -0.79962795600E+01  0.35652579482E+02 -0.95765374404E+03  0.95835053106E+03  0.25500000000E-02 0. -1.
         -2    1    1    2  502    0  0.79962795600E+01 -0.35652579482E+02 -0.50806860048E+03  0.50938075122E+03  0.25500000000E-02 0. -1.
<mgrwt>
<rscale>  0 0.76766697E+02</rscale>
<asrwt>0</asrwt>
<pdfrwt beam="2">  1        2 0.22564857E+00 0.76766697E+02</pdfrwt>
<pdfrwt beam="1">  1       -2 0.15453485E-03 0.76766697E+02</pdfrwt>
<totfact> 0.37286390E+05</totfact>
</mgrwt>
</event>
<event>
 4    1  0.4837985E-002  0.5066864E+02  0.7818608E-02  0.1441768E+00
          2   -1    0    0    0  501  0.00000000000E+00  0.00000000000E+00  0.56647280196E+02  0.56647280253E+02  0.25500000000E-02 0.  1.
         -2   -1    0    0  501    0 -0.00000000000E+00 -0.00000000000E+00 -0.11330250359E+02  0.11330250646E+02  0.25500000000E-02 0.  1.
          2    1    1    2    0  502  0.24287628352E+02  0.71126156090E+01  0.24217139574E+02  0.35027818194E+02  0.25500000000E-02 0.  1.
         -2    1    1    2  502    0 -0.24287628352E+02 -0.71126156090E+01  0.21099890263E+02  0.32949712706E+02  0.25500000000E-02 0.  1.
<mgrwt>
<rscale>  0 0.50668644E+02</rscale>
<asrwt>0</asrwt>
<pdfrwt beam="1">  1        2 0.87149662E-02 0.50668644E+02</pdfrwt>
<pdfrwt beam="2">  1       -2 0.17431155E-02 0.50668644E+02</pdfrwt>
<totfact> 0.50802628E+05</totfact>
</mgrwt>
</event>
<event>
 4    1  0.4837985E-002  0.5134846E+02  0.7818608E-02  0.1438201E+00
         -2   -1    0    0  501    0 -0.00000000000E+00  0.00000000000E+00  0.50975576290E+00  0.50976214092E+00  0.25500000000E-02 0. -1.
          2   -1    0    0    0  501  0.00000000000E+00 -0.00000000000E+00 -0.12930934600E+04  0.12930934600E+04  0.25500000000E-02 0. -1.
          2    1    1    2    0  502 -0.23585440123E+02 -0.97004184161E+01 -0.72100347646E+03  0.72145435349E+03  0.25500000000E-02 0. -1.
         -2    1    1    2  502    0  0.23585440123E+02  0.97004184161E+01 -0.57158022779E+03  0.57214886867E+03  0.25500000000E-02 0. -1.
<mgrwt>
<rscale>  0 0.51348455E+02</rscale>
<asrwt>0</asrwt>
<pdfrwt beam="2">  1        2 0.19893483E+00 0.51348455E+02</pdfrwt>
<pdfrwt beam="1">  1       -2 0.78425489E-04 0.51348455E+02</pdfrwt>
<totfact> 0.10674260E+06</totfact>
</mgrwt>
</event>
<event>
 4    1  0.4837985E-002  0.5494459E+02  0.7818608E-02  0.1420361E+00
          2   -1    0    0    0  501  0.00000000000E+00  0.00000000000E+00  0.48580989946E+03  0.48580989946E+03  0.25500000000E-02 0.  1.
         -2   -1    0    0  501    0 -0.00000000000E+00 -0.00000000000E+00 -0.15535427654E+01  0.15535448582E+01  0.25500000000E-02 0.  1.
          2    1    1    2    0  502 -0.18251150808E+02  0.20499471801E+02  0.23165504771E+03  0.23327536087E+03  0.25500000000E-02 0.  1.
         -2    1    1    2  502    0  0.18251150808E+02 -0.20499471801E+02  0.25260130898E+03  0.25408808346E+03  0.25500000000E-02 0.  1.
<mgrwt>
<rscale>  0 0.54944589E+02</rscale>
<asrwt>0</asrwt>
<pdfrwt beam="1">  1        2 0.74740018E-01 0.54944589E+02</pdfrwt>
<pdfrwt beam="2">  1       -2 0.23900663E-03 0.54944589E+02</pdfrwt>
<totfact> 0.78713656E+05</totfact>
</mgrwt>
</event>
<event>
 4    1  0.4837985E-002  0.1079139E+03  0.7818608E-02  0.1264483E+00
         -2   -1    0    0  501    0 -0.00000000000E+00  0.00000000000E+00  0.22282911792E+01  0.22282926383E+01  0.25500000000E-02 0.  1.
          2   -1    0    0    0  501  0.00000000000E+00 -0.00000000000E+00 -0.13065389830E+04  0.13065389830E+04  0.25500000000E-02 0.  1.
          2    1    1    2    0  502  0.34645621421E+02  0.16415402716E+02 -0.11126264961E+04  0.11132868023E+04  0.25500000000E-02 0. -1.
         -2    1    1    2  502    0 -0.34645621421E+02 -0.16415402716E+02 -0.19168419580E+03  0.19548047334E+03  0.25500000000E-02 0. -1.
<mgrwt>
<rscale>  0 0.10791386E+03</rscale>
<asrwt>0</asrwt>
<pdfrwt beam="2">  1        2 0.20100539E+00 0.10791386E+03</pdfrwt>
<pdfrwt beam="1">  1       -2 0.34281518E-03 0.10791386E+03</pdfrwt>
<totfact> 0.15690916E+05</totfact>
</mgrwt>
</event>
<event>
 4    1  0.4837985E-002  0.6507106E+02  0.7818608E-02  0.1377704E+00
         -2   -1    0    0  501    0 -0.00000000000E+00  0.00000000000E+00  0.18897230648E+03  0.18897230650E+03  0.25500000000E-02 0. -1.
          2   -1    0    0    0  501  0.00000000000E+00 -0.00000000000E+00 -0.56016712696E+01  0.56016718500E+01  0.25500000000E-02 0. -1.
          2    1    1    2    0  502 -0.30009521326E+02  0.45762181424E+01  0.56680110256E+02  0.64297340908E+02  0.25500000000E-02 0. -1.
         -2    1    1    2  502    0  0.30009521326E+02 -0.45762181424E+01  0.12669052496E+03  0.13027663744E+03  0.25500000000E-02 0. -1.
<mgrwt>
<rscale>  0 0.65071063E+02</rscale>
<asrwt>0</asrwt>
<pdfrwt beam="2">  1        2 0.86179560E-03 0.65071063E+02</pdfrwt>
<pdfrwt beam="1">  1       -2 0.29072664E-01 0.65071063E+02</pdfrwt>
<totfact> 0.14995154E+05</totfact>
</mgrwt>
</event>
<event>
 4    1  0.4837985E-002  0.6162684E+02  0.7818608E-02  0.1391129E+00
         -2   -1    0    0  501    0 -0.00000000000E+00  0.00000000000E+00  0.17336622047E+01  0.17336640800E+01  0.25500000000E-02 0.  1.
          2   -1    0    0    0  501  0.00000000000E+00 -0.00000000000E+00 -0.54766511192E+03  0.54766511193E+03  0.25500000000E-02 0.  1.
          2    1    1    2    0  502 -0.23888787706E+02 -0.46666367551E+00 -0.99507985581E+02  0.10233636281E+03  0.25500000000E-02 0. -1.
         -2    1    1    2  502    0  0.23888787706E+02  0.46666367551E+00 -0.44642346414E+03  0.44706241320E+03  0.25500000000E-02 0. -1.
<mgrwt>
<rscale>  0 0.61626839E+02</rscale>
<asrwt>0</asrwt>
<pdfrwt beam="2">  1        2 0.84256033E-01 0.61626839E+02</pdfrwt>
<pdfrwt beam="1">  1       -2 0.26671784E-03 0.61626839E+02</pdfrwt>
<totfact> 0.61157720E+05</totfact>
</mgrwt>
</event>
<event>
 4    1  0.4837985E-002  0.4667627E+02  0.7818608E-02  0.1464140E+00
          2   -1    0    0    0  501  0.00000000000E+00  0.00000000000E+00  0.18498288387E+02  0.18498288563E+02  0.25500000000E-02 0. -1.
         -2   -1    0    0  501    0 -0.00000000000E+00 -0.00000000000E+00 -0.29444267262E+02  0.29444267373E+02  0.25500000000E-02 0. -1.
          2    1    1    2    0  502  0.20367737219E+02  0.11315478102E+02 -0.41011726888E+01  0.23658072365E+02  0.25500000000E-02 0.  1.
         -2    1    1    2  502    0 -0.20367737219E+02 -0.11315478102E+02 -0.68448061859E+01  0.24284483571E+02  0.25500000000E-02 0.  1.
<mgrwt>
<rscale>  0 0.46676270E+02</rscale>
<asrwt>0</asrwt>
<pdfrwt beam="1">  1        2 0.28458905E-02 0.46676270E+02</pdfrwt>
<pdfrwt beam="2">  1       -2 0.45298873E-02 0.46676270E+02</pdfrwt>
<totfact> 0.52225579E+05</totfact>
</mgrwt>
</event>
<event>
 4    1  0.4837985E-002  0.4334361E+02  0.7818608E-02  0.1484955E+00
         -2   -1    0    0  501    0 -0.00000000000E+00  0.00000000000E+00  0.44135396669E+01  0.44135404036E+01  0.25500000000E-02 0. -1.
          2   -1    0    0    0  501  0.00000000000E+00 -0.00000000000E+00 -0.10641505656E+03  0.10641505659E+03  0.25500000000E-02 0. -1.
          2    1    1    2    0  502  0.37057866194E+01  0.21345544819E+02 -0.49595651003E+02  0.54121102567E+02  0.25500000000E-02 0.  1.
         -2    1    1    2  502    0 -0.37057866194E+01 -0.21345544819E+02 -0.52405865893E+02  0.56707494431E+02  0.25500000000E-02 0.  1.
<mgrwt>
<rscale>  0 0.43343609E+02</rscale>
<asrwt>0</asrwt>
<pdfrwt beam="2">  1        2 0.16371545E-01 0.43343609E+02</pdfrwt>
<pdfrwt beam="1">  1       -2 0.67900624E-03 0.43343609E+02</pdfrwt>
<totfact> 0.87069093E+05</totfact>
</mgrwt>
</event>
<event>
 4    1  0.4837985E-002  0.4020681E+02  0.7818608E-02  0.1506695E+00
         -2   -1    0    0  501    0 -0.00000000000E+00  0.00000000000E+00  0.39589330669E+02  0.39589330751E+02  0.25500000000E-02 0.  1.
          2   -1    0    0    0  501  0.00000000000E+00 -0.00000000000E+00 -0.10208479514E+02  0.10208479832E+02  0.25500000000E-02 0.  1.
          2    1    1    2    0  502 -0.57679046777E+01 -0.19235289661E+02  0.13527394771E+02  0.24212713778E+02  0.25500000000E-02 0. -1.
         -2    1    1    2  502    0  0.57679046777E+01  0.19235289661E+02  0.15853456384E+02  0.25585096805E+02  0.25500000000E-02 0. -1.
<mgrwt>
<rscale>  0 0.40206809E+02</rscale>
<asrwt>0</asrwt>
<pdfrwt beam="2">  1        2 0.15705353E-02 0.40206809E+02</pdfrwt>
<pdfrwt beam="1">  1       -2 0.60906663E-02 0.40206809E+02</pdfrwt>
<totfact> 0.71069012E+05</totfact>
</mgrwt>
</event>
<event>
 4    1  0.4837985E-002  0.4291916E+02  0.7818608E-02  0.1487766E+00
          2   -1    0    0    0  501  0.00000000000E+00  0.00000000000E+00  0.54893360322E+03  0.54893360322E+03  0.25500000000E-02 0.  1.
         -2   -1    0    0  501    0 -0.00000000000E+00 -0.00000000000E+00 -0.83892203213E+00  0.83892590763E+00  0.25500000000E-02 0.  1.
          2    1    1    2    0  502  0.14642899743E+02 -0.14966670824E+02  0.21383210286E+03  0.21485479740E+03  0.25500000000E-02 0.  1.
         -2    1    1    2  502    0 -0.14642899743E+02  0.14966670824E+02  0.33426257833E+03  0.33491773173E+03  0.25500000000E-02 0.  1.
<mgrwt>
<rscale>  0 0.42919159E+02</rscale>
<asrwt>0</asrwt>
<pdfrwt beam="1">  1        2 0.84451328E-01 0.42919159E+02</pdfrwt>
<pdfrwt beam="2">  1       -2 0.12906522E-03 0.42919159E+02</pdfrwt>
<totfact> 0.15014099E+06</totfact>
</mgrwt>
</event>
<event>
 4    1  0.4837985E-002  0.5750827E+02  0.7818608E-02  0.1408596E+00
         -2   -1    0    0  501    0 -0.00000000000E+00  0.00000000000E+00  0.72487850453E+00  0.72488298975E+00  0.25500000000E-02 0.  1.
          2   -1    0    0    0  501  0.00000000000E+00 -0.00000000000E+00 -0.11406017986E+04  0.11406017986E+04  0.25500000000E-02 0.  1.
          2    1    1    2    0  502  0.12778444638E+02 -0.24732863505E+02 -0.42710420579E+03  0.42801052065E+03  0.25500000000E-02 0.  1.
         -2    1    1    2  502    0 -0.12778444638E+02  0.24732863505E+02 -0.71277271430E+03  0.71331616093E+03  0.25500000000E-02 0.  1.
<mgrwt>
<rscale>  0 0.57508270E+02</rscale>
<asrwt>0</asrwt>
<pdfrwt beam="2">  1        2 0.17547576E+00 0.57508270E+02</pdfrwt>
<pdfrwt beam="1">  1       -2 0.11152103E-03 0.57508270E+02</pdfrwt>
<totfact> 0.81681568E+05</totfact>
</mgrwt>
</event>
<event>
 4    1  0.4837985E-002  0.5620995E+02  0.7818608E-02  0.1414462E+00
         -2   -1    0    0  501    0 -0.00000000000E+00  0.00000000000E+00  0.49797695632E+00  0.49798348519E+00  0.25500000000E-02 0. -1.
          2   -1    0    0    0  501  0.00000000000E+00 -0.00000000000E+00 -0.15861869966E+04  0.15861869966E+04  0.25500000000E-02 0. -1.
          2    1    1    2    0  502  0.13510532898E+02 -0.15783950587E+02 -0.25858323741E+03  0.25941657286E+03  0.25500000000E-02 0.  1.
         -2    1    1    2  502    0 -0.13510532898E+02  0.15783950587E+02 -0.13271057822E+04  0.13272684072E+04  0.25500000000E-02 0.  1.
<mgrwt>
<rscale>  0 0.56209955E+02</rscale>
<asrwt>0</asrwt>
<pdfrwt beam="2">  1        2 0.24402472E+00 0.56209955E+02</pdfrwt>
<pdfrwt beam="1">  1       -2 0.76613612E-04 0.56209955E+02</pdfrwt>
<totfact> 0.80021960E+05</totfact>
</mgrwt>
</event>
<event>
 4    1  0.4837985E-002  0.8877222E+02  0.7818608E-02  0.1305852E+00
          2   -1    0    0    0  501  0.00000000000E+00  0.00000000000E+00  0.66195765169E+03  0.66195765169E+03  0.25500000000E-02 0. -1.
         -2   -1    0    0  501    0 -0.00000000000E+00 -0.00000000000E+00 -0.29762118788E+01  0.29762129712E+01  0.25500000000E-02 0. -1.
          2    1    1    2    0  502  0.76546554703E+01  0.18681890707E+02  0.62557418426E+03  0.62589988561E+03  0.25500000000E-02 0.  1.
         -2    1    1    2  502    0 -0.76546554703E+01 -0.18681890707E+02  0.33407255548E+02  0.39033979050E+02  0.25500000000E-02 0.  1.
<mgrwt>
<rscale>  0 0.88772216E+02</rscale>
<asrwt>0</asrwt>
<pdfrwt beam="1">  1        2 0.10183979E+00 0.88772216E+02</pdfrwt>
<pdfrwt beam="2">  1       -2 0.45787817E-03 0.88772216E+02</pdfrwt>
<totfact> 0.25101198E+05</totfact>
</mgrwt>
</event>
<event>
 4    1  0.4837985E-002  0.4697178E+02  0.7818608E-02  0.1462395E+00
         -2   -1    0    0  501    0 -0.00000000000E+00  0.00000000000E+00  0.19665308449E+02  0.19665308615E+02  0.25500000000E-02 0. -1.
          2   -1    0    0    0  501  0.00000000000E+00 -0.00000000000E+00 -0.28048729232E+02  0.28048729348E+02  0.25500000000E-02 0. -1.
          2    1    1    2    0  502  0.19697544267E+02 -0.36378380660E+01  0.82641881298E+01  0.21668500822E+02  0.25500000000E-02 0. -1.
         -2    1    1    2  502    0 -0.19697544267E+02  0.36378380660E+01 -0.16647608912E+02  0.26045537140E+02  0.25500000000E-02 0. -1.
<mgrwt>
<rscale>  0 0.46971775E+02</rscale>
<asrwt>0</asrwt>
<pdfrwt beam="2">  1        2 0.43151891E-02 0.46971775E+02</pdfrwt>
<pdfrwt beam="1">  1       -2 0.30254321E-02 0.46971775E+02</pdfrwt>
<totfact> 0.54664128E+05</totfact>
</mgrwt>
</event>
<event>
 4    1  0.4837985E-002  0.6592364E+02  0.7818608E-02  0.1374530E+00
          2   -1    0    0    0  501  0.00000000000E+00  0.00000000000E+00  0.49926451744E+03  0.49926451745E+03  0.25500000000E-02 0. -1.
         -2   -1    0    0  501    0 -0.00000000000E+00 -0.00000000000E+00 -0.21761632892E+01  0.21761647832E+01  0.25500000000E-02 0. -1.
          2    1    1    2    0  502 -0.11081980298E+02 -0.30112998418E+02  0.30590991172E+03  0.30758816144E+03  0.25500000000E-02 0.  1.
         -2    1    1    2  502    0  0.11081980298E+02  0.30112998418E+02  0.19117844243E+03  0.19385252080E+03  0.25500000000E-02 0.  1.
<mgrwt>
<rscale>  0 0.65923637E+02</rscale>
<asrwt>0</asrwt>
<pdfrwt beam="1">  1        2 0.76810061E-01 0.65923637E+02</pdfrwt>
<pdfrwt beam="2">  1       -2 0.33479388E-03 0.65923637E+02</pdfrwt>
<totfact> 0.50075879E+05</totfact>
</mgrwt>
</event>
<event>
 4    1  0.4837985E-002  0.9447845E+02  0.7818608E-02  0.1292355E+00
          2   -1    0    0    0  501  0.00000000000E+00  0.00000000000E+00  0.49495994589E+02  0.49495994655E+02  0.25500000000E-02 0. -1.
         -2   -1    0    0  501    0 -0.00000000000E+00 -0.00000000000E+00 -0.45085356437E+02  0.45085356509E+02  0.25500000000E-02 0. -1.
          2    1    1    2    0  502  0.41909200511E+01 -0.23996177313E+02  0.42723641349E+02  0.49180177645E+02  0.25500000000E-02 0. -1.
         -2    1    1    2  502    0 -0.41909200511E+01  0.23996177313E+02 -0.38313003197E+02  0.45401173520E+02  0.25500000000E-02 0. -1.
<mgrwt>
<rscale>  0 0.94478454E+02</rscale>
<asrwt>0</asrwt>
<pdfrwt beam="1">  1        2 0.76147684E-02 0.94478454E+02</pdfrwt>
<pdfrwt beam="2">  1       -2 0.69362087E-02 0.94478454E+02</pdfrwt>
<totfact> 0.91036761E+04</totfact>
</mgrwt>
</event>
<event>
 4    1  0.4837985E-002  0.1670652E+03  0.7818608E-02  0.1180943E+00
         -2   -1    0    0  501    0 -0.00000000000E+00  0.00000000000E+00  0.40847315619E+02  0.40847315698E+02  0.25500000000E-02 0.  1.
          2   -1    0    0    0  501  0.00000000000E+00 -0.00000000000E+00 -0.17082392915E+03  0.17082392916E+03  0.25500000000E-02 0.  1.
          2    1    1    2    0  502  0.10769060769E+02 -0.62871270140E+02 -0.13332317556E+03  0.14779661169E+03  0.25500000000E-02 0.  1.
         -2    1    1    2  502    0 -0.10769060769E+02  0.62871270140E+02  0.33465620360E+01  0.63874633171E+02  0.25500000000E-02 0.  1.
<mgrwt>
<rscale>  0 0.16706524E+03</rscale>
<asrwt>0</asrwt>
<pdfrwt beam="2">  1        2 0.26280604E-01 0.16706524E+03</pdfrwt>
<pdfrwt beam="1">  1       -2 0.62842025E-02 0.16706524E+03</pdfrwt>
<totfact> 0.26465476E+04</totfact>
</mgrwt>
</event>
<event>
 4    1  0.4837985E-002  0.6331578E+02  0.7818608E-02  0.1384421E+00
         -2   -1    0    0  501    0 -0.00000000000E+00  0.00000000000E+00  0.19495929134E+01  0.19495945810E+01  0.25500000000E-02 0.  1.
          2   -1    0    0    0  501  0.00000000000E+00 -0.00000000000E+00 -0.51406716733E+03  0.51406716734E+03  0.25500000000E-02 0.  1.
          2    1    1    2    0  502  0.79962021141E+01 -0.30627483297E+02 -0.25206492056E+03  0.25404469324E+03  0.25500000000E-02 0. -1.
         -2    1    1    2  502    0 -0.79962021141E+01  0.30627483297E+02 -0.26005265386E+03  0.26197206868E+03  0.25500000000E-02 0. -1.
<mgrwt>
<rscale>  0 0.63315784E+02</rscale>
<asrwt>0</asrwt>
<pdfrwt beam="2">  1        2 0.79087149E-01 0.63315784E+02</pdfrwt>
<pdfrwt beam="1">  1       -2 0.29993791E-03 0.63315784E+02</pdfrwt>
<totfact> 0.56014838E+05</totfact>
</mgrwt>
</event>
<event>
 4    1  0.4837985E-002  0.4895348E+02  0.7818608E-02  0.1451069E+00
          2   -1    0    0    0  501  0.00000000000E+00  0.00000000000E+00  0.66835138085E+03  0.66835138085E+03  0.25500000000E-02 0. -1.
         -2   -1    0    0  501    0 -0.00000000000E+00 -0.00000000000E+00 -0.89639901999E+00  0.89640264699E+00  0.25500000000E-02 0. -1.
          2    1    1    2    0  502  0.23935735311E+02 -0.21456758429E+00  0.40363115470E+03  0.40434029544E+03  0.25500000000E-02 0.  1.
         -2    1    1    2  502    0 -0.23935735311E+02  0.21456758429E+00  0.26382382713E+03  0.26490748806E+03  0.25500000000E-02 0.  1.
<mgrwt>
<rscale>  0 0.48953477E+02</rscale>
<asrwt>0</asrwt>
<pdfrwt beam="1">  1        2 0.10282371E+00 0.48953477E+02</pdfrwt>
<pdfrwt beam="2">  1       -2 0.13790726E-03 0.48953477E+02</pdfrwt>
<totfact> 0.11469819E+06</totfact>
</mgrwt>
</event>
<event>
 4    1  0.4837985E-002  0.5102864E+02  0.7818608E-02  0.1439871E+00
         -2   -1    0    0  501    0 -0.00000000000E+00  0.00000000000E+00  0.33999733994E+02  0.33999734090E+02  0.25500000000E-02 0. -1.
          2   -1    0    0    0  501  0.00000000000E+00 -0.00000000000E+00 -0.19146633738E+02  0.19146633908E+02  0.25500000000E-02 0. -1.
          2    1    1    2    0  502 -0.19926982316E+02  0.12687763313E+02  0.17465909979E+02  0.29378937693E+02  0.25500000000E-02 0.  1.
         -2    1    1    2  502    0  0.19926982316E+02 -0.12687763313E+02 -0.26128097220E+01  0.23767430304E+02  0.25500000000E-02 0.  1.
<mgrwt>
<rscale>  0 0.51028637E+02</rscale>
<asrwt>0</asrwt>
<pdfrwt beam="2">  1        2 0.29456360E-02 0.51028637E+02</pdfrwt>
<pdfrwt beam="1">  1       -2 0.52307283E-02 0.51028637E+02</pdfrwt>
<totfact> 0.41412611E+05</totfact>
</mgrwt>
</event>
<event>
 4    1  0.4837985E-002  0.4054562E+02  0.7818608E-02  0.1504234E+00
          2   -1    0    0    0  501  0.00000000000E+00  0.00000000000E+00  0.31970289503E+03  0.31970289504E+03  0.25500000000E-02 0. -1.
         -2   -1    0    0  501    0 -0.00000000000E+00 -0.00000000000E+00 -0.12855261104E+01  0.12855286395E+01  0.25500000000E-02 0. -1.
          2    1    1    2    0  502  0.52657653971E+01 -0.19353342495E+02  0.13584875933E+03  0.13732139516E+03  0.25500000000E-02 0. -1.
         -2    1    1    2  502    0 -0.52657653971E+01  0.19353342495E+02  0.18256860959E+03  0.18366702852E+03  0.25500000000E-02 0. -1.
<mgrwt>
<rscale>  0 0.40545620E+02</rscale>
<asrwt>0</asrwt>
<pdfrwt beam="1">  1        2 0.49185120E-01 0.40545620E+02</pdfrwt>
<pdfrwt beam="2">  1       -2 0.19777320E-03 0.40545620E+02</pdfrwt>
<totfact> 0.14468485E+06</totfact>
</mgrwt>
</event>
<event>
 4    1  0.4837985E-002  0.8597644E+02  0.7818608E-02  0.1312899E+00
          2   -1    0    0    0  501  0.00000000000E+00  0.00000000000E+00  0.51516497465E+01  0.51516503777E+01  0.25500000000E-02 0. -1.
         -2   -1    0    0  501    0 -0.00000000000E+00 -0.00000000000E+00 -0.35871750808E+03  0.35871750809E+03  0.25500000000E-02 0. -1.
          2    1    1    2    0  502 -0.98449557657E+01  0.23314560676E+02 -0.32384764499E+03  0.32483501822E+03  0.25500000000E-02 0. -1.
         -2    1    1    2  502    0  0.98449557657E+01 -0.23314560676E+02 -0.29718213344E+02  0.39034140241E+02  0.25500000000E-02 0. -1.
<mgrwt>
<rscale>  0 0.85976440E+02</rscale>
<asrwt>0</asrwt>
<pdfrwt beam="1">  1        2 0.79256183E-03 0.85976440E+02</pdfrwt>
<pdfrwt beam="2">  1       -2 0.55187289E-01 0.85976440E+02</pdfrwt>
<totfact> 0.53331109E+04</totfact>
</mgrwt>
</event>
<event>
 4    1  0.4837985E-002  0.5629207E+02  0.7818608E-02  0.1414086E+00
         -2   -1    0    0  501    0 -0.00000000000E+00  0.00000000000E+00  0.37434710127E+01  0.37434718812E+01  0.25500000000E-02 0.  1.
          2   -1    0    0    0  501  0.00000000000E+00 -0.00000000000E+00 -0.21162159808E+03  0.21162159810E+03  0.25500000000E-02 0.  1.
          2    1    1    2    0  502  0.50656948553E+01  0.26927683835E+02 -0.12856696066E+03  0.13145426886E+03  0.25500000000E-02 0.  1.
         -2    1    1    2  502    0 -0.50656948553E+01 -0.26927683835E+02 -0.79311166414E+02  0.83910801126E+02  0.25500000000E-02 0.  1.
<mgrwt>
<rscale>  0 0.56292075E+02</rscale>
<asrwt>0</asrwt>
<pdfrwt beam="2">  1        2 0.32557160E-01 0.56292075E+02</pdfrwt>
<pdfrwt beam="1">  1       -2 0.57591885E-03 0.56292075E+02</pdfrwt>
<totfact> 0.55647150E+05</totfact>
</mgrwt>
</event>
<event>
 4    1  0.4837985E-002  0.4904537E+02  0.7818608E-02  0.1450560E+00
         -2   -1    0    0  501    0 -0.00000000000E+00  0.00000000000E+00  0.22465923740E+02  0.22465923884E+02  0.25500000000E-02 0.  1.
          2   -1    0    0    0  501  0.00000000000E+00 -0.00000000000E+00 -0.26767742027E+02  0.26767742148E+02  0.25500000000E-02 0.  1.
          2    1    1    2    0  502  0.24442502622E+02 -0.13606597051E+01 -0.70498966086E+00  0.24490495017E+02  0.25500000000E-02 0.  1.
         -2    1    1    2  502    0 -0.24442502622E+02  0.13606597051E+01 -0.35968286264E+01  0.24743171016E+02  0.25500000000E-02 0.  1.
<mgrwt>
<rscale>  0 0.49045369E+02</rscale>
<asrwt>0</asrwt>
<pdfrwt beam="2">  1        2 0.41181142E-02 0.49045369E+02</pdfrwt>
<pdfrwt beam="1">  1       -2 0.34562960E-02 0.49045369E+02</pdfrwt>
<totfact> 0.48488236E+05</totfact>
</mgrwt>
</event>
<event>
 4    1  0.4837985E-002  0.6430717E+02  0.7818608E-02  0.1380597E+00
          2   -1    0    0    0  501  0.00000000000E+00  0.00000000000E+00  0.53094591620E+03  0.53094591621E+03  0.25500000000E-02 0. -1.
         -2   -1    0    0  501    0 -0.00000000000E+00 -0.00000000000E+00 -0.19471900759E+01  0.19471917457E+01  0.25500000000E-02 0. -1.
          2    1    1    2    0  502 -0.28380351238E+02 -0.13508022415E+02  0.20833175921E+03  0.21068942287E+03  0.25500000000E-02 0. -1.
         -2    1    1    2  502    0  0.28380351238E+02  0.13508022415E+02  0.32066696692E+03  0.32220368509E+03  0.25500000000E-02 0. -1.
<mgrwt>
<rscale>  0 0.64307171E+02</rscale>
<asrwt>0</asrwt>
<pdfrwt beam="1">  1        2 0.81683946E-01 0.64307171E+02</pdfrwt>
<pdfrwt beam="2">  1       -2 0.29956798E-03 0.64307171E+02</pdfrwt>
<totfact> 0.54378217E+05</totfact>
</mgrwt>
</event>
<event>
 4    1  0.4837985E-002  0.7143937E+02  0.7818608E-02  0.1355266E+00
          2   -1    0    0    0  501  0.00000000000E+00  0.00000000000E+00  0.10487906985E+04  0.10487906985E+04  0.25500000000E-02 0. -1.
         -2   -1    0    0  501    0 -0.00000000000E+00 -0.00000000000E+00 -0.12165386568E+01  0.12165413293E+01  0.25500000000E-02 0. -1.
          2    1    1    2    0  502 -0.87954885967E+01 -0.19841444393E+02  0.10680942680E+03  0.10899218869E+03  0.25500000000E-02 0.  1.
         -2    1    1    2  502    0  0.87954885967E+01  0.19841444393E+02  0.94076473307E+03  0.94101505118E+03  0.25500000000E-02 0.  1.
<mgrwt>
<rscale>  0 0.71439368E+02</rscale>
<asrwt>0</asrwt>
<pdfrwt beam="1">  1        2 0.16135336E+00 0.71439368E+02</pdfrwt>
<pdfrwt beam="2">  1       -2 0.18715891E-03 0.71439368E+02</pdfrwt>
<totfact> 0.47206703E+05</totfact>
</mgrwt>
</event>
<event>
 4    1  0.4837985E-002  0.5726791E+02  0.7818608E-02  0.1409668E+00
          2   -1    0    0    0  501  0.00000000000E+00  0.00000000000E+00  0.10101999988E+02  0.10102000310E+02  0.25500000000E-02 0.  1.
         -2   -1    0    0  501    0 -0.00000000000E+00 -0.00000000000E+00 -0.81162472858E+02  0.81162472898E+02  0.25500000000E-02 0.  1.
          2    1    1    2    0  502  0.22095295780E+02  0.10027106435E+02 -0.11300693158E+02  0.26766595439E+02  0.25500000000E-02 0.  1.
         -2    1    1    2  502    0 -0.22095295780E+02 -0.10027106435E+02 -0.59759779711E+02  0.64497877769E+02  0.25500000000E-02 0.  1.
<mgrwt>
<rscale>  0 0.57267908E+02</rscale>
<asrwt>0</asrwt>
<pdfrwt beam="1">  1        2 0.15541539E-02 0.57267908E+02</pdfrwt>
<pdfrwt beam="2">  1       -2 0.12486534E-01 0.57267908E+02</pdfrwt>
<totfact> 0.26627845E+05</totfact>
</mgrwt>
</event>
<event>
 4    1  0.4837985E-002  0.1435513E+03  0.7818608E-02  0.1208629E+00
          2   -1    0    0    0  501  0.00000000000E+00  0.00000000000E+00  0.20443839639E+03  0.20443839641E+03  0.25500000000E-02 0. -1.
         -2   -1    0    0  501    0 -0.00000000000E+00 -0.00000000000E+00 -0.25199477175E+02  0.25199477304E+02  0.25500000000E-02 0. -1.
          2    1    1    2    0  502  0.58941036889E+02  0.36384431935E+02  0.11971188320E+03  0.13830693295E+03  0.25500000000E-02 0. -1.
         -2    1    1    2  502    0 -0.58941036889E+02 -0.36384431935E+02  0.59527036019E+02  0.91330940762E+02  0.25500000000E-02 0. -1.
<mgrwt>
<rscale>  0 0.14355126E+03</rscale>
<asrwt>0</asrwt>
<pdfrwt beam="1">  1        2 0.31452061E-01 0.14355126E+03</pdfrwt>
<pdfrwt beam="2">  1       -2 0.38768427E-02 0.14355126E+03</pdfrwt>
<totfact> 0.44311713E+04</totfact>
</mgrwt>
</event>
<event>
 4    1  0.4837985E-002  0.7207881E+02  0.7818608E-02  0.1353163E+00
         -2   -1    0    0  501    0 -0.00000000000E+00  0.00000000000E+00  0.13994141389E+01  0.13994164622E+01  0.25500000000E-02 0. -1.
          2   -1    0    0    0  501  0.00000000000E+00 -0.00000000000E+00 -0.92812950461E+03  0.92812950462E+03  0.25500000000E-02 0. -1.
          2    1    1    2    0  502 -0.58619565754E+01  0.23290504726E+02 -0.80988837329E+03  0.81024439976E+03  0.25500000000E-02 0.  1.
         -2    1    1    2  502    0  0.58619565754E+01 -0.23290504726E+02 -0.11684171719E+03  0.11928452132E+03  0.25500000000E-02 0.  1.
<mgrwt>
<rscale>  0 0.72078808E+02</rscale>
<asrwt>0</asrwt>
<pdfrwt beam="2">  1        2 0.14278866E+00 0.72078808E+02</pdfrwt>
<pdfrwt beam="1">  1       -2 0.21529540E-03 0.72078808E+02</pdfrwt>
<totfact> 0.45851029E+05</totfact>
</mgrwt>
</event>
<event>
 4    1  0.4837985E-002  0.4945885E+02  0.7818608E-02  0.1448282E+00
          2   -1    0    0    0  501  0.00000000000E+00  0.00000000000E+00  0.26891747078E+03  0.26891747080E+03  0.25500000000E-02 0.  1.
         -2   -1    0    0  501    0 -0.00000000000E+00 -0.00000000000E+00 -0.22740961909E+01  0.22740976206E+01  0.25500000000E-02 0.  1.
          2    1    1    2    0  502 -0.17378198131E+02  0.12150273280E+02  0.63550889528E+02  0.66995122788E+02  0.25500000000E-02 0. -1.
         -2    1    1    2  502    0  0.17378198131E+02 -0.12150273280E+02  0.20309248506E+03  0.20419644563E+03  0.25500000000E-02 0. -1.
<mgrwt>
<rscale>  0 0.49458847E+02</rscale>
<asrwt>0</asrwt>
<pdfrwt beam="1">  1        2 0.41371927E-01 0.49458847E+02</pdfrwt>
<pdfrwt beam="2">  1       -2 0.34986099E-03 0.49458847E+02</pdfrwt>
<totfact> 0.83665605E+05</totfact>
</mgrwt>
</event>
<event>
 4    1  0.4837985E-002  0.4810426E+02  0.7818608E-02  0.1455843E+00
         -2   -1    0    0  501    0 -0.00000000000E+00  0.00000000000E+00  0.57501498234E+00  0.57502063651E+00  0.25500000000E-02 0.  1.
          2   -1    0    0    0  501  0.00000000000E+00 -0.00000000000E+00 -0.10060643036E+04  0.10060643036E+04  0.25500000000E-02 0.  1.
          2    1    1    2    0  502 -0.18565876801E+02  0.12848128187E+02 -0.32924800597E+03  0.33002123510E+03  0.25500000000E-02 0. -1.
         -2    1    1    2  502    0  0.18565876801E+02 -0.12848128187E+02 -0.67624128262E+03  0.67661808911E+03  0.25500000000E-02 0. -1.
<mgrwt>
<rscale>  0 0.48104257E+02</rscale>
<asrwt>0</asrwt>
<pdfrwt beam="2">  1        2 0.15477771E+00 0.48104257E+02</pdfrwt>
<pdfrwt beam="1">  1       -2 0.88465084E-04 0.48104257E+02</pdfrwt>
<totfact> 0.12737212E+06</totfact>
</mgrwt>
</event>
<event>
 4    1  0.4837985E-002  0.1390952E+03  0.7818608E-02  0.1214552E+00
          2   -1    0    0    0  501  0.00000000000E+00  0.00000000000E+00  0.17532322548E+03  0.17532322549E+03  0.25500000000E-02 0. -1.
         -2   -1    0    0  501    0 -0.00000000000E+00 -0.00000000000E+00 -0.27588274618E+02  0.27588274735E+02  0.25500000000E-02 0. -1.
          2    1    1    2    0  502  0.20780985897E+02  0.58966469930E+02  0.29428713294E+02  0.69100963260E+02  0.25500000000E-02 0. -1.
         -2    1    1    2  502    0 -0.20780985897E+02 -0.58966469930E+02  0.11830623756E+03  0.13381053697E+03  0.25500000000E-02 0. -1.
<mgrwt>
<rscale>  0 0.13909515E+03</rscale>
<asrwt>0</asrwt>
<pdfrwt beam="1">  1        2 0.26972803E-01 0.13909515E+03</pdfrwt>
<pdfrwt beam="2">  1       -2 0.42443502E-02 0.13909515E+03</pdfrwt>
<totfact> 0.45600445E+04</totfact>
</mgrwt>
</event>
<event>
 4    1  0.4837985E-002  0.5620608E+02  0.7818608E-02  0.1414480E+00
         -2   -1    0    0  501    0 -0.00000000000E+00  0.00000000000E+00  0.28652787039E+03  0.28652787040E+03  0.25500000000E-02 0. -1.
          2   -1    0    0    0  501  0.00000000000E+00 -0.00000000000E+00 -0.27563837855E+01  0.27563849650E+01  0.25500000000E-02 0. -1.
          2    1    1    2    0  502  0.26827856558E+02  0.43068411182E+01  0.17882068260E+03  0.18087321333E+03  0.25500000000E-02 0.  1.
         -2    1    1    2  502    0 -0.26827856558E+02 -0.43068411182E+01  0.10495080400E+03  0.10841104204E+03  0.25500000000E-02 0.  1.
<mgrwt>
<rscale>  0 0.56206083E+02</rscale>
<asrwt>0</asrwt>
<pdfrwt beam="2">  1        2 0.42405900E-03 0.56206083E+02</pdfrwt>
<pdfrwt beam="1">  1       -2 0.44081225E-01 0.56206083E+02</pdfrwt>
<totfact> 0.17825890E+05</totfact>
</mgrwt>
</event>
<event>
 4    1  0.4837985E-002  0.5621247E+02  0.7818608E-02  0.1414450E+00
         -2   -1    0    0  501    0 -0.00000000000E+00  0.00000000000E+00  0.36285316267E+00  0.36286212280E+00  0.25500000000E-02 0.  1.
          2   -1    0    0    0  501  0.00000000000E+00 -0.00000000000E+00 -0.21770535596E+04  0.21770535596E+04  0.25500000000E-02 0.  1.
          2    1    1    2    0  502  0.20170449720E+02  0.15599901941E+02 -0.15462708956E+04  0.15464811304E+04  0.25500000000E-02 0.  1.
         -2    1    1    2  502    0 -0.20170449720E+02 -0.15599901941E+02 -0.63041981076E+03  0.63093529128E+03  0.25500000000E-02 0.  1.
<mgrwt>
<rscale>  0 0.56212473E+02</rscale>
<asrwt>0</asrwt>
<pdfrwt beam="2">  1        2 0.33492086E+00 0.56212473E+02</pdfrwt>
<pdfrwt beam="1">  1       -2 0.55825996E-04 0.56212473E+02</pdfrwt>
<totfact> 0.62954199E+05</totfact>
</mgrwt>
</event>
<event>
 4    1  0.4837985E-002  0.4273797E+02  0.7818608E-02  0.1488978E+00
          2   -1    0    0    0  501  0.00000000000E+00  0.00000000000E+00  0.47167209586E+03  0.47167209587E+03  0.25500000000E-02 0. -1.
         -2   -1    0    0  501    0 -0.00000000000E+00 -0.00000000000E+00 -0.96811470991E+00  0.96811806823E+00  0.25500000000E-02 0. -1.
          2    1    1    2    0  502  0.20958431221E+02 -0.41343299880E+01  0.22944850877E+03  0.23044080956E+03  0.25500000000E-02 0. -1.
         -2    1    1    2  502    0 -0.20958431221E+02  0.41343299880E+01  0.24125547238E+03  0.24219940438E+03  0.25500000000E-02 0. -1.
<mgrwt>
<rscale>  0 0.42737969E+02</rscale>
<asrwt>0</asrwt>
<pdfrwt beam="1">  1        2 0.72564891E-01 0.42737969E+02</pdfrwt>
<pdfrwt beam="2">  1       -2 0.14894108E-03 0.42737969E+02</pdfrwt>
<totfact> 0.14490429E+06</totfact>
</mgrwt>
</event>
<event>
 4    1  0.4837985E-002  0.4146088E+02  0.7818608E-02  0.1497728E+00
          2   -1    0    0    0  501  0.00000000000E+00  0.00000000000E+00  0.17669395254E+04  0.17669395254E+04  0.25500000000E-02 0.  1.
         -2   -1    0    0  501    0 -0.00000000000E+00 -0.00000000000E+00 -0.24321106690E+00  0.24322443455E+00  0.25500000000E-02 0.  1.
          2    1    1    2    0  502  0.34441672221E+01 -0.20425455290E+02  0.91874164716E+03  0.91897512249E+03  0.25500000000E-02 0.  1.
         -2    1    1    2  502    0 -0.34441672221E+01  0.20425455290E+02  0.84795466715E+03  0.84820762733E+03  0.25500000000E-02 0.  1.
<mgrwt>
<rscale>  0 0.41460876E+02</rscale>
<asrwt>0</asrwt>
<pdfrwt beam="1">  1        2 0.27184653E+00 0.41460876E+02</pdfrwt>
<pdfrwt beam="2">  1       -2 0.37416784E-04 0.41460876E+02</pdfrwt>
<totfact> 0.16042289E+06</totfact>
</mgrwt>
</event>
<event>
 4    1  0.4837985E-002  0.8650864E+02  0.7818608E-02  0.1311534E+00
          2   -1    0    0    0  501  0.00000000000E+00  0.00000000000E+00  0.51249259999E+03  0.51249260000E+03  0.25500000000E-02 0.  1.
         -2   -1    0    0  501    0 -0.00000000000E+00 -0.00000000000E+00 -0.36506598143E+01  0.36506607049E+01  0.25500000000E-02 0.  1.
          2    1    1    2    0  502 -0.24132482354E+02 -0.14457559652E+02  0.58387670376E+02  0.64811401729E+02  0.25500000000E-02 0. -1.
         -2    1    1    2  502    0  0.24132482354E+02  0.14457559652E+02  0.45045426980E+03  0.45133185897E+03  0.25500000000E-02 0. -1.
<mgrwt>
<rscale>  0 0.86508644E+02</rscale>
<asrwt>0</asrwt>
<pdfrwt beam="1">  1        2 0.78845081E-01 0.86508644E+02</pdfrwt>
<pdfrwt beam="2">  1       -2 0.56163957E-03 0.86508644E+02</pdfrwt>
<totfact> 0.24951957E+05</totfact>
</mgrwt>
</event>
<event>
 4    1  0.4837985E-002  0.8221151E+02  0.7818608E-02  0.1322890E+00
          2   -1    0    0    0  501  0.00000000000E+00  0.00000000000E+00  0.18189678378E+04  0.18189678378E+04  0.25500000000E-02 0. -1.
         -2   -1    0    0  501    0 -0.00000000000E+00 -0.00000000000E+00 -0.92892237566E+00  0.92892587568E+00  0.25500000000E-02 0. -1.
          2    1    1    2    0  502  0.26092351413E+02  0.21243358612E+02  0.38629550721E+03  0.38775805599E+03  0.25500000000E-02 0.  1.
         -2    1    1    2  502    0 -0.26092351413E+02 -0.21243358612E+02  0.14317434082E+04  0.14321387077E+04  0.25500000000E-02 0.  1.
<mgrwt>
<rscale>  0 0.82211510E+02</rscale>
<asrwt>0</asrwt>
<pdfrwt beam="1">  1        2 0.27984251E+00 0.82211510E+02</pdfrwt>
<pdfrwt beam="2">  1       -2 0.14291074E-03 0.82211510E+02</pdfrwt>
<totfact> 0.27924244E+05</totfact>
</mgrwt>
</event>
<event>
 4    1  0.4837985E-002  0.5785249E+02  0.7818608E-02  0.1407071E+00
         -2   -1    0    0  501    0 -0.00000000000E+00  0.00000000000E+00  0.19377387118E+01  0.19377403896E+01  0.25500000000E-02 0.  1.
          2   -1    0    0    0  501  0.00000000000E+00 -0.00000000000E+00 -0.43180603540E+03  0.43180603540E+03  0.25500000000E-02 0.  1.
          2    1    1    2    0  502  0.20478949270E+02 -0.17907804681E+02 -0.28864202925E+03  0.28992119255E+03  0.25500000000E-02 0. -1.
         -2    1    1    2  502    0 -0.20478949270E+02  0.17907804681E+02 -0.14122626743E+03  0.14382258324E+03  0.25500000000E-02 0. -1.
<mgrwt>
<rscale>  0 0.57852490E+02</rscale>
<asrwt>0</asrwt>
<pdfrwt beam="2">  1        2 0.66431621E-01 0.57852490E+02</pdfrwt>
<pdfrwt beam="1">  1       -2 0.29811412E-03 0.57852490E+02</pdfrwt>
<totfact> 0.66543663E+05</totfact>
</mgrwt>
</event>
<event>
 4    1  0.4837985E-002  0.5959692E+02  0.7818608E-02  0.1399531E+00
          2   -1    0    0    0  501  0.00000000000E+00  0.00000000000E+00  0.99708572736E+00  0.99708898811E+00  0.25500000000E-02 0.  1.
         -2   -1    0    0  501    0 -0.00000000000E+00 -0.00000000000E+00 -0.89054210093E+03  0.89054210093E+03  0.25500000000E-02 0.  1.
          2    1    1    2    0  502  0.22027496102E+02  0.92185700095E+01 -0.17810920738E+03  0.17970276118E+03  0.25500000000E-02 0.  1.
         -2    1    1    2  502    0 -0.22027496102E+02 -0.92185700095E+01 -0.71143580783E+03  0.71183642874E+03  0.25500000000E-02 0.  1.
<mgrwt>
<rscale>  0 0.59596922E+02</rscale>
<asrwt>0</asrwt>
<pdfrwt beam="1">  1        2 0.15339877E-03 0.59596922E+02</pdfrwt>
<pdfrwt beam="2">  1       -2 0.13700584E+00 0.59596922E+02</pdfrwt>
<totfact> 0.63005256E+04</totfact>
</mgrwt>
</event>
<event>
 4    1  0.4837985E-002  0.6526624E+02  0.7818608E-02  0.1376973E+00
         -2   -1    0    0  501    0 -0.00000000000E+00  0.00000000000E+00  0.38590418130E+02  0.38590418215E+02  0.25500000000E-02 0. -1.
          2   -1    0    0    0  501  0.00000000000E+00 -0.00000000000E+00 -0.27595466796E+02  0.27595466913E+02  0.25500000000E-02 0. -1.
          2    1    1    2    0  502  0.31101027955E+02  0.98425652542E+01  0.46072844746E+01  0.32945061957E+02  0.25500000000E-02 0. -1.
         -2    1    1    2  502    0 -0.31101027955E+02 -0.98425652542E+01  0.63876668601E+01  0.33240823171E+02  0.25500000000E-02 0. -1.
<mgrwt>
<rscale>  0 0.65266243E+02</rscale>
<asrwt>0</asrwt>
<pdfrwt beam="2">  1        2 0.42454565E-02 0.65266243E+02</pdfrwt>
<pdfrwt beam="1">  1       -2 0.59369874E-02 0.65266243E+02</pdfrwt>
<totfact> 0.22595250E+05</totfact>
</mgrwt>
</event>
<event>
 4    1  0.4837985E-002  0.5845398E+02  0.7818608E-02  0.1404437E+00
          2   -1    0    0    0  501  0.00000000000E+00  0.00000000000E+00  0.57126447635E+03  0.57126447635E+03  0.25500000000E-02 0.  1.
         -2   -1    0    0  501    0 -0.00000000000E+00 -0.00000000000E+00 -0.14953081654E+01  0.14953103397E+01  0.25500000000E-02 0.  1.
          2    1    1    2    0  502 -0.45855599790E+01 -0.26210545963E+02  0.40335982329E+03  0.40423652375E+03  0.25500000000E-02 0. -1.
         -2    1    1    2  502    0  0.45855599790E+01  0.26210545963E+02  0.16640934489E+03  0.16852326294E+03  0.25500000000E-02 0. -1.
<mgrwt>
<rscale>  0 0.58453984E+02</rscale>
<asrwt>0</asrwt>
<pdfrwt beam="1">  1        2 0.87887046E-01 0.58453984E+02</pdfrwt>
<pdfrwt beam="2">  1       -2 0.23004705E-03 0.58453984E+02</pdfrwt>
<totfact> 0.70759384E+05</totfact>
</mgrwt>
</event>
<event>
 4    1  0.4837985E-002  0.5525941E+02  0.7818608E-02  0.1418876E+00
          2   -1    0    0    0  501  0.00000000000E+00  0.00000000000E+00  0.25378865466E+03  0.25378865468E+03  0.25500000000E-02 0.  1.
         -2   -1    0    0  501    0 -0.00000000000E+00 -0.00000000000E+00 -0.30080161821E+01  0.30080172629E+01  0.25500000000E-02 0.  1.
          2    1    1    2    0  502  0.87173064054E+01 -0.24150483794E+02  0.77961713428E+02  0.82080850785E+02  0.25500000000E-02 0.  1.
         -2    1    1    2  502    0 -0.87173064054E+01  0.24150483794E+02  0.17281892505E+03  0.17471582115E+03  0.25500000000E-02 0.  1.
<mgrwt>
<rscale>  0 0.55259407E+02</rscale>
<asrwt>0</asrwt>
<pdfrwt beam="1">  1        2 0.39044414E-01 0.55259407E+02</pdfrwt>
<pdfrwt beam="2">  1       -2 0.46277174E-03 0.55259407E+02</pdfrwt>
<totfact> 0.62086030E+05</totfact>
</mgrwt>
</event>
<event>
 4    1  0.4837985E-002  0.6021898E+02  0.7818608E-02  0.1396915E+00
          2   -1    0    0    0  501  0.00000000000E+00  0.00000000000E+00  0.22375632767E+02  0.22375632912E+02  0.25500000000E-02 0. -1.
         -2   -1    0    0  501    0 -0.00000000000E+00 -0.00000000000E+00 -0.40516456630E+02  0.40516456710E+02  0.25500000000E-02 0. -1.
          2    1    1    2    0  502 -0.25518636215E+02 -0.97127650122E+01 -0.22323992848E+02  0.35268956061E+02  0.25500000000E-02 0.  1.
         -2    1    1    2  502    0  0.25518636215E+02  0.97127650122E+01  0.41831689850E+01  0.27623133561E+02  0.25500000000E-02 0.  1.
<mgrwt>
<rscale>  0 0.60218979E+02</rscale>
<asrwt>0</asrwt>
<pdfrwt beam="1">  1        2 0.34424051E-02 0.60218979E+02</pdfrwt>
<pdfrwt beam="2">  1       -2 0.62333010E-02 0.60218979E+02</pdfrwt>
<totfact> 0.27113028E+05</totfact>
</mgrwt>
</event>
<event>
 4    1  0.4837985E-002  0.4090765E+02  0.7818608E-02  0.1501636E+00
          2   -1    0    0    0  501  0.00000000000E+00  0.00000000000E+00  0.49068472451E+03  0.49068472452E+03  0.25500000000E-02 0. -1.
         -2   -1    0    0  501    0 -0.00000000000E+00 -0.00000000000E+00 -0.85260037189E+00  0.85260418522E+00  0.25500000000E-02 0. -1.
          2    1    1    2    0  502 -0.15080510398E+02 -0.13792838737E+02  0.23490094934E+03  0.23578829530E+03  0.25500000000E-02 0. -1.
         -2    1    1    2  502    0  0.15080510398E+02  0.13792838737E+02  0.25493117480E+03  0.25574903340E+03  0.25500000000E-02 0. -1.
<mgrwt>
<rscale>  0 0.40907648E+02</rscale>
<asrwt>0</asrwt>
<pdfrwt beam="1">  1        2 0.75490073E-01 0.40907648E+02</pdfrwt>
<pdfrwt beam="2">  1       -2 0.13116938E-03 0.40907648E+02</pdfrwt>
<totfact> 0.16308775E+06</totfact>
</mgrwt>
</event>
<event>
 4    1  0.4837985E-002  0.5807836E+02  0.7818608E-02  0.1406078E+00
         -2   -1    0    0  501    0 -0.00000000000E+00  0.00000000000E+00  0.51998824437E+01  0.51998830690E+01  0.25500000000E-02 0.  1.
          2   -1    0    0    0  501  0.00000000000E+00 -0.00000000000E+00 -0.16217172277E+03  0.16217172279E+03  0.25500000000E-02 0.  1.
          2    1    1    2    0  502  0.11350396934E+02 -0.21915217993E+02 -0.12258495059E+03  0.12504470564E+03  0.25500000000E-02 0.  1.
         -2    1    1    2  502    0 -0.11350396934E+02  0.21915217993E+02 -0.34386889743E+02  0.42326900228E+02  0.25500000000E-02 0.  1.
<mgrwt>
<rscale>  0 0.58078359E+02</rscale>
<asrwt>0</asrwt>
<pdfrwt beam="2">  1        2 0.24949492E-01 0.58078359E+02</pdfrwt>
<pdfrwt beam="1">  1       -2 0.79998209E-03 0.58078359E+02</pdfrwt>
<totfact> 0.47059280E+05</totfact>
</mgrwt>
</event>
<event>
 4    1  0.4837985E-002  0.5470171E+02  0.7818608E-02  0.1421515E+00
         -2   -1    0    0  501    0 -0.00000000000E+00  0.00000000000E+00  0.28827824947E+01  0.28827836226E+01  0.25500000000E-02 0.  1.
          2   -1    0    0    0  501  0.00000000000E+00 -0.00000000000E+00 -0.25949554765E+03  0.25949554766E+03  0.25500000000E-02 0.  1.
          2    1    1    2    0  502  0.13676971356E+02  0.19788160042E+02 -0.19074210425E+03  0.19225290938E+03  0.25500000000E-02 0.  1.
         -2    1    1    2  502    0 -0.13676971356E+02 -0.19788160042E+02 -0.65870660902E+02  0.70125421906E+02  0.25500000000E-02 0.  1.
<mgrwt>
<rscale>  0 0.54701714E+02</rscale>
<asrwt>0</asrwt>
<pdfrwt beam="2">  1        2 0.39922374E-01 0.54701714E+02</pdfrwt>
<pdfrwt beam="1">  1       -2 0.44350529E-03 0.54701714E+02</pdfrwt>
<totfact> 0.64192991E+05</totfact>
</mgrwt>
</event>
<event>
 4    1  0.4837985E-002  0.4746493E+02  0.7818608E-02  0.1459515E+00
          2   -1    0    0    0  501  0.00000000000E+00  0.00000000000E+00  0.15001273711E+03  0.15001273713E+03  0.25500000000E-02 0. -1.
         -2   -1    0    0  501    0 -0.00000000000E+00 -0.00000000000E+00 -0.37545467275E+01  0.37545475934E+01  0.25500000000E-02 0. -1.
          2    1    1    2    0  502  0.18247516110E+02 -0.14286557520E+02  0.89696185310E+02  0.92641692750E+02  0.25500000000E-02 0.  1.
         -2    1    1    2  502    0 -0.18247516110E+02  0.14286557520E+02  0.56562005074E+02  0.61125591977E+02  0.25500000000E-02 0.  1.
<mgrwt>
<rscale>  0 0.47464930E+02</rscale>
<asrwt>0</asrwt>
<pdfrwt beam="1">  1        2 0.23078881E-01 0.47464930E+02</pdfrwt>
<pdfrwt beam="2">  1       -2 0.57762268E-03 0.47464930E+02</pdfrwt>
<totfact> 0.76512267E+05</totfact>
</mgrwt>
</event>
<event>
 4    1  0.4837985E-002  0.6149372E+02  0.7818608E-02  0.1391668E+00
          2   -1    0    0    0  501  0.00000000000E+00  0.00000000000E+00  0.39666208496E+03  0.39666208497E+03  0.25500000000E-02 0. -1.
         -2   -1    0    0  501    0 -0.00000000000E+00 -0.00000000000E+00 -0.23833109927E+01  0.23833123569E+01  0.25500000000E-02 0. -1.
          2    1    1    2    0  502 -0.88091240179E+01 -0.20479558904E+02  0.33454460299E+03  0.33528660039E+03  0.25500000000E-02 0.  1.
         -2    1    1    2  502    0  0.88091240179E+01  0.20479558904E+02  0.59734170972E+02  0.63758796939E+02  0.25500000000E-02 0.  1.
<mgrwt>
<rscale>  0 0.61493719E+02</rscale>
<asrwt>0</asrwt>
<pdfrwt beam="1">  1        2 0.61024948E-01 0.61493719E+02</pdfrwt>
<pdfrwt beam="2">  1       -2 0.36666326E-03 0.61493719E+02</pdfrwt>
<totfact> 0.55394435E+05</totfact>
</mgrwt>
</event>
<event>
 4    1  0.4837985E-002  0.5223220E+02  0.7818608E-02  0.1433661E+00
          2   -1    0    0    0  501  0.00000000000E+00  0.00000000000E+00  0.96849305550E+02  0.96849305584E+02  0.25500000000E-02 0. -1.
         -2   -1    0    0  501    0 -0.00000000000E+00 -0.00000000000E+00 -0.70423907271E+01  0.70423911888E+01  0.25500000000E-02 0. -1.
          2    1    1    2    0  502 -0.80635912706E+01  0.19370837248E+02  0.13974127030E+02  0.25209662287E+02  0.25500000000E-02 0. -1.
         -2    1    1    2  502    0  0.80635912706E+01 -0.19370837248E+02  0.75832787793E+02  0.78682034486E+02  0.25500000000E-02 0. -1.
<mgrwt>
<rscale>  0 0.52232200E+02</rscale>
<asrwt>0</asrwt>
<pdfrwt beam="1">  1        2 0.14899894E-01 0.52232200E+02</pdfrwt>
<pdfrwt beam="2">  1       -2 0.10834447E-02 0.52232200E+02</pdfrwt>
<totfact> 0.53144619E+05</totfact>
</mgrwt>
</event>
<event>
 4    1  0.4837985E-002  0.4443354E+02  0.7818608E-02  0.1477909E+00
          2   -1    0    0    0  501  0.00000000000E+00  0.00000000000E+00  0.11767291883E+01  0.11767319512E+01  0.25500000000E-02 0. -1.
         -2   -1    0    0  501    0 -0.00000000000E+00 -0.00000000000E+00 -0.41945438005E+03  0.41945438006E+03  0.25500000000E-02 0. -1.
          2    1    1    2    0  502 -0.14533064686E+02  0.16424036534E+02 -0.17550155826E+03  0.17686649175E+03  0.25500000000E-02 0. -1.
         -2    1    1    2  502    0  0.14533064686E+02 -0.16424036534E+02 -0.24277609260E+03  0.24376462026E+03  0.25500000000E-02 0. -1.
<mgrwt>
<rscale>  0 0.44433537E+02</rscale>
<asrwt>0</asrwt>
<pdfrwt beam="1">  1        2 0.18103581E-03 0.44433537E+02</pdfrwt>
<pdfrwt beam="2">  1       -2 0.64531324E-01 0.44433537E+02</pdfrwt>
<totfact> 0.25160068E+05</totfact>
</mgrwt>
</event>
<event>
 4    1  0.4837985E-002  0.1229679E+03  0.7818608E-02  0.1238280E+00
         -2   -1    0    0  501    0 -0.00000000000E+00  0.00000000000E+00  0.10089076283E+03  0.10089076286E+03  0.25500000000E-02 0. -1.
          2   -1    0    0    0  501  0.00000000000E+00 -0.00000000000E+00 -0.37468982997E+02  0.37468983084E+02  0.25500000000E-02 0. -1.
          2    1    1    2    0  502  0.33544438947E+02  0.45527879332E+02  0.58861244130E+02  0.81625138577E+02  0.25500000000E-02 0.  1.
         -2    1    1    2  502    0 -0.33544438947E+02 -0.45527879332E+02  0.45605357013E+01  0.56734607367E+02  0.25500000000E-02 0.  1.
<mgrwt>
<rscale>  0 0.12296787E+03</rscale>
<asrwt>0</asrwt>
<pdfrwt beam="2">  1        2 0.57644590E-02 0.12296787E+03</pdfrwt>
<pdfrwt beam="1">  1       -2 0.15521656E-01 0.12296787E+03</pdfrwt>
<totfact> 0.37959066E+04</totfact>
</mgrwt>
</event>
<event>
 4    1  0.4837985E-002  0.4993549E+02  0.7818608E-02  0.1445690E+00
         -2   -1    0    0  501    0 -0.00000000000E+00  0.00000000000E+00  0.46750805757E+02  0.46750805827E+02  0.25500000000E-02 0. -1.
          2   -1    0    0    0  501  0.00000000000E+00 -0.00000000000E+00 -0.13334281150E+02  0.13334281394E+02  0.25500000000E-02 0. -1.
          2    1    1    2    0  502 -0.18314419107E+02 -0.83388412535E+01 -0.10752537536E+01  0.20152180969E+02  0.25500000000E-02 0. -1.
         -2    1    1    2  502    0  0.18314419107E+02  0.83388412535E+01  0.34491778361E+02  0.39932906252E+02  0.25500000000E-02 0. -1.
<mgrwt>
<rscale>  0 0.49935494E+02</rscale>
<asrwt>0</asrwt>
<pdfrwt beam="2">  1        2 0.20514279E-02 0.49935494E+02</pdfrwt>
<pdfrwt beam="1">  1       -2 0.71924317E-02 0.49935494E+02</pdfrwt>
<totfact> 0.41373377E+05</totfact>
</mgrwt>
</event>
<event>
 4    1  0.4837985E-002  0.6916154E+02  0.7818608E-02  0.1362968E+00
         -2   -1    0    0  501    0 -0.00000000000E+00  0.00000000000E+00  0.38252411099E+01  0.38252419599E+01  0.25500000000E-02 0. -1.
          2   -1    0    0    0  501  0.00000000000E+00 -0.00000000000E+00 -0.31261546886E+03  0.31261546887E+03  0.25500000000E-02 0. -1.
          2    1    1    2    0  502 -0.33330423090E+02  0.92106539305E+01 -0.15565997040E+03  0.15945463192E+03  0.25500000000E-02 0.  1.
         -2    1    1    2  502    0  0.33330423090E+02 -0.92106539305E+01 -0.15313025735E+03  0.15698607891E+03  0.25500000000E-02 0.  1.
<mgrwt>
<rscale>  0 0.69161541E+02</rscale>
<asrwt>0</asrwt>
<pdfrwt beam="2">  1        2 0.48094667E-01 0.69161541E+02</pdfrwt>
<pdfrwt beam="1">  1       -2 0.58849894E-03 0.69161541E+02</pdfrwt>
<totfact> 0.37682786E+05</totfact>
</mgrwt>
</event>
<event>
 4    1  0.4837985E-002  0.4335644E+02  0.7818608E-02  0.1484871E+00
         -2   -1    0    0  501    0 -0.00000000000E+00  0.00000000000E+00  0.77645560018E+00  0.77645978746E+00  0.25500000000E-02 0. -1.
          2   -1    0    0    0  501  0.00000000000E+00 -0.00000000000E+00 -0.60524256009E+03  0.60524256010E+03  0.25500000000E-02 0. -1.
          2    1    1    2    0  502 -0.13885878181E+02 -0.16612507161E+02 -0.28722920557E+03  0.28804411041E+03  0.25500000000E-02 0.  1.
         -2    1    1    2  502    0  0.13885878181E+02  0.16612507161E+02 -0.31723689893E+03  0.31797490948E+03  0.25500000000E-02 0.  1.
<mgrwt>
<rscale>  0 0.43356441E+02</rscale>
<asrwt>0</asrwt>
<pdfrwt beam="2">  1        2 0.93113863E-01 0.43356441E+02</pdfrwt>
<pdfrwt beam="1">  1       -2 0.11945551E-03 0.43356441E+02</pdfrwt>
<totfact> 0.15051979E+06</totfact>
</mgrwt>
</event>
<event>
 4    1  0.4837985E-002  0.6157780E+02  0.7818608E-02  0.1391327E+00
         -2   -1    0    0  501    0 -0.00000000000E+00  0.00000000000E+00  0.73623351745E+01  0.73623356161E+01  0.25500000000E-02 0.  1.
          2   -1    0    0    0  501  0.00000000000E+00 -0.00000000000E+00 -0.12875757650E+03  0.12875757652E+03  0.25500000000E-02 0.  1.
          2    1    1    2    0  502 -0.21566092437E+02  0.18861986146E+02 -0.35777758740E+02  0.45835781780E+02  0.25500000000E-02 0. -1.
         -2    1    1    2  502    0  0.21566092437E+02 -0.18861986146E+02 -0.85617482581E+02  0.90284130357E+02  0.25500000000E-02 0. -1.
<mgrwt>
<rscale>  0 0.61577803E+02</rscale>
<asrwt>0</asrwt>
<pdfrwt beam="2">  1        2 0.19808856E-01 0.61577803E+02</pdfrwt>
<pdfrwt beam="1">  1       -2 0.11326671E-02 0.61577803E+02</pdfrwt>
<totfact> 0.37693162E+05</totfact>
</mgrwt>
</event>
<event>
 4    1  0.4837985E-002  0.7690080E+02  0.7818608E-02  0.1338084E+00
          2   -1    0    0    0  501  0.00000000000E+00  0.00000000000E+00  0.12155324090E+02  0.12155324357E+02  0.25500000000E-02 0.  1.
         -2   -1    0    0  501    0 -0.00000000000E+00 -0.00000000000E+00 -0.12162843766E+03  0.12162843769E+03  0.25500000000E-02 0.  1.
          2    1    1    2    0  502  0.22845510478E+02 -0.16213541020E+02 -0.10055482210E+03  0.10438423499E+03  0.25500000000E-02 0. -1.
         -2    1    1    2  502    0 -0.22845510478E+02  0.16213541020E+02 -0.89182914701E+01  0.29399527049E+02  0.25500000000E-02 0. -1.
<mgrwt>
<rscale>  0 0.76900796E+02</rscale>
<asrwt>0</asrwt>
<pdfrwt beam="1">  1        2 0.18700500E-02 0.76900796E+02</pdfrwt>
<pdfrwt beam="2">  1       -2 0.18712067E-01 0.76900796E+02</pdfrwt>
<totfact> 0.11511036E+05</totfact>
</mgrwt>
</event>
<event>
 4    1  0.4837985E-002  0.4600594E+02  0.7818608E-02  0.1468158E+00
         -2   -1    0    0  501    0 -0.00000000000E+00  0.00000000000E+00  0.50014728064E+00  0.50015378118E+00  0.25500000000E-02 0.  1.
          2   -1    0    0    0  501  0.00000000000E+00 -0.00000000000E+00 -0.10579546911E+04  0.10579546911E+04  0.25500000000E-02 0.  1.
          2    1    1    2    0  502 -0.21690147813E+02 -0.24880247860E+01 -0.36205201012E+03  0.36270967841E+03  0.25500000000E-02 0. -1.
         -2    1    1    2  502    0  0.21690147813E+02  0.24880247860E+01 -0.69540253368E+03  0.69574516644E+03  0.25500000000E-02 0. -1.
<mgrwt>
<rscale>  0 0.46005939E+02</rscale>
<asrwt>0</asrwt>
<pdfrwt beam="2">  1        2 0.16276047E+00 0.46005939E+02</pdfrwt>
<pdfrwt beam="1">  1       -2 0.76947083E-04 0.46005939E+02</pdfrwt>
<totfact> 0.14223969E+06</totfact>
</mgrwt>
</event>
<event>
 4    1  0.4837985E-002  0.5048525E+02  0.7818608E-02  0.1442742E+00
          2   -1    0    0    0  501  0.00000000000E+00  0.00000000000E+00  0.94390384557E+01  0.94390388002E+01  0.25500000000E-02 0.  1.
         -2   -1    0    0  501    0 -0.00000000000E+00 -0.00000000000E+00 -0.67505822714E+02  0.67505822762E+02  0.25500000000E-02 0.  1.
          2    1    1    2    0  502  0.20711153101E+02 -0.14028532763E+02 -0.34188041308E+02  0.42362409861E+02  0.25500000000E-02 0.  1.
         -2    1    1    2  502    0 -0.20711153101E+02  0.14028532763E+02 -0.23878742950E+02  0.34582451701E+02  0.25500000000E-02 0.  1.
<mgrwt>
<rscale>  0 0.50485248E+02</rscale>
<asrwt>0</asrwt>
<pdfrwt beam="1">  1        2 0.14521598E-02 0.50485248E+02</pdfrwt>
<pdfrwt beam="2">  1       -2 0.10385511E-01 0.50485248E+02</pdfrwt>
<totfact> 0.37660530E+05</totfact>
</mgrwt>
</event>
<event>
 4    1  0.4837985E-002  0.5464423E+02  0.7818608E-02  0.1421789E+00
          2   -1    0    0    0  501  0.00000000000E+00  0.00000000000E+00  0.75154653460E+01  0.75154657786E+01  0.25500000000E-02 0. -1.
         -2   -1    0    0  501    0 -0.00000000000E+00 -0.00000000000E+00 -0.99328223275E+02  0.99328223308E+02  0.25500000000E-02 0. -1.
          2    1    1    2    0  502  0.21694930376E+02  0.14611499901E+02 -0.30469489312E+02  0.40156639785E+02  0.25500000000E-02 0.  1.
         -2    1    1    2  502    0 -0.21694930376E+02 -0.14611499901E+02 -0.61343268618E+02  0.66687049302E+02  0.25500000000E-02 0.  1.
<mgrwt>
<rscale>  0 0.54644225E+02</rscale>
<asrwt>0</asrwt>
<pdfrwt beam="1">  1        2 0.11562255E-02 0.54644225E+02</pdfrwt>
<pdfrwt beam="2">  1       -2 0.15281264E-01 0.54644225E+02</pdfrwt>
<totfact> 0.28449988E+05</totfact>
</mgrwt>
</event>
<event>
 4    1  0.4837985E-002  0.1033266E+03  0.7818608E-02  0.1273452E+00
          2   -1    0    0    0  501  0.00000000000E+00  0.00000000000E+00  0.20605632770E+04  0.20605632770E+04  0.25500000000E-02 0. -1.
         -2   -1    0    0  501    0 -0.00000000000E+00 -0.00000000000E+00 -0.12953222370E+01  0.12953247470E+01  0.25500000000E-02 0. -1.
          2    1    1    2    0  502 -0.33370398806E+02  0.12410806906E+01  0.24300777367E+03  0.24529146309E+03  0.25500000000E-02 0.  1.
         -2    1    1    2  502    0  0.33370398806E+02 -0.12410806906E+01  0.18162601811E+04  0.18165671386E+04  0.25500000000E-02 0.  1.
<mgrwt>
<rscale>  0 0.10332659E+03</rscale>
<asrwt>0</asrwt>
<pdfrwt beam="1">  1        2 0.31701124E+00 0.10332659E+03</pdfrwt>
<pdfrwt beam="2">  1       -2 0.19927959E-03 0.10332659E+03</pdfrwt>
<totfact> 0.13708011E+05</totfact>
</mgrwt>
</event>
<event>
 4    1  0.4837985E-002  0.4130432E+02  0.7818608E-02  0.1498827E+00
         -2   -1    0    0  501    0 -0.00000000000E+00  0.00000000000E+00  0.85138102416E+02  0.85138102455E+02  0.25500000000E-02 0.  1.
          2   -1    0    0    0  501  0.00000000000E+00 -0.00000000000E+00 -0.50096457027E+01  0.50096463517E+01  0.25500000000E-02 0.  1.
          2    1    1    2    0  502 -0.20248119480E+02  0.37855404660E+01  0.36830630766E+02  0.42199668580E+02  0.25500000000E-02 0. -1.
         -2    1    1    2  502    0  0.20248119480E+02 -0.37855404660E+01  0.43297825948E+02  0.47948080226E+02  0.25500000000E-02 0. -1.
<mgrwt>
<rscale>  0 0.41304322E+02</rscale>
<asrwt>0</asrwt>
<pdfrwt beam="2">  1        2 0.77071483E-03 0.41304322E+02</pdfrwt>
<pdfrwt beam="1">  1       -2 0.13098169E-01 0.41304322E+02</pdfrwt>
<totfact> 0.58204774E+05</totfact>
</mgrwt>
</event>
<event>
 4    1  0.4837985E-002  0.5148835E+02  0.7818608E-02  0.1437475E+00
         -2   -1    0    0  501    0 -0.00000000000E+00  0.00000000000E+00  0.96294917848E+00  0.96295255482E+00  0.25500000000E-02 0. -1.
          2   -1    0    0    0  501  0.00000000000E+00 -0.00000000000E+00 -0.68826194893E+03  0.68826194893E+03  0.25500000000E-02 0. -1.
          2    1    1    2    0  502  0.14456976186E+02 -0.17847583405E+02 -0.18798995157E+03  0.18938786205E+03  0.25500000000E-02 0. -1.
         -2    1    1    2  502    0 -0.14456976186E+02  0.17847583405E+02 -0.49930904818E+03  0.49983703944E+03  0.25500000000E-02 0. -1.
<mgrwt>
<rscale>  0 0.51488346E+02</rscale>
<asrwt>0</asrwt>
<pdfrwt beam="2">  1        2 0.10588606E+00 0.51488346E+02</pdfrwt>
<pdfrwt beam="1">  1       -2 0.14814684E-03 0.51488346E+02</pdfrwt>
<totfact> 0.10194813E+06</totfact>
</mgrwt>
</event>
<event>
 4    1  0.4837985E-002  0.4028921E+02  0.7818608E-02  0.1506094E+00
         -2   -1    0    0  501    0 -0.00000000000E+00  0.00000000000E+00  0.45453661960E+01  0.45453669113E+01  0.25500000000E-02 0.  1.
          2   -1    0    0    0  501  0.00000000000E+00 -0.00000000000E+00 -0.89278838781E+02  0.89278838817E+02  0.25500000000E-02 0.  1.
          2    1    1    2    0  502  0.16960657955E+02 -0.10865410295E+02 -0.41691853784E+02  0.46302610483E+02  0.25500000000E-02 0. -1.
         -2    1    1    2  502    0 -0.16960657955E+02  0.10865410295E+02 -0.43041618801E+02  0.47521595245E+02  0.25500000000E-02 0. -1.
<mgrwt>
<rscale>  0 0.40289207E+02</rscale>
<asrwt>0</asrwt>
<pdfrwt beam="2">  1        2 0.13735205E-01 0.40289207E+02</pdfrwt>
<pdfrwt beam="1">  1       -2 0.69928723E-03 0.40289207E+02</pdfrwt>
<totfact> 0.99844134E+05</totfact>
</mgrwt>
</event>
<event>
 4    1  0.4837985E-002  0.5187042E+02  0.7818608E-02  0.1435506E+00
          2   -1    0    0    0  501  0.00000000000E+00  0.00000000000E+00  0.59836927638E+03  0.59836927639E+03  0.25500000000E-02 0.  1.
         -2   -1    0    0  501    0 -0.00000000000E+00 -0.00000000000E+00 -0.11241123725E+01  0.11241152647E+01  0.25500000000E-02 0.  1.
          2    1    1    2    0  502  0.25286918308E+02 -0.68740333126E+00  0.36474776141E+03  0.36562389175E+03  0.25500000000E-02 0.  1.
         -2    1    1    2  502    0 -0.25286918308E+02  0.68740333126E+00  0.23249740260E+03  0.23386949990E+03  0.25500000000E-02 0.  1.
<mgrwt>
<rscale>  0 0.51870422E+02</rscale>
<asrwt>0</asrwt>
<pdfrwt beam="1">  1        2 0.92056997E-01 0.51870422E+02</pdfrwt>
<pdfrwt beam="2">  1       -2 0.17294024E-03 0.51870422E+02</pdfrwt>
<totfact> 0.96635441E+05</totfact>
</mgrwt>
</event>
<event>
 4    1  0.4837985E-002  0.4369230E+02  0.7818608E-02  0.1482674E+00
          2   -1    0    0    0  501  0.00000000000E+00  0.00000000000E+00  0.11071384292E+01  0.11071413658E+01  0.25500000000E-02 0. -1.
         -2   -1    0    0  501    0 -0.00000000000E+00 -0.00000000000E+00 -0.43106943580E+03  0.43106943581E+03  0.25500000000E-02 0. -1.
          2    1    1    2    0  502  0.46169242955E+01  0.20721213927E+02 -0.26596678191E+03  0.26681269419E+03  0.25500000000E-02 0. -1.
         -2    1    1    2  502    0 -0.46169242955E+01 -0.20721213927E+02 -0.16399551547E+03  0.16536388299E+03  0.25500000000E-02 0. -1.
<mgrwt>
<rscale>  0 0.43692296E+02</rscale>
<asrwt>0</asrwt>
<pdfrwt beam="1">  1        2 0.17032956E-03 0.43692296E+02</pdfrwt>
<pdfrwt beam="2">  1       -2 0.66318241E-01 0.43692296E+02</pdfrwt>
<totfact> 0.25709602E+05</totfact>
</mgrwt>
</event>
<event>
 4    1  0.4837985E-002  0.6820178E+02  0.7818608E-02  0.1366317E+00
          2   -1    0    0    0  501  0.00000000000E+00  0.00000000000E+00  0.41565101712E+03  0.41565101713E+03  0.25500000000E-02 0. -1.
         -2   -1    0    0  501    0 -0.00000000000E+00 -0.00000000000E+00 -0.27977083095E+01  0.27977094716E+01  0.25500000000E-02 0. -1.
          2    1    1    2    0  502  0.23290272837E+02  0.18263159192E+02  0.31034801931E+03  0.31175611123E+03  0.25500000000E-02 0. -1.
         -2    1    1    2  502    0 -0.23290272837E+02 -0.18263159192E+02  0.10250528950E+03  0.10669261537E+03  0.25500000000E-02 0. -1.
<mgrwt>
<rscale>  0 0.68201776E+02</rscale>
<asrwt>0</asrwt>
<pdfrwt beam="1">  1        2 0.63946313E-01 0.68201776E+02</pdfrwt>
<pdfrwt beam="2">  1       -2 0.43041674E-03 0.68201776E+02</pdfrwt>
<totfact> 0.43199229E+05</totfact>
</mgrwt>
</event>
<event>
 4    1  0.4837985E-002  0.4243055E+02  0.7818608E-02  0.1491051E+00
         -2   -1    0    0  501    0 -0.00000000000E+00  0.00000000000E+00  0.31523861026E+01  0.31523871340E+01  0.25500000000E-02 0.  1.
          2   -1    0    0    0  501  0.00000000000E+00 -0.00000000000E+00 -0.14277684772E+03  0.14277684774E+03  0.25500000000E-02 0.  1.
          2    1    1    2    0  502  0.12135173608E+02  0.16534708229E+02 -0.88469582517E+02  0.90815890966E+02  0.25500000000E-02 0.  1.
         -2    1    1    2  502    0 -0.12135173608E+02 -0.16534708229E+02 -0.51154879096E+02  0.55113343907E+02  0.25500000000E-02 0.  1.
<mgrwt>
<rscale>  0 0.42430547E+02</rscale>
<asrwt>0</asrwt>
<pdfrwt beam="2">  1        2 0.21965664E-01 0.42430547E+02</pdfrwt>
<pdfrwt beam="1">  1       -2 0.48498267E-03 0.42430547E+02</pdfrwt>
<totfact> 0.99579836E+05</totfact>
</mgrwt>
</event>
<event>
 4    1  0.4837985E-002  0.9826454E+02  0.7818608E-02  0.1283988E+00
          2   -1    0    0    0  501  0.00000000000E+00  0.00000000000E+00  0.21913788902E+03  0.21913788904E+03  0.25500000000E-02 0.  1.
         -2   -1    0    0  501    0 -0.00000000000E+00 -0.00000000000E+00 -0.11015803019E+02  0.11015803314E+02  0.25500000000E-02 0.  1.
          2    1    1    2    0  502  0.15666723095E+02  0.19983114595E+02  0.55441579605E+01  0.25990551657E+02  0.25500000000E-02 0. -1.
         -2    1    1    2  502    0 -0.15666723095E+02 -0.19983114595E+02  0.20257792804E+03  0.20416314069E+03  0.25500000000E-02 0. -1.
<mgrwt>
<rscale>  0 0.98264538E+02</rscale>
<asrwt>0</asrwt>
<pdfrwt beam="1">  1        2 0.33713521E-01 0.98264538E+02</pdfrwt>
<pdfrwt beam="2">  1       -2 0.16947390E-02 0.98264538E+02</pdfrwt>
<totfact> 0.13064664E+05</totfact>
</mgrwt>
</event>
<event>
 4    1  0.4837985E-002  0.5664753E+02  0.7818608E-02  0.1412464E+00
          2   -1    0    0    0  501  0.00000000000E+00  0.00000000000E+00  0.14412997971E+03  0.14412997973E+03  0.25500000000E-02 0. -1.
         -2   -1    0    0  501    0 -0.00000000000E+00 -0.00000000000E+00 -0.55660571381E+01  0.55660577222E+01  0.25500000000E-02 0. -1.
          2    1    1    2    0  502 -0.17785315837E+02  0.20600137443E+02  0.90014504169E+02  0.94038790345E+02  0.25500000000E-02 0. -1.
         -2    1    1    2  502    0  0.17785315837E+02 -0.20600137443E+02  0.48549418398E+02  0.55657247106E+02  0.25500000000E-02 0. -1.
<mgrwt>
<rscale>  0 0.56647533E+02</rscale>
<asrwt>0</asrwt>
<pdfrwt beam="1">  1        2 0.22173844E-01 0.56647533E+02</pdfrwt>
<pdfrwt beam="2">  1       -2 0.85631648E-03 0.56647533E+02</pdfrwt>
<totfact> 0.48341042E+05</totfact>
</mgrwt>
</event>
<event>
 4    1  0.4837985E-002  0.6123316E+02  0.7818608E-02  0.1392728E+00
          2   -1    0    0    0  501  0.00000000000E+00  0.00000000000E+00  0.21983485647E+03  0.21983485648E+03  0.25500000000E-02 0.  1.
         -2   -1    0    0  501    0 -0.00000000000E+00 -0.00000000000E+00 -0.42639954561E+01  0.42639962186E+01  0.25500000000E-02 0.  1.
          2    1    1    2    0  502  0.16524700168E+02 -0.25352265716E+02  0.90787488702E+02  0.95698334384E+02  0.25500000000E-02 0. -1.
         -2    1    1    2  502    0 -0.16524700168E+02  0.25352265716E+02  0.12478337231E+03  0.12840051832E+03  0.25500000000E-02 0. -1.
<mgrwt>
<rscale>  0 0.61233158E+02</rscale>
<asrwt>0</asrwt>
<pdfrwt beam="1">  1        2 0.33820750E-01 0.61233158E+02</pdfrwt>
<pdfrwt beam="2">  1       -2 0.65599931E-03 0.61233158E+02</pdfrwt>
<totfact> 0.45494304E+05</totfact>
</mgrwt>
</event>
<event>
 4    1  0.4837985E-002  0.4244446E+02  0.7818608E-02  0.1490956E+00
         -2   -1    0    0  501    0 -0.00000000000E+00  0.00000000000E+00  0.28053744818E+00  0.28054903730E+00  0.25500000000E-02 0. -1.
          2   -1    0    0    0  501  0.00000000000E+00 -0.00000000000E+00 -0.16053963681E+04  0.16053963681E+04  0.25500000000E-02 0. -1.
          2    1    1    2    0  502 -0.74994020393E+01  0.18568901829E+02 -0.10682800232E+04  0.10684677127E+04  0.25500000000E-02 0.  1.
         -2    1    1    2  502    0  0.74994020393E+01 -0.18568901829E+02 -0.53683580746E+03  0.53720920443E+03  0.25500000000E-02 0.  1.
<mgrwt>
<rscale>  0 0.42444463E+02</rscale>
<asrwt>0</asrwt>
<pdfrwt beam="2">  1        2 0.24697670E+00 0.42444463E+02</pdfrwt>
<pdfrwt beam="1">  1       -2 0.43161785E-04 0.42444463E+02</pdfrwt>
<totfact> 0.15945816E+06</totfact>
</mgrwt>
</event>
<event>
 4    1  0.4837985E-002  0.4335271E+02  0.7818608E-02  0.1484895E+00
         -2   -1    0    0  501    0 -0.00000000000E+00  0.00000000000E+00  0.45038798923E+02  0.45038798995E+02  0.25500000000E-02 0.  1.
          2   -1    0    0    0  501  0.00000000000E+00 -0.00000000000E+00 -0.10432436359E+02  0.10432436670E+02  0.25500000000E-02 0.  1.
          2    1    1    2    0  502  0.11782791101E+02 -0.16414997256E+02  0.72624641391E+01  0.21471602011E+02  0.25500000000E-02 0.  1.
         -2    1    1    2  502    0 -0.11782791101E+02  0.16414997256E+02  0.27343898426E+02  0.33999633655E+02  0.25500000000E-02 0.  1.
<mgrwt>
<rscale>  0 0.43352712E+02</rscale>
<asrwt>0</asrwt>
<pdfrwt beam="2">  1        2 0.16049903E-02 0.43352712E+02</pdfrwt>
<pdfrwt beam="1">  1       -2 0.69290459E-02 0.43352712E+02</pdfrwt>
<totfact> 0.58323616E+05</totfact>
</mgrwt>
</event>
<event>
 4    1  0.4837985E-002  0.4786436E+02  0.7818608E-02  0.1457213E+00
          2   -1    0    0    0  501  0.00000000000E+00  0.00000000000E+00  0.43784615779E+03  0.43784615779E+03  0.25500000000E-02 0. -1.
         -2   -1    0    0  501    0 -0.00000000000E+00 -0.00000000000E+00 -0.13081050482E+01  0.13081075336E+01  0.25500000000E-02 0. -1.
          2    1    1    2    0  502 -0.78317110070E+01  0.22385000521E+02  0.24775106543E+03  0.24888353577E+03  0.25500000000E-02 0. -1.
         -2    1    1    2  502    0  0.78317110070E+01 -0.22385000521E+02  0.18878698730E+03  0.19027072956E+03  0.25500000000E-02 0. -1.
<mgrwt>
<rscale>  0 0.47864363E+02</rscale>
<asrwt>0</asrwt>
<pdfrwt beam="1">  1        2 0.67360951E-01 0.47864363E+02</pdfrwt>
<pdfrwt beam="2">  1       -2 0.20124711E-03 0.47864363E+02</pdfrwt>
<totfact> 0.10724044E+06</totfact>
</mgrwt>
</event>
<event>
 4    1  0.4837985E-002  0.5182017E+02  0.7818608E-02  0.1435764E+00
          2   -1    0    0    0  501  0.00000000000E+00  0.00000000000E+00  0.20415305111E+04  0.20415305111E+04  0.25500000000E-02 0. -1.
         -2   -1    0    0  501    0 -0.00000000000E+00 -0.00000000000E+00 -0.32883292310E+00  0.32884281020E+00  0.25500000000E-02 0. -1.
          2    1    1    2    0  502  0.10581822815E+02  0.23641783143E+02  0.10462474992E+04  0.10465680764E+04  0.25500000000E-02 0. -1.
         -2    1    1    2  502    0 -0.10581822815E+02 -0.23641783143E+02  0.99495417889E+03  0.99529127746E+03  0.25500000000E-02 0. -1.
<mgrwt>
<rscale>  0 0.51820171E+02</rscale>
<asrwt>0</asrwt>
<pdfrwt beam="1">  1        2 0.31408251E+00 0.51820171E+02</pdfrwt>
<pdfrwt beam="2">  1       -2 0.50590297E-04 0.51820171E+02</pdfrwt>
<totfact> 0.82587467E+05</totfact>
</mgrwt>
</event>
<event>
 4    1  0.4837985E-002  0.1068039E+03  0.7818608E-02  0.1266606E+00
         -2   -1    0    0  501    0 -0.00000000000E+00  0.00000000000E+00  0.84511353919E+00  0.84511738630E+00  0.25500000000E-02 0. -1.
          2   -1    0    0    0  501  0.00000000000E+00 -0.00000000000E+00 -0.33744149198E+04  0.33744149198E+04  0.25500000000E-02 0. -1.
          2    1    1    2    0  502  0.15195470574E+02 -0.49247862269E+02 -0.12448980481E+04  0.12459644475E+04  0.25500000000E-02 0. -1.
         -2    1    1    2  502    0 -0.15195470574E+02  0.49247862269E+02 -0.21286717582E+04  0.21292955897E+04  0.25500000000E-02 0. -1.
<mgrwt>
<rscale>  0 0.10680394E+03</rscale>
<asrwt>0</asrwt>
<pdfrwt beam="2">  1        2 0.51912997E+00 0.10680394E+03</pdfrwt>
<pdfrwt beam="1">  1       -2 0.13002047E-03 0.10680394E+03</pdfrwt>
<totfact> 0.46896761E+04</totfact>
</mgrwt>
</event>
<event>
 4    1  0.4837985E-002  0.1818587E+03  0.7818608E-02  0.1166016E+00
         -2   -1    0    0  501    0 -0.00000000000E+00  0.00000000000E+00  0.84076574859E+02  0.84076574898E+02  0.25500000000E-02 0. -1.
          2   -1    0    0    0  501  0.00000000000E+00 -0.00000000000E+00 -0.98340681023E+02  0.98340681056E+02  0.25500000000E-02 0. -1.
          2    1    1    2    0  502 -0.62937748660E+02 -0.42464463985E+02  0.43059181170E+02  0.87283927487E+02  0.25500000000E-02 0.  1.
         -2    1    1    2  502    0  0.62937748660E+02  0.42464463985E+02 -0.57323287333E+02  0.95133328467E+02  0.25500000000E-02 0.  1.
<mgrwt>
<rscale>  0 0.18185871E+03</rscale>
<asrwt>0</asrwt>
<pdfrwt beam="2">  1        2 0.15129336E-01 0.18185871E+03</pdfrwt>
<pdfrwt beam="1">  1       -2 0.12934858E-01 0.18185871E+03</pdfrwt>
<totfact> 0.16119462E+04</totfact>
</mgrwt>
</event>
<event>
 4    1  0.4837985E-002  0.4513395E+02  0.7818608E-02  0.1473507E+00
         -2   -1    0    0  501    0 -0.00000000000E+00  0.00000000000E+00  0.15541337761E+01  0.15541358681E+01  0.25500000000E-02 0.  1.
          2   -1    0    0    0  501  0.00000000000E+00 -0.00000000000E+00 -0.32768602803E+03  0.32768602804E+03  0.25500000000E-02 0.  1.
          2    1    1    2    0  502 -0.16563453262E+02 -0.13495891827E+02 -0.21606267622E+03  0.21711648289E+03  0.25500000000E-02 0. -1.
         -2    1    1    2  502    0  0.16563453262E+02  0.13495891827E+02 -0.11006921803E+03  0.11212368101E+03  0.25500000000E-02 0. -1.
<mgrwt>
<rscale>  0 0.45133946E+02</rscale>
<asrwt>0</asrwt>
<pdfrwt beam="2">  1        2 0.50413180E-01 0.45133946E+02</pdfrwt>
<pdfrwt beam="1">  1       -2 0.23909793E-03 0.45133946E+02</pdfrwt>
<totfact> 0.11234702E+06</totfact>
</mgrwt>
</event>
<event>
 4    1  0.4837985E-002  0.5445368E+02  0.7818608E-02  0.1422700E+00
         -2   -1    0    0  501    0 -0.00000000000E+00  0.00000000000E+00  0.14754194021E+01  0.14754216057E+01  0.25500000000E-02 0. -1.
          2   -1    0    0    0  501  0.00000000000E+00 -0.00000000000E+00 -0.50243365769E+03  0.50243365769E+03  0.25500000000E-02 0. -1.
          2    1    1    2    0  502 -0.34040762423E+01  0.25911513930E+02 -0.17981745195E+03  0.18170666009E+03  0.25500000000E-02 0. -1.
         -2    1    1    2  502    0  0.34040762423E+01 -0.25911513930E+02 -0.32114078634E+03  0.32220241921E+03  0.25500000000E-02 0. -1.
<mgrwt>
<rscale>  0 0.54453684E+02</rscale>
<asrwt>0</asrwt>
<pdfrwt beam="2">  1        2 0.77297349E-01 0.54453684E+02</pdfrwt>
<pdfrwt beam="1">  1       -2 0.22698817E-03 0.54453684E+02</pdfrwt>
<totfact> 0.81353685E+05</totfact>
</mgrwt>
</event>
<event>
 4    1  0.4837985E-002  0.6744349E+02  0.7818608E-02  0.1369009E+00
          2   -1    0    0    0  501  0.00000000000E+00  0.00000000000E+00  0.21794220556E+04  0.21794220556E+04  0.25500000000E-02 0. -1.
         -2   -1    0    0  501    0 -0.00000000000E+00 -0.00000000000E+00 -0.52176651372E+00  0.52177274492E+00  0.25500000000E-02 0. -1.
          2    1    1    2    0  502  0.31622548566E+02  0.48915849639E+01  0.14334125865E+04  0.14337697012E+04  0.25500000000E-02 0. -1.
         -2    1    1    2  502    0 -0.31622548566E+02 -0.48915849639E+01  0.74548770262E+03  0.74617412709E+03  0.25500000000E-02 0. -1.
<mgrwt>
<rscale>  0 0.67443495E+02</rscale>
<asrwt>0</asrwt>
<pdfrwt beam="1">  1        2 0.33529709E+00 0.67443495E+02</pdfrwt>
<pdfrwt beam="2">  1       -2 0.80271919E-04 0.67443495E+02</pdfrwt>
<totfact> 0.39512080E+05</totfact>
</mgrwt>
</event>
<event>
 4    1  0.4837985E-002  0.1054514E+03  0.7818608E-02  0.1269233E+00
          2   -1    0    0    0  501  0.00000000000E+00  0.00000000000E+00  0.17059356222E+04  0.17059356222E+04  0.25500000000E-02 0. -1.
         -2   -1    0    0  501    0 -0.00000000000E+00 -0.00000000000E+00 -0.16296024110E+01  0.16296044062E+01  0.25500000000E-02 0. -1.
          2    1    1    2    0  502 -0.21609525266E+01  0.46098604166E+02  0.43923448821E+03  0.44165222366E+03  0.25500000000E-02 0. -1.
         -2    1    1    2  502    0  0.21609525266E+01 -0.46098604166E+02  0.12650715316E+04  0.12659130029E+04  0.25500000000E-02 0. -1.
<mgrwt>
<rscale>  0 0.10545138E+03</rscale>
<asrwt>0</asrwt>
<pdfrwt beam="1">  1        2 0.26245195E+00 0.10545138E+03</pdfrwt>
<pdfrwt beam="2">  1       -2 0.25070792E-03 0.10545138E+03</pdfrwt>
<totfact> 0.15074942E+05</totfact>
</mgrwt>
</event>
<event>
 4    1  0.4837985E-002  0.5136590E+02  0.7818608E-02  0.1438110E+00
          2   -1    0    0    0  501  0.00000000000E+00  0.00000000000E+00  0.46802293760E+03  0.46802293761E+03  0.25500000000E-02 0. -1.
         -2   -1    0    0  501    0 -0.00000000000E+00 -0.00000000000E+00 -0.14093611350E+01  0.14093634419E+01  0.25500000000E-02 0. -1.
          2    1    1    2    0  502  0.18575563742E+02  0.16135095361E+02  0.30060164297E+03  0.30160693067E+03  0.25500000000E-02 0.  1.
         -2    1    1    2  502    0 -0.18575563742E+02 -0.16135095361E+02  0.16601193350E+03  0.16782537038E+03  0.25500000000E-02 0.  1.
<mgrwt>
<rscale>  0 0.51365898E+02</rscale>
<asrwt>0</asrwt>
<pdfrwt beam="1">  1        2 0.72003693E-01 0.51365898E+02</pdfrwt>
<pdfrwt beam="2">  1       -2 0.21682447E-03 0.51365898E+02</pdfrwt>
<totfact> 0.92015334E+05</totfact>
</mgrwt>
</event>
<event>
 4    1  0.4837985E-002  0.4938089E+02  0.7818608E-02  0.1448710E+00
         -2   -1    0    0  501    0 -0.00000000000E+00  0.00000000000E+00  0.71480795522E+02  0.71480795568E+02  0.25500000000E-02 0.  1.
          2   -1    0    0    0  501  0.00000000000E+00 -0.00000000000E+00 -0.85284181311E+01  0.85284185123E+01  0.25500000000E-02 0.  1.
          2    1    1    2    0  502 -0.23644966340E+02  0.64839940114E+01  0.26754758487E+02  0.36289719202E+02  0.25500000000E-02 0.  1.
         -2    1    1    2  502    0  0.23644966340E+02 -0.64839940114E+01  0.36197618904E+02  0.43719494878E+02  0.25500000000E-02 0.  1.
<mgrwt>
<rscale>  0 0.49380892E+02</rscale>
<asrwt>0</asrwt>
<pdfrwt beam="2">  1        2 0.13120643E-02 0.49380892E+02</pdfrwt>
<pdfrwt beam="1">  1       -2 0.10997046E-01 0.49380892E+02</pdfrwt>
<totfact> 0.39272320E+05</totfact>
</mgrwt>
</event>
<event>
 4    1  0.4837985E-002  0.5028947E+02  0.7818608E-02  0.1443786E+00
          2   -1    0    0    0  501  0.00000000000E+00  0.00000000000E+00  0.64870573374E+02  0.64870573424E+02  0.25500000000E-02 0. -1.
         -2   -1    0    0  501    0 -0.00000000000E+00 -0.00000000000E+00 -0.97464495724E+01  0.97464499060E+01  0.25500000000E-02 0. -1.
          2    1    1    2    0  502 -0.23390311938E+02 -0.89060613972E+01  0.23978518299E+02  0.34661130514E+02  0.25500000000E-02 0. -1.
         -2    1    1    2  502    0  0.23390311938E+02  0.89060613972E+01  0.31145605503E+02  0.39955892817E+02  0.25500000000E-02 0. -1.
<mgrwt>
<rscale>  0 0.50289474E+02</rscale>
<asrwt>0</asrwt>
<pdfrwt beam="1">  1        2 0.99800882E-02 0.50289474E+02</pdfrwt>
<pdfrwt beam="2">  1       -2 0.14994538E-02 0.50289474E+02</pdfrwt>
<totfact> 0.53266895E+05</totfact>
</mgrwt>
</event>
<event>
 4    1  0.4837985E-002  0.1769605E+03  0.7818608E-02  0.1170778E+00
         -2   -1    0    0  501    0 -0.00000000000E+00  0.00000000000E+00  0.48503480007E+01  0.48503486710E+01  0.25500000000E-02 0.  1.
          2   -1    0    0    0  501  0.00000000000E+00 -0.00000000000E+00 -0.16140594109E+04  0.16140594109E+04  0.25500000000E-02 0.  1.
          2    1    1    2    0  502  0.32826161677E+02  0.51160470977E+02 -0.13927992721E+04  0.13941250888E+04  0.25500000000E-02 0.  1.
         -2    1    1    2  502    0 -0.32826161677E+02 -0.51160470977E+02 -0.21640979075E+03  0.22478467078E+03  0.25500000000E-02 0.  1.
<mgrwt>
<rscale>  0 0.17696045E+03</rscale>
<asrwt>0</asrwt>
<pdfrwt beam="2">  1        2 0.24831640E+00 0.17696045E+03</pdfrwt>
<pdfrwt beam="1">  1       -2 0.74620872E-03 0.17696045E+03</pdfrwt>
<totfact> 0.37672218E+04</totfact>
</mgrwt>
</event>
<event>
 4    1  0.4837985E-002  0.4698140E+02  0.7818608E-02  0.1462338E+00
         -2   -1    0    0  501    0 -0.00000000000E+00  0.00000000000E+00  0.24153765193E+02  0.24153765327E+02  0.25500000000E-02 0. -1.
          2   -1    0    0    0  501  0.00000000000E+00 -0.00000000000E+00 -0.22845835312E+02  0.22845835454E+02  0.25500000000E-02 0. -1.
          2    1    1    2    0  502 -0.42900123133E+01  0.20339797772E+02 -0.10291085745E+02  0.23195215700E+02  0.25500000000E-02 0. -1.
         -2    1    1    2  502    0  0.42900123133E+01 -0.20339797772E+02  0.11599015627E+02  0.23804385081E+02  0.25500000000E-02 0. -1.
<mgrwt>
<rscale>  0 0.46981398E+02</rscale>
<asrwt>0</asrwt>
<pdfrwt beam="2">  1        2 0.35147439E-02 0.46981398E+02</pdfrwt>
<pdfrwt beam="1">  1       -2 0.37159639E-02 0.46981398E+02</pdfrwt>
<totfact> 0.52971356E+05</totfact>
</mgrwt>
</event>
<event>
 4    1  0.4837985E-002  0.6115019E+02  0.7818608E-02  0.1393067E+00
          2   -1    0    0    0  501  0.00000000000E+00  0.00000000000E+00  0.40799554104E+03  0.40799554105E+03  0.25500000000E-02 0.  1.
         -2   -1    0    0  501    0 -0.00000000000E+00 -0.00000000000E+00 -0.22912901889E+01  0.22912916078E+01  0.25500000000E-02 0.  1.
          2    1    1    2    0  502  0.20177846086E+02 -0.81625000725E+01  0.58783091941E+02  0.62683520839E+02  0.25500000000E-02 0.  1.
         -2    1    1    2  502    0 -0.20177846086E+02  0.81625000725E+01  0.34692115891E+03  0.34760331182E+03  0.25500000000E-02 0.  1.
<mgrwt>
<rscale>  0 0.61150191E+02</rscale>
<asrwt>0</asrwt>
<pdfrwt beam="1">  1        2 0.62768600E-01 0.61150191E+02</pdfrwt>
<pdfrwt beam="2">  1       -2 0.35250598E-03 0.61150191E+02</pdfrwt>
<totfact> 0.56734713E+05</totfact>
</mgrwt>
</event>
<event>
 4    1  0.4837985E-002  0.1136568E+03  0.7818608E-02  0.1253944E+00
         -2   -1    0    0  501    0 -0.00000000000E+00  0.00000000000E+00  0.94069342982E+01  0.94069346438E+01  0.25500000000E-02 0.  1.
          2   -1    0    0    0  501  0.00000000000E+00 -0.00000000000E+00 -0.34330717261E+03  0.34330717262E+03  0.25500000000E-02 0.  1.
          2    1    1    2    0  502  0.21778034575E+02 -0.51694678591E+02 -0.13870380613E+03  0.14961740683E+03  0.25500000000E-02 0. -1.
         -2    1    1    2  502    0 -0.21778034575E+02  0.51694678591E+02 -0.19519643218E+03  0.20309670043E+03  0.25500000000E-02 0. -1.
<mgrwt>
<rscale>  0 0.11365682E+03</rscale>
<asrwt>0</asrwt>
<pdfrwt beam="2">  1        2 0.52816478E-01 0.11365682E+03</pdfrwt>
<pdfrwt beam="1">  1       -2 0.14472210E-02 0.11365682E+03</pdfrwt>
<totfact> 0.10428382E+05</totfact>
</mgrwt>
</event>
<event>
 4    1  0.4837985E-002  0.4767780E+02  0.7818608E-02  0.1458285E+00
         -2   -1    0    0  501    0 -0.00000000000E+00  0.00000000000E+00  0.31000810515E+00  0.31001859260E+00  0.25500000000E-02 0.  1.
          2   -1    0    0    0  501  0.00000000000E+00 -0.00000000000E+00 -0.18331244962E+04  0.18331244962E+04  0.25500000000E-02 0.  1.
          2    1    1    2    0  502  0.19304686866E+02  0.13730647132E+02 -0.81400324775E+03  0.81434789185E+03  0.25500000000E-02 0.  1.
         -2    1    1    2  502    0 -0.19304686866E+02 -0.13730647132E+02 -0.10188112403E+04  0.10190866229E+04  0.25500000000E-02 0.  1.
<mgrwt>
<rscale>  0 0.47677796E+02</rscale>
<asrwt>0</asrwt>
<pdfrwt beam="2">  1        2 0.28201047E+00 0.47677796E+02</pdfrwt>
<pdfrwt beam="1">  1       -2 0.47695829E-04 0.47677796E+02</pdfrwt>
<totfact> 0.11107061E+06</totfact>
</mgrwt>
</event>
<event>
 4    1  0.4837985E-002  0.5408589E+02  0.7818608E-02  0.1424472E+00
         -2   -1    0    0  501    0 -0.00000000000E+00  0.00000000000E+00  0.21538283517E+01  0.21538298613E+01  0.25500000000E-02 0. -1.
          2   -1    0    0    0  501  0.00000000000E+00 -0.00000000000E+00 -0.33954457703E+03  0.33954457704E+03  0.25500000000E-02 0. -1.
          2    1    1    2    0  502  0.49577614399E+01 -0.26578401188E+02 -0.17232561415E+03  0.17443367824E+03  0.25500000000E-02 0. -1.
         -2    1    1    2  502    0 -0.49577614399E+01  0.26578401188E+02 -0.16506513453E+03  0.16726472865E+03  0.25500000000E-02 0. -1.
<mgrwt>
<rscale>  0 0.54085895E+02</rscale>
<asrwt>0</asrwt>
<pdfrwt beam="2">  1        2 0.52237585E-01 0.54085895E+02</pdfrwt>
<pdfrwt beam="1">  1       -2 0.33135859E-03 0.54085895E+02</pdfrwt>
<totfact> 0.72583483E+05</totfact>
</mgrwt>
</event>
<event>
 4    1  0.4837985E-002  0.9752806E+02  0.7818608E-02  0.1285582E+00
         -2   -1    0    0  501    0 -0.00000000000E+00  0.00000000000E+00  0.32319022548E+02  0.32319022648E+02  0.25500000000E-02 0.  1.
          2   -1    0    0    0  501  0.00000000000E+00 -0.00000000000E+00 -0.73576807102E+02  0.73576807146E+02  0.25500000000E-02 0.  1.
          2    1    1    2    0  502 -0.36429860298E+02  0.31834221764E+02 -0.13990577386E+02  0.50361579192E+02  0.25500000000E-02 0. -1.
         -2    1    1    2  502    0  0.36429860298E+02 -0.31834221764E+02 -0.27267207168E+02  0.55534250602E+02  0.25500000000E-02 0. -1.
<mgrwt>
<rscale>  0 0.97528057E+02</rscale>
<asrwt>0</asrwt>
<pdfrwt beam="2">  1        2 0.11319509E-01 0.97528057E+02</pdfrwt>
<pdfrwt beam="1">  1       -2 0.49721573E-02 0.97528057E+02</pdfrwt>
<totfact> 0.92837042E+04</totfact>
</mgrwt>
</event>
<event>
 4    1  0.4837985E-002  0.7068479E+02  0.7818608E-02  0.1357780E+00
         -2   -1    0    0  501    0 -0.00000000000E+00  0.00000000000E+00  0.32477537686E+02  0.32477537786E+02  0.25500000000E-02 0. -1.
          2   -1    0    0    0  501  0.00000000000E+00 -0.00000000000E+00 -0.38459958160E+02  0.38459958245E+02  0.25500000000E-02 0. -1.
          2    1    1    2    0  502 -0.20115394874E+02  0.29051222773E+02 -0.36880159731E+01  0.35527512211E+02  0.25500000000E-02 0.  1.
         -2    1    1    2  502    0  0.20115394874E+02 -0.29051222773E+02 -0.22944045014E+01  0.35409983820E+02  0.25500000000E-02 0.  1.
<mgrwt>
<rscale>  0 0.70684786E+02</rscale>
<asrwt>0</asrwt>
<pdfrwt beam="2">  1        2 0.59169167E-02 0.70684786E+02</pdfrwt>
<pdfrwt beam="1">  1       -2 0.49965443E-02 0.70684786E+02</pdfrwt>
<totfact> 0.19394954E+05</totfact>
</mgrwt>
</event>
<event>
 4    1  0.4837985E-002  0.8612222E+02  0.7818608E-02  0.1312524E+00
          2   -1    0    0    0  501  0.00000000000E+00  0.00000000000E+00  0.50362267581E+03  0.50362267581E+03  0.25500000000E-02 0. -1.
         -2   -1    0    0  501    0 -0.00000000000E+00 -0.00000000000E+00 -0.36818415764E+01  0.36818424594E+01  0.25500000000E-02 0. -1.
          2    1    1    2    0  502 -0.30119150565E+02  0.30499205409E+02  0.27418207059E+03  0.27751247287E+03  0.25500000000E-02 0.  1.
         -2    1    1    2  502    0  0.30119150565E+02 -0.30499205409E+02  0.22575876364E+03  0.22979204540E+03  0.25500000000E-02 0.  1.
<mgrwt>
<rscale>  0 0.86122219E+02</rscale>
<asrwt>0</asrwt>
<pdfrwt beam="1">  1        2 0.77480342E-01 0.86122219E+02</pdfrwt>
<pdfrwt beam="2">  1       -2 0.56643774E-03 0.86122219E+02</pdfrwt>
<totfact> 0.25106760E+05</totfact>
</mgrwt>
</event>
<event>
 4    1  0.4837985E-002  0.6247086E+02  0.7818608E-02  0.1387746E+00
          2   -1    0    0    0  501  0.00000000000E+00  0.00000000000E+00  0.25796905692E+04  0.25796905692E+04  0.25500000000E-02 0.  1.
         -2   -1    0    0  501    0 -0.00000000000E+00 -0.00000000000E+00 -0.37820074228E+00  0.37820933880E+00  0.25500000000E-02 0.  1.
          2    1    1    2    0  502  0.20586845436E+02  0.21922389325E+02  0.94105910279E+03  0.94153950757E+03  0.25500000000E-02 0. -1.
         -2    1    1    2  502    0 -0.20586845436E+02 -0.21922389325E+02  0.16382532657E+04  0.16385292710E+04  0.25500000000E-02 0. -1.
<mgrwt>
<rscale>  0 0.62470857E+02</rscale>
<asrwt>0</asrwt>
<pdfrwt beam="1">  1        2 0.39686375E+00 0.62470857E+02</pdfrwt>
<pdfrwt beam="2">  1       -2 0.58187110E-04 0.62470857E+02</pdfrwt>
<totfact> 0.37800507E+05</totfact>
</mgrwt>
</event>
<event>
 4    1  0.4837985E-002  0.5784943E+02  0.7818608E-02  0.1407085E+00
         -2   -1    0    0  501    0 -0.00000000000E+00  0.00000000000E+00  0.27512450470E+01  0.27512462287E+01  0.25500000000E-02 0.  1.
          2   -1    0    0    0  501  0.00000000000E+00 -0.00000000000E+00 -0.30409469474E+03  0.30409469475E+03  0.25500000000E-02 0.  1.
          2    1    1    2    0  502  0.38159191784E+01  0.22088285243E+02 -0.53706690219E+02  0.58196753903E+02  0.25500000000E-02 0.  1.
         -2    1    1    2  502    0 -0.38159191784E+01 -0.22088285243E+02 -0.24763675947E+03  0.24864918707E+03  0.25500000000E-02 0.  1.
<mgrwt>
<rscale>  0 0.57849432E+02</rscale>
<asrwt>0</asrwt>
<pdfrwt beam="2">  1        2 0.46783773E-01 0.57849432E+02</pdfrwt>
<pdfrwt beam="1">  1       -2 0.42326880E-03 0.57849432E+02</pdfrwt>
<totfact> 0.58932294E+05</totfact>
</mgrwt>
</event>
<event>
 4    1  0.4837985E-002  0.5680181E+02  0.7818608E-02  0.1411765E+00
          2   -1    0    0    0  501  0.00000000000E+00  0.00000000000E+00  0.68935605069E+02  0.68935605116E+02  0.25500000000E-02 0. -1.
         -2   -1    0    0  501    0 -0.00000000000E+00 -0.00000000000E+00 -0.11700940675E+02  0.11700940953E+02  0.25500000000E-02 0. -1.
          2    1    1    2    0  502 -0.36086795829E+01  0.21680098050E+02  0.30815814043E+01  0.22193363202E+02  0.25500000000E-02 0. -1.
         -2    1    1    2  502    0  0.36086795829E+01 -0.21680098050E+02  0.54153082990E+02  0.58443182866E+02  0.25500000000E-02 0. -1.
<mgrwt>
<rscale>  0 0.56801811E+02</rscale>
<asrwt>0</asrwt>
<pdfrwt beam="1">  1        2 0.10605478E-01 0.56801811E+02</pdfrwt>
<pdfrwt beam="2">  1       -2 0.18001447E-02 0.56801811E+02</pdfrwt>
<totfact> 0.39433092E+05</totfact>
</mgrwt>
</event>
<event>
 4    1  0.4837985E-002  0.4566271E+02  0.7818608E-02  0.1470246E+00
         -2   -1    0    0  501    0 -0.00000000000E+00  0.00000000000E+00  0.32343558092E+02  0.32343558192E+02  0.25500000000E-02 0.  1.
          2   -1    0    0    0  501  0.00000000000E+00 -0.00000000000E+00 -0.16116682994E+02  0.16116683196E+02  0.25500000000E-02 0.  1.
          2    1    1    2    0  502 -0.14424252108E+02  0.16417329585E+02  0.15127677842E+02  0.26578833740E+02  0.25500000000E-02 0.  1.
         -2    1    1    2  502    0  0.14424252108E+02 -0.16417329585E+02  0.10991972554E+01  0.21881407648E+02  0.25500000000E-02 0.  1.
<mgrwt>
<rscale>  0 0.45662715E+02</rscale>
<asrwt>0</asrwt>
<pdfrwt beam="2">  1        2 0.24794897E-02 0.45662715E+02</pdfrwt>
<pdfrwt beam="1">  1       -2 0.49759320E-02 0.45662715E+02</pdfrwt>
<totfact> 0.54230872E+05</totfact>
</mgrwt>
</event>
<event>
 4    1  0.4837985E-002  0.4807607E+02  0.7818608E-02  0.1456004E+00
          2   -1    0    0    0  501  0.00000000000E+00  0.00000000000E+00  0.38226872176E+03  0.38226872177E+03  0.25500000000E-02 0. -1.
         -2   -1    0    0  501    0 -0.00000000000E+00 -0.00000000000E+00 -0.15115721635E+01  0.15115743144E+01  0.25500000000E-02 0. -1.
          2    1    1    2    0  502 -0.22844230329E+02  0.25078343174E+01  0.24664384968E+03  0.24771220536E+03  0.25500000000E-02 0.  1.
         -2    1    1    2  502    0  0.22844230329E+02 -0.25078343174E+01  0.13411329991E+03  0.13606809072E+03  0.25500000000E-02 0.  1.
<mgrwt>
<rscale>  0 0.48076072E+02</rscale>
<asrwt>0</asrwt>
<pdfrwt beam="1">  1        2 0.58810547E-01 0.48076072E+02</pdfrwt>
<pdfrwt beam="2">  1       -2 0.23254983E-03 0.48076072E+02</pdfrwt>
<totfact> 0.10137042E+06</totfact>
</mgrwt>
</event>
<event>
 4    1  0.4837985E-002  0.5479605E+02  0.7818608E-02  0.1421066E+00
          2   -1    0    0    0  501  0.00000000000E+00  0.00000000000E+00  0.15967479852E+04  0.15967479852E+04  0.25500000000E-02 0. -1.
         -2   -1    0    0  501    0 -0.00000000000E+00 -0.00000000000E+00 -0.47010933132E+00  0.47011624722E+00  0.25500000000E-02 0. -1.
          2    1    1    2    0  502 -0.23638314377E+02 -0.12149740882E+02  0.60420765624E+03  0.60479192949E+03  0.25500000000E-02 0. -1.
         -2    1    1    2  502    0  0.23638314377E+02  0.12149740882E+02  0.99207021960E+03  0.99242617193E+03  0.25500000000E-02 0. -1.
<mgrwt>
<rscale>  0 0.54796046E+02</rscale>
<asrwt>0</asrwt>
<pdfrwt beam="1">  1        2 0.24565704E+00 0.54796046E+02</pdfrwt>
<pdfrwt beam="2">  1       -2 0.72324013E-04 0.54796046E+02</pdfrwt>
<totfact> 0.85039483E+05</totfact>
</mgrwt>
</event>
<event>
 4    1  0.4837985E-002  0.1566061E+03  0.7818608E-02  0.1192583E+00
          2   -1    0    0    0  501  0.00000000000E+00  0.00000000000E+00  0.97576363407E+03  0.97576363408E+03  0.25500000000E-02 0. -1.
         -2   -1    0    0  501    0 -0.00000000000E+00 -0.00000000000E+00 -0.62836614156E+01  0.62836619331E+01  0.25500000000E-02 0. -1.
          2    1    1    2    0  502 -0.19056889013E+02 -0.74525581768E+02  0.57650429647E+03  0.58161364428E+03  0.25500000000E-02 0. -1.
         -2    1    1    2  502    0  0.19056889013E+02  0.74525581768E+02  0.39297567619E+03  0.40043365173E+03  0.25500000000E-02 0. -1.
<mgrwt>
<rscale>  0 0.15660611E+03</rscale>
<asrwt>0</asrwt>
<pdfrwt beam="1">  1        2 0.15011760E+00 0.15660611E+03</pdfrwt>
<pdfrwt beam="2">  1       -2 0.96671642E-03 0.15660611E+03</pdfrwt>
<totfact> 0.57855393E+04</totfact>
</mgrwt>
</event>
<event>
 4    1  0.4837985E-002  0.4403669E+02  0.7818608E-02  0.1480447E+00
         -2   -1    0    0  501    0 -0.00000000000E+00  0.00000000000E+00  0.17388167764E+01  0.17388186462E+01  0.25500000000E-02 0. -1.
          2   -1    0    0    0  501  0.00000000000E+00 -0.00000000000E+00 -0.27881440297E+03  0.27881440298E+03  0.25500000000E-02 0. -1.
          2    1    1    2    0  502 -0.15415914260E+02 -0.15719414618E+02 -0.13701662334E+03  0.13877429692E+03  0.25500000000E-02 0. -1.
         -2    1    1    2  502    0  0.15415914260E+02  0.15719414618E+02 -0.14005896285E+03  0.14177892471E+03  0.25500000000E-02 0. -1.
<mgrwt>
<rscale>  0 0.44036686E+02</rscale>
<asrwt>0</asrwt>
<pdfrwt beam="2">  1        2 0.42894488E-01 0.44036686E+02</pdfrwt>
<pdfrwt beam="1">  1       -2 0.26751064E-03 0.44036686E+02</pdfrwt>
<totfact> 0.11287795E+06</totfact>
</mgrwt>
</event>
<event>
 4    1  0.4837985E-002  0.5568493E+02  0.7818608E-02  0.1416887E+00
         -2   -1    0    0  501    0 -0.00000000000E+00  0.00000000000E+00  0.30089227470E+03  0.30089227471E+03  0.25500000000E-02 0.  1.
          2   -1    0    0    0  501  0.00000000000E+00 -0.00000000000E+00 -0.25763465363E+01  0.25763477983E+01  0.25500000000E-02 0.  1.
          2    1    1    2    0  502  0.85171562143E+01  0.23469714061E+02  0.82005813178E+02  0.85722358982E+02  0.25500000000E-02 0.  1.
         -2    1    1    2  502    0 -0.85171562143E+01 -0.23469714061E+02  0.21631011499E+03  0.21774626353E+03  0.25500000000E-02 0.  1.
<mgrwt>
<rscale>  0 0.55684934E+02</rscale>
<asrwt>0</asrwt>
<pdfrwt beam="2">  1        2 0.39636096E-03 0.55684934E+02</pdfrwt>
<pdfrwt beam="1">  1       -2 0.46291136E-01 0.55684934E+02</pdfrwt>
<totfact> 0.17764936E+05</totfact>
</mgrwt>
</event>
<event>
 4    1  0.4837985E-002  0.5048372E+02  0.7818608E-02  0.1442750E+00
          2   -1    0    0    0  501  0.00000000000E+00  0.00000000000E+00  0.37199699643E+03  0.37199699644E+03  0.25500000000E-02 0. -1.
         -2   -1    0    0  501    0 -0.00000000000E+00 -0.00000000000E+00 -0.17127858907E+01  0.17127877890E+01  0.25500000000E-02 0. -1.
          2    1    1    2    0  502 -0.82757697152E+01 -0.23068315430E+02  0.22987477186E+03  0.23117752115E+03  0.25500000000E-02 0.  1.
         -2    1    1    2  502    0  0.82757697152E+01  0.23068315430E+02  0.14040943868E+03  0.14253226308E+03  0.25500000000E-02 0.  1.
<mgrwt>
<rscale>  0 0.50483723E+02</rscale>
<asrwt>0</asrwt>
<pdfrwt beam="1">  1        2 0.57230396E-01 0.50483723E+02</pdfrwt>
<pdfrwt beam="2">  1       -2 0.26350526E-03 0.50483723E+02</pdfrwt>
<totfact> 0.88978039E+05</totfact>
</mgrwt>
</event>
<event>
 4    1  0.4837985E-002  0.4435352E+02  0.7818608E-02  0.1478418E+00
         -2   -1    0    0  501    0 -0.00000000000E+00  0.00000000000E+00  0.61261553094E+01  0.61261558401E+01  0.25500000000E-02 0.  1.
          2   -1    0    0    0  501  0.00000000000E+00 -0.00000000000E+00 -0.80280164932E+02  0.80280164972E+02  0.25500000000E-02 0.  1.
          2    1    1    2    0  502 -0.16012232007E+02 -0.13398901584E+02 -0.51640693080E+02  0.55701735393E+02  0.25500000000E-02 0. -1.
         -2    1    1    2  502    0  0.16012232007E+02  0.13398901584E+02 -0.22513316542E+02  0.30704585419E+02  0.25500000000E-02 0. -1.
<mgrwt>
<rscale>  0 0.44353524E+02</rscale>
<asrwt>0</asrwt>
<pdfrwt beam="2">  1        2 0.12350794E-01 0.44353524E+02</pdfrwt>
<pdfrwt beam="1">  1       -2 0.94248554E-03 0.44353524E+02</pdfrwt>
<totfact> 0.76721003E+05</totfact>
</mgrwt>
</event>
<event>
 4    1  0.4837985E-002  0.4358929E+02  0.7818608E-02  0.1483346E+00
          2   -1    0    0    0  501  0.00000000000E+00  0.00000000000E+00  0.73474517915E+03  0.73474517916E+03  0.25500000000E-02 0. -1.
         -2   -1    0    0  501    0 -0.00000000000E+00 -0.00000000000E+00 -0.64648903775E+00  0.64649406682E+00  0.25500000000E-02 0. -1.
          2    1    1    2    0  502 -0.15670362946E+02  0.15141824513E+02  0.37403447292E+03  0.37466868306E+03  0.25500000000E-02 0. -1.
         -2    1    1    2  502    0  0.15670362946E+02 -0.15141824513E+02  0.36006421719E+03  0.36072299017E+03  0.25500000000E-02 0. -1.
<mgrwt>
<rscale>  0 0.43589290E+02</rscale>
<asrwt>0</asrwt>
<pdfrwt beam="1">  1        2 0.11303788E+00 0.43589290E+02</pdfrwt>
<pdfrwt beam="2">  1       -2 0.99460100E-04 0.43589290E+02</pdfrwt>
<totfact> 0.15555350E+06</totfact>
</mgrwt>
</event>
<event>
 4    1  0.4837985E-002  0.5704779E+02  0.7818608E-02  0.1410656E+00
          2   -1    0    0    0  501  0.00000000000E+00  0.00000000000E+00  0.37513553102E+03  0.37513553103E+03  0.25500000000E-02 0.  1.
         -2   -1    0    0  501    0 -0.00000000000E+00 -0.00000000000E+00 -0.21688490088E+01  0.21688505079E+01  0.25500000000E-02 0.  1.
          2    1    1    2    0  502 -0.55854050084E+00 -0.20737094116E+02  0.57001922227E+02  0.60659361882E+02  0.25500000000E-02 0.  1.
         -2    1    1    2  502    0  0.55854050084E+00  0.20737094116E+02  0.31596475978E+03  0.31664501965E+03  0.25500000000E-02 0.  1.
<mgrwt>
<rscale>  0 0.57047791E+02</rscale>
<asrwt>0</asrwt>
<pdfrwt beam="1">  1        2 0.57713145E-01 0.57047791E+02</pdfrwt>
<pdfrwt beam="2">  1       -2 0.33366927E-03 0.57047791E+02</pdfrwt>
<totfact> 0.65705298E+05</totfact>
</mgrwt>
</event>
<event>
 4    1  0.4837985E-002  0.5621244E+02  0.7818608E-02  0.1414451E+00
         -2   -1    0    0  501    0 -0.00000000000E+00  0.00000000000E+00  0.73587321640E+00  0.73587763460E+00  0.25500000000E-02 0. -1.
          2   -1    0    0    0  501  0.00000000000E+00 -0.00000000000E+00 -0.10734964994E+04  0.10734964994E+04  0.25500000000E-02 0. -1.
          2    1    1    2    0  502 -0.12854583387E+02  0.24379923258E+02 -0.43112006559E+03  0.43200015270E+03  0.25500000000E-02 0.  1.
         -2    1    1    2  502    0  0.12854583387E+02 -0.24379923258E+02 -0.64164056063E+03  0.64223222437E+03  0.25500000000E-02 0.  1.
<mgrwt>
<rscale>  0 0.56212443E+02</rscale>
<asrwt>0</asrwt>
<pdfrwt beam="2">  1        2 0.16515205E+00 0.56212443E+02</pdfrwt>
<pdfrwt beam="1">  1       -2 0.11321246E-03 0.56212443E+02</pdfrwt>
<totfact> 0.86660019E+05</totfact>
</mgrwt>
</event>
<event>
 4    1  0.4837985E-002  0.1129252E+03  0.7818608E-02  0.1255247E+00
          2   -1    0    0    0  501  0.00000000000E+00  0.00000000000E+00  0.10818183340E+03  0.10818183343E+03  0.25500000000E-02 0.  1.
         -2   -1    0    0  501    0 -0.00000000000E+00 -0.00000000000E+00 -0.29469114158E+02  0.29469114269E+02  0.25500000000E-02 0.  1.
          2    1    1    2    0  502 -0.25958391471E+02 -0.39387708107E+02  0.77179274833E+02  0.90453690405E+02  0.25500000000E-02 0.  1.
         -2    1    1    2  502    0  0.25958391471E+02  0.39387708107E+02  0.15334444072E+01  0.47197257292E+02  0.25500000000E-02 0.  1.
<mgrwt>
<rscale>  0 0.11292516E+03</rscale>
<asrwt>0</asrwt>
<pdfrwt beam="1">  1        2 0.16643359E-01 0.11292516E+03</pdfrwt>
<pdfrwt beam="2">  1       -2 0.45337099E-02 0.11292516E+03</pdfrwt>
<totfact> 0.69189280E+04</totfact>
</mgrwt>
</event>
<event>
 4    1  0.4837985E-002  0.7561366E+02  0.7818608E-02  0.1341981E+00
         -2   -1    0    0  501    0 -0.00000000000E+00  0.00000000000E+00  0.79111809210E+00  0.79112220178E+00  0.25500000000E-02 0.  1.
          2   -1    0    0    0  501  0.00000000000E+00 -0.00000000000E+00 -0.18067501385E+04  0.18067501385E+04  0.25500000000E-02 0.  1.
          2    1    1    2    0  502 -0.92586426493E+01 -0.34220749382E+02 -0.58894600429E+03  0.59001201524E+03  0.25500000000E-02 0.  1.
         -2    1    1    2  502    0  0.92586426493E+01  0.34220749382E+02 -0.12170130161E+04  0.12175292454E+04  0.25500000000E-02 0.  1.
<mgrwt>
<rscale>  0 0.75613661E+02</rscale>
<asrwt>0</asrwt>
<pdfrwt beam="2">  1        2 0.27795826E+00 0.75613661E+02</pdfrwt>
<pdfrwt beam="1">  1       -2 0.12171224E-03 0.75613661E+02</pdfrwt>
<totfact> 0.34878101E+05</totfact>
</mgrwt>
</event>
<event>
 4    1  0.4837985E-002  0.4312155E+02  0.7818608E-02  0.1486421E+00
         -2   -1    0    0  501    0 -0.00000000000E+00  0.00000000000E+00  0.12818727153E+01  0.12818752516E+01  0.25500000000E-02 0. -1.
          2   -1    0    0    0  501  0.00000000000E+00 -0.00000000000E+00 -0.36264642625E+03  0.36264642625E+03  0.25500000000E-02 0. -1.
          2    1    1    2    0  502 -0.27271829588E+01  0.20295938961E+02 -0.12375139295E+03  0.12543432517E+03  0.25500000000E-02 0. -1.
         -2    1    1    2  502    0  0.27271829588E+01 -0.20295938961E+02 -0.23761316058E+03  0.23849397634E+03  0.25500000000E-02 0. -1.
<mgrwt>
<rscale>  0 0.43121550E+02</rscale>
<asrwt>0</asrwt>
<pdfrwt beam="2">  1        2 0.55791676E-01 0.43121550E+02</pdfrwt>
<pdfrwt beam="1">  1       -2 0.19721167E-03 0.43121550E+02</pdfrwt>
<totfact> 0.13003240E+06</totfact>
</mgrwt>
</event>
<event>
 4    1  0.4837985E-002  0.8903448E+02  0.7818608E-02  0.1305207E+00
          2   -1    0    0    0  501  0.00000000000E+00  0.00000000000E+00  0.26911493695E+04  0.26911493695E+04  0.25500000000E-02 0. -1.
         -2   -1    0    0  501    0 -0.00000000000E+00 -0.00000000000E+00 -0.73640600446E+00  0.73641041947E+00  0.25500000000E-02 0. -1.
          2    1    1    2    0  502 -0.10708298918E+02 -0.41087909788E+02  0.94081295887E+03  0.94177062366E+03  0.25500000000E-02 0.  1.
         -2    1    1    2  502    0  0.10708298918E+02  0.41087909788E+02  0.17496000047E+04  0.17501151563E+04  0.25500000000E-02 0.  1.
<mgrwt>
<rscale>  0 0.89034476E+02</rscale>
<asrwt>0</asrwt>
<pdfrwt beam="1">  1        2 0.41402414E+00 0.89034476E+02</pdfrwt>
<pdfrwt beam="2">  1       -2 0.11329325E-03 0.89034476E+02</pdfrwt>
<totfact> 0.13859678E+05</totfact>
</mgrwt>
</event>
<event>
 4    1  0.4837985E-002  0.4347588E+02  0.7818608E-02  0.1484087E+00
         -2   -1    0    0  501    0 -0.00000000000E+00  0.00000000000E+00  0.95027974498E+02  0.95027974532E+02  0.25500000000E-02 0.  1.
          2   -1    0    0    0  501  0.00000000000E+00 -0.00000000000E+00 -0.49726197624E+01  0.49726204162E+01  0.25500000000E-02 0.  1.
          2    1    1    2    0  502 -0.19758695265E+02 -0.85818403531E+01  0.51727360612E+02  0.56033685091E+02  0.25500000000E-02 0.  1.
         -2    1    1    2  502    0  0.19758695265E+02  0.85818403531E+01  0.38327994123E+02  0.43966909858E+02  0.25500000000E-02 0.  1.
<mgrwt>
<rscale>  0 0.43475879E+02</rscale>
<asrwt>0</asrwt>
<pdfrwt beam="2">  1        2 0.76501848E-03 0.43475879E+02</pdfrwt>
<pdfrwt beam="1">  1       -2 0.14619688E-01 0.43475879E+02</pdfrwt>
<totfact> 0.50176519E+05</totfact>
</mgrwt>
</event>
<event>
 4    1  0.4837985E-002  0.1366003E+03  0.7818608E-02  0.1217978E+00
          2   -1    0    0    0  501  0.00000000000E+00  0.00000000000E+00  0.64697768666E+03  0.64697768667E+03  0.25500000000E-02 0. -1.
         -2   -1    0    0  501    0 -0.00000000000E+00 -0.00000000000E+00 -0.72103070566E+01  0.72103075075E+01  0.25500000000E-02 0. -1.
          2    1    1    2    0  502 -0.67755783363E+02 -0.58524251131E+01  0.35010072383E+03  0.35664494093E+03  0.25500000000E-02 0.  1.
         -2    1    1    2  502    0  0.67755783363E+02  0.58524251131E+01  0.28966665577E+03  0.29754305324E+03  0.25500000000E-02 0.  1.
<mgrwt>
<rscale>  0 0.13660026E+03</rscale>
<asrwt>0</asrwt>
<pdfrwt beam="1">  1        2 0.99535016E-01 0.13660026E+03</pdfrwt>
<pdfrwt beam="2">  1       -2 0.11092782E-02 0.13660026E+03</pdfrwt>
<totfact> 0.78258311E+04</totfact>
</mgrwt>
</event>
<event>
 4    1  0.4837985E-002  0.8376492E+02  0.7818608E-02  0.1318694E+00
         -2   -1    0    0  501    0 -0.00000000000E+00  0.00000000000E+00  0.18686038366E+01  0.18686055765E+01  0.25500000000E-02 0.  1.
          2   -1    0    0    0  501  0.00000000000E+00 -0.00000000000E+00 -0.93874353049E+03  0.93874353049E+03  0.25500000000E-02 0.  1.
          2    1    1    2    0  502 -0.19509649177E+02  0.11786032592E+02 -0.73878282067E+02  0.77314536427E+02  0.25500000000E-02 0.  1.
         -2    1    1    2  502    0  0.19509649177E+02 -0.11786032592E+02 -0.86299664459E+03  0.86329759964E+03  0.25500000000E-02 0.  1.
<mgrwt>
<rscale>  0 0.83764923E+02</rscale>
<asrwt>0</asrwt>
<pdfrwt beam="2">  1        2 0.14442171E+00 0.83764923E+02</pdfrwt>
<pdfrwt beam="1">  1       -2 0.28747840E-03 0.83764923E+02</pdfrwt>
<totfact> 0.31097509E+05</totfact>
</mgrwt>
</event>
<event>
 4    1  0.4837985E-002  0.1067582E+03  0.7818608E-02  0.1266694E+00
         -2   -1    0    0  501    0 -0.00000000000E+00  0.00000000000E+00  0.78406342317E+00  0.78406756983E+00  0.25500000000E-02 0. -1.
          2   -1    0    0    0  501  0.00000000000E+00 -0.00000000000E+00 -0.36340425024E+04  0.36340425024E+04  0.25500000000E-02 0. -1.
          2    1    1    2    0  502  0.22857930778E+02 -0.47901700723E+02 -0.16232196321E+04  0.16240871381E+04  0.25500000000E-02 0.  1.
         -2    1    1    2  502    0 -0.22857930778E+02  0.47901700723E+02 -0.20100388068E+04  0.20107394319E+04  0.25500000000E-02 0.  1.
<mgrwt>
<rscale>  0 0.10675818E+03</rscale>
<asrwt>0</asrwt>
<pdfrwt beam="2">  1        2 0.55906997E+00 0.10675818E+03</pdfrwt>
<pdfrwt beam="1">  1       -2 0.12062837E-03 0.10675818E+03</pdfrwt>
<totfact> 0.35428728E+04</totfact>
</mgrwt>
</event>
<event>
 4    1  0.4837985E-002  0.6125663E+02  0.7818608E-02  0.1392633E+00
          2   -1    0    0    0  501  0.00000000000E+00  0.00000000000E+00  0.84139401801E+03  0.84139401802E+03  0.25500000000E-02 0.  1.
         -2   -1    0    0  501    0 -0.00000000000E+00 -0.00000000000E+00 -0.11149262969E+01  0.11149292130E+01  0.25500000000E-02 0.  1.
          2    1    1    2    0  502 -0.19974266784E+02 -0.21995310739E+02  0.52244433109E+03  0.52328849034E+03  0.25500000000E-02 0.  1.
         -2    1    1    2  502    0  0.19974266784E+02  0.21995310739E+02  0.31783476063E+03  0.31922045689E+03  0.25500000000E-02 0.  1.
<mgrwt>
<rscale>  0 0.61256626E+02</rscale>
<asrwt>0</asrwt>
<pdfrwt beam="1">  1        2 0.12944522E+00 0.61256626E+02</pdfrwt>
<pdfrwt beam="2">  1       -2 0.17152737E-03 0.61256626E+02</pdfrwt>
<totfact> 0.68591472E+05</totfact>
</mgrwt>
</event>
<event>
 4    1  0.4837985E-002  0.6809967E+02  0.7818608E-02  0.1366677E+00
         -2   -1    0    0  501    0 -0.00000000000E+00  0.00000000000E+00  0.11538165045E+03  0.11538165048E+03  0.25500000000E-02 0. -1.
          2   -1    0    0    0  501  0.00000000000E+00 -0.00000000000E+00 -0.10048314516E+02  0.10048314839E+02  0.25500000000E-02 0. -1.
          2    1    1    2    0  502 -0.74249526268E+01 -0.31398232817E+02  0.32624047029E+02  0.45883628851E+02  0.25500000000E-02 0. -1.
         -2    1    1    2  502    0  0.74249526268E+01  0.31398232817E+02  0.72709288911E+02  0.79546336471E+02  0.25500000000E-02 0. -1.
<mgrwt>
<rscale>  0 0.68099666E+02</rscale>
<asrwt>0</asrwt>
<pdfrwt beam="2">  1        2 0.15458946E-02 0.68099666E+02</pdfrwt>
<pdfrwt beam="1">  1       -2 0.17751023E-01 0.68099666E+02</pdfrwt>
<totfact> 0.15843325E+05</totfact>
</mgrwt>
</event>
<event>
 4    1  0.4837985E-002  0.5807728E+02  0.7818608E-02  0.1406082E+00
          2   -1    0    0    0  501  0.00000000000E+00  0.00000000000E+00  0.80200592687E+03  0.80200592687E+03  0.25500000000E-02 0. -1.
         -2   -1    0    0  501    0 -0.00000000000E+00 -0.00000000000E+00 -0.10514154243E+01  0.10514185166E+01  0.25500000000E-02 0. -1.
          2    1    1    2    0  502  0.18592520942E+02 -0.16924411524E+02  0.19956324904E+03  0.20114076642E+03  0.25500000000E-02 0.  1.
         -2    1    1    2  502    0 -0.18592520942E+02  0.16924411524E+02  0.60139126240E+03  0.60191657897E+03  0.25500000000E-02 0.  1.
<mgrwt>
<rscale>  0 0.58077281E+02</rscale>
<asrwt>0</asrwt>
<pdfrwt beam="1">  1        2 0.12338572E+00 0.58077281E+02</pdfrwt>
<pdfrwt beam="2">  1       -2 0.16175620E-03 0.58077281E+02</pdfrwt>
<totfact> 0.77854110E+05</totfact>
</mgrwt>
</event>
<event>
 4    1  0.4837985E-002  0.4453526E+02  0.7818608E-02  0.1477264E+00
          2   -1    0    0    0  501  0.00000000000E+00  0.00000000000E+00  0.29540099923E+03  0.29540099924E+03  0.25500000000E-02 0. -1.
         -2   -1    0    0  501    0 -0.00000000000E+00 -0.00000000000E+00 -0.16785554628E+01  0.16785573997E+01  0.25500000000E-02 0. -1.
          2    1    1    2    0  502 -0.26279006147E+01  0.21720663121E+02  0.17448949524E+03  0.17585584160E+03  0.25500000000E-02 0.  1.
         -2    1    1    2  502    0  0.26279006147E+01 -0.21720663121E+02  0.11923294852E+03  0.12122371504E+03  0.25500000000E-02 0.  1.
<mgrwt>
<rscale>  0 0.44535256E+02</rscale>
<asrwt>0</asrwt>
<pdfrwt beam="1">  1        2 0.45446296E-01 0.44535256E+02</pdfrwt>
<pdfrwt beam="2">  1       -2 0.25823952E-03 0.44535256E+02</pdfrwt>
<totfact> 0.11201273E+06</totfact>
</mgrwt>
</event>
<event>
 4    1  0.4837985E-002  0.5546187E+02  0.7818608E-02  0.1417927E+00
         -2   -1    0    0  501    0 -0.00000000000E+00  0.00000000000E+00  0.28289091852E+00  0.28290241124E+00  0.25500000000E-02 0.  1.
          2   -1    0    0    0  501  0.00000000000E+00 -0.00000000000E+00 -0.27183241093E+04  0.27183241093E+04  0.25500000000E-02 0.  1.
          2    1    1    2    0  502  0.25582670611E+02  0.57839735827E+01 -0.91765152959E+03  0.91802628348E+03  0.25500000000E-02 0. -1.
         -2    1    1    2  502    0 -0.25582670611E+02 -0.57839735827E+01 -0.18003896888E+04  0.18005807282E+04  0.25500000000E-02 0. -1.
<mgrwt>
<rscale>  0 0.55461873E+02</rscale>
<asrwt>0</asrwt>
<pdfrwt beam="2">  1        2 0.41818279E+00 0.55461873E+02</pdfrwt>
<pdfrwt beam="1">  1       -2 0.43524741E-04 0.55461873E+02</pdfrwt>
<totfact> 0.46521406E+05</totfact>
</mgrwt>
</event>
<event>
 4    1  0.4837985E-002  0.6982593E+02  0.7818608E-02  0.1360686E+00
          2   -1    0    0    0  501  0.00000000000E+00  0.00000000000E+00  0.34461616726E+03  0.34461616727E+03  0.25500000000E-02 0. -1.
         -2   -1    0    0  501    0 -0.00000000000E+00 -0.00000000000E+00 -0.35370219219E+01  0.35370228411E+01  0.25500000000E-02 0. -1.
          2    1    1    2    0  502  0.30185994503E+02 -0.16179640278E+02  0.20433434149E+03  0.20718469573E+03  0.25500000000E-02 0.  1.
         -2    1    1    2  502    0 -0.30185994503E+02  0.16179640278E+02  0.13674480385E+03  0.14096849439E+03  0.25500000000E-02 0.  1.
<mgrwt>
<rscale>  0 0.69825929E+02</rscale>
<asrwt>0</asrwt>
<pdfrwt beam="1">  1        2 0.53017858E-01 0.69825929E+02</pdfrwt>
<pdfrwt beam="2">  1       -2 0.54415743E-03 0.69825929E+02</pdfrwt>
<totfact> 0.38068660E+05</totfact>
</mgrwt>
</event>
<event>
 4    1  0.4837985E-002  0.7282255E+02  0.7818608E-02  0.1350750E+00
         -2   -1    0    0  501    0 -0.00000000000E+00  0.00000000000E+00  0.51311331244E+01  0.51311337580E+01  0.25500000000E-02 0.  1.
          2   -1    0    0    0  501  0.00000000000E+00 -0.00000000000E+00 -0.25837972274E+03  0.25837972275E+03  0.25500000000E-02 0.  1.
          2    1    1    2    0  502  0.23049511238E+02 -0.94879927487E+01 -0.22266749665E+03  0.22405828716E+03  0.25500000000E-02 0. -1.
         -2    1    1    2  502    0 -0.23049511238E+02  0.94879927487E+01 -0.30581092961E+02  0.39452569345E+02  0.25500000000E-02 0. -1.
<mgrwt>
<rscale>  0 0.72822547E+02</rscale>
<asrwt>0</asrwt>
<pdfrwt beam="2">  1        2 0.39750716E-01 0.72822547E+02</pdfrwt>
<pdfrwt beam="1">  1       -2 0.78940535E-03 0.72822547E+02</pdfrwt>
<totfact> 0.30769202E+05</totfact>
</mgrwt>
</event>
<event>
 4    1  0.4837985E-002  0.5262860E+02  0.7818608E-02  0.1431658E+00
         -2   -1    0    0  501    0 -0.00000000000E+00  0.00000000000E+00  0.12581861626E+02  0.12581861884E+02  0.25500000000E-02 0. -1.
          2   -1    0    0    0  501  0.00000000000E+00 -0.00000000000E+00 -0.55034964940E+02  0.55034964999E+02  0.25500000000E-02 0. -1.
          2    1    1    2    0  502  0.24973564553E+02 -0.24012176841E+01 -0.31424077160E+02  0.40210911513E+02  0.25500000000E-02 0. -1.
         -2    1    1    2  502    0 -0.24973564553E+02  0.24012176841E+01 -0.11029026154E+02  0.27405915370E+02  0.25500000000E-02 0. -1.
<mgrwt>
<rscale>  0 0.52628598E+02</rscale>
<asrwt>0</asrwt>
<pdfrwt beam="2">  1        2 0.84669176E-02 0.52628598E+02</pdfrwt>
<pdfrwt beam="1">  1       -2 0.19356711E-02 0.52628598E+02</pdfrwt>
<totfact> 0.45800811E+05</totfact>
</mgrwt>
</event>
<event>
 4    1  0.4837985E-002  0.6936822E+02  0.7818608E-02  0.1362255E+00
         -2   -1    0    0  501    0 -0.00000000000E+00  0.00000000000E+00  0.16323380554E+01  0.16323400472E+01  0.25500000000E-02 0. -1.
          2   -1    0    0    0  501  0.00000000000E+00 -0.00000000000E+00 -0.73697149119E+03  0.73697149119E+03  0.25500000000E-02 0. -1.
          2    1    1    2    0  502 -0.33269988370E+02 -0.54888503961E+00 -0.26345702008E+03  0.26554998557E+03  0.25500000000E-02 0. -1.
         -2    1    1    2  502    0  0.33269988370E+02  0.54888503961E+00 -0.47188213305E+03  0.47305384567E+03  0.25500000000E-02 0. -1.
<mgrwt>
<rscale>  0 0.69368216E+02</rscale>
<asrwt>0</asrwt>
<pdfrwt beam="2">  1        2 0.11337996E+00 0.69368216E+02</pdfrwt>
<pdfrwt beam="1">  1       -2 0.25112967E-03 0.69368216E+02</pdfrwt>
<totfact> 0.48824500E+05</totfact>
</mgrwt>
</event>
<event>
 4    1  0.4837985E-002  0.4267022E+02  0.7818608E-02  0.1489433E+00
          2   -1    0    0    0  501  0.00000000000E+00  0.00000000000E+00  0.43845964553E+03  0.43845964554E+03  0.25500000000E-02 0.  1.
         -2   -1    0    0  501    0 -0.00000000000E+00 -0.00000000000E+00 -0.10381482840E+01  0.10381514158E+01  0.25500000000E-02 0.  1.
          2    1    1    2    0  502  0.18061680954E+02 -0.10799779142E+02  0.25487381169E+03  0.25574111801E+03  0.25500000000E-02 0. -1.
         -2    1    1    2  502    0 -0.18061680954E+02  0.10799779142E+02  0.18254768556E+03  0.18375667895E+03  0.25500000000E-02 0. -1.
<mgrwt>
<rscale>  0 0.42670215E+02</rscale>
<asrwt>0</asrwt>
<pdfrwt beam="1">  1        2 0.67455419E-01 0.42670215E+02</pdfrwt>
<pdfrwt beam="2">  1       -2 0.15971515E-03 0.42670215E+02</pdfrwt>
<totfact> 0.14211117E+06</totfact>
</mgrwt>
</event>
<event>
 4    1  0.4837985E-002  0.5248111E+02  0.7818608E-02  0.1432401E+00
         -2   -1    0    0  501    0 -0.00000000000E+00  0.00000000000E+00  0.73131132049E+00  0.73131576626E+00  0.25500000000E-02 0. -1.
          2   -1    0    0    0  501  0.00000000000E+00 -0.00000000000E+00 -0.94154803652E+03  0.94154803652E+03  0.25500000000E-02 0. -1.
          2    1    1    2    0  502  0.18496261203E+02 -0.17971115295E+02 -0.38338083846E+03  0.38424723808E+03  0.25500000000E-02 0.  1.
         -2    1    1    2  502    0 -0.18496261203E+02  0.17971115295E+02 -0.55743588673E+03  0.55803211421E+03  0.25500000000E-02 0.  1.
<mgrwt>
<rscale>  0 0.52481114E+02</rscale>
<asrwt>0</asrwt>
<pdfrwt beam="2">  1        2 0.14485257E+00 0.52481114E+02</pdfrwt>
<pdfrwt beam="1">  1       -2 0.11251053E-03 0.52481114E+02</pdfrwt>
<totfact> 0.10231540E+06</totfact>
</mgrwt>
</event>
<event>
 4    1  0.4837985E-002  0.5820155E+02  0.7818608E-02  0.1405538E+00
         -2   -1    0    0  501    0 -0.00000000000E+00  0.00000000000E+00  0.92694718662E+01  0.92694722169E+01  0.25500000000E-02 0.  1.
          2   -1    0    0    0  501  0.00000000000E+00 -0.00000000000E+00 -0.91359576123E+02  0.91359576158E+02  0.25500000000E-02 0.  1.
          2    1    1    2    0  502 -0.13889643129E+02 -0.24358458378E+02 -0.54504251953E+02  0.61294128334E+02  0.25500000000E-02 0. -1.
         -2    1    1    2  502    0  0.13889643129E+02  0.24358458378E+02 -0.27585852303E+02  0.39334920041E+02  0.25500000000E-02 0. -1.
<mgrwt>
<rscale>  0 0.58201548E+02</rscale>
<asrwt>0</asrwt>
<pdfrwt beam="2">  1        2 0.14055319E-01 0.58201548E+02</pdfrwt>
<pdfrwt beam="1">  1       -2 0.14260727E-02 0.58201548E+02</pdfrwt>
<totfact> 0.39638355E+05</totfact>
</mgrwt>
</event>
<event>
 4    1  0.4837985E-002  0.4547140E+02  0.7818608E-02  0.1471420E+00
          2   -1    0    0    0  501  0.00000000000E+00  0.00000000000E+00  0.50998120320E+03  0.50998120321E+03  0.25500000000E-02 0.  1.
         -2   -1    0    0  501    0 -0.00000000000E+00 -0.00000000000E+00 -0.10135886272E+01  0.10135918349E+01  0.25500000000E-02 0.  1.
          2    1    1    2    0  502  0.68729772732E+01 -0.19362480365E+02  0.14508560393E+03  0.14653319056E+03  0.25500000000E-02 0. -1.
         -2    1    1    2  502    0 -0.68729772732E+01  0.19362480365E+02  0.36388201065E+03  0.36446160448E+03  0.25500000000E-02 0. -1.
<mgrwt>
<rscale>  0 0.45471396E+02</rscale>
<asrwt>0</asrwt>
<pdfrwt beam="1">  1        2 0.78458465E-01 0.45471396E+02</pdfrwt>
<pdfrwt beam="2">  1       -2 0.15593732E-03 0.45471396E+02</pdfrwt>
<totfact> 0.12763159E+06</totfact>
</mgrwt>
</event>
<event>
 4    1  0.4837985E-002  0.4858222E+02  0.7818608E-02  0.1453142E+00
          2   -1    0    0    0  501  0.00000000000E+00  0.00000000000E+00  0.20017465528E+02  0.20017465691E+02  0.25500000000E-02 0.  1.
         -2   -1    0    0  501    0 -0.00000000000E+00 -0.00000000000E+00 -0.29477154418E+02  0.29477154529E+02  0.25500000000E-02 0.  1.
          2    1    1    2    0  502 -0.19034538997E+02 -0.15079722619E+02 -0.53292941285E+01  0.24861880289E+02  0.25500000000E-02 0.  1.
         -2    1    1    2  502    0  0.19034538997E+02  0.15079722619E+02 -0.41303947614E+01  0.24632739930E+02  0.25500000000E-02 0.  1.
<mgrwt>
<rscale>  0 0.48582216E+02</rscale>
<asrwt>0</asrwt>
<pdfrwt beam="1">  1        2 0.30796101E-02 0.48582216E+02</pdfrwt>
<pdfrwt beam="2">  1       -2 0.45349469E-02 0.48582216E+02</pdfrwt>
<totfact> 0.47539460E+05</totfact>
</mgrwt>
</event>
<event>
 4    1  0.4837985E-002  0.4580546E+02  0.7818608E-02  0.1469375E+00
          2   -1    0    0    0  501  0.00000000000E+00  0.00000000000E+00  0.25057717723E+01  0.25057730698E+01  0.25500000000E-02 0.  1.
         -2   -1    0    0  501    0 -0.00000000000E+00 -0.00000000000E+00 -0.20933065910E+03  0.20933065912E+03  0.25500000000E-02 0.  1.
          2    1    1    2    0  502 -0.16555237620E+02 -0.15658950043E+02 -0.92809491399E+02  0.95566104395E+02  0.25500000000E-02 0. -1.
         -2    1    1    2  502    0  0.16555237620E+02  0.15658950043E+02 -0.11401539593E+03  0.11627032779E+03  0.25500000000E-02 0. -1.
<mgrwt>
<rscale>  0 0.45805458E+02</rscale>
<asrwt>0</asrwt>
<pdfrwt beam="1">  1        2 0.38550361E-03 0.45805458E+02</pdfrwt>
<pdfrwt beam="2">  1       -2 0.32204703E-01 0.45805458E+02</pdfrwt>
<totfact> 0.34274975E+05</totfact>
</mgrwt>
</event>
<event>
 4    1  0.4837985E-002  0.6051212E+02  0.7818608E-02  0.1395695E+00
          2   -1    0    0    0  501  0.00000000000E+00  0.00000000000E+00  0.33424537697E+01  0.33424547424E+01  0.25500000000E-02 0.  1.
         -2   -1    0    0  501    0 -0.00000000000E+00 -0.00000000000E+00 -0.27387936813E+03  0.27387936814E+03  0.25500000000E-02 0.  1.
          2    1    1    2    0  502  0.16317225932E+02 -0.25194682856E+02 -0.11788056525E+03  0.12164230998E+03  0.25500000000E-02 0. -1.
         -2    1    1    2  502    0 -0.16317225932E+02  0.25194682856E+02 -0.15265634911E+03  0.15557951291E+03  0.25500000000E-02 0. -1.
<mgrwt>
<rscale>  0 0.60512123E+02</rscale>
<asrwt>0</asrwt>
<pdfrwt beam="1">  1        2 0.51422395E-03 0.60512123E+02</pdfrwt>
<pdfrwt beam="2">  1       -2 0.42135270E-01 0.60512123E+02</pdfrwt>
<totfact> 0.15184334E+05</totfact>
</mgrwt>
</event>
<event>
 4    1  0.4837985E-002  0.6586756E+02  0.7818608E-02  0.1374737E+00
         -2   -1    0    0  501    0 -0.00000000000E+00  0.00000000000E+00  0.11206522669E+01  0.11206551681E+01  0.25500000000E-02 0. -1.
          2   -1    0    0    0  501  0.00000000000E+00 -0.00000000000E+00 -0.96785808221E+03  0.96785808222E+03  0.25500000000E-02 0. -1.
          2    1    1    2    0  502 -0.21596435770E+02  0.21138607726E+02 -0.67595777148E+03  0.67663295487E+03  0.25500000000E-02 0.  1.
         -2    1    1    2  502    0  0.21596435770E+02 -0.21138607726E+02 -0.29077965846E+03  0.29234578252E+03  0.25500000000E-02 0.  1.
<mgrwt>
<rscale>  0 0.65867557E+02</rscale>
<asrwt>0</asrwt>
<pdfrwt beam="2">  1        2 0.14890058E+00 0.65867557E+02</pdfrwt>
<pdfrwt beam="1">  1       -2 0.17240904E-03 0.65867557E+02</pdfrwt>
<totfact> 0.57925655E+05</totfact>
</mgrwt>
</event>
<event>
 4    1  0.4837985E-002  0.6045006E+02  0.7818608E-02  0.1395953E+00
         -2   -1    0    0  501    0 -0.00000000000E+00  0.00000000000E+00  0.17651366337E+01  0.17651384756E+01  0.25500000000E-02 0. -1.
          2   -1    0    0    0  501  0.00000000000E+00 -0.00000000000E+00 -0.51755312877E+03  0.51755312877E+03  0.25500000000E-02 0. -1.
          2    1    1    2    0  502  0.13544402729E+02  0.22875751890E+02 -0.13435223322E+03  0.13695719568E+03  0.25500000000E-02 0.  1.
         -2    1    1    2  502    0 -0.13544402729E+02 -0.22875751890E+02 -0.38143575891E+03  0.38236107157E+03  0.25500000000E-02 0.  1.
<mgrwt>
<rscale>  0 0.60450061E+02</rscale>
<asrwt>0</asrwt>
<pdfrwt beam="2">  1        2 0.79623437E-01 0.60450061E+02</pdfrwt>
<pdfrwt beam="1">  1       -2 0.27156004E-03 0.60450061E+02</pdfrwt>
<totfact> 0.63129854E+05</totfact>
</mgrwt>
</event>
<event>
 4    1  0.4837985E-002  0.9108575E+02  0.7818608E-02  0.1300243E+00
         -2   -1    0    0  501    0 -0.00000000000E+00  0.00000000000E+00  0.29585193208E+02  0.29585193318E+02  0.25500000000E-02 0. -1.
          2   -1    0    0    0  501  0.00000000000E+00 -0.00000000000E+00 -0.70107828088E+02  0.70107828135E+02  0.25500000000E-02 0. -1.
          2    1    1    2    0  502 -0.28418176681E+02 -0.28753774274E+02  0.26913254476E+01  0.40516855012E+02  0.25500000000E-02 0. -1.
         -2    1    1    2  502    0  0.28418176681E+02  0.28753774274E+02 -0.43213960328E+02  0.59176166441E+02  0.25500000000E-02 0. -1.
<mgrwt>
<rscale>  0 0.91085754E+02</rscale>
<asrwt>0</asrwt>
<pdfrwt beam="2">  1        2 0.10785820E-01 0.91085754E+02</pdfrwt>
<pdfrwt beam="1">  1       -2 0.45515682E-02 0.91085754E+02</pdfrwt>
<totfact> 0.11097683E+05</totfact>
</mgrwt>
</event>
<event>
 4    1  0.4837985E-002  0.5962640E+02  0.7818608E-02  0.1399406E+00
         -2   -1    0    0  501    0 -0.00000000000E+00  0.00000000000E+00  0.16459193207E+01  0.16459212961E+01  0.25500000000E-02 0. -1.
          2   -1    0    0    0  501  0.00000000000E+00 -0.00000000000E+00 -0.54001813437E+03  0.54001813437E+03  0.25500000000E-02 0. -1.
          2    1    1    2    0  502 -0.10540141178E+02 -0.24389665585E+02 -0.39203474249E+03  0.39293407805E+03  0.25500000000E-02 0.  1.
         -2    1    1    2  502    0  0.10540141178E+02  0.24389665585E+02 -0.14633747255E+03  0.14872997762E+03  0.25500000000E-02 0.  1.
<mgrwt>
<rscale>  0 0.59626397E+02</rscale>
<asrwt>0</asrwt>
<pdfrwt beam="2">  1        2 0.83079571E-01 0.59626397E+02</pdfrwt>
<pdfrwt beam="1">  1       -2 0.25321894E-03 0.59626397E+02</pdfrwt>
<totfact> 0.66203421E+05</totfact>
</mgrwt>
</event>
<event>
 4    1  0.4837985E-002  0.1283588E+03  0.7818608E-02  0.1229912E+00
          2   -1    0    0    0  501  0.00000000000E+00  0.00000000000E+00  0.13438185257E+03  0.13438185260E+03  0.25500000000E-02 0. -1.
         -2   -1    0    0  501    0 -0.00000000000E+00 -0.00000000000E+00 -0.30651408225E+02  0.30651408332E+02  0.25500000000E-02 0. -1.
          2    1    1    2    0  502 -0.39068437114E+02  0.50873527954E+02  0.54603048476E+02  0.84237471083E+02  0.25500000000E-02 0. -1.
         -2    1    1    2  502    0  0.39068437114E+02 -0.50873527954E+02  0.49127395870E+02  0.80795789844E+02  0.25500000000E-02 0. -1.
<mgrwt>
<rscale>  0 0.12835876E+03</rscale>
<asrwt>0</asrwt>
<pdfrwt beam="1">  1        2 0.20674131E-01 0.12835876E+03</pdfrwt>
<pdfrwt beam="2">  1       -2 0.47156013E-02 0.12835876E+03</pdfrwt>
<totfact> 0.51842992E+04</totfact>
</mgrwt>
</event>
<event>
 4    1  0.4837985E-002  0.5939140E+02  0.7818608E-02  0.1400404E+00
         -2   -1    0    0  501    0 -0.00000000000E+00  0.00000000000E+00  0.52865831715E+01  0.52865837865E+01  0.25500000000E-02 0. -1.
          2   -1    0    0    0  501  0.00000000000E+00 -0.00000000000E+00 -0.16680615304E+03  0.16680615306E+03  0.25500000000E-02 0. -1.
          2    1    1    2    0  502 -0.88075511888E+01  0.28170439294E+02 -0.71286774111E+02  0.77155367783E+02  0.25500000000E-02 0. -1.
         -2    1    1    2  502    0  0.88075511888E+01 -0.28170439294E+02 -0.90232795754E+02  0.94937369060E+02  0.25500000000E-02 0. -1.
<mgrwt>
<rscale>  0 0.59391402E+02</rscale>
<asrwt>0</asrwt>
<pdfrwt beam="2">  1        2 0.25662481E-01 0.59391402E+02</pdfrwt>
<pdfrwt beam="1">  1       -2 0.81332066E-03 0.59391402E+02</pdfrwt>
<totfact> 0.44844298E+05</totfact>
</mgrwt>
</event>
<event>
 4    1  0.4837985E-002  0.4637239E+02  0.7818608E-02  0.1465952E+00
         -2   -1    0    0  501    0 -0.00000000000E+00  0.00000000000E+00  0.50624052143E+01  0.50624058565E+01  0.25500000000E-02 0.  1.
          2   -1    0    0    0  501  0.00000000000E+00 -0.00000000000E+00 -0.10619447979E+03  0.10619447982E+03  0.25500000000E-02 0.  1.
          2    1    1    2    0  502 -0.17837409054E+02 -0.14471972985E+02 -0.42983501712E+02  0.48735947613E+02  0.25500000000E-02 0.  1.
         -2    1    1    2  502    0  0.17837409054E+02  0.14471972985E+02 -0.58148572867E+02  0.62520938067E+02  0.25500000000E-02 0.  1.
<mgrwt>
<rscale>  0 0.46372385E+02</rscale>
<asrwt>0</asrwt>
<pdfrwt beam="2">  1        2 0.16337611E-01 0.46372385E+02</pdfrwt>
<pdfrwt beam="1">  1       -2 0.77883171E-03 0.46372385E+02</pdfrwt>
<totfact> 0.73526159E+05</totfact>
</mgrwt>
</event>
<event>
 4    1  0.4837985E-002  0.5406885E+02  0.7818608E-02  0.1424554E+00
          2   -1    0    0    0  501  0.00000000000E+00  0.00000000000E+00  0.96969065249E+02  0.96969065283E+02  0.25500000000E-02 0. -1.
         -2   -1    0    0  501    0 -0.00000000000E+00 -0.00000000000E+00 -0.75370450905E+01  0.75370455219E+01  0.25500000000E-02 0. -1.
          2    1    1    2    0  502 -0.11250485101E+01  0.25069783930E+02  0.64150405400E+02  0.68884209511E+02  0.25500000000E-02 0.  1.
         -2    1    1    2  502    0  0.11250485101E+01 -0.25069783930E+02  0.25281614759E+02  0.35621901294E+02  0.25500000000E-02 0.  1.
<mgrwt>
<rscale>  0 0.54068854E+02</rscale>
<asrwt>0</asrwt>
<pdfrwt beam="1">  1        2 0.14918317E-01 0.54068854E+02</pdfrwt>
<pdfrwt beam="2">  1       -2 0.11595455E-02 0.54068854E+02</pdfrwt>
<totfact> 0.48665469E+05</totfact>
</mgrwt>
</event>
<event>
 4    1  0.4837985E-002  0.1009463E+03  0.7818608E-02  0.1278319E+00
         -2   -1    0    0  501    0 -0.00000000000E+00  0.00000000000E+00  0.16238779772E+02  0.16238779972E+02  0.25500000000E-02 0.  1.
          2   -1    0    0    0  501  0.00000000000E+00 -0.00000000000E+00 -0.15687990035E+03  0.15687990037E+03  0.25500000000E-02 0.  1.
          2    1    1    2    0  502  0.12913864560E+02 -0.31552841710E+02 -0.64930333543E+01  0.34706039914E+02  0.25500000000E-02 0. -1.
         -2    1    1    2  502    0 -0.12913864560E+02  0.31552841710E+02 -0.13414808722E+03  0.13841264042E+03  0.25500000000E-02 0. -1.
<mgrwt>
<rscale>  0 0.10094629E+03</rscale>
<asrwt>0</asrwt>
<pdfrwt beam="2">  1        2 0.24135368E-01 0.10094629E+03</pdfrwt>
<pdfrwt beam="1">  1       -2 0.24982739E-02 0.10094629E+03</pdfrwt>
<totfact> 0.10752628E+05</totfact>
</mgrwt>
</event>
<event>
 4    1  0.4837985E-002  0.4351389E+02  0.7818608E-02  0.1483838E+00
          2   -1    0    0    0  501  0.00000000000E+00  0.00000000000E+00  0.12367653669E+04  0.12367653669E+04  0.25500000000E-02 0.  1.
         -2   -1    0    0  501    0 -0.00000000000E+00 -0.00000000000E+00 -0.38273982159E+00  0.38274831617E+00  0.25500000000E-02 0.  1.
          2    1    1    2    0  502 -0.19272793537E+02  0.99572907332E+01  0.57081791758E+03  0.57122997405E+03  0.25500000000E-02 0.  1.
         -2    1    1    2  502    0  0.19272793537E+02 -0.99572907332E+01  0.66556470947E+03  0.66591814115E+03  0.25500000000E-02 0.  1.
<mgrwt>
<rscale>  0 0.43513888E+02</rscale>
<asrwt>0</asrwt>
<pdfrwt beam="1">  1        2 0.19027263E+00 0.43513888E+02</pdfrwt>
<pdfrwt beam="2">  1       -2 0.58883384E-04 0.43513888E+02</pdfrwt>
<totfact> 0.16140843E+06</totfact>
</mgrwt>
</event>
<event>
 4    1  0.4837985E-002  0.5184836E+02  0.7818608E-02  0.1435620E+00
         -2   -1    0    0  501    0 -0.00000000000E+00  0.00000000000E+00  0.10703721450E+01  0.10703751825E+01  0.25500000000E-02 0. -1.
          2   -1    0    0    0  501  0.00000000000E+00 -0.00000000000E+00 -0.62787720844E+03  0.62787720845E+03  0.25500000000E-02 0. -1.
          2    1    1    2    0  502  0.14718317920E+02 -0.20714601506E+02 -0.25114699028E+03  0.25242926600E+03  0.25500000000E-02 0.  1.
         -2    1    1    2  502    0 -0.14718317920E+02  0.20714601506E+02 -0.37565984602E+03  0.37651831764E+03  0.25500000000E-02 0.  1.
<mgrwt>
<rscale>  0 0.51848365E+02</rscale>
<asrwt>0</asrwt>
<pdfrwt beam="2">  1        2 0.96596199E-01 0.51848365E+02</pdfrwt>
<pdfrwt beam="1">  1       -2 0.16467337E-03 0.51848365E+02</pdfrwt>
<totfact> 0.97980054E+05</totfact>
</mgrwt>
</event>
<event>
 4    1  0.4837985E-002  0.6514635E+02  0.7818608E-02  0.1377422E+00
          2   -1    0    0    0  501  0.00000000000E+00  0.00000000000E+00  0.22112550613E+04  0.22112550613E+04  0.25500000000E-02 0.  1.
         -2   -1    0    0  501    0 -0.00000000000E+00 -0.00000000000E+00 -0.47981994501E+00  0.47982672094E+00  0.25500000000E-02 0.  1.
          2    1    1    2    0  502  0.28231836048E+02  0.13538808801E+02  0.14103278850E+04  0.14106753982E+04  0.25500000000E-02 0.  1.
         -2    1    1    2  502    0 -0.28231836048E+02 -0.13538808801E+02  0.80044735639E+03  0.80105948984E+03  0.25500000000E-02 0.  1.
<mgrwt>
<rscale>  0 0.65146351E+02</rscale>
<asrwt>0</asrwt>
<pdfrwt beam="1">  1        2 0.34018729E+00 0.65146351E+02</pdfrwt>
<pdfrwt beam="2">  1       -2 0.73820232E-04 0.65146351E+02</pdfrwt>
<totfact> 0.42462062E+05</totfact>
</mgrwt>
</event>
<event>
 4    1  0.4837985E-002  0.5316856E+02  0.7818608E-02  0.1428964E+00
          2   -1    0    0    0  501  0.00000000000E+00  0.00000000000E+00  0.71085819802E+01  0.71085824376E+01  0.25500000000E-02 0. -1.
         -2   -1    0    0  501    0 -0.00000000000E+00 -0.00000000000E+00 -0.99418427147E+02  0.99418427180E+02  0.25500000000E-02 0. -1.
          2    1    1    2    0  502  0.87385839614E+01 -0.21183276995E+02 -0.19152758375E+02  0.29865067114E+02  0.25500000000E-02 0.  1.
         -2    1    1    2  502    0 -0.87385839614E+01  0.21183276995E+02 -0.73157086792E+02  0.76661942503E+02  0.25500000000E-02 0.  1.
<mgrwt>
<rscale>  0 0.53168565E+02</rscale>
<asrwt>0</asrwt>
<pdfrwt beam="1">  1        2 0.10936281E-02 0.53168565E+02</pdfrwt>
<pdfrwt beam="2">  1       -2 0.15295142E-01 0.53168565E+02</pdfrwt>
<totfact> 0.30419732E+05</totfact>
</mgrwt>
</event>
<event>
 4    1  0.4837985E-002  0.4484202E+02  0.7818608E-02  0.1475330E+00
         -2   -1    0    0  501    0 -0.00000000000E+00  0.00000000000E+00  0.20905686037E+02  0.20905686193E+02  0.25500000000E-02 0.  1.
          2   -1    0    0    0  501  0.00000000000E+00 -0.00000000000E+00 -0.24046168481E+02  0.24046168616E+02  0.25500000000E-02 0.  1.
          2    1    1    2    0  502  0.15495321339E+02 -0.12685374413E+02  0.85380055379E+01  0.21769732485E+02  0.25500000000E-02 0.  1.
         -2    1    1    2  502    0 -0.15495321339E+02  0.12685374413E+02 -0.11678487982E+02  0.23182122324E+02  0.25500000000E-02 0.  1.
<mgrwt>
<rscale>  0 0.44842018E+02</rscale>
<asrwt>0</asrwt>
<pdfrwt beam="2">  1        2 0.36994105E-02 0.44842018E+02</pdfrwt>
<pdfrwt beam="1">  1       -2 0.32162594E-02 0.44842018E+02</pdfrwt>
<totfact> 0.60260537E+05</totfact>
</mgrwt>
</event>
<event>
 4    1  0.4837985E-002  0.4592716E+02  0.7818608E-02  0.1468635E+00
         -2   -1    0    0  501    0 -0.00000000000E+00  0.00000000000E+00  0.35478440142E+00  0.35479356532E+00  0.25500000000E-02 0.  1.
          2   -1    0    0    0  501  0.00000000000E+00 -0.00000000000E+00 -0.14863086153E+04  0.14863086153E+04  0.25500000000E-02 0.  1.
          2    1    1    2    0  502  0.44275214066E+01  0.20855462343E+02 -0.10191155871E+04  0.10193385763E+04  0.25500000000E-02 0.  1.
         -2    1    1    2  502    0 -0.44275214066E+01 -0.20855462343E+02 -0.46683824376E+03  0.46732483253E+03  0.25500000000E-02 0.  1.
<mgrwt>
<rscale>  0 0.45927156E+02</rscale>
<asrwt>0</asrwt>
<pdfrwt beam="2">  1        2 0.22865788E+00 0.45927156E+02</pdfrwt>
<pdfrwt beam="1">  1       -2 0.54584111E-04 0.45927156E+02</pdfrwt>
<totfact> 0.13559098E+06</totfact>
</mgrwt>
</event>
<event>
 4    1  0.4837985E-002  0.5388228E+02  0.7818608E-02  0.1425460E+00
         -2   -1    0    0  501    0 -0.00000000000E+00  0.00000000000E+00  0.35418482940E+00  0.35419400881E+00  0.25500000000E-02 0. -1.
          2   -1    0    0    0  501  0.00000000000E+00 -0.00000000000E+00 -0.20492569706E+04  0.20492569706E+04  0.25500000000E-02 0. -1.
          2    1    1    2    0  502  0.15527595469E+01 -0.25650134236E+02 -0.71663244594E+03  0.71709302258E+03  0.25500000000E-02 0. -1.
         -2    1    1    2  502    0 -0.15527595469E+01  0.25650134236E+02 -0.13322703398E+04  0.13325181420E+04  0.25500000000E-02 0. -1.
<mgrwt>
<rscale>  0 0.53882284E+02</rscale>
<asrwt>0</asrwt>
<pdfrwt beam="2">  1        2 0.31526081E+00 0.53882284E+02</pdfrwt>
<pdfrwt beam="1">  1       -2 0.54492321E-04 0.53882284E+02</pdfrwt>
<totfact> 0.74626672E+05</totfact>
</mgrwt>
</event>
<event>
 4    1  0.4837985E-002  0.5303707E+02  0.7818608E-02  0.1429616E+00
          2   -1    0    0    0  501  0.00000000000E+00  0.00000000000E+00  0.13088082723E+02  0.13088082971E+02  0.25500000000E-02 0.  1.
         -2   -1    0    0  501    0 -0.00000000000E+00 -0.00000000000E+00 -0.53730758968E+02  0.53730759029E+02  0.25500000000E-02 0.  1.
          2    1    1    2    0  502  0.85866837129E+01  0.24623001880E+02 -0.26390799039E+02  0.37101181103E+02  0.25500000000E-02 0.  1.
         -2    1    1    2  502    0 -0.85866837129E+01 -0.24623001880E+02 -0.14251877206E+02  0.29717660897E+02  0.25500000000E-02 0.  1.
<mgrwt>
<rscale>  0 0.53037067E+02</rscale>
<asrwt>0</asrwt>
<pdfrwt beam="1">  1        2 0.20135512E-02 0.53037067E+02</pdfrwt>
<pdfrwt beam="2">  1       -2 0.82662705E-02 0.53037067E+02</pdfrwt>
<totfact> 0.34925575E+05</totfact>
</mgrwt>
</event>
<event>
 4    1  0.4837985E-002  0.6709274E+02  0.7818608E-02  0.1370268E+00
          2   -1    0    0    0  501  0.00000000000E+00  0.00000000000E+00  0.26528730338E+01  0.26528742594E+01  0.25500000000E-02 0. -1.
         -2   -1    0    0  501    0 -0.00000000000E+00 -0.00000000000E+00 -0.42420379388E+03  0.42420379389E+03  0.25500000000E-02 0. -1.
          2    1    1    2    0  502  0.19626849463E+02  0.20461326207E+02 -0.96702298918E+02  0.10077308030E+03  0.25500000000E-02 0.  1.
         -2    1    1    2  502    0 -0.19626849463E+02 -0.20461326207E+02 -0.32484862193E+03  0.32608358785E+03  0.25500000000E-02 0.  1.
<mgrwt>
<rscale>  0 0.67092744E+02</rscale>
<asrwt>0</asrwt>
<pdfrwt beam="1">  1        2 0.40813474E-03 0.67092744E+02</pdfrwt>
<pdfrwt beam="2">  1       -2 0.65262068E-01 0.67092744E+02</pdfrwt>
<totfact> 0.89874458E+04</totfact>
</mgrwt>
</event>
<event>
 4    1  0.4837985E-002  0.7138260E+02  0.7818608E-02  0.1355454E+00
         -2   -1    0    0  501    0 -0.00000000000E+00  0.00000000000E+00  0.13758194922E+03  0.13758194925E+03  0.25500000000E-02 0.  1.
          2   -1    0    0    0  501  0.00000000000E+00 -0.00000000000E+00 -0.92589831794E+01  0.92589835306E+01  0.25500000000E-02 0.  1.
          2    1    1    2    0  502  0.25421514156E+02 -0.22121558816E+02  0.88348974396E+02  0.94557696830E+02  0.25500000000E-02 0. -1.
         -2    1    1    2  502    0 -0.25421514156E+02  0.22121558816E+02  0.39973991648E+02  0.52283235948E+02  0.25500000000E-02 0. -1.
<mgrwt>
<rscale>  0 0.71382602E+02</rscale>
<asrwt>0</asrwt>
<pdfrwt beam="2">  1        2 0.14244590E-02 0.71382602E+02</pdfrwt>
<pdfrwt beam="1">  1       -2 0.21166453E-01 0.71382602E+02</pdfrwt>
<totfact> 0.13336966E+05</totfact>
</mgrwt>
</event>
<event>
 4    1  0.4837985E-002  0.5484070E+02  0.7818608E-02  0.1420854E+00
         -2   -1    0    0  501    0 -0.00000000000E+00  0.00000000000E+00  0.67788724293E+01  0.67788729089E+01  0.25500000000E-02 0.  1.
          2   -1    0    0    0  501  0.00000000000E+00 -0.00000000000E+00 -0.11091453164E+03  0.11091453167E+03  0.25500000000E-02 0.  1.
          2    1    1    2    0  502  0.91536000701E+01 -0.19081414287E+02 -0.89485476393E+02  0.91954006206E+02  0.25500000000E-02 0.  1.
         -2    1    1    2  502    0 -0.91536000701E+01  0.19081414287E+02 -0.14650182814E+02  0.25739398369E+02  0.25500000000E-02 0.  1.
<mgrwt>
<rscale>  0 0.54840696E+02</rscale>
<asrwt>0</asrwt>
<pdfrwt beam="2">  1        2 0.17063773E-01 0.54840696E+02</pdfrwt>
<pdfrwt beam="1">  1       -2 0.10429036E-02 0.54840696E+02</pdfrwt>
<totfact> 0.48654551E+05</totfact>
</mgrwt>
</event>
<event>
 4    1  0.4837985E-002  0.8260127E+02  0.7818608E-02  0.1321827E+00
         -2   -1    0    0  501    0 -0.00000000000E+00  0.00000000000E+00  0.21013361809E+01  0.21013377282E+01  0.25500000000E-02 0.  1.
          2   -1    0    0    0  501  0.00000000000E+00 -0.00000000000E+00 -0.81174142414E+03  0.81174142415E+03  0.25500000000E-02 0.  1.
          2    1    1    2    0  502  0.12483139604E+02  0.35091810557E+02 -0.22898973751E+03  0.23199905999E+03  0.25500000000E-02 0.  1.
         -2    1    1    2  502    0 -0.12483139604E+02 -0.35091810557E+02 -0.58065035045E+03  0.58184370189E+03  0.25500000000E-02 0.  1.
<mgrwt>
<rscale>  0 0.82601265E+02</rscale>
<asrwt>0</asrwt>
<pdfrwt beam="2">  1        2 0.12488305E+00 0.82601265E+02</pdfrwt>
<pdfrwt beam="1">  1       -2 0.32328326E-03 0.82601265E+02</pdfrwt>
<totfact> 0.31658023E+05</totfact>
</mgrwt>
</event>
<event>
 4    1  0.4837985E-002  0.6273885E+02  0.7818608E-02  0.1386685E+00
          2   -1    0    0    0  501  0.00000000000E+00  0.00000000000E+00  0.11963633601E+02  0.11963633872E+02  0.25500000000E-02 0.  1.
         -2   -1    0    0  501    0 -0.00000000000E+00 -0.00000000000E+00 -0.82252677279E+02  0.82252677318E+02  0.25500000000E-02 0.  1.
          2    1    1    2    0  502  0.24660080351E+02  0.66952075198E+01 -0.62469900342E+02  0.67493953966E+02  0.25500000000E-02 0. -1.
         -2    1    1    2  502    0 -0.24660080351E+02 -0.66952075198E+01 -0.78191433357E+01  0.26722357225E+02  0.25500000000E-02 0. -1.
<mgrwt>
<rscale>  0 0.62738853E+02</rscale>
<asrwt>0</asrwt>
<pdfrwt beam="1">  1        2 0.18405591E-02 0.62738853E+02</pdfrwt>
<pdfrwt beam="2">  1       -2 0.12654258E-01 0.62738853E+02</pdfrwt>
<totfact> 0.21221785E+05</totfact>
</mgrwt>
</event>
<event>
 4    1  0.4837985E-002  0.5936731E+02  0.7818608E-02  0.1400506E+00
          2   -1    0    0    0  501  0.00000000000E+00  0.00000000000E+00  0.42938176209E+03  0.42938176209E+03  0.25500000000E-02 0.  1.
         -2   -1    0    0  501    0 -0.00000000000E+00 -0.00000000000E+00 -0.20520642101E+01  0.20520657945E+01  0.25500000000E-02 0.  1.
          2    1    1    2    0  502  0.23749833046E+02  0.12130457093E+02  0.30839427534E+03  0.30954520127E+03  0.25500000000E-02 0. -1.
         -2    1    1    2  502    0 -0.23749833046E+02 -0.12130457093E+02  0.11893542254E+03  0.12188862662E+03  0.25500000000E-02 0. -1.
<mgrwt>
<rscale>  0 0.59367307E+02</rscale>
<asrwt>0</asrwt>
<pdfrwt beam="1">  1        2 0.66058740E-01 0.59367307E+02</pdfrwt>
<pdfrwt beam="2">  1       -2 0.31570227E-03 0.59367307E+02</pdfrwt>
<totfact> 0.62220839E+05</totfact>
</mgrwt>
</event>
<event>
 4    1  0.4837985E-002  0.7898689E+02  0.7818608E-02  0.1331951E+00
         -2   -1    0    0  501    0 -0.00000000000E+00  0.00000000000E+00  0.17833992739E+02  0.17833992921E+02  0.25500000000E-02 0.  1.
          2   -1    0    0    0  501  0.00000000000E+00 -0.00000000000E+00 -0.87458384224E+02  0.87458384261E+02  0.25500000000E-02 0.  1.
          2    1    1    2    0  502 -0.88189714618E+01  0.36241358528E+02 -0.52117133801E+02  0.64089047174E+02  0.25500000000E-02 0. -1.
         -2    1    1    2  502    0  0.88189714618E+01 -0.36241358528E+02 -0.17507257684E+02  0.41203330008E+02  0.25500000000E-02 0. -1.
<mgrwt>
<rscale>  0 0.78986890E+02</rscale>
<asrwt>0</asrwt>
<pdfrwt beam="2">  1        2 0.13455136E-01 0.78986890E+02</pdfrwt>
<pdfrwt beam="1">  1       -2 0.27436913E-02 0.78986890E+02</pdfrwt>
<totfact> 0.17456641E+05</totfact>
</mgrwt>
</event>
<event>
 4    1  0.4837985E-002  0.4754008E+02  0.7818608E-02  0.1459080E+00
         -2   -1    0    0  501    0 -0.00000000000E+00  0.00000000000E+00  0.26459956107E+03  0.26459956108E+03  0.25500000000E-02 0. -1.
          2   -1    0    0    0  501  0.00000000000E+00 -0.00000000000E+00 -0.21353574464E+01  0.21353589690E+01  0.25500000000E-02 0. -1.
          2    1    1    2    0  502  0.16221387138E+02 -0.16827656213E+02  0.10696189909E+03  0.10948584966E+03  0.25500000000E-02 0. -1.
         -2    1    1    2  502    0 -0.16221387138E+02  0.16827656213E+02  0.15550230454E+03  0.15724907039E+03  0.25500000000E-02 0. -1.
<mgrwt>
<rscale>  0 0.47540082E+02</rscale>
<asrwt>0</asrwt>
<pdfrwt beam="2">  1        2 0.32851685E-03 0.47540082E+02</pdfrwt>
<pdfrwt beam="1">  1       -2 0.40707600E-01 0.47540082E+02</pdfrwt>
<totfact> 0.28081072E+05</totfact>
</mgrwt>
</event>
<event>
 4    1  0.4837985E-002  0.4537891E+02  0.7818608E-02  0.1471990E+00
          2   -1    0    0    0  501  0.00000000000E+00  0.00000000000E+00  0.96820783338E+03  0.96820783338E+03  0.25500000000E-02 0.  1.
         -2   -1    0    0  501    0 -0.00000000000E+00 -0.00000000000E+00 -0.53171278484E+00  0.53171889948E+00  0.25500000000E-02 0.  1.
          2    1    1    2    0  502  0.19356882083E+02  0.11788648692E+02  0.50673418361E+03  0.50724076528E+03  0.25500000000E-02 0. -1.
         -2    1    1    2  502    0 -0.19356882083E+02 -0.11788648692E+02  0.46094193699E+03  0.46149878700E+03  0.25500000000E-02 0. -1.
<mgrwt>
<rscale>  0 0.45378913E+02</rscale>
<asrwt>0</asrwt>
<pdfrwt beam="1">  1        2 0.14895492E+00 0.45378913E+02</pdfrwt>
<pdfrwt beam="2">  1       -2 0.81802510E-04 0.45378913E+02</pdfrwt>
<totfact> 0.14662470E+06</totfact>
</mgrwt>
</event>
<event>
 4    1  0.4837985E-002  0.5395374E+02  0.7818608E-02  0.1425112E+00
          2   -1    0    0    0  501  0.00000000000E+00  0.00000000000E+00  0.47044131584E+02  0.47044131653E+02  0.25500000000E-02 0. -1.
         -2   -1    0    0  501    0 -0.00000000000E+00 -0.00000000000E+00 -0.15469550422E+02  0.15469550632E+02  0.25500000000E-02 0. -1.
          2    1    1    2    0  502 -0.11780700384E+02  0.19375417688E+02 -0.11449066309E+01  0.22704680791E+02  0.25500000000E-02 0. -1.
         -2    1    1    2  502    0  0.11780700384E+02 -0.19375417688E+02  0.32719487793E+02  0.39809001495E+02  0.25500000000E-02 0. -1.
<mgrwt>
<rscale>  0 0.53953742E+02</rscale>
<asrwt>0</asrwt>
<pdfrwt beam="1">  1        2 0.72375587E-02 0.53953742E+02</pdfrwt>
<pdfrwt beam="2">  1       -2 0.23799309E-02 0.53953742E+02</pdfrwt>
<totfact> 0.41631423E+05</totfact>
</mgrwt>
</event>
<event>
 4    1  0.4837985E-002  0.4885882E+02  0.7818608E-02  0.1451596E+00
          2   -1    0    0    0  501  0.00000000000E+00  0.00000000000E+00  0.16086939358E+04  0.16086939358E+04  0.25500000000E-02 0. -1.
         -2   -1    0    0  501    0 -0.00000000000E+00 -0.00000000000E+00 -0.37097742106E+00  0.37098618497E+00  0.25500000000E-02 0. -1.
          2    1    1    2    0  502  0.21789322344E+02  0.86117341152E+01  0.57632919098E+03  0.57680522962E+03  0.25500000000E-02 0.  1.
         -2    1    1    2  502    0 -0.21789322344E+02 -0.86117341152E+01  0.10319937674E+04  0.10322596923E+04  0.25500000000E-02 0.  1.
<mgrwt>
<rscale>  0 0.48858824E+02</rscale>
<asrwt>0</asrwt>
<pdfrwt beam="1">  1        2 0.24749619E+00 0.48858824E+02</pdfrwt>
<pdfrwt beam="2">  1       -2 0.57073013E-04 0.48858824E+02</pdfrwt>
<totfact> 0.11274323E+06</totfact>
</mgrwt>
</event>
<event>
 4    1  0.4837985E-002  0.5678080E+02  0.7818608E-02  0.1411860E+00
         -2   -1    0    0  501    0 -0.00000000000E+00  0.00000000000E+00  0.75854246733E+01  0.75854251019E+01  0.25500000000E-02 0.  1.
          2   -1    0    0    0  501  0.00000000000E+00 -0.00000000000E+00 -0.10625834569E+03  0.10625834572E+03  0.25500000000E-02 0.  1.
          2    1    1    2    0  502  0.68019464691E+01 -0.27515221695E+02 -0.52606956290E+02  0.59756554095E+02  0.25500000000E-02 0. -1.
         -2    1    1    2  502    0 -0.68019464691E+01  0.27515221695E+02 -0.46065964727E+02  0.54087216728E+02  0.25500000000E-02 0. -1.
<mgrwt>
<rscale>  0 0.56780796E+02</rscale>
<asrwt>0</asrwt>
<pdfrwt beam="2">  1        2 0.16347437E-01 0.56780796E+02</pdfrwt>
<pdfrwt beam="1">  1       -2 0.11669885E-02 0.56780796E+02</pdfrwt>
<totfact> 0.43980361E+05</totfact>
</mgrwt>
</event>
<event>
 4    1  0.4837985E-002  0.6240061E+02  0.7818608E-02  0.1388025E+00
         -2   -1    0    0  501    0 -0.00000000000E+00  0.00000000000E+00  0.13323559343E+02  0.13323559587E+02  0.25500000000E-02 0.  1.
          2   -1    0    0    0  501  0.00000000000E+00 -0.00000000000E+00 -0.73062991677E+02  0.73062991721E+02  0.25500000000E-02 0.  1.
          2    1    1    2    0  502 -0.26703148804E+02  0.15828979323E+02 -0.34213330147E+02  0.46197042207E+02  0.25500000000E-02 0. -1.
         -2    1    1    2  502    0  0.26703148804E+02 -0.15828979323E+02 -0.25526102187E+02  0.40189509101E+02  0.25500000000E-02 0. -1.
<mgrwt>
<rscale>  0 0.62400613E+02</rscale>
<asrwt>0</asrwt>
<pdfrwt beam="2">  1        2 0.11240460E-01 0.62400613E+02</pdfrwt>
<pdfrwt beam="1">  1       -2 0.20497784E-02 0.62400613E+02</pdfrwt>
<totfact> 0.31264591E+05</totfact>
</mgrwt>
</event>
<event>
 4    1  0.4837985E-002  0.6828833E+02  0.7818608E-02  0.1366012E+00
          2   -1    0    0    0  501  0.00000000000E+00  0.00000000000E+00  0.55444135241E+03  0.55444135241E+03  0.25500000000E-02 0.  1.
         -2   -1    0    0  501    0 -0.00000000000E+00 -0.00000000000E+00 -0.21026993408E+01  0.21027008870E+01  0.25500000000E-02 0.  1.
          2    1    1    2    0  502 -0.15595164323E+02 -0.27634803553E+02  0.17342466652E+03  0.17630373360E+03  0.25500000000E-02 0.  1.
         -2    1    1    2  502    0  0.15595164323E+02  0.27634803553E+02  0.37891398654E+03  0.38024031970E+03  0.25500000000E-02 0.  1.
<mgrwt>
<rscale>  0 0.68288327E+02</rscale>
<asrwt>0</asrwt>
<pdfrwt beam="1">  1        2 0.85298743E-01 0.68288327E+02</pdfrwt>
<pdfrwt beam="2">  1       -2 0.32349205E-03 0.68288327E+02</pdfrwt>
<totfact> 0.47250241E+05</totfact>
</mgrwt>
</event>
<event>
 4    1  0.4837985E-002  0.5162166E+02  0.7818608E-02  0.1436786E+00
         -2   -1    0    0  501    0 -0.00000000000E+00  0.00000000000E+00  0.31697926767E+01  0.31697937024E+01  0.25500000000E-02 0. -1.
          2   -1    0    0    0  501  0.00000000000E+00 -0.00000000000E+00 -0.21017110153E+03  0.21017110155E+03  0.25500000000E-02 0. -1.
          2    1    1    2    0  502  0.17476474099E+02  0.13194365821E+02 -0.15996725130E+03  0.16145909678E+03  0.25500000000E-02 0.  1.
         -2    1    1    2  502    0 -0.17476474099E+02 -0.13194365821E+02 -0.47034057552E+02  0.51881798472E+02  0.25500000000E-02 0.  1.
<mgrwt>
<rscale>  0 0.51621659E+02</rscale>
<asrwt>0</asrwt>
<pdfrwt beam="2">  1        2 0.32334005E-01 0.51621659E+02</pdfrwt>
<pdfrwt beam="1">  1       -2 0.48766066E-03 0.51621659E+02</pdfrwt>
<totfact> 0.69094258E+05</totfact>
</mgrwt>
</event>
<event>
 4    1  0.4837985E-002  0.4793436E+02  0.7818608E-02  0.1456812E+00
          2   -1    0    0    0  501  0.00000000000E+00  0.00000000000E+00  0.78140321029E+03  0.78140321030E+03  0.25500000000E-02 0. -1.
         -2   -1    0    0  501    0 -0.00000000000E+00 -0.00000000000E+00 -0.73511868607E+00  0.73512310881E+00  0.25500000000E-02 0. -1.
          2    1    1    2    0  502 -0.28090687110E+01  0.23271474054E+02  0.47187502145E+03  0.47245686390E+03  0.25500000000E-02 0. -1.
         -2    1    1    2  502    0  0.28090687110E+01 -0.23271474054E+02  0.30879307016E+03  0.30968146951E+03  0.25500000000E-02 0. -1.
<mgrwt>
<rscale>  0 0.47934365E+02</rscale>
<asrwt>0</asrwt>
<pdfrwt beam="1">  1        2 0.12021607E+00 0.47934365E+02</pdfrwt>
<pdfrwt beam="2">  1       -2 0.11309534E-03 0.47934365E+02</pdfrwt>
<totfact> 0.12481998E+06</totfact>
</mgrwt>
</event>
<event>
 4    1  0.4837985E-002  0.4303258E+02  0.7818608E-02  0.1487011E+00
         -2   -1    0    0  501    0 -0.00000000000E+00  0.00000000000E+00  0.85570661798E+00  0.85571041746E+00  0.25500000000E-02 0.  1.
          2   -1    0    0    0  501  0.00000000000E+00 -0.00000000000E+00 -0.54101462705E+03  0.54101462705E+03  0.25500000000E-02 0.  1.
          2    1    1    2    0  502  0.20896202719E+02 -0.35579452089E+01 -0.31658600086E+03  0.31729482537E+03  0.25500000000E-02 0. -1.
         -2    1    1    2  502    0 -0.20896202719E+02  0.35579452089E+01 -0.22357291958E+03  0.22457551210E+03  0.25500000000E-02 0. -1.
<mgrwt>
<rscale>  0 0.43032584E+02</rscale>
<asrwt>0</asrwt>
<pdfrwt beam="2">  1        2 0.83232747E-01 0.43032584E+02</pdfrwt>
<pdfrwt beam="1">  1       -2 0.13164790E-03 0.43032584E+02</pdfrwt>
<totfact> 0.14855471E+06</totfact>
</mgrwt>
</event>
<event>
 4    1  0.4837985E-002  0.2556102E+03  0.7818608E-02  0.1109810E+00
         -2   -1    0    0  501    0 -0.00000000000E+00  0.00000000000E+00  0.89134642445E+01  0.89134646092E+01  0.25500000000E-02 0.  1.
          2   -1    0    0    0  501  0.00000000000E+00 -0.00000000000E+00 -0.18325241791E+04  0.18325241791E+04  0.25500000000E-02 0.  1.
          2    1    1    2    0  502 -0.99835060141E+02  0.42249504803E+02 -0.42415315278E+03  0.43778757053E+03  0.25500000000E-02 0.  1.
         -2    1    1    2  502    0  0.99835060141E+02 -0.42249504803E+02 -0.13994575621E+04  0.14036500732E+04  0.25500000000E-02 0.  1.
<mgrwt>
<rscale>  0 0.25561016E+03</rscale>
<asrwt>0</asrwt>
<pdfrwt beam="2">  1        2 0.28192650E+00 0.25561016E+03</pdfrwt>
<pdfrwt beam="1">  1       -2 0.13713037E-02 0.25561016E+03</pdfrwt>
<totfact> 0.12219677E+04</totfact>
</mgrwt>
</event>
<event>
 4    1  0.4837985E-002  0.5630077E+02  0.7818608E-02  0.1414046E+00
         -2   -1    0    0  501    0 -0.00000000000E+00  0.00000000000E+00  0.13078282766E+03  0.13078282768E+03  0.25500000000E-02 0. -1.
          2   -1    0    0    0  501  0.00000000000E+00 -0.00000000000E+00 -0.60592375856E+01  0.60592381222E+01  0.25500000000E-02 0. -1.
          2    1    1    2    0  502  0.16276132852E+02  0.20706246109E+02  0.86518998152E+02  0.90438919588E+02  0.25500000000E-02 0. -1.
         -2    1    1    2  502    0 -0.16276132852E+02 -0.20706246109E+02  0.38204591919E+02  0.46403146216E+02  0.25500000000E-02 0. -1.
<mgrwt>
<rscale>  0 0.56300773E+02</rscale>
<asrwt>0</asrwt>
<pdfrwt beam="2">  1        2 0.93219052E-03 0.56300773E+02</pdfrwt>
<pdfrwt beam="1">  1       -2 0.20120433E-01 0.56300773E+02</pdfrwt>
<totfact> 0.24473367E+05</totfact>
</mgrwt>
</event>
<event>
 4    1  0.4837985E-002  0.1837167E+03  0.7818608E-02  0.1164254E+00
         -2   -1    0    0  501    0 -0.00000000000E+00  0.00000000000E+00  0.69863475308E+02  0.69863475354E+02  0.25500000000E-02 0.  1.
          2   -1    0    0    0  501  0.00000000000E+00 -0.00000000000E+00 -0.12077785551E+03  0.12077785554E+03  0.25500000000E-02 0.  1.
          2    1    1    2    0  502 -0.18519072285E+02 -0.89090034920E+02 -0.12414831766E+02  0.91837456490E+02  0.25500000000E-02 0. -1.
         -2    1    1    2  502    0  0.18519072285E+02  0.89090034920E+02 -0.38499548435E+02  0.98803874400E+02  0.25500000000E-02 0. -1.
<mgrwt>
<rscale>  0 0.18371675E+03</rscale>
<asrwt>0</asrwt>
<pdfrwt beam="2">  1        2 0.18581209E-01 0.18371675E+03</pdfrwt>
<pdfrwt beam="1">  1       -2 0.10748227E-01 0.18371675E+03</pdfrwt>
<totfact> 0.17094861E+04</totfact>
</mgrwt>
</event>
<event>
 4    1  0.4837985E-002  0.7920548E+02  0.7818608E-02  0.1331321E+00
          2   -1    0    0    0  501  0.00000000000E+00  0.00000000000E+00  0.22094289619E+03  0.22094289620E+03  0.25500000000E-02 0. -1.
         -2   -1    0    0  501    0 -0.00000000000E+00 -0.00000000000E+00 -0.70985634038E+01  0.70985638618E+01  0.25500000000E-02 0. -1.
          2    1    1    2    0  502 -0.22928675302E+01 -0.39077377809E+02  0.12421566375E+03  0.13023758991E+03  0.25500000000E-02 0. -1.
         -2    1    1    2  502    0  0.22928675302E+01  0.39077377809E+02  0.89628669030E+02  0.97803870151E+02  0.25500000000E-02 0. -1.
<mgrwt>
<rscale>  0 0.79205485E+02</rscale>
<asrwt>0</asrwt>
<pdfrwt beam="1">  1        2 0.33991222E-01 0.79205485E+02</pdfrwt>
<pdfrwt beam="2">  1       -2 0.10920865E-02 0.79205485E+02</pdfrwt>
<totfact> 0.23331806E+05</totfact>
</mgrwt>
</event>
<event>
 4    1  0.4837985E-002  0.5655528E+02  0.7818608E-02  0.1412884E+00
          2   -1    0    0    0  501  0.00000000000E+00  0.00000000000E+00  0.10726483787E+04  0.10726483787E+04  0.25500000000E-02 0.  1.
         -2   -1    0    0  501    0 -0.00000000000E+00 -0.00000000000E+00 -0.74546575634E+00  0.74547011769E+00  0.25500000000E-02 0.  1.
          2    1    1    2    0  502 -0.11929724735E+02  0.24458635921E+02  0.68183713849E+03  0.68237997233E+03  0.25500000000E-02 0.  1.
         -2    1    1    2  502    0  0.11929724735E+02 -0.24458635921E+02  0.39006577444E+03  0.39101387648E+03  0.25500000000E-02 0.  1.
<mgrwt>
<rscale>  0 0.56555282E+02</rscale>
<asrwt>0</asrwt>
<pdfrwt beam="1">  1        2 0.16502244E+00 0.56555282E+02</pdfrwt>
<pdfrwt beam="2">  1       -2 0.11468765E-03 0.56555282E+02</pdfrwt>
<totfact> 0.85352428E+05</totfact>
</mgrwt>
</event>
<event>
 4    1  0.4837985E-002  0.7972529E+02  0.7818608E-02  0.1329833E+00
          2   -1    0    0    0  501  0.00000000000E+00  0.00000000000E+00  0.93353940073E+03  0.93353940073E+03  0.25500000000E-02 0.  1.
         -2   -1    0    0  501    0 -0.00000000000E+00 -0.00000000000E+00 -0.17021559632E+01  0.17021578733E+01  0.25500000000E-02 0.  1.
          2    1    1    2    0  502  0.34070586125E+02  0.20328425949E+02  0.42051450242E+03  0.42238193202E+03  0.25500000000E-02 0. -1.
         -2    1    1    2  502    0 -0.34070586125E+02 -0.20328425949E+02  0.51132274234E+03  0.51285962659E+03  0.25500000000E-02 0. -1.
<mgrwt>
<rscale>  0 0.79725292E+02</rscale>
<asrwt>0</asrwt>
<pdfrwt beam="1">  1        2 0.14362121E+00 0.79725292E+02</pdfrwt>
<pdfrwt beam="2">  1       -2 0.26187073E-03 0.79725292E+02</pdfrwt>
<totfact> 0.35352521E+05</totfact>
</mgrwt>
</event>
<event>
 4    1  0.4837985E-002  0.6753615E+02  0.7818608E-02  0.1368678E+00
         -2   -1    0    0  501    0 -0.00000000000E+00  0.00000000000E+00  0.43245373257E+03  0.43245373258E+03  0.25500000000E-02 0. -1.
          2   -1    0    0    0  501  0.00000000000E+00 -0.00000000000E+00 -0.26367735685E+01  0.26367748015E+01  0.25500000000E-02 0. -1.
          2    1    1    2    0  502 -0.17406231042E+02  0.25998216494E+02  0.13306325820E+03  0.13669204376E+03  0.25500000000E-02 0.  1.
         -2    1    1    2  502    0  0.17406231042E+02 -0.25998216494E+02  0.29675370081E+03  0.29839846362E+03  0.25500000000E-02 0.  1.
<mgrwt>
<rscale>  0 0.67536149E+02</rscale>
<asrwt>0</asrwt>
<pdfrwt beam="2">  1        2 0.40565761E-03 0.67536149E+02</pdfrwt>
<pdfrwt beam="1">  1       -2 0.66531337E-01 0.67536149E+02</pdfrwt>
<totfact> 0.87201962E+04</totfact>
</mgrwt>
</event>
<event>
 4    1  0.4837985E-002  0.6733399E+02  0.7818608E-02  0.1369401E+00
         -2   -1    0    0  501    0 -0.00000000000E+00  0.00000000000E+00  0.21196749369E+01  0.21196764707E+01  0.25500000000E-02 0. -1.
          2   -1    0    0    0  501  0.00000000000E+00 -0.00000000000E+00 -0.53473585018E+03  0.53473585018E+03  0.25500000000E-02 0. -1.
          2    1    1    2    0  502  0.31371228246E+02 -0.21311430200E+00 -0.36371847573E+03  0.36506893729E+03  0.25500000000E-02 0.  1.
         -2    1    1    2  502    0 -0.31371228246E+02  0.21311430200E+00 -0.16889769951E+03  0.17178658937E+03  0.25500000000E-02 0.  1.
<mgrwt>
<rscale>  0 0.67333991E+02</rscale>
<asrwt>0</asrwt>
<pdfrwt beam="2">  1        2 0.82266947E-01 0.67333991E+02</pdfrwt>
<pdfrwt beam="1">  1       -2 0.32610438E-03 0.67333991E+02</pdfrwt>
<totfact> 0.48455424E+05</totfact>
</mgrwt>
</event>
<event>
 4    1  0.4837985E-002  0.1510293E+03  0.7818608E-02  0.1199214E+00
         -2   -1    0    0  501    0 -0.00000000000E+00  0.00000000000E+00  0.24613691436E+02  0.24613691568E+02  0.25500000000E-02 0.  1.
          2   -1    0    0    0  501  0.00000000000E+00 -0.00000000000E+00 -0.23167855949E+03  0.23167855950E+03  0.25500000000E-02 0.  1.
          2    1    1    2    0  502 -0.36983139523E+02  0.50155828993E+02 -0.17590984448E+03  0.18662163107E+03  0.25500000000E-02 0.  1.
         -2    1    1    2  502    0  0.36983139523E+02 -0.50155828993E+02 -0.31155023569E+02  0.69670619999E+02  0.25500000000E-02 0.  1.
<mgrwt>
<rscale>  0 0.15102933E+03</rscale>
<asrwt>0</asrwt>
<pdfrwt beam="2">  1        2 0.35642854E-01 0.15102933E+03</pdfrwt>
<pdfrwt beam="1">  1       -2 0.37867219E-02 0.15102933E+03</pdfrwt>
<totfact> 0.40331200E+04</totfact>
</mgrwt>
</event>
<event>
 4    1  0.4837985E-002  0.4506848E+02  0.7818608E-02  0.1473915E+00
         -2   -1    0    0  501    0 -0.00000000000E+00  0.00000000000E+00  0.51044196445E+02  0.51044196509E+02  0.25500000000E-02 0.  1.
          2   -1    0    0    0  501  0.00000000000E+00 -0.00000000000E+00 -0.99480836614E+01  0.99480839882E+01  0.25500000000E-02 0.  1.
          2    1    1    2    0  502  0.74867125771E-01  0.20813396791E+02  0.88600906615E+01  0.22620882036E+02  0.25500000000E-02 0.  1.
         -2    1    1    2  502    0 -0.74867125771E-01 -0.20813396791E+02  0.32236022122E+02  0.38371398461E+02  0.25500000000E-02 0.  1.
<mgrwt>
<rscale>  0 0.45068479E+02</rscale>
<asrwt>0</asrwt>
<pdfrwt beam="2">  1        2 0.15304745E-02 0.45068479E+02</pdfrwt>
<pdfrwt beam="1">  1       -2 0.78529531E-02 0.45068479E+02</pdfrwt>
<totfact> 0.52093505E+05</totfact>
</mgrwt>
</event>
<event>
 4    1  0.4837985E-002  0.4268288E+02  0.7818608E-02  0.1489348E+00
          2   -1    0    0    0  501  0.00000000000E+00  0.00000000000E+00  0.44106947186E+03  0.44106947187E+03  0.25500000000E-02 0. -1.
         -2   -1    0    0  501    0 -0.00000000000E+00 -0.00000000000E+00 -0.10326182795E+01  0.10326214280E+01  0.25500000000E-02 0. -1.
          2    1    1    2    0  502  0.18607238817E+02  0.93609698350E+01  0.17187957905E+03  0.17313707515E+03  0.25500000000E-02 0.  1.
         -2    1    1    2  502    0 -0.18607238817E+02 -0.93609698350E+01  0.26815727454E+03  0.26896501815E+03  0.25500000000E-02 0.  1.
<mgrwt>
<rscale>  0 0.42682882E+02</rscale>
<asrwt>0</asrwt>
<pdfrwt beam="1">  1        2 0.67856942E-01 0.42682882E+02</pdfrwt>
<pdfrwt beam="2">  1       -2 0.15886436E-03 0.42682882E+02</pdfrwt>
<totfact> 0.14228181E+06</totfact>
</mgrwt>
</event>
<event>
 4    1  0.4837985E-002  0.1301983E+03  0.7818608E-02  0.1227162E+00
          2   -1    0    0    0  501  0.00000000000E+00  0.00000000000E+00  0.19179804822E+04  0.19179804822E+04  0.25500000000E-02 0.  1.
         -2   -1    0    0  501    0 -0.00000000000E+00 -0.00000000000E+00 -0.22095641862E+01  0.22095656577E+01  0.25500000000E-02 0.  1.
          2    1    1    2    0  502 -0.58643530893E+02 -0.27294239604E+02  0.84964623800E+03  0.85210490491E+03  0.25500000000E-02 0. -1.
         -2    1    1    2  502    0  0.58643530893E+02  0.27294239604E+02  0.10661246800E+04  0.10680851429E+04  0.25500000000E-02 0. -1.
<mgrwt>
<rscale>  0 0.13019835E+03</rscale>
<asrwt>0</asrwt>
<pdfrwt beam="1">  1        2 0.29507269E+00 0.13019835E+03</pdfrwt>
<pdfrwt beam="2">  1       -2 0.33993448E-03 0.13019835E+03</pdfrwt>
<totfact> 0.78440187E+04</totfact>
</mgrwt>
</event>
<event>
 4    1  0.4837985E-002  0.1183346E+03  0.7818608E-02  0.1245870E+00
          2   -1    0    0    0  501  0.00000000000E+00  0.00000000000E+00  0.14044689993E+03  0.14044689995E+03  0.25500000000E-02 0. -1.
         -2   -1    0    0  501    0 -0.00000000000E+00 -0.00000000000E+00 -0.24925935820E+02  0.24925935951E+02  0.25500000000E-02 0. -1.
          2    1    1    2    0  502 -0.47532321999E+02  0.27127088170E+02  0.26337821378E+02  0.60736162116E+02  0.25500000000E-02 0. -1.
         -2    1    1    2  502    0  0.47532321999E+02 -0.27127088170E+02  0.89183142731E+02  0.10463667379E+03  0.25500000000E-02 0. -1.
<mgrwt>
<rscale>  0 0.11833462E+03</rscale>
<asrwt>0</asrwt>
<pdfrwt beam="1">  1        2 0.21607215E-01 0.11833462E+03</pdfrwt>
<pdfrwt beam="2">  1       -2 0.38347594E-02 0.11833462E+03</pdfrwt>
<totfact> 0.66399646E+04</totfact>
</mgrwt>
</event>
<event>
 4    1  0.4837985E-002  0.4679057E+02  0.7818608E-02  0.1463463E+00
         -2   -1    0    0  501    0 -0.00000000000E+00  0.00000000000E+00  0.39127409970E+02  0.39127410053E+02  0.25500000000E-02 0. -1.
          2   -1    0    0    0  501  0.00000000000E+00 -0.00000000000E+00 -0.13988639893E+02  0.13988640126E+02  0.25500000000E-02 0. -1.
          2    1    1    2    0  502 -0.19694339305E+02 -0.68114617658E+01  0.49810977610E+00  0.20844930604E+02  0.25500000000E-02 0.  1.
         -2    1    1    2  502    0  0.19694339305E+02  0.68114617658E+01  0.24640660301E+02  0.32271119575E+02  0.25500000000E-02 0.  1.
<mgrwt>
<rscale>  0 0.46790566E+02</rscale>
<asrwt>0</asrwt>
<pdfrwt beam="2">  1        2 0.21520985E-02 0.46790566E+02</pdfrwt>
<pdfrwt beam="1">  1       -2 0.60196015E-02 0.46790566E+02</pdfrwt>
<totfact> 0.49734153E+05</totfact>
</mgrwt>
</event>
<event>
 4    1  0.4837985E-002  0.4636814E+02  0.7818608E-02  0.1465977E+00
         -2   -1    0    0  501    0 -0.00000000000E+00  0.00000000000E+00  0.45754475957E+01  0.45754483063E+01  0.25500000000E-02 0. -1.
          2   -1    0    0    0  501  0.00000000000E+00 -0.00000000000E+00 -0.11747505511E+03  0.11747505514E+03  0.25500000000E-02 0. -1.
          2    1    1    2    0  502 -0.19593501905E+02  0.58535256091E+01 -0.27695804951E+02  0.34427121537E+02  0.25500000000E-02 0. -1.
         -2    1    1    2  502    0  0.19593501905E+02 -0.58535256091E+01 -0.85203802567E+02  0.87623381910E+02  0.25500000000E-02 0. -1.
<mgrwt>
<rscale>  0 0.46368136E+02</rscale>
<asrwt>0</asrwt>
<pdfrwt beam="2">  1        2 0.18073083E-01 0.46368136E+02</pdfrwt>
<pdfrwt beam="1">  1       -2 0.70391516E-03 0.46368136E+02</pdfrwt>
<totfact> 0.75569616E+05</totfact>
</mgrwt>
</event>
<event>
 4    1  0.4837985E-002  0.6766475E+02  0.7818608E-02  0.1368219E+00
         -2   -1    0    0  501    0 -0.00000000000E+00  0.00000000000E+00  0.10682740915E+02  0.10682741219E+02  0.25500000000E-02 0.  1.
          2   -1    0    0    0  501  0.00000000000E+00 -0.00000000000E+00 -0.10714755411E+03  0.10714755414E+03  0.25500000000E-02 0.  1.
          2    1    1    2    0  502  0.12995926598E+02 -0.31212758691E+02 -0.50364560293E+02  0.60660690346E+02  0.25500000000E-02 0. -1.
         -2    1    1    2  502    0 -0.12995926598E+02  0.31212758691E+02 -0.46100252903E+02  0.57169605014E+02  0.25500000000E-02 0. -1.
<mgrwt>
<rscale>  0 0.67664749E+02</rscale>
<asrwt>0</asrwt>
<pdfrwt beam="2">  1        2 0.16484238E-01 0.67664749E+02</pdfrwt>
<pdfrwt beam="1">  1       -2 0.16434987E-02 0.67664749E+02</pdfrwt>
<totfact> 0.27929242E+05</totfact>
</mgrwt>
</event>
<event>
 4    1  0.4837985E-002  0.4340279E+02  0.7818608E-02  0.1484566E+00
          2   -1    0    0    0  501  0.00000000000E+00  0.00000000000E+00  0.10584501149E+03  0.10584501153E+03  0.25500000000E-02 0.  1.
         -2   -1    0    0  501    0 -0.00000000000E+00 -0.00000000000E+00 -0.44494342624E+01  0.44494349931E+01  0.25500000000E-02 0.  1.
          2    1    1    2    0  502 -0.12019395823E+02  0.17792940300E+02  0.42703814968E+02  0.47798226116E+02  0.25500000000E-02 0.  1.
         -2    1    1    2  502    0  0.12019395823E+02 -0.17792940300E+02  0.58691762264E+02  0.62496220402E+02  0.25500000000E-02 0.  1.
<mgrwt>
<rscale>  0 0.43402786E+02</rscale>
<asrwt>0</asrwt>
<pdfrwt beam="1">  1        2 0.16283847E-01 0.43402786E+02</pdfrwt>
<pdfrwt beam="2">  1       -2 0.68452846E-03 0.43402786E+02</pdfrwt>
<totfact> 0.86653037E+05</totfact>
</mgrwt>
</event>
<event>
 4    1  0.4837985E-002  0.7305501E+02  0.7818608E-02  0.1350002E+00
          2   -1    0    0    0  501  0.00000000000E+00  0.00000000000E+00  0.41904160354E+01  0.41904168113E+01  0.25500000000E-02 0. -1.
         -2   -1    0    0  501    0 -0.00000000000E+00 -0.00000000000E+00 -0.31840715738E+03  0.31840715739E+03  0.25500000000E-02 0. -1.
          2    1    1    2    0  502 -0.23701725724E+02  0.21955446649E+02 -0.23236472132E+03  0.23460003658E+03  0.25500000000E-02 0.  1.
         -2    1    1    2  502    0  0.23701725724E+02 -0.21955446649E+02 -0.81852020017E+02  0.87997537621E+02  0.25500000000E-02 0.  1.
<mgrwt>
<rscale>  0 0.73055009E+02</rscale>
<asrwt>0</asrwt>
<pdfrwt beam="1">  1        2 0.64467970E-03 0.73055009E+02</pdfrwt>
<pdfrwt beam="2">  1       -2 0.48985698E-01 0.73055009E+02</pdfrwt>
<totfact> 0.86929384E+04</totfact>
</mgrwt>
</event>
<event>
 4    1  0.4837985E-002  0.4240357E+02  0.7818608E-02  0.1491234E+00
         -2   -1    0    0  501    0 -0.00000000000E+00  0.00000000000E+00  0.18660371341E+00  0.18662113588E+00  0.25500000000E-02 0.  1.
          2   -1    0    0    0  501  0.00000000000E+00 -0.00000000000E+00 -0.24088200174E+04  0.24088200174E+04  0.25500000000E-02 0.  1.
          2    1    1    2    0  502 -0.57471801923E+01  0.20165125315E+02 -0.13826482622E+04  0.13828072459E+04  0.25500000000E-02 0.  1.
         -2    1    1    2  502    0  0.57471801923E+01 -0.20165125315E+02 -0.10259851515E+04  0.10261993926E+04  0.25500000000E-02 0.  1.
<mgrwt>
<rscale>  0 0.42403573E+02</rscale>
<asrwt>0</asrwt>
<pdfrwt beam="2">  1        2 0.37056280E+00 0.42403573E+02</pdfrwt>
<pdfrwt beam="1">  1       -2 0.28711533E-04 0.42403573E+02</pdfrwt>
<totfact> 0.11191270E+06</totfact>
</mgrwt>
</event>
<event>
 4    1  0.4837985E-002  0.6999448E+02  0.7818608E-02  0.1360112E+00
          2   -1    0    0    0  501  0.00000000000E+00  0.00000000000E+00  0.12404429697E+03  0.12404429700E+03  0.25500000000E-02 0.  1.
         -2   -1    0    0  501    0 -0.00000000000E+00 -0.00000000000E+00 -0.98739478329E+01  0.98739481622E+01  0.25500000000E-02 0.  1.
          2    1    1    2    0  502 -0.17767743267E+02 -0.21864287655E+02  0.17361592563E+02  0.33093272402E+02  0.25500000000E-02 0. -1.
         -2    1    1    2  502    0  0.17767743267E+02  0.21864287655E+02  0.96808756575E+02  0.10082497276E+03  0.25500000000E-02 0. -1.
<mgrwt>
<rscale>  0 0.69994484E+02</rscale>
<asrwt>0</asrwt>
<pdfrwt beam="1">  1        2 0.19083739E-01 0.69994484E+02</pdfrwt>
<pdfrwt beam="2">  1       -2 0.15190688E-02 0.69994484E+02</pdfrwt>
<totfact> 0.26670133E+05</totfact>
</mgrwt>
</event>
<event>
 4    1  0.4837985E-002  0.4043629E+02  0.7818608E-02  0.1505025E+00
          2   -1    0    0    0  501  0.00000000000E+00  0.00000000000E+00  0.38872324841E+02  0.38872324925E+02  0.25500000000E-02 0.  1.
         -2   -1    0    0  501    0 -0.00000000000E+00 -0.00000000000E+00 -0.10515793916E+02  0.10515794226E+02  0.25500000000E-02 0.  1.
          2    1    1    2    0  502  0.16519017684E+02 -0.11656810183E+02  0.14032765153E+02  0.24610519564E+02  0.25500000000E-02 0.  1.
         -2    1    1    2  502    0 -0.16519017684E+02  0.11656810183E+02  0.14323765772E+02  0.24777599587E+02  0.25500000000E-02 0.  1.
<mgrwt>
<rscale>  0 0.40436289E+02</rscale>
<asrwt>0</asrwt>
<pdfrwt beam="1">  1        2 0.59803577E-02 0.40436289E+02</pdfrwt>
<pdfrwt beam="2">  1       -2 0.16178145E-02 0.40436289E+02</pdfrwt>
<totfact> 0.84213590E+05</totfact>
</mgrwt>
</event>
<event>
 4    1  0.4837985E-002  0.7326447E+02  0.7818608E-02  0.1349331E+00
         -2   -1    0    0  501    0 -0.00000000000E+00  0.00000000000E+00  0.29857833337E+02  0.29857833446E+02  0.25500000000E-02 0.  1.
          2   -1    0    0    0  501  0.00000000000E+00 -0.00000000000E+00 -0.44943675605E+02  0.44943675678E+02  0.25500000000E-02 0.  1.
          2    1    1    2    0  502 -0.36315749346E+02  0.59404074940E+00 -0.12410994955E+02  0.38382539484E+02  0.25500000000E-02 0. -1.
         -2    1    1    2  502    0  0.36315749346E+02 -0.59404074940E+00 -0.26748473135E+01  0.36418969640E+02  0.25500000000E-02 0. -1.
<mgrwt>
<rscale>  0 0.73264474E+02</rscale>
<asrwt>0</asrwt>
<pdfrwt beam="2">  1        2 0.69144116E-02 0.73264474E+02</pdfrwt>
<pdfrwt beam="1">  1       -2 0.45935128E-02 0.73264474E+02</pdfrwt>
<totfact> 0.18177413E+05</totfact>
</mgrwt>
</event>
<event>
 4    1  0.4837985E-002  0.4662016E+02  0.7818608E-02  0.1464474E+00
          2   -1    0    0    0  501  0.00000000000E+00  0.00000000000E+00  0.11592586948E+04  0.11592586948E+04  0.25500000000E-02 0. -1.
         -2   -1    0    0  501    0 -0.00000000000E+00 -0.00000000000E+00 -0.46870971500E+00  0.46871665154E+00  0.25500000000E-02 0. -1.
          2    1    1    2    0  502 -0.17460262793E+02 -0.10360759981E+02  0.86428186853E+03  0.86452030306E+03  0.25500000000E-02 0.  1.
         -2    1    1    2  502    0  0.17460262793E+02  0.10360759981E+02  0.29450811657E+03  0.29520710841E+03  0.25500000000E-02 0.  1.
<mgrwt>
<rscale>  0 0.46620160E+02</rscale>
<asrwt>0</asrwt>
<pdfrwt beam="1">  1        2 0.17834681E+00 0.46620160E+02</pdfrwt>
<pdfrwt beam="2">  1       -2 0.72109998E-04 0.46620160E+02</pdfrwt>
<totfact> 0.13729051E+06</totfact>
</mgrwt>
</event>
<event>
 4    1  0.4837985E-002  0.5638529E+02  0.7818608E-02  0.1413659E+00
         -2   -1    0    0  501    0 -0.00000000000E+00  0.00000000000E+00  0.34716208062E+02  0.34716208155E+02  0.25500000000E-02 0.  1.
          2   -1    0    0    0  501  0.00000000000E+00 -0.00000000000E+00 -0.22894935435E+02  0.22894935577E+02  0.25500000000E-02 0.  1.
          2    1    1    2    0  502  0.24075289270E+02 -0.14593880508E+02  0.43867552835E+01  0.28492885605E+02  0.25500000000E-02 0.  1.
         -2    1    1    2  502    0 -0.24075289270E+02  0.14593880508E+02  0.74345173432E+01  0.29118258127E+02  0.25500000000E-02 0.  1.
<mgrwt>
<rscale>  0 0.56385294E+02</rscale>
<asrwt>0</asrwt>
<pdfrwt beam="2">  1        2 0.35222978E-02 0.56385294E+02</pdfrwt>
<pdfrwt beam="1">  1       -2 0.53409551E-02 0.56385294E+02</pdfrwt>
<totfact> 0.32586333E+05</totfact>
</mgrwt>
</event>
<event>
 4    1  0.4837985E-002  0.6687391E+02  0.7818608E-02  0.1371058E+00
         -2   -1    0    0  501    0 -0.00000000000E+00  0.00000000000E+00  0.93289946547E+00  0.93290295057E+00  0.25500000000E-02 0. -1.
          2   -1    0    0    0  501  0.00000000000E+00 -0.00000000000E+00 -0.11984439574E+04  0.11984439574E+04  0.25500000000E-02 0. -1.
          2    1    1    2    0  502 -0.32512298737E+01 -0.32157782346E+02 -0.44516705479E+03  0.44633888486E+03  0.25500000000E-02 0.  1.
         -2    1    1    2  502    0  0.32512298737E+01  0.32157782346E+02 -0.75234400316E+03  0.75303797551E+03  0.25500000000E-02 0.  1.
<mgrwt>
<rscale>  0 0.66873906E+02</rscale>
<asrwt>0</asrwt>
<pdfrwt beam="2">  1        2 0.18437476E+00 0.66873906E+02</pdfrwt>
<pdfrwt beam="1">  1       -2 0.14352422E-03 0.66873906E+02</pdfrwt>
<totfact> 0.55543560E+05</totfact>
</mgrwt>
</event>
<event>
 4    1  0.4837985E-002  0.4851027E+02  0.7818608E-02  0.1453546E+00
          2   -1    0    0    0  501  0.00000000000E+00  0.00000000000E+00  0.43246841774E+02  0.43246841849E+02  0.25500000000E-02 0. -1.
         -2   -1    0    0  501    0 -0.00000000000E+00 -0.00000000000E+00 -0.13603570462E+02  0.13603570701E+02  0.25500000000E-02 0. -1.
          2    1    1    2    0  502  0.24161425216E+02  0.11048239827E+01  0.16955813565E+02  0.29538021679E+02  0.25500000000E-02 0.  1.
         -2    1    1    2  502    0 -0.24161425216E+02 -0.11048239827E+01  0.12687457747E+02  0.27312390871E+02  0.25500000000E-02 0.  1.
<mgrwt>
<rscale>  0 0.48510266E+02</rscale>
<asrwt>0</asrwt>
<pdfrwt beam="1">  1        2 0.66533602E-02 0.48510266E+02</pdfrwt>
<pdfrwt beam="2">  1       -2 0.20928571E-02 0.48510266E+02</pdfrwt>
<totfact> 0.53991795E+05</totfact>
</mgrwt>
</event>
<event>
 4    1  0.4837985E-002  0.4904862E+02  0.7818608E-02  0.1450542E+00
         -2   -1    0    0  501    0 -0.00000000000E+00  0.00000000000E+00  0.33383629409E+01  0.33383639148E+01  0.25500000000E-02 0.  1.
          2   -1    0    0    0  501  0.00000000000E+00 -0.00000000000E+00 -0.18016063881E+03  0.18016063883E+03  0.25500000000E-02 0.  1.
          2    1    1    2    0  502 -0.11154076556E+02  0.19840717504E+02 -0.12257152326E+03  0.12466693955E+03  0.25500000000E-02 0. -1.
         -2    1    1    2  502    0  0.11154076556E+02 -0.19840717504E+02 -0.54250752612E+02  0.58832063200E+02  0.25500000000E-02 0. -1.
<mgrwt>
<rscale>  0 0.49048616E+02</rscale>
<asrwt>0</asrwt>
<pdfrwt beam="2">  1        2 0.27717014E-01 0.49048616E+02</pdfrwt>
<pdfrwt beam="1">  1       -2 0.51359452E-03 0.49048616E+02</pdfrwt>
<totfact> 0.74642596E+05</totfact>
</mgrwt>
</event>
<event>
 4    1  0.4837985E-002  0.1043916E+03  0.7818608E-02  0.1271323E+00
          2   -1    0    0    0  501  0.00000000000E+00  0.00000000000E+00  0.10147576666E+04  0.10147576666E+04  0.25500000000E-02 0. -1.
         -2   -1    0    0  501    0 -0.00000000000E+00 -0.00000000000E+00 -0.26847802100E+01  0.26847814209E+01  0.25500000000E-02 0. -1.
          2    1    1    2    0  502  0.33275310773E+02 -0.38857786468E+02  0.40511151613E+03  0.40832892915E+03  0.25500000000E-02 0.  1.
         -2    1    1    2  502    0 -0.33275310773E+02  0.38857786468E+02  0.60696137029E+03  0.60911351890E+03  0.25500000000E-02 0.  1.
<mgrwt>
<rscale>  0 0.10439161E+03</rscale>
<asrwt>0</asrwt>
<pdfrwt beam="1">  1        2 0.15611646E+00 0.10439161E+03</pdfrwt>
<pdfrwt beam="2">  1       -2 0.41304348E-03 0.10439161E+03</pdfrwt>
<totfact> 0.17474477E+05</totfact>
</mgrwt>
</event>
<event>
 4    1  0.4837985E-002  0.5041368E+02  0.7818608E-02  0.1443123E+00
         -2   -1    0    0  501    0 -0.00000000000E+00  0.00000000000E+00  0.15356935773E+02  0.15356935985E+02  0.25500000000E-02 0.  1.
          2   -1    0    0    0  501  0.00000000000E+00 -0.00000000000E+00 -0.41374442386E+02  0.41374442464E+02  0.25500000000E-02 0.  1.
          2    1    1    2    0  502  0.22348505656E+02  0.53756946072E+01 -0.24650803875E+02  0.33704835495E+02  0.25500000000E-02 0. -1.
         -2    1    1    2  502    0 -0.22348505656E+02 -0.53756946072E+01 -0.13667027380E+01  0.23026542954E+02  0.25500000000E-02 0. -1.
<mgrwt>
<rscale>  0 0.50413675E+02</rscale>
<asrwt>0</asrwt>
<pdfrwt beam="2">  1        2 0.63652988E-02 0.50413675E+02</pdfrwt>
<pdfrwt beam="1">  1       -2 0.23626055E-02 0.50413675E+02</pdfrwt>
<totfact> 0.48505885E+05</totfact>
</mgrwt>
</event>
<event>
 4    1  0.4837985E-002  0.5205105E+02  0.7818608E-02  0.1434583E+00
          2   -1    0    0    0  501  0.00000000000E+00  0.00000000000E+00  0.30132301431E+03  0.30132301432E+03  0.25500000000E-02 0.  1.
         -2   -1    0    0  501    0 -0.00000000000E+00 -0.00000000000E+00 -0.22478463890E+01  0.22478478353E+01  0.25500000000E-02 0.  1.
          2    1    1    2    0  502 -0.25674622966E+02 -0.36082367245E+00  0.12478578482E+03  0.12740019057E+03  0.25500000000E-02 0. -1.
         -2    1    1    2  502    0  0.25674622966E+02  0.36082367245E+00  0.17428938311E+03  0.17617067159E+03  0.25500000000E-02 0. -1.
<mgrwt>
<rscale>  0 0.52051055E+02</rscale>
<asrwt>0</asrwt>
<pdfrwt beam="1">  1        2 0.46357351E-01 0.52051055E+02</pdfrwt>
<pdfrwt beam="2">  1       -2 0.34582290E-03 0.52051055E+02</pdfrwt>
<totfact> 0.76639046E+05</totfact>
</mgrwt>
</event>
<event>
 4    1  0.4837985E-002  0.4651730E+02  0.7818608E-02  0.1465086E+00
          2   -1    0    0    0  501  0.00000000000E+00  0.00000000000E+00  0.10352113621E+04  0.10352113621E+04  0.25500000000E-02 0. -1.
         -2   -1    0    0  501    0 -0.00000000000E+00 -0.00000000000E+00 -0.52256146937E+00  0.52256769109E+00  0.25500000000E-02 0. -1.
          2    1    1    2    0  502 -0.17808447584E+02  0.14373210080E+02  0.60977952063E+03  0.61020881161E+03  0.25500000000E-02 0. -1.
         -2    1    1    2  502    0  0.17808447584E+02 -0.14373210080E+02  0.42490927999E+03  0.42552511818E+03  0.25500000000E-02 0. -1.
<mgrwt>
<rscale>  0 0.46517300E+02</rscale>
<asrwt>0</asrwt>
<pdfrwt beam="1">  1        2 0.15926386E+00 0.46517300E+02</pdfrwt>
<pdfrwt beam="2">  1       -2 0.80394260E-04 0.46517300E+02</pdfrwt>
<totfact> 0.13840985E+06</totfact>
</mgrwt>
</event>
<event>
 4    1  0.4837985E-002  0.4596458E+02  0.7818608E-02  0.1468408E+00
          2   -1    0    0    0  501  0.00000000000E+00  0.00000000000E+00  0.66008479933E+03  0.66008479933E+03  0.25500000000E-02 0. -1.
         -2   -1    0    0  501    0 -0.00000000000E+00 -0.00000000000E+00 -0.80017634843E+00  0.80018041159E+00  0.25500000000E-02 0. -1.
          2    1    1    2    0  502  0.11691914950E+02  0.16816071454E+02  0.17973380778E+03  0.18089699500E+03  0.25500000000E-02 0.  1.
         -2    1    1    2  502    0 -0.11691914950E+02 -0.16816071454E+02  0.47955081519E+03  0.47998798474E+03  0.25500000000E-02 0.  1.
<mgrwt>
<rscale>  0 0.45964577E+02</rscale>
<asrwt>0</asrwt>
<pdfrwt beam="1">  1        2 0.10155152E+00 0.45964577E+02</pdfrwt>
<pdfrwt beam="2">  1       -2 0.12310435E-03 0.45964577E+02</pdfrwt>
<totfact> 0.13346875E+06</totfact>
</mgrwt>
</event>
<event>
 4    1  0.4837985E-002  0.5831077E+02  0.7818608E-02  0.1405061E+00
          2   -1    0    0    0  501  0.00000000000E+00  0.00000000000E+00  0.12374537981E+04  0.12374537981E+04  0.25500000000E-02 0.  1.
         -2   -1    0    0  501    0 -0.00000000000E+00 -0.00000000000E+00 -0.68692134319E+00  0.68692607625E+00  0.25500000000E-02 0.  1.
          2    1    1    2    0  502 -0.22140227069E+02 -0.16219554913E+02  0.82726387549E+03  0.82771902437E+03  0.25500000000E-02 0.  1.
         -2    1    1    2  502    0  0.22140227069E+02  0.16219554913E+02  0.40950300126E+03  0.41042169980E+03  0.25500000000E-02 0.  1.
<mgrwt>
<rscale>  0 0.58310766E+02</rscale>
<asrwt>0</asrwt>
<pdfrwt beam="1">  1        2 0.19037937E+00 0.58310766E+02</pdfrwt>
<pdfrwt beam="2">  1       -2 0.10567954E-03 0.58310766E+02</pdfrwt>
<totfact> 0.78264871E+05</totfact>
</mgrwt>
</event>
<event>
 4    1  0.4837985E-002  0.4347685E+02  0.7818608E-02  0.1484081E+00
         -2   -1    0    0  501    0 -0.00000000000E+00  0.00000000000E+00  0.98261763585E+01  0.98261766894E+01  0.25500000000E-02 0. -1.
          2   -1    0    0    0  501  0.00000000000E+00 -0.00000000000E+00 -0.48091869487E+02  0.48091869554E+02  0.25500000000E-02 0. -1.
          2    1    1    2    0  502 -0.20827551224E+02 -0.31226008125E+01 -0.11956275387E+02  0.24217556719E+02  0.25500000000E-02 0.  1.
         -2    1    1    2  502    0  0.20827551224E+02  0.31226008125E+01 -0.26309417741E+02  0.33700489525E+02  0.25500000000E-02 0.  1.
<mgrwt>
<rscale>  0 0.43476854E+02</rscale>
<asrwt>0</asrwt>
<pdfrwt beam="2">  1        2 0.73987491E-02 0.43476854E+02</pdfrwt>
<pdfrwt beam="1">  1       -2 0.15117195E-02 0.43476854E+02</pdfrwt>
<totfact> 0.72728257E+05</totfact>
</mgrwt>
</event>
<event>
 4    1  0.4837985E-002  0.1194739E+03  0.7818608E-02  0.1243967E+00
         -2   -1    0    0  501    0 -0.00000000000E+00  0.00000000000E+00  0.15510031206E+01  0.15510052168E+01  0.25500000000E-02 0.  1.
          2   -1    0    0    0  501  0.00000000000E+00 -0.00000000000E+00 -0.23007710453E+04  0.23007710453E+04  0.25500000000E-02 0.  1.
          2    1    1    2    0  502 -0.24027811310E+02 -0.35119055531E+02 -0.34166780006E+03  0.34430737631E+03  0.25500000000E-02 0.  1.
         -2    1    1    2  502    0  0.24027811310E+02  0.35119055531E+02 -0.19575522421E+04  0.19580146742E+04  0.25500000000E-02 0.  1.
<mgrwt>
<rscale>  0 0.11947394E+03</rscale>
<asrwt>0</asrwt>
<pdfrwt beam="2">  1        2 0.35396205E+00 0.11947394E+03</pdfrwt>
<pdfrwt beam="1">  1       -2 0.23861787E-03 0.11947394E+03</pdfrwt>
<totfact> 0.81392454E+04</totfact>
</mgrwt>
</event>
<event>
 4    1  0.4837985E-002  0.7315698E+02  0.7818608E-02  0.1349675E+00
          2   -1    0    0    0  501  0.00000000000E+00  0.00000000000E+00  0.75401498074E+03  0.75401498074E+03  0.25500000000E-02 0.  1.
         -2   -1    0    0  501    0 -0.00000000000E+00 -0.00000000000E+00 -0.17744810332E+01  0.17744828654E+01  0.25500000000E-02 0.  1.
          2    1    1    2    0  502 -0.21074007467E+02  0.17619958276E+02  0.62565538949E+03  0.62625812819E+03  0.25500000000E-02 0. -1.
         -2    1    1    2  502    0  0.21074007467E+02 -0.17619958276E+02  0.12658511022E+03  0.12953133542E+03  0.25500000000E-02 0. -1.
<mgrwt>
<rscale>  0 0.73156981E+02</rscale>
<asrwt>0</asrwt>
<pdfrwt beam="1">  1        2 0.11600259E+00 0.73156981E+02</pdfrwt>
<pdfrwt beam="2">  1       -2 0.27299655E-03 0.73156981E+02</pdfrwt>
<totfact> 0.42787829E+05</totfact>
</mgrwt>
</event>
<event>
 4    1  0.4837985E-002  0.7961060E+02  0.7818608E-02  0.1330160E+00
          2   -1    0    0    0  501  0.00000000000E+00  0.00000000000E+00  0.38576901837E+03  0.38576901838E+03  0.25500000000E-02 0.  1.
         -2   -1    0    0  501    0 -0.00000000000E+00 -0.00000000000E+00 -0.41072810393E+01  0.41072818309E+01  0.25500000000E-02 0.  1.
          2    1    1    2    0  502  0.40731324882E+01 -0.39501088463E+02  0.20427438029E+03  0.20809841145E+03  0.25500000000E-02 0.  1.
         -2    1    1    2  502    0 -0.40731324882E+01  0.39501088463E+02  0.17738735704E+03  0.18177788876E+03  0.25500000000E-02 0.  1.
<mgrwt>
<rscale>  0 0.79610601E+02</rscale>
<asrwt>0</asrwt>
<pdfrwt beam="1">  1        2 0.59349096E-01 0.79610601E+02</pdfrwt>
<pdfrwt beam="2">  1       -2 0.63188928E-03 0.79610601E+02</pdfrwt>
<totfact> 0.28176539E+05</totfact>
</mgrwt>
</event>
<event>
 4    1  0.4837985E-002  0.4666924E+02  0.7818608E-02  0.1464182E+00
         -2   -1    0    0  501    0 -0.00000000000E+00  0.00000000000E+00  0.81677195814E+00  0.81677593874E+00  0.25500000000E-02 0. -1.
          2   -1    0    0    0  501  0.00000000000E+00 -0.00000000000E+00 -0.66665265241E+03  0.66665265241E+03  0.25500000000E-02 0. -1.
          2    1    1    2    0  502  0.19766785872E+02  0.99697808618E+01 -0.43838792205E+03  0.43894657142E+03  0.25500000000E-02 0.  1.
         -2    1    1    2  502    0 -0.19766785872E+02 -0.99697808618E+01 -0.22744795840E+03  0.22852285693E+03  0.25500000000E-02 0.  1.
<mgrwt>
<rscale>  0 0.46669241E+02</rscale>
<asrwt>0</asrwt>
<pdfrwt beam="2">  1        2 0.10256151E+00 0.46669241E+02</pdfrwt>
<pdfrwt beam="1">  1       -2 0.12565806E-03 0.46669241E+02</pdfrwt>
<totfact> 0.12889903E+06</totfact>
</mgrwt>
</event>
<event>
 4    1  0.4837985E-002  0.6642763E+02  0.7818608E-02  0.1372680E+00
          2   -1    0    0    0  501  0.00000000000E+00  0.00000000000E+00  0.53899497631E+01  0.53899503663E+01  0.25500000000E-02 0.  1.
         -2   -1    0    0  501    0 -0.00000000000E+00 -0.00000000000E+00 -0.20466936693E+03  0.20466936695E+03  0.25500000000E-02 0.  1.
          2    1    1    2    0  502  0.18851336239E+02 -0.17165868209E+02 -0.32326746897E+02  0.41171087923E+02  0.25500000000E-02 0.  1.
         -2    1    1    2  502    0 -0.18851336239E+02  0.17165868209E+02 -0.16695267027E+03  0.16888822939E+03  0.25500000000E-02 0.  1.
<mgrwt>
<rscale>  0 0.66427635E+02</rscale>
<asrwt>0</asrwt>
<pdfrwt beam="1">  1        2 0.82922325E-03 0.66427635E+02</pdfrwt>
<pdfrwt beam="2">  1       -2 0.31487589E-01 0.66427635E+02</pdfrwt>
<totfact> 0.13776262E+05</totfact>
</mgrwt>
</event>
<event>
 4    1  0.4837985E-002  0.9207572E+02  0.7818608E-02  0.1297901E+00
          2   -1    0    0    0  501  0.00000000000E+00  0.00000000000E+00  0.28521102080E+04  0.28521102080E+04  0.25500000000E-02 0.  1.
         -2   -1    0    0  501    0 -0.00000000000E+00 -0.00000000000E+00 -0.74312633621E+00  0.74313071130E+00  0.25500000000E-02 0.  1.
          2    1    1    2    0  502  0.18357891097E+02 -0.41965153862E+02  0.12823584073E+04  0.12831762042E+04  0.25500000000E-02 0. -1.
         -2    1    1    2  502    0 -0.18357891097E+02  0.41965153862E+02  0.15690086744E+04  0.15696771345E+04  0.25500000000E-02 0. -1.
<mgrwt>
<rscale>  0 0.92075718E+02</rscale>
<asrwt>0</asrwt>
<pdfrwt beam="1">  1        2 0.43878479E+00 0.92075718E+02</pdfrwt>
<pdfrwt beam="2">  1       -2 0.11432783E-03 0.92075718E+02</pdfrwt>
<totfact> 0.11212779E+05</totfact>
</mgrwt>
</event>
<event>
 4    1  0.4837985E-002  0.6179046E+02  0.7818608E-02  0.1390468E+00
          2   -1    0    0    0  501  0.00000000000E+00  0.00000000000E+00  0.91943129067E+03  0.91943129067E+03  0.25500000000E-02 0. -1.
         -2   -1    0    0  501    0 -0.00000000000E+00 -0.00000000000E+00 -0.10381566321E+01  0.10381597639E+01  0.25500000000E-02 0. -1.
          2    1    1    2    0  502  0.28712541549E+02  0.10929076286E+02  0.50783440658E+03  0.50876285170E+03  0.25500000000E-02 0. -1.
         -2    1    1    2  502    0 -0.28712541549E+02 -0.10929076286E+02  0.41055872745E+03  0.41170659874E+03  0.25500000000E-02 0. -1.
<mgrwt>
<rscale>  0 0.61790457E+02</rscale>
<asrwt>0</asrwt>
<pdfrwt beam="1">  1        2 0.14145031E+00 0.61790457E+02</pdfrwt>
<pdfrwt beam="2">  1       -2 0.15971739E-03 0.61790457E+02</pdfrwt>
<totfact> 0.67833466E+05</totfact>
</mgrwt>
</event>
<event>
 4    1  0.4837985E-002  0.1043869E+03  0.7818608E-02  0.1271332E+00
          2   -1    0    0    0  501  0.00000000000E+00  0.00000000000E+00  0.73139729444E+03  0.73139729445E+03  0.25500000000E-02 0. -1.
         -2   -1    0    0  501    0 -0.00000000000E+00 -0.00000000000E+00 -0.37245887225E+01  0.37245895954E+01  0.25500000000E-02 0. -1.
          2    1    1    2    0  502 -0.81751758911E+00  0.22639222190E+02  0.69496985510E+03  0.69533898367E+03  0.25500000000E-02 0. -1.
         -2    1    1    2  502    0  0.81751758911E+00 -0.22639222190E+02  0.32702850623E+02  0.39782900368E+02  0.25500000000E-02 0. -1.
<mgrwt>
<rscale>  0 0.10438687E+03</rscale>
<asrwt>0</asrwt>
<pdfrwt beam="1">  1        2 0.11252252E+00 0.10438687E+03</pdfrwt>
<pdfrwt beam="2">  1       -2 0.57301444E-03 0.10438687E+03</pdfrwt>
<totfact> 0.16721348E+05</totfact>
</mgrwt>
</event>
<event>
 4    1  0.4837985E-002  0.4239392E+02  0.7818608E-02  0.1491299E+00
         -2   -1    0    0  501    0 -0.00000000000E+00  0.00000000000E+00  0.10595812614E+01  0.10595843299E+01  0.25500000000E-02 0.  1.
          2   -1    0    0    0  501  0.00000000000E+00 -0.00000000000E+00 -0.42404537291E+03  0.42404537291E+03  0.25500000000E-02 0.  1.
          2    1    1    2    0  502 -0.16079191202E+02  0.13081581286E+02 -0.25593521213E+03  0.25677324817E+03  0.25500000000E-02 0. -1.
         -2    1    1    2  502    0  0.16079191202E+02 -0.13081581286E+02 -0.16705057951E+03  0.16833170907E+03  0.25500000000E-02 0. -1.
<mgrwt>
<rscale>  0 0.42393923E+02</rscale>
<asrwt>0</asrwt>
<pdfrwt beam="2">  1        2 0.65237614E-01 0.42393923E+02</pdfrwt>
<pdfrwt beam="1">  1       -2 0.16301308E-03 0.42393923E+02</pdfrwt>
<totfact> 0.14280640E+06</totfact>
</mgrwt>
</event>
<event>
 4    1  0.4837985E-002  0.4930831E+02  0.7818608E-02  0.1449108E+00
         -2   -1    0    0  501    0 -0.00000000000E+00  0.00000000000E+00  0.22213421141E+01  0.22213435778E+01  0.25500000000E-02 0.  1.
          2   -1    0    0    0  501  0.00000000000E+00 -0.00000000000E+00 -0.27363055173E+03  0.27363055174E+03  0.25500000000E-02 0.  1.
          2    1    1    2    0  502 -0.44909004529E+00  0.22375536785E+02 -0.77845929648E+02  0.80999105535E+02  0.25500000000E-02 0.  1.
         -2    1    1    2  502    0  0.44909004529E+00 -0.22375536785E+02 -0.19356327997E+03  0.19485278979E+03  0.25500000000E-02 0.  1.
<mgrwt>
<rscale>  0 0.49308306E+02</rscale>
<asrwt>0</asrwt>
<pdfrwt beam="2">  1        2 0.42096981E-01 0.49308306E+02</pdfrwt>
<pdfrwt beam="1">  1       -2 0.34174527E-03 0.49308306E+02</pdfrwt>
<totfact> 0.84813825E+05</totfact>
</mgrwt>
</event>
<event>
 4    1  0.4837985E-002  0.7753302E+02  0.7818608E-02  0.1336202E+00
         -2   -1    0    0  501    0 -0.00000000000E+00  0.00000000000E+00  0.24379735198E+02  0.24379735331E+02  0.25500000000E-02 0. -1.
          2   -1    0    0    0  501  0.00000000000E+00 -0.00000000000E+00 -0.61643091027E+02  0.61643091080E+02  0.25500000000E-02 0. -1.
          2    1    1    2    0  502 -0.28821304227E+02  0.25353827717E+02 -0.24643288522E+02  0.45615521842E+02  0.25500000000E-02 0. -1.
         -2    1    1    2  502    0  0.28821304227E+02 -0.25353827717E+02 -0.12620067308E+02  0.40407304570E+02  0.25500000000E-02 0. -1.
<mgrwt>
<rscale>  0 0.77533019E+02</rscale>
<asrwt>0</asrwt>
<pdfrwt beam="2">  1        2 0.94835524E-02 0.77533019E+02</pdfrwt>
<pdfrwt beam="1">  1       -2 0.37507285E-02 0.77533019E+02</pdfrwt>
<totfact> 0.16755986E+05</totfact>
</mgrwt>
</event>
<event>
 4    1  0.4837985E-002  0.4441519E+02  0.7818608E-02  0.1478026E+00
          2   -1    0    0    0  501  0.00000000000E+00  0.00000000000E+00  0.32957510625E+03  0.32957510626E+03  0.25500000000E-02 0. -1.
         -2   -1    0    0  501    0 -0.00000000000E+00 -0.00000000000E+00 -0.14964021327E+01  0.14964043054E+01  0.25500000000E-02 0. -1.
          2    1    1    2    0  502 -0.18068218494E+02 -0.88461652576E+01  0.93931140675E+02  0.96061305187E+02  0.25500000000E-02 0. -1.
         -2    1    1    2  502    0  0.18068218494E+02  0.88461652576E+01  0.23414756344E+03  0.23501020538E+03  0.25500000000E-02 0. -1.
<mgrwt>
<rscale>  0 0.44415189E+02</rscale>
<asrwt>0</asrwt>
<pdfrwt beam="1">  1        2 0.50703887E-01 0.44415189E+02</pdfrwt>
<pdfrwt beam="2">  1       -2 0.23021577E-03 0.44415189E+02</pdfrwt>
<totfact> 0.11709018E+06</totfact>
</mgrwt>
</event>
<event>
 4    1  0.4837985E-002  0.4719467E+02  0.7818608E-02  0.1461088E+00
         -2   -1    0    0  501    0 -0.00000000000E+00  0.00000000000E+00  0.24078619170E+00  0.24079969397E+00  0.25500000000E-02 0. -1.
          2   -1    0    0    0  501  0.00000000000E+00 -0.00000000000E+00 -0.23125027002E+04  0.23125027002E+04  0.25500000000E-02 0. -1.
          2    1    1    2    0  502  0.22770482619E+02  0.22126337562E+01 -0.14395255975E+04  0.14397073788E+04  0.25500000000E-02 0.  1.
         -2    1    1    2  502    0 -0.22770482619E+02 -0.22126337562E+01 -0.87273631652E+03  0.87303612113E+03  0.25500000000E-02 0.  1.
<mgrwt>
<rscale>  0 0.47194675E+02</rscale>
<asrwt>0</asrwt>
<pdfrwt beam="2">  1        2 0.35575186E+00 0.47194675E+02</pdfrwt>
<pdfrwt beam="1">  1       -2 0.37046920E-04 0.47194675E+02</pdfrwt>
<totfact> 0.90729286E+05</totfact>
</mgrwt>
</event>
<event>
 4    1  0.4837985E-002  0.4069022E+02  0.7818608E-02  0.1503193E+00
         -2   -1    0    0  501    0 -0.00000000000E+00  0.00000000000E+00  0.43201728938E+00  0.43202481505E+00  0.25500000000E-02 0. -1.
          2   -1    0    0    0  501  0.00000000000E+00 -0.00000000000E+00 -0.95810942054E+03  0.95810942054E+03  0.25500000000E-02 0. -1.
          2    1    1    2    0  502  0.19817478115E+02  0.45936993478E+01 -0.48586345163E+03  0.48628914048E+03  0.25500000000E-02 0. -1.
         -2    1    1    2  502    0 -0.19817478115E+02 -0.45936993478E+01 -0.47181395162E+03  0.47225230487E+03  0.25500000000E-02 0. -1.
<mgrwt>
<rscale>  0 0.40690217E+02</rscale>
<asrwt>0</asrwt>
<pdfrwt beam="2">  1        2 0.14739975E+00 0.40690217E+02</pdfrwt>
<pdfrwt beam="1">  1       -2 0.66465544E-04 0.40690217E+02</pdfrwt>
<totfact> 0.19086325E+06</totfact>
</mgrwt>
</event>
<event>
 4    1  0.4837985E-002  0.4303814E+02  0.7818608E-02  0.1486974E+00
          2   -1    0    0    0  501  0.00000000000E+00  0.00000000000E+00  0.82561251693E+02  0.82561251732E+02  0.25500000000E-02 0. -1.
         -2   -1    0    0  501    0 -0.00000000000E+00 -0.00000000000E+00 -0.56088084796E+01  0.56088090593E+01  0.25500000000E-02 0. -1.
          2    1    1    2    0  502 -0.10701975329E+02 -0.18632965417E+02  0.40857060298E+02  0.46162961981E+02  0.25500000000E-02 0.  1.
         -2    1    1    2  502    0  0.10701975329E+02  0.18632965417E+02  0.36095382915E+02  0.42007098810E+02  0.25500000000E-02 0.  1.
<mgrwt>
<rscale>  0 0.43038135E+02</rscale>
<asrwt>0</asrwt>
<pdfrwt beam="1">  1        2 0.12701731E-01 0.43038135E+02</pdfrwt>
<pdfrwt beam="2">  1       -2 0.86289366E-03 0.43038135E+02</pdfrwt>
<totfact> 0.83249639E+05</totfact>
</mgrwt>
</event>
<event>
 4    1  0.4837985E-002  0.4855554E+02  0.7818608E-02  0.1453292E+00
         -2   -1    0    0  501    0 -0.00000000000E+00  0.00000000000E+00  0.65108326928E+00  0.65108826286E+00  0.25500000000E-02 0.  1.
          2   -1    0    0    0  501  0.00000000000E+00 -0.00000000000E+00 -0.90527255019E+03  0.90527255019E+03  0.25500000000E-02 0.  1.
          2    1    1    2    0  502  0.18371807048E+02 -0.12264474773E+02 -0.26437020861E+03  0.26529143945E+03  0.25500000000E-02 0. -1.
         -2    1    1    2  502    0 -0.18371807048E+02  0.12264474773E+02 -0.64025125831E+03  0.64063219901E+03  0.25500000000E-02 0. -1.
<mgrwt>
<rscale>  0 0.48555538E+02</rscale>
<asrwt>0</asrwt>
<pdfrwt beam="2">  1        2 0.13927169E+00 0.48555538E+02</pdfrwt>
<pdfrwt beam="1">  1       -2 0.10016777E-03 0.48555538E+02</pdfrwt>
<totfact> 0.12352225E+06</totfact>
</mgrwt>
</event>
<event>
 4    1  0.4837985E-002  0.4343037E+02  0.7818608E-02  0.1484385E+00
         -2   -1    0    0  501    0 -0.00000000000E+00  0.00000000000E+00  0.44403732054E+01  0.44403739376E+01  0.25500000000E-02 0. -1.
          2   -1    0    0    0  501  0.00000000000E+00 -0.00000000000E+00 -0.10619583589E+03  0.10619583592E+03  0.25500000000E-02 0. -1.
          2    1    1    2    0  502  0.90277296518E+01  0.19723011366E+02 -0.48264774247E+02  0.52914889395E+02  0.25500000000E-02 0.  1.
         -2    1    1    2  502    0 -0.90277296518E+01 -0.19723011366E+02 -0.53490688436E+02  0.57721320462E+02  0.25500000000E-02 0.  1.
<mgrwt>
<rscale>  0 0.43430367E+02</rscale>
<asrwt>0</asrwt>
<pdfrwt beam="2">  1        2 0.16337819E-01 0.43430367E+02</pdfrwt>
<pdfrwt beam="1">  1       -2 0.68313448E-03 0.43430367E+02</pdfrwt>
<totfact> 0.86590965E+05</totfact>
</mgrwt>
</event>
<event>
 4    1  0.4837985E-002  0.4923900E+02  0.7818608E-02  0.1449490E+00
          2   -1    0    0    0  501  0.00000000000E+00  0.00000000000E+00  0.15247688944E+04  0.15247688944E+04  0.25500000000E-02 0.  1.
         -2   -1    0    0  501    0 -0.00000000000E+00 -0.00000000000E+00 -0.39751167475E+00  0.39751985367E+00  0.25500000000E-02 0.  1.
          2    1    1    2    0  502  0.21792889767E+02  0.89135139762E+00  0.40848271764E+03  0.40906461002E+03  0.25500000000E-02 0. -1.
         -2    1    1    2  502    0 -0.21792889767E+02 -0.89135139762E+00  0.11158886651E+04  0.11161018042E+04  0.25500000000E-02 0. -1.
<mgrwt>
<rscale>  0 0.49238996E+02</rscale>
<asrwt>0</asrwt>
<pdfrwt beam="1">  1        2 0.23458171E+00 0.49238996E+02</pdfrwt>
<pdfrwt beam="2">  1       -2 0.61155782E-04 0.49238996E+02</pdfrwt>
<totfact> 0.11314644E+06</totfact>
</mgrwt>
</event>
<event>
 4    1  0.4837985E-002  0.4738794E+02  0.7818608E-02  0.1459962E+00
         -2   -1    0    0  501    0 -0.00000000000E+00  0.00000000000E+00  0.32316505013E+02  0.32316505114E+02  0.25500000000E-02 0. -1.
          2   -1    0    0    0  501  0.00000000000E+00 -0.00000000000E+00 -0.17372055985E+02  0.17372056172E+02  0.25500000000E-02 0. -1.
          2    1    1    2    0  502  0.72970539122E+01 -0.19641436914E+02  0.19071424698E+02  0.28332883481E+02  0.25500000000E-02 0. -1.
         -2    1    1    2  502    0 -0.72970539122E+01  0.19641436914E+02 -0.41269756702E+01  0.21355677805E+02  0.25500000000E-02 0. -1.
<mgrwt>
<rscale>  0 0.47387937E+02</rscale>
<asrwt>0</asrwt>
<pdfrwt beam="2">  1        2 0.26726240E-02 0.47387937E+02</pdfrwt>
<pdfrwt beam="1">  1       -2 0.49717700E-02 0.47387937E+02</pdfrwt>
<totfact> 0.49702000E+05</totfact>
</mgrwt>
</event>
<event>
 4    1  0.4837985E-002  0.4688404E+02  0.7818608E-02  0.1462911E+00
          2   -1    0    0    0  501  0.00000000000E+00  0.00000000000E+00  0.83465869242E+03  0.83465869242E+03  0.25500000000E-02 0. -1.
         -2   -1    0    0  501    0 -0.00000000000E+00 -0.00000000000E+00 -0.65838428858E+00  0.65838922679E+00  0.25500000000E-02 0. -1.
          2    1    1    2    0  502 -0.14081378656E+02 -0.18259812337E+02  0.49221571442E+03  0.49275553320E+03  0.25500000000E-02 0.  1.
         -2    1    1    2  502    0  0.14081378656E+02  0.18259812337E+02  0.34178459371E+03  0.34256154845E+03  0.25500000000E-02 0.  1.
<mgrwt>
<rscale>  0 0.46884037E+02</rscale>
<asrwt>0</asrwt>
<pdfrwt beam="1">  1        2 0.12840929E+00 0.46884037E+02</pdfrwt>
<pdfrwt beam="2">  1       -2 0.10129006E-03 0.46884037E+02</pdfrwt>
<totfact> 0.13322176E+06</totfact>
</mgrwt>
</event>
<event>
 4    1  0.4837985E-002  0.6470559E+02  0.7818608E-02  0.1379082E+00
         -2   -1    0    0  501    0 -0.00000000000E+00  0.00000000000E+00  0.27041220798E+03  0.27041220800E+03  0.25500000000E-02 0. -1.
          2   -1    0    0    0  501  0.00000000000E+00 -0.00000000000E+00 -0.38707691984E+01  0.38707700384E+01  0.25500000000E-02 0. -1.
          2    1    1    2    0  502  0.14516409694E+02 -0.28061452939E+02  0.16280126245E+03  0.16583854303E+03  0.25500000000E-02 0. -1.
         -2    1    1    2  502    0 -0.14516409694E+02  0.28061452939E+02  0.10374017633E+03  0.10844443500E+03  0.25500000000E-02 0. -1.
<mgrwt>
<rscale>  0 0.64705591E+02</rscale>
<asrwt>0</asrwt>
<pdfrwt beam="2">  1        2 0.59550299E-03 0.64705591E+02</pdfrwt>
<pdfrwt beam="1">  1       -2 0.41601880E-01 0.64705591E+02</pdfrwt>
<totfact> 0.12918923E+05</totfact>
</mgrwt>
</event>
<event>
 4    1  0.4837985E-002  0.1073511E+03  0.7818608E-02  0.1265555E+00
          2   -1    0    0    0  501  0.00000000000E+00  0.00000000000E+00  0.60723938958E+02  0.60723939012E+02  0.25500000000E-02 0. -1.
         -2   -1    0    0  501    0 -0.00000000000E+00 -0.00000000000E+00 -0.47445329123E+02  0.47445329192E+02  0.25500000000E-02 0. -1.
          2    1    1    2    0  502  0.52673139452E+02  0.46717065642E+01 -0.26386251226E+01  0.52945696813E+02  0.25500000000E-02 0.  1.
         -2    1    1    2  502    0 -0.52673139452E+02 -0.46717065642E+01  0.15917234957E+02  0.55223571391E+02  0.25500000000E-02 0.  1.
<mgrwt>
<rscale>  0 0.10735115E+03</rscale>
<asrwt>0</asrwt>
<pdfrwt beam="1">  1        2 0.93421444E-02 0.10735115E+03</pdfrwt>
<pdfrwt beam="2">  1       -2 0.72992814E-02 0.10735115E+03</pdfrwt>
<totfact> 0.66662400E+04</totfact>
</mgrwt>
</event>
<event>
 4    1  0.4837985E-002  0.5556834E+02  0.7818608E-02  0.1417430E+00
          2   -1    0    0    0  501  0.00000000000E+00  0.00000000000E+00  0.73880628054E+03  0.73880628054E+03  0.25500000000E-02 0. -1.
         -2   -1    0    0  501    0 -0.00000000000E+00 -0.00000000000E+00 -0.10448732523E+01  0.10448763639E+01  0.25500000000E-02 0. -1.
          2    1    1    2    0  502  0.27437892479E+02 -0.39022238857E+01  0.39515662692E+03  0.39612728396E+03  0.25500000000E-02 0.  1.
         -2    1    1    2  502    0 -0.27437892479E+02  0.39022238857E+01  0.34260478037E+03  0.34372387295E+03  0.25500000000E-02 0.  1.
<mgrwt>
<rscale>  0 0.55568339E+02</rscale>
<asrwt>0</asrwt>
<pdfrwt beam="1">  1        2 0.11366269E+00 0.55568339E+02</pdfrwt>
<pdfrwt beam="2">  1       -2 0.16074970E-03 0.55568339E+02</pdfrwt>
<totfact> 0.85636380E+05</totfact>
</mgrwt>
</event>
<event>
 4    1  0.4837985E-002  0.5587872E+02  0.7818608E-02  0.1415988E+00
          2   -1    0    0    0  501  0.00000000000E+00  0.00000000000E+00  0.17579445854E+04  0.17579445854E+04  0.25500000000E-02 0. -1.
         -2   -1    0    0  501    0 -0.00000000000E+00 -0.00000000000E+00 -0.44404213130E+00  0.44404945318E+00  0.25500000000E-02 0. -1.
          2    1    1    2    0  502  0.12485254403E+02  0.18148304647E+02  0.33793595828E+03  0.33865314770E+03  0.25500000000E-02 0. -1.
         -2    1    1    2  502    0 -0.12485254403E+02 -0.18148304647E+02  0.14195645850E+04  0.14197354871E+04  0.25500000000E-02 0. -1.
<mgrwt>
<rscale>  0 0.55878722E+02</rscale>
<asrwt>0</asrwt>
<pdfrwt beam="1">  1        2 0.27045672E+00 0.55878722E+02</pdfrwt>
<pdfrwt beam="2">  1       -2 0.68313801E-04 0.55878722E+02</pdfrwt>
<totfact> 0.76862060E+05</totfact>
</mgrwt>
</event>
<event>
 4    1  0.4837985E-002  0.5677260E+02  0.7818608E-02  0.1411897E+00
          2   -1    0    0    0  501  0.00000000000E+00  0.00000000000E+00  0.40168147200E+03  0.40168147201E+03  0.25500000000E-02 0. -1.
         -2   -1    0    0  501    0 -0.00000000000E+00 -0.00000000000E+00 -0.20060216236E+01  0.20060232443E+01  0.25500000000E-02 0. -1.
          2    1    1    2    0  502  0.22369085607E+02  0.12069651139E+02  0.10997094729E+03  0.11287010997E+03  0.25500000000E-02 0.  1.
         -2    1    1    2  502    0 -0.22369085607E+02 -0.12069651139E+02  0.28970450309E+03  0.29081738528E+03  0.25500000000E-02 0.  1.
<mgrwt>
<rscale>  0 0.56772601E+02</rscale>
<asrwt>0</asrwt>
<pdfrwt beam="1">  1        2 0.61797152E-01 0.56772601E+02</pdfrwt>
<pdfrwt beam="2">  1       -2 0.30861882E-03 0.56772601E+02</pdfrwt>
<totfact> 0.68095518E+05</totfact>
</mgrwt>
</event>
<event>
 4    1  0.4837985E-002  0.4222278E+02  0.7818608E-02  0.1492463E+00
         -2   -1    0    0  501    0 -0.00000000000E+00  0.00000000000E+00  0.60744548697E+00  0.60745083928E+00  0.25500000000E-02 0. -1.
          2   -1    0    0    0  501  0.00000000000E+00 -0.00000000000E+00 -0.73371008124E+03  0.73371008125E+03  0.25500000000E-02 0. -1.
          2    1    1    2    0  502 -0.20243338446E+02  0.50196734465E+01 -0.42344296597E+03  0.42395628939E+03  0.25500000000E-02 0.  1.
         -2    1    1    2  502    0  0.20243338446E+02 -0.50196734465E+01 -0.30965966978E+03  0.31036124270E+03  0.25500000000E-02 0.  1.
<mgrwt>
<rscale>  0 0.42222783E+02</rscale>
<asrwt>0</asrwt>
<pdfrwt beam="2">  1        2 0.11287777E+00 0.42222783E+02</pdfrwt>
<pdfrwt beam="1">  1       -2 0.93454151E-04 0.42222783E+02</pdfrwt>
<totfact> 0.16798179E+06</totfact>
</mgrwt>
</event>
<event>
 4    1  0.4837985E-002  0.4672730E+02  0.7818608E-02  0.1463838E+00
         -2   -1    0    0  501    0 -0.00000000000E+00  0.00000000000E+00  0.44476013089E+02  0.44476013162E+02  0.25500000000E-02 0.  1.
          2   -1    0    0    0  501  0.00000000000E+00 -0.00000000000E+00 -0.12273134009E+02  0.12273134274E+02  0.25500000000E-02 0.  1.
          2    1    1    2    0  502  0.14254560799E+02  0.17821155067E+02  0.22182796466E+02  0.31825501364E+02  0.25500000000E-02 0.  1.
         -2    1    1    2  502    0 -0.14254560799E+02 -0.17821155067E+02  0.10020082613E+02  0.24923646073E+02  0.25500000000E-02 0.  1.
<mgrwt>
<rscale>  0 0.46727297E+02</rscale>
<asrwt>0</asrwt>
<pdfrwt beam="2">  1        2 0.18881745E-02 0.46727297E+02</pdfrwt>
<pdfrwt beam="1">  1       -2 0.68424635E-02 0.46727297E+02</pdfrwt>
<totfact> 0.48887139E+05</totfact>
</mgrwt>
</event>
<event>
 4    1  0.4837985E-002  0.9514285E+02  0.7818608E-02  0.1290855E+00
          2   -1    0    0    0  501  0.00000000000E+00  0.00000000000E+00  0.13810642466E+04  0.13810642466E+04  0.25500000000E-02 0.  1.
         -2   -1    0    0  501    0 -0.00000000000E+00 -0.00000000000E+00 -0.16386195588E+01  0.16386215430E+01  0.25500000000E-02 0.  1.
          2    1    1    2    0  502  0.23212668032E+02  0.25169424369E+02  0.20974971557E+03  0.21252593034E+03  0.25500000000E-02 0. -1.
         -2    1    1    2  502    0 -0.23212668032E+02 -0.25169424369E+02  0.11696759114E+04  0.11701769378E+04  0.25500000000E-02 0. -1.
<mgrwt>
<rscale>  0 0.95142845E+02</rscale>
<asrwt>0</asrwt>
<pdfrwt beam="1">  1        2 0.21247259E+00 0.95142845E+02</pdfrwt>
<pdfrwt beam="2">  1       -2 0.25209409E-03 0.95142845E+02</pdfrwt>
<totfact> 0.21655298E+05</totfact>
</mgrwt>
</event>
<event>
 4    1  0.4837985E-002  0.5432153E+02  0.7818608E-02  0.1423335E+00
          2   -1    0    0    0  501  0.00000000000E+00  0.00000000000E+00  0.89034861853E+02  0.89034861890E+02  0.25500000000E-02 0.  1.
         -2   -1    0    0  501    0 -0.00000000000E+00 -0.00000000000E+00 -0.82855982731E+01  0.82855986655E+01  0.25500000000E-02 0.  1.
          2    1    1    2    0  502 -0.25523139383E+02  0.70032552154E+01  0.51306234741E+02  0.57730459528E+02  0.25500000000E-02 0.  1.
         -2    1    1    2  502    0  0.25523139383E+02 -0.70032552154E+01  0.29443028839E+02  0.39590001027E+02  0.25500000000E-02 0.  1.
<mgrwt>
<rscale>  0 0.54321529E+02</rscale>
<asrwt>0</asrwt>
<pdfrwt beam="1">  1        2 0.13697672E-01 0.54321529E+02</pdfrwt>
<pdfrwt beam="2">  1       -2 0.12747074E-02 0.54321529E+02</pdfrwt>
<totfact> 0.47047011E+05</totfact>
</mgrwt>
</event>
<event>
 4    1  0.4837985E-002  0.9106197E+02  0.7818608E-02  0.1300300E+00
          2   -1    0    0    0  501  0.00000000000E+00  0.00000000000E+00  0.29418470810E+01  0.29418481862E+01  0.25500000000E-02 0.  1.
         -2   -1    0    0  501    0 -0.00000000000E+00 -0.00000000000E+00 -0.70468318972E+03  0.70468318972E+03  0.25500000000E-02 0.  1.
          2    1    1    2    0  502  0.41489106799E+02 -0.81667986870E+01 -0.48206344210E+03  0.48391446021E+03  0.25500000000E-02 0. -1.
         -2    1    1    2  502    0 -0.41489106799E+02  0.81667986870E+01 -0.21967790053E+03  0.22371057769E+03  0.25500000000E-02 0. -1.
<mgrwt>
<rscale>  0 0.91061970E+02</rscale>
<asrwt>0</asrwt>
<pdfrwt beam="1">  1        2 0.45259250E-03 0.91061970E+02</pdfrwt>
<pdfrwt beam="2">  1       -2 0.10841266E+00 0.91061970E+02</pdfrwt>
<totfact> 0.27100122E+04</totfact>
</mgrwt>
</event>
<event>
 4    1  0.4837985E-002  0.4071565E+02  0.7818608E-02  0.1503010E+00
         -2   -1    0    0  501    0 -0.00000000000E+00  0.00000000000E+00  0.50860644918E+02  0.50860644982E+02  0.25500000000E-02 0.  1.
          2   -1    0    0    0  501  0.00000000000E+00 -0.00000000000E+00 -0.81485598355E+01  0.81485602345E+01  0.25500000000E-02 0.  1.
          2    1    1    2    0  502 -0.15832888969E+02 -0.12479668086E+02  0.25460026897E+02  0.32475151497E+02  0.25500000000E-02 0. -1.
         -2    1    1    2  502    0  0.15832888969E+02  0.12479668086E+02  0.17252058186E+02  0.26534053720E+02  0.25500000000E-02 0. -1.
<mgrwt>
<rscale>  0 0.40715649E+02</rscale>
<asrwt>0</asrwt>
<pdfrwt beam="2">  1        2 0.12536246E-02 0.40715649E+02</pdfrwt>
<pdfrwt beam="1">  1       -2 0.78247149E-02 0.40715649E+02</pdfrwt>
<totfact> 0.66386741E+05</totfact>
</mgrwt>
</event>
<event>
 4    1  0.4837985E-002  0.4903411E+02  0.7818608E-02  0.1450622E+00
          2   -1    0    0    0  501  0.00000000000E+00  0.00000000000E+00  0.29992432719E+04  0.29992432719E+04  0.25500000000E-02 0. -1.
         -2   -1    0    0  501    0 -0.00000000000E+00 -0.00000000000E+00 -0.20040439952E+00  0.20042062231E+00  0.25500000000E-02 0. -1.
          2    1    1    2    0  502 -0.21518117938E+02  0.11519803837E+02  0.16410171719E+04  0.16411986759E+04  0.25500000000E-02 0.  1.
         -2    1    1    2  502    0  0.21518117938E+02 -0.11519803837E+02  0.13580256956E+04  0.13582450166E+04  0.25500000000E-02 0.  1.
<mgrwt>
<rscale>  0 0.49034106E+02</rscale>
<asrwt>0</asrwt>
<pdfrwt beam="1">  1        2 0.46144793E+00 0.49034106E+02</pdfrwt>
<pdfrwt beam="2">  1       -2 0.30830964E-04 0.49034106E+02</pdfrwt>
<totfact> 0.51152336E+05</totfact>
</mgrwt>
</event>
<event>
 4    1  0.4837985E-002  0.4271893E+02  0.7818608E-02  0.1489106E+00
          2   -1    0    0    0  501  0.00000000000E+00  0.00000000000E+00  0.30126050291E+03  0.30126050292E+03  0.25500000000E-02 0.  1.
         -2   -1    0    0  501    0 -0.00000000000E+00 -0.00000000000E+00 -0.15143913966E+01  0.15143935435E+01  0.25500000000E-02 0.  1.
          2    1    1    2    0  502 -0.18353940651E+02 -0.85139965886E+01  0.10134942172E+03  0.10334921656E+03  0.25500000000E-02 0.  1.
         -2    1    1    2  502    0  0.18353940651E+02  0.85139965886E+01  0.19839668980E+03  0.19942567990E+03  0.25500000000E-02 0.  1.
<mgrwt>
<rscale>  0 0.42718925E+02</rscale>
<asrwt>0</asrwt>
<pdfrwt beam="1">  1        2 0.46347723E-01 0.42718925E+02</pdfrwt>
<pdfrwt beam="2">  1       -2 0.23298369E-03 0.42718925E+02</pdfrwt>
<totfact> 0.12487332E+06</totfact>
</mgrwt>
</event>
<event>
 4    1  0.4837985E-002  0.4702121E+02  0.7818608E-02  0.1462104E+00
          2   -1    0    0    0  501  0.00000000000E+00  0.00000000000E+00  0.64741916275E+01  0.64741921297E+01  0.25500000000E-02 0. -1.
         -2   -1    0    0  501    0 -0.00000000000E+00 -0.00000000000E+00 -0.85377233393E+02  0.85377233432E+02  0.25500000000E-02 0. -1.
          2    1    1    2    0  502 -0.18152610164E+02  0.86701541492E+01 -0.15682537813E+02  0.25507466113E+02  0.25500000000E-02 0.  1.
         -2    1    1    2  502    0  0.18152610164E+02 -0.86701541492E+01 -0.63220503953E+02  0.66343959449E+02  0.25500000000E-02 0.  1.
<mgrwt>
<rscale>  0 0.47021212E+02</rscale>
<asrwt>0</asrwt>
<pdfrwt beam="1">  1        2 0.99602958E-03 0.47021212E+02</pdfrwt>
<pdfrwt beam="2">  1       -2 0.13134958E-01 0.47021212E+02</pdfrwt>
<totfact> 0.42559006E+05</totfact>
</mgrwt>
</event>
<event>
 4    1  0.4837985E-002  0.4587883E+02  0.7818608E-02  0.1468929E+00
         -2   -1    0    0  501    0 -0.00000000000E+00  0.00000000000E+00  0.95486523847E+02  0.95486523882E+02  0.25500000000E-02 0. -1.
          2   -1    0    0    0  501  0.00000000000E+00 -0.00000000000E+00 -0.55109001044E+01  0.55109006944E+01  0.25500000000E-02 0. -1.
          2    1    1    2    0  502  0.19012895787E+02  0.66094603023E+01  0.20768309613E+02  0.28922272774E+02  0.25500000000E-02 0. -1.
         -2    1    1    2  502    0 -0.19012895787E+02 -0.66094603023E+01  0.69207314130E+02  0.72075151802E+02  0.25500000000E-02 0. -1.
<mgrwt>
<rscale>  0 0.45878828E+02</rscale>
<asrwt>0</asrwt>
<pdfrwt beam="2">  1        2 0.84783087E-03 0.45878828E+02</pdfrwt>
<pdfrwt beam="1">  1       -2 0.14690234E-01 0.45878828E+02</pdfrwt>
<totfact> 0.44004986E+05</totfact>
</mgrwt>
</event>
<event>
 4    1  0.4837985E-002  0.1766321E+03  0.7818608E-02  0.1171103E+00
          2   -1    0    0    0  501  0.00000000000E+00  0.00000000000E+00  0.88252258314E+02  0.88252258351E+02  0.25500000000E-02 0.  1.
         -2   -1    0    0  501    0 -0.00000000000E+00 -0.00000000000E+00 -0.88379898193E+02  0.88379898230E+02  0.25500000000E-02 0.  1.
          2    1    1    2    0  502  0.83719912621E+02  0.21943259485E+02  0.17520131849E+02  0.88303371581E+02  0.25500000000E-02 0.  1.
         -2    1    1    2  502    0 -0.83719912621E+02 -0.21943259485E+02 -0.17647771728E+02  0.88328785000E+02  0.25500000000E-02 0.  1.
<mgrwt>
<rscale>  0 0.17663211E+03</rscale>
<asrwt>0</asrwt>
<pdfrwt beam="1">  1        2 0.13577270E-01 0.17663211E+03</pdfrwt>
<pdfrwt beam="2">  1       -2 0.13596907E-01 0.17663211E+03</pdfrwt>
<totfact> 0.16858574E+04</totfact>
</mgrwt>
</event>
<event>
 4    1  0.4837985E-002  0.4832438E+02  0.7818608E-02  0.1454595E+00
          2   -1    0    0    0  501  0.00000000000E+00  0.00000000000E+00  0.35302220910E+02  0.35302221002E+02  0.25500000000E-02 0. -1.
         -2   -1    0    0  501    0 -0.00000000000E+00 -0.00000000000E+00 -0.16537524364E+02  0.16537524561E+02  0.25500000000E-02 0. -1.
          2    1    1    2    0  502 -0.90674666728E+01  0.19230567300E+02 -0.29321723517E+01  0.21462323075E+02  0.25500000000E-02 0.  1.
         -2    1    1    2  502    0  0.90674666728E+01 -0.19230567300E+02  0.21696868898E+02  0.30377422488E+02  0.25500000000E-02 0.  1.
<mgrwt>
<rscale>  0 0.48324377E+02</rscale>
<asrwt>0</asrwt>
<pdfrwt beam="1">  1        2 0.54311109E-02 0.48324377E+02</pdfrwt>
<pdfrwt beam="2">  1       -2 0.25442345E-02 0.48324377E+02</pdfrwt>
<totfact> 0.52672597E+05</totfact>
</mgrwt>
</event>
<event>
 4    1  0.4837985E-002  0.7558257E+02  0.7818608E-02  0.1342076E+00
         -2   -1    0    0  501    0 -0.00000000000E+00  0.00000000000E+00  0.20376658339E+01  0.20376674295E+01  0.25500000000E-02 0. -1.
          2   -1    0    0    0  501  0.00000000000E+00 -0.00000000000E+00 -0.70089054784E+03  0.70089054784E+03  0.25500000000E-02 0. -1.
          2    1    1    2    0  502  0.24319970041E+01  0.36764318233E+02 -0.27125461940E+03  0.27374549906E+03  0.25500000000E-02 0.  1.
         -2    1    1    2  502    0 -0.24319970041E+01 -0.36764318233E+02 -0.42759826260E+03  0.42918271621E+03  0.25500000000E-02 0.  1.
<mgrwt>
<rscale>  0 0.75582572E+02</rscale>
<asrwt>0</asrwt>
<pdfrwt beam="2">  1        2 0.10782912E+00 0.75582572E+02</pdfrwt>
<pdfrwt beam="1">  1       -2 0.31348773E-03 0.75582572E+02</pdfrwt>
<totfact> 0.38721087E+05</totfact>
</mgrwt>
</event>
<event>
 4    1  0.4837985E-002  0.4081567E+02  0.7818608E-02  0.1502293E+00
          2   -1    0    0    0  501  0.00000000000E+00  0.00000000000E+00  0.59423062456E+00  0.59423609589E+00  0.25500000000E-02 0.  1.
         -2   -1    0    0  501    0 -0.00000000000E+00 -0.00000000000E+00 -0.70086892429E+03  0.70086892429E+03  0.25500000000E-02 0.  1.
          2    1    1    2    0  502  0.17778759176E+02 -0.93993301152E+01 -0.40979079897E+03  0.41028396339E+03  0.25500000000E-02 0.  1.
         -2    1    1    2  502    0 -0.17778759176E+02  0.93993301152E+01 -0.29048389469E+03  0.29117919700E+03  0.25500000000E-02 0.  1.
<mgrwt>
<rscale>  0 0.40815669E+02</rscale>
<asrwt>0</asrwt>
<pdfrwt beam="1">  1        2 0.91421078E-04 0.40815669E+02</pdfrwt>
<pdfrwt beam="2">  1       -2 0.10782533E+00 0.40815669E+02</pdfrwt>
<totfact> 0.20272718E+05</totfact>
</mgrwt>
</event>
<event>
 4    1  0.4837985E-002  0.1039520E+03  0.7818608E-02  0.1272198E+00
         -2   -1    0    0  501    0 -0.00000000000E+00  0.00000000000E+00  0.91889486448E+00  0.91889840269E+00  0.25500000000E-02 0. -1.
          2   -1    0    0    0  501  0.00000000000E+00 -0.00000000000E+00 -0.29399459950E+04  0.29399459950E+04  0.25500000000E-02 0. -1.
          2    1    1    2    0  502  0.45751567608E+02 -0.22303411825E+02 -0.11716438768E+04  0.11727489169E+04  0.25500000000E-02 0. -1.
         -2    1    1    2  502    0 -0.45751567608E+02  0.22303411825E+02 -0.17673832234E+04  0.17681159765E+04  0.25500000000E-02 0. -1.
<mgrwt>
<rscale>  0 0.10395204E+03</rscale>
<asrwt>0</asrwt>
<pdfrwt beam="2">  1        2 0.45229185E+00 0.10395204E+03</pdfrwt>
<pdfrwt beam="1">  1       -2 0.14137107E-03 0.10395204E+03</pdfrwt>
<totfact> 0.75406939E+04</totfact>
</mgrwt>
</event>
<event>
 4    1  0.4837985E-002  0.4667129E+02  0.7818608E-02  0.1464170E+00
          2   -1    0    0    0  501  0.00000000000E+00  0.00000000000E+00  0.11119180394E+03  0.11119180397E+03  0.25500000000E-02 0. -1.
         -2   -1    0    0  501    0 -0.00000000000E+00 -0.00000000000E+00 -0.48974141828E+01  0.48974148466E+01  0.25500000000E-02 0. -1.
          2    1    1    2    0  502  0.16162589069E+02 -0.15604700091E+02  0.37451770149E+02  0.43673459265E+02  0.25500000000E-02 0.  1.
         -2    1    1    2  502    0 -0.16162589069E+02  0.15604700091E+02  0.68842619605E+02  0.72415759548E+02  0.25500000000E-02 0.  1.
<mgrwt>
<rscale>  0 0.46671291E+02</rscale>
<asrwt>0</asrwt>
<pdfrwt beam="1">  1        2 0.17106430E-01 0.46671291E+02</pdfrwt>
<pdfrwt beam="2">  1       -2 0.75344846E-03 0.46671291E+02</pdfrwt>
<totfact> 0.73243458E+05</totfact>
</mgrwt>
</event>
<event>
 4    1  0.4837985E-002  0.5620000E+02  0.7818608E-02  0.1414508E+00
         -2   -1    0    0  501    0 -0.00000000000E+00  0.00000000000E+00  0.18173303457E+01  0.18173321347E+01  0.25500000000E-02 0. -1.
          2   -1    0    0    0  501  0.00000000000E+00 -0.00000000000E+00 -0.43448871758E+03  0.43448871759E+03  0.25500000000E-02 0. -1.
          2    1    1    2    0  502  0.42957922355E+01  0.27358093329E+02 -0.25331680763E+03  0.25482606644E+03  0.25500000000E-02 0. -1.
         -2    1    1    2  502    0 -0.42957922355E+01 -0.27358093329E+02 -0.17935457960E+03  0.18147998329E+03  0.25500000000E-02 0. -1.
<mgrwt>
<rscale>  0 0.56199997E+02</rscale>
<asrwt>0</asrwt>
<pdfrwt beam="2">  1        2 0.66844335E-01 0.56199997E+02</pdfrwt>
<pdfrwt beam="1">  1       -2 0.27958977E-03 0.56199997E+02</pdfrwt>
<totfact> 0.71728471E+05</totfact>
</mgrwt>
</event>
<event>
 4    1  0.4837985E-002  0.4678194E+02  0.7818608E-02  0.1463514E+00
          2   -1    0    0    0  501  0.00000000000E+00  0.00000000000E+00  0.22014923482E+02  0.22014923630E+02  0.25500000000E-02 0. -1.
         -2   -1    0    0  501    0 -0.00000000000E+00 -0.00000000000E+00 -0.24853029659E+02  0.24853029790E+02  0.25500000000E-02 0. -1.
          2    1    1    2    0  502 -0.18020474711E+02 -0.12729688127E+02 -0.92021894382E+01  0.23905287398E+02  0.25500000000E-02 0. -1.
         -2    1    1    2  502    0  0.18020474711E+02  0.12729688127E+02  0.63640832609E+01  0.22962666023E+02  0.25500000000E-02 0. -1.
<mgrwt>
<rscale>  0 0.46781943E+02</rscale>
<asrwt>0</asrwt>
<pdfrwt beam="1">  1        2 0.33869114E-02 0.46781943E+02</pdfrwt>
<pdfrwt beam="2">  1       -2 0.38235430E-02 0.46781943E+02</pdfrwt>
<totfact> 0.53270947E+05</totfact>
</mgrwt>
</event>
<event>
 4    1  0.4837985E-002  0.4529764E+02  0.7818608E-02  0.1472492E+00
         -2   -1    0    0  501    0 -0.00000000000E+00  0.00000000000E+00  0.14600621837E+02  0.14600622060E+02  0.25500000000E-02 0. -1.
          2   -1    0    0    0  501  0.00000000000E+00 -0.00000000000E+00 -0.35133366418E+02  0.35133366510E+02  0.25500000000E-02 0. -1.
          2    1    1    2    0  502 -0.93671699656E+01  0.19837748107E+02 -0.40857650841E+01  0.22315322224E+02  0.25500000000E-02 0.  1.
         -2    1    1    2  502    0  0.93671699656E+01 -0.19837748107E+02 -0.16446979497E+02  0.27418666346E+02  0.25500000000E-02 0.  1.
<mgrwt>
<rscale>  0 0.45297638E+02</rscale>
<asrwt>0</asrwt>
<pdfrwt beam="2">  1        2 0.54051333E-02 0.45297638E+02</pdfrwt>
<pdfrwt beam="1">  1       -2 0.22462495E-02 0.45297638E+02</pdfrwt>
<totfact> 0.62165771E+05</totfact>
</mgrwt>
</event>
<event>
 4    1  0.4837985E-002  0.5156489E+02  0.7818608E-02  0.1437079E+00
         -2   -1    0    0  501    0 -0.00000000000E+00  0.00000000000E+00  0.83760629031E+02  0.83760629070E+02  0.25500000000E-02 0. -1.
          2   -1    0    0    0  501  0.00000000000E+00 -0.00000000000E+00 -0.79361198088E+01  0.79361202185E+01  0.25500000000E-02 0. -1.
          2    1    1    2    0  502 -0.84939485451E+01  0.23758319852E+02  0.47343753007E+02  0.53647328726E+02  0.25500000000E-02 0. -1.
         -2    1    1    2  502    0  0.84939485451E+01 -0.23758319852E+02  0.28480756215E+02  0.38049420563E+02  0.25500000000E-02 0. -1.
<mgrwt>
<rscale>  0 0.51564888E+02</rscale>
<asrwt>0</asrwt>
<pdfrwt beam="2">  1        2 0.12209415E-02 0.51564888E+02</pdfrwt>
<pdfrwt beam="1">  1       -2 0.12886251E-01 0.51564888E+02</pdfrwt>
<totfact> 0.34165525E+05</totfact>
</mgrwt>
</event>
<event>
 4    1  0.4837985E-002  0.7774084E+02  0.7818608E-02  0.1335588E+00
          2   -1    0    0    0  501  0.00000000000E+00  0.00000000000E+00  0.11728737599E+04  0.11728737599E+04  0.25500000000E-02 0. -1.
         -2   -1    0    0  501    0 -0.00000000000E+00 -0.00000000000E+00 -0.12882103372E+01  0.12882128610E+01  0.25500000000E-02 0. -1.
          2    1    1    2    0  502  0.30557432083E+02  0.11378355563E+02  0.90536241108E+03  0.90594940203E+03  0.25500000000E-02 0.  1.
         -2    1    1    2  502    0 -0.30557432083E+02 -0.11378355563E+02  0.26622313848E+03  0.26821257073E+03  0.25500000000E-02 0.  1.
<mgrwt>
<rscale>  0 0.77740841E+02</rscale>
<asrwt>0</asrwt>
<pdfrwt beam="1">  1        2 0.18044212E+00 0.77740841E+02</pdfrwt>
<pdfrwt beam="2">  1       -2 0.19818640E-03 0.77740841E+02</pdfrwt>
<totfact> 0.37797212E+05</totfact>
</mgrwt>
</event>
<event>
 4    1  0.4837985E-002  0.4377237E+02  0.7818608E-02  0.1482154E+00
          2   -1    0    0    0  501  0.00000000000E+00  0.00000000000E+00  0.11083132034E+02  0.11083132327E+02  0.25500000000E-02 0. -1.
         -2   -1    0    0  501    0 -0.00000000000E+00 -0.00000000000E+00 -0.43219296060E+02  0.43219296135E+02  0.25500000000E-02 0. -1.
          2    1    1    2    0  502 -0.15540335431E+02 -0.12663423118E+02 -0.26963938786E+02  0.33599379634E+02  0.25500000000E-02 0.  1.
         -2    1    1    2  502    0  0.15540335431E+02  0.12663423118E+02 -0.51722252401E+01  0.20703048829E+02  0.25500000000E-02 0.  1.
<mgrwt>
<rscale>  0 0.43772374E+02</rscale>
<asrwt>0</asrwt>
<pdfrwt beam="1">  1        2 0.17050973E-02 0.43772374E+02</pdfrwt>
<pdfrwt beam="2">  1       -2 0.66491224E-02 0.43772374E+02</pdfrwt>
<totfact> 0.57372754E+05</totfact>
</mgrwt>
</event>
<event>
 4    1  0.4837985E-002  0.5049158E+02  0.7818608E-02  0.1442708E+00
         -2   -1    0    0  501    0 -0.00000000000E+00  0.00000000000E+00  0.58155328015E+00  0.58155887075E+00  0.25500000000E-02 0. -1.
          2   -1    0    0    0  501  0.00000000000E+00 -0.00000000000E+00 -0.10959387209E+04  0.10959387209E+04  0.25500000000E-02 0. -1.
          2    1    1    2    0  502 -0.48425460395E+01 -0.24362726832E+02 -0.64566272070E+03  0.64614034204E+03  0.25500000000E-02 0.  1.
         -2    1    1    2  502    0  0.48425460395E+01  0.24362726832E+02 -0.44969444695E+03  0.45037993776E+03  0.25500000000E-02 0.  1.
<mgrwt>
<rscale>  0 0.50491577E+02</rscale>
<asrwt>0</asrwt>
<pdfrwt beam="2">  1        2 0.16860430E+00 0.50491577E+02</pdfrwt>
<pdfrwt beam="1">  1       -2 0.89471043E-04 0.50491577E+02</pdfrwt>
<totfact> 0.11311617E+06</totfact>
</mgrwt>
</event>
<event>
 4    1  0.4837985E-002  0.4045715E+02  0.7818608E-02  0.1504874E+00
          2   -1    0    0    0  501  0.00000000000E+00  0.00000000000E+00  0.42418158448E+02  0.42418158525E+02  0.25500000000E-02 0.  1.
         -2   -1    0    0  501    0 -0.00000000000E+00 -0.00000000000E+00 -0.96467015948E+01  0.96467019318E+01  0.25500000000E-02 0.  1.
          2    1    1    2    0  502  0.15867313985E+02  0.12439129678E+02  0.18497098599E+02  0.27361400975E+02  0.25500000000E-02 0. -1.
         -2    1    1    2  502    0 -0.15867313985E+02 -0.12439129678E+02  0.14274358254E+02  0.24703459481E+02  0.25500000000E-02 0. -1.
<mgrwt>
<rscale>  0 0.40457154E+02</rscale>
<asrwt>0</asrwt>
<pdfrwt beam="1">  1        2 0.65258705E-02 0.40457154E+02</pdfrwt>
<pdfrwt beam="2">  1       -2 0.14841080E-02 0.40457154E+02</pdfrwt>
<totfact> 0.85290677E+05</totfact>
</mgrwt>
</event>
<event>
 4    1  0.4837985E-002  0.6917067E+02  0.7818608E-02  0.1362936E+00
         -2   -1    0    0  501    0 -0.00000000000E+00  0.00000000000E+00  0.32573873459E+02  0.32573873559E+02  0.25500000000E-02 0.  1.
          2   -1    0    0    0  501  0.00000000000E+00 -0.00000000000E+00 -0.36721005214E+02  0.36721005303E+02  0.25500000000E-02 0.  1.
          2    1    1    2    0  502 -0.93853317207E+01  0.23442382962E+02 -0.25748938148E+02  0.36064353491E+02  0.25500000000E-02 0. -1.
         -2    1    1    2  502    0  0.93853317207E+01 -0.23442382962E+02  0.21601806393E+02  0.33230525370E+02  0.25500000000E-02 0. -1.
<mgrwt>
<rscale>  0 0.69170670E+02</rscale>
<asrwt>0</asrwt>
<pdfrwt beam="2">  1        2 0.56493855E-02 0.69170670E+02</pdfrwt>
<pdfrwt beam="1">  1       -2 0.50113651E-02 0.69170670E+02</pdfrwt>
<totfact> 0.20387486E+05</totfact>
</mgrwt>
</event>
<event>
 4    1  0.4837985E-002  0.5176317E+02  0.7818608E-02  0.1436057E+00
         -2   -1    0    0  501    0 -0.00000000000E+00  0.00000000000E+00  0.24831671036E+01  0.24831684129E+01  0.25500000000E-02 0.  1.
          2   -1    0    0    0  501  0.00000000000E+00 -0.00000000000E+00 -0.26975883613E+03  0.26975883614E+03  0.25500000000E-02 0.  1.
          2    1    1    2    0  502  0.23556898831E+02 -0.89500232733E+01 -0.10260036349E+03  0.10564972785E+03  0.25500000000E-02 0.  1.
         -2    1    1    2  502    0 -0.23556898831E+02  0.89500232733E+01 -0.16467530553E+03  0.16659227671E+03  0.25500000000E-02 0.  1.
<mgrwt>
<rscale>  0 0.51763170E+02</rscale>
<asrwt>0</asrwt>
<pdfrwt beam="2">  1        2 0.41501336E-01 0.51763170E+02</pdfrwt>
<pdfrwt beam="1">  1       -2 0.38202602E-03 0.51763170E+02</pdfrwt>
<totfact> 0.74758632E+05</totfact>
</mgrwt>
</event>
<event>
 4    1  0.4837985E-002  0.4412251E+02  0.7818608E-02  0.1479895E+00
          2   -1    0    0    0  501  0.00000000000E+00  0.00000000000E+00  0.87328944391E+01  0.87328948114E+01  0.25500000000E-02 0.  1.
         -2   -1    0    0  501    0 -0.00000000000E+00 -0.00000000000E+00 -0.55731701738E+02  0.55731701796E+02  0.25500000000E-02 0.  1.
          2    1    1    2    0  502  0.17791641705E+02 -0.12663815541E+02 -0.28069514255E+02  0.35564200758E+02  0.25500000000E-02 0. -1.
         -2    1    1    2  502    0 -0.17791641705E+02  0.12663815541E+02 -0.18929293044E+02  0.28900395849E+02  0.25500000000E-02 0. -1.
<mgrwt>
<rscale>  0 0.44122515E+02</rscale>
<asrwt>0</asrwt>
<pdfrwt beam="1">  1        2 0.13435223E-02 0.44122515E+02</pdfrwt>
<pdfrwt beam="2">  1       -2 0.85741077E-02 0.44122515E+02</pdfrwt>
<totfact> 0.53985841E+05</totfact>
</mgrwt>
</event>
<event>
 4    1  0.4837985E-002  0.9991885E+02  0.7818608E-02  0.1280467E+00
          2   -1    0    0    0  501  0.00000000000E+00  0.00000000000E+00  0.59402056710E+01  0.59402062183E+01  0.25500000000E-02 0.  1.
         -2   -1    0    0  501    0 -0.00000000000E+00 -0.00000000000E+00 -0.42017803139E+03  0.42017803140E+03  0.25500000000E-02 0.  1.
          2    1    1    2    0  502  0.21895227804E+02  0.41599676409E+02 -0.13499599612E+03  0.14294702883E+03  0.25500000000E-02 0.  1.
         -2    1    1    2  502    0 -0.21895227804E+02 -0.41599676409E+02 -0.27924182960E+03  0.28317120879E+03  0.25500000000E-02 0.  1.
<mgrwt>
<rscale>  0 0.99918848E+02</rscale>
<asrwt>0</asrwt>
<pdfrwt beam="1">  1        2 0.91387817E-03 0.99918848E+02</pdfrwt>
<pdfrwt beam="2">  1       -2 0.64642751E-01 0.99918848E+02</pdfrwt>
<totfact> 0.32547683E+04</totfact>
</mgrwt>
</event>
<event>
 4    1  0.4837985E-002  0.9654277E+02  0.7818608E-02  0.1287739E+00
          2   -1    0    0    0  501  0.00000000000E+00  0.00000000000E+00  0.11565206644E+04  0.11565206644E+04  0.25500000000E-02 0.  1.
         -2   -1    0    0  501    0 -0.00000000000E+00 -0.00000000000E+00 -0.20147720237E+01  0.20147736374E+01  0.25500000000E-02 0.  1.
          2    1    1    2    0  502  0.98293784516E+01  0.33511874121E+02  0.97714413179E+03  0.97776802805E+03  0.25500000000E-02 0. -1.
         -2    1    1    2  502    0 -0.98293784516E+01 -0.33511874121E+02  0.17736176055E+03  0.18076740995E+03  0.25500000000E-02 0. -1.
<mgrwt>
<rscale>  0 0.96542766E+02</rscale>
<asrwt>0</asrwt>
<pdfrwt beam="1">  1        2 0.17792649E+00 0.96542766E+02</pdfrwt>
<pdfrwt beam="2">  1       -2 0.30996465E-03 0.96542766E+02</pdfrwt>
<totfact> 0.21456788E+05</totfact>
</mgrwt>
</event>
<event>
 4    1  0.4837985E-002  0.1421394E+03  0.7818608E-02  0.1210479E+00
         -2   -1    0    0  501    0 -0.00000000000E+00  0.00000000000E+00  0.65815382661E+03  0.65815382662E+03  0.25500000000E-02 0.  1.
          2   -1    0    0    0  501  0.00000000000E+00 -0.00000000000E+00 -0.76743478940E+01  0.76743483177E+01  0.25500000000E-02 0.  1.
          2    1    1    2    0  502  0.28572625889E+02  0.11650476592E+02  0.25340990300E+02  0.39928615689E+02  0.25500000000E-02 0.  1.
         -2    1    1    2  502    0 -0.28572625889E+02 -0.11650476592E+02  0.62513848842E+03  0.62589955925E+03  0.25500000000E-02 0.  1.
<mgrwt>
<rscale>  0 0.14213939E+03</rscale>
<asrwt>0</asrwt>
<pdfrwt beam="2">  1        2 0.11806690E-02 0.14213939E+03</pdfrwt>
<pdfrwt beam="1">  1       -2 0.10125443E+00 0.14213939E+03</pdfrwt>
<totfact> 0.89555856E+03</totfact>
</mgrwt>
</event>
<event>
 4    1  0.4837985E-002  0.4891532E+02  0.7818608E-02  0.1451281E+00
          2   -1    0    0    0  501  0.00000000000E+00  0.00000000000E+00  0.42646789497E+02  0.42646789573E+02  0.25500000000E-02 0. -1.
         -2   -1    0    0  501    0 -0.00000000000E+00 -0.00000000000E+00 -0.14026312130E+02  0.14026312362E+02  0.25500000000E-02 0. -1.
          2    1    1    2    0  502  0.15096912731E+02  0.13487088595E+02  0.30211262193E+02  0.36366725211E+02  0.25500000000E-02 0. -1.
         -2    1    1    2  502    0 -0.15096912731E+02 -0.13487088595E+02 -0.15907848267E+01  0.20306376724E+02  0.25500000000E-02 0. -1.
<mgrwt>
<rscale>  0 0.48915322E+02</rscale>
<asrwt>0</asrwt>
<pdfrwt beam="1">  1        2 0.65610446E-02 0.48915322E+02</pdfrwt>
<pdfrwt beam="2">  1       -2 0.21578942E-02 0.48915322E+02</pdfrwt>
<totfact> 0.52718185E+05</totfact>
</mgrwt>
</event>
<event>
 4    1  0.4837985E-002  0.7180479E+02  0.7818608E-02  0.1354061E+00
         -2   -1    0    0  501    0 -0.00000000000E+00  0.00000000000E+00  0.63433518266E+00  0.63434030809E+00  0.25500000000E-02 0.  1.
          2   -1    0    0    0  501  0.00000000000E+00 -0.00000000000E+00 -0.20320122073E+04  0.20320122073E+04  0.25500000000E-02 0.  1.
          2    1    1    2    0  502  0.70153693807E+01  0.35070559069E+02 -0.11044085926E+04  0.11049875560E+04  0.25500000000E-02 0.  1.
         -2    1    1    2  502    0 -0.70153693807E+01 -0.35070559069E+02 -0.92696927952E+03  0.92765899161E+03  0.25500000000E-02 0.  1.
<mgrwt>
<rscale>  0 0.71804792E+02</rscale>
<asrwt>0</asrwt>
<pdfrwt beam="2">  1        2 0.31261205E+00 0.71804792E+02</pdfrwt>
<pdfrwt beam="1">  1       -2 0.97592049E-04 0.71804792E+02</pdfrwt>
<totfact> 0.36194437E+05</totfact>
</mgrwt>
</event>
<event>
 4    1  0.4837985E-002  0.9630828E+02  0.7818608E-02  0.1288256E+00
         -2   -1    0    0  501    0 -0.00000000000E+00  0.00000000000E+00  0.18515275752E+02  0.18515275928E+02  0.25500000000E-02 0. -1.
          2   -1    0    0    0  501  0.00000000000E+00 -0.00000000000E+00 -0.12523828232E+03  0.12523828235E+03  0.25500000000E-02 0. -1.
          2    1    1    2    0  502  0.13946030142E+01  0.35714000919E+02 -0.51932445216E+01  0.36116541561E+02  0.25500000000E-02 0. -1.
         -2    1    1    2  502    0 -0.13946030142E+01 -0.35714000919E+02 -0.10152976205E+03  0.10763701671E+03  0.25500000000E-02 0. -1.
<mgrwt>
<rscale>  0 0.96308283E+02</rscale>
<asrwt>0</asrwt>
<pdfrwt beam="2">  1        2 0.19267427E-01 0.96308283E+02</pdfrwt>
<pdfrwt beam="1">  1       -2 0.28485041E-02 0.96308283E+02</pdfrwt>
<totfact> 0.11330980E+05</totfact>
</mgrwt>
</event>
<event>
 4    1  0.4837985E-002  0.5622982E+02  0.7818608E-02  0.1414371E+00
          2   -1    0    0    0  501  0.00000000000E+00  0.00000000000E+00  0.26110582432E+02  0.26110582557E+02  0.25500000000E-02 0. -1.
         -2   -1    0    0  501    0 -0.00000000000E+00 -0.00000000000E+00 -0.30273095626E+02  0.30273095733E+02  0.25500000000E-02 0. -1.
          2    1    1    2    0  502 -0.18671486278E+02  0.11676930305E+02  0.15444354366E+02  0.26898014601E+02  0.25500000000E-02 0.  1.
         -2    1    1    2  502    0  0.18671486278E+02 -0.11676930305E+02 -0.19606867560E+02  0.29485663689E+02  0.25500000000E-02 0.  1.
<mgrwt>
<rscale>  0 0.56229820E+02</rscale>
<asrwt>0</asrwt>
<pdfrwt beam="1">  1        2 0.40170127E-02 0.56229820E+02</pdfrwt>
<pdfrwt beam="2">  1       -2 0.46573993E-02 0.56229820E+02</pdfrwt>
<totfact> 0.33586318E+05</totfact>
</mgrwt>
</event>
<event>
 4    1  0.4837985E-002  0.4926220E+02  0.7818608E-02  0.1449362E+00
         -2   -1    0    0  501    0 -0.00000000000E+00  0.00000000000E+00  0.40190657600E+00  0.40191466549E+00  0.25500000000E-02 0. -1.
          2   -1    0    0    0  501  0.00000000000E+00 -0.00000000000E+00 -0.15095173240E+04  0.15095173240E+04  0.25500000000E-02 0. -1.
          2    1    1    2    0  502 -0.21466992125E+02 -0.79675586133E+01 -0.47636630415E+03  0.47691631287E+03  0.25500000000E-02 0.  1.
         -2    1    1    2  502    0  0.21466992125E+02  0.79675586133E+01 -0.10327491133E+04  0.10330029258E+04  0.25500000000E-02 0.  1.
<mgrwt>
<rscale>  0 0.49262198E+02</rscale>
<asrwt>0</asrwt>
<pdfrwt beam="2">  1        2 0.23222890E+00 0.49262198E+02</pdfrwt>
<pdfrwt beam="1">  1       -2 0.61833612E-04 0.49262198E+02</pdfrwt>
<totfact> 0.11344540E+06</totfact>
</mgrwt>
</event>
<event>
 4    1  0.4837985E-002  0.6430373E+02  0.7818608E-02  0.1380610E+00
          2   -1    0    0    0  501  0.00000000000E+00  0.00000000000E+00  0.37216223781E+02  0.37216223868E+02  0.25500000000E-02 0.  1.
         -2   -1    0    0  501    0 -0.00000000000E+00 -0.00000000000E+00 -0.27776657004E+02  0.27776657121E+02  0.25500000000E-02 0.  1.
          2    1    1    2    0  502 -0.31820119446E+02 -0.29238346135E+01  0.11216482689E+01  0.31973847309E+02  0.25500000000E-02 0.  1.
         -2    1    1    2  502    0  0.31820119446E+02  0.29238346135E+01  0.83179185075E+01  0.33019033680E+02  0.25500000000E-02 0.  1.
<mgrwt>
<rscale>  0 0.64303726E+02</rscale>
<asrwt>0</asrwt>
<pdfrwt beam="1">  1        2 0.57255729E-02 0.64303726E+02</pdfrwt>
<pdfrwt beam="2">  1       -2 0.42733319E-02 0.64303726E+02</pdfrwt>
<totfact> 0.24954310E+05</totfact>
</mgrwt>
</event>
<event>
 4    1  0.4837985E-002  0.7480031E+02  0.7818608E-02  0.1344491E+00
         -2   -1    0    0  501    0 -0.00000000000E+00  0.00000000000E+00  0.33295093549E+01  0.33295103314E+01  0.25500000000E-02 0.  1.
          2   -1    0    0    0  501  0.00000000000E+00 -0.00000000000E+00 -0.42011334023E+03  0.42011334024E+03  0.25500000000E-02 0.  1.
          2    1    1    2    0  502  0.97891889170E+01  0.26103124738E+02 -0.67256339991E+02  0.72805333707E+02  0.25500000000E-02 0.  1.
         -2    1    1    2  502    0 -0.97891889170E+01 -0.26103124738E+02 -0.34952749089E+03  0.35063751687E+03  0.25500000000E-02 0.  1.
<mgrwt>
<rscale>  0 0.74800308E+02</rscale>
<asrwt>0</asrwt>
<pdfrwt beam="2">  1        2 0.64632780E-01 0.74800308E+02</pdfrwt>
<pdfrwt beam="1">  1       -2 0.51223262E-03 0.74800308E+02</pdfrwt>
<totfact> 0.34155274E+05</totfact>
</mgrwt>
</event>
<event>
 4    1  0.4837985E-002  0.1375398E+03  0.7818608E-02  0.1216678E+00
          2   -1    0    0    0  501  0.00000000000E+00  0.00000000000E+00  0.36055246905E+03  0.36055246906E+03  0.25500000000E-02 0.  1.
         -2   -1    0    0  501    0 -0.00000000000E+00 -0.00000000000E+00 -0.13116814400E+02  0.13116814648E+02  0.25500000000E-02 0.  1.
          2    1    1    2    0  502  0.46752770534E+02 -0.47223834917E+02  0.12562282310E+03  0.14211617018E+03  0.25500000000E-02 0.  1.
         -2    1    1    2  502    0 -0.46752770534E+02  0.47223834917E+02  0.22181283155E+03  0.23155311353E+03  0.25500000000E-02 0.  1.
<mgrwt>
<rscale>  0 0.13753981E+03</rscale>
<asrwt>0</asrwt>
<pdfrwt beam="1">  1        2 0.55469601E-01 0.13753981E+03</pdfrwt>
<pdfrwt beam="2">  1       -2 0.20179718E-02 0.13753981E+03</pdfrwt>
<totfact> 0.62808506E+04</totfact>
</mgrwt>
</event>
<event>
 4    1  0.4837985E-002  0.4167301E+02  0.7818608E-02  0.1496249E+00
         -2   -1    0    0  501    0 -0.00000000000E+00  0.00000000000E+00  0.46646075657E+01  0.46646082627E+01  0.25500000000E-02 0.  1.
          2   -1    0    0    0  501  0.00000000000E+00 -0.00000000000E+00 -0.93075352443E+02  0.93075352478E+02  0.25500000000E-02 0.  1.
          2    1    1    2    0  502  0.12505547515E+02 -0.16088214551E+02 -0.54412763609E+02  0.58103082673E+02  0.25500000000E-02 0. -1.
         -2    1    1    2  502    0 -0.12505547515E+02  0.16088214551E+02 -0.33997981268E+02  0.39636878067E+02  0.25500000000E-02 0. -1.
<mgrwt>
<rscale>  0 0.41673014E+02</rscale>
<asrwt>0</asrwt>
<pdfrwt beam="2">  1        2 0.14319284E-01 0.41673014E+02</pdfrwt>
<pdfrwt beam="1">  1       -2 0.71763206E-03 0.41673014E+02</pdfrwt>
<totfact> 0.92784344E+05</totfact>
</mgrwt>
</event>
<event>
 4    1  0.4837985E-002  0.4664626E+02  0.7818608E-02  0.1464318E+00
          2   -1    0    0    0  501  0.00000000000E+00  0.00000000000E+00  0.72693433528E+02  0.72693433572E+02  0.25500000000E-02 0. -1.
         -2   -1    0    0  501    0 -0.00000000000E+00 -0.00000000000E+00 -0.74830483359E+01  0.74830487704E+01  0.25500000000E-02 0. -1.
          2    1    1    2    0  502 -0.21443452096E+02  0.58507475509E+01  0.20461569006E+02  0.30211400123E+02  0.25500000000E-02 0. -1.
         -2    1    1    2  502    0  0.21443452096E+02 -0.58507475509E+01  0.44748816185E+02  0.49965082220E+02  0.25500000000E-02 0. -1.
<mgrwt>
<rscale>  0 0.46646264E+02</rscale>
<asrwt>0</asrwt>
<pdfrwt beam="1">  1        2 0.11183606E-01 0.46646264E+02</pdfrwt>
<pdfrwt beam="2">  1       -2 0.11512382E-02 0.46646264E+02</pdfrwt>
<totfact> 0.66095226E+05</totfact>
</mgrwt>
</event>
<event>
 4    1  0.4837985E-002  0.6150301E+02  0.7818608E-02  0.1391630E+00
         -2   -1    0    0  501    0 -0.00000000000E+00  0.00000000000E+00  0.10914690247E+01  0.10914720035E+01  0.25500000000E-02 0. -1.
          2   -1    0    0    0  501  0.00000000000E+00 -0.00000000000E+00 -0.86640468601E+03  0.86640468601E+03  0.25500000000E-02 0. -1.
          2    1    1    2    0  502 -0.13256230139E+02  0.24617191205E+02 -0.25206855238E+03  0.25361444920E+03  0.25500000000E-02 0.  1.
         -2    1    1    2  502    0  0.13256230139E+02 -0.24617191205E+02 -0.61324466460E+03  0.61388170881E+03  0.25500000000E-02 0.  1.
<mgrwt>
<rscale>  0 0.61503014E+02</rscale>
<asrwt>0</asrwt>
<pdfrwt beam="2">  1        2 0.13329248E+00 0.61503014E+02</pdfrwt>
<pdfrwt beam="1">  1       -2 0.16791923E-03 0.61503014E+02</pdfrwt>
<totfact> 0.68174840E+05</totfact>
</mgrwt>
</event>
<event>
 4    1  0.4837985E-002  0.6678161E+02  0.7818608E-02  0.1371392E+00
          2   -1    0    0    0  501  0.00000000000E+00  0.00000000000E+00  0.12878904936E+04  0.12878904936E+04  0.25500000000E-02 0. -1.
         -2   -1    0    0  501    0 -0.00000000000E+00 -0.00000000000E+00 -0.86571295675E+00  0.86571671232E+00  0.25500000000E-02 0. -1.
          2    1    1    2    0  502  0.32664908195E+02 -0.69245606253E+01  0.64328806343E+03  0.64415407965E+03  0.25500000000E-02 0. -1.
         -2    1    1    2  502    0 -0.32664908195E+02  0.69245606253E+01  0.64373671723E+03  0.64460213069E+03  0.25500000000E-02 0. -1.
<mgrwt>
<rscale>  0 0.66781612E+02</rscale>
<asrwt>0</asrwt>
<pdfrwt beam="1">  1        2 0.19813634E+00 0.66781612E+02</pdfrwt>
<pdfrwt beam="2">  1       -2 0.13318734E-03 0.66781612E+02</pdfrwt>
<totfact> 0.55168544E+05</totfact>
</mgrwt>
</event>
<event>
 4    1  0.4837985E-002  0.5709221E+02  0.7818608E-02  0.1410456E+00
          2   -1    0    0    0  501  0.00000000000E+00  0.00000000000E+00  0.18634923921E+03  0.18634923923E+03  0.25500000000E-02 0. -1.
         -2   -1    0    0  501    0 -0.00000000000E+00 -0.00000000000E+00 -0.43728643643E+01  0.43728651078E+01  0.25500000000E-02 0. -1.
          2    1    1    2    0  502  0.17194261233E+02 -0.22035914197E+02  0.11036822758E+03  0.11385240357E+03  0.25500000000E-02 0. -1.
         -2    1    1    2  502    0 -0.17194261233E+02  0.22035914197E+02  0.71608147267E+02  0.76869700763E+02  0.25500000000E-02 0. -1.
<mgrwt>
<rscale>  0 0.57092207E+02</rscale>
<asrwt>0</asrwt>
<pdfrwt beam="1">  1        2 0.28669111E-01 0.57092207E+02</pdfrwt>
<pdfrwt beam="2">  1       -2 0.67274849E-03 0.57092207E+02</pdfrwt>
<totfact> 0.51437903E+05</totfact>
</mgrwt>
</event>
<event>
 4    1  0.4837985E-002  0.4525680E+02  0.7818608E-02  0.1472745E+00
          2   -1    0    0    0  501  0.00000000000E+00  0.00000000000E+00  0.53322090880E+03  0.53322090881E+03  0.25500000000E-02 0. -1.
         -2   -1    0    0  501    0 -0.00000000000E+00 -0.00000000000E+00 -0.96028399092E+00  0.96028737663E+00  0.25500000000E-02 0. -1.
          2    1    1    2    0  502 -0.19505449457E+02  0.11286266674E+02  0.24193483209E+03  0.24298210913E+03  0.25500000000E-02 0. -1.
         -2    1    1    2  502    0  0.19505449457E+02 -0.11286266674E+02  0.29032579272E+03  0.29119908705E+03  0.25500000000E-02 0. -1.
<mgrwt>
<rscale>  0 0.45256797E+02</rscale>
<asrwt>0</asrwt>
<pdfrwt beam="1">  1        2 0.82034310E-01 0.45256797E+02</pdfrwt>
<pdfrwt beam="2">  1       -2 0.14773568E-03 0.45256797E+02</pdfrwt>
<totfact> 0.13084745E+06</totfact>
</mgrwt>
</event>
<event>
 4    1  0.4837985E-002  0.4240611E+02  0.7818608E-02  0.1491216E+00
          2   -1    0    0    0  501  0.00000000000E+00  0.00000000000E+00  0.18065436211E+02  0.18065436391E+02  0.25500000000E-02 0. -1.
         -2   -1    0    0  501    0 -0.00000000000E+00 -0.00000000000E+00 -0.24885619673E+02  0.24885619804E+02  0.25500000000E-02 0. -1.
          2    1    1    2    0  502 -0.16715113887E+02  0.11219438264E+02  0.33311688916E+01  0.20405085638E+02  0.25500000000E-02 0.  1.
         -2    1    1    2  502    0  0.16715113887E+02 -0.11219438264E+02 -0.10151352354E+02  0.22545970556E+02  0.25500000000E-02 0.  1.
<mgrwt>
<rscale>  0 0.42406112E+02</rscale>
<asrwt>0</asrwt>
<pdfrwt beam="1">  1        2 0.27792979E-02 0.42406112E+02</pdfrwt>
<pdfrwt beam="2">  1       -2 0.38285569E-02 0.42406112E+02</pdfrwt>
<totfact> 0.66918954E+05</totfact>
</mgrwt>
</event>
<event>
 4    1  0.4837985E-002  0.4106332E+02  0.7818608E-02  0.1500529E+00
          2   -1    0    0    0  501  0.00000000000E+00  0.00000000000E+00  0.10447160856E+04  0.10447160856E+04  0.25500000000E-02 0.  1.
         -2   -1    0    0  501    0 -0.00000000000E+00 -0.00000000000E+00 -0.40350185761E+00  0.40350991512E+00  0.25500000000E-02 0.  1.
          2    1    1    2    0  502  0.18001101377E+02  0.92519568903E+01  0.43431856240E+03  0.43478989410E+03  0.25500000000E-02 0. -1.
         -2    1    1    2  502    0 -0.18001101377E+02 -0.92519568903E+01  0.60999402134E+03  0.61032970142E+03  0.25500000000E-02 0. -1.
<mgrwt>
<rscale>  0 0.41063322E+02</rscale>
<asrwt>0</asrwt>
<pdfrwt beam="1">  1        2 0.16072642E+00 0.41063322E+02</pdfrwt>
<pdfrwt beam="2">  1       -2 0.62077494E-04 0.41063322E+02</pdfrwt>
<totfact> 0.18743726E+06</totfact>
</mgrwt>
</event>
<event>
 4    1  0.4837985E-002  0.1118023E+03  0.7818608E-02  0.1257268E+00
          2   -1    0    0    0  501  0.00000000000E+00  0.00000000000E+00  0.57132529594E+03  0.57132529595E+03  0.25500000000E-02 0. -1.
         -2   -1    0    0  501    0 -0.00000000000E+00 -0.00000000000E+00 -0.54696270862E+01  0.54696276806E+01  0.25500000000E-02 0. -1.
          2    1    1    2    0  502 -0.51922850951E+02 -0.12923527351E+02  0.36642444028E+03  0.37031050546E+03  0.25500000000E-02 0. -1.
         -2    1    1    2  502    0  0.51922850951E+02  0.12923527351E+02  0.19943122857E+03  0.20648441817E+03  0.25500000000E-02 0. -1.
<mgrwt>
<rscale>  0 0.11180226E+03</rscale>
<asrwt>0</asrwt>
<pdfrwt beam="1">  1        2 0.87896160E-01 0.11180226E+03</pdfrwt>
<pdfrwt beam="2">  1       -2 0.84148152E-03 0.11180226E+03</pdfrwt>
<totfact> 0.13030286E+05</totfact>
</mgrwt>
</event>
<event>
 4    1  0.4837985E-002  0.6043558E+02  0.7818608E-02  0.1396013E+00
          2   -1    0    0    0  501  0.00000000000E+00  0.00000000000E+00  0.38881330790E+01  0.38881339152E+01  0.25500000000E-02 0.  1.
         -2   -1    0    0  501    0 -0.00000000000E+00 -0.00000000000E+00 -0.23484657939E+03  0.23484657941E+03  0.25500000000E-02 0.  1.
          2    1    1    2    0  502 -0.30147995135E+02 -0.18752322533E+01 -0.11877652648E+03  0.12255725746E+03  0.25500000000E-02 0. -1.
         -2    1    1    2  502    0  0.30147995135E+02  0.18752322533E+01 -0.11218191984E+03  0.11617745587E+03  0.25500000000E-02 0. -1.
<mgrwt>
<rscale>  0 0.60435581E+02</rscale>
<asrwt>0</asrwt>
<pdfrwt beam="1">  1        2 0.59817457E-03 0.60435581E+02</pdfrwt>
<pdfrwt beam="2">  1       -2 0.36130232E-01 0.60435581E+02</pdfrwt>
<totfact> 0.16427116E+05</totfact>
</mgrwt>
</event>
<event>
 4    1  0.4837985E-002  0.5027573E+02  0.7818608E-02  0.1443860E+00
         -2   -1    0    0  501    0 -0.00000000000E+00  0.00000000000E+00  0.10522288867E+02  0.10522289176E+02  0.25500000000E-02 0.  1.
          2   -1    0    0    0  501  0.00000000000E+00 -0.00000000000E+00 -0.60054649455E+02  0.60054649509E+02  0.25500000000E-02 0.  1.
          2    1    1    2    0  502  0.14333969136E+02 -0.19124787640E+02 -0.13829869687E+02  0.27613139545E+02  0.25500000000E-02 0. -1.
         -2    1    1    2  502    0 -0.14333969136E+02  0.19124787640E+02 -0.35702490902E+02  0.42963799140E+02  0.25500000000E-02 0. -1.
<mgrwt>
<rscale>  0 0.50275735E+02</rscale>
<asrwt>0</asrwt>
<pdfrwt beam="2">  1        2 0.92391766E-02 0.50275735E+02</pdfrwt>
<pdfrwt beam="1">  1       -2 0.16188137E-02 0.50275735E+02</pdfrwt>
<totfact> 0.52447692E+05</totfact>
</mgrwt>
</event>
<event>
 4    1  0.4837985E-002  0.5030524E+02  0.7818608E-02  0.1443702E+00
         -2   -1    0    0  501    0 -0.00000000000E+00  0.00000000000E+00  0.42888603100E+01  0.42888610680E+01  0.25500000000E-02 0.  1.
          2   -1    0    0    0  501  0.00000000000E+00 -0.00000000000E+00 -0.14751105267E+03  0.14751105269E+03  0.25500000000E-02 0.  1.
          2    1    1    2    0  502 -0.20118852555E+02 -0.15066912109E+02 -0.74432624015E+02  0.78562049317E+02  0.25500000000E-02 0. -1.
         -2    1    1    2  502    0  0.20118852555E+02  0.15066912109E+02 -0.68789568347E+02  0.73237864445E+02  0.25500000000E-02 0. -1.
<mgrwt>
<rscale>  0 0.50305243E+02</rscale>
<asrwt>0</asrwt>
<pdfrwt beam="2">  1        2 0.22694004E-01 0.50305243E+02</pdfrwt>
<pdfrwt beam="1">  1       -2 0.65982484E-03 0.50305243E+02</pdfrwt>
<totfact> 0.65801590E+05</totfact>
</mgrwt>
</event>
<event>
 4    1  0.4837985E-002  0.4460015E+02  0.7818608E-02  0.1476853E+00
          2   -1    0    0    0  501  0.00000000000E+00  0.00000000000E+00  0.17076814524E+04  0.17076814524E+04  0.25500000000E-02 0. -1.
         -2   -1    0    0  501    0 -0.00000000000E+00 -0.00000000000E+00 -0.29120413406E+00  0.29121529870E+00  0.25500000000E-02 0. -1.
          2    1    1    2    0  502 -0.16995117145E+02  0.13571188726E+02  0.10424025942E+04  0.10426294546E+04  0.25500000000E-02 0.  1.
         -2    1    1    2  502    0  0.16995117145E+02 -0.13571188726E+02  0.66498765407E+03  0.66534321312E+03  0.25500000000E-02 0.  1.
<mgrwt>
<rscale>  0 0.44600154E+02</rscale>
<asrwt>0</asrwt>
<pdfrwt beam="1">  1        2 0.26272619E+00 0.44600154E+02</pdfrwt>
<pdfrwt beam="2">  1       -2 0.44800477E-04 0.44600154E+02</pdfrwt>
<totfact> 0.13690090E+06</totfact>
</mgrwt>
</event>
<event>
 4    1  0.4837985E-002  0.5404637E+02  0.7818608E-02  0.1424663E+00
         -2   -1    0    0  501    0 -0.00000000000E+00  0.00000000000E+00  0.96557091964E+01  0.96557095331E+01  0.25500000000E-02 0.  1.
          2   -1    0    0    0  501  0.00000000000E+00 -0.00000000000E+00 -0.75629085833E+02  0.75629085876E+02  0.25500000000E-02 0.  1.
          2    1    1    2    0  502  0.26730170495E+02 -0.39559925975E+01 -0.32486245145E+02  0.42255272124E+02  0.25500000000E-02 0. -1.
         -2    1    1    2  502    0 -0.26730170495E+02  0.39559925975E+01 -0.33487131492E+02  0.43029523286E+02  0.25500000000E-02 0. -1.
<mgrwt>
<rscale>  0 0.54046368E+02</rscale>
<asrwt>0</asrwt>
<pdfrwt beam="2">  1        2 0.11635244E-01 0.54046368E+02</pdfrwt>
<pdfrwt beam="1">  1       -2 0.14854938E-02 0.54046368E+02</pdfrwt>
<totfact> 0.45817106E+05</totfact>
</mgrwt>
</event>
<event>
 4    1  0.4837985E-002  0.5307632E+02  0.7818608E-02  0.1429421E+00
          2   -1    0    0    0  501  0.00000000000E+00  0.00000000000E+00  0.71678001769E+03  0.71678001770E+03  0.25500000000E-02 0. -1.
         -2   -1    0    0  501    0 -0.00000000000E+00 -0.00000000000E+00 -0.98255061038E+00  0.98255391936E+00  0.25500000000E-02 0. -1.
          2    1    1    2    0  502  0.11636571991E+02  0.23850868985E+02  0.35778762228E+03  0.35877047875E+03  0.25500000000E-02 0. -1.
         -2    1    1    2  502    0 -0.11636571991E+02 -0.23850868985E+02  0.35800984480E+03  0.35899209286E+03  0.25500000000E-02 0. -1.
<mgrwt>
<rscale>  0 0.53076316E+02</rscale>
<asrwt>0</asrwt>
<pdfrwt beam="1">  1        2 0.11027435E+00 0.53076316E+02</pdfrwt>
<pdfrwt beam="2">  1       -2 0.15116121E-03 0.53076316E+02</pdfrwt>
<totfact> 0.95403558E+05</totfact>
</mgrwt>
</event>
<event>
 4    1  0.4837985E-002  0.6696649E+02  0.7818608E-02  0.1370723E+00
          2   -1    0    0    0  501  0.00000000000E+00  0.00000000000E+00  0.64395516106E+03  0.64395516106E+03  0.25500000000E-02 0.  1.
         -2   -1    0    0  501    0 -0.00000000000E+00 -0.00000000000E+00 -0.17410015960E+01  0.17410034635E+01  0.25500000000E-02 0.  1.
          2    1    1    2    0  502  0.32618489205E+02  0.51053438159E+01  0.37487599220E+03  0.37632703851E+03  0.25500000000E-02 0.  1.
         -2    1    1    2  502    0 -0.32618489205E+02 -0.51053438159E+01  0.26733816726E+03  0.26936912602E+03  0.25500000000E-02 0.  1.
<mgrwt>
<rscale>  0 0.66966486E+02</rscale>
<asrwt>0</asrwt>
<pdfrwt beam="1">  1        2 0.99070061E-01 0.66966486E+02</pdfrwt>
<pdfrwt beam="2">  1       -2 0.26784645E-03 0.66966486E+02</pdfrwt>
<totfact> 0.51777758E+05</totfact>
</mgrwt>
</event>
<event>
 4    1  0.4837985E-002  0.4637274E+02  0.7818608E-02  0.1465949E+00
          2   -1    0    0    0  501  0.00000000000E+00  0.00000000000E+00  0.67782398698E+03  0.67782398699E+03  0.25500000000E-02 0. -1.
         -2   -1    0    0  501    0 -0.00000000000E+00 -0.00000000000E+00 -0.79313559315E+00  0.79313969238E+00  0.25500000000E-02 0. -1.
          2    1    1    2    0  502 -0.29486052485E+01  0.22325809561E+02  0.25773424376E+03  0.25871620835E+03  0.25500000000E-02 0.  1.
         -2    1    1    2  502    0  0.29486052485E+01 -0.22325809561E+02  0.41929660762E+03  0.41990091833E+03  0.25500000000E-02 0.  1.
<mgrwt>
<rscale>  0 0.46372739E+02</rscale>
<asrwt>0</asrwt>
<pdfrwt beam="1">  1        2 0.10428023E+00 0.46372739E+02</pdfrwt>
<pdfrwt beam="2">  1       -2 0.12202163E-03 0.46372739E+02</pdfrwt>
<totfact> 0.13143937E+06</totfact>
</mgrwt>
</event>
<event>
 4    1  0.4837985E-002  0.5492328E+02  0.7818608E-02  0.1420462E+00
         -2   -1    0    0  501    0 -0.00000000000E+00  0.00000000000E+00  0.62460744116E+00  0.62461264641E+00  0.25500000000E-02 0.  1.
          2   -1    0    0    0  501  0.00000000000E+00 -0.00000000000E+00 -0.12073800517E+04  0.12073800517E+04  0.25500000000E-02 0.  1.
          2    1    1    2    0  502  0.48484192862E+01  0.20885989480E+02 -0.98076599180E+03  0.98100033762E+03  0.25500000000E-02 0.  1.
         -2    1    1    2  502    0 -0.48484192862E+01 -0.20885989480E+02 -0.22598945250E+03  0.22700432677E+03  0.25500000000E-02 0.  1.
<mgrwt>
<rscale>  0 0.54923281E+02</rscale>
<asrwt>0</asrwt>
<pdfrwt beam="2">  1        2 0.18574891E+00 0.54923281E+02</pdfrwt>
<pdfrwt beam="1">  1       -2 0.96094819E-04 0.54923281E+02</pdfrwt>
<totfact> 0.91197080E+05</totfact>
</mgrwt>
</event>
<event>
 4    1  0.4837985E-002  0.4724767E+02  0.7818608E-02  0.1460779E+00
         -2   -1    0    0  501    0 -0.00000000000E+00  0.00000000000E+00  0.60829243993E+00  0.60829778479E+00  0.25500000000E-02 0.  1.
          2   -1    0    0    0  501  0.00000000000E+00 -0.00000000000E+00 -0.91745868072E+03  0.91745868072E+03  0.25500000000E-02 0.  1.
          2    1    1    2    0  502  0.63371762129E+01  0.20178841007E+02 -0.25394718712E+03  0.25482644933E+03  0.25500000000E-02 0.  1.
         -2    1    1    2  502    0 -0.63371762129E+01 -0.20178841007E+02 -0.66290320116E+03  0.66324052918E+03  0.25500000000E-02 0.  1.
<mgrwt>
<rscale>  0 0.47247672E+02</rscale>
<asrwt>0</asrwt>
<pdfrwt beam="2">  1        2 0.14114638E+00 0.47247672E+02</pdfrwt>
<pdfrwt beam="1">  1       -2 0.93584598E-04 0.47247672E+02</pdfrwt>
<totfact> 0.13226464E+06</totfact>
</mgrwt>
</event>
<event>
 4    1  0.4837985E-002  0.5847164E+02  0.7818608E-02  0.1404360E+00
         -2   -1    0    0  501    0 -0.00000000000E+00  0.00000000000E+00  0.12737238724E+03  0.12737238727E+03  0.25500000000E-02 0. -1.
          2   -1    0    0    0  501  0.00000000000E+00 -0.00000000000E+00 -0.67105051833E+01  0.67105056678E+01  0.25500000000E-02 0. -1.
          2    1    1    2    0  502 -0.18439006471E+02 -0.21419004114E+02  0.77485369903E+02  0.82478804868E+02  0.25500000000E-02 0.  1.
         -2    1    1    2  502    0  0.18439006471E+02  0.21419004114E+02  0.43176512153E+02  0.51604088065E+02  0.25500000000E-02 0.  1.
<mgrwt>
<rscale>  0 0.58471638E+02</rscale>
<asrwt>0</asrwt>
<pdfrwt beam="2">  1        2 0.10323855E-02 0.58471638E+02</pdfrwt>
<pdfrwt beam="1">  1       -2 0.19595750E-01 0.58471638E+02</pdfrwt>
<totfact> 0.22467706E+05</totfact>
</mgrwt>
</event>
<event>
 4    1  0.4837985E-002  0.4614602E+02  0.7818608E-02  0.1467312E+00
          2   -1    0    0    0  501  0.00000000000E+00  0.00000000000E+00  0.32816893255E+03  0.32816893256E+03  0.25500000000E-02 0. -1.
         -2   -1    0    0  501    0 -0.00000000000E+00 -0.00000000000E+00 -0.16222236928E+01  0.16222256970E+01  0.25500000000E-02 0. -1.
          2    1    1    2    0  502 -0.16661797397E+02 -0.15942535666E+02  0.15781276490E+03  0.15948871028E+03  0.25500000000E-02 0.  1.
         -2    1    1    2  502    0  0.16661797397E+02  0.15942535666E+02  0.16873394396E+03  0.17030244797E+03  0.25500000000E-02 0.  1.
<mgrwt>
<rscale>  0 0.46146018E+02</rscale>
<asrwt>0</asrwt>
<pdfrwt beam="1">  1        2 0.50487497E-01 0.46146018E+02</pdfrwt>
<pdfrwt beam="2">  1       -2 0.24957318E-03 0.46146018E+02</pdfrwt>
<totfact> 0.10643914E+06</totfact>
</mgrwt>
</event>
<event>
 4    1  0.4837985E-002  0.4605313E+02  0.7818608E-02  0.1467872E+00
         -2   -1    0    0  501    0 -0.00000000000E+00  0.00000000000E+00  0.34050483692E+00  0.34051438511E+00  0.25500000000E-02 0. -1.
          2   -1    0    0    0  501  0.00000000000E+00 -0.00000000000E+00 -0.15571448722E+04  0.15571448722E+04  0.25500000000E-02 0. -1.
          2    1    1    2    0  502  0.21790114086E+02  0.74282940295E+01 -0.79476763637E+03  0.79510099009E+03  0.25500000000E-02 0. -1.
         -2    1    1    2  502    0 -0.21790114086E+02 -0.74282940295E+01 -0.76203673101E+03  0.76238439651E+03  0.25500000000E-02 0. -1.
<mgrwt>
<rscale>  0 0.46053134E+02</rscale>
<asrwt>0</asrwt>
<pdfrwt beam="2">  1        2 0.23955505E+00 0.46053134E+02</pdfrwt>
<pdfrwt beam="1">  1       -2 0.52387341E-04 0.46053134E+02</pdfrwt>
<totfact> 0.13233102E+06</totfact>
</mgrwt>
</event>
<event>
 4    1  0.4837985E-002  0.5744837E+02  0.7818608E-02  0.1408863E+00
         -2   -1    0    0  501    0 -0.00000000000E+00  0.00000000000E+00  0.45261646320E+02  0.45261646391E+02  0.25500000000E-02 0. -1.
          2   -1    0    0    0  501  0.00000000000E+00 -0.00000000000E+00 -0.18229090747E+02  0.18229090926E+02  0.25500000000E-02 0. -1.
          2    1    1    2    0  502 -0.67178719536E+01  0.27596961496E+02  0.18251370525E+02  0.33761436876E+02  0.25500000000E-02 0. -1.
         -2    1    1    2  502    0  0.67178719536E+01 -0.27596961496E+02  0.87811850476E+01  0.29729300441E+02  0.25500000000E-02 0. -1.
<mgrwt>
<rscale>  0 0.57448365E+02</rscale>
<asrwt>0</asrwt>
<pdfrwt beam="2">  1        2 0.28044755E-02 0.57448365E+02</pdfrwt>
<pdfrwt beam="1">  1       -2 0.69633302E-02 0.57448365E+02</pdfrwt>
<totfact> 0.29734236E+05</totfact>
</mgrwt>
</event>
<event>
 4    1  0.4837985E-002  0.5972629E+02  0.7818608E-02  0.1398984E+00
          2   -1    0    0    0  501  0.00000000000E+00  0.00000000000E+00  0.18804010516E+04  0.18804010516E+04  0.25500000000E-02 0. -1.
         -2   -1    0    0  501    0 -0.00000000000E+00 -0.00000000000E+00 -0.47426105345E+00  0.47426790880E+00  0.25500000000E-02 0. -1.
          2    1    1    2    0  502 -0.24231265042E+02 -0.91091846470E+01  0.14088348381E+04  0.14090726498E+04  0.25500000000E-02 0. -1.
         -2    1    1    2  502    0  0.24231265042E+02  0.91091846470E+01  0.47109195244E+03  0.47180266967E+03  0.25500000000E-02 0. -1.
<mgrwt>
<rscale>  0 0.59726290E+02</rscale>
<asrwt>0</asrwt>
<pdfrwt beam="1">  1        2 0.28929664E+00 0.59726290E+02</pdfrwt>
<pdfrwt beam="2">  1       -2 0.72962715E-04 0.59726290E+02</pdfrwt>
<totfact> 0.61993642E+05</totfact>
</mgrwt>
</event>
<event>
 4    1  0.4837985E-002  0.4525627E+02  0.7818608E-02  0.1472748E+00
         -2   -1    0    0  501    0 -0.00000000000E+00  0.00000000000E+00  0.54822415677E+00  0.54823008725E+00  0.25500000000E-02 0. -1.
          2   -1    0    0    0  501  0.00000000000E+00 -0.00000000000E+00 -0.93397888392E+03  0.93397888392E+03  0.25500000000E-02 0. -1.
          2    1    1    2    0  502 -0.17310901738E+02  0.14528794425E+02 -0.44335868257E+03  0.44393431339E+03  0.25500000000E-02 0. -1.
         -2    1    1    2  502    0  0.17310901738E+02 -0.14528794425E+02 -0.49007197719E+03  0.49059280062E+03  0.25500000000E-02 0. -1.
<mgrwt>
<rscale>  0 0.45256273E+02</rscale>
<asrwt>0</asrwt>
<pdfrwt beam="2">  1        2 0.14368779E+00 0.45256273E+02</pdfrwt>
<pdfrwt beam="1">  1       -2 0.84343382E-04 0.45256273E+02</pdfrwt>
<totfact> 0.14718877E+06</totfact>
</mgrwt>
</event>
<event>
 4    1  0.4837985E-002  0.5883511E+02  0.7818608E-02  0.1402786E+00
         -2   -1    0    0  501    0 -0.00000000000E+00  0.00000000000E+00  0.39911841689E+00  0.39912656289E+00  0.25500000000E-02 0.  1.
          2   -1    0    0    0  501  0.00000000000E+00 -0.00000000000E+00 -0.21682382497E+04  0.21682382497E+04  0.25500000000E-02 0.  1.
          2    1    1    2    0  502 -0.29135661997E+02  0.14822848072E+01 -0.12233475943E+04  0.12236953952E+04  0.25500000000E-02 0. -1.
         -2    1    1    2  502    0  0.29135661997E+02 -0.14822848072E+01 -0.94449153701E+03  0.94494198100E+03  0.25500000000E-02 0. -1.
<mgrwt>
<rscale>  0 0.58835114E+02</rscale>
<asrwt>0</asrwt>
<pdfrwt beam="2">  1        2 0.33356568E+00 0.58835114E+02</pdfrwt>
<pdfrwt beam="1">  1       -2 0.61405196E-04 0.58835114E+02</pdfrwt>
<totfact> 0.56342198E+05</totfact>
</mgrwt>
</event>
<event>
 4    1  0.4837985E-002  0.6198905E+02  0.7818608E-02  0.1389669E+00
          2   -1    0    0    0  501  0.00000000000E+00  0.00000000000E+00  0.66527267480E+02  0.66527267529E+02  0.25500000000E-02 0. -1.
         -2   -1    0    0  501    0 -0.00000000000E+00 -0.00000000000E+00 -0.14440100485E+02  0.14440100711E+02  0.25500000000E-02 0. -1.
          2    1    1    2    0  502 -0.20349798586E+02 -0.18045218552E+02  0.45457308489E+02  0.52972739373E+02  0.25500000000E-02 0. -1.
         -2    1    1    2  502    0  0.20349798586E+02  0.18045218552E+02  0.66298585059E+01  0.27994628867E+02  0.25500000000E-02 0. -1.
<mgrwt>
<rscale>  0 0.61989045E+02</rscale>
<asrwt>0</asrwt>
<pdfrwt beam="1">  1        2 0.10234964E-01 0.61989045E+02</pdfrwt>
<pdfrwt beam="2">  1       -2 0.22215539E-02 0.61989045E+02</pdfrwt>
<totfact> 0.31119216E+05</totfact>
</mgrwt>
</event>
<event>
 4    1  0.4837985E-002  0.7536135E+02  0.7818608E-02  0.1342756E+00
         -2   -1    0    0  501    0 -0.00000000000E+00  0.00000000000E+00  0.16296422556E+03  0.16296422558E+03  0.25500000000E-02 0. -1.
          2   -1    0    0    0  501  0.00000000000E+00 -0.00000000000E+00 -0.87125444959E+01  0.87125448690E+01  0.25500000000E-02 0. -1.
          2    1    1    2    0  502  0.14857848059E+02  0.24533819371E+02  0.13279460384E+03  0.13585680240E+03  0.25500000000E-02 0.  1.
         -2    1    1    2  502    0 -0.14857848059E+02 -0.24533819371E+02  0.21457077228E+02  0.35819968056E+02  0.25500000000E-02 0.  1.
<mgrwt>
<rscale>  0 0.75361346E+02</rscale>
<asrwt>0</asrwt>
<pdfrwt beam="2">  1        2 0.13403915E-02 0.75361346E+02</pdfrwt>
<pdfrwt beam="1">  1       -2 0.25071419E-01 0.75361346E+02</pdfrwt>
<totfact> 0.10971001E+05</totfact>
</mgrwt>
</event>
<event>
 4    1  0.4837985E-002  0.2387270E+03  0.7818608E-02  0.1120644E+00
          2   -1    0    0    0  501  0.00000000000E+00  0.00000000000E+00  0.36949198136E+02  0.36949198224E+02  0.25500000000E-02 0.  1.
         -2   -1    0    0  501    0 -0.00000000000E+00 -0.00000000000E+00 -0.38560093270E+03  0.38560093271E+03  0.25500000000E-02 0.  1.
          2    1    1    2    0  502 -0.67146439673E+02 -0.69424078267E+02 -0.50181140824E+02  0.10884160007E+03  0.25500000000E-02 0.  1.
         -2    1    1    2  502    0  0.67146439673E+02  0.69424078267E+02 -0.29847059374E+03  0.31370853087E+03  0.25500000000E-02 0.  1.
<mgrwt>
<rscale>  0 0.23872700E+03</rscale>
<asrwt>0</asrwt>
<pdfrwt beam="1">  1        2 0.56844923E-02 0.23872700E+03</pdfrwt>
<pdfrwt beam="2">  1       -2 0.59323218E-01 0.23872700E+03</pdfrwt>
<totfact> 0.35517162E+03</totfact>
</mgrwt>
</event>
<event>
 4    1  0.4837985E-002  0.6450417E+02  0.7818608E-02  0.1379846E+00
         -2   -1    0    0  501    0 -0.00000000000E+00  0.00000000000E+00  0.33438660418E+02  0.33438660515E+02  0.25500000000E-02 0.  1.
          2   -1    0    0    0  501  0.00000000000E+00 -0.00000000000E+00 -0.31107614439E+02  0.31107614543E+02  0.25500000000E-02 0.  1.
          2    1    1    2    0  502 -0.31254727746E+02  0.33675239857E+00 -0.67911167729E+01  0.31985788753E+02  0.25500000000E-02 0. -1.
         -2    1    1    2  502    0  0.31254727746E+02 -0.33675239857E+00  0.91221627517E+01  0.32560486305E+02  0.25500000000E-02 0. -1.
<mgrwt>
<rscale>  0 0.64504169E+02</rscale>
<asrwt>0</asrwt>
<pdfrwt beam="2">  1        2 0.47857869E-02 0.64504169E+02</pdfrwt>
<pdfrwt beam="1">  1       -2 0.51444093E-02 0.64504169E+02</pdfrwt>
<totfact> 0.23889579E+05</totfact>
</mgrwt>
</event>
<event>
 4    1  0.4837985E-002  0.1041255E+03  0.7818608E-02  0.1271852E+00
          2   -1    0    0    0  501  0.00000000000E+00  0.00000000000E+00  0.66640589425E+03  0.66640589426E+03  0.25500000000E-02 0. -1.
         -2   -1    0    0  501    0 -0.00000000000E+00 -0.00000000000E+00 -0.40673821407E+01  0.40673829400E+01  0.25500000000E-02 0. -1.
          2    1    1    2    0  502  0.30307716010E+02 -0.31957723501E+02  0.15241355845E+03  0.15864976063E+03  0.25500000000E-02 0. -1.
         -2    1    1    2  502    0 -0.30307716010E+02  0.31957723501E+02  0.50992495366E+03  0.51182351657E+03  0.25500000000E-02 0. -1.
<mgrwt>
<rscale>  0 0.10412546E+03</rscale>
<asrwt>0</asrwt>
<pdfrwt beam="1">  1        2 0.10252398E+00 0.10412546E+03</pdfrwt>
<pdfrwt beam="2">  1       -2 0.62575117E-03 0.10412546E+03</pdfrwt>
<totfact> 0.16467148E+05</totfact>
</mgrwt>
</event>
<event>
 4    1  0.4837985E-002  0.4517171E+02  0.7818608E-02  0.1473273E+00
          2   -1    0    0    0  501  0.00000000000E+00  0.00000000000E+00  0.10655864306E+04  0.10655864306E+04  0.25500000000E-02 0. -1.
         -2   -1    0    0  501    0 -0.00000000000E+00 -0.00000000000E+00 -0.47871970707E+00  0.47872649858E+00  0.25500000000E-02 0. -1.
          2    1    1    2    0  502 -0.14465079160E+02 -0.17342304500E+02  0.52415007740E+03  0.52463634804E+03  0.25500000000E-02 0.  1.
         -2    1    1    2  502    0  0.14465079160E+02  0.17342304500E+02  0.54095763353E+03  0.54142880910E+03  0.25500000000E-02 0.  1.
<mgrwt>
<rscale>  0 0.45171710E+02</rscale>
<asrwt>0</asrwt>
<pdfrwt beam="1">  1        2 0.16393593E+00 0.45171710E+02</pdfrwt>
<pdfrwt beam="2">  1       -2 0.73649908E-04 0.45171710E+02</pdfrwt>
<totfact> 0.14874108E+06</totfact>
</mgrwt>
</event>
<event>
 4    1  0.4837985E-002  0.1068076E+03  0.7818608E-02  0.1266599E+00
          2   -1    0    0    0  501  0.00000000000E+00  0.00000000000E+00  0.13385528986E+02  0.13385529229E+02  0.25500000000E-02 0.  1.
         -2   -1    0    0  501    0 -0.00000000000E+00 -0.00000000000E+00 -0.21306329212E+03  0.21306329214E+03  0.25500000000E-02 0.  1.
          2    1    1    2    0  502 -0.44557119182E+02  0.28074393092E+02 -0.11861831064E+03  0.12978371255E+03  0.25500000000E-02 0. -1.
         -2    1    1    2  502    0  0.44557119182E+02 -0.28074393092E+02 -0.81059452501E+02  0.96665108822E+02  0.25500000000E-02 0. -1.
<mgrwt>
<rscale>  0 0.10680758E+03</rscale>
<asrwt>0</asrwt>
<pdfrwt beam="1">  1        2 0.20593123E-02 0.10680758E+03</pdfrwt>
<pdfrwt beam="2">  1       -2 0.32778966E-01 0.10680758E+03</pdfrwt>
<totfact> 0.40395267E+04</totfact>
</mgrwt>
</event>
<event>
 4    1  0.4837985E-002  0.4039449E+02  0.7818608E-02  0.1505328E+00
          2   -1    0    0    0  501  0.00000000000E+00  0.00000000000E+00  0.10295179871E+03  0.10295179875E+03  0.25500000000E-02 0. -1.
         -2   -1    0    0  501    0 -0.00000000000E+00 -0.00000000000E+00 -0.39623268857E+01  0.39623277062E+01  0.25500000000E-02 0. -1.
          2    1    1    2    0  502  0.11340124906E+02  0.16668636712E+02  0.52722074514E+02  0.56445186068E+02  0.25500000000E-02 0. -1.
         -2    1    1    2  502    0 -0.11340124906E+02 -0.16668636712E+02  0.46267397314E+02  0.50468940383E+02  0.25500000000E-02 0. -1.
<mgrwt>
<rscale>  0 0.40394491E+02</rscale>
<asrwt>0</asrwt>
<pdfrwt beam="1">  1        2 0.15838736E-01 0.40394491E+02</pdfrwt>
<pdfrwt beam="2">  1       -2 0.60958891E-03 0.40394491E+02</pdfrwt>
<totfact> 0.10274375E+06</totfact>
</mgrwt>
</event>
<event>
 4    1  0.4837985E-002  0.5223597E+02  0.7818608E-02  0.1433641E+00
          2   -1    0    0    0  501  0.00000000000E+00  0.00000000000E+00  0.10690957669E+03  0.10690957672E+03  0.25500000000E-02 0. -1.
         -2   -1    0    0  501    0 -0.00000000000E+00 -0.00000000000E+00 -0.63806168855E+01  0.63806173950E+01  0.25500000000E-02 0. -1.
          2    1    1    2    0  502  0.21030415034E+02 -0.80566760920E+01  0.78951993927E+02  0.82101192060E+02  0.25500000000E-02 0. -1.
         -2    1    1    2  502    0 -0.21030415034E+02  0.80566760920E+01  0.21576965874E+02  0.31189002051E+02  0.25500000000E-02 0. -1.
<mgrwt>
<rscale>  0 0.52235968E+02</rscale>
<asrwt>0</asrwt>
<pdfrwt beam="1">  1        2 0.16447627E-01 0.52235968E+02</pdfrwt>
<pdfrwt beam="2">  1       -2 0.98163342E-03 0.52235968E+02</pdfrwt>
<totfact> 0.54540609E+05</totfact>
</mgrwt>
</event>
<event>
 4    1  0.4837985E-002  0.4166781E+02  0.7818608E-02  0.1496285E+00
         -2   -1    0    0  501    0 -0.00000000000E+00  0.00000000000E+00  0.51698398086E+00  0.51699026970E+00  0.25500000000E-02 0. -1.
          2   -1    0    0    0  501  0.00000000000E+00 -0.00000000000E+00 -0.83957918069E+03  0.83957918069E+03  0.25500000000E-02 0. -1.
          2    1    1    2    0  502 -0.20078493091E+02  0.40769343929E+01 -0.49573171378E+03  0.49615491465E+03  0.25500000000E-02 0.  1.
         -2    1    1    2  502    0  0.20078493091E+02 -0.40769343929E+01 -0.34333048293E+03  0.34394125631E+03  0.25500000000E-02 0.  1.
<mgrwt>
<rscale>  0 0.41667812E+02</rscale>
<asrwt>0</asrwt>
<pdfrwt beam="2">  1        2 0.12916494E+00 0.41667812E+02</pdfrwt>
<pdfrwt beam="1">  1       -2 0.79537153E-04 0.41667812E+02</pdfrwt>
<totfact> 0.17761107E+06</totfact>
</mgrwt>
</event>
<event>
 4    1  0.4837985E-002  0.5522152E+02  0.7818608E-02  0.1419054E+00
          2   -1    0    0    0  501  0.00000000000E+00  0.00000000000E+00  0.15084378658E+03  0.15084378660E+03  0.25500000000E-02 0. -1.
         -2   -1    0    0  501    0 -0.00000000000E+00 -0.00000000000E+00 -0.50539301488E+01  0.50539307921E+01  0.25500000000E-02 0. -1.
          2    1    1    2    0  502 -0.22503736704E+02  0.14374135425E+02  0.92721300786E+02  0.96489758839E+02  0.25500000000E-02 0.  1.
         -2    1    1    2  502    0  0.22503736704E+02 -0.14374135425E+02  0.53068555645E+02  0.59407958554E+02  0.25500000000E-02 0.  1.
<mgrwt>
<rscale>  0 0.55221518E+02</rscale>
<asrwt>0</asrwt>
<pdfrwt beam="1">  1        2 0.23206737E-01 0.55221518E+02</pdfrwt>
<pdfrwt beam="2">  1       -2 0.77752774E-03 0.55221518E+02</pdfrwt>
<totfact> 0.52320149E+05</totfact>
</mgrwt>
</event>
<event>
 4    1  0.4837985E-002  0.4447551E+02  0.7818608E-02  0.1477643E+00
          2   -1    0    0    0  501  0.00000000000E+00  0.00000000000E+00  0.15653236704E+01  0.15653257474E+01  0.25500000000E-02 0.  1.
         -2   -1    0    0  501    0 -0.00000000000E+00 -0.00000000000E+00 -0.31592025311E+03  0.31592025312E+03  0.25500000000E-02 0.  1.
          2    1    1    2    0  502 -0.20208831463E+02  0.39916773824E+01 -0.21698180214E+03  0.21795741058E+03  0.25500000000E-02 0. -1.
         -2    1    1    2  502    0  0.20208831463E+02 -0.39916773824E+01 -0.97373127301E+02  0.99528168295E+02  0.25500000000E-02 0. -1.
<mgrwt>
<rscale>  0 0.44475512E+02</rscale>
<asrwt>0</asrwt>
<pdfrwt beam="1">  1        2 0.24081944E-03 0.44475512E+02</pdfrwt>
<pdfrwt beam="2">  1       -2 0.48603065E-01 0.44475512E+02</pdfrwt>
<totfact> 0.30030476E+05</totfact>
</mgrwt>
</event>
<event>
 4    1  0.4837985E-002  0.5262460E+02  0.7818608E-02  0.1431678E+00
         -2   -1    0    0  501    0 -0.00000000000E+00  0.00000000000E+00  0.96176612684E+01  0.96176616064E+01  0.25500000000E-02 0.  1.
          2   -1    0    0    0  501  0.00000000000E+00 -0.00000000000E+00 -0.71986022645E+02  0.71986022690E+02  0.25500000000E-02 0.  1.
          2    1    1    2    0  502  0.57601451140E+01  0.21654532237E+02 -0.52572215886E+02  0.57148367674E+02  0.25500000000E-02 0. -1.
         -2    1    1    2  502    0 -0.57601451140E+01 -0.21654532237E+02 -0.97961454900E+01  0.24455316622E+02  0.25500000000E-02 0. -1.
<mgrwt>
<rscale>  0 0.52624603E+02</rscale>
<asrwt>0</asrwt>
<pdfrwt beam="2">  1        2 0.11074772E-01 0.52624603E+02</pdfrwt>
<pdfrwt beam="1">  1       -2 0.14796403E-02 0.52624603E+02</pdfrwt>
<totfact> 0.48516930E+05</totfact>
</mgrwt>
</event>
<event>
 4    1  0.4837985E-002  0.5382811E+02  0.7818608E-02  0.1425723E+00
          2   -1    0    0    0  501  0.00000000000E+00  0.00000000000E+00  0.99728890824E+02  0.99728890857E+02  0.25500000000E-02 0. -1.
         -2   -1    0    0  501    0 -0.00000000000E+00 -0.00000000000E+00 -0.72633560616E+01  0.72633565092E+01  0.25500000000E-02 0. -1.
          2    1    1    2    0  502  0.22395123194E+02 -0.10369322000E+02  0.24889460041E+02  0.35050672023E+02  0.25500000000E-02 0.  1.
         -2    1    1    2  502    0 -0.22395123194E+02  0.10369322000E+02  0.67576074722E+02  0.71941575344E+02  0.25500000000E-02 0.  1.
<mgrwt>
<rscale>  0 0.53828114E+02</rscale>
<asrwt>0</asrwt>
<pdfrwt beam="1">  1        2 0.15342906E-01 0.53828114E+02</pdfrwt>
<pdfrwt beam="2">  1       -2 0.11174395E-02 0.53828114E+02</pdfrwt>
<totfact> 0.49588217E+05</totfact>
</mgrwt>
</event>
<event>
 4    1  0.4837985E-002  0.5758447E+02  0.7818608E-02  0.1408258E+00
          2   -1    0    0    0  501  0.00000000000E+00  0.00000000000E+00  0.78439864225E+00  0.78440278713E+00  0.25500000000E-02 0.  1.
         -2   -1    0    0  501    0 -0.00000000000E+00 -0.00000000000E+00 -0.10568485093E+04  0.10568485093E+04  0.25500000000E-02 0.  1.
          2    1    1    2    0  502  0.27279912059E+02  0.29636228245E+01 -0.36789852433E+03  0.36892045332E+03  0.25500000000E-02 0. -1.
         -2    1    1    2  502    0 -0.27279912059E+02 -0.29636228245E+01 -0.68816558629E+03  0.68871245873E+03  0.25500000000E-02 0. -1.
<mgrwt>
<rscale>  0 0.57584468E+02</rscale>
<asrwt>0</asrwt>
<pdfrwt beam="1">  1        2 0.12067788E-03 0.57584468E+02</pdfrwt>
<pdfrwt beam="2">  1       -2 0.16259094E+00 0.57584468E+02</pdfrwt>
<totfact> 0.56401696E+04</totfact>
</mgrwt>
</event>
<event>
 4    1  0.4837985E-002  0.4019634E+02  0.7818608E-02  0.1506772E+00
         -2   -1    0    0  501    0 -0.00000000000E+00  0.00000000000E+00  0.42400276911E+00  0.42401043703E+00  0.25500000000E-02 0.  1.
          2   -1    0    0    0  501  0.00000000000E+00 -0.00000000000E+00 -0.95266543840E+03  0.95266543840E+03  0.25500000000E-02 0.  1.
          2    1    1    2    0  502 -0.10097567987E+02 -0.17348286187E+02 -0.49997954075E+03  0.50038231892E+03  0.25500000000E-02 0. -1.
         -2    1    1    2  502    0  0.10097567987E+02  0.17348286187E+02 -0.45226189487E+03  0.45270712991E+03  0.25500000000E-02 0. -1.
<mgrwt>
<rscale>  0 0.40196340E+02</rscale>
<asrwt>0</asrwt>
<pdfrwt beam="2">  1        2 0.14656220E+00 0.40196340E+02</pdfrwt>
<pdfrwt beam="1">  1       -2 0.65232548E-04 0.40196340E+02</pdfrwt>
<totfact> 0.19647465E+06</totfact>
</mgrwt>
</event>
<event>
 4    1  0.4837985E-002  0.5303335E+02  0.7818608E-02  0.1429635E+00
         -2   -1    0    0  501    0 -0.00000000000E+00  0.00000000000E+00  0.10163939062E+01  0.10163971050E+01  0.25500000000E-02 0.  1.
          2   -1    0    0    0  501  0.00000000000E+00 -0.00000000000E+00 -0.69179183793E+03  0.69179183794E+03  0.25500000000E-02 0.  1.
          2    1    1    2    0  502  0.17977822343E+02  0.10718886032E+02 -0.55806329964E+03  0.55845567687E+03  0.25500000000E-02 0.  1.
         -2    1    1    2  502    0 -0.17977822343E+02 -0.10718886032E+02 -0.13271214438E+03  0.13435255817E+03  0.25500000000E-02 0.  1.
<mgrwt>
<rscale>  0 0.53033352E+02</rscale>
<asrwt>0</asrwt>
<pdfrwt beam="2">  1        2 0.10642914E+00 0.53033352E+02</pdfrwt>
<pdfrwt beam="1">  1       -2 0.15636909E-03 0.53033352E+02</pdfrwt>
<totfact> 0.94847069E+05</totfact>
</mgrwt>
</event>
<event>
 4    1  0.4837985E-002  0.5668591E+02  0.7818608E-02  0.1412290E+00
         -2   -1    0    0  501    0 -0.00000000000E+00  0.00000000000E+00  0.20547293092E+03  0.20547293094E+03  0.25500000000E-02 0.  1.
          2   -1    0    0    0  501  0.00000000000E+00 -0.00000000000E+00 -0.39096292720E+01  0.39096301036E+01  0.25500000000E-02 0.  1.
          2    1    1    2    0  502 -0.22163180502E+02  0.21605917562E+01  0.36014995776E+02  0.42343295265E+02  0.25500000000E-02 0. -1.
         -2    1    1    2  502    0  0.22163180502E+02 -0.21605917562E+01  0.16554830588E+03  0.16703926578E+03  0.25500000000E-02 0. -1.
<mgrwt>
<rscale>  0 0.56685909E+02</rscale>
<asrwt>0</asrwt>
<pdfrwt beam="2">  1        2 0.60148138E-03 0.56685909E+02</pdfrwt>
<pdfrwt beam="1">  1       -2 0.31611226E-01 0.56685909E+02</pdfrwt>
<totfact> 0.20444724E+05</totfact>
</mgrwt>
</event>
<event>
 4    1  0.4837985E-002  0.5229120E+02  0.7818608E-02  0.1433361E+00
         -2   -1    0    0  501    0 -0.00000000000E+00  0.00000000000E+00  0.54776082294E+01  0.54776088229E+01  0.25500000000E-02 0. -1.
          2   -1    0    0    0  501  0.00000000000E+00 -0.00000000000E+00 -0.12479761518E+03  0.12479761520E+03  0.25500000000E-02 0. -1.
          2    1    1    2    0  502  0.10877582971E+02 -0.17279488549E+02 -0.18974798175E+02  0.27873742269E+02  0.25500000000E-02 0.  1.
         -2    1    1    2  502    0 -0.10877582971E+02  0.17279488549E+02 -0.10034520877E+03  0.10240148176E+03  0.25500000000E-02 0.  1.
<mgrwt>
<rscale>  0 0.52291203E+02</rscale>
<asrwt>0</asrwt>
<pdfrwt beam="2">  1        2 0.19199631E-01 0.52291203E+02</pdfrwt>
<pdfrwt beam="1">  1       -2 0.84270910E-03 0.52291203E+02</pdfrwt>
<totfact> 0.56788955E+05</totfact>
</mgrwt>
</event>
<event>
 4    1  0.4837985E-002  0.5805997E+02  0.7818608E-02  0.1406158E+00
         -2   -1    0    0  501    0 -0.00000000000E+00  0.00000000000E+00  0.37151834488E+01  0.37151843239E+01  0.25500000000E-02 0. -1.
          2   -1    0    0    0  501  0.00000000000E+00 -0.00000000000E+00 -0.22683666279E+03  0.22683666281E+03  0.25500000000E-02 0. -1.
          2    1    1    2    0  502  0.15794681683E+02 -0.23907704382E+02 -0.13005418078E+03  0.13317334659E+03  0.25500000000E-02 0.  1.
         -2    1    1    2  502    0 -0.15794681683E+02  0.23907704382E+02 -0.93067298567E+02  0.97378500540E+02  0.25500000000E-02 0.  1.
<mgrwt>
<rscale>  0 0.58059966E+02</rscale>
<asrwt>0</asrwt>
<pdfrwt beam="2">  1        2 0.34897937E-01 0.58059966E+02</pdfrwt>
<pdfrwt beam="1">  1       -2 0.57156693E-03 0.58059966E+02</pdfrwt>
<totfact> 0.52680564E+05</totfact>
</mgrwt>
</event>
<event>
 4    1  0.4837985E-002  0.4621938E+02  0.7818608E-02  0.1466870E+00
         -2   -1    0    0  501    0 -0.00000000000E+00  0.00000000000E+00  0.14887620219E+02  0.14887620437E+02  0.25500000000E-02 0. -1.
          2   -1    0    0    0  501  0.00000000000E+00 -0.00000000000E+00 -0.35872603174E+02  0.35872603264E+02  0.25500000000E-02 0. -1.
          2    1    1    2    0  502  0.12585792899E+02 -0.17437375419E+02 -0.19785066678E+02  0.29221791772E+02  0.25500000000E-02 0. -1.
         -2    1    1    2  502    0 -0.12585792899E+02  0.17437375419E+02 -0.11999162769E+01  0.21538431929E+02  0.25500000000E-02 0. -1.
<mgrwt>
<rscale>  0 0.46219377E+02</rscale>
<asrwt>0</asrwt>
<pdfrwt beam="2">  1        2 0.55188620E-02 0.46219377E+02</pdfrwt>
<pdfrwt beam="1">  1       -2 0.22904031E-02 0.46219377E+02</pdfrwt>
<totfact> 0.59233217E+05</totfact>
</mgrwt>
</event>
<event>
 4    1  0.4837985E-002  0.5346869E+02  0.7818608E-02  0.1427483E+00
         -2   -1    0    0  501    0 -0.00000000000E+00  0.00000000000E+00  0.10813280389E+01  0.10813310456E+01  0.25500000000E-02 0.  1.
          2   -1    0    0    0  501  0.00000000000E+00 -0.00000000000E+00 -0.66096878613E+03  0.66096878613E+03  0.25500000000E-02 0.  1.
          2    1    1    2    0  502 -0.17349696194E+02 -0.20168242797E+02 -0.29728923714E+03  0.29847723616E+03  0.25500000000E-02 0.  1.
         -2    1    1    2  502    0  0.17349696194E+02  0.20168242797E+02 -0.36259822095E+03  0.36357288102E+03  0.25500000000E-02 0.  1.
<mgrwt>
<rscale>  0 0.53468685E+02</rscale>
<asrwt>0</asrwt>
<pdfrwt beam="2">  1        2 0.10168718E+00 0.53468685E+02</pdfrwt>
<pdfrwt beam="1">  1       -2 0.16635892E-03 0.53468685E+02</pdfrwt>
<totfact> 0.91944766E+05</totfact>
</mgrwt>
</event>
<event>
 4    1  0.4837985E-002  0.7589999E+02  0.7818608E-02  0.1341106E+00
          2   -1    0    0    0  501  0.00000000000E+00  0.00000000000E+00  0.15307755037E+04  0.15307755038E+04  0.25500000000E-02 0. -1.
         -2   -1    0    0  501    0 -0.00000000000E+00 -0.00000000000E+00 -0.94082995968E+00  0.94083341540E+00  0.25500000000E-02 0. -1.
          2    1    1    2    0  502  0.34662750773E+02  0.75683805321E+01  0.10367325315E+04  0.10373394471E+04  0.25500000000E-02 0. -1.
         -2    1    1    2  502    0 -0.34662750773E+02 -0.75683805321E+01  0.49310214233E+03  0.49437689009E+03  0.25500000000E-02 0. -1.
<mgrwt>
<rscale>  0 0.75899990E+02</rscale>
<asrwt>0</asrwt>
<pdfrwt beam="1">  1        2 0.23550302E+00 0.75899990E+02</pdfrwt>
<pdfrwt beam="2">  1       -2 0.14474389E-03 0.75899990E+02</pdfrwt>
<totfact> 0.37789715E+05</totfact>
</mgrwt>
</event>
<event>
 4    1  0.4837985E-002  0.4156059E+02  0.7818608E-02  0.1497031E+00
          2   -1    0    0    0  501  0.00000000000E+00  0.00000000000E+00  0.16523180380E+02  0.16523180577E+02  0.25500000000E-02 0.  1.
         -2   -1    0    0  501    0 -0.00000000000E+00 -0.00000000000E+00 -0.26134235567E+02  0.26134235691E+02  0.25500000000E-02 0.  1.
          2    1    1    2    0  502  0.18361273457E+02 -0.84162013492E+01 -0.98182555806E+01  0.22458115621E+02  0.25500000000E-02 0. -1.
         -2    1    1    2  502    0 -0.18361273457E+02  0.84162013492E+01  0.20720039446E+00  0.20199300647E+02  0.25500000000E-02 0. -1.
<mgrwt>
<rscale>  0 0.41560592E+02</rscale>
<asrwt>0</asrwt>
<pdfrwt beam="1">  1        2 0.25420278E-02 0.41560592E+02</pdfrwt>
<pdfrwt beam="2">  1       -2 0.40206516E-02 0.41560592E+02</pdfrwt>
<totfact> 0.69657402E+05</totfact>
</mgrwt>
</event>
<event>
 4    1  0.4837985E-002  0.4607225E+02  0.7818608E-02  0.1467757E+00
          2   -1    0    0    0  501  0.00000000000E+00  0.00000000000E+00  0.47286123189E+02  0.47286123257E+02  0.25500000000E-02 0.  1.
         -2   -1    0    0  501    0 -0.00000000000E+00 -0.00000000000E+00 -0.11222383905E+02  0.11222384194E+02  0.25500000000E-02 0.  1.
          2    1    1    2    0  502 -0.17374613217E+02 -0.11201471656E+02  0.51239326011E+01  0.21298000928E+02  0.25500000000E-02 0. -1.
         -2    1    1    2  502    0  0.17374613217E+02  0.11201471656E+02  0.30939806683E+02  0.37210506524E+02  0.25500000000E-02 0. -1.
<mgrwt>
<rscale>  0 0.46072249E+02</rscale>
<asrwt>0</asrwt>
<pdfrwt beam="1">  1        2 0.72747880E-02 0.46072249E+02</pdfrwt>
<pdfrwt beam="2">  1       -2 0.17265207E-02 0.46072249E+02</pdfrwt>
<totfact> 0.62595529E+05</totfact>
</mgrwt>
</event>
<event>
 4    1  0.4837985E-002  0.5087281E+02  0.7818608E-02  0.1440690E+00
         -2   -1    0    0  501    0 -0.00000000000E+00  0.00000000000E+00  0.66320296256E+00  0.66320786488E+00  0.25500000000E-02 0. -1.
          2   -1    0    0    0  501  0.00000000000E+00 -0.00000000000E+00 -0.97558097921E+03  0.97558097922E+03  0.25500000000E-02 0. -1.
          2    1    1    2    0  502 -0.19154639069E+02  0.87222691348E+01 -0.76156728971E+03  0.76185806745E+03  0.25500000000E-02 0.  1.
         -2    1    1    2  502    0  0.19154639069E+02 -0.87222691348E+01 -0.21335048654E+03  0.21438611963E+03  0.25500000000E-02 0.  1.
<mgrwt>
<rscale>  0 0.50872806E+02</rscale>
<asrwt>0</asrwt>
<pdfrwt beam="2">  1        2 0.15008823E+00 0.50872806E+02</pdfrwt>
<pdfrwt beam="1">  1       -2 0.10203238E-03 0.50872806E+02</pdfrwt>
<totfact> 0.11079280E+06</totfact>
</mgrwt>
</event>
<event>
 4    1  0.4837985E-002  0.5771536E+02  0.7818608E-02  0.1407677E+00
         -2   -1    0    0  501    0 -0.00000000000E+00  0.00000000000E+00  0.78927738970E+00  0.78928150896E+00  0.25500000000E-02 0. -1.
          2   -1    0    0    0  501  0.00000000000E+00 -0.00000000000E+00 -0.10550961167E+04  0.10550961167E+04  0.25500000000E-02 0. -1.
          2    1    1    2    0  502  0.19818265232E+02 -0.20902974805E+02 -0.55919624847E+03  0.55993762358E+03  0.25500000000E-02 0. -1.
         -2    1    1    2  502    0 -0.19818265232E+02  0.20902974805E+02 -0.49511059089E+03  0.49594777468E+03  0.25500000000E-02 0. -1.
<mgrwt>
<rscale>  0 0.57715360E+02</rscale>
<asrwt>0</asrwt>
<pdfrwt beam="2">  1        2 0.16232135E+00 0.57715360E+02</pdfrwt>
<pdfrwt beam="1">  1       -2 0.12142845E-03 0.57715360E+02</pdfrwt>
<totfact> 0.81122830E+05</totfact>
</mgrwt>
</event>
<event>
 4    1  0.4837985E-002  0.9590301E+02  0.7818608E-02  0.1289155E+00
          2   -1    0    0    0  501  0.00000000000E+00  0.00000000000E+00  0.17604472715E+04  0.17604472715E+04  0.25500000000E-02 0.  1.
         -2   -1    0    0  501    0 -0.00000000000E+00 -0.00000000000E+00 -0.13061137870E+01  0.13061162763E+01  0.25500000000E-02 0.  1.
          2    1    1    2    0  502 -0.35734859075E+01  0.28166279704E+02  0.15894381593E+04  0.15896917221E+04  0.25500000000E-02 0. -1.
         -2    1    1    2  502    0  0.35734859075E+01 -0.28166279704E+02  0.16970299836E+03  0.17206166561E+03  0.25500000000E-02 0. -1.
<mgrwt>
<rscale>  0 0.95903006E+02</rscale>
<asrwt>0</asrwt>
<pdfrwt beam="1">  1        2 0.27083745E+00 0.95903006E+02</pdfrwt>
<pdfrwt beam="2">  1       -2 0.20094121E-03 0.95903006E+02</pdfrwt>
<totfact> 0.19034308E+05</totfact>
</mgrwt>
</event>
<event>
 4    1  0.4837985E-002  0.4115324E+02  0.7818608E-02  0.1499892E+00
          2   -1    0    0    0  501  0.00000000000E+00  0.00000000000E+00  0.46299368815E+03  0.46299368816E+03  0.25500000000E-02 0.  1.
         -2   -1    0    0  501    0 -0.00000000000E+00 -0.00000000000E+00 -0.91447566987E+00  0.91447922518E+00  0.25500000000E-02 0.  1.
          2    1    1    2    0  502 -0.56695992761E+00 -0.20210131963E+02  0.18792774335E+03  0.18901218903E+03  0.25500000000E-02 0. -1.
         -2    1    1    2  502    0  0.56695992761E+00  0.20210131963E+02  0.27415146913E+03  0.27489597835E+03  0.25500000000E-02 0. -1.
<mgrwt>
<rscale>  0 0.41153240E+02</rscale>
<asrwt>0</asrwt>
<pdfrwt beam="1">  1        2 0.71229660E-01 0.41153240E+02</pdfrwt>
<pdfrwt beam="2">  1       -2 0.14068911E-03 0.41153240E+02</pdfrwt>
<totfact> 0.15786332E+06</totfact>
</mgrwt>
</event>
<event>
 4    1  0.4837985E-002  0.2254087E+03  0.7818608E-02  0.1129914E+00
         -2   -1    0    0  501    0 -0.00000000000E+00  0.00000000000E+00  0.70492643375E+01  0.70492647987E+01  0.25500000000E-02 0.  1.
          2   -1    0    0    0  501  0.00000000000E+00 -0.00000000000E+00 -0.18019288955E+04  0.18019288955E+04  0.25500000000E-02 0.  1.
          2    1    1    2    0  502 -0.10047609852E+03 -0.32480433922E+02 -0.12135855058E+04  0.12181708438E+04  0.25500000000E-02 0. -1.
         -2    1    1    2  502    0  0.10047609852E+03  0.32480433922E+02 -0.58129412543E+03  0.59080731649E+03  0.25500000000E-02 0. -1.
<mgrwt>
<rscale>  0 0.22540873E+03</rscale>
<asrwt>0</asrwt>
<pdfrwt beam="2">  1        2 0.27721946E+00 0.22540873E+03</pdfrwt>
<pdfrwt beam="1">  1       -2 0.10845037E-02 0.22540873E+03</pdfrwt>
<totfact> 0.17765533E+04</totfact>
</mgrwt>
</event>
<event>
 4    1  0.4837985E-002  0.5247651E+02  0.7818608E-02  0.1432424E+00
         -2   -1    0    0  501    0 -0.00000000000E+00  0.00000000000E+00  0.10843727360E+02  0.10843727659E+02  0.25500000000E-02 0.  1.
          2   -1    0    0    0  501  0.00000000000E+00 -0.00000000000E+00 -0.63487939709E+02  0.63487939760E+02  0.25500000000E-02 0.  1.
          2    1    1    2    0  502  0.91685144228E+01 -0.24566579443E+02 -0.27641355759E+02  0.38100171088E+02  0.25500000000E-02 0.  1.
         -2    1    1    2  502    0 -0.91685144228E+01  0.24566579443E+02 -0.25002856590E+02  0.36231496331E+02  0.25500000000E-02 0.  1.
<mgrwt>
<rscale>  0 0.52476506E+02</rscale>
<asrwt>0</asrwt>
<pdfrwt beam="2">  1        2 0.97673751E-02 0.52476506E+02</pdfrwt>
<pdfrwt beam="1">  1       -2 0.16682658E-02 0.52476506E+02</pdfrwt>
<totfact> 0.47535167E+05</totfact>
</mgrwt>
</event>
<event>
 4    1  0.4837985E-002  0.5233458E+02  0.7818608E-02  0.1433141E+00
          2   -1    0    0    0  501  0.00000000000E+00  0.00000000000E+00  0.79942604114E+03  0.79942604115E+03  0.25500000000E-02 0.  1.
         -2   -1    0    0  501    0 -0.00000000000E+00 -0.00000000000E+00 -0.85652132845E+00  0.85652512432E+00  0.25500000000E-02 0.  1.
          2    1    1    2    0  502  0.23044039624E+02 -0.73885534441E+01  0.24705132050E+03  0.24823370733E+03  0.25500000000E-02 0. -1.
         -2    1    1    2  502    0 -0.23044039624E+02  0.73885534441E+01  0.55151819931E+03  0.55204885895E+03  0.25500000000E-02 0. -1.
<mgrwt>
<rscale>  0 0.52334577E+02</rscale>
<asrwt>0</asrwt>
<pdfrwt beam="1">  1        2 0.12298844E+00 0.52334577E+02</pdfrwt>
<pdfrwt beam="2">  1       -2 0.13177300E-03 0.52334577E+02</pdfrwt>
<totfact> 0.10089626E+06</totfact>
</mgrwt>
</event>
<event>
 4    1  0.4837985E-002  0.5660577E+02  0.7818608E-02  0.1412654E+00
         -2   -1    0    0  501    0 -0.00000000000E+00  0.00000000000E+00  0.20210417268E+01  0.20210433355E+01  0.25500000000E-02 0. -1.
          2   -1    0    0    0  501  0.00000000000E+00 -0.00000000000E+00 -0.39635654380E+03  0.39635654381E+03  0.25500000000E-02 0. -1.
          2    1    1    2    0  502  0.19901473724E+02  0.11593220077E+02 -0.81401058481E+02  0.84596712327E+02  0.25500000000E-02 0.  1.
         -2    1    1    2  502    0 -0.19901473724E+02 -0.11593220077E+02 -0.31293444359E+03  0.31378087482E+03  0.25500000000E-02 0.  1.
<mgrwt>
<rscale>  0 0.56605775E+02</rscale>
<asrwt>0</asrwt>
<pdfrwt beam="2">  1        2 0.60977868E-01 0.56605775E+02</pdfrwt>
<pdfrwt beam="1">  1       -2 0.31092994E-03 0.56605775E+02</pdfrwt>
<totfact> 0.68289737E+05</totfact>
</mgrwt>
</event>
<event>
 4    1  0.4837985E-002  0.6134214E+02  0.7818608E-02  0.1392284E+00
         -2   -1    0    0  501    0 -0.00000000000E+00  0.00000000000E+00  0.59995907112E+01  0.59995912531E+01  0.25500000000E-02 0.  1.
          2   -1    0    0    0  501  0.00000000000E+00 -0.00000000000E+00 -0.15679645693E+03  0.15679645695E+03  0.25500000000E-02 0.  1.
          2    1    1    2    0  502  0.16154078104E+02  0.25808594348E+02 -0.85213144888E+02  0.90489324507E+02  0.25500000000E-02 0. -1.
         -2    1    1    2  502    0 -0.16154078104E+02 -0.25808594348E+02 -0.65583721330E+02  0.72306723695E+02  0.25500000000E-02 0. -1.
<mgrwt>
<rscale>  0 0.61342143E+02</rscale>
<asrwt>0</asrwt>
<pdfrwt beam="2">  1        2 0.24122529E-01 0.61342143E+02</pdfrwt>
<pdfrwt beam="1">  1       -2 0.92301412E-03 0.61342143E+02</pdfrwt>
<totfact> 0.40459309E+05</totfact>
</mgrwt>
</event>
<event>
 4    1  0.4837985E-002  0.5853816E+02  0.7818608E-02  0.1404071E+00
         -2   -1    0    0  501    0 -0.00000000000E+00  0.00000000000E+00  0.30922284202E+01  0.30922294716E+01  0.25500000000E-02 0.  1.
          2   -1    0    0    0  501  0.00000000000E+00 -0.00000000000E+00 -0.27704255162E+03  0.27704255163E+03  0.25500000000E-02 0.  1.
          2    1    1    2    0  502  0.14606970899E+02  0.24756499833E+02 -0.11057619762E+03  0.11425122918E+03  0.25500000000E-02 0.  1.
         -2    1    1    2  502    0 -0.14606970899E+02 -0.24756499833E+02 -0.16337412557E+03  0.16588355191E+03  0.25500000000E-02 0.  1.
<mgrwt>
<rscale>  0 0.58538159E+02</rscale>
<asrwt>0</asrwt>
<pdfrwt beam="2">  1        2 0.42621912E-01 0.58538159E+02</pdfrwt>
<pdfrwt beam="1">  1       -2 0.47572775E-03 0.58538159E+02</pdfrwt>
<totfact> 0.55334227E+05</totfact>
</mgrwt>
</event>
<event>
 4    1  0.4837985E-002  0.5354962E+02  0.7818608E-02  0.1427085E+00
          2   -1    0    0    0  501  0.00000000000E+00  0.00000000000E+00  0.15208656434E+04  0.15208656434E+04  0.25500000000E-02 0. -1.
         -2   -1    0    0  501    0 -0.00000000000E+00 -0.00000000000E+00 -0.47136652510E+00  0.47137342255E+00  0.25500000000E-02 0. -1.
          2    1    1    2    0  502  0.12236466379E+02  0.19759794279E+02  0.38253852771E+03  0.38324392464E+03  0.25500000000E-02 0. -1.
         -2    1    1    2  502    0 -0.12236466379E+02 -0.19759794279E+02  0.11378557491E+04  0.11380930922E+04  0.25500000000E-02 0. -1.
<mgrwt>
<rscale>  0 0.53549618E+02</rscale>
<asrwt>0</asrwt>
<pdfrwt beam="1">  1        2 0.23397846E+00 0.53549618E+02</pdfrwt>
<pdfrwt beam="2">  1       -2 0.72518728E-04 0.53549618E+02</pdfrwt>
<totfact> 0.91938550E+05</totfact>
</mgrwt>
</event>
<event>
 4    1  0.4837985E-002  0.8748710E+02  0.7818608E-02  0.1309054E+00
         -2   -1    0    0  501    0 -0.00000000000E+00  0.00000000000E+00  0.22150069475E+02  0.22150069621E+02  0.25500000000E-02 0.  1.
          2   -1    0    0    0  501  0.00000000000E+00 -0.00000000000E+00 -0.86387905299E+02  0.86387905337E+02  0.25500000000E-02 0.  1.
          2    1    1    2    0  502 -0.43197626580E+02  0.63988005481E+01 -0.35286384928E+02  0.56143642190E+02  0.25500000000E-02 0. -1.
         -2    1    1    2  502    0  0.43197626580E+02 -0.63988005481E+01 -0.28951450897E+02  0.52394332768E+02  0.25500000000E-02 0. -1.
<mgrwt>
<rscale>  0 0.87487099E+02</rscale>
<asrwt>0</asrwt>
<pdfrwt beam="2">  1        2 0.13290447E-01 0.87487099E+02</pdfrwt>
<pdfrwt beam="1">  1       -2 0.34077031E-02 0.87487099E+02</pdfrwt>
<totfact> 0.13161087E+05</totfact>
</mgrwt>
</event>
<event>
 4    1  0.4837985E-002  0.4873053E+02  0.7818608E-02  0.1452311E+00
          2   -1    0    0    0  501  0.00000000000E+00  0.00000000000E+00  0.39127492037E+01  0.39127500346E+01  0.25500000000E-02 0. -1.
         -2   -1    0    0  501    0 -0.00000000000E+00 -0.00000000000E+00 -0.15172609524E+03  0.15172609526E+03  0.25500000000E-02 0. -1.
          2    1    1    2    0  502 -0.24302894208E+02  0.13094072098E+01 -0.70235803856E+02  0.74333124271E+02  0.25500000000E-02 0.  1.
         -2    1    1    2  502    0  0.24302894208E+02 -0.13094072098E+01 -0.77577542178E+02  0.81305721022E+02  0.25500000000E-02 0.  1.
<mgrwt>
<rscale>  0 0.48730534E+02</rscale>
<asrwt>0</asrwt>
<pdfrwt beam="1">  1        2 0.60196160E-03 0.48730534E+02</pdfrwt>
<pdfrwt beam="2">  1       -2 0.23342472E-01 0.48730534E+02</pdfrwt>
<totfact> 0.33283758E+05</totfact>
</mgrwt>
</event>
<event>
 4    1  0.4837985E-002  0.4570716E+02  0.7818608E-02  0.1469975E+00
         -2   -1    0    0  501    0 -0.00000000000E+00  0.00000000000E+00  0.20480771713E+00  0.20482359116E+00  0.25500000000E-02 0. -1.
          2   -1    0    0    0  501  0.00000000000E+00 -0.00000000000E+00 -0.25500302789E+04  0.25500302789E+04  0.25500000000E-02 0. -1.
          2    1    1    2    0  502 -0.18870946846E+02 -0.12035685467E+02 -0.15325130325E+04  0.15326764711E+04  0.25500000000E-02 0.  1.
         -2    1    1    2  502    0  0.18870946846E+02  0.12035685467E+02 -0.10173124387E+04  0.10175586314E+04  0.25500000000E-02 0.  1.
<mgrwt>
<rscale>  0 0.45707160E+02</rscale>
<asrwt>0</asrwt>
<pdfrwt beam="2">  1        2 0.39228693E+00 0.45707160E+02</pdfrwt>
<pdfrwt beam="1">  1       -2 0.31512143E-04 0.45707160E+02</pdfrwt>
<totfact> 0.85062242E+05</totfact>
</mgrwt>
</event>
<event>
 4    1  0.4837985E-002  0.4781698E+02  0.7818608E-02  0.1457485E+00
         -2   -1    0    0  501    0 -0.00000000000E+00  0.00000000000E+00  0.81074294661E+00  0.81074695681E+00  0.25500000000E-02 0. -1.
          2   -1    0    0    0  501  0.00000000000E+00 -0.00000000000E+00 -0.70505017540E+03  0.70505017541E+03  0.25500000000E-02 0. -1.
          2    1    1    2    0  502  0.14849675317E+01 -0.22872774160E+02 -0.25173247758E+03  0.25277383014E+03  0.25500000000E-02 0.  1.
         -2    1    1    2  502    0 -0.14849675317E+01  0.22872774160E+02 -0.45250695488E+03  0.45308709223E+03  0.25500000000E-02 0.  1.
<mgrwt>
<rscale>  0 0.47816979E+02</rscale>
<asrwt>0</asrwt>
<pdfrwt beam="2">  1        2 0.10846877E+00 0.47816979E+02</pdfrwt>
<pdfrwt beam="1">  1       -2 0.12473056E-03 0.47816979E+02</pdfrwt>
<totfact> 0.12301545E+06</totfact>
</mgrwt>
</event>
<event>
 4    1  0.4837985E-002  0.5117719E+02  0.7818608E-02  0.1439094E+00
          2   -1    0    0    0  501  0.00000000000E+00  0.00000000000E+00  0.22743472023E+04  0.22743472024E+04  0.25500000000E-02 0. -1.
         -2   -1    0    0  501    0 -0.00000000000E+00 -0.00000000000E+00 -0.28789069813E+00  0.28790199126E+00  0.25500000000E-02 0. -1.
          2    1    1    2    0  502 -0.21923303653E+02  0.10817016600E+02  0.80106423801E+03  0.80143717939E+03  0.25500000000E-02 0.  1.
         -2    1    1    2  502    0  0.21923303653E+02 -0.10817016600E+02  0.14729950736E+04  0.14731979250E+04  0.25500000000E-02 0.  1.
<mgrwt>
<rscale>  0 0.51177192E+02</rscale>
<asrwt>0</asrwt>
<pdfrwt beam="1">  1        2 0.34990124E+00 0.51177192E+02</pdfrwt>
<pdfrwt beam="2">  1       -2 0.44291535E-04 0.51177192E+02</pdfrwt>
<totfact> 0.75662003E+05</totfact>
</mgrwt>
</event>
<event>
 4    1  0.4837985E-002  0.6022713E+02  0.7818608E-02  0.1396881E+00
          2   -1    0    0    0  501  0.00000000000E+00  0.00000000000E+00  0.18889687251E+01  0.18889704463E+01  0.25500000000E-02 0.  1.
         -2   -1    0    0  501    0 -0.00000000000E+00 -0.00000000000E+00 -0.48006426033E+03  0.48006426033E+03  0.25500000000E-02 0.  1.
          2    1    1    2    0  502  0.15213665914E+02 -0.20321405356E+02 -0.10945801773E+03  0.11236312918E+03  0.25500000000E-02 0.  1.
         -2    1    1    2  502    0 -0.15213665914E+02  0.20321405356E+02 -0.36871727387E+03  0.36959010161E+03  0.25500000000E-02 0.  1.
<mgrwt>
<rscale>  0 0.60227130E+02</rscale>
<asrwt>0</asrwt>
<pdfrwt beam="1">  1        2 0.29061109E-03 0.60227130E+02</pdfrwt>
<pdfrwt beam="2">  1       -2 0.73855943E-01 0.60227130E+02</pdfrwt>
<totfact> 0.10780038E+05</totfact>
</mgrwt>
</event>
<event>
 4    1  0.4837985E-002  0.1010969E+03  0.7818608E-02  0.1278006E+00
          2   -1    0    0    0  501  0.00000000000E+00  0.00000000000E+00  0.15783338049E+02  0.15783338255E+02  0.25500000000E-02 0.  1.
         -2   -1    0    0  501    0 -0.00000000000E+00 -0.00000000000E+00 -0.16188880035E+03  0.16188880037E+03  0.25500000000E-02 0.  1.
          2    1    1    2    0  502  0.43456689965E+02  0.25070771425E+02 -0.83903178794E+02  0.97758738233E+02  0.25500000000E-02 0. -1.
         -2    1    1    2  502    0 -0.43456689965E+02 -0.25070771425E+02 -0.62202283511E+02  0.79913400397E+02  0.25500000000E-02 0. -1.
<mgrwt>
<rscale>  0 0.10109690E+03</rscale>
<asrwt>0</asrwt>
<pdfrwt beam="1">  1        2 0.24282060E-02 0.10109690E+03</pdfrwt>
<pdfrwt beam="2">  1       -2 0.24905968E-01 0.10109690E+03</pdfrwt>
<totfact> 0.52229161E+04</totfact>
</mgrwt>
</event>
<event>
 4    1  0.4837985E-002  0.5753944E+02  0.7818608E-02  0.1408458E+00
          2   -1    0    0    0  501  0.00000000000E+00  0.00000000000E+00  0.56637377833E+01  0.56637383573E+01  0.25500000000E-02 0.  1.
         -2   -1    0    0  501    0 -0.00000000000E+00 -0.00000000000E+00 -0.14613965892E+03  0.14613965894E+03  0.25500000000E-02 0.  1.
          2    1    1    2    0  502 -0.74038371839E+01 -0.26673677931E+02 -0.90909928898E+02  0.95031137414E+02  0.25500000000E-02 0.  1.
         -2    1    1    2  502    0  0.74038371839E+01  0.26673677931E+02 -0.49565992239E+02  0.56772259886E+02  0.25500000000E-02 0.  1.
<mgrwt>
<rscale>  0 0.57539439E+02</rscale>
<asrwt>0</asrwt>
<pdfrwt beam="1">  1        2 0.87134443E-03 0.57539439E+02</pdfrwt>
<pdfrwt beam="2">  1       -2 0.22483022E-01 0.57539439E+02</pdfrwt>
<totfact> 0.22382521E+05</totfact>
</mgrwt>
</event>
<event>
 4    1  0.4837985E-002  0.1024977E+03  0.7818608E-02  0.1275130E+00
         -2   -1    0    0  501    0 -0.00000000000E+00  0.00000000000E+00  0.10113009242E+02  0.10113009564E+02  0.25500000000E-02 0.  1.
          2   -1    0    0    0  501  0.00000000000E+00 -0.00000000000E+00 -0.25970961579E+03  0.25970961580E+03  0.25500000000E-02 0.  1.
          2    1    1    2    0  502  0.16221981767E+02 -0.16050004924E+02 -0.39998400594E+01  0.23167953676E+02  0.25500000000E-02 0. -1.
         -2    1    1    2  502    0 -0.16221981767E+02  0.16050004924E+02 -0.24559676649E+03  0.24665467169E+03  0.25500000000E-02 0. -1.
<mgrwt>
<rscale>  0 0.10249772E+03</rscale>
<asrwt>0</asrwt>
<pdfrwt beam="2">  1        2 0.39955320E-01 0.10249772E+03</pdfrwt>
<pdfrwt beam="1">  1       -2 0.15558478E-02 0.10249772E+03</pdfrwt>
<totfact> 0.12419295E+05</totfact>
</mgrwt>
</event>
<event>
 4    1  0.4837985E-002  0.4274375E+02  0.7818608E-02  0.1488939E+00
          2   -1    0    0    0  501  0.00000000000E+00  0.00000000000E+00  0.85319023126E+03  0.85319023126E+03  0.25500000000E-02 0. -1.
         -2   -1    0    0  501    0 -0.00000000000E+00 -0.00000000000E+00 -0.53534886401E+00  0.53535493711E+00  0.25500000000E-02 0. -1.
          2    1    1    2    0  502 -0.11348349036E+02  0.18033781640E+02  0.39317747868E+03  0.39375440575E+03  0.25500000000E-02 0. -1.
         -2    1    1    2  502    0  0.11348349036E+02 -0.18033781640E+02  0.45947740372E+03  0.45997118045E+03  0.25500000000E-02 0. -1.
<mgrwt>
<rscale>  0 0.42743749E+02</rscale>
<asrwt>0</asrwt>
<pdfrwt beam="1">  1        2 0.13125931E+00 0.42743749E+02</pdfrwt>
<pdfrwt beam="2">  1       -2 0.82362284E-04 0.42743749E+02</pdfrwt>
<totfact> 0.16736855E+06</totfact>
</mgrwt>
</event>
<event>
 4    1  0.4837985E-002  0.7404392E+02  0.7818608E-02  0.1346858E+00
          2   -1    0    0    0  501  0.00000000000E+00  0.00000000000E+00  0.11405552988E+04  0.11405552988E+04  0.25500000000E-02 0. -1.
         -2   -1    0    0  501    0 -0.00000000000E+00 -0.00000000000E+00 -0.12017162211E+01  0.12017189266E+01  0.25500000000E-02 0. -1.
          2    1    1    2    0  502 -0.33747500111E+02  0.84020635861E+01  0.76541780160E+03  0.76620747807E+03  0.25500000000E-02 0.  1.
         -2    1    1    2  502    0  0.33747500111E+02 -0.84020635861E+01  0.37393578098E+03  0.37554953966E+03  0.25500000000E-02 0.  1.
<mgrwt>
<rscale>  0 0.74043915E+02</rscale>
<asrwt>0</asrwt>
<pdfrwt beam="1">  1        2 0.17547048E+00 0.74043915E+02</pdfrwt>
<pdfrwt beam="2">  1       -2 0.18487917E-03 0.74043915E+02</pdfrwt>
<totfact> 0.42957142E+05</totfact>
</mgrwt>
</event>
<event>
 4    1  0.4837985E-002  0.4016285E+02  0.7818608E-02  0.1507016E+00
         -2   -1    0    0  501    0 -0.00000000000E+00  0.00000000000E+00  0.30757202864E+00  0.30758259915E+00  0.25500000000E-02 0. -1.
          2   -1    0    0    0  501  0.00000000000E+00 -0.00000000000E+00 -0.13110969200E+04  0.13110969200E+04  0.25500000000E-02 0. -1.
          2    1    1    2    0  502 -0.15994997533E+02 -0.12086363433E+02 -0.69324217323E+03  0.69353199701E+03  0.25500000000E-02 0.  1.
         -2    1    1    2  502    0  0.15994997533E+02  0.12086363433E+02 -0.61754717472E+03  0.61787250557E+03  0.25500000000E-02 0.  1.
<mgrwt>
<rscale>  0 0.40162852E+02</rscale>
<asrwt>0</asrwt>
<pdfrwt beam="2">  1        2 0.20170275E+00 0.40162852E+02</pdfrwt>
<pdfrwt beam="1">  1       -2 0.47320637E-04 0.40162852E+02</pdfrwt>
<totfact> 0.19425565E+06</totfact>
</mgrwt>
</event>
<event>
 4    1  0.4837985E-002  0.6695024E+02  0.7818608E-02  0.1370782E+00
         -2   -1    0    0  501    0 -0.00000000000E+00  0.00000000000E+00  0.89233965180E+00  0.89234329530E+00  0.25500000000E-02 0. -1.
          2   -1    0    0    0  501  0.00000000000E+00 -0.00000000000E+00 -0.12557789266E+04  0.12557789266E+04  0.25500000000E-02 0. -1.
          2    1    1    2    0  502 -0.93585878186E+01 -0.31903418627E+02 -0.70055647355E+03  0.70134498210E+03  0.25500000000E-02 0. -1.
         -2    1    1    2  502    0  0.93585878186E+01  0.31903418627E+02 -0.55433011336E+03  0.55532628775E+03  0.25500000000E-02 0. -1.
<mgrwt>
<rscale>  0 0.66950239E+02</rscale>
<asrwt>0</asrwt>
<pdfrwt beam="2">  1        2 0.19319534E+00 0.66950239E+02</pdfrwt>
<pdfrwt beam="1">  1       -2 0.13728431E-03 0.66950239E+02</pdfrwt>
<totfact> 0.55046632E+05</totfact>
</mgrwt>
</event>
<event>
 4    1  0.4837985E-002  0.5688603E+02  0.7818608E-02  0.1411385E+00
          2   -1    0    0    0  501  0.00000000000E+00  0.00000000000E+00  0.13545989607E+03  0.13545989609E+03  0.25500000000E-02 0.  1.
         -2   -1    0    0  501    0 -0.00000000000E+00 -0.00000000000E+00 -0.59722842738E+01  0.59722848182E+01  0.25500000000E-02 0.  1.
          2    1    1    2    0  502 -0.24656980437E+02  0.11594193794E+01  0.99877615815E+02  0.10288269575E+03  0.25500000000E-02 0. -1.
         -2    1    1    2  502    0  0.24656980437E+02 -0.11594193794E+01  0.29609995976E+02  0.38549485156E+02  0.25500000000E-02 0. -1.
<mgrwt>
<rscale>  0 0.56886028E+02</rscale>
<asrwt>0</asrwt>
<pdfrwt beam="1">  1        2 0.20839984E-01 0.56886028E+02</pdfrwt>
<pdfrwt beam="2">  1       -2 0.91881302E-03 0.56886028E+02</pdfrwt>
<totfact> 0.46931646E+05</totfact>
</mgrwt>
</event>
<event>
 4    1  0.4837985E-002  0.4393904E+02  0.7818608E-02  0.1481076E+00
          2   -1    0    0    0  501  0.00000000000E+00  0.00000000000E+00  0.64854304730E+01  0.64854309743E+01  0.25500000000E-02 0. -1.
         -2   -1    0    0  501    0 -0.00000000000E+00 -0.00000000000E+00 -0.74422176203E+02  0.74422176246E+02  0.25500000000E-02 0. -1.
          2    1    1    2    0  502 -0.14596546820E+02 -0.16276316307E+02 -0.29983959706E+02  0.37108159449E+02  0.25500000000E-02 0. -1.
         -2    1    1    2  502    0  0.14596546820E+02  0.16276316307E+02 -0.37952786024E+02  0.43799447771E+02  0.25500000000E-02 0. -1.
<mgrwt>
<rscale>  0 0.43939043E+02</rscale>
<asrwt>0</asrwt>
<pdfrwt beam="1">  1        2 0.99775863E-03 0.43939043E+02</pdfrwt>
<pdfrwt beam="2">  1       -2 0.11449565E-01 0.43939043E+02</pdfrwt>
<totfact> 0.51630650E+05</totfact>
</mgrwt>
</event>
<event>
 4    1  0.4837985E-002  0.5989466E+02  0.7818608E-02  0.1398274E+00
          2   -1    0    0    0  501  0.00000000000E+00  0.00000000000E+00  0.88263192086E+02  0.88263192123E+02  0.25500000000E-02 0.  1.
         -2   -1    0    0  501    0 -0.00000000000E+00 -0.00000000000E+00 -0.10161002781E+02  0.10161003101E+02  0.25500000000E-02 0.  1.
          2    1    1    2    0  502 -0.22229890760E+02 -0.17353041001E+02  0.22491633492E+02  0.36071729357E+02  0.25500000000E-02 0. -1.
         -2    1    1    2  502    0  0.22229890760E+02  0.17353041001E+02  0.55610555814E+02  0.62352465866E+02  0.25500000000E-02 0. -1.
<mgrwt>
<rscale>  0 0.59894659E+02</rscale>
<asrwt>0</asrwt>
<pdfrwt beam="1">  1        2 0.13578952E-01 0.59894659E+02</pdfrwt>
<pdfrwt beam="2">  1       -2 0.15632313E-02 0.59894659E+02</pdfrwt>
<totfact> 0.36470441E+05</totfact>
</mgrwt>
</event>
<event>
 4    1  0.4837985E-002  0.5225682E+02  0.7818608E-02  0.1433536E+00
         -2   -1    0    0  501    0 -0.00000000000E+00  0.00000000000E+00  0.12893906449E+01  0.12893931665E+01  0.25500000000E-02 0. -1.
          2   -1    0    0    0  501  0.00000000000E+00 -0.00000000000E+00 -0.52946952522E+03  0.52946952523E+03  0.25500000000E-02 0. -1.
          2    1    1    2    0  502  0.42777978216E+01 -0.20921759069E+02 -0.11117321231E+03  0.11320557716E+03  0.25500000000E-02 0.  1.
         -2    1    1    2  502    0 -0.42777978216E+01  0.20921759069E+02 -0.41700692226E+03  0.41755334124E+03  0.25500000000E-02 0.  1.
<mgrwt>
<rscale>  0 0.52256817E+02</rscale>
<asrwt>0</asrwt>
<pdfrwt beam="2">  1        2 0.81456677E-01 0.52256817E+02</pdfrwt>
<pdfrwt beam="1">  1       -2 0.19836841E-03 0.52256817E+02</pdfrwt>
<totfact> 0.91602364E+05</totfact>
</mgrwt>
</event>
<event>
 4    1  0.4837985E-002  0.1006209E+03  0.7818608E-02  0.1278996E+00
         -2   -1    0    0  501    0 -0.00000000000E+00  0.00000000000E+00  0.94186668482E+01  0.94186671934E+01  0.25500000000E-02 0. -1.
          2   -1    0    0    0  501  0.00000000000E+00 -0.00000000000E+00 -0.26873664720E+03  0.26873664722E+03  0.25500000000E-02 0. -1.
          2    1    1    2    0  502 -0.20975727001E+02 -0.45345937385E+02 -0.14599132210E+03  0.15430392508E+03  0.25500000000E-02 0. -1.
         -2    1    1    2  502    0  0.20975727001E+02  0.45345937385E+02 -0.11332665825E+03  0.12385138933E+03  0.25500000000E-02 0. -1.
<mgrwt>
<rscale>  0 0.10062089E+03</rscale>
<asrwt>0</asrwt>
<pdfrwt beam="2">  1        2 0.41344094E-01 0.10062089E+03</pdfrwt>
<pdfrwt beam="1">  1       -2 0.14490259E-02 0.10062089E+03</pdfrwt>
<totfact> 0.13227290E+05</totfact>
</mgrwt>
</event>
<event>
 4    1  0.4837985E-002  0.6131477E+02  0.7818608E-02  0.1392396E+00
         -2   -1    0    0  501    0 -0.00000000000E+00  0.00000000000E+00  0.25068670905E+01  0.25068683875E+01  0.25500000000E-02 0.  1.
          2   -1    0    0    0  501  0.00000000000E+00 -0.00000000000E+00 -0.37492011263E+03  0.37492011264E+03  0.25500000000E-02 0.  1.
          2    1    1    2    0  502  0.28566246065E+02 -0.60511724025E+01 -0.12871614747E+03  0.13198671800E+03  0.25500000000E-02 0. -1.
         -2    1    1    2  502    0 -0.28566246065E+02  0.60511724025E+01 -0.24369709807E+03  0.24544026303E+03  0.25500000000E-02 0. -1.
<mgrwt>
<rscale>  0 0.61314766E+02</rscale>
<asrwt>0</asrwt>
<pdfrwt beam="2">  1        2 0.57679973E-01 0.61314766E+02</pdfrwt>
<pdfrwt beam="1">  1       -2 0.38567226E-03 0.61314766E+02</pdfrwt>
<totfact> 0.54724873E+05</totfact>
</mgrwt>
</event>
<event>
 4    1  0.4837985E-002  0.5702187E+02  0.7818608E-02  0.1410772E+00
          2   -1    0    0    0  501  0.00000000000E+00  0.00000000000E+00  0.12396562680E+03  0.12396562683E+03  0.25500000000E-02 0. -1.
         -2   -1    0    0  501    0 -0.00000000000E+00 -0.00000000000E+00 -0.65572490619E+01  0.65572495577E+01  0.25500000000E-02 0. -1.
          2    1    1    2    0  502  0.14740962065E+02 -0.15958664866E+02  0.16441439997E+02  0.27245107865E+02  0.25500000000E-02 0. -1.
         -2    1    1    2  502    0 -0.14740962065E+02  0.15958664866E+02  0.10096693774E+03  0.10327776852E+03  0.25500000000E-02 0. -1.
<mgrwt>
<rscale>  0 0.57021874E+02</rscale>
<asrwt>0</asrwt>
<pdfrwt beam="1">  1        2 0.19071633E-01 0.57021874E+02</pdfrwt>
<pdfrwt beam="2">  1       -2 0.10088077E-02 0.57021874E+02</pdfrwt>
<totfact> 0.45437249E+05</totfact>
</mgrwt>
</event>
<event>
 4    1  0.4837985E-002  0.7029599E+02  0.7818608E-02  0.1359089E+00
          2   -1    0    0    0  501  0.00000000000E+00  0.00000000000E+00  0.86684556527E+02  0.86684556565E+02  0.25500000000E-02 0.  1.
         -2   -1    0    0  501    0 -0.00000000000E+00 -0.00000000000E+00 -0.14251460268E+02  0.14251460496E+02  0.25500000000E-02 0.  1.
          2    1    1    2    0  502 -0.27412253698E+02 -0.10956478790E+02  0.63607674417E+02  0.70124263501E+02  0.25500000000E-02 0.  1.
         -2    1    1    2  502    0  0.27412253698E+02  0.10956478790E+02  0.88254218420E+01  0.30811753560E+02  0.25500000000E-02 0.  1.
<mgrwt>
<rscale>  0 0.70295989E+02</rscale>
<asrwt>0</asrwt>
<pdfrwt beam="1">  1        2 0.13336086E-01 0.70295989E+02</pdfrwt>
<pdfrwt beam="2">  1       -2 0.21925324E-02 0.70295989E+02</pdfrwt>
<totfact> 0.23813818E+05</totfact>
</mgrwt>
</event>
<event>
 4    1  0.4837985E-002  0.7731375E+02  0.7818608E-02  0.1336852E+00
         -2   -1    0    0  501    0 -0.00000000000E+00  0.00000000000E+00  0.15994090810E+02  0.15994091014E+02  0.25500000000E-02 0. -1.
          2   -1    0    0    0  501  0.00000000000E+00 -0.00000000000E+00 -0.93431640868E+02  0.93431640902E+02  0.25500000000E-02 0. -1.
          2    1    1    2    0  502 -0.34315105086E+02 -0.65049099407E+00 -0.63894621192E+02  0.72529112771E+02  0.25500000000E-02 0.  1.
         -2    1    1    2  502    0  0.34315105086E+02  0.65049099407E+00 -0.13542928865E+02  0.36896619145E+02  0.25500000000E-02 0.  1.
<mgrwt>
<rscale>  0 0.77313755E+02</rscale>
<asrwt>0</asrwt>
<pdfrwt beam="2">  1        2 0.14374098E-01 0.77313755E+02</pdfrwt>
<pdfrwt beam="1">  1       -2 0.24606294E-02 0.77313755E+02</pdfrwt>
<totfact> 0.18841399E+05</totfact>
</mgrwt>
</event>
<event>
 4    1  0.4837985E-002  0.5700922E+02  0.7818608E-02  0.1410829E+00
          2   -1    0    0    0  501  0.00000000000E+00  0.00000000000E+00  0.71626467581E+03  0.71626467581E+03  0.25500000000E-02 0.  1.
         -2   -1    0    0  501    0 -0.00000000000E+00 -0.00000000000E+00 -0.11343735869E+01  0.11343764530E+01  0.25500000000E-02 0.  1.
          2    1    1    2    0  502 -0.25574914289E+02 -0.10050656700E+02  0.26220863587E+03  0.26364457262E+03  0.25500000000E-02 0. -1.
         -2    1    1    2  502    0  0.25574914289E+02  0.10050656700E+02  0.45292166635E+03  0.45375447964E+03  0.25500000000E-02 0. -1.
<mgrwt>
<rscale>  0 0.57009219E+02</rscale>
<asrwt>0</asrwt>
<pdfrwt beam="1">  1        2 0.11019440E+00 0.57009219E+02</pdfrwt>
<pdfrwt beam="2">  1       -2 0.17451950E-03 0.57009219E+02</pdfrwt>
<totfact> 0.79800308E+05</totfact>
</mgrwt>
</event>
<event>
 4    1  0.4837985E-002  0.4686819E+02  0.7818608E-02  0.1463005E+00
          2   -1    0    0    0  501  0.00000000000E+00  0.00000000000E+00  0.20899243338E+02  0.20899243493E+02  0.25500000000E-02 0. -1.
         -2   -1    0    0  501    0 -0.00000000000E+00 -0.00000000000E+00 -0.26276394611E+02  0.26276394735E+02  0.25500000000E-02 0. -1.
          2    1    1    2    0  502  0.20297669008E+02  0.10396436503E+02  0.27389671717E+01  0.22969179498E+02  0.25500000000E-02 0.  1.
         -2    1    1    2  502    0 -0.20297669008E+02 -0.10396436503E+02 -0.81161184450E+01  0.24206458730E+02  0.25500000000E-02 0.  1.
<mgrwt>
<rscale>  0 0.46868188E+02</rscale>
<asrwt>0</asrwt>
<pdfrwt beam="1">  1        2 0.32152682E-02 0.46868188E+02</pdfrwt>
<pdfrwt beam="2">  1       -2 0.40425223E-02 0.46868188E+02</pdfrwt>
<totfact> 0.52607167E+05</totfact>
</mgrwt>
</event>
<event>
 4    1  0.4837985E-002  0.7181213E+02  0.7818608E-02  0.1354037E+00
          2   -1    0    0    0  501  0.00000000000E+00  0.00000000000E+00  0.13793067066E+02  0.13793067302E+02  0.25500000000E-02 0. -1.
         -2   -1    0    0  501    0 -0.00000000000E+00 -0.00000000000E+00 -0.93470551117E+02  0.93470551151E+02  0.25500000000E-02 0. -1.
          2    1    1    2    0  502  0.28209240522E+01  0.34935327862E+02 -0.28190909131E+02  0.44979574358E+02  0.25500000000E-02 0. -1.
         -2    1    1    2  502    0 -0.28209240522E+01 -0.34935327862E+02 -0.51486574920E+02  0.62284044095E+02  0.25500000000E-02 0. -1.
<mgrwt>
<rscale>  0 0.71812133E+02</rscale>
<asrwt>0</asrwt>
<pdfrwt beam="1">  1        2 0.21220104E-02 0.71812133E+02</pdfrwt>
<pdfrwt beam="2">  1       -2 0.14380084E-01 0.71812133E+02</pdfrwt>
<totfact> 0.14721020E+05</totfact>
</mgrwt>
</event>
<event>
 4    1  0.4837985E-002  0.4518712E+02  0.7818608E-02  0.1473177E+00
          2   -1    0    0    0  501  0.00000000000E+00  0.00000000000E+00  0.82218384611E+01  0.82218388565E+01  0.25500000000E-02 0. -1.
         -2   -1    0    0  501    0 -0.00000000000E+00 -0.00000000000E+00 -0.62086968551E+02  0.62086968603E+02  0.25500000000E-02 0. -1.
          2    1    1    2    0  502 -0.17610783958E+02  0.11353350895E+02 -0.13782205478E+02  0.25079622854E+02  0.25500000000E-02 0. -1.
         -2    1    1    2  502    0  0.17610783958E+02 -0.11353350895E+02 -0.40082924612E+02  0.45229184606E+02  0.25500000000E-02 0. -1.
<mgrwt>
<rscale>  0 0.45187124E+02</rscale>
<asrwt>0</asrwt>
<pdfrwt beam="1">  1        2 0.12648983E-02 0.45187124E+02</pdfrwt>
<pdfrwt beam="2">  1       -2 0.95518410E-02 0.45187124E+02</pdfrwt>
<totfact> 0.50003479E+05</totfact>
</mgrwt>
</event>
<event>
 4    1  0.4837985E-002  0.6371709E+02  0.7818608E-02  0.1382863E+00
          2   -1    0    0    0  501  0.00000000000E+00  0.00000000000E+00  0.59180088252E+03  0.59180088252E+03  0.25500000000E-02 0. -1.
         -2   -1    0    0  501    0 -0.00000000000E+00 -0.00000000000E+00 -0.17150472115E+01  0.17150491072E+01  0.25500000000E-02 0. -1.
          2    1    1    2    0  502  0.54758434769E+01  0.19515352217E+02  0.66091802126E+02  0.69130023497E+02  0.25500000000E-02 0.  1.
         -2    1    1    2  502    0 -0.54758434769E+01 -0.19515352217E+02  0.52399403318E+03  0.52438590813E+03  0.25500000000E-02 0.  1.
<mgrwt>
<rscale>  0 0.63717094E+02</rscale>
<asrwt>0</asrwt>
<pdfrwt beam="1">  1        2 0.91046281E-01 0.63717094E+02</pdfrwt>
<pdfrwt beam="2">  1       -2 0.26385359E-03 0.63717094E+02</pdfrwt>
<totfact> 0.57462418E+05</totfact>
</mgrwt>
</event>
<event>
 4    1  0.4837985E-002  0.5953081E+02  0.7818608E-02  0.1399811E+00
          2   -1    0    0    0  501  0.00000000000E+00  0.00000000000E+00  0.10962416884E+02  0.10962417181E+02  0.25500000000E-02 0.  1.
         -2   -1    0    0  501    0 -0.00000000000E+00 -0.00000000000E+00 -0.80819695278E+02  0.80819695318E+02  0.25500000000E-02 0.  1.
          2    1    1    2    0  502  0.22574786405E+02  0.16212099944E+01 -0.51232216725E+01  0.23205531882E+02  0.25500000000E-02 0.  1.
         -2    1    1    2  502    0 -0.22574786405E+02 -0.16212099944E+01 -0.64734056721E+02  0.68576580617E+02  0.25500000000E-02 0.  1.
<mgrwt>
<rscale>  0 0.59530806E+02</rscale>
<asrwt>0</asrwt>
<pdfrwt beam="1">  1        2 0.16865258E-02 0.59530806E+02</pdfrwt>
<pdfrwt beam="2">  1       -2 0.12433799E-01 0.59530806E+02</pdfrwt>
<totfact> 0.24239134E+05</totfact>
</mgrwt>
</event>
<event>
 4    1  0.4837985E-002  0.5557992E+02  0.7818608E-02  0.1417376E+00
         -2   -1    0    0  501    0 -0.00000000000E+00  0.00000000000E+00  0.32320060484E+02  0.32320060584E+02  0.25500000000E-02 0.  1.
          2   -1    0    0    0  501  0.00000000000E+00 -0.00000000000E+00 -0.23894815435E+02  0.23894815571E+02  0.25500000000E-02 0.  1.
          2    1    1    2    0  502  0.25915842059E+02 -0.91891343119E+01  0.14035926169E+00  0.27497104688E+02  0.25500000000E-02 0. -1.
         -2    1    1    2  502    0 -0.25915842059E+02  0.91891343119E+01  0.82848857874E+01  0.28717771467E+02  0.25500000000E-02 0. -1.
<mgrwt>
<rscale>  0 0.55579920E+02</rscale>
<asrwt>0</asrwt>
<pdfrwt beam="2">  1        2 0.36761255E-02 0.55579920E+02</pdfrwt>
<pdfrwt beam="1">  1       -2 0.49723170E-02 0.55579920E+02</pdfrwt>
<totfact> 0.34130843E+05</totfact>
</mgrwt>
</event>
<event>
 4    1  0.4837985E-002  0.7365475E+02  0.7818608E-02  0.1348088E+00
          2   -1    0    0    0  501  0.00000000000E+00  0.00000000000E+00  0.11171601126E+04  0.11171601126E+04  0.25500000000E-02 0. -1.
         -2   -1    0    0  501    0 -0.00000000000E+00 -0.00000000000E+00 -0.12140193241E+01  0.12140220022E+01  0.25500000000E-02 0. -1.
          2    1    1    2    0  502 -0.88449856374E+01  0.35300488339E+02  0.47221740232E+03  0.47361760241E+03  0.25500000000E-02 0.  1.
         -2    1    1    2  502    0  0.88449856374E+01 -0.35300488339E+02  0.64372869092E+03  0.64475653217E+03  0.25500000000E-02 0.  1.
<mgrwt>
<rscale>  0 0.73654748E+02</rscale>
<asrwt>0</asrwt>
<pdfrwt beam="1">  1        2 0.17187013E+00 0.73654748E+02</pdfrwt>
<pdfrwt beam="2">  1       -2 0.18677312E-03 0.73654748E+02</pdfrwt>
<totfact> 0.43592101E+05</totfact>
</mgrwt>
</event>
<event>
 4    1  0.4837985E-002  0.5112927E+02  0.7818608E-02  0.1439344E+00
          2   -1    0    0    0  501  0.00000000000E+00  0.00000000000E+00  0.52587456171E+03  0.52587456172E+03  0.25500000000E-02 0.  1.
         -2   -1    0    0  501    0 -0.00000000000E+00 -0.00000000000E+00 -0.12427865293E+01  0.12427891454E+01  0.25500000000E-02 0.  1.
          2    1    1    2    0  502 -0.19877813747E+02  0.92830537882E+01  0.12701060472E+03  0.12889141276E+03  0.25500000000E-02 0. -1.
         -2    1    1    2  502    0  0.19877813747E+02 -0.92830537882E+01  0.39762117046E+03  0.39822593810E+03  0.25500000000E-02 0. -1.
<mgrwt>
<rscale>  0 0.51129268E+02</rscale>
<asrwt>0</asrwt>
<pdfrwt beam="1">  1        2 0.80903674E-01 0.51129268E+02</pdfrwt>
<pdfrwt beam="2">  1       -2 0.19119838E-03 0.51129268E+02</pdfrwt>
<totfact> 0.96504112E+05</totfact>
</mgrwt>
</event>
<event>
 4    1  0.4837985E-002  0.4680453E+02  0.7818608E-02  0.1463381E+00
         -2   -1    0    0  501    0 -0.00000000000E+00  0.00000000000E+00  0.42815608959E+00  0.42816368314E+00  0.25500000000E-02 0. -1.
          2   -1    0    0    0  501  0.00000000000E+00 -0.00000000000E+00 -0.12791156011E+04  0.12791156011E+04  0.25500000000E-02 0. -1.
          2    1    1    2    0  502  0.59424540988E+01 -0.22634412419E+02 -0.64457385951E+03  0.64499851919E+03  0.25500000000E-02 0.  1.
         -2    1    1    2  502    0 -0.59424540988E+01  0.22634412419E+02 -0.63411358546E+03  0.63454524556E+03  0.25500000000E-02 0.  1.
<mgrwt>
<rscale>  0 0.46804529E+02</rscale>
<asrwt>0</asrwt>
<pdfrwt beam="2">  1        2 0.19678396E+00 0.46804529E+02</pdfrwt>
<pdfrwt beam="1">  1       -2 0.65871776E-04 0.46804529E+02</pdfrwt>
<totfact> 0.13441575E+06</totfact>
</mgrwt>
</event>
<event>
 4    1  0.4837985E-002  0.6540865E+02  0.7818608E-02  0.1376441E+00
          2   -1    0    0    0  501  0.00000000000E+00  0.00000000000E+00  0.70925717735E+03  0.70925717735E+03  0.25500000000E-02 0. -1.
         -2   -1    0    0  501    0 -0.00000000000E+00 -0.00000000000E+00 -0.15080171851E+01  0.15080193410E+01  0.25500000000E-02 0. -1.
          2    1    1    2    0  502  0.79678145256E+01 -0.26614868714E+02  0.54137673980E+03  0.54208911787E+03  0.25500000000E-02 0. -1.
         -2    1    1    2  502    0 -0.79678145256E+01  0.26614868714E+02  0.16637242036E+03  0.16867607883E+03  0.25500000000E-02 0. -1.
<mgrwt>
<rscale>  0 0.65408647E+02</rscale>
<asrwt>0</asrwt>
<pdfrwt beam="1">  1        2 0.10911634E+00 0.65408647E+02</pdfrwt>
<pdfrwt beam="2">  1       -2 0.23200313E-03 0.65408647E+02</pdfrwt>
<totfact> 0.56267470E+05</totfact>
</mgrwt>
</event>
<event>
 4    1  0.4837985E-002  0.8887384E+02  0.7818608E-02  0.1305602E+00
         -2   -1    0    0  501    0 -0.00000000000E+00  0.00000000000E+00  0.15133959830E+01  0.15133981313E+01  0.25500000000E-02 0. -1.
          2   -1    0    0    0  501  0.00000000000E+00 -0.00000000000E+00 -0.13047732117E+04  0.13047732117E+04  0.25500000000E-02 0. -1.
          2    1    1    2    0  502  0.22886171436E+02  0.29673577593E+01 -0.93473561902E+02  0.96280261924E+02  0.25500000000E-02 0. -1.
         -2    1    1    2  502    0 -0.22886171436E+02 -0.29673577593E+01 -0.12097862538E+04  0.12100063479E+04  0.25500000000E-02 0. -1.
<mgrwt>
<rscale>  0 0.88873842E+02</rscale>
<asrwt>0</asrwt>
<pdfrwt beam="2">  1        2 0.20073344E+00 0.88873842E+02</pdfrwt>
<pdfrwt beam="1">  1       -2 0.23283136E-03 0.88873842E+02</pdfrwt>
<totfact> 0.26260904E+05</totfact>
</mgrwt>
</event>
<event>
 4    1  0.4837985E-002  0.5487001E+02  0.7818608E-02  0.1420715E+00
         -2   -1    0    0  501    0 -0.00000000000E+00  0.00000000000E+00  0.20699508424E+01  0.20699524131E+01  0.25500000000E-02 0. -1.
          2   -1    0    0    0  501  0.00000000000E+00 -0.00000000000E+00 -0.36362181190E+03  0.36362181191E+03  0.25500000000E-02 0. -1.
          2    1    1    2    0  502 -0.19265651364E+02 -0.18268732719E+02 -0.13471348235E+03  0.13730489522E+03  0.25500000000E-02 0.  1.
         -2    1    1    2  502    0  0.19265651364E+02  0.18268732719E+02 -0.22683837870E+03  0.22838686910E+03  0.25500000000E-02 0.  1.
<mgrwt>
<rscale>  0 0.54870012E+02</rscale>
<asrwt>0</asrwt>
<pdfrwt beam="2">  1        2 0.55941767E-01 0.54870012E+02</pdfrwt>
<pdfrwt beam="1">  1       -2 0.31845438E-03 0.54870012E+02</pdfrwt>
<totfact> 0.71691471E+05</totfact>
</mgrwt>
</event>
<event>
 4    1  0.4837985E-002  0.4193295E+02  0.7818608E-02  0.1494450E+00
         -2   -1    0    0  501    0 -0.00000000000E+00  0.00000000000E+00  0.22728553513E+02  0.22728553656E+02  0.25500000000E-02 0. -1.
          2   -1    0    0    0  501  0.00000000000E+00 -0.00000000000E+00 -0.19341001898E+02  0.19341002066E+02  0.25500000000E-02 0. -1.
          2    1    1    2    0  502  0.16560737296E+02  0.12824783605E+02  0.26241059919E+01  0.21109690502E+02  0.25500000000E-02 0. -1.
         -2    1    1    2  502    0 -0.16560737296E+02 -0.12824783605E+02  0.76344562328E+00  0.20959865220E+02  0.25500000000E-02 0. -1.
<mgrwt>
<rscale>  0 0.41932947E+02</rscale>
<asrwt>0</asrwt>
<pdfrwt beam="2">  1        2 0.29755388E-02 0.41932947E+02</pdfrwt>
<pdfrwt beam="1">  1       -2 0.34967006E-02 0.41932947E+02</pdfrwt>
<totfact> 0.69529326E+05</totfact>
</mgrwt>
</event>
<event>
 4    1  0.4837985E-002  0.5326272E+02  0.7818608E-02  0.1428498E+00
          2   -1    0    0    0  501  0.00000000000E+00  0.00000000000E+00  0.21495848516E+02  0.21495848667E+02  0.25500000000E-02 0.  1.
         -2   -1    0    0  501    0 -0.00000000000E+00 -0.00000000000E+00 -0.32993780119E+02  0.32993780218E+02  0.25500000000E-02 0.  1.
          2    1    1    2    0  502 -0.25545665532E+02  0.22005652887E+01 -0.13112387044E+02  0.28798580096E+02  0.25500000000E-02 0. -1.
         -2    1    1    2  502    0  0.25545665532E+02 -0.22005652887E+01  0.16144554408E+01  0.25691048790E+02  0.25500000000E-02 0. -1.
<mgrwt>
<rscale>  0 0.53262719E+02</rscale>
<asrwt>0</asrwt>
<pdfrwt beam="1">  1        2 0.33070536E-02 0.53262719E+02</pdfrwt>
<pdfrwt beam="2">  1       -2 0.50759662E-02 0.53262719E+02</pdfrwt>
<totfact> 0.37608645E+05</totfact>
</mgrwt>
</event>
<event>
 4    1  0.4837985E-002  0.6559835E+02  0.7818608E-02  0.1375735E+00
          2   -1    0    0    0  501  0.00000000000E+00  0.00000000000E+00  0.96722698568E+02  0.96722698601E+02  0.25500000000E-02 0.  1.
         -2   -1    0    0  501    0 -0.00000000000E+00 -0.00000000000E+00 -0.11122372896E+02  0.11122373188E+02  0.25500000000E-02 0.  1.
          2    1    1    2    0  502  0.80584699500E+01 -0.25292300970E+02  0.74472496543E+02  0.79061951494E+02  0.25500000000E-02 0.  1.
         -2    1    1    2  502    0 -0.80584699500E+01  0.25292300970E+02  0.11127829129E+02  0.28783120295E+02  0.25500000000E-02 0.  1.
<mgrwt>
<rscale>  0 0.65598352E+02</rscale>
<asrwt>0</asrwt>
<pdfrwt beam="1">  1        2 0.14880415E-01 0.65598352E+02</pdfrwt>
<pdfrwt beam="2">  1       -2 0.17111343E-02 0.65598352E+02</pdfrwt>
<totfact> 0.29452325E+05</totfact>
</mgrwt>
</event>
<event>
 4    1  0.4837985E-002  0.4318821E+02  0.7818608E-02  0.1485980E+00
         -2   -1    0    0  501    0 -0.00000000000E+00  0.00000000000E+00  0.28062714563E+00  0.28063873104E+00  0.25500000000E-02 0.  1.
          2   -1    0    0    0  501  0.00000000000E+00 -0.00000000000E+00 -0.16616198484E+04  0.16616198484E+04  0.25500000000E-02 0.  1.
          2    1    1    2    0  502 -0.20645432376E+02 -0.10600469809E+00 -0.58711514104E+03  0.58747802849E+03  0.25500000000E-02 0.  1.
         -2    1    1    2  502    0  0.20645432376E+02  0.10600469809E+00 -0.10742240802E+04  0.10744224587E+04  0.25500000000E-02 0.  1.
<mgrwt>
<rscale>  0 0.43188205E+02</rscale>
<asrwt>0</asrwt>
<pdfrwt beam="2">  1        2 0.25562594E+00 0.43188205E+02</pdfrwt>
<pdfrwt beam="1">  1       -2 0.43175629E-04 0.43188205E+02</pdfrwt>
<totfact> 0.15030961E+06</totfact>
</mgrwt>
</event>
<event>
 4    1  0.4837985E-002  0.5042070E+02  0.7818608E-02  0.1443086E+00
         -2   -1    0    0  501    0 -0.00000000000E+00  0.00000000000E+00  0.18294351464E+02  0.18294351642E+02  0.25500000000E-02 0. -1.
          2   -1    0    0    0  501  0.00000000000E+00 -0.00000000000E+00 -0.34740867719E+02  0.34740867813E+02  0.25500000000E-02 0. -1.
          2    1    1    2    0  502 -0.97806581496E+01 -0.22590650337E+02 -0.13942374902E+02  0.28291139618E+02  0.25500000000E-02 0. -1.
         -2    1    1    2  502    0  0.97806581496E+01  0.22590650337E+02 -0.25041413534E+01  0.24744079836E+02  0.25500000000E-02 0. -1.
<mgrwt>
<rscale>  0 0.50420696E+02</rscale>
<asrwt>0</asrwt>
<pdfrwt beam="2">  1        2 0.53447489E-02 0.50420696E+02</pdfrwt>
<pdfrwt beam="1">  1       -2 0.28145156E-02 0.50420696E+02</pdfrwt>
<totfact> 0.47050294E+05</totfact>
</mgrwt>
</event>
<event>
 4    1  0.4837985E-002  0.5033679E+02  0.7818608E-02  0.1443533E+00
         -2   -1    0    0  501    0 -0.00000000000E+00  0.00000000000E+00  0.18662123560E+01  0.18662140982E+01  0.25500000000E-02 0. -1.
          2   -1    0    0    0  501  0.00000000000E+00 -0.00000000000E+00 -0.33942970526E+03  0.33942970527E+03  0.25500000000E-02 0. -1.
          2    1    1    2    0  502 -0.78876705910E+01 -0.23900477958E+02 -0.16880141988E+03  0.17066741796E+03  0.25500000000E-02 0. -1.
         -2    1    1    2  502    0  0.78876705910E+01  0.23900477958E+02 -0.16876207303E+03  0.17062850141E+03  0.25500000000E-02 0. -1.
<mgrwt>
<rscale>  0 0.50336794E+02</rscale>
<asrwt>0</asrwt>
<pdfrwt beam="2">  1        2 0.52219906E-01 0.50336794E+02</pdfrwt>
<pdfrwt beam="1">  1       -2 0.28711000E-03 0.50336794E+02</pdfrwt>
<totfact> 0.86844354E+05</totfact>
</mgrwt>
</event>
<event>
 4    1  0.4837985E-002  0.4438561E+02  0.7818608E-02  0.1478214E+00
          2   -1    0    0    0  501  0.00000000000E+00  0.00000000000E+00  0.20991076706E+04  0.20991076706E+04  0.25500000000E-02 0. -1.
         -2   -1    0    0  501    0 -0.00000000000E+00 -0.00000000000E+00 -0.23462641083E+00  0.23464026755E+00  0.25500000000E-02 0. -1.
          2    1    1    2    0  502 -0.10738069708E+02 -0.19040316999E+02  0.12306607650E+04  0.12308548892E+04  0.25500000000E-02 0.  1.
         -2    1    1    2  502    0  0.10738069708E+02  0.19040316999E+02  0.86821227924E+03  0.86848742170E+03  0.25500000000E-02 0.  1.
<mgrwt>
<rscale>  0 0.44385612E+02</rscale>
<asrwt>0</asrwt>
<pdfrwt beam="1">  1        2 0.32293939E+00 0.44385612E+02</pdfrwt>
<pdfrwt beam="2">  1       -2 0.36097466E-04 0.44385612E+02</pdfrwt>
<totfact> 0.11813312E+06</totfact>
</mgrwt>
</event>
<event>
 4    1  0.4837985E-002  0.5185007E+02  0.7818608E-02  0.1435611E+00
          2   -1    0    0    0  501  0.00000000000E+00  0.00000000000E+00  0.78119857072E+03  0.78119857073E+03  0.25500000000E-02 0.  1.
         -2   -1    0    0  501    0 -0.00000000000E+00 -0.00000000000E+00 -0.86035216242E+00  0.86035594139E+00  0.25500000000E-02 0.  1.
          2    1    1    2    0  502  0.13320823358E+02  0.22238000557E+02  0.39569760380E+03  0.39654579391E+03  0.25500000000E-02 0. -1.
         -2    1    1    2  502    0 -0.13320823358E+02 -0.22238000557E+02  0.38464061476E+03  0.38551313276E+03  0.25500000000E-02 0. -1.
<mgrwt>
<rscale>  0 0.51850067E+02</rscale>
<asrwt>0</asrwt>
<pdfrwt beam="1">  1        2 0.12018416E+00 0.51850067E+02</pdfrwt>
<pdfrwt beam="2">  1       -2 0.13236242E-03 0.51850067E+02</pdfrwt>
<totfact> 0.10283443E+06</totfact>
</mgrwt>
</event>
<event>
 4    1  0.4837985E-002  0.5116222E+02  0.7818608E-02  0.1439172E+00
          2   -1    0    0    0  501  0.00000000000E+00  0.00000000000E+00  0.18222219992E+04  0.18222219992E+04  0.25500000000E-02 0. -1.
         -2   -1    0    0  501    0 -0.00000000000E+00 -0.00000000000E+00 -0.35911377835E+00  0.35912283178E+00  0.25500000000E-02 0. -1.
          2    1    1    2    0  502 -0.78043767400E+01  0.23920915051E+02  0.74661909786E+03  0.74704296782E+03  0.25500000000E-02 0.  1.
         -2    1    1    2  502    0  0.78043767400E+01 -0.23920915051E+02  0.10752437875E+04  0.10755381542E+04  0.25500000000E-02 0.  1.
<mgrwt>
<rscale>  0 0.51162224E+02</rscale>
<asrwt>0</asrwt>
<pdfrwt beam="1">  1        2 0.28033949E+00 0.51162224E+02</pdfrwt>
<pdfrwt beam="2">  1       -2 0.55249435E-04 0.51162224E+02</pdfrwt>
<totfact> 0.93587081E+05</totfact>
</mgrwt>
</event>
<event>
 4    1  0.4837985E-002  0.4804126E+02  0.7818608E-02  0.1456202E+00
         -2   -1    0    0  501    0 -0.00000000000E+00  0.00000000000E+00  0.39719308644E+00  0.39720127192E+00  0.25500000000E-02 0. -1.
          2   -1    0    0    0  501  0.00000000000E+00 -0.00000000000E+00 -0.14526554015E+04  0.14526554015E+04  0.25500000000E-02 0. -1.
          2    1    1    2    0  502  0.27295450573E+01 -0.23706711065E+02 -0.64312036630E+03  0.64356294496E+03  0.25500000000E-02 0.  1.
         -2    1    1    2  502    0 -0.27295450573E+01  0.23706711065E+02 -0.80913784208E+03  0.80948965778E+03  0.25500000000E-02 0.  1.
<mgrwt>
<rscale>  0 0.48041259E+02</rscale>
<asrwt>0</asrwt>
<pdfrwt beam="2">  1        2 0.22348119E+00 0.48041259E+02</pdfrwt>
<pdfrwt beam="1">  1       -2 0.61108422E-04 0.48041259E+02</pdfrwt>
<totfact> 0.12230275E+06</totfact>
</mgrwt>
</event>
<event>
 4    1  0.4837985E-002  0.4497782E+02  0.7818608E-02  0.1474480E+00
         -2   -1    0    0  501    0 -0.00000000000E+00  0.00000000000E+00  0.15189745866E+01  0.15189767270E+01  0.25500000000E-02 0.  1.
          2   -1    0    0    0  501  0.00000000000E+00 -0.00000000000E+00 -0.33295533576E+03  0.33295533577E+03  0.25500000000E-02 0.  1.
          2    1    1    2    0  502  0.20490497865E+02 -0.68288622363E+01 -0.11912482916E+03  0.12106700125E+03  0.25500000000E-02 0. -1.
         -2    1    1    2  502    0 -0.20490497865E+02  0.68288622363E+01 -0.21231153201E+03  0.21340731125E+03  0.25500000000E-02 0. -1.
<mgrwt>
<rscale>  0 0.44977819E+02</rscale>
<asrwt>0</asrwt>
<pdfrwt beam="2">  1        2 0.51223840E-01 0.44977819E+02</pdfrwt>
<pdfrwt beam="1">  1       -2 0.23368883E-03 0.44977819E+02</pdfrwt>
<totfact> 0.11392959E+06</totfact>
</mgrwt>
</event>
<event>
 4    1  0.4837985E-002  0.6029069E+02  0.7818608E-02  0.1396616E+00
         -2   -1    0    0  501    0 -0.00000000000E+00  0.00000000000E+00  0.53590298081E+00  0.53590904764E+00  0.25500000000E-02 0. -1.
          2   -1    0    0    0  501  0.00000000000E+00 -0.00000000000E+00 -0.16957111069E+04  0.16957111069E+04  0.25500000000E-02 0. -1.
          2    1    1    2    0  502  0.20409247166E+01  0.28465733987E+02 -0.11207651082E+04  0.11211284008E+04  0.25500000000E-02 0.  1.
         -2    1    1    2  502    0 -0.20409247166E+01 -0.28465733987E+02 -0.57441009572E+03  0.57511861512E+03  0.25500000000E-02 0.  1.
<mgrwt>
<rscale>  0 0.60290689E+02</rscale>
<asrwt>0</asrwt>
<pdfrwt beam="2">  1        2 0.26087434E+00 0.60290689E+02</pdfrwt>
<pdfrwt beam="1">  1       -2 0.82448437E-04 0.60290689E+02</pdfrwt>
<totfact> 0.64833191E+05</totfact>
</mgrwt>
</event>
<event>
 4    1  0.4837985E-002  0.6370826E+02  0.7818608E-02  0.1382897E+00
          2   -1    0    0    0  501  0.00000000000E+00  0.00000000000E+00  0.13330079910E+04  0.13330079910E+04  0.25500000000E-02 0. -1.
         -2   -1    0    0  501    0 -0.00000000000E+00 -0.00000000000E+00 -0.76119790249E+00  0.76120217371E+00  0.25500000000E-02 0. -1.
          2    1    1    2    0  502  0.23656909859E+02  0.11601283964E+02  0.10408915795E+04  0.10412250091E+04  0.25500000000E-02 0.  1.
         -2    1    1    2  502    0 -0.23656909859E+02 -0.11601283964E+02  0.29135521353E+03  0.29254418407E+03  0.25500000000E-02 0.  1.
<mgrwt>
<rscale>  0 0.63708264E+02</rscale>
<asrwt>0</asrwt>
<pdfrwt beam="1">  1        2 0.20507632E+00 0.63708264E+02</pdfrwt>
<pdfrwt beam="2">  1       -2 0.11710875E-03 0.63708264E+02</pdfrwt>
<totfact> 0.61765675E+05</totfact>
</mgrwt>
</event>
<event>
 4    1  0.4837985E-002  0.5696657E+02  0.7818608E-02  0.1411021E+00
          2   -1    0    0    0  501  0.00000000000E+00  0.00000000000E+00  0.14238696213E+03  0.14238696215E+03  0.25500000000E-02 0. -1.
         -2   -1    0    0  501    0 -0.00000000000E+00 -0.00000000000E+00 -0.56978345354E+01  0.56978351060E+01  0.25500000000E-02 0. -1.
          2    1    1    2    0  502  0.26371754705E+02 -0.52405850506E+01  0.92780480597E+02  0.96597881779E+02  0.25500000000E-02 0.  1.
         -2    1    1    2  502    0 -0.26371754705E+02  0.52405850506E+01  0.43908646994E+02  0.51486915476E+02  0.25500000000E-02 0.  1.
<mgrwt>
<rscale>  0 0.56966565E+02</rscale>
<asrwt>0</asrwt>
<pdfrwt beam="1">  1        2 0.21905685E-01 0.56966565E+02</pdfrwt>
<pdfrwt beam="2">  1       -2 0.87659004E-03 0.56966565E+02</pdfrwt>
<totfact> 0.47474409E+05</totfact>
</mgrwt>
</event>
<event>
 4    1  0.4837985E-002  0.5146556E+02  0.7818608E-02  0.1437593E+00
         -2   -1    0    0  501    0 -0.00000000000E+00  0.00000000000E+00  0.11115418255E+01  0.11115447505E+01  0.25500000000E-02 0. -1.
          2   -1    0    0    0  501  0.00000000000E+00 -0.00000000000E+00 -0.59572673558E+03  0.59572673559E+03  0.25500000000E-02 0. -1.
          2    1    1    2    0  502  0.81592341984E+01 -0.21302422827E+02 -0.15920782757E+03  0.16083376103E+03  0.25500000000E-02 0.  1.
         -2    1    1    2  502    0 -0.81592341984E+01  0.21302422827E+02 -0.43540736619E+03  0.43600451931E+03  0.25500000000E-02 0.  1.
<mgrwt>
<rscale>  0 0.51465564E+02</rscale>
<asrwt>0</asrwt>
<pdfrwt beam="2">  1        2 0.91650012E-01 0.51465564E+02</pdfrwt>
<pdfrwt beam="1">  1       -2 0.17100714E-03 0.51465564E+02</pdfrwt>
<totfact> 0.98413479E+05</totfact>
</mgrwt>
</event>
<event>
 4    1  0.4837985E-002  0.4336714E+02  0.7818608E-02  0.1484800E+00
         -2   -1    0    0  501    0 -0.00000000000E+00  0.00000000000E+00  0.35692545532E+00  0.35693456425E+00  0.25500000000E-02 0.  1.
          2   -1    0    0    0  501  0.00000000000E+00 -0.00000000000E+00 -0.13172812591E+04  0.13172812591E+04  0.25500000000E-02 0.  1.
          2    1    1    2    0  502 -0.11870814092E+02  0.16204571759E+02 -0.41037182655E+03  0.41086316507E+03  0.25500000000E-02 0. -1.
         -2    1    1    2  502    0  0.11870814092E+02 -0.16204571759E+02 -0.90655250706E+03  0.90677502857E+03  0.25500000000E-02 0. -1.
<mgrwt>
<rscale>  0 0.43367140E+02</rscale>
<asrwt>0</asrwt>
<pdfrwt beam="2">  1        2 0.20265476E+00 0.43367140E+02</pdfrwt>
<pdfrwt beam="1">  1       -2 0.54913364E-04 0.43367140E+02</pdfrwt>
<totfact> 0.16109597E+06</totfact>
</mgrwt>
</event>
<event>
 4    1  0.4837985E-002  0.8020081E+02  0.7818608E-02  0.1328483E+00
         -2   -1    0    0  501    0 -0.00000000000E+00  0.00000000000E+00  0.16429243642E+02  0.16429243840E+02  0.25500000000E-02 0.  1.
          2   -1    0    0    0  501  0.00000000000E+00 -0.00000000000E+00 -0.97876851481E+02  0.97876851514E+02  0.25500000000E-02 0.  1.
          2    1    1    2    0  502  0.31477181257E+02 -0.24841089307E+02 -0.41275779627E+02  0.57546352171E+02  0.25500000000E-02 0.  1.
         -2    1    1    2  502    0 -0.31477181257E+02  0.24841089307E+02 -0.40171828212E+02  0.56759743183E+02  0.25500000000E-02 0.  1.
<mgrwt>
<rscale>  0 0.80200814E+02</rscale>
<asrwt>0</asrwt>
<pdfrwt beam="2">  1        2 0.15057977E-01 0.80200814E+02</pdfrwt>
<pdfrwt beam="1">  1       -2 0.25275760E-02 0.80200814E+02</pdfrwt>
<totfact> 0.17294126E+05</totfact>
</mgrwt>
</event>
<event>
 4    1  0.4837985E-002  0.4656370E+02  0.7818608E-02  0.1464809E+00
         -2   -1    0    0  501    0 -0.00000000000E+00  0.00000000000E+00  0.29449812701E+00  0.29450916677E+00  0.25500000000E-02 0. -1.
          2   -1    0    0    0  501  0.00000000000E+00 -0.00000000000E+00 -0.18405362870E+04  0.18405362870E+04  0.25500000000E-02 0. -1.
          2    1    1    2    0  502 -0.16978642775E+02 -0.14930535119E+02 -0.11396995386E+04  0.11399237841E+04  0.25500000000E-02 0.  1.
         -2    1    1    2  502    0  0.16978642775E+02  0.14930535119E+02 -0.70054225025E+03  0.70090701208E+03  0.25500000000E-02 0.  1.
<mgrwt>
<rscale>  0 0.46563705E+02</rscale>
<asrwt>0</asrwt>
<pdfrwt beam="2">  1        2 0.28315022E+00 0.46563705E+02</pdfrwt>
<pdfrwt beam="1">  1       -2 0.45309727E-04 0.46563705E+02</pdfrwt>
<totfact> 0.11742655E+06</totfact>
</mgrwt>
</event>
<event>
 4    1  0.4837985E-002  0.4978086E+02  0.7818608E-02  0.1446527E+00
         -2   -1    0    0  501    0 -0.00000000000E+00  0.00000000000E+00  0.66289461770E+01  0.66289466675E+01  0.25500000000E-02 0.  1.
          2   -1    0    0    0  501  0.00000000000E+00 -0.00000000000E+00 -0.93458801799E+02  0.93458801834E+02  0.25500000000E-02 0.  1.
          2    1    1    2    0  502 -0.22231998084E+02 -0.10608888786E+02 -0.36243337228E+02  0.43822251882E+02  0.25500000000E-02 0.  1.
         -2    1    1    2  502    0  0.22231998084E+02  0.10608888786E+02 -0.50586518395E+02  0.56265496620E+02  0.25500000000E-02 0.  1.
<mgrwt>
<rscale>  0 0.49780855E+02</rscale>
<asrwt>0</asrwt>
<pdfrwt beam="2">  1        2 0.14378276E-01 0.49780855E+02</pdfrwt>
<pdfrwt beam="1">  1       -2 0.10198380E-02 0.49780855E+02</pdfrwt>
<totfact> 0.59503497E+05</totfact>
</mgrwt>
</event>
<event>
 4    1  0.4837985E-002  0.4309246E+02  0.7818608E-02  0.1486614E+00
          2   -1    0    0    0  501  0.00000000000E+00  0.00000000000E+00  0.38707990622E+03  0.38707990623E+03  0.25500000000E-02 0. -1.
         -2   -1    0    0  501    0 -0.00000000000E+00 -0.00000000000E+00 -0.11993378003E+01  0.11993405112E+01  0.25500000000E-02 0. -1.
          2    1    1    2    0  502  0.20829002900E+02 -0.54992802439E+01  0.19643742076E+03  0.19761515561E+03  0.25500000000E-02 0.  1.
         -2    1    1    2  502    0 -0.20829002900E+02  0.54992802439E+01  0.18944314766E+03  0.19066409113E+03  0.25500000000E-02 0.  1.
<mgrwt>
<rscale>  0 0.43092463E+02</rscale>
<asrwt>0</asrwt>
<pdfrwt beam="1">  1        2 0.59550770E-01 0.43092463E+02</pdfrwt>
<pdfrwt beam="2">  1       -2 0.18451367E-03 0.43092463E+02</pdfrwt>
<totfact> 0.13314587E+06</totfact>
</mgrwt>
</event>
<event>
 4    1  0.4837985E-002  0.6451306E+02  0.7818608E-02  0.1379813E+00
         -2   -1    0    0  501    0 -0.00000000000E+00  0.00000000000E+00  0.34147204101E+02  0.34147204196E+02  0.25500000000E-02 0. -1.
          2   -1    0    0    0  501  0.00000000000E+00 -0.00000000000E+00 -0.30470540245E+02  0.30470540352E+02  0.25500000000E-02 0. -1.
          2    1    1    2    0  502  0.23844354877E+02  0.11017802830E+02 -0.16914722708E+02  0.31241848368E+02  0.25500000000E-02 0.  1.
         -2    1    1    2  502    0 -0.23844354877E+02 -0.11017802830E+02  0.20591386563E+02  0.33375896179E+02  0.25500000000E-02 0.  1.
<mgrwt>
<rscale>  0 0.64513061E+02</rscale>
<asrwt>0</asrwt>
<pdfrwt beam="2">  1        2 0.46877754E-02 0.64513061E+02</pdfrwt>
<pdfrwt beam="1">  1       -2 0.52534160E-02 0.64513061E+02</pdfrwt>
<totfact> 0.23784736E+05</totfact>
</mgrwt>
</event>
<event>
 4    1  0.4837985E-002  0.6013425E+02  0.7818608E-02  0.1397269E+00
         -2   -1    0    0  501    0 -0.00000000000E+00  0.00000000000E+00  0.27055496388E+02  0.27055496508E+02  0.25500000000E-02 0.  1.
          2   -1    0    0    0  501  0.00000000000E+00 -0.00000000000E+00 -0.33413986710E+02  0.33413986808E+02  0.25500000000E-02 0.  1.
          2    1    1    2    0  502 -0.17627267828E+02 -0.24111962928E+02 -0.66517074263E+01  0.30599878195E+02  0.25500000000E-02 0.  1.
         -2    1    1    2  502    0  0.17627267828E+02  0.24111962928E+02  0.29321710417E+00  0.29869605121E+02  0.25500000000E-02 0.  1.
<mgrwt>
<rscale>  0 0.60134250E+02</rscale>
<asrwt>0</asrwt>
<pdfrwt beam="2">  1        2 0.51406134E-02 0.60134250E+02</pdfrwt>
<pdfrwt beam="1">  1       -2 0.41623840E-02 0.60134250E+02</pdfrwt>
<totfact> 0.29299247E+05</totfact>
</mgrwt>
</event>
<event>
 4    1  0.4837985E-002  0.5392033E+02  0.7818608E-02  0.1425275E+00
          2   -1    0    0    0  501  0.00000000000E+00  0.00000000000E+00  0.40176176080E+01  0.40176184173E+01  0.25500000000E-02 0. -1.
         -2   -1    0    0  501    0 -0.00000000000E+00 -0.00000000000E+00 -0.18091578152E+03  0.18091578154E+03  0.25500000000E-02 0. -1.
          2    1    1    2    0  502  0.21641184671E+02  0.14775063949E+02 -0.66701336410E+02  0.71663879842E+02  0.25500000000E-02 0.  1.
         -2    1    1    2  502    0 -0.21641184671E+02 -0.14775063949E+02 -0.11019682750E+03  0.11326952011E+03  0.25500000000E-02 0.  1.
<mgrwt>
<rscale>  0 0.53920330E+02</rscale>
<asrwt>0</asrwt>
<pdfrwt beam="1">  1        2 0.61809522E-03 0.53920330E+02</pdfrwt>
<pdfrwt beam="2">  1       -2 0.27833191E-01 0.53920330E+02</pdfrwt>
<totfact> 0.24360972E+05</totfact>
</mgrwt>
</event>
<event>
 4    1  0.4837985E-002  0.1048564E+03  0.7818608E-02  0.1270403E+00
         -2   -1    0    0  501    0 -0.00000000000E+00  0.00000000000E+00  0.38306798259E+01  0.38306806746E+01  0.25500000000E-02 0.  1.
          2   -1    0    0    0  501  0.00000000000E+00 -0.00000000000E+00 -0.71755294228E+03  0.71755294229E+03  0.25500000000E-02 0.  1.
          2    1    1    2    0  502 -0.45912084684E+02 -0.21481115213E+02 -0.26472461356E+03  0.26953381766E+03  0.25500000000E-02 0. -1.
         -2    1    1    2  502    0  0.45912084684E+02  0.21481115213E+02 -0.44899764890E+03  0.45184980530E+03  0.25500000000E-02 0. -1.
<mgrwt>
<rscale>  0 0.10485639E+03</rscale>
<asrwt>0</asrwt>
<pdfrwt beam="2">  1        2 0.11039265E+00 0.10485639E+03</pdfrwt>
<pdfrwt beam="1">  1       -2 0.58933600E-03 0.10485639E+03</pdfrwt>
<totfact> 0.16451854E+05</totfact>
</mgrwt>
</event>
<event>
 4    1  0.4837985E-002  0.6553429E+02  0.7818608E-02  0.1375973E+00
          2   -1    0    0    0  501  0.00000000000E+00  0.00000000000E+00  0.11125687045E+02  0.11125687337E+02  0.25500000000E-02 0.  1.
         -2   -1    0    0  501    0 -0.00000000000E+00 -0.00000000000E+00 -0.96505125943E+02  0.96505125976E+02  0.25500000000E-02 0.  1.
          2    1    1    2    0  502  0.27182919920E+02 -0.37609685885E+01 -0.72098022697E+02  0.77143897383E+02  0.25500000000E-02 0. -1.
         -2    1    1    2  502    0 -0.27182919920E+02  0.37609685885E+01 -0.13281416200E+02  0.30486915930E+02  0.25500000000E-02 0. -1.
<mgrwt>
<rscale>  0 0.65534292E+02</rscale>
<asrwt>0</asrwt>
<pdfrwt beam="1">  1        2 0.17116442E-02 0.65534292E+02</pdfrwt>
<pdfrwt beam="2">  1       -2 0.14846942E-01 0.65534292E+02</pdfrwt>
<totfact> 0.18311312E+05</totfact>
</mgrwt>
</event>
<event>
 4    1  0.4837985E-002  0.4524555E+02  0.7818608E-02  0.1472814E+00
          2   -1    0    0    0  501  0.00000000000E+00  0.00000000000E+00  0.56854570156E+03  0.56854570157E+03  0.25500000000E-02 0. -1.
         -2   -1    0    0  501    0 -0.00000000000E+00 -0.00000000000E+00 -0.90017219401E+00  0.90017580581E+00  0.25500000000E-02 0. -1.
          2    1    1    2    0  502  0.16523214968E+02  0.15295720805E+02  0.25620775255E+03  0.25719523359E+03  0.25500000000E-02 0. -1.
         -2    1    1    2  502    0 -0.16523214968E+02 -0.15295720805E+02  0.31143777682E+03  0.31225064378E+03  0.25500000000E-02 0. -1.
<mgrwt>
<rscale>  0 0.45245555E+02</rscale>
<asrwt>0</asrwt>
<pdfrwt beam="1">  1        2 0.87468813E-01 0.45245555E+02</pdfrwt>
<pdfrwt beam="2">  1       -2 0.13848792E-03 0.45245555E+02</pdfrwt>
<totfact> 0.13337458E+06</totfact>
</mgrwt>
</event>
<event>
 4    1  0.4837985E-002  0.7523620E+02  0.7818608E-02  0.1343141E+00
         -2   -1    0    0  501    0 -0.00000000000E+00  0.00000000000E+00  0.24053455923E+01  0.24053469440E+01  0.25500000000E-02 0. -1.
          2   -1    0    0    0  501  0.00000000000E+00 -0.00000000000E+00 -0.58832344329E+03  0.58832344329E+03  0.25500000000E-02 0. -1.
          2    1    1    2    0  502 -0.36120345691E+02 -0.10281512956E+02 -0.27587792692E+03  0.27842237598E+03  0.25500000000E-02 0. -1.
         -2    1    1    2  502    0  0.36120345691E+02  0.10281512956E+02 -0.31004017078E+03  0.31230641425E+03  0.25500000000E-02 0. -1.
<mgrwt>
<rscale>  0 0.75236204E+02</rscale>
<asrwt>0</asrwt>
<pdfrwt beam="2">  1        2 0.90511184E-01 0.75236204E+02</pdfrwt>
<pdfrwt beam="1">  1       -2 0.37005374E-03 0.75236204E+02</pdfrwt>
<totfact> 0.37453360E+05</totfact>
</mgrwt>
</event>
<event>
 4    1  0.4837985E-002  0.4468299E+02  0.7818608E-02  0.1476330E+00
          2   -1    0    0    0  501  0.00000000000E+00  0.00000000000E+00  0.10064812446E+02  0.10064812769E+02  0.25500000000E-02 0.  1.
         -2   -1    0    0  501    0 -0.00000000000E+00 -0.00000000000E+00 -0.49592810288E+02  0.49592810354E+02  0.25500000000E-02 0.  1.
          2    1    1    2    0  502  0.14158167161E+02  0.16496341085E+02 -0.26644699345E+02  0.34387831805E+02  0.25500000000E-02 0.  1.
         -2    1    1    2  502    0 -0.14158167161E+02 -0.16496341085E+02 -0.12883298497E+02  0.25269791317E+02  0.25500000000E-02 0.  1.
<mgrwt>
<rscale>  0 0.44682988E+02</rscale>
<asrwt>0</asrwt>
<pdfrwt beam="1">  1        2 0.15484327E-02 0.44682988E+02</pdfrwt>
<pdfrwt beam="2">  1       -2 0.76296630E-02 0.44682988E+02</pdfrwt>
<totfact> 0.53431051E+05</totfact>
</mgrwt>
</event>
<event>
 4    1  0.4837985E-002  0.6176212E+02  0.7818608E-02  0.1390582E+00
         -2   -1    0    0  501    0 -0.00000000000E+00  0.00000000000E+00  0.57038621428E+02  0.57038621485E+02  0.25500000000E-02 0.  1.
          2   -1    0    0    0  501  0.00000000000E+00 -0.00000000000E+00 -0.16719195586E+02  0.16719195780E+02  0.25500000000E-02 0.  1.
          2    1    1    2    0  502 -0.29461614203E+02 -0.70323658282E+01  0.12974591954E+02  0.32951190016E+02  0.25500000000E-02 0. -1.
         -2    1    1    2  502    0  0.29461614203E+02  0.70323658282E+01  0.27344833888E+02  0.40806627250E+02  0.25500000000E-02 0. -1.
<mgrwt>
<rscale>  0 0.61762120E+02</rscale>
<asrwt>0</asrwt>
<pdfrwt beam="2">  1        2 0.25721839E-02 0.61762120E+02</pdfrwt>
<pdfrwt beam="1">  1       -2 0.87751726E-02 0.61762120E+02</pdfrwt>
<totfact> 0.23886397E+05</totfact>
</mgrwt>
</event>
<event>
 4    1  0.4837985E-002  0.4973637E+02  0.7818608E-02  0.1446769E+00
          2   -1    0    0    0  501  0.00000000000E+00  0.00000000000E+00  0.32636945324E+03  0.32636945325E+03  0.25500000000E-02 0.  1.
         -2   -1    0    0  501    0 -0.00000000000E+00 -0.00000000000E+00 -0.18948661299E+01  0.18948678457E+01  0.25500000000E-02 0.  1.
          2    1    1    2    0  502 -0.83328371935E+01 -0.23421852285E+02  0.15802480792E+03  0.15996830706E+03  0.25500000000E-02 0.  1.
         -2    1    1    2  502    0  0.83328371935E+01  0.23421852285E+02  0.16644977920E+03  0.16829601404E+03  0.25500000000E-02 0.  1.
<mgrwt>
<rscale>  0 0.49736373E+02</rscale>
<asrwt>0</asrwt>
<pdfrwt beam="1">  1        2 0.50210647E-01 0.49736373E+02</pdfrwt>
<pdfrwt beam="2">  1       -2 0.29151822E-03 0.49736373E+02</pdfrwt>
<totfact> 0.88265125E+05</totfact>
</mgrwt>
</event>
<event>
 4    1  0.4837985E-002  0.4131294E+02  0.7818608E-02  0.1498766E+00
         -2   -1    0    0  501    0 -0.00000000000E+00  0.00000000000E+00  0.17764003305E+03  0.17764003307E+03  0.25500000000E-02 0.  1.
          2   -1    0    0    0  501  0.00000000000E+00 -0.00000000000E+00 -0.24019900133E+01  0.24019913668E+01  0.25500000000E-02 0.  1.
          2    1    1    2    0  502 -0.88629339131E+00  0.20632395398E+02  0.85629332923E+02  0.88084413600E+02  0.25500000000E-02 0.  1.
         -2    1    1    2  502    0  0.88629339131E+00 -0.20632395398E+02  0.89608710112E+02  0.91957610834E+02  0.25500000000E-02 0.  1.
<mgrwt>
<rscale>  0 0.41312938E+02</rscale>
<asrwt>0</asrwt>
<pdfrwt beam="2">  1        2 0.36953707E-03 0.41312938E+02</pdfrwt>
<pdfrwt beam="1">  1       -2 0.27329233E-01 0.41312938E+02</pdfrwt>
<totfact> 0.47002919E+05</totfact>
</mgrwt>
</event>
<event>
 4    1  0.4837985E-002  0.5876565E+02  0.7818608E-02  0.1403086E+00
          2   -1    0    0    0  501  0.00000000000E+00  0.00000000000E+00  0.85281890640E+03  0.85281890641E+03  0.25500000000E-02 0. -1.
         -2   -1    0    0  501    0 -0.00000000000E+00 -0.00000000000E+00 -0.10123473336E+01  0.10123505452E+01  0.25500000000E-02 0. -1.
          2    1    1    2    0  502 -0.78598238241E+00  0.25236934498E+02  0.20756039807E+03  0.20909050548E+03  0.25500000000E-02 0.  1.
         -2    1    1    2  502    0  0.78598238241E+00 -0.25236934498E+02  0.64424616100E+03  0.64474075147E+03  0.25500000000E-02 0.  1.
<mgrwt>
<rscale>  0 0.58765647E+02</rscale>
<asrwt>0</asrwt>
<pdfrwt beam="1">  1        2 0.13120303E+00 0.58765647E+02</pdfrwt>
<pdfrwt beam="2">  1       -2 0.15574584E-03 0.58765647E+02</pdfrwt>
<totfact> 0.76301889E+05</totfact>
</mgrwt>
</event>
<event>
 4    1  0.4837985E-002  0.4945418E+02  0.7818608E-02  0.1448308E+00
          2   -1    0    0    0  501  0.00000000000E+00  0.00000000000E+00  0.81117448847E+03  0.81117448848E+03  0.25500000000E-02 0. -1.
         -2   -1    0    0  501    0 -0.00000000000E+00 -0.00000000000E+00 -0.75375539487E+00  0.75375970826E+00  0.25500000000E-02 0. -1.
          2    1    1    2    0  502 -0.64194310604E+01  0.23415918105E+02  0.48206697627E+03  0.48267803341E+03  0.25500000000E-02 0.  1.
         -2    1    1    2  502    0  0.64194310604E+01 -0.23415918105E+02  0.32835375681E+03  0.32925021478E+03  0.25500000000E-02 0.  1.
<mgrwt>
<rscale>  0 0.49454177E+02</rscale>
<asrwt>0</asrwt>
<pdfrwt beam="1">  1        2 0.12479643E+00 0.49454177E+02</pdfrwt>
<pdfrwt beam="2">  1       -2 0.11596238E-03 0.49454177E+02</pdfrwt>
<totfact> 0.11633581E+06</totfact>
</mgrwt>
</event>
<event>
 4    1  0.4837985E-002  0.4722299E+02  0.7818608E-02  0.1460923E+00
          2   -1    0    0    0  501  0.00000000000E+00  0.00000000000E+00  0.17457673387E+03  0.17457673389E+03  0.25500000000E-02 0. -1.
         -2   -1    0    0  501    0 -0.00000000000E+00 -0.00000000000E+00 -0.31934528148E+01  0.31934538329E+01  0.25500000000E-02 0. -1.
          2    1    1    2    0  502 -0.19206935992E+02  0.13686013034E+02  0.81417160655E+02  0.84764187005E+02  0.25500000000E-02 0. -1.
         -2    1    1    2  502    0  0.19206935992E+02 -0.13686013034E+02  0.89966120398E+02  0.93006000715E+02  0.25500000000E-02 0. -1.
<mgrwt>
<rscale>  0 0.47222988E+02</rscale>
<asrwt>0</asrwt>
<pdfrwt beam="1">  1        2 0.26857952E-01 0.47222988E+02</pdfrwt>
<pdfrwt beam="2">  1       -2 0.49130064E-03 0.47222988E+02</pdfrwt>
<totfact> 0.81230406E+05</totfact>
</mgrwt>
</event>
<event>
 4    1  0.4837985E-002  0.5115130E+02  0.7818608E-02  0.1439229E+00
         -2   -1    0    0  501    0 -0.00000000000E+00  0.00000000000E+00  0.57310056507E+02  0.57310056563E+02  0.25500000000E-02 0. -1.
          2   -1    0    0    0  501  0.00000000000E+00 -0.00000000000E+00 -0.11413598539E+02  0.11413598824E+02  0.25500000000E-02 0. -1.
          2    1    1    2    0  502 -0.24622228721E+02 -0.67951549742E+01  0.21203852519E+02  0.33196861997E+02  0.25500000000E-02 0.  1.
         -2    1    1    2  502    0  0.24622228721E+02  0.67951549742E+01  0.24692605449E+02  0.35526793391E+02  0.25500000000E-02 0.  1.
<mgrwt>
<rscale>  0 0.51151305E+02</rscale>
<asrwt>0</asrwt>
<pdfrwt beam="2">  1        2 0.17559383E-02 0.51151305E+02</pdfrwt>
<pdfrwt beam="1">  1       -2 0.88169318E-02 0.51151305E+02</pdfrwt>
<totfact> 0.37660693E+05</totfact>
</mgrwt>
</event>
<event>
 4    1  0.4837985E-002  0.5252631E+02  0.7818608E-02  0.1432173E+00
         -2   -1    0    0  501    0 -0.00000000000E+00  0.00000000000E+00  0.58379074436E+02  0.58379074492E+02  0.25500000000E-02 0.  1.
          2   -1    0    0    0  501  0.00000000000E+00 -0.00000000000E+00 -0.11815079832E+02  0.11815080107E+02  0.25500000000E-02 0.  1.
          2    1    1    2    0  502 -0.33696546098E+01 -0.19862040025E+02  0.45798729030E+02  0.50033776526E+02  0.25500000000E-02 0.  1.
         -2    1    1    2  502    0  0.33696546098E+01  0.19862040025E+02  0.76526557387E+00  0.20160378073E+02  0.25500000000E-02 0.  1.
<mgrwt>
<rscale>  0 0.52526315E+02</rscale>
<asrwt>0</asrwt>
<pdfrwt beam="2">  1        2 0.18177046E-02 0.52526315E+02</pdfrwt>
<pdfrwt beam="1">  1       -2 0.89813960E-02 0.52526315E+02</pdfrwt>
<totfact> 0.35201403E+05</totfact>
</mgrwt>
</event>
<event>
 4    1  0.4837985E-002  0.5453953E+02  0.7818608E-02  0.1422289E+00
         -2   -1    0    0  501    0 -0.00000000000E+00  0.00000000000E+00  0.16174443455E+02  0.16174443656E+02  0.25500000000E-02 0.  1.
          2   -1    0    0    0  501  0.00000000000E+00 -0.00000000000E+00 -0.45976239638E+02  0.45976239709E+02  0.25500000000E-02 0.  1.
          2    1    1    2    0  502 -0.21898006141E+02 -0.12386872570E+02 -0.26889667086E+02  0.36824061258E+02  0.25500000000E-02 0.  1.
         -2    1    1    2  502    0  0.21898006141E+02  0.12386872570E+02 -0.29121290961E+01  0.25326622107E+02  0.25500000000E-02 0.  1.
<mgrwt>
<rscale>  0 0.54539530E+02</rscale>
<asrwt>0</asrwt>
<pdfrwt beam="2">  1        2 0.70732676E-02 0.54539530E+02</pdfrwt>
<pdfrwt beam="1">  1       -2 0.24883760E-02 0.54539530E+02</pdfrwt>
<totfact> 0.40295599E+05</totfact>
</mgrwt>
</event>
<event>
 4    1  0.4837985E-002  0.4871896E+02  0.7818608E-02  0.1452376E+00
          2   -1    0    0    0  501  0.00000000000E+00  0.00000000000E+00  0.56184679349E+03  0.56184679349E+03  0.25500000000E-02 0. -1.
         -2   -1    0    0  501    0 -0.00000000000E+00 -0.00000000000E+00 -0.10561303286E+01  0.10561334071E+01  0.25500000000E-02 0. -1.
          2    1    1    2    0  502 -0.52396561584E+01 -0.22410456054E+02  0.37261237817E+03  0.37332247040E+03  0.25500000000E-02 0.  1.
         -2    1    1    2  502    0  0.52396561584E+01  0.22410456054E+02  0.18817828499E+03  0.18958045650E+03  0.25500000000E-02 0.  1.
<mgrwt>
<rscale>  0 0.48718962E+02</rscale>
<asrwt>0</asrwt>
<pdfrwt beam="1">  1        2 0.86438279E-01 0.48718962E+02</pdfrwt>
<pdfrwt beam="2">  1       -2 0.16248124E-03 0.48718962E+02</pdfrwt>
<totfact> 0.11087241E+06</totfact>
</mgrwt>
</event>
<event>
 4    1  0.4837985E-002  0.4108946E+02  0.7818608E-02  0.1500344E+00
         -2   -1    0    0  501    0 -0.00000000000E+00  0.00000000000E+00  0.43942463868E+02  0.43942463942E+02  0.25500000000E-02 0. -1.
          2   -1    0    0    0  501  0.00000000000E+00 -0.00000000000E+00 -0.96054225039E+01  0.96054228423E+01  0.25500000000E-02 0. -1.
          2    1    1    2    0  502 -0.20171950591E+02  0.38388046214E+01  0.18034855644E+02  0.27329471933E+02  0.25500000000E-02 0.  1.
         -2    1    1    2  502    0  0.20171950591E+02 -0.38388046214E+01  0.16302185720E+02  0.26218414851E+02  0.25500000000E-02 0.  1.
<mgrwt>
<rscale>  0 0.41089461E+02</rscale>
<asrwt>0</asrwt>
<pdfrwt beam="2">  1        2 0.14777574E-02 0.41089461E+02</pdfrwt>
<pdfrwt beam="1">  1       -2 0.67603789E-02 0.41089461E+02</pdfrwt>
<totfact> 0.66478104E+05</totfact>
</mgrwt>
</event>
<event>
 4    1  0.4837985E-002  0.5475984E+02  0.7818608E-02  0.1421238E+00
         -2   -1    0    0  501    0 -0.00000000000E+00  0.00000000000E+00  0.37858492846E+02  0.37858492932E+02  0.25500000000E-02 0. -1.
          2   -1    0    0    0  501  0.00000000000E+00 -0.00000000000E+00 -0.19801631178E+02  0.19801631342E+02  0.25500000000E-02 0. -1.
          2    1    1    2    0  502  0.23376046379E+02  0.14896555914E+01  0.23956816975E+02  0.33505039981E+02  0.25500000000E-02 0.  1.
         -2    1    1    2  502    0 -0.23376046379E+02 -0.14896555914E+01 -0.58999553061E+01  0.24155084293E+02  0.25500000000E-02 0.  1.
<mgrwt>
<rscale>  0 0.54759836E+02</rscale>
<asrwt>0</asrwt>
<pdfrwt beam="2">  1        2 0.30464048E-02 0.54759836E+02</pdfrwt>
<pdfrwt beam="1">  1       -2 0.58243835E-02 0.54759836E+02</pdfrwt>
<totfact> 0.34410792E+05</totfact>
</mgrwt>
</event>
<event>
 4    1  0.4837985E-002  0.4288301E+02  0.7818608E-02  0.1488007E+00
         -2   -1    0    0  501    0 -0.00000000000E+00  0.00000000000E+00  0.32728514516E+02  0.32728514615E+02  0.25500000000E-02 0.  1.
          2   -1    0    0    0  501  0.00000000000E+00 -0.00000000000E+00 -0.14047023279E+02  0.14047023511E+02  0.25500000000E-02 0.  1.
          2    1    1    2    0  502  0.20532027458E+02  0.28652472901E+01  0.15311598658E+02  0.25772443686E+02  0.25500000000E-02 0.  1.
         -2    1    1    2  502    0 -0.20532027458E+02 -0.28652472901E+01  0.33698925784E+01  0.21003094440E+02  0.25500000000E-02 0.  1.
<mgrwt>
<rscale>  0 0.42883014E+02</rscale>
<asrwt>0</asrwt>
<pdfrwt beam="2">  1        2 0.21610806E-02 0.42883014E+02</pdfrwt>
<pdfrwt beam="1">  1       -2 0.50351560E-02 0.42883014E+02</pdfrwt>
<totfact> 0.62763639E+05</totfact>
</mgrwt>
</event>
<event>
 4    1  0.4837985E-002  0.6355559E+02  0.7818608E-02  0.1383489E+00
         -2   -1    0    0  501    0 -0.00000000000E+00  0.00000000000E+00  0.20104345003E+03  0.20104345004E+03  0.25500000000E-02 0.  1.
          2   -1    0    0    0  501  0.00000000000E+00 -0.00000000000E+00 -0.50229344836E+01  0.50229351309E+01  0.25500000000E-02 0.  1.
          2    1    1    2    0  502  0.69849126494E+01  0.28581843580E+02  0.59086786980E+02  0.66007266185E+02  0.25500000000E-02 0. -1.
         -2    1    1    2  502    0 -0.69849126494E+01 -0.28581843580E+02  0.13693372856E+03  0.14005911899E+03  0.25500000000E-02 0. -1.
<mgrwt>
<rscale>  0 0.63555587E+02</rscale>
<asrwt>0</asrwt>
<pdfrwt beam="2">  1        2 0.77275915E-03 0.63555587E+02</pdfrwt>
<pdfrwt beam="1">  1       -2 0.30929764E-01 0.63555587E+02</pdfrwt>
<totfact> 0.15509959E+05</totfact>
</mgrwt>
</event>
<event>
 4    1  0.4837985E-002  0.7616957E+02  0.7818608E-02  0.1340287E+00
         -2   -1    0    0  501    0 -0.00000000000E+00  0.00000000000E+00  0.20569585178E+02  0.20569585336E+02  0.25500000000E-02 0. -1.
          2   -1    0    0    0  501  0.00000000000E+00 -0.00000000000E+00 -0.70514352464E+02  0.70514352510E+02  0.25500000000E-02 0. -1.
          2    1    1    2    0  502 -0.30466495154E+02 -0.22295715415E+02 -0.18976078086E+02  0.42253967847E+02  0.25500000000E-02 0. -1.
         -2    1    1    2  502    0  0.30466495154E+02  0.22295715415E+02 -0.30968689200E+02  0.48829969999E+02  0.25500000000E-02 0. -1.
<mgrwt>
<rscale>  0 0.76169574E+02</rscale>
<asrwt>0</asrwt>
<pdfrwt beam="2">  1        2 0.10848362E-01 0.76169574E+02</pdfrwt>
<pdfrwt beam="1">  1       -2 0.31645516E-02 0.76169574E+02</pdfrwt>
<totfact> 0.18191008E+05</totfact>
</mgrwt>
</event>
<event>
 4    1  0.4837985E-002  0.4639026E+02  0.7818608E-02  0.1465845E+00
         -2   -1    0    0  501    0 -0.00000000000E+00  0.00000000000E+00  0.62638731449E+02  0.62638731501E+02  0.25500000000E-02 0.  1.
          2   -1    0    0    0  501  0.00000000000E+00 -0.00000000000E+00 -0.85891605795E+01  0.85891609581E+01  0.25500000000E-02 0.  1.
          2    1    1    2    0  502  0.74963584370E+01  0.19725108938E+02  0.12238671931E+02  0.24393860079E+02  0.25500000000E-02 0. -1.
         -2    1    1    2  502    0 -0.74963584370E+01 -0.19725108938E+02  0.41810898938E+02  0.46834032379E+02  0.25500000000E-02 0. -1.
<mgrwt>
<rscale>  0 0.46390264E+02</rscale>
<asrwt>0</asrwt>
<pdfrwt beam="2">  1        2 0.13214094E-02 0.46390264E+02</pdfrwt>
<pdfrwt beam="1">  1       -2 0.96367278E-02 0.46390264E+02</pdfrwt>
<totfact> 0.46864733E+05</totfact>
</mgrwt>
</event>
<event>
 4    1  0.4837985E-002  0.5201793E+02  0.7818608E-02  0.1434752E+00
          2   -1    0    0    0  501  0.00000000000E+00  0.00000000000E+00  0.13793693173E+03  0.13793693176E+03  0.25500000000E-02 0. -1.
         -2   -1    0    0  501    0 -0.00000000000E+00 -0.00000000000E+00 -0.49041707491E+01  0.49041714120E+01  0.25500000000E-02 0. -1.
          2    1    1    2    0  502  0.71901675620E+01  0.24339187458E+02  0.82140056313E+02  0.85971410441E+02  0.25500000000E-02 0.  1.
         -2    1    1    2  502    0 -0.71901675620E+01 -0.24339187458E+02  0.50892704671E+02  0.56869692727E+02  0.25500000000E-02 0.  1.
<mgrwt>
<rscale>  0 0.52017932E+02</rscale>
<asrwt>0</asrwt>
<pdfrwt beam="1">  1        2 0.21221068E-01 0.52017932E+02</pdfrwt>
<pdfrwt beam="2">  1       -2 0.75448781E-03 0.52017932E+02</pdfrwt>
<totfact> 0.59262288E+05</totfact>
</mgrwt>
</event>
<event>
 4    1  0.4837985E-002  0.9721779E+02  0.7818608E-02  0.1286258E+00
         -2   -1    0    0  501    0 -0.00000000000E+00  0.00000000000E+00  0.46612979792E+01  0.46612986767E+01  0.25500000000E-02 0.  1.
          2   -1    0    0    0  501  0.00000000000E+00 -0.00000000000E+00 -0.50690273037E+03  0.50690273037E+03  0.25500000000E-02 0.  1.
          2    1    1    2    0  502  0.13826128058E+02 -0.23120791522E+02 -0.46402813036E+03  0.46480946482E+03  0.25500000000E-02 0.  1.
         -2    1    1    2  502    0 -0.13826128058E+02  0.23120791522E+02 -0.38213302031E+02  0.46754564229E+02  0.25500000000E-02 0.  1.
<mgrwt>
<rscale>  0 0.97217794E+02</rscale>
<asrwt>0</asrwt>
<pdfrwt beam="2">  1        2 0.77984992E-01 0.97217794E+02</pdfrwt>
<pdfrwt beam="1">  1       -2 0.71712322E-03 0.97217794E+02</pdfrwt>
<totfact> 0.18254537E+05</totfact>
</mgrwt>
</event>
<event>
 4    1  0.4837985E-002  0.1054792E+03  0.7818608E-02  0.1269178E+00
          2   -1    0    0    0  501  0.00000000000E+00  0.00000000000E+00  0.68743934295E+02  0.68743934342E+02  0.25500000000E-02 0.  1.
         -2   -1    0    0  501    0 -0.00000000000E+00 -0.00000000000E+00 -0.40461286004E+02  0.40461286084E+02  0.25500000000E-02 0.  1.
          2    1    1    2    0  502 -0.20697573051E+02  0.43204015222E+02 -0.86943591083E+01  0.48688482707E+02  0.25500000000E-02 0.  1.
         -2    1    1    2  502    0  0.20697573051E+02 -0.43204015222E+02  0.36977007399E+02  0.60516737719E+02  0.25500000000E-02 0.  1.
<mgrwt>
<rscale>  0 0.10547925E+03</rscale>
<asrwt>0</asrwt>
<pdfrwt beam="1">  1        2 0.10575990E-01 0.10547925E+03</pdfrwt>
<pdfrwt beam="2">  1       -2 0.62248133E-02 0.10547925E+03</pdfrwt>
<totfact> 0.72789775E+04</totfact>
</mgrwt>
</event>
<event>
 4    1  0.4837985E-002  0.6027220E+02  0.7818608E-02  0.1396693E+00
          2   -1    0    0    0  501  0.00000000000E+00  0.00000000000E+00  0.18160869603E+02  0.18160869782E+02  0.25500000000E-02 0. -1.
         -2   -1    0    0  501    0 -0.00000000000E+00 -0.00000000000E+00 -0.50007762142E+02  0.50007762207E+02  0.25500000000E-02 0. -1.
          2    1    1    2    0  502  0.85932694517E+01  0.27151915722E+02 -0.27069154538E+02  0.39291346899E+02  0.25500000000E-02 0. -1.
         -2    1    1    2  502    0 -0.85932694517E+01 -0.27151915722E+02 -0.47777380009E+01  0.28877285090E+02  0.25500000000E-02 0. -1.
<mgrwt>
<rscale>  0 0.60272198E+02</rscale>
<asrwt>0</asrwt>
<pdfrwt beam="1">  1        2 0.27939800E-02 0.60272198E+02</pdfrwt>
<pdfrwt beam="2">  1       -2 0.76935018E-02 0.60272198E+02</pdfrwt>
<totfact> 0.26004330E+05</totfact>
</mgrwt>
</event>
<event>
 4    1  0.4837985E-002  0.2020125E+03  0.7818608E-02  0.1148052E+00
         -2   -1    0    0  501    0 -0.00000000000E+00  0.00000000000E+00  0.37288587266E+02  0.37288587353E+02  0.25500000000E-02 0. -1.
          2   -1    0    0    0  501  0.00000000000E+00 -0.00000000000E+00 -0.27360268912E+03  0.27360268914E+03  0.25500000000E-02 0. -1.
          2    1    1    2    0  502  0.24127566768E+02  0.33412545006E+02 -0.26007419840E+03  0.26331943780E+03  0.25500000000E-02 0.  1.
         -2    1    1    2  502    0 -0.24127566768E+02 -0.33412545006E+02  0.23760096545E+02  0.47571838689E+02  0.25500000000E-02 0.  1.
<mgrwt>
<rscale>  0 0.20201245E+03</rscale>
<asrwt>0</asrwt>
<pdfrwt beam="2">  1        2 0.42092720E-01 0.20201245E+03</pdfrwt>
<pdfrwt beam="1">  1       -2 0.57367059E-02 0.20201245E+03</pdfrwt>
<totfact> 0.18546668E+04</totfact>
</mgrwt>
</event>
<event>
 4    1  0.4837985E-002  0.4379036E+02  0.7818608E-02  0.1482038E+00
          2   -1    0    0    0  501  0.00000000000E+00  0.00000000000E+00  0.51004962285E+03  0.51004962286E+03  0.25500000000E-02 0. -1.
         -2   -1    0    0  501    0 -0.00000000000E+00 -0.00000000000E+00 -0.93990479134E+00  0.93990825046E+00  0.25500000000E-02 0. -1.
          2    1    1    2    0  502 -0.21321612555E+02  0.20253782296E+01  0.20148254970E+03  0.20261769706E+03  0.25500000000E-02 0. -1.
         -2    1    1    2  502    0  0.21321612555E+02 -0.20253782296E+01  0.30762716836E+03  0.30837183405E+03  0.25500000000E-02 0. -1.
<mgrwt>
<rscale>  0 0.43790363E+02</rscale>
<asrwt>0</asrwt>
<pdfrwt beam="1">  1        2 0.78468941E-01 0.43790363E+02</pdfrwt>
<pdfrwt beam="2">  1       -2 0.14460143E-03 0.43790363E+02</pdfrwt>
<totfact> 0.13992002E+06</totfact>
</mgrwt>
</event>
<event>
 4    1  0.4837985E-002  0.1469101E+03  0.7818608E-02  0.1204322E+00
         -2   -1    0    0  501    0 -0.00000000000E+00  0.00000000000E+00  0.92286845650E+01  0.92286849173E+01  0.25500000000E-02 0. -1.
          2   -1    0    0    0  501  0.00000000000E+00 -0.00000000000E+00 -0.58465999945E+03  0.58465999946E+03  0.25500000000E-02 0. -1.
          2    1    1    2    0  502  0.42553979758E+02 -0.31224192002E+02 -0.81196020396E+02  0.96843095232E+02  0.25500000000E-02 0. -1.
         -2    1    1    2  502    0 -0.42553979758E+02  0.31224192002E+02 -0.49423529449E+03  0.49704558915E+03  0.25500000000E-02 0. -1.
<mgrwt>
<rscale>  0 0.14691008E+03</rscale>
<asrwt>0</asrwt>
<pdfrwt beam="2">  1        2 0.89947664E-01 0.14691008E+03</pdfrwt>
<pdfrwt beam="1">  1       -2 0.14197981E-02 0.14691008E+03</pdfrwt>
<totfact> 0.62146284E+04</totfact>
</mgrwt>
</event>
<event>
 4    1  0.4837985E-002  0.1030082E+03  0.7818608E-02  0.1274094E+00
         -2   -1    0    0  501    0 -0.00000000000E+00  0.00000000000E+00  0.31544532982E+03  0.31544532983E+03  0.25500000000E-02 0.  1.
          2   -1    0    0    0  501  0.00000000000E+00 -0.00000000000E+00 -0.84092957368E+01  0.84092961235E+01  0.25500000000E-02 0.  1.
          2    1    1    2    0  502 -0.35444371374E+02  0.29251849612E+02  0.22662451933E+03  0.23123720924E+03  0.25500000000E-02 0.  1.
         -2    1    1    2  502    0  0.35444371374E+02 -0.29251849612E+02  0.80411514753E+02  0.92617416716E+02  0.25500000000E-02 0.  1.
<mgrwt>
<rscale>  0 0.10300822E+03</rscale>
<asrwt>0</asrwt>
<pdfrwt beam="2">  1        2 0.12937378E-02 0.10300822E+03</pdfrwt>
<pdfrwt beam="1">  1       -2 0.48530052E-01 0.10300822E+03</pdfrwt>
<totfact> 0.36152302E+04</totfact>
</mgrwt>
</event>
<event>
 4    1  0.4837985E-002  0.7313547E+02  0.7818608E-02  0.1349744E+00
          2   -1    0    0    0  501  0.00000000000E+00  0.00000000000E+00  0.10941665310E+04  0.10941665310E+04  0.25500000000E-02 0. -1.
         -2   -1    0    0  501    0 -0.00000000000E+00 -0.00000000000E+00 -0.12221154346E+01  0.12221180949E+01  0.25500000000E-02 0. -1.
          2    1    1    2    0  502 -0.29477008993E+02  0.14053378183E+02  0.79294598960E+03  0.79361812853E+03  0.25500000000E-02 0.  1.
         -2    1    1    2  502    0  0.29477008993E+02 -0.14053378183E+02  0.29999842600E+03  0.30177052061E+03  0.25500000000E-02 0.  1.
<mgrwt>
<rscale>  0 0.73135471E+02</rscale>
<asrwt>0</asrwt>
<pdfrwt beam="1">  1        2 0.16833295E+00 0.73135471E+02</pdfrwt>
<pdfrwt beam="2">  1       -2 0.18801837E-03 0.73135471E+02</pdfrwt>
<totfact> 0.44425921E+05</totfact>
</mgrwt>
</event>
<event>
 4    1  0.4837985E-002  0.8086532E+02  0.7818608E-02  0.1326614E+00
         -2   -1    0    0  501    0 -0.00000000000E+00  0.00000000000E+00  0.13479966882E+01  0.13479991001E+01  0.25500000000E-02 0. -1.
          2   -1    0    0    0  501  0.00000000000E+00 -0.00000000000E+00 -0.12127614153E+04  0.12127614153E+04  0.25500000000E-02 0. -1.
          2    1    1    2    0  502  0.21441672440E+02 -0.33038382586E+02 -0.46849529710E+03  0.47014798037E+03  0.25500000000E-02 0. -1.
         -2    1    1    2  502    0 -0.21441672440E+02  0.33038382586E+02 -0.74291812147E+03  0.74396143398E+03  0.25500000000E-02 0. -1.
<mgrwt>
<rscale>  0 0.80865316E+02</rscale>
<asrwt>0</asrwt>
<pdfrwt beam="2">  1        2 0.18657781E+00 0.80865316E+02</pdfrwt>
<pdfrwt beam="1">  1       -2 0.20738526E-03 0.80865316E+02</pdfrwt>
<totfact> 0.34004832E+05</totfact>
</mgrwt>
</event>
<event>
 4    1  0.4837985E-002  0.5033048E+02  0.7818608E-02  0.1443567E+00
          2   -1    0    0    0  501  0.00000000000E+00  0.00000000000E+00  0.57039617305E+01  0.57039623005E+01  0.25500000000E-02 0. -1.
         -2   -1    0    0  501    0 -0.00000000000E+00 -0.00000000000E+00 -0.11102622875E+03  0.11102622878E+03  0.25500000000E-02 0. -1.
          2    1    1    2    0  502 -0.15928987326E+02 -0.13387905920E+02 -0.19835354904E+02  0.28747347231E+02  0.25500000000E-02 0.  1.
         -2    1    1    2  502    0  0.15928987326E+02  0.13387905920E+02 -0.85486912119E+02  0.87982843852E+02  0.25500000000E-02 0.  1.
<mgrwt>
<rscale>  0 0.50330484E+02</rscale>
<asrwt>0</asrwt>
<pdfrwt beam="1">  1        2 0.87753270E-03 0.50330484E+02</pdfrwt>
<pdfrwt beam="2">  1       -2 0.17080957E-01 0.50330484E+02</pdfrwt>
<totfact> 0.33797905E+05</totfact>
</mgrwt>
</event>
<event>
 4    1  0.4837985E-002  0.9500587E+02  0.7818608E-02  0.1291163E+00
         -2   -1    0    0  501    0 -0.00000000000E+00  0.00000000000E+00  0.17141588437E+01  0.17141607404E+01  0.25500000000E-02 0. -1.
          2   -1    0    0    0  501  0.00000000000E+00 -0.00000000000E+00 -0.13164052322E+04  0.13164052322E+04  0.25500000000E-02 0. -1.
          2    1    1    2    0  502  0.28065569173E+02  0.23228361572E+02 -0.23440303796E+03  0.23721723623E+03  0.25500000000E-02 0.  1.
         -2    1    1    2  502    0 -0.28065569173E+02 -0.23228361572E+02 -0.10802880354E+04  0.10809021568E+04  0.25500000000E-02 0.  1.
<mgrwt>
<rscale>  0 0.95005872E+02</rscale>
<asrwt>0</asrwt>
<pdfrwt beam="2">  1        2 0.20252307E+00 0.95005872E+02</pdfrwt>
<pdfrwt beam="1">  1       -2 0.26371794E-03 0.95005872E+02</pdfrwt>
<totfact> 0.21986881E+05</totfact>
</mgrwt>
</event>
<event>
 4    1  0.4837985E-002  0.4539326E+02  0.7818608E-02  0.1471901E+00
          2   -1    0    0    0  501  0.00000000000E+00  0.00000000000E+00  0.13383114581E+04  0.13383114581E+04  0.25500000000E-02 0.  1.
         -2   -1    0    0  501    0 -0.00000000000E+00 -0.00000000000E+00 -0.38491140962E+00  0.38491985628E+00  0.25500000000E-02 0.  1.
          2    1    1    2    0  502 -0.16937222164E+02 -0.11138119644E+02  0.97001768026E+03  0.97022947143E+03  0.25500000000E-02 0. -1.
         -2    1    1    2  502    0  0.16937222164E+02  0.11138119644E+02  0.36790886647E+03  0.36846690657E+03  0.25500000000E-02 0. -1.
<mgrwt>
<rscale>  0 0.45393260E+02</rscale>
<asrwt>0</asrwt>
<pdfrwt beam="1">  1        2 0.20589759E+00 0.45393260E+02</pdfrwt>
<pdfrwt beam="2">  1       -2 0.59216777E-04 0.45393260E+02</pdfrwt>
<totfact> 0.14364964E+06</totfact>
</mgrwt>
</event>
<event>
 4    1  0.4837985E-002  0.4191252E+02  0.7818608E-02  0.1494591E+00
          2   -1    0    0    0  501  0.00000000000E+00  0.00000000000E+00  0.16229149960E+04  0.16229149960E+04  0.25500000000E-02 0.  1.
         -2   -1    0    0  501    0 -0.00000000000E+00 -0.00000000000E+00 -0.27059643590E+00  0.27060845076E+00  0.25500000000E-02 0.  1.
          2    1    1    2    0  502 -0.17904212468E+02 -0.10708516141E+02  0.88811315977E+03  0.88835815846E+03  0.25500000000E-02 0. -1.
         -2    1    1    2  502    0  0.17904212468E+02  0.10708516141E+02  0.73453123983E+03  0.73482744603E+03  0.25500000000E-02 0. -1.
<mgrwt>
<rscale>  0 0.41912517E+02</rscale>
<asrwt>0</asrwt>
<pdfrwt beam="1">  1        2 0.24967784E+00 0.41912517E+02</pdfrwt>
<pdfrwt beam="2">  1       -2 0.41631378E-04 0.41912517E+02</pdfrwt>
<totfact> 0.16362024E+06</totfact>
</mgrwt>
</event>
<event>
 4    1  0.4837985E-002  0.8469315E+02  0.7818608E-02  0.1316237E+00
          2   -1    0    0    0  501  0.00000000000E+00  0.00000000000E+00  0.46032216779E+03  0.46032216779E+03  0.25500000000E-02 0.  1.
         -2   -1    0    0  501    0 -0.00000000000E+00 -0.00000000000E+00 -0.38956029470E+01  0.38956037816E+01  0.25500000000E-02 0.  1.
          2    1    1    2    0  502  0.10235350900E+02  0.41004969766E+02  0.21364673447E+03  0.21778681574E+03  0.25500000000E-02 0.  1.
         -2    1    1    2  502    0 -0.10235350900E+02 -0.41004969766E+02  0.24277983036E+03  0.24643095583E+03  0.25500000000E-02 0.  1.
<mgrwt>
<rscale>  0 0.84693154E+02</rscale>
<asrwt>0</asrwt>
<pdfrwt beam="1">  1        2 0.70818773E-01 0.84693154E+02</pdfrwt>
<pdfrwt beam="2">  1       -2 0.59932378E-03 0.84693154E+02</pdfrwt>
<totfact> 0.25470034E+05</totfact>
</mgrwt>
</event>
<event>
 4    1  0.4837985E-002  0.4331282E+02  0.7818608E-02  0.1485158E+00
          2   -1    0    0    0  501  0.00000000000E+00  0.00000000000E+00  0.20761399017E+02  0.20761399173E+02  0.25500000000E-02 0. -1.
         -2   -1    0    0  501    0 -0.00000000000E+00 -0.00000000000E+00 -0.22590005898E+02  0.22590006042E+02  0.25500000000E-02 0. -1.
          2    1    1    2    0  502 -0.20286222763E+01  0.21505868024E+02  0.63059298068E+00  0.21610537287E+02  0.25500000000E-02 0. -1.
         -2    1    1    2  502    0  0.20286222763E+01 -0.21505868024E+02 -0.24591998618E+01  0.21740867928E+02  0.25500000000E-02 0. -1.
<mgrwt>
<rscale>  0 0.43312822E+02</rscale>
<asrwt>0</asrwt>
<pdfrwt beam="1">  1        2 0.31940614E-02 0.43312822E+02</pdfrwt>
<pdfrwt beam="2">  1       -2 0.34753855E-02 0.43312822E+02</pdfrwt>
<totfact> 0.64573328E+05</totfact>
</mgrwt>
</event>
<event>
 4    1  0.4837985E-002  0.1025611E+03  0.7818608E-02  0.1275001E+00
         -2   -1    0    0  501    0 -0.00000000000E+00  0.00000000000E+00  0.20290981923E+02  0.20290982083E+02  0.25500000000E-02 0. -1.
          2   -1    0    0    0  501  0.00000000000E+00 -0.00000000000E+00 -0.12959913534E+03  0.12959913537E+03  0.25500000000E-02 0. -1.
          2    1    1    2    0  502 -0.19611847351E+02  0.37360013459E+02 -0.97245348887E+02  0.10600496709E+03  0.25500000000E-02 0.  1.
         -2    1    1    2  502    0  0.19611847351E+02 -0.37360013459E+02 -0.12062804535E+02  0.43885150358E+02  0.25500000000E-02 0.  1.
<mgrwt>
<rscale>  0 0.10256108E+03</rscale>
<asrwt>0</asrwt>
<pdfrwt beam="2">  1        2 0.19938328E-01 0.10256108E+03</pdfrwt>
<pdfrwt beam="1">  1       -2 0.31216896E-02 0.10256108E+03</pdfrwt>
<totfact> 0.96333680E+04</totfact>
</mgrwt>
</event>
<event>
 4    1  0.4837985E-002  0.4760334E+02  0.7818608E-02  0.1458714E+00
          2   -1    0    0    0  501  0.00000000000E+00  0.00000000000E+00  0.47183445346E+02  0.47183445415E+02  0.25500000000E-02 0. -1.
         -2   -1    0    0  501    0 -0.00000000000E+00 -0.00000000000E+00 -0.12006742945E+02  0.12006743216E+02  0.25500000000E-02 0. -1.
          2    1    1    2    0  502  0.16455297703E+02  0.15223783511E+02  0.27533959329E+02  0.35505764740E+02  0.25500000000E-02 0.  1.
         -2    1    1    2  502    0 -0.16455297703E+02 -0.15223783511E+02  0.76427430722E+01  0.23684423891E+02  0.25500000000E-02 0.  1.
<mgrwt>
<rscale>  0 0.47603341E+02</rscale>
<asrwt>0</asrwt>
<pdfrwt beam="1">  1        2 0.72589916E-02 0.47603341E+02</pdfrwt>
<pdfrwt beam="2">  1       -2 0.18471913E-02 0.47603341E+02</pdfrwt>
<totfact> 0.57562270E+05</totfact>
</mgrwt>
</event>
<event>
 4    1  0.4837985E-002  0.4199383E+02  0.7818608E-02  0.1494031E+00
         -2   -1    0    0  501    0 -0.00000000000E+00  0.00000000000E+00  0.28215619067E+00  0.28216771330E+00  0.25500000000E-02 0. -1.
          2   -1    0    0    0  501  0.00000000000E+00 -0.00000000000E+00 -0.15624727339E+04  0.15624727339E+04  0.25500000000E-02 0. -1.
          2    1    1    2    0  502 -0.10911055550E+02  0.17052838103E+02 -0.98836023072E+03  0.98856754756E+03  0.25500000000E-02 0.  1.
         -2    1    1    2  502    0  0.10911055550E+02 -0.17052838103E+02 -0.57383034703E+03  0.57418735409E+03  0.25500000000E-02 0.  1.
<mgrwt>
<rscale>  0 0.41993826E+02</rscale>
<asrwt>0</asrwt>
<pdfrwt beam="2">  1        2 0.24037349E+00 0.41993826E+02</pdfrwt>
<pdfrwt beam="1">  1       -2 0.43410782E-04 0.41993826E+02</pdfrwt>
<totfact> 0.16560162E+06</totfact>
</mgrwt>
</event>
<event>
 4    1  0.4837985E-002  0.5770119E+02  0.7818608E-02  0.1407740E+00
         -2   -1    0    0  501    0 -0.00000000000E+00  0.00000000000E+00  0.13722403277E+01  0.13722426970E+01  0.25500000000E-02 0.  1.
          2   -1    0    0    0  501  0.00000000000E+00 -0.00000000000E+00 -0.60656737187E+03  0.60656737187E+03  0.25500000000E-02 0.  1.
          2    1    1    2    0  502 -0.18929928084E+02  0.16109370918E+02 -0.14828821356E+03  0.15035706932E+03  0.25500000000E-02 0. -1.
         -2    1    1    2  502    0  0.18929928084E+02 -0.16109370918E+02 -0.45690691798E+03  0.45758254525E+03  0.25500000000E-02 0. -1.
<mgrwt>
<rscale>  0 0.57701193E+02</rscale>
<asrwt>0</asrwt>
<pdfrwt beam="2">  1        2 0.93317844E-01 0.57701193E+02</pdfrwt>
<pdfrwt beam="1">  1       -2 0.21111456E-03 0.57701193E+02</pdfrwt>
<totfact> 0.74335020E+05</totfact>
</mgrwt>
</event>
<event>
 4    1  0.4837985E-002  0.1005100E+03  0.7818608E-02  0.1279227E+00
         -2   -1    0    0  501    0 -0.00000000000E+00  0.00000000000E+00  0.27627037146E+01  0.27627048914E+01  0.25500000000E-02 0. -1.
          2   -1    0    0    0  501  0.00000000000E+00 -0.00000000000E+00 -0.91416325602E+03  0.91416325602E+03  0.25500000000E-02 0. -1.
          2    1    1    2    0  502  0.45791168415E+02 -0.19049705410E+02 -0.52972407079E+03  0.53204070667E+03  0.25500000000E-02 0.  1.
         -2    1    1    2  502    0 -0.45791168415E+02  0.19049705410E+02 -0.38167648152E+03  0.38488525424E+03  0.25500000000E-02 0.  1.
<mgrwt>
<rscale>  0 0.10050996E+03</rscale>
<asrwt>0</asrwt>
<pdfrwt beam="2">  1        2 0.14064026E+00 0.10050996E+03</pdfrwt>
<pdfrwt beam="1">  1       -2 0.42503216E-03 0.10050996E+03</pdfrwt>
<totfact> 0.19189539E+05</totfact>
</mgrwt>
</event>
<event>
 4    1  0.4837985E-002  0.1266729E+03  0.7818608E-02  0.1232478E+00
         -2   -1    0    0  501    0 -0.00000000000E+00  0.00000000000E+00  0.12232364582E+03  0.12232364585E+03  0.25500000000E-02 0.  1.
          2   -1    0    0    0  501  0.00000000000E+00 -0.00000000000E+00 -0.32794211798E+02  0.32794211897E+02  0.25500000000E-02 0.  1.
          2    1    1    2    0  502 -0.38282218038E+02  0.50344372488E+02  0.40625888258E+02  0.75170119478E+02  0.25500000000E-02 0. -1.
         -2    1    1    2  502    0  0.38282218038E+02 -0.50344372488E+02  0.48903545768E+02  0.79947738269E+02  0.25500000000E-02 0. -1.
<mgrwt>
<rscale>  0 0.12667293E+03</rscale>
<asrwt>0</asrwt>
<pdfrwt beam="2">  1        2 0.50452635E-02 0.12667293E+03</pdfrwt>
<pdfrwt beam="1">  1       -2 0.18819022E-01 0.12667293E+03</pdfrwt>
<totfact> 0.32913156E+04</totfact>
</mgrwt>
</event>
<event>
 4    1  0.4837985E-002  0.4340505E+02  0.7818608E-02  0.1484551E+00
         -2   -1    0    0  501    0 -0.00000000000E+00  0.00000000000E+00  0.20745789434E+00  0.20747356561E+00  0.25500000000E-02 0.  1.
          2   -1    0    0    0  501  0.00000000000E+00 -0.00000000000E+00 -0.22702527001E+04  0.22702527001E+04  0.25500000000E-02 0.  1.
          2    1    1    2    0  502  0.57924887203E+00  0.21414050675E+02 -0.13169976417E+04  0.13171718511E+04  0.25500000000E-02 0.  1.
         -2    1    1    2  502    0 -0.57924887203E+00 -0.21414050675E+02 -0.95304760054E+03  0.95328832260E+03  0.25500000000E-02 0.  1.
<mgrwt>
<rscale>  0 0.43405052E+02</rscale>
<asrwt>0</asrwt>
<pdfrwt beam="2">  1        2 0.34924975E+00 0.43405052E+02</pdfrwt>
<pdfrwt beam="1">  1       -2 0.31919623E-04 0.43405052E+02</pdfrwt>
<totfact> 0.11432041E+06</totfact>
</mgrwt>
</event>
<event>
 4    1  0.4837985E-002  0.5182770E+02  0.7818608E-02  0.1435726E+00
         -2   -1    0    0  501    0 -0.00000000000E+00  0.00000000000E+00  0.35836385751E+02  0.35836385842E+02  0.25500000000E-02 0.  1.
          2   -1    0    0    0  501  0.00000000000E+00 -0.00000000000E+00 -0.18738708922E+02  0.18738709095E+02  0.25500000000E-02 0.  1.
          2    1    1    2    0  502 -0.22924922181E+02 -0.10642150439E+02  0.25254564494E+01  0.25400499203E+02  0.25500000000E-02 0. -1.
         -2    1    1    2  502    0  0.22924922181E+02  0.10642150439E+02  0.14572220380E+02  0.29174595734E+02  0.25500000000E-02 0. -1.
<mgrwt>
<rscale>  0 0.51827699E+02</rscale>
<asrwt>0</asrwt>
<pdfrwt beam="2">  1        2 0.28828783E-02 0.51827699E+02</pdfrwt>
<pdfrwt beam="1">  1       -2 0.55132901E-02 0.51827699E+02</pdfrwt>
<totfact> 0.39579984E+05</totfact>
</mgrwt>
</event>
<event>
 4    1  0.4837985E-002  0.4930637E+02  0.7818608E-02  0.1449119E+00
          2   -1    0    0    0  501  0.00000000000E+00  0.00000000000E+00  0.32710428480E+03  0.32710428481E+03  0.25500000000E-02 0.  1.
         -2   -1    0    0  501    0 -0.00000000000E+00 -0.00000000000E+00 -0.18580592445E+01  0.18580609943E+01  0.25500000000E-02 0.  1.
          2    1    1    2    0  502  0.21344300435E+02 -0.11985434969E+02  0.18213127538E+03  0.18376896172E+03  0.25500000000E-02 0. -1.
         -2    1    1    2  502    0 -0.21344300435E+02  0.11985434969E+02  0.14311495017E+03  0.14519338409E+03  0.25500000000E-02 0. -1.
<mgrwt>
<rscale>  0 0.49306366E+02</rscale>
<asrwt>0</asrwt>
<pdfrwt beam="1">  1        2 0.50323757E-01 0.49306366E+02</pdfrwt>
<pdfrwt beam="2">  1       -2 0.28585529E-03 0.49306366E+02</pdfrwt>
<totfact> 0.90259546E+05</totfact>
</mgrwt>
</event>
<event>
 4    1  0.4837985E-002  0.1982005E+03  0.7818608E-02  0.1151266E+00
         -2   -1    0    0  501    0 -0.00000000000E+00  0.00000000000E+00  0.21774618349E+02  0.21774618499E+02  0.25500000000E-02 0. -1.
          2   -1    0    0    0  501  0.00000000000E+00 -0.00000000000E+00 -0.45102318395E+03  0.45102318396E+03  0.25500000000E-02 0. -1.
          2    1    1    2    0  502  0.74643063215E+02  0.50807260434E+02 -0.11720277353E+03  0.14795085241E+03  0.25500000000E-02 0. -1.
         -2    1    1    2  502    0 -0.74643063215E+02 -0.50807260434E+02 -0.31204579208E+03  0.32484695005E+03  0.25500000000E-02 0. -1.
<mgrwt>
<rscale>  0 0.19820048E+03</rscale>
<asrwt>0</asrwt>
<pdfrwt beam="2">  1        2 0.69388175E-01 0.19820048E+03</pdfrwt>
<pdfrwt beam="1">  1       -2 0.33499416E-02 0.19820048E+03</pdfrwt>
<totfact> 0.24291366E+04</totfact>
</mgrwt>
</event>
<event>
 4    1  0.4837985E-002  0.4239602E+02  0.7818608E-02  0.1491285E+00
          2   -1    0    0    0  501  0.00000000000E+00  0.00000000000E+00  0.17934309372E+01  0.17934327501E+01  0.25500000000E-02 0.  1.
         -2   -1    0    0  501    0 -0.00000000000E+00 -0.00000000000E+00 -0.25055627817E+03  0.25055627818E+03  0.25500000000E-02 0.  1.
          2    1    1    2    0  502  0.52103905043E+01 -0.20528882104E+02 -0.12961271256E+03  0.13133178760E+03  0.25500000000E-02 0.  1.
         -2    1    1    2  502    0 -0.52103905043E+01  0.20528882104E+02 -0.11915013467E+03  0.12101792333E+03  0.25500000000E-02 0.  1.
<mgrwt>
<rscale>  0 0.42396019E+02</rscale>
<asrwt>0</asrwt>
<pdfrwt beam="1">  1        2 0.27591279E-03 0.42396019E+02</pdfrwt>
<pdfrwt beam="2">  1       -2 0.38547092E-01 0.42396019E+02</pdfrwt>
<totfact> 0.38112949E+05</totfact>
</mgrwt>
</event>
<event>
 4    1  0.4837985E-002  0.5837363E+02  0.7818608E-02  0.1404786E+00
          2   -1    0    0    0  501  0.00000000000E+00  0.00000000000E+00  0.72015683181E+03  0.72015683182E+03  0.25500000000E-02 0.  1.
         -2   -1    0    0  501    0 -0.00000000000E+00 -0.00000000000E+00 -0.11828937904E+01  0.11828965389E+01  0.25500000000E-02 0.  1.
          2    1    1    2    0  502 -0.15629271158E+02 -0.19043555123E+02  0.16608892117E+03  0.16790610724E+03  0.25500000000E-02 0. -1.
         -2    1    1    2  502    0  0.15629271158E+02  0.19043555123E+02  0.55288501686E+03  0.55343362111E+03  0.25500000000E-02 0. -1.
<mgrwt>
<rscale>  0 0.58373625E+02</rscale>
<asrwt>0</asrwt>
<pdfrwt beam="1">  1        2 0.11079347E+00 0.58373625E+02</pdfrwt>
<pdfrwt beam="2">  1       -2 0.18198368E-03 0.58373625E+02</pdfrwt>
<totfact> 0.75288575E+05</totfact>
</mgrwt>
</event>
<event>
 4    1  0.4837985E-002  0.7069374E+02  0.7818608E-02  0.1357750E+00
          2   -1    0    0    0  501  0.00000000000E+00  0.00000000000E+00  0.34523968740E+03  0.34523968741E+03  0.25500000000E-02 0. -1.
         -2   -1    0    0  501    0 -0.00000000000E+00 -0.00000000000E+00 -0.36189377221E+01  0.36189386205E+01  0.25500000000E-02 0. -1.
          2    1    1    2    0  502  0.19097759333E+02  0.29596978881E+02  0.18536215224E+03  0.18867918025E+03  0.25500000000E-02 0.  1.
         -2    1    1    2  502    0 -0.19097759333E+02 -0.29596978881E+02  0.15625859744E+03  0.16017944578E+03  0.25500000000E-02 0.  1.
<mgrwt>
<rscale>  0 0.70693736E+02</rscale>
<asrwt>0</asrwt>
<pdfrwt beam="1">  1        2 0.53113805E-01 0.70693736E+02</pdfrwt>
<pdfrwt beam="2">  1       -2 0.55675965E-03 0.70693736E+02</pdfrwt>
<totfact> 0.36896018E+05</totfact>
</mgrwt>
</event>
<event>
 4    1  0.4837985E-002  0.5999091E+02  0.7818608E-02  0.1397870E+00
          2   -1    0    0    0  501  0.00000000000E+00  0.00000000000E+00  0.12723642580E+02  0.12723642835E+02  0.25500000000E-02 0. -1.
         -2   -1    0    0  501    0 -0.00000000000E+00 -0.00000000000E+00 -0.70713019582E+02  0.70713019628E+02  0.25500000000E-02 0. -1.
          2    1    1    2    0  502  0.18667051423E+02 -0.23368483550E+02 -0.25828510542E+02  0.39517803527E+02  0.25500000000E-02 0. -1.
         -2    1    1    2  502    0 -0.18667051423E+02  0.23368483550E+02 -0.32160866461E+02  0.43918858936E+02  0.25500000000E-02 0. -1.
<mgrwt>
<rscale>  0 0.59990906E+02</rscale>
<asrwt>0</asrwt>
<pdfrwt beam="1">  1        2 0.19574835E-02 0.59990906E+02</pdfrwt>
<pdfrwt beam="2">  1       -2 0.10878926E-01 0.59990906E+02</pdfrwt>
<totfact> 0.24509925E+05</totfact>
</mgrwt>
</event>
<event>
 4    1  0.4837985E-002  0.1489574E+03  0.7818608E-02  0.1201760E+00
          2   -1    0    0    0  501  0.00000000000E+00  0.00000000000E+00  0.57994489767E+03  0.57994489767E+03  0.25500000000E-02 0.  1.
         -2   -1    0    0  501    0 -0.00000000000E+00 -0.00000000000E+00 -0.95648390621E+01  0.95648394020E+01  0.25500000000E-02 0.  1.
          2    1    1    2    0  502  0.17187573970E+02 -0.23332578125E+02  0.13663182734E+02  0.32039108443E+02  0.25500000000E-02 0. -1.
         -2    1    1    2  502    0 -0.17187573970E+02  0.23332578125E+02  0.55671687587E+03  0.55747062863E+03  0.25500000000E-02 0. -1.
<mgrwt>
<rscale>  0 0.14895744E+03</rscale>
<asrwt>0</asrwt>
<pdfrwt beam="1">  1        2 0.89222279E-01 0.14895744E+03</pdfrwt>
<pdfrwt beam="2">  1       -2 0.14715139E-02 0.14895744E+03</pdfrwt>
<totfact> 0.59652277E+04</totfact>
</mgrwt>
</event>
<event>
 4    1  0.4837985E-002  0.6844596E+02  0.7818608E-02  0.1365459E+00
          2   -1    0    0    0  501  0.00000000000E+00  0.00000000000E+00  0.12700030331E+04  0.12700030331E+04  0.25500000000E-02 0.  1.
         -2   -1    0    0  501    0 -0.00000000000E+00 -0.00000000000E+00 -0.92221060165E+00  0.92221412713E+00  0.25500000000E-02 0.  1.
          2    1    1    2    0  502  0.95243437167E+00 -0.34208887129E+02  0.63898932539E+03  0.63990508129E+03  0.25500000000E-02 0. -1.
         -2    1    1    2  502    0 -0.95243437167E+00  0.34208887129E+02  0.63009149709E+03  0.63102016592E+03  0.25500000000E-02 0. -1.
<mgrwt>
<rscale>  0 0.68445964E+02</rscale>
<asrwt>0</asrwt>
<pdfrwt beam="1">  1        2 0.19538504E+00 0.68445964E+02</pdfrwt>
<pdfrwt beam="2">  1       -2 0.14187885E-03 0.68445964E+02</pdfrwt>
<totfact> 0.51933613E+05</totfact>
</mgrwt>
</event>
<event>
 4    1  0.4837985E-002  0.5913985E+02  0.7818608E-02  0.1401477E+00
         -2   -1    0    0  501    0 -0.00000000000E+00  0.00000000000E+00  0.14198898393E+02  0.14198898622E+02  0.25500000000E-02 0. -1.
          2   -1    0    0    0  501  0.00000000000E+00 -0.00000000000E+00 -0.61580857838E+02  0.61580857890E+02  0.25500000000E-02 0. -1.
          2    1    1    2    0  502 -0.22028025687E+02  0.13548633605E+02 -0.42063319068E+02  0.49377345066E+02  0.25500000000E-02 0.  1.
         -2    1    1    2  502    0  0.22028025687E+02 -0.13548633605E+02 -0.53186403759E+01  0.26402411447E+02  0.25500000000E-02 0.  1.
<mgrwt>
<rscale>  0 0.59139846E+02</rscale>
<asrwt>0</asrwt>
<pdfrwt beam="2">  1        2 0.94739780E-02 0.59139846E+02</pdfrwt>
<pdfrwt beam="1">  1       -2 0.21844460E-02 0.59139846E+02</pdfrwt>
<totfact> 0.34606437E+05</totfact>
</mgrwt>
</event>
<event>
 4    1  0.4837985E-002  0.4699116E+02  0.7818608E-02  0.1462281E+00
         -2   -1    0    0  501    0 -0.00000000000E+00  0.00000000000E+00  0.61305317889E+00  0.61305848224E+00  0.25500000000E-02 0.  1.
          2   -1    0    0    0  501  0.00000000000E+00 -0.00000000000E+00 -0.90047619129E+03  0.90047619129E+03  0.25500000000E-02 0.  1.
          2    1    1    2    0  502 -0.80700386722E+00  0.21832635086E+02 -0.61569562164E+03  0.61608312242E+03  0.25500000000E-02 0. -1.
         -2    1    1    2  502    0  0.80700386722E+00 -0.21832635086E+02 -0.28416751647E+03  0.28500612736E+03  0.25500000000E-02 0. -1.
<mgrwt>
<rscale>  0 0.46991156E+02</rscale>
<asrwt>0</asrwt>
<pdfrwt beam="2">  1        2 0.13853374E+00 0.46991156E+02</pdfrwt>
<pdfrwt beam="1">  1       -2 0.94317003E-04 0.46991156E+02</pdfrwt>
<totfact> 0.13378211E+06</totfact>
</mgrwt>
</event>
<event>
 4    1  0.4837985E-002  0.4266163E+02  0.7818608E-02  0.1489491E+00
         -2   -1    0    0  501    0 -0.00000000000E+00  0.00000000000E+00  0.20320463167E+02  0.20320463327E+02  0.25500000000E-02 0.  1.
          2   -1    0    0    0  501  0.00000000000E+00 -0.00000000000E+00 -0.22391400291E+02  0.22391400436E+02  0.25500000000E-02 0.  1.
          2    1    1    2    0  502  0.18501405984E+02 -0.10544933778E+02  0.19315745188E+00  0.21296360442E+02  0.25500000000E-02 0.  1.
         -2    1    1    2  502    0 -0.18501405984E+02  0.10544933778E+02 -0.22640945762E+01  0.21415503321E+02  0.25500000000E-02 0.  1.
<mgrwt>
<rscale>  0 0.42661628E+02</rscale>
<asrwt>0</asrwt>
<pdfrwt beam="2">  1        2 0.34448308E-02 0.42661628E+02</pdfrwt>
<pdfrwt beam="1">  1       -2 0.31262251E-02 0.42661628E+02</pdfrwt>
<totfact> 0.67856579E+05</totfact>
</mgrwt>
</event>
<event>
 4    1  0.4837985E-002  0.8007222E+02  0.7818608E-02  0.1328847E+00
         -2   -1    0    0  501    0 -0.00000000000E+00  0.00000000000E+00  0.13757555499E+04  0.13757555499E+04  0.25500000000E-02 0. -1.
          2   -1    0    0    0  501  0.00000000000E+00 -0.00000000000E+00 -0.11650967065E+01  0.11650994970E+01  0.25500000000E-02 0. -1.
          2    1    1    2    0  502 -0.24456507672E+02  0.97849771230E+01  0.16883598573E+03  0.17087848498E+03  0.25500000000E-02 0.  1.
         -2    1    1    2  502    0  0.24456507672E+02 -0.97849771230E+01  0.12057544674E+04  0.12060421644E+04  0.25500000000E-02 0.  1.
<mgrwt>
<rscale>  0 0.80072222E+02</rscale>
<asrwt>0</asrwt>
<pdfrwt beam="2">  1        2 0.17924428E-03 0.80072222E+02</pdfrwt>
<pdfrwt beam="1">  1       -2 0.21165656E+00 0.80072222E+02</pdfrwt>
<totfact> 0.17094021E+04</totfact>
</mgrwt>
</event>
<event>
 4    1  0.4837985E-002  0.6060524E+02  0.7818608E-02  0.1395309E+00
          2   -1    0    0    0  501  0.00000000000E+00  0.00000000000E+00  0.82226182818E+03  0.82226182819E+03  0.25500000000E-02 0. -1.
         -2   -1    0    0  501    0 -0.00000000000E+00 -0.00000000000E+00 -0.11167339455E+01  0.11167368569E+01  0.25500000000E-02 0. -1.
          2    1    1    2    0  502  0.58629379919E+01 -0.20715828165E+02  0.12086098476E+03  0.12276358264E+03  0.25500000000E-02 0. -1.
         -2    1    1    2  502    0 -0.58629379919E+01  0.20715828165E+02  0.70028410948E+03  0.70061498241E+03  0.25500000000E-02 0. -1.
<mgrwt>
<rscale>  0 0.60605244E+02</rscale>
<asrwt>0</asrwt>
<pdfrwt beam="1">  1        2 0.12650184E+00 0.60605244E+02</pdfrwt>
<pdfrwt beam="2">  1       -2 0.17180543E-03 0.60605244E+02</pdfrwt>
<totfact> 0.70222453E+05</totfact>
</mgrwt>
</event>
<event>
 4    1  0.4837985E-002  0.4846155E+02  0.7818608E-02  0.1453821E+00
          2   -1    0    0    0  501  0.00000000000E+00  0.00000000000E+00  0.18030411971E+04  0.18030411971E+04  0.25500000000E-02 0.  1.
         -2   -1    0    0  501    0 -0.00000000000E+00 -0.00000000000E+00 -0.32562837465E+00  0.32563835904E+00  0.25500000000E-02 0.  1.
          2    1    1    2    0  502 -0.21775516398E+02 -0.49033466146E+01  0.12522493910E+04  0.12524483036E+04  0.25500000000E-02 0. -1.
         -2    1    1    2  502    0  0.21775516398E+02  0.49033466146E+01  0.55046617774E+03  0.55091853188E+03  0.25500000000E-02 0. -1.
<mgrwt>
<rscale>  0 0.48461547E+02</rscale>
<asrwt>0</asrwt>
<pdfrwt beam="1">  1        2 0.27739219E+00 0.48461547E+02</pdfrwt>
<pdfrwt beam="2">  1       -2 0.50097219E-04 0.48461547E+02</pdfrwt>
<totfact> 0.10788431E+06</totfact>
</mgrwt>
</event>
<event>
 4    1  0.4837985E-002  0.5973045E+02  0.7818608E-02  0.1398966E+00
         -2   -1    0    0  501    0 -0.00000000000E+00  0.00000000000E+00  0.55191239808E+01  0.55191245699E+01  0.25500000000E-02 0.  1.
          2   -1    0    0    0  501  0.00000000000E+00 -0.00000000000E+00 -0.16160743522E+03  0.16160743524E+03  0.25500000000E-02 0.  1.
          2    1    1    2    0  502 -0.20579044629E+02 -0.12634406268E+02 -0.28875001337E+02  0.37641612722E+02  0.25500000000E-02 0.  1.
         -2    1    1    2  502    0  0.20579044629E+02  0.12634406268E+02 -0.12721330990E+03  0.12948494709E+03  0.25500000000E-02 0.  1.
<mgrwt>
<rscale>  0 0.59730445E+02</rscale>
<asrwt>0</asrwt>
<pdfrwt beam="2">  1        2 0.24862679E-01 0.59730445E+02</pdfrwt>
<pdfrwt beam="1">  1       -2 0.84909617E-03 0.59730445E+02</pdfrwt>
<totfact> 0.43746610E+05</totfact>
</mgrwt>
</event>
<event>
 4    1  0.4837985E-002  0.4199461E+02  0.7818608E-02  0.1494026E+00
         -2   -1    0    0  501    0 -0.00000000000E+00  0.00000000000E+00  0.48757056563E+02  0.48757056630E+02  0.25500000000E-02 0.  1.
          2   -1    0    0    0  501  0.00000000000E+00 -0.00000000000E+00 -0.90425233441E+01  0.90425237037E+01  0.25500000000E-02 0.  1.
          2    1    1    2    0  502  0.13983731960E+02  0.15563912945E+02  0.17431329451E+02  0.27232910212E+02  0.25500000000E-02 0. -1.
         -2    1    1    2  502    0 -0.13983731960E+02 -0.15563912945E+02  0.22283203769E+02  0.30566670122E+02  0.25500000000E-02 0. -1.
<mgrwt>
<rscale>  0 0.41994611E+02</rscale>
<asrwt>0</asrwt>
<pdfrwt beam="2">  1        2 0.13911575E-02 0.41994611E+02</pdfrwt>
<pdfrwt beam="1">  1       -2 0.75010857E-02 0.41994611E+02</pdfrwt>
<totfact> 0.62113099E+05</totfact>
</mgrwt>
</event>
<event>
 4    1  0.4837985E-002  0.6427255E+02  0.7818608E-02  0.1380729E+00
         -2   -1    0    0  501    0 -0.00000000000E+00  0.00000000000E+00  0.39565181693E+02  0.39565181775E+02  0.25500000000E-02 0. -1.
          2   -1    0    0    0  501  0.00000000000E+00 -0.00000000000E+00 -0.26102248339E+02  0.26102248463E+02  0.25500000000E-02 0. -1.
          2    1    1    2    0  502  0.18440731253E+02  0.23551590797E+02 -0.52709165313E+01  0.30373023653E+02  0.25500000000E-02 0.  1.
         -2    1    1    2  502    0 -0.18440731253E+02 -0.23551590797E+02  0.18733849885E+02  0.35294406586E+02  0.25500000000E-02 0.  1.
<mgrwt>
<rscale>  0 0.64272551E+02</rscale>
<asrwt>0</asrwt>
<pdfrwt beam="2">  1        2 0.40157306E-02 0.64272551E+02</pdfrwt>
<pdfrwt beam="1">  1       -2 0.60869510E-02 0.64272551E+02</pdfrwt>
<totfact> 0.23321169E+05</totfact>
</mgrwt>
</event>
<event>
 4    1  0.4837985E-002  0.9088314E+02  0.7818608E-02  0.1300727E+00
         -2   -1    0    0  501    0 -0.00000000000E+00  0.00000000000E+00  0.15165881656E+01  0.15165903093E+01  0.25500000000E-02 0.  1.
          2   -1    0    0    0  501  0.00000000000E+00 -0.00000000000E+00 -0.13615658503E+04  0.13615658503E+04  0.25500000000E-02 0.  1.
          2    1    1    2    0  502 -0.30814771395E+02  0.11103279591E+02 -0.20761664238E+03  0.21018445031E+03  0.25500000000E-02 0. -1.
         -2    1    1    2  502    0  0.30814771395E+02 -0.11103279591E+02 -0.11524326198E+04  0.11528979903E+04  0.25500000000E-02 0. -1.
<mgrwt>
<rscale>  0 0.90883136E+02</rscale>
<asrwt>0</asrwt>
<pdfrwt beam="2">  1        2 0.20947069E+00 0.90883136E+02</pdfrwt>
<pdfrwt beam="1">  1       -2 0.23332251E-03 0.90883136E+02</pdfrwt>
<totfact> 0.24526820E+05</totfact>
</mgrwt>
</event>
<event>
 4    1  0.4837985E-002  0.5869855E+02  0.7818608E-02  0.1403376E+00
          2   -1    0    0    0  501  0.00000000000E+00  0.00000000000E+00  0.91699402644E+03  0.91699402644E+03  0.25500000000E-02 0.  1.
         -2   -1    0    0  501    0 -0.00000000000E+00 -0.00000000000E+00 -0.93934986267E+00  0.93935332384E+00  0.25500000000E-02 0.  1.
          2    1    1    2    0  502  0.12685113917E+02  0.25981072972E+02  0.53692075423E+03  0.53769863734E+03  0.25500000000E-02 0.  1.
         -2    1    1    2  502    0 -0.12685113917E+02 -0.25981072972E+02  0.37913392234E+03  0.38023474242E+03  0.25500000000E-02 0.  1.
<mgrwt>
<rscale>  0 0.58698545E+02</rscale>
<asrwt>0</asrwt>
<pdfrwt beam="1">  1        2 0.14107642E+00 0.58698545E+02</pdfrwt>
<pdfrwt beam="2">  1       -2 0.14451520E-03 0.58698545E+02</pdfrwt>
<totfact> 0.77183447E+05</totfact>
</mgrwt>
</event>
<event>
 4    1  0.4837985E-002  0.5391343E+02  0.7818608E-02  0.1425308E+00
          2   -1    0    0    0  501  0.00000000000E+00  0.00000000000E+00  0.29700708995E+03  0.29700708997E+03  0.25500000000E-02 0.  1.
         -2   -1    0    0  501    0 -0.00000000000E+00 -0.00000000000E+00 -0.24466226502E+01  0.24466239790E+01  0.25500000000E-02 0.  1.
          2    1    1    2    0  502 -0.21717153581E+02  0.11922854552E+02  0.88269352278E+02  0.91680247482E+02  0.25500000000E-02 0.  1.
         -2    1    1    2  502    0  0.21717153581E+02 -0.11922854552E+02  0.20629111503E+03  0.20777346646E+03  0.25500000000E-02 0.  1.
<mgrwt>
<rscale>  0 0.53913430E+02</rscale>
<asrwt>0</asrwt>
<pdfrwt beam="1">  1        2 0.45693363E-01 0.53913430E+02</pdfrwt>
<pdfrwt beam="2">  1       -2 0.37640388E-03 0.53913430E+02</pdfrwt>
<totfact> 0.69816631E+05</totfact>
</mgrwt>
</event>
<event>
 4    1  0.4837985E-002  0.4605846E+02  0.7818608E-02  0.1467840E+00
         -2   -1    0    0  501    0 -0.00000000000E+00  0.00000000000E+00  0.46969310171E+02  0.46969310240E+02  0.25500000000E-02 0. -1.
          2   -1    0    0    0  501  0.00000000000E+00 -0.00000000000E+00 -0.11291317436E+02  0.11291317724E+02  0.25500000000E-02 0. -1.
          2    1    1    2    0  502  0.18790304859E+02 -0.90681830744E+01  0.30170446857E+02  0.36681921584E+02  0.25500000000E-02 0.  1.
         -2    1    1    2  502    0 -0.18790304859E+02  0.90681830744E+01  0.55075458773E+01  0.21578706381E+02  0.25500000000E-02 0.  1.
<mgrwt>
<rscale>  0 0.46058459E+02</rscale>
<asrwt>0</asrwt>
<pdfrwt beam="2">  1        2 0.17371258E-02 0.46058459E+02</pdfrwt>
<pdfrwt beam="1">  1       -2 0.72260478E-02 0.46058459E+02</pdfrwt>
<totfact> 0.50148494E+05</totfact>
</mgrwt>
</event>
<event>
 4    1  0.4837985E-002  0.6464510E+02  0.7818608E-02  0.1379311E+00
         -2   -1    0    0  501    0 -0.00000000000E+00  0.00000000000E+00  0.33929224896E+00  0.33930183127E+00  0.25500000000E-02 0. -1.
          2   -1    0    0    0  501  0.00000000000E+00 -0.00000000000E+00 -0.30791524903E+04  0.30791524903E+04  0.25500000000E-02 0. -1.
          2    1    1    2    0  502  0.31209131195E+02  0.58667818686E+01 -0.18264888323E+04  0.18267648682E+04  0.25500000000E-02 0. -1.
         -2    1    1    2  502    0 -0.31209131195E+02 -0.58667818686E+01 -0.12523243658E+04  0.12527269240E+04  0.25500000000E-02 0. -1.
<mgrwt>
<rscale>  0 0.64645103E+02</rscale>
<asrwt>0</asrwt>
<pdfrwt beam="2">  1        2 0.47369339E+00 0.64645103E+02</pdfrwt>
<pdfrwt beam="1">  1       -2 0.52202011E-04 0.64645103E+02</pdfrwt>
<totfact> 0.23535686E+05</totfact>
</mgrwt>
</event>
<event>
 4    1  0.4837985E-002  0.5830603E+02  0.7818608E-02  0.1405081E+00
         -2   -1    0    0  501    0 -0.00000000000E+00  0.00000000000E+00  0.78476999742E+02  0.78476999784E+02  0.25500000000E-02 0.  1.
          2   -1    0    0    0  501  0.00000000000E+00 -0.00000000000E+00 -0.10829901457E+02  0.10829901757E+02  0.25500000000E-02 0.  1.
          2    1    1    2    0  502  0.22583335889E+02 -0.13219429699E+02  0.14140389123E+02  0.29744091724E+02  0.25500000000E-02 0. -1.
         -2    1    1    2  502    0 -0.22583335889E+02  0.13219429699E+02  0.53506709162E+02  0.59562809817E+02  0.25500000000E-02 0. -1.
<mgrwt>
<rscale>  0 0.58306027E+02</rscale>
<asrwt>0</asrwt>
<pdfrwt beam="2">  1        2 0.16661388E-02 0.58306027E+02</pdfrwt>
<pdfrwt beam="1">  1       -2 0.12073384E-01 0.58306027E+02</pdfrwt>
<totfact> 0.25677870E+05</totfact>
</mgrwt>
</event>
<event>
 4    1  0.4837985E-002  0.4315211E+02  0.7818608E-02  0.1486219E+00
          2   -1    0    0    0  501  0.00000000000E+00  0.00000000000E+00  0.41083712843E+03  0.41083712844E+03  0.25500000000E-02 0.  1.
         -2   -1    0    0  501    0 -0.00000000000E+00 -0.00000000000E+00 -0.11331145467E+01  0.11331174160E+01  0.25500000000E-02 0.  1.
          2    1    1    2    0  502  0.20652422305E+01 -0.21030938313E+02  0.16328115152E+03  0.16464294714E+03  0.25500000000E-02 0.  1.
         -2    1    1    2  502    0 -0.20652422305E+01  0.21030938313E+02  0.24642286236E+03  0.24732729872E+03  0.25500000000E-02 0.  1.
<mgrwt>
<rscale>  0 0.43152109E+02</rscale>
<asrwt>0</asrwt>
<pdfrwt beam="1">  1        2 0.63205772E-01 0.43152109E+02</pdfrwt>
<pdfrwt beam="2">  1       -2 0.17432537E-03 0.43152109E+02</pdfrwt>
<totfact> 0.13536455E+06</totfact>
</mgrwt>
</event>
<event>
 4    1  0.4837985E-002  0.6476790E+02  0.7818608E-02  0.1378847E+00
          2   -1    0    0    0  501  0.00000000000E+00  0.00000000000E+00  0.35597057625E+03  0.35597057626E+03  0.25500000000E-02 0. -1.
         -2   -1    0    0  501    0 -0.00000000000E+00 -0.00000000000E+00 -0.29460859470E+01  0.29460870506E+01  0.25500000000E-02 0. -1.
          2    1    1    2    0  502  0.32027401393E+02  0.84443680202E+00  0.15037112885E+03  0.15374636227E+03  0.25500000000E-02 0.  1.
         -2    1    1    2  502    0 -0.32027401393E+02 -0.84443680202E+00  0.20265336145E+03  0.20517030104E+03  0.25500000000E-02 0.  1.
<mgrwt>
<rscale>  0 0.64767897E+02</rscale>
<asrwt>0</asrwt>
<pdfrwt beam="1">  1        2 0.54764681E-01 0.64767897E+02</pdfrwt>
<pdfrwt beam="2">  1       -2 0.45324427E-03 0.64767897E+02</pdfrwt>
<totfact> 0.46727370E+05</totfact>
</mgrwt>
</event>
<event>
 4    1  0.4837985E-002  0.5086203E+02  0.7818608E-02  0.1440747E+00
         -2   -1    0    0  501    0 -0.00000000000E+00  0.00000000000E+00  0.95755700459E+00  0.95756039995E+00  0.25500000000E-02 0.  1.
          2   -1    0    0    0  501  0.00000000000E+00 -0.00000000000E+00 -0.67540132585E+03  0.67540132585E+03  0.25500000000E-02 0.  1.
          2    1    1    2    0  502  0.23255090443E+02  0.86014696202E+01 -0.41238969626E+03  0.41313441650E+03  0.25500000000E-02 0. -1.
         -2    1    1    2  502    0 -0.23255090443E+02 -0.86014696202E+01 -0.26205407259E+03  0.26322446975E+03  0.25500000000E-02 0. -1.
<mgrwt>
<rscale>  0 0.50862026E+02</rscale>
<asrwt>0</asrwt>
<pdfrwt beam="2">  1        2 0.10390752E+00 0.50862026E+02</pdfrwt>
<pdfrwt beam="1">  1       -2 0.14731726E-03 0.50862026E+02</pdfrwt>
<totfact> 0.10462518E+06</totfact>
</mgrwt>
</event>
<event>
 4    1  0.4837985E-002  0.4100052E+02  0.7818608E-02  0.1500975E+00
          2   -1    0    0    0  501  0.00000000000E+00  0.00000000000E+00  0.87844528362E+02  0.87844528399E+02  0.25500000000E-02 0.  1.
         -2   -1    0    0  501    0 -0.00000000000E+00 -0.00000000000E+00 -0.47841415525E+01  0.47841422321E+01  0.25500000000E-02 0.  1.
          2    1    1    2    0  502  0.18562376231E+02 -0.82833633311E+01  0.35516811425E+02  0.40922118955E+02  0.25500000000E-02 0.  1.
         -2    1    1    2  502    0 -0.18562376231E+02  0.82833633311E+01  0.47543575385E+02  0.51706551677E+02  0.25500000000E-02 0.  1.
<mgrwt>
<rscale>  0 0.41000522E+02</rscale>
<asrwt>0</asrwt>
<pdfrwt beam="1">  1        2 0.13514541E-01 0.41000522E+02</pdfrwt>
<pdfrwt beam="2">  1       -2 0.73602193E-03 0.41000522E+02</pdfrwt>
<totfact> 0.95258489E+05</totfact>
</mgrwt>
</event>
<event>
 4    1  0.4837985E-002  0.7850029E+02  0.7818608E-02  0.1333362E+00
          2   -1    0    0    0  501  0.00000000000E+00  0.00000000000E+00  0.15527550396E+03  0.15527550399E+03  0.25500000000E-02 0. -1.
         -2   -1    0    0  501    0 -0.00000000000E+00 -0.00000000000E+00 -0.99215506425E+01  0.99215509702E+01  0.25500000000E-02 0. -1.
          2    1    1    2    0  502  0.33613385555E+02 -0.97272777542E+01  0.11009142090E+03  0.11551883216E+03  0.25500000000E-02 0. -1.
         -2    1    1    2  502    0 -0.33613385555E+02  0.97272777542E+01  0.35262532421E+02  0.49678222796E+02  0.25500000000E-02 0. -1.
<mgrwt>
<rscale>  0 0.78500288E+02</rscale>
<asrwt>0</asrwt>
<pdfrwt beam="1">  1        2 0.23888540E-01 0.78500288E+02</pdfrwt>
<pdfrwt beam="2">  1       -2 0.15263924E-02 0.78500288E+02</pdfrwt>
<totfact> 0.21144090E+05</totfact>
</mgrwt>
</event>
<event>
 4    1  0.4837985E-002  0.5169949E+02  0.7818608E-02  0.1436385E+00
         -2   -1    0    0  501    0 -0.00000000000E+00  0.00000000000E+00  0.69583722028E+00  0.69584189269E+00  0.25500000000E-02 0. -1.
          2   -1    0    0    0  501  0.00000000000E+00 -0.00000000000E+00 -0.96029232851E+03  0.96029232852E+03  0.25500000000E-02 0. -1.
          2    1    1    2    0  502  0.99277455178E+01  0.22480814430E+02 -0.33079021482E+03  0.33170184410E+03  0.25500000000E-02 0. -1.
         -2    1    1    2  502    0 -0.99277455178E+01 -0.22480814430E+02 -0.62880627647E+03  0.62928632631E+03  0.25500000000E-02 0. -1.
<mgrwt>
<rscale>  0 0.51699493E+02</rscale>
<asrwt>0</asrwt>
<pdfrwt beam="2">  1        2 0.14773622E+00 0.51699493E+02</pdfrwt>
<pdfrwt beam="1">  1       -2 0.10705301E-03 0.51699493E+02</pdfrwt>
<totfact> 0.10635003E+06</totfact>
</mgrwt>
</event>
<event>
 4    1  0.4837985E-002  0.4408465E+02  0.7818608E-02  0.1480138E+00
         -2   -1    0    0  501    0 -0.00000000000E+00  0.00000000000E+00  0.48673412766E+01  0.48673419445E+01  0.25500000000E-02 0. -1.
          2   -1    0    0    0  501  0.00000000000E+00 -0.00000000000E+00 -0.99821234804E+02  0.99821234836E+02  0.25500000000E-02 0. -1.
          2    1    1    2    0  502  0.13997895752E+02  0.15553542193E+02 -0.31022659923E+02  0.37420037352E+02  0.25500000000E-02 0. -1.
         -2    1    1    2  502    0 -0.13997895752E+02 -0.15553542193E+02 -0.63931233604E+02  0.67268539428E+02  0.25500000000E-02 0. -1.
<mgrwt>
<rscale>  0 0.44084648E+02</rscale>
<asrwt>0</asrwt>
<pdfrwt beam="2">  1        2 0.15357112E-01 0.44084648E+02</pdfrwt>
<pdfrwt beam="1">  1       -2 0.74882187E-03 0.44084648E+02</pdfrwt>
<totfact> 0.82108587E+05</totfact>
</mgrwt>
</event>
<event>
 4    1  0.4837985E-002  0.4320494E+02  0.7818608E-02  0.1485869E+00
          2   -1    0    0    0  501  0.00000000000E+00  0.00000000000E+00  0.74843120189E+03  0.74843120190E+03  0.25500000000E-02 0.  1.
         -2   -1    0    0  501    0 -0.00000000000E+00 -0.00000000000E+00 -0.62352392941E+00  0.62352914370E+00  0.25500000000E-02 0.  1.
          2    1    1    2    0  502 -0.18006749339E+02  0.10758711775E+02  0.46344499082E+03  0.46391944605E+03  0.25500000000E-02 0. -1.
         -2    1    1    2  502    0  0.18006749339E+02 -0.10758711775E+02  0.28436268714E+03  0.28513528499E+03  0.25500000000E-02 0. -1.
<mgrwt>
<rscale>  0 0.43204940E+02</rscale>
<asrwt>0</asrwt>
<pdfrwt beam="1">  1        2 0.11514266E+00 0.43204940E+02</pdfrwt>
<pdfrwt beam="2">  1       -2 0.95927659E-04 0.43204940E+02</pdfrwt>
<totfact> 0.15951759E+06</totfact>
</mgrwt>
</event>
<event>
 4    1  0.4837985E-002  0.4725195E+02  0.7818608E-02  0.1460754E+00
         -2   -1    0    0  501    0 -0.00000000000E+00  0.00000000000E+00  0.25048382335E+02  0.25048382465E+02  0.25500000000E-02 0.  1.
          2   -1    0    0    0  501  0.00000000000E+00 -0.00000000000E+00 -0.22284336312E+02  0.22284336458E+02  0.25500000000E-02 0.  1.
          2    1    1    2    0  502  0.18601946491E+02 -0.14037588515E+02 -0.25105264338E+01  0.23439049769E+02  0.25500000000E-02 0. -1.
         -2    1    1    2  502    0 -0.18601946491E+02  0.14037588515E+02  0.52745724568E+01  0.23893669155E+02  0.25500000000E-02 0. -1.
<mgrwt>
<rscale>  0 0.47251945E+02</rscale>
<asrwt>0</asrwt>
<pdfrwt beam="2">  1        2 0.34283595E-02 0.47251945E+02</pdfrwt>
<pdfrwt beam="1">  1       -2 0.38535973E-02 0.47251945E+02</pdfrwt>
<totfact> 0.51986708E+05</totfact>
</mgrwt>
</event>
<event>
 4    1  0.4837985E-002  0.7535883E+02  0.7818608E-02  0.1342763E+00
          2   -1    0    0    0  501  0.00000000000E+00  0.00000000000E+00  0.12297594324E+04  0.12297594324E+04  0.25500000000E-02 0.  1.
         -2   -1    0    0  501    0 -0.00000000000E+00 -0.00000000000E+00 -0.11544831404E+01  0.11544859566E+01  0.25500000000E-02 0.  1.
          2    1    1    2    0  502  0.32695630239E+02  0.16809621799E+02  0.74916529004E+03  0.75006679664E+03  0.25500000000E-02 0. -1.
         -2    1    1    2  502    0 -0.32695630239E+02 -0.16809621799E+02  0.47943965918E+03  0.48084712167E+03  0.25500000000E-02 0. -1.
<mgrwt>
<rscale>  0 0.75358829E+02</rscale>
<asrwt>0</asrwt>
<pdfrwt beam="1">  1        2 0.18919281E+00 0.75358829E+02</pdfrwt>
<pdfrwt beam="2">  1       -2 0.17761390E-03 0.75358829E+02</pdfrwt>
<totfact> 0.40751375E+05</totfact>
</mgrwt>
</event>
<event>
 4    1  0.4837985E-002  0.5147870E+02  0.7818608E-02  0.1437525E+00
         -2   -1    0    0  501    0 -0.00000000000E+00  0.00000000000E+00  0.55324093378E+00  0.55324681048E+00  0.25500000000E-02 0.  1.
          2   -1    0    0    0  501  0.00000000000E+00 -0.00000000000E+00 -0.11975084457E+04  0.11975084457E+04  0.25500000000E-02 0.  1.
          2    1    1    2    0  502 -0.13978661531E+02 -0.20804204470E+02 -0.73477113507E+03  0.73519850302E+03  0.25500000000E-02 0. -1.
         -2    1    1    2  502    0  0.13978661531E+02  0.20804204470E+02 -0.46218406967E+03  0.46286318947E+03  0.25500000000E-02 0. -1.
<mgrwt>
<rscale>  0 0.51478703E+02</rscale>
<asrwt>0</asrwt>
<pdfrwt beam="2">  1        2 0.18422999E+00 0.51478703E+02</pdfrwt>
<pdfrwt beam="1">  1       -2 0.85115401E-04 0.51478703E+02</pdfrwt>
<totfact> 0.10722266E+06</totfact>
</mgrwt>
</event>
<event>
 4    1  0.4837985E-002  0.7655618E+02  0.7818608E-02  0.1339119E+00
          2   -1    0    0    0  501  0.00000000000E+00  0.00000000000E+00  0.22559393318E+03  0.22559393320E+03  0.25500000000E-02 0.  1.
         -2   -1    0    0  501    0 -0.00000000000E+00 -0.00000000000E+00 -0.64949090451E+01  0.64949095457E+01  0.25500000000E-02 0.  1.
          2    1    1    2    0  502 -0.31227621594E+02 -0.16343994255E+02  0.15481321922E+03  0.15877475666E+03  0.25500000000E-02 0.  1.
         -2    1    1    2  502    0  0.31227621594E+02  0.16343994255E+02  0.64285804916E+02  0.73314086087E+02  0.25500000000E-02 0.  1.
<mgrwt>
<rscale>  0 0.76556179E+02</rscale>
<asrwt>0</asrwt>
<pdfrwt beam="1">  1        2 0.34706760E-01 0.76556179E+02</pdfrwt>
<pdfrwt beam="2">  1       -2 0.99921678E-03 0.76556179E+02</pdfrwt>
<totfact> 0.25712233E+05</totfact>
</mgrwt>
</event>
<event>
 4    1  0.4837985E-002  0.4810162E+02  0.7818608E-02  0.1455858E+00
          2   -1    0    0    0  501  0.00000000000E+00  0.00000000000E+00  0.90364568531E+02  0.90364568567E+02  0.25500000000E-02 0. -1.
         -2   -1    0    0  501    0 -0.00000000000E+00 -0.00000000000E+00 -0.64011966676E+01  0.64011971755E+01  0.25500000000E-02 0. -1.
          2    1    1    2    0  502 -0.21751417673E+02  0.96966827489E+01  0.35221802955E+02  0.42517352187E+02  0.25500000000E-02 0.  1.
         -2    1    1    2  502    0  0.21751417673E+02 -0.96966827489E+01  0.48741568909E+02  0.54248413556E+02  0.25500000000E-02 0.  1.
<mgrwt>
<rscale>  0 0.48101617E+02</rscale>
<asrwt>0</asrwt>
<pdfrwt beam="1">  1        2 0.13902240E-01 0.48101617E+02</pdfrwt>
<pdfrwt beam="2">  1       -2 0.98479960E-03 0.48101617E+02</pdfrwt>
<totfact> 0.64353941E+05</totfact>
</mgrwt>
</event>
<event>
 4    1  0.4837985E-002  0.6048382E+02  0.7818608E-02  0.1395813E+00
         -2   -1    0    0  501    0 -0.00000000000E+00  0.00000000000E+00  0.39950934257E+02  0.39950934338E+02  0.25500000000E-02 0.  1.
          2   -1    0    0    0  501  0.00000000000E+00 -0.00000000000E+00 -0.22892410076E+02  0.22892410218E+02  0.25500000000E-02 0.  1.
          2    1    1    2    0  502  0.10911391328E+02 -0.27095302001E+02  0.16668061236E+02  0.33630910233E+02  0.25500000000E-02 0. -1.
         -2    1    1    2  502    0 -0.10911391328E+02  0.27095302001E+02  0.39046294519E+00  0.29212434323E+02  0.25500000000E-02 0. -1.
<mgrwt>
<rscale>  0 0.60483822E+02</rscale>
<asrwt>0</asrwt>
<pdfrwt beam="2">  1        2 0.35219093E-02 0.60483822E+02</pdfrwt>
<pdfrwt beam="1">  1       -2 0.61462975E-02 0.60483822E+02</pdfrwt>
<totfact> 0.26901062E+05</totfact>
</mgrwt>
</event>
<event>
 4    1  0.4837985E-002  0.4563135E+02  0.7818608E-02  0.1470438E+00
         -2   -1    0    0  501    0 -0.00000000000E+00  0.00000000000E+00  0.44995492252E+01  0.44995499478E+01  0.25500000000E-02 0.  1.
          2   -1    0    0    0  501  0.00000000000E+00 -0.00000000000E+00 -0.11569045284E+03  0.11569045287E+03  0.25500000000E-02 0.  1.
          2    1    1    2    0  502 -0.21157543594E+02  0.34163056842E+01 -0.34982973467E+02  0.41025860558E+02  0.25500000000E-02 0.  1.
         -2    1    1    2  502    0  0.21157543594E+02 -0.34163056842E+01 -0.76207930146E+02  0.79164142256E+02  0.25500000000E-02 0.  1.
<mgrwt>
<rscale>  0 0.45631346E+02</rscale>
<asrwt>0</asrwt>
<pdfrwt beam="2">  1        2 0.17798529E-01 0.45631346E+02</pdfrwt>
<pdfrwt beam="1">  1       -2 0.69223849E-03 0.45631346E+02</pdfrwt>
<totfact> 0.78326706E+05</totfact>
</mgrwt>
</event>
<event>
 4    1  0.4837985E-002  0.4275488E+02  0.7818608E-02  0.1488865E+00
          2   -1    0    0    0  501  0.00000000000E+00  0.00000000000E+00  0.22257684734E+03  0.22257684736E+03  0.25500000000E-02 0.  1.
         -2   -1    0    0  501    0 -0.00000000000E+00 -0.00000000000E+00 -0.20531995496E+01  0.20532011331E+01  0.25500000000E-02 0.  1.
          2    1    1    2    0  502  0.99997068931E+01  0.18028389496E+02  0.13997212806E+03  0.14148220244E+03  0.25500000000E-02 0.  1.
         -2    1    1    2  502    0 -0.99997068931E+01 -0.18028389496E+02  0.80551519727E+02  0.83147846049E+02  0.25500000000E-02 0.  1.
<mgrwt>
<rscale>  0 0.42754876E+02</rscale>
<asrwt>0</asrwt>
<pdfrwt beam="1">  1        2 0.34242587E-01 0.42754876E+02</pdfrwt>
<pdfrwt beam="2">  1       -2 0.31587702E-03 0.42754876E+02</pdfrwt>
<totfact> 0.11242617E+06</totfact>
</mgrwt>
</event>
<event>
 4    1  0.4837985E-002  0.7657210E+02  0.7818608E-02  0.1339071E+00
          2   -1    0    0    0  501  0.00000000000E+00  0.00000000000E+00  0.57456591624E+02  0.57456591680E+02  0.25500000000E-02 0. -1.
         -2   -1    0    0  501    0 -0.00000000000E+00 -0.00000000000E+00 -0.25511806120E+02  0.25511806247E+02  0.25500000000E-02 0. -1.
          2    1    1    2    0  502 -0.96500111671E+01  0.29578983420E+02 -0.82023558051E+01  0.32176351921E+02  0.25500000000E-02 0. -1.
         -2    1    1    2  502    0  0.96500111671E+01 -0.29578983420E+02  0.40147141309E+02  0.50792046006E+02  0.25500000000E-02 0. -1.
<mgrwt>
<rscale>  0 0.76572095E+02</rscale>
<asrwt>0</asrwt>
<pdfrwt beam="1">  1        2 0.88394755E-02 0.76572095E+02</pdfrwt>
<pdfrwt beam="2">  1       -2 0.39248933E-02 0.76572095E+02</pdfrwt>
<totfact> 0.17043592E+05</totfact>
</mgrwt>
</event>
<event>
 4    1  0.4837985E-002  0.7787034E+02  0.7818608E-02  0.1335206E+00
         -2   -1    0    0  501    0 -0.00000000000E+00  0.00000000000E+00  0.11014128130E+03  0.11014128133E+03  0.25500000000E-02 0. -1.
          2   -1    0    0    0  501  0.00000000000E+00 -0.00000000000E+00 -0.13763661375E+02  0.13763661611E+02  0.25500000000E-02 0. -1.
          2    1    1    2    0  502 -0.22974697552E+02  0.23675681706E+02  0.81090753654E+02  0.87544759790E+02  0.25500000000E-02 0.  1.
         -2    1    1    2  502    0  0.22974697552E+02 -0.23675681706E+02  0.15286866269E+02  0.36360183150E+02  0.25500000000E-02 0.  1.
<mgrwt>
<rscale>  0 0.77870336E+02</rscale>
<asrwt>0</asrwt>
<pdfrwt beam="2">  1        2 0.21174863E-02 0.77870336E+02</pdfrwt>
<pdfrwt beam="1">  1       -2 0.16944813E-01 0.77870336E+02</pdfrwt>
<totfact> 0.11494908E+05</totfact>
</mgrwt>
</event>
<event>
 4    1  0.4837985E-002  0.2248857E+03  0.7818608E-02  0.1130292E+00
         -2   -1    0    0  501    0 -0.00000000000E+00  0.00000000000E+00  0.63250702737E+01  0.63250707877E+01  0.25500000000E-02 0.  1.
          2   -1    0    0    0  501  0.00000000000E+00 -0.00000000000E+00 -0.19989340657E+04  0.19989340657E+04  0.25500000000E-02 0.  1.
          2    1    1    2    0  502  0.35491301093E+02  0.55238764874E+02 -0.18102490562E+04  0.18114393721E+04  0.25500000000E-02 0.  1.
         -2    1    1    2  502    0 -0.35491301093E+02 -0.55238764874E+02 -0.18235993930E+03  0.19381976438E+03  0.25500000000E-02 0.  1.
<mgrwt>
<rscale>  0 0.22488574E+03</rscale>
<asrwt>0</asrwt>
<pdfrwt beam="2">  1        2 0.30752781E+00 0.22488574E+03</pdfrwt>
<pdfrwt beam="1">  1       -2 0.97308937E-03 0.22488574E+03</pdfrwt>
<totfact> 0.16403847E+04</totfact>
</mgrwt>
</event>
<event>
 4    1  0.4837985E-002  0.4567929E+02  0.7818608E-02  0.1470145E+00
         -2   -1    0    0  501    0 -0.00000000000E+00  0.00000000000E+00  0.31062516990E+00  0.31063563652E+00  0.25500000000E-02 0. -1.
          2   -1    0    0    0  501  0.00000000000E+00 -0.00000000000E+00 -0.16793248318E+04  0.16793248318E+04  0.25500000000E-02 0. -1.
          2    1    1    2    0  502 -0.58175030740E+01  0.21997834111E+02 -0.76687973440E+03  0.76721722809E+03  0.25500000000E-02 0.  1.
         -2    1    1    2  502    0  0.58175030740E+01 -0.21997834111E+02 -0.91213447222E+03  0.91241823933E+03  0.25500000000E-02 0.  1.
<mgrwt>
<rscale>  0 0.45679289E+02</rscale>
<asrwt>0</asrwt>
<pdfrwt beam="2">  1        2 0.25835040E+00 0.45679289E+02</pdfrwt>
<pdfrwt beam="1">  1       -2 0.47790638E-04 0.45679289E+02</pdfrwt>
<totfact> 0.13028642E+06</totfact>
</mgrwt>
</event>
<event>
 4    1  0.4837985E-002  0.6276296E+02  0.7818608E-02  0.1386589E+00
         -2   -1    0    0  501    0 -0.00000000000E+00  0.00000000000E+00  0.44817032638E+02  0.44817032710E+02  0.25500000000E-02 0.  1.
          2   -1    0    0    0  501  0.00000000000E+00 -0.00000000000E+00 -0.21973730391E+02  0.21973730539E+02  0.25500000000E-02 0.  1.
          2    1    1    2    0  502  0.15554170582E+02 -0.26945588170E+02  0.70597742354E+01  0.31903563486E+02  0.25500000000E-02 0. -1.
         -2    1    1    2  502    0 -0.15554170582E+02  0.26945588170E+02  0.15783528011E+02  0.34887199763E+02  0.25500000000E-02 0. -1.
<mgrwt>
<rscale>  0 0.62762964E+02</rscale>
<asrwt>0</asrwt>
<pdfrwt beam="2">  1        2 0.33805739E-02 0.62762964E+02</pdfrwt>
<pdfrwt beam="1">  1       -2 0.68949281E-02 0.62762964E+02</pdfrwt>
<totfact> 0.24096943E+05</totfact>
</mgrwt>
</event>
<event>
 4    1  0.4837985E-002  0.2395346E+03  0.7818608E-02  0.1120103E+00
          2   -1    0    0    0  501  0.00000000000E+00  0.00000000000E+00  0.49852194685E+03  0.49852194686E+03  0.25500000000E-02 0. -1.
         -2   -1    0    0  501    0 -0.00000000000E+00 -0.00000000000E+00 -0.28773468546E+02  0.28773468659E+02  0.25500000000E-02 0. -1.
          2    1    1    2    0  502  0.71077523062E+02  0.76198089576E+02  0.10490155607E+03  0.14785972951E+03  0.25500000000E-02 0.  1.
         -2    1    1    2  502    0 -0.71077523062E+02 -0.76198089576E+02  0.36484692224E+03  0.37943568601E+03  0.25500000000E-02 0.  1.
<mgrwt>
<rscale>  0 0.23953460E+03</rscale>
<asrwt>0</asrwt>
<pdfrwt beam="1">  1        2 0.76695689E-01 0.23953460E+03</pdfrwt>
<pdfrwt beam="2">  1       -2 0.44266872E-02 0.23953460E+03</pdfrwt>
<totfact> 0.14507591E+04</totfact>
</mgrwt>
</event>
<event>
 4    1  0.4837985E-002  0.5109670E+02  0.7818608E-02  0.1439514E+00
          2   -1    0    0    0  501  0.00000000000E+00  0.00000000000E+00  0.31011396560E+02  0.31011396665E+02  0.25500000000E-02 0.  1.
         -2   -1    0    0  501    0 -0.00000000000E+00 -0.00000000000E+00 -0.21047685896E+02  0.21047686051E+02  0.25500000000E-02 0.  1.
          2    1    1    2    0  502  0.13552709304E+02 -0.16955704856E+02 -0.87458310446E+01  0.23402167075E+02  0.25500000000E-02 0.  1.
         -2    1    1    2  502    0 -0.13552709304E+02  0.16955704856E+02  0.18709541708E+02  0.28656915641E+02  0.25500000000E-02 0.  1.
<mgrwt>
<rscale>  0 0.51096698E+02</rscale>
<asrwt>0</asrwt>
<pdfrwt beam="1">  1        2 0.47709841E-02 0.51096698E+02</pdfrwt>
<pdfrwt beam="2">  1       -2 0.32381056E-02 0.51096698E+02</pdfrwt>
<totfact> 0.44591641E+05</totfact>
</mgrwt>
</event>
<event>
 4    1  0.4837985E-002  0.4341715E+02  0.7818608E-02  0.1484472E+00
         -2   -1    0    0  501    0 -0.00000000000E+00  0.00000000000E+00  0.10015528532E+02  0.10015528857E+02  0.25500000000E-02 0. -1.
          2   -1    0    0    0  501  0.00000000000E+00 -0.00000000000E+00 -0.47053165674E+02  0.47053165744E+02  0.25500000000E-02 0. -1.
          2    1    1    2    0  502  0.18373755169E+02  0.93563604719E+01 -0.27445896444E+02  0.34328029341E+02  0.25500000000E-02 0.  1.
         -2    1    1    2  502    0 -0.18373755169E+02 -0.93563604719E+01 -0.95917406981E+01  0.22740665259E+02  0.25500000000E-02 0.  1.
<mgrwt>
<rscale>  0 0.43417155E+02</rscale>
<asrwt>0</asrwt>
<pdfrwt beam="2">  1        2 0.72389485E-02 0.43417155E+02</pdfrwt>
<pdfrwt beam="1">  1       -2 0.15408506E-02 0.43417155E+02</pdfrwt>
<totfact> 0.72699970E+05</totfact>
</mgrwt>
</event>
<event>
 4    1  0.4837985E-002  0.4794713E+02  0.7818608E-02  0.1456739E+00
         -2   -1    0    0  501    0 -0.00000000000E+00  0.00000000000E+00  0.43257638784E+02  0.43257638859E+02  0.25500000000E-02 0. -1.
          2   -1    0    0    0  501  0.00000000000E+00 -0.00000000000E+00 -0.13286248905E+02  0.13286249150E+02  0.25500000000E-02 0. -1.
          2    1    1    2    0  502 -0.18917662928E+02 -0.99161295199E+01  0.21468332486E+01  0.21466636784E+02  0.25500000000E-02 0.  1.
         -2    1    1    2  502    0  0.18917662928E+02  0.99161295199E+01  0.27824556630E+02  0.35077251224E+02  0.25500000000E-02 0.  1.
<mgrwt>
<rscale>  0 0.47947128E+02</rscale>
<asrwt>0</asrwt>
<pdfrwt beam="2">  1        2 0.20440383E-02 0.47947128E+02</pdfrwt>
<pdfrwt beam="1">  1       -2 0.66550215E-02 0.47947128E+02</pdfrwt>
<totfact> 0.46182850E+05</totfact>
</mgrwt>
</event>
<event>
 4    1  0.4837985E-002  0.1079752E+03  0.7818608E-02  0.1264366E+00
          2   -1    0    0    0  501  0.00000000000E+00  0.00000000000E+00  0.12208784393E+03  0.12208784396E+03  0.25500000000E-02 0.  1.
         -2   -1    0    0  501    0 -0.00000000000E+00 -0.00000000000E+00 -0.23873490672E+02  0.23873490808E+02  0.25500000000E-02 0.  1.
          2    1    1    2    0  502  0.18084907381E+02 -0.42966799092E+02  0.12298046068E+02  0.48212567271E+02  0.25500000000E-02 0. -1.
         -2    1    1    2  502    0 -0.18084907381E+02  0.42966799092E+02  0.85916307194E+02  0.97748767499E+02  0.25500000000E-02 0. -1.
<mgrwt>
<rscale>  0 0.10797524E+03</rscale>
<asrwt>0</asrwt>
<pdfrwt beam="1">  1        2 0.18782745E-01 0.10797524E+03</pdfrwt>
<pdfrwt beam="2">  1       -2 0.36728449E-02 0.10797524E+03</pdfrwt>
<totfact> 0.81792596E+04</totfact>
</mgrwt>
</event>
<event>
 4    1  0.4837985E-002  0.4195011E+02  0.7818608E-02  0.1494332E+00
         -2   -1    0    0  501    0 -0.00000000000E+00  0.00000000000E+00  0.26173051354E+02  0.26173051478E+02  0.25500000000E-02 0.  1.
          2   -1    0    0    0  501  0.00000000000E+00 -0.00000000000E+00 -0.16809385518E+02  0.16809385711E+02  0.25500000000E-02 0.  1.
          2    1    1    2    0  502 -0.14658128216E+02 -0.14884229486E+02  0.66128598800E+01  0.21911890208E+02  0.25500000000E-02 0.  1.
         -2    1    1    2  502    0  0.14658128216E+02  0.14884229486E+02  0.27508059556E+01  0.21070546981E+02  0.25500000000E-02 0.  1.
<mgrwt>
<rscale>  0 0.41950109E+02</rscale>
<asrwt>0</asrwt>
<pdfrwt beam="2">  1        2 0.25860593E-02 0.41950109E+02</pdfrwt>
<pdfrwt beam="1">  1       -2 0.40266233E-02 0.41950109E+02</pdfrwt>
<totfact> 0.68150215E+05</totfact>
</mgrwt>
</event>
<event>
 4    1  0.4837985E-002  0.4046970E+02  0.7818608E-02  0.1504783E+00
          2   -1    0    0    0  501  0.00000000000E+00  0.00000000000E+00  0.11155307947E+02  0.11155308238E+02  0.25500000000E-02 0. -1.
         -2   -1    0    0  501    0 -0.00000000000E+00 -0.00000000000E+00 -0.36704427753E+02  0.36704427842E+02  0.25500000000E-02 0. -1.
          2    1    1    2    0  502 -0.42632076680E+01  0.19700118527E+02 -0.14883312765E+02  0.25055590493E+02  0.25500000000E-02 0.  1.
         -2    1    1    2  502    0  0.42632076680E+01 -0.19700118527E+02 -0.10665807042E+02  0.22804145587E+02  0.25500000000E-02 0.  1.
<mgrwt>
<rscale>  0 0.40469702E+02</rscale>
<asrwt>0</asrwt>
<pdfrwt beam="1">  1        2 0.17162013E-02 0.40469702E+02</pdfrwt>
<pdfrwt beam="2">  1       -2 0.56468350E-02 0.40469702E+02</pdfrwt>
<totfact> 0.70750778E+05</totfact>
</mgrwt>
</event>
<event>
 4    1  0.4837985E-002  0.4428325E+02  0.7818608E-02  0.1478866E+00
          2   -1    0    0    0  501  0.00000000000E+00  0.00000000000E+00  0.13457628636E+03  0.13457628638E+03  0.25500000000E-02 0. -1.
         -2   -1    0    0  501    0 -0.00000000000E+00 -0.00000000000E+00 -0.36429263857E+01  0.36429272782E+01  0.25500000000E-02 0. -1.
          2    1    1    2    0  502  0.26701620486E+01 -0.19854758713E+02  0.94897684984E+02  0.96989235643E+02  0.25500000000E-02 0.  1.
         -2    1    1    2  502    0 -0.26701620486E+01  0.19854758713E+02  0.36035674991E+02  0.41229978019E+02  0.25500000000E-02 0.  1.
<mgrwt>
<rscale>  0 0.44283250E+02</rscale>
<asrwt>0</asrwt>
<pdfrwt beam="1">  1        2 0.20704045E-01 0.44283250E+02</pdfrwt>
<pdfrwt beam="2">  1       -2 0.56045027E-03 0.44283250E+02</pdfrwt>
<totfact> 0.88061428E+05</totfact>
</mgrwt>
</event>
<event>
 4    1  0.4837985E-002  0.4741181E+02  0.7818608E-02  0.1459823E+00
          2   -1    0    0    0  501  0.00000000000E+00  0.00000000000E+00  0.96440610333E+01  0.96440613704E+01  0.25500000000E-02 0. -1.
         -2   -1    0    0  501    0 -0.00000000000E+00 -0.00000000000E+00 -0.58271097259E+02  0.58271097314E+02  0.25500000000E-02 0. -1.
          2    1    1    2    0  502 -0.19448297906E+02 -0.78437454760E+01 -0.84779942385E+01  0.22619394937E+02  0.25500000000E-02 0. -1.
         -2    1    1    2  502    0  0.19448297906E+02  0.78437454760E+01 -0.40149041987E+02  0.45295763748E+02  0.25500000000E-02 0. -1.
<mgrwt>
<rscale>  0 0.47411814E+02</rscale>
<asrwt>0</asrwt>
<pdfrwt beam="1">  1        2 0.14837018E-02 0.47411814E+02</pdfrwt>
<pdfrwt beam="2">  1       -2 0.89647840E-02 0.47411814E+02</pdfrwt>
<totfact> 0.45073185E+05</totfact>
</mgrwt>
</event>
<event>
 4    1  0.4837985E-002  0.6286802E+02  0.7818608E-02  0.1386175E+00
          2   -1    0    0    0  501  0.00000000000E+00  0.00000000000E+00  0.33523641162E+02  0.33523641259E+02  0.25500000000E-02 0.  1.
         -2   -1    0    0  501    0 -0.00000000000E+00 -0.00000000000E+00 -0.29474634734E+02  0.29474634845E+02  0.25500000000E-02 0.  1.
          2    1    1    2    0  502  0.24183167003E+02 -0.14331732304E+01  0.22096418201E+02  0.32789194190E+02  0.25500000000E-02 0. -1.
         -2    1    1    2  502    0 -0.24183167003E+02  0.14331732304E+01 -0.18047411774E+02  0.30209081913E+02  0.25500000000E-02 0. -1.
<mgrwt>
<rscale>  0 0.62868023E+02</rscale>
<asrwt>0</asrwt>
<pdfrwt beam="1">  1        2 0.51574833E-02 0.62868023E+02</pdfrwt>
<pdfrwt beam="2">  1       -2 0.45345592E-02 0.62868023E+02</pdfrwt>
<totfact> 0.25998201E+05</totfact>
</mgrwt>
</event>
<event>
 4    1  0.4837985E-002  0.5294952E+02  0.7818608E-02  0.1430052E+00
          2   -1    0    0    0  501  0.00000000000E+00  0.00000000000E+00  0.31682945744E+02  0.31682945847E+02  0.25500000000E-02 0. -1.
         -2   -1    0    0  501    0 -0.00000000000E+00 -0.00000000000E+00 -0.22122717135E+02  0.22122717282E+02  0.25500000000E-02 0. -1.
          2    1    1    2    0  502  0.14456879088E+02 -0.17936651064E+02 -0.84764353249E+01  0.24547398369E+02  0.25500000000E-02 0.  1.
         -2    1    1    2  502    0 -0.14456879088E+02  0.17936651064E+02  0.18036663934E+02  0.29258264759E+02  0.25500000000E-02 0.  1.
<mgrwt>
<rscale>  0 0.52949518E+02</rscale>
<asrwt>0</asrwt>
<pdfrwt beam="1">  1        2 0.48742993E-02 0.52949518E+02</pdfrwt>
<pdfrwt beam="2">  1       -2 0.34034950E-02 0.52949518E+02</pdfrwt>
<totfact> 0.40746277E+05</totfact>
</mgrwt>
</event>
<event>
 4    1  0.4837985E-002  0.7492297E+02  0.7818608E-02  0.1344110E+00
          2   -1    0    0    0  501  0.00000000000E+00  0.00000000000E+00  0.29348813463E+03  0.29348813464E+03  0.25500000000E-02 0.  1.
         -2   -1    0    0  501    0 -0.00000000000E+00 -0.00000000000E+00 -0.47816675432E+01  0.47816682231E+01  0.25500000000E-02 0.  1.
          2    1    1    2    0  502  0.31079569919E+02 -0.11923445123E+02  0.75947480180E+02  0.82922421347E+02  0.25500000000E-02 0.  1.
         -2    1    1    2  502    0 -0.31079569919E+02  0.11923445123E+02  0.21275898691E+03  0.21534738152E+03  0.25500000000E-02 0.  1.
<mgrwt>
<rscale>  0 0.74922968E+02</rscale>
<asrwt>0</asrwt>
<pdfrwt beam="1">  1        2 0.45152029E-01 0.74922968E+02</pdfrwt>
<pdfrwt beam="2">  1       -2 0.73564108E-03 0.74922968E+02</pdfrwt>
<totfact> 0.29922060E+05</totfact>
</mgrwt>
</event>
<event>
 4    1  0.4837985E-002  0.5181517E+02  0.7818608E-02  0.1435790E+00
         -2   -1    0    0  501    0 -0.00000000000E+00  0.00000000000E+00  0.37505880669E+00  0.37506747523E+00  0.25500000000E-02 0. -1.
          2   -1    0    0    0  501  0.00000000000E+00 -0.00000000000E+00 -0.17895733342E+04  0.17895733342E+04  0.25500000000E-02 0. -1.
          2    1    1    2    0  502  0.25050319261E+02 -0.50786354438E+01 -0.74847817531E+03  0.74891447439E+03  0.25500000000E-02 0.  1.
         -2    1    1    2  502    0 -0.25050319261E+02  0.50786354438E+01 -0.10407201001E+04  0.10410339273E+04  0.25500000000E-02 0.  1.
<mgrwt>
<rscale>  0 0.51815171E+02</rscale>
<asrwt>0</asrwt>
<pdfrwt beam="2">  1        2 0.27531214E+00 0.51815171E+02</pdfrwt>
<pdfrwt beam="1">  1       -2 0.57703455E-04 0.51815171E+02</pdfrwt>
<totfact> 0.91785367E+05</totfact>
</mgrwt>
</event>
<event>
 4    1  0.4837985E-002  0.5865574E+02  0.7818608E-02  0.1403561E+00
         -2   -1    0    0  501    0 -0.00000000000E+00  0.00000000000E+00  0.12483432459E+01  0.12483458504E+01  0.25500000000E-02 0. -1.
          2   -1    0    0    0  501  0.00000000000E+00 -0.00000000000E+00 -0.68901168221E+03  0.68901168222E+03  0.25500000000E-02 0. -1.
          2    1    1    2    0  502 -0.41410137937E+01  0.25516937399E+02 -0.18087831052E+03  0.18271624260E+03  0.25500000000E-02 0.  1.
         -2    1    1    2  502    0  0.41410137937E+01 -0.25516937399E+02 -0.50688502845E+03  0.50754378546E+03  0.25500000000E-02 0.  1.
<mgrwt>
<rscale>  0 0.58655741E+02</rscale>
<asrwt>0</asrwt>
<pdfrwt beam="2">  1        2 0.10600149E+00 0.58655741E+02</pdfrwt>
<pdfrwt beam="1">  1       -2 0.19205356E-03 0.58655741E+02</pdfrwt>
<totfact> 0.73652251E+05</totfact>
</mgrwt>
</event>
<event>
 4    1  0.4837985E-002  0.4947821E+02  0.7818608E-02  0.1448176E+00
          2   -1    0    0    0  501  0.00000000000E+00  0.00000000000E+00  0.21048495270E+02  0.21048495424E+02  0.25500000000E-02 0.  1.
         -2   -1    0    0  501    0 -0.00000000000E+00 -0.00000000000E+00 -0.29076815176E+02  0.29076815288E+02  0.25500000000E-02 0.  1.
          2    1    1    2    0  502  0.14726152695E+02  0.19526922527E+02 -0.24216889745E+00  0.24458514445E+02  0.25500000000E-02 0.  1.
         -2    1    1    2  502    0 -0.14726152695E+02 -0.19526922527E+02 -0.77861510088E+01  0.25666796267E+02  0.25500000000E-02 0.  1.
<mgrwt>
<rscale>  0 0.49478206E+02</rscale>
<asrwt>0</asrwt>
<pdfrwt beam="1">  1        2 0.32382301E-02 0.49478206E+02</pdfrwt>
<pdfrwt beam="2">  1       -2 0.44733562E-02 0.49478206E+02</pdfrwt>
<totfact> 0.45642534E+05</totfact>
</mgrwt>
</event>
<event>
 4    1  0.4837985E-002  0.1091093E+03  0.7818608E-02  0.1262228E+00
         -2   -1    0    0  501    0 -0.00000000000E+00  0.00000000000E+00  0.25943666405E+01  0.25943678937E+01  0.25500000000E-02 0. -1.
          2   -1    0    0    0  501  0.00000000000E+00 -0.00000000000E+00 -0.11471808104E+04  0.11471808104E+04  0.25500000000E-02 0. -1.
          2    1    1    2    0  502 -0.20089946775E+02  0.39090373722E+02 -0.23171658082E+03  0.23584791098E+03  0.25500000000E-02 0.  1.
         -2    1    1    2  502    0  0.20089946775E+02 -0.39090373722E+02 -0.91286986289E+03  0.91392726727E+03  0.25500000000E-02 0.  1.
<mgrwt>
<rscale>  0 0.10910927E+03</rscale>
<asrwt>0</asrwt>
<pdfrwt beam="2">  1        2 0.17648895E+00 0.10910927E+03</pdfrwt>
<pdfrwt beam="1">  1       -2 0.39913434E-03 0.10910927E+03</pdfrwt>
<totfact> 0.15498281E+05</totfact>
</mgrwt>
</event>
<event>
 4    1  0.4837985E-002  0.6757040E+02  0.7818608E-02  0.1368555E+00
         -2   -1    0    0  501    0 -0.00000000000E+00  0.00000000000E+00  0.17285057827E+03  0.17285057829E+03  0.25500000000E-02 0.  1.
          2   -1    0    0    0  501  0.00000000000E+00 -0.00000000000E+00 -0.66036209330E+01  0.66036214253E+01  0.25500000000E-02 0.  1.
          2    1    1    2    0  502 -0.97120881446E+00 -0.24889512731E+02  0.22502966546E+02  0.33568059229E+02  0.25500000000E-02 0. -1.
         -2    1    1    2  502    0  0.97120881446E+00  0.24889512731E+02  0.14374399079E+03  0.14588614048E+03  0.25500000000E-02 0. -1.
<mgrwt>
<rscale>  0 0.67570400E+02</rscale>
<asrwt>0</asrwt>
<pdfrwt beam="2">  1        2 0.10159418E-02 0.67570400E+02</pdfrwt>
<pdfrwt beam="1">  1       -2 0.26592394E-01 0.67570400E+02</pdfrwt>
<totfact> 0.14123675E+05</totfact>
</mgrwt>
</event>
<event>
 4    1  0.4837985E-002  0.2152699E+03  0.7818608E-02  0.1137459E+00
         -2   -1    0    0  501    0 -0.00000000000E+00  0.00000000000E+00  0.15981807756E+03  0.15981807758E+03  0.25500000000E-02 0.  1.
          2   -1    0    0    0  501  0.00000000000E+00 -0.00000000000E+00 -0.72490407050E+02  0.72490407095E+02  0.25500000000E-02 0.  1.
          2    1    1    2    0  502  0.44349875754E+02 -0.10653616043E+02  0.14887331333E+03  0.15570380355E+03  0.25500000000E-02 0. -1.
         -2    1    1    2  502    0 -0.44349875754E+02  0.10653616043E+02 -0.61545642814E+02  0.76604681124E+02  0.25500000000E-02 0. -1.
<mgrwt>
<rscale>  0 0.21526985E+03</rscale>
<asrwt>0</asrwt>
<pdfrwt beam="2">  1        2 0.11152370E-01 0.21526985E+03</pdfrwt>
<pdfrwt beam="1">  1       -2 0.24587396E-01 0.21526985E+03</pdfrwt>
<totfact> 0.79902557E+03</totfact>
</mgrwt>
</event>
<event>
 4    1  0.4837985E-002  0.5829374E+02  0.7818608E-02  0.1405135E+00
         -2   -1    0    0  501    0 -0.00000000000E+00  0.00000000000E+00  0.43055399884E+03  0.43055399885E+03  0.25500000000E-02 0. -1.
          2   -1    0    0    0  501  0.00000000000E+00 -0.00000000000E+00 -0.19731313465E+01  0.19731329943E+01  0.25500000000E-02 0. -1.
          2    1    1    2    0  502  0.23837866598E+02  0.12090505129E+02  0.30053752084E+03  0.30172375717E+03  0.25500000000E-02 0. -1.
         -2    1    1    2  502    0 -0.23837866598E+02 -0.12090505129E+02  0.12804334665E+03  0.13080337467E+03  0.25500000000E-02 0. -1.
<mgrwt>
<rscale>  0 0.58293737E+02</rscale>
<asrwt>0</asrwt>
<pdfrwt beam="2">  1        2 0.30355822E-03 0.58293737E+02</pdfrwt>
<pdfrwt beam="1">  1       -2 0.66239202E-01 0.58293737E+02</pdfrwt>
<totfact> 0.12662962E+05</totfact>
</mgrwt>
</event>
<event>
 4    1  0.4837985E-002  0.6618012E+02  0.7818608E-02  0.1373587E+00
         -2   -1    0    0  501    0 -0.00000000000E+00  0.00000000000E+00  0.16147536250E+02  0.16147536451E+02  0.25500000000E-02 0.  1.
          2   -1    0    0    0  501  0.00000000000E+00 -0.00000000000E+00 -0.67809238514E+02  0.67809238562E+02  0.25500000000E-02 0.  1.
          2    1    1    2    0  502  0.28715213283E+02 -0.48513036480E+01 -0.58989903732E+01  0.29713577955E+02  0.25500000000E-02 0. -1.
         -2    1    1    2  502    0 -0.28715213283E+02  0.48513036480E+01 -0.45762711891E+02  0.54243197058E+02  0.25500000000E-02 0. -1.
<mgrwt>
<rscale>  0 0.66180122E+02</rscale>
<asrwt>0</asrwt>
<pdfrwt beam="2">  1        2 0.10432190E-01 0.66180122E+02</pdfrwt>
<pdfrwt beam="1">  1       -2 0.24842364E-02 0.66180122E+02</pdfrwt>
<totfact> 0.26284106E+05</totfact>
</mgrwt>
</event>
<event>
 4    1  0.4837985E-002  0.4116285E+02  0.7818608E-02  0.1499824E+00
          2   -1    0    0    0  501  0.00000000000E+00  0.00000000000E+00  0.63721504476E+03  0.63721504476E+03  0.25500000000E-02 0. -1.
         -2   -1    0    0  501    0 -0.00000000000E+00 -0.00000000000E+00 -0.66475736030E+00  0.66476225116E+00  0.25500000000E-02 0. -1.
          2    1    1    2    0  502  0.17962612045E+02 -0.98234944920E+01  0.28562762768E+03  0.28636043402E+03  0.25500000000E-02 0.  1.
         -2    1    1    2  502    0 -0.17962612045E+02  0.98234944920E+01  0.35092265972E+03  0.35151937299E+03  0.25500000000E-02 0.  1.
<mgrwt>
<rscale>  0 0.41162845E+02</rscale>
<asrwt>0</asrwt>
<pdfrwt beam="1">  1        2 0.98032959E-01 0.41162845E+02</pdfrwt>
<pdfrwt beam="2">  1       -2 0.10227087E-03 0.41162845E+02</pdfrwt>
<totfact> 0.17295374E+06</totfact>
</mgrwt>
</event>
<event>
 4    1  0.4837985E-002  0.4177184E+02  0.7818608E-02  0.1495563E+00
         -2   -1    0    0  501    0 -0.00000000000E+00  0.00000000000E+00  0.31596007645E+00  0.31597036635E+00  0.25500000000E-02 0. -1.
          2   -1    0    0    0  501  0.00000000000E+00 -0.00000000000E+00 -0.13806000632E+04  0.13806000632E+04  0.25500000000E-02 0. -1.
          2    1    1    2    0  502 -0.14567212846E+02 -0.14327939406E+02 -0.83320597401E+03  0.83345647077E+03  0.25500000000E-02 0.  1.
         -2    1    1    2  502    0  0.14567212846E+02  0.14327939406E+02 -0.54707812912E+03  0.54745956280E+03  0.25500000000E-02 0.  1.
<mgrwt>
<rscale>  0 0.41771838E+02</rscale>
<asrwt>0</asrwt>
<pdfrwt beam="2">  1        2 0.21239518E+00 0.41771838E+02</pdfrwt>
<pdfrwt beam="1">  1       -2 0.48611140E-04 0.41771838E+02</pdfrwt>
<totfact> 0.17466219E+06</totfact>
</mgrwt>
</event>
<event>
 4    1  0.4837985E-002  0.7591463E+02  0.7818608E-02  0.1341062E+00
         -2   -1    0    0  501    0 -0.00000000000E+00  0.00000000000E+00  0.75428627393E+02  0.75428627436E+02  0.25500000000E-02 0.  1.
          2   -1    0    0    0  501  0.00000000000E+00 -0.00000000000E+00 -0.19100943166E+02  0.19100943337E+02  0.25500000000E-02 0.  1.
          2    1    1    2    0  502 -0.26255327153E+02  0.14274615306E+02  0.57304151297E+02  0.64628728970E+02  0.25500000000E-02 0.  1.
         -2    1    1    2  502    0  0.26255327153E+02 -0.14274615306E+02 -0.97646707025E+00  0.29900841802E+02  0.25500000000E-02 0.  1.
<mgrwt>
<rscale>  0 0.75914635E+02</rscale>
<asrwt>0</asrwt>
<pdfrwt beam="2">  1        2 0.29386066E-02 0.75914635E+02</pdfrwt>
<pdfrwt beam="1">  1       -2 0.11604404E-01 0.75914635E+02</pdfrwt>
<totfact> 0.13555486E+05</totfact>
</mgrwt>
</event>
<event>
 4    1  0.4837985E-002  0.4898256E+02  0.7818608E-02  0.1450908E+00
          2   -1    0    0    0  501  0.00000000000E+00  0.00000000000E+00  0.17003375667E+01  0.17003394788E+01  0.25500000000E-02 0. -1.
         -2   -1    0    0  501    0 -0.00000000000E+00 -0.00000000000E+00 -0.35276663302E+03  0.35276663303E+03  0.25500000000E-02 0. -1.
          2    1    1    2    0  502 -0.21407888531E+02  0.43231385036E+01 -0.95329109372E+02  0.97798907551E+02  0.25500000000E-02 0. -1.
         -2    1    1    2  502    0  0.21407888531E+02 -0.43231385036E+01 -0.25573718608E+03  0.25666806496E+03  0.25500000000E-02 0. -1.
<mgrwt>
<rscale>  0 0.48982556E+02</rscale>
<asrwt>0</asrwt>
<pdfrwt beam="1">  1        2 0.26159082E-03 0.48982556E+02</pdfrwt>
<pdfrwt beam="2">  1       -2 0.54271731E-01 0.48982556E+02</pdfrwt>
<totfact> 0.22219596E+05</totfact>
</mgrwt>
</event>
<event>
 4    1  0.4837985E-002  0.6003787E+02  0.7818608E-02  0.1397673E+00
          2   -1    0    0    0  501  0.00000000000E+00  0.00000000000E+00  0.13061552374E+04  0.13061552374E+04  0.25500000000E-02 0. -1.
         -2   -1    0    0  501    0 -0.00000000000E+00 -0.00000000000E+00 -0.68991296970E+00  0.68991768224E+00  0.25500000000E-02 0. -1.
          2    1    1    2    0  502  0.83823411126E+01 -0.25646851968E+02  0.93912556147E+03  0.93951308925E+03  0.25500000000E-02 0.  1.
         -2    1    1    2  502    0 -0.83823411126E+01  0.25646851968E+02  0.36633976295E+03  0.36733206583E+03  0.25500000000E-02 0.  1.
<mgrwt>
<rscale>  0 0.60037872E+02</rscale>
<asrwt>0</asrwt>
<pdfrwt beam="1">  1        2 0.20094764E+00 0.60037872E+02</pdfrwt>
<pdfrwt beam="2">  1       -2 0.10614046E-03 0.60037872E+02</pdfrwt>
<totfact> 0.72073897E+05</totfact>
</mgrwt>
</event>
<event>
 4    1  0.4837985E-002  0.8679501E+02  0.7818608E-02  0.1310804E+00
         -2   -1    0    0  501    0 -0.00000000000E+00  0.00000000000E+00  0.37987946494E+02  0.37987946580E+02  0.25500000000E-02 0.  1.
          2   -1    0    0    0  501  0.00000000000E+00 -0.00000000000E+00 -0.49577399411E+02  0.49577399477E+02  0.25500000000E-02 0.  1.
          2    1    1    2    0  502 -0.39688393035E+02 -0.12529893588E+02  0.66097973429E+01  0.42140908894E+02  0.25500000000E-02 0.  1.
         -2    1    1    2  502    0  0.39688393035E+02  0.12529893588E+02 -0.18199250260E+02  0.45424437163E+02  0.25500000000E-02 0.  1.
<mgrwt>
<rscale>  0 0.86795014E+02</rscale>
<asrwt>0</asrwt>
<pdfrwt beam="2">  1        2 0.76272923E-02 0.86795014E+02</pdfrwt>
<pdfrwt beam="1">  1       -2 0.58442994E-02 0.86795014E+02</pdfrwt>
<totfact> 0.11598049E+05</totfact>
</mgrwt>
</event>
<event>
 4    1  0.4837985E-002  0.6078830E+02  0.7818608E-02  0.1394553E+00
         -2   -1    0    0  501    0 -0.00000000000E+00  0.00000000000E+00  0.10380542133E+01  0.10380573453E+01  0.25500000000E-02 0. -1.
          2   -1    0    0    0  501  0.00000000000E+00 -0.00000000000E+00 -0.88993701980E+03  0.88993701980E+03  0.25500000000E-02 0. -1.
          2    1    1    2    0  502  0.20514200797E+02 -0.20209786736E+02 -0.30193959742E+03  0.30330972357E+03  0.25500000000E-02 0.  1.
         -2    1    1    2  502    0 -0.20514200797E+02  0.20209786736E+02 -0.58695936816E+03  0.58766535357E+03  0.25500000000E-02 0.  1.
<mgrwt>
<rscale>  0 0.60788297E+02</rscale>
<asrwt>0</asrwt>
<pdfrwt beam="2">  1        2 0.13691278E+00 0.60788297E+02</pdfrwt>
<pdfrwt beam="1">  1       -2 0.15970160E-03 0.60788297E+02</pdfrwt>
<totfact> 0.70449083E+05</totfact>
</mgrwt>
</event>
<event>
 4    1  0.4837985E-002  0.4253867E+02  0.7818608E-02  0.1490319E+00
          2   -1    0    0    0  501  0.00000000000E+00  0.00000000000E+00  0.10983562774E+01  0.10983592375E+01  0.25500000000E-02 0.  1.
         -2   -1    0    0  501    0 -0.00000000000E+00 -0.00000000000E+00 -0.41187360490E+03  0.41187360491E+03  0.25500000000E-02 0.  1.
          2    1    1    2    0  502  0.20450790530E+02  0.57608461306E+01 -0.19586380938E+03  0.19701282703E+03  0.25500000000E-02 0.  1.
         -2    1    1    2  502    0 -0.20450790530E+02 -0.57608461306E+01 -0.21491143924E+03  0.21595913712E+03  0.25500000000E-02 0.  1.
<mgrwt>
<rscale>  0 0.42538668E+02</rscale>
<asrwt>0</asrwt>
<pdfrwt beam="1">  1        2 0.16897845E-03 0.42538668E+02</pdfrwt>
<pdfrwt beam="2">  1       -2 0.63365047E-01 0.42538668E+02</pdfrwt>
<totfact> 0.28311662E+05</totfact>
</mgrwt>
</event>
<event>
 4    1  0.4837985E-002  0.4581172E+02  0.7818608E-02  0.1469337E+00
          2   -1    0    0    0  501  0.00000000000E+00  0.00000000000E+00  0.60573664719E+01  0.60573670087E+01  0.25500000000E-02 0.  1.
         -2   -1    0    0  501    0 -0.00000000000E+00 -0.00000000000E+00 -0.86618230781E+02  0.86618230819E+02  0.25500000000E-02 0.  1.
          2    1    1    2    0  502  0.13300680073E+02  0.17171764626E+02 -0.54994065018E+02  0.59128037212E+02  0.25500000000E-02 0.  1.
         -2    1    1    2  502    0 -0.13300680073E+02 -0.17171764626E+02 -0.25566799291E+02  0.33547560616E+02  0.25500000000E-02 0.  1.
<mgrwt>
<rscale>  0 0.45811719E+02</rscale>
<asrwt>0</asrwt>
<pdfrwt beam="1">  1        2 0.93190264E-03 0.45811719E+02</pdfrwt>
<pdfrwt beam="2">  1       -2 0.13325881E-01 0.45811719E+02</pdfrwt>
<totfact> 0.45182275E+05</totfact>
</mgrwt>
</event>
<event>
 4    1  0.4837985E-002  0.4680937E+02  0.7818608E-02  0.1463352E+00
          2   -1    0    0    0  501  0.00000000000E+00  0.00000000000E+00  0.13556692468E+04  0.13556692468E+04  0.25500000000E-02 0.  1.
         -2   -1    0    0  501    0 -0.00000000000E+00 -0.00000000000E+00 -0.40406161783E+00  0.40406966417E+00  0.25500000000E-02 0.  1.
          2    1    1    2    0  502 -0.93856955790E+01  0.21101786940E+02  0.78757665777E+03  0.78791520392E+03  0.25500000000E-02 0. -1.
         -2    1    1    2  502    0  0.93856955790E+01 -0.21101786940E+02  0.56768852745E+03  0.56815811258E+03  0.25500000000E-02 0. -1.
<mgrwt>
<rscale>  0 0.46809374E+02</rscale>
<asrwt>0</asrwt>
<pdfrwt beam="1">  1        2 0.20856765E+00 0.46809374E+02</pdfrwt>
<pdfrwt beam="2">  1       -2 0.62163005E-04 0.46809374E+02</pdfrwt>
<totfact> 0.13285031E+06</totfact>
</mgrwt>
</event>
<event>
 4    1  0.4837985E-002  0.6190303E+02  0.7818608E-02  0.1390015E+00
         -2   -1    0    0  501    0 -0.00000000000E+00  0.00000000000E+00  0.64173532483E+00  0.64174039116E+00  0.25500000000E-02 0.  1.
          2   -1    0    0    0  501  0.00000000000E+00 -0.00000000000E+00 -0.14928156221E+04  0.14928156221E+04  0.25500000000E-02 0.  1.
          2    1    1    2    0  502 -0.26810774090E+02 -0.28117640282E+00 -0.37303408915E+03  0.37399642825E+03  0.25500000000E-02 0.  1.
         -2    1    1    2  502    0  0.26810774090E+02  0.28117640282E+00 -0.11191397976E+04  0.11194609343E+04  0.25500000000E-02 0.  1.
<mgrwt>
<rscale>  0 0.61903031E+02</rscale>
<asrwt>0</asrwt>
<pdfrwt beam="2">  1        2 0.22966116E+00 0.61903031E+02</pdfrwt>
<pdfrwt beam="1">  1       -2 0.98730096E-04 0.61903031E+02</pdfrwt>
<totfact> 0.64301161E+05</totfact>
</mgrwt>
</event>
<event>
 4    1  0.4837985E-002  0.4518094E+02  0.7818608E-02  0.1473215E+00
         -2   -1    0    0  501    0 -0.00000000000E+00  0.00000000000E+00  0.53760047262E+02  0.53760047323E+02  0.25500000000E-02 0.  1.
          2   -1    0    0    0  501  0.00000000000E+00 -0.00000000000E+00 -0.94927262590E+01  0.94927266015E+01  0.25500000000E-02 0.  1.
          2    1    1    2    0  502  0.89934766161E+01  0.19870704335E+02  0.30368863091E+02  0.37389776201E+02  0.25500000000E-02 0. -1.
         -2    1    1    2  502    0 -0.89934766161E+01 -0.19870704335E+02  0.13898457912E+02  0.25862997724E+02  0.25500000000E-02 0. -1.
<mgrwt>
<rscale>  0 0.45180944E+02</rscale>
<asrwt>0</asrwt>
<pdfrwt beam="2">  1        2 0.14604194E-02 0.45180944E+02</pdfrwt>
<pdfrwt beam="1">  1       -2 0.82707766E-02 0.45180944E+02</pdfrwt>
<totfact> 0.51327605E+05</totfact>
</mgrwt>
</event>
<event>
 4    1  0.4837985E-002  0.2156331E+03  0.7818608E-02  0.1137181E+00
         -2   -1    0    0  501    0 -0.00000000000E+00  0.00000000000E+00  0.16539898845E+03  0.16539898847E+03  0.25500000000E-02 0.  1.
          2   -1    0    0    0  501  0.00000000000E+00 -0.00000000000E+00 -0.70281012690E+02  0.70281012736E+02  0.25500000000E-02 0.  1.
          2    1    1    2    0  502 -0.45453410133E+02 -0.53516214715E+02 -0.41866945461E+02  0.81748632153E+02  0.25500000000E-02 0. -1.
         -2    1    1    2  502    0  0.45453410133E+02  0.53516214715E+02  0.13698492122E+03  0.15393136905E+03  0.25500000000E-02 0. -1.
<mgrwt>
<rscale>  0 0.21563310E+03</rscale>
<asrwt>0</asrwt>
<pdfrwt beam="2">  1        2 0.10812464E-01 0.21563310E+03</pdfrwt>
<pdfrwt beam="1">  1       -2 0.25445998E-01 0.21563310E+03</pdfrwt>
<totfact> 0.78136482E+03</totfact>
</mgrwt>
</event>
<event>
 4    1  0.4837985E-002  0.5089118E+02  0.7818608E-02  0.1440593E+00
          2   -1    0    0    0  501  0.00000000000E+00  0.00000000000E+00  0.57665571119E+02  0.57665571175E+02  0.25500000000E-02 0.  1.
         -2   -1    0    0  501    0 -0.00000000000E+00 -0.00000000000E+00 -0.11228157584E+02  0.11228157873E+02  0.25500000000E-02 0.  1.
          2    1    1    2    0  502  0.24680139167E+02 -0.14231313638E+01  0.31379846902E+02  0.39947833111E+02  0.25500000000E-02 0. -1.
         -2    1    1    2  502    0 -0.24680139167E+02  0.14231313638E+01  0.15057566633E+02  0.28945895937E+02  0.25500000000E-02 0. -1.
<mgrwt>
<rscale>  0 0.50891183E+02</rscale>
<asrwt>0</asrwt>
<pdfrwt beam="1">  1        2 0.88716261E-02 0.50891183E+02</pdfrwt>
<pdfrwt beam="2">  1       -2 0.17274089E-02 0.50891183E+02</pdfrwt>
<totfact> 0.50415540E+05</totfact>
</mgrwt>
</event>
<event>
 4    1  0.4837985E-002  0.5393886E+02  0.7818608E-02  0.1425185E+00
         -2   -1    0    0  501    0 -0.00000000000E+00  0.00000000000E+00  0.11361171283E+02  0.11361171570E+02  0.25500000000E-02 0. -1.
          2   -1    0    0    0  501  0.00000000000E+00 -0.00000000000E+00 -0.64020707268E+02  0.64020707319E+02  0.25500000000E-02 0. -1.
          2    1    1    2    0  502  0.83325970807E+01  0.18327478741E+02 -0.51408620230E+02  0.55210278857E+02  0.25500000000E-02 0. -1.
         -2    1    1    2  502    0 -0.83325970807E+01 -0.18327478741E+02 -0.12509157553E+01  0.20171600031E+02  0.25500000000E-02 0. -1.
<mgrwt>
<rscale>  0 0.53938863E+02</rscale>
<asrwt>0</asrwt>
<pdfrwt beam="2">  1        2 0.98493394E-02 0.53938863E+02</pdfrwt>
<pdfrwt beam="1">  1       -2 0.17478726E-02 0.53938863E+02</pdfrwt>
<totfact> 0.44357755E+05</totfact>
</mgrwt>
</event>
<event>
 4    1  0.4837985E-002  0.5353176E+02  0.7818608E-02  0.1427173E+00
         -2   -1    0    0  501    0 -0.00000000000E+00  0.00000000000E+00  0.81328126805E+00  0.81328526574E+00  0.25500000000E-02 0.  1.
          2   -1    0    0    0  501  0.00000000000E+00 -0.00000000000E+00 -0.88088913939E+03  0.88088913940E+03  0.25500000000E-02 0.  1.
          2    1    1    2    0  502  0.10869246002E+02 -0.18402889527E+02 -0.70541749055E+03  0.70574120103E+03  0.25500000000E-02 0. -1.
         -2    1    1    2  502    0 -0.10869246002E+02  0.18402889527E+02 -0.17465836758E+03  0.17596122363E+03  0.25500000000E-02 0. -1.
<mgrwt>
<rscale>  0 0.53531763E+02</rscale>
<asrwt>0</asrwt>
<pdfrwt beam="2">  1        2 0.13552064E+00 0.53531763E+02</pdfrwt>
<pdfrwt beam="1">  1       -2 0.12512121E-03 0.53531763E+02</pdfrwt>
<totfact> 0.96744795E+05</totfact>
</mgrwt>
</event>
<event>
 4    1  0.4837985E-002  0.4750151E+02  0.7818608E-02  0.1459303E+00
          2   -1    0    0    0  501  0.00000000000E+00  0.00000000000E+00  0.10607576298E+04  0.10607576298E+04  0.25500000000E-02 0.  1.
         -2   -1    0    0  501    0 -0.00000000000E+00 -0.00000000000E+00 -0.53178516381E+00  0.53179127762E+00  0.25500000000E-02 0.  1.
          2    1    1    2    0  502  0.13825924663E+02  0.19269182063E+02  0.50149359602E+03  0.50205406524E+03  0.25500000000E-02 0. -1.
         -2    1    1    2  502    0 -0.13825924663E+02 -0.19269182063E+02  0.55873224864E+03  0.55923535587E+03  0.25500000000E-02 0. -1.
<mgrwt>
<rscale>  0 0.47501512E+02</rscale>
<asrwt>0</asrwt>
<pdfrwt beam="1">  1        2 0.16319165E+00 0.47501512E+02</pdfrwt>
<pdfrwt beam="2">  1       -2 0.81814491E-04 0.47501512E+02</pdfrwt>
<totfact> 0.13152102E+06</totfact>
</mgrwt>
</event>
<event>
 4    1  0.4837985E-002  0.5498351E+02  0.7818608E-02  0.1420177E+00
         -2   -1    0    0  501    0 -0.00000000000E+00  0.00000000000E+00  0.76086303942E+01  0.76086308215E+01  0.25500000000E-02 0.  1.
          2   -1    0    0    0  501  0.00000000000E+00 -0.00000000000E+00 -0.99334120750E+02  0.99334120782E+02  0.25500000000E-02 0.  1.
          2    1    1    2    0  502 -0.17895581828E+02 -0.20840313290E+02 -0.48016447244E+02  0.55318620006E+02  0.25500000000E-02 0. -1.
         -2    1    1    2  502    0  0.17895581828E+02  0.20840313290E+02 -0.43709043112E+02  0.51624131598E+02  0.25500000000E-02 0. -1.
<mgrwt>
<rscale>  0 0.54983512E+02</rscale>
<asrwt>0</asrwt>
<pdfrwt beam="2">  1        2 0.15282172E-01 0.54983512E+02</pdfrwt>
<pdfrwt beam="1">  1       -2 0.11705586E-02 0.54983512E+02</pdfrwt>
<totfact> 0.46912160E+05</totfact>
</mgrwt>
</event>
<event>
 4    1  0.4837985E-002  0.6625626E+02  0.7818608E-02  0.1373307E+00
         -2   -1    0    0  501    0 -0.00000000000E+00  0.00000000000E+00  0.50308623641E+00  0.50309269898E+00  0.25500000000E-02 0.  1.
          2   -1    0    0    0  501  0.00000000000E+00 -0.00000000000E+00 -0.21814668537E+04  0.21814668537E+04  0.25500000000E-02 0.  1.
          2    1    1    2    0  502  0.29469555507E+02 -0.16295265995E+01 -0.15859600318E+04  0.15862346398E+04  0.25500000000E-02 0. -1.
         -2    1    1    2  502    0 -0.29469555507E+02  0.16295265995E+01 -0.59500373572E+03  0.59573530665E+03  0.25500000000E-02 0. -1.
<mgrwt>
<rscale>  0 0.66256260E+02</rscale>
<asrwt>0</asrwt>
<pdfrwt beam="2">  1        2 0.33560271E+00 0.66256260E+02</pdfrwt>
<pdfrwt beam="1">  1       -2 0.77400126E-04 0.66256260E+02</pdfrwt>
<totfact> 0.41313376E+05</totfact>
</mgrwt>
</event>
<event>
 4    1  0.4837985E-002  0.4876161E+02  0.7818608E-02  0.1452138E+00
          2   -1    0    0    0  501  0.00000000000E+00  0.00000000000E+00  0.35606879662E+03  0.35606879663E+03  0.25500000000E-02 0.  1.
         -2   -1    0    0  501    0 -0.00000000000E+00 -0.00000000000E+00 -0.16694060454E+01  0.16694079930E+01  0.25500000000E-02 0.  1.
          2    1    1    2    0  502  0.24070115145E+02 -0.38743274883E+01  0.17568034455E+03  0.17736393186E+03  0.25500000000E-02 0.  1.
         -2    1    1    2  502    0 -0.24070115145E+02  0.38743274883E+01  0.17871904602E+03  0.18037427276E+03  0.25500000000E-02 0.  1.
<mgrwt>
<rscale>  0 0.48761614E+02</rscale>
<asrwt>0</asrwt>
<pdfrwt beam="1">  1        2 0.54779779E-01 0.48761614E+02</pdfrwt>
<pdfrwt beam="2">  1       -2 0.25683202E-03 0.48761614E+02</pdfrwt>
<totfact> 0.95536370E+05</totfact>
</mgrwt>
</event>
<event>
 4    1  0.4837985E-002  0.5359084E+02  0.7818608E-02  0.1426883E+00
         -2   -1    0    0  501    0 -0.00000000000E+00  0.00000000000E+00  0.13637136071E+01  0.13637159912E+01  0.25500000000E-02 0.  1.
          2   -1    0    0    0  501  0.00000000000E+00 -0.00000000000E+00 -0.52649896123E+03  0.52649896123E+03  0.25500000000E-02 0.  1.
          2    1    1    2    0  502  0.19159149282E+02  0.10597114960E+02 -0.11041263813E+03  0.11256252712E+03  0.25500000000E-02 0. -1.
         -2    1    1    2  502    0 -0.19159149282E+02 -0.10597114960E+02 -0.41472260949E+03  0.41530015010E+03  0.25500000000E-02 0. -1.
<mgrwt>
<rscale>  0 0.53590836E+02</rscale>
<asrwt>0</asrwt>
<pdfrwt beam="2">  1        2 0.80999678E-01 0.53590836E+02</pdfrwt>
<pdfrwt beam="1">  1       -2 0.20980270E-03 0.53590836E+02</pdfrwt>
<totfact> 0.85883299E+05</totfact>
</mgrwt>
</event>
<event>
 4    1  0.4837985E-002  0.9912286E+02  0.7818608E-02  0.1282151E+00
         -2   -1    0    0  501    0 -0.00000000000E+00  0.00000000000E+00  0.36297386896E+01  0.36297395853E+01  0.25500000000E-02 0.  1.
          2   -1    0    0    0  501  0.00000000000E+00 -0.00000000000E+00 -0.67672508800E+03  0.67672508800E+03  0.25500000000E-02 0.  1.
          2    1    1    2    0  502 -0.34571359538E+02  0.44967860110E+01 -0.57833650930E+03  0.57938632878E+03  0.25500000000E-02 0. -1.
         -2    1    1    2  502    0  0.34571359538E+02 -0.44967860110E+01 -0.94758840007E+02  0.10096849880E+03  0.25500000000E-02 0. -1.
<mgrwt>
<rscale>  0 0.99122864E+02</rscale>
<asrwt>0</asrwt>
<pdfrwt beam="2">  1        2 0.10411145E+00 0.99122864E+02</pdfrwt>
<pdfrwt beam="1">  1       -2 0.55842194E-03 0.99122864E+02</pdfrwt>
<totfact> 0.18850734E+05</totfact>
</mgrwt>
</event>
<event>
 4    1  0.4837985E-002  0.5818389E+02  0.7818608E-02  0.1405615E+00
          2   -1    0    0    0  501  0.00000000000E+00  0.00000000000E+00  0.24846091815E+04  0.24846091815E+04  0.25500000000E-02 0. -1.
         -2   -1    0    0  501    0 -0.00000000000E+00 -0.00000000000E+00 -0.34062873472E+00  0.34063827943E+00  0.25500000000E-02 0. -1.
          2    1    1    2    0  502  0.13361044269E+02  0.22053861425E+02  0.66683427075E+03  0.66733262693E+03  0.25500000000E-02 0. -1.
         -2    1    1    2  502    0 -0.13361044269E+02 -0.22053861425E+02  0.18174342820E+04  0.18176171928E+04  0.25500000000E-02 0. -1.
<mgrwt>
<rscale>  0 0.58183886E+02</rscale>
<asrwt>0</asrwt>
<pdfrwt beam="1">  1        2 0.38223343E+00 0.58183886E+02</pdfrwt>
<pdfrwt beam="2">  1       -2 0.52407093E-04 0.58183886E+02</pdfrwt>
<totfact> 0.48268723E+05</totfact>
</mgrwt>
</event>
<event>
 4    1  0.4837985E-002  0.9160301E+02  0.7818608E-02  0.1299016E+00
          2   -1    0    0    0  501  0.00000000000E+00  0.00000000000E+00  0.13972564951E+04  0.13972564951E+04  0.25500000000E-02 0. -1.
         -2   -1    0    0  501    0 -0.00000000000E+00 -0.00000000000E+00 -0.15013538114E+01  0.15013559769E+01  0.25500000000E-02 0. -1.
          2    1    1    2    0  502  0.22111149277E+02  0.18514997136E+02  0.12412049881E+04  0.12415399834E+04  0.25500000000E-02 0. -1.
         -2    1    1    2  502    0 -0.22111149277E+02 -0.18514997136E+02  0.15455015319E+03  0.15721786762E+03  0.25500000000E-02 0. -1.
<mgrwt>
<rscale>  0 0.91603010E+02</rscale>
<asrwt>0</asrwt>
<pdfrwt beam="1">  1        2 0.21496318E+00 0.91603010E+02</pdfrwt>
<pdfrwt beam="2">  1       -2 0.23097698E-03 0.91603010E+02</pdfrwt>
<totfact> 0.23858397E+05</totfact>
</mgrwt>
</event>
<event>
 4    1  0.4837985E-002  0.6852456E+02  0.7818608E-02  0.1365183E+00
          2   -1    0    0    0  501  0.00000000000E+00  0.00000000000E+00  0.77085336917E+03  0.77085336918E+03  0.25500000000E-02 0. -1.
         -2   -1    0    0  501    0 -0.00000000000E+00 -0.00000000000E+00 -0.15228616502E+01  0.15228637851E+01  0.25500000000E-02 0. -1.
          2    1    1    2    0  502 -0.12758632874E+02  0.30479966077E+02  0.28253951820E+03  0.28446509522E+03  0.25500000000E-02 0.  1.
         -2    1    1    2  502    0  0.12758632874E+02 -0.30479966077E+02  0.48679098932E+03  0.48791113774E+03  0.25500000000E-02 0.  1.
<mgrwt>
<rscale>  0 0.68524561E+02</rscale>
<asrwt>0</asrwt>
<pdfrwt beam="1">  1        2 0.11859282E+00 0.68524561E+02</pdfrwt>
<pdfrwt beam="2">  1       -2 0.23428659E-03 0.68524561E+02</pdfrwt>
<totfact> 0.50830234E+05</totfact>
</mgrwt>
</event>
<event>
 4    1  0.4837985E-002  0.1157920E+03  0.7818608E-02  0.1250205E+00
          2   -1    0    0    0  501  0.00000000000E+00  0.00000000000E+00  0.28071564875E+02  0.28071564991E+02  0.25500000000E-02 0.  1.
         -2   -1    0    0  501    0 -0.00000000000E+00 -0.00000000000E+00 -0.11940726512E+03  0.11940726515E+03  0.25500000000E-02 0.  1.
          2    1    1    2    0  502 -0.28390189142E+02  0.13815572730E+01 -0.10990891531E+03  0.11352480439E+03  0.25500000000E-02 0. -1.
         -2    1    1    2  502    0  0.28390189142E+02 -0.13815572730E+01  0.18573215069E+02  0.33954025748E+02  0.25500000000E-02 0. -1.
<mgrwt>
<rscale>  0 0.11579203E+03</rscale>
<asrwt>0</asrwt>
<pdfrwt beam="1">  1        2 0.43187024E-02 0.11579203E+03</pdfrwt>
<pdfrwt beam="2">  1       -2 0.18370348E-01 0.11579203E+03</pdfrwt>
<totfact> 0.41519673E+04</totfact>
</mgrwt>
</event>
<event>
 4    1  0.4837985E-002  0.9471325E+02  0.7818608E-02  0.1291823E+00
          2   -1    0    0    0  501  0.00000000000E+00  0.00000000000E+00  0.72811107150E+02  0.72811107195E+02  0.25500000000E-02 0. -1.
         -2   -1    0    0  501    0 -0.00000000000E+00 -0.00000000000E+00 -0.30800933118E+02  0.30800933223E+02  0.25500000000E-02 0. -1.
          2    1    1    2    0  502 -0.36575741403E+02 -0.27342607667E+02  0.34723082184E+02  0.57368070354E+02  0.25500000000E-02 0.  1.
         -2    1    1    2  502    0  0.36575741403E+02  0.27342607667E+02  0.72870918479E+01  0.46243970064E+02  0.25500000000E-02 0.  1.
<mgrwt>
<rscale>  0 0.94713252E+02</rscale>
<asrwt>0</asrwt>
<pdfrwt beam="1">  1        2 0.11201709E-01 0.94713252E+02</pdfrwt>
<pdfrwt beam="2">  1       -2 0.47386051E-02 0.94713252E+02</pdfrwt>
<totfact> 0.10052158E+05</totfact>
</mgrwt>
</event>
<event>
 4    1  0.4837985E-002  0.1224889E+03  0.7818608E-02  0.1239047E+00
         -2   -1    0    0  501    0 -0.00000000000E+00  0.00000000000E+00  0.24314102558E+01  0.24314115930E+01  0.25500000000E-02 0.  1.
          2   -1    0    0    0  501  0.00000000000E+00 -0.00000000000E+00 -0.15426769071E+04  0.15426769071E+04  0.25500000000E-02 0.  1.
          2    1    1    2    0  502 -0.37799449299E+02  0.17715035253E+02 -0.13354140492E+04  0.13360663545E+04  0.25500000000E-02 0. -1.
         -2    1    1    2  502    0  0.37799449299E+02 -0.17715035253E+02 -0.20483144773E+03  0.20904196427E+03  0.25500000000E-02 0. -1.
<mgrwt>
<rscale>  0 0.12248888E+03</rscale>
<asrwt>0</asrwt>
<pdfrwt beam="2">  1        2 0.23733413E+00 0.12248888E+03</pdfrwt>
<pdfrwt beam="1">  1       -2 0.37406445E-03 0.12248888E+03</pdfrwt>
<totfact> 0.10599934E+05</totfact>
</mgrwt>
</event>
<event>
 4    1  0.4837985E-002  0.6346605E+02  0.7818608E-02  0.1383836E+00
         -2   -1    0    0  501    0 -0.00000000000E+00  0.00000000000E+00  0.96379212344E+02  0.96379212377E+02  0.25500000000E-02 0. -1.
          2   -1    0    0    0  501  0.00000000000E+00 -0.00000000000E+00 -0.10448154334E+02  0.10448154645E+02  0.25500000000E-02 0. -1.
          2    1    1    2    0  502  0.23204108073E+02  0.12591785335E+02  0.72601744344E+02  0.77252812102E+02  0.25500000000E-02 0. -1.
         -2    1    1    2  502    0 -0.23204108073E+02 -0.12591785335E+02  0.13329313666E+02  0.29574554920E+02  0.25500000000E-02 0. -1.
<mgrwt>
<rscale>  0 0.63466051E+02</rscale>
<asrwt>0</asrwt>
<pdfrwt beam="2">  1        2 0.16074084E-02 0.63466051E+02</pdfrwt>
<pdfrwt beam="1">  1       -2 0.14827571E-01 0.63466051E+02</pdfrwt>
<totfact> 0.19830970E+05</totfact>
</mgrwt>
</event>
<event>
 4    1  0.4837985E-002  0.6626766E+02  0.7818608E-02  0.1373266E+00
          2   -1    0    0    0  501  0.00000000000E+00  0.00000000000E+00  0.50009683671E+01  0.50009690173E+01  0.25500000000E-02 0.  1.
         -2   -1    0    0  501    0 -0.00000000000E+00 -0.00000000000E+00 -0.21952763534E+03  0.21952763535E+03  0.25500000000E-02 0.  1.
          2    1    1    2    0  502 -0.82176684148E+01 -0.31281505239E+02 -0.82880433680E+02  0.88967572394E+02  0.25500000000E-02 0. -1.
         -2    1    1    2  502    0  0.82176684148E+01  0.31281505239E+02 -0.13164623329E+03  0.13556103198E+03  0.25500000000E-02 0. -1.
<mgrwt>
<rscale>  0 0.66267664E+02</rscale>
<asrwt>0</asrwt>
<pdfrwt beam="1">  1        2 0.76937997E-03 0.66267664E+02</pdfrwt>
<pdfrwt beam="2">  1       -2 0.33773475E-01 0.66267664E+02</pdfrwt>
<totfact> 0.13443950E+05</totfact>
</mgrwt>
</event>
<event>
 4    1  0.4837985E-002  0.5947104E+02  0.7818608E-02  0.1400065E+00
          2   -1    0    0    0  501  0.00000000000E+00  0.00000000000E+00  0.31461382353E+01  0.31461392687E+01  0.25500000000E-02 0.  1.
         -2   -1    0    0  501    0 -0.00000000000E+00 -0.00000000000E+00 -0.28104327316E+03  0.28104327317E+03  0.25500000000E-02 0.  1.
          2    1    1    2    0  502 -0.19919185462E+02 -0.59675096216E+01 -0.24052271160E+03  0.24141988304E+03  0.25500000000E-02 0. -1.
         -2    1    1    2  502    0  0.19919185462E+02  0.59675096216E+01 -0.37374423321E+02  0.42769529406E+02  0.25500000000E-02 0. -1.
<mgrwt>
<rscale>  0 0.59471040E+02</rscale>
<asrwt>0</asrwt>
<pdfrwt beam="1">  1        2 0.48402157E-03 0.59471040E+02</pdfrwt>
<pdfrwt beam="2">  1       -2 0.43237407E-01 0.59471040E+02</pdfrwt>
<totfact> 0.15644951E+05</totfact>
</mgrwt>
</event>
<event>
 4    1  0.4837985E-002  0.8244772E+02  0.7818608E-02  0.1322245E+00
         -2   -1    0    0  501    0 -0.00000000000E+00  0.00000000000E+00  0.69937790752E+01  0.69937795400E+01  0.25500000000E-02 0. -1.
          2   -1    0    0    0  501  0.00000000000E+00 -0.00000000000E+00 -0.24298833657E+03  0.24298833658E+03  0.25500000000E-02 0. -1.
          2    1    1    2    0  502  0.18226386737E+02 -0.33436256095E+02 -0.70131645732E+02  0.79803710031E+02  0.25500000000E-02 0. -1.
         -2    1    1    2  502    0 -0.18226386737E+02  0.33436256095E+02 -0.16586291176E+03  0.17017840609E+03  0.25500000000E-02 0. -1.
<mgrwt>
<rscale>  0 0.82447724E+02</rscale>
<asrwt>0</asrwt>
<pdfrwt beam="2">  1        2 0.37382815E-01 0.82447724E+02</pdfrwt>
<pdfrwt beam="1">  1       -2 0.10759662E-02 0.82447724E+02</pdfrwt>
<totfact> 0.21715678E+05</totfact>
</mgrwt>
</event>
<event>
 4    1  0.4837985E-002  0.1006164E+03  0.7818608E-02  0.1279005E+00
         -2   -1    0    0  501    0 -0.00000000000E+00  0.00000000000E+00  0.89817985062E+01  0.89817988682E+01  0.25500000000E-02 0.  1.
          2   -1    0    0    0  501  0.00000000000E+00 -0.00000000000E+00 -0.28178244837E+03  0.28178244838E+03  0.25500000000E-02 0.  1.
          2    1    1    2    0  502  0.42229458749E+02 -0.25981696389E+02 -0.11178794351E+03  0.12229031055E+03  0.25500000000E-02 0.  1.
         -2    1    1    2  502    0 -0.42229458749E+02  0.25981696389E+02 -0.16101270635E+03  0.16847393669E+03  0.25500000000E-02 0.  1.
<mgrwt>
<rscale>  0 0.10061637E+03</rscale>
<asrwt>0</asrwt>
<pdfrwt beam="2">  1        2 0.43351139E-01 0.10061637E+03</pdfrwt>
<pdfrwt beam="1">  1       -2 0.13818154E-02 0.10061637E+03</pdfrwt>
<totfact> 0.13468752E+05</totfact>
</mgrwt>
</event>
<event>
 4    1  0.4837985E-002  0.1120080E+03  0.7818608E-02  0.1256896E+00
          2   -1    0    0    0  501  0.00000000000E+00  0.00000000000E+00  0.49355359918E+03  0.49355359919E+03  0.25500000000E-02 0. -1.
         -2   -1    0    0  501    0 -0.00000000000E+00 -0.00000000000E+00 -0.63548291218E+01  0.63548296334E+01  0.25500000000E-02 0. -1.
          2    1    1    2    0  502 -0.34311256271E+02  0.36518107357E+02  0.35523293494E+03  0.35874959588E+03  0.25500000000E-02 0. -1.
         -2    1    1    2  502    0  0.34311256271E+02 -0.36518107357E+02  0.13196583512E+03  0.14115883294E+03  0.25500000000E-02 0. -1.
<mgrwt>
<rscale>  0 0.11200802E+03</rscale>
<asrwt>0</asrwt>
<pdfrwt beam="1">  1        2 0.75931330E-01 0.11200802E+03</pdfrwt>
<pdfrwt beam="2">  1       -2 0.97766596E-03 0.11200802E+03</pdfrwt>
<totfact> 0.12372793E+05</totfact>
</mgrwt>
</event>
<event>
 4    1  0.4837985E-002  0.8374243E+02  0.7818608E-02  0.1318754E+00
          2   -1    0    0    0  501  0.00000000000E+00  0.00000000000E+00  0.85030940044E+03  0.85030940044E+03  0.25500000000E-02 0. -1.
         -2   -1    0    0  501    0 -0.00000000000E+00 -0.00000000000E+00 -0.20618355805E+01  0.20618371574E+01  0.25500000000E-02 0. -1.
          2    1    1    2    0  502  0.22630161461E+02  0.33784479297E+02  0.52574749266E+03  0.52731768536E+03  0.25500000000E-02 0. -1.
         -2    1    1    2  502    0 -0.22630161461E+02 -0.33784479297E+02  0.32250007219E+03  0.32505355224E+03  0.25500000000E-02 0. -1.
<mgrwt>
<rscale>  0 0.83742435E+02</rscale>
<asrwt>0</asrwt>
<pdfrwt beam="1">  1        2 0.13081675E+00 0.83742435E+02</pdfrwt>
<pdfrwt beam="2">  1       -2 0.31720579E-03 0.83742435E+02</pdfrwt>
<totfact> 0.30765676E+05</totfact>
</mgrwt>
</event>
<event>
 4    1  0.4837985E-002  0.6673616E+02  0.7818608E-02  0.1371557E+00
          2   -1    0    0    0  501  0.00000000000E+00  0.00000000000E+00  0.22878516105E+03  0.22878516107E+03  0.25500000000E-02 0.  1.
         -2   -1    0    0  501    0 -0.00000000000E+00 -0.00000000000E+00 -0.48667001679E+01  0.48667008360E+01  0.25500000000E-02 0.  1.
          2    1    1    2    0  502  0.47348111722E+01 -0.30896963040E+02  0.15284726563E+03  0.15601066431E+03  0.25500000000E-02 0.  1.
         -2    1    1    2  502    0 -0.47348111722E+01  0.30896963040E+02  0.71071195256E+02  0.77641197592E+02  0.25500000000E-02 0.  1.
<mgrwt>
<rscale>  0 0.66736163E+02</rscale>
<asrwt>0</asrwt>
<pdfrwt beam="1">  1        2 0.35197728E-01 0.66736163E+02</pdfrwt>
<pdfrwt beam="2">  1       -2 0.74872292E-03 0.66736163E+02</pdfrwt>
<totfact> 0.36962117E+05</totfact>
</mgrwt>
</event>
<event>
 4    1  0.4837985E-002  0.1227602E+03  0.7818608E-02  0.1238612E+00
         -2   -1    0    0  501    0 -0.00000000000E+00  0.00000000000E+00  0.16229041365E+01  0.16229061399E+01  0.25500000000E-02 0.  1.
          2   -1    0    0    0  501  0.00000000000E+00 -0.00000000000E+00 -0.23214663164E+04  0.23214663164E+04  0.25500000000E-02 0.  1.
          2    1    1    2    0  502  0.29028542307E+02 -0.53090221977E+02 -0.13550219228E+04  0.13563722348E+04  0.25500000000E-02 0. -1.
         -2    1    1    2  502    0 -0.29028542307E+02  0.53090221977E+02 -0.96482148938E+03  0.96671698770E+03  0.25500000000E-02 0. -1.
<mgrwt>
<rscale>  0 0.12276025E+03</rscale>
<asrwt>0</asrwt>
<pdfrwt beam="2">  1        2 0.35714601E+00 0.12276025E+03</pdfrwt>
<pdfrwt beam="1">  1       -2 0.24967957E-03 0.12276025E+03</pdfrwt>
<totfact> 0.74681173E+04</totfact>
</mgrwt>
</event>
<event>
 4    1  0.4837985E-002  0.5363880E+02  0.7818608E-02  0.1426648E+00
          2   -1    0    0    0  501  0.00000000000E+00  0.00000000000E+00  0.80554795927E+01  0.80554799963E+01  0.25500000000E-02 0.  1.
         -2   -1    0    0  501    0 -0.00000000000E+00 -0.00000000000E+00 -0.89290782335E+02  0.89290782372E+02  0.25500000000E-02 0.  1.
          2    1    1    2    0  502  0.20423144076E+02  0.32526834949E+01 -0.96270114926E+01  0.22811490978E+02  0.25500000000E-02 0.  1.
         -2    1    1    2  502    0 -0.20423144076E+02 -0.32526834949E+01 -0.71608291250E+02  0.74534771390E+02  0.25500000000E-02 0.  1.
<mgrwt>
<rscale>  0 0.53638796E+02</rscale>
<asrwt>0</asrwt>
<pdfrwt beam="1">  1        2 0.12393046E-02 0.53638796E+02</pdfrwt>
<pdfrwt beam="2">  1       -2 0.13737043E-01 0.53638796E+02</pdfrwt>
<totfact> 0.30568496E+05</totfact>
</mgrwt>
</event>
<event>
 4    1  0.4837985E-002  0.4263853E+02  0.7818608E-02  0.1489646E+00
          2   -1    0    0    0  501  0.00000000000E+00  0.00000000000E+00  0.78143826415E+01  0.78143830575E+01  0.25500000000E-02 0.  1.
         -2   -1    0    0  501    0 -0.00000000000E+00 -0.00000000000E+00 -0.58163390098E+02  0.58163390154E+02  0.25500000000E-02 0.  1.
          2    1    1    2    0  502  0.20413812129E+02  0.11340390227E+01 -0.34523159685E+02  0.40123039906E+02  0.25500000000E-02 0. -1.
         -2    1    1    2  502    0 -0.20413812129E+02 -0.11340390227E+01 -0.15825847771E+02  0.25854733306E+02  0.25500000000E-02 0. -1.
<mgrwt>
<rscale>  0 0.42638527E+02</rscale>
<asrwt>0</asrwt>
<pdfrwt beam="1">  1        2 0.12022128E-02 0.42638527E+02</pdfrwt>
<pdfrwt beam="2">  1       -2 0.89482136E-02 0.42638527E+02</pdfrwt>
<totfact> 0.58150313E+05</totfact>
</mgrwt>
</event>
<event>
 4    1  0.4837985E-002  0.9281535E+02  0.7818608E-02  0.1296174E+00
          2   -1    0    0    0  501  0.00000000000E+00  0.00000000000E+00  0.58942054641E+03  0.58942054642E+03  0.25500000000E-02 0.  1.
         -2   -1    0    0  501    0 -0.00000000000E+00 -0.00000000000E+00 -0.36538802278E+01  0.36538811176E+01  0.25500000000E-02 0.  1.
          2    1    1    2    0  502  0.21404924923E+02  0.25780709510E+02  0.49804135514E+03  0.49916731386E+03  0.25500000000E-02 0. -1.
         -2    1    1    2  502    0 -0.21404924923E+02 -0.25780709510E+02  0.87725311045E+02  0.93907113672E+02  0.25500000000E-02 0. -1.
<mgrwt>
<rscale>  0 0.92815351E+02</rscale>
<asrwt>0</asrwt>
<pdfrwt beam="1">  1        2 0.90680025E-01 0.92815351E+02</pdfrwt>
<pdfrwt beam="2">  1       -2 0.56213585E-03 0.92815351E+02</pdfrwt>
<totfact> 0.21626166E+05</totfact>
</mgrwt>
</event>
<event>
 4    1  0.4837985E-002  0.5123148E+02  0.7818608E-02  0.1438810E+00
          2   -1    0    0    0  501  0.00000000000E+00  0.00000000000E+00  0.34497422756E+01  0.34497432181E+01  0.25500000000E-02 0. -1.
         -2   -1    0    0  501    0 -0.00000000000E+00 -0.00000000000E+00 -0.19020728875E+03  0.19020728876E+03  0.25500000000E-02 0. -1.
          2    1    1    2    0  502  0.12114501222E+02  0.20148596678E+02 -0.54933871232E+02  0.59753303699E+02  0.25500000000E-02 0. -1.
         -2    1    1    2  502    0 -0.12114501222E+02 -0.20148596678E+02 -0.13182367524E+03  0.13390372828E+03  0.25500000000E-02 0. -1.
<mgrwt>
<rscale>  0 0.51231483E+02</rscale>
<asrwt>0</asrwt>
<pdfrwt beam="1">  1        2 0.53072980E-03 0.51231483E+02</pdfrwt>
<pdfrwt beam="2">  1       -2 0.29262652E-01 0.51231483E+02</pdfrwt>
<totfact> 0.27102849E+05</totfact>
</mgrwt>
</event>
<event>
 4    1  0.4837985E-002  0.4892358E+02  0.7818608E-02  0.1451235E+00
         -2   -1    0    0  501    0 -0.00000000000E+00  0.00000000000E+00  0.23111086175E+01  0.23111100243E+01  0.25500000000E-02 0.  1.
          2   -1    0    0    0  501  0.00000000000E+00 -0.00000000000E+00 -0.25891423744E+03  0.25891423745E+03  0.25500000000E-02 0.  1.
          2    1    1    2    0  502 -0.12946527749E+02  0.20519021110E+02 -0.11164083560E+03  0.11424674607E+03  0.25500000000E-02 0. -1.
         -2    1    1    2  502    0  0.12946527749E+02 -0.20519021110E+02 -0.14496229322E+03  0.14697860141E+03  0.25500000000E-02 0. -1.
<mgrwt>
<rscale>  0 0.48923578E+02</rscale>
<asrwt>0</asrwt>
<pdfrwt beam="2">  1        2 0.39832937E-01 0.48923578E+02</pdfrwt>
<pdfrwt beam="1">  1       -2 0.35555549E-03 0.48923578E+02</pdfrwt>
<totfact> 0.84837917E+05</totfact>
</mgrwt>
</event>
<event>
 4    1  0.4837985E-002  0.5726615E+02  0.7818608E-02  0.1409676E+00
         -2   -1    0    0  501    0 -0.00000000000E+00  0.00000000000E+00  0.10465781393E+02  0.10465781704E+02  0.25500000000E-02 0.  1.
          2   -1    0    0    0  501  0.00000000000E+00 -0.00000000000E+00 -0.78336540031E+02  0.78336540072E+02  0.25500000000E-02 0.  1.
          2    1    1    2    0  502  0.27682025770E+02 -0.64883313193E+01 -0.28685844190E+02  0.40388991785E+02  0.25500000000E-02 0.  1.
         -2    1    1    2  502    0 -0.27682025770E+02  0.64883313193E+01 -0.39184914447E+02  0.48413329991E+02  0.25500000000E-02 0.  1.
<mgrwt>
<rscale>  0 0.57266155E+02</rscale>
<asrwt>0</asrwt>
<pdfrwt beam="2">  1        2 0.12051775E-01 0.57266155E+02</pdfrwt>
<pdfrwt beam="1">  1       -2 0.16101203E-02 0.57266155E+02</pdfrwt>
<totfact> 0.39781202E+05</totfact>
</mgrwt>
</event>
<event>
 4    1  0.4837985E-002  0.5746062E+02  0.7818608E-02  0.1408808E+00
         -2   -1    0    0  501    0 -0.00000000000E+00  0.00000000000E+00  0.65578587223E+01  0.65578592181E+01  0.25500000000E-02 0.  1.
          2   -1    0    0    0  501  0.00000000000E+00 -0.00000000000E+00 -0.12586894710E+03  0.12586894712E+03  0.25500000000E-02 0.  1.
          2    1    1    2    0  502 -0.20266415617E+02 -0.14131697371E+01 -0.12836122685E+02  0.24031036240E+02  0.25500000000E-02 0.  1.
         -2    1    1    2  502    0  0.20266415617E+02  0.14131697371E+01 -0.10647496569E+03  0.10839577010E+03  0.25500000000E-02 0.  1.
<mgrwt>
<rscale>  0 0.57460623E+02</rscale>
<asrwt>0</asrwt>
<pdfrwt beam="2">  1        2 0.19364452E-01 0.57460623E+02</pdfrwt>
<pdfrwt beam="1">  1       -2 0.10089015E-02 0.57460623E+02</pdfrwt>
<totfact> 0.44750959E+05</totfact>
</mgrwt>
</event>
<event>
 4    1  0.4837985E-002  0.6286785E+02  0.7818608E-02  0.1386176E+00
          2   -1    0    0    0  501  0.00000000000E+00  0.00000000000E+00  0.59550218249E+02  0.59550218304E+02  0.25500000000E-02 0.  1.
         -2   -1    0    0  501    0 -0.00000000000E+00 -0.00000000000E+00 -0.16592577760E+02  0.16592577956E+02  0.25500000000E-02 0.  1.
          2    1    1    2    0  502  0.20604776798E+02  0.18731400443E+01  0.50140680056E+02  0.54241619478E+02  0.25500000000E-02 0. -1.
         -2    1    1    2  502    0 -0.20604776798E+02 -0.18731400443E+01 -0.71830395674E+01  0.21901176783E+02  0.25500000000E-02 0. -1.
<mgrwt>
<rscale>  0 0.62867850E+02</rscale>
<asrwt>0</asrwt>
<pdfrwt beam="1">  1        2 0.91615722E-02 0.62867850E+02</pdfrwt>
<pdfrwt beam="2">  1       -2 0.25527043E-02 0.62867850E+02</pdfrwt>
<totfact> 0.29238953E+05</totfact>
</mgrwt>
</event>
<event>
 4    1  0.4837985E-002  0.6428753E+02  0.7818608E-02  0.1380672E+00
          2   -1    0    0    0  501  0.00000000000E+00  0.00000000000E+00  0.15778317410E+02  0.15778317616E+02  0.25500000000E-02 0. -1.
         -2   -1    0    0  501    0 -0.00000000000E+00 -0.00000000000E+00 -0.65483638509E+02  0.65483638558E+02  0.25500000000E-02 0. -1.
          2    1    1    2    0  502  0.62149164550E+01 -0.20880447835E+02  0.50226409586E+01  0.22357218455E+02  0.25500000000E-02 0.  1.
         -2    1    1    2  502    0 -0.62149164550E+01  0.20880447835E+02 -0.54727962057E+02  0.58904737719E+02  0.25500000000E-02 0.  1.
<mgrwt>
<rscale>  0 0.64287530E+02</rscale>
<asrwt>0</asrwt>
<pdfrwt beam="1">  1        2 0.24274335E-02 0.64287530E+02</pdfrwt>
<pdfrwt beam="2">  1       -2 0.10074406E-01 0.64287530E+02</pdfrwt>
<totfact> 0.21047851E+05</totfact>
</mgrwt>
</event>
<event>
 4    1  0.4837985E-002  0.5883886E+02  0.7818608E-02  0.1402770E+00
         -2   -1    0    0  501    0 -0.00000000000E+00  0.00000000000E+00  0.12008055586E+03  0.12008055589E+03  0.25500000000E-02 0.  1.
          2   -1    0    0    0  501  0.00000000000E+00 -0.00000000000E+00 -0.72076861555E+01  0.72076866066E+01  0.25500000000E-02 0.  1.
          2    1    1    2    0  502 -0.10723914097E+02  0.21793416958E+02  0.20525860917E+02  0.31800413978E+02  0.25500000000E-02 0.  1.
         -2    1    1    2  502    0  0.10723914097E+02 -0.21793416958E+02  0.92347008785E+02  0.95487828514E+02  0.25500000000E-02 0.  1.
<mgrwt>
<rscale>  0 0.58838864E+02</rscale>
<asrwt>0</asrwt>
<pdfrwt beam="2">  1        2 0.11088749E-02 0.58838864E+02</pdfrwt>
<pdfrwt beam="1">  1       -2 0.18473931E-01 0.58838864E+02</pdfrwt>
<totfact> 0.22513611E+05</totfact>
</mgrwt>
</event>
<event>
 4    1  0.4837985E-002  0.4479476E+02  0.7818608E-02  0.1475627E+00
         -2   -1    0    0  501    0 -0.00000000000E+00  0.00000000000E+00  0.48519482329E+01  0.48519489030E+01  0.25500000000E-02 0.  1.
          2   -1    0    0    0  501  0.00000000000E+00 -0.00000000000E+00 -0.10338994898E+03  0.10338994901E+03  0.25500000000E-02 0.  1.
          2    1    1    2    0  502  0.21601821628E+02 -0.12054123192E+01 -0.35272455202E+02  0.41379195485E+02  0.25500000000E-02 0. -1.
         -2    1    1    2  502    0 -0.21601821628E+02  0.12054123192E+01 -0.63265545541E+02  0.66862702426E+02  0.25500000000E-02 0. -1.
<mgrwt>
<rscale>  0 0.44794764E+02</rscale>
<asrwt>0</asrwt>
<pdfrwt beam="2">  1        2 0.15906144E-01 0.44794764E+02</pdfrwt>
<pdfrwt beam="1">  1       -2 0.74645371E-03 0.44794764E+02</pdfrwt>
<totfact> 0.79614885E+05</totfact>
</mgrwt>
</event>
<event>
 4    1  0.4837985E-002  0.4590377E+02  0.7818608E-02  0.1468777E+00
          2   -1    0    0    0  501  0.00000000000E+00  0.00000000000E+00  0.90442832209E+03  0.90442832209E+03  0.25500000000E-02 0.  1.
         -2   -1    0    0  501    0 -0.00000000000E+00 -0.00000000000E+00 -0.58245233546E+00  0.58245791744E+00  0.25500000000E-02 0.  1.
          2    1    1    2    0  502  0.13091960895E+02 -0.18039882821E+02  0.55982234251E+03  0.56026591186E+03  0.25500000000E-02 0. -1.
         -2    1    1    2  502    0 -0.13091960895E+02  0.18039882821E+02  0.34402352724E+03  0.34474486815E+03  0.25500000000E-02 0. -1.
<mgrwt>
<rscale>  0 0.45903765E+02</rscale>
<asrwt>0</asrwt>
<pdfrwt beam="1">  1        2 0.13914219E+00 0.45903765E+02</pdfrwt>
<pdfrwt beam="2">  1       -2 0.89608886E-04 0.45903765E+02</pdfrwt>
<totfact> 0.14173168E+06</totfact>
</mgrwt>
</event>
<event>
 4    1  0.4837985E-002  0.6527598E+02  0.7818608E-02  0.1376936E+00
          2   -1    0    0    0  501  0.00000000000E+00  0.00000000000E+00  0.34908010756E+03  0.34908010757E+03  0.25500000000E-02 0.  1.
         -2   -1    0    0  501    0 -0.00000000000E+00 -0.00000000000E+00 -0.30515578833E+01  0.30515589488E+01  0.25500000000E-02 0.  1.
          2    1    1    2    0  502  0.21184312456E+02  0.22856384629E+02  0.22532956128E+03  0.22747439549E+03  0.25500000000E-02 0.  1.
         -2    1    1    2  502    0 -0.21184312456E+02 -0.22856384629E+02  0.12069898840E+03  0.12465727103E+03  0.25500000000E-02 0.  1.
<mgrwt>
<rscale>  0 0.65275979E+02</rscale>
<asrwt>0</asrwt>
<pdfrwt beam="1">  1        2 0.53704659E-01 0.65275979E+02</pdfrwt>
<pdfrwt beam="2">  1       -2 0.46947029E-03 0.65275979E+02</pdfrwt>
<totfact> 0.45486177E+05</totfact>
</mgrwt>
</event>
<event>
 4    1  0.4837985E-002  0.4242961E+02  0.7818608E-02  0.1491057E+00
          2   -1    0    0    0  501  0.00000000000E+00  0.00000000000E+00  0.51580891084E+03  0.51580891085E+03  0.25500000000E-02 0.  1.
         -2   -1    0    0  501    0 -0.00000000000E+00 -0.00000000000E+00 -0.87254601048E+00  0.87254973664E+00  0.25500000000E-02 0.  1.
          2    1    1    2    0  502  0.11947542535E+02  0.17406854063E+02  0.28279485960E+03  0.28358186642E+03  0.25500000000E-02 0. -1.
         -2    1    1    2  502    0 -0.11947542535E+02 -0.17406854063E+02  0.23214150523E+03  0.23309959416E+03  0.25500000000E-02 0. -1.
<mgrwt>
<rscale>  0 0.42429611E+02</rscale>
<asrwt>0</asrwt>
<pdfrwt beam="1">  1        2 0.79355512E-01 0.42429611E+02</pdfrwt>
<pdfrwt beam="2">  1       -2 0.13423764E-03 0.42429611E+02</pdfrwt>
<totfact> 0.15157757E+06</totfact>
</mgrwt>
</event>
<event>
 4    1  0.4837985E-002  0.5512334E+02  0.7818608E-02  0.1419517E+00
          2   -1    0    0    0  501  0.00000000000E+00  0.00000000000E+00  0.27919729551E+04  0.27919729551E+04  0.25500000000E-02 0. -1.
         -2   -1    0    0  501    0 -0.00000000000E+00 -0.00000000000E+00 -0.27207600793E+00  0.27208795746E+00  0.25500000000E-02 0. -1.
          2    1    1    2    0  502 -0.23580704825E+02 -0.13573851729E+02  0.11730486868E+04  0.11733641893E+04  0.25500000000E-02 0.  1.
         -2    1    1    2  502    0  0.23580704825E+02  0.13573851729E+02  0.16186521923E+04  0.16188808538E+04  0.25500000000E-02 0.  1.
<mgrwt>
<rscale>  0 0.55123336E+02</rscale>
<asrwt>0</asrwt>
<pdfrwt beam="1">  1        2 0.42951003E+00 0.55123336E+02</pdfrwt>
<pdfrwt beam="2">  1       -2 0.41861133E-04 0.55123336E+02</pdfrwt>
<totfact> 0.44756191E+05</totfact>
</mgrwt>
</event>
<event>
 4    1  0.4837985E-002  0.4787861E+02  0.7818608E-02  0.1457131E+00
          2   -1    0    0    0  501  0.00000000000E+00  0.00000000000E+00  0.33415401039E+01  0.33415410768E+01  0.25500000000E-02 0. -1.
         -2   -1    0    0  501    0 -0.00000000000E+00 -0.00000000000E+00 -0.17150485645E+03  0.17150485646E+03  0.25500000000E-02 0. -1.
          2    1    1    2    0  502 -0.88197813276E+01 -0.19948232482E+02 -0.12011690522E+03  0.12208108555E+03  0.25500000000E-02 0. -1.
         -2    1    1    2  502    0  0.88197813276E+01  0.19948232482E+02 -0.48046411120E+02  0.52765311994E+02  0.25500000000E-02 0. -1.
<mgrwt>
<rscale>  0 0.47878615E+02</rscale>
<asrwt>0</asrwt>
<pdfrwt beam="1">  1        2 0.51408330E-03 0.47878615E+02</pdfrwt>
<pdfrwt beam="2">  1       -2 0.26385356E-01 0.47878615E+02</pdfrwt>
<totfact> 0.33287065E+05</totfact>
</mgrwt>
</event>
<event>
 4    1  0.4837985E-002  0.4775955E+02  0.7818608E-02  0.1457815E+00
          2   -1    0    0    0  501  0.00000000000E+00  0.00000000000E+00  0.19449447799E+01  0.19449464515E+01  0.25500000000E-02 0. -1.
         -2   -1    0    0  501    0 -0.00000000000E+00 -0.00000000000E+00 -0.29319258741E+03  0.29319258742E+03  0.25500000000E-02 0. -1.
          2    1    1    2    0  502 -0.18741067268E+02 -0.81661190232E+01 -0.69353126576E+02  0.72303314410E+02  0.25500000000E-02 0. -1.
         -2    1    1    2  502    0  0.18741067268E+02  0.81661190232E+01 -0.22189451606E+03  0.22283421946E+03  0.25500000000E-02 0. -1.
<mgrwt>
<rscale>  0 0.47759549E+02</rscale>
<asrwt>0</asrwt>
<pdfrwt beam="1">  1        2 0.29922264E-03 0.47759549E+02</pdfrwt>
<pdfrwt beam="2">  1       -2 0.45106517E-01 0.47759549E+02</pdfrwt>
<totfact> 0.26314883E+05</totfact>
</mgrwt>
</event>
<event>
 4    1  0.4837985E-002  0.4640294E+02  0.7818608E-02  0.1465769E+00
          2   -1    0    0    0  501  0.00000000000E+00  0.00000000000E+00  0.31232969029E+03  0.31232969030E+03  0.25500000000E-02 0. -1.
         -2   -1    0    0  501    0 -0.00000000000E+00 -0.00000000000E+00 -0.17235242857E+01  0.17235261721E+01  0.25500000000E-02 0. -1.
          2    1    1    2    0  502 -0.19204933340E+01 -0.19977382068E+02  0.23409214148E+03  0.23495087742E+03  0.25500000000E-02 0.  1.
         -2    1    1    2  502    0  0.19204933340E+01  0.19977382068E+02  0.76514024526E+02  0.79102339059E+02  0.25500000000E-02 0.  1.
<mgrwt>
<rscale>  0 0.46402935E+02</rscale>
<asrwt>0</asrwt>
<pdfrwt beam="1">  1        2 0.48050709E-01 0.46402935E+02</pdfrwt>
<pdfrwt beam="2">  1       -2 0.26515780E-03 0.46402935E+02</pdfrwt>
<totfact> 0.10321460E+06</totfact>
</mgrwt>
</event>
<event>
 4    1  0.4837985E-002  0.5491409E+02  0.7818608E-02  0.1420506E+00
          2   -1    0    0    0  501  0.00000000000E+00  0.00000000000E+00  0.16798357384E+04  0.16798357384E+04  0.25500000000E-02 0.  1.
         -2   -1    0    0  501    0 -0.00000000000E+00 -0.00000000000E+00 -0.44878386694E+00  0.44879111146E+00  0.25500000000E-02 0.  1.
          2    1    1    2    0  502 -0.40299837506E+01 -0.26784274730E+02  0.70199676927E+03  0.70251911164E+03  0.25500000000E-02 0. -1.
         -2    1    1    2  502    0  0.40299837506E+01  0.26784274730E+02  0.97739018522E+03  0.97776541783E+03  0.25500000000E-02 0. -1.
<mgrwt>
<rscale>  0 0.54914088E+02</rscale>
<asrwt>0</asrwt>
<pdfrwt beam="1">  1        2 0.25843293E+00 0.54914088E+02</pdfrwt>
<pdfrwt beam="2">  1       -2 0.69045122E-04 0.54914088E+02</pdfrwt>
<totfact> 0.82460850E+05</totfact>
</mgrwt>
</event>
<event>
 4    1  0.4837985E-002  0.1196743E+03  0.7818608E-02  0.1243635E+00
          2   -1    0    0    0  501  0.00000000000E+00  0.00000000000E+00  0.13267749633E+04  0.13267749633E+04  0.25500000000E-02 0.  1.
         -2   -1    0    0  501    0 -0.00000000000E+00 -0.00000000000E+00 -0.26986377430E+01  0.26986389478E+01  0.25500000000E-02 0.  1.
          2    1    1    2    0  502 -0.59776609382E+02  0.71048925022E-01  0.63215136574E+03  0.63497133581E+03  0.25500000000E-02 0.  1.
         -2    1    1    2  502    0  0.59776609382E+02 -0.71048925022E-01  0.69192495985E+03  0.69450226648E+03  0.25500000000E-02 0.  1.
<mgrwt>
<rscale>  0 0.11967432E+03</rscale>
<asrwt>0</asrwt>
<pdfrwt beam="1">  1        2 0.20411929E+00 0.11967432E+03</pdfrwt>
<pdfrwt beam="2">  1       -2 0.41517499E-03 0.11967432E+03</pdfrwt>
<totfact> 0.11842108E+05</totfact>
</mgrwt>
</event>
<event>
 4    1  0.4837985E-002  0.4996002E+02  0.7818608E-02  0.1445557E+00
         -2   -1    0    0  501    0 -0.00000000000E+00  0.00000000000E+00  0.45752811553E+03  0.45752811554E+03  0.25500000000E-02 0. -1.
          2   -1    0    0    0  501  0.00000000000E+00 -0.00000000000E+00 -0.13638513481E+01  0.13638537320E+01  0.25500000000E-02 0. -1.
          2    1    1    2    0  502 -0.70464833556E+00  0.24862060082E+02  0.24939159748E+03  0.25062878418E+03  0.25500000000E-02 0.  1.
         -2    1    1    2  502    0  0.70464833556E+00 -0.24862060082E+02  0.20677266671E+03  0.20826318509E+03  0.25500000000E-02 0.  1.
<mgrwt>
<rscale>  0 0.49960019E+02</rscale>
<asrwt>0</asrwt>
<pdfrwt beam="2">  1        2 0.20982339E-03 0.49960019E+02</pdfrwt>
<pdfrwt beam="1">  1       -2 0.70388968E-01 0.49960019E+02</pdfrwt>
<totfact> 0.17762792E+05</totfact>
</mgrwt>
</event>
<event>
 4    1  0.4837985E-002  0.5267456E+02  0.7818608E-02  0.1431427E+00
          2   -1    0    0    0  501  0.00000000000E+00  0.00000000000E+00  0.11142524417E+01  0.11142553595E+01  0.25500000000E-02 0. -1.
         -2   -1    0    0  501    0 -0.00000000000E+00 -0.00000000000E+00 -0.62252628689E+03  0.62252628690E+03  0.25500000000E-02 0. -1.
          2    1    1    2    0  502  0.21619670056E+02  0.13602485121E+02 -0.23469807275E+03  0.23608393231E+03  0.25500000000E-02 0. -1.
         -2    1    1    2  502    0 -0.21619670056E+02 -0.13602485121E+02 -0.38671396170E+03  0.38755660994E+03  0.25500000000E-02 0. -1.
<mgrwt>
<rscale>  0 0.52674561E+02</rscale>
<asrwt>0</asrwt>
<pdfrwt beam="1">  1        2 0.17142417E-03 0.52674561E+02</pdfrwt>
<pdfrwt beam="2">  1       -2 0.95772997E-01 0.52674561E+02</pdfrwt>
<totfact> 0.12160944E+05</totfact>
</mgrwt>
</event>
<event>
 4    1  0.4837985E-002  0.4771489E+02  0.7818608E-02  0.1458071E+00
         -2   -1    0    0  501    0 -0.00000000000E+00  0.00000000000E+00  0.12880506817E+01  0.12880532059E+01  0.25500000000E-02 0.  1.
          2   -1    0    0    0  501  0.00000000000E+00 -0.00000000000E+00 -0.44189025442E+03  0.44189025442E+03  0.25500000000E-02 0.  1.
          2    1    1    2    0  502  0.54076227840E+00 -0.23078560781E+02 -0.27623430278E+03  0.27719722659E+03  0.25500000000E-02 0.  1.
         -2    1    1    2  502    0 -0.54076227840E+00  0.23078560781E+02 -0.16436790096E+03  0.16598108104E+03  0.25500000000E-02 0.  1.
<mgrwt>
<rscale>  0 0.47714887E+02</rscale>
<asrwt>0</asrwt>
<pdfrwt beam="2">  1        2 0.67982995E-01 0.47714887E+02</pdfrwt>
<pdfrwt beam="1">  1       -2 0.19816219E-03 0.47714887E+02</pdfrwt>
<totfact> 0.10839504E+06</totfact>
</mgrwt>
</event>
<event>
 4    1  0.4837985E-002  0.6089028E+02  0.7818608E-02  0.1394133E+00
          2   -1    0    0    0  501  0.00000000000E+00  0.00000000000E+00  0.54173190494E+03  0.54173190495E+03  0.25500000000E-02 0. -1.
         -2   -1    0    0  501    0 -0.00000000000E+00 -0.00000000000E+00 -0.17110049322E+01  0.17110068324E+01  0.25500000000E-02 0. -1.
          2    1    1    2    0  502 -0.13981027855E+02 -0.15922287975E+02  0.74899023808E+02  0.77838629022E+02  0.25500000000E-02 0.  1.
         -2    1    1    2  502    0  0.13981027855E+02  0.15922287975E+02  0.46512187620E+03  0.46560428276E+03  0.25500000000E-02 0.  1.
<mgrwt>
<rscale>  0 0.60890278E+02</rscale>
<asrwt>0</asrwt>
<pdfrwt beam="1">  1        2 0.83343609E-01 0.60890278E+02</pdfrwt>
<pdfrwt beam="2">  1       -2 0.26323092E-03 0.60890278E+02</pdfrwt>
<totfact> 0.62844217E+05</totfact>
</mgrwt>
</event>
<event>
 4    1  0.4837985E-002  0.6398472E+02  0.7818608E-02  0.1381832E+00
          2   -1    0    0    0  501  0.00000000000E+00  0.00000000000E+00  0.14027035811E+04  0.14027035811E+04  0.25500000000E-02 0.  1.
         -2   -1    0    0  501    0 -0.00000000000E+00 -0.00000000000E+00 -0.72966804183E+00  0.72967249761E+00  0.25500000000E-02 0.  1.
          2    1    1    2    0  502  0.22571925718E+02 -0.18586190961E+02  0.41620714254E+03  0.41723293714E+03  0.25500000000E-02 0.  1.
         -2    1    1    2  502    0 -0.22571925718E+02  0.18586190961E+02  0.98576677055E+03  0.98620031649E+03  0.25500000000E-02 0.  1.
<mgrwt>
<rscale>  0 0.63984720E+02</rscale>
<asrwt>0</asrwt>
<pdfrwt beam="1">  1        2 0.21579851E+00 0.63984720E+02</pdfrwt>
<pdfrwt beam="2">  1       -2 0.11225803E-03 0.63984720E+02</pdfrwt>
<totfact> 0.60320670E+05</totfact>
</mgrwt>
</event>
<event>
 4    1  0.4837985E-002  0.5156337E+02  0.7818608E-02  0.1437087E+00
          2   -1    0    0    0  501  0.00000000000E+00  0.00000000000E+00  0.11450910292E+04  0.11450910292E+04  0.25500000000E-02 0. -1.
         -2   -1    0    0  501    0 -0.00000000000E+00 -0.00000000000E+00 -0.58047097340E+00  0.58047657442E+00  0.25500000000E-02 0. -1.
          2    1    1    2    0  502  0.16647588095E+02 -0.19014076945E+02  0.45892244929E+03  0.45961776704E+03  0.25500000000E-02 0.  1.
         -2    1    1    2  502    0 -0.16647588095E+02  0.19014076945E+02  0.68558810897E+03  0.68605373877E+03  0.25500000000E-02 0.  1.
<mgrwt>
<rscale>  0 0.51563371E+02</rscale>
<asrwt>0</asrwt>
<pdfrwt beam="1">  1        2 0.17616631E+00 0.51563371E+02</pdfrwt>
<pdfrwt beam="2">  1       -2 0.89304440E-04 0.51563371E+02</pdfrwt>
<totfact> 0.10717955E+06</totfact>
</mgrwt>
</event>
<event>
 4    1  0.4837985E-002  0.4332161E+02  0.7818608E-02  0.1485100E+00
         -2   -1    0    0  501    0 -0.00000000000E+00  0.00000000000E+00  0.85827776568E+00  0.85828155378E+00  0.25500000000E-02 0.  1.
          2   -1    0    0    0  501  0.00000000000E+00 -0.00000000000E+00 -0.54666385726E+03  0.54666385727E+03  0.25500000000E-02 0.  1.
          2    1    1    2    0  502 -0.16923257244E+01  0.21589953677E+02 -0.26724501088E+03  0.26812102848E+03  0.25500000000E-02 0. -1.
         -2    1    1    2  502    0  0.16923257244E+01 -0.21589953677E+02 -0.27856056861E+03  0.27940111034E+03  0.25500000000E-02 0. -1.
<mgrwt>
<rscale>  0 0.43321610E+02</rscale>
<asrwt>0</asrwt>
<pdfrwt beam="2">  1        2 0.84101854E-01 0.43321610E+02</pdfrwt>
<pdfrwt beam="1">  1       -2 0.13204346E-03 0.43321610E+02</pdfrwt>
<totfact> 0.14660282E+06</totfact>
</mgrwt>
</event>
<event>
 4    1  0.4837985E-002  0.4025932E+02  0.7818608E-02  0.1506312E+00
         -2   -1    0    0  501    0 -0.00000000000E+00  0.00000000000E+00  0.35292967980E+01  0.35292977192E+01  0.25500000000E-02 0.  1.
          2   -1    0    0    0  501  0.00000000000E+00 -0.00000000000E+00 -0.11481128480E+03  0.11481128482E+03  0.25500000000E-02 0.  1.
          2    1    1    2    0  502 -0.20104663107E+02  0.58967535678E+00 -0.58025316555E+02  0.61412397474E+02  0.25500000000E-02 0.  1.
         -2    1    1    2  502    0  0.20104663107E+02 -0.58967535678E+00 -0.53256671443E+02  0.56928185070E+02  0.25500000000E-02 0.  1.
<mgrwt>
<rscale>  0 0.40259317E+02</rscale>
<asrwt>0</asrwt>
<pdfrwt beam="2">  1        2 0.17663272E-01 0.40259317E+02</pdfrwt>
<pdfrwt beam="1">  1       -2 0.54296890E-03 0.40259317E+02</pdfrwt>
<totfact> 0.10657851E+06</totfact>
</mgrwt>
</event>
<event>
 4    1  0.4837985E-002  0.6560554E+02  0.7818608E-02  0.1375708E+00
          2   -1    0    0    0  501  0.00000000000E+00  0.00000000000E+00  0.18055648170E+02  0.18055648350E+02  0.25500000000E-02 0. -1.
         -2   -1    0    0  501    0 -0.00000000000E+00 -0.00000000000E+00 -0.59594748526E+02  0.59594748581E+02  0.25500000000E-02 0. -1.
          2    1    1    2    0  502  0.31680434450E+01 -0.28394726607E+02 -0.39844344732E+02  0.49029264852E+02  0.25500000000E-02 0. -1.
         -2    1    1    2  502    0 -0.31680434450E+01  0.28394726607E+02 -0.16947556250E+01  0.28621132079E+02  0.25500000000E-02 0. -1.
<mgrwt>
<rscale>  0 0.65605543E+02</rscale>
<asrwt>0</asrwt>
<pdfrwt beam="1">  1        2 0.27777921E-02 0.65605543E+02</pdfrwt>
<pdfrwt beam="2">  1       -2 0.91684228E-02 0.65605543E+02</pdfrwt>
<totfact> 0.20440634E+05</totfact>
</mgrwt>
</event>
<event>
 4    1  0.4837985E-002  0.6070871E+02  0.7818608E-02  0.1394881E+00
          2   -1    0    0    0  501  0.00000000000E+00  0.00000000000E+00  0.80403146272E+03  0.80403146272E+03  0.25500000000E-02 0. -1.
         -2   -1    0    0  501    0 -0.00000000000E+00 -0.00000000000E+00 -0.11459571751E+01  0.11459600122E+01  0.25500000000E-02 0. -1.
          2    1    1    2    0  502  0.21166985528E+02 -0.32846304170E+01  0.11619443633E+03  0.11815234705E+03  0.25500000000E-02 0. -1.
         -2    1    1    2  502    0 -0.21166985528E+02  0.32846304170E+01  0.68669106921E+03  0.68702507568E+03  0.25500000000E-02 0. -1.
<mgrwt>
<rscale>  0 0.60708707E+02</rscale>
<asrwt>0</asrwt>
<pdfrwt beam="1">  1        2 0.12369713E+00 0.60708707E+02</pdfrwt>
<pdfrwt beam="2">  1       -2 0.17630135E-03 0.60708707E+02</pdfrwt>
<totfact> 0.69666232E+05</totfact>
</mgrwt>
</event>
<event>
 4    1  0.4837985E-002  0.4200605E+02  0.7818608E-02  0.1493947E+00
         -2   -1    0    0  501    0 -0.00000000000E+00  0.00000000000E+00  0.16670555989E+03  0.16670555991E+03  0.25500000000E-02 0. -1.
          2   -1    0    0    0  501  0.00000000000E+00 -0.00000000000E+00 -0.26461442273E+01  0.26461454559E+01  0.25500000000E-02 0. -1.
          2    1    1    2    0  502  0.17649375525E+02  0.11370464642E+02  0.84377511678E+02  0.86950286981E+02  0.25500000000E-02 0.  1.
         -2    1    1    2  502    0 -0.17649375525E+02 -0.11370464642E+02  0.79681903982E+02  0.82401418382E+02  0.25500000000E-02 0.  1.
<mgrwt>
<rscale>  0 0.42006050E+02</rscale>
<asrwt>0</asrwt>
<pdfrwt beam="2">  1        2 0.40709918E-03 0.42006050E+02</pdfrwt>
<pdfrwt beam="1">  1       -2 0.25647011E-01 0.42006050E+02</pdfrwt>
<totfact> 0.46218964E+05</totfact>
</mgrwt>
</event>
<event>
 4    1  0.4837985E-002  0.1169062E+03  0.7818608E-02  0.1248290E+00
          2   -1    0    0    0  501  0.00000000000E+00  0.00000000000E+00  0.97888088231E+03  0.97888088231E+03  0.25500000000E-02 0. -1.
         -2   -1    0    0  501    0 -0.00000000000E+00 -0.00000000000E+00 -0.34904778411E+01  0.34904787726E+01  0.25500000000E-02 0. -1.
          2    1    1    2    0  502 -0.31786606244E+02  0.36604428587E+02  0.21327461686E+03  0.21871519091E+03  0.25500000000E-02 0.  1.
         -2    1    1    2  502    0  0.31786606244E+02 -0.36604428587E+02  0.76211578761E+03  0.76365617018E+03  0.25500000000E-02 0.  1.
<mgrwt>
<rscale>  0 0.11690616E+03</rscale>
<asrwt>0</asrwt>
<pdfrwt beam="1">  1        2 0.15059722E+00 0.11690616E+03</pdfrwt>
<pdfrwt beam="2">  1       -2 0.53699608E-03 0.11690616E+03</pdfrwt>
<totfact> 0.12874983E+05</totfact>
</mgrwt>
</event>
<event>
 4    1  0.4837985E-002  0.6679264E+02  0.7818608E-02  0.1371352E+00
         -2   -1    0    0  501    0 -0.00000000000E+00  0.00000000000E+00  0.11157362707E+03  0.11157362710E+03  0.25500000000E-02 0. -1.
          2   -1    0    0    0  501  0.00000000000E+00 -0.00000000000E+00 -0.99962163925E+01  0.99962167177E+01  0.25500000000E-02 0. -1.
          2    1    1    2    0  502 -0.13410868453E+02  0.25863693643E+02  0.80503450758E+02  0.85613010881E+02  0.25500000000E-02 0. -1.
         -2    1    1    2  502    0  0.13410868453E+02 -0.25863693643E+02  0.21073959916E+02  0.35956832933E+02  0.25500000000E-02 0. -1.
<mgrwt>
<rscale>  0 0.66792639E+02</rscale>
<asrwt>0</asrwt>
<pdfrwt beam="2">  1        2 0.15378795E-02 0.66792639E+02</pdfrwt>
<pdfrwt beam="1">  1       -2 0.17165173E-01 0.66792639E+02</pdfrwt>
<totfact> 0.16788245E+05</totfact>
</mgrwt>
</event>
<event>
 4    1  0.4837985E-002  0.5066503E+02  0.7818608E-02  0.1441787E+00
         -2   -1    0    0  501    0 -0.00000000000E+00  0.00000000000E+00  0.49359014403E+01  0.49359020990E+01  0.25500000000E-02 0. -1.
          2   -1    0    0    0  501  0.00000000000E+00 -0.00000000000E+00 -0.13001398087E+03  0.13001398090E+03  0.25500000000E-02 0. -1.
          2    1    1    2    0  502  0.19253539085E+02  0.65202070928E+01 -0.10280429816E+03  0.10479473076E+03  0.25500000000E-02 0.  1.
         -2    1    1    2  502    0 -0.19253539085E+02 -0.65202070928E+01 -0.22273781267E+02  0.30155152234E+02  0.25500000000E-02 0.  1.
<mgrwt>
<rscale>  0 0.50665027E+02</rscale>
<asrwt>0</asrwt>
<pdfrwt beam="2">  1        2 0.20002148E-01 0.50665027E+02</pdfrwt>
<pdfrwt beam="1">  1       -2 0.75936960E-03 0.50665027E+02</pdfrwt>
<totfact> 0.62248155E+05</totfact>
</mgrwt>
</event>
<event>
 4    1  0.4837985E-002  0.4250643E+02  0.7818608E-02  0.1490537E+00
         -2   -1    0    0  501    0 -0.00000000000E+00  0.00000000000E+00  0.52618698402E+00  0.52619316287E+00  0.25500000000E-02 0. -1.
          2   -1    0    0    0  501  0.00000000000E+00 -0.00000000000E+00 -0.85843325828E+03  0.85843325828E+03  0.25500000000E-02 0. -1.
          2    1    1    2    0  502 -0.98211650596E+01  0.18504045750E+02 -0.50137533288E+03  0.50181279320E+03  0.25500000000E-02 0.  1.
         -2    1    1    2  502    0  0.98211650596E+01 -0.18504045750E+02 -0.35653173841E+03  0.35714665824E+03  0.25500000000E-02 0.  1.
<mgrwt>
<rscale>  0 0.42506426E+02</rscale>
<asrwt>0</asrwt>
<pdfrwt beam="2">  1        2 0.13206553E+00 0.42506426E+02</pdfrwt>
<pdfrwt beam="1">  1       -2 0.80953006E-04 0.42506426E+02</pdfrwt>
<totfact> 0.16978287E+06</totfact>
</mgrwt>
</event>
<event>
 4    1  0.4837985E-002  0.4412186E+02  0.7818608E-02  0.1479899E+00
         -2   -1    0    0  501    0 -0.00000000000E+00  0.00000000000E+00  0.71434401663E+03  0.71434401664E+03  0.25500000000E-02 0. -1.
          2   -1    0    0    0  501  0.00000000000E+00 -0.00000000000E+00 -0.68130053426E+00  0.68130530637E+00  0.25500000000E-02 0. -1.
          2    1    1    2    0  502 -0.34082702647E+00  0.21186923764E+02  0.45631208377E+03  0.45680380877E+03  0.25500000000E-02 0. -1.
         -2    1    1    2  502    0  0.34082702647E+00 -0.21186923764E+02  0.25735063233E+03  0.25822151318E+03  0.25500000000E-02 0. -1.
<mgrwt>
<rscale>  0 0.44121862E+02</rscale>
<asrwt>0</asrwt>
<pdfrwt beam="2">  1        2 0.10481653E-03 0.44121862E+02</pdfrwt>
<pdfrwt beam="1">  1       -2 0.10989835E+00 0.44121862E+02</pdfrwt>
<totfact> 0.16507016E+05</totfact>
</mgrwt>
</event>
<event>
 4    1  0.4837985E-002  0.9073455E+02  0.7818608E-02  0.1301083E+00
          2   -1    0    0    0  501  0.00000000000E+00  0.00000000000E+00  0.11066057592E+04  0.11066057593E+04  0.25500000000E-02 0. -1.
         -2   -1    0    0  501    0 -0.00000000000E+00 -0.00000000000E+00 -0.18599112970E+01  0.18599130451E+01  0.25500000000E-02 0. -1.
          2    1    1    2    0  502 -0.39033235643E+02  0.99851204817E+01  0.80713863736E+03  0.80814359865E+03  0.25500000000E-02 0.  1.
         -2    1    1    2  502    0  0.39033235643E+02 -0.99851204817E+01  0.29760721060E+03  0.30032207365E+03  0.25500000000E-02 0.  1.
<mgrwt>
<rscale>  0 0.90734547E+02</rscale>
<asrwt>0</asrwt>
<pdfrwt beam="1">  1        2 0.17024672E+00 0.90734547E+02</pdfrwt>
<pdfrwt beam="2">  1       -2 0.28614087E-03 0.90734547E+02</pdfrwt>
<totfact> 0.25336203E+05</totfact>
</mgrwt>
</event>
<event>
 4    1  0.4837985E-002  0.2067266E+03  0.7818608E-02  0.1144185E+00
          2   -1    0    0    0  501  0.00000000000E+00  0.00000000000E+00  0.87431723370E+03  0.87431723370E+03  0.25500000000E-02 0.  1.
         -2   -1    0    0  501    0 -0.00000000000E+00 -0.00000000000E+00 -0.12219794249E+02  0.12219794515E+02  0.25500000000E-02 0.  1.
          2    1    1    2    0  502 -0.70115415616E+02  0.35474745152E+02  0.71902537302E+03  0.72330637776E+03  0.25500000000E-02 0.  1.
         -2    1    1    2  502    0  0.70115415616E+02 -0.35474745152E+02  0.14307206643E+03  0.16323065046E+03  0.25500000000E-02 0.  1.
<mgrwt>
<rscale>  0 0.20672665E+03</rscale>
<asrwt>0</asrwt>
<pdfrwt beam="1">  1        2 0.13451036E+00 0.20672665E+03</pdfrwt>
<pdfrwt beam="2">  1       -2 0.18799681E-02 0.20672665E+03</pdfrwt>
<totfact> 0.26163935E+04</totfact>
</mgrwt>
</event>
<event>
 4    1  0.4837985E-002  0.6223771E+02  0.7818608E-02  0.1388674E+00
          2   -1    0    0    0  501  0.00000000000E+00  0.00000000000E+00  0.37359098051E+02  0.37359098138E+02  0.25500000000E-02 0. -1.
         -2   -1    0    0  501    0 -0.00000000000E+00 -0.00000000000E+00 -0.25920946563E+02  0.25920946688E+02  0.25500000000E-02 0. -1.
          2    1    1    2    0  502  0.18364402506E+02 -0.11236806485E+02 -0.17126455422E+02  0.27510590346E+02  0.25500000000E-02 0. -1.
         -2    1    1    2  502    0 -0.18364402506E+02  0.11236806485E+02  0.28564606910E+02  0.35769454480E+02  0.25500000000E-02 0. -1.
<mgrwt>
<rscale>  0 0.62237712E+02</rscale>
<asrwt>0</asrwt>
<pdfrwt beam="1">  1        2 0.57475536E-02 0.62237712E+02</pdfrwt>
<pdfrwt beam="2">  1       -2 0.39878379E-02 0.62237712E+02</pdfrwt>
<totfact> 0.27280513E+05</totfact>
</mgrwt>
</event>
<event>
 4    1  0.4837985E-002  0.4212362E+02  0.7818608E-02  0.1493141E+00
         -2   -1    0    0  501    0 -0.00000000000E+00  0.00000000000E+00  0.18470834920E+00  0.18472595044E+00  0.25500000000E-02 0. -1.
          2   -1    0    0    0  501  0.00000000000E+00 -0.00000000000E+00 -0.24015088321E+04  0.24015088321E+04  0.25500000000E-02 0. -1.
          2    1    1    2    0  502 -0.19003336496E+02 -0.89780544339E+01 -0.12785794340E+04  0.12787521657E+04  0.25500000000E-02 0. -1.
         -2    1    1    2  502    0  0.19003336496E+02  0.89780544339E+01 -0.11227446897E+04  0.11229413923E+04  0.25500000000E-02 0. -1.
<mgrwt>
<rscale>  0 0.42123621E+02</rscale>
<asrwt>0</asrwt>
<pdfrwt beam="2">  1        2 0.36943790E+00 0.42123621E+02</pdfrwt>
<pdfrwt beam="1">  1       -2 0.28419946E-04 0.42123621E+02</pdfrwt>
<totfact> 0.11426159E+06</totfact>
</mgrwt>
</event>
<event>
 4    1  0.4837985E-002  0.5108101E+02  0.7818608E-02  0.1439597E+00
          2   -1    0    0    0  501  0.00000000000E+00  0.00000000000E+00  0.23665279613E+02  0.23665279750E+02  0.25500000000E-02 0. -1.
         -2   -1    0    0  501    0 -0.00000000000E+00 -0.00000000000E+00 -0.27564317280E+02  0.27564317398E+02  0.25500000000E-02 0. -1.
          2    1    1    2    0  502  0.25237473508E+02 -0.34957927561E+01 -0.16483688271E+00  0.25478968067E+02  0.25500000000E-02 0. -1.
         -2    1    1    2  502    0 -0.25237473508E+02  0.34957927561E+01 -0.37342007839E+01  0.25750629081E+02  0.25500000000E-02 0. -1.
<mgrwt>
<rscale>  0 0.51081006E+02</rscale>
<asrwt>0</asrwt>
<pdfrwt beam="1">  1        2 0.36408123E-02 0.51081006E+02</pdfrwt>
<pdfrwt beam="2">  1       -2 0.42406642E-02 0.51081006E+02</pdfrwt>
<totfact> 0.42721569E+05</totfact>
</mgrwt>
</event>
<event>
 4    1  0.4837985E-002  0.4923536E+02  0.7818608E-02  0.1449510E+00
          2   -1    0    0    0  501  0.00000000000E+00  0.00000000000E+00  0.78239726199E+03  0.78239726199E+03  0.25500000000E-02 0. -1.
         -2   -1    0    0  501    0 -0.00000000000E+00 -0.00000000000E+00 -0.77457906735E+00  0.77458326478E+00  0.25500000000E-02 0. -1.
          2    1    1    2    0  502 -0.20315811576E+02  0.31847398757E+01  0.60608446896E+03  0.60643322658E+03  0.25500000000E-02 0.  1.
         -2    1    1    2  502    0  0.20315811576E+02 -0.31847398757E+01  0.17553821395E+03  0.17673861868E+03  0.25500000000E-02 0.  1.
<mgrwt>
<rscale>  0 0.49235361E+02</rscale>
<asrwt>0</asrwt>
<pdfrwt beam="1">  1        2 0.12036859E+00 0.49235361E+02</pdfrwt>
<pdfrwt beam="2">  1       -2 0.11916655E-03 0.49235361E+02</pdfrwt>
<totfact> 0.11689123E+06</totfact>
</mgrwt>
</event>
<event>
 4    1  0.4837985E-002  0.7423270E+02  0.7818608E-02  0.1346264E+00
          2   -1    0    0    0  501  0.00000000000E+00  0.00000000000E+00  0.41088398865E+01  0.41088406778E+01  0.25500000000E-02 0.  1.
         -2   -1    0    0  501    0 -0.00000000000E+00 -0.00000000000E+00 -0.33528276250E+03  0.33528276251E+03  0.25500000000E-02 0.  1.
          2    1    1    2    0  502  0.11619463315E+02  0.28926914403E+02 -0.25769254537E+03  0.25957123541E+03  0.25500000000E-02 0.  1.
         -2    1    1    2  502    0 -0.11619463315E+02 -0.28926914403E+02 -0.73481377244E+02  0.79820367781E+02  0.25500000000E-02 0.  1.
<mgrwt>
<rscale>  0 0.74232697E+02</rscale>
<asrwt>0</asrwt>
<pdfrwt beam="1">  1        2 0.63212954E-03 0.74232697E+02</pdfrwt>
<pdfrwt beam="2">  1       -2 0.51581942E-01 0.74232697E+02</pdfrwt>
<totfact> 0.80966172E+04</totfact>
</mgrwt>
</event>
<event>
 4    1  0.4837985E-002  0.4976580E+02  0.7818608E-02  0.1446609E+00
          2   -1    0    0    0  501  0.00000000000E+00  0.00000000000E+00  0.16065568605E+04  0.16065568605E+04  0.25500000000E-02 0.  1.
         -2   -1    0    0  501    0 -0.00000000000E+00 -0.00000000000E+00 -0.38539059359E+00  0.38539902975E+00  0.25500000000E-02 0.  1.
          2    1    1    2    0  502  0.17221065935E+02  0.17060471174E+02  0.62176058512E+03  0.62223295477E+03  0.25500000000E-02 0. -1.
         -2    1    1    2  502    0 -0.17221065935E+02 -0.17060471174E+02  0.98441088476E+03  0.98470930474E+03  0.25500000000E-02 0. -1.
<mgrwt>
<rscale>  0 0.49765799E+02</rscale>
<asrwt>0</asrwt>
<pdfrwt beam="1">  1        2 0.24716633E+00 0.49765799E+02</pdfrwt>
<pdfrwt beam="2">  1       -2 0.59290615E-04 0.49765799E+02</pdfrwt>
<totfact> 0.10778559E+06</totfact>
</mgrwt>
</event>
<event>
 4    1  0.4837985E-002  0.7333366E+02  0.7818608E-02  0.1349110E+00
          2   -1    0    0    0  501  0.00000000000E+00  0.00000000000E+00  0.68123088984E+03  0.68123088985E+03  0.25500000000E-02 0.  1.
         -2   -1    0    0  501    0 -0.00000000000E+00 -0.00000000000E+00 -0.19735686079E+01  0.19735702553E+01  0.25500000000E-02 0.  1.
          2    1    1    2    0  502 -0.85704341525E+01  0.35651122937E+02  0.33999527594E+03  0.34196672730E+03  0.25500000000E-02 0. -1.
         -2    1    1    2  502    0  0.85704341525E+01 -0.35651122937E+02  0.33926204529E+03  0.34123773280E+03  0.25500000000E-02 0. -1.
<mgrwt>
<rscale>  0 0.73333661E+02</rscale>
<asrwt>0</asrwt>
<pdfrwt beam="1">  1        2 0.10480481E+00 0.73333661E+02</pdfrwt>
<pdfrwt beam="2">  1       -2 0.30362591E-03 0.73333661E+02</pdfrwt>
<totfact> 0.41585102E+05</totfact>
</mgrwt>
</event>
<event>
 4    1  0.4837985E-002  0.5018781E+02  0.7818608E-02  0.1444331E+00
         -2   -1    0    0  501    0 -0.00000000000E+00  0.00000000000E+00  0.29936107665E+01  0.29936118526E+01  0.25500000000E-02 0. -1.
          2   -1    0    0    0  501  0.00000000000E+00 -0.00000000000E+00 -0.21034927325E+03  0.21034927327E+03  0.25500000000E-02 0. -1.
          2    1    1    2    0  502 -0.77200532576E+01  0.22347228098E+02 -0.13942227148E+03  0.14141275620E+03  0.25500000000E-02 0.  1.
         -2    1    1    2  502    0  0.77200532576E+01 -0.22347228098E+02 -0.67933391007E+02  0.71930128918E+02  0.25500000000E-02 0.  1.
<mgrwt>
<rscale>  0 0.50187806E+02</rscale>
<asrwt>0</asrwt>
<pdfrwt beam="2">  1        2 0.32361415E-01 0.50187806E+02</pdfrwt>
<pdfrwt beam="1">  1       -2 0.46055575E-03 0.50187806E+02</pdfrwt>
<totfact> 0.74169060E+05</totfact>
</mgrwt>
</event>
<event>
 4    1  0.4837985E-002  0.6096622E+02  0.7818608E-02  0.1393821E+00
          2   -1    0    0    0  501  0.00000000000E+00  0.00000000000E+00  0.26886733718E+01  0.26886745810E+01  0.25500000000E-02 0. -1.
         -2   -1    0    0  501    0 -0.00000000000E+00 -0.00000000000E+00 -0.34560531796E+03  0.34560531797E+03  0.25500000000E-02 0. -1.
          2    1    1    2    0  502  0.11404661720E+02  0.18933632623E+02 -0.29138452286E+03  0.29222164348E+03  0.25500000000E-02 0.  1.
         -2    1    1    2  502    0 -0.11404661720E+02 -0.18933632623E+02 -0.51532121734E+02  0.56072349069E+02  0.25500000000E-02 0.  1.
<mgrwt>
<rscale>  0 0.60966221E+02</rscale>
<asrwt>0</asrwt>
<pdfrwt beam="1">  1        2 0.41364242E-03 0.60966221E+02</pdfrwt>
<pdfrwt beam="2">  1       -2 0.53170014E-01 0.60966221E+02</pdfrwt>
<totfact> 0.13074506E+05</totfact>
</mgrwt>
</event>
<event>
 4    1  0.4837985E-002  0.4997625E+02  0.7818608E-02  0.1445470E+00
          2   -1    0    0    0  501  0.00000000000E+00  0.00000000000E+00  0.16478270730E+02  0.16478270927E+02  0.25500000000E-02 0. -1.
         -2   -1    0    0  501    0 -0.00000000000E+00 -0.00000000000E+00 -0.37892717490E+02  0.37892717576E+02  0.25500000000E-02 0. -1.
          2    1    1    2    0  502  0.24670853908E+02 -0.33033651331E+01 -0.13101475941E+02  0.28128489687E+02  0.25500000000E-02 0.  1.
         -2    1    1    2  502    0 -0.24670853908E+02  0.33033651331E+01 -0.83129708191E+01  0.26242498816E+02  0.25500000000E-02 0.  1.
<mgrwt>
<rscale>  0 0.49976253E+02</rscale>
<asrwt>0</asrwt>
<pdfrwt beam="1">  1        2 0.25351186E-02 0.49976253E+02</pdfrwt>
<pdfrwt beam="2">  1       -2 0.58296488E-02 0.49976253E+02</pdfrwt>
<totfact> 0.42753977E+05</totfact>
</mgrwt>
</event>
<event>
 4    1  0.4837985E-002  0.5506535E+02  0.7818608E-02  0.1419790E+00
         -2   -1    0    0  501    0 -0.00000000000E+00  0.00000000000E+00  0.64144298442E+00  0.64144805305E+00  0.25500000000E-02 0. -1.
          2   -1    0    0    0  501  0.00000000000E+00 -0.00000000000E+00 -0.11817811074E+04  0.11817811075E+04  0.25500000000E-02 0. -1.
          2    1    1    2    0  502  0.16006586004E+02  0.21704397187E+02 -0.70965647037E+03  0.71016871066E+03  0.25500000000E-02 0. -1.
         -2    1    1    2  502    0 -0.16006586004E+02 -0.21704397187E+02 -0.47148319409E+03  0.47225384485E+03  0.25500000000E-02 0. -1.
<mgrwt>
<rscale>  0 0.55065350E+02</rscale>
<asrwt>0</asrwt>
<pdfrwt beam="2">  1        2 0.18181074E+00 0.55065350E+02</pdfrwt>
<pdfrwt beam="1">  1       -2 0.98684872E-04 0.55065350E+02</pdfrwt>
<totfact> 0.90808283E+05</totfact>
</mgrwt>
</event>
<event>
 4    1  0.4837985E-002  0.6147333E+02  0.7818608E-02  0.1391751E+00
         -2   -1    0    0  501    0 -0.00000000000E+00  0.00000000000E+00  0.93827675302E+01  0.93827678767E+01  0.25500000000E-02 0. -1.
          2   -1    0    0    0  501  0.00000000000E+00 -0.00000000000E+00 -0.10068910170E+03  0.10068910173E+03  0.25500000000E-02 0. -1.
          2    1    1    2    0  502  0.19162488940E+02 -0.21683504929E+02 -0.27099694687E+02  0.39645539812E+02  0.25500000000E-02 0.  1.
         -2    1    1    2  502    0 -0.19162488940E+02  0.21683504929E+02 -0.64206639484E+02  0.70426329798E+02  0.25500000000E-02 0.  1.
<mgrwt>
<rscale>  0 0.61473326E+02</rscale>
<asrwt>0</asrwt>
<pdfrwt beam="2">  1        2 0.15490630E-01 0.61473326E+02</pdfrwt>
<pdfrwt beam="1">  1       -2 0.14435028E-02 0.61473326E+02</pdfrwt>
<totfact> 0.35292383E+05</totfact>
</mgrwt>
</event>
<event>
 4    1  0.4837985E-002  0.5290484E+02  0.7818608E-02  0.1430275E+00
          2   -1    0    0    0  501  0.00000000000E+00  0.00000000000E+00  0.39567567841E+02  0.39567567923E+02  0.25500000000E-02 0. -1.
         -2   -1    0    0  501    0 -0.00000000000E+00 -0.00000000000E+00 -0.17684445462E+02  0.17684445646E+02  0.25500000000E-02 0. -1.
          2    1    1    2    0  502 -0.23861957985E+00  0.23819967257E+02 -0.15049295498E+01  0.23868653059E+02  0.25500000000E-02 0. -1.
         -2    1    1    2  502    0  0.23861957985E+00 -0.23819967257E+02  0.23388051929E+02  0.33383360510E+02  0.25500000000E-02 0. -1.
<mgrwt>
<rscale>  0 0.52904839E+02</rscale>
<asrwt>0</asrwt>
<pdfrwt beam="1">  1        2 0.60873181E-02 0.52904839E+02</pdfrwt>
<pdfrwt beam="2">  1       -2 0.27206840E-02 0.52904839E+02</pdfrwt>
<totfact> 0.42443547E+05</totfact>
</mgrwt>
</event>
<event>
 4    1  0.4837985E-002  0.9561441E+02  0.7818608E-02  0.1289798E+00
         -2   -1    0    0  501    0 -0.00000000000E+00  0.00000000000E+00  0.19025833818E+01  0.19025850906E+01  0.25500000000E-02 0.  1.
          2   -1    0    0    0  501  0.00000000000E+00 -0.00000000000E+00 -0.12012760446E+04  0.12012760446E+04  0.25500000000E-02 0.  1.
          2    1    1    2    0  502 -0.46858166214E+02 -0.34221065021E+01 -0.71091534526E+03  0.71246615827E+03  0.25500000000E-02 0. -1.
         -2    1    1    2  502    0  0.46858166214E+02  0.34221065021E+01 -0.48845811591E+03  0.49071247137E+03  0.25500000000E-02 0. -1.
<mgrwt>
<rscale>  0 0.95614410E+02</rscale>
<asrwt>0</asrwt>
<pdfrwt beam="2">  1        2 0.18481109E+00 0.95614410E+02</pdfrwt>
<pdfrwt beam="1">  1       -2 0.29270623E-03 0.95614410E+02</pdfrwt>
<totfact> 0.21935054E+05</totfact>
</mgrwt>
</event>
<event>
 4    1  0.4837985E-002  0.5614599E+02  0.7818608E-02  0.1414756E+00
          2   -1    0    0    0  501  0.00000000000E+00  0.00000000000E+00  0.11922516219E+03  0.11922516222E+03  0.25500000000E-02 0. -1.
         -2   -1    0    0  501    0 -0.00000000000E+00 -0.00000000000E+00 -0.66101236985E+01  0.66101241904E+01  0.25500000000E-02 0. -1.
          2    1    1    2    0  502 -0.15928387159E+02  0.22247815585E+02  0.42236988354E+02  0.50325361474E+02  0.25500000000E-02 0. -1.
         -2    1    1    2  502    0  0.15928387159E+02 -0.22247815585E+02  0.70378050141E+02  0.75509924936E+02  0.25500000000E-02 0. -1.
<mgrwt>
<rscale>  0 0.56145992E+02</rscale>
<asrwt>0</asrwt>
<pdfrwt beam="1">  1        2 0.18342332E-01 0.56145992E+02</pdfrwt>
<pdfrwt beam="2">  1       -2 0.10169422E-02 0.56145992E+02</pdfrwt>
<totfact> 0.46748764E+05</totfact>
</mgrwt>
</event>
<event>
 4    1  0.4837985E-002  0.8367827E+02  0.7818608E-02  0.1318926E+00
         -2   -1    0    0  501    0 -0.00000000000E+00  0.00000000000E+00  0.80358335469E+01  0.80358339515E+01  0.25500000000E-02 0. -1.
          2   -1    0    0    0  501  0.00000000000E+00 -0.00000000000E+00 -0.21783838235E+03  0.21783838237E+03  0.25500000000E-02 0. -1.
          2    1    1    2    0  502 -0.32317542659E+02 -0.12615129743E+02 -0.16802999572E+03  0.17157402056E+03  0.25500000000E-02 0. -1.
         -2    1    1    2  502    0  0.32317542659E+02  0.12615129743E+02 -0.41772553083E+02  0.54300195760E+02  0.25500000000E-02 0. -1.
<mgrwt>
<rscale>  0 0.83678265E+02</rscale>
<asrwt>0</asrwt>
<pdfrwt beam="2">  1        2 0.33513593E-01 0.83678265E+02</pdfrwt>
<pdfrwt beam="1">  1       -2 0.12362823E-02 0.83678265E+02</pdfrwt>
<totfact> 0.20068210E+05</totfact>
</mgrwt>
</event>
<event>
 4    1  0.4837985E-002  0.1115041E+03  0.7818608E-02  0.1257810E+00
          2   -1    0    0    0  501  0.00000000000E+00  0.00000000000E+00  0.49367252085E+02  0.49367252151E+02  0.25500000000E-02 0.  1.
         -2   -1    0    0  501    0 -0.00000000000E+00 -0.00000000000E+00 -0.62962556398E+02  0.62962556449E+02  0.25500000000E-02 0.  1.
          2    1    1    2    0  502 -0.46417529295E+02  0.26308516813E+02  0.94950373983E+01  0.54192996083E+02  0.25500000000E-02 0.  1.
         -2    1    1    2  502    0  0.46417529295E+02 -0.26308516813E+02 -0.23090341711E+02  0.58136812517E+02  0.25500000000E-02 0.  1.
<mgrwt>
<rscale>  0 0.11150405E+03</rscale>
<asrwt>0</asrwt>
<pdfrwt beam="1">  1        2 0.75949618E-02 0.11150405E+03</pdfrwt>
<pdfrwt beam="2">  1       -2 0.96865472E-02 0.11150405E+03</pdfrwt>
<totfact> 0.56010955E+04</totfact>
</mgrwt>
</event>
<event>
 4    1  0.4837985E-002  0.1838781E+03  0.7818608E-02  0.1164102E+00
          2   -1    0    0    0  501  0.00000000000E+00  0.00000000000E+00  0.46214207929E+01  0.46214214964E+01  0.25500000000E-02 0.  1.
         -2   -1    0    0  501    0 -0.00000000000E+00 -0.00000000000E+00 -0.18290452293E+04  0.18290452293E+04  0.25500000000E-02 0.  1.
          2    1    1    2    0  502 -0.18651813974E+02  0.29899551758E+02 -0.65402678605E+02  0.74292555045E+02  0.25500000000E-02 0. -1.
         -2    1    1    2  502    0  0.18651813974E+02 -0.29899551758E+02 -0.17590211299E+04  0.17593740957E+04  0.25500000000E-02 0. -1.
<mgrwt>
<rscale>  0 0.18387809E+03</rscale>
<asrwt>0</asrwt>
<pdfrwt beam="1">  1        2 0.71098933E-03 0.18387809E+03</pdfrwt>
<pdfrwt beam="2">  1       -2 0.28139100E+00 0.18387809E+03</pdfrwt>
<totfact> 0.10822221E+03</totfact>
</mgrwt>
</event>
<event>
 4    1  0.4837985E-002  0.4925307E+02  0.7818608E-02  0.1449412E+00
          2   -1    0    0    0  501  0.00000000000E+00  0.00000000000E+00  0.44700351910E+01  0.44700359183E+01  0.25500000000E-02 0.  1.
         -2   -1    0    0  501    0 -0.00000000000E+00 -0.00000000000E+00 -0.13567369557E+03  0.13567369559E+03  0.25500000000E-02 0.  1.
          2    1    1    2    0  502  0.18722176327E+02 -0.90107853409E+01 -0.27987652931E+02  0.34857178055E+02  0.25500000000E-02 0.  1.
         -2    1    1    2  502    0 -0.18722176327E+02  0.90107853409E+01 -0.10321600745E+03  0.10528655345E+03  0.25500000000E-02 0.  1.
<mgrwt>
<rscale>  0 0.49253071E+02</rscale>
<asrwt>0</asrwt>
<pdfrwt beam="1">  1        2 0.68769788E-03 0.49253071E+02</pdfrwt>
<pdfrwt beam="2">  1       -2 0.20872873E-01 0.49253071E+02</pdfrwt>
<totfact> 0.33620346E+05</totfact>
</mgrwt>
</event>
<event>
 4    1  0.4837985E-002  0.5472253E+02  0.7818608E-02  0.1421416E+00
         -2   -1    0    0  501    0 -0.00000000000E+00  0.00000000000E+00  0.28063787046E+02  0.28063787162E+02  0.25500000000E-02 0. -1.
          2   -1    0    0    0  501  0.00000000000E+00 -0.00000000000E+00 -0.26676325993E+02  0.26676326115E+02  0.25500000000E-02 0. -1.
          2    1    1    2    0  502 -0.20614856802E+02 -0.17980604924E+02  0.89999128870E-01  0.27354754263E+02  0.25500000000E-02 0.  1.
         -2    1    1    2  502    0  0.20614856802E+02  0.17980604924E+02  0.12974619239E+01  0.27385359015E+02  0.25500000000E-02 0.  1.
<mgrwt>
<rscale>  0 0.54722527E+02</rscale>
<asrwt>0</asrwt>
<pdfrwt beam="2">  1        2 0.41040502E-02 0.54722527E+02</pdfrwt>
<pdfrwt beam="1">  1       -2 0.43175057E-02 0.54722527E+02</pdfrwt>
<totfact> 0.36261103E+05</totfact>
</mgrwt>
</event>
<event>
 4    1  0.4837985E-002  0.7041486E+02  0.7818608E-02  0.1358688E+00
          2   -1    0    0    0  501  0.00000000000E+00  0.00000000000E+00  0.15328597246E+03  0.15328597248E+03  0.25500000000E-02 0. -1.
         -2   -1    0    0  501    0 -0.00000000000E+00 -0.00000000000E+00 -0.80866045314E+01  0.80866049334E+01  0.25500000000E-02 0. -1.
          2    1    1    2    0  502 -0.18926279502E+02 -0.29680172668E+02  0.74130802814E+02  0.82063954558E+02  0.25500000000E-02 0. -1.
         -2    1    1    2  502    0  0.18926279502E+02  0.29680172668E+02  0.71068565115E+02  0.79308622857E+02  0.25500000000E-02 0. -1.
<mgrwt>
<rscale>  0 0.70414858E+02</rscale>
<asrwt>0</asrwt>
<pdfrwt beam="1">  1        2 0.23582457E-01 0.70414858E+02</pdfrwt>
<pdfrwt beam="2">  1       -2 0.12440930E-02 0.70414858E+02</pdfrwt>
<totfact> 0.28056472E+05</totfact>
</mgrwt>
</event>
<event>
 4    1  0.4837985E-002  0.9570214E+02  0.7818608E-02  0.1289602E+00
         -2   -1    0    0  501    0 -0.00000000000E+00  0.00000000000E+00  0.57229287608E+00  0.57229855715E+00  0.25500000000E-02 0. -1.
          2   -1    0    0    0  501  0.00000000000E+00 -0.00000000000E+00 -0.40009475091E+04  0.40009475091E+04  0.25500000000E-02 0. -1.
          2    1    1    2    0  502 -0.56594869840E+01  0.40667735173E+02 -0.97273718733E+03  0.97360337412E+03  0.25500000000E-02 0. -1.
         -2    1    1    2  502    0  0.56594869840E+01 -0.40667735173E+02 -0.30276380289E+04  0.30279164336E+04  0.25500000000E-02 0. -1.
<mgrwt>
<rscale>  0 0.95702145E+02</rscale>
<asrwt>0</asrwt>
<pdfrwt beam="2">  1        2 0.61550799E+00 0.95702145E+02</pdfrwt>
<pdfrwt beam="1">  1       -2 0.88048699E-04 0.95702145E+02</pdfrwt>
<totfact> 0.30137358E+04</totfact>
</mgrwt>
</event>
<event>
 4    1  0.4837985E-002  0.5432227E+02  0.7818608E-02  0.1423331E+00
         -2   -1    0    0  501    0 -0.00000000000E+00  0.00000000000E+00  0.11801644454E+03  0.11801644457E+03  0.25500000000E-02 0. -1.
          2   -1    0    0    0  501  0.00000000000E+00 -0.00000000000E+00 -0.62510544301E+01  0.62510549502E+01  0.25500000000E-02 0. -1.
          2    1    1    2    0  502  0.14058203938E+02  0.17905789249E+02  0.89772886252E+02  0.92614369831E+02  0.25500000000E-02 0. -1.
         -2    1    1    2  502    0 -0.14058203938E+02 -0.17905789249E+02  0.21992503860E+02  0.31653129689E+02  0.25500000000E-02 0. -1.
<mgrwt>
<rscale>  0 0.54322270E+02</rscale>
<asrwt>0</asrwt>
<pdfrwt beam="2">  1        2 0.96170073E-03 0.54322270E+02</pdfrwt>
<pdfrwt beam="1">  1       -2 0.18156376E-01 0.54322270E+02</pdfrwt>
<totfact> 0.27555931E+05</totfact>
</mgrwt>
</event>
<event>
 4    1  0.4837985E-002  0.6972589E+02  0.7818608E-02  0.1361028E+00
          2   -1    0    0    0  501  0.00000000000E+00  0.00000000000E+00  0.32311972860E+03  0.32311972861E+03  0.25500000000E-02 0. -1.
         -2   -1    0    0  501    0 -0.00000000000E+00 -0.00000000000E+00 -0.37615309465E+01  0.37615318108E+01  0.25500000000E-02 0. -1.
          2    1    1    2    0  502 -0.22587271852E+02 -0.16050651416E+02  0.60493389698E+02  0.66537646969E+02  0.25500000000E-02 0. -1.
         -2    1    1    2  502    0  0.22587271852E+02  0.16050651416E+02  0.25886480795E+03  0.26034361345E+03  0.25500000000E-02 0. -1.
<mgrwt>
<rscale>  0 0.69725892E+02</rscale>
<asrwt>0</asrwt>
<pdfrwt beam="1">  1        2 0.49710746E-01 0.69725892E+02</pdfrwt>
<pdfrwt beam="2">  1       -2 0.57869692E-03 0.69725892E+02</pdfrwt>
<totfact> 0.37339968E+05</totfact>
</mgrwt>
</event>
<event>
 4    1  0.4837985E-002  0.4327822E+02  0.7818608E-02  0.1485386E+00
         -2   -1    0    0  501    0 -0.00000000000E+00  0.00000000000E+00  0.46642564253E+00  0.46643261304E+00  0.25500000000E-02 0. -1.
          2   -1    0    0    0  501  0.00000000000E+00 -0.00000000000E+00 -0.10039063715E+04  0.10039063715E+04  0.25500000000E-02 0. -1.
          2    1    1    2    0  502  0.19804973800E+02  0.79197735262E+01 -0.58632776962E+03  0.58671561530E+03  0.25500000000E-02 0.  1.
         -2    1    1    2  502    0 -0.19804973800E+02 -0.79197735262E+01 -0.41711217625E+03  0.41765718883E+03  0.25500000000E-02 0.  1.
<mgrwt>
<rscale>  0 0.43278224E+02</rscale>
<asrwt>0</asrwt>
<pdfrwt beam="2">  1        2 0.15444541E+00 0.43278224E+02</pdfrwt>
<pdfrwt beam="1">  1       -2 0.71759131E-04 0.43278224E+02</pdfrwt>
<totfact> 0.16486134E+06</totfact>
</mgrwt>
</event>
<event>
 4    1  0.4837985E-002  0.7321931E+02  0.7818608E-02  0.1349476E+00
          2   -1    0    0    0  501  0.00000000000E+00  0.00000000000E+00  0.12652832607E+03  0.12652832610E+03  0.25500000000E-02 0.  1.
         -2   -1    0    0  501    0 -0.00000000000E+00 -0.00000000000E+00 -0.10592621988E+02  0.10592622295E+02  0.25500000000E-02 0.  1.
          2    1    1    2    0  502 -0.35080991890E+02  0.61861813019E+01  0.73783598197E+02  0.81932680906E+02  0.25500000000E-02 0.  1.
         -2    1    1    2  502    0  0.35080991890E+02 -0.61861813019E+01  0.42152105887E+02  0.55188267488E+02  0.25500000000E-02 0.  1.
<mgrwt>
<rscale>  0 0.73219308E+02</rscale>
<asrwt>0</asrwt>
<pdfrwt beam="1">  1        2 0.19465896E-01 0.73219308E+02</pdfrwt>
<pdfrwt beam="2">  1       -2 0.16296342E-02 0.73219308E+02</pdfrwt>
<totfact> 0.23823015E+05</totfact>
</mgrwt>
</event>
<event>
 4    1  0.4837985E-002  0.7889771E+02  0.7818608E-02  0.1332209E+00
         -2   -1    0    0  501    0 -0.00000000000E+00  0.00000000000E+00  0.92364411147E+00  0.92364763148E+00  0.25500000000E-02 0.  1.
          2   -1    0    0    0  501  0.00000000000E+00 -0.00000000000E+00 -0.16848578543E+04  0.16848578543E+04  0.25500000000E-02 0.  1.
          2    1    1    2    0  502  0.78684217663E+01  0.38278645024E+02 -0.95711993926E+03  0.95791739981E+03  0.25500000000E-02 0.  1.
         -2    1    1    2  502    0 -0.78684217663E+01 -0.38278645024E+02 -0.72681427096E+03  0.72786410215E+03  0.25500000000E-02 0.  1.
<mgrwt>
<rscale>  0 0.78897706E+02</rscale>
<asrwt>0</asrwt>
<pdfrwt beam="2">  1        2 0.25920644E+00 0.78897706E+02</pdfrwt>
<pdfrwt beam="1">  1       -2 0.14210071E-03 0.78897706E+02</pdfrwt>
<totfact> 0.32636403E+05</totfact>
</mgrwt>
</event>
<event>
 4    1  0.4837985E-002  0.5138469E+02  0.7818608E-02  0.1438013E+00
         -2   -1    0    0  501    0 -0.00000000000E+00  0.00000000000E+00  0.75273479720E+01  0.75273484040E+01  0.25500000000E-02 0.  1.
          2   -1    0    0    0  501  0.00000000000E+00 -0.00000000000E+00 -0.87693125744E+02  0.87693125781E+02  0.25500000000E-02 0.  1.
          2    1    1    2    0  502 -0.21664260637E+01  0.24185302234E+02 -0.55639406611E+02  0.60707213909E+02  0.25500000000E-02 0. -1.
         -2    1    1    2  502    0  0.21664260637E+01 -0.24185302234E+02 -0.24526371161E+02  0.34513260276E+02  0.25500000000E-02 0. -1.
<mgrwt>
<rscale>  0 0.51384694E+02</rscale>
<asrwt>0</asrwt>
<pdfrwt beam="2">  1        2 0.13491249E-01 0.51384694E+02</pdfrwt>
<pdfrwt beam="1">  1       -2 0.11580536E-02 0.51384694E+02</pdfrwt>
<totfact> 0.54034009E+05</totfact>
</mgrwt>
</event>
<event>
 4    1  0.4837985E-002  0.5092573E+02  0.7818608E-02  0.1440411E+00
         -2   -1    0    0  501    0 -0.00000000000E+00  0.00000000000E+00  0.10111541504E+01  0.10111573657E+01  0.25500000000E-02 0. -1.
          2   -1    0    0    0  501  0.00000000000E+00 -0.00000000000E+00 -0.64120435505E+03  0.64120435505E+03  0.25500000000E-02 0. -1.
          2    1    1    2    0  502  0.88477550800E+01  0.21468386920E+02 -0.18832519582E+03  0.18975129458E+03  0.25500000000E-02 0. -1.
         -2    1    1    2  502    0 -0.88477550800E+01 -0.21468386920E+02 -0.45186800508E+03  0.45246421784E+03  0.25500000000E-02 0. -1.
<mgrwt>
<rscale>  0 0.50925729E+02</rscale>
<asrwt>0</asrwt>
<pdfrwt beam="2">  1        2 0.98646499E-01 0.50925729E+02</pdfrwt>
<pdfrwt beam="1">  1       -2 0.15556294E-03 0.50925729E+02</pdfrwt>
<totfact> 0.10298869E+06</totfact>
</mgrwt>
</event>
<event>
 4    1  0.4837985E-002  0.7401298E+02  0.7818608E-02  0.1346955E+00
          2   -1    0    0    0  501  0.00000000000E+00  0.00000000000E+00  0.21404583460E+03  0.21404583462E+03  0.25500000000E-02 0. -1.
         -2   -1    0    0  501    0 -0.00000000000E+00 -0.00000000000E+00 -0.63980700198E+01  0.63980705279E+01  0.25500000000E-02 0. -1.
          2    1    1    2    0  502 -0.28267001713E+02 -0.23755131227E+02  0.96437182218E+02  0.10326402939E+03  0.25500000000E-02 0.  1.
         -2    1    1    2  502    0  0.28267001713E+02  0.23755131227E+02  0.11121058236E+03  0.11717987575E+03  0.25500000000E-02 0.  1.
<mgrwt>
<rscale>  0 0.74012980E+02</rscale>
<asrwt>0</asrwt>
<pdfrwt beam="1">  1        2 0.32930127E-01 0.74012980E+02</pdfrwt>
<pdfrwt beam="2">  1       -2 0.98431855E-03 0.74012980E+02</pdfrwt>
<totfact> 0.27577449E+05</totfact>
</mgrwt>
</event>
<event>
 4    1  0.4837985E-002  0.4475752E+02  0.7818608E-02  0.1475861E+00
         -2   -1    0    0  501    0 -0.00000000000E+00  0.00000000000E+00  0.30912537063E+01  0.30912547580E+01  0.25500000000E-02 0.  1.
          2   -1    0    0    0  501  0.00000000000E+00 -0.00000000000E+00 -0.16200832120E+03  0.16200832122E+03  0.25500000000E-02 0.  1.
          2    1    1    2    0  502 -0.71522292909E+01 -0.21106054817E+02 -0.87008302417E+02  0.89816839344E+02  0.25500000000E-02 0.  1.
         -2    1    1    2  502    0  0.71522292909E+01  0.21106054817E+02 -0.71908765081E+02  0.75282736638E+02  0.25500000000E-02 0.  1.
<mgrwt>
<rscale>  0 0.44757521E+02</rscale>
<asrwt>0</asrwt>
<pdfrwt beam="2">  1        2 0.24924351E-01 0.44757521E+02</pdfrwt>
<pdfrwt beam="1">  1       -2 0.47557770E-03 0.44757521E+02</pdfrwt>
<totfact> 0.90658808E+05</totfact>
</mgrwt>
</event>
<event>
 4    1  0.4837985E-002  0.9134643E+02  0.7818608E-02  0.1299623E+00
          2   -1    0    0    0  501  0.00000000000E+00  0.00000000000E+00  0.34189654512E+04  0.34189654512E+04  0.25500000000E-02 0. -1.
         -2   -1    0    0  501    0 -0.00000000000E+00 -0.00000000000E+00 -0.61013587474E+00  0.61014120345E+00  0.25500000000E-02 0. -1.
          2    1    1    2    0  502 -0.42244989561E+02  0.88904076596E+01  0.11509479367E+04  0.11517572797E+04  0.25500000000E-02 0. -1.
         -2    1    1    2  502    0  0.42244989561E+02 -0.88904076596E+01  0.22674073786E+04  0.22678183127E+04  0.25500000000E-02 0. -1.
<mgrwt>
<rscale>  0 0.91346430E+02</rscale>
<asrwt>0</asrwt>
<pdfrwt beam="1">  1        2 0.52599086E+00 0.91346430E+02</pdfrwt>
<pdfrwt beam="2">  1       -2 0.93868150E-04 0.91346430E+02</pdfrwt>
<totfact> 0.68331169E+04</totfact>
</mgrwt>
</event>
<event>
 4    1  0.4837985E-002  0.7760450E+02  0.7818608E-02  0.1335990E+00
         -2   -1    0    0  501    0 -0.00000000000E+00  0.00000000000E+00  0.63329134896E+00  0.63329648283E+00  0.25500000000E-02 0.  1.
          2   -1    0    0    0  501  0.00000000000E+00 -0.00000000000E+00 -0.23774342716E+04  0.23774342716E+04  0.25500000000E-02 0.  1.
          2    1    1    2    0  502  0.16365190627E+02  0.27397508729E+02 -0.51203988193E+03  0.51303341377E+03  0.25500000000E-02 0.  1.
         -2    1    1    2  502    0 -0.16365190627E+02 -0.27397508729E+02 -0.18647610983E+04  0.18650341543E+04  0.25500000000E-02 0.  1.
<mgrwt>
<rscale>  0 0.77604501E+02</rscale>
<asrwt>0</asrwt>
<pdfrwt beam="2">  1        2 0.36575197E+00 0.77604501E+02</pdfrwt>
<pdfrwt beam="1">  1       -2 0.97431737E-04 0.77604501E+02</pdfrwt>
<totfact> 0.24542260E+05</totfact>
</mgrwt>
</event>
<event>
 4    1  0.4837985E-002  0.6573794E+02  0.7818608E-02  0.1375217E+00
         -2   -1    0    0  501    0 -0.00000000000E+00  0.00000000000E+00  0.29123478425E+01  0.29123489588E+01  0.25500000000E-02 0.  1.
          2   -1    0    0    0  501  0.00000000000E+00 -0.00000000000E+00 -0.37096153625E+03  0.37096153626E+03  0.25500000000E-02 0.  1.
          2    1    1    2    0  502  0.93724676892E+00 -0.31839168439E+02 -0.13790517384E+03  0.14153603094E+03  0.25500000000E-02 0.  1.
         -2    1    1    2  502    0 -0.93724676892E+00  0.31839168439E+02 -0.23014401457E+03  0.23233785428E+03  0.25500000000E-02 0.  1.
<mgrwt>
<rscale>  0 0.65737942E+02</rscale>
<asrwt>0</asrwt>
<pdfrwt beam="2">  1        2 0.57070968E-01 0.65737942E+02</pdfrwt>
<pdfrwt beam="1">  1       -2 0.44805389E-03 0.65737942E+02</pdfrwt>
<totfact> 0.45636265E+05</totfact>
</mgrwt>
</event>
<event>
 4    1  0.4837985E-002  0.9534939E+02  0.7818608E-02  0.1290391E+00
         -2   -1    0    0  501    0 -0.00000000000E+00  0.00000000000E+00  0.21408690469E+01  0.21408705656E+01  0.25500000000E-02 0.  1.
          2   -1    0    0    0  501  0.00000000000E+00 -0.00000000000E+00 -0.10616603336E+04  0.10616603336E+04  0.25500000000E-02 0.  1.
          2    1    1    2    0  502  0.42028908427E+02 -0.21209309105E+02 -0.61370556815E+03  0.61550856072E+03  0.25500000000E-02 0. -1.
         -2    1    1    2  502    0 -0.42028908427E+02  0.21209309105E+02 -0.44581389636E+03  0.44829264340E+03  0.25500000000E-02 0. -1.
<mgrwt>
<rscale>  0 0.95349390E+02</rscale>
<asrwt>0</asrwt>
<pdfrwt beam="2">  1        2 0.16333194E+00 0.95349390E+02</pdfrwt>
<pdfrwt beam="1">  1       -2 0.32936543E-03 0.95349390E+02</pdfrwt>
<totfact> 0.22245487E+05</totfact>
</mgrwt>
</event>
<event>
 4    1  0.4837985E-002  0.5332063E+02  0.7818608E-02  0.1428212E+00
         -2   -1    0    0  501    0 -0.00000000000E+00  0.00000000000E+00  0.14604689247E+01  0.14604711509E+01  0.25500000000E-02 0. -1.
          2   -1    0    0    0  501  0.00000000000E+00 -0.00000000000E+00 -0.48667378153E+03  0.48667378154E+03  0.25500000000E-02 0. -1.
          2    1    1    2    0  502 -0.49378527403E+01  0.26058320983E+02 -0.21778072642E+03  0.21938975201E+03  0.25500000000E-02 0. -1.
         -2    1    1    2  502    0  0.49378527403E+01 -0.26058320983E+02 -0.26743258619E+03  0.26874450068E+03  0.25500000000E-02 0. -1.
<mgrwt>
<rscale>  0 0.53320633E+02</rscale>
<asrwt>0</asrwt>
<pdfrwt beam="2">  1        2 0.74872760E-01 0.53320633E+02</pdfrwt>
<pdfrwt beam="1">  1       -2 0.22468809E-03 0.53320633E+02</pdfrwt>
<totfact> 0.84891002E+05</totfact>
</mgrwt>
</event>
<event>
 4    1  0.4837985E-002  0.5740698E+02  0.7818608E-02  0.1409047E+00
          2   -1    0    0    0  501  0.00000000000E+00  0.00000000000E+00  0.16711667698E+03  0.16711667700E+03  0.25500000000E-02 0. -1.
         -2   -1    0    0  501    0 -0.00000000000E+00 -0.00000000000E+00 -0.49300296517E+01  0.49300303112E+01  0.25500000000E-02 0. -1.
          2    1    1    2    0  502  0.23570576180E+02 -0.16318931475E+02  0.85342930173E+02  0.90029413655E+02  0.25500000000E-02 0.  1.
         -2    1    1    2  502    0 -0.23570576180E+02  0.16318931475E+02  0.76843717156E+02  0.82017293657E+02  0.25500000000E-02 0.  1.
<mgrwt>
<rscale>  0 0.57406976E+02</rscale>
<asrwt>0</asrwt>
<pdfrwt beam="1">  1        2 0.25710260E-01 0.57406976E+02</pdfrwt>
<pdfrwt beam="2">  1       -2 0.75846610E-03 0.57406976E+02</pdfrwt>
<totfact> 0.48947683E+05</totfact>
</mgrwt>
</event>
<event>
 4    1  0.4837985E-002  0.5025476E+02  0.7818608E-02  0.1443972E+00
         -2   -1    0    0  501    0 -0.00000000000E+00  0.00000000000E+00  0.56296512169E+00  0.56297089688E+00  0.25500000000E-02 0. -1.
          2   -1    0    0    0  501  0.00000000000E+00 -0.00000000000E+00 -0.11215294937E+04  0.11215294937E+04  0.25500000000E-02 0. -1.
          2    1    1    2    0  502 -0.98252258842E+01 -0.21599029134E+02 -0.37591211136E+03  0.37666028274E+03  0.25500000000E-02 0. -1.
         -2    1    1    2  502    0  0.98252258842E+01  0.21599029134E+02 -0.74505441727E+03  0.74543218191E+03  0.25500000000E-02 0. -1.
<mgrwt>
<rscale>  0 0.50254760E+02</rscale>
<asrwt>0</asrwt>
<pdfrwt beam="2">  1        2 0.17254121E+00 0.50254760E+02</pdfrwt>
<pdfrwt beam="1">  1       -2 0.86611361E-04 0.50254760E+02</pdfrwt>
<totfact> 0.11434736E+06</totfact>
</mgrwt>
</event>
<event>
 4    1  0.4837985E-002  0.4541842E+02  0.7818608E-02  0.1471746E+00
          2   -1    0    0    0  501  0.00000000000E+00  0.00000000000E+00  0.31289745427E+01  0.31289755818E+01  0.25500000000E-02 0.  1.
         -2   -1    0    0  501    0 -0.00000000000E+00 -0.00000000000E+00 -0.16481697715E+03  0.16481697717E+03  0.25500000000E-02 0.  1.
          2    1    1    2    0  502  0.93540456373E+01  0.20689138065E+02 -0.79321154704E+02  0.82506873615E+02  0.25500000000E-02 0.  1.
         -2    1    1    2  502    0 -0.93540456373E+01 -0.20689138065E+02 -0.82366847908E+02  0.85439079141E+02  0.25500000000E-02 0.  1.
<mgrwt>
<rscale>  0 0.45418420E+02</rscale>
<asrwt>0</asrwt>
<pdfrwt beam="1">  1        2 0.48138091E-03 0.45418420E+02</pdfrwt>
<pdfrwt beam="2">  1       -2 0.25356451E-01 0.45418420E+02</pdfrwt>
<totfact> 0.38404914E+05</totfact>
</mgrwt>
</event>
<event>
 4    1  0.4837985E-002  0.5370931E+02  0.7818608E-02  0.1426303E+00
          2   -1    0    0    0  501  0.00000000000E+00  0.00000000000E+00  0.14467276117E+02  0.14467276342E+02  0.25500000000E-02 0.  1.
         -2   -1    0    0  501    0 -0.00000000000E+00 -0.00000000000E+00 -0.49848541891E+02  0.49848541956E+02  0.25500000000E-02 0.  1.
          2    1    1    2    0  502  0.25915662220E+02 -0.43375799341E+00 -0.26103976817E+02  0.36786238003E+02  0.25500000000E-02 0.  1.
         -2    1    1    2  502    0 -0.25915662220E+02  0.43375799341E+00 -0.92772889568E+01  0.27529580294E+02  0.25500000000E-02 0.  1.
<mgrwt>
<rscale>  0 0.53709315E+02</rscale>
<asrwt>0</asrwt>
<pdfrwt beam="1">  1        2 0.22257348E-02 0.53709315E+02</pdfrwt>
<pdfrwt beam="2">  1       -2 0.76690064E-02 0.53709315E+02</pdfrwt>
<totfact> 0.34347514E+05</totfact>
</mgrwt>
</event>
<event>
 4    1  0.4837985E-002  0.5540310E+02  0.7818608E-02  0.1418202E+00
         -2   -1    0    0  501    0 -0.00000000000E+00  0.00000000000E+00  0.62410588301E+00  0.62411109244E+00  0.25500000000E-02 0. -1.
          2   -1    0    0    0  501  0.00000000000E+00 -0.00000000000E+00 -0.12295551502E+04  0.12295551502E+04  0.25500000000E-02 0. -1.
          2    1    1    2    0  502 -0.19017186340E+02 -0.18094434181E+02 -0.81096152355E+03  0.81138625488E+03  0.25500000000E-02 0. -1.
         -2    1    1    2  502    0  0.19017186340E+02  0.18094434181E+02 -0.41796952071E+03  0.41879300636E+03  0.25500000000E-02 0. -1.
<mgrwt>
<rscale>  0 0.55403098E+02</rscale>
<asrwt>0</asrwt>
<pdfrwt beam="2">  1        2 0.18916039E+00 0.55403098E+02</pdfrwt>
<pdfrwt beam="1">  1       -2 0.96017675E-04 0.55403098E+02</pdfrwt>
<totfact> 0.89042646E+05</totfact>
</mgrwt>
</event>
<event>
 4    1  0.4837985E-002  0.5699449E+02  0.7818608E-02  0.1410895E+00
          2   -1    0    0    0  501  0.00000000000E+00  0.00000000000E+00  0.19546646844E+02  0.19546647010E+02  0.25500000000E-02 0.  1.
         -2   -1    0    0  501    0 -0.00000000000E+00 -0.00000000000E+00 -0.41546414748E+02  0.41546414826E+02  0.25500000000E-02 0.  1.
          2    1    1    2    0  502  0.27411297540E+02  0.52178355326E+01 -0.17202915084E+02  0.32780258303E+02  0.25500000000E-02 0. -1.
         -2    1    1    2  502    0 -0.27411297540E+02 -0.52178355326E+01 -0.47968528198E+01  0.28312803534E+02  0.25500000000E-02 0. -1.
<mgrwt>
<rscale>  0 0.56994495E+02</rscale>
<asrwt>0</asrwt>
<pdfrwt beam="1">  1        2 0.30071765E-02 0.56994495E+02</pdfrwt>
<pdfrwt beam="2">  1       -2 0.63917561E-02 0.56994495E+02</pdfrwt>
<totfact> 0.30776876E+05</totfact>
</mgrwt>
</event>
<event>
 4    1  0.4837985E-002  0.4444014E+02  0.7818608E-02  0.1477867E+00
         -2   -1    0    0  501    0 -0.00000000000E+00  0.00000000000E+00  0.18532666751E+01  0.18532684294E+01  0.25500000000E-02 0. -1.
          2   -1    0    0    0  501  0.00000000000E+00 -0.00000000000E+00 -0.26641134591E+03  0.26641134592E+03  0.25500000000E-02 0. -1.
          2    1    1    2    0  502 -0.44961860708E+01  0.21625345060E+02 -0.14689227815E+03  0.14854363879E+03  0.25500000000E-02 0. -1.
         -2    1    1    2  502    0  0.44961860708E+01 -0.21625345060E+02 -0.11766580109E+03  0.11972097556E+03  0.25500000000E-02 0. -1.
<mgrwt>
<rscale>  0 0.44440140E+02</rscale>
<asrwt>0</asrwt>
<pdfrwt beam="2">  1        2 0.40986331E-01 0.44440140E+02</pdfrwt>
<pdfrwt beam="1">  1       -2 0.28511830E-03 0.44440140E+02</pdfrwt>
<totfact> 0.10866253E+06</totfact>
</mgrwt>
</event>
<event>
 4    1  0.4837985E-002  0.5001298E+02  0.7818608E-02  0.1445272E+00
         -2   -1    0    0  501    0 -0.00000000000E+00  0.00000000000E+00  0.56082165369E+03  0.56082165370E+03  0.25500000000E-02 0. -1.
          2   -1    0    0    0  501  0.00000000000E+00 -0.00000000000E+00 -0.11150134908E+01  0.11150164067E+01  0.25500000000E-02 0. -1.
          2    1    1    2    0  502  0.23906261413E+02 -0.55844121732E+01  0.22640397193E+03  0.22773109912E+03  0.25500000000E-02 0. -1.
         -2    1    1    2  502    0 -0.23906261413E+02  0.55844121732E+01  0.33330266828E+03  0.33420557099E+03  0.25500000000E-02 0. -1.
<mgrwt>
<rscale>  0 0.50012980E+02</rscale>
<asrwt>0</asrwt>
<pdfrwt beam="2">  1        2 0.17154009E-03 0.50012980E+02</pdfrwt>
<pdfrwt beam="1">  1       -2 0.86280593E-01 0.50012980E+02</pdfrwt>
<totfact> 0.15107800E+05</totfact>
</mgrwt>
</event>
<event>
 4    1  0.4837985E-002  0.4522461E+02  0.7818608E-02  0.1472944E+00
         -2   -1    0    0  501    0 -0.00000000000E+00  0.00000000000E+00  0.53926861675E+00  0.53927464572E+00  0.25500000000E-02 0. -1.
          2   -1    0    0    0  501  0.00000000000E+00 -0.00000000000E+00 -0.94816080200E+03  0.94816080200E+03  0.25500000000E-02 0. -1.
          2    1    1    2    0  502  0.19999211764E+02  0.16892908920E+01 -0.69231361464E+03  0.69260447818E+03  0.25500000000E-02 0.  1.
         -2    1    1    2  502    0 -0.19999211764E+02 -0.16892908920E+01 -0.25530791874E+03  0.25609559846E+03  0.25500000000E-02 0.  1.
<mgrwt>
<rscale>  0 0.45224605E+02</rscale>
<asrwt>0</asrwt>
<pdfrwt beam="2">  1        2 0.14586956E+00 0.45224605E+02</pdfrwt>
<pdfrwt beam="1">  1       -2 0.82965625E-04 0.45224605E+02</pdfrwt>
<totfact> 0.14762497E+06</totfact>
</mgrwt>
</event>
<event>
 4    1  0.4837985E-002  0.5407640E+02  0.7818608E-02  0.1424518E+00
         -2   -1    0    0  501    0 -0.00000000000E+00  0.00000000000E+00  0.62292803754E+02  0.62292803806E+02  0.25500000000E-02 0. -1.
          2   -1    0    0    0  501  0.00000000000E+00 -0.00000000000E+00 -0.11735936123E+02  0.11735936400E+02  0.25500000000E-02 0. -1.
          2    1    1    2    0  502 -0.18639216794E+02  0.19579063078E+02  0.24523318314E+02  0.36498674789E+02  0.25500000000E-02 0. -1.
         -2    1    1    2  502    0  0.18639216794E+02 -0.19579063078E+02  0.26033549317E+02  0.37530065417E+02  0.25500000000E-02 0. -1.
<mgrwt>
<rscale>  0 0.54076404E+02</rscale>
<asrwt>0</asrwt>
<pdfrwt beam="2">  1        2 0.18055287E-02 0.54076404E+02</pdfrwt>
<pdfrwt beam="1">  1       -2 0.95835082E-02 0.54076404E+02</pdfrwt>
<totfact> 0.32396095E+05</totfact>
</mgrwt>
</event>
<event>
 4    1  0.4837985E-002  0.7001892E+02  0.7818608E-02  0.1360029E+00
          2   -1    0    0    0  501  0.00000000000E+00  0.00000000000E+00  0.12155710615E+02  0.12155710883E+02  0.25500000000E-02 0.  1.
         -2   -1    0    0  501    0 -0.00000000000E+00 -0.00000000000E+00 -0.10083015942E+03  0.10083015945E+03  0.25500000000E-02 0.  1.
          2    1    1    2    0  502 -0.31192356110E+02  0.15245659693E+02 -0.37072398329E+02  0.50791297912E+02  0.25500000000E-02 0. -1.
         -2    1    1    2  502    0  0.31192356110E+02 -0.15245659693E+02 -0.51602050477E+02  0.62194572424E+02  0.25500000000E-02 0. -1.
<mgrwt>
<rscale>  0 0.70018919E+02</rscale>
<asrwt>0</asrwt>
<pdfrwt beam="1">  1        2 0.18701094E-02 0.70018919E+02</pdfrwt>
<pdfrwt beam="2">  1       -2 0.15512332E-01 0.70018919E+02</pdfrwt>
<totfact> 0.15358161E+05</totfact>
</mgrwt>
</event>
<event>
 4    1  0.4837985E-002  0.6932154E+02  0.7818608E-02  0.1362415E+00
         -2   -1    0    0  501    0 -0.00000000000E+00  0.00000000000E+00  0.25135579610E+02  0.25135579739E+02  0.25500000000E-02 0. -1.
          2   -1    0    0    0  501  0.00000000000E+00 -0.00000000000E+00 -0.47795553078E+02  0.47795553146E+02  0.25500000000E-02 0. -1.
          2    1    1    2    0  502  0.16424923452E+02 -0.30504649284E+02 -0.12411723651E+02  0.36801666114E+02  0.25500000000E-02 0.  1.
         -2    1    1    2  502    0 -0.16424923452E+02  0.30504649284E+02 -0.10248249817E+02  0.36129466770E+02  0.25500000000E-02 0.  1.
<mgrwt>
<rscale>  0 0.69321539E+02</rscale>
<asrwt>0</asrwt>
<pdfrwt beam="2">  1        2 0.73531620E-02 0.69321539E+02</pdfrwt>
<pdfrwt beam="1">  1       -2 0.38670123E-02 0.69321539E+02</pdfrwt>
<totfact> 0.21432687E+05</totfact>
</mgrwt>
</event>
<event>
 4    1  0.4837985E-002  0.5666493E+02  0.7818608E-02  0.1412385E+00
         -2   -1    0    0  501    0 -0.00000000000E+00  0.00000000000E+00  0.15198633953E+01  0.15198655345E+01  0.25500000000E-02 0.  1.
          2   -1    0    0    0  501  0.00000000000E+00 -0.00000000000E+00 -0.52815805121E+03  0.52815805122E+03  0.25500000000E-02 0.  1.
          2    1    1    2    0  502  0.11603792264E+02  0.22380397757E+02 -0.14245046004E+03  0.14466396846E+03  0.25500000000E-02 0. -1.
         -2    1    1    2  502    0 -0.11603792264E+02 -0.22380397757E+02 -0.38418772778E+03  0.38501394829E+03  0.25500000000E-02 0. -1.
<mgrwt>
<rscale>  0 0.56664933E+02</rscale>
<asrwt>0</asrwt>
<pdfrwt beam="2">  1        2 0.81254939E-01 0.56664933E+02</pdfrwt>
<pdfrwt beam="1">  1       -2 0.23382572E-03 0.56664933E+02</pdfrwt>
<totfact> 0.74764390E+05</totfact>
</mgrwt>
</event>
<event>
 4    1  0.4837985E-002  0.7931004E+02  0.7818608E-02  0.1331021E+00
          2   -1    0    0    0  501  0.00000000000E+00  0.00000000000E+00  0.24017553979E+04  0.24017553979E+04  0.25500000000E-02 0. -1.
         -2   -1    0    0  501    0 -0.00000000000E+00 -0.00000000000E+00 -0.65473561567E+00  0.65474058140E+00  0.25500000000E-02 0. -1.
          2    1    1    2    0  502 -0.34536676548E+02  0.84635005207E+01  0.66884578648E+03  0.66979033956E+03  0.25500000000E-02 0.  1.
         -2    1    1    2  502    0  0.34536676548E+02 -0.84635005207E+01  0.17322548758E+04  0.17326197989E+04  0.25500000000E-02 0.  1.
<mgrwt>
<rscale>  0 0.79310044E+02</rscale>
<asrwt>0</asrwt>
<pdfrwt beam="1">  1        2 0.36950970E+00 0.79310044E+02</pdfrwt>
<pdfrwt beam="2">  1       -2 0.10072652E-03 0.79310044E+02</pdfrwt>
<totfact> 0.22843151E+05</totfact>
</mgrwt>
</event>
<event>
 4    1  0.4837985E-002  0.4063028E+02  0.7818608E-02  0.1503624E+00
          2   -1    0    0    0  501  0.00000000000E+00  0.00000000000E+00  0.23058512160E+02  0.23058512301E+02  0.25500000000E-02 0.  1.
         -2   -1    0    0  501    0 -0.00000000000E+00 -0.00000000000E+00 -0.17898155754E+02  0.17898155936E+02  0.25500000000E-02 0.  1.
          2    1    1    2    0  502  0.28994042700E+01 -0.20012714037E+02  0.45424991126E+01  0.20725577747E+02  0.25500000000E-02 0.  1.
         -2    1    1    2  502    0 -0.28994042700E+01  0.20012714037E+02  0.61785729314E+00  0.20231090490E+02  0.25500000000E-02 0.  1.
<mgrwt>
<rscale>  0 0.40630277E+02</rscale>
<asrwt>0</asrwt>
<pdfrwt beam="1">  1        2 0.35474635E-02 0.40630277E+02</pdfrwt>
<pdfrwt beam="2">  1       -2 0.27535624E-02 0.40630277E+02</pdfrwt>
<totfact> 0.77186736E+05</totfact>
</mgrwt>
</event>
<event>
 4    1  0.4837985E-002  0.4485358E+02  0.7818608E-02  0.1475258E+00
         -2   -1    0    0  501    0 -0.00000000000E+00  0.00000000000E+00  0.29215623190E+00  0.29216736015E+00  0.25500000000E-02 0. -1.
          2   -1    0    0    0  501  0.00000000000E+00 -0.00000000000E+00 -0.17215146799E+04  0.17215146799E+04  0.25500000000E-02 0. -1.
          2    1    1    2    0  502 -0.59213433432E+01 -0.21431970941E+02 -0.97298265762E+03  0.97323668433E+03  0.25500000000E-02 0. -1.
         -2    1    1    2  502    0  0.59213433432E+01  0.21431970941E+02 -0.74823986608E+03  0.74857016297E+03  0.25500000000E-02 0. -1.
<mgrwt>
<rscale>  0 0.44853576E+02</rscale>
<asrwt>0</asrwt>
<pdfrwt beam="2">  1        2 0.26484029E+00 0.44853576E+02</pdfrwt>
<pdfrwt beam="1">  1       -2 0.44949347E-04 0.44853576E+02</pdfrwt>
<totfact> 0.13439620E+06</totfact>
</mgrwt>
</event>
<event>
 4    1  0.4837985E-002  0.4914253E+02  0.7818608E-02  0.1450022E+00
         -2   -1    0    0  501    0 -0.00000000000E+00  0.00000000000E+00  0.24679605491E+01  0.24679618665E+01  0.25500000000E-02 0. -1.
          2   -1    0    0    0  501  0.00000000000E+00 -0.00000000000E+00 -0.24463393651E+03  0.24463393653E+03  0.25500000000E-02 0. -1.
          2    1    1    2    0  502  0.23952578698E+02 -0.18410839368E+00 -0.14861805211E+03  0.15053599351E+03  0.25500000000E-02 0.  1.
         -2    1    1    2  502    0 -0.23952578698E+02  0.18410839368E+00 -0.93547923856E+02  0.96565904886E+02  0.25500000000E-02 0.  1.
<mgrwt>
<rscale>  0 0.49142530E+02</rscale>
<asrwt>0</asrwt>
<pdfrwt beam="2">  1        2 0.37635971E-01 0.49142530E+02</pdfrwt>
<pdfrwt beam="1">  1       -2 0.37968653E-03 0.49142530E+02</pdfrwt>
<totfact> 0.82279243E+05</totfact>
</mgrwt>
</event>
<event>
 4    1  0.4837985E-002  0.9854088E+02  0.7818608E-02  0.1283395E+00
          2   -1    0    0    0  501  0.00000000000E+00  0.00000000000E+00  0.72183991803E+03  0.72183991803E+03  0.25500000000E-02 0. -1.
         -2   -1    0    0  501    0 -0.00000000000E+00 -0.00000000000E+00 -0.33630394440E+01  0.33630404108E+01  0.25500000000E-02 0. -1.
          2    1    1    2    0  502 -0.71291630917E+01 -0.46916023311E+02  0.45677168249E+03  0.45923012548E+03  0.25500000000E-02 0.  1.
         -2    1    1    2  502    0  0.71291630917E+01  0.46916023311E+02  0.26170519609E+03  0.26597283297E+03  0.25500000000E-02 0.  1.
<mgrwt>
<rscale>  0 0.98540884E+02</rscale>
<asrwt>0</asrwt>
<pdfrwt beam="1">  1        2 0.11105224E+00 0.98540884E+02</pdfrwt>
<pdfrwt beam="2">  1       -2 0.51739103E-03 0.98540884E+02</pdfrwt>
<totfact> 0.19441090E+05</totfact>
</mgrwt>
</event>
<event>
 4    1  0.4837985E-002  0.1064976E+03  0.7818608E-02  0.1267197E+00
          2   -1    0    0    0  501  0.00000000000E+00  0.00000000000E+00  0.62667816876E+03  0.62667816876E+03  0.25500000000E-02 0. -1.
         -2   -1    0    0  501    0 -0.00000000000E+00 -0.00000000000E+00 -0.45245455324E+01  0.45245462510E+01  0.25500000000E-02 0. -1.
          2    1    1    2    0  502  0.25937898385E+02 -0.44688348231E+02  0.38735033154E+03  0.39078139975E+03  0.25500000000E-02 0.  1.
         -2    1    1    2  502    0 -0.25937898385E+02  0.44688348231E+02  0.23480329169E+03  0.24042131527E+03  0.25500000000E-02 0.  1.
<mgrwt>
<rscale>  0 0.10649759E+03</rscale>
<asrwt>0</asrwt>
<pdfrwt beam="1">  1        2 0.96411926E-01 0.10649759E+03</pdfrwt>
<pdfrwt beam="2">  1       -2 0.69608470E-03 0.10649759E+03</pdfrwt>
<totfact> 0.15253246E+05</totfact>
</mgrwt>
</event>
<event>
 4    1  0.4837985E-002  0.6076890E+02  0.7818608E-02  0.1394633E+00
         -2   -1    0    0  501    0 -0.00000000000E+00  0.00000000000E+00  0.74515680897E+00  0.74516117214E+00  0.25500000000E-02 0.  1.
          2   -1    0    0    0  501  0.00000000000E+00 -0.00000000000E+00 -0.12389499101E+04  0.12389499101E+04  0.25500000000E-02 0.  1.
          2    1    1    2    0  502  0.37281575842E+01  0.20879813297E+02 -0.10629401050E+04  0.10631516978E+04  0.25500000000E-02 0. -1.
         -2    1    1    2  502    0 -0.37281575842E+01 -0.20879813297E+02 -0.17526464829E+03  0.17654337345E+03  0.25500000000E-02 0. -1.
<mgrwt>
<rscale>  0 0.60768896E+02</rscale>
<asrwt>0</asrwt>
<pdfrwt beam="2">  1        2 0.19060603E+00 0.60768896E+02</pdfrwt>
<pdfrwt beam="1">  1       -2 0.11464084E-03 0.60768896E+02</pdfrwt>
<totfact> 0.70521145E+05</totfact>
</mgrwt>
</event>
<event>
 4    1  0.4837985E-002  0.9136316E+02  0.7818608E-02  0.1299584E+00
          2   -1    0    0    0  501  0.00000000000E+00  0.00000000000E+00  0.40269013434E+02  0.40269013514E+02  0.25500000000E-02 0.  1.
         -2   -1    0    0  501    0 -0.00000000000E+00 -0.00000000000E+00 -0.51821654634E+02  0.51821654697E+02  0.25500000000E-02 0.  1.
          2    1    1    2    0  502 -0.44433603578E+02  0.84066435181E+01 -0.12292324382E+02  0.46862757360E+02  0.25500000000E-02 0.  1.
         -2    1    1    2  502    0  0.44433603578E+02 -0.84066435181E+01  0.73968318134E+00  0.45227910851E+02  0.25500000000E-02 0.  1.
<mgrwt>
<rscale>  0 0.91363164E+02</rscale>
<asrwt>0</asrwt>
<pdfrwt beam="1">  1        2 0.61952328E-02 0.91363164E+02</pdfrwt>
<pdfrwt beam="2">  1       -2 0.79725623E-02 0.91363164E+02</pdfrwt>
<totfact> 0.94990281E+04</totfact>
</mgrwt>
</event>
<event>
 4    1  0.4837985E-002  0.4371396E+02  0.7818608E-02  0.1482534E+00
         -2   -1    0    0  501    0 -0.00000000000E+00  0.00000000000E+00  0.22693217562E+00  0.22694650213E+00  0.25500000000E-02 0. -1.
          2   -1    0    0    0  501  0.00000000000E+00 -0.00000000000E+00 -0.21050890004E+04  0.21050890004E+04  0.25500000000E-02 0. -1.
          2    1    1    2    0  502 -0.28067085377E+00  0.21435294544E+02 -0.84709897461E+03  0.84737018087E+03  0.25500000000E-02 0. -1.
         -2    1    1    2  502    0  0.28067085377E+00 -0.21435294544E+02 -0.12577630936E+04  0.12579457661E+04  0.25500000000E-02 0. -1.
<mgrwt>
<rscale>  0 0.43713957E+02</rscale>
<asrwt>0</asrwt>
<pdfrwt beam="2">  1        2 0.32384421E+00 0.43713957E+02</pdfrwt>
<pdfrwt beam="1">  1       -2 0.34915431E-04 0.43713957E+02</pdfrwt>
<totfact> 0.12230991E+06</totfact>
</mgrwt>
</event>
<event>
 4    1  0.4837985E-002  0.5868772E+02  0.7818608E-02  0.1403423E+00
          2   -1    0    0    0  501  0.00000000000E+00  0.00000000000E+00  0.84869728322E+03  0.84869728322E+03  0.25500000000E-02 0. -1.
         -2   -1    0    0  501    0 -0.00000000000E+00 -0.00000000000E+00 -0.10145674566E+01  0.10145706612E+01  0.25500000000E-02 0. -1.
          2    1    1    2    0  502  0.67337520165E+01  0.25887717300E+02  0.59851309191E+03  0.59911053948E+03  0.25500000000E-02 0. -1.
         -2    1    1    2  502    0 -0.67337520165E+01 -0.25887717300E+02  0.24916962385E+03  0.25060131440E+03  0.25500000000E-02 0. -1.
<mgrwt>
<rscale>  0 0.58687716E+02</rscale>
<asrwt>0</asrwt>
<pdfrwt beam="1">  1        2 0.13056889E+00 0.58687716E+02</pdfrwt>
<pdfrwt beam="2">  1       -2 0.15608745E-03 0.58687716E+02</pdfrwt>
<totfact> 0.76504962E+05</totfact>
</mgrwt>
</event>
<event>
 4    1  0.4837985E-002  0.6426425E+02  0.7818608E-02  0.1380761E+00
          2   -1    0    0    0  501  0.00000000000E+00  0.00000000000E+00  0.29345873783E+04  0.29345873783E+04  0.25500000000E-02 0. -1.
         -2   -1    0    0  501    0 -0.00000000000E+00 -0.00000000000E+00 -0.35182456426E+00  0.35183380525E+00  0.25500000000E-02 0. -1.
          2    1    1    2    0  502  0.97631828586E+01  0.28087491971E+02  0.20231781400E+04  0.20233966525E+04  0.25500000000E-02 0.  1.
         -2    1    1    2  502    0 -0.97631828586E+01 -0.28087491971E+02  0.91105741365E+03  0.91154255958E+03  0.25500000000E-02 0.  1.
<mgrwt>
<rscale>  0 0.64264251E+02</rscale>
<asrwt>0</asrwt>
<pdfrwt beam="1">  1        2 0.45148472E+00 0.64264251E+02</pdfrwt>
<pdfrwt beam="2">  1       -2 0.54126400E-04 0.64264251E+02</pdfrwt>
<totfact> 0.26989478E+05</totfact>
</mgrwt>
</event>
<event>
 4    1  0.4837985E-002  0.5261900E+02  0.7818608E-02  0.1431706E+00
          2   -1    0    0    0  501  0.00000000000E+00  0.00000000000E+00  0.13342210643E+04  0.13342210643E+04  0.25500000000E-02 0. -1.
         -2   -1    0    0  501    0 -0.00000000000E+00 -0.00000000000E+00 -0.51879371668E+00  0.51879998359E+00  0.25500000000E-02 0. -1.
          2    1    1    2    0  502  0.21806113191E+02 -0.10715240044E+02  0.41083326628E+03  0.41155108508E+03  0.25500000000E-02 0.  1.
         -2    1    1    2  502    0 -0.21806113191E+02  0.10715240044E+02  0.92286900430E+03  0.92318877920E+03  0.25500000000E-02 0.  1.
<mgrwt>
<rscale>  0 0.52618996E+02</rscale>
<asrwt>0</asrwt>
<pdfrwt beam="1">  1        2 0.20526573E+00 0.52618996E+02</pdfrwt>
<pdfrwt beam="2">  1       -2 0.79814529E-04 0.52618996E+02</pdfrwt>
<totfact> 0.99839585E+05</totfact>
</mgrwt>
</event>
<event>
 4    1  0.4837985E-002  0.4640255E+02  0.7818608E-02  0.1465771E+00
          2   -1    0    0    0  501  0.00000000000E+00  0.00000000000E+00  0.10010584551E+04  0.10010584551E+04  0.25500000000E-02 0. -1.
         -2   -1    0    0  501    0 -0.00000000000E+00 -0.00000000000E+00 -0.53772697073E+00  0.53773301698E+00  0.25500000000E-02 0. -1.
          2    1    1    2    0  502 -0.15756102375E+02  0.14518993630E+02  0.69240659123E+03  0.69273800496E+03  0.25500000000E-02 0.  1.
         -2    1    1    2  502    0  0.15756102375E+02 -0.14518993630E+02  0.30811413691E+03  0.30885818316E+03  0.25500000000E-02 0.  1.
<mgrwt>
<rscale>  0 0.46402550E+02</rscale>
<asrwt>0</asrwt>
<pdfrwt beam="1">  1        2 0.15400736E+00 0.46402550E+02</pdfrwt>
<pdfrwt beam="2">  1       -2 0.82728569E-04 0.46402550E+02</pdfrwt>
<totfact> 0.13910140E+06</totfact>
</mgrwt>
</event>
<event>
 4    1  0.4837985E-002  0.4039379E+02  0.7818608E-02  0.1505333E+00
          2   -1    0    0    0  501  0.00000000000E+00  0.00000000000E+00  0.55831806835E+03  0.55831806836E+03  0.25500000000E-02 0.  1.
         -2   -1    0    0  501    0 -0.00000000000E+00 -0.00000000000E+00 -0.73061115558E+00  0.73061560561E+00  0.25500000000E-02 0.  1.
          2    1    1    2    0  502 -0.47566596096E+01  0.19627781886E+02  0.27606000467E+03  0.27679776338E+03  0.25500000000E-02 0. -1.
         -2    1    1    2  502    0  0.47566596096E+01 -0.19627781886E+02  0.28152745253E+03  0.28225092058E+03  0.25500000000E-02 0. -1.
<mgrwt>
<rscale>  0 0.40393794E+02</rscale>
<asrwt>0</asrwt>
<pdfrwt beam="1">  1        2 0.85895028E-01 0.40393794E+02</pdfrwt>
<pdfrwt beam="2">  1       -2 0.11240214E-03 0.40393794E+02</pdfrwt>
<totfact> 0.17468516E+06</totfact>
</mgrwt>
</event>
<event>
 4    1  0.4837985E-002  0.5801782E+02  0.7818608E-02  0.1406343E+00
         -2   -1    0    0  501    0 -0.00000000000E+00  0.00000000000E+00  0.16265930323E+01  0.16265950311E+01  0.25500000000E-02 0.  1.
          2   -1    0    0    0  501  0.00000000000E+00 -0.00000000000E+00 -0.51734902419E+03  0.51734902419E+03  0.25500000000E-02 0.  1.
          2    1    1    2    0  502  0.24286778923E+02 -0.13776231835E+02 -0.32822950300E+03  0.32941499486E+03  0.25500000000E-02 0.  1.
         -2    1    1    2  502    0 -0.24286778923E+02  0.13776231835E+02 -0.18749292815E+03  0.18956062436E+03  0.25500000000E-02 0.  1.
<mgrwt>
<rscale>  0 0.58017819E+02</rscale>
<asrwt>0</asrwt>
<pdfrwt beam="2">  1        2 0.79592027E-01 0.58017819E+02</pdfrwt>
<pdfrwt beam="1">  1       -2 0.25024565E-03 0.58017819E+02</pdfrwt>
<totfact> 0.70016241E+05</totfact>
</mgrwt>
</event>
<event>
 4    1  0.4837985E-002  0.8353828E+02  0.7818608E-02  0.1319300E+00
         -2   -1    0    0  501    0 -0.00000000000E+00  0.00000000000E+00  0.66483526690E+01  0.66483531580E+01  0.25500000000E-02 0.  1.
          2   -1    0    0    0  501  0.00000000000E+00 -0.00000000000E+00 -0.26242005412E+03  0.26242005414E+03  0.25500000000E-02 0.  1.
          2    1    1    2    0  502 -0.35732605224E+02  0.32962598655E+01 -0.59032638141E+02  0.69083549254E+02  0.25500000000E-02 0. -1.
         -2    1    1    2  502    0  0.35732605224E+02 -0.32962598655E+01 -0.19673906331E+03  0.19998485804E+03  0.25500000000E-02 0. -1.
<mgrwt>
<rscale>  0 0.83538282E+02</rscale>
<asrwt>0</asrwt>
<pdfrwt beam="2">  1        2 0.40372308E-01 0.83538282E+02</pdfrwt>
<pdfrwt beam="1">  1       -2 0.10228237E-02 0.83538282E+02</pdfrwt>
<totfact> 0.21571501E+05</totfact>
</mgrwt>
</event>
<event>
 4    1  0.4837985E-002  0.5845852E+02  0.7818608E-02  0.1404417E+00
          2   -1    0    0    0  501  0.00000000000E+00  0.00000000000E+00  0.87860944090E+03  0.87860944090E+03  0.25500000000E-02 0.  1.
         -2   -1    0    0  501    0 -0.00000000000E+00 -0.00000000000E+00 -0.97238668112E+00  0.97239002469E+00  0.25500000000E-02 0.  1.
          2    1    1    2    0  502 -0.27240341733E+02  0.19959294717E+01  0.28221480518E+03  0.28353344815E+03  0.25500000000E-02 0.  1.
         -2    1    1    2  502    0  0.27240341733E+02 -0.19959294717E+01  0.59542224904E+03  0.59604838278E+03  0.25500000000E-02 0.  1.
<mgrwt>
<rscale>  0 0.58458518E+02</rscale>
<asrwt>0</asrwt>
<pdfrwt beam="1">  1        2 0.13517105E+00 0.58458518E+02</pdfrwt>
<pdfrwt beam="2">  1       -2 0.14959780E-03 0.58458518E+02</pdfrwt>
<totfact> 0.77614940E+05</totfact>
</mgrwt>
</event>
<event>
 4    1  0.4837985E-002  0.8310300E+02  0.7818608E-02  0.1320469E+00
          2   -1    0    0    0  501  0.00000000000E+00  0.00000000000E+00  0.30157999948E+04  0.30157999948E+04  0.25500000000E-02 0. -1.
         -2   -1    0    0  501    0 -0.00000000000E+00 -0.00000000000E+00 -0.57249107252E+00  0.57249675162E+00  0.25500000000E-02 0. -1.
          2    1    1    2    0  502 -0.15089208468E+02  0.36318025739E+02  0.19943751847E+04  0.19947629083E+04  0.25500000000E-02 0.  1.
         -2    1    1    2  502    0  0.15089208468E+02 -0.36318025739E+02  0.10208523190E+04  0.10216095832E+04  0.25500000000E-02 0.  1.
<mgrwt>
<rscale>  0 0.83103000E+02</rscale>
<asrwt>0</asrwt>
<pdfrwt beam="1">  1        2 0.46397675E+00 0.83103000E+02</pdfrwt>
<pdfrwt beam="2">  1       -2 0.88074559E-04 0.83103000E+02</pdfrwt>
<totfact> 0.12868569E+05</totfact>
</mgrwt>
</event>
<event>
 4    1  0.4837985E-002  0.6514696E+02  0.7818608E-02  0.1377420E+00
         -2   -1    0    0  501    0 -0.00000000000E+00  0.00000000000E+00  0.29140853383E+03  0.29140853384E+03  0.25500000000E-02 0. -1.
          2   -1    0    0    0  501  0.00000000000E+00 -0.00000000000E+00 -0.36410448382E+01  0.36410457311E+01  0.25500000000E-02 0. -1.
          2    1    1    2    0  502  0.12069128339E+02 -0.29689009470E+02  0.11750244980E+03  0.12179460931E+03  0.25500000000E-02 0.  1.
         -2    1    1    2  502    0 -0.12069128339E+02  0.29689009470E+02  0.17026503919E+03  0.17325497026E+03  0.25500000000E-02 0.  1.
<mgrwt>
<rscale>  0 0.65146962E+02</rscale>
<asrwt>0</asrwt>
<pdfrwt beam="2">  1        2 0.56016063E-03 0.65146962E+02</pdfrwt>
<pdfrwt beam="1">  1       -2 0.44832097E-01 0.65146962E+02</pdfrwt>
<totfact> 0.12207564E+05</totfact>
</mgrwt>
</event>
<event>
 4    1  0.4837985E-002  0.5268401E+02  0.7818608E-02  0.1431380E+00
          2   -1    0    0    0  501  0.00000000000E+00  0.00000000000E+00  0.29864503088E+03  0.29864503089E+03  0.25500000000E-02 0. -1.
         -2   -1    0    0  501    0 -0.00000000000E+00 -0.00000000000E+00 -0.23234976800E+01  0.23234990793E+01  0.25500000000E-02 0. -1.
          2    1    1    2    0  502 -0.24419814277E+02  0.22337125376E+01  0.93192598785E+02  0.96364813474E+02  0.25500000000E-02 0. -1.
         -2    1    1    2  502    0  0.24419814277E+02 -0.22337125376E+01  0.20312893442E+03  0.20460371650E+03  0.25500000000E-02 0. -1.
<mgrwt>
<rscale>  0 0.52684011E+02</rscale>
<asrwt>0</asrwt>
<pdfrwt beam="1">  1        2 0.45945376E-01 0.52684011E+02</pdfrwt>
<pdfrwt beam="2">  1       -2 0.35746139E-03 0.52684011E+02</pdfrwt>
<totfact> 0.74121431E+05</totfact>
</mgrwt>
</event>
<event>
 4    1  0.4837985E-002  0.9322438E+02  0.7818608E-02  0.1295226E+00
         -2   -1    0    0  501    0 -0.00000000000E+00  0.00000000000E+00  0.11161837553E+02  0.11161837844E+02  0.25500000000E-02 0.  1.
          2   -1    0    0    0  501  0.00000000000E+00 -0.00000000000E+00 -0.19465398877E+03  0.19465398879E+03  0.25500000000E-02 0.  1.
          2    1    1    2    0  502  0.33653319910E+02  0.32244033543E+02 -0.93263789928E+02  0.10426100977E+03  0.25500000000E-02 0.  1.
         -2    1    1    2  502    0 -0.33653319910E+02 -0.32244033543E+02 -0.90228361290E+02  0.10155481686E+03  0.25500000000E-02 0.  1.
<mgrwt>
<rscale>  0 0.93224380E+02</rscale>
<asrwt>0</asrwt>
<pdfrwt beam="2">  1        2 0.29946765E-01 0.93224380E+02</pdfrwt>
<pdfrwt beam="1">  1       -2 0.17172059E-02 0.93224380E+02</pdfrwt>
<totfact> 0.14426041E+05</totfact>
</mgrwt>
</event>
<event>
 4    1  0.4837985E-002  0.7944537E+02  0.7818608E-02  0.1330633E+00
          2   -1    0    0    0  501  0.00000000000E+00  0.00000000000E+00  0.19261751591E+02  0.19261751760E+02  0.25500000000E-02 0.  1.
         -2   -1    0    0  501    0 -0.00000000000E+00 -0.00000000000E+00 -0.81918381572E+02  0.81918381611E+02  0.25500000000E-02 0.  1.
          2    1    1    2    0  502  0.38931478106E+02  0.13166327302E+01 -0.41234290030E+02  0.56724423224E+02  0.25500000000E-02 0.  1.
         -2    1    1    2  502    0 -0.38931478106E+02 -0.13166327302E+01 -0.21422339950E+02  0.44455710148E+02  0.25500000000E-02 0.  1.
<mgrwt>
<rscale>  0 0.79445366E+02</rscale>
<asrwt>0</asrwt>
<pdfrwt beam="1">  1        2 0.29633465E-02 0.79445366E+02</pdfrwt>
<pdfrwt beam="2">  1       -2 0.12602828E-01 0.79445366E+02</pdfrwt>
<totfact> 0.11867892E+05</totfact>
</mgrwt>
</event>
<event>
 4    1  0.4837985E-002  0.4845988E+02  0.7818608E-02  0.1453830E+00
          2   -1    0    0    0  501  0.00000000000E+00  0.00000000000E+00  0.27720873629E+03  0.27720873630E+03  0.25500000000E-02 0.  1.
         -2   -1    0    0  501    0 -0.00000000000E+00 -0.00000000000E+00 -0.21178617748E+01  0.21178633100E+01  0.25500000000E-02 0.  1.
          2    1    1    2    0  502 -0.12787386007E+01 -0.24161728740E+02  0.13010622856E+03  0.13233689971E+03  0.25500000000E-02 0. -1.
         -2    1    1    2  502    0  0.12787386007E+01  0.24161728740E+02  0.14498464596E+03  0.14698969991E+03  0.25500000000E-02 0. -1.
<mgrwt>
<rscale>  0 0.48459880E+02</rscale>
<asrwt>0</asrwt>
<pdfrwt beam="1">  1        2 0.42647515E-01 0.48459880E+02</pdfrwt>
<pdfrwt beam="2">  1       -2 0.32582488E-03 0.48459880E+02</pdfrwt>
<totfact> 0.88953038E+05</totfact>
</mgrwt>
</event>
<event>
 4    1  0.4837985E-002  0.8425429E+02  0.7818608E-02  0.1317394E+00
         -2   -1    0    0  501    0 -0.00000000000E+00  0.00000000000E+00  0.16979913475E+01  0.16979932622E+01  0.25500000000E-02 0.  1.
          2   -1    0    0    0  501  0.00000000000E+00 -0.00000000000E+00 -0.10451732985E+04  0.10451732985E+04  0.25500000000E-02 0.  1.
          2    1    1    2    0  502  0.24537800107E+02  0.32482948042E+02 -0.65639468209E+03  0.65765585547E+03  0.25500000000E-02 0.  1.
         -2    1    1    2  502    0 -0.24537800107E+02 -0.32482948042E+02 -0.38708062507E+03  0.38921543630E+03  0.25500000000E-02 0.  1.
<mgrwt>
<rscale>  0 0.84254287E+02</rscale>
<asrwt>0</asrwt>
<pdfrwt beam="2">  1        2 0.16079538E+00 0.84254287E+02</pdfrwt>
<pdfrwt beam="1">  1       -2 0.26123042E-03 0.84254287E+02</pdfrwt>
<totfact> 0.30790586E+05</totfact>
</mgrwt>
</event>
<event>
 4    1  0.4837985E-002  0.9516116E+02  0.7818608E-02  0.1290814E+00
         -2   -1    0    0  501    0 -0.00000000000E+00  0.00000000000E+00  0.18227236582E+03  0.18227236584E+03  0.25500000000E-02 0.  1.
          2   -1    0    0    0  501  0.00000000000E+00 -0.00000000000E+00 -0.12420488213E+02  0.12420488475E+02  0.25500000000E-02 0.  1.
          2    1    1    2    0  502  0.36820098196E+02 -0.29891591815E+02  0.92766113820E+02  0.10418626959E+03  0.25500000000E-02 0.  1.
         -2    1    1    2  502    0 -0.36820098196E+02  0.29891591815E+02  0.77085763789E+02  0.90506584721E+02  0.25500000000E-02 0.  1.
<mgrwt>
<rscale>  0 0.95161164E+02</rscale>
<asrwt>0</asrwt>
<pdfrwt beam="2">  1        2 0.19108445E-02 0.95161164E+02</pdfrwt>
<pdfrwt beam="1">  1       -2 0.28041900E-01 0.95161164E+02</pdfrwt>
<totfact> 0.58105123E+04</totfact>
</mgrwt>
</event>
<event>
 4    1  0.4837985E-002  0.7747082E+02  0.7818608E-02  0.1336386E+00
          2   -1    0    0    0  501  0.00000000000E+00  0.00000000000E+00  0.27231860701E+03  0.27231860702E+03  0.25500000000E-02 0. -1.
         -2   -1    0    0  501    0 -0.00000000000E+00 -0.00000000000E+00 -0.55098401215E+01  0.55098407116E+01  0.25500000000E-02 0. -1.
          2    1    1    2    0  502  0.59273334524E+00  0.38714816515E+02  0.12940494809E+03  0.13507342058E+03  0.25500000000E-02 0. -1.
         -2    1    1    2  502    0 -0.59273334524E+00 -0.38714816515E+02  0.13740381879E+03  0.14275502715E+03  0.25500000000E-02 0. -1.
<mgrwt>
<rscale>  0 0.77470822E+02</rscale>
<asrwt>0</asrwt>
<pdfrwt beam="1">  1        2 0.41895169E-01 0.77470822E+02</pdfrwt>
<pdfrwt beam="2">  1       -2 0.84766778E-03 0.77470822E+02</pdfrwt>
<totfact> 0.26675972E+05</totfact>
</mgrwt>
</event>
<event>
 4    1  0.4837985E-002  0.4172290E+02  0.7818608E-02  0.1495902E+00
         -2   -1    0    0  501    0 -0.00000000000E+00  0.00000000000E+00  0.68342160120E+00  0.68342635849E+00  0.25500000000E-02 0.  1.
          2   -1    0    0    0  501  0.00000000000E+00 -0.00000000000E+00 -0.63679367919E+03  0.63679367920E+03  0.25500000000E-02 0.  1.
          2    1    1    2    0  502  0.52517423644E+01  0.19570924890E+02 -0.24227741448E+03  0.24312331742E+03  0.25500000000E-02 0.  1.
         -2    1    1    2  502    0 -0.52517423644E+01 -0.19570924890E+02 -0.39383284311E+03  0.39435378814E+03  0.25500000000E-02 0.  1.
<mgrwt>
<rscale>  0 0.41722899E+02</rscale>
<asrwt>0</asrwt>
<pdfrwt beam="2">  1        2 0.97967784E-01 0.41722899E+02</pdfrwt>
<pdfrwt beam="1">  1       -2 0.10514266E-03 0.41722899E+02</pdfrwt>
<totfact> 0.16737486E+06</totfact>
</mgrwt>
</event>
<event>
 4    1  0.4837985E-002  0.5755646E+02  0.7818608E-02  0.1408382E+00
          2   -1    0    0    0  501  0.00000000000E+00  0.00000000000E+00  0.56747164212E+01  0.56747169941E+01  0.25500000000E-02 0.  1.
         -2   -1    0    0  501    0 -0.00000000000E+00 -0.00000000000E+00 -0.14594321434E+03  0.14594321436E+03  0.25500000000E-02 0.  1.
          2    1    1    2    0  502  0.23184992188E+02 -0.72326542480E+01 -0.11080170569E+03  0.11343224031E+03  0.25500000000E-02 0.  1.
         -2    1    1    2  502    0 -0.23184992188E+02  0.72326542480E+01 -0.29466792222E+02  0.38185691045E+02  0.25500000000E-02 0.  1.
<mgrwt>
<rscale>  0 0.57556456E+02</rscale>
<asrwt>0</asrwt>
<pdfrwt beam="1">  1        2 0.87303345E-03 0.57556456E+02</pdfrwt>
<pdfrwt beam="2">  1       -2 0.22452799E-01 0.57556456E+02</pdfrwt>
<totfact> 0.22376108E+05</totfact>
</mgrwt>
</event>
<event>
 4    1  0.4837985E-002  0.5519552E+02  0.7818608E-02  0.1419177E+00
         -2   -1    0    0  501    0 -0.00000000000E+00  0.00000000000E+00  0.22408081259E+03  0.22408081260E+03  0.25500000000E-02 0.  1.
          2   -1    0    0    0  501  0.00000000000E+00 -0.00000000000E+00 -0.33989358007E+01  0.33989367572E+01  0.25500000000E-02 0.  1.
          2    1    1    2    0  502  0.25371853067E+02  0.65542141904E+01  0.14602039181E+03  0.14835310406E+03  0.25500000000E-02 0.  1.
         -2    1    1    2  502    0 -0.25371853067E+02 -0.65542141904E+01  0.74661484971E+02  0.79126645299E+02  0.25500000000E-02 0.  1.
<mgrwt>
<rscale>  0 0.55195522E+02</rscale>
<asrwt>0</asrwt>
<pdfrwt beam="2">  1        2 0.52291318E-03 0.55195522E+02</pdfrwt>
<pdfrwt beam="1">  1       -2 0.34473978E-01 0.55195522E+02</pdfrwt>
<totfact> 0.21034918E+05</totfact>
</mgrwt>
</event>
<event>
 4    1  0.4837985E-002  0.7578062E+02  0.7818608E-02  0.1341471E+00
          2   -1    0    0    0  501  0.00000000000E+00  0.00000000000E+00  0.83900355183E+03  0.83900355184E+03  0.25500000000E-02 0.  1.
         -2   -1    0    0  501    0 -0.00000000000E+00 -0.00000000000E+00 -0.17111664547E+01  0.17111683547E+01  0.25500000000E-02 0.  1.
          2    1    1    2    0  502 -0.33189559161E+02  0.95963129468E+01  0.24604905042E+03  0.24846281669E+03  0.25500000000E-02 0.  1.
         -2    1    1    2  502    0  0.33189559161E+02 -0.95963129468E+01  0.59124333496E+03  0.59225190350E+03  0.25500000000E-02 0.  1.
<mgrwt>
<rscale>  0 0.75780618E+02</rscale>
<asrwt>0</asrwt>
<pdfrwt beam="1">  1        2 0.12907790E+00 0.75780618E+02</pdfrwt>
<pdfrwt beam="2">  1       -2 0.26325565E-03 0.75780618E+02</pdfrwt>
<totfact> 0.39806722E+05</totfact>
</mgrwt>
</event>
<event>
 4    1  0.4837985E-002  0.1163245E+03  0.7818608E-02  0.1249287E+00
         -2   -1    0    0  501    0 -0.00000000000E+00  0.00000000000E+00  0.14908984254E+02  0.14908984473E+02  0.25500000000E-02 0. -1.
          2   -1    0    0    0  501  0.00000000000E+00 -0.00000000000E+00 -0.22689981471E+03  0.22689981473E+03  0.25500000000E-02 0. -1.
          2    1    1    2    0  502 -0.34282994389E+02 -0.97732759500E+01 -0.20152733201E+03  0.20465606803E+03  0.25500000000E-02 0. -1.
         -2    1    1    2  502    0  0.34282994389E+02  0.97732759500E+01 -0.10463498445E+02  0.37152731169E+02  0.25500000000E-02 0. -1.
<mgrwt>
<rscale>  0 0.11632447E+03</rscale>
<asrwt>0</asrwt>
<pdfrwt beam="2">  1        2 0.34907661E-01 0.11632447E+03</pdfrwt>
<pdfrwt beam="1">  1       -2 0.22936901E-02 0.11632447E+03</pdfrwt>
<totfact> 0.83400011E+04</totfact>
</mgrwt>
</event>
<event>
 4    1  0.4837985E-002  0.9667920E+02  0.7818608E-02  0.1287438E+00
         -2   -1    0    0  501    0 -0.00000000000E+00  0.00000000000E+00  0.28553244485E+02  0.28553244598E+02  0.25500000000E-02 0. -1.
          2   -1    0    0    0  501  0.00000000000E+00 -0.00000000000E+00 -0.81837174262E+02  0.81837174302E+02  0.25500000000E-02 0. -1.
          2    1    1    2    0  502 -0.19437136003E+02  0.44205881558E+02 -0.24152210341E+02  0.53993439335E+02  0.25500000000E-02 0.  1.
         -2    1    1    2  502    0  0.19437136003E+02 -0.44205881558E+02 -0.29131719436E+02  0.56396979565E+02  0.25500000000E-02 0.  1.
<mgrwt>
<rscale>  0 0.96679198E+02</rscale>
<asrwt>0</asrwt>
<pdfrwt beam="2">  1        2 0.12590334E-01 0.96679198E+02</pdfrwt>
<pdfrwt beam="1">  1       -2 0.43928069E-02 0.96679198E+02</pdfrwt>
<totfact> 0.98159984E+04</totfact>
</mgrwt>
</event>
<event>
 4    1  0.4837985E-002  0.6136353E+02  0.7818608E-02  0.1392197E+00
         -2   -1    0    0  501    0 -0.00000000000E+00  0.00000000000E+00  0.30205711329E+01  0.30205722093E+01  0.25500000000E-02 0. -1.
          2   -1    0    0    0  501  0.00000000000E+00 -0.00000000000E+00 -0.31165319443E+03  0.31165319444E+03  0.25500000000E-02 0. -1.
          2    1    1    2    0  502  0.21936653835E+02  0.15792134826E+02 -0.22876325179E+03  0.23035458250E+03  0.25500000000E-02 0. -1.
         -2    1    1    2  502    0 -0.21936653835E+02 -0.15792134826E+02 -0.79869371508E+02  0.84319184148E+02  0.25500000000E-02 0. -1.
<mgrwt>
<rscale>  0 0.61363534E+02</rscale>
<asrwt>0</asrwt>
<pdfrwt beam="2">  1        2 0.47946620E-01 0.61363534E+02</pdfrwt>
<pdfrwt beam="1">  1       -2 0.46470358E-03 0.61363534E+02</pdfrwt>
<totfact> 0.51175462E+05</totfact>
</mgrwt>
</event>
<event>
 4    1  0.4837985E-002  0.4407153E+02  0.7818608E-02  0.1480222E+00
          2   -1    0    0    0  501  0.00000000000E+00  0.00000000000E+00  0.78435994399E+02  0.78435994441E+02  0.25500000000E-02 0.  1.
         -2   -1    0    0  501    0 -0.00000000000E+00 -0.00000000000E+00 -0.61907166475E+01  0.61907171727E+01  0.25500000000E-02 0.  1.
          2    1    1    2    0  502 -0.89975779457E+00  0.21990713256E+02  0.38203213859E+02  0.44089529248E+02  0.25500000000E-02 0.  1.
         -2    1    1    2  502    0  0.89975779457E+00 -0.21990713256E+02  0.34042063893E+02  0.40537182366E+02  0.25500000000E-02 0.  1.
<mgrwt>
<rscale>  0 0.44071535E+02</rscale>
<asrwt>0</asrwt>
<pdfrwt beam="1">  1        2 0.12067076E-01 0.44071535E+02</pdfrwt>
<pdfrwt beam="2">  1       -2 0.95241802E-03 0.44071535E+02</pdfrwt>
<totfact> 0.77544311E+05</totfact>
</mgrwt>
</event>
<event>
 4    1  0.4837985E-002  0.8850786E+02  0.7818608E-02  0.1306506E+00
          2   -1    0    0    0  501  0.00000000000E+00  0.00000000000E+00  0.20481403394E+02  0.20481403553E+02  0.25500000000E-02 0.  1.
         -2   -1    0    0  501    0 -0.00000000000E+00 -0.00000000000E+00 -0.95618958437E+02  0.95618958471E+02  0.25500000000E-02 0.  1.
          2    1    1    2    0  502 -0.17432402840E+02 -0.40403569259E+02 -0.43731692917E+02  0.62038681880E+02  0.25500000000E-02 0. -1.
         -2    1    1    2  502    0  0.17432402840E+02  0.40403569259E+02 -0.31405862126E+02  0.54061680144E+02  0.25500000000E-02 0. -1.
<mgrwt>
<rscale>  0 0.88507863E+02</rscale>
<asrwt>0</asrwt>
<pdfrwt beam="1">  1        2 0.31509852E-02 0.88507863E+02</pdfrwt>
<pdfrwt beam="2">  1       -2 0.14710609E-01 0.88507863E+02</pdfrwt>
<totfact> 0.87057223E+04</totfact>
</mgrwt>
</event>
<event>
 4    1  0.4837985E-002  0.7393794E+02  0.7818608E-02  0.1347192E+00
         -2   -1    0    0  501    0 -0.00000000000E+00  0.00000000000E+00  0.41777850737E+02  0.41777850814E+02  0.25500000000E-02 0.  1.
          2   -1    0    0    0  501  0.00000000000E+00 -0.00000000000E+00 -0.32713620415E+02  0.32713620515E+02  0.25500000000E-02 0.  1.
          2    1    1    2    0  502  0.11785140252E+02 -0.33029642857E+02  0.16318324753E+02  0.38679898750E+02  0.25500000000E-02 0.  1.
         -2    1    1    2  502    0 -0.11785140252E+02  0.33029642857E+02 -0.72540944323E+01  0.35811572579E+02  0.25500000000E-02 0.  1.
<mgrwt>
<rscale>  0 0.73937940E+02</rscale>
<asrwt>0</asrwt>
<pdfrwt beam="2">  1        2 0.50328647E-02 0.73937940E+02</pdfrwt>
<pdfrwt beam="1">  1       -2 0.64273616E-02 0.73937940E+02</pdfrwt>
<totfact> 0.16531454E+05</totfact>
</mgrwt>
</event>
<event>
 4    1  0.4837985E-002  0.9990868E+02  0.7818608E-02  0.1280488E+00
          2   -1    0    0    0  501  0.00000000000E+00  0.00000000000E+00  0.11848785296E+04  0.11848785296E+04  0.25500000000E-02 0. -1.
         -2   -1    0    0  501    0 -0.00000000000E+00 -0.00000000000E+00 -0.21060682002E+01  0.21060697440E+01  0.25500000000E-02 0. -1.
          2    1    1    2    0  502  0.39289946553E+02 -0.27499942849E+02  0.42527339046E+03  0.42796892807E+03  0.25500000000E-02 0.  1.
         -2    1    1    2  502    0 -0.39289946553E+02  0.27499942849E+02  0.75749907097E+03  0.75901567130E+03  0.25500000000E-02 0.  1.
<mgrwt>
<rscale>  0 0.99908677E+02</rscale>
<asrwt>0</asrwt>
<pdfrwt beam="1">  1        2 0.18228958E+00 0.99908677E+02</pdfrwt>
<pdfrwt beam="2">  1       -2 0.32400959E-03 0.99908677E+02</pdfrwt>
<totfact> 0.19551824E+05</totfact>
</mgrwt>
</event>
<event>
 4    1  0.4837985E-002  0.8872458E+02  0.7818608E-02  0.1305970E+00
         -2   -1    0    0  501    0 -0.00000000000E+00  0.00000000000E+00  0.22642355766E+02  0.22642355910E+02  0.25500000000E-02 0.  1.
          2   -1    0    0    0  501  0.00000000000E+00 -0.00000000000E+00 -0.86917321477E+02  0.86917321514E+02  0.25500000000E-02 0.  1.
          2    1    1    2    0  502  0.10235026735E+02 -0.42393419986E+02 -0.42173465793E+02  0.60667611242E+02  0.25500000000E-02 0. -1.
         -2    1    1    2  502    0 -0.10235026735E+02  0.42393419986E+02 -0.22101499918E+02  0.48892066181E+02  0.25500000000E-02 0. -1.
<mgrwt>
<rscale>  0 0.88724583E+02</rscale>
<asrwt>0</asrwt>
<pdfrwt beam="2">  1        2 0.13371895E-01 0.88724583E+02</pdfrwt>
<pdfrwt beam="1">  1       -2 0.34834394E-02 0.88724583E+02</pdfrwt>
<totfact> 0.12684304E+05</totfact>
</mgrwt>
</event>
<event>
 4    1  0.4837985E-002  0.6473965E+02  0.7818608E-02  0.1378953E+00
         -2   -1    0    0  501    0 -0.00000000000E+00  0.00000000000E+00  0.16014386617E+01  0.16014406919E+01  0.25500000000E-02 0. -1.
          2   -1    0    0    0  501  0.00000000000E+00 -0.00000000000E+00 -0.65428983632E+03  0.65428983632E+03  0.25500000000E-02 0. -1.
          2    1    1    2    0  502  0.29508291016E+02 -0.45980651647E+01 -0.19983610157E+03  0.20205531159E+03  0.25500000000E-02 0. -1.
         -2    1    1    2  502    0 -0.29508291016E+02  0.45980651647E+01 -0.45285229608E+03  0.45383596543E+03  0.25500000000E-02 0. -1.
<mgrwt>
<rscale>  0 0.64739654E+02</rscale>
<asrwt>0</asrwt>
<pdfrwt beam="2">  1        2 0.10065976E+00 0.64739654E+02</pdfrwt>
<pdfrwt beam="1">  1       -2 0.24637586E-03 0.64739654E+02</pdfrwt>
<totfact> 0.56668539E+05</totfact>
</mgrwt>
</event>
<event>
 4    1  0.4837985E-002  0.1082458E+03  0.7818608E-02  0.1263853E+00
          2   -1    0    0    0  501  0.00000000000E+00  0.00000000000E+00  0.69214977519E+03  0.69214977519E+03  0.25500000000E-02 0. -1.
         -2   -1    0    0  501    0 -0.00000000000E+00 -0.00000000000E+00 -0.42321574081E+01  0.42321581764E+01  0.25500000000E-02 0. -1.
          2    1    1    2    0  502 -0.24271515289E+02  0.15925511094E+02  0.63782649709E+03  0.63848678041E+03  0.25500000000E-02 0. -1.
         -2    1    1    2  502    0  0.24271515289E+02 -0.15925511094E+02  0.50091120691E+02  0.57895152963E+02  0.25500000000E-02 0. -1.
<mgrwt>
<rscale>  0 0.10824578E+03</rscale>
<asrwt>0</asrwt>
<pdfrwt beam="1">  1        2 0.10648444E+00 0.10824578E+03</pdfrwt>
<pdfrwt beam="2">  1       -2 0.65110204E-03 0.10824578E+03</pdfrwt>
<totfact> 0.14981285E+05</totfact>
</mgrwt>
</event>
<event>
 4    1  0.4837985E-002  0.5495822E+02  0.7818608E-02  0.1420297E+00
         -2   -1    0    0  501    0 -0.00000000000E+00  0.00000000000E+00  0.76370628098E+00  0.76371053816E+00  0.25500000000E-02 0. -1.
          2   -1    0    0    0  501  0.00000000000E+00 -0.00000000000E+00 -0.98872998750E+03  0.98872998750E+03  0.25500000000E-02 0. -1.
          2    1    1    2    0  502  0.26576339228E+01  0.24530680565E+02 -0.27622271712E+03  0.27732256808E+03  0.25500000000E-02 0. -1.
         -2    1    1    2  502    0 -0.26576339228E+01 -0.24530680565E+02 -0.71174356410E+03  0.71217112996E+03  0.25500000000E-02 0. -1.
<mgrwt>
<rscale>  0 0.54958217E+02</rscale>
<asrwt>0</asrwt>
<pdfrwt beam="2">  1        2 0.15211128E+00 0.54958217E+02</pdfrwt>
<pdfrwt beam="1">  1       -2 0.11749439E-03 0.54958217E+02</pdfrwt>
<totfact> 0.91525154E+05</totfact>
</mgrwt>
</event>
<event>
 4    1  0.4837985E-002  0.6806343E+02  0.7818608E-02  0.1366805E+00
         -2   -1    0    0  501    0 -0.00000000000E+00  0.00000000000E+00  0.14516173175E+02  0.14516173399E+02  0.25500000000E-02 0. -1.
          2   -1    0    0    0  501  0.00000000000E+00 -0.00000000000E+00 -0.79783940812E+02  0.79783940853E+02  0.25500000000E-02 0. -1.
          2    1    1    2    0  502 -0.22381796462E+02  0.17491360536E+02 -0.66672383236E+01  0.29177809713E+02  0.25500000000E-02 0. -1.
         -2    1    1    2  502    0  0.22381796462E+02 -0.17491360536E+02 -0.58600529313E+02  0.65122304540E+02  0.25500000000E-02 0. -1.
<mgrwt>
<rscale>  0 0.68063427E+02</rscale>
<asrwt>0</asrwt>
<pdfrwt beam="2">  1        2 0.12274452E-01 0.68063427E+02</pdfrwt>
<pdfrwt beam="1">  1       -2 0.22332575E-02 0.68063427E+02</pdfrwt>
<totfact> 0.25392795E+05</totfact>
</mgrwt>
</event>
<event>
 4    1  0.4837985E-002  0.4657238E+02  0.7818608E-02  0.1464758E+00
          2   -1    0    0    0  501  0.00000000000E+00  0.00000000000E+00  0.62552788845E+03  0.62552788845E+03  0.25500000000E-02 0. -1.
         -2   -1    0    0  501    0 -0.00000000000E+00 -0.00000000000E+00 -0.86686043487E+00  0.86686418547E+00  0.25500000000E-02 0. -1.
          2    1    1    2    0  502  0.22107998007E+02 -0.72795291096E+01  0.30290186778E+03  0.30379482654E+03  0.25500000000E-02 0. -1.
         -2    1    1    2  502    0 -0.22107998007E+02  0.72795291096E+01  0.32175916023E+03  0.32259992610E+03  0.25500000000E-02 0. -1.
<mgrwt>
<rscale>  0 0.46572376E+02</rscale>
<asrwt>0</asrwt>
<pdfrwt beam="1">  1        2 0.96235034E-01 0.46572376E+02</pdfrwt>
<pdfrwt beam="2">  1       -2 0.13336347E-03 0.46572376E+02</pdfrwt>
<totfact> 0.12752458E+06</totfact>
</mgrwt>
</event>
<event>
 4    1  0.4837985E-002  0.6252631E+02  0.7818608E-02  0.1387526E+00
         -2   -1    0    0  501    0 -0.00000000000E+00  0.00000000000E+00  0.62755592119E+00  0.62756110198E+00  0.25500000000E-02 0.  1.
          2   -1    0    0    0  501  0.00000000000E+00 -0.00000000000E+00 -0.15574403693E+04  0.15574403693E+04  0.25500000000E-02 0.  1.
          2    1    1    2    0  502 -0.21770230828E+02 -0.16633561354E+02 -0.11536498841E+04  0.11539751615E+04  0.25500000000E-02 0. -1.
         -2    1    1    2  502    0  0.21770230828E+02  0.16633561354E+02 -0.40316292929E+03  0.40409276890E+03  0.25500000000E-02 0. -1.
<mgrwt>
<rscale>  0 0.62526313E+02</rscale>
<asrwt>0</asrwt>
<pdfrwt beam="2">  1        2 0.23960312E+00 0.62526313E+02</pdfrwt>
<pdfrwt beam="1">  1       -2 0.96548710E-04 0.62526313E+02</pdfrwt>
<totfact> 0.61649828E+05</totfact>
</mgrwt>
</event>
<event>
 4    1  0.4837985E-002  0.1529181E+03  0.7818608E-02  0.1196932E+00
          2   -1    0    0    0  501  0.00000000000E+00  0.00000000000E+00  0.15440323553E+03  0.15440323555E+03  0.25500000000E-02 0. -1.
         -2   -1    0    0  501    0 -0.00000000000E+00 -0.00000000000E+00 -0.37861799408E+02  0.37861799494E+02  0.25500000000E-02 0. -1.
          2    1    1    2    0  502 -0.24104042653E+02 -0.51064632724E+02  0.12308467667E+03  0.13541949352E+03  0.25500000000E-02 0.  1.
         -2    1    1    2  502    0  0.24104042653E+02  0.51064632724E+02 -0.65432405526E+01  0.56845541522E+02  0.25500000000E-02 0.  1.
<mgrwt>
<rscale>  0 0.15291807E+03</rscale>
<asrwt>0</asrwt>
<pdfrwt beam="1">  1        2 0.23754344E-01 0.15291807E+03</pdfrwt>
<pdfrwt beam="2">  1       -2 0.58248921E-02 0.15291807E+03</pdfrwt>
<totfact> 0.32935971E+04</totfact>
</mgrwt>
</event>
<event>
 4    1  0.4837985E-002  0.7481598E+02  0.7818608E-02  0.1344442E+00
          2   -1    0    0    0  501  0.00000000000E+00  0.00000000000E+00  0.12782536043E+02  0.12782536297E+02  0.25500000000E-02 0.  1.
         -2   -1    0    0  501    0 -0.00000000000E+00 -0.00000000000E+00 -0.10947419352E+03  0.10947419355E+03  0.25500000000E-02 0.  1.
          2    1    1    2    0  502  0.35949090470E+02 -0.94448313548E+01 -0.41448480537E+02  0.55673319375E+02  0.25500000000E-02 0.  1.
         -2    1    1    2  502    0 -0.35949090470E+02  0.94448313548E+01 -0.55243176938E+02  0.66583410469E+02  0.25500000000E-02 0.  1.
<mgrwt>
<rscale>  0 0.74815983E+02</rscale>
<asrwt>0</asrwt>
<pdfrwt beam="1">  1        2 0.19665441E-02 0.74815983E+02</pdfrwt>
<pdfrwt beam="2">  1       -2 0.16842183E-01 0.74815983E+02</pdfrwt>
<totfact> 0.12725766E+05</totfact>
</mgrwt>
</event>
<event>
 4    1  0.4837985E-002  0.4564400E+02  0.7818608E-02  0.1470361E+00
         -2   -1    0    0  501    0 -0.00000000000E+00  0.00000000000E+00  0.13414679602E+03  0.13414679604E+03  0.25500000000E-02 0.  1.
          2   -1    0    0    0  501  0.00000000000E+00 -0.00000000000E+00 -0.38826401375E+01  0.38826409749E+01  0.25500000000E-02 0.  1.
          2    1    1    2    0  502  0.10669880617E+02  0.17021227153E+02  0.97880560313E+02  0.99920831762E+02  0.25500000000E-02 0. -1.
         -2    1    1    2  502    0 -0.10669880617E+02 -0.17021227153E+02  0.32383595566E+02  0.38108605255E+02  0.25500000000E-02 0. -1.
<mgrwt>
<rscale>  0 0.45644005E+02</rscale>
<asrwt>0</asrwt>
<pdfrwt beam="2">  1        2 0.59732930E-03 0.45644005E+02</pdfrwt>
<pdfrwt beam="1">  1       -2 0.20637969E-01 0.45644005E+02</pdfrwt>
<totfact> 0.40616120E+05</totfact>
</mgrwt>
</event>
<event>
 4    1  0.4837985E-002  0.4563542E+02  0.7818608E-02  0.1470413E+00
          2   -1    0    0    0  501  0.00000000000E+00  0.00000000000E+00  0.17955266277E+03  0.17955266279E+03  0.25500000000E-02 0.  1.
         -2   -1    0    0  501    0 -0.00000000000E+00 -0.00000000000E+00 -0.28996941602E+01  0.28996952814E+01  0.25500000000E-02 0.  1.
          2    1    1    2    0  502 -0.21936505281E+02  0.58768561067E+01  0.97176712664E+02  0.99795096033E+02  0.25500000000E-02 0.  1.
         -2    1    1    2  502    0  0.21936505281E+02 -0.58768561067E+01  0.79476255949E+02  0.82657262040E+02  0.25500000000E-02 0.  1.
<mgrwt>
<rscale>  0 0.45635421E+02</rscale>
<asrwt>0</asrwt>
<pdfrwt beam="1">  1        2 0.27623498E-01 0.45635421E+02</pdfrwt>
<pdfrwt beam="2">  1       -2 0.44610669E-03 0.45635421E+02</pdfrwt>
<totfact> 0.89232050E+05</totfact>
</mgrwt>
</event>
<event>
 4    1  0.4837985E-002  0.4083354E+02  0.7818608E-02  0.1502166E+00
         -2   -1    0    0  501    0 -0.00000000000E+00  0.00000000000E+00  0.76553628872E+00  0.76554053573E+00  0.25500000000E-02 0.  1.
          2   -1    0    0    0  501  0.00000000000E+00 -0.00000000000E+00 -0.54451146744E+03  0.54451146744E+03  0.25500000000E-02 0.  1.
          2    1    1    2    0  502  0.14085569365E+01  0.20305823917E+02 -0.29312971823E+03  0.29383557006E+03  0.25500000000E-02 0.  1.
         -2    1    1    2  502    0 -0.14085569365E+01 -0.20305823917E+02 -0.25061621291E+03  0.25144143791E+03  0.25500000000E-02 0.  1.
<mgrwt>
<rscale>  0 0.40833538E+02</rscale>
<asrwt>0</asrwt>
<pdfrwt beam="2">  1        2 0.83770686E-01 0.40833538E+02</pdfrwt>
<pdfrwt beam="1">  1       -2 0.11777558E-03 0.40833538E+02</pdfrwt>
<totfact> 0.16896841E+06</totfact>
</mgrwt>
</event>
<event>
 4    1  0.4837985E-002  0.1109921E+03  0.7818608E-02  0.1258744E+00
         -2   -1    0    0  501    0 -0.00000000000E+00  0.00000000000E+00  0.14552980144E+01  0.14553002485E+01  0.25500000000E-02 0. -1.
          2   -1    0    0    0  501  0.00000000000E+00 -0.00000000000E+00 -0.21162751462E+04  0.21162751462E+04  0.25500000000E-02 0. -1.
          2    1    1    2    0  502 -0.99750042760E+01  0.44981192126E+02 -0.16476593760E+04  0.16483034392E+04  0.25500000000E-02 0. -1.
         -2    1    1    2  502    0  0.99750042760E+01 -0.44981192126E+02 -0.46716047216E+03  0.46942700722E+03  0.25500000000E-02 0. -1.
<mgrwt>
<rscale>  0 0.11099213E+03</rscale>
<asrwt>0</asrwt>
<pdfrwt beam="2">  1        2 0.32557833E+00 0.11099213E+03</pdfrwt>
<pdfrwt beam="1">  1       -2 0.22389387E-03 0.11099213E+03</pdfrwt>
<totfact> 0.10997676E+05</totfact>
</mgrwt>
</event>
<event>
 4    1  0.4837985E-002  0.6736899E+02  0.7818608E-02  0.1369276E+00
          2   -1    0    0    0  501  0.00000000000E+00  0.00000000000E+00  0.40045458046E+03  0.40045458047E+03  0.25500000000E-02 0. -1.
         -2   -1    0    0  501    0 -0.00000000000E+00 -0.00000000000E+00 -0.28333920499E+01  0.28333931973E+01  0.25500000000E-02 0. -1.
          2    1    1    2    0  502  0.28037543959E+02 -0.15397102027E+02  0.26201321671E+03  0.26395852015E+03  0.25500000000E-02 0.  1.
         -2    1    1    2  502    0 -0.28037543959E+02  0.15397102027E+02  0.13560797171E+03  0.13932945352E+03  0.25500000000E-02 0.  1.
<mgrwt>
<rscale>  0 0.67368986E+02</rscale>
<asrwt>0</asrwt>
<pdfrwt beam="1">  1        2 0.61608399E-01 0.67368986E+02</pdfrwt>
<pdfrwt beam="2">  1       -2 0.43590654E-03 0.67368986E+02</pdfrwt>
<totfact> 0.44015518E+05</totfact>
</mgrwt>
</event>
<event>
 4    1  0.4837985E-002  0.4239458E+02  0.7818608E-02  0.1491295E+00
          2   -1    0    0    0  501  0.00000000000E+00  0.00000000000E+00  0.11581060891E+04  0.11581060891E+04  0.25500000000E-02 0. -1.
         -2   -1    0    0  501    0 -0.00000000000E+00 -0.00000000000E+00 -0.38797848494E+00  0.38798686483E+00  0.25500000000E-02 0. -1.
          2    1    1    2    0  502  0.96796000315E+01  0.18681293966E+02  0.50844529895E+03  0.50888044512E+03  0.25500000000E-02 0. -1.
         -2    1    1    2  502    0 -0.96796000315E+01 -0.18681293966E+02  0.64927281171E+03  0.64961363089E+03  0.25500000000E-02 0. -1.
<mgrwt>
<rscale>  0 0.42394580E+02</rscale>
<asrwt>0</asrwt>
<pdfrwt beam="1">  1        2 0.17816574E+00 0.42394580E+02</pdfrwt>
<pdfrwt beam="2">  1       -2 0.59691127E-04 0.42394580E+02</pdfrwt>
<totfact> 0.17306296E+06</totfact>
</mgrwt>
</event>
<event>
 4    1  0.4837985E-002  0.4332266E+02  0.7818608E-02  0.1485093E+00
          2   -1    0    0    0  501  0.00000000000E+00  0.00000000000E+00  0.18149182426E+01  0.18149200340E+01  0.25500000000E-02 0.  1.
         -2   -1    0    0  501    0 -0.00000000000E+00 -0.00000000000E+00 -0.25853115228E+03  0.25853115229E+03  0.25500000000E-02 0.  1.
          2    1    1    2    0  502  0.13410116066E+02  0.16074808515E+02 -0.16180794114E+03  0.16315649085E+03  0.25500000000E-02 0. -1.
         -2    1    1    2  502    0 -0.13410116066E+02 -0.16074808515E+02 -0.94908292889E+02  0.97189581475E+02  0.25500000000E-02 0. -1.
<mgrwt>
<rscale>  0 0.43322656E+02</rscale>
<asrwt>0</asrwt>
<pdfrwt beam="1">  1        2 0.27921853E-03 0.43322656E+02</pdfrwt>
<pdfrwt beam="2">  1       -2 0.39773994E-01 0.43322656E+02</pdfrwt>
<totfact> 0.35619632E+05</totfact>
</mgrwt>
</event>
<event>
 4    1  0.4837985E-002  0.5437900E+02  0.7818608E-02  0.1423059E+00
          2   -1    0    0    0  501  0.00000000000E+00  0.00000000000E+00  0.24328962741E+03  0.24328962742E+03  0.25500000000E-02 0.  1.
         -2   -1    0    0  501    0 -0.00000000000E+00 -0.00000000000E+00 -0.30386369646E+01  0.30386380345E+01  0.25500000000E-02 0.  1.
          2    1    1    2    0  502  0.18607112313E+01  0.25653575656E+02  0.80195824336E+02  0.84219584644E+02  0.25500000000E-02 0. -1.
         -2    1    1    2  502    0 -0.18607112313E+01 -0.25653575656E+02  0.16005516611E+03  0.16210868081E+03  0.25500000000E-02 0. -1.
<mgrwt>
<rscale>  0 0.54379003E+02</rscale>
<asrwt>0</asrwt>
<pdfrwt beam="1">  1        2 0.37429188E-01 0.54379003E+02</pdfrwt>
<pdfrwt beam="2">  1       -2 0.46748251E-03 0.54379003E+02</pdfrwt>
<totfact> 0.63714212E+05</totfact>
</mgrwt>
</event>
<event>
 4    1  0.4837985E-002  0.4814237E+02  0.7818608E-02  0.1455627E+00
         -2   -1    0    0  501    0 -0.00000000000E+00  0.00000000000E+00  0.21246105347E+00  0.21247635573E+00  0.25500000000E-02 0.  1.
          2   -1    0    0    0  501  0.00000000000E+00 -0.00000000000E+00 -0.27270925984E+04  0.27270925984E+04  0.25500000000E-02 0.  1.
          2    1    1    2    0  502 -0.67310933123E+01 -0.22456435509E+02 -0.10540688635E+04  0.10543295349E+04  0.25500000000E-02 0. -1.
         -2    1    1    2  502    0  0.67310933123E+01  0.22456435509E+02 -0.16728112739E+04  0.16729755399E+04  0.25500000000E-02 0. -1.
<mgrwt>
<rscale>  0 0.48142365E+02</rscale>
<asrwt>0</asrwt>
<pdfrwt beam="2">  1        2 0.41952468E+00 0.48142365E+02</pdfrwt>
<pdfrwt beam="1">  1       -2 0.32689677E-04 0.48142365E+02</pdfrwt>
<totfact> 0.66148420E+05</totfact>
</mgrwt>
</event>
<event>
 4    1  0.4837985E-002  0.4325570E+02  0.7818608E-02  0.1485534E+00
         -2   -1    0    0  501    0 -0.00000000000E+00  0.00000000000E+00  0.30947232055E+00  0.30948282616E+00  0.25500000000E-02 0.  1.
          2   -1    0    0    0  501  0.00000000000E+00 -0.00000000000E+00 -0.15114626845E+04  0.15114626845E+04  0.25500000000E-02 0.  1.
          2    1    1    2    0  502 -0.11973651132E+02 -0.17656667507E+02 -0.87982044388E+03  0.88007905310E+03  0.25500000000E-02 0.  1.
         -2    1    1    2  502    0  0.11973651132E+02  0.17656667507E+02 -0.63133276829E+03  0.63169311422E+03  0.25500000000E-02 0.  1.
<mgrwt>
<rscale>  0 0.43255696E+02</rscale>
<asrwt>0</asrwt>
<pdfrwt beam="2">  1        2 0.23252681E+00 0.43255696E+02</pdfrwt>
<pdfrwt beam="1">  1       -2 0.47613145E-04 0.43255696E+02</pdfrwt>
<totfact> 0.15606258E+06</totfact>
</mgrwt>
</event>
<event>
 4    1  0.4837985E-002  0.1342998E+03  0.7818608E-02  0.1221212E+00
          2   -1    0    0    0  501  0.00000000000E+00  0.00000000000E+00  0.39766817409E+04  0.39766817409E+04  0.25500000000E-02 0. -1.
         -2   -1    0    0  501    0 -0.00000000000E+00 -0.00000000000E+00 -0.11338853152E+01  0.11338881826E+01  0.25500000000E-02 0. -1.
          2    1    1    2    0  502  0.54357549507E+02  0.13677374455E+02  0.89255690248E+03  0.89431517819E+03  0.25500000000E-02 0.  1.
         -2    1    1    2  502    0 -0.54357549507E+02 -0.13677374455E+02  0.30829909531E+04  0.30835004509E+04  0.25500000000E-02 0.  1.
<mgrwt>
<rscale>  0 0.13429977E+03</rscale>
<asrwt>0</asrwt>
<pdfrwt beam="1">  1        2 0.61179102E+00 0.13429977E+03</pdfrwt>
<pdfrwt beam="2">  1       -2 0.17444587E-03 0.13429977E+03</pdfrwt>
<totfact> 0.12238242E+04</totfact>
</mgrwt>
</event>
<event>
 4    1  0.4837985E-002  0.1512720E+03  0.7818608E-02  0.1198919E+00
          2   -1    0    0    0  501  0.00000000000E+00  0.00000000000E+00  0.32833371934E+04  0.32833371934E+04  0.25500000000E-02 0.  1.
         -2   -1    0    0  501    0 -0.00000000000E+00 -0.00000000000E+00 -0.17423738019E+01  0.17423756678E+01  0.25500000000E-02 0.  1.
          2    1    1    2    0  502 -0.27811636316E+02  0.69831975297E+02  0.18235402768E+04  0.18250888014E+04  0.25500000000E-02 0. -1.
         -2    1    1    2  502    0  0.27811636316E+02 -0.69831975297E+02  0.14580545428E+04  0.14599907677E+04  0.25500000000E-02 0. -1.
<mgrwt>
<rscale>  0 0.15127199E+03</rscale>
<asrwt>0</asrwt>
<pdfrwt beam="1">  1        2 0.50512473E+00 0.15127199E+03</pdfrwt>
<pdfrwt beam="2">  1       -2 0.26805981E-03 0.15127199E+03</pdfrwt>
<totfact> 0.19682232E+04</totfact>
</mgrwt>
</event>
<event>
 4    1  0.4837985E-002  0.1269770E+03  0.7818608E-02  0.1232011E+00
         -2   -1    0    0  501    0 -0.00000000000E+00  0.00000000000E+00  0.24554663756E+01  0.24554676997E+01  0.25500000000E-02 0. -1.
          2   -1    0    0    0  501  0.00000000000E+00 -0.00000000000E+00 -0.16415584786E+04  0.16415584786E+04  0.25500000000E-02 0. -1.
          2    1    1    2    0  502 -0.40113331830E+02  0.94995238887E+01 -0.19438542632E+03  0.19870836499E+03  0.25500000000E-02 0.  1.
         -2    1    1    2  502    0  0.40113331830E+02 -0.94995238887E+01 -0.14447175859E+04  0.14453055813E+04  0.25500000000E-02 0.  1.
<mgrwt>
<rscale>  0 0.12697705E+03</rscale>
<asrwt>0</asrwt>
<pdfrwt beam="2">  1        2 0.25254658E+00 0.12697705E+03</pdfrwt>
<pdfrwt beam="1">  1       -2 0.37776547E-03 0.12697705E+03</pdfrwt>
<totfact> 0.93333841E+04</totfact>
</mgrwt>
</event>
<event>
 4    1  0.4837985E-002  0.5917254E+02  0.7818608E-02  0.1401337E+00
          2   -1    0    0    0  501  0.00000000000E+00  0.00000000000E+00  0.12028144168E+01  0.12028171198E+01  0.25500000000E-02 0. -1.
         -2   -1    0    0  501    0 -0.00000000000E+00 -0.00000000000E+00 -0.72774859535E+03  0.72774859535E+03  0.25500000000E-02 0. -1.
          2    1    1    2    0  502 -0.50663331551E+01  0.28755096921E+02 -0.42212684732E+03  0.42313543761E+03  0.25500000000E-02 0.  1.
         -2    1    1    2  502    0  0.50663331551E+01 -0.28755096921E+02 -0.30441893361E+03  0.30581597486E+03  0.25500000000E-02 0.  1.
<mgrwt>
<rscale>  0 0.59172544E+02</rscale>
<asrwt>0</asrwt>
<pdfrwt beam="1">  1        2 0.18504916E-03 0.59172544E+02</pdfrwt>
<pdfrwt beam="2">  1       -2 0.11196097E+00 0.59172544E+02</pdfrwt>
<totfact> 0.78837285E+04</totfact>
</mgrwt>
</event>
<event>
 4    1  0.4837985E-002  0.6067274E+02  0.7818608E-02  0.1395030E+00
          2   -1    0    0    0  501  0.00000000000E+00  0.00000000000E+00  0.10904553572E+04  0.10904553572E+04  0.25500000000E-02 0.  1.
         -2   -1    0    0  501    0 -0.00000000000E+00 -0.00000000000E+00 -0.84395326826E+00  0.84395712066E+00  0.25500000000E-02 0.  1.
          2    1    1    2    0  502 -0.27794840596E+02 -0.12135962216E+02  0.55701434548E+03  0.55783941759E+03  0.25500000000E-02 0.  1.
         -2    1    1    2  502    0  0.27794840596E+02  0.12135962216E+02  0.53259705841E+03  0.53345989669E+03  0.25500000000E-02 0.  1.
<mgrwt>
<rscale>  0 0.60672744E+02</rscale>
<asrwt>0</asrwt>
<pdfrwt beam="1">  1        2 0.16776278E+00 0.60672744E+02</pdfrwt>
<pdfrwt beam="2">  1       -2 0.12983894E-03 0.60672744E+02</pdfrwt>
<totfact> 0.71517271E+05</totfact>
</mgrwt>
</event>
<event>
 4    1  0.4837985E-002  0.5145701E+02  0.7818608E-02  0.1437638E+00
         -2   -1    0    0  501    0 -0.00000000000E+00  0.00000000000E+00  0.18671746187E+01  0.18671763600E+01  0.25500000000E-02 0. -1.
          2   -1    0    0    0  501  0.00000000000E+00 -0.00000000000E+00 -0.35452263728E+03  0.35452263729E+03  0.25500000000E-02 0. -1.
          2    1    1    2    0  502 -0.17278664686E+02  0.14042755927E+02 -0.26561764816E+03  0.26654921922E+03  0.25500000000E-02 0.  1.
         -2    1    1    2  502    0  0.17278664686E+02 -0.14042755927E+02 -0.87037814504E+02  0.89840594429E+02  0.25500000000E-02 0.  1.
<mgrwt>
<rscale>  0 0.51457010E+02</rscale>
<asrwt>0</asrwt>
<pdfrwt beam="2">  1        2 0.54541891E-01 0.51457010E+02</pdfrwt>
<pdfrwt beam="1">  1       -2 0.28725805E-03 0.51457010E+02</pdfrwt>
<totfact> 0.83458839E+05</totfact>
</mgrwt>
</event>
<event>
 4    1  0.4837985E-002  0.5811091E+02  0.7818608E-02  0.1405935E+00
         -2   -1    0    0  501    0 -0.00000000000E+00  0.00000000000E+00  0.63982630593E+02  0.63982630644E+02  0.25500000000E-02 0.  1.
          2   -1    0    0    0  501  0.00000000000E+00 -0.00000000000E+00 -0.13194511637E+02  0.13194511883E+02  0.25500000000E-02 0.  1.
          2    1    1    2    0  502  0.11930384320E+02  0.25548389680E+02  0.16081688588E+02  0.32460360435E+02  0.25500000000E-02 0.  1.
         -2    1    1    2  502    0 -0.11930384320E+02 -0.25548389680E+02  0.34706430368E+02  0.44716782092E+02  0.25500000000E-02 0.  1.
<mgrwt>
<rscale>  0 0.58110914E+02</rscale>
<asrwt>0</asrwt>
<pdfrwt beam="2">  1        2 0.20299249E-02 0.58110914E+02</pdfrwt>
<pdfrwt beam="1">  1       -2 0.98434814E-02 0.58110914E+02</pdfrwt>
<totfact> 0.27054003E+05</totfact>
</mgrwt>
</event>
<event>
 4    1  0.4837985E-002  0.7968792E+02  0.7818608E-02  0.1329939E+00
         -2   -1    0    0  501    0 -0.00000000000E+00  0.00000000000E+00  0.28216538473E+02  0.28216538588E+02  0.25500000000E-02 0.  1.
          2   -1    0    0    0  501  0.00000000000E+00 -0.00000000000E+00 -0.56262785132E+02  0.56262785190E+02  0.25500000000E-02 0.  1.
          2    1    1    2    0  502  0.17741754337E+02 -0.14732598205E+02  0.20422391878E+02  0.30804113253E+02  0.25500000000E-02 0. -1.
         -2    1    1    2  502    0 -0.17741754337E+02  0.14732598205E+02 -0.48468638536E+02  0.53675210525E+02  0.25500000000E-02 0. -1.
<mgrwt>
<rscale>  0 0.79687917E+02</rscale>
<asrwt>0</asrwt>
<pdfrwt beam="2">  1        2 0.86558131E-02 0.79687917E+02</pdfrwt>
<pdfrwt beam="1">  1       -2 0.43410060E-02 0.79687917E+02</pdfrwt>
<totfact> 0.15193328E+05</totfact>
</mgrwt>
</event>
<event>
 4    1  0.4837985E-002  0.5621858E+02  0.7818608E-02  0.1414422E+00
         -2   -1    0    0  501    0 -0.00000000000E+00  0.00000000000E+00  0.44162988015E+02  0.44162988089E+02  0.25500000000E-02 0.  1.
          2   -1    0    0    0  501  0.00000000000E+00 -0.00000000000E+00 -0.17891276921E+02  0.17891277102E+02  0.25500000000E-02 0.  1.
          2    1    1    2    0  502  0.16644802688E+02  0.20365940791E+02  0.21914203974E+01  0.26393622917E+02  0.25500000000E-02 0. -1.
         -2    1    1    2  502    0 -0.16644802688E+02 -0.20365940791E+02  0.24080290697E+02  0.35660642274E+02  0.25500000000E-02 0. -1.
<mgrwt>
<rscale>  0 0.56218583E+02</rscale>
<asrwt>0</asrwt>
<pdfrwt beam="2">  1        2 0.27525042E-02 0.56218583E+02</pdfrwt>
<pdfrwt beam="1">  1       -2 0.67943058E-02 0.56218583E+02</pdfrwt>
<totfact> 0.31456915E+05</totfact>
</mgrwt>
</event>
<event>
 4    1  0.4837985E-002  0.9604994E+02  0.7818608E-02  0.1288829E+00
         -2   -1    0    0  501    0 -0.00000000000E+00  0.00000000000E+00  0.86485426980E+00  0.86485802910E+00  0.25500000000E-02 0. -1.
          2   -1    0    0    0  501  0.00000000000E+00 -0.00000000000E+00 -0.26667995328E+04  0.26667995328E+04  0.25500000000E-02 0. -1.
          2    1    1    2    0  502  0.31939659437E+02 -0.23150724514E+02 -0.20937341687E+04  0.20941057440E+04  0.25500000000E-02 0.  1.
         -2    1    1    2  502    0 -0.31939659437E+02  0.23150724514E+02 -0.57220050982E+03  0.57355864682E+03  0.25500000000E-02 0.  1.
<mgrwt>
<rscale>  0 0.96049945E+02</rscale>
<asrwt>0</asrwt>
<pdfrwt beam="2">  1        2 0.41027027E+00 0.96049945E+02</pdfrwt>
<pdfrwt beam="1">  1       -2 0.13305693E-03 0.96049945E+02</pdfrwt>
<totfact> 0.11527688E+05</totfact>
</mgrwt>
</event>
<event>
 4    1  0.4837985E-002  0.4398013E+02  0.7818608E-02  0.1480811E+00
          2   -1    0    0    0  501  0.00000000000E+00  0.00000000000E+00  0.31911130509E+01  0.31911140697E+01  0.25500000000E-02 0. -1.
         -2   -1    0    0  501    0 -0.00000000000E+00 -0.00000000000E+00 -0.15153424444E+03  0.15153424446E+03  0.25500000000E-02 0. -1.
          2    1    1    2    0  502 -0.18090674291E+02  0.11432572845E+02 -0.91967165564E+02  0.94424232941E+02  0.25500000000E-02 0. -1.
         -2    1    1    2  502    0  0.18090674291E+02 -0.11432572845E+02 -0.56375965820E+02  0.60301125585E+02  0.25500000000E-02 0. -1.
<mgrwt>
<rscale>  0 0.43980131E+02</rscale>
<asrwt>0</asrwt>
<pdfrwt beam="1">  1        2 0.49094067E-03 0.43980131E+02</pdfrwt>
<pdfrwt beam="2">  1       -2 0.23312955E-01 0.43980131E+02</pdfrwt>
<totfact> 0.42747768E+05</totfact>
</mgrwt>
</event>
<event>
 4    1  0.4837985E-002  0.7248288E+02  0.7818608E-02  0.1351848E+00
          2   -1    0    0    0  501  0.00000000000E+00  0.00000000000E+00  0.13390134095E+04  0.13390134095E+04  0.25500000000E-02 0.  1.
         -2   -1    0    0  501    0 -0.00000000000E+00 -0.00000000000E+00 -0.98090117772E+00  0.98090449226E+00  0.25500000000E-02 0.  1.
          2    1    1    2    0  502  0.79691563203E+01 -0.31045887187E+02  0.98170836872E+03  0.98223147770E+03  0.25500000000E-02 0.  1.
         -2    1    1    2  502    0 -0.79691563203E+01  0.31045887187E+02  0.35632413959E+03  0.35776283628E+03  0.25500000000E-02 0.  1.
<mgrwt>
<rscale>  0 0.72482882E+02</rscale>
<asrwt>0</asrwt>
<pdfrwt beam="1">  1        2 0.20600259E+00 0.72482882E+02</pdfrwt>
<pdfrwt beam="2">  1       -2 0.15090774E-03 0.72482882E+02</pdfrwt>
<totfact> 0.44373286E+05</totfact>
</mgrwt>
</event>
<event>
 4    1  0.4837985E-002  0.4400071E+02  0.7818608E-02  0.1480678E+00
          2   -1    0    0    0  501  0.00000000000E+00  0.00000000000E+00  0.22205783018E+04  0.22205783018E+04  0.25500000000E-02 0.  1.
         -2   -1    0    0  501    0 -0.00000000000E+00 -0.00000000000E+00 -0.21796078540E+00  0.21797570157E+00  0.25500000000E-02 0.  1.
          2    1    1    2    0  502 -0.21346922337E+02 -0.23045487958E+01  0.13523056531E+04  0.13524760927E+04  0.25500000000E-02 0.  1.
         -2    1    1    2  502    0  0.21346922337E+02  0.23045487958E+01  0.86805468791E+03  0.86832018475E+03  0.25500000000E-02 0.  1.
<mgrwt>
<rscale>  0 0.44000707E+02</rscale>
<asrwt>0</asrwt>
<pdfrwt beam="1">  1        2 0.34162806E+00 0.44000707E+02</pdfrwt>
<pdfrwt beam="2">  1       -2 0.33533515E-04 0.44000707E+02</pdfrwt>
<totfact> 0.11351593E+06</totfact>
</mgrwt>
</event>
<event>
 4    1  0.4837985E-002  0.5849158E+02  0.7818608E-02  0.1404273E+00
         -2   -1    0    0  501    0 -0.00000000000E+00  0.00000000000E+00  0.40139072133E+02  0.40139072214E+02  0.25500000000E-02 0. -1.
          2   -1    0    0    0  501  0.00000000000E+00 -0.00000000000E+00 -0.21308816427E+02  0.21308816580E+02  0.25500000000E-02 0. -1.
          2    1    1    2    0  502 -0.19221911005E+02  0.20420938061E+02  0.70008468037E+00  0.28053283213E+02  0.25500000000E-02 0.  1.
         -2    1    1    2  502    0  0.19221911005E+02 -0.20420938061E+02  0.18130171026E+02  0.33394605581E+02  0.25500000000E-02 0.  1.
<mgrwt>
<rscale>  0 0.58491576E+02</rscale>
<asrwt>0</asrwt>
<pdfrwt beam="2">  1        2 0.32782795E-02 0.58491576E+02</pdfrwt>
<pdfrwt beam="1">  1       -2 0.61752418E-02 0.58491576E+02</pdfrwt>
<totfact> 0.29110305E+05</totfact>
</mgrwt>
</event>
<event>
 4    1  0.4837985E-002  0.4372120E+02  0.7818608E-02  0.1482487E+00
          2   -1    0    0    0  501  0.00000000000E+00  0.00000000000E+00  0.56445229181E+03  0.56445229181E+03  0.25500000000E-02 0.  1.
         -2   -1    0    0  501    0 -0.00000000000E+00 -0.00000000000E+00 -0.84663446214E+00  0.84663830233E+00  0.25500000000E-02 0.  1.
          2    1    1    2    0  502  0.31478567177E+01 -0.21545035174E+02  0.25663717066E+03  0.25755918720E+03  0.25500000000E-02 0.  1.
         -2    1    1    2  502    0 -0.31478567177E+01  0.21545035174E+02  0.30696848668E+03  0.30773974291E+03  0.25500000000E-02 0.  1.
<mgrwt>
<rscale>  0 0.43721201E+02</rscale>
<asrwt>0</asrwt>
<pdfrwt beam="1">  1        2 0.86839154E-01 0.43721201E+02</pdfrwt>
<pdfrwt beam="2">  1       -2 0.13025124E-03 0.43721201E+02</pdfrwt>
<totfact> 0.14469043E+06</totfact>
</mgrwt>
</event>
<event>
 4    1  0.4837985E-002  0.4999021E+02  0.7818608E-02  0.1445394E+00
          2   -1    0    0    0  501  0.00000000000E+00  0.00000000000E+00  0.12749627893E+03  0.12749627895E+03  0.25500000000E-02 0. -1.
         -2   -1    0    0  501    0 -0.00000000000E+00 -0.00000000000E+00 -0.49001835752E+01  0.49001842387E+01  0.25500000000E-02 0. -1.
          2    1    1    2    0  502 -0.30290765305E+01 -0.24744662131E+02  0.66095762426E+02  0.70640805671E+02  0.25500000000E-02 0. -1.
         -2    1    1    2  502    0  0.30290765305E+01  0.24744662131E+02  0.56500332925E+02  0.61755657520E+02  0.25500000000E-02 0. -1.
<mgrwt>
<rscale>  0 0.49990208E+02</rscale>
<asrwt>0</asrwt>
<pdfrwt beam="1">  1        2 0.19614811E-01 0.49990208E+02</pdfrwt>
<pdfrwt beam="2">  1       -2 0.75387448E-03 0.49990208E+02</pdfrwt>
<totfact> 0.64025388E+05</totfact>
</mgrwt>
</event>
<event>
 4    1  0.4837985E-002  0.6487870E+02  0.7818608E-02  0.1378428E+00
          2   -1    0    0    0  501  0.00000000000E+00  0.00000000000E+00  0.22924147289E+03  0.22924147290E+03  0.25500000000E-02 0. -1.
         -2   -1    0    0  501    0 -0.00000000000E+00 -0.00000000000E+00 -0.45904058387E+01  0.45904065470E+01  0.25500000000E-02 0. -1.
          2    1    1    2    0  502 -0.29184782539E+02  0.14137205823E+02  0.11533957949E+03  0.11981164686E+03  0.25500000000E-02 0. -1.
         -2    1    1    2  502    0  0.29184782539E+02 -0.14137205823E+02  0.10931148756E+03  0.11402023259E+03  0.25500000000E-02 0. -1.
<mgrwt>
<rscale>  0 0.64878702E+02</rscale>
<asrwt>0</asrwt>
<pdfrwt beam="1">  1        2 0.35267920E-01 0.64878702E+02</pdfrwt>
<pdfrwt beam="2">  1       -2 0.70621632E-03 0.64878702E+02</pdfrwt>
<totfact> 0.39785888E+05</totfact>
</mgrwt>
</event>
<event>
 4    1  0.4837985E-002  0.4364629E+02  0.7818608E-02  0.1482974E+00
         -2   -1    0    0  501    0 -0.00000000000E+00  0.00000000000E+00  0.24961862040E+03  0.24961862041E+03  0.25500000000E-02 0.  1.
          2   -1    0    0    0  501  0.00000000000E+00 -0.00000000000E+00 -0.19079085203E+01  0.19079102244E+01  0.25500000000E-02 0.  1.
          2    1    1    2    0  502  0.20598608338E+02 -0.12492329388E+01  0.16476195178E+03  0.16604928186E+03  0.25500000000E-02 0.  1.
         -2    1    1    2  502    0 -0.20598608338E+02  0.12492329388E+01  0.82948760101E+02  0.85477248770E+02  0.25500000000E-02 0.  1.
<mgrwt>
<rscale>  0 0.43646292E+02</rscale>
<asrwt>0</asrwt>
<pdfrwt beam="2">  1        2 0.29352489E-03 0.43646292E+02</pdfrwt>
<pdfrwt beam="1">  1       -2 0.38402817E-01 0.43646292E+02</pdfrwt>
<totfact> 0.35588516E+05</totfact>
</mgrwt>
</event>
<event>
 4    1  0.4837985E-002  0.8281074E+02  0.7818608E-02  0.1321259E+00
          2   -1    0    0    0  501  0.00000000000E+00  0.00000000000E+00  0.92063584905E+01  0.92063588436E+01  0.25500000000E-02 0.  1.
         -2   -1    0    0  501    0 -0.00000000000E+00 -0.00000000000E+00 -0.18621962689E+03  0.18621962690E+03  0.25500000000E-02 0.  1.
          2    1    1    2    0  502 -0.35092867660E+01 -0.33116788500E+02 -0.30442849879E+02  0.45119883526E+02  0.25500000000E-02 0. -1.
         -2    1    1    2  502    0  0.35092867660E+01  0.33116788500E+02 -0.14657041852E+03  0.15030610222E+03  0.25500000000E-02 0. -1.
<mgrwt>
<rscale>  0 0.82810740E+02</rscale>
<asrwt>0</asrwt>
<pdfrwt beam="1">  1        2 0.14163630E-02 0.82810740E+02</pdfrwt>
<pdfrwt beam="2">  1       -2 0.28649171E-01 0.82810740E+02</pdfrwt>
<totfact> 0.82049585E+04</totfact>
</mgrwt>
</event>
<event>
 4    1  0.4837985E-002  0.4158474E+02  0.7818608E-02  0.1496863E+00
         -2   -1    0    0  501    0 -0.00000000000E+00  0.00000000000E+00  0.34080834288E+00  0.34081788257E+00  0.25500000000E-02 0.  1.
          2   -1    0    0    0  501  0.00000000000E+00 -0.00000000000E+00 -0.12685036147E+04  0.12685036147E+04  0.25500000000E-02 0.  1.
          2    1    1    2    0  502  0.10031766592E+02 -0.17974930457E+02 -0.72349948711E+03  0.72379226462E+03  0.25500000000E-02 0. -1.
         -2    1    1    2  502    0 -0.10031766592E+02  0.17974930457E+02 -0.54466331923E+03  0.54505216795E+03  0.25500000000E-02 0. -1.
<mgrwt>
<rscale>  0 0.41584741E+02</rscale>
<asrwt>0</asrwt>
<pdfrwt beam="2">  1        2 0.19515062E+00 0.41584741E+02</pdfrwt>
<pdfrwt beam="1">  1       -2 0.52433802E-04 0.41584741E+02</pdfrwt>
<totfact> 0.17956442E+06</totfact>
</mgrwt>
</event>
<event>
 4    1  0.4837985E-002  0.6567849E+02  0.7818608E-02  0.1375437E+00
          2   -1    0    0    0  501  0.00000000000E+00  0.00000000000E+00  0.85960938028E+01  0.85960941810E+01  0.25500000000E-02 0. -1.
         -2   -1    0    0  501    0 -0.00000000000E+00 -0.00000000000E+00 -0.12545418973E+03  0.12545418976E+03  0.25500000000E-02 0. -1.
          2    1    1    2    0  502  0.12292656672E+01  0.28025224990E+02 -0.93275426987E+02  0.97402410729E+02  0.25500000000E-02 0.  1.
         -2    1    1    2  502    0 -0.12292656672E+01 -0.28025224990E+02 -0.23582668942E+02  0.36647873209E+02  0.25500000000E-02 0.  1.
<mgrwt>
<rscale>  0 0.65678490E+02</rscale>
<asrwt>0</asrwt>
<pdfrwt beam="1">  1        2 0.13224761E-02 0.65678490E+02</pdfrwt>
<pdfrwt beam="2">  1       -2 0.19300643E-01 0.65678490E+02</pdfrwt>
<totfact> 0.16911230E+05</totfact>
</mgrwt>
</event>
<event>
 4    1  0.4837985E-002  0.4761225E+02  0.7818608E-02  0.1458663E+00
          2   -1    0    0    0  501  0.00000000000E+00  0.00000000000E+00  0.11691974613E+03  0.11691974616E+03  0.25500000000E-02 0.  1.
         -2   -1    0    0  501    0 -0.00000000000E+00 -0.00000000000E+00 -0.48471843739E+01  0.48471850446E+01  0.25500000000E-02 0.  1.
          2    1    1    2    0  502 -0.22130519788E+02  0.87733171532E+01  0.55973503565E+02  0.60825686250E+02  0.25500000000E-02 0.  1.
         -2    1    1    2  502    0  0.22130519788E+02 -0.87733171532E+01  0.56099058196E+02  0.60941244957E+02  0.25500000000E-02 0.  1.
<mgrwt>
<rscale>  0 0.47612251E+02</rscale>
<asrwt>0</asrwt>
<pdfrwt beam="1">  1        2 0.17987653E-01 0.47612251E+02</pdfrwt>
<pdfrwt beam="2">  1       -2 0.74572076E-03 0.47612251E+02</pdfrwt>
<totfact> 0.70627616E+05</totfact>
</mgrwt>
</event>
<event>
 4    1  0.4837985E-002  0.5533029E+02  0.7818608E-02  0.1418543E+00
          2   -1    0    0    0  501  0.00000000000E+00  0.00000000000E+00  0.10894855686E+03  0.10894855689E+03  0.25500000000E-02 0. -1.
         -2   -1    0    0  501    0 -0.00000000000E+00 -0.00000000000E+00 -0.70249691725E+01  0.70249696353E+01  0.25500000000E-02 0. -1.
          2    1    1    2    0  502  0.11805909934E+02  0.18667188862E+02  0.16044500846E+02  0.27299623867E+02  0.25500000000E-02 0. -1.
         -2    1    1    2  502    0 -0.11805909934E+02 -0.18667188862E+02  0.85879086843E+02  0.88673902659E+02  0.25500000000E-02 0. -1.
<mgrwt>
<rscale>  0 0.55330291E+02</rscale>
<asrwt>0</asrwt>
<pdfrwt beam="1">  1        2 0.16761317E-01 0.55330291E+02</pdfrwt>
<pdfrwt beam="2">  1       -2 0.10807645E-02 0.55330291E+02</pdfrwt>
<totfact> 0.47325562E+05</totfact>
</mgrwt>
</event>
<event>
 4    1  0.4837985E-002  0.6247906E+02  0.7818608E-02  0.1387713E+00
         -2   -1    0    0  501    0 -0.00000000000E+00  0.00000000000E+00  0.67697826718E+02  0.67697826766E+02  0.25500000000E-02 0.  1.
          2   -1    0    0    0  501  0.00000000000E+00 -0.00000000000E+00 -0.14415652355E+02  0.14415652581E+02  0.25500000000E-02 0.  1.
          2    1    1    2    0  502 -0.15038449108E+02 -0.25333894863E+02  0.40295893739E+02  0.49917133725E+02  0.25500000000E-02 0. -1.
         -2    1    1    2  502    0  0.15038449108E+02  0.25333894863E+02  0.12986280623E+02  0.32196345622E+02  0.25500000000E-02 0. -1.
<mgrwt>
<rscale>  0 0.62479064E+02</rscale>
<asrwt>0</asrwt>
<pdfrwt beam="2">  1        2 0.22177928E-02 0.62479064E+02</pdfrwt>
<pdfrwt beam="1">  1       -2 0.10415050E-01 0.62479064E+02</pdfrwt>
<totfact> 0.22406286E+05</totfact>
</mgrwt>
</event>
<event>
 4    1  0.4837985E-002  0.6690692E+02  0.7818608E-02  0.1370939E+00
          2   -1    0    0    0  501  0.00000000000E+00  0.00000000000E+00  0.85439578838E+01  0.85439582643E+01  0.25500000000E-02 0.  1.
         -2   -1    0    0  501    0 -0.00000000000E+00 -0.00000000000E+00 -0.13098543230E+03  0.13098543233E+03  0.25500000000E-02 0.  1.
          2    1    1    2    0  502  0.19513074814E+02  0.11149868569E+02 -0.11289782899E+03  0.11511298561E+03  0.25500000000E-02 0.  1.
         -2    1    1    2  502    0 -0.19513074814E+02 -0.11149868569E+02 -0.95436454250E+01  0.24416404983E+02  0.25500000000E-02 0.  1.
<mgrwt>
<rscale>  0 0.66906922E+02</rscale>
<asrwt>0</asrwt>
<pdfrwt beam="1">  1        2 0.13144552E-02 0.66906922E+02</pdfrwt>
<pdfrwt beam="2">  1       -2 0.20151604E-01 0.66906922E+02</pdfrwt>
<totfact> 0.15932160E+05</totfact>
</mgrwt>
</event>
<event>
 4    1  0.4837985E-002  0.1485565E+03  0.7818608E-02  0.1202258E+00
          2   -1    0    0    0  501  0.00000000000E+00  0.00000000000E+00  0.26276264494E+04  0.26276264494E+04  0.25500000000E-02 0.  1.
         -2   -1    0    0  501    0 -0.00000000000E+00 -0.00000000000E+00 -0.20997109903E+01  0.20997125387E+01  0.25500000000E-02 0.  1.
          2    1    1    2    0  502  0.59422512801E+02  0.38762799960E+02  0.17020708685E+04  0.17035488931E+04  0.25500000000E-02 0. -1.
         -2    1    1    2  502    0 -0.59422512801E+02 -0.38762799960E+02  0.92345586995E+03  0.92617726891E+03  0.25500000000E-02 0. -1.
<mgrwt>
<rscale>  0 0.14855650E+03</rscale>
<asrwt>0</asrwt>
<pdfrwt beam="1">  1        2 0.40425004E+00 0.14855650E+03</pdfrwt>
<pdfrwt beam="2">  1       -2 0.32303273E-03 0.14855650E+03</pdfrwt>
<totfact> 0.36153242E+04</totfact>
</mgrwt>
</event>
<event>
 4    1  0.4837985E-002  0.5358979E+02  0.7818608E-02  0.1426888E+00
          2   -1    0    0    0  501  0.00000000000E+00  0.00000000000E+00  0.16083826911E+03  0.16083826913E+03  0.25500000000E-02 0.  1.
         -2   -1    0    0  501    0 -0.00000000000E+00 -0.00000000000E+00 -0.44639023194E+01  0.44639030477E+01  0.25500000000E-02 0.  1.
          2    1    1    2    0  502 -0.83401244224E+01 -0.19380683587E+02  0.27240379254E+02  0.34455868006E+02  0.25500000000E-02 0. -1.
         -2    1    1    2  502    0  0.83401244224E+01  0.19380683587E+02  0.12913398754E+03  0.13084630417E+03  0.25500000000E-02 0. -1.
<mgrwt>
<rscale>  0 0.53589789E+02</rscale>
<asrwt>0</asrwt>
<pdfrwt beam="1">  1        2 0.24744347E-01 0.53589789E+02</pdfrwt>
<pdfrwt beam="2">  1       -2 0.68675432E-03 0.53589789E+02</pdfrwt>
<totfact> 0.57607501E+05</totfact>
</mgrwt>
</event>
<event>
 4    1  0.4837985E-002  0.4254588E+02  0.7818608E-02  0.1490271E+00
         -2   -1    0    0  501    0 -0.00000000000E+00  0.00000000000E+00  0.25258273547E+03  0.25258273548E+03  0.25500000000E-02 0.  1.
          2   -1    0    0    0  501  0.00000000000E+00 -0.00000000000E+00 -0.17916417669E+01  0.17916435815E+01  0.25500000000E-02 0.  1.
          2    1    1    2    0  502 -0.20361170946E+02 -0.20661649902E+01  0.16009936033E+03  0.16140214219E+03  0.25500000000E-02 0. -1.
         -2    1    1    2  502    0  0.20361170946E+02  0.20661649902E+01  0.90691733374E+02  0.92972236872E+02  0.25500000000E-02 0. -1.
<mgrwt>
<rscale>  0 0.42545882E+02</rscale>
<asrwt>0</asrwt>
<pdfrwt beam="2">  1        2 0.27563737E-03 0.42545882E+02</pdfrwt>
<pdfrwt beam="1">  1       -2 0.38858877E-01 0.42545882E+02</pdfrwt>
<totfact> 0.37641869E+05</totfact>
</mgrwt>
</event>
<event>
 4    1  0.4837985E-002  0.8711072E+02  0.7818608E-02  0.1310003E+00
          2   -1    0    0    0  501  0.00000000000E+00  0.00000000000E+00  0.20243116654E+04  0.20243116654E+04  0.25500000000E-02 0. -1.
         -2   -1    0    0  501    0 -0.00000000000E+00 -0.00000000000E+00 -0.93714114633E+00  0.93714461565E+00  0.25500000000E-02 0. -1.
          2    1    1    2    0  502  0.41131055338E+02  0.14179256783E+02  0.96373411501E+03  0.96471563659E+03  0.25500000000E-02 0. -1.
         -2    1    1    2  502    0 -0.41131055338E+02 -0.14179256783E+02  0.10596404092E+04  0.10605331734E+04  0.25500000000E-02 0. -1.
<mgrwt>
<rscale>  0 0.87110717E+02</rscale>
<asrwt>0</asrwt>
<pdfrwt beam="1">  1        2 0.31143374E+00 0.87110717E+02</pdfrwt>
<pdfrwt beam="2">  1       -2 0.14417528E-03 0.87110717E+02</pdfrwt>
<totfact> 0.21946313E+05</totfact>
</mgrwt>
</event>
<event>
 4    1  0.4837985E-002  0.4539339E+02  0.7818608E-02  0.1471901E+00
          2   -1    0    0    0  501  0.00000000000E+00  0.00000000000E+00  0.13579519881E+01  0.13579543823E+01  0.25500000000E-02 0.  1.
         -2   -1    0    0  501    0 -0.00000000000E+00 -0.00000000000E+00 -0.37935029140E+03  0.37935029141E+03  0.25500000000E-02 0.  1.
          2    1    1    2    0  502  0.22526954102E+02  0.26698239282E+01 -0.19520648557E+03  0.19652013545E+03  0.25500000000E-02 0.  1.
         -2    1    1    2  502    0 -0.22526954102E+02 -0.26698239282E+01 -0.18278585384E+03  0.18418811034E+03  0.25500000000E-02 0.  1.
<mgrwt>
<rscale>  0 0.45393389E+02</rscale>
<asrwt>0</asrwt>
<pdfrwt beam="1">  1        2 0.20891618E-03 0.45393389E+02</pdfrwt>
<pdfrwt beam="2">  1       -2 0.58361499E-01 0.45393389E+02</pdfrwt>
<totfact> 0.25555380E+05</totfact>
</mgrwt>
</event>
<event>
 4    1  0.4837985E-002  0.6197027E+02  0.7818608E-02  0.1389745E+00
          2   -1    0    0    0  501  0.00000000000E+00  0.00000000000E+00  0.60856358040E+01  0.60856363383E+01  0.25500000000E-02 0. -1.
         -2   -1    0    0  501    0 -0.00000000000E+00 -0.00000000000E+00 -0.15776141594E+03  0.15776141596E+03  0.25500000000E-02 0. -1.
          2    1    1    2    0  502 -0.18444611150E+02 -0.12488455014E+02 -0.13278526307E+03  0.13464060043E+03  0.25500000000E-02 0. -1.
         -2    1    1    2  502    0  0.18444611150E+02  0.12488455014E+02 -0.18890517058E+02  0.29206451861E+02  0.25500000000E-02 0. -1.
<mgrwt>
<rscale>  0 0.61970269E+02</rscale>
<asrwt>0</asrwt>
<pdfrwt beam="1">  1        2 0.93625183E-03 0.61970269E+02</pdfrwt>
<pdfrwt beam="2">  1       -2 0.24270984E-01 0.61970269E+02</pdfrwt>
<totfact> 0.18133915E+05</totfact>
</mgrwt>
</event>
<event>
 4    1  0.4837985E-002  0.8546195E+02  0.7818608E-02  0.1314229E+00
         -2   -1    0    0  501    0 -0.00000000000E+00  0.00000000000E+00  0.61736757546E+00  0.61737284175E+00  0.25500000000E-02 0. -1.
          2   -1    0    0    0  501  0.00000000000E+00 -0.00000000000E+00 -0.29576036465E+04  0.29576036465E+04  0.25500000000E-02 0. -1.
          2    1    1    2    0  502  0.33082955062E+02 -0.27040307878E+02 -0.14603012239E+04  0.14609261873E+04  0.25500000000E-02 0.  1.
         -2    1    1    2  502    0 -0.33082955062E+02  0.27040307878E+02 -0.14966850550E+04  0.14972948321E+04  0.25500000000E-02 0.  1.
<mgrwt>
<rscale>  0 0.85461954E+02</rscale>
<asrwt>0</asrwt>
<pdfrwt beam="2">  1        2 0.45500460E+00 0.85461954E+02</pdfrwt>
<pdfrwt beam="1">  1       -2 0.94982401E-04 0.85461954E+02</pdfrwt>
<totfact> 0.12550984E+05</totfact>
</mgrwt>
</event>
<event>
 4    1  0.4837985E-002  0.6967260E+02  0.7818608E-02  0.1361210E+00
         -2   -1    0    0  501    0 -0.00000000000E+00  0.00000000000E+00  0.12541220874E+01  0.12541246799E+01  0.25500000000E-02 0.  1.
          2   -1    0    0    0  501  0.00000000000E+00 -0.00000000000E+00 -0.96766227899E+03  0.96766227899E+03  0.25500000000E-02 0.  1.
          2    1    1    2    0  502  0.24513589584E+02  0.24562930151E+02 -0.44076178589E+03  0.44212578020E+03  0.25500000000E-02 0.  1.
         -2    1    1    2  502    0 -0.24513589584E+02 -0.24562930151E+02 -0.52564637101E+03  0.52679062347E+03  0.25500000000E-02 0.  1.
<mgrwt>
<rscale>  0 0.69672603E+02</rscale>
<asrwt>0</asrwt>
<pdfrwt beam="2">  1        2 0.14887052E+00 0.69672603E+02</pdfrwt>
<pdfrwt beam="1">  1       -2 0.19294283E-03 0.69672603E+02</pdfrwt>
<totfact> 0.50188048E+05</totfact>
</mgrwt>
</event>
<event>
 4    1  0.4837985E-002  0.4148052E+02  0.7818608E-02  0.1497591E+00
          2   -1    0    0    0  501  0.00000000000E+00  0.00000000000E+00  0.48546955600E+03  0.48546955600E+03  0.25500000000E-02 0.  1.
         -2   -1    0    0  501    0 -0.00000000000E+00 -0.00000000000E+00 -0.88606463827E+00  0.88606830757E+00  0.25500000000E-02 0.  1.
          2    1    1    2    0  502 -0.19071573571E+02  0.77594647361E+01  0.21304029144E+03  0.21403294138E+03  0.25500000000E-02 0.  1.
         -2    1    1    2  502    0  0.19071573571E+02 -0.77594647361E+01  0.27154319992E+03  0.27232268293E+03  0.25500000000E-02 0.  1.
<mgrwt>
<rscale>  0 0.41480516E+02</rscale>
<asrwt>0</asrwt>
<pdfrwt beam="1">  1        2 0.74687564E-01 0.41480516E+02</pdfrwt>
<pdfrwt beam="2">  1       -2 0.13631803E-03 0.41480516E+02</pdfrwt>
<totfact> 0.15718211E+06</totfact>
</mgrwt>
</event>
<event>
 4    1  0.4837985E-002  0.5164514E+02  0.7818608E-02  0.1436665E+00
          2   -1    0    0    0  501  0.00000000000E+00  0.00000000000E+00  0.52606297906E+02  0.52606297968E+02  0.25500000000E-02 0.  1.
         -2   -1    0    0  501    0 -0.00000000000E+00 -0.00000000000E+00 -0.12675383863E+02  0.12675384119E+02  0.25500000000E-02 0.  1.
          2    1    1    2    0  502  0.10927410045E+01 -0.24807301626E+02  0.28922228838E+02  0.38119438930E+02  0.25500000000E-02 0.  1.
         -2    1    1    2  502    0 -0.10927410045E+01  0.24807301626E+02  0.11008685206E+02  0.27162243157E+02  0.25500000000E-02 0.  1.
<mgrwt>
<rscale>  0 0.51645136E+02</rscale>
<asrwt>0</asrwt>
<pdfrwt beam="1">  1        2 0.80932767E-02 0.51645136E+02</pdfrwt>
<pdfrwt beam="2">  1       -2 0.19500591E-02 0.51645136E+02</pdfrwt>
<totfact> 0.47660992E+05</totfact>
</mgrwt>
</event>
<event>
 4    1  0.4837985E-002  0.5853719E+02  0.7818608E-02  0.1404075E+00
          2   -1    0    0    0  501  0.00000000000E+00  0.00000000000E+00  0.69464613096E+03  0.69464613096E+03  0.25500000000E-02 0.  1.
         -2   -1    0    0  501    0 -0.00000000000E+00 -0.00000000000E+00 -0.12332176160E+01  0.12332202524E+01  0.25500000000E-02 0.  1.
          2    1    1    2    0  502  0.19486551266E+02 -0.21704230744E+02  0.31795011492E+03  0.31928525631E+03  0.25500000000E-02 0. -1.
         -2    1    1    2  502    0 -0.19486551266E+02  0.21704230744E+02  0.37546279842E+03  0.37659409490E+03  0.25500000000E-02 0. -1.
<mgrwt>
<rscale>  0 0.58537194E+02</rscale>
<asrwt>0</asrwt>
<pdfrwt beam="1">  1        2 0.10686863E+00 0.58537194E+02</pdfrwt>
<pdfrwt beam="2">  1       -2 0.18972599E-03 0.58537194E+02</pdfrwt>
<totfact> 0.74166432E+05</totfact>
</mgrwt>
</event>
<event>
 4    1  0.4837985E-002  0.5600329E+02  0.7818608E-02  0.1415413E+00
          2   -1    0    0    0  501  0.00000000000E+00  0.00000000000E+00  0.38074652491E+01  0.38074661030E+01  0.25500000000E-02 0. -1.
         -2   -1    0    0  501    0 -0.00000000000E+00 -0.00000000000E+00 -0.20593547079E+03  0.20593547081E+03  0.25500000000E-02 0. -1.
          2    1    1    2    0  502 -0.43356403773E+01  0.27548331077E+02 -0.91601256974E+02  0.95752277301E+02  0.25500000000E-02 0. -1.
         -2    1    1    2  502    0  0.43356403773E+01 -0.27548331077E+02 -0.11052674857E+03  0.11399065961E+03  0.25500000000E-02 0. -1.
<mgrwt>
<rscale>  0 0.56003294E+02</rscale>
<asrwt>0</asrwt>
<pdfrwt beam="1">  1        2 0.58576411E-03 0.56003294E+02</pdfrwt>
<pdfrwt beam="2">  1       -2 0.31682372E-01 0.56003294E+02</pdfrwt>
<totfact> 0.21049242E+05</totfact>
</mgrwt>
</event>
<event>
 4    1  0.4837985E-002  0.6574335E+02  0.7818608E-02  0.1375197E+00
         -2   -1    0    0  501    0 -0.00000000000E+00  0.00000000000E+00  0.16686804988E+01  0.16686824472E+01  0.25500000000E-02 0.  1.
          2   -1    0    0    0  501  0.00000000000E+00 -0.00000000000E+00 -0.64754532304E+03  0.64754532304E+03  0.25500000000E-02 0.  1.
          2    1    1    2    0  502  0.31253726459E+02  0.94573848751E+01 -0.28558357536E+03  0.28744428342E+03  0.25500000000E-02 0.  1.
         -2    1    1    2  502    0 -0.31253726459E+02 -0.94573848751E+01 -0.36029306717E+03  0.36176972207E+03  0.25500000000E-02 0.  1.
<mgrwt>
<rscale>  0 0.65743346E+02</rscale>
<asrwt>0</asrwt>
<pdfrwt beam="2">  1        2 0.99622157E-01 0.65743346E+02</pdfrwt>
<pdfrwt beam="1">  1       -2 0.25672074E-03 0.65743346E+02</pdfrwt>
<totfact> 0.54348766E+05</totfact>
</mgrwt>
</event>
<event>
 4    1  0.4837985E-002  0.4099388E+02  0.7818608E-02  0.1501022E+00
         -2   -1    0    0  501    0 -0.00000000000E+00  0.00000000000E+00  0.33638731003E+01  0.33638740668E+01  0.25500000000E-02 0.  1.
          2   -1    0    0    0  501  0.00000000000E+00 -0.00000000000E+00 -0.12489310692E+03  0.12489310695E+03  0.25500000000E-02 0.  1.
          2    1    1    2    0  502 -0.17132027089E+02  0.11021666476E+02 -0.67858621859E+02  0.70850377919E+02  0.25500000000E-02 0. -1.
         -2    1    1    2  502    0  0.17132027089E+02 -0.11021666476E+02 -0.53670611960E+02  0.57406603093E+02  0.25500000000E-02 0. -1.
<mgrwt>
<rscale>  0 0.40993884E+02</rscale>
<asrwt>0</asrwt>
<pdfrwt beam="2">  1        2 0.19214321E-01 0.40993884E+02</pdfrwt>
<pdfrwt beam="1">  1       -2 0.51751911E-03 0.40993884E+02</pdfrwt>
<totfact> 0.10431339E+06</totfact>
</mgrwt>
</event>
<event>
 4    1  0.4837985E-002  0.4941421E+02  0.7818608E-02  0.1448527E+00
         -2   -1    0    0  501    0 -0.00000000000E+00  0.00000000000E+00  0.20808950303E+01  0.20808965927E+01  0.25500000000E-02 0. -1.
          2   -1    0    0    0  501  0.00000000000E+00 -0.00000000000E+00 -0.29335492579E+03  0.29335492580E+03  0.25500000000E-02 0. -1.
          2    1    1    2    0  502  0.20838786238E+02 -0.12090530521E+02 -0.11288720540E+03  0.11542944637E+03  0.25500000000E-02 0. -1.
         -2    1    1    2  502    0 -0.20838786238E+02  0.12090530521E+02 -0.17838682536E+03  0.18000637602E+03  0.25500000000E-02 0. -1.
<mgrwt>
<rscale>  0 0.49414210E+02</rscale>
<asrwt>0</asrwt>
<pdfrwt beam="2">  1        2 0.45131494E-01 0.49414210E+02</pdfrwt>
<pdfrwt beam="1">  1       -2 0.32013805E-03 0.49414210E+02</pdfrwt>
<totfact> 0.86433377E+05</totfact>
</mgrwt>
</event>
<event>
 4    1  0.4837985E-002  0.4900976E+02  0.7818608E-02  0.1450757E+00
          2   -1    0    0    0  501  0.00000000000E+00  0.00000000000E+00  0.20936257496E+03  0.20936257497E+03  0.25500000000E-02 0. -1.
         -2   -1    0    0  501    0 -0.00000000000E+00 -0.00000000000E+00 -0.28681777110E+01  0.28681788445E+01  0.25500000000E-02 0. -1.
          2    1    1    2    0  502 -0.91140187949E+01  0.22715927702E+02  0.98104291902E+02  0.10111147712E+03  0.25500000000E-02 0.  1.
         -2    1    1    2  502    0  0.91140187949E+01 -0.22715927702E+02  0.10839010535E+03  0.11111927670E+03  0.25500000000E-02 0.  1.
<mgrwt>
<rscale>  0 0.49009762E+02</rscale>
<asrwt>0</asrwt>
<pdfrwt beam="1">  1        2 0.32209629E-01 0.49009762E+02</pdfrwt>
<pdfrwt beam="2">  1       -2 0.44125818E-03 0.49009762E+02</pdfrwt>
<totfact> 0.78580046E+05</totfact>
</mgrwt>
</event>
<event>
 4    1  0.4837985E-002  0.6690654E+02  0.7818608E-02  0.1370940E+00
         -2   -1    0    0  501    0 -0.00000000000E+00  0.00000000000E+00  0.41458502438E+03  0.41458502439E+03  0.25500000000E-02 0. -1.
          2   -1    0    0    0  501  0.00000000000E+00 -0.00000000000E+00 -0.26993762498E+01  0.26993774543E+01  0.25500000000E-02 0. -1.
          2    1    1    2    0  502  0.32959027367E+02 -0.46131967132E+01  0.22713164885E+03  0.22955688834E+03  0.25500000000E-02 0.  1.
         -2    1    1    2  502    0 -0.32959027367E+02  0.46131967132E+01  0.18475399929E+03  0.18772751351E+03  0.25500000000E-02 0.  1.
<mgrwt>
<rscale>  0 0.66906538E+02</rscale>
<asrwt>0</asrwt>
<pdfrwt beam="2">  1        2 0.41528886E-03 0.66906538E+02</pdfrwt>
<pdfrwt beam="1">  1       -2 0.63782294E-01 0.66906538E+02</pdfrwt>
<totfact> 0.91957175E+04</totfact>
</mgrwt>
</event>
<event>
 4    1  0.4837985E-002  0.7921532E+02  0.7818608E-02  0.1331293E+00
          2   -1    0    0    0  501  0.00000000000E+00  0.00000000000E+00  0.17672081482E+04  0.17672081482E+04  0.25500000000E-02 0. -1.
         -2   -1    0    0  501    0 -0.00000000000E+00 -0.00000000000E+00 -0.88770725741E+00  0.88771091993E+00  0.25500000000E-02 0. -1.
          2    1    1    2    0  502 -0.38503784156E+02 -0.37811933721E+01  0.69386251171E+03  0.69494030246E+03  0.25500000000E-02 0. -1.
         -2    1    1    2  502    0  0.38503784156E+02  0.37811933721E+01  0.10724579292E+04  0.10731555566E+04  0.25500000000E-02 0. -1.
<mgrwt>
<rscale>  0 0.79215320E+02</rscale>
<asrwt>0</asrwt>
<pdfrwt beam="1">  1        2 0.27187549E+00 0.79215320E+02</pdfrwt>
<pdfrwt beam="2">  1       -2 0.13657198E-03 0.79215320E+02</pdfrwt>
<totfact> 0.31374623E+05</totfact>
</mgrwt>
</event>
<event>
 4    1  0.4837985E-002  0.6464103E+02  0.7818608E-02  0.1379327E+00
          2   -1    0    0    0  501  0.00000000000E+00  0.00000000000E+00  0.38867618029E+03  0.38867618030E+03  0.25500000000E-02 0.  1.
         -2   -1    0    0  501    0 -0.00000000000E+00 -0.00000000000E+00 -0.26876242909E+01  0.26876255006E+01  0.25500000000E-02 0.  1.
          2    1    1    2    0  502 -0.18288329464E+02 -0.21390416582E+02  0.28922007183E+03  0.29058606793E+03  0.25500000000E-02 0. -1.
         -2    1    1    2  502    0  0.18288329464E+02  0.21390416582E+02  0.96768484169E+02  0.10077773787E+03  0.25500000000E-02 0. -1.
<mgrwt>
<rscale>  0 0.64641033E+02</rscale>
<asrwt>0</asrwt>
<pdfrwt beam="1">  1        2 0.59796322E-01 0.64641033E+02</pdfrwt>
<pdfrwt beam="2">  1       -2 0.41348085E-03 0.64641033E+02</pdfrwt>
<totfact> 0.48430720E+05</totfact>
</mgrwt>
</event>
<event>
 4    1  0.4837985E-002  0.6628265E+02  0.7818608E-02  0.1373211E+00
         -2   -1    0    0  501    0 -0.00000000000E+00  0.00000000000E+00  0.12556515396E+01  0.12556541289E+01  0.25500000000E-02 0. -1.
          2   -1    0    0    0  501  0.00000000000E+00 -0.00000000000E+00 -0.87472228550E+03  0.87472228551E+03  0.25500000000E-02 0. -1.
          2    1    1    2    0  502  0.14324547191E+02  0.20052940235E+02 -0.72958604066E+03  0.73000212588E+03  0.25500000000E-02 0.  1.
         -2    1    1    2  502    0 -0.14324547191E+02 -0.20052940235E+02 -0.14388059331E+03  0.14597581375E+03  0.25500000000E-02 0.  1.
<mgrwt>
<rscale>  0 0.66282653E+02</rscale>
<asrwt>0</asrwt>
<pdfrwt beam="2">  1        2 0.13457217E+00 0.66282653E+02</pdfrwt>
<pdfrwt beam="1">  1       -2 0.19317806E-03 0.66282653E+02</pdfrwt>
<totfact> 0.56454766E+05</totfact>
</mgrwt>
</event>
<event>
 4    1  0.4837985E-002  0.4934864E+02  0.7818608E-02  0.1448887E+00
         -2   -1    0    0  501    0 -0.00000000000E+00  0.00000000000E+00  0.77538483731E+00  0.77538903038E+00  0.25500000000E-02 0.  1.
          2   -1    0    0    0  501  0.00000000000E+00 -0.00000000000E+00 -0.78518475887E+03  0.78518475888E+03  0.25500000000E-02 0.  1.
          2    1    1    2    0  502  0.19243064947E+02  0.87117772645E+01 -0.59531292717E+03  0.59568756230E+03  0.25500000000E-02 0. -1.
         -2    1    1    2  502    0 -0.19243064947E+02 -0.87117772645E+01 -0.18909644686E+03  0.19027258561E+03  0.25500000000E-02 0. -1.
<mgrwt>
<rscale>  0 0.49348638E+02</rscale>
<asrwt>0</asrwt>
<pdfrwt beam="2">  1        2 0.12079702E+00 0.49348638E+02</pdfrwt>
<pdfrwt beam="1">  1       -2 0.11929093E-03 0.49348638E+02</pdfrwt>
<totfact> 0.11630483E+06</totfact>
</mgrwt>
</event>
<event>
 4    1  0.4837985E-002  0.9880931E+02  0.7818608E-02  0.1282820E+00
         -2   -1    0    0  501    0 -0.00000000000E+00  0.00000000000E+00  0.18648544307E+03  0.18648544309E+03  0.25500000000E-02 0.  1.
          2   -1    0    0    0  501  0.00000000000E+00 -0.00000000000E+00 -0.13088527860E+02  0.13088528108E+02  0.25500000000E-02 0.  1.
          2    1    1    2    0  502  0.41888292356E+02  0.16107314583E+02  0.44974027443E+02  0.63535326949E+02  0.25500000000E-02 0.  1.
         -2    1    1    2  502    0 -0.41888292356E+02 -0.16107314583E+02  0.12842288777E+03  0.13603864425E+03  0.25500000000E-02 0.  1.
<mgrwt>
<rscale>  0 0.98809310E+02</rscale>
<asrwt>0</asrwt>
<pdfrwt beam="2">  1        2 0.20136197E-02 0.98809310E+02</pdfrwt>
<pdfrwt beam="1">  1       -2 0.28690068E-01 0.98809310E+02</pdfrwt>
<totfact> 0.52285756E+04</totfact>
</mgrwt>
</event>
<event>
 4    1  0.4837985E-002  0.7857029E+02  0.7818608E-02  0.1333158E+00
         -2   -1    0    0  501    0 -0.00000000000E+00  0.00000000000E+00  0.64660639397E+01  0.64660644425E+01  0.25500000000E-02 0. -1.
          2   -1    0    0    0  501  0.00000000000E+00 -0.00000000000E+00 -0.23868036985E+03  0.23868036986E+03  0.25500000000E-02 0. -1.
          2    1    1    2    0  502  0.30668676175E+02 -0.24366687531E+02 -0.10673678232E+03  0.11369715856E+03  0.25500000000E-02 0. -1.
         -2    1    1    2  502    0 -0.30668676175E+02  0.24366687531E+02 -0.12547752359E+03  0.13144927574E+03  0.25500000000E-02 0. -1.
<mgrwt>
<rscale>  0 0.78570289E+02</rscale>
<asrwt>0</asrwt>
<pdfrwt beam="2">  1        2 0.36720050E-01 0.78570289E+02</pdfrwt>
<pdfrwt beam="1">  1       -2 0.99477929E-03 0.78570289E+02</pdfrwt>
<totfact> 0.24503765E+05</totfact>
</mgrwt>
</event>
<event>
 4    1  0.4837985E-002  0.5579422E+02  0.7818608E-02  0.1416380E+00
         -2   -1    0    0  501    0 -0.00000000000E+00  0.00000000000E+00  0.90267888760E+02  0.90267888796E+02  0.25500000000E-02 0.  1.
          2   -1    0    0    0  501  0.00000000000E+00 -0.00000000000E+00 -0.86215456458E+01  0.86215460229E+01  0.25500000000E-02 0.  1.
          2    1    1    2    0  502  0.18553372830E+02  0.19999472127E+02  0.51164338489E+02  0.57982722152E+02  0.25500000000E-02 0.  1.
         -2    1    1    2  502    0 -0.18553372830E+02 -0.19999472127E+02  0.30482004626E+02  0.40906712667E+02  0.25500000000E-02 0.  1.
<mgrwt>
<rscale>  0 0.55794220E+02</rscale>
<asrwt>0</asrwt>
<pdfrwt beam="2">  1        2 0.13263918E-02 0.55794220E+02</pdfrwt>
<pdfrwt beam="1">  1       -2 0.13887367E-01 0.55794220E+02</pdfrwt>
<totfact> 0.27682849E+05</totfact>
</mgrwt>
</event>
<event>
 4    1  0.4837985E-002  0.5819952E+02  0.7818608E-02  0.1405547E+00
         -2   -1    0    0  501    0 -0.00000000000E+00  0.00000000000E+00  0.80712660537E+02  0.80712660578E+02  0.25500000000E-02 0.  1.
          2   -1    0    0    0  501  0.00000000000E+00 -0.00000000000E+00 -0.10491487874E+02  0.10491488184E+02  0.25500000000E-02 0.  1.
          2    1    1    2    0  502 -0.26997046452E+02  0.87698680370E+01  0.45150369345E+02  0.53332044411E+02  0.25500000000E-02 0. -1.
         -2    1    1    2  502    0  0.26997046452E+02 -0.87698680370E+01  0.25070803318E+02  0.37872104352E+02  0.25500000000E-02 0. -1.
<mgrwt>
<rscale>  0 0.58199516E+02</rscale>
<asrwt>0</asrwt>
<pdfrwt beam="2">  1        2 0.16140751E-02 0.58199516E+02</pdfrwt>
<pdfrwt beam="1">  1       -2 0.12417332E-01 0.58199516E+02</pdfrwt>
<totfact> 0.25628484E+05</totfact>
</mgrwt>
</event>
<event>
 4    1  0.4837985E-002  0.6136257E+02  0.7818608E-02  0.1392201E+00
         -2   -1    0    0  501    0 -0.00000000000E+00  0.00000000000E+00  0.94954307407E+01  0.94954310831E+01  0.25500000000E-02 0.  1.
          2   -1    0    0    0  501  0.00000000000E+00 -0.00000000000E+00 -0.99136242556E+02  0.99136242588E+02  0.25500000000E-02 0.  1.
          2    1    1    2    0  502  0.21234895021E+02  0.20109890619E+02 -0.61238949553E+02  0.67864109926E+02  0.25500000000E-02 0. -1.
         -2    1    1    2  502    0 -0.21234895021E+02 -0.20109890619E+02 -0.28401862262E+02  0.40767563745E+02  0.25500000000E-02 0. -1.
<mgrwt>
<rscale>  0 0.61362573E+02</rscale>
<asrwt>0</asrwt>
<pdfrwt beam="2">  1        2 0.15251729E-01 0.61362573E+02</pdfrwt>
<pdfrwt beam="1">  1       -2 0.14608356E-02 0.61362573E+02</pdfrwt>
<totfact> 0.35309075E+05</totfact>
</mgrwt>
</event>
<event>
 4    1  0.4837985E-002  0.4632573E+02  0.7818608E-02  0.1466231E+00
         -2   -1    0    0  501    0 -0.00000000000E+00  0.00000000000E+00  0.24214555732E+01  0.24214569159E+01  0.25500000000E-02 0.  1.
          2   -1    0    0    0  501  0.00000000000E+00 -0.00000000000E+00 -0.22156841693E+03  0.22156841695E+03  0.25500000000E-02 0.  1.
          2    1    1    2    0  502  0.21347901102E+02  0.89877505798E+01 -0.10993793403E+03  0.11235151040E+03  0.25500000000E-02 0.  1.
         -2    1    1    2  502    0 -0.21347901102E+02 -0.89877505798E+01 -0.10920902732E+03  0.11163836347E+03  0.25500000000E-02 0.  1.
<mgrwt>
<rscale>  0 0.46325726E+02</rscale>
<asrwt>0</asrwt>
<pdfrwt beam="2">  1        2 0.34087433E-01 0.46325726E+02</pdfrwt>
<pdfrwt beam="1">  1       -2 0.37253191E-03 0.46325726E+02</pdfrwt>
<totfact> 0.92121973E+05</totfact>
</mgrwt>
</event>
<event>
 4    1  0.4837985E-002  0.5614607E+02  0.7818608E-02  0.1414755E+00
         -2   -1    0    0  501    0 -0.00000000000E+00  0.00000000000E+00  0.10901085202E+01  0.10901115026E+01  0.25500000000E-02 0.  1.
          2   -1    0    0    0  501  0.00000000000E+00 -0.00000000000E+00 -0.72295024596E+03  0.72295024596E+03  0.25500000000E-02 0.  1.
          2    1    1    2    0  502 -0.17617564424E+02 -0.21778976928E+02 -0.33717654727E+03  0.33833818355E+03  0.25500000000E-02 0. -1.
         -2    1    1    2  502    0  0.17617564424E+02  0.21778976928E+02 -0.38468359017E+03  0.38570217391E+03  0.25500000000E-02 0. -1.
<mgrwt>
<rscale>  0 0.56146070E+02</rscale>
<asrwt>0</asrwt>
<pdfrwt beam="2">  1        2 0.11122273E+00 0.56146070E+02</pdfrwt>
<pdfrwt beam="1">  1       -2 0.16770981E-03 0.56146070E+02</pdfrwt>
<totfact> 0.83073640E+05</totfact>
</mgrwt>
</event>
<event>
 4    1  0.4837985E-002  0.4690849E+02  0.7818608E-02  0.1462767E+00
         -2   -1    0    0  501    0 -0.00000000000E+00  0.00000000000E+00  0.62793348662E+01  0.62793353840E+01  0.25500000000E-02 0.  1.
          2   -1    0    0    0  501  0.00000000000E+00 -0.00000000000E+00 -0.87605063985E+02  0.87605064022E+02  0.25500000000E-02 0.  1.
          2    1    1    2    0  502  0.12799249578E+02  0.19516474561E+02 -0.45308606856E+02  0.50966493217E+02  0.25500000000E-02 0.  1.
         -2    1    1    2  502    0 -0.12799249578E+02 -0.19516474561E+02 -0.36017122262E+02  0.42917906189E+02  0.25500000000E-02 0.  1.
<mgrwt>
<rscale>  0 0.46908488E+02</rscale>
<asrwt>0</asrwt>
<pdfrwt beam="2">  1        2 0.13477701E-01 0.46908488E+02</pdfrwt>
<pdfrwt beam="1">  1       -2 0.96605163E-03 0.46908488E+02</pdfrwt>
<totfact> 0.68042401E+05</totfact>
</mgrwt>
</event>
<event>
 4    1  0.4837985E-002  0.4851808E+02  0.7818608E-02  0.1453503E+00
         -2   -1    0    0  501    0 -0.00000000000E+00  0.00000000000E+00  0.38091967302E+00  0.38092820819E+00  0.25500000000E-02 0.  1.
          2   -1    0    0    0  501  0.00000000000E+00 -0.00000000000E+00 -0.15449303697E+04  0.15449303697E+04  0.25500000000E-02 0.  1.
          2    1    1    2    0  502 -0.18590208788E+02 -0.10925340501E+02 -0.41826127221E+03  0.41881672694E+03  0.25500000000E-02 0.  1.
         -2    1    1    2  502    0  0.18590208788E+02  0.10925340501E+02 -0.11262881778E+04  0.11264945710E+04  0.25500000000E-02 0.  1.
<mgrwt>
<rscale>  0 0.48518078E+02</rscale>
<asrwt>0</asrwt>
<pdfrwt beam="2">  1        2 0.23767658E+00 0.48518078E+02</pdfrwt>
<pdfrwt beam="1">  1       -2 0.58604920E-04 0.48518078E+02</pdfrwt>
<totfact> 0.11674659E+06</totfact>
</mgrwt>
</event>
<event>
 4    1  0.4837985E-002  0.5106542E+02  0.7818608E-02  0.1439678E+00
          2   -1    0    0    0  501  0.00000000000E+00  0.00000000000E+00  0.11998484073E+04  0.11998484073E+04  0.25500000000E-02 0.  1.
         -2   -1    0    0  501    0 -0.00000000000E+00 -0.00000000000E+00 -0.54333174044E+00  0.54333772432E+00  0.25500000000E-02 0.  1.
          2    1    1    2    0  502  0.14035285841E+02 -0.18280066329E+02  0.34132289705E+03  0.34210008788E+03  0.25500000000E-02 0. -1.
         -2    1    1    2  502    0 -0.14035285841E+02  0.18280066329E+02  0.85798217852E+03  0.85829165715E+03  0.25500000000E-02 0. -1.
<mgrwt>
<rscale>  0 0.51065421E+02</rscale>
<asrwt>0</asrwt>
<pdfrwt beam="1">  1        2 0.18459184E+00 0.51065421E+02</pdfrwt>
<pdfrwt beam="2">  1       -2 0.83590062E-04 0.51065421E+02</pdfrwt>
<totfact> 0.10936442E+06</totfact>
</mgrwt>
</event>
<event>
 4    1  0.4837985E-002  0.8165135E+02  0.7818608E-02  0.1324429E+00
         -2   -1    0    0  501    0 -0.00000000000E+00  0.00000000000E+00  0.20979408495E+01  0.20979423992E+01  0.25500000000E-02 0.  1.
          2   -1    0    0    0  501  0.00000000000E+00 -0.00000000000E+00 -0.79446246779E+03  0.79446246779E+03  0.25500000000E-02 0.  1.
          2    1    1    2    0  502 -0.35122548851E+01  0.23250572419E+02 -0.70599768787E+02  0.74412716733E+02  0.25500000000E-02 0. -1.
         -2    1    1    2  502    0  0.35122548851E+01 -0.23250572419E+02 -0.72176475815E+03  0.72214769346E+03  0.25500000000E-02 0. -1.
<mgrwt>
<rscale>  0 0.81651354E+02</rscale>
<asrwt>0</asrwt>
<pdfrwt beam="2">  1        2 0.12222476E+00 0.81651354E+02</pdfrwt>
<pdfrwt beam="1">  1       -2 0.32276088E-03 0.81651354E+02</pdfrwt>
<totfact> 0.32506531E+05</totfact>
</mgrwt>
</event>
<event>
 4    1  0.4837985E-002  0.9400950E+02  0.7818608E-02  0.1293423E+00
          2   -1    0    0    0  501  0.00000000000E+00  0.00000000000E+00  0.51326368830E+03  0.51326368831E+03  0.25500000000E-02 0.  1.
         -2   -1    0    0  501    0 -0.00000000000E+00 -0.00000000000E+00 -0.43047005083E+01  0.43047012636E+01  0.25500000000E-02 0.  1.
          2    1    1    2    0  502 -0.25847410703E+02  0.18666696831E+02  0.64327767967E+02  0.71795514823E+02  0.25500000000E-02 0. -1.
         -2    1    1    2  502    0  0.25847410703E+02 -0.18666696831E+02  0.44463121983E+03  0.44577287475E+03  0.25500000000E-02 0. -1.
<mgrwt>
<rscale>  0 0.94009503E+02</rscale>
<asrwt>0</asrwt>
<pdfrwt beam="1">  1        2 0.78963605E-01 0.94009503E+02</pdfrwt>
<pdfrwt beam="2">  1       -2 0.66226201E-03 0.94009503E+02</pdfrwt>
<totfact> 0.20039325E+05</totfact>
</mgrwt>
</event>
<event>
 4    1  0.4837985E-002  0.5254788E+02  0.7818608E-02  0.1432064E+00
         -2   -1    0    0  501    0 -0.00000000000E+00  0.00000000000E+00  0.50808862170E+02  0.50808862234E+02  0.25500000000E-02 0.  1.
          2   -1    0    0    0  501  0.00000000000E+00 -0.00000000000E+00 -0.13586606480E+02  0.13586606720E+02  0.25500000000E-02 0.  1.
          2    1    1    2    0  502  0.26048261145E+02 -0.29452768812E+01  0.16441866947E+02  0.30943845265E+02  0.25500000000E-02 0. -1.
         -2    1    1    2  502    0 -0.26048261145E+02  0.29452768812E+01  0.20780388743E+02  0.33451623689E+02  0.25500000000E-02 0. -1.
<mgrwt>
<rscale>  0 0.52547884E+02</rscale>
<asrwt>0</asrwt>
<pdfrwt beam="2">  1        2 0.20902471E-02 0.52547884E+02</pdfrwt>
<pdfrwt beam="1">  1       -2 0.78167482E-02 0.52547884E+02</pdfrwt>
<totfact> 0.36079894E+05</totfact>
</mgrwt>
</event>
<event>
 4    1  0.4837985E-002  0.4765056E+02  0.7818608E-02  0.1458442E+00
          2   -1    0    0    0  501  0.00000000000E+00  0.00000000000E+00  0.80584717868E+03  0.80584717868E+03  0.25500000000E-02 0.  1.
         -2   -1    0    0  501    0 -0.00000000000E+00 -0.00000000000E+00 -0.70440420035E+00  0.70440881594E+00  0.25500000000E-02 0.  1.
          2    1    1    2    0  502 -0.18797447734E+02 -0.14053608315E+02  0.33320203228E+03  0.33402760705E+03  0.25500000000E-02 0.  1.
         -2    1    1    2  502    0  0.18797447734E+02  0.14053608315E+02  0.47194074219E+03  0.47252398045E+03  0.25500000000E-02 0.  1.
<mgrwt>
<rscale>  0 0.47650561E+02</rscale>
<asrwt>0</asrwt>
<pdfrwt beam="1">  1        2 0.12397584E+00 0.47650561E+02</pdfrwt>
<pdfrwt beam="2">  1       -2 0.10837080E-03 0.47650561E+02</pdfrwt>
<totfact> 0.12732624E+06</totfact>
</mgrwt>
</event>
<event>
 4    1  0.4837985E-002  0.5273681E+02  0.7818608E-02  0.1431115E+00
         -2   -1    0    0  501    0 -0.00000000000E+00  0.00000000000E+00  0.23521136618E+01  0.23521150441E+01  0.25500000000E-02 0.  1.
          2   -1    0    0    0  501  0.00000000000E+00 -0.00000000000E+00 -0.29560325465E+03  0.29560325466E+03  0.25500000000E-02 0.  1.
          2    1    1    2    0  502 -0.13616044449E+02  0.15518273429E+02 -0.23930373937E+03  0.24019261679E+03  0.25500000000E-02 0.  1.
         -2    1    1    2  502    0  0.13616044449E+02 -0.15518273429E+02 -0.53947401615E+02  0.57762752913E+02  0.25500000000E-02 0.  1.
<mgrwt>
<rscale>  0 0.52736805E+02</rscale>
<asrwt>0</asrwt>
<pdfrwt beam="2">  1        2 0.45477394E-01 0.52736805E+02</pdfrwt>
<pdfrwt beam="1">  1       -2 0.36186398E-03 0.52736805E+02</pdfrwt>
<totfact> 0.73670615E+05</totfact>
</mgrwt>
</event>
<event>
 4    1  0.4837985E-002  0.4597962E+02  0.7818608E-02  0.1468317E+00
          2   -1    0    0    0  501  0.00000000000E+00  0.00000000000E+00  0.32086008799E+01  0.32086018932E+01  0.25500000000E-02 0. -1.
         -2   -1    0    0  501    0 -0.00000000000E+00 -0.00000000000E+00 -0.16472328864E+03  0.16472328866E+03  0.25500000000E-02 0. -1.
          2    1    1    2    0  502 -0.13231640302E+02  0.18663529139E+02 -0.72486859103E+02  0.76011501591E+02  0.25500000000E-02 0. -1.
         -2    1    1    2  502    0  0.13231640302E+02 -0.18663529139E+02 -0.89027828653E+02  0.91920388958E+02  0.25500000000E-02 0. -1.
<mgrwt>
<rscale>  0 0.45979621E+02</rscale>
<asrwt>0</asrwt>
<pdfrwt beam="1">  1        2 0.49363111E-03 0.45979621E+02</pdfrwt>
<pdfrwt beam="2">  1       -2 0.25342038E-01 0.45979621E+02</pdfrwt>
<totfact> 0.37281329E+05</totfact>
</mgrwt>
</event>
<event>
 4    1  0.4837985E-002  0.5104410E+02  0.7818608E-02  0.1439790E+00
         -2   -1    0    0  501    0 -0.00000000000E+00  0.00000000000E+00  0.14863177955E+01  0.14863199829E+01  0.25500000000E-02 0. -1.
          2   -1    0    0    0  501  0.00000000000E+00 -0.00000000000E+00 -0.43824717096E+03  0.43824717096E+03  0.25500000000E-02 0. -1.
          2    1    1    2    0  502  0.21794544509E+02  0.11606155716E+02 -0.27399080677E+03  0.27510119452E+03  0.25500000000E-02 0.  1.
         -2    1    1    2  502    0 -0.21794544509E+02 -0.11606155716E+02 -0.16277004639E+03  0.16463229643E+03  0.25500000000E-02 0.  1.
<mgrwt>
<rscale>  0 0.51044101E+02</rscale>
<asrwt>0</asrwt>
<pdfrwt beam="2">  1        2 0.67422539E-01 0.51044101E+02</pdfrwt>
<pdfrwt beam="1">  1       -2 0.22866479E-03 0.51044101E+02</pdfrwt>
<totfact> 0.91489821E+05</totfact>
</mgrwt>
</event>
<event>
 4    1  0.4837985E-002  0.4266856E+02  0.7818608E-02  0.1489444E+00
          2   -1    0    0    0  501  0.00000000000E+00  0.00000000000E+00  0.30241582095E+01  0.30241592846E+01  0.25500000000E-02 0. -1.
         -2   -1    0    0  501    0 -0.00000000000E+00 -0.00000000000E+00 -0.15050512722E+03  0.15050512724E+03  0.25500000000E-02 0. -1.
          2    1    1    2    0  502 -0.44387961871E+01  0.20646724552E+02 -0.84631305011E+02  0.87226417677E+02  0.25500000000E-02 0.  1.
         -2    1    1    2  502    0  0.44387961871E+01 -0.20646724552E+02 -0.62849664001E+02  0.66302868851E+02  0.25500000000E-02 0.  1.
<mgrwt>
<rscale>  0 0.42668555E+02</rscale>
<asrwt>0</asrwt>
<pdfrwt beam="1">  1        2 0.46525531E-03 0.42668555E+02</pdfrwt>
<pdfrwt beam="2">  1       -2 0.23154629E-01 0.42668555E+02</pdfrwt>
<totfact> 0.46103079E+05</totfact>
</mgrwt>
</event>
<event>
 4    1  0.4837985E-002  0.7173762E+02  0.7818608E-02  0.1354282E+00
         -2   -1    0    0  501    0 -0.00000000000E+00  0.00000000000E+00  0.77687140112E+00  0.77687558617E+00  0.25500000000E-02 0. -1.
          2   -1    0    0    0  501  0.00000000000E+00 -0.00000000000E+00 -0.16560889923E+04  0.16560889923E+04  0.25500000000E-02 0. -1.
          2    1    1    2    0  502 -0.28814223927E+02  0.11224473291E+02 -0.12474247065E+04  0.12478079366E+04  0.25500000000E-02 0. -1.
         -2    1    1    2  502    0  0.28814223927E+02 -0.11224473291E+02 -0.40788741445E+03  0.40905793131E+03  0.25500000000E-02 0. -1.
<mgrwt>
<rscale>  0 0.71737623E+02</rscale>
<asrwt>0</asrwt>
<pdfrwt beam="2">  1        2 0.25478010E+00 0.71737623E+02</pdfrwt>
<pdfrwt beam="1">  1       -2 0.11952032E-03 0.71737623E+02</pdfrwt>
<totfact> 0.42140761E+05</totfact>
</mgrwt>
</event>
<event>
 4    1  0.4837985E-002  0.5398017E+02  0.7818608E-02  0.1424984E+00
          2   -1    0    0    0  501  0.00000000000E+00  0.00000000000E+00  0.74398616665E+03  0.74398616665E+03  0.25500000000E-02 0.  1.
         -2   -1    0    0  501    0 -0.00000000000E+00 -0.00000000000E+00 -0.97913567918E+00  0.97913899970E+00  0.25500000000E-02 0.  1.
          2    1    1    2    0  502 -0.82101219043E+01  0.20204638730E+02  0.59094415748E+03  0.59134645581E+03  0.25500000000E-02 0. -1.
         -2    1    1    2  502    0  0.82101219043E+01 -0.20204638730E+02  0.15206287349E+03  0.15361884984E+03  0.25500000000E-02 0. -1.
<mgrwt>
<rscale>  0 0.53980168E+02</rscale>
<asrwt>0</asrwt>
<pdfrwt beam="1">  1        2 0.11445882E+00 0.53980168E+02</pdfrwt>
<pdfrwt beam="2">  1       -2 0.15063729E-03 0.53980168E+02</pdfrwt>
<totfact> 0.92190248E+05</totfact>
</mgrwt>
</event>
<event>
 4    1  0.4837985E-002  0.5147568E+02  0.7818608E-02  0.1437541E+00
         -2   -1    0    0  501    0 -0.00000000000E+00  0.00000000000E+00  0.61815278010E+00  0.61815803970E+00  0.25500000000E-02 0. -1.
          2   -1    0    0    0  501  0.00000000000E+00 -0.00000000000E+00 -0.10716339390E+04  0.10716339390E+04  0.25500000000E-02 0. -1.
          2    1    1    2    0  502 -0.24149490749E+02  0.56800742904E+00 -0.72055264014E+03  0.72095743824E+03  0.25500000000E-02 0. -1.
         -2    1    1    2  502    0  0.24149490749E+02 -0.56800742904E+00 -0.35046314608E+03  0.35129465881E+03  0.25500000000E-02 0. -1.
<mgrwt>
<rscale>  0 0.51475677E+02</rscale>
<asrwt>0</asrwt>
<pdfrwt beam="2">  1        2 0.16486527E+00 0.51475677E+02</pdfrwt>
<pdfrwt beam="1">  1       -2 0.95101690E-04 0.51475677E+02</pdfrwt>
<totfact> 0.10787877E+06</totfact>
</mgrwt>
</event>
<event>
 4    1  0.4837985E-002  0.5586006E+02  0.7818608E-02  0.1416075E+00
         -2   -1    0    0  501    0 -0.00000000000E+00  0.00000000000E+00  0.24366340530E+02  0.24366340664E+02  0.25500000000E-02 0.  1.
          2   -1    0    0    0  501  0.00000000000E+00 -0.00000000000E+00 -0.32014923186E+02  0.32014923287E+02  0.25500000000E-02 0.  1.
          2    1    1    2    0  502 -0.13003180572E+02 -0.20231882820E+02 -0.18158019652E+02  0.30135120236E+02  0.25500000000E-02 0.  1.
         -2    1    1    2  502    0  0.13003180572E+02  0.20231882820E+02  0.10509436997E+02  0.26246143715E+02  0.25500000000E-02 0.  1.
<mgrwt>
<rscale>  0 0.55860058E+02</rscale>
<asrwt>0</asrwt>
<pdfrwt beam="2">  1        2 0.49253728E-02 0.55860058E+02</pdfrwt>
<pdfrwt beam="1">  1       -2 0.37486678E-02 0.55860058E+02</pdfrwt>
<totfact> 0.35418482E+05</totfact>
</mgrwt>
</event>
<event>
 4    1  0.4837985E-002  0.7817973E+02  0.7818608E-02  0.1334298E+00
         -2   -1    0    0  501    0 -0.00000000000E+00  0.00000000000E+00  0.16233945595E+02  0.16233945795E+02  0.25500000000E-02 0. -1.
          2   -1    0    0    0  501  0.00000000000E+00 -0.00000000000E+00 -0.94124836802E+02  0.94124836837E+02  0.25500000000E-02 0. -1.
          2    1    1    2    0  502  0.27528976305E+02 -0.19129626906E+02 -0.10564478688E+02  0.35148191681E+02  0.25500000000E-02 0.  1.
         -2    1    1    2  502    0 -0.27528976305E+02  0.19129626906E+02 -0.67326412519E+02  0.75210590951E+02  0.25500000000E-02 0.  1.
<mgrwt>
<rscale>  0 0.78179729E+02</rscale>
<asrwt>0</asrwt>
<pdfrwt beam="2">  1        2 0.14480744E-01 0.78179729E+02</pdfrwt>
<pdfrwt beam="1">  1       -2 0.24975302E-02 0.78179729E+02</pdfrwt>
<totfact> 0.18322113E+05</totfact>
</mgrwt>
</event>
<event>
 4    1  0.4837985E-002  0.4790331E+02  0.7818608E-02  0.1456990E+00
          2   -1    0    0    0  501  0.00000000000E+00  0.00000000000E+00  0.18588559637E+03  0.18588559638E+03  0.25500000000E-02 0.  1.
         -2   -1    0    0  501    0 -0.00000000000E+00 -0.00000000000E+00 -0.30862085448E+01  0.30862095983E+01  0.25500000000E-02 0.  1.
          2    1    1    2    0  502  0.22236739254E+02 -0.80590153732E+01  0.76502165665E+02  0.80074975238E+02  0.25500000000E-02 0. -1.
         -2    1    1    2  502    0 -0.22236739254E+02  0.80590153732E+01  0.10629722216E+03  0.10889683074E+03  0.25500000000E-02 0. -1.
<mgrwt>
<rscale>  0 0.47903312E+02</rscale>
<asrwt>0</asrwt>
<pdfrwt beam="1">  1        2 0.28597794E-01 0.47903312E+02</pdfrwt>
<pdfrwt beam="2">  1       -2 0.47480123E-03 0.47903312E+02</pdfrwt>
<totfact> 0.79985056E+05</totfact>
</mgrwt>
</event>
<event>
 4    1  0.4837985E-002  0.7097189E+02  0.7818608E-02  0.1356819E+00
         -2   -1    0    0  501    0 -0.00000000000E+00  0.00000000000E+00  0.26989424052E+03  0.26989424053E+03  0.25500000000E-02 0. -1.
          2   -1    0    0    0  501  0.00000000000E+00 -0.00000000000E+00 -0.46657246437E+01  0.46657253406E+01  0.25500000000E-02 0. -1.
          2    1    1    2    0  502 -0.10962687287E+01  0.35122091207E+02  0.11347001599E+03  0.11878639497E+03  0.25500000000E-02 0.  1.
         -2    1    1    2  502    0  0.10962687287E+01 -0.35122091207E+02  0.15175849989E+03  0.15577357090E+03  0.25500000000E-02 0.  1.
<mgrwt>
<rscale>  0 0.70971890E+02</rscale>
<asrwt>0</asrwt>
<pdfrwt beam="2">  1        2 0.71780375E-03 0.70971890E+02</pdfrwt>
<pdfrwt beam="1">  1       -2 0.41522197E-01 0.70971890E+02</pdfrwt>
<totfact> 0.10239550E+05</totfact>
</mgrwt>
</event>
<event>
 4    1  0.4837985E-002  0.4913381E+02  0.7818608E-02  0.1450070E+00
         -2   -1    0    0  501    0 -0.00000000000E+00  0.00000000000E+00  0.59730221675E+00  0.59730765995E+00  0.25500000000E-02 0.  1.
          2   -1    0    0    0  501  0.00000000000E+00 -0.00000000000E+00 -0.10104266813E+04  0.10104266813E+04  0.25500000000E-02 0.  1.
          2    1    1    2    0  502  0.70472333273E+01  0.19131295949E+02 -0.22288068485E+03  0.22381123668E+03  0.25500000000E-02 0. -1.
         -2    1    1    2  502    0 -0.70472333273E+01 -0.19131295949E+02 -0.78694869427E+03  0.78721275232E+03  0.25500000000E-02 0. -1.
<mgrwt>
<rscale>  0 0.49133811E+02</rscale>
<asrwt>0</asrwt>
<pdfrwt beam="2">  1        2 0.15544889E+00 0.49133811E+02</pdfrwt>
<pdfrwt beam="1">  1       -2 0.91893876E-04 0.49133811E+02</pdfrwt>
<totfact> 0.12092612E+06</totfact>
</mgrwt>
</event>
<event>
 4    1  0.4837985E-002  0.4411214E+02  0.7818608E-02  0.1479962E+00
          2   -1    0    0    0  501  0.00000000000E+00  0.00000000000E+00  0.52362862496E+03  0.52362862497E+03  0.25500000000E-02 0. -1.
         -2   -1    0    0  501    0 -0.00000000000E+00 -0.00000000000E+00 -0.92903515770E+00  0.92903865729E+00  0.25500000000E-02 0. -1.
          2    1    1    2    0  502 -0.15815888841E+02  0.13068718873E+02  0.16508291545E+03  0.16635294627E+03  0.25500000000E-02 0. -1.
         -2    1    1    2  502    0  0.15815888841E+02 -0.13068718873E+02  0.35761667436E+03  0.35820471736E+03  0.25500000000E-02 0. -1.
<mgrwt>
<rscale>  0 0.44112144E+02</rscale>
<asrwt>0</asrwt>
<pdfrwt beam="1">  1        2 0.80558397E-01 0.44112144E+02</pdfrwt>
<pdfrwt beam="2">  1       -2 0.14292850E-03 0.44112144E+02</pdfrwt>
<totfact> 0.13853574E+06</totfact>
</mgrwt>
</event>
<event>
 4    1  0.4837985E-002  0.5057491E+02  0.7818608E-02  0.1442265E+00
         -2   -1    0    0  501    0 -0.00000000000E+00  0.00000000000E+00  0.22518572176E+03  0.22518572178E+03  0.25500000000E-02 0. -1.
          2   -1    0    0    0  501  0.00000000000E+00 -0.00000000000E+00 -0.28396794930E+01  0.28396806379E+01  0.25500000000E-02 0. -1.
          2    1    1    2    0  502  0.20673777997E+02  0.12594355850E+02  0.14413026413E+03  0.14614908806E+03  0.25500000000E-02 0. -1.
         -2    1    1    2  502    0 -0.20673777997E+02 -0.12594355850E+02  0.78215778136E+02  0.81876314352E+02  0.25500000000E-02 0. -1.
<mgrwt>
<rscale>  0 0.50574911E+02</rscale>
<asrwt>0</asrwt>
<pdfrwt beam="2">  1        2 0.43687376E-03 0.50574911E+02</pdfrwt>
<pdfrwt beam="1">  1       -2 0.34643965E-01 0.50574911E+02</pdfrwt>
<totfact> 0.26050240E+05</totfact>
</mgrwt>
</event>
<event>
 4    1  0.4837985E-002  0.5790761E+02  0.7818608E-02  0.1406828E+00
          2   -1    0    0    0  501  0.00000000000E+00  0.00000000000E+00  0.72042171531E+03  0.72042171531E+03  0.25500000000E-02 0.  1.
         -2   -1    0    0  501    0 -0.00000000000E+00 -0.00000000000E+00 -0.11636542453E+01  0.11636570393E+01  0.25500000000E-02 0.  1.
          2    1    1    2    0  502  0.27281412727E+02  0.42282864781E+01  0.46838195373E+03  0.46919485129E+03  0.25500000000E-02 0. -1.
         -2    1    1    2  502    0 -0.27281412727E+02 -0.42282864781E+01  0.25087610733E+03  0.25239052106E+03  0.25500000000E-02 0. -1.
<mgrwt>
<rscale>  0 0.57907609E+02</rscale>
<asrwt>0</asrwt>
<pdfrwt beam="1">  1        2 0.11083390E+00 0.57907609E+02</pdfrwt>
<pdfrwt beam="2">  1       -2 0.17902428E-03 0.57907609E+02</pdfrwt>
<totfact> 0.76826063E+05</totfact>
</mgrwt>
</event>
<event>
 4    1  0.4837985E-002  0.1043914E+03  0.7818608E-02  0.1271323E+00
          2   -1    0    0    0  501  0.00000000000E+00  0.00000000000E+00  0.16471957543E+04  0.16471957543E+04  0.25500000000E-02 0.  1.
         -2   -1    0    0  501    0 -0.00000000000E+00 -0.00000000000E+00 -0.16539563393E+01  0.16539583050E+01  0.25500000000E-02 0.  1.
          2    1    1    2    0  502  0.40703971990E+02 -0.18034745912E+02  0.39242895274E+03  0.39494626008E+03  0.25500000000E-02 0. -1.
         -2    1    1    2  502    0 -0.40703971990E+02  0.18034745912E+02  0.12531128452E+04  0.12539034525E+04  0.25500000000E-02 0. -1.
<mgrwt>
<rscale>  0 0.10439141E+03</rscale>
<asrwt>0</asrwt>
<pdfrwt beam="1">  1        2 0.25341504E+00 0.10439141E+03</pdfrwt>
<pdfrwt beam="2">  1       -2 0.25445466E-03 0.10439141E+03</pdfrwt>
<totfact> 0.15795413E+05</totfact>
</mgrwt>
</event>
<event>
 4    1  0.4837985E-002  0.4447356E+02  0.7818608E-02  0.1477655E+00
         -2   -1    0    0  501    0 -0.00000000000E+00  0.00000000000E+00  0.30148556223E+00  0.30149634614E+00  0.25500000000E-02 0. -1.
          2   -1    0    0    0  501  0.00000000000E+00 -0.00000000000E+00 -0.16400967933E+04  0.16400967933E+04  0.25500000000E-02 0. -1.
          2    1    1    2    0  502 -0.19080325343E+02  0.10295732254E+02 -0.63765006415E+03  0.63801854616E+03  0.25500000000E-02 0.  1.
         -2    1    1    2  502    0  0.19080325343E+02 -0.10295732254E+02 -0.10021452436E+04  0.10023797435E+04  0.25500000000E-02 0.  1.
<mgrwt>
<rscale>  0 0.44473558E+02</rscale>
<asrwt>0</asrwt>
<pdfrwt beam="2">  1        2 0.25231544E+00 0.44473558E+02</pdfrwt>
<pdfrwt beam="1">  1       -2 0.46384537E-04 0.44473558E+02</pdfrwt>
<totfact> 0.14082360E+06</totfact>
</mgrwt>
</event>
<event>
 4    1  0.4837985E-002  0.5232951E+02  0.7818608E-02  0.1433167E+00
         -2   -1    0    0  501    0 -0.00000000000E+00  0.00000000000E+00  0.10437559936E+02  0.10437560248E+02  0.25500000000E-02 0.  1.
          2   -1    0    0    0  501  0.00000000000E+00 -0.00000000000E+00 -0.65589495104E+02  0.65589495154E+02  0.25500000000E-02 0.  1.
          2    1    1    2    0  502 -0.20104064332E+02  0.16331923222E+02 -0.22200575233E+02  0.34114083103E+02  0.25500000000E-02 0.  1.
         -2    1    1    2  502    0  0.20104064332E+02 -0.16331923222E+02 -0.32951359935E+02  0.41912972298E+02  0.25500000000E-02 0.  1.
<mgrwt>
<rscale>  0 0.52329506E+02</rscale>
<asrwt>0</asrwt>
<pdfrwt beam="2">  1        2 0.10090691E-01 0.52329506E+02</pdfrwt>
<pdfrwt beam="1">  1       -2 0.16057785E-02 0.52329506E+02</pdfrwt>
<totfact> 0.48217606E+05</totfact>
</mgrwt>
</event>
<event>
 4    1  0.4837985E-002  0.1058351E+03  0.7818608E-02  0.1268483E+00
         -2   -1    0    0  501    0 -0.00000000000E+00  0.00000000000E+00  0.36073075452E+03  0.36073075453E+03  0.25500000000E-02 0.  1.
          2   -1    0    0    0  501  0.00000000000E+00 -0.00000000000E+00 -0.77627573313E+01  0.77627577501E+01  0.25500000000E-02 0.  1.
          2    1    1    2    0  502 -0.48429237778E+02 -0.87580704637E+01  0.10877535952E+03  0.11939084436E+03  0.25500000000E-02 0.  1.
         -2    1    1    2  502    0  0.48429237778E+02  0.87580704637E+01  0.24419263767E+03  0.24910266792E+03  0.25500000000E-02 0.  1.
<mgrwt>
<rscale>  0 0.10583507E+03</rscale>
<asrwt>0</asrwt>
<pdfrwt beam="2">  1        2 0.11942706E-02 0.10583507E+03</pdfrwt>
<pdfrwt beam="1">  1       -2 0.55497032E-01 0.10583507E+03</pdfrwt>
<totfact> 0.31039434E+04</totfact>
</mgrwt>
</event>
<event>
 4    1  0.4837985E-002  0.1249731E+03  0.7818608E-02  0.1235111E+00
         -2   -1    0    0  501    0 -0.00000000000E+00  0.00000000000E+00  0.50397871078E+01  0.50397877529E+01  0.25500000000E-02 0. -1.
          2   -1    0    0    0  501  0.00000000000E+00 -0.00000000000E+00 -0.77474882870E+03  0.77474882871E+03  0.25500000000E-02 0. -1.
          2    1    1    2    0  502  0.26853460563E+02  0.52533377017E+02 -0.25641688564E+03  0.26311686243E+03  0.25500000000E-02 0.  1.
         -2    1    1    2  502    0 -0.26853460563E+02 -0.52533377017E+02 -0.51329215595E+03  0.51667175403E+03  0.25500000000E-02 0.  1.
<mgrwt>
<rscale>  0 0.12497311E+03</rscale>
<asrwt>0</asrwt>
<pdfrwt beam="2">  1        2 0.11919203E+00 0.12497311E+03</pdfrwt>
<pdfrwt beam="1">  1       -2 0.77535253E-03 0.12497311E+03</pdfrwt>
<totfact> 0.10416339E+05</totfact>
</mgrwt>
</event>
<event>
 4    1  0.4837985E-002  0.5181703E+02  0.7818608E-02  0.1435780E+00
          2   -1    0    0    0  501  0.00000000000E+00  0.00000000000E+00  0.49590337279E+01  0.49590343836E+01  0.25500000000E-02 0.  1.
         -2   -1    0    0  501    0 -0.00000000000E+00 -0.00000000000E+00 -0.13535922941E+03  0.13535922943E+03  0.25500000000E-02 0.  1.
          2    1    1    2    0  502  0.19625350650E+02 -0.16198152084E+02 -0.78387737695E+02  0.82414634298E+02  0.25500000000E-02 0.  1.
         -2    1    1    2  502    0 -0.19625350650E+02  0.16198152084E+02 -0.52012457985E+02  0.57903629517E+02  0.25500000000E-02 0.  1.
<mgrwt>
<rscale>  0 0.51817025E+02</rscale>
<asrwt>0</asrwt>
<pdfrwt beam="1">  1        2 0.76292842E-03 0.51817025E+02</pdfrwt>
<pdfrwt beam="2">  1       -2 0.20824494E-01 0.51817025E+02</pdfrwt>
<totfact> 0.29711563E+05</totfact>
</mgrwt>
</event>
<event>
 4    1  0.4837985E-002  0.6183737E+02  0.7818608E-02  0.1390279E+00
          2   -1    0    0    0  501  0.00000000000E+00  0.00000000000E+00  0.21028405171E+04  0.21028405171E+04  0.25500000000E-02 0.  1.
         -2   -1    0    0  501    0 -0.00000000000E+00 -0.00000000000E+00 -0.45460303045E+00  0.45461018223E+00  0.25500000000E-02 0.  1.
          2    1    1    2    0  502  0.62361940105E+01  0.28477280558E+02  0.70080682517E+03  0.70141289682E+03  0.25500000000E-02 0.  1.
         -2    1    1    2  502    0 -0.62361940105E+01 -0.28477280558E+02  0.14015790889E+04  0.14018822304E+04  0.25500000000E-02 0.  1.
<mgrwt>
<rscale>  0 0.61837374E+02</rscale>
<asrwt>0</asrwt>
<pdfrwt beam="1">  1        2 0.32351356E+00 0.61837374E+02</pdfrwt>
<pdfrwt beam="2">  1       -2 0.69939558E-04 0.61837374E+02</pdfrwt>
<totfact> 0.51312104E+05</totfact>
</mgrwt>
</event>
<event>
 4    1  0.4837985E-002  0.6751436E+02  0.7818608E-02  0.1368756E+00
          2   -1    0    0    0  501  0.00000000000E+00  0.00000000000E+00  0.64276907590E+02  0.64276907641E+02  0.25500000000E-02 0. -1.
         -2   -1    0    0  501    0 -0.00000000000E+00 -0.00000000000E+00 -0.17728716243E+02  0.17728716426E+02  0.25500000000E-02 0. -1.
          2    1    1    2    0  502 -0.29145277767E+01 -0.30059614701E+02  0.41593511709E+02  0.51401314486E+02  0.25500000000E-02 0.  1.
         -2    1    1    2  502    0  0.29145277767E+01  0.30059614701E+02  0.49546796388E+01  0.30604309581E+02  0.25500000000E-02 0.  1.
<mgrwt>
<rscale>  0 0.67514356E+02</rscale>
<asrwt>0</asrwt>
<pdfrwt beam="1">  1        2 0.98887551E-02 0.67514356E+02</pdfrwt>
<pdfrwt beam="2">  1       -2 0.27274948E-02 0.67514356E+02</pdfrwt>
<totfact> 0.24607517E+05</totfact>
</mgrwt>
</event>
<event>
 4    1  0.4837985E-002  0.1369108E+03  0.7818608E-02  0.1217547E+00
          2   -1    0    0    0  501  0.00000000000E+00  0.00000000000E+00  0.86099455420E+03  0.86099455421E+03  0.25500000000E-02 0. -1.
         -2   -1    0    0  501    0 -0.00000000000E+00 -0.00000000000E+00 -0.54427112253E+01  0.54427118226E+01  0.25500000000E-02 0. -1.
          2    1    1    2    0  502 -0.42938384426E+02  0.42242994332E+01  0.76411504807E+03  0.76533218687E+03  0.25500000000E-02 0. -1.
         -2    1    1    2  502    0  0.42938384426E+02 -0.42242994332E+01  0.91436794911E+02  0.10110507916E+03  0.25500000000E-02 0. -1.
<mgrwt>
<rscale>  0 0.13691085E+03</rscale>
<asrwt>0</asrwt>
<pdfrwt beam="1">  1        2 0.13246059E+00 0.13691085E+03</pdfrwt>
<pdfrwt beam="2">  1       -2 0.83734091E-03 0.13691085E+03</pdfrwt>
<totfact> 0.82684968E+04</totfact>
</mgrwt>
</event>
<event>
 4    1  0.4837985E-002  0.4363439E+02  0.7818608E-02  0.1483051E+00
         -2   -1    0    0  501    0 -0.00000000000E+00  0.00000000000E+00  0.20331123291E+01  0.20331139283E+01  0.25500000000E-02 0. -1.
          2   -1    0    0    0  501  0.00000000000E+00 -0.00000000000E+00 -0.23411875317E+03  0.23411875318E+03  0.25500000000E-02 0. -1.
          2    1    1    2    0  502 -0.19715479176E+02  0.51219566890E+01 -0.73754117129E+02  0.76515386422E+02  0.25500000000E-02 0. -1.
         -2    1    1    2  502    0  0.19715479176E+02 -0.51219566890E+01 -0.15833152371E+03  0.15963648069E+03  0.25500000000E-02 0. -1.
<mgrwt>
<rscale>  0 0.43634386E+02</rscale>
<asrwt>0</asrwt>
<pdfrwt beam="2">  1        2 0.36018249E-01 0.43634386E+02</pdfrwt>
<pdfrwt beam="1">  1       -2 0.31278682E-03 0.43634386E+02</pdfrwt>
<totfact> 0.10877299E+06</totfact>
</mgrwt>
</event>
<event>
 4    1  0.4837985E-002  0.6748205E+02  0.7818608E-02  0.1368871E+00
         -2   -1    0    0  501    0 -0.00000000000E+00  0.00000000000E+00  0.11273181057E+01  0.11273209898E+01  0.25500000000E-02 0. -1.
          2   -1    0    0    0  501  0.00000000000E+00 -0.00000000000E+00 -0.10098793762E+04  0.10098793762E+04  0.25500000000E-02 0. -1.
          2    1    1    2    0  502  0.30162795411E+02  0.13788256478E+02 -0.41135988674E+03  0.41269464095E+03  0.25500000000E-02 0. -1.
         -2    1    1    2  502    0 -0.30162795411E+02 -0.13788256478E+02 -0.59739217132E+03  0.59831205621E+03  0.25500000000E-02 0. -1.
<mgrwt>
<rscale>  0 0.67482050E+02</rscale>
<asrwt>0</asrwt>
<pdfrwt beam="2">  1        2 0.15536533E+00 0.67482050E+02</pdfrwt>
<pdfrwt beam="1">  1       -2 0.17343458E-03 0.67482050E+02</pdfrwt>
<totfact> 0.54575510E+05</totfact>
</mgrwt>
</event>
<event>
 4    1  0.4837985E-002  0.5732217E+02  0.7818608E-02  0.1409426E+00
          2   -1    0    0    0  501  0.00000000000E+00  0.00000000000E+00  0.76904497518E+03  0.76904497518E+03  0.25500000000E-02 0.  1.
         -2   -1    0    0  501    0 -0.00000000000E+00 -0.00000000000E+00 -0.10681514593E+01  0.10681545031E+01  0.25500000000E-02 0.  1.
          2    1    1    2    0  502 -0.10043566646E+02 -0.23567582750E+02  0.55664208164E+03  0.55723129062E+03  0.25500000000E-02 0.  1.
         -2    1    1    2  502    0  0.10043566646E+02  0.23567582750E+02  0.21133474208E+03  0.21288183907E+03  0.25500000000E-02 0.  1.
<mgrwt>
<rscale>  0 0.57322166E+02</rscale>
<asrwt>0</asrwt>
<pdfrwt beam="1">  1        2 0.11831474E+00 0.57322166E+02</pdfrwt>
<pdfrwt beam="2">  1       -2 0.16433105E-03 0.57322166E+02</pdfrwt>
<totfact> 0.79853066E+05</totfact>
</mgrwt>
</event>
<event>
 4    1  0.4837985E-002  0.5107796E+02  0.7818608E-02  0.1439613E+00
          2   -1    0    0    0  501  0.00000000000E+00  0.00000000000E+00  0.93610761960E+03  0.93610761960E+03  0.25500000000E-02 0.  1.
         -2   -1    0    0  501    0 -0.00000000000E+00 -0.00000000000E+00 -0.69675460629E+00  0.69675927255E+00  0.25500000000E-02 0.  1.
          2    1    1    2    0  502 -0.79815611643E+01  0.19438581462E+02  0.20149651113E+03  0.20258925878E+03  0.25500000000E-02 0.  1.
         -2    1    1    2  502    0  0.79815611643E+01 -0.19438581462E+02  0.73391435386E+03  0.73421512009E+03  0.25500000000E-02 0.  1.
<mgrwt>
<rscale>  0 0.51077959E+02</rscale>
<asrwt>0</asrwt>
<pdfrwt beam="1">  1        2 0.14401651E+00 0.51077959E+02</pdfrwt>
<pdfrwt beam="2">  1       -2 0.10719341E-03 0.51077959E+02</pdfrwt>
<totfact> 0.10936654E+06</totfact>
</mgrwt>
</event>
<event>
 4    1  0.4837985E-002  0.5905180E+02  0.7818608E-02  0.1401855E+00
          2   -1    0    0    0  501  0.00000000000E+00  0.00000000000E+00  0.22757868655E+04  0.22757868655E+04  0.25500000000E-02 0.  1.
         -2   -1    0    0  501    0 -0.00000000000E+00 -0.00000000000E+00 -0.38306266406E+00  0.38307115148E+00  0.25500000000E-02 0.  1.
          2    1    1    2    0  502  0.41287253008E+01  0.26187514075E+02  0.63669235045E+03  0.63724405168E+03  0.25500000000E-02 0. -1.
         -2    1    1    2  502    0 -0.41287253008E+01 -0.26187514075E+02  0.16387114524E+04  0.16389258850E+04  0.25500000000E-02 0. -1.
<mgrwt>
<rscale>  0 0.59051796E+02</rscale>
<asrwt>0</asrwt>
<pdfrwt beam="1">  1        2 0.35012016E+00 0.59051796E+02</pdfrwt>
<pdfrwt beam="2">  1       -2 0.58933521E-04 0.59051796E+02</pdfrwt>
<totfact> 0.52668310E+05</totfact>
</mgrwt>
</event>
<event>
 4    1  0.4837985E-002  0.4252855E+02  0.7818608E-02  0.1490388E+00
         -2   -1    0    0  501    0 -0.00000000000E+00  0.00000000000E+00  0.19831554225E+02  0.19831554389E+02  0.25500000000E-02 0.  1.
          2   -1    0    0    0  501  0.00000000000E+00 -0.00000000000E+00 -0.22800497919E+02  0.22800498061E+02  0.25500000000E-02 0.  1.
          2    1    1    2    0  502 -0.88433049105E+01 -0.19337373884E+02 -0.13072921630E+01  0.21303687234E+02  0.25500000000E-02 0. -1.
         -2    1    1    2  502    0  0.88433049105E+01  0.19337373884E+02 -0.16616515312E+01  0.21328365216E+02  0.25500000000E-02 0. -1.
<mgrwt>
<rscale>  0 0.42528547E+02</rscale>
<asrwt>0</asrwt>
<pdfrwt beam="2">  1        2 0.35077689E-02 0.42528547E+02</pdfrwt>
<pdfrwt beam="1">  1       -2 0.30510084E-02 0.42528547E+02</pdfrwt>
<totfact> 0.68575009E+05</totfact>
</mgrwt>
</event>
<event>
 4    1  0.4837985E-002  0.5169624E+02  0.7818608E-02  0.1436401E+00
          2   -1    0    0    0  501  0.00000000000E+00  0.00000000000E+00  0.48098720213E+00  0.48099396162E+00  0.25500000000E-02 0. -1.
         -2   -1    0    0  501    0 -0.00000000000E+00 -0.00000000000E+00 -0.13890609789E+04  0.13890609789E+04  0.25500000000E-02 0. -1.
          2    1    1    2    0  502  0.10718000987E+02 -0.23139463471E+02 -0.80774007285E+03  0.80814252184E+03  0.25500000000E-02 0. -1.
         -2    1    1    2  502    0 -0.10718000987E+02  0.23139463471E+02 -0.58083991880E+03  0.58139945097E+03  0.25500000000E-02 0. -1.
<mgrwt>
<rscale>  0 0.51696238E+02</rscale>
<asrwt>0</asrwt>
<pdfrwt beam="1">  1        2 0.73999663E-04 0.51696238E+02</pdfrwt>
<pdfrwt beam="2">  1       -2 0.21369848E+00 0.51696238E+02</pdfrwt>
<totfact> 0.50870751E+04</totfact>
</mgrwt>
</event>
<event>
 4    1  0.4837985E-002  0.1241805E+03  0.7818608E-02  0.1236356E+00
          2   -1    0    0    0  501  0.00000000000E+00  0.00000000000E+00  0.35300627290E+03  0.35300627291E+03  0.25500000000E-02 0. -1.
         -2   -1    0    0  501    0 -0.00000000000E+00 -0.00000000000E+00 -0.10921041028E+02  0.10921041325E+02  0.25500000000E-02 0. -1.
          2    1    1    2    0  502  0.48910448856E+02 -0.19281986425E+02  0.74235465066E+02  0.90966649316E+02  0.25500000000E-02 0. -1.
         -2    1    1    2  502    0 -0.48910448856E+02  0.19281986425E+02  0.26784976680E+03  0.27296066491E+03  0.25500000000E-02 0. -1.
<mgrwt>
<rscale>  0 0.12418045E+03</rscale>
<asrwt>0</asrwt>
<pdfrwt beam="1">  1        2 0.54308661E-01 0.12418045E+03</pdfrwt>
<pdfrwt beam="2">  1       -2 0.16801601E-02 0.12418045E+03</pdfrwt>
<totfact> 0.82678241E+04</totfact>
</mgrwt>
</event>
<event>
 4    1  0.4837985E-002  0.6897369E+02  0.7818608E-02  0.1363618E+00
          2   -1    0    0    0  501  0.00000000000E+00  0.00000000000E+00  0.76698370632E+02  0.76698370674E+02  0.25500000000E-02 0. -1.
         -2   -1    0    0  501    0 -0.00000000000E+00 -0.00000000000E+00 -0.15506748862E+02  0.15506749072E+02  0.25500000000E-02 0. -1.
          2    1    1    2    0  502  0.22741256435E+02 -0.20976689260E+02  0.50964434353E+02  0.59620129252E+02  0.25500000000E-02 0. -1.
         -2    1    1    2  502    0 -0.22741256435E+02  0.20976689260E+02  0.10227187417E+02  0.32584990494E+02  0.25500000000E-02 0. -1.
<mgrwt>
<rscale>  0 0.68973687E+02</rscale>
<asrwt>0</asrwt>
<pdfrwt beam="1">  1        2 0.11799749E-01 0.68973687E+02</pdfrwt>
<pdfrwt beam="2">  1       -2 0.23856537E-02 0.68973687E+02</pdfrwt>
<totfact> 0.24266093E+05</totfact>
</mgrwt>
</event>
<event>
 4    1  0.4837985E-002  0.4477232E+02  0.7818608E-02  0.1475768E+00
          2   -1    0    0    0  501  0.00000000000E+00  0.00000000000E+00  0.66562181071E+01  0.66562185956E+01  0.25500000000E-02 0. -1.
         -2   -1    0    0  501    0 -0.00000000000E+00 -0.00000000000E+00 -0.75289030246E+02  0.75289030290E+02  0.25500000000E-02 0. -1.
          2    1    1    2    0  502 -0.20802217396E+02 -0.67064141964E+01 -0.25456713352E+02  0.33552235412E+02  0.25500000000E-02 0.  1.
         -2    1    1    2  502    0  0.20802217396E+02  0.67064141964E+01 -0.43176098787E+02  0.48393013473E+02  0.25500000000E-02 0.  1.
<mgrwt>
<rscale>  0 0.44772323E+02</rscale>
<asrwt>0</asrwt>
<pdfrwt beam="1">  1        2 0.10240336E-02 0.44772323E+02</pdfrwt>
<pdfrwt beam="2">  1       -2 0.11582927E-01 0.44772323E+02</pdfrwt>
<totfact> 0.49229165E+05</totfact>
</mgrwt>
</event>
<event>
 4    1  0.4837985E-002  0.5222351E+02  0.7818608E-02  0.1433705E+00
         -2   -1    0    0  501    0 -0.00000000000E+00  0.00000000000E+00  0.32823577793E+01  0.32823587698E+01  0.25500000000E-02 0.  1.
          2   -1    0    0    0  501  0.00000000000E+00 -0.00000000000E+00 -0.20772376582E+03  0.20772376583E+03  0.25500000000E-02 0.  1.
          2    1    1    2    0  502 -0.13407498231E+02 -0.19870622426E+02 -0.60382863698E+02  0.64966859855E+02  0.25500000000E-02 0.  1.
         -2    1    1    2  502    0  0.13407498231E+02  0.19870622426E+02 -0.14405854434E+03  0.14603926475E+03  0.25500000000E-02 0.  1.
<mgrwt>
<rscale>  0 0.52223513E+02</rscale>
<asrwt>0</asrwt>
<pdfrwt beam="2">  1        2 0.31957492E-01 0.52223513E+02</pdfrwt>
<pdfrwt beam="1">  1       -2 0.50497836E-03 0.52223513E+02</pdfrwt>
<totfact> 0.66845666E+05</totfact>
</mgrwt>
</event>
<event>
 4    1  0.4837985E-002  0.4412441E+02  0.7818608E-02  0.1479883E+00
         -2   -1    0    0  501    0 -0.00000000000E+00  0.00000000000E+00  0.29205121758E+02  0.29205121870E+02  0.25500000000E-02 0.  1.
          2   -1    0    0    0  501  0.00000000000E+00 -0.00000000000E+00 -0.16666284743E+02  0.16666284938E+02  0.25500000000E-02 0.  1.
          2    1    1    2    0  502  0.21248347941E+02 -0.38008617541E+01  0.11010921915E+02  0.24231781780E+02  0.25500000000E-02 0.  1.
         -2    1    1    2  502    0 -0.21248347941E+02  0.38008617541E+01  0.15279150997E+01  0.21639625028E+02  0.25500000000E-02 0.  1.
<mgrwt>
<rscale>  0 0.44124410E+02</rscale>
<asrwt>0</asrwt>
<pdfrwt beam="2">  1        2 0.25640439E-02 0.44124410E+02</pdfrwt>
<pdfrwt beam="1">  1       -2 0.44930956E-02 0.44124410E+02</pdfrwt>
<totfact> 0.59653329E+05</totfact>
</mgrwt>
</event>
<event>
 4    1  0.4837985E-002  0.8257250E+02  0.7818608E-02  0.1321906E+00
         -2   -1    0    0  501    0 -0.00000000000E+00  0.00000000000E+00  0.12826586568E+01  0.12826611916E+01  0.25500000000E-02 0.  1.
          2   -1    0    0    0  501  0.00000000000E+00 -0.00000000000E+00 -0.13289214179E+04  0.13289214179E+04  0.25500000000E-02 0.  1.
          2    1    1    2    0  502  0.32546269843E+02  0.12015502615E+02 -0.10243714807E+04  0.10249588101E+04  0.25500000000E-02 0.  1.
         -2    1    1    2  502    0 -0.32546269843E+02 -0.12015502615E+02 -0.30326727854E+03  0.30524526896E+03  0.25500000000E-02 0.  1.
<mgrwt>
<rscale>  0 0.82572495E+02</rscale>
<asrwt>0</asrwt>
<pdfrwt beam="2">  1        2 0.20444835E+00 0.82572495E+02</pdfrwt>
<pdfrwt beam="1">  1       -2 0.19733336E-03 0.82572495E+02</pdfrwt>
<totfact> 0.31713640E+05</totfact>
</mgrwt>
</event>
<event>
 4    1  0.4837985E-002  0.4837323E+02  0.7818608E-02  0.1454319E+00
         -2   -1    0    0  501    0 -0.00000000000E+00  0.00000000000E+00  0.35027421145E+00  0.35028349335E+00  0.25500000000E-02 0. -1.
          2   -1    0    0    0  501  0.00000000000E+00 -0.00000000000E+00 -0.16700759102E+04  0.16700759102E+04  0.25500000000E-02 0. -1.
          2    1    1    2    0  502  0.55854392608E+01 -0.23204602717E+02 -0.69960671716E+03  0.70001372088E+03  0.25500000000E-02 0. -1.
         -2    1    1    2  502    0 -0.55854392608E+01  0.23204602717E+02 -0.97011891880E+03  0.97041247279E+03  0.25500000000E-02 0. -1.
<mgrwt>
<rscale>  0 0.48373227E+02</rscale>
<asrwt>0</asrwt>
<pdfrwt beam="2">  1        2 0.25692838E+00 0.48373227E+02</pdfrwt>
<pdfrwt beam="1">  1       -2 0.53890392E-04 0.48373227E+02</pdfrwt>
<totfact> 0.11344087E+06</totfact>
</mgrwt>
</event>
<event>
 4    1  0.4837985E-002  0.6492884E+02  0.7818608E-02  0.1378239E+00
          2   -1    0    0    0  501  0.00000000000E+00  0.00000000000E+00  0.10593084152E+04  0.10593084152E+04  0.25500000000E-02 0. -1.
         -2   -1    0    0  501    0 -0.00000000000E+00 -0.00000000000E+00 -0.99492917111E+00  0.99493243893E+00  0.25500000000E-02 0. -1.
          2    1    1    2    0  502  0.18305838444E+02 -0.87848918465E+01  0.94281828583E+03  0.94303690180E+03  0.25500000000E-02 0. -1.
         -2    1    1    2  502    0 -0.18305838444E+02  0.87848918465E+01  0.11549520016E+03  0.11726644581E+03  0.25500000000E-02 0. -1.
<mgrwt>
<rscale>  0 0.64928840E+02</rscale>
<asrwt>0</asrwt>
<pdfrwt beam="1">  1        2 0.16297063E+00 0.64928840E+02</pdfrwt>
<pdfrwt beam="2">  1       -2 0.15306618E-03 0.64928840E+02</pdfrwt>
<totfact> 0.60258807E+05</totfact>
</mgrwt>
</event>
<event>
 4    1  0.4837985E-002  0.5863278E+02  0.7818608E-02  0.1403661E+00
         -2   -1    0    0  501    0 -0.00000000000E+00  0.00000000000E+00  0.10607464920E+02  0.10607465226E+02  0.25500000000E-02 0.  1.
          2   -1    0    0    0  501  0.00000000000E+00 -0.00000000000E+00 -0.81023190021E+02  0.81023190062E+02  0.25500000000E-02 0.  1.
          2    1    1    2    0  502 -0.14400627149E+02 -0.16984883664E+02 -0.54086979752E+01  0.22915461061E+02  0.25500000000E-02 0.  1.
         -2    1    1    2  502    0  0.14400627149E+02  0.16984883664E+02 -0.65007027126E+02  0.68715194227E+02  0.25500000000E-02 0.  1.
<mgrwt>
<rscale>  0 0.58632778E+02</rscale>
<asrwt>0</asrwt>
<pdfrwt beam="2">  1        2 0.12465106E-01 0.58632778E+02</pdfrwt>
<pdfrwt beam="1">  1       -2 0.16319178E-02 0.58632778E+02</pdfrwt>
<totfact> 0.37726483E+05</totfact>
</mgrwt>
</event>
<event>
 4    1  0.4837985E-002  0.6893235E+02  0.7818608E-02  0.1363762E+00
          2   -1    0    0    0  501  0.00000000000E+00  0.00000000000E+00  0.64342394647E+02  0.64342394697E+02  0.25500000000E-02 0.  1.
         -2   -1    0    0  501    0 -0.00000000000E+00 -0.00000000000E+00 -0.18462433542E+02  0.18462433718E+02  0.25500000000E-02 0.  1.
          2    1    1    2    0  502  0.32850956027E+02  0.17375020288E+01  0.35290826480E+02  0.48245690640E+02  0.25500000000E-02 0. -1.
         -2    1    1    2  502    0 -0.32850956027E+02 -0.17375020288E+01  0.10589134625E+02  0.34559137775E+02  0.25500000000E-02 0. -1.
<mgrwt>
<rscale>  0 0.68932349E+02</rscale>
<asrwt>0</asrwt>
<pdfrwt beam="1">  1        2 0.98988299E-02 0.68932349E+02</pdfrwt>
<pdfrwt beam="2">  1       -2 0.28403744E-02 0.68932349E+02</pdfrwt>
<totfact> 0.23280988E+05</totfact>
</mgrwt>
</event>
<event>
 4    1  0.4837985E-002  0.7150338E+02  0.7818608E-02  0.1355054E+00
          2   -1    0    0    0  501  0.00000000000E+00  0.00000000000E+00  0.10373585663E+02  0.10373585976E+02  0.25500000000E-02 0.  1.
         -2   -1    0    0  501    0 -0.00000000000E+00 -0.00000000000E+00 -0.12321518737E+03  0.12321518740E+03  0.25500000000E-02 0.  1.
          2    1    1    2    0  502 -0.59193668764E+01 -0.33160323509E+02 -0.78804191123E+02  0.85701496512E+02  0.25500000000E-02 0. -1.
         -2    1    1    2  502    0  0.59193668764E+01  0.33160323509E+02 -0.34037410590E+02  0.47887276865E+02  0.25500000000E-02 0. -1.
<mgrwt>
<rscale>  0 0.71503380E+02</rscale>
<asrwt>0</asrwt>
<pdfrwt beam="1">  1        2 0.15959364E-02 0.71503380E+02</pdfrwt>
<pdfrwt beam="2">  1       -2 0.18956182E-01 0.71503380E+02</pdfrwt>
<totfact> 0.13754668E+05</totfact>
</mgrwt>
</event>
<event>
 4    1  0.4837985E-002  0.5085991E+02  0.7818608E-02  0.1440758E+00
         -2   -1    0    0  501    0 -0.00000000000E+00  0.00000000000E+00  0.59655509595E+01  0.59655515045E+01  0.25500000000E-02 0.  1.
          2   -1    0    0    0  501  0.00000000000E+00 -0.00000000000E+00 -0.10840282272E+03  0.10840282275E+03  0.25500000000E-02 0.  1.
          2    1    1    2    0  502 -0.61688881087E+01  0.20637167040E+02 -0.20820921369E+02  0.29957613675E+02  0.25500000000E-02 0.  1.
         -2    1    1    2  502    0  0.61688881087E+01 -0.20637167040E+02 -0.81616350396E+02  0.84410760584E+02  0.25500000000E-02 0.  1.
<mgrwt>
<rscale>  0 0.50859909E+02</rscale>
<asrwt>0</asrwt>
<pdfrwt beam="2">  1        2 0.16677356E-01 0.50859909E+02</pdfrwt>
<pdfrwt beam="1">  1       -2 0.91777720E-03 0.50859909E+02</pdfrwt>
<totfact> 0.58583817E+05</totfact>
</mgrwt>
</event>
<event>
 4    1  0.4837985E-002  0.5197851E+02  0.7818608E-02  0.1434953E+00
          2   -1    0    0    0  501  0.00000000000E+00  0.00000000000E+00  0.42928981196E+01  0.42928988769E+01  0.25500000000E-02 0. -1.
         -2   -1    0    0  501    0 -0.00000000000E+00 -0.00000000000E+00 -0.15733926218E+03  0.15733926220E+03  0.25500000000E-02 0. -1.
          2    1    1    2    0  502  0.43900883515E+01  0.25615765151E+02 -0.76416404153E+02  0.80714974634E+02  0.25500000000E-02 0. -1.
         -2    1    1    2  502    0 -0.43900883515E+01 -0.25615765151E+02 -0.76629959905E+02  0.80917186441E+02  0.25500000000E-02 0. -1.
<mgrwt>
<rscale>  0 0.51978514E+02</rscale>
<asrwt>0</asrwt>
<pdfrwt beam="1">  1        2 0.66044604E-03 0.51978514E+02</pdfrwt>
<pdfrwt beam="2">  1       -2 0.24206036E-01 0.51978514E+02</pdfrwt>
<totfact> 0.28062300E+05</totfact>
</mgrwt>
</event>
<event>
 4    1  0.4837985E-002  0.8023372E+02  0.7818608E-02  0.1328389E+00
          2   -1    0    0    0  501  0.00000000000E+00  0.00000000000E+00  0.11158556320E+03  0.11158556323E+03  0.25500000000E-02 0.  1.
         -2   -1    0    0  501    0 -0.00000000000E+00 -0.00000000000E+00 -0.14422675378E+02  0.14422675603E+02  0.25500000000E-02 0.  1.
          2    1    1    2    0  502 -0.48334119868E+01  0.37649556297E+02  0.68968601160E+02  0.78724322247E+02  0.25500000000E-02 0.  1.
         -2    1    1    2  502    0  0.48334119868E+01 -0.37649556297E+02  0.28194286665E+02  0.47283916588E+02  0.25500000000E-02 0.  1.
<mgrwt>
<rscale>  0 0.80233718E+02</rscale>
<asrwt>0</asrwt>
<pdfrwt beam="1">  1        2 0.17167010E-01 0.80233718E+02</pdfrwt>
<pdfrwt beam="2">  1       -2 0.22188732E-02 0.80233718E+02</pdfrwt>
<totfact> 0.17958033E+05</totfact>
</mgrwt>
</event>
<event>
 4    1  0.4837985E-002  0.5234124E+02  0.7818608E-02  0.1433108E+00
         -2   -1    0    0  501    0 -0.00000000000E+00  0.00000000000E+00  0.75681167615E+00  0.75681597212E+00  0.25500000000E-02 0.  1.
          2   -1    0    0    0  501  0.00000000000E+00 -0.00000000000E+00 -0.90498001687E+03  0.90498001687E+03  0.25500000000E-02 0.  1.
          2    1    1    2    0  502  0.44949374654E+01  0.22196548252E+02 -0.67906415336E+03  0.67944169404E+03  0.25500000000E-02 0. -1.
         -2    1    1    2  502    0 -0.44949374654E+01 -0.22196548252E+02 -0.22515905184E+03  0.22629513881E+03  0.25500000000E-02 0. -1.
<mgrwt>
<rscale>  0 0.52341242E+02</rscale>
<asrwt>0</asrwt>
<pdfrwt beam="2">  1        2 0.13922683E+00 0.52341242E+02</pdfrwt>
<pdfrwt beam="1">  1       -2 0.11643362E-03 0.52341242E+02</pdfrwt>
<totfact> 0.10261254E+06</totfact>
</mgrwt>
</event>
<event>
 4    1  0.4837985E-002  0.4970373E+02  0.7818608E-02  0.1446946E+00
         -2   -1    0    0  501    0 -0.00000000000E+00  0.00000000000E+00  0.54968282242E+00  0.54968873716E+00  0.25500000000E-02 0.  1.
          2   -1    0    0    0  501  0.00000000000E+00 -0.00000000000E+00 -0.11235786083E+04  0.11235786083E+04  0.25500000000E-02 0.  1.
          2    1    1    2    0  502 -0.23221543907E+02 -0.69527080058E+01 -0.43756626552E+03  0.43823716978E+03  0.25500000000E-02 0.  1.
         -2    1    1    2  502    0  0.23221543907E+02  0.69527080058E+01 -0.68546265993E+03  0.68589112723E+03  0.25500000000E-02 0.  1.
<mgrwt>
<rscale>  0 0.49703730E+02</rscale>
<asrwt>0</asrwt>
<pdfrwt beam="2">  1        2 0.17285641E+00 0.49703730E+02</pdfrwt>
<pdfrwt beam="1">  1       -2 0.84567942E-04 0.49703730E+02</pdfrwt>
<totfact> 0.11749447E+06</totfact>
</mgrwt>
</event>
<event>
 4    1  0.4837985E-002  0.6003970E+02  0.7818608E-02  0.1397665E+00
          2   -1    0    0    0  501  0.00000000000E+00  0.00000000000E+00  0.97076284407E+03  0.97076284407E+03  0.25500000000E-02 0.  1.
         -2   -1    0    0  501    0 -0.00000000000E+00 -0.00000000000E+00 -0.92833154326E+00  0.92833504551E+00  0.25500000000E-02 0.  1.
          2    1    1    2    0  502  0.29803663198E+02  0.59894357671E+00  0.54230686093E+03  0.54312553658E+03  0.25500000000E-02 0. -1.
         -2    1    1    2  502    0 -0.29803663198E+02 -0.59894357671E+00  0.42752765160E+03  0.42856564254E+03  0.25500000000E-02 0. -1.
<mgrwt>
<rscale>  0 0.60039703E+02</rscale>
<asrwt>0</asrwt>
<pdfrwt beam="1">  1        2 0.14934840E+00 0.60039703E+02</pdfrwt>
<pdfrwt beam="2">  1       -2 0.14282025E-03 0.60039703E+02</pdfrwt>
<totfact> 0.73253481E+05</totfact>
</mgrwt>
</event>
<event>
 4    1  0.4837985E-002  0.5972565E+02  0.7818608E-02  0.1398987E+00
         -2   -1    0    0  501    0 -0.00000000000E+00  0.00000000000E+00  0.10907037846E+01  0.10907067654E+01  0.25500000000E-02 0.  1.
          2   -1    0    0    0  501  0.00000000000E+00 -0.00000000000E+00 -0.81762549009E+03  0.81762549009E+03  0.25500000000E-02 0.  1.
          2    1    1    2    0  502 -0.24276551433E+02  0.15742118166E+02 -0.30695536045E+03  0.30831600437E+03  0.25500000000E-02 0.  1.
         -2    1    1    2  502    0  0.24276551433E+02 -0.15742118166E+02 -0.50957942585E+03  0.51040019249E+03  0.25500000000E-02 0.  1.
<mgrwt>
<rscale>  0 0.59725654E+02</rscale>
<asrwt>0</asrwt>
<pdfrwt beam="2">  1        2 0.12578805E+00 0.59725654E+02</pdfrwt>
<pdfrwt beam="1">  1       -2 0.16780147E-03 0.59725654E+02</pdfrwt>
<totfact> 0.72793379E+05</totfact>
</mgrwt>
</event>
<event>
 4    1  0.4837985E-002  0.5091090E+02  0.7818608E-02  0.1440489E+00
         -2   -1    0    0  501    0 -0.00000000000E+00  0.00000000000E+00  0.12861401922E+01  0.12861427201E+01  0.25500000000E-02 0.  1.
          2   -1    0    0    0  501  0.00000000000E+00 -0.00000000000E+00 -0.50381708897E+03  0.50381708898E+03  0.25500000000E-02 0.  1.
          2    1    1    2    0  502  0.21074281674E+02  0.30478897562E+00 -0.39288747190E+03  0.39345239080E+03  0.25500000000E-02 0. -1.
         -2    1    1    2  502    0 -0.21074281674E+02 -0.30478897562E+00 -0.10964347688E+03  0.11165084090E+03  0.25500000000E-02 0. -1.
<mgrwt>
<rscale>  0 0.50910904E+02</rscale>
<asrwt>0</asrwt>
<pdfrwt beam="2">  1        2 0.77510164E-01 0.50910904E+02</pdfrwt>
<pdfrwt beam="1">  1       -2 0.19786832E-03 0.50910904E+02</pdfrwt>
<totfact> 0.96271985E+05</totfact>
</mgrwt>
</event>
<event>
 4    1  0.4837985E-002  0.4459944E+02  0.7818608E-02  0.1476858E+00
          2   -1    0    0    0  501  0.00000000000E+00  0.00000000000E+00  0.12712461931E+04  0.12712461931E+04  0.25500000000E-02 0. -1.
         -2   -1    0    0  501    0 -0.00000000000E+00 -0.00000000000E+00 -0.39116910166E+00  0.39117741319E+00  0.25500000000E-02 0. -1.
          2    1    1    2    0  502  0.13366721071E+02 -0.16371789345E+02  0.83819220843E+03  0.83845863524E+03  0.25500000000E-02 0. -1.
         -2    1    1    2  502    0 -0.13366721071E+02  0.16371789345E+02  0.43266281552E+03  0.43317873524E+03  0.25500000000E-02 0. -1.
<mgrwt>
<rscale>  0 0.44599440E+02</rscale>
<asrwt>0</asrwt>
<pdfrwt beam="1">  1        2 0.19557504E+00 0.44599440E+02</pdfrwt>
<pdfrwt beam="2">  1       -2 0.60180901E-04 0.44599440E+02</pdfrwt>
<totfact> 0.15141102E+06</totfact>
</mgrwt>
</event>
<event>
 4    1  0.4837985E-002  0.4870382E+02  0.7818608E-02  0.1452461E+00
         -2   -1    0    0  501    0 -0.00000000000E+00  0.00000000000E+00  0.10768680344E+03  0.10768680347E+03  0.25500000000E-02 0. -1.
          2   -1    0    0    0  501  0.00000000000E+00 -0.00000000000E+00 -0.55068529797E+01  0.55068535701E+01  0.25500000000E-02 0. -1.
          2    1    1    2    0  502 -0.21311091278E+02  0.99229747943E+01  0.36319925612E+02  0.43263900000E+02  0.25500000000E-02 0. -1.
         -2    1    1    2  502    0  0.21311091278E+02 -0.99229747943E+01  0.65860024851E+02  0.69929757043E+02  0.25500000000E-02 0. -1.
<mgrwt>
<rscale>  0 0.48703816E+02</rscale>
<asrwt>0</asrwt>
<pdfrwt beam="2">  1        2 0.84720819E-03 0.48703816E+02</pdfrwt>
<pdfrwt beam="1">  1       -2 0.16567201E-01 0.48703816E+02</pdfrwt>
<totfact> 0.36918600E+05</totfact>
</mgrwt>
</event>
<event>
 4    1  0.4837985E-002  0.1720541E+03  0.7818608E-02  0.1175723E+00
          2   -1    0    0    0  501  0.00000000000E+00  0.00000000000E+00  0.31110034639E+03  0.31110034640E+03  0.25500000000E-02 0.  1.
         -2   -1    0    0  501    0 -0.00000000000E+00 -0.00000000000E+00 -0.23788627767E+02  0.23788627904E+02  0.25500000000E-02 0.  1.
          2    1    1    2    0  502  0.79540411733E+02  0.24944232978E+02  0.18502619798E+03  0.20293739380E+03  0.25500000000E-02 0. -1.
         -2    1    1    2  502    0 -0.79540411733E+02 -0.24944232978E+02  0.10228552064E+03  0.13195158050E+03  0.25500000000E-02 0. -1.
<mgrwt>
<rscale>  0 0.17205407E+03</rscale>
<asrwt>0</asrwt>
<pdfrwt beam="1">  1        2 0.47861591E-01 0.17205407E+03</pdfrwt>
<pdfrwt beam="2">  1       -2 0.36597889E-02 0.17205407E+03</pdfrwt>
<totfact> 0.31380137E+04</totfact>
</mgrwt>
</event>
<event>
 4    1  0.4837985E-002  0.5450472E+02  0.7818608E-02  0.1422456E+00
         -2   -1    0    0  501    0 -0.00000000000E+00  0.00000000000E+00  0.26622981573E+01  0.26622993785E+01  0.25500000000E-02 0. -1.
          2   -1    0    0    0  501  0.00000000000E+00 -0.00000000000E+00 -0.27896610204E+03  0.27896610205E+03  0.25500000000E-02 0. -1.
          2    1    1    2    0  502 -0.21428626511E+02  0.57646962905E+01 -0.21989472707E+03  0.22101155797E+03  0.25500000000E-02 0.  1.
         -2    1    1    2  502    0  0.21428626511E+02 -0.57646962905E+01 -0.56409076814E+02  0.60616843460E+02  0.25500000000E-02 0.  1.
<mgrwt>
<rscale>  0 0.54504720E+02</rscale>
<asrwt>0</asrwt>
<pdfrwt beam="2">  1        2 0.42917839E-01 0.54504720E+02</pdfrwt>
<pdfrwt beam="1">  1       -2 0.40958465E-03 0.54504720E+02</pdfrwt>
<totfact> 0.66446200E+05</totfact>
</mgrwt>
</event>
<event>
 4    1  0.4837985E-002  0.7654471E+02  0.7818608E-02  0.1339153E+00
          2   -1    0    0    0  501  0.00000000000E+00  0.00000000000E+00  0.14369972848E+04  0.14369972848E+04  0.25500000000E-02 0.  1.
         -2   -1    0    0  501    0 -0.00000000000E+00 -0.00000000000E+00 -0.10193274221E+01  0.10193306117E+01  0.25500000000E-02 0.  1.
          2    1    1    2    0  502  0.20446851349E+02 -0.22612557710E+02  0.11526757032E+04  0.11530787823E+04  0.25500000000E-02 0.  1.
         -2    1    1    2  502    0 -0.20446851349E+02  0.22612557710E+02  0.28330225423E+03  0.28493783314E+03  0.25500000000E-02 0.  1.
<mgrwt>
<rscale>  0 0.76544707E+02</rscale>
<asrwt>0</asrwt>
<pdfrwt beam="1">  1        2 0.22107715E+00 0.76544707E+02</pdfrwt>
<pdfrwt beam="2">  1       -2 0.15681939E-03 0.76544707E+02</pdfrwt>
<totfact> 0.37820823E+05</totfact>
</mgrwt>
</event>
<event>
 4    1  0.4837985E-002  0.1106823E+03  0.7818608E-02  0.1259312E+00
          2   -1    0    0    0  501  0.00000000000E+00  0.00000000000E+00  0.54543413590E+03  0.54543413591E+03  0.25500000000E-02 0. -1.
         -2   -1    0    0  501    0 -0.00000000000E+00 -0.00000000000E+00 -0.56150560454E+01  0.56150566244E+01  0.25500000000E-02 0. -1.
          2    1    1    2    0  502 -0.25579900708E+02  0.10305022653E+02  0.50878745706E+03  0.50953429844E+03  0.25500000000E-02 0. -1.
         -2    1    1    2  502    0  0.25579900708E+02 -0.10305022653E+02  0.31031622794E+02  0.41514894096E+02  0.25500000000E-02 0. -1.
<mgrwt>
<rscale>  0 0.11068231E+03</rscale>
<asrwt>0</asrwt>
<pdfrwt beam="1">  1        2 0.83912948E-01 0.11068231E+03</pdfrwt>
<pdfrwt beam="2">  1       -2 0.86385478E-03 0.11068231E+03</pdfrwt>
<totfact> 0.13198867E+05</totfact>
</mgrwt>
</event>
<event>
 4    1  0.4837985E-002  0.1857536E+03  0.7818608E-02  0.1162348E+00
         -2   -1    0    0  501    0 -0.00000000000E+00  0.00000000000E+00  0.15499033234E+02  0.15499033444E+02  0.25500000000E-02 0.  1.
          2   -1    0    0    0  501  0.00000000000E+00 -0.00000000000E+00 -0.55655724113E+03  0.55655724114E+03  0.25500000000E-02 0.  1.
          2    1    1    2    0  502  0.63536895321E+02 -0.22992027846E+02 -0.74286710776E+02  0.10041954897E+03  0.25500000000E-02 0.  1.
         -2    1    1    2  502    0 -0.63536895321E+02  0.22992027846E+02 -0.46677149712E+03  0.47163672561E+03  0.25500000000E-02 0.  1.
<mgrwt>
<rscale>  0 0.18575359E+03</rscale>
<asrwt>0</asrwt>
<pdfrwt beam="2">  1        2 0.85624176E-01 0.18575359E+03</pdfrwt>
<pdfrwt beam="1">  1       -2 0.23844671E-02 0.18575359E+03</pdfrwt>
<totfact> 0.31611853E+04</totfact>
</mgrwt>
</event>
<event>
 4    1  0.4837985E-002  0.4779266E+02  0.7818608E-02  0.1457624E+00
         -2   -1    0    0  501    0 -0.00000000000E+00  0.00000000000E+00  0.19686536240E+02  0.19686536405E+02  0.25500000000E-02 0.  1.
          2   -1    0    0    0  501  0.00000000000E+00 -0.00000000000E+00 -0.29006351865E+02  0.29006351977E+02  0.25500000000E-02 0.  1.
          2    1    1    2    0  502 -0.10445029337E+02  0.18827025149E+02 -0.15222397680E+02  0.26368104055E+02  0.25500000000E-02 0. -1.
         -2    1    1    2  502    0  0.10445029337E+02 -0.18827025149E+02  0.59025820548E+01  0.22324784327E+02  0.25500000000E-02 0. -1.
<mgrwt>
<rscale>  0 0.47792661E+02</rscale>
<asrwt>0</asrwt>
<pdfrwt beam="2">  1        2 0.44625157E-02 0.47792661E+02</pdfrwt>
<pdfrwt beam="1">  1       -2 0.30286979E-02 0.47792661E+02</pdfrwt>
<totfact> 0.52529452E+05</totfact>
</mgrwt>
</event>
<event>
 4    1  0.4837985E-002  0.5954577E+02  0.7818608E-02  0.1399748E+00
          2   -1    0    0    0  501  0.00000000000E+00  0.00000000000E+00  0.17128406807E+03  0.17128406808E+03  0.25500000000E-02 0.  1.
         -2   -1    0    0  501    0 -0.00000000000E+00 -0.00000000000E+00 -0.51751722216E+01  0.51751728499E+01  0.25500000000E-02 0.  1.
          2    1    1    2    0  502  0.21411554329E+02 -0.12982593351E+02  0.35323826497E+02  0.43298673349E+02  0.25500000000E-02 0.  1.
         -2    1    1    2  502    0 -0.21411554329E+02  0.12982593351E+02  0.13078506935E+03  0.13316056759E+03  0.25500000000E-02 0.  1.
<mgrwt>
<rscale>  0 0.59545768E+02</rscale>
<asrwt>0</asrwt>
<pdfrwt beam="1">  1        2 0.26351399E-01 0.59545768E+02</pdfrwt>
<pdfrwt beam="2">  1       -2 0.79618028E-03 0.59545768E+02</pdfrwt>
<totfact> 0.44930949E+05</totfact>
</mgrwt>
</event>
<event>
 4    1  0.4837985E-002  0.6181386E+02  0.7818608E-02  0.1390374E+00
          2   -1    0    0    0  501  0.00000000000E+00  0.00000000000E+00  0.97149554832E+02  0.97149554865E+02  0.25500000000E-02 0.  1.
         -2   -1    0    0  501    0 -0.00000000000E+00 -0.00000000000E+00 -0.98326583178E+01  0.98326586485E+01  0.25500000000E-02 0.  1.
          2    1    1    2    0  502 -0.15061454591E+02 -0.22892499910E+02  0.18919237493E+02  0.33299422222E+02  0.25500000000E-02 0. -1.
         -2    1    1    2  502    0  0.15061454591E+02  0.22892499910E+02  0.68397659021E+02  0.73682791291E+02  0.25500000000E-02 0. -1.
<mgrwt>
<rscale>  0 0.61813862E+02</rscale>
<asrwt>0</asrwt>
<pdfrwt beam="1">  1        2 0.14946086E-01 0.61813862E+02</pdfrwt>
<pdfrwt beam="2">  1       -2 0.15127166E-02 0.61813862E+02</pdfrwt>
<totfact> 0.34453379E+05</totfact>
</mgrwt>
</event>
<event>
 4    1  0.4837985E-002  0.4423521E+02  0.7818608E-02  0.1479173E+00
          2   -1    0    0    0  501  0.00000000000E+00  0.00000000000E+00  0.23143109263E+03  0.23143109264E+03  0.25500000000E-02 0. -1.
         -2   -1    0    0  501    0 -0.00000000000E+00 -0.00000000000E+00 -0.21137533437E+01  0.21137548818E+01  0.25500000000E-02 0. -1.
          2    1    1    2    0  502  0.14516427704E+02  0.15160782967E+02  0.77847825991E+02  0.80627910996E+02  0.25500000000E-02 0. -1.
         -2    1    1    2  502    0 -0.14516427704E+02 -0.15160782967E+02  0.15146951329E+03  0.15291693653E+03  0.25500000000E-02 0. -1.
<mgrwt>
<rscale>  0 0.44235209E+02</rscale>
<asrwt>0</asrwt>
<pdfrwt beam="1">  1        2 0.35604766E-01 0.44235209E+02</pdfrwt>
<pdfrwt beam="2">  1       -2 0.32519310E-03 0.44235209E+02</pdfrwt>
<totfact> 0.10476850E+06</totfact>
</mgrwt>
</event>
<event>
 4    1  0.4837985E-002  0.9539538E+02  0.7818608E-02  0.1290288E+00
         -2   -1    0    0  501    0 -0.00000000000E+00  0.00000000000E+00  0.23486070090E+01  0.23486083933E+01  0.25500000000E-02 0. -1.
          2   -1    0    0    0  501  0.00000000000E+00 -0.00000000000E+00 -0.96868870456E+03  0.96868870457E+03  0.25500000000E-02 0. -1.
          2    1    1    2    0  502 -0.26182747595E+02 -0.38026415658E+02 -0.36122262561E+03  0.36416113167E+03  0.25500000000E-02 0.  1.
         -2    1    1    2  502    0  0.26182747595E+02  0.38026415658E+02 -0.60511747194E+03  0.60687618129E+03  0.25500000000E-02 0.  1.
<mgrwt>
<rscale>  0 0.95395383E+02</rscale>
<asrwt>0</asrwt>
<pdfrwt beam="2">  1        2 0.14902871E+00 0.95395383E+02</pdfrwt>
<pdfrwt beam="1">  1       -2 0.36132504E-03 0.95395383E+02</pdfrwt>
<totfact> 0.22149636E+05</totfact>
</mgrwt>
</event>
<event>
 4    1  0.4837985E-002  0.8697544E+02  0.7818608E-02  0.1310346E+00
         -2   -1    0    0  501    0 -0.00000000000E+00  0.00000000000E+00  0.73714562081E+02  0.73714562125E+02  0.25500000000E-02 0. -1.
          2   -1    0    0    0  501  0.00000000000E+00 -0.00000000000E+00 -0.25655470562E+02  0.25655470689E+02  0.25500000000E-02 0. -1.
          2    1    1    2    0  502 -0.90927752614E+01 -0.40847339397E+02  0.10511315435E+02  0.43147090939E+02  0.25500000000E-02 0.  1.
         -2    1    1    2  502    0  0.90927752614E+01  0.40847339397E+02  0.37547776084E+02  0.56222941876E+02  0.25500000000E-02 0.  1.
<mgrwt>
<rscale>  0 0.86975440E+02</rscale>
<asrwt>0</asrwt>
<pdfrwt beam="2">  1        2 0.39469956E-02 0.86975440E+02</pdfrwt>
<pdfrwt beam="1">  1       -2 0.11340702E-01 0.86975440E+02</pdfrwt>
<totfact> 0.97636685E+04</totfact>
</mgrwt>
</event>
<event>
 4    1  0.4837985E-002  0.1931886E+03  0.7818608E-02  0.1155616E+00
          2   -1    0    0    0  501  0.00000000000E+00  0.00000000000E+00  0.40506778895E+04  0.40506778895E+04  0.25500000000E-02 0.  1.
         -2   -1    0    0  501    0 -0.00000000000E+00 -0.00000000000E+00 -0.23034312074E+01  0.23034326189E+01  0.25500000000E-02 0.  1.
          2    1    1    2    0  502  0.57090581988E+02  0.50227906528E+02  0.77449743706E+03  0.77822134202E+03  0.25500000000E-02 0. -1.
         -2    1    1    2  502    0 -0.57090581988E+02 -0.50227906528E+02  0.32738770212E+04  0.32747599801E+04  0.25500000000E-02 0. -1.
<mgrwt>
<rscale>  0 0.19318862E+03</rscale>
<asrwt>0</asrwt>
<pdfrwt beam="1">  1        2 0.62317153E+00 0.19318862E+03</pdfrwt>
<pdfrwt beam="2">  1       -2 0.35437965E-03 0.19318862E+03</pdfrwt>
<totfact> 0.39388312E+03</totfact>
</mgrwt>
</event>
<event>
 4    1  0.4837985E-002  0.5038755E+02  0.7818608E-02  0.1443262E+00
         -2   -1    0    0  501    0 -0.00000000000E+00  0.00000000000E+00  0.14997857294E+02  0.14997857511E+02  0.25500000000E-02 0.  1.
          2   -1    0    0    0  501  0.00000000000E+00 -0.00000000000E+00 -0.42321123552E+02  0.42321123628E+02  0.25500000000E-02 0.  1.
          2    1    1    2    0  502 -0.19768782685E+02  0.15549962766E+02 -0.15317973563E+02  0.29449048057E+02  0.25500000000E-02 0.  1.
         -2    1    1    2  502    0  0.19768782685E+02 -0.15549962766E+02 -0.12005292694E+02  0.27869933083E+02  0.25500000000E-02 0.  1.
<mgrwt>
<rscale>  0 0.50387545E+02</rscale>
<asrwt>0</asrwt>
<pdfrwt beam="2">  1        2 0.65109421E-02 0.50387545E+02</pdfrwt>
<pdfrwt beam="1">  1       -2 0.23073627E-02 0.50387545E+02</pdfrwt>
<totfact> 0.48766974E+05</totfact>
</mgrwt>
</event>
<event>
 4    1  0.4837985E-002  0.1078192E+03  0.7818608E-02  0.1264662E+00
          2   -1    0    0    0  501  0.00000000000E+00  0.00000000000E+00  0.11480162782E+04  0.11480162782E+04  0.25500000000E-02 0. -1.
         -2   -1    0    0  501    0 -0.00000000000E+00 -0.00000000000E+00 -0.25315375394E+01  0.25315388237E+01  0.25500000000E-02 0. -1.
          2    1    1    2    0  502  0.32198713070E+02  0.43016696411E+02  0.61932227368E+03  0.62164883333E+03  0.25500000000E-02 0. -1.
         -2    1    1    2  502    0 -0.32198713070E+02 -0.43016696411E+02  0.52616246700E+03  0.52889898372E+03  0.25500000000E-02 0. -1.
<mgrwt>
<rscale>  0 0.10781924E+03</rscale>
<asrwt>0</asrwt>
<pdfrwt beam="1">  1        2 0.17661778E+00 0.10781924E+03</pdfrwt>
<pdfrwt beam="2">  1       -2 0.38946766E-03 0.10781924E+03</pdfrwt>
<totfact> 0.15998955E+05</totfact>
</mgrwt>
</event>
<event>
 4    1  0.4837985E-002  0.5458608E+02  0.7818608E-02  0.1422067E+00
          2   -1    0    0    0  501  0.00000000000E+00  0.00000000000E+00  0.10834764045E+04  0.10834764045E+04  0.25500000000E-02 0. -1.
         -2   -1    0    0  501    0 -0.00000000000E+00 -0.00000000000E+00 -0.68751598262E+00  0.68752071158E+00  0.25500000000E-02 0. -1.
          2    1    1    2    0  502  0.15735010083E+02  0.22060952412E+02  0.47662709897E+03  0.47739676124E+03  0.25500000000E-02 0.  1.
         -2    1    1    2  502    0 -0.15735010083E+02 -0.22060952412E+02  0.60616178953E+03  0.60676716396E+03  0.25500000000E-02 0.  1.
<mgrwt>
<rscale>  0 0.54586076E+02</rscale>
<asrwt>0</asrwt>
<pdfrwt beam="1">  1        2 0.16668795E+00 0.54586076E+02</pdfrwt>
<pdfrwt beam="2">  1       -2 0.10577251E-03 0.54586076E+02</pdfrwt>
<totfact> 0.93238971E+05</totfact>
</mgrwt>
</event>
<event>
 4    1  0.4837985E-002  0.9406538E+02  0.7818608E-02  0.1293295E+00
         -2   -1    0    0  501    0 -0.00000000000E+00  0.00000000000E+00  0.10676779275E+02  0.10676779579E+02  0.25500000000E-02 0. -1.
          2   -1    0    0    0  501  0.00000000000E+00 -0.00000000000E+00 -0.20718550049E+03  0.20718550051E+03  0.25500000000E-02 0. -1.
          2    1    1    2    0  502 -0.44303807595E+01 -0.37046528852E+02 -0.31932111926E+02  0.49109401872E+02  0.25500000000E-02 0. -1.
         -2    1    1    2  502    0  0.44303807595E+01  0.37046528852E+02 -0.16457660929E+03  0.16875287821E+03  0.25500000000E-02 0. -1.
<mgrwt>
<rscale>  0 0.94065379E+02</rscale>
<asrwt>0</asrwt>
<pdfrwt beam="2">  1        2 0.31874690E-01 0.94065379E+02</pdfrwt>
<pdfrwt beam="1">  1       -2 0.16425816E-02 0.94065379E+02</pdfrwt>
<totfact> 0.14403241E+05</totfact>
</mgrwt>
</event>
<event>
 4    1  0.4837985E-002  0.6364170E+02  0.7818608E-02  0.1383155E+00
          2   -1    0    0    0  501  0.00000000000E+00  0.00000000000E+00  0.93717751204E+03  0.93717751204E+03  0.25500000000E-02 0.  1.
         -2   -1    0    0  501    0 -0.00000000000E+00 -0.00000000000E+00 -0.10804409209E+01  0.10804439301E+01  0.25500000000E-02 0.  1.
          2    1    1    2    0  502  0.26608583661E+02  0.17448576617E+02  0.47263520239E+03  0.47370508135E+03  0.25500000000E-02 0. -1.
         -2    1    1    2  502    0 -0.26608583661E+02 -0.17448576617E+02  0.46346186873E+03  0.46455287462E+03  0.25500000000E-02 0. -1.
<mgrwt>
<rscale>  0 0.63641695E+02</rscale>
<asrwt>0</asrwt>
<pdfrwt beam="1">  1        2 0.14418200E+00 0.63641695E+02</pdfrwt>
<pdfrwt beam="2">  1       -2 0.16622094E-03 0.63641695E+02</pdfrwt>
<totfact> 0.63058741E+05</totfact>
</mgrwt>
</event>
<event>
 4    1  0.4837985E-002  0.5964549E+02  0.7818608E-02  0.1399326E+00
          2   -1    0    0    0  501  0.00000000000E+00  0.00000000000E+00  0.21656802327E+04  0.21656802327E+04  0.25500000000E-02 0.  1.
         -2   -1    0    0  501    0 -0.00000000000E+00 -0.00000000000E+00 -0.41067350825E+00  0.41068142505E+00  0.25500000000E-02 0.  1.
          2    1    1    2    0  502 -0.19876043479E+00 -0.24252184054E+02  0.45237730099E+03  0.45302696432E+03  0.25500000000E-02 0.  1.
         -2    1    1    2  502    0  0.19876043479E+00  0.24252184054E+02  0.17128922582E+04  0.17130639498E+04  0.25500000000E-02 0.  1.
<mgrwt>
<rscale>  0 0.59645489E+02</rscale>
<asrwt>0</asrwt>
<pdfrwt beam="1">  1        2 0.33318059E+00 0.59645489E+02</pdfrwt>
<pdfrwt beam="2">  1       -2 0.63181336E-04 0.59645489E+02</pdfrwt>
<totfact> 0.54487383E+05</totfact>
</mgrwt>
</event>
<event>
 4    1  0.4837985E-002  0.4748818E+02  0.7818608E-02  0.1459380E+00
          2   -1    0    0    0  501  0.00000000000E+00  0.00000000000E+00  0.19982374426E+04  0.19982374426E+04  0.25500000000E-02 0. -1.
         -2   -1    0    0  501    0 -0.00000000000E+00 -0.00000000000E+00 -0.28213380439E+00  0.28214532794E+00  0.25500000000E-02 0. -1.
          2    1    1    2    0  502 -0.23647130681E+02 -0.61882451081E+00  0.10853495903E+04  0.10856073428E+04  0.25500000000E-02 0.  1.
         -2    1    1    2  502    0  0.23647130681E+02  0.61882451081E+00  0.91260571856E+03  0.91291224512E+03  0.25500000000E-02 0.  1.
<mgrwt>
<rscale>  0 0.47488182E+02</rscale>
<asrwt>0</asrwt>
<pdfrwt beam="1">  1        2 0.30740398E+00 0.47488182E+02</pdfrwt>
<pdfrwt beam="2">  1       -2 0.43408511E-04 0.47488182E+02</pdfrwt>
<totfact> 0.10474694E+06</totfact>
</mgrwt>
</event>
<event>
 4    1  0.4837985E-002  0.4666483E+02  0.7818608E-02  0.1464208E+00
         -2   -1    0    0  501    0 -0.00000000000E+00  0.00000000000E+00  0.18827117956E+01  0.18827135225E+01  0.25500000000E-02 0.  1.
          2   -1    0    0    0  501  0.00000000000E+00 -0.00000000000E+00 -0.28915804046E+03  0.28915804047E+03  0.25500000000E-02 0.  1.
          2    1    1    2    0  502 -0.22851208658E+02  0.36245667847E+01 -0.12483769356E+03  0.12696363637E+03  0.25500000000E-02 0.  1.
         -2    1    1    2  502    0  0.22851208658E+02 -0.36245667847E+01 -0.16243763511E+03  0.16407711762E+03  0.25500000000E-02 0.  1.
<mgrwt>
<rscale>  0 0.46664826E+02</rscale>
<asrwt>0</asrwt>
<pdfrwt beam="2">  1        2 0.44485817E-01 0.46664826E+02</pdfrwt>
<pdfrwt beam="1">  1       -2 0.28964833E-03 0.46664826E+02</pdfrwt>
<totfact> 0.99108578E+05</totfact>
</mgrwt>
</event>
<event>
 4    1  0.4837985E-002  0.1224686E+03  0.7818608E-02  0.1239079E+00
         -2   -1    0    0  501    0 -0.00000000000E+00  0.00000000000E+00  0.15162228509E+01  0.15162249952E+01  0.25500000000E-02 0. -1.
          2   -1    0    0    0  501  0.00000000000E+00 -0.00000000000E+00 -0.24730108057E+04  0.24730108057E+04  0.25500000000E-02 0. -1.
          2    1    1    2    0  502  0.59332618759E+02 -0.14598387545E+02 -0.13169860165E+04  0.13184026851E+04  0.25500000000E-02 0. -1.
         -2    1    1    2  502    0 -0.59332618759E+02  0.14598387545E+02 -0.11545085663E+04  0.11561243455E+04  0.25500000000E-02 0. -1.
<mgrwt>
<rscale>  0 0.12246858E+03</rscale>
<asrwt>0</asrwt>
<pdfrwt beam="2">  1        2 0.38045997E+00 0.12246858E+03</pdfrwt>
<pdfrwt beam="1">  1       -2 0.23326720E-03 0.12246858E+03</pdfrwt>
<totfact> 0.68369379E+04</totfact>
</mgrwt>
</event>
<event>
 4    1  0.4837985E-002  0.5785955E+02  0.7818608E-02  0.1407040E+00
          2   -1    0    0    0  501  0.00000000000E+00  0.00000000000E+00  0.22414951678E+03  0.22414951679E+03  0.25500000000E-02 0.  1.
         -2   -1    0    0  501    0 -0.00000000000E+00 -0.00000000000E+00 -0.37338107872E+01  0.37338116579E+01  0.25500000000E-02 0.  1.
          2    1    1    2    0  502 -0.28149375452E+02 -0.51913044654E+01  0.12672869138E+03  0.12992112302E+03  0.25500000000E-02 0.  1.
         -2    1    1    2  502    0  0.28149375452E+02  0.51913044654E+01  0.93687014612E+02  0.97962205435E+02  0.25500000000E-02 0.  1.
<mgrwt>
<rscale>  0 0.57859554E+02</rscale>
<asrwt>0</asrwt>
<pdfrwt beam="1">  1        2 0.34484539E-01 0.57859554E+02</pdfrwt>
<pdfrwt beam="2">  1       -2 0.57443254E-03 0.57859554E+02</pdfrwt>
<totfact> 0.52928071E+05</totfact>
</mgrwt>
</event>
<event>
 4    1  0.4837985E-002  0.4975061E+02  0.7818608E-02  0.1446691E+00
         -2   -1    0    0  501    0 -0.00000000000E+00  0.00000000000E+00  0.45251353844E+00  0.45252072325E+00  0.25500000000E-02 0.  1.
          2   -1    0    0    0  501  0.00000000000E+00 -0.00000000000E+00 -0.13674198305E+04  0.13674198305E+04  0.25500000000E-02 0.  1.
          2    1    1    2    0  502 -0.19844990823E+02  0.14452391929E+02 -0.57321152354E+03  0.57373700074E+03  0.25500000000E-02 0.  1.
         -2    1    1    2  502    0  0.19844990823E+02 -0.14452391929E+02 -0.79375579346E+03  0.79413535053E+03  0.25500000000E-02 0.  1.
<mgrwt>
<rscale>  0 0.49750614E+02</rscale>
<asrwt>0</asrwt>
<pdfrwt beam="2">  1        2 0.21036897E+00 0.49750614E+02</pdfrwt>
<pdfrwt beam="1">  1       -2 0.69619115E-04 0.49750614E+02</pdfrwt>
<totfact> 0.11409045E+06</totfact>
</mgrwt>
</event>
<event>
 4    1  0.4837985E-002  0.4615882E+02  0.7818608E-02  0.1467234E+00
          2   -1    0    0    0  501  0.00000000000E+00  0.00000000000E+00  0.15531548452E+04  0.15531548452E+04  0.25500000000E-02 0. -1.
         -2   -1    0    0  501    0 -0.00000000000E+00 -0.00000000000E+00 -0.34294831206E+00  0.34295779222E+00  0.25500000000E-02 0. -1.
          2    1    1    2    0  502 -0.17637942416E+02  0.14280744935E+02  0.63512300746E+03  0.63552834028E+03  0.25500000000E-02 0.  1.
         -2    1    1    2  502    0  0.17637942416E+02 -0.14280744935E+02  0.91768888947E+03  0.91796946275E+03  0.25500000000E-02 0.  1.
<mgrwt>
<rscale>  0 0.46158821E+02</rscale>
<asrwt>0</asrwt>
<pdfrwt beam="1">  1        2 0.23894152E+00 0.46158821E+02</pdfrwt>
<pdfrwt beam="2">  1       -2 0.52763196E-04 0.46158821E+02</pdfrwt>
<totfact> 0.13172617E+06</totfact>
</mgrwt>
</event>
<event>
 4    1  0.4837985E-002  0.4286285E+02  0.7818608E-02  0.1488142E+00
         -2   -1    0    0  501    0 -0.00000000000E+00  0.00000000000E+00  0.96691490379E+00  0.96691826628E+00  0.25500000000E-02 0. -1.
          2   -1    0    0    0  501  0.00000000000E+00 -0.00000000000E+00 -0.47502119164E+03  0.47502119165E+03  0.25500000000E-02 0. -1.
          2    1    1    2    0  502  0.40514967018E+00  0.20578549059E+02 -0.30334590684E+03  0.30404338512E+03  0.25500000000E-02 0.  1.
         -2    1    1    2  502    0 -0.40514967018E+00 -0.20578549059E+02 -0.17070836989E+03  0.17194472480E+03  0.25500000000E-02 0.  1.
<mgrwt>
<rscale>  0 0.42862845E+02</rscale>
<asrwt>0</asrwt>
<pdfrwt beam="2">  1        2 0.73079997E-01 0.42862845E+02</pdfrwt>
<pdfrwt beam="1">  1       -2 0.14875678E-03 0.42862845E+02</pdfrwt>
<totfact> 0.14420104E+06</totfact>
</mgrwt>
</event>
<event>
 4    1  0.4837985E-002  0.6345210E+02  0.7818608E-02  0.1383890E+00
          2   -1    0    0    0  501  0.00000000000E+00  0.00000000000E+00  0.23387681212E+04  0.23387681212E+04  0.25500000000E-02 0. -1.
         -2   -1    0    0  501    0 -0.00000000000E+00 -0.00000000000E+00 -0.43036908079E+00  0.43037663528E+00  0.25500000000E-02 0. -1.
          2    1    1    2    0  502 -0.87399211607E+01  0.27971581946E+02  0.72106370747E+03  0.72165896783E+03  0.25500000000E-02 0.  1.
         -2    1    1    2  502    0  0.87399211607E+01 -0.27971581946E+02  0.16172740446E+04  0.16175395300E+04  0.25500000000E-02 0.  1.
<mgrwt>
<rscale>  0 0.63452102E+02</rscale>
<asrwt>0</asrwt>
<pdfrwt beam="1">  1        2 0.35980750E+00 0.63452102E+02</pdfrwt>
<pdfrwt beam="2">  1       -2 0.66211757E-04 0.63452102E+02</pdfrwt>
<totfact> 0.42281027E+05</totfact>
</mgrwt>
</event>
<event>
 4    1  0.4837985E-002  0.5905464E+02  0.7818608E-02  0.1401842E+00
          2   -1    0    0    0  501  0.00000000000E+00  0.00000000000E+00  0.29826661500E+02  0.29826661609E+02  0.25500000000E-02 0.  1.
         -2   -1    0    0  501    0 -0.00000000000E+00 -0.00000000000E+00 -0.29230981613E+02  0.29230981724E+02  0.25500000000E-02 0.  1.
          2    1    1    2    0  502  0.12743353605E+02  0.26335770036E+02  0.42851155611E+01  0.29569038982E+02  0.25500000000E-02 0. -1.
         -2    1    1    2  502    0 -0.12743353605E+02 -0.26335770036E+02 -0.36894356734E+01  0.29488604351E+02  0.25500000000E-02 0. -1.
<mgrwt>
<rscale>  0 0.59054639E+02</rscale>
<asrwt>0</asrwt>
<pdfrwt beam="1">  1        2 0.45887171E-02 0.59054639E+02</pdfrwt>
<pdfrwt beam="2">  1       -2 0.44970741E-02 0.59054639E+02</pdfrwt>
<totfact> 0.30130769E+05</totfact>
</mgrwt>
</event>
<event>
 4    1  0.4837985E-002  0.4712290E+02  0.7818608E-02  0.1461508E+00
          2   -1    0    0    0  501  0.00000000000E+00  0.00000000000E+00  0.61803964235E+02  0.61803964288E+02  0.25500000000E-02 0.  1.
         -2   -1    0    0  501    0 -0.00000000000E+00 -0.00000000000E+00 -0.89823023535E+01  0.89823027154E+01  0.25500000000E-02 0.  1.
          2    1    1    2    0  502 -0.12637280412E+02 -0.16668575503E+02  0.10120871755E+02  0.23237347462E+02  0.25500000000E-02 0. -1.
         -2    1    1    2  502    0  0.12637280412E+02  0.16668575503E+02  0.42700790127E+02  0.47548919541E+02  0.25500000000E-02 0. -1.
<mgrwt>
<rscale>  0 0.47122899E+02</rscale>
<asrwt>0</asrwt>
<pdfrwt beam="1">  1        2 0.95083020E-02 0.47122899E+02</pdfrwt>
<pdfrwt beam="2">  1       -2 0.13818927E-02 0.47122899E+02</pdfrwt>
<totfact> 0.62228798E+05</totfact>
</mgrwt>
</event>
<event>
 4    1  0.4837985E-002  0.4038022E+02  0.7818608E-02  0.1505432E+00
         -2   -1    0    0  501    0 -0.00000000000E+00  0.00000000000E+00  0.15339109774E+01  0.15339130970E+01  0.25500000000E-02 0. -1.
          2   -1    0    0    0  501  0.00000000000E+00 -0.00000000000E+00 -0.26575221710E+03  0.26575221711E+03  0.25500000000E-02 0. -1.
          2    1    1    2    0  502 -0.19924563198E+02  0.30907233725E+01 -0.12516768773E+03  0.12678127168E+03  0.25500000000E-02 0.  1.
         -2    1    1    2  502    0  0.19924563198E+02 -0.30907233725E+01 -0.13905061839E+03  0.14050485853E+03  0.25500000000E-02 0.  1.
<mgrwt>
<rscale>  0 0.40380219E+02</rscale>
<asrwt>0</asrwt>
<pdfrwt beam="2">  1        2 0.40884920E-01 0.40380219E+02</pdfrwt>
<pdfrwt beam="1">  1       -2 0.23598668E-03 0.40380219E+02</pdfrwt>
<totfact> 0.13718184E+06</totfact>
</mgrwt>
</event>
<event>
 4    1  0.4837985E-002  0.4742223E+02  0.7818608E-02  0.1459763E+00
         -2   -1    0    0  501    0 -0.00000000000E+00  0.00000000000E+00  0.33754832056E+00  0.33755795237E+00  0.25500000000E-02 0.  1.
          2   -1    0    0    0  501  0.00000000000E+00 -0.00000000000E+00 -0.16655661348E+04  0.16655661348E+04  0.25500000000E-02 0.  1.
          2    1    1    2    0  502  0.20710605824E+02  0.23086526806E+01 -0.43523832537E+03  0.43573691483E+03  0.25500000000E-02 0. -1.
         -2    1    1    2  502    0 -0.20710605824E+02 -0.23086526806E+01 -0.12299902611E+04  0.12301667779E+04  0.25500000000E-02 0. -1.
<mgrwt>
<rscale>  0 0.47422234E+02</rscale>
<asrwt>0</asrwt>
<pdfrwt beam="2">  1        2 0.25623436E+00 0.47422234E+02</pdfrwt>
<pdfrwt beam="1">  1       -2 0.51932586E-04 0.47422234E+02</pdfrwt>
<totfact> 0.11931797E+06</totfact>
</mgrwt>
</event>
<event>
 4    1  0.4837985E-002  0.5433506E+02  0.7818608E-02  0.1423270E+00
          2   -1    0    0    0  501  0.00000000000E+00  0.00000000000E+00  0.88831375233E+02  0.88831375270E+02  0.25500000000E-02 0. -1.
         -2   -1    0    0  501    0 -0.00000000000E+00 -0.00000000000E+00 -0.83087163292E+01  0.83087167206E+01  0.25500000000E-02 0. -1.
          2    1    1    2    0  502  0.21504184545E+02  0.16100407199E+02  0.47506134610E+02  0.54575506384E+02  0.25500000000E-02 0.  1.
         -2    1    1    2  502    0 -0.21504184545E+02 -0.16100407199E+02  0.33016524294E+02  0.42564585607E+02  0.25500000000E-02 0.  1.
<mgrwt>
<rscale>  0 0.54335061E+02</rscale>
<asrwt>0</asrwt>
<pdfrwt beam="1">  1        2 0.13666366E-01 0.54335061E+02</pdfrwt>
<pdfrwt beam="2">  1       -2 0.12782641E-02 0.54335061E+02</pdfrwt>
<totfact> 0.46989878E+05</totfact>
</mgrwt>
</event>
<event>
 4    1  0.4837985E-002  0.6521659E+02  0.7818608E-02  0.1377159E+00
         -2   -1    0    0  501    0 -0.00000000000E+00  0.00000000000E+00  0.27458263279E+01  0.27458275120E+01  0.25500000000E-02 0.  1.
          2   -1    0    0    0  501  0.00000000000E+00 -0.00000000000E+00 -0.38724247865E+03  0.38724247866E+03  0.25500000000E-02 0.  1.
          2    1    1    2    0  502 -0.29186640616E+02 -0.14314974403E+02 -0.17697635420E+03  0.17993723471E+03  0.25500000000E-02 0.  1.
         -2    1    1    2  502    0  0.29186640616E+02  0.14314974403E+02 -0.20752029812E+03  0.21005107146E+03  0.25500000000E-02 0.  1.
<mgrwt>
<rscale>  0 0.65216588E+02</rscale>
<asrwt>0</asrwt>
<pdfrwt beam="2">  1        2 0.59575723E-01 0.65216588E+02</pdfrwt>
<pdfrwt beam="1">  1       -2 0.42243522E-03 0.65216588E+02</pdfrwt>
<totfact> 0.47283288E+05</totfact>
</mgrwt>
</event>
<event>
 4    1  0.4837985E-002  0.1036728E+03  0.7818608E-02  0.1272757E+00
         -2   -1    0    0  501    0 -0.00000000000E+00  0.00000000000E+00  0.12010154103E+01  0.12010181174E+01  0.25500000000E-02 0.  1.
          2   -1    0    0    0  501  0.00000000000E+00 -0.00000000000E+00 -0.22372812340E+04  0.22372812340E+04  0.25500000000E-02 0.  1.
          2    1    1    2    0  502  0.82146777175E+01 -0.51066000890E+02 -0.10438859128E+04  0.10451665017E+04  0.25500000000E-02 0. -1.
         -2    1    1    2  502    0 -0.82146777175E+01  0.51066000890E+02 -0.11921943058E+04  0.11933157504E+04  0.25500000000E-02 0. -1.
<mgrwt>
<rscale>  0 0.10367280E+03</rscale>
<asrwt>0</asrwt>
<pdfrwt beam="2">  1        2 0.34419378E+00 0.10367280E+03</pdfrwt>
<pdfrwt beam="1">  1       -2 0.18477360E-03 0.10367280E+03</pdfrwt>
<totfact> 0.12377926E+05</totfact>
</mgrwt>
</event>
<event>
 4    1  0.4837985E-002  0.9902831E+02  0.7818608E-02  0.1282353E+00
          2   -1    0    0    0  501  0.00000000000E+00  0.00000000000E+00  0.26458289418E+02  0.26458289541E+02  0.25500000000E-02 0.  1.
         -2   -1    0    0  501    0 -0.00000000000E+00 -0.00000000000E+00 -0.92661005169E+02  0.92661005204E+02  0.25500000000E-02 0.  1.
          2    1    1    2    0  502 -0.18404998552E+02  0.45821176397E+02 -0.28710014880E+02  0.57119078590E+02  0.25500000000E-02 0.  1.
         -2    1    1    2  502    0  0.18404998552E+02 -0.45821176397E+02 -0.37492700871E+02  0.62000216154E+02  0.25500000000E-02 0.  1.
<mgrwt>
<rscale>  0 0.99028313E+02</rscale>
<asrwt>0</asrwt>
<pdfrwt beam="1">  1        2 0.40705061E-02 0.99028313E+02</pdfrwt>
<pdfrwt beam="2">  1       -2 0.14255539E-01 0.99028313E+02</pdfrwt>
<totfact> 0.66516184E+04</totfact>
</mgrwt>
</event>
<event>
 4    1  0.4837985E-002  0.8798030E+02  0.7818608E-02  0.1307818E+00
          2   -1    0    0    0  501  0.00000000000E+00  0.00000000000E+00  0.67314465838E+02  0.67314465886E+02  0.25500000000E-02 0.  1.
         -2   -1    0    0  501    0 -0.00000000000E+00 -0.00000000000E+00 -0.28747657152E+02  0.28747657265E+02  0.25500000000E-02 0.  1.
          2    1    1    2    0  502  0.15793017659E+02  0.16780659798E+02  0.60197161915E+02  0.64457026453E+02  0.25500000000E-02 0.  1.
         -2    1    1    2  502    0 -0.15793017659E+02 -0.16780659798E+02 -0.21630353228E+02  0.31605096699E+02  0.25500000000E-02 0.  1.
<mgrwt>
<rscale>  0 0.87980298E+02</rscale>
<asrwt>0</asrwt>
<pdfrwt beam="1">  1        2 0.10356072E-01 0.87980298E+02</pdfrwt>
<pdfrwt beam="2">  1       -2 0.44227165E-02 0.87980298E+02</pdfrwt>
<totfact> 0.12089997E+05</totfact>
</mgrwt>
</event>
<event>
 4    1  0.4837985E-002  0.5607799E+02  0.7818608E-02  0.1415069E+00
         -2   -1    0    0  501    0 -0.00000000000E+00  0.00000000000E+00  0.17620350821E+01  0.17620369272E+01  0.25500000000E-02 0.  1.
          2   -1    0    0    0  501  0.00000000000E+00 -0.00000000000E+00 -0.44617992847E+03  0.44617992847E+03  0.25500000000E-02 0.  1.
          2    1    1    2    0  502  0.65502324213E+01  0.21008067662E+02 -0.83408731675E+02  0.86262743857E+02  0.25500000000E-02 0. -1.
         -2    1    1    2  502    0 -0.65502324213E+01 -0.21008067662E+02 -0.36100916171E+03  0.36167922154E+03  0.25500000000E-02 0. -1.
<mgrwt>
<rscale>  0 0.56077985E+02</rscale>
<asrwt>0</asrwt>
<pdfrwt beam="2">  1        2 0.68642976E-01 0.56077985E+02</pdfrwt>
<pdfrwt beam="1">  1       -2 0.27108282E-03 0.56077985E+02</pdfrwt>
<totfact> 0.72757758E+05</totfact>
</mgrwt>
</event>
<event>
 4    1  0.4837985E-002  0.9285709E+02  0.7818608E-02  0.1296077E+00
         -2   -1    0    0  501    0 -0.00000000000E+00  0.00000000000E+00  0.10295296546E+01  0.10295328126E+01  0.25500000000E-02 0. -1.
          2   -1    0    0    0  501  0.00000000000E+00 -0.00000000000E+00 -0.20937777531E+04  0.20937777531E+04  0.25500000000E-02 0. -1.
          2    1    1    2    0  502 -0.36024387663E+02 -0.35517008104E+01 -0.39050275851E+03  0.39217696962E+03  0.25500000000E-02 0. -1.
         -2    1    1    2  502    0  0.36024387663E+02  0.35517008104E+01 -0.17022454649E+04  0.17026303163E+04  0.25500000000E-02 0. -1.
<mgrwt>
<rscale>  0 0.92857086E+02</rscale>
<asrwt>0</asrwt>
<pdfrwt beam="2">  1        2 0.32211625E+00 0.92857086E+02</pdfrwt>
<pdfrwt beam="1">  1       -2 0.15839110E-03 0.92857086E+02</pdfrwt>
<totfact> 0.17919101E+05</totfact>
</mgrwt>
</event>
<event>
 4    1  0.4837985E-002  0.6943308E+02  0.7818608E-02  0.1362032E+00
         -2   -1    0    0  501    0 -0.00000000000E+00  0.00000000000E+00  0.25583740064E+01  0.25583752773E+01  0.25500000000E-02 0. -1.
          2   -1    0    0    0  501  0.00000000000E+00 -0.00000000000E+00 -0.47109529287E+03  0.47109529287E+03  0.25500000000E-02 0. -1.
          2    1    1    2    0  502  0.34598399034E+02 -0.13410728604E+01 -0.25151348212E+03  0.25388556357E+03  0.25500000000E-02 0.  1.
         -2    1    1    2  502    0 -0.34598399034E+02  0.13410728604E+01 -0.21702343674E+03  0.21976810458E+03  0.25500000000E-02 0.  1.
<mgrwt>
<rscale>  0 0.69433083E+02</rscale>
<asrwt>0</asrwt>
<pdfrwt beam="2">  1        2 0.72476130E-01 0.69433083E+02</pdfrwt>
<pdfrwt beam="1">  1       -2 0.39359647E-03 0.69433083E+02</pdfrwt>
<totfact> 0.43028055E+05</totfact>
</mgrwt>
</event>
<event>
 4    1  0.4837985E-002  0.7075078E+02  0.7818608E-02  0.1357558E+00
          2   -1    0    0    0  501  0.00000000000E+00  0.00000000000E+00  0.11237545972E+04  0.11237545972E+04  0.25500000000E-02 0.  1.
         -2   -1    0    0  501    0 -0.00000000000E+00 -0.00000000000E+00 -0.11136030118E+01  0.11136059313E+01  0.25500000000E-02 0.  1.
          2    1    1    2    0  502 -0.29695531178E+02 -0.80747275233E+01  0.28393274343E+03  0.28559556824E+03  0.25500000000E-02 0. -1.
         -2    1    1    2  502    0  0.29695531178E+02  0.80747275233E+01  0.83870825075E+03  0.83927263489E+03  0.25500000000E-02 0. -1.
<mgrwt>
<rscale>  0 0.70750778E+02</rscale>
<asrwt>0</asrwt>
<pdfrwt beam="1">  1        2 0.17288479E+00 0.70750778E+02</pdfrwt>
<pdfrwt beam="2">  1       -2 0.17132429E-03 0.70750778E+02</pdfrwt>
<totfact> 0.48328057E+05</totfact>
</mgrwt>
</event>
<event>
 4    1  0.4837985E-002  0.4561045E+02  0.7818608E-02  0.1470566E+00
          2   -1    0    0    0  501  0.00000000000E+00  0.00000000000E+00  0.19394667229E+02  0.19394667397E+02  0.25500000000E-02 0.  1.
         -2   -1    0    0  501    0 -0.00000000000E+00 -0.00000000000E+00 -0.26815533569E+02  0.26815533690E+02  0.25500000000E-02 0.  1.
          2    1    1    2    0  502  0.18429455805E+02 -0.13412535018E+02 -0.29677086918E+01  0.22985826900E+02  0.25500000000E-02 0.  1.
         -2    1    1    2  502    0 -0.18429455805E+02  0.13412535018E+02 -0.44531576479E+01  0.23224374188E+02  0.25500000000E-02 0.  1.
<mgrwt>
<rscale>  0 0.45610453E+02</rscale>
<asrwt>0</asrwt>
<pdfrwt beam="1">  1        2 0.29837950E-02 0.45610453E+02</pdfrwt>
<pdfrwt beam="2">  1       -2 0.41254667E-02 0.45610453E+02</pdfrwt>
<totfact> 0.55887328E+05</totfact>
</mgrwt>
</event>
<event>
 4    1  0.4837985E-002  0.5193834E+02  0.7818608E-02  0.1435159E+00
          2   -1    0    0    0  501  0.00000000000E+00  0.00000000000E+00  0.42853627428E+01  0.42853635015E+01  0.25500000000E-02 0. -1.
         -2   -1    0    0  501    0 -0.00000000000E+00 -0.00000000000E+00 -0.15737234833E+03  0.15737234835E+03  0.25500000000E-02 0. -1.
          2    1    1    2    0  502 -0.28609114480E+01  0.24444075250E+02 -0.10234154122E+03  0.10525915017E+03  0.25500000000E-02 0. -1.
         -2    1    1    2  502    0  0.28609114480E+01 -0.24444075250E+02 -0.50745444374E+02  0.56398561687E+02  0.25500000000E-02 0. -1.
<mgrwt>
<rscale>  0 0.51938335E+02</rscale>
<asrwt>0</asrwt>
<pdfrwt beam="1">  1        2 0.65928675E-03 0.51938335E+02</pdfrwt>
<pdfrwt beam="2">  1       -2 0.24211126E-01 0.51938335E+02</pdfrwt>
<totfact> 0.28113761E+05</totfact>
</mgrwt>
</event>
<event>
 4    1  0.4837985E-002  0.6738472E+02  0.7818608E-02  0.1369219E+00
         -2   -1    0    0  501    0 -0.00000000000E+00  0.00000000000E+00  0.65255613234E+00  0.65256111465E+00  0.25500000000E-02 0. -1.
          2   -1    0    0    0  501  0.00000000000E+00 -0.00000000000E+00 -0.17395756556E+04  0.17395756556E+04  0.25500000000E-02 0. -1.
          2    1    1    2    0  502  0.26162684971E+02  0.19513167845E+02 -0.65350722091E+03  0.65432173859E+03  0.25500000000E-02 0. -1.
         -2    1    1    2  502    0 -0.26162684971E+02 -0.19513167845E+02 -0.10854158786E+04  0.10859064781E+04  0.25500000000E-02 0. -1.
<mgrwt>
<rscale>  0 0.67384719E+02</rscale>
<asrwt>0</asrwt>
<pdfrwt beam="2">  1        2 0.26762331E+00 0.67384719E+02</pdfrwt>
<pdfrwt beam="1">  1       -2 0.10039503E-03 0.67384719E+02</pdfrwt>
<totfact> 0.48115772E+05</totfact>
</mgrwt>
</event>
<event>
 4    1  0.4837985E-002  0.4673149E+02  0.7818608E-02  0.1463813E+00
          2   -1    0    0    0  501  0.00000000000E+00  0.00000000000E+00  0.38063848527E+03  0.38063848528E+03  0.25500000000E-02 0. -1.
         -2   -1    0    0  501    0 -0.00000000000E+00 -0.00000000000E+00 -0.14343204059E+01  0.14343226726E+01  0.25500000000E-02 0. -1.
          2    1    1    2    0  502 -0.20122261793E+02  0.70278259066E+01  0.11132552699E+03  0.11334755720E+03  0.25500000000E-02 0. -1.
         -2    1    1    2  502    0  0.20122261793E+02 -0.70278259066E+01  0.26787863787E+03  0.26872525075E+03  0.25500000000E-02 0. -1.
<mgrwt>
<rscale>  0 0.46731488E+02</rscale>
<asrwt>0</asrwt>
<pdfrwt beam="1">  1        2 0.58559759E-01 0.46731488E+02</pdfrwt>
<pdfrwt beam="2">  1       -2 0.22066488E-03 0.46731488E+02</pdfrwt>
<totfact> 0.10855637E+06</totfact>
</mgrwt>
</event>
<event>
 4    1  0.4837985E-002  0.4679870E+02  0.7818608E-02  0.1463415E+00
         -2   -1    0    0  501    0 -0.00000000000E+00  0.00000000000E+00  0.15561975035E+03  0.15561975037E+03  0.25500000000E-02 0. -1.
          2   -1    0    0    0  501  0.00000000000E+00 -0.00000000000E+00 -0.35183801348E+01  0.35183810589E+01  0.25500000000E-02 0. -1.
          2    1    1    2    0  502  0.95971098150E+01  0.20357403471E+02  0.97824690196E+02  0.10038026903E+03  0.25500000000E-02 0.  1.
         -2    1    1    2  502    0 -0.95971098150E+01 -0.20357403471E+02  0.54276680015E+02  0.58757862392E+02  0.25500000000E-02 0.  1.
<mgrwt>
<rscale>  0 0.46798697E+02</rscale>
<asrwt>0</asrwt>
<pdfrwt beam="2">  1        2 0.54128918E-03 0.46798697E+02</pdfrwt>
<pdfrwt beam="1">  1       -2 0.23941506E-01 0.46798697E+02</pdfrwt>
<totfact> 0.36425640E+05</totfact>
</mgrwt>
</event>
<event>
 4    1  0.4837985E-002  0.7787472E+02  0.7818608E-02  0.1335193E+00
         -2   -1    0    0  501    0 -0.00000000000E+00  0.00000000000E+00  0.24310900603E+01  0.24310913976E+01  0.25500000000E-02 0.  1.
          2   -1    0    0    0  501  0.00000000000E+00 -0.00000000000E+00 -0.62363690686E+03  0.62363690686E+03  0.25500000000E-02 0.  1.
          2    1    1    2    0  502 -0.10173964090E+02  0.32421679145E+02 -0.15776011179E+03  0.16137821323E+03  0.25500000000E-02 0.  1.
         -2    1    1    2  502    0  0.10173964090E+02 -0.32421679145E+02 -0.46344570500E+03  0.46468978503E+03  0.25500000000E-02 0.  1.
<mgrwt>
<rscale>  0 0.77874717E+02</rscale>
<asrwt>0</asrwt>
<pdfrwt beam="2">  1        2 0.95944012E-01 0.77874717E+02</pdfrwt>
<pdfrwt beam="1">  1       -2 0.37401446E-03 0.77874717E+02</pdfrwt>
<totfact> 0.34806630E+05</totfact>
</mgrwt>
</event>
<event>
 4    1  0.4837985E-002  0.1004243E+03  0.7818608E-02  0.1279406E+00
         -2   -1    0    0  501    0 -0.00000000000E+00  0.00000000000E+00  0.31415102677E+02  0.31415102780E+02  0.25500000000E-02 0.  1.
          2   -1    0    0    0  501  0.00000000000E+00 -0.00000000000E+00 -0.80256256852E+02  0.80256256892E+02  0.25500000000E-02 0.  1.
          2    1    1    2    0  502 -0.76573489563E+01 -0.24826776791E+02 -0.72200882789E+02  0.76733117497E+02  0.25500000000E-02 0.  1.
         -2    1    1    2  502    0  0.76573489563E+01  0.24826776791E+02  0.23359728614E+02  0.34938242175E+02  0.25500000000E-02 0.  1.
<mgrwt>
<rscale>  0 0.10042427E+03</rscale>
<asrwt>0</asrwt>
<pdfrwt beam="2">  1        2 0.12347116E-01 0.10042427E+03</pdfrwt>
<pdfrwt beam="1">  1       -2 0.48330927E-02 0.10042427E+03</pdfrwt>
<totfact> 0.87690269E+04</totfact>
</mgrwt>
</event>
<event>
 4    1  0.4837985E-002  0.7319045E+02  0.7818608E-02  0.1349568E+00
          2   -1    0    0    0  501  0.00000000000E+00  0.00000000000E+00  0.41942309989E+03  0.41942309990E+03  0.25500000000E-02 0. -1.
         -2   -1    0    0  501    0 -0.00000000000E+00 -0.00000000000E+00 -0.31929819945E+01  0.31929830127E+01  0.25500000000E-02 0. -1.
          2    1    1    2    0  502  0.21881585375E+02  0.29429335810E+01  0.39596930158E+02  0.45336315697E+02  0.25500000000E-02 0.  1.
         -2    1    1    2  502    0 -0.21881585375E+02 -0.29429335810E+01  0.37663318774E+03  0.37727976722E+03  0.25500000000E-02 0.  1.
<mgrwt>
<rscale>  0 0.73190454E+02</rscale>
<asrwt>0</asrwt>
<pdfrwt beam="1">  1        2 0.64526628E-01 0.73190454E+02</pdfrwt>
<pdfrwt beam="2">  1       -2 0.49122810E-03 0.73190454E+02</pdfrwt>
<totfact> 0.36116935E+05</totfact>
</mgrwt>
</event>
<event>
 4    1  0.4837985E-002  0.4282432E+02  0.7818608E-02  0.1488400E+00
         -2   -1    0    0  501    0 -0.00000000000E+00  0.00000000000E+00  0.31764193519E+02  0.31764193622E+02  0.25500000000E-02 0.  1.
          2   -1    0    0    0  501  0.00000000000E+00 -0.00000000000E+00 -0.14433883305E+02  0.14433883530E+02  0.25500000000E-02 0.  1.
          2    1    1    2    0  502 -0.19384417200E+02 -0.90266661285E+01  0.74617786009E+01  0.22647615282E+02  0.25500000000E-02 0.  1.
         -2    1    1    2  502    0  0.19384417200E+02  0.90266661285E+01  0.98685316131E+01  0.23550461870E+02  0.25500000000E-02 0.  1.
<mgrwt>
<rscale>  0 0.42824323E+02</rscale>
<asrwt>0</asrwt>
<pdfrwt beam="2">  1        2 0.22205975E-02 0.42824323E+02</pdfrwt>
<pdfrwt beam="1">  1       -2 0.48867990E-02 0.42824323E+02</pdfrwt>
<totfact> 0.63232840E+05</totfact>
</mgrwt>
</event>
<event>
 4    1  0.4837985E-002  0.4133385E+02  0.7818608E-02  0.1498619E+00
          2   -1    0    0    0  501  0.00000000000E+00  0.00000000000E+00  0.19038116498E+04  0.19038116498E+04  0.25500000000E-02 0.  1.
         -2   -1    0    0  501    0 -0.00000000000E+00 -0.00000000000E+00 -0.22434358253E+00  0.22435807434E+00  0.25500000000E-02 0.  1.
          2    1    1    2    0  502  0.17496455988E+02 -0.10400304606E+02  0.11167893680E+04  0.11169748363E+04  0.25500000000E-02 0.  1.
         -2    1    1    2  502    0 -0.17496455988E+02  0.10400304606E+02  0.78679793814E+03  0.78706117156E+03  0.25500000000E-02 0.  1.
<mgrwt>
<rscale>  0 0.41333847E+02</rscale>
<asrwt>0</asrwt>
<pdfrwt beam="1">  1        2 0.29288972E+00 0.41333847E+02</pdfrwt>
<pdfrwt beam="2">  1       -2 0.34516028E-04 0.41333847E+02</pdfrwt>
<totfact> 0.15349496E+06</totfact>
</mgrwt>
</event>
<event>
 4    1  0.4837985E-002  0.6533475E+02  0.7818608E-02  0.1376717E+00
         -2   -1    0    0  501    0 -0.00000000000E+00  0.00000000000E+00  0.82697563807E+02  0.82697563846E+02  0.25500000000E-02 0.  1.
          2   -1    0    0    0  501  0.00000000000E+00 -0.00000000000E+00 -0.12904339658E+02  0.12904339910E+02  0.25500000000E-02 0.  1.
          2    1    1    2    0  502 -0.23669052478E+02  0.22478989491E+02  0.33029334182E+02  0.46437764124E+02  0.25500000000E-02 0.  1.
         -2    1    1    2  502    0  0.23669052478E+02 -0.22478989491E+02  0.36763889967E+02  0.49164139632E+02  0.25500000000E-02 0.  1.
<mgrwt>
<rscale>  0 0.65334752E+02</rscale>
<asrwt>0</asrwt>
<pdfrwt beam="2">  1        2 0.19852831E-02 0.65334752E+02</pdfrwt>
<pdfrwt beam="1">  1       -2 0.12722702E-01 0.65334752E+02</pdfrwt>
<totfact> 0.19179915E+05</totfact>
</mgrwt>
</event>
<event>
 4    1  0.4837985E-002  0.4986369E+02  0.7818608E-02  0.1446078E+00
          2   -1    0    0    0  501  0.00000000000E+00  0.00000000000E+00  0.27422070199E+03  0.27422070201E+03  0.25500000000E-02 0.  1.
         -2   -1    0    0  501    0 -0.00000000000E+00 -0.00000000000E+00 -0.22667750199E+01  0.22667764542E+01  0.25500000000E-02 0.  1.
          2    1    1    2    0  502  0.24146710988E+02  0.23702041154E+01  0.10416503048E+03  0.10695342491E+03  0.25500000000E-02 0.  1.
         -2    1    1    2  502    0 -0.24146710988E+02 -0.23702041154E+01  0.16778889649E+03  0.16953405355E+03  0.25500000000E-02 0.  1.
<mgrwt>
<rscale>  0 0.49863688E+02</rscale>
<asrwt>0</asrwt>
<pdfrwt beam="1">  1        2 0.42187797E-01 0.49863688E+02</pdfrwt>
<pdfrwt beam="2">  1       -2 0.34873476E-03 0.49863688E+02</pdfrwt>
<totfact> 0.82543627E+05</totfact>
</mgrwt>
</event>
<event>
 4    1  0.4837985E-002  0.7224576E+02  0.7818608E-02  0.1352619E+00
          2   -1    0    0    0  501  0.00000000000E+00  0.00000000000E+00  0.81858347847E+03  0.81858347847E+03  0.25500000000E-02 0.  1.
         -2   -1    0    0  501    0 -0.00000000000E+00 -0.00000000000E+00 -0.15940482117E+01  0.15940502513E+01  0.25500000000E-02 0.  1.
          2    1    1    2    0  502 -0.13411817505E+02  0.15897782948E+02  0.73209028923E+02  0.76106361585E+02  0.25500000000E-02 0. -1.
         -2    1    1    2  502    0  0.13411817505E+02 -0.15897782948E+02  0.74378040134E+03  0.74407116714E+03  0.25500000000E-02 0. -1.
<mgrwt>
<rscale>  0 0.72245757E+02</rscale>
<asrwt>0</asrwt>
<pdfrwt beam="1">  1        2 0.12593596E+00 0.72245757E+02</pdfrwt>
<pdfrwt beam="2">  1       -2 0.24523827E-03 0.72245757E+02</pdfrwt>
<totfact> 0.44852446E+05</totfact>
</mgrwt>
</event>
<event>
 4    1  0.4837985E-002  0.4903819E+02  0.7818608E-02  0.1450599E+00
          2   -1    0    0    0  501  0.00000000000E+00  0.00000000000E+00  0.12912910708E+03  0.12912910711E+03  0.25500000000E-02 0. -1.
         -2   -1    0    0  501    0 -0.00000000000E+00 -0.00000000000E+00 -0.46556962901E+01  0.46556969885E+01  0.25500000000E-02 0. -1.
          2    1    1    2    0  502  0.21555567107E+02 -0.47529523398E+01  0.33113772920E+02  0.39796419346E+02  0.25500000000E-02 0. -1.
         -2    1    1    2  502    0 -0.21555567107E+02  0.47529523398E+01  0.91359637875E+02  0.93988384753E+02  0.25500000000E-02 0. -1.
<mgrwt>
<rscale>  0 0.49038187E+02</rscale>
<asrwt>0</asrwt>
<pdfrwt beam="1">  1        2 0.19866012E-01 0.49038187E+02</pdfrwt>
<pdfrwt beam="2">  1       -2 0.71626118E-03 0.49038187E+02</pdfrwt>
<totfact> 0.67447350E+05</totfact>
</mgrwt>
</event>
<event>
 4    1  0.4837985E-002  0.4356184E+02  0.7818608E-02  0.1483525E+00
          2   -1    0    0    0  501  0.00000000000E+00  0.00000000000E+00  0.11634560334E+02  0.11634560614E+02  0.25500000000E-02 0. -1.
         -2   -1    0    0  501    0 -0.00000000000E+00 -0.00000000000E+00 -0.40775796008E+02  0.40775796088E+02  0.25500000000E-02 0. -1.
          2    1    1    2    0  502 -0.10917971130E+02  0.18820342952E+02 -0.13366855334E+02  0.25535861655E+02  0.25500000000E-02 0.  1.
         -2    1    1    2  502    0  0.10917971130E+02 -0.18820342952E+02 -0.15774380340E+02  0.26874495047E+02  0.25500000000E-02 0.  1.
<mgrwt>
<rscale>  0 0.43561840E+02</rscale>
<asrwt>0</asrwt>
<pdfrwt beam="1">  1        2 0.17899324E-02 0.43561840E+02</pdfrwt>
<pdfrwt beam="2">  1       -2 0.62731993E-02 0.43561840E+02</pdfrwt>
<totfact> 0.58556410E+05</totfact>
</mgrwt>
</event>
<event>
 4    1  0.4837985E-002  0.4662334E+02  0.7818608E-02  0.1464455E+00
          2   -1    0    0    0  501  0.00000000000E+00  0.00000000000E+00  0.46371890733E+03  0.46371890734E+03  0.25500000000E-02 0.  1.
         -2   -1    0    0  501    0 -0.00000000000E+00 -0.00000000000E+00 -0.11719026020E+01  0.11719053763E+01  0.25500000000E-02 0.  1.
          2    1    1    2    0  502  0.96061310527E+01  0.21200107801E+02  0.24431905793E+03  0.24542519104E+03  0.25500000000E-02 0.  1.
         -2    1    1    2  502    0 -0.96061310527E+01 -0.21200107801E+02  0.21822794680E+03  0.21946562167E+03  0.25500000000E-02 0.  1.
<mgrwt>
<rscale>  0 0.46623344E+02</rscale>
<asrwt>0</asrwt>
<pdfrwt beam="1">  1        2 0.71341483E-01 0.46623344E+02</pdfrwt>
<pdfrwt beam="2">  1       -2 0.18029264E-03 0.46623344E+02</pdfrwt>
<totfact> 0.11654153E+06</totfact>
</mgrwt>
</event>
<event>
 4    1  0.4837985E-002  0.7121821E+02  0.7818608E-02  0.1355999E+00
          2   -1    0    0    0  501  0.00000000000E+00  0.00000000000E+00  0.23164741852E+04  0.23164741852E+04  0.25500000000E-02 0.  1.
         -2   -1    0    0  501    0 -0.00000000000E+00 -0.00000000000E+00 -0.54738431854E+00  0.54739025812E+00  0.25500000000E-02 0.  1.
          2    1    1    2    0  502  0.33505819889E+02 -0.64677730692E+01  0.82691944620E+03  0.82762324917E+03  0.25500000000E-02 0.  1.
         -2    1    1    2  502    0 -0.33505819889E+02  0.64677730692E+01  0.14890073547E+04  0.14893983263E+04  0.25500000000E-02 0.  1.
<mgrwt>
<rscale>  0 0.71218215E+02</rscale>
<asrwt>0</asrwt>
<pdfrwt beam="1">  1        2 0.35637922E+00 0.71218215E+02</pdfrwt>
<pdfrwt beam="2">  1       -2 0.84213765E-04 0.71218215E+02</pdfrwt>
<totfact> 0.31817372E+05</totfact>
</mgrwt>
</event>
<event>
 4    1  0.4837985E-002  0.7459133E+02  0.7818608E-02  0.1345141E+00
          2   -1    0    0    0  501  0.00000000000E+00  0.00000000000E+00  0.31402355610E+03  0.31402355611E+03  0.25500000000E-02 0. -1.
         -2   -1    0    0  501    0 -0.00000000000E+00 -0.00000000000E+00 -0.44294969332E+01  0.44294976672E+01  0.25500000000E-02 0. -1.
          2    1    1    2    0  502 -0.26089866349E+02 -0.19591795434E+02  0.77659918002E+02  0.84235280287E+02  0.25500000000E-02 0.  1.
         -2    1    1    2  502    0  0.26089866349E+02  0.19591795434E+02  0.23193414117E+03  0.23421777349E+03  0.25500000000E-02 0.  1.
<mgrwt>
<rscale>  0 0.74591326E+02</rscale>
<asrwt>0</asrwt>
<pdfrwt beam="1">  1        2 0.48311302E-01 0.74591326E+02</pdfrwt>
<pdfrwt beam="2">  1       -2 0.68146133E-03 0.74591326E+02</pdfrwt>
<totfact> 0.31022453E+05</totfact>
</mgrwt>
</event>
<event>
 4    1  0.4837985E-002  0.7080818E+02  0.7818608E-02  0.1357366E+00
         -2   -1    0    0  501    0 -0.00000000000E+00  0.00000000000E+00  0.75147654286E+00  0.75148086933E+00  0.25500000000E-02 0.  1.
          2   -1    0    0    0  501  0.00000000000E+00 -0.00000000000E+00 -0.16679773559E+04  0.16679773559E+04  0.25500000000E-02 0.  1.
          2    1    1    2    0  502  0.20440875064E+01  0.34027220995E+02 -0.10589442501E+04  0.10594927818E+04  0.25500000000E-02 0.  1.
         -2    1    1    2  502    0 -0.20440875064E+01 -0.34027220995E+02 -0.60828162928E+03  0.60923605490E+03  0.25500000000E-02 0.  1.
<mgrwt>
<rscale>  0 0.70808177E+02</rscale>
<asrwt>0</asrwt>
<pdfrwt beam="2">  1        2 0.25660894E+00 0.70808177E+02</pdfrwt>
<pdfrwt beam="1">  1       -2 0.11561344E-03 0.70808177E+02</pdfrwt>
<totfact> 0.43412770E+05</totfact>
</mgrwt>
</event>
<event>
 4    1  0.4837985E-002  0.5284730E+02  0.7818608E-02  0.1430562E+00
          2   -1    0    0    0  501  0.00000000000E+00  0.00000000000E+00  0.77648121371E+03  0.77648121371E+03  0.25500000000E-02 0. -1.
         -2   -1    0    0  501    0 -0.00000000000E+00 -0.00000000000E+00 -0.89919483747E+00  0.89919845320E+00  0.25500000000E-02 0. -1.
          2    1    1    2    0  502 -0.18943529831E+02 -0.13647672578E+02  0.56979816494E+03  0.57027630590E+03  0.25500000000E-02 0. -1.
         -2    1    1    2  502    0  0.18943529831E+02  0.13647672578E+02  0.20578385393E+03  0.20710410627E+03  0.25500000000E-02 0. -1.
<mgrwt>
<rscale>  0 0.52847301E+02</rscale>
<asrwt>0</asrwt>
<pdfrwt beam="1">  1        2 0.11945863E+00 0.52847301E+02</pdfrwt>
<pdfrwt beam="2">  1       -2 0.13833796E-03 0.52847301E+02</pdfrwt>
<totfact> 0.97981793E+05</totfact>
</mgrwt>
</event>
<event>
 4    1  0.4837985E-002  0.5134541E+02  0.7818608E-02  0.1438217E+00
          2   -1    0    0    0  501  0.00000000000E+00  0.00000000000E+00  0.17111165816E+03  0.17111165818E+03  0.25500000000E-02 0. -1.
         -2   -1    0    0  501    0 -0.00000000000E+00 -0.00000000000E+00 -0.38517992396E+01  0.38518000837E+01  0.25500000000E-02 0. -1.
          2    1    1    2    0  502  0.56331743249E+01  0.23035811006E+02  0.50119983349E+02  0.55447217956E+02  0.25500000000E-02 0. -1.
         -2    1    1    2  502    0 -0.56331743249E+01 -0.23035811006E+02  0.11713987557E+03  0.11951624031E+03  0.25500000000E-02 0. -1.
<mgrwt>
<rscale>  0 0.51345412E+02</rscale>
<asrwt>0</asrwt>
<pdfrwt beam="1">  1        2 0.26324872E-01 0.51345412E+02</pdfrwt>
<pdfrwt beam="2">  1       -2 0.59258453E-03 0.51345412E+02</pdfrwt>
<totfact> 0.65456281E+05</totfact>
</mgrwt>
</event>
<event>
 4    1  0.4837985E-002  0.5351614E+02  0.7818608E-02  0.1427249E+00
          2   -1    0    0    0  501  0.00000000000E+00  0.00000000000E+00  0.21728622252E+03  0.21728622253E+03  0.25500000000E-02 0. -1.
         -2   -1    0    0  501    0 -0.00000000000E+00 -0.00000000000E+00 -0.32951658493E+01  0.32951668360E+01  0.25500000000E-02 0. -1.
          2    1    1    2    0  502 -0.57758442917E+01 -0.25465660137E+02  0.82914344837E+02  0.86928987166E+02  0.25500000000E-02 0.  1.
         -2    1    1    2  502    0  0.57758442917E+01  0.25465660137E+02  0.13107671183E+03  0.13365240220E+03  0.25500000000E-02 0.  1.
<mgrwt>
<rscale>  0 0.53516138E+02</rscale>
<asrwt>0</asrwt>
<pdfrwt beam="1">  1        2 0.33428657E-01 0.53516138E+02</pdfrwt>
<pdfrwt beam="2">  1       -2 0.50694856E-03 0.53516138E+02</pdfrwt>
<totfact> 0.63814716E+05</totfact>
</mgrwt>
</event>
<event>
 4    1  0.4837985E-002  0.1111108E+03  0.7818608E-02  0.1258526E+00
          2   -1    0    0    0  501  0.00000000000E+00  0.00000000000E+00  0.97644437015E+02  0.97644437048E+02  0.25500000000E-02 0. -1.
         -2   -1    0    0  501    0 -0.00000000000E+00 -0.00000000000E+00 -0.31608610480E+02  0.31608610583E+02  0.25500000000E-02 0. -1.
          2    1    1    2    0  502  0.54098556845E+02 -0.11472116430E+00  0.18315507225E+02  0.57115014007E+02  0.25500000000E-02 0.  1.
         -2    1    1    2  502    0 -0.54098556845E+02  0.11472116430E+00  0.47720319310E+02  0.72138033624E+02  0.25500000000E-02 0.  1.
<mgrwt>
<rscale>  0 0.11111085E+03</rscale>
<asrwt>0</asrwt>
<pdfrwt beam="1">  1        2 0.15022221E-01 0.11111085E+03</pdfrwt>
<pdfrwt beam="2">  1       -2 0.48628632E-02 0.11111085E+03</pdfrwt>
<totfact> 0.70020941E+04</totfact>
</mgrwt>
</event>
<event>
 4    1  0.4837985E-002  0.5640189E+02  0.7818608E-02  0.1413583E+00
          2   -1    0    0    0  501  0.00000000000E+00  0.00000000000E+00  0.15406873046E+02  0.15406873257E+02  0.25500000000E-02 0.  1.
         -2   -1    0    0  501    0 -0.00000000000E+00 -0.00000000000E+00 -0.51619379337E+02  0.51619379400E+02  0.25500000000E-02 0.  1.
          2    1    1    2    0  502  0.27879681748E+02  0.13127524494E+01 -0.22903092865E+02  0.36104731582E+02  0.25500000000E-02 0.  1.
         -2    1    1    2  502    0 -0.27879681748E+02 -0.13127524494E+01 -0.13309413427E+02  0.30921521075E+02  0.25500000000E-02 0.  1.
<mgrwt>
<rscale>  0 0.56401888E+02</rscale>
<asrwt>0</asrwt>
<pdfrwt beam="1">  1        2 0.23702882E-02 0.56401888E+02</pdfrwt>
<pdfrwt beam="2">  1       -2 0.79414429E-02 0.56401888E+02</pdfrwt>
<totfact> 0.30332767E+05</totfact>
</mgrwt>
</event>
<event>
 4    1  0.4837985E-002  0.4641907E+02  0.7818608E-02  0.1465672E+00
          2   -1    0    0    0  501  0.00000000000E+00  0.00000000000E+00  0.97700344789E+01  0.97700348117E+01  0.25500000000E-02 0. -1.
         -2   -1    0    0  501    0 -0.00000000000E+00 -0.00000000000E+00 -0.55136187273E+02  0.55136187332E+02  0.25500000000E-02 0. -1.
          2    1    1    2    0  502 -0.11031584362E+02  0.20160588795E+02 -0.27222009932E+02  0.35625595088E+02  0.25500000000E-02 0.  1.
         -2    1    1    2  502    0  0.11031584362E+02 -0.20160588795E+02 -0.18144142862E+02  0.29280627056E+02  0.25500000000E-02 0.  1.
<mgrwt>
<rscale>  0 0.46419068E+02</rscale>
<asrwt>0</asrwt>
<pdfrwt beam="1">  1        2 0.15030823E-02 0.46419068E+02</pdfrwt>
<pdfrwt beam="2">  1       -2 0.84824902E-02 0.46419068E+02</pdfrwt>
<totfact> 0.47895885E+05</totfact>
</mgrwt>
</event>
<event>
 4    1  0.4837985E-002  0.1430568E+03  0.7818608E-02  0.1209274E+00
          2   -1    0    0    0  501  0.00000000000E+00  0.00000000000E+00  0.28476332200E+03  0.28476332202E+03  0.25500000000E-02 0.  1.
         -2   -1    0    0  501    0 -0.00000000000E+00 -0.00000000000E+00 -0.17966884940E+02  0.17966885121E+02  0.25500000000E-02 0.  1.
          2    1    1    2    0  502 -0.38159513586E+01  0.55287176013E+02  0.37700380446E+02  0.67026502284E+02  0.25500000000E-02 0.  1.
         -2    1    1    2  502    0  0.38159513586E+01 -0.55287176013E+02  0.22909605662E+03  0.23570370485E+03  0.25500000000E-02 0.  1.
<mgrwt>
<rscale>  0 0.14305677E+03</rscale>
<asrwt>0</asrwt>
<pdfrwt beam="1">  1        2 0.43809740E-01 0.14305677E+03</pdfrwt>
<pdfrwt beam="2">  1       -2 0.27641363E-02 0.14305677E+03</pdfrwt>
<totfact> 0.51205923E+04</totfact>
</mgrwt>
</event>
<event>
 4    1  0.4837985E-002  0.4760456E+02  0.7818608E-02  0.1458707E+00
          2   -1    0    0    0  501  0.00000000000E+00  0.00000000000E+00  0.26342475983E+04  0.26342475983E+04  0.25500000000E-02 0. -1.
         -2   -1    0    0  501    0 -0.00000000000E+00 -0.00000000000E+00 -0.21506279615E+00  0.21507791329E+00  0.25500000000E-02 0. -1.
          2    1    1    2    0  502 -0.83414272486E+01 -0.22285776124E+02  0.12860385996E+04  0.12862587278E+04  0.25500000000E-02 0.  1.
         -2    1    1    2  502    0  0.83414272486E+01  0.22285776124E+02  0.13479939359E+04  0.13482039484E+04  0.25500000000E-02 0.  1.
<mgrwt>
<rscale>  0 0.47604561E+02</rscale>
<asrwt>0</asrwt>
<pdfrwt beam="1">  1        2 0.40525965E+00 0.47604561E+02</pdfrwt>
<pdfrwt beam="2">  1       -2 0.33088499E-04 0.47604561E+02</pdfrwt>
<totfact> 0.72622085E+05</totfact>
</mgrwt>
</event>
<event>
 4    1  0.4837985E-002  0.4609429E+02  0.7818608E-02  0.1467624E+00
          2   -1    0    0    0  501  0.00000000000E+00  0.00000000000E+00  0.10078952410E+04  0.10078952410E+04  0.25500000000E-02 0. -1.
         -2   -1    0    0  501    0 -0.00000000000E+00 -0.00000000000E+00 -0.52700685234E+00  0.52701302158E+00  0.25500000000E-02 0. -1.
          2    1    1    2    0  502  0.76216312356E+01  0.21511736757E+02  0.57398755981E+03  0.57444108741E+03  0.25500000000E-02 0. -1.
         -2    1    1    2  502    0 -0.76216312356E+01 -0.21511736757E+02  0.43338067437E+03  0.43398116664E+03  0.25500000000E-02 0. -1.
<mgrwt>
<rscale>  0 0.46094286E+02</rscale>
<asrwt>0</asrwt>
<pdfrwt beam="1">  1        2 0.15506008E+00 0.46094286E+02</pdfrwt>
<pdfrwt beam="2">  1       -2 0.81078832E-04 0.46094286E+02</pdfrwt>
<totfact> 0.14142648E+06</totfact>
</mgrwt>
</event>
<event>
 4    1  0.4837985E-002  0.7115464E+02  0.7818608E-02  0.1356210E+00
          2   -1    0    0    0  501  0.00000000000E+00  0.00000000000E+00  0.10008678532E+03  0.10008678535E+03  0.25500000000E-02 0. -1.
         -2   -1    0    0  501    0 -0.00000000000E+00 -0.00000000000E+00 -0.12646481398E+02  0.12646481655E+02  0.25500000000E-02 0. -1.
          2    1    1    2    0  502  0.96079415067E+01  0.30407048749E+02  0.18727467019E+02  0.36981335577E+02  0.25500000000E-02 0.  1.
         -2    1    1    2  502    0 -0.96079415067E+01 -0.30407048749E+02  0.68712836899E+02  0.75751931426E+02  0.25500000000E-02 0.  1.
<mgrwt>
<rscale>  0 0.71154640E+02</rscale>
<asrwt>0</asrwt>
<pdfrwt beam="1">  1        2 0.15397967E-01 0.71154640E+02</pdfrwt>
<pdfrwt beam="2">  1       -2 0.19456125E-02 0.71154640E+02</pdfrwt>
<totfact> 0.23984306E+05</totfact>
</mgrwt>
</event>
