<event>
 4    1  0.4029665E-002  0.8877315E+02  0.7818608E-02  0.1305850E+00
          1   -1    0    0    0  501  0.00000000000E+00  0.00000000000E+00  0.82247825078E+02  0.82247825232E+02  0.50400000000E-02 0.  1.
         -1   -1    0    0  501    0 -0.00000000000E+00 -0.00000000000E+00 -0.23954041695E+02  0.23954042225E+02  0.50400000000E-02 0.  1.
          2    1    1    2    0  502  0.12249472454E+02  0.21986278945E+02 -0.14592331052E+02  0.29092648028E+02  0.25500000000E-02 0.  1.
         -2    1    1    2  502    0 -0.12249472454E+02 -0.21986278945E+02  0.72886114435E+02  0.77109219430E+02  0.25500000000E-02 0.  1.
<mgrwt>
<rscale>  0 0.88773146E+02</rscale>
<asrwt>0</asrwt>
<pdfrwt beam="1">  1        1 0.12653511E-01 0.88773146E+02</pdfrwt>
<pdfrwt beam="2">  1       -1 0.36852373E-02 0.88773146E+02</pdfrwt>
<totfact> 0.10885779E+05</totfact>
</mgrwt>
</event>
<event>
 4    1  0.4029665E-002  0.4216817E+02  0.7818608E-02  0.1492836E+00
         -1   -1    0    0  501    0 -0.00000000000E+00  0.00000000000E+00  0.15195554524E+01  0.15195638106E+01  0.50400000000E-02 0.  1.
          1   -1    0    0    0  501  0.00000000000E+00 -0.00000000000E+00 -0.29254443444E+03  0.29254443448E+03  0.50400000000E-02 0.  1.
          2    1    1    2    0  502  0.20935599385E+02  0.16137408740E+01 -0.15880851545E+03  0.16019066161E+03  0.25500000000E-02 0. -1.
         -2    1    1    2  502    0 -0.20935599385E+02 -0.16137408740E+01 -0.13221636354E+03  0.13387333669E+03  0.25500000000E-02 0. -1.
<mgrwt>
<rscale>  0 0.42168174E+02</rscale>
<asrwt>0</asrwt>
<pdfrwt beam="2">  1        1 0.45006792E-01 0.42168174E+02</pdfrwt>
<pdfrwt beam="1">  1       -1 0.23377864E-03 0.42168174E+02</pdfrwt>
<totfact> 0.91509790E+05</totfact>
</mgrwt>
</event>
<event>
 4    1  0.4029665E-002  0.4857406E+02  0.7818608E-02  0.1453188E+00
         -1   -1    0    0  501    0 -0.00000000000E+00  0.00000000000E+00  0.30790488277E+02  0.30790488689E+02  0.50400000000E-02 0. -1.
          1   -1    0    0    0  501  0.00000000000E+00 -0.00000000000E+00 -0.19157208373E+02  0.19157209036E+02  0.50400000000E-02 0. -1.
          2    1    1    2    0  502 -0.12681942863E+02  0.19859243990E+02 -0.23525065517E+00  0.23564307671E+02  0.25500000000E-02 0. -1.
         -2    1    1    2  502    0  0.12681942863E+02 -0.19859243990E+02  0.11868530559E+02  0.26383390054E+02  0.25500000000E-02 0. -1.
<mgrwt>
<rscale>  0 0.48574060E+02</rscale>
<asrwt>0</asrwt>
<pdfrwt beam="2">  1        1 0.29472630E-02 0.48574060E+02</pdfrwt>
<pdfrwt beam="1">  1       -1 0.47369982E-02 0.48574060E+02</pdfrwt>
<totfact> 0.46040638E+05</totfact>
</mgrwt>
</event>
<event>
 4    1  0.4029665E-002  0.4322353E+02  0.7818608E-02  0.1485747E+00
         -1   -1    0    0  501    0 -0.00000000000E+00  0.00000000000E+00  0.95267125288E+02  0.95267125421E+02  0.50400000000E-02 0.  1.
          1   -1    0    0    0  501  0.00000000000E+00 -0.00000000000E+00 -0.49027214851E+01  0.49027240756E+01  0.50400000000E-02 0.  1.
          2    1    1    2    0  502 -0.13346160000E+02  0.16604801715E+02  0.53611248288E+02  0.57688867004E+02  0.25500000000E-02 0.  1.
         -2    1    1    2  502    0  0.13346160000E+02 -0.16604801715E+02  0.36753155515E+02  0.42480982493E+02  0.25500000000E-02 0.  1.
<mgrwt>
<rscale>  0 0.43223527E+02</rscale>
<asrwt>0</asrwt>
<pdfrwt beam="2">  1        1 0.75426502E-03 0.43223527E+02</pdfrwt>
<pdfrwt beam="1">  1       -1 0.14656482E-01 0.43223527E+02</pdfrwt>
<totfact> 0.53644380E+05</totfact>
</mgrwt>
</event>
<event>
 4    1  0.4029665E-002  0.4874346E+02  0.7818608E-02  0.1452239E+00
          1   -1    0    0    0  501  0.00000000000E+00  0.00000000000E+00  0.47760541807E+01  0.47760568400E+01  0.50400000000E-02 0. -1.
         -1   -1    0    0  501    0 -0.00000000000E+00 -0.00000000000E+00 -0.12436648980E+03  0.12436648990E+03  0.50400000000E-02 0. -1.
          2    1    1    2    0  502 -0.50311153780E+01 -0.23426771891E+02 -0.47989472416E+02  0.53638747492E+02  0.25500000000E-02 0.  1.
         -2    1    1    2  502    0  0.50311153780E+01  0.23426771891E+02 -0.71600963205E+02  0.75503799253E+02  0.25500000000E-02 0.  1.
<mgrwt>
<rscale>  0 0.48743462E+02</rscale>
<asrwt>0</asrwt>
<pdfrwt beam="1">  1        1 0.73477787E-03 0.48743462E+02</pdfrwt>
<pdfrwt beam="2">  1       -1 0.19133304E-01 0.48743462E+02</pdfrwt>
<totfact> 0.38118175E+05</totfact>
</mgrwt>
</event>
<event>
 4    1  0.4029665E-002  0.6469947E+02  0.7818608E-02  0.1379106E+00
          1   -1    0    0    0  501  0.00000000000E+00  0.00000000000E+00  0.29094802036E+03  0.29094802040E+03  0.50400000000E-02 0.  1.
         -1   -1    0    0  501    0 -0.00000000000E+00 -0.00000000000E+00 -0.35968793720E+01  0.35968829031E+01  0.50400000000E-02 0.  1.
          2    1    1    2    0  502  0.21410287779E+02 -0.66966470254E+01  0.24978515442E+03  0.25079048801E+03  0.25500000000E-02 0.  1.
         -2    1    1    2  502    0 -0.21410287779E+02  0.66966470254E+01  0.37565986571E+02  0.43754415294E+02  0.25500000000E-02 0.  1.
<mgrwt>
<rscale>  0 0.64699473E+02</rscale>
<asrwt>0</asrwt>
<pdfrwt beam="1">  1        1 0.44761225E-01 0.64699473E+02</pdfrwt>
<pdfrwt beam="2">  1       -1 0.55336645E-03 0.64699473E+02</pdfrwt>
<totfact> 0.31260668E+05</totfact>
</mgrwt>
</event>
<event>
 4    1  0.4029665E-002  0.6537653E+02  0.7818608E-02  0.1376561E+00
          1   -1    0    0    0  501  0.00000000000E+00  0.00000000000E+00  0.22456343866E+01  0.22456400424E+01  0.50400000000E-02 0. -1.
         -1   -1    0    0  501    0 -0.00000000000E+00 -0.00000000000E+00 -0.47582157818E+03  0.47582157820E+03  0.50400000000E-02 0. -1.
          2    1    1    2    0  502  0.84384090045E+01 -0.31082253239E+02 -0.19593627822E+03  0.19856570283E+03  0.25500000000E-02 0.  1.
         -2    1    1    2  502    0 -0.84384090045E+01  0.31082253239E+02 -0.27763966557E+03  0.27950151541E+03  0.25500000000E-02 0.  1.
<mgrwt>
<rscale>  0 0.65376530E+02</rscale>
<asrwt>0</asrwt>
<pdfrwt beam="1">  1        1 0.34548303E-03 0.65376530E+02</pdfrwt>
<pdfrwt beam="2">  1       -1 0.73203240E-01 0.65376530E+02</pdfrwt>
<totfact> 0.11456755E+05</totfact>
</mgrwt>
</event>
<event>
 4    1  0.4029665E-002  0.4345973E+02  0.7818608E-02  0.1484193E+00
          1   -1    0    0    0  501  0.00000000000E+00  0.00000000000E+00  0.20964204722E+03  0.20964204728E+03  0.50400000000E-02 0.  1.
         -1   -1    0    0  501    0 -0.00000000000E+00 -0.00000000000E+00 -0.22523460182E+01  0.22523516571E+01  0.50400000000E-02 0.  1.
          2    1    1    2    0  502 -0.21168530868E+02  0.15128927067E+01  0.12645503927E+03  0.12822352556E+03  0.25500000000E-02 0.  1.
         -2    1    1    2  502    0  0.21168530868E+02 -0.15128927067E+01  0.80934661933E+02  0.83670873380E+02  0.25500000000E-02 0.  1.
<mgrwt>
<rscale>  0 0.43459730E+02</rscale>
<asrwt>0</asrwt>
<pdfrwt beam="1">  1        1 0.32252623E-01 0.43459730E+02</pdfrwt>
<pdfrwt beam="2">  1       -1 0.34651521E-03 0.43459730E+02</pdfrwt>
<totfact> 0.80244079E+05</totfact>
</mgrwt>
</event>
<event>
 4    1  0.4029665E-002  0.1385221E+03  0.7818608E-02  0.1215331E+00
         -1   -1    0    0  501    0 -0.00000000000E+00  0.00000000000E+00  0.30676646519E+01  0.30676687921E+01  0.50400000000E-02 0.  1.
          1   -1    0    0    0  501  0.00000000000E+00 -0.00000000000E+00 -0.15637602119E+04  0.15637602119E+04  0.50400000000E-02 0.  1.
          2    1    1    2    0  502  0.45248472268E+02 -0.51821006006E+02 -0.68967846852E+03  0.69310116927E+03  0.25500000000E-02 0. -1.
         -2    1    1    2  502    0 -0.45248472268E+02  0.51821006006E+02 -0.87101407875E+03  0.87372671145E+03  0.25500000000E-02 0. -1.
<mgrwt>
<rscale>  0 0.13852213E+03</rscale>
<asrwt>0</asrwt>
<pdfrwt beam="2">  1        1 0.24057786E+00 0.13852213E+03</pdfrwt>
<pdfrwt beam="1">  1       -1 0.47194998E-03 0.13852213E+03</pdfrwt>
<totfact> 0.34476281E+04</totfact>
</mgrwt>
</event>
<event>
 4    1  0.4029665E-002  0.9235390E+02  0.7818608E-02  0.1297249E+00
         -1   -1    0    0  501    0 -0.00000000000E+00  0.00000000000E+00  0.64106324272E+02  0.64106324470E+02  0.50400000000E-02 0. -1.
          1   -1    0    0    0  501  0.00000000000E+00 -0.00000000000E+00 -0.33262093241E+02  0.33262093623E+02  0.50400000000E-02 0. -1.
          2    1    1    2    0  502 -0.15707147229E+02 -0.41949657112E+02  0.35960089692E+01  0.44937951588E+02  0.25500000000E-02 0. -1.
         -2    1    1    2  502    0  0.15707147229E+02  0.41949657112E+02  0.27248222061E+02  0.52430466505E+02  0.25500000000E-02 0. -1.
<mgrwt>
<rscale>  0 0.92353897E+02</rscale>
<asrwt>0</asrwt>
<pdfrwt beam="2">  1        1 0.51172452E-02 0.92353897E+02</pdfrwt>
<pdfrwt beam="1">  1       -1 0.98625115E-02 0.92353897E+02</pdfrwt>
<totfact> 0.84946298E+04</totfact>
</mgrwt>
</event>
<event>
 4    1  0.4029665E-002  0.5230360E+02  0.7818608E-02  0.1433298E+00
         -1   -1    0    0  501    0 -0.00000000000E+00  0.00000000000E+00  0.10631884470E+01  0.10632003928E+01  0.50400000000E-02 0. -1.
          1   -1    0    0    0  501  0.00000000000E+00 -0.00000000000E+00 -0.64326585489E+03  0.64326585491E+03  0.50400000000E-02 0. -1.
          2    1    1    2    0  502 -0.21084501456E+02 -0.42060535452E+01 -0.50451393724E+03  0.50497184076E+03  0.25500000000E-02 0.  1.
         -2    1    1    2  502    0  0.21084501456E+02  0.42060535452E+01 -0.13768872920E+03  0.13935721454E+03  0.25500000000E-02 0.  1.
<mgrwt>
<rscale>  0 0.52303601E+02</rscale>
<asrwt>0</asrwt>
<pdfrwt beam="2">  1        1 0.98963667E-01 0.52303601E+02</pdfrwt>
<pdfrwt beam="1">  1       -1 0.16356889E-03 0.52303601E+02</pdfrwt>
<totfact> 0.59292711E+05</totfact>
</mgrwt>
</event>
<event>
 4    1  0.4029665E-002  0.7103319E+02  0.7818608E-02  0.1356614E+00
         -1   -1    0    0  501    0 -0.00000000000E+00  0.00000000000E+00  0.38790594332E+01  0.38790627074E+01  0.50400000000E-02 0.  1.
          1   -1    0    0    0  501  0.00000000000E+00 -0.00000000000E+00 -0.32518916388E+03  0.32518916392E+03  0.50400000000E-02 0.  1.
          2    1    1    2    0  502 -0.32498035177E+02  0.20159736141E+01 -0.22637302100E+03  0.22870271333E+03  0.25500000000E-02 0.  1.
         -2    1    1    2  502    0  0.32498035177E+02 -0.20159736141E+01 -0.94937083447E+02  0.10036551330E+03  0.25500000000E-02 0.  1.
<mgrwt>
<rscale>  0 0.71033193E+02</rscale>
<asrwt>0</asrwt>
<pdfrwt beam="2">  1        1 0.50029081E-01 0.71033193E+02</pdfrwt>
<pdfrwt beam="1">  1       -1 0.59677889E-03 0.71033193E+02</pdfrwt>
<totfact> 0.25061951E+05</totfact>
</mgrwt>
</event>
<event>
 4    1  0.4029665E-002  0.4075492E+02  0.7818608E-02  0.1502728E+00
         -1   -1    0    0  501    0 -0.00000000000E+00  0.00000000000E+00  0.19260973893E+03  0.19260973900E+03  0.50400000000E-02 0. -1.
          1   -1    0    0    0  501  0.00000000000E+00 -0.00000000000E+00 -0.21558634454E+01  0.21558693367E+01  0.50400000000E-02 0. -1.
          2    1    1    2    0  502 -0.14198247772E+02 -0.14360188440E+02  0.82195547862E+02  0.84639903985E+02  0.25500000000E-02 0. -1.
         -2    1    1    2  502    0  0.14198247772E+02  0.14360188440E+02  0.10825832762E+03  0.11012570435E+03  0.25500000000E-02 0. -1.
<mgrwt>
<rscale>  0 0.40754920E+02</rscale>
<asrwt>0</asrwt>
<pdfrwt beam="2">  1        1 0.33167158E-03 0.40754920E+02</pdfrwt>
<pdfrwt beam="1">  1       -1 0.29632284E-01 0.40754920E+02</pdfrwt>
<totfact> 0.53455709E+05</totfact>
</mgrwt>
</event>
<event>
 4    1  0.4029665E-002  0.5837238E+02  0.7818608E-02  0.1404792E+00
         -1   -1    0    0  501    0 -0.00000000000E+00  0.00000000000E+00  0.14470994952E+04  0.14470994952E+04  0.50400000000E-02 0. -1.
          1   -1    0    0    0  501  0.00000000000E+00 -0.00000000000E+00 -0.58863818754E+00  0.58865976372E+00  0.50400000000E-02 0. -1.
          2    1    1    2    0  502 -0.26326109756E+02  0.51270128385E+01  0.43779346985E+03  0.43861426398E+03  0.25500000000E-02 0.  1.
         -2    1    1    2  502    0  0.26326109756E+02 -0.51270128385E+01  0.10087173871E+04  0.10090738910E+04  0.25500000000E-02 0.  1.
<mgrwt>
<rscale>  0 0.58372379E+02</rscale>
<asrwt>0</asrwt>
<pdfrwt beam="2">  1        1 0.90560666E-04 0.58372379E+02</pdfrwt>
<pdfrwt beam="1">  1       -1 0.22263245E+00 0.58372379E+02</pdfrwt>
<totfact> 0.46735347E+04</totfact>
</mgrwt>
</event>
<event>
 4    1  0.4029665E-002  0.4973705E+02  0.7818608E-02  0.1446765E+00
         -1   -1    0    0  501    0 -0.00000000000E+00  0.00000000000E+00  0.74164192791E+01  0.74164209916E+01  0.50400000000E-02 0. -1.
          1   -1    0    0    0  501  0.00000000000E+00 -0.00000000000E+00 -0.83388405713E+02  0.83388405865E+02  0.50400000000E-02 0. -1.
          2    1    1    2    0  502 -0.21420001536E+02  0.53896721611E+01 -0.58848411650E+02  0.62856985229E+02  0.25500000000E-02 0. -1.
         -2    1    1    2  502    0  0.21420001536E+02 -0.53896721611E+01 -0.17123574783E+02  0.27947841628E+02  0.25500000000E-02 0. -1.
<mgrwt>
<rscale>  0 0.49737047E+02</rscale>
<asrwt>0</asrwt>
<pdfrwt beam="2">  1        1 0.12828985E-01 0.49737047E+02</pdfrwt>
<pdfrwt beam="1">  1       -1 0.11409878E-02 0.49737047E+02</pdfrwt>
<totfact> 0.49988832E+05</totfact>
</mgrwt>
</event>
<event>
 4    1  0.4029665E-002  0.5868049E+02  0.7818608E-02  0.1403454E+00
          1   -1    0    0    0  501  0.00000000000E+00  0.00000000000E+00  0.13056182818E+03  0.13056182828E+03  0.50400000000E-02 0.  1.
         -1   -1    0    0  501    0 -0.00000000000E+00 -0.00000000000E+00 -0.65934258800E+01  0.65934278063E+01  0.50400000000E-02 0.  1.
          2    1    1    2    0  502 -0.17330644568E+02 -0.18395059019E+02  0.96818975657E+02  0.10006319749E+03  0.25500000000E-02 0. -1.
         -2    1    1    2  502    0  0.17330644568E+02  0.18395059019E+02  0.27149426644E+02  0.37092058599E+02  0.25500000000E-02 0. -1.
<mgrwt>
<rscale>  0 0.58680487E+02</rscale>
<asrwt>0</asrwt>
<pdfrwt beam="1">  1        1 0.20086434E-01 0.58680487E+02</pdfrwt>
<pdfrwt beam="2">  1       -1 0.10143734E-02 0.58680487E+02</pdfrwt>
<totfact> 0.34917905E+05</totfact>
</mgrwt>
</event>
<event>
 4    1  0.4029665E-002  0.5169217E+02  0.7818608E-02  0.1436422E+00
         -1   -1    0    0  501    0 -0.00000000000E+00  0.00000000000E+00  0.28420240177E+02  0.28420240624E+02  0.50400000000E-02 0.  1.
          1   -1    0    0    0  501  0.00000000000E+00 -0.00000000000E+00 -0.23505078641E+02  0.23505079182E+02  0.50400000000E-02 0.  1.
          2    1    1    2    0  502  0.25166569268E+02  0.56051913861E+01  0.42672670936E+01  0.26133961700E+02  0.25500000000E-02 0.  1.
         -2    1    1    2  502    0 -0.25166569268E+02 -0.56051913861E+01  0.64789444214E+00  0.25791358105E+02  0.25500000000E-02 0.  1.
<mgrwt>
<rscale>  0 0.51692166E+02</rscale>
<asrwt>0</asrwt>
<pdfrwt beam="2">  1        1 0.36161660E-02 0.51692166E+02</pdfrwt>
<pdfrwt beam="1">  1       -1 0.43723447E-02 0.51692166E+02</pdfrwt>
<totfact> 0.39872877E+05</totfact>
</mgrwt>
</event>
<event>
 4    1  0.4029665E-002  0.4294076E+02  0.7818608E-02  0.1487622E+00
          1   -1    0    0    0  501  0.00000000000E+00  0.00000000000E+00  0.78017304339E+01  0.78017320618E+01  0.50400000000E-02 0.  1.
         -1   -1    0    0  501    0 -0.00000000000E+00 -0.00000000000E+00 -0.59086515678E+02  0.59086515893E+02  0.50400000000E-02 0.  1.
          2    1    1    2    0  502  0.91138022026E+01  0.18417859517E+02 -0.35332429323E+02  0.40873701914E+02  0.25500000000E-02 0.  1.
         -2    1    1    2  502    0 -0.91138022026E+01 -0.18417859517E+02 -0.15952355921E+02  0.26014546040E+02  0.25500000000E-02 0.  1.
<mgrwt>
<rscale>  0 0.42940756E+02</rscale>
<asrwt>0</asrwt>
<pdfrwt beam="1">  1        1 0.12002664E-02 0.42940756E+02</pdfrwt>
<pdfrwt beam="2">  1       -1 0.90902330E-02 0.42940756E+02</pdfrwt>
<totfact> 0.58178932E+05</totfact>
</mgrwt>
</event>
<event>
 4    1  0.4029665E-002  0.4572445E+02  0.7818608E-02  0.1469869E+00
          1   -1    0    0    0  501  0.00000000000E+00  0.00000000000E+00  0.69942785654E+01  0.69942803813E+01  0.50400000000E-02 0.  1.
         -1   -1    0    0  501    0 -0.00000000000E+00 -0.00000000000E+00 -0.74729846416E+02  0.74729846586E+02  0.50400000000E-02 0.  1.
          2    1    1    2    0  502  0.13104726868E+02  0.17755933961E+02 -0.23192486761E+02  0.32014036075E+02  0.25500000000E-02 0. -1.
         -2    1    1    2  502    0 -0.13104726868E+02 -0.17755933961E+02 -0.44543081089E+02  0.49710090893E+02  0.25500000000E-02 0. -1.
<mgrwt>
<rscale>  0 0.45724455E+02</rscale>
<asrwt>0</asrwt>
<pdfrwt beam="1">  1        1 0.10760431E-02 0.45724455E+02</pdfrwt>
<pdfrwt beam="2">  1       -1 0.11496899E-01 0.45724455E+02</pdfrwt>
<totfact> 0.48452388E+05</totfact>
</mgrwt>
</event>
<event>
 4    1  0.4029665E-002  0.4786724E+02  0.7818608E-02  0.1457197E+00
         -1   -1    0    0  501    0 -0.00000000000E+00  0.00000000000E+00  0.12022183687E+01  0.12022289331E+01  0.50400000000E-02 0. -1.
          1   -1    0    0    0  501  0.00000000000E+00 -0.00000000000E+00 -0.47646545271E+03  0.47646545274E+03  0.50400000000E-02 0. -1.
          2    1    1    2    0  502 -0.11280684686E+02  0.18819822668E+02 -0.33302306869E+03  0.33374511810E+03  0.25500000000E-02 0. -1.
         -2    1    1    2  502    0  0.11280684686E+02 -0.18819822668E+02 -0.14224016565E+03  0.14392256357E+03  0.25500000000E-02 0. -1.
<mgrwt>
<rscale>  0 0.47867235E+02</rscale>
<asrwt>0</asrwt>
<pdfrwt beam="2">  1        1 0.73302227E-01 0.47867235E+02</pdfrwt>
<pdfrwt beam="1">  1       -1 0.18495787E-03 0.47867235E+02</pdfrwt>
<totfact> 0.72195740E+05</totfact>
</mgrwt>
</event>
<event>
 4    1  0.4029665E-002  0.6706529E+02  0.7818608E-02  0.1370367E+00
          1   -1    0    0    0  501  0.00000000000E+00  0.00000000000E+00  0.34190910297E+02  0.34190910669E+02  0.50400000000E-02 0.  1.
         -1   -1    0    0  501    0 -0.00000000000E+00 -0.00000000000E+00 -0.32887051188E+02  0.32887051574E+02  0.50400000000E-02 0.  1.
          2    1    1    2    0  502 -0.22610386740E+02 -0.62173604182E+01  0.24626295968E+02  0.34004994026E+02  0.25500000000E-02 0.  1.
         -2    1    1    2  502    0  0.22610386740E+02  0.62173604182E+01 -0.23322436858E+02  0.33072968216E+02  0.25500000000E-02 0.  1.
<mgrwt>
<rscale>  0 0.67065289E+02</rscale>
<asrwt>0</asrwt>
<pdfrwt beam="1">  1        1 0.52601401E-02 0.67065289E+02</pdfrwt>
<pdfrwt beam="2">  1       -1 0.50595464E-02 0.67065289E+02</pdfrwt>
<totfact> 0.20732734E+05</totfact>
</mgrwt>
</event>
<event>
 4    1  0.4029665E-002  0.7143115E+02  0.7818608E-02  0.1355293E+00
          1   -1    0    0    0  501  0.00000000000E+00  0.00000000000E+00  0.47106527019E+02  0.47106527289E+02  0.50400000000E-02 0.  1.
         -1   -1    0    0  501    0 -0.00000000000E+00 -0.00000000000E+00 -0.27079101078E+02  0.27079101547E+02  0.50400000000E-02 0.  1.
          2    1    1    2    0  502 -0.34212206572E+02 -0.28202978425E+01  0.20251486630E+02  0.39856641550E+02  0.25500000000E-02 0.  1.
         -2    1    1    2  502    0  0.34212206572E+02  0.28202978425E+01 -0.22406068875E+00  0.34328987287E+02  0.25500000000E-02 0.  1.
<mgrwt>
<rscale>  0 0.71431154E+02</rscale>
<asrwt>0</asrwt>
<pdfrwt beam="1">  1        1 0.72471580E-02 0.71431154E+02</pdfrwt>
<pdfrwt beam="2">  1       -1 0.41660156E-02 0.71431154E+02</pdfrwt>
<totfact> 0.18171053E+05</totfact>
</mgrwt>
</event>
<event>
 4    1  0.4029665E-002  0.4253212E+02  0.7818608E-02  0.1490364E+00
         -1   -1    0    0  501    0 -0.00000000000E+00  0.00000000000E+00  0.99374277000E+00  0.99375555069E+00  0.50400000000E-02 0.  1.
          1   -1    0    0    0  501  0.00000000000E+00 -0.00000000000E+00 -0.45508999397E+03  0.45508999399E+03  0.50400000000E-02 0.  1.
          2    1    1    2    0  502 -0.20393698070E+02 -0.54442116918E+01 -0.19928551179E+03  0.20040024346E+03  0.25500000000E-02 0.  1.
         -2    1    1    2  502    0  0.20393698070E+02  0.54442116918E+01 -0.25481073940E+03  0.25568350608E+03  0.25500000000E-02 0.  1.
<mgrwt>
<rscale>  0 0.42532120E+02</rscale>
<asrwt>0</asrwt>
<pdfrwt beam="2">  1        1 0.70013680E-01 0.42532120E+02</pdfrwt>
<pdfrwt beam="1">  1       -1 0.15288485E-03 0.42532120E+02</pdfrwt>
<totfact> 0.95936980E+05</totfact>
</mgrwt>
</event>
<event>
 4    1  0.4029665E-002  0.5775948E+02  0.7818608E-02  0.1407482E+00
          1   -1    0    0    0  501  0.00000000000E+00  0.00000000000E+00  0.11346388044E+04  0.11346388044E+04  0.50400000000E-02 0. -1.
         -1   -1    0    0  501    0 -0.00000000000E+00 -0.00000000000E+00 -0.73506169341E+00  0.73507897176E+00  0.50400000000E-02 0. -1.
          2    1    1    2    0  502  0.49966142599E+01  0.28048013962E+02  0.47395551369E+03  0.47481100051E+03  0.25500000000E-02 0.  1.
         -2    1    1    2  502    0 -0.49966142599E+01 -0.28048013962E+02  0.65994822898E+03  0.66056288284E+03  0.25500000000E-02 0.  1.
<mgrwt>
<rscale>  0 0.57759478E+02</rscale>
<asrwt>0</asrwt>
<pdfrwt beam="1">  1        1 0.17456106E+00 0.57759478E+02</pdfrwt>
<pdfrwt beam="2">  1       -1 0.11308694E-03 0.57759478E+02</pdfrwt>
<totfact> 0.42446129E+05</totfact>
</mgrwt>
</event>
<event>
 4    1  0.4029665E-002  0.5417015E+02  0.7818608E-02  0.1424065E+00
         -1   -1    0    0  501    0 -0.00000000000E+00  0.00000000000E+00  0.27329519124E+02  0.27329519588E+02  0.50400000000E-02 0.  1.
          1   -1    0    0    0  501  0.00000000000E+00 -0.00000000000E+00 -0.26842814837E+02  0.26842815310E+02  0.50400000000E-02 0.  1.
          2    1    1    2    0  502  0.20881390797E+02  0.15629666258E+02  0.75431187561E+01  0.27151751251E+02  0.25500000000E-02 0. -1.
         -2    1    1    2  502    0 -0.20881390797E+02 -0.15629666258E+02 -0.70564144691E+01  0.27020583647E+02  0.25500000000E-02 0. -1.
<mgrwt>
<rscale>  0 0.54170148E+02</rscale>
<asrwt>0</asrwt>
<pdfrwt beam="2">  1        1 0.41296639E-02 0.54170148E+02</pdfrwt>
<pdfrwt beam="1">  1       -1 0.42045415E-02 0.54170148E+02</pdfrwt>
<totfact> 0.35703745E+05</totfact>
</mgrwt>
</event>
<event>
 4    1  0.4029665E-002  0.4381613E+02  0.7818608E-02  0.1481871E+00
         -1   -1    0    0  501    0 -0.00000000000E+00  0.00000000000E+00  0.87811620483E+01  0.87811634946E+01  0.50400000000E-02 0.  1.
          1   -1    0    0    0  501  0.00000000000E+00 -0.00000000000E+00 -0.54658291488E+02  0.54658291721E+02  0.50400000000E-02 0.  1.
          2    1    1    2    0  502  0.20088097140E+02  0.72946311362E+01 -0.15961750170E+02  0.26674346573E+02  0.25500000000E-02 0.  1.
         -2    1    1    2  502    0 -0.20088097140E+02 -0.72946311362E+01 -0.29915379270E+02  0.36765108642E+02  0.25500000000E-02 0.  1.
<mgrwt>
<rscale>  0 0.43816133E+02</rscale>
<asrwt>0</asrwt>
<pdfrwt beam="2">  1        1 0.84089679E-02 0.43816133E+02</pdfrwt>
<pdfrwt beam="1">  1       -1 0.13509482E-02 0.43816133E+02</pdfrwt>
<totfact> 0.65673127E+05</totfact>
</mgrwt>
</event>
<event>
 4    1  0.4029665E-002  0.7708696E+02  0.7818608E-02  0.1337528E+00
         -1   -1    0    0  501    0 -0.00000000000E+00  0.00000000000E+00  0.17324977031E+03  0.17324977039E+03  0.50400000000E-02 0.  1.
          1   -1    0    0    0  501  0.00000000000E+00 -0.00000000000E+00 -0.85749017051E+01  0.85749031863E+01  0.50400000000E-02 0.  1.
          2    1    1    2    0  502 -0.61826082284E+01  0.37624080746E+02  0.95639262194E+02  0.10295952883E+03  0.25500000000E-02 0. -1.
         -2    1    1    2  502    0  0.61826082284E+01 -0.37624080746E+02  0.69035606414E+02  0.78865144747E+02  0.25500000000E-02 0. -1.
<mgrwt>
<rscale>  0 0.77086961E+02</rscale>
<asrwt>0</asrwt>
<pdfrwt beam="2">  1        1 0.13192158E-02 0.77086961E+02</pdfrwt>
<pdfrwt beam="1">  1       -1 0.26653809E-01 0.77086961E+02</pdfrwt>
<totfact> 0.11144589E+05</totfact>
</mgrwt>
</event>
<event>
 4    1  0.4029665E-002  0.4144489E+02  0.7818608E-02  0.1497840E+00
         -1   -1    0    0  501    0 -0.00000000000E+00  0.00000000000E+00  0.73675994910E+00  0.73677718762E+00  0.50400000000E-02 0.  1.
          1   -1    0    0    0  501  0.00000000000E+00 -0.00000000000E+00 -0.58284194798E+03  0.58284194800E+03  0.50400000000E-02 0.  1.
          2    1    1    2    0  502 -0.25250297021E+01 -0.20515480543E+02 -0.31174192595E+03  0.31242645393E+03  0.25500000000E-02 0.  1.
         -2    1    1    2  502    0  0.25250297021E+01  0.20515480543E+02 -0.27036326208E+03  0.27115227125E+03  0.25500000000E-02 0.  1.
<mgrwt>
<rscale>  0 0.41444886E+02</rscale>
<asrwt>0</asrwt>
<pdfrwt beam="2">  1        1 0.89667624E-01 0.41444886E+02</pdfrwt>
<pdfrwt beam="1">  1       -1 0.11334948E-03 0.41444886E+02</pdfrwt>
<totfact> 0.10463434E+06</totfact>
</mgrwt>
</event>
<event>
 4    1  0.4029665E-002  0.4154484E+02  0.7818608E-02  0.1497141E+00
          1   -1    0    0    0  501  0.00000000000E+00  0.00000000000E+00  0.59307568460E+01  0.59307589875E+01  0.50400000000E-02 0.  1.
         -1   -1    0    0  501    0 -0.00000000000E+00 -0.00000000000E+00 -0.72755197539E+02  0.72755197713E+02  0.50400000000E-02 0.  1.
          2    1    1    2    0  502  0.14302170898E+02 -0.14643607871E+02 -0.26714276112E+02  0.33654715844E+02  0.25500000000E-02 0. -1.
         -2    1    1    2  502    0 -0.14302170898E+02  0.14643607871E+02 -0.40110164581E+02  0.45031240857E+02  0.25500000000E-02 0. -1.
<mgrwt>
<rscale>  0 0.41544842E+02</rscale>
<asrwt>0</asrwt>
<pdfrwt beam="1">  1        1 0.91242436E-03 0.41544842E+02</pdfrwt>
<pdfrwt beam="2">  1       -1 0.11193107E-01 0.41544842E+02</pdfrwt>
<totfact> 0.61421496E+05</totfact>
</mgrwt>
</event>
<event>
 4    1  0.4029665E-002  0.4529804E+02  0.7818608E-02  0.1472490E+00
          1   -1    0    0    0  501  0.00000000000E+00  0.00000000000E+00  0.56126648797E+03  0.56126648800E+03  0.50400000000E-02 0.  1.
         -1   -1    0    0  501    0 -0.00000000000E+00 -0.00000000000E+00 -0.91395847152E+00  0.91397236789E+00  0.50400000000E-02 0.  1.
          2    1    1    2    0  502  0.18369850016E+02  0.87642611590E+01  0.40348299787E+03  0.40399603122E+03  0.25500000000E-02 0. -1.
         -2    1    1    2  502    0 -0.18369850016E+02 -0.87642611590E+01  0.15686953163E+03  0.15818442914E+03  0.25500000000E-02 0. -1.
<mgrwt>
<rscale>  0 0.45298043E+02</rscale>
<asrwt>0</asrwt>
<pdfrwt beam="1">  1        1 0.86348657E-01 0.45298043E+02</pdfrwt>
<pdfrwt beam="2">  1       -1 0.14061012E-03 0.45298043E+02</pdfrwt>
<totfact> 0.84027906E+05</totfact>
</mgrwt>
</event>
<event>
 4    1  0.4029665E-002  0.6855884E+02  0.7818608E-02  0.1365064E+00
         -1   -1    0    0  501    0 -0.00000000000E+00  0.00000000000E+00  0.56894511147E+00  0.56896743445E+00  0.50400000000E-02 0.  1.
          1   -1    0    0    0  501  0.00000000000E+00 -0.00000000000E+00 -0.20653230145E+04  0.20653230145E+04  0.50400000000E-02 0.  1.
          2    1    1    2    0  502  0.13339865371E+02  0.21843433776E+02 -0.34524208325E+03  0.34618951986E+03  0.25500000000E-02 0.  1.
         -2    1    1    2  502    0 -0.13339865371E+02 -0.21843433776E+02 -0.17195119862E+04  0.17197024621E+04  0.25500000000E-02 0.  1.
<mgrwt>
<rscale>  0 0.68558836E+02</rscale>
<asrwt>0</asrwt>
<pdfrwt beam="2">  1        1 0.31773600E+00 0.68558836E+02</pdfrwt>
<pdfrwt beam="1">  1       -1 0.87533389E-04 0.68558836E+02</pdfrwt>
<totfact> 0.16025390E+05</totfact>
</mgrwt>
</event>
<event>
 4    1  0.4029665E-002  0.7750084E+02  0.7818608E-02  0.1336297E+00
         -1   -1    0    0  501    0 -0.00000000000E+00  0.00000000000E+00  0.10687192123E+02  0.10687193311E+02  0.50400000000E-02 0.  1.
          1   -1    0    0    0  501  0.00000000000E+00 -0.00000000000E+00 -0.14050416760E+03  0.14050416770E+03  0.50400000000E-02 0.  1.
          2    1    1    2    0  502  0.13296739116E+02  0.29152453682E+02 -0.10742265373E+03  0.11209948870E+03  0.25500000000E-02 0.  1.
         -2    1    1    2  502    0 -0.13296739116E+02 -0.29152453682E+02 -0.22394321752E+02  0.39091872302E+02  0.25500000000E-02 0.  1.
<mgrwt>
<rscale>  0 0.77500842E+02</rscale>
<asrwt>0</asrwt>
<pdfrwt beam="2">  1        1 0.21616025E-01 0.77500842E+02</pdfrwt>
<pdfrwt beam="1">  1       -1 0.16441836E-02 0.77500842E+02</pdfrwt>
<totfact> 0.17113139E+05</totfact>
</mgrwt>
</event>
<event>
 4    1  0.4029665E-002  0.9265055E+02  0.7818608E-02  0.1296557E+00
         -1   -1    0    0  501    0 -0.00000000000E+00  0.00000000000E+00  0.72993473927E+02  0.72993474101E+02  0.50400000000E-02 0.  1.
          1   -1    0    0    0  501  0.00000000000E+00 -0.00000000000E+00 -0.29400312481E+02  0.29400312913E+02  0.50400000000E-02 0.  1.
          2    1    1    2    0  502  0.12629158305E+02  0.23497840335E+02 -0.20059519393E+02  0.33377064950E+02  0.25500000000E-02 0.  1.
         -2    1    1    2  502    0 -0.12629158305E+02 -0.23497840335E+02  0.63652680839E+02  0.69016722064E+02  0.25500000000E-02 0.  1.
<mgrwt>
<rscale>  0 0.92650547E+02</rscale>
<asrwt>0</asrwt>
<pdfrwt beam="2">  1        1 0.45231250E-02 0.92650547E+02</pdfrwt>
<pdfrwt beam="1">  1       -1 0.11229765E-01 0.92650547E+02</pdfrwt>
<totfact> 0.82500402E+04</totfact>
</mgrwt>
</event>
<event>
 4    1  0.4029665E-002  0.5861701E+02  0.7818608E-02  0.1403729E+00
          1   -1    0    0    0  501  0.00000000000E+00  0.00000000000E+00  0.20638674477E+03  0.20638674483E+03  0.50400000000E-02 0.  1.
         -1   -1    0    0  501    0 -0.00000000000E+00 -0.00000000000E+00 -0.41620314018E+01  0.41620344534E+01  0.50400000000E-02 0.  1.
          2    1    1    2    0  502 -0.77982599293E+01 -0.21990689579E+02  0.16482097403E+03  0.16646428078E+03  0.25500000000E-02 0. -1.
         -2    1    1    2  502    0  0.77982599293E+01  0.21990689579E+02  0.37403739329E+02  0.44084498504E+02  0.25500000000E-02 0. -1.
<mgrwt>
<rscale>  0 0.58617009E+02</rscale>
<asrwt>0</asrwt>
<pdfrwt beam="1">  1        1 0.31751796E-01 0.58617009E+02</pdfrwt>
<pdfrwt beam="2">  1       -1 0.64031299E-03 0.58617009E+02</pdfrwt>
<totfact> 0.37815501E+05</totfact>
</mgrwt>
</event>
<event>
 4    1  0.4029665E-002  0.5889723E+02  0.7818608E-02  0.1402519E+00
         -1   -1    0    0  501    0 -0.00000000000E+00  0.00000000000E+00  0.73144170975E+02  0.73144171149E+02  0.50400000000E-02 0. -1.
          1   -1    0    0    0  501  0.00000000000E+00 -0.00000000000E+00 -0.11856322039E+02  0.11856323110E+02  0.50400000000E-02 0. -1.
          2    1    1    2    0  502 -0.22421797196E+02  0.14335059459E+02  0.48841413077E+02  0.55621170044E+02  0.25500000000E-02 0. -1.
         -2    1    1    2  502    0  0.22421797196E+02 -0.14335059459E+02  0.12446435860E+02  0.29379324215E+02  0.25500000000E-02 0. -1.
<mgrwt>
<rscale>  0 0.58897229E+02</rscale>
<asrwt>0</asrwt>
<pdfrwt beam="2">  1        1 0.18240497E-02 0.58897229E+02</pdfrwt>
<pdfrwt beam="1">  1       -1 0.11252949E-01 0.58897229E+02</pdfrwt>
<totfact> 0.25969343E+05</totfact>
</mgrwt>
</event>
<event>
 4    1  0.4029665E-002  0.4470843E+02  0.7818608E-02  0.1476170E+00
          1   -1    0    0    0  501  0.00000000000E+00  0.00000000000E+00  0.61630545568E+02  0.61630545774E+02  0.50400000000E-02 0. -1.
         -1   -1    0    0  501    0 -0.00000000000E+00 -0.00000000000E+00 -0.81081672400E+01  0.81081688064E+01  0.50400000000E-02 0. -1.
          2    1    1    2    0  502 -0.10124050444E+02  0.19237645877E+02  0.18636837328E+02  0.28634160166E+02  0.25500000000E-02 0. -1.
         -2    1    1    2  502    0  0.10124050444E+02 -0.19237645877E+02  0.34885541000E+02  0.41104554415E+02  0.25500000000E-02 0. -1.
<mgrwt>
<rscale>  0 0.44708426E+02</rscale>
<asrwt>0</asrwt>
<pdfrwt beam="1">  1        1 0.94816227E-02 0.44708426E+02</pdfrwt>
<pdfrwt beam="2">  1       -1 0.12474105E-02 0.44708426E+02</pdfrwt>
<totfact> 0.63187583E+05</totfact>
</mgrwt>
</event>
<event>
 4    1  0.4029665E-002  0.4468497E+02  0.7818608E-02  0.1476318E+00
          1   -1    0    0    0  501  0.00000000000E+00  0.00000000000E+00  0.11864890094E+03  0.11864890105E+03  0.50400000000E-02 0. -1.
         -1   -1    0    0  501    0 -0.00000000000E+00 -0.00000000000E+00 -0.42072563647E+01  0.42072593835E+01  0.50400000000E-02 0. -1.
          2    1    1    2    0  502  0.21635866561E+02  0.54745107373E+01  0.54329991643E+02  0.58735244854E+02  0.25500000000E-02 0.  1.
         -2    1    1    2  502    0 -0.21635866561E+02 -0.54745107373E+01  0.60111652937E+02  0.64120915581E+02  0.25500000000E-02 0.  1.
<mgrwt>
<rscale>  0 0.44684966E+02</rscale>
<asrwt>0</asrwt>
<pdfrwt beam="1">  1        1 0.18253675E-01 0.44684966E+02</pdfrwt>
<pdfrwt beam="2">  1       -1 0.64727052E-03 0.44684966E+02</pdfrwt>
<totfact> 0.68490245E+05</totfact>
</mgrwt>
</event>
<event>
 4    1  0.4029665E-002  0.5562114E+02  0.7818608E-02  0.1417184E+00
         -1   -1    0    0  501    0 -0.00000000000E+00  0.00000000000E+00  0.10750835182E+03  0.10750835194E+03  0.50400000000E-02 0.  1.
          1   -1    0    0    0  501  0.00000000000E+00 -0.00000000000E+00 -0.71941176424E+01  0.71941194078E+01  0.50400000000E-02 0.  1.
          2    1    1    2    0  502 -0.22374867167E+02  0.58889772987E+01  0.81978900977E+02  0.85181306320E+02  0.25500000000E-02 0. -1.
         -2    1    1    2  502    0  0.22374867167E+02 -0.58889772987E+01  0.18335333198E+02  0.29521165024E+02  0.25500000000E-02 0. -1.
<mgrwt>
<rscale>  0 0.55621141E+02</rscale>
<asrwt>0</asrwt>
<pdfrwt beam="2">  1        1 0.11067875E-02 0.55621141E+02</pdfrwt>
<pdfrwt beam="1">  1       -1 0.16539746E-01 0.55621141E+02</pdfrwt>
<totfact> 0.28208552E+05</totfact>
</mgrwt>
</event>
<event>
 4    1  0.4029665E-002  0.6013890E+02  0.7818608E-02  0.1397250E+00
          1   -1    0    0    0  501  0.00000000000E+00  0.00000000000E+00  0.20809905432E+02  0.20809906043E+02  0.50400000000E-02 0. -1.
         -1   -1    0    0  501    0 -0.00000000000E+00 -0.00000000000E+00 -0.43449104482E+02  0.43449104774E+02  0.50400000000E-02 0. -1.
          2    1    1    2    0  502 -0.28453249414E+02 -0.32224611442E+01 -0.21124313296E+02  0.35583820435E+02  0.25500000000E-02 0. -1.
         -2    1    1    2  502    0  0.28453249414E+02  0.32224611442E+01 -0.15148857534E+01  0.28675190381E+02  0.25500000000E-02 0. -1.
<mgrwt>
<rscale>  0 0.60138899E+02</rscale>
<asrwt>0</asrwt>
<pdfrwt beam="1">  1        1 0.32015240E-02 0.60138899E+02</pdfrwt>
<pdfrwt beam="2">  1       -1 0.66844777E-02 0.60138899E+02</pdfrwt>
<totfact> 0.26310525E+05</totfact>
</mgrwt>
</event>
<event>
 4    1  0.4029665E-002  0.4298632E+02  0.7818608E-02  0.1487319E+00
         -1   -1    0    0  501    0 -0.00000000000E+00  0.00000000000E+00  0.13147735765E+01  0.13147832366E+01  0.50400000000E-02 0.  1.
          1   -1    0    0    0  501  0.00000000000E+00 -0.00000000000E+00 -0.35135647652E+03  0.35135647655E+03  0.50400000000E-02 0.  1.
          2    1    1    2    0  502 -0.10439939581E+02  0.17211915357E+02 -0.11323582955E+03  0.11501128409E+03  0.25500000000E-02 0. -1.
         -2    1    1    2  502    0  0.10439939581E+02 -0.17211915357E+02 -0.23680587339E+03  0.23765997570E+03  0.25500000000E-02 0. -1.
<mgrwt>
<rscale>  0 0.42986320E+02</rscale>
<asrwt>0</asrwt>
<pdfrwt beam="2">  1        1 0.54054768E-01 0.42986320E+02</pdfrwt>
<pdfrwt beam="1">  1       -1 0.20227388E-03 0.42986320E+02</pdfrwt>
<totfact> 0.90017723E+05</totfact>
</mgrwt>
</event>
<event>
 4    1  0.4029665E-002  0.4694571E+02  0.7818608E-02  0.1462548E+00
         -1   -1    0    0  501    0 -0.00000000000E+00  0.00000000000E+00  0.14817751659E+03  0.14817751667E+03  0.50400000000E-02 0.  1.
          1   -1    0    0    0  501  0.00000000000E+00 -0.00000000000E+00 -0.37183411460E+01  0.37183445618E+01  0.50400000000E-02 0.  1.
          2    1    1    2    0  502  0.18323447962E+02 -0.12277531926E+02  0.98212657985E+02  0.10065889295E+03  0.25500000000E-02 0. -1.
         -2    1    1    2  502    0 -0.18323447962E+02  0.12277531926E+02  0.46246517456E+02  0.51236968282E+02  0.25500000000E-02 0. -1.
<mgrwt>
<rscale>  0 0.46945706E+02</rscale>
<asrwt>0</asrwt>
<pdfrwt beam="2">  1        1 0.57205274E-03 0.46945706E+02</pdfrwt>
<pdfrwt beam="1">  1       -1 0.22796542E-01 0.46945706E+02</pdfrwt>
<totfact> 0.40335725E+05</totfact>
</mgrwt>
</event>
<event>
 4    1  0.4029665E-002  0.4797262E+02  0.7818608E-02  0.1456594E+00
          1   -1    0    0    0  501  0.00000000000E+00  0.00000000000E+00  0.51384359461E+03  0.51384359463E+03  0.50400000000E-02 0.  1.
         -1   -1    0    0  501    0 -0.00000000000E+00 -0.00000000000E+00 -0.11196793600E+01  0.11196907032E+01  0.50400000000E-02 0.  1.
          2    1    1    2    0  502 -0.12242259332E+02  0.18261597086E+02  0.15340887688E+03  0.15497626384E+03  0.25500000000E-02 0.  1.
         -2    1    1    2  502    0  0.12242259332E+02 -0.18261597086E+02  0.35931503837E+03  0.35998702150E+03  0.25500000000E-02 0.  1.
<mgrwt>
<rscale>  0 0.47972617E+02</rscale>
<asrwt>0</asrwt>
<pdfrwt beam="1">  1        1 0.79053139E-01 0.47972617E+02</pdfrwt>
<pdfrwt beam="2">  1       -1 0.17225863E-03 0.47972617E+02</pdfrwt>
<totfact> 0.72401223E+05</totfact>
</mgrwt>
</event>
<event>
 4    1  0.4029665E-002  0.4369757E+02  0.7818608E-02  0.1482640E+00
          1   -1    0    0    0  501  0.00000000000E+00  0.00000000000E+00  0.26659496794E+03  0.26659496799E+03  0.50400000000E-02 0. -1.
         -1   -1    0    0  501    0 -0.00000000000E+00 -0.00000000000E+00 -0.17906130124E+01  0.17906201054E+01  0.50400000000E-02 0. -1.
          2    1    1    2    0  502  0.20464339295E+02 -0.12022336124E+00  0.17940497558E+03  0.18056840506E+03  0.25500000000E-02 0.  1.
         -2    1    1    2  502    0 -0.20464339295E+02  0.12022336124E+00  0.85399379346E+02  0.87817183032E+02  0.25500000000E-02 0.  1.
<mgrwt>
<rscale>  0 0.43697569E+02</rscale>
<asrwt>0</asrwt>
<pdfrwt beam="1">  1        1 0.41014622E-01 0.43697569E+02</pdfrwt>
<pdfrwt beam="2">  1       -1 0.27547940E-03 0.43697569E+02</pdfrwt>
<totfact> 0.82527248E+05</totfact>
</mgrwt>
</event>
<event>
 4    1  0.4029665E-002  0.6294815E+02  0.7818608E-02  0.1385860E+00
         -1   -1    0    0  501    0 -0.00000000000E+00  0.00000000000E+00  0.19597282453E+01  0.19597347262E+01  0.50400000000E-02 0.  1.
          1   -1    0    0    0  501  0.00000000000E+00 -0.00000000000E+00 -0.50548622325E+03  0.50548622328E+03  0.50400000000E-02 0.  1.
          2    1    1    2    0  502  0.10719716062E+00 -0.25858980088E+02 -0.39640048244E+03  0.39724305007E+03  0.25500000000E-02 0. -1.
         -2    1    1    2  502    0 -0.10719716062E+00  0.25858980088E+02 -0.10712601257E+03  0.11020290794E+03  0.25500000000E-02 0. -1.
<mgrwt>
<rscale>  0 0.62948146E+02</rscale>
<asrwt>0</asrwt>
<pdfrwt beam="2">  1        1 0.77767008E-01 0.62948146E+02</pdfrwt>
<pdfrwt beam="1">  1       -1 0.30149756E-03 0.62948146E+02</pdfrwt>
<totfact> 0.36540850E+05</totfact>
</mgrwt>
</event>
<event>
 4    1  0.4029665E-002  0.5812241E+02  0.7818608E-02  0.1405884E+00
          1   -1    0    0    0  501  0.00000000000E+00  0.00000000000E+00  0.30027518129E+03  0.30027518133E+03  0.50400000000E-02 0. -1.
         -1   -1    0    0  501    0 -0.00000000000E+00 -0.00000000000E+00 -0.28125969193E+01  0.28126014349E+01  0.50400000000E-02 0. -1.
          2    1    1    2    0  502 -0.12227708066E+02 -0.25399827837E+02  0.11190037415E+03  0.11539654172E+03  0.25500000000E-02 0.  1.
         -2    1    1    2  502    0  0.12227708066E+02  0.25399827837E+02  0.18556221022E+03  0.18769124105E+03  0.25500000000E-02 0.  1.
<mgrwt>
<rscale>  0 0.58122414E+02</rscale>
<asrwt>0</asrwt>
<pdfrwt beam="1">  1        1 0.46196180E-01 0.58122414E+02</pdfrwt>
<pdfrwt beam="2">  1       -1 0.43270759E-03 0.58122414E+02</pdfrwt>
<totfact> 0.41336605E+05</totfact>
</mgrwt>
</event>
<event>
 4    1  0.4029665E-002  0.4456765E+02  0.7818608E-02  0.1477059E+00
         -1   -1    0    0  501    0 -0.00000000000E+00  0.00000000000E+00  0.38445124524E+00  0.38448428000E+00  0.50400000000E-02 0.  1.
          1   -1    0    0    0  501  0.00000000000E+00 -0.00000000000E+00 -0.12915747217E+04  0.12915747217E+04  0.50400000000E-02 0.  1.
          2    1    1    2    0  502  0.21599725279E+02  0.54756831322E+01 -0.65121713904E+03  0.65159826076E+03  0.25500000000E-02 0. -1.
         -2    1    1    2  502    0 -0.21599725279E+02 -0.54756831322E+01 -0.63997313141E+03  0.64036094523E+03  0.25500000000E-02 0. -1.
<mgrwt>
<rscale>  0 0.44567650E+02</rscale>
<asrwt>0</asrwt>
<pdfrwt beam="2">  1        1 0.19870033E+00 0.44567650E+02</pdfrwt>
<pdfrwt beam="1">  1       -1 0.59149921E-04 0.44567650E+02</pdfrwt>
<totfact> 0.76131598E+05</totfact>
</mgrwt>
</event>
<event>
 4    1  0.4029665E-002  0.5099053E+02  0.7818608E-02  0.1440071E+00
         -1   -1    0    0  501    0 -0.00000000000E+00  0.00000000000E+00  0.17742234853E+02  0.17742235569E+02  0.50400000000E-02 0.  1.
          1   -1    0    0    0  501  0.00000000000E+00 -0.00000000000E+00 -0.36636228341E+02  0.36636228688E+02  0.50400000000E-02 0.  1.
          2    1    1    2    0  502 -0.18160777600E+02 -0.12056192751E+02  0.46543785614E+01  0.22289658431E+02  0.25500000000E-02 0.  1.
         -2    1    1    2  502    0  0.18160777600E+02  0.12056192751E+02 -0.23548372049E+02  0.32088805826E+02  0.25500000000E-02 0.  1.
<mgrwt>
<rscale>  0 0.50990532E+02</rscale>
<asrwt>0</asrwt>
<pdfrwt beam="2">  1        1 0.56363429E-02 0.50990532E+02</pdfrwt>
<pdfrwt beam="1">  1       -1 0.27295747E-02 0.50990532E+02</pdfrwt>
<totfact> 0.43039881E+05</totfact>
</mgrwt>
</event>
<event>
 4    1  0.4029665E-002  0.4176436E+02  0.7818608E-02  0.1495615E+00
          1   -1    0    0    0  501  0.00000000000E+00  0.00000000000E+00  0.26888350351E+00  0.26893073468E+00  0.50400000000E-02 0. -1.
         -1   -1    0    0  501    0 -0.00000000000E+00 -0.00000000000E+00 -0.16216206840E+04  0.16216206840E+04  0.50400000000E-02 0. -1.
          2    1    1    2    0  502  0.11106737907E+01  0.20642385071E+02 -0.92537651309E+03  0.92560738579E+03  0.25500000000E-02 0. -1.
         -2    1    1    2  502    0 -0.11106737907E+01 -0.20642385071E+02 -0.69597528745E+03  0.69628222899E+03  0.25500000000E-02 0. -1.
<mgrwt>
<rscale>  0 0.41764356E+02</rscale>
<asrwt>0</asrwt>
<pdfrwt beam="1">  1        1 0.41371625E-04 0.41764356E+02</pdfrwt>
<pdfrwt beam="2">  1       -1 0.24947228E+00 0.41764356E+02</pdfrwt>
<totfact> 0.86037712E+04</totfact>
</mgrwt>
</event>
<event>
 4    1  0.4029665E-002  0.1862654E+03  0.7818608E-02  0.1161873E+00
         -1   -1    0    0  501    0 -0.00000000000E+00  0.00000000000E+00  0.39904978862E+02  0.39904979181E+02  0.50400000000E-02 0. -1.
          1   -1    0    0    0  501  0.00000000000E+00 -0.00000000000E+00 -0.21735884775E+03  0.21735884780E+03  0.50400000000E-02 0. -1.
          2    1    1    2    0  502 -0.89968138391E+02  0.10931892053E+02 -0.11834737313E+03  0.14906331850E+03  0.25500000000E-02 0.  1.
         -2    1    1    2  502    0  0.89968138391E+02 -0.10931892053E+02 -0.59106495751E+02  0.10820050848E+03  0.25500000000E-02 0.  1.
<mgrwt>
<rscale>  0 0.18626540E+03</rscale>
<asrwt>0</asrwt>
<pdfrwt beam="2">  1        1 0.33439822E-01 0.18626540E+03</pdfrwt>
<pdfrwt beam="1">  1       -1 0.61392276E-02 0.18626540E+03</pdfrwt>
<totfact> 0.16347057E+04</totfact>
</mgrwt>
</event>
<event>
 4    1  0.4029665E-002  0.4407023E+02  0.7818608E-02  0.1480231E+00
         -1   -1    0    0  501    0 -0.00000000000E+00  0.00000000000E+00  0.72061520937E+01  0.72061538562E+01  0.50400000000E-02 0. -1.
          1   -1    0    0    0  501  0.00000000000E+00 -0.00000000000E+00 -0.67379394547E+02  0.67379394735E+02  0.50400000000E-02 0. -1.
          2    1    1    2    0  502 -0.18326451120E+02  0.85276146643E+01 -0.15238815903E+02  0.25314038381E+02  0.25500000000E-02 0. -1.
         -2    1    1    2  502    0  0.18326451120E+02 -0.85276146643E+01 -0.44934426550E+02  0.49271510210E+02  0.25500000000E-02 0. -1.
<mgrwt>
<rscale>  0 0.44070227E+02</rscale>
<asrwt>0</asrwt>
<pdfrwt beam="2">  1        1 0.10366060E-01 0.44070227E+02</pdfrwt>
<pdfrwt beam="1">  1       -1 0.11086390E-02 0.44070227E+02</pdfrwt>
<totfact> 0.66117286E+05</totfact>
</mgrwt>
</event>
<event>
 4    1  0.4029665E-002  0.4758709E+02  0.7818608E-02  0.1458808E+00
          1   -1    0    0    0  501  0.00000000000E+00  0.00000000000E+00  0.34306722750E+00  0.34310424682E+00  0.50400000000E-02 0.  1.
         -1   -1    0    0  501    0 -0.00000000000E+00 -0.00000000000E+00 -0.16501205045E+04  0.16501205045E+04  0.50400000000E-02 0.  1.
          2    1    1    2    0  502  0.61749396260E+01 -0.19236197156E+02 -0.12608082969E+04  0.12609701514E+04  0.25500000000E-02 0.  1.
         -2    1    1    2  502    0 -0.61749396260E+01  0.19236197156E+02 -0.38896914032E+03  0.38949345731E+03  0.25500000000E-02 0.  1.
<mgrwt>
<rscale>  0 0.47587092E+02</rscale>
<asrwt>0</asrwt>
<pdfrwt beam="1">  1        1 0.52783743E-04 0.47587092E+02</pdfrwt>
<pdfrwt beam="2">  1       -1 0.25385834E+00 0.47587092E+02</pdfrwt>
<totfact> 0.60083275E+04</totfact>
</mgrwt>
</event>
<event>
 4    1  0.4029665E-002  0.4654936E+02  0.7818608E-02  0.1464895E+00
          1   -1    0    0    0  501  0.00000000000E+00  0.00000000000E+00  0.57352565698E+01  0.57352587843E+01  0.50400000000E-02 0. -1.
         -1   -1    0    0  501    0 -0.00000000000E+00 -0.00000000000E+00 -0.94452739188E+02  0.94452739322E+02  0.50400000000E-02 0. -1.
          2    1    1    2    0  502  0.19854780042E+02 -0.79646500087E+01 -0.64092237794E+02  0.67568209183E+02  0.25500000000E-02 0. -1.
         -2    1    1    2  502    0 -0.19854780042E+02  0.79646500087E+01 -0.24625244824E+02  0.32619788924E+02  0.25500000000E-02 0. -1.
<mgrwt>
<rscale>  0 0.46549364E+02</rscale>
<asrwt>0</asrwt>
<pdfrwt beam="1">  1        1 0.88234741E-03 0.46549364E+02</pdfrwt>
<pdfrwt beam="2">  1       -1 0.14531190E-01 0.46549364E+02</pdfrwt>
<totfact> 0.44803914E+05</totfact>
</mgrwt>
</event>
<event>
 4    1  0.4029665E-002  0.4878886E+02  0.7818608E-02  0.1451986E+00
         -1   -1    0    0  501    0 -0.00000000000E+00  0.00000000000E+00  0.18866672102E+03  0.18866672109E+03  0.50400000000E-02 0. -1.
          1   -1    0    0    0  501  0.00000000000E+00 -0.00000000000E+00 -0.31541752228E+01  0.31541792494E+01  0.50400000000E-02 0. -1.
          2    1    1    2    0  502 -0.15322617343E+02  0.13679334066E+02  0.14449621950E+03  0.14594884117E+03  0.25500000000E-02 0. -1.
         -2    1    1    2  502    0  0.15322617343E+02 -0.13679334066E+02  0.41016326298E+02  0.45872059167E+02  0.25500000000E-02 0. -1.
<mgrwt>
<rscale>  0 0.48788863E+02</rscale>
<asrwt>0</asrwt>
<pdfrwt beam="2">  1        1 0.48525820E-03 0.48788863E+02</pdfrwt>
<pdfrwt beam="1">  1       -1 0.29025640E-01 0.48788863E+02</pdfrwt>
<totfact> 0.34604956E+05</totfact>
</mgrwt>
</event>
<event>
 4    1  0.4029665E-002  0.9609326E+02  0.7818608E-02  0.1288733E+00
          1   -1    0    0    0  501  0.00000000000E+00  0.00000000000E+00  0.17703440016E+03  0.17703440023E+03  0.50400000000E-02 0. -1.
         -1   -1    0    0  501    0 -0.00000000000E+00 -0.00000000000E+00 -0.13039717814E+02  0.13039718788E+02  0.50400000000E-02 0. -1.
          2    1    1    2    0  502 -0.21335849370E+02 -0.27592263258E+02  0.14735957793E+03  0.15143116151E+03  0.25500000000E-02 0.  1.
         -2    1    1    2  502    0  0.21335849370E+02  0.27592263258E+02  0.16635104414E+02  0.38642957514E+02  0.25500000000E-02 0.  1.
<mgrwt>
<rscale>  0 0.96093261E+02</rscale>
<asrwt>0</asrwt>
<pdfrwt beam="1">  1        1 0.27236061E-01 0.96093261E+02</pdfrwt>
<pdfrwt beam="2">  1       -1 0.20061106E-02 0.96093261E+02</pdfrwt>
<totfact> 0.10037902E+05</totfact>
</mgrwt>
</event>
<event>
 4    1  0.4029665E-002  0.7858806E+02  0.7818608E-02  0.1333107E+00
         -1   -1    0    0  501    0 -0.00000000000E+00  0.00000000000E+00  0.86887203333E+00  0.86888665078E+00  0.50400000000E-02 0.  1.
          1   -1    0    0    0  501  0.00000000000E+00 -0.00000000000E+00 -0.17770256146E+04  0.17770256146E+04  0.50400000000E-02 0.  1.
          2    1    1    2    0  502  0.25575272632E+02 -0.25348033607E+02 -0.12439163570E+04  0.12444374314E+04  0.25500000000E-02 0. -1.
         -2    1    1    2  502    0 -0.25575272632E+02  0.25348033607E+02 -0.53224038555E+03  0.53345706987E+03  0.25500000000E-02 0. -1.
<mgrwt>
<rscale>  0 0.78588062E+02</rscale>
<asrwt>0</asrwt>
<pdfrwt beam="2">  1        1 0.27338565E+00 0.78588062E+02</pdfrwt>
<pdfrwt beam="1">  1       -1 0.13367517E-03 0.78588062E+02</pdfrwt>
<totfact> 0.13815523E+05</totfact>
</mgrwt>
</event>
<event>
 4    1  0.4029665E-002  0.4416358E+02  0.7818608E-02  0.1479632E+00
         -1   -1    0    0  501    0 -0.00000000000E+00  0.00000000000E+00  0.13369786202E+02  0.13369787151E+02  0.50400000000E-02 0. -1.
          1   -1    0    0    0  501  0.00000000000E+00 -0.00000000000E+00 -0.36470697892E+02  0.36470698241E+02  0.50400000000E-02 0. -1.
          2    1    1    2    0  502  0.81328129284E+00 -0.20190696868E+02 -0.21598909602E+02  0.29577670107E+02  0.25500000000E-02 0. -1.
         -2    1    1    2  502    0 -0.81328129284E+00  0.20190696868E+02 -0.15020020886E+01  0.20262815285E+02  0.25500000000E-02 0. -1.
<mgrwt>
<rscale>  0 0.44163581E+02</rscale>
<asrwt>0</asrwt>
<pdfrwt beam="2">  1        1 0.56108767E-02 0.44163581E+02</pdfrwt>
<pdfrwt beam="1">  1       -1 0.20568903E-02 0.44163581E+02</pdfrwt>
<totfact> 0.62093817E+05</totfact>
</mgrwt>
</event>
<event>
 4    1  0.4029665E-002  0.5403079E+02  0.7818608E-02  0.1424739E+00
          1   -1    0    0    0  501  0.00000000000E+00  0.00000000000E+00  0.66970570477E+02  0.66970570667E+02  0.50400000000E-02 0. -1.
         -1   -1    0    0  501    0 -0.00000000000E+00 -0.00000000000E+00 -0.10897793293E+02  0.10897794459E+02  0.50400000000E-02 0. -1.
          2    1    1    2    0  502 -0.15919823762E+02 -0.15338044482E+02  0.50415867159E+02  0.55049578246E+02  0.25500000000E-02 0. -1.
         -2    1    1    2  502    0  0.15919823762E+02  0.15338044482E+02  0.56569100247E+01  0.22818786880E+02  0.25500000000E-02 0. -1.
<mgrwt>
<rscale>  0 0.54030787E+02</rscale>
<asrwt>0</asrwt>
<pdfrwt beam="1">  1        1 0.10303165E-01 0.54030787E+02</pdfrwt>
<pdfrwt beam="2">  1       -1 0.16765836E-02 0.54030787E+02</pdfrwt>
<totfact> 0.39442191E+05</totfact>
</mgrwt>
</event>
<event>
 4    1  0.4029665E-002  0.5916074E+02  0.7818608E-02  0.1401388E+00
          1   -1    0    0    0  501  0.00000000000E+00  0.00000000000E+00  0.34567061311E+03  0.34567061315E+03  0.50400000000E-02 0. -1.
         -1   -1    0    0  501    0 -0.00000000000E+00 -0.00000000000E+00 -0.25313044127E+01  0.25313094302E+01  0.50400000000E-02 0. -1.
          2    1    1    2    0  502 -0.59803839567E+01 -0.28143292883E+02  0.13113855067E+03  0.13425769775E+03  0.25500000000E-02 0.  1.
         -2    1    1    2  502    0  0.59803839567E+01  0.28143292883E+02  0.21200075803E+03  0.21394422484E+03  0.25500000000E-02 0.  1.
<mgrwt>
<rscale>  0 0.59160745E+02</rscale>
<asrwt>0</asrwt>
<pdfrwt beam="1">  1        1 0.53180036E-01 0.59160745E+02</pdfrwt>
<pdfrwt beam="2">  1       -1 0.38943226E-03 0.59160745E+02</pdfrwt>
<totfact> 0.40498340E+05</totfact>
</mgrwt>
</event>
<event>
 4    1  0.4029665E-002  0.5628182E+02  0.7818608E-02  0.1414133E+00
         -1   -1    0    0  501    0 -0.00000000000E+00  0.00000000000E+00  0.35057087301E+00  0.35060710005E+00  0.50400000000E-02 0.  1.
          1   -1    0    0    0  501  0.00000000000E+00 -0.00000000000E+00 -0.22588013225E+04  0.22588013225E+04  0.50400000000E-02 0.  1.
          2    1    1    2    0  502  0.25858240659E+02 -0.99086469298E+01 -0.92820062727E+03  0.92861360875E+03  0.25500000000E-02 0.  1.
         -2    1    1    2  502    0 -0.25858240659E+02  0.99086469298E+01 -0.13302501244E+04  0.13305383209E+04  0.25500000000E-02 0.  1.
<mgrwt>
<rscale>  0 0.56281822E+02</rscale>
<asrwt>0</asrwt>
<pdfrwt beam="2">  1        1 0.34749625E+00 0.56281822E+02</pdfrwt>
<pdfrwt beam="1">  1       -1 0.53938576E-04 0.56281822E+02</pdfrwt>
<totfact> 0.22771220E+05</totfact>
</mgrwt>
</event>
<event>
 4    1  0.4029665E-002  0.4575044E+02  0.7818608E-02  0.1469710E+00
         -1   -1    0    0  501    0 -0.00000000000E+00  0.00000000000E+00  0.20761860771E+00  0.20767977241E+00  0.50400000000E-02 0.  1.
          1   -1    0    0    0  501  0.00000000000E+00 -0.00000000000E+00 -0.25199988090E+04  0.25199988090E+04  0.50400000000E-02 0.  1.
          2    1    1    2    0  502 -0.12671236966E+02 -0.17968194355E+02 -0.16076771613E+04  0.16078275004E+04  0.25500000000E-02 0. -1.
         -2    1    1    2  502    0  0.12671236966E+02  0.17968194355E+02 -0.91211402916E+03  0.91237898839E+03  0.25500000000E-02 0. -1.
<mgrwt>
<rscale>  0 0.45750441E+02</rscale>
<asrwt>0</asrwt>
<pdfrwt beam="2">  1        1 0.38766764E+00 0.45750441E+02</pdfrwt>
<pdfrwt beam="1">  1       -1 0.31948048E-04 0.45750441E+02</pdfrwt>
<totfact> 0.30593976E+05</totfact>
</mgrwt>
</event>
<event>
 4    1  0.4029665E-002  0.8836196E+02  0.7818608E-02  0.1306868E+00
         -1   -1    0    0  501    0 -0.00000000000E+00  0.00000000000E+00  0.16959265963E+03  0.16959265971E+03  0.50400000000E-02 0. -1.
          1   -1    0    0    0  501  0.00000000000E+00 -0.00000000000E+00 -0.11509689025E+02  0.11509690129E+02  0.50400000000E-02 0. -1.
          2    1    1    2    0  502 -0.23748045624E+02  0.19849665403E+02  0.14365860231E+03  0.14695500301E+03  0.25500000000E-02 0. -1.
         -2    1    1    2  502    0  0.23748045624E+02 -0.19849665403E+02  0.14424368301E+02  0.34147346822E+02  0.25500000000E-02 0. -1.
<mgrwt>
<rscale>  0 0.88361957E+02</rscale>
<asrwt>0</asrwt>
<pdfrwt beam="2">  1        1 0.17707216E-02 0.88361957E+02</pdfrwt>
<pdfrwt beam="1">  1       -1 0.26091177E-01 0.88361957E+02</pdfrwt>
<totfact> 0.78738082E+04</totfact>
</mgrwt>
</event>
<event>
 4    1  0.4029665E-002  0.4757254E+02  0.7818608E-02  0.1458892E+00
          1   -1    0    0    0  501  0.00000000000E+00  0.00000000000E+00  0.67303871238E+02  0.67303871427E+02  0.50400000000E-02 0. -1.
         -1   -1    0    0  501    0 -0.00000000000E+00 -0.00000000000E+00 -0.84064481680E+01  0.84064496788E+01  0.50400000000E-02 0. -1.
          2    1    1    2    0  502 -0.17626275435E+02  0.15209958933E+02  0.37205909417E+02  0.43889727027E+02  0.25500000000E-02 0.  1.
         -2    1    1    2  502    0  0.17626275435E+02 -0.15209958933E+02  0.21691513653E+02  0.31820594079E+02  0.25500000000E-02 0.  1.
<mgrwt>
<rscale>  0 0.47572537E+02</rscale>
<asrwt>0</asrwt>
<pdfrwt beam="1">  1        1 0.10354442E-01 0.47572537E+02</pdfrwt>
<pdfrwt beam="2">  1       -1 0.12932998E-02 0.47572537E+02</pdfrwt>
<totfact> 0.54559546E+05</totfact>
</mgrwt>
</event>
<event>
 4    1  0.4029665E-002  0.6704478E+02  0.7818608E-02  0.1370441E+00
          1   -1    0    0    0  501  0.00000000000E+00  0.00000000000E+00  0.63984300418E+01  0.63984320268E+01  0.50400000000E-02 0. -1.
         -1   -1    0    0  501    0 -0.00000000000E+00 -0.00000000000E+00 -0.17562908653E+03  0.17562908660E+03  0.50400000000E-02 0. -1.
          2    1    1    2    0  502 -0.12906716638E+02 -0.28568794131E+02 -0.52377320387E+02  0.61042141426E+02  0.25500000000E-02 0. -1.
         -2    1    1    2  502    0  0.12906716638E+02  0.28568794131E+02 -0.11685333610E+03  0.12098537720E+03  0.25500000000E-02 0. -1.
<mgrwt>
<rscale>  0 0.67044779E+02</rscale>
<asrwt>0</asrwt>
<pdfrwt beam="1">  1        1 0.98437415E-03 0.67044779E+02</pdfrwt>
<pdfrwt beam="2">  1       -1 0.27019856E-01 0.67044779E+02</pdfrwt>
<totfact> 0.15873945E+05</totfact>
</mgrwt>
</event>
<event>
 4    1  0.4029665E-002  0.8332384E+02  0.7818608E-02  0.1319875E+00
          1   -1    0    0    0  501  0.00000000000E+00  0.00000000000E+00  0.78604010422E+02  0.78604010584E+02  0.50400000000E-02 0.  1.
         -1   -1    0    0  501    0 -0.00000000000E+00 -0.00000000000E+00 -0.22081770361E+02  0.22081770937E+02  0.50400000000E-02 0.  1.
          2    1    1    2    0  502 -0.21200789155E+02 -0.29632714979E+02  0.52673257791E+02  0.64047196274E+02  0.25500000000E-02 0.  1.
         -2    1    1    2  502    0  0.21200789155E+02  0.29632714979E+02  0.38489822701E+01  0.36638585246E+02  0.25500000000E-02 0.  1.
<mgrwt>
<rscale>  0 0.83323844E+02</rscale>
<asrwt>0</asrwt>
<pdfrwt beam="1">  1        1 0.12092925E-01 0.83323844E+02</pdfrwt>
<pdfrwt beam="2">  1       -1 0.33971954E-02 0.83323844E+02</pdfrwt>
<totfact> 0.12844162E+05</totfact>
</mgrwt>
</event>
<event>
 4    1  0.4029665E-002  0.7969816E+02  0.7818608E-02  0.1329910E+00
          1   -1    0    0    0  501  0.00000000000E+00  0.00000000000E+00  0.10697378496E+04  0.10697378497E+04  0.50400000000E-02 0.  1.
         -1   -1    0    0  501    0 -0.00000000000E+00 -0.00000000000E+00 -0.14844238856E+01  0.14844324416E+01  0.50400000000E-02 0.  1.
          2    1    1    2    0  502  0.31942291184E+02  0.21358482885E+02  0.67602580767E+03  0.67711696729E+03  0.25500000000E-02 0.  1.
         -2    1    1    2  502    0 -0.31942291184E+02 -0.21358482885E+02  0.39222761809E+03  0.39410531480E+03  0.25500000000E-02 0.  1.
<mgrwt>
<rscale>  0 0.79698156E+02</rscale>
<asrwt>0</asrwt>
<pdfrwt beam="1">  1        1 0.16457560E+00 0.79698156E+02</pdfrwt>
<pdfrwt beam="2">  1       -1 0.22837281E-03 0.79698156E+02</pdfrwt>
<totfact> 0.18980654E+05</totfact>
</mgrwt>
</event>
<event>
 4    1  0.4029665E-002  0.5956545E+02  0.7818608E-02  0.1399664E+00
         -1   -1    0    0  501    0 -0.00000000000E+00  0.00000000000E+00  0.51558192776E+03  0.51558192778E+03  0.50400000000E-02 0.  1.
          1   -1    0    0    0  501  0.00000000000E+00 -0.00000000000E+00 -0.17204031318E+01  0.17204105142E+01  0.50400000000E-02 0.  1.
          2    1    1    2    0  502 -0.76105158834E+01 -0.20138777304E+02  0.78204993924E+02  0.81114187319E+02  0.25500000000E-02 0. -1.
         -2    1    1    2  502    0  0.76105158834E+01  0.20138777304E+02  0.43565653070E+03  0.43618815098E+03  0.25500000000E-02 0. -1.
<mgrwt>
<rscale>  0 0.59565449E+02</rscale>
<asrwt>0</asrwt>
<pdfrwt beam="2">  1        1 0.26467743E-03 0.59565449E+02</pdfrwt>
<pdfrwt beam="1">  1       -1 0.79320461E-01 0.59565449E+02</pdfrwt>
<totfact> 0.13814909E+05</totfact>
</mgrwt>
</event>
<event>
 4    1  0.4029665E-002  0.5074219E+02  0.7818608E-02  0.1441379E+00
          1   -1    0    0    0  501  0.00000000000E+00  0.00000000000E+00  0.15760251779E+04  0.15760251779E+04  0.50400000000E-02 0. -1.
         -1   -1    0    0  501    0 -0.00000000000E+00 -0.00000000000E+00 -0.40841223854E+00  0.40844333535E+00  0.50400000000E-02 0. -1.
          2    1    1    2    0  502 -0.23859624553E+02 -0.57360659577E+01  0.58764981593E+03  0.58816195924E+03  0.25500000000E-02 0.  1.
         -2    1    1    2  502    0  0.23859624553E+02  0.57360659577E+01  0.98796694969E+03  0.98827166195E+03  0.25500000000E-02 0.  1.
<mgrwt>
<rscale>  0 0.50742191E+02</rscale>
<asrwt>0</asrwt>
<pdfrwt beam="1">  1        1 0.24246725E+00 0.50742191E+02</pdfrwt>
<pdfrwt beam="2">  1       -1 0.62834570E-04 0.50742191E+02</pdfrwt>
<totfact> 0.47865848E+05</totfact>
</mgrwt>
</event>
<event>
 4    1  0.4029665E-002  0.4401522E+02  0.7818608E-02  0.1480585E+00
         -1   -1    0    0  501    0 -0.00000000000E+00  0.00000000000E+00  0.52165344350E+01  0.52165368698E+01  0.50400000000E-02 0. -1.
          1   -1    0    0    0  501  0.00000000000E+00 -0.00000000000E+00 -0.92846066372E+02  0.92846066509E+02  0.50400000000E-02 0. -1.
          2    1    1    2    0  502  0.15461979579E+02  0.15651755297E+02 -0.45003245714E+02  0.50093336759E+02  0.25500000000E-02 0.  1.
         -2    1    1    2  502    0 -0.15461979579E+02 -0.15651755297E+02 -0.42626286223E+02  0.47969266620E+02  0.25500000000E-02 0.  1.
<mgrwt>
<rscale>  0 0.44015217E+02</rscale>
<asrwt>0</asrwt>
<pdfrwt beam="2">  1        1 0.14284009E-01 0.44015217E+02</pdfrwt>
<pdfrwt beam="1">  1       -1 0.80254403E-03 0.44015217E+02</pdfrwt>
<totfact> 0.68827858E+05</totfact>
</mgrwt>
</event>
<event>
 4    1  0.4029665E-002  0.4245430E+02  0.7818608E-02  0.1490890E+00
          1   -1    0    0    0  501  0.00000000000E+00  0.00000000000E+00  0.92406861483E+02  0.92406861620E+02  0.50400000000E-02 0.  1.
         -1   -1    0    0  501    0 -0.00000000000E+00 -0.00000000000E+00 -0.48761721112E+01  0.48761747158E+01  0.50400000000E-02 0.  1.
          2    1    1    2    0  502  0.21059859608E+02 -0.12621785953E+01  0.49130095351E+02  0.53468467878E+02  0.25500000000E-02 0. -1.
         -2    1    1    2  502    0 -0.21059859608E+02  0.12621785953E+01  0.38400594020E+02  0.43814568458E+02  0.25500000000E-02 0. -1.
<mgrwt>
<rscale>  0 0.42454300E+02</rscale>
<asrwt>0</asrwt>
<pdfrwt beam="1">  1        1 0.14216439E-01 0.42454300E+02</pdfrwt>
<pdfrwt beam="2">  1       -1 0.75018061E-03 0.42454300E+02</pdfrwt>
<totfact> 0.75233916E+05</totfact>
</mgrwt>
</event>
<event>
 4    1  0.4029665E-002  0.6065196E+02  0.7818608E-02  0.1395116E+00
          1   -1    0    0    0  501  0.00000000000E+00  0.00000000000E+00  0.43008809173E+03  0.43008809176E+03  0.50400000000E-02 0. -1.
         -1   -1    0    0  501    0 -0.00000000000E+00 -0.00000000000E+00 -0.21383147915E+01  0.21383207312E+01  0.50400000000E-02 0. -1.
          2    1    1    2    0  502 -0.22144909906E+02 -0.10790953024E+02  0.87932673575E+02  0.91318107681E+02  0.25500000000E-02 0. -1.
         -2    1    1    2  502    0  0.22144909906E+02  0.10790953024E+02  0.34001710336E+03  0.34090830481E+03  0.25500000000E-02 0. -1.
<mgrwt>
<rscale>  0 0.60651959E+02</rscale>
<asrwt>0</asrwt>
<pdfrwt beam="1">  1        1 0.66167421E-01 0.60651959E+02</pdfrwt>
<pdfrwt beam="2">  1       -1 0.32897185E-03 0.60651959E+02</pdfrwt>
<totfact> 0.39350522E+05</totfact>
</mgrwt>
</event>
<event>
 4    1  0.4029665E-002  0.5032889E+02  0.7818608E-02  0.1443576E+00
          1   -1    0    0    0  501  0.00000000000E+00  0.00000000000E+00  0.92731225647E+00  0.92732595272E+00  0.50400000000E-02 0. -1.
         -1   -1    0    0  501    0 -0.00000000000E+00 -0.00000000000E+00 -0.68288163227E+03  0.68288163229E+03  0.50400000000E-02 0. -1.
          2    1    1    2    0  502  0.19139628224E+02  0.14301601953E+02 -0.23366028723E+03  0.23487867299E+03  0.25500000000E-02 0.  1.
         -2    1    1    2  502    0 -0.19139628224E+02 -0.14301601953E+02 -0.44829403279E+03  0.44893028526E+03  0.25500000000E-02 0.  1.
<mgrwt>
<rscale>  0 0.50328886E+02</rscale>
<asrwt>0</asrwt>
<pdfrwt beam="1">  1        1 0.14266502E-03 0.50328886E+02</pdfrwt>
<pdfrwt beam="2">  1       -1 0.10505831E+00 0.50328886E+02</pdfrwt>
<totfact> 0.17175737E+05</totfact>
</mgrwt>
</event>
<event>
 4    1  0.4029665E-002  0.6305537E+02  0.7818608E-02  0.1385439E+00
         -1   -1    0    0  501    0 -0.00000000000E+00  0.00000000000E+00  0.40957729921E+00  0.40960830756E+00  0.50400000000E-02 0.  1.
          1   -1    0    0    0  501  0.00000000000E+00 -0.00000000000E+00 -0.24267881021E+04  0.24267881021E+04  0.50400000000E-02 0.  1.
          2    1    1    2    0  502  0.29433102786E+02 -0.63476737615E+01 -0.15730421449E+04  0.15733302864E+04  0.25500000000E-02 0. -1.
         -2    1    1    2  502    0 -0.29433102786E+02  0.63476737615E+01 -0.85333637991E+03  0.85386742401E+03  0.25500000000E-02 0. -1.
<mgrwt>
<rscale>  0 0.63055371E+02</rscale>
<asrwt>0</asrwt>
<pdfrwt beam="2">  1        1 0.37334050E+00 0.63055371E+02</pdfrwt>
<pdfrwt beam="1">  1       -1 0.63016221E-04 0.63055371E+02</pdfrwt>
<totfact> 0.14713346E+05</totfact>
</mgrwt>
</event>
<event>
 4    1  0.4029665E-002  0.4938865E+02  0.7818608E-02  0.1448667E+00
          1   -1    0    0    0  501  0.00000000000E+00  0.00000000000E+00  0.48350662408E+02  0.48350662671E+02  0.50400000000E-02 0.  1.
         -1   -1    0    0  501    0 -0.00000000000E+00 -0.00000000000E+00 -0.12612230924E+02  0.12612231931E+02  0.50400000000E-02 0.  1.
          2    1    1    2    0  502  0.20763635235E+00  0.20248118123E+02  0.42245579520E+00  0.20253589207E+02  0.25500000000E-02 0.  1.
         -2    1    1    2  502    0 -0.20763635235E+00 -0.20248118123E+02  0.35315975689E+02  0.40709305395E+02  0.25500000000E-02 0.  1.
<mgrwt>
<rscale>  0 0.49388653E+02</rscale>
<asrwt>0</asrwt>
<pdfrwt beam="1">  1        1 0.74385635E-02 0.49388653E+02</pdfrwt>
<pdfrwt beam="2">  1       -1 0.19403433E-02 0.49388653E+02</pdfrwt>
<totfact> 0.47953315E+05</totfact>
</mgrwt>
</event>
<event>
 4    1  0.4029665E-002  0.8850839E+02  0.7818608E-02  0.1306505E+00
         -1   -1    0    0  501    0 -0.00000000000E+00  0.00000000000E+00  0.64363105833E+03  0.64363105835E+03  0.50400000000E-02 0. -1.
          1   -1    0    0    0  501  0.00000000000E+00 -0.00000000000E+00 -0.30427873933E+01  0.30427915674E+01  0.50400000000E-02 0. -1.
          2    1    1    2    0  502 -0.27436460187E+02  0.34710918682E+02  0.31365139020E+03  0.31675669181E+03  0.25500000000E-02 0. -1.
         -2    1    1    2  502    0  0.27436460187E+02 -0.34710918682E+02  0.32693688073E+03  0.32991715811E+03  0.25500000000E-02 0. -1.
<mgrwt>
<rscale>  0 0.88508391E+02</rscale>
<asrwt>0</asrwt>
<pdfrwt beam="2">  1        1 0.46812064E-03 0.88508391E+02</pdfrwt>
<pdfrwt beam="1">  1       -1 0.99020336E-01 0.88508391E+02</pdfrwt>
<totfact> 0.42660685E+04</totfact>
</mgrwt>
</event>
<event>
 4    1  0.4029665E-002  0.5400273E+02  0.7818608E-02  0.1424875E+00
         -1   -1    0    0  501    0 -0.00000000000E+00  0.00000000000E+00  0.13293434963E+01  0.13293530504E+01  0.50400000000E-02 0.  1.
          1   -1    0    0    0  501  0.00000000000E+00 -0.00000000000E+00 -0.54844445990E+03  0.54844445992E+03  0.50400000000E-02 0.  1.
          2    1    1    2    0  502  0.23513789193E+02 -0.12405666648E+02 -0.32160560924E+03  0.32270259799E+03  0.25500000000E-02 0. -1.
         -2    1    1    2  502    0 -0.23513789193E+02  0.12405666648E+02 -0.22550950716E+03  0.22707121498E+03  0.25500000000E-02 0. -1.
<mgrwt>
<rscale>  0 0.54002730E+02</rscale>
<asrwt>0</asrwt>
<pdfrwt beam="2">  1        1 0.84375891E-01 0.54002730E+02</pdfrwt>
<pdfrwt beam="1">  1       -1 0.20451556E-03 0.54002730E+02</pdfrwt>
<totfact> 0.54253516E+05</totfact>
</mgrwt>
</event>
<event>
 4    1  0.4029665E-002  0.7498303E+02  0.7818608E-02  0.1343924E+00
         -1   -1    0    0  501    0 -0.00000000000E+00  0.00000000000E+00  0.15977968228E+01  0.15978047717E+01  0.50400000000E-02 0. -1.
          1   -1    0    0    0  501  0.00000000000E+00 -0.00000000000E+00 -0.87971770915E+03  0.87971770916E+03  0.50400000000E-02 0. -1.
          2    1    1    2    0  502 -0.87017270018E+01  0.36144820955E+02 -0.49597124846E+03  0.49736269204E+03  0.25500000000E-02 0.  1.
         -2    1    1    2  502    0  0.87017270018E+01 -0.36144820955E+02 -0.38214866387E+03  0.38395282189E+03  0.25500000000E-02 0.  1.
<mgrwt>
<rscale>  0 0.74983029E+02</rscale>
<asrwt>0</asrwt>
<pdfrwt beam="2">  1        1 0.13534080E+00 0.74983029E+02</pdfrwt>
<pdfrwt beam="1">  1       -1 0.24581621E-03 0.74983029E+02</pdfrwt>
<totfact> 0.23309216E+05</totfact>
</mgrwt>
</event>
<event>
 4    1  0.4029665E-002  0.5792063E+02  0.7818608E-02  0.1406771E+00
         -1   -1    0    0  501    0 -0.00000000000E+00  0.00000000000E+00  0.25880272683E+03  0.25880272688E+03  0.50400000000E-02 0.  1.
          1   -1    0    0    0  501  0.00000000000E+00 -0.00000000000E+00 -0.32406895195E+01  0.32406934386E+01  0.50400000000E-02 0.  1.
          2    1    1    2    0  502  0.30120873639E+01  0.24976449110E+02  0.19268435505E+03  0.19431972717E+03  0.25500000000E-02 0.  1.
         -2    1    1    2  502    0 -0.30120873639E+01 -0.24976449110E+02  0.62877682261E+02  0.67723693147E+02  0.25500000000E-02 0.  1.
<mgrwt>
<rscale>  0 0.57920629E+02</rscale>
<asrwt>0</asrwt>
<pdfrwt beam="2">  1        1 0.49856781E-03 0.57920629E+02</pdfrwt>
<pdfrwt beam="1">  1       -1 0.39815813E-01 0.57920629E+02</pdfrwt>
<totfact> 0.20505797E+05</totfact>
</mgrwt>
</event>
<event>
 4    1  0.4029665E-002  0.4247040E+02  0.7818608E-02  0.1490781E+00
         -1   -1    0    0  501    0 -0.00000000000E+00  0.00000000000E+00  0.11727848354E+02  0.11727849437E+02  0.50400000000E-02 0. -1.
          1   -1    0    0    0  501  0.00000000000E+00 -0.00000000000E+00 -0.38449829666E+02  0.38449829997E+02  0.50400000000E-02 0. -1.
          2    1    1    2    0  502 -0.20961512264E+02 -0.33869211295E+01 -0.13690046285E+02  0.25264077362E+02  0.25500000000E-02 0.  1.
         -2    1    1    2  502    0  0.20961512264E+02  0.33869211295E+01 -0.13031935027E+02  0.24913602072E+02  0.25500000000E-02 0.  1.
<mgrwt>
<rscale>  0 0.42470404E+02</rscale>
<asrwt>0</asrwt>
<pdfrwt beam="2">  1        1 0.59153585E-02 0.42470404E+02</pdfrwt>
<pdfrwt beam="1">  1       -1 0.18042845E-02 0.42470404E+02</pdfrwt>
<totfact> 0.68819625E+05</totfact>
</mgrwt>
</event>
<event>
 4    1  0.4029665E-002  0.5729650E+02  0.7818608E-02  0.1409540E+00
          1   -1    0    0    0  501  0.00000000000E+00  0.00000000000E+00  0.21203770083E+03  0.21203770089E+03  0.50400000000E-02 0.  1.
         -1   -1    0    0  501    0 -0.00000000000E+00 -0.00000000000E+00 -0.38706417700E+01  0.38706450513E+01  0.50400000000E-02 0.  1.
          2    1    1    2    0  502 -0.16101177012E+02 -0.22512209831E+02  0.13194699175E+03  0.13481860455E+03  0.25500000000E-02 0.  1.
         -2    1    1    2  502    0  0.16101177012E+02  0.22512209831E+02  0.76220067303E+02  0.81089741390E+02  0.25500000000E-02 0.  1.
<mgrwt>
<rscale>  0 0.57296504E+02</rscale>
<asrwt>0</asrwt>
<pdfrwt beam="1">  1        1 0.32621178E-01 0.57296504E+02</pdfrwt>
<pdfrwt beam="2">  1       -1 0.59548373E-03 0.57296504E+02</pdfrwt>
<totfact> 0.40267304E+05</totfact>
</mgrwt>
</event>
<event>
 4    1  0.4029665E-002  0.4611837E+02  0.7818608E-02  0.1467478E+00
         -1   -1    0    0  501    0 -0.00000000000E+00  0.00000000000E+00  0.18635878922E+01  0.18635947075E+01  0.50400000000E-02 0.  1.
          1   -1    0    0    0  501  0.00000000000E+00 -0.00000000000E+00 -0.28532323906E+03  0.28532323910E+03  0.50400000000E-02 0.  1.
          2    1    1    2    0  502 -0.27630851085E+01  0.21486743736E+02 -0.92534754690E+02  0.95036811961E+02  0.25500000000E-02 0. -1.
         -2    1    1    2  502    0  0.27630851085E+01 -0.21486743736E+02 -0.19092489647E+03  0.19215002185E+03  0.25500000000E-02 0. -1.
<mgrwt>
<rscale>  0 0.46118366E+02</rscale>
<asrwt>0</asrwt>
<pdfrwt beam="2">  1        1 0.43895849E-01 0.46118366E+02</pdfrwt>
<pdfrwt beam="1">  1       -1 0.28670658E-03 0.46118366E+02</pdfrwt>
<totfact> 0.73123132E+05</totfact>
</mgrwt>
</event>
<event>
 4    1  0.4029665E-002  0.4206820E+02  0.7818608E-02  0.1493521E+00
         -1   -1    0    0  501    0 -0.00000000000E+00  0.00000000000E+00  0.31851782664E+01  0.31851822539E+01  0.50400000000E-02 0. -1.
          1   -1    0    0    0  501  0.00000000000E+00 -0.00000000000E+00 -0.13890368874E+03  0.13890368883E+03  0.50400000000E-02 0. -1.
          2    1    1    2    0  502 -0.84256565221E+01 -0.19272011490E+02 -0.67262855061E+02  0.70474774155E+02  0.25500000000E-02 0.  1.
         -2    1    1    2  502    0  0.84256565221E+01  0.19272011490E+02 -0.68455655409E+02  0.71614096927E+02  0.25500000000E-02 0.  1.
<mgrwt>
<rscale>  0 0.42068197E+02</rscale>
<asrwt>0</asrwt>
<pdfrwt beam="2">  1        1 0.21369794E-01 0.42068197E+02</pdfrwt>
<pdfrwt beam="1">  1       -1 0.49002785E-03 0.42068197E+02</pdfrwt>
<totfact> 0.81354924E+05</totfact>
</mgrwt>
</event>
<event>
 4    1  0.4029665E-002  0.2197922E+03  0.7818608E-02  0.1134038E+00
         -1   -1    0    0  501    0 -0.00000000000E+00  0.00000000000E+00  0.57850138795E+01  0.57850160749E+01  0.50400000000E-02 0.  1.
          1   -1    0    0    0  501  0.00000000000E+00 -0.00000000000E+00 -0.20876607180E+04  0.20876607180E+04  0.50400000000E-02 0.  1.
          2    1    1    2    0  502 -0.74229937149E+02 -0.74743475912E+02 -0.13391795637E+04  0.13433162601E+04  0.25500000000E-02 0.  1.
         -2    1    1    2  502    0  0.74229937149E+02  0.74743475912E+02 -0.74269614039E+03  0.75012947397E+03  0.25500000000E-02 0.  1.
<mgrwt>
<rscale>  0 0.21979216E+03</rscale>
<asrwt>0</asrwt>
<pdfrwt beam="2">  1        1 0.32117797E+00 0.21979216E+03</pdfrwt>
<pdfrwt beam="1">  1       -1 0.89000397E-03 0.21979216E+03</pdfrwt>
<totfact> 0.65665407E+03</totfact>
</mgrwt>
</event>
<event>
 4    1  0.4029665E-002  0.4297761E+02  0.7818608E-02  0.1487377E+00
         -1   -1    0    0  501    0 -0.00000000000E+00  0.00000000000E+00  0.47155581317E+03  0.47155581320E+03  0.50400000000E-02 0.  1.
          1   -1    0    0    0  501  0.00000000000E+00 -0.00000000000E+00 -0.97923864226E+00  0.97925161225E+00  0.50400000000E-02 0.  1.
          2    1    1    2    0  502  0.11137641434E+02  0.18376984695E+02  0.23429781101E+03  0.23528116133E+03  0.25500000000E-02 0. -1.
         -2    1    1    2  502    0 -0.11137641434E+02 -0.18376984695E+02  0.23627876352E+03  0.23725390348E+03  0.25500000000E-02 0. -1.
<mgrwt>
<rscale>  0 0.42977610E+02</rscale>
<asrwt>0</asrwt>
<pdfrwt beam="2">  1        1 0.15065313E-03 0.42977610E+02</pdfrwt>
<pdfrwt beam="1">  1       -1 0.72547034E-01 0.42977610E+02</pdfrwt>
<totfact> 0.32761503E+05</totfact>
</mgrwt>
</event>
<event>
 4    1  0.4029665E-002  0.4335820E+02  0.7818608E-02  0.1484859E+00
          1   -1    0    0    0  501  0.00000000000E+00  0.00000000000E+00  0.24317941772E+04  0.24317941772E+04  0.50400000000E-02 0. -1.
         -1   -1    0    0  501    0 -0.00000000000E+00 -0.00000000000E+00 -0.19323319849E+00  0.19329891515E+00  0.50400000000E-02 0. -1.
          2    1    1    2    0  502  0.20019784692E+02 -0.71399354816E+01  0.97642550536E+03  0.97665681689E+03  0.25500000000E-02 0.  1.
         -2    1    1    2  502    0 -0.20019784692E+02  0.71399354816E+01  0.14551754386E+04  0.14553306592E+04  0.25500000000E-02 0.  1.
<mgrwt>
<rscale>  0 0.43358196E+02</rscale>
<asrwt>0</asrwt>
<pdfrwt beam="1">  1        1 0.37409042E+00 0.43358196E+02</pdfrwt>
<pdfrwt beam="2">  1       -1 0.29735765E-04 0.43358196E+02</pdfrwt>
<totfact> 0.37881153E+05</totfact>
</mgrwt>
</event>
<event>
 4    1  0.4029665E-002  0.4080919E+02  0.7818608E-02  0.1502340E+00
          1   -1    0    0    0  501  0.00000000000E+00  0.00000000000E+00  0.34609879388E+03  0.34609879392E+03  0.50400000000E-02 0.  1.
         -1   -1    0    0  501    0 -0.00000000000E+00 -0.00000000000E+00 -0.12029678363E+01  0.12029783941E+01  0.50400000000E-02 0.  1.
          2    1    1    2    0  502 -0.23820557745E+01 -0.20197128721E+02  0.15833670545E+03  0.15963743451E+03  0.25500000000E-02 0.  1.
         -2    1    1    2  502    0  0.23820557745E+01  0.20197128721E+02  0.18655912059E+03  0.18766433780E+03  0.25500000000E-02 0.  1.
<mgrwt>
<rscale>  0 0.40809193E+02</rscale>
<asrwt>0</asrwt>
<pdfrwt beam="1">  1        1 0.53245910E-01 0.40809193E+02</pdfrwt>
<pdfrwt beam="2">  1       -1 0.18507299E-03 0.40809193E+02</pdfrwt>
<totfact> 0.10191928E+06</totfact>
</mgrwt>
</event>
<event>
 4    1  0.4029665E-002  0.6465575E+02  0.7818608E-02  0.1379271E+00
         -1   -1    0    0  501    0 -0.00000000000E+00  0.00000000000E+00  0.19562709226E+01  0.19562774150E+01  0.50400000000E-02 0. -1.
          1   -1    0    0    0  501  0.00000000000E+00 -0.00000000000E+00 -0.53422553811E+03  0.53422553813E+03  0.50400000000E-02 0. -1.
          2    1    1    2    0  502  0.21501415700E+02  0.24109352499E+02 -0.25591092733E+03  0.25794180446E+03  0.25500000000E-02 0.  1.
         -2    1    1    2  502    0 -0.21501415700E+02 -0.24109352499E+02 -0.27635833985E+03  0.27824001108E+03  0.25500000000E-02 0.  1.
<mgrwt>
<rscale>  0 0.64655754E+02</rscale>
<asrwt>0</asrwt>
<pdfrwt beam="2">  1        1 0.82188429E-01 0.64655754E+02</pdfrwt>
<pdfrwt beam="1">  1       -1 0.30096568E-03 0.64655754E+02</pdfrwt>
<totfact> 0.34318733E+05</totfact>
</mgrwt>
</event>
<event>
 4    1  0.4029665E-002  0.4216071E+02  0.7818608E-02  0.1492887E+00
          1   -1    0    0    0  501  0.00000000000E+00  0.00000000000E+00  0.35821036588E+01  0.35821072044E+01  0.50400000000E-02 0. -1.
         -1   -1    0    0  501    0 -0.00000000000E+00 -0.00000000000E+00 -0.12405591544E+03  0.12405591554E+03  0.50400000000E-02 0. -1.
          2    1    1    2    0  502 -0.13551427433E+02 -0.14807001939E+02 -0.40735813017E+02  0.45412497845E+02  0.25500000000E-02 0. -1.
         -2    1    1    2  502    0  0.13551427433E+02  0.14807001939E+02 -0.79737998765E+02  0.82225524902E+02  0.25500000000E-02 0. -1.
<mgrwt>
<rscale>  0 0.42160711E+02</rscale>
<asrwt>0</asrwt>
<pdfrwt beam="1">  1        1 0.55109325E-03 0.42160711E+02</pdfrwt>
<pdfrwt beam="2">  1       -1 0.19085522E-01 0.42160711E+02</pdfrwt>
<totfact> 0.54424762E+05</totfact>
</mgrwt>
</event>
<event>
 4    1  0.4029665E-002  0.9111525E+02  0.7818608E-02  0.1300173E+00
         -1   -1    0    0  501    0 -0.00000000000E+00  0.00000000000E+00  0.79106591081E+01  0.79106607136E+01  0.50400000000E-02 0.  1.
          1   -1    0    0    0  501  0.00000000000E+00 -0.00000000000E+00 -0.26236715265E+03  0.26236715270E+03  0.50400000000E-02 0.  1.
          2    1    1    2    0  502 -0.31097339035E+02  0.13852072974E+02 -0.21703372262E+03  0.21968741699E+03  0.25500000000E-02 0.  1.
         -2    1    1    2  502    0  0.31097339035E+02 -0.13852072974E+02 -0.37422770925E+02  0.50590396430E+02  0.25500000000E-02 0.  1.
<mgrwt>
<rscale>  0 0.91115253E+02</rscale>
<asrwt>0</asrwt>
<pdfrwt beam="2">  1        1 0.40364171E-01 0.91115253E+02</pdfrwt>
<pdfrwt beam="1">  1       -1 0.12170248E-02 0.91115253E+02</pdfrwt>
<totfact> 0.12506658E+05</totfact>
</mgrwt>
</event>
<event>
 4    1  0.4029665E-002  0.6230468E+02  0.7818608E-02  0.1388407E+00
          1   -1    0    0    0  501  0.00000000000E+00  0.00000000000E+00  0.93639344583E+03  0.93639344585E+03  0.50400000000E-02 0.  1.
         -1   -1    0    0  501    0 -0.00000000000E+00 -0.00000000000E+00 -0.10363833914E+01  0.10363956462E+01  0.50400000000E-02 0.  1.
          2    1    1    2    0  502  0.58729991463E+01  0.30348540541E+02  0.52583890721E+03  0.52674669659E+03  0.25500000000E-02 0.  1.
         -2    1    1    2  502    0 -0.58729991463E+01 -0.30348540541E+02  0.40951815523E+03  0.41068314490E+03  0.25500000000E-02 0.  1.
<mgrwt>
<rscale>  0 0.62304683E+02</rscale>
<asrwt>0</asrwt>
<pdfrwt beam="1">  1        1 0.14406100E+00 0.62304683E+02</pdfrwt>
<pdfrwt beam="2">  1       -1 0.15944402E-03 0.62304683E+02</pdfrwt>
<totfact> 0.37083336E+05</totfact>
</mgrwt>
</event>
<event>
 4    1  0.4029665E-002  0.9102650E+02  0.7818608E-02  0.1300385E+00
         -1   -1    0    0  501    0 -0.00000000000E+00  0.00000000000E+00  0.73896945415E+01  0.73896962602E+01  0.50400000000E-02 0. -1.
          1   -1    0    0    0  501  0.00000000000E+00 -0.00000000000E+00 -0.28031679880E+03  0.28031679884E+03  0.50400000000E-02 0. -1.
          2    1    1    2    0  502  0.91562047163E+01  0.44513239689E+02 -0.14432800115E+03  0.15131370234E+03  0.25500000000E-02 0. -1.
         -2    1    1    2  502    0 -0.91562047163E+01 -0.44513239689E+02 -0.12859910311E+03  0.13639279277E+03  0.25500000000E-02 0. -1.
<mgrwt>
<rscale>  0 0.91026497E+02</rscale>
<asrwt>0</asrwt>
<pdfrwt beam="2">  1        1 0.43125653E-01 0.91026497E+02</pdfrwt>
<pdfrwt beam="1">  1       -1 0.11368764E-02 0.91026497E+02</pdfrwt>
<totfact> 0.12701894E+05</totfact>
</mgrwt>
</event>
<event>
 4    1  0.4029665E-002  0.5806003E+02  0.7818608E-02  0.1406158E+00
         -1   -1    0    0  501    0 -0.00000000000E+00  0.00000000000E+00  0.25698520432E+01  0.25698569854E+01  0.50400000000E-02 0.  1.
          1   -1    0    0    0  501  0.00000000000E+00 -0.00000000000E+00 -0.32793366123E+03  0.32793366127E+03  0.50400000000E-02 0.  1.
          2    1    1    2    0  502  0.24633986641E+02  0.34930786249E+01 -0.77540949101E+02  0.81434843219E+02  0.25500000000E-02 0. -1.
         -2    1    1    2  502    0 -0.24633986641E+02 -0.34930786249E+01 -0.24782286009E+03  0.24906867504E+03  0.25500000000E-02 0. -1.
<mgrwt>
<rscale>  0 0.58060031E+02</rscale>
<asrwt>0</asrwt>
<pdfrwt beam="2">  1        1 0.50451300E-01 0.58060031E+02</pdfrwt>
<pdfrwt beam="1">  1       -1 0.39536250E-03 0.58060031E+02</pdfrwt>
<totfact> 0.42094613E+05</totfact>
</mgrwt>
</event>
<event>
 4    1  0.4029665E-002  0.1073658E+03  0.7818608E-02  0.1265527E+00
          1   -1    0    0    0  501  0.00000000000E+00  0.00000000000E+00  0.11886459638E+02  0.11886460706E+02  0.50400000000E-02 0.  1.
         -1   -1    0    0  501    0 -0.00000000000E+00 -0.00000000000E+00 -0.24244824810E+03  0.24244824816E+03  0.50400000000E-02 0.  1.
          2    1    1    2    0  502 -0.11343914744E+02 -0.50239892420E+02 -0.79424089467E+02  0.94662121180E+02  0.25500000000E-02 0. -1.
         -2    1    1    2  502    0  0.11343914744E+02  0.50239892420E+02 -0.15113769900E+03  0.15967258768E+03  0.25500000000E-02 0. -1.
<mgrwt>
<rscale>  0 0.10736576E+03</rscale>
<asrwt>0</asrwt>
<pdfrwt beam="1">  1        1 0.18286864E-02 0.10736576E+03</pdfrwt>
<pdfrwt beam="2">  1       -1 0.37299727E-01 0.10736576E+03</pdfrwt>
<totfact> 0.42612495E+04</totfact>
</mgrwt>
</event>
<event>
 4    1  0.4029665E-002  0.5759345E+02  0.7818608E-02  0.1408218E+00
         -1   -1    0    0  501    0 -0.00000000000E+00  0.00000000000E+00  0.28942451564E+01  0.28942495447E+01  0.50400000000E-02 0. -1.
          1   -1    0    0    0  501  0.00000000000E+00 -0.00000000000E+00 -0.28651713016E+03  0.28651713020E+03  0.50400000000E-02 0. -1.
          2    1    1    2    0  502  0.21842689408E+02  0.13390675433E+02 -0.20787505696E+03  0.20944797106E+03  0.25500000000E-02 0.  1.
         -2    1    1    2  502    0 -0.21842689408E+02 -0.13390675433E+02 -0.75747828047E+02  0.79963408691E+02  0.25500000000E-02 0.  1.
<mgrwt>
<rscale>  0 0.57593453E+02</rscale>
<asrwt>0</asrwt>
<pdfrwt beam="2">  1        1 0.44079537E-01 0.57593453E+02</pdfrwt>
<pdfrwt beam="1">  1       -1 0.44526905E-03 0.57593453E+02</pdfrwt>
<totfact> 0.41953513E+05</totfact>
</mgrwt>
</event>
<event>
 4    1  0.4029665E-002  0.4611243E+02  0.7818608E-02  0.1467514E+00
         -1   -1    0    0  501    0 -0.00000000000E+00  0.00000000000E+00  0.38993364003E+00  0.38996621037E+00  0.50400000000E-02 0.  1.
          1   -1    0    0    0  501  0.00000000000E+00 -0.00000000000E+00 -0.13632239706E+04  0.13632239707E+04  0.50400000000E-02 0.  1.
          2    1    1    2    0  502 -0.54134467941E+01 -0.20824122933E+02 -0.92641400441E+03  0.92666383175E+03  0.25500000000E-02 0. -1.
         -2    1    1    2  502    0  0.54134467941E+01  0.20824122933E+02 -0.43642003260E+03  0.43695010512E+03  0.25500000000E-02 0. -1.
<mgrwt>
<rscale>  0 0.46112432E+02</rscale>
<asrwt>0</asrwt>
<pdfrwt beam="2">  1        1 0.20972295E+00 0.46112432E+02</pdfrwt>
<pdfrwt beam="1">  1       -1 0.59993388E-04 0.46112432E+02</pdfrwt>
<totfact> 0.67793169E+05</totfact>
</mgrwt>
</event>
<event>
 4    1  0.4029665E-002  0.4957552E+02  0.7818608E-02  0.1447645E+00
         -1   -1    0    0  501    0 -0.00000000000E+00  0.00000000000E+00  0.21193744122E+02  0.21193744721E+02  0.50400000000E-02 0.  1.
          1   -1    0    0    0  501  0.00000000000E+00 -0.00000000000E+00 -0.28991241072E+02  0.28991241510E+02  0.50400000000E-02 0.  1.
          2    1    1    2    0  502 -0.23338525719E+02  0.52828655707E+01 -0.10446459267E+02  0.26109844295E+02  0.25500000000E-02 0.  1.
         -2    1    1    2  502    0  0.23338525719E+02 -0.52828655707E+01  0.26489623170E+01  0.24075141936E+02  0.25500000000E-02 0.  1.
<mgrwt>
<rscale>  0 0.49575517E+02</rscale>
<asrwt>0</asrwt>
<pdfrwt beam="2">  1        1 0.44601910E-02 0.49575517E+02</pdfrwt>
<pdfrwt beam="1">  1       -1 0.32605761E-02 0.49575517E+02</pdfrwt>
<totfact> 0.45310710E+05</totfact>
</mgrwt>
</event>
<event>
 4    1  0.4029665E-002  0.4188790E+02  0.7818608E-02  0.1494761E+00
          1   -1    0    0    0  501  0.00000000000E+00  0.00000000000E+00  0.43027985020E+03  0.43027985023E+03  0.50400000000E-02 0. -1.
         -1   -1    0    0  501    0 -0.00000000000E+00 -0.00000000000E+00 -0.10194443314E+01  0.10194567899E+01  0.50400000000E-02 0. -1.
          2    1    1    2    0  502 -0.18041657588E+02  0.10461922604E+02  0.23442471710E+03  0.23535059216E+03  0.25500000000E-02 0.  1.
         -2    1    1    2  502    0  0.18041657588E+02 -0.10461922604E+02  0.19483568877E+03  0.19594871487E+03  0.25500000000E-02 0.  1.
<mgrwt>
<rscale>  0 0.41887900E+02</rscale>
<asrwt>0</asrwt>
<pdfrwt beam="1">  1        1 0.66197034E-01 0.41887900E+02</pdfrwt>
<pdfrwt beam="2">  1       -1 0.15683824E-03 0.41887900E+02</pdfrwt>
<totfact> 0.98838150E+05</totfact>
</mgrwt>
</event>
<event>
 4    1  0.4029665E-002  0.4501760E+02  0.7818608E-02  0.1474232E+00
         -1   -1    0    0  501    0 -0.00000000000E+00  0.00000000000E+00  0.25576407526E+02  0.25576408023E+02  0.50400000000E-02 0. -1.
          1   -1    0    0    0  501  0.00000000000E+00 -0.00000000000E+00 -0.19809120992E+02  0.19809121633E+02  0.50400000000E-02 0. -1.
          2    1    1    2    0  502 -0.20322693090E+02  0.33583259606E+01  0.12032831273E+02  0.23855381838E+02  0.25500000000E-02 0. -1.
         -2    1    1    2  502    0  0.20322693090E+02 -0.33583259606E+01 -0.62655447383E+01  0.21530147818E+02  0.25500000000E-02 0. -1.
<mgrwt>
<rscale>  0 0.45017604E+02</rscale>
<asrwt>0</asrwt>
<pdfrwt beam="2">  1        1 0.30475571E-02 0.45017604E+02</pdfrwt>
<pdfrwt beam="1">  1       -1 0.39348320E-02 0.45017604E+02</pdfrwt>
<totfact> 0.56249935E+05</totfact>
</mgrwt>
</event>
<event>
 4    1  0.4029665E-002  0.4467134E+02  0.7818608E-02  0.1476404E+00
         -1   -1    0    0  501    0 -0.00000000000E+00  0.00000000000E+00  0.49302476025E+03  0.49302476027E+03  0.50400000000E-02 0. -1.
          1   -1    0    0    0  501  0.00000000000E+00 -0.00000000000E+00 -0.10118742715E+01  0.10118868232E+01  0.50400000000E-02 0. -1.
          2    1    1    2    0  502 -0.78260433951E+01  0.19848077038E+02  0.31910629402E+03  0.31981872991E+03  0.25500000000E-02 0.  1.
         -2    1    1    2  502    0  0.78260433951E+01 -0.19848077038E+02  0.17290659196E+03  0.17421791718E+03  0.25500000000E-02 0.  1.
<mgrwt>
<rscale>  0 0.44671341E+02</rscale>
<asrwt>0</asrwt>
<pdfrwt beam="2">  1        1 0.15567387E-03 0.44671341E+02</pdfrwt>
<pdfrwt beam="1">  1       -1 0.75849993E-01 0.44671341E+02</pdfrwt>
<totfact> 0.29034717E+05</totfact>
</mgrwt>
</event>
<event>
 4    1  0.4029665E-002  0.7170377E+02  0.7818608E-02  0.1354393E+00
          1   -1    0    0    0  501  0.00000000000E+00  0.00000000000E+00  0.16191921155E+04  0.16191921155E+04  0.50400000000E-02 0.  1.
         -1   -1    0    0  501    0 -0.00000000000E+00 -0.00000000000E+00 -0.79381843505E+00  0.79383443452E+00  0.50400000000E-02 0.  1.
          2    1    1    2    0  502  0.21935309905E+02  0.28163888265E+02  0.88411412191E+03  0.88483452859E+03  0.25500000000E-02 0.  1.
         -2    1    1    2  502    0 -0.21935309905E+02 -0.28163888265E+02  0.73428417518E+03  0.73515142137E+03  0.25500000000E-02 0.  1.
<mgrwt>
<rscale>  0 0.71703766E+02</rscale>
<asrwt>0</asrwt>
<pdfrwt beam="1">  1        1 0.24910421E+00 0.71703766E+02</pdfrwt>
<pdfrwt beam="2">  1       -1 0.12212826E-03 0.71703766E+02</pdfrwt>
<totfact> 0.19368954E+05</totfact>
</mgrwt>
</event>
<event>
 4    1  0.4029665E-002  0.4496398E+02  0.7818608E-02  0.1474567E+00
         -1   -1    0    0  501    0 -0.00000000000E+00  0.00000000000E+00  0.37198434400E+00  0.37201848580E+00  0.50400000000E-02 0. -1.
          1   -1    0    0    0  501  0.00000000000E+00 -0.00000000000E+00 -0.13587043107E+04  0.13587043107E+04  0.50400000000E-02 0. -1.
          2    1    1    2    0  502  0.20538861178E+02  0.56993761992E+01 -0.46307278095E+03  0.46356307895E+03  0.25500000000E-02 0. -1.
         -2    1    1    2  502    0 -0.20538861178E+02 -0.56993761992E+01 -0.89525954541E+03  0.89551325025E+03  0.25500000000E-02 0. -1.
<mgrwt>
<rscale>  0 0.44963983E+02</rscale>
<asrwt>0</asrwt>
<pdfrwt beam="2">  1        1 0.20902746E+00 0.44963983E+02</pdfrwt>
<pdfrwt beam="1">  1       -1 0.57232076E-04 0.44963983E+02</pdfrwt>
<totfact> 0.72291711E+05</totfact>
</mgrwt>
</event>
<event>
 4    1  0.4029665E-002  0.4955010E+02  0.7818608E-02  0.1447783E+00
          1   -1    0    0    0  501  0.00000000000E+00  0.00000000000E+00  0.32828834361E+01  0.32828873049E+01  0.50400000000E-02 0. -1.
         -1   -1    0    0  501    0 -0.00000000000E+00 -0.00000000000E+00 -0.18697061208E+03  0.18697061215E+03  0.50400000000E-02 0. -1.
          2    1    1    2    0  502  0.13381782989E+02  0.20783484129E+02 -0.85444514349E+02  0.88948245443E+02  0.25500000000E-02 0.  1.
         -2    1    1    2  502    0 -0.13381782989E+02 -0.20783484129E+02 -0.98243214298E+02  0.10130525401E+03  0.25500000000E-02 0.  1.
<mgrwt>
<rscale>  0 0.49550100E+02</rscale>
<asrwt>0</asrwt>
<pdfrwt beam="1">  1        1 0.50505944E-03 0.49550100E+02</pdfrwt>
<pdfrwt beam="2">  1       -1 0.28764702E-01 0.49550100E+02</pdfrwt>
<totfact> 0.33384691E+05</totfact>
</mgrwt>
</event>
<event>
 4    1  0.4029665E-002  0.4020437E+02  0.7818608E-02  0.1506713E+00
         -1   -1    0    0  501    0 -0.00000000000E+00  0.00000000000E+00  0.37112054314E+00  0.37115476440E+00  0.50400000000E-02 0. -1.
          1   -1    0    0    0  501  0.00000000000E+00 -0.00000000000E+00 -0.10888083413E+04  0.10888083413E+04  0.50400000000E-02 0. -1.
          2    1    1    2    0  502 -0.21364310731E+01  0.19928593719E+02 -0.58605300160E+03  0.58639562914E+03  0.25500000000E-02 0.  1.
         -2    1    1    2  502    0  0.21364310731E+01 -0.19928593719E+02 -0.50238421912E+03  0.50278386690E+03  0.25500000000E-02 0.  1.
<mgrwt>
<rscale>  0 0.40204367E+02</rscale>
<asrwt>0</asrwt>
<pdfrwt beam="2">  1        1 0.16750642E+00 0.40204367E+02</pdfrwt>
<pdfrwt beam="1">  1       -1 0.57098973E-04 0.40204367E+02</pdfrwt>
<totfact> 0.10560286E+06</totfact>
</mgrwt>
</event>
<event>
 4    1  0.4029665E-002  0.5252885E+02  0.7818608E-02  0.1432160E+00
          1   -1    0    0    0  501  0.00000000000E+00  0.00000000000E+00  0.15998353939E+04  0.15998353939E+04  0.50400000000E-02 0. -1.
         -1   -1    0    0  501    0 -0.00000000000E+00 -0.00000000000E+00 -0.43116708882E+00  0.43119654461E+00  0.50400000000E-02 0. -1.
          2    1    1    2    0  502 -0.16098274228E+02 -0.20267580960E+02  0.93557072548E+03  0.93592868940E+03  0.25500000000E-02 0. -1.
         -2    1    1    2  502    0  0.16098274228E+02  0.20267580960E+02  0.66383350129E+03  0.66433790100E+03  0.25500000000E-02 0. -1.
<mgrwt>
<rscale>  0 0.52528847E+02</rscale>
<asrwt>0</asrwt>
<pdfrwt beam="1">  1        1 0.24612840E+00 0.52528847E+02</pdfrwt>
<pdfrwt beam="2">  1       -1 0.66335697E-04 0.52528847E+02</pdfrwt>
<totfact> 0.43296666E+05</totfact>
</mgrwt>
</event>
<event>
 4    1  0.4029665E-002  0.5752660E+02  0.7818608E-02  0.1408515E+00
          1   -1    0    0    0  501  0.00000000000E+00  0.00000000000E+00  0.13503645309E+03  0.13503645318E+03  0.50400000000E-02 0.  1.
         -1   -1    0    0  501    0 -0.00000000000E+00 -0.00000000000E+00 -0.61266966270E+01  0.61266987000E+01  0.50400000000E-02 0.  1.
          2    1    1    2    0  502  0.28696660720E+02  0.47760393110E+00  0.59798273602E+02  0.66329178905E+02  0.25500000000E-02 0.  1.
         -2    1    1    2  502    0 -0.28696660720E+02 -0.47760393110E+00  0.69111482859E+02  0.74833972976E+02  0.25500000000E-02 0.  1.
<mgrwt>
<rscale>  0 0.57526604E+02</rscale>
<asrwt>0</asrwt>
<pdfrwt beam="1">  1        1 0.20774838E-01 0.57526604E+02</pdfrwt>
<pdfrwt beam="2">  1       -1 0.94256892E-03 0.57526604E+02</pdfrwt>
<totfact> 0.36934445E+05</totfact>
</mgrwt>
</event>
<event>
 4    1  0.4029665E-002  0.8280910E+02  0.7818608E-02  0.1321263E+00
          1   -1    0    0    0  501  0.00000000000E+00  0.00000000000E+00  0.60436876640E+01  0.60436897655E+01  0.50400000000E-02 0.  1.
         -1   -1    0    0  501    0 -0.00000000000E+00 -0.00000000000E+00 -0.28365734407E+03  0.28365734411E+03  0.50400000000E-02 0.  1.
          2    1    1    2    0  502 -0.20682168194E+02 -0.21013463680E+02 -0.37110513694E+02  0.47397341383E+02  0.25500000000E-02 0.  1.
         -2    1    1    2  502    0  0.20682168194E+02  0.21013463680E+02 -0.24050314271E+03  0.24230369250E+03  0.25500000000E-02 0.  1.
<mgrwt>
<rscale>  0 0.82809099E+02</rscale>
<asrwt>0</asrwt>
<pdfrwt beam="1">  1        1 0.92979848E-03 0.82809099E+02</pdfrwt>
<pdfrwt beam="2">  1       -1 0.43639581E-01 0.82809099E+02</pdfrwt>
<totfact> 0.79544270E+04</totfact>
</mgrwt>
</event>
<event>
 4    1  0.4029665E-002  0.5232553E+02  0.7818608E-02  0.1433187E+00
         -1   -1    0    0  501    0 -0.00000000000E+00  0.00000000000E+00  0.24169327659E+01  0.24169380208E+01  0.50400000000E-02 0.  1.
          1   -1    0    0    0  501  0.00000000000E+00 -0.00000000000E+00 -0.28320584589E+03  0.28320584594E+03  0.50400000000E-02 0.  1.
          2    1    1    2    0  502  0.20876679258E+02 -0.69403545237E+01 -0.21768408609E+03  0.21879297429E+03  0.25500000000E-02 0. -1.
         -2    1    1    2  502    0 -0.20876679258E+02  0.69403545237E+01 -0.63104827038E+02  0.66829809664E+02  0.25500000000E-02 0. -1.
<mgrwt>
<rscale>  0 0.52325529E+02</rscale>
<asrwt>0</asrwt>
<pdfrwt beam="2">  1        1 0.43570104E-01 0.52325529E+02</pdfrwt>
<pdfrwt beam="1">  1       -1 0.37183644E-03 0.52325529E+02</pdfrwt>
<totfact> 0.53330162E+05</totfact>
</mgrwt>
</event>
<event>
 4    1  0.4029665E-002  0.4861749E+02  0.7818608E-02  0.1452944E+00
         -1   -1    0    0  501    0 -0.00000000000E+00  0.00000000000E+00  0.79184635316E+02  0.79184635477E+02  0.50400000000E-02 0. -1.
          1   -1    0    0    0  501  0.00000000000E+00 -0.00000000000E+00 -0.74624956392E+01  0.74624973411E+01  0.50400000000E-02 0. -1.
          2    1    1    2    0  502 -0.22787345473E+02  0.82408435503E+01  0.39307931166E+02  0.46176704898E+02  0.25500000000E-02 0.  1.
         -2    1    1    2  502    0  0.22787345473E+02 -0.82408435503E+01  0.32414208511E+02  0.40470427920E+02  0.25500000000E-02 0.  1.
<mgrwt>
<rscale>  0 0.48617490E+02</rscale>
<asrwt>0</asrwt>
<pdfrwt beam="2">  1        1 0.11480763E-02 0.48617490E+02</pdfrwt>
<pdfrwt beam="1">  1       -1 0.12182252E-01 0.48617490E+02</pdfrwt>
<totfact> 0.41342337E+05</totfact>
</mgrwt>
</event>
<event>
 4    1  0.4029665E-002  0.9726235E+02  0.7818608E-02  0.1286160E+00
         -1   -1    0    0  501    0 -0.00000000000E+00  0.00000000000E+00  0.70207744439E+01  0.70207762530E+01  0.50400000000E-02 0. -1.
          1   -1    0    0    0  501  0.00000000000E+00 -0.00000000000E+00 -0.33685614467E+03  0.33685614471E+03  0.50400000000E-02 0. -1.
          2    1    1    2    0  502  0.15317942242E+02 -0.32298086309E+02 -0.48341429746E+02  0.60122371627E+02  0.25500000000E-02 0.  1.
         -2    1    1    2  502    0 -0.15317942242E+02  0.32298086309E+02 -0.28149394048E+03  0.28375454933E+03  0.25500000000E-02 0.  1.
<mgrwt>
<rscale>  0 0.97262353E+02</rscale>
<asrwt>0</asrwt>
<pdfrwt beam="2">  1        1 0.51824010E-01 0.97262353E+02</pdfrwt>
<pdfrwt beam="1">  1       -1 0.10801195E-02 0.97262353E+02</pdfrwt>
<totfact> 0.11017572E+05</totfact>
</mgrwt>
</event>
<event>
 4    1  0.4029665E-002  0.4188834E+02  0.7818608E-02  0.1494758E+00
         -1   -1    0    0  501    0 -0.00000000000E+00  0.00000000000E+00  0.43955823819E+00  0.43958713171E+00  0.50400000000E-02 0. -1.
          1   -1    0    0    0  501  0.00000000000E+00 -0.00000000000E+00 -0.99791987313E+03  0.99791987314E+03  0.50400000000E-02 0. -1.
          2    1    1    2    0  502  0.35615549759E+01 -0.20634626378E+02 -0.50901484740E+03  0.50944537231E+03  0.25500000000E-02 0.  1.
         -2    1    1    2  502    0 -0.35615549759E+01  0.20634626378E+02 -0.48846546749E+03  0.48891408797E+03  0.25500000000E-02 0.  1.
<mgrwt>
<rscale>  0 0.41888344E+02</rscale>
<asrwt>0</asrwt>
<pdfrwt beam="2">  1        1 0.15352432E+00 0.41888344E+02</pdfrwt>
<pdfrwt beam="1">  1       -1 0.67627367E-04 0.41888344E+02</pdfrwt>
<totfact> 0.98096832E+05</totfact>
</mgrwt>
</event>
<event>
 4    1  0.4029665E-002  0.8029100E+02  0.7818608E-02  0.1328228E+00
          1   -1    0    0    0  501  0.00000000000E+00  0.00000000000E+00  0.19465427585E+01  0.19465492833E+01  0.50400000000E-02 0.  1.
         -1   -1    0    0  501    0 -0.00000000000E+00 -0.00000000000E+00 -0.82795942205E+03  0.82795942206E+03  0.50400000000E-02 0.  1.
          2    1    1    2    0  502 -0.21679715458E+02 -0.31664061330E+02 -0.29112734352E+03  0.29364562485E+03  0.25500000000E-02 0. -1.
         -2    1    1    2  502    0  0.21679715458E+02  0.31664061330E+02 -0.53488553577E+03  0.53626034649E+03  0.25500000000E-02 0. -1.
<mgrwt>
<rscale>  0 0.80290999E+02</rscale>
<asrwt>0</asrwt>
<pdfrwt beam="1">  1        1 0.29946928E-03 0.80290999E+02</pdfrwt>
<pdfrwt beam="2">  1       -1 0.12737809E+00 0.80290999E+02</pdfrwt>
<totfact> 0.44013381E+04</totfact>
</mgrwt>
</event>
<event>
 4    1  0.4029665E-002  0.4314729E+02  0.7818608E-02  0.1486251E+00
          1   -1    0    0    0  501  0.00000000000E+00  0.00000000000E+00  0.12347788298E+03  0.12347788308E+03  0.50400000000E-02 0.  1.
         -1   -1    0    0  501    0 -0.00000000000E+00 -0.00000000000E+00 -0.37692744223E+01  0.37692777918E+01  0.50400000000E-02 0.  1.
          2    1    1    2    0  502  0.20285929847E+02  0.50824545817E+01  0.44228916754E+02  0.48923893733E+02  0.25500000000E-02 0. -1.
         -2    1    1    2  502    0 -0.20285929847E+02 -0.50824545817E+01  0.75479691800E+02  0.78323267137E+02  0.25500000000E-02 0. -1.
<mgrwt>
<rscale>  0 0.43147294E+02</rscale>
<asrwt>0</asrwt>
<pdfrwt beam="1">  1        1 0.18996596E-01 0.43147294E+02</pdfrwt>
<pdfrwt beam="2">  1       -1 0.57988868E-03 0.43147294E+02</pdfrwt>
<totfact> 0.75125995E+05</totfact>
</mgrwt>
</event>
<event>
 4    1  0.4029665E-002  0.4480625E+02  0.7818608E-02  0.1475555E+00
          1   -1    0    0    0  501  0.00000000000E+00  0.00000000000E+00  0.46260664935E+02  0.46260665209E+02  0.50400000000E-02 0.  1.
         -1   -1    0    0  501    0 -0.00000000000E+00 -0.00000000000E+00 -0.10849389579E+02  0.10849390750E+02  0.50400000000E-02 0.  1.
          2    1    1    2    0  502 -0.19136826425E+02 -0.11480464694E+02  0.20216572779E+02  0.30111941430E+02  0.25500000000E-02 0. -1.
         -2    1    1    2  502    0  0.19136826425E+02  0.11480464694E+02  0.15194702576E+02  0.26998114529E+02  0.25500000000E-02 0. -1.
<mgrwt>
<rscale>  0 0.44806250E+02</rscale>
<asrwt>0</asrwt>
<pdfrwt beam="1">  1        1 0.71170255E-02 0.44806250E+02</pdfrwt>
<pdfrwt beam="2">  1       -1 0.16691370E-02 0.44806250E+02</pdfrwt>
<totfact> 0.61124831E+05</totfact>
</mgrwt>
</event>
<event>
 4    1  0.4029665E-002  0.4165295E+02  0.7818608E-02  0.1496388E+00
         -1   -1    0    0  501    0 -0.00000000000E+00  0.00000000000E+00  0.47769651223E+02  0.47769651489E+02  0.50400000000E-02 0.  1.
          1   -1    0    0    0  501  0.00000000000E+00 -0.00000000000E+00 -0.90798668267E+01  0.90798682255E+01  0.50400000000E-02 0.  1.
          2    1    1    2    0  502  0.18097332498E+02  0.97827455858E+01  0.14916723169E+02  0.25411103702E+02  0.25500000000E-02 0.  1.
         -2    1    1    2  502    0 -0.18097332498E+02 -0.97827455858E+01  0.23773061228E+02  0.31438416013E+02  0.25500000000E-02 0.  1.
<mgrwt>
<rscale>  0 0.41652953E+02</rscale>
<asrwt>0</asrwt>
<pdfrwt beam="2">  1        1 0.13969027E-02 0.41652953E+02</pdfrwt>
<pdfrwt beam="1">  1       -1 0.73491772E-02 0.41652953E+02</pdfrwt>
<totfact> 0.64108448E+05</totfact>
</mgrwt>
</event>
<event>
 4    1  0.4029665E-002  0.4521206E+02  0.7818608E-02  0.1473022E+00
          1   -1    0    0    0  501  0.00000000000E+00  0.00000000000E+00  0.51896604281E+02  0.51896604526E+02  0.50400000000E-02 0.  1.
         -1   -1    0    0  501    0 -0.00000000000E+00 -0.00000000000E+00 -0.98471307194E+01  0.98471320092E+01  0.50400000000E-02 0.  1.
          2    1    1    2    0  502  0.95541044906E+01  0.18886012609E+02  0.10179200641E+02  0.23485708784E+02  0.25500000000E-02 0.  1.
         -2    1    1    2  502    0 -0.95541044906E+01 -0.18886012609E+02  0.31870272920E+02  0.38258027751E+02  0.25500000000E-02 0.  1.
<mgrwt>
<rscale>  0 0.45212064E+02</rscale>
<asrwt>0</asrwt>
<pdfrwt beam="1">  1        1 0.79840931E-02 0.45212064E+02</pdfrwt>
<pdfrwt beam="2">  1       -1 0.15149433E-02 0.45212064E+02</pdfrwt>
<totfact> 0.60396631E+05</totfact>
</mgrwt>
</event>
<event>
 4    1  0.4029665E-002  0.7053741E+02  0.7818608E-02  0.1358275E+00
          1   -1    0    0    0  501  0.00000000000E+00  0.00000000000E+00  0.18269275554E+03  0.18269275561E+03  0.50400000000E-02 0.  1.
         -1   -1    0    0  501    0 -0.00000000000E+00 -0.00000000000E+00 -0.68085967679E+01  0.68085986333E+01  0.50400000000E-02 0.  1.
          2    1    1    2    0  502 -0.22834571206E+02 -0.23143812399E+02  0.51221159252E+02  0.60668450253E+02  0.25500000000E-02 0. -1.
         -2    1    1    2  502    0  0.22834571206E+02  0.23143812399E+02  0.12466299952E+03  0.12883290399E+03  0.25500000000E-02 0. -1.
<mgrwt>
<rscale>  0 0.70537408E+02</rscale>
<asrwt>0</asrwt>
<pdfrwt beam="1">  1        1 0.28106572E-01 0.70537408E+02</pdfrwt>
<pdfrwt beam="2">  1       -1 0.10474768E-02 0.70537408E+02</pdfrwt>
<totfact> 0.22952133E+05</totfact>
</mgrwt>
</event>
<event>
 4    1  0.4029665E-002  0.7287101E+02  0.7818608E-02  0.1350593E+00
          1   -1    0    0    0  501  0.00000000000E+00  0.00000000000E+00  0.55124684183E+01  0.55124707223E+01  0.50400000000E-02 0. -1.
         -1   -1    0    0  501    0 -0.00000000000E+00 -0.00000000000E+00 -0.24082603354E+03  0.24082603359E+03  0.50400000000E-02 0. -1.
          2    1    1    2    0  502 -0.26204250021E+02  0.25310819766E+02 -0.11598056009E+03  0.12156804943E+03  0.25500000000E-02 0. -1.
         -2    1    1    2  502    0  0.26204250021E+02 -0.25310819766E+02 -0.11933300503E+03  0.12477045489E+03  0.25500000000E-02 0. -1.
<mgrwt>
<rscale>  0 0.72871015E+02</rscale>
<asrwt>0</asrwt>
<pdfrwt beam="1">  1        1 0.84807243E-03 0.72871015E+02</pdfrwt>
<pdfrwt beam="2">  1       -1 0.37050151E-01 0.72871015E+02</pdfrwt>
<totfact> 0.11716132E+05</totfact>
</mgrwt>
</event>
<event>
 4    1  0.4029665E-002  0.4064417E+02  0.7818608E-02  0.1503524E+00
         -1   -1    0    0  501    0 -0.00000000000E+00  0.00000000000E+00  0.80991915819E+01  0.80991931501E+01  0.50400000000E-02 0. -1.
          1   -1    0    0    0  501  0.00000000000E+00 -0.00000000000E+00 -0.50991153844E+02  0.50991154093E+02  0.50400000000E-02 0. -1.
          2    1    1    2    0  502 -0.54082696733E+01  0.19544731109E+02 -0.23364438225E+02  0.30937725758E+02  0.25500000000E-02 0.  1.
         -2    1    1    2  502    0  0.54082696733E+01 -0.19544731109E+02 -0.19527524037E+02  0.28152621485E+02  0.25500000000E-02 0.  1.
<mgrwt>
<rscale>  0 0.40644172E+02</rscale>
<asrwt>0</asrwt>
<pdfrwt beam="2">  1        1 0.78447928E-02 0.40644172E+02</pdfrwt>
<pdfrwt beam="1">  1       -1 0.12460296E-02 0.40644172E+02</pdfrwt>
<totfact> 0.78678414E+05</totfact>
</mgrwt>
</event>
<event>
 4    1  0.4029665E-002  0.4738006E+02  0.7818608E-02  0.1460008E+00
          1   -1    0    0    0  501  0.00000000000E+00  0.00000000000E+00  0.40282435063E+01  0.40282466593E+01  0.50400000000E-02 0. -1.
         -1   -1    0    0  501    0 -0.00000000000E+00 -0.00000000000E+00 -0.13932060814E+03  0.13932060823E+03  0.50400000000E-02 0. -1.
          2    1    1    2    0  502  0.35464323859E+01  0.22176611963E+02 -0.44836512855E+02  0.50146706695E+02  0.25500000000E-02 0.  1.
         -2    1    1    2  502    0 -0.35464323859E+01 -0.22176611963E+02 -0.90455851781E+02  0.93202148199E+02  0.25500000000E-02 0.  1.
<mgrwt>
<rscale>  0 0.47380062E+02</rscale>
<asrwt>0</asrwt>
<pdfrwt beam="1">  1        1 0.61973013E-03 0.47380062E+02</pdfrwt>
<pdfrwt beam="2">  1       -1 0.21433936E-01 0.47380062E+02</pdfrwt>
<totfact> 0.39956324E+05</totfact>
</mgrwt>
</event>
<event>
 4    1  0.4029665E-002  0.5257564E+02  0.7818608E-02  0.1431924E+00
         -1   -1    0    0  501    0 -0.00000000000E+00  0.00000000000E+00  0.25249430927E+01  0.25249481229E+01  0.50400000000E-02 0. -1.
          1   -1    0    0    0  501  0.00000000000E+00 -0.00000000000E+00 -0.27368883147E+03  0.27368883152E+03  0.50400000000E-02 0. -1.
          2    1    1    2    0  502 -0.21126770768E+02  0.15571188244E+02 -0.14345728507E+03  0.14583824941E+03  0.25500000000E-02 0.  1.
         -2    1    1    2  502    0  0.21126770768E+02 -0.15571188244E+02 -0.12770660331E+03  0.13037553023E+03  0.25500000000E-02 0.  1.
<mgrwt>
<rscale>  0 0.52575638E+02</rscale>
<asrwt>0</asrwt>
<pdfrwt beam="2">  1        1 0.42105951E-01 0.52575638E+02</pdfrwt>
<pdfrwt beam="1">  1       -1 0.38845339E-03 0.52575638E+02</pdfrwt>
<totfact> 0.52375864E+05</totfact>
</mgrwt>
</event>
<event>
 4    1  0.4029665E-002  0.4394562E+02  0.7818608E-02  0.1481033E+00
         -1   -1    0    0  501    0 -0.00000000000E+00  0.00000000000E+00  0.46526945932E+01  0.46526973230E+01  0.50400000000E-02 0. -1.
          1   -1    0    0    0  501  0.00000000000E+00 -0.00000000000E+00 -0.10376871292E+03  0.10376871304E+03  0.50400000000E-02 0. -1.
          2    1    1    2    0  502 -0.14364628109E+02  0.16399951466E+02 -0.42799879971E+02  0.48032600188E+02  0.25500000000E-02 0. -1.
         -2    1    1    2  502    0  0.14364628109E+02 -0.16399951466E+02 -0.56316138356E+02  0.60388810178E+02  0.25500000000E-02 0. -1.
<mgrwt>
<rscale>  0 0.43945616E+02</rscale>
<asrwt>0</asrwt>
<pdfrwt beam="2">  1        1 0.15964416E-01 0.43945616E+02</pdfrwt>
<pdfrwt beam="1">  1       -1 0.71579946E-03 0.43945616E+02</pdfrwt>
<totfact> 0.70094828E+05</totfact>
</mgrwt>
</event>
<event>
 4    1  0.4029665E-002  0.1540171E+03  0.7818608E-02  0.1195622E+00
          1   -1    0    0    0  501  0.00000000000E+00  0.00000000000E+00  0.23827679765E+03  0.23827679770E+03  0.50400000000E-02 0.  1.
         -1   -1    0    0  501    0 -0.00000000000E+00 -0.00000000000E+00 -0.24888358635E+02  0.24888359145E+02  0.50400000000E-02 0.  1.
          2    1    1    2    0  502  0.59503300883E+02  0.43529446838E+02  0.68683872554E+02  0.10076174827E+03  0.25500000000E-02 0.  1.
         -2    1    1    2  502    0 -0.59503300883E+02 -0.43529446838E+02  0.14470456646E+03  0.16240340858E+03  0.25500000000E-02 0.  1.
<mgrwt>
<rscale>  0 0.15401712E+03</rscale>
<asrwt>0</asrwt>
<pdfrwt beam="1">  1        1 0.36657969E-01 0.15401712E+03</pdfrwt>
<pdfrwt beam="2">  1       -1 0.38289782E-02 0.15401712E+03</pdfrwt>
<totfact> 0.28901950E+04</totfact>
</mgrwt>
</event>
<event>
 4    1  0.4029665E-002  0.5764128E+02  0.7818608E-02  0.1408005E+00
          1   -1    0    0    0  501  0.00000000000E+00  0.00000000000E+00  0.11069215635E+04  0.11069215636E+04  0.50400000000E-02 0. -1.
         -1   -1    0    0  501    0 -0.00000000000E+00 -0.00000000000E+00 -0.75038731076E+00  0.75040423623E+00  0.50400000000E-02 0. -1.
          2    1    1    2    0  502 -0.14753176486E+02 -0.20781870849E+02  0.29449002714E+03  0.29559079563E+03  0.25500000000E-02 0. -1.
         -2    1    1    2  502    0  0.14753176486E+02  0.20781870849E+02  0.81168114909E+03  0.81208117216E+03  0.25500000000E-02 0. -1.
<mgrwt>
<rscale>  0 0.57641279E+02</rscale>
<asrwt>0</asrwt>
<pdfrwt beam="1">  1        1 0.17029512E+00 0.57641279E+02</pdfrwt>
<pdfrwt beam="2">  1       -1 0.11544584E-03 0.57641279E+02</pdfrwt>
<totfact> 0.43071081E+05</totfact>
</mgrwt>
</event>
<event>
 4    1  0.4029665E-002  0.4194760E+02  0.7818608E-02  0.1494349E+00
          1   -1    0    0    0  501  0.00000000000E+00  0.00000000000E+00  0.55318971147E+03  0.55318971149E+03  0.50400000000E-02 0. -1.
         -1   -1    0    0  501    0 -0.00000000000E+00 -0.00000000000E+00 -0.79519901823E+00  0.79521498992E+00  0.50400000000E-02 0. -1.
          2    1    1    2    0  502 -0.55723718525E+01 -0.20017238514E+02  0.31392092182E+03  0.31460782941E+03  0.25500000000E-02 0.  1.
         -2    1    1    2  502    0  0.55723718525E+01  0.20017238514E+02  0.23847359063E+03  0.23937709707E+03  0.25500000000E-02 0.  1.
<mgrwt>
<rscale>  0 0.41947603E+02</rscale>
<asrwt>0</asrwt>
<pdfrwt beam="1">  1        1 0.85105865E-01 0.41947603E+02</pdfrwt>
<pdfrwt beam="2">  1       -1 0.12233989E-03 0.41947603E+02</pdfrwt>
<totfact> 0.10124666E+06</totfact>
</mgrwt>
</event>
<event>
 4    1  0.4029665E-002  0.5917926E+02  0.7818608E-02  0.1401309E+00
         -1   -1    0    0  501    0 -0.00000000000E+00  0.00000000000E+00  0.18547847060E+01  0.18547915535E+01  0.50400000000E-02 0.  1.
          1   -1    0    0    0  501  0.00000000000E+00 -0.00000000000E+00 -0.47204647222E+03  0.47204647225E+03  0.50400000000E-02 0.  1.
          2    1    1    2    0  502  0.12550566874E+02  0.25464672595E+02 -0.16829832977E+03  0.17067599154E+03  0.25500000000E-02 0.  1.
         -2    1    1    2  502    0 -0.12550566874E+02 -0.25464672595E+02 -0.30189335775E+03  0.30322527226E+03  0.25500000000E-02 0.  1.
<mgrwt>
<rscale>  0 0.59179260E+02</rscale>
<asrwt>0</asrwt>
<pdfrwt beam="2">  1        1 0.72622439E-01 0.59179260E+02</pdfrwt>
<pdfrwt beam="1">  1       -1 0.28535240E-03 0.59179260E+02</pdfrwt>
<totfact> 0.42408621E+05</totfact>
</mgrwt>
</event>
<event>
 4    1  0.4029665E-002  0.5682968E+02  0.7818608E-02  0.1411639E+00
         -1   -1    0    0  501    0 -0.00000000000E+00  0.00000000000E+00  0.32384966890E+02  0.32384967282E+02  0.50400000000E-02 0. -1.
          1   -1    0    0    0  501  0.00000000000E+00 -0.00000000000E+00 -0.24931417602E+02  0.24931418112E+02  0.50400000000E-02 0. -1.
          2    1    1    2    0  502 -0.26266109586E+02  0.88446594074E+01 -0.25932016179E+01  0.27836329032E+02  0.25500000000E-02 0. -1.
         -2    1    1    2  502    0  0.26266109586E+02 -0.88446594074E+01  0.10046750906E+02  0.29480056362E+02  0.25500000000E-02 0. -1.
<mgrwt>
<rscale>  0 0.56829681E+02</rscale>
<asrwt>0</asrwt>
<pdfrwt beam="2">  1        1 0.38356028E-02 0.56829681E+02</pdfrwt>
<pdfrwt beam="1">  1       -1 0.49823026E-02 0.56829681E+02</pdfrwt>
<totfact> 0.31221559E+05</totfact>
</mgrwt>
</event>
<event>
 4    1  0.4029665E-002  0.4797150E+02  0.7818608E-02  0.1456600E+00
         -1   -1    0    0  501    0 -0.00000000000E+00  0.00000000000E+00  0.85940184194E+01  0.85940198973E+01  0.50400000000E-02 0. -1.
          1   -1    0    0    0  501  0.00000000000E+00 -0.00000000000E+00 -0.66943800259E+02  0.66943800449E+02  0.50400000000E-02 0. -1.
          2    1    1    2    0  502  0.76550239776E+01 -0.18841898817E+02 -0.91515840311E+01  0.22301749706E+02  0.25500000000E-02 0. -1.
         -2    1    1    2  502    0 -0.76550239776E+01  0.18841898817E+02 -0.49198197809E+02  0.53236070641E+02  0.25500000000E-02 0. -1.
<mgrwt>
<rscale>  0 0.47971505E+02</rscale>
<asrwt>0</asrwt>
<pdfrwt beam="2">  1        1 0.10299046E-01 0.47971505E+02</pdfrwt>
<pdfrwt beam="1">  1       -1 0.13221569E-02 0.47971505E+02</pdfrwt>
<totfact> 0.53390122E+05</totfact>
</mgrwt>
</event>
<event>
 4    1  0.4029665E-002  0.4845583E+02  0.7818608E-02  0.1453853E+00
         -1   -1    0    0  501    0 -0.00000000000E+00  0.00000000000E+00  0.22231387729E+01  0.22231444859E+01  0.50400000000E-02 0.  1.
          1   -1    0    0    0  501  0.00000000000E+00 -0.00000000000E+00 -0.26403713181E+03  0.26403713186E+03  0.50400000000E-02 0.  1.
          2    1    1    2    0  502  0.22716708117E+01  0.23470618981E+02 -0.10033165476E+03  0.10306537439E+03  0.25500000000E-02 0.  1.
         -2    1    1    2  502    0 -0.22716708117E+01 -0.23470618981E+02 -0.16148233827E+03  0.16319490196E+03  0.25500000000E-02 0.  1.
<mgrwt>
<rscale>  0 0.48455834E+02</rscale>
<asrwt>0</asrwt>
<pdfrwt beam="2">  1        1 0.40621073E-01 0.48455834E+02</pdfrwt>
<pdfrwt beam="1">  1       -1 0.34202200E-03 0.48455834E+02</pdfrwt>
<totfact> 0.63812672E+05</totfact>
</mgrwt>
</event>
<event>
 4    1  0.4029665E-002  0.5156419E+02  0.7818608E-02  0.1437083E+00
          1   -1    0    0    0  501  0.00000000000E+00  0.00000000000E+00  0.86066928648E+03  0.86066928650E+03  0.50400000000E-02 0.  1.
         -1   -1    0    0  501    0 -0.00000000000E+00 -0.00000000000E+00 -0.77231666669E+00  0.77233311158E+00  0.50400000000E-02 0.  1.
          2    1    1    2    0  502 -0.12503889608E+02  0.19434170336E+02  0.23896944274E+03  0.24008421190E+03  0.25500000000E-02 0. -1.
         -2    1    1    2  502    0  0.12503889608E+02 -0.19434170336E+02  0.62092752707E+03  0.62135740771E+03  0.25500000000E-02 0. -1.
<mgrwt>
<rscale>  0 0.51564186E+02</rscale>
<asrwt>0</asrwt>
<pdfrwt beam="1">  1        1 0.13241051E+00 0.51564186E+02</pdfrwt>
<pdfrwt beam="2">  1       -1 0.11881935E-03 0.51564186E+02</pdfrwt>
<totfact> 0.60555168E+05</totfact>
</mgrwt>
</event>
<event>
 4    1  0.4029665E-002  0.4869967E+02  0.7818608E-02  0.1452484E+00
         -1   -1    0    0  501    0 -0.00000000000E+00  0.00000000000E+00  0.19804552911E+03  0.19804552917E+03  0.50400000000E-02 0. -1.
          1   -1    0    0    0  501  0.00000000000E+00 -0.00000000000E+00 -0.29938271566E+01  0.29938313989E+01  0.50400000000E-02 0. -1.
          2    1    1    2    0  502 -0.68806715137E+01 -0.19901413332E+02  0.47050150014E+02  0.51547323072E+02  0.25500000000E-02 0.  1.
         -2    1    1    2  502    0  0.68806715137E+01  0.19901413332E+02  0.14800155194E+03  0.14949203750E+03  0.25500000000E-02 0.  1.
<mgrwt>
<rscale>  0 0.48699672E+02</rscale>
<asrwt>0</asrwt>
<pdfrwt beam="2">  1        1 0.46058917E-03 0.48699672E+02</pdfrwt>
<pdfrwt beam="1">  1       -1 0.30468540E-01 0.48699672E+02</pdfrwt>
<totfact> 0.34309212E+05</totfact>
</mgrwt>
</event>
<event>
 4    1  0.4029665E-002  0.5742899E+02  0.7818608E-02  0.1408949E+00
          1   -1    0    0    0  501  0.00000000000E+00  0.00000000000E+00  0.34282990145E+01  0.34283027192E+01  0.50400000000E-02 0.  1.
         -1   -1    0    0  501    0 -0.00000000000E+00 -0.00000000000E+00 -0.24050459579E+03  0.24050459584E+03  0.50400000000E-02 0.  1.
          2    1    1    2    0  502  0.54163917114E+00 -0.28588473295E+02 -0.12971813672E+03  0.13283218428E+03  0.25500000000E-02 0. -1.
         -2    1    1    2  502    0 -0.54163917114E+00  0.28588473295E+02 -0.10735816005E+03  0.11110071429E+03  0.25500000000E-02 0. -1.
<mgrwt>
<rscale>  0 0.57428987E+02</rscale>
<asrwt>0</asrwt>
<pdfrwt beam="1">  1        1 0.52743110E-03 0.57428987E+02</pdfrwt>
<pdfrwt beam="2">  1       -1 0.37000694E-01 0.57428987E+02</pdfrwt>
<totfact> 0.21467120E+05</totfact>
</mgrwt>
</event>
<event>
 4    1  0.4029665E-002  0.5305110E+02  0.7818608E-02  0.1429547E+00
         -1   -1    0    0  501    0 -0.00000000000E+00  0.00000000000E+00  0.25126388383E+03  0.25126388388E+03  0.50400000000E-02 0. -1.
          1   -1    0    0    0  501  0.00000000000E+00 -0.00000000000E+00 -0.28002599493E+01  0.28002644849E+01  0.50400000000E-02 0. -1.
          2    1    1    2    0  502  0.20326083243E+02 -0.15786133449E+02  0.93472452858E+02  0.96950766469E+02  0.25500000000E-02 0.  1.
         -2    1    1    2  502    0 -0.20326083243E+02  0.15786133449E+02  0.15499117103E+03  0.15711338190E+03  0.25500000000E-02 0.  1.
<mgrwt>
<rscale>  0 0.53051099E+02</rscale>
<asrwt>0</asrwt>
<pdfrwt beam="2">  1        1 0.43080948E-03 0.53051099E+02</pdfrwt>
<pdfrwt beam="1">  1       -1 0.38655991E-01 0.53051099E+02</pdfrwt>
<totfact> 0.25809436E+05</totfact>
</mgrwt>
</event>
<event>
 4    1  0.4029665E-002  0.4424621E+02  0.7818608E-02  0.1479103E+00
          1   -1    0    0    0  501  0.00000000000E+00  0.00000000000E+00  0.18812976763E+03  0.18812976769E+03  0.50400000000E-02 0.  1.
         -1   -1    0    0  501    0 -0.00000000000E+00 -0.00000000000E+00 -0.26015626079E+01  0.26015674898E+01  0.50400000000E-02 0.  1.
          2    1    1    2    0  502 -0.22068022568E+02 -0.14128141094E+01  0.95617534736E+02  0.98141258496E+02  0.25500000000E-02 0.  1.
         -2    1    1    2  502    0  0.22068022568E+02  0.14128141094E+01  0.89910670283E+02  0.92590076688E+02  0.25500000000E-02 0.  1.
<mgrwt>
<rscale>  0 0.44246213E+02</rscale>
<asrwt>0</asrwt>
<pdfrwt beam="1">  1        1 0.28943044E-01 0.44246213E+02</pdfrwt>
<pdfrwt beam="2">  1       -1 0.40024075E-03 0.44246213E+02</pdfrwt>
<totfact> 0.75380477E+05</totfact>
</mgrwt>
</event>
<event>
 4    1  0.4029665E-002  0.7727093E+02  0.7818608E-02  0.1336980E+00
         -1   -1    0    0  501    0 -0.00000000000E+00  0.00000000000E+00  0.33202463716E+02  0.33202464099E+02  0.50400000000E-02 0. -1.
          1   -1    0    0    0  501  0.00000000000E+00 -0.00000000000E+00 -0.44957476778E+02  0.44957477061E+02  0.50400000000E-02 0. -1.
          2    1    1    2    0  502 -0.82162655912E+01  0.27820688123E+02  0.19934735882E+02  0.35197889270E+02  0.25500000000E-02 0.  1.
         -2    1    1    2  502    0  0.82162655912E+01 -0.27820688123E+02 -0.31689748944E+02  0.42962051889E+02  0.25500000000E-02 0.  1.
<mgrwt>
<rscale>  0 0.77270926E+02</rscale>
<asrwt>0</asrwt>
<pdfrwt beam="2">  1        1 0.69165349E-02 0.77270926E+02</pdfrwt>
<pdfrwt beam="1">  1       -1 0.51080714E-02 0.77270926E+02</pdfrwt>
<totfact> 0.14594479E+05</totfact>
</mgrwt>
</event>
<event>
 4    1  0.4029665E-002  0.9921097E+02  0.7818608E-02  0.1281964E+00
         -1   -1    0    0  501    0 -0.00000000000E+00  0.00000000000E+00  0.45456784810E+03  0.45456784813E+03  0.50400000000E-02 0.  1.
          1   -1    0    0    0  501  0.00000000000E+00 -0.00000000000E+00 -0.54132811705E+01  0.54132835167E+01  0.50400000000E-02 0.  1.
          2    1    1    2    0  502 -0.49531010581E+02 -0.27124415157E+01  0.22532148201E+03  0.23071724818E+03  0.25500000000E-02 0. -1.
         -2    1    1    2  502    0  0.49531010581E+02  0.27124415157E+01  0.22383308493E+03  0.22926388347E+03  0.25500000000E-02 0. -1.
<mgrwt>
<rscale>  0 0.99210970E+02</rscale>
<asrwt>0</asrwt>
<pdfrwt beam="2">  1        1 0.83281237E-03 0.99210970E+02</pdfrwt>
<pdfrwt beam="1">  1       -1 0.69933540E-01 0.99210970E+02</pdfrwt>
<totfact> 0.39851990E+04</totfact>
</mgrwt>
</event>
<event>
 4    1  0.4029665E-002  0.7699862E+02  0.7818608E-02  0.1337791E+00
         -1   -1    0    0  501    0 -0.00000000000E+00  0.00000000000E+00  0.16993827207E+02  0.16993827954E+02  0.50400000000E-02 0.  1.
          1   -1    0    0    0  501  0.00000000000E+00 -0.00000000000E+00 -0.87219727009E+02  0.87219727155E+02  0.50400000000E-02 0.  1.
          2    1    1    2    0  502 -0.30429278253E+02 -0.14469736748E+02 -0.60320613958E+02  0.69093347953E+02  0.25500000000E-02 0.  1.
         -2    1    1    2  502    0  0.30429278253E+02  0.14469736748E+02 -0.99052858445E+01  0.35120207156E+02  0.25500000000E-02 0.  1.
<mgrwt>
<rscale>  0 0.76998624E+02</rscale>
<asrwt>0</asrwt>
<pdfrwt beam="2">  1        1 0.13418419E-01 0.76998624E+02</pdfrwt>
<pdfrwt beam="1">  1       -1 0.26144351E-02 0.76998624E+02</pdfrwt>
<totfact> 0.16135822E+05</totfact>
</mgrwt>
</event>
<event>
 4    1  0.4029665E-002  0.6364415E+02  0.7818608E-02  0.1383145E+00
          1   -1    0    0    0  501  0.00000000000E+00  0.00000000000E+00  0.35259457506E+04  0.35259457506E+04  0.50400000000E-02 0. -1.
         -1   -1    0    0  501    0 -0.00000000000E+00 -0.00000000000E+00 -0.28717582964E+00  0.28722005280E+00  0.50400000000E-02 0. -1.
          2    1    1    2    0  502  0.17996255979E+02 -0.24652299619E+02  0.22616115290E+04  0.22618174792E+04  0.25500000000E-02 0. -1.
         -2    1    1    2  502    0 -0.17996255979E+02  0.24652299619E+02  0.12640470458E+04  0.12644154915E+04  0.25500000000E-02 0. -1.
<mgrwt>
<rscale>  0 0.63644147E+02</rscale>
<asrwt>0</asrwt>
<pdfrwt beam="1">  1        1 0.54242568E+00 0.63644147E+02</pdfrwt>
<pdfrwt beam="2">  1       -1 0.44186540E-04 0.63644147E+02</pdfrwt>
<totfact> 0.43381754E+04</totfact>
</mgrwt>
</event>
<event>
 4    1  0.4029665E-002  0.1653952E+03  0.7818608E-02  0.1182737E+00
          1   -1    0    0    0  501  0.00000000000E+00  0.00000000000E+00  0.31587315740E+03  0.31587315744E+03  0.50400000000E-02 0.  1.
         -1   -1    0    0  501    0 -0.00000000000E+00 -0.00000000000E+00 -0.21650743848E+02  0.21650744435E+02  0.50400000000E-02 0.  1.
          2    1    1    2    0  502  0.58579690581E+02  0.29902138146E+02  0.44807169269E+02  0.79582664184E+02  0.25500000000E-02 0. -1.
         -2    1    1    2  502    0 -0.58579690581E+02 -0.29902138146E+02  0.24941524428E+03  0.25794123769E+03  0.25500000000E-02 0. -1.
<mgrwt>
<rscale>  0 0.16539515E+03</rscale>
<asrwt>0</asrwt>
<pdfrwt beam="1">  1        1 0.48595869E-01 0.16539515E+03</pdfrwt>
<pdfrwt beam="2">  1       -1 0.33308838E-02 0.16539515E+03</pdfrwt>
<totfact> 0.25156844E+04</totfact>
</mgrwt>
</event>
<event>
 4    1  0.4029665E-002  0.4437027E+02  0.7818608E-02  0.1478312E+00
          1   -1    0    0    0  501  0.00000000000E+00  0.00000000000E+00  0.39713093613E+03  0.39713093616E+03  0.50400000000E-02 0. -1.
         -1   -1    0    0  501    0 -0.00000000000E+00 -0.00000000000E+00 -0.12393345818E+01  0.12393448298E+01  0.50400000000E-02 0. -1.
          2    1    1    2    0  502  0.17990808019E+02 -0.11595551778E+02  0.14555199948E+03  0.14711733601E+03  0.25500000000E-02 0.  1.
         -2    1    1    2  502    0 -0.17990808019E+02  0.11595551778E+02  0.25033960207E+03  0.25125294499E+03  0.25500000000E-02 0.  1.
<mgrwt>
<rscale>  0 0.44370267E+02</rscale>
<asrwt>0</asrwt>
<pdfrwt beam="1">  1        1 0.61097063E-01 0.44370267E+02</pdfrwt>
<pdfrwt beam="2">  1       -1 0.19066766E-03 0.44370267E+02</pdfrwt>
<totfact> 0.84898447E+05</totfact>
</mgrwt>
</event>
<event>
 4    1  0.4029665E-002  0.6321086E+02  0.7818608E-02  0.1384831E+00
          1   -1    0    0    0  501  0.00000000000E+00  0.00000000000E+00  0.68521533097E+03  0.68521533098E+03  0.50400000000E-02 0. -1.
         -1   -1    0    0  501    0 -0.00000000000E+00 -0.00000000000E+00 -0.14577903051E+01  0.14577990174E+01  0.50400000000E-02 0. -1.
          2    1    1    2    0  502 -0.16934235534E+02  0.11919123929E+02  0.82507296380E+02  0.85066372974E+02  0.25500000000E-02 0. -1.
         -2    1    1    2  502    0  0.16934235534E+02 -0.11919123929E+02  0.60125024428E+03  0.60160675703E+03  0.25500000000E-02 0. -1.
<mgrwt>
<rscale>  0 0.63210862E+02</rscale>
<asrwt>0</asrwt>
<pdfrwt beam="1">  1        1 0.10541778E+00 0.63210862E+02</pdfrwt>
<pdfrwt beam="2">  1       -1 0.22427602E-03 0.63210862E+02</pdfrwt>
<totfact> 0.36811999E+05</totfact>
</mgrwt>
</event>
<event>
 4    1  0.4029665E-002  0.5368511E+02  0.7818608E-02  0.1426421E+00
         -1   -1    0    0  501    0 -0.00000000000E+00  0.00000000000E+00  0.36189444515E+03  0.36189444518E+03  0.50400000000E-02 0. -1.
          1   -1    0    0    0  501  0.00000000000E+00 -0.00000000000E+00 -0.19909715978E+01  0.19909779770E+01  0.50400000000E-02 0. -1.
          2    1    1    2    0  502 -0.10103683269E+02  0.18123368576E+02  0.64527714467E+02  0.67781758939E+02  0.25500000000E-02 0. -1.
         -2    1    1    2  502    0  0.10103683269E+02 -0.18123368576E+02  0.29537575908E+03  0.29610366422E+03  0.25500000000E-02 0. -1.
<mgrwt>
<rscale>  0 0.53685109E+02</rscale>
<asrwt>0</asrwt>
<pdfrwt beam="2">  1        1 0.30630339E-03 0.53685109E+02</pdfrwt>
<pdfrwt beam="1">  1       -1 0.55676147E-01 0.53685109E+02</pdfrwt>
<totfact> 0.21712958E+05</totfact>
</mgrwt>
</event>
<event>
 4    1  0.4029665E-002  0.7260947E+02  0.7818608E-02  0.1351438E+00
         -1   -1    0    0  501    0 -0.00000000000E+00  0.00000000000E+00  0.91016235520E+00  0.91017630952E+00  0.50400000000E-02 0. -1.
          1   -1    0    0    0  501  0.00000000000E+00 -0.00000000000E+00 -0.14481194432E+04  0.14481194432E+04  0.50400000000E-02 0. -1.
          2    1    1    2    0  502  0.30562973675E+02 -0.15663051253E+02 -0.95855555974E+03  0.95917057276E+03  0.25500000000E-02 0. -1.
         -2    1    1    2  502    0 -0.30562973675E+02  0.15663051253E+02 -0.48865372106E+03  0.48985904672E+03  0.25500000000E-02 0. -1.
<mgrwt>
<rscale>  0 0.72609474E+02</rscale>
<asrwt>0</asrwt>
<pdfrwt beam="2">  1        1 0.22278576E+00 0.72609474E+02</pdfrwt>
<pdfrwt beam="1">  1       -1 0.14002721E-03 0.72609474E+02</pdfrwt>
<totfact> 0.20624310E+05</totfact>
</mgrwt>
</event>
<event>
 4    1  0.4029665E-002  0.8590381E+02  0.7818608E-02  0.1313086E+00
          1   -1    0    0    0  501  0.00000000000E+00  0.00000000000E+00  0.33929323139E+01  0.33929360572E+01  0.50400000000E-02 0. -1.
         -1   -1    0    0  501    0 -0.00000000000E+00 -0.00000000000E+00 -0.54373760772E+03  0.54373760774E+03  0.50400000000E-02 0. -1.
          2    1    1    2    0  502 -0.40126502547E+02 -0.12150749311E+02 -0.21073487923E+03  0.21486499539E+03  0.25500000000E-02 0.  1.
         -2    1    1    2  502    0  0.40126502547E+02  0.12150749311E+02 -0.32960979618E+03  0.33226554841E+03  0.25500000000E-02 0.  1.
<mgrwt>
<rscale>  0 0.85903805E+02</rscale>
<asrwt>0</asrwt>
<pdfrwt beam="1">  1        1 0.52199031E-03 0.85903805E+02</pdfrwt>
<pdfrwt beam="2">  1       -1 0.83651871E-01 0.85903805E+02</pdfrwt>
<totfact> 0.52100574E+04</totfact>
</mgrwt>
</event>
<event>
 4    1  0.4029665E-002  0.1002094E+03  0.7818608E-02  0.1279856E+00
         -1   -1    0    0  501    0 -0.00000000000E+00  0.00000000000E+00  0.23203320664E+01  0.23203375401E+01  0.50400000000E-02 0.  1.
          1   -1    0    0    0  501  0.00000000000E+00 -0.00000000000E+00 -0.10819472172E+04  0.10819472172E+04  0.50400000000E-02 0.  1.
          2    1    1    2    0  502 -0.48880968642E+02 -0.82837287131E+01 -0.61821980640E+03  0.62020456165E+03  0.25500000000E-02 0. -1.
         -2    1    1    2  502    0  0.48880968642E+02  0.82837287131E+01 -0.46140707873E+03  0.46406299310E+03  0.25500000000E-02 0. -1.
<mgrwt>
<rscale>  0 0.10020938E+03</rscale>
<asrwt>0</asrwt>
<pdfrwt beam="2">  1        1 0.16645302E+00 0.10020938E+03</pdfrwt>
<pdfrwt beam="1">  1       -1 0.35697545E-03 0.10020938E+03</pdfrwt>
<totfact> 0.10332294E+05</totfact>
</mgrwt>
</event>
<event>
 4    1  0.4029665E-002  0.4764968E+02  0.7818608E-02  0.1458447E+00
          1   -1    0    0    0  501  0.00000000000E+00  0.00000000000E+00  0.13572522993E+02  0.13572523929E+02  0.50400000000E-02 0. -1.
         -1   -1    0    0  501    0 -0.00000000000E+00 -0.00000000000E+00 -0.41821477869E+02  0.41821478173E+02  0.50400000000E-02 0. -1.
          2    1    1    2    0  502 -0.22848546104E+02  0.30952601409E+01 -0.71506471849E+01  0.24140597674E+02  0.25500000000E-02 0.  1.
         -2    1    1    2  502    0  0.22848546104E+02 -0.30952601409E+01 -0.21098307690E+02  0.31253404427E+02  0.25500000000E-02 0.  1.
<mgrwt>
<rscale>  0 0.47649680E+02</rscale>
<asrwt>0</asrwt>
<pdfrwt beam="1">  1        1 0.20880806E-02 0.47649680E+02</pdfrwt>
<pdfrwt beam="2">  1       -1 0.64340736E-02 0.47649680E+02</pdfrwt>
<totfact> 0.46857020E+05</totfact>
</mgrwt>
</event>
<event>
 4    1  0.4029665E-002  0.5123143E+02  0.7818608E-02  0.1438810E+00
         -1   -1    0    0  501    0 -0.00000000000E+00  0.00000000000E+00  0.13271350289E+02  0.13271351246E+02  0.50400000000E-02 0.  1.
          1   -1    0    0    0  501  0.00000000000E+00 -0.00000000000E+00 -0.49442213442E+02  0.49442213699E+02  0.50400000000E-02 0.  1.
          2    1    1    2    0  502 -0.14638269528E+02 -0.17718692662E+02 -0.31931226502E+02  0.39342524535E+02  0.25500000000E-02 0.  1.
         -2    1    1    2  502    0  0.14638269528E+02  0.17718692662E+02 -0.42396366503E+01  0.23371040410E+02  0.25500000000E-02 0.  1.
<mgrwt>
<rscale>  0 0.51231435E+02</rscale>
<asrwt>0</asrwt>
<pdfrwt beam="2">  1        1 0.76064943E-02 0.51231435E+02</pdfrwt>
<pdfrwt beam="1">  1       -1 0.20417463E-02 0.51231435E+02</pdfrwt>
<totfact> 0.43764616E+05</totfact>
</mgrwt>
</event>
<event>
 4    1  0.4029665E-002  0.5309069E+02  0.7818608E-02  0.1429350E+00
         -1   -1    0    0  501    0 -0.00000000000E+00  0.00000000000E+00  0.14396733016E+01  0.14396821236E+01  0.50400000000E-02 0. -1.
          1   -1    0    0    0  501  0.00000000000E+00 -0.00000000000E+00 -0.48945355016E+03  0.48945355019E+03  0.50400000000E-02 0. -1.
          2    1    1    2    0  502 -0.22698178353E+02  0.74052360950E+01 -0.13672954447E+03  0.13879846238E+03  0.25500000000E-02 0.  1.
         -2    1    1    2  502    0  0.22698178353E+02 -0.74052360950E+01 -0.35128433239E+03  0.35209476993E+03  0.25500000000E-02 0.  1.
<mgrwt>
<rscale>  0 0.53090691E+02</rscale>
<asrwt>0</asrwt>
<pdfrwt beam="2">  1        1 0.75300414E-01 0.53090691E+02</pdfrwt>
<pdfrwt beam="1">  1       -1 0.22148927E-03 0.53090691E+02</pdfrwt>
<totfact> 0.55980596E+05</totfact>
</mgrwt>
</event>
<event>
 4    1  0.4029665E-002  0.6690912E+02  0.7818608E-02  0.1370931E+00
         -1   -1    0    0  501    0 -0.00000000000E+00  0.00000000000E+00  0.28039347398E+01  0.28039392694E+01  0.50400000000E-02 0. -1.
          1   -1    0    0    0  501  0.00000000000E+00 -0.00000000000E+00 -0.39915576629E+03  0.39915576633E+03  0.50400000000E-02 0. -1.
          2    1    1    2    0  502  0.27993614516E+02  0.75895384290E+01 -0.98016557714E+02  0.10221785138E+03  0.25500000000E-02 0.  1.
         -2    1    1    2  502    0 -0.27993614516E+02 -0.75895384290E+01 -0.29833527384E+03  0.29974185422E+03  0.25500000000E-02 0.  1.
<mgrwt>
<rscale>  0 0.66909122E+02</rscale>
<asrwt>0</asrwt>
<pdfrwt beam="2">  1        1 0.61408535E-01 0.66909122E+02</pdfrwt>
<pdfrwt beam="1">  1       -1 0.43137524E-03 0.66909122E+02</pdfrwt>
<totfact> 0.30273003E+05</totfact>
</mgrwt>
</event>
<event>
 4    1  0.4029665E-002  0.4138198E+02  0.7818608E-02  0.1498281E+00
         -1   -1    0    0  501    0 -0.00000000000E+00  0.00000000000E+00  0.17289286727E+01  0.17289360187E+01  0.50400000000E-02 0. -1.
          1   -1    0    0    0  501  0.00000000000E+00 -0.00000000000E+00 -0.24761928021E+03  0.24761928026E+03  0.50400000000E-02 0. -1.
          2    1    1    2    0  502 -0.14575049199E+02  0.14658077804E+02 -0.11746994697E+03  0.11927480770E+03  0.25500000000E-02 0. -1.
         -2    1    1    2  502    0  0.14575049199E+02 -0.14658077804E+02 -0.12842040457E+03  0.13007340859E+03  0.25500000000E-02 0. -1.
<mgrwt>
<rscale>  0 0.41381977E+02</rscale>
<asrwt>0</asrwt>
<pdfrwt beam="2">  1        1 0.38095246E-01 0.41381977E+02</pdfrwt>
<pdfrwt beam="1">  1       -1 0.26598979E-03 0.41381977E+02</pdfrwt>
<totfact> 0.93093906E+05</totfact>
</mgrwt>
</event>
<event>
 4    1  0.4029665E-002  0.7314031E+02  0.7818608E-02  0.1349729E+00
         -1   -1    0    0  501    0 -0.00000000000E+00  0.00000000000E+00  0.19852590845E+01  0.19852654821E+01  0.50400000000E-02 0.  1.
          1   -1    0    0    0  501  0.00000000000E+00 -0.00000000000E+00 -0.67365215215E+03  0.67365215216E+03  0.50400000000E-02 0.  1.
          2    1    1    2    0  502  0.29258127201E+02  0.12610819003E+02 -0.16999289807E+03  0.17295275703E+03  0.25500000000E-02 0. -1.
         -2    1    1    2  502    0 -0.29258127201E+02 -0.12610819003E+02 -0.50167399499E+03  0.50268466061E+03  0.25500000000E-02 0. -1.
<mgrwt>
<rscale>  0 0.73140310E+02</rscale>
<asrwt>0</asrwt>
<pdfrwt beam="2">  1        1 0.10363861E+00 0.73140310E+02</pdfrwt>
<pdfrwt beam="1">  1       -1 0.30542551E-03 0.73140310E+02</pdfrwt>
<totfact> 0.25309588E+05</totfact>
</mgrwt>
</event>
<event>
 4    1  0.4029665E-002  0.7905403E+02  0.7818608E-02  0.1331758E+00
         -1   -1    0    0  501    0 -0.00000000000E+00  0.00000000000E+00  0.20411492063E+02  0.20411492686E+02  0.50400000000E-02 0.  1.
          1   -1    0    0    0  501  0.00000000000E+00 -0.00000000000E+00 -0.76544372265E+02  0.76544372431E+02  0.50400000000E-02 0.  1.
          2    1    1    2    0  502 -0.35929427341E+02 -0.15158598993E+02 -0.20148658046E+02  0.43893909601E+02  0.25500000000E-02 0.  1.
         -2    1    1    2  502    0  0.35929427341E+02  0.15158598993E+02 -0.35984222155E+02  0.53061955516E+02  0.25500000000E-02 0.  1.
<mgrwt>
<rscale>  0 0.79054029E+02</rscale>
<asrwt>0</asrwt>
<pdfrwt beam="2">  1        1 0.11776057E-01 0.79054029E+02</pdfrwt>
<pdfrwt beam="1">  1       -1 0.31402296E-02 0.79054029E+02</pdfrwt>
<totfact> 0.14749531E+05</totfact>
</mgrwt>
</event>
<event>
 4    1  0.4029665E-002  0.4294256E+02  0.7818608E-02  0.1487610E+00
          1   -1    0    0    0  501  0.00000000000E+00  0.00000000000E+00  0.11644459220E+03  0.11644459231E+03  0.50400000000E-02 0.  1.
         -1   -1    0    0  501    0 -0.00000000000E+00 -0.00000000000E+00 -0.39590981906E+01  0.39591013986E+01  0.50400000000E-02 0.  1.
          2    1    1    2    0  502  0.16132229363E+02  0.11893076573E+02  0.77838015930E+02  0.80376929681E+02  0.25500000000E-02 0. -1.
         -2    1    1    2  502    0 -0.16132229363E+02 -0.11893076573E+02  0.34647478078E+02  0.40026764024E+02  0.25500000000E-02 0. -1.
<mgrwt>
<rscale>  0 0.42942556E+02</rscale>
<asrwt>0</asrwt>
<pdfrwt beam="1">  1        1 0.17914552E-01 0.42942556E+02</pdfrwt>
<pdfrwt beam="2">  1       -1 0.60909233E-03 0.42942556E+02</pdfrwt>
<totfact> 0.75390563E+05</totfact>
</mgrwt>
</event>
<event>
 4    1  0.4029665E-002  0.1152204E+03  0.7818608E-02  0.1251197E+00
         -1   -1    0    0  501    0 -0.00000000000E+00  0.00000000000E+00  0.16807642425E+02  0.16807643181E+02  0.50400000000E-02 0.  1.
          1   -1    0    0    0  501  0.00000000000E+00 -0.00000000000E+00 -0.19746573128E+03  0.19746573134E+03  0.50400000000E-02 0.  1.
          2    1    1    2    0  502 -0.50425958389E+02 -0.26205647369E+02 -0.10791463184E+03  0.12196344127E+03  0.25500000000E-02 0. -1.
         -2    1    1    2  502    0  0.50425958389E+02  0.26205647369E+02 -0.72743457014E+02  0.92309933259E+02  0.25500000000E-02 0. -1.
<mgrwt>
<rscale>  0 0.11522037E+03</rscale>
<asrwt>0</asrwt>
<pdfrwt beam="2">  1        1 0.30379342E-01 0.11522037E+03</pdfrwt>
<pdfrwt beam="1">  1       -1 0.25857914E-02 0.11522037E+03</pdfrwt>
<totfact> 0.62500315E+04</totfact>
</mgrwt>
</event>
<event>
 4    1  0.4029665E-002  0.1365348E+03  0.7818608E-02  0.1218069E+00
         -1   -1    0    0  501    0 -0.00000000000E+00  0.00000000000E+00  0.38773122809E+02  0.38773123137E+02  0.50400000000E-02 0.  1.
          1   -1    0    0    0  501  0.00000000000E+00 -0.00000000000E+00 -0.12019764716E+03  0.12019764726E+03  0.50400000000E-02 0.  1.
          2    1    1    2    0  502 -0.12416141970E+01  0.45897927803E+02 -0.99533992087E+02  0.10961376268E+03  0.25500000000E-02 0. -1.
         -2    1    1    2  502    0  0.12416141970E+01 -0.45897927803E+02  0.18109467739E+02  0.49357007716E+02  0.25500000000E-02 0. -1.
<mgrwt>
<rscale>  0 0.13653480E+03</rscale>
<asrwt>0</asrwt>
<pdfrwt beam="2">  1        1 0.18491946E-01 0.13653480E+03</pdfrwt>
<pdfrwt beam="1">  1       -1 0.59650959E-02 0.13653480E+03</pdfrwt>
<totfact> 0.34979715E+04</totfact>
</mgrwt>
</event>
<event>
 4    1  0.4029665E-002  0.4674733E+02  0.7818608E-02  0.1463719E+00
          1   -1    0    0    0  501  0.00000000000E+00  0.00000000000E+00  0.50388396514E+03  0.50388396517E+03  0.50400000000E-02 0. -1.
         -1   -1    0    0  501    0 -0.00000000000E+00 -0.00000000000E+00 -0.10842283930E+01  0.10842401071E+01  0.50400000000E-02 0. -1.
          2    1    1    2    0  502  0.16225935209E+02 -0.13960486406E+02  0.14997988212E+03  0.15149964093E+03  0.25500000000E-02 0. -1.
         -2    1    1    2  502    0 -0.16225935209E+02  0.13960486406E+02  0.35281985463E+03  0.35346856434E+03  0.25500000000E-02 0. -1.
<mgrwt>
<rscale>  0 0.46747332E+02</rscale>
<asrwt>0</asrwt>
<pdfrwt beam="1">  1        1 0.77520842E-01 0.46747332E+02</pdfrwt>
<pdfrwt beam="2">  1       -1 0.16680477E-03 0.46747332E+02</pdfrwt>
<totfact> 0.77018203E+05</totfact>
</mgrwt>
</event>
<event>
 4    1  0.4029665E-002  0.8184193E+02  0.7818608E-02  0.1323904E+00
          1   -1    0    0    0  501  0.00000000000E+00  0.00000000000E+00  0.50053432713E+01  0.50053458087E+01  0.50400000000E-02 0.  1.
         -1   -1    0    0  501    0 -0.00000000000E+00 -0.00000000000E+00 -0.33454744509E+03  0.33454744513E+03  0.50400000000E-02 0.  1.
          2    1    1    2    0  502  0.50952441495E+01  0.24052115389E+02 -0.29053686737E+02  0.38060248122E+02  0.25500000000E-02 0.  1.
         -2    1    1    2  502    0 -0.50952441495E+01 -0.24052115389E+02 -0.30048841508E+03  0.30149254281E+03  0.25500000000E-02 0.  1.
<mgrwt>
<rscale>  0 0.81841927E+02</rscale>
<asrwt>0</asrwt>
<pdfrwt beam="1">  1        1 0.77005327E-03 0.81841927E+02</pdfrwt>
<pdfrwt beam="2">  1       -1 0.51468820E-01 0.81841927E+02</pdfrwt>
<totfact> 0.76755310E+04</totfact>
</mgrwt>
</event>
<event>
 4    1  0.4029665E-002  0.7748079E+02  0.7818608E-02  0.1336356E+00
          1   -1    0    0    0  501  0.00000000000E+00  0.00000000000E+00  0.41777204270E+03  0.41777204274E+03  0.50400000000E-02 0. -1.
         -1   -1    0    0  501    0 -0.00000000000E+00 -0.00000000000E+00 -0.35924319324E+01  0.35924354678E+01  0.50400000000E-02 0. -1.
          2    1    1    2    0  502 -0.22037314372E+02 -0.25821040645E+02  0.10557404518E+03  0.11089746790E+03  0.25500000000E-02 0. -1.
         -2    1    1    2  502    0  0.22037314372E+02  0.25821040645E+02  0.30860556559E+03  0.31046701030E+03  0.25500000000E-02 0. -1.
<mgrwt>
<rscale>  0 0.77480794E+02</rscale>
<asrwt>0</asrwt>
<pdfrwt beam="1">  1        1 0.64272604E-01 0.77480794E+02</pdfrwt>
<pdfrwt beam="2">  1       -1 0.55268226E-03 0.77480794E+02</pdfrwt>
<totfact> 0.20848538E+05</totfact>
</mgrwt>
</event>
<event>
 4    1  0.4029665E-002  0.5247214E+02  0.7818608E-02  0.1432446E+00
          1   -1    0    0    0  501  0.00000000000E+00  0.00000000000E+00  0.21012055260E+02  0.21012055865E+02  0.50400000000E-02 0. -1.
         -1   -1    0    0  501    0 -0.00000000000E+00 -0.00000000000E+00 -0.32758881169E+02  0.32758881557E+02  0.50400000000E-02 0. -1.
          2    1    1    2    0  502 -0.75219572409E+01 -0.19019544657E+02 -0.22712073500E+02  0.30564050924E+02  0.25500000000E-02 0.  1.
         -2    1    1    2  502    0  0.75219572409E+01  0.19019544657E+02  0.10965247591E+02  0.23206886498E+02  0.25500000000E-02 0.  1.
<mgrwt>
<rscale>  0 0.52472143E+02</rscale>
<asrwt>0</asrwt>
<pdfrwt beam="1">  1        1 0.32326239E-02 0.52472143E+02</pdfrwt>
<pdfrwt beam="2">  1       -1 0.50398280E-02 0.52472143E+02</pdfrwt>
<totfact> 0.37922690E+05</totfact>
</mgrwt>
</event>
<event>
 4    1  0.4029665E-002  0.4430959E+02  0.7818608E-02  0.1478698E+00
          1   -1    0    0    0  501  0.00000000000E+00  0.00000000000E+00  0.16138655070E+03  0.16138655078E+03  0.50400000000E-02 0. -1.
         -1   -1    0    0  501    0 -0.00000000000E+00 -0.00000000000E+00 -0.30413595635E+01  0.30413637395E+01  0.50400000000E-02 0. -1.
          2    1    1    2    0  502 -0.52596193031E+01 -0.21175995614E+02  0.93423800414E+02  0.95937963684E+02  0.25500000000E-02 0.  1.
         -2    1    1    2  502    0  0.52596193031E+01  0.21175995614E+02  0.64921390722E+02  0.68489950834E+02  0.25500000000E-02 0.  1.
<mgrwt>
<rscale>  0 0.44309587E+02</rscale>
<asrwt>0</asrwt>
<pdfrwt beam="1">  1        1 0.24828706E-01 0.44309587E+02</pdfrwt>
<pdfrwt beam="2">  1       -1 0.46790169E-03 0.44309587E+02</pdfrwt>
<totfact> 0.73255665E+05</totfact>
</mgrwt>
</event>
<event>
 4    1  0.4029665E-002  0.5193439E+02  0.7818608E-02  0.1435179E+00
          1   -1    0    0    0  501  0.00000000000E+00  0.00000000000E+00  0.64186743047E+03  0.64186743049E+03  0.50400000000E-02 0. -1.
         -1   -1    0    0  501    0 -0.00000000000E+00 -0.00000000000E+00 -0.10505147364E+01  0.10505268264E+01  0.50400000000E-02 0. -1.
          2    1    1    2    0  502  0.16311508092E+02 -0.16049615092E+02  0.47234778447E+03  0.47290177092E+03  0.25500000000E-02 0. -1.
         -2    1    1    2  502    0 -0.16311508092E+02  0.16049615092E+02  0.16846913126E+03  0.17001618639E+03  0.25500000000E-02 0. -1.
<mgrwt>
<rscale>  0 0.51934385E+02</rscale>
<asrwt>0</asrwt>
<pdfrwt beam="1">  1        1 0.98749172E-01 0.51934385E+02</pdfrwt>
<pdfrwt beam="2">  1       -1 0.16161803E-03 0.51934385E+02</pdfrwt>
<totfact> 0.60345420E+05</totfact>
</mgrwt>
</event>
<event>
 4    1  0.4029665E-002  0.7297009E+02  0.7818608E-02  0.1350275E+00
         -1   -1    0    0  501    0 -0.00000000000E+00  0.00000000000E+00  0.91390759239E+02  0.91390759378E+02  0.50400000000E-02 0.  1.
          1   -1    0    0    0  501  0.00000000000E+00 -0.00000000000E+00 -0.14565569334E+02  0.14565570206E+02  0.50400000000E-02 0.  1.
          2    1    1    2    0  502  0.12322558546E+02  0.33028051810E+02  0.24755524954E+02  0.43075906000E+02  0.25500000000E-02 0. -1.
         -2    1    1    2  502    0 -0.12322558546E+02 -0.33028051810E+02  0.52069664951E+02  0.62880423584E+02  0.25500000000E-02 0. -1.
<mgrwt>
<rscale>  0 0.72970090E+02</rscale>
<asrwt>0</asrwt>
<pdfrwt beam="2">  1        1 0.22408569E-02 0.72970090E+02</pdfrwt>
<pdfrwt beam="1">  1       -1 0.14060117E-01 0.72970090E+02</pdfrwt>
<totfact> 0.14621237E+05</totfact>
</mgrwt>
</event>
<event>
 4    1  0.4029665E-002  0.4893971E+02  0.7818608E-02  0.1451146E+00
         -1   -1    0    0  501    0 -0.00000000000E+00  0.00000000000E+00  0.32283278317E+01  0.32283317659E+01  0.50400000000E-02 0.  1.
          1   -1    0    0    0  501  0.00000000000E+00 -0.00000000000E+00 -0.18547479870E+03  0.18547479876E+03  0.50400000000E-02 0.  1.
          2    1    1    2    0  502 -0.24385318141E+02  0.14737684050E+01 -0.96518766729E+02  0.99562483253E+02  0.25500000000E-02 0. -1.
         -2    1    1    2  502    0  0.24385318141E+02 -0.14737684050E+01 -0.85727704135E+02  0.89140647277E+02  0.25500000000E-02 0. -1.
<mgrwt>
<rscale>  0 0.48939711E+02</rscale>
<asrwt>0</asrwt>
<pdfrwt beam="2">  1        1 0.28534577E-01 0.48939711E+02</pdfrwt>
<pdfrwt beam="1">  1       -1 0.49666627E-03 0.48939711E+02</pdfrwt>
<totfact> 0.58540404E+05</totfact>
</mgrwt>
</event>
<event>
 4    1  0.4029665E-002  0.6718731E+02  0.7818608E-02  0.1369928E+00
         -1   -1    0    0  501    0 -0.00000000000E+00  0.00000000000E+00  0.27344402140E+01  0.27344448588E+01  0.50400000000E-02 0. -1.
          1   -1    0    0    0  501  0.00000000000E+00 -0.00000000000E+00 -0.41271066904E+03  0.41271066907E+03  0.50400000000E-02 0. -1.
          2    1    1    2    0  502 -0.27654449004E+02 -0.17921457402E+02 -0.24533983196E+03  0.24754308784E+03  0.25500000000E-02 0. -1.
         -2    1    1    2  502    0  0.27654449004E+02  0.17921457402E+02 -0.16463639687E+03  0.16790202609E+03  0.25500000000E-02 0. -1.
<mgrwt>
<rscale>  0 0.67187309E+02</rscale>
<asrwt>0</asrwt>
<pdfrwt beam="2">  1        1 0.63493900E-01 0.67187309E+02</pdfrwt>
<pdfrwt beam="1">  1       -1 0.42068380E-03 0.67187309E+02</pdfrwt>
<totfact> 0.30106618E+05</totfact>
</mgrwt>
</event>
<event>
 4    1  0.4029665E-002  0.4942983E+02  0.7818608E-02  0.1448441E+00
         -1   -1    0    0  501    0 -0.00000000000E+00  0.00000000000E+00  0.30198384002E+03  0.30198384006E+03  0.50400000000E-02 0.  1.
          1   -1    0    0    0  501  0.00000000000E+00 -0.00000000000E+00 -0.20227114945E+01  0.20227177736E+01  0.50400000000E-02 0.  1.
          2    1    1    2    0  502  0.38204393355E+01  0.22130373861E+02  0.21344400314E+03  0.21462220688E+03  0.25500000000E-02 0. -1.
         -2    1    1    2  502    0 -0.38204393355E+01 -0.22130373861E+02  0.86517125387E+02  0.89384350955E+02  0.25500000000E-02 0. -1.
<mgrwt>
<rscale>  0 0.49429835E+02</rscale>
<asrwt>0</asrwt>
<pdfrwt beam="2">  1        1 0.31118683E-03 0.49429835E+02</pdfrwt>
<pdfrwt beam="1">  1       -1 0.46459059E-01 0.49429835E+02</pdfrwt>
<totfact> 0.28783603E+05</totfact>
</mgrwt>
</event>
<event>
 4    1  0.4029665E-002  0.4077470E+02  0.7818608E-02  0.1502587E+00
         -1   -1    0    0  501    0 -0.00000000000E+00  0.00000000000E+00  0.30121864322E+00  0.30126080499E+00  0.50400000000E-02 0. -1.
          1   -1    0    0    0  501  0.00000000000E+00 -0.00000000000E+00 -0.13797782142E+04  0.13797782143E+04  0.50400000000E-02 0. -1.
          2    1    1    2    0  502 -0.17291333089E+02  0.10519835214E+02 -0.77255438846E+03  0.77281947456E+03  0.25500000000E-02 0.  1.
         -2    1    1    2  502    0  0.17291333089E+02 -0.10519835214E+02 -0.60692260714E+03  0.60726000049E+03  0.25500000000E-02 0.  1.
<mgrwt>
<rscale>  0 0.40774699E+02</rscale>
<asrwt>0</asrwt>
<pdfrwt beam="2">  1        1 0.21226851E+00 0.40774699E+02</pdfrwt>
<pdfrwt beam="1">  1       -1 0.46345679E-04 0.40774699E+02</pdfrwt>
<totfact> 0.90969657E+05</totfact>
</mgrwt>
</event>
<event>
 4    1  0.4029665E-002  0.6881384E+02  0.7818608E-02  0.1364174E+00
          1   -1    0    0    0  501  0.00000000000E+00  0.00000000000E+00  0.17255103621E+04  0.17255103621E+04  0.50400000000E-02 0.  1.
         -1   -1    0    0  501    0 -0.00000000000E+00 -0.00000000000E+00 -0.68606961404E+00  0.68608812620E+00  0.50400000000E-02 0.  1.
          2    1    1    2    0  502 -0.20437271703E+02  0.79702187773E+01  0.19747946562E+03  0.19869410110E+03  0.25500000000E-02 0.  1.
         -2    1    1    2  502    0  0.20437271703E+02 -0.79702187773E+01  0.15273448269E+04  0.15275023491E+04  0.25500000000E-02 0.  1.
<mgrwt>
<rscale>  0 0.68813842E+02</rscale>
<asrwt>0</asrwt>
<pdfrwt beam="1">  1        1 0.26546037E+00 0.68813842E+02</pdfrwt>
<pdfrwt beam="2">  1       -1 0.10555170E-03 0.68813842E+02</pdfrwt>
<totfact> 0.20174437E+05</totfact>
</mgrwt>
</event>
<event>
 4    1  0.4029665E-002  0.2386542E+03  0.7818608E-02  0.1120693E+00
         -1   -1    0    0  501    0 -0.00000000000E+00  0.00000000000E+00  0.24926643040E+03  0.24926643045E+03  0.50400000000E-02 0.  1.
          1   -1    0    0    0  501  0.00000000000E+00 -0.00000000000E+00 -0.57123423985E+02  0.57123424207E+02  0.50400000000E-02 0.  1.
          2    1    1    2    0  502  0.72275638706E+02  0.91967415825E+02  0.65767322537E+02  0.13419058925E+03  0.25500000000E-02 0. -1.
         -2    1    1    2  502    0 -0.72275638706E+02 -0.91967415825E+02  0.12637568388E+03  0.17219926541E+03  0.25500000000E-02 0. -1.
<mgrwt>
<rscale>  0 0.23865416E+03</rscale>
<asrwt>0</asrwt>
<pdfrwt beam="2">  1        1 0.87882190E-02 0.23865416E+03</pdfrwt>
<pdfrwt beam="1">  1       -1 0.38348682E-01 0.23865416E+03</pdfrwt>
<totfact> 0.50236454E+03</totfact>
</mgrwt>
</event>
<event>
 4    1  0.4029665E-002  0.5365191E+02  0.7818608E-02  0.1426584E+00
          1   -1    0    0    0  501  0.00000000000E+00  0.00000000000E+00  0.81941635997E+03  0.81941635999E+03  0.50400000000E-02 0. -1.
         -1   -1    0    0  501    0 -0.00000000000E+00 -0.00000000000E+00 -0.87821758171E+00  0.87823204361E+00  0.50400000000E-02 0. -1.
          2    1    1    2    0  502 -0.22106458212E+02 -0.15181622555E+02  0.41957797436E+03  0.42043412532E+03  0.25500000000E-02 0.  1.
         -2    1    1    2  502    0  0.22106458212E+02  0.15181622555E+02  0.39896016803E+03  0.39986046671E+03  0.25500000000E-02 0.  1.
<mgrwt>
<rscale>  0 0.53651907E+02</rscale>
<asrwt>0</asrwt>
<pdfrwt beam="1">  1        1 0.12606439E+00 0.53651907E+02</pdfrwt>
<pdfrwt beam="2">  1       -1 0.13511116E-03 0.53651907E+02</pdfrwt>
<totfact> 0.55177274E+05</totfact>
</mgrwt>
</event>
<event>
 4    1  0.4029665E-002  0.8877449E+02  0.7818608E-02  0.1305847E+00
          1   -1    0    0    0  501  0.00000000000E+00  0.00000000000E+00  0.48201243415E+03  0.48201243417E+03  0.50400000000E-02 0. -1.
         -1   -1    0    0  501    0 -0.00000000000E+00 -0.00000000000E+00 -0.40875016776E+01  0.40875047848E+01  0.50400000000E-02 0. -1.
          2    1    1    2    0  502 -0.37183579691E+02 -0.45500604713E+01  0.36933701583E+03  0.37123193952E+03  0.25500000000E-02 0.  1.
         -2    1    1    2  502    0  0.37183579691E+02  0.45500604713E+01  0.10858791664E+03  0.11486799944E+03  0.25500000000E-02 0.  1.
<mgrwt>
<rscale>  0 0.88774487E+02</rscale>
<asrwt>0</asrwt>
<pdfrwt beam="1">  1        1 0.74155710E-01 0.88774487E+02</pdfrwt>
<pdfrwt beam="2">  1       -1 0.62884707E-03 0.88774487E+02</pdfrwt>
<totfact> 0.14879108E+05</totfact>
</mgrwt>
</event>
<event>
 4    1  0.4029665E-002  0.4639908E+02  0.7818608E-02  0.1465792E+00
          1   -1    0    0    0  501  0.00000000000E+00  0.00000000000E+00  0.11916613233E+02  0.11916614299E+02  0.50400000000E-02 0.  1.
         -1   -1    0    0  501    0 -0.00000000000E+00 -0.00000000000E+00 -0.45165396539E+02  0.45165396820E+02  0.50400000000E-02 0.  1.
          2    1    1    2    0  502 -0.18877963735E+02 -0.73779855313E+01 -0.30510660077E+02  0.36629394891E+02  0.25500000000E-02 0. -1.
         -2    1    1    2  502    0  0.18877963735E+02  0.73779855313E+01 -0.27381232292E+01  0.20452616228E+02  0.25500000000E-02 0. -1.
<mgrwt>
<rscale>  0 0.46399078E+02</rscale>
<asrwt>0</asrwt>
<pdfrwt beam="1">  1        1 0.18333252E-02 0.46399078E+02</pdfrwt>
<pdfrwt beam="2">  1       -1 0.69485226E-02 0.46399078E+02</pdfrwt>
<totfact> 0.49609547E+05</totfact>
</mgrwt>
</event>
<event>
 4    1  0.4029665E-002  0.5769637E+02  0.7818608E-02  0.1407761E+00
         -1   -1    0    0  501    0 -0.00000000000E+00  0.00000000000E+00  0.31045680555E+01  0.31045721465E+01  0.50400000000E-02 0. -1.
          1   -1    0    0    0  501  0.00000000000E+00 -0.00000000000E+00 -0.26806213376E+03  0.26806213381E+03  0.50400000000E-02 0. -1.
          2    1    1    2    0  502  0.64643815976E+00  0.26973093137E+02 -0.18046651333E+03  0.18247226659E+03  0.25500000000E-02 0. -1.
         -2    1    1    2  502    0 -0.64643815976E+00 -0.26973093137E+02 -0.84491052382E+02  0.88694439368E+02  0.25500000000E-02 0. -1.
<mgrwt>
<rscale>  0 0.57696367E+02</rscale>
<asrwt>0</asrwt>
<pdfrwt beam="2">  1        1 0.41240310E-01 0.57696367E+02</pdfrwt>
<pdfrwt beam="1">  1       -1 0.47762638E-03 0.57696367E+02</pdfrwt>
<totfact> 0.41265275E+05</totfact>
</mgrwt>
</event>
<event>
 4    1  0.4029665E-002  0.8230670E+02  0.7818608E-02  0.1322630E+00
          1   -1    0    0    0  501  0.00000000000E+00  0.00000000000E+00  0.16934439247E+03  0.16934439254E+03  0.50400000000E-02 0.  1.
         -1   -1    0    0  501    0 -0.00000000000E+00 -0.00000000000E+00 -0.10000911105E+02  0.10000912375E+02  0.50400000000E-02 0.  1.
          2    1    1    2    0  502  0.26660611411E+02 -0.17833042158E+02  0.23489644406E+02  0.39756370486E+02  0.25500000000E-02 0.  1.
         -2    1    1    2  502    0 -0.26660611411E+02  0.17833042158E+02  0.13585383696E+03  0.13958893443E+03  0.25500000000E-02 0.  1.
<mgrwt>
<rscale>  0 0.82306703E+02</rscale>
<asrwt>0</asrwt>
<pdfrwt beam="1">  1        1 0.26052983E-01 0.82306703E+02</pdfrwt>
<pdfrwt beam="2">  1       -1 0.15386019E-02 0.82306703E+02</pdfrwt>
<totfact> 0.15078766E+05</totfact>
</mgrwt>
</event>
<event>
 4    1  0.4029665E-002  0.5559932E+02  0.7818608E-02  0.1417286E+00
         -1   -1    0    0  501    0 -0.00000000000E+00  0.00000000000E+00  0.51823791947E+02  0.51823792192E+02  0.50400000000E-02 0. -1.
          1   -1    0    0    0  501  0.00000000000E+00 -0.00000000000E+00 -0.14912476655E+02  0.14912477507E+02  0.50400000000E-02 0. -1.
          2    1    1    2    0  502 -0.55716427478E+01 -0.26140108177E+02  0.27634097417E+02  0.38444658991E+02  0.25500000000E-02 0.  1.
         -2    1    1    2  502    0  0.55716427478E+01  0.26140108177E+02  0.92772178755E+01  0.28291610707E+02  0.25500000000E-02 0.  1.
<mgrwt>
<rscale>  0 0.55599321E+02</rscale>
<asrwt>0</asrwt>
<pdfrwt beam="2">  1        1 0.22942273E-02 0.55599321E+02</pdfrwt>
<pdfrwt beam="1">  1       -1 0.79728911E-02 0.55599321E+02</pdfrwt>
<totfact> 0.31322302E+05</totfact>
</mgrwt>
</event>
<event>
 4    1  0.4029665E-002  0.6511991E+02  0.7818608E-02  0.1377521E+00
         -1   -1    0    0  501    0 -0.00000000000E+00  0.00000000000E+00  0.10600524799E+02  0.10600525997E+02  0.50400000000E-02 0.  1.
          1   -1    0    0    0  501  0.00000000000E+00 -0.00000000000E+00 -0.10000924852E+03  0.10000924865E+03  0.50400000000E-02 0.  1.
          2    1    1    2    0  502  0.20819136250E+02  0.21013287358E+02 -0.21591777117E+02  0.36622391038E+02  0.25500000000E-02 0.  1.
         -2    1    1    2  502    0 -0.20819136250E+02 -0.21013287358E+02 -0.67816946605E+02  0.73987383608E+02  0.25500000000E-02 0.  1.
<mgrwt>
<rscale>  0 0.65119908E+02</rscale>
<asrwt>0</asrwt>
<pdfrwt beam="2">  1        1 0.15386038E-01 0.65119908E+02</pdfrwt>
<pdfrwt beam="1">  1       -1 0.16308501E-02 0.65119908E+02</pdfrwt>
<totfact> 0.25626502E+05</totfact>
</mgrwt>
</event>
<event>
 4    1  0.4029665E-002  0.1452697E+03  0.7818608E-02  0.1206409E+00
         -1   -1    0    0  501    0 -0.00000000000E+00  0.00000000000E+00  0.52494703981E+02  0.52494704223E+02  0.50400000000E-02 0.  1.
          1   -1    0    0    0  501  0.00000000000E+00 -0.00000000000E+00 -0.10050199718E+03  0.10050199730E+03  0.50400000000E-02 0.  1.
          2    1    1    2    0  502  0.46020191769E+02  0.54217033352E+02 -0.39570853336E+02  0.81383027691E+02  0.25500000000E-02 0.  1.
         -2    1    1    2  502    0 -0.46020191769E+02 -0.54217033352E+02 -0.84364398586E+01  0.71613673833E+02  0.25500000000E-02 0.  1.
<mgrwt>
<rscale>  0 0.14526972E+03</rscale>
<asrwt>0</asrwt>
<pdfrwt beam="2">  1        1 0.15461846E-01 0.14526972E+03</pdfrwt>
<pdfrwt beam="1">  1       -1 0.80761083E-02 0.14526972E+03</pdfrwt>
<totfact> 0.28136992E+04</totfact>
</mgrwt>
</event>
<event>
 4    1  0.4029665E-002  0.1077740E+03  0.7818608E-02  0.1264749E+00
          1   -1    0    0    0  501  0.00000000000E+00  0.00000000000E+00  0.37696935362E+02  0.37696935699E+02  0.50400000000E-02 0. -1.
         -1   -1    0    0  501    0 -0.00000000000E+00 -0.00000000000E+00 -0.77030298923E+02  0.77030299088E+02  0.50400000000E-02 0. -1.
          2    1    1    2    0  502 -0.14256298491E+02  0.39427424252E+02 -0.55704049018E+02  0.69718755822E+02  0.25500000000E-02 0. -1.
         -2    1    1    2  502    0  0.14256298491E+02 -0.39427424252E+02  0.16370685458E+02  0.45008478964E+02  0.25500000000E-02 0. -1.
<mgrwt>
<rscale>  0 0.10777395E+03</rscale>
<asrwt>0</asrwt>
<pdfrwt beam="1">  1        1 0.57995286E-02 0.10777395E+03</pdfrwt>
<pdfrwt beam="2">  1       -1 0.11850815E-01 0.10777395E+03</pdfrwt>
<totfact> 0.55516102E+04</totfact>
</mgrwt>
</event>
<event>
 4    1  0.4029665E-002  0.7503781E+02  0.7818608E-02  0.1343754E+00
         -1   -1    0    0  501    0 -0.00000000000E+00  0.00000000000E+00  0.49973221437E+00  0.49975762894E+00  0.50400000000E-02 0.  1.
          1   -1    0    0    0  501  0.00000000000E+00 -0.00000000000E+00 -0.28167732879E+04  0.28167732879E+04  0.50400000000E-02 0.  1.
          2    1    1    2    0  502  0.21517521723E+02  0.30722756755E+02 -0.13750499233E+04  0.13755614066E+04  0.25500000000E-02 0. -1.
         -2    1    1    2  502    0 -0.21517521723E+02 -0.30722756755E+02 -0.14412236323E+04  0.14417116389E+04  0.25500000000E-02 0. -1.
<mgrwt>
<rscale>  0 0.75037808E+02</rscale>
<asrwt>0</asrwt>
<pdfrwt beam="2">  1        1 0.43333703E+00 0.75037808E+02</pdfrwt>
<pdfrwt beam="1">  1       -1 0.76886090E-04 0.75037808E+02</pdfrwt>
<totfact> 0.64174294E+04</totfact>
</mgrwt>
</event>
<event>
 4    1  0.4029665E-002  0.4937075E+02  0.7818608E-02  0.1448765E+00
         -1   -1    0    0  501    0 -0.00000000000E+00  0.00000000000E+00  0.43408076503E+01  0.43408105762E+01  0.50400000000E-02 0. -1.
          1   -1    0    0    0  501  0.00000000000E+00 -0.00000000000E+00 -0.14038116349E+03  0.14038116358E+03  0.50400000000E-02 0. -1.
          2    1    1    2    0  502 -0.21862663825E+02  0.11321212839E+02 -0.73281821835E+02  0.77306994170E+02  0.25500000000E-02 0.  1.
         -2    1    1    2  502    0  0.21862663825E+02 -0.11321212839E+02 -0.62758534003E+02  0.67414979985E+02  0.25500000000E-02 0.  1.
<mgrwt>
<rscale>  0 0.49370754E+02</rscale>
<asrwt>0</asrwt>
<pdfrwt beam="2">  1        1 0.21597099E-01 0.49370754E+02</pdfrwt>
<pdfrwt beam="1">  1       -1 0.66781690E-03 0.49370754E+02</pdfrwt>
<totfact> 0.54741102E+05</totfact>
</mgrwt>
</event>
<event>
 4    1  0.4029665E-002  0.4572694E+02  0.7818608E-02  0.1469854E+00
          1   -1    0    0    0  501  0.00000000000E+00  0.00000000000E+00  0.44937539449E+02  0.44937539732E+02  0.50400000000E-02 0. -1.
         -1   -1    0    0  501    0 -0.00000000000E+00 -0.00000000000E+00 -0.11632553278E+02  0.11632554370E+02  0.50400000000E-02 0. -1.
          2    1    1    2    0  502  0.48308113060E+01 -0.20758826074E+02  0.26889514813E+02  0.34311974750E+02  0.25500000000E-02 0. -1.
         -2    1    1    2  502    0 -0.48308113060E+01  0.20758826074E+02  0.64154713587E+01  0.22258119352E+02  0.25500000000E-02 0. -1.
<mgrwt>
<rscale>  0 0.45726944E+02</rscale>
<asrwt>0</asrwt>
<pdfrwt beam="1">  1        1 0.69134677E-02 0.45726944E+02</pdfrwt>
<pdfrwt beam="2">  1       -1 0.17896237E-02 0.45726944E+02</pdfrwt>
<totfact> 0.57912229E+05</totfact>
</mgrwt>
</event>
<event>
 4    1  0.4029665E-002  0.4911594E+02  0.7818608E-02  0.1450169E+00
         -1   -1    0    0  501    0 -0.00000000000E+00  0.00000000000E+00  0.72210535339E+03  0.72210535341E+03  0.50400000000E-02 0.  1.
          1   -1    0    0    0  501  0.00000000000E+00 -0.00000000000E+00 -0.83518059794E+00  0.83519580505E+00  0.50400000000E-02 0.  1.
          2    1    1    2    0  502 -0.20413469704E+02 -0.12734204433E+02  0.28819072693E+03  0.28919330006E+03  0.25500000000E-02 0.  1.
         -2    1    1    2  502    0  0.20413469704E+02  0.12734204433E+02  0.43307944587E+03  0.43374724915E+03  0.25500000000E-02 0.  1.
<mgrwt>
<rscale>  0 0.49115940E+02</rscale>
<asrwt>0</asrwt>
<pdfrwt beam="2">  1        1 0.12849047E-03 0.49115940E+02</pdfrwt>
<pdfrwt beam="1">  1       -1 0.11109315E+00 0.49115940E+02</pdfrwt>
<totfact> 0.17398878E+05</totfact>
</mgrwt>
</event>
<event>
 4    1  0.4029665E-002  0.5916139E+02  0.7818608E-02  0.1401385E+00
         -1   -1    0    0  501    0 -0.00000000000E+00  0.00000000000E+00  0.13798621007E+03  0.13798621016E+03  0.50400000000E-02 0.  1.
          1   -1    0    0    0  501  0.00000000000E+00 -0.00000000000E+00 -0.63413382784E+01  0.63413402812E+01  0.50400000000E-02 0.  1.
          2    1    1    2    0  502 -0.26841523467E+02  0.12426938504E+02  0.64973141234E+02  0.71389111711E+02  0.25500000000E-02 0.  1.
         -2    1    1    2  502    0  0.26841523467E+02 -0.12426938504E+02  0.66671730556E+02  0.72938438731E+02  0.25500000000E-02 0.  1.
<mgrwt>
<rscale>  0 0.59161386E+02</rscale>
<asrwt>0</asrwt>
<pdfrwt beam="2">  1        1 0.97559064E-03 0.59161386E+02</pdfrwt>
<pdfrwt beam="1">  1       -1 0.21228648E-01 0.59161386E+02</pdfrwt>
<totfact> 0.23032878E+05</totfact>
</mgrwt>
</event>
<event>
 4    1  0.4029665E-002  0.4359500E+02  0.7818608E-02  0.1483308E+00
          1   -1    0    0    0  501  0.00000000000E+00  0.00000000000E+00  0.31143689090E+02  0.31143689498E+02  0.50400000000E-02 0. -1.
         -1   -1    0    0  501    0 -0.00000000000E+00 -0.00000000000E+00 -0.15256090433E+02  0.15256091266E+02  0.50400000000E-02 0. -1.
          2    1    1    2    0  502 -0.18005783405E+02 -0.95786292330E+01 -0.24347868012E+00  0.20396511035E+02  0.25500000000E-02 0.  1.
         -2    1    1    2  502    0  0.18005783405E+02  0.95786292330E+01  0.16131077338E+02  0.26003269729E+02  0.25500000000E-02 0.  1.
<mgrwt>
<rscale>  0 0.43594998E+02</rscale>
<asrwt>0</asrwt>
<pdfrwt beam="1">  1        1 0.47913369E-02 0.43594998E+02</pdfrwt>
<pdfrwt beam="2">  1       -1 0.23470909E-02 0.43594998E+02</pdfrwt>
<totfact> 0.63336784E+05</totfact>
</mgrwt>
</event>
<event>
 4    1  0.4029665E-002  0.4715770E+02  0.7818608E-02  0.1461304E+00
          1   -1    0    0    0  501  0.00000000000E+00  0.00000000000E+00  0.29175106200E+01  0.29175149733E+01  0.50400000000E-02 0. -1.
         -1   -1    0    0  501    0 -0.00000000000E+00 -0.00000000000E+00 -0.19056028889E+03  0.19056028895E+03  0.50400000000E-02 0. -1.
          2    1    1    2    0  502 -0.23310679318E+02  0.15233022612E+01 -0.80683596102E+02  0.83997326782E+02  0.25500000000E-02 0.  1.
         -2    1    1    2  502    0  0.23310679318E+02 -0.15233022612E+01 -0.10695918217E+03  0.10948047715E+03  0.25500000000E-02 0.  1.
<mgrwt>
<rscale>  0 0.47157697E+02</rscale>
<asrwt>0</asrwt>
<pdfrwt beam="1">  1        1 0.44884828E-03 0.47157697E+02</pdfrwt>
<pdfrwt beam="2">  1       -1 0.29316958E-01 0.47157697E+02</pdfrwt>
<totfact> 0.37533272E+05</totfact>
</mgrwt>
</event>
<event>
 4    1  0.4029665E-002  0.7548887E+02  0.7818608E-02  0.1342364E+00
         -1   -1    0    0  501    0 -0.00000000000E+00  0.00000000000E+00  0.12421989068E+01  0.12422091312E+01  0.50400000000E-02 0. -1.
          1   -1    0    0    0  501  0.00000000000E+00 -0.00000000000E+00 -0.11468665195E+04  0.11468665195E+04  0.50400000000E-02 0. -1.
          2    1    1    2    0  502 -0.23531951883E+01 -0.34702465688E+02 -0.34988587339E+03  0.35161047063E+03  0.25500000000E-02 0. -1.
         -2    1    1    2  502    0  0.23531951883E+01  0.34702465688E+02 -0.79573844719E+03  0.79649825799E+03  0.25500000000E-02 0. -1.
<mgrwt>
<rscale>  0 0.75488866E+02</rscale>
<asrwt>0</asrwt>
<pdfrwt beam="2">  1        1 0.17644016E+00 0.75488866E+02</pdfrwt>
<pdfrwt beam="1">  1       -1 0.19110923E-03 0.75488866E+02</pdfrwt>
<totfact> 0.21299291E+05</totfact>
</mgrwt>
</event>
<event>
 4    1  0.4029665E-002  0.1127932E+03  0.7818608E-02  0.1255483E+00
         -1   -1    0    0  501    0 -0.00000000000E+00  0.00000000000E+00  0.35879624622E+01  0.35879660020E+01  0.50400000000E-02 0. -1.
          1   -1    0    0    0  501  0.00000000000E+00 -0.00000000000E+00 -0.88645778043E+03  0.88645778044E+03  0.50400000000E-02 0. -1.
          2    1    1    2    0  502  0.52133269715E+01 -0.56150379084E+02 -0.44720645925E+03  0.45074789079E+03  0.25500000000E-02 0. -1.
         -2    1    1    2  502    0 -0.52133269715E+01  0.56150379084E+02 -0.43566335872E+03  0.43929785566E+03  0.25500000000E-02 0. -1.
<mgrwt>
<rscale>  0 0.11279324E+03</rscale>
<asrwt>0</asrwt>
<pdfrwt beam="2">  1        1 0.13637795E+00 0.11279324E+03</pdfrwt>
<pdfrwt beam="1">  1       -1 0.55199520E-03 0.11279324E+03</pdfrwt>
<totfact> 0.79057307E+04</totfact>
</mgrwt>
</event>
<event>
 4    1  0.4029665E-002  0.8773024E+02  0.7818608E-02  0.1308443E+00
         -1   -1    0    0  501    0 -0.00000000000E+00  0.00000000000E+00  0.16176759182E+02  0.16176759967E+02  0.50400000000E-02 0.  1.
          1   -1    0    0    0  501  0.00000000000E+00 -0.00000000000E+00 -0.11894525365E+03  0.11894525376E+03  0.50400000000E-02 0.  1.
          2    1    1    2    0  502 -0.41300395498E+02 -0.11443379306E+02 -0.65789444493E+02  0.78517033893E+02  0.25500000000E-02 0. -1.
         -2    1    1    2  502    0  0.41300395498E+02  0.11443379306E+02 -0.36979049979E+02  0.56604979835E+02  0.25500000000E-02 0. -1.
<mgrwt>
<rscale>  0 0.87730241E+02</rscale>
<asrwt>0</asrwt>
<pdfrwt beam="2">  1        1 0.18299269E-01 0.87730241E+02</pdfrwt>
<pdfrwt beam="1">  1       -1 0.24887323E-02 0.87730241E+02</pdfrwt>
<totfact> 0.11938839E+05</totfact>
</mgrwt>
</event>
<event>
 4    1  0.4029665E-002  0.2121980E+03  0.7818608E-02  0.1139837E+00
         -1   -1    0    0  501    0 -0.00000000000E+00  0.00000000000E+00  0.68438090761E+01  0.68438109319E+01  0.50400000000E-02 0. -1.
          1   -1    0    0    0  501  0.00000000000E+00 -0.00000000000E+00 -0.16448438405E+04  0.16448438405E+04  0.50400000000E-02 0. -1.
          2    1    1    2    0  502 -0.24471812904E+02 -0.85982405296E+02 -0.12637731274E+04  0.12669310799E+04  0.25500000000E-02 0.  1.
         -2    1    1    2  502    0  0.24471812904E+02  0.85982405296E+02 -0.37422690396E+03  0.38475657148E+03  0.25500000000E-02 0.  1.
<mgrwt>
<rscale>  0 0.21219801E+03</rscale>
<asrwt>0</asrwt>
<pdfrwt beam="2">  1        1 0.25305258E+00 0.21219801E+03</pdfrwt>
<pdfrwt beam="1">  1       -1 0.10528952E-02 0.21219801E+03</pdfrwt>
<totfact> 0.99524169E+03</totfact>
</mgrwt>
</event>
<event>
 4    1  0.4029665E-002  0.6784603E+02  0.7818608E-02  0.1367575E+00
         -1   -1    0    0  501    0 -0.00000000000E+00  0.00000000000E+00  0.10358239696E+01  0.10358362310E+01  0.50400000000E-02 0.  1.
          1   -1    0    0    0  501  0.00000000000E+00 -0.00000000000E+00 -0.11109649787E+04  0.11109649787E+04  0.50400000000E-02 0.  1.
          2    1    1    2    0  502 -0.24960716715E+02  0.34513659816E+01 -0.92721092833E+03  0.92755326258E+03  0.25500000000E-02 0. -1.
         -2    1    1    2  502    0  0.24960716715E+02 -0.34513659816E+01 -0.18271822636E+03  0.18444755232E+03  0.25500000000E-02 0. -1.
<mgrwt>
<rscale>  0 0.67846031E+02</rscale>
<asrwt>0</asrwt>
<pdfrwt beam="2">  1        1 0.17091674E+00 0.67846031E+02</pdfrwt>
<pdfrwt beam="1">  1       -1 0.15935937E-03 0.67846031E+02</pdfrwt>
<totfact> 0.28410068E+05</totfact>
</mgrwt>
</event>
<event>
 4    1  0.4029665E-002  0.5962700E+02  0.7818608E-02  0.1399404E+00
         -1   -1    0    0  501    0 -0.00000000000E+00  0.00000000000E+00  0.32260437081E+00  0.32264373799E+00  0.50400000000E-02 0.  1.
          1   -1    0    0    0  501  0.00000000000E+00 -0.00000000000E+00 -0.27550476676E+04  0.27550476676E+04  0.50400000000E-02 0.  1.
          2    1    1    2    0  502 -0.16142034518E+02  0.25023083751E+02 -0.13100057455E+04  0.13103441431E+04  0.25500000000E-02 0.  1.
         -2    1    1    2  502    0  0.16142034518E+02 -0.25023083751E+02 -0.14447193178E+04  0.14450261683E+04  0.25500000000E-02 0.  1.
<mgrwt>
<rscale>  0 0.59626996E+02</rscale>
<asrwt>0</asrwt>
<pdfrwt beam="2">  1        1 0.42383465E+00 0.59626996E+02</pdfrwt>
<pdfrwt beam="1">  1       -1 0.49636677E-04 0.59626996E+02</pdfrwt>
<totfact> 0.12437972E+05</totfact>
</mgrwt>
</event>
<event>
 4    1  0.4029665E-002  0.4473023E+02  0.7818608E-02  0.1476033E+00
         -1   -1    0    0  501    0 -0.00000000000E+00  0.00000000000E+00  0.10654945641E+02  0.10654946833E+02  0.50400000000E-02 0. -1.
          1   -1    0    0    0  501  0.00000000000E+00 -0.00000000000E+00 -0.46945182611E+02  0.46945182881E+02  0.50400000000E-02 0. -1.
          2    1    1    2    0  502 -0.29991932215E+01  0.20928534009E+02 -0.27537526255E+02  0.34717633192E+02  0.25500000000E-02 0. -1.
         -2    1    1    2  502    0  0.29991932215E+01 -0.20928534009E+02 -0.87527107144E+01  0.22882496522E+02  0.25500000000E-02 0. -1.
<mgrwt>
<rscale>  0 0.44730232E+02</rscale>
<asrwt>0</asrwt>
<pdfrwt beam="2">  1        1 0.72223358E-02 0.44730232E+02</pdfrwt>
<pdfrwt beam="1">  1       -1 0.16392225E-02 0.44730232E+02</pdfrwt>
<totfact> 0.61469284E+05</totfact>
</mgrwt>
</event>
<event>
 4    1  0.4029665E-002  0.5612290E+02  0.7818608E-02  0.1414862E+00
          1   -1    0    0    0  501  0.00000000000E+00  0.00000000000E+00  0.37151948024E+02  0.37151948365E+02  0.50400000000E-02 0.  1.
         -1   -1    0    0  501    0 -0.00000000000E+00 -0.00000000000E+00 -0.21195255179E+02  0.21195255778E+02  0.50400000000E-02 0.  1.
          2    1    1    2    0  502  0.16097750511E+02  0.21357296682E+02 -0.85384248090E+00  0.26758190270E+02  0.25500000000E-02 0.  1.
         -2    1    1    2  502    0 -0.16097750511E+02 -0.21357296682E+02  0.16810535325E+02  0.31589013873E+02  0.25500000000E-02 0.  1.
<mgrwt>
<rscale>  0 0.56122902E+02</rscale>
<asrwt>0</asrwt>
<pdfrwt beam="1">  1        1 0.57156844E-02 0.56122902E+02</pdfrwt>
<pdfrwt beam="2">  1       -1 0.32608086E-02 0.56122902E+02</pdfrwt>
<totfact> 0.33586108E+05</totfact>
</mgrwt>
</event>
<event>
 4    1  0.4029665E-002  0.5059410E+02  0.7818608E-02  0.1442163E+00
         -1   -1    0    0  501    0 -0.00000000000E+00  0.00000000000E+00  0.74762137132E+01  0.74762154121E+01  0.50400000000E-02 0. -1.
          1   -1    0    0    0  501  0.00000000000E+00 -0.00000000000E+00 -0.85596900521E+02  0.85596900669E+02  0.50400000000E-02 0. -1.
          2    1    1    2    0  502  0.17090863360E+02  0.16680981291E+02 -0.23714466819E+02  0.33656034975E+02  0.25500000000E-02 0.  1.
         -2    1    1    2  502    0 -0.17090863360E+02 -0.16680981291E+02 -0.54406219989E+02  0.59417081106E+02  0.25500000000E-02 0.  1.
<mgrwt>
<rscale>  0 0.50594103E+02</rscale>
<asrwt>0</asrwt>
<pdfrwt beam="2">  1        1 0.13168753E-01 0.50594103E+02</pdfrwt>
<pdfrwt beam="1">  1       -1 0.11501869E-02 0.50594103E+02</pdfrwt>
<totfact> 0.48029761E+05</totfact>
</mgrwt>
</event>
<event>
 4    1  0.4029665E-002  0.4606419E+02  0.7818608E-02  0.1467805E+00
          1   -1    0    0    0  501  0.00000000000E+00  0.00000000000E+00  0.38274794611E+03  0.38274794614E+03  0.50400000000E-02 0. -1.
         -1   -1    0    0  501    0 -0.00000000000E+00 -0.00000000000E+00 -0.13859658448E+01  0.13859750087E+01  0.50400000000E-02 0. -1.
          2    1    1    2    0  502 -0.20860691721E+02 -0.96858283359E+01  0.18048949354E+03  0.18194900664E+03  0.25500000000E-02 0.  1.
         -2    1    1    2  502    0  0.20860691721E+02  0.96858283359E+01  0.20087248672E+03  0.20218491451E+03  0.25500000000E-02 0.  1.
<mgrwt>
<rscale>  0 0.46064188E+02</rscale>
<asrwt>0</asrwt>
<pdfrwt beam="1">  1        1 0.58884280E-01 0.46064188E+02</pdfrwt>
<pdfrwt beam="2">  1       -1 0.21322630E-03 0.46064188E+02</pdfrwt>
<totfact> 0.76997810E+05</totfact>
</mgrwt>
</event>
<event>
 4    1  0.4029665E-002  0.4419366E+02  0.7818608E-02  0.1479439E+00
         -1   -1    0    0  501    0 -0.00000000000E+00  0.00000000000E+00  0.12659450757E+02  0.12659451760E+02  0.50400000000E-02 0. -1.
          1   -1    0    0    0  501  0.00000000000E+00 -0.00000000000E+00 -0.38569588934E+02  0.38569589263E+02  0.50400000000E-02 0. -1.
          2    1    1    2    0  502 -0.10353485914E+02 -0.19129709336E+02 -0.84462066927E+01  0.23334070881E+02  0.25500000000E-02 0.  1.
         -2    1    1    2  502    0  0.10353485914E+02  0.19129709336E+02 -0.17463931484E+02  0.27894970143E+02  0.25500000000E-02 0.  1.
<mgrwt>
<rscale>  0 0.44193658E+02</rscale>
<asrwt>0</asrwt>
<pdfrwt beam="2">  1        1 0.59337830E-02 0.44193658E+02</pdfrwt>
<pdfrwt beam="1">  1       -1 0.19476079E-02 0.44193658E+02</pdfrwt>
<totfact> 0.62280921E+05</totfact>
</mgrwt>
</event>
<event>
 4    1  0.4029665E-002  0.4452628E+02  0.7818608E-02  0.1477321E+00
         -1   -1    0    0  501    0 -0.00000000000E+00  0.00000000000E+00  0.23094868292E+02  0.23094868842E+02  0.50400000000E-02 0.  1.
          1   -1    0    0    0  501  0.00000000000E+00 -0.00000000000E+00 -0.21461367658E+02  0.21461368250E+02  0.50400000000E-02 0.  1.
          2    1    1    2    0  502  0.17285908787E+02 -0.13978169023E+02  0.20240554296E+01  0.22322380221E+02  0.25500000000E-02 0.  1.
         -2    1    1    2  502    0 -0.17285908787E+02  0.13978169023E+02 -0.39055479598E+00  0.22233856871E+02  0.25500000000E-02 0.  1.
<mgrwt>
<rscale>  0 0.44526284E+02</rscale>
<asrwt>0</asrwt>
<pdfrwt beam="2">  1        1 0.33017489E-02 0.44526284E+02</pdfrwt>
<pdfrwt beam="1">  1       -1 0.35530568E-02 0.44526284E+02</pdfrwt>
<totfact> 0.58244752E+05</totfact>
</mgrwt>
</event>
<event>
 4    1  0.4029665E-002  0.5365551E+02  0.7818608E-02  0.1426566E+00
          1   -1    0    0    0  501  0.00000000000E+00  0.00000000000E+00  0.84445776954E+02  0.84445777104E+02  0.50400000000E-02 0. -1.
         -1   -1    0    0  501    0 -0.00000000000E+00 -0.00000000000E+00 -0.85229659097E+01  0.85229673998E+01  0.50400000000E-02 0. -1.
          2    1    1    2    0  502 -0.19237586917E+02  0.16625145053E+02  0.52790735378E+02  0.58594726270E+02  0.25500000000E-02 0.  1.
         -2    1    1    2  502    0  0.19237586917E+02 -0.16625145053E+02  0.23132075666E+02  0.34374018233E+02  0.25500000000E-02 0.  1.
<mgrwt>
<rscale>  0 0.53655514E+02</rscale>
<asrwt>0</asrwt>
<pdfrwt beam="1">  1        1 0.12991658E-01 0.53655514E+02</pdfrwt>
<pdfrwt beam="2">  1       -1 0.13112256E-02 0.53655514E+02</pdfrwt>
<totfact> 0.41291137E+05</totfact>
</mgrwt>
</event>
<event>
 4    1  0.4029665E-002  0.8033274E+02  0.7818608E-02  0.1328110E+00
         -1   -1    0    0  501    0 -0.00000000000E+00  0.00000000000E+00  0.76376229580E+02  0.76376229746E+02  0.50400000000E-02 0. -1.
          1   -1    0    0    0  501  0.00000000000E+00 -0.00000000000E+00 -0.21123554258E+02  0.21123554859E+02  0.50400000000E-02 0. -1.
          2    1    1    2    0  502  0.64941017688E+01  0.33473898539E+02  0.18609532555E+01  0.34148768568E+02  0.25500000000E-02 0. -1.
         -2    1    1    2  502    0 -0.64941017688E+01 -0.33473898539E+02  0.53391722066E+02  0.63351016037E+02  0.25500000000E-02 0. -1.
<mgrwt>
<rscale>  0 0.80332745E+02</rscale>
<asrwt>0</asrwt>
<pdfrwt beam="2">  1        1 0.32497776E-02 0.80332745E+02</pdfrwt>
<pdfrwt beam="1">  1       -1 0.11750189E-01 0.80332745E+02</pdfrwt>
<totfact> 0.11783707E+05</totfact>
</mgrwt>
</event>
<event>
 4    1  0.4029665E-002  0.1191870E+03  0.7818608E-02  0.1244444E+00
          1   -1    0    0    0  501  0.00000000000E+00  0.00000000000E+00  0.22438962140E+04  0.22438962141E+04  0.50400000000E-02 0.  1.
         -1   -1    0    0  501    0 -0.00000000000E+00 -0.00000000000E+00 -0.15826836425E+01  0.15826916674E+01  0.50400000000E-02 0.  1.
          2    1    1    2    0  502 -0.52618800708E+02  0.20896086478E+02  0.14716014188E+04  0.14726900965E+04  0.25500000000E-02 0.  1.
         -2    1    1    2  502    0  0.52618800708E+02 -0.20896086478E+02  0.77071211165E+03  0.77278880923E+03  0.25500000000E-02 0.  1.
<mgrwt>
<rscale>  0 0.11918703E+03</rscale>
<asrwt>0</asrwt>
<pdfrwt beam="1">  1        1 0.34521458E+00 0.11918703E+03</pdfrwt>
<pdfrwt beam="2">  1       -1 0.24349057E-03 0.11918703E+03</pdfrwt>
<totfact> 0.31903182E+04</totfact>
</mgrwt>
</event>
<event>
 4    1  0.4029665E-002  0.5603137E+02  0.7818608E-02  0.1415283E+00
          1   -1    0    0    0  501  0.00000000000E+00  0.00000000000E+00  0.15723573528E+03  0.15723573536E+03  0.50400000000E-02 0. -1.
         -1   -1    0    0  501    0 -0.00000000000E+00 -0.00000000000E+00 -0.49917302970E+01  0.49917328414E+01  0.50400000000E-02 0. -1.
          2    1    1    2    0  502  0.27640107059E+02 -0.27899334513E+01  0.65635052495E+02  0.71272150026E+02  0.25500000000E-02 0.  1.
         -2    1    1    2  502    0 -0.27640107059E+02  0.27899334513E+01  0.86608952492E+02  0.90955318179E+02  0.25500000000E-02 0.  1.
<mgrwt>
<rscale>  0 0.56031370E+02</rscale>
<asrwt>0</asrwt>
<pdfrwt beam="1">  1        1 0.24190114E-01 0.56031370E+02</pdfrwt>
<pdfrwt beam="2">  1       -1 0.76795870E-03 0.56031370E+02</pdfrwt>
<totfact> 0.40481468E+05</totfact>
</mgrwt>
</event>
<event>
 4    1  0.4029665E-002  0.4698630E+02  0.7818608E-02  0.1462309E+00
          1   -1    0    0    0  501  0.00000000000E+00  0.00000000000E+00  0.24743174215E+02  0.24743174728E+02  0.50400000000E-02 0. -1.
         -1   -1    0    0  501    0 -0.00000000000E+00 -0.00000000000E+00 -0.22306272227E+02  0.22306272797E+02  0.50400000000E-02 0. -1.
          2    1    1    2    0  502 -0.51403436671E+01  0.20078159506E+02 -0.98586219153E+01  0.22950992456E+02  0.25500000000E-02 0. -1.
         -2    1    1    2  502    0  0.51403436671E+01 -0.20078159506E+02  0.12295523903E+02  0.24098455069E+02  0.25500000000E-02 0. -1.
<mgrwt>
<rscale>  0 0.46986296E+02</rscale>
<asrwt>0</asrwt>
<pdfrwt beam="1">  1        1 0.38066423E-02 0.46986296E+02</pdfrwt>
<pdfrwt beam="2">  1       -1 0.34317343E-02 0.46986296E+02</pdfrwt>
<totfact> 0.51326040E+05</totfact>
</mgrwt>
</event>
<event>
 4    1  0.4029665E-002  0.6199675E+02  0.7818608E-02  0.1389638E+00
          1   -1    0    0    0  501  0.00000000000E+00  0.00000000000E+00  0.85896577797E+03  0.85896577799E+03  0.50400000000E-02 0.  1.
         -1   -1    0    0  501    0 -0.00000000000E+00 -0.00000000000E+00 -0.11186641417E+01  0.11186754952E+01  0.50400000000E-02 0.  1.
          2    1    1    2    0  502 -0.28083268603E+02 -0.11241145583E+02  0.52287783091E+03  0.52375209727E+03  0.25500000000E-02 0. -1.
         -2    1    1    2  502    0  0.28083268603E+02  0.11241145583E+02  0.33496928292E+03  0.33633235621E+03  0.25500000000E-02 0. -1.
<mgrwt>
<rscale>  0 0.61996745E+02</rscale>
<asrwt>0</asrwt>
<pdfrwt beam="1">  1        1 0.13214877E+00 0.61996745E+02</pdfrwt>
<pdfrwt beam="2">  1       -1 0.17210281E-03 0.61996745E+02</pdfrwt>
<totfact> 0.38110407E+05</totfact>
</mgrwt>
</event>
<event>
 4    1  0.4029665E-002  0.8685729E+02  0.7818608E-02  0.1310646E+00
         -1   -1    0    0  501    0 -0.00000000000E+00  0.00000000000E+00  0.15077752291E+02  0.15077753133E+02  0.50400000000E-02 0. -1.
          1   -1    0    0    0  501  0.00000000000E+00 -0.00000000000E+00 -0.12508808935E+03  0.12508808945E+03  0.50400000000E-02 0. -1.
          2    1    1    2    0  502 -0.37422462991E+02 -0.47043634920E+01 -0.89746727614E+02  0.97350125300E+02  0.25500000000E-02 0. -1.
         -2    1    1    2  502    0  0.37422462991E+02  0.47043634920E+01 -0.20263609443E+02  0.42815717282E+02  0.25500000000E-02 0. -1.
<mgrwt>
<rscale>  0 0.86857292E+02</rscale>
<asrwt>0</asrwt>
<pdfrwt beam="2">  1        1 0.19244321E-01 0.86857292E+02</pdfrwt>
<pdfrwt beam="1">  1       -1 0.23196544E-02 0.86857292E+02</pdfrwt>
<totfact> 0.12371575E+05</totfact>
</mgrwt>
</event>
<event>
 4    1  0.4029665E-002  0.5830151E+02  0.7818608E-02  0.1405101E+00
          1   -1    0    0    0  501  0.00000000000E+00  0.00000000000E+00  0.19909994673E+03  0.19909994680E+03  0.50400000000E-02 0. -1.
         -1   -1    0    0  501    0 -0.00000000000E+00 -0.00000000000E+00 -0.42680383430E+01  0.42680413188E+01  0.50400000000E-02 0. -1.
          2    1    1    2    0  502 -0.23543527835E+02  0.10712389411E+02  0.14430788458E+03  0.14660770289E+03  0.25500000000E-02 0.  1.
         -2    1    1    2  502    0  0.23543527835E+02 -0.10712389411E+02  0.50524023811E+02  0.56760285222E+02  0.25500000000E-02 0.  1.
<mgrwt>
<rscale>  0 0.58301510E+02</rscale>
<asrwt>0</asrwt>
<pdfrwt beam="1">  1        1 0.30630759E-01 0.58301510E+02</pdfrwt>
<pdfrwt beam="2">  1       -1 0.65662156E-03 0.58301510E+02</pdfrwt>
<totfact> 0.38095518E+05</totfact>
</mgrwt>
</event>
<event>
 4    1  0.4029665E-002  0.4411249E+02  0.7818608E-02  0.1479959E+00
          1   -1    0    0    0  501  0.00000000000E+00  0.00000000000E+00  0.94327961387E+02  0.94327961521E+02  0.50400000000E-02 0. -1.
         -1   -1    0    0  501    0 -0.00000000000E+00 -0.00000000000E+00 -0.51573032932E+01  0.51573057559E+01  0.50400000000E-02 0. -1.
          2    1    1    2    0  502  0.14310571888E+02  0.14538898146E+02  0.25675249449E+02  0.32793146660E+02  0.25500000000E-02 0. -1.
         -2    1    1    2  502    0 -0.14310571888E+02 -0.14538898146E+02  0.63495408644E+02  0.66692120618E+02  0.25500000000E-02 0. -1.
<mgrwt>
<rscale>  0 0.44112494E+02</rscale>
<asrwt>0</asrwt>
<pdfrwt beam="1">  1        1 0.14511992E-01 0.44112494E+02</pdfrwt>
<pdfrwt beam="2">  1       -1 0.79343158E-03 0.44112494E+02</pdfrwt>
<totfact> 0.68587268E+05</totfact>
</mgrwt>
</event>
<event>
 4    1  0.4029665E-002  0.5914922E+02  0.7818608E-02  0.1401437E+00
          1   -1    0    0    0  501  0.00000000000E+00  0.00000000000E+00  0.34542568768E+01  0.34542605537E+01  0.50400000000E-02 0.  1.
         -1   -1    0    0  501    0 -0.00000000000E+00 -0.00000000000E+00 -0.25321132063E+03  0.25321132068E+03  0.50400000000E-02 0.  1.
          2    1    1    2    0  502 -0.21635612738E+01  0.27904348695E+02 -0.83410779304E+02  0.87981201311E+02  0.25500000000E-02 0.  1.
         -2    1    1    2  502    0  0.21635612738E+01 -0.27904348695E+02 -0.16634628445E+03  0.16868437992E+03  0.25500000000E-02 0.  1.
<mgrwt>
<rscale>  0 0.59149216E+02</rscale>
<asrwt>0</asrwt>
<pdfrwt beam="1">  1        1 0.53142462E-03 0.59149216E+02</pdfrwt>
<pdfrwt beam="2">  1       -1 0.38955573E-01 0.59149216E+02</pdfrwt>
<totfact> 0.19595165E+05</totfact>
</mgrwt>
</event>
<event>
 4    1  0.4029665E-002  0.6456692E+02  0.7818608E-02  0.1379608E+00
          1   -1    0    0    0  501  0.00000000000E+00  0.00000000000E+00  0.81899725401E+02  0.81899725556E+02  0.50400000000E-02 0.  1.
         -1   -1    0    0  501    0 -0.00000000000E+00 -0.00000000000E+00 -0.12725583523E+02  0.12725584521E+02  0.50400000000E-02 0.  1.
          2    1    1    2    0  502 -0.26782588023E+02 -0.29657476377E+01  0.60643964876E+02  0.66361081687E+02  0.25500000000E-02 0. -1.
         -2    1    1    2  502    0  0.26782588023E+02  0.29657476377E+01  0.85301770018E+01  0.28264228390E+02  0.25500000000E-02 0. -1.
<mgrwt>
<rscale>  0 0.64566922E+02</rscale>
<asrwt>0</asrwt>
<pdfrwt beam="1">  1        1 0.12599958E-01 0.64566922E+02</pdfrwt>
<pdfrwt beam="2">  1       -1 0.19577821E-02 0.64566922E+02</pdfrwt>
<totfact> 0.25485020E+05</totfact>
</mgrwt>
</event>
<event>
 4    1  0.4029665E-002  0.7901443E+02  0.7818608E-02  0.1331872E+00
          1   -1    0    0    0  501  0.00000000000E+00  0.00000000000E+00  0.96539423222E+02  0.96539423354E+02  0.50400000000E-02 0.  1.
         -1   -1    0    0  501    0 -0.00000000000E+00 -0.00000000000E+00 -0.16167695698E+02  0.16167696484E+02  0.50400000000E-02 0.  1.
          2    1    1    2    0  502  0.19231407457E+02  0.25496451412E+02  0.73360412994E+02  0.80010413501E+02  0.25500000000E-02 0. -1.
         -2    1    1    2  502    0 -0.19231407457E+02 -0.25496451412E+02  0.70113145295E+01  0.32696706337E+02  0.25500000000E-02 0. -1.
<mgrwt>
<rscale>  0 0.79014431E+02</rscale>
<asrwt>0</asrwt>
<pdfrwt beam="1">  1        1 0.14852219E-01 0.79014431E+02</pdfrwt>
<pdfrwt beam="2">  1       -1 0.24873378E-02 0.79014431E+02</pdfrwt>
<totfact> 0.15289622E+05</totfact>
</mgrwt>
</event>
<event>
 4    1  0.4029665E-002  0.5759839E+02  0.7818608E-02  0.1408196E+00
          1   -1    0    0    0  501  0.00000000000E+00  0.00000000000E+00  0.48763850004E+03  0.48763850006E+03  0.50400000000E-02 0. -1.
         -1   -1    0    0  501    0 -0.00000000000E+00 -0.00000000000E+00 -0.17008331442E+01  0.17008406116E+01  0.50400000000E-02 0. -1.
          2    1    1    2    0  502 -0.10276757060E+02  0.24329563063E+02  0.14541445814E+03  0.14779345052E+03  0.25500000000E-02 0. -1.
         -2    1    1    2  502    0  0.10276757060E+02 -0.24329563063E+02  0.34052320875E+03  0.34154589015E+03  0.25500000000E-02 0. -1.
<mgrwt>
<rscale>  0 0.57598387E+02</rscale>
<asrwt>0</asrwt>
<pdfrwt beam="1">  1        1 0.75021477E-01 0.57598387E+02</pdfrwt>
<pdfrwt beam="2">  1       -1 0.26166662E-03 0.57598387E+02</pdfrwt>
<totfact> 0.45592472E+05</totfact>
</mgrwt>
</event>
<event>
 4    1  0.4029665E-002  0.5423948E+02  0.7818608E-02  0.1423730E+00
         -1   -1    0    0  501    0 -0.00000000000E+00  0.00000000000E+00  0.10675494737E+03  0.10675494749E+03  0.50400000000E-02 0. -1.
          1   -1    0    0    0  501  0.00000000000E+00 -0.00000000000E+00 -0.68894256067E+01  0.68894274502E+01  0.50400000000E-02 0. -1.
          2    1    1    2    0  502 -0.19228065418E+02 -0.13134313820E+02  0.20805876294E+02  0.31226802496E+02  0.25500000000E-02 0. -1.
         -2    1    1    2  502    0  0.19228065418E+02  0.13134313820E+02  0.79059645468E+02  0.82417572442E+02  0.25500000000E-02 0. -1.
<mgrwt>
<rscale>  0 0.54239483E+02</rscale>
<asrwt>0</asrwt>
<pdfrwt beam="2">  1        1 0.10599119E-02 0.54239483E+02</pdfrwt>
<pdfrwt beam="1">  1       -1 0.16423836E-01 0.54239483E+02</pdfrwt>
<totfact> 0.30073682E+05</totfact>
</mgrwt>
</event>
<event>
 4    1  0.4029665E-002  0.6078087E+02  0.7818608E-02  0.1394584E+00
         -1   -1    0    0  501    0 -0.00000000000E+00  0.00000000000E+00  0.69150334376E+00  0.69152171045E+00  0.50400000000E-02 0. -1.
          1   -1    0    0    0  501  0.00000000000E+00 -0.00000000000E+00 -0.13355918028E+04  0.13355918028E+04  0.50400000000E-02 0. -1.
          2    1    1    2    0  502  0.25452816702E+02  0.16579570697E+02 -0.64717565628E+03  0.64788815249E+03  0.25500000000E-02 0.  1.
         -2    1    1    2  502    0 -0.25452816702E+02 -0.16579570697E+02 -0.68772464314E+03  0.68839517200E+03  0.25500000000E-02 0.  1.
<mgrwt>
<rscale>  0 0.60780868E+02</rscale>
<asrwt>0</asrwt>
<pdfrwt beam="2">  1        1 0.20547360E+00 0.60780868E+02</pdfrwt>
<pdfrwt beam="1">  1       -1 0.10638761E-03 0.60780868E+02</pdfrwt>
<totfact> 0.34382759E+05</totfact>
</mgrwt>
</event>
<event>
 4    1  0.4029665E-002  0.5412962E+02  0.7818608E-02  0.1424260E+00
          1   -1    0    0    0  501  0.00000000000E+00  0.00000000000E+00  0.22795917415E+02  0.22795917972E+02  0.50400000000E-02 0.  1.
         -1   -1    0    0  501    0 -0.00000000000E+00 -0.00000000000E+00 -0.32133115421E+02  0.32133115816E+02  0.50400000000E-02 0.  1.
          2    1    1    2    0  502 -0.38837693023E+01 -0.25753376065E+02 -0.12138275977E+02  0.28734261657E+02  0.25500000000E-02 0.  1.
         -2    1    1    2  502    0  0.38837693023E+01  0.25753376065E+02  0.28010779708E+01  0.26194772132E+02  0.25500000000E-02 0.  1.
<mgrwt>
<rscale>  0 0.54129617E+02</rscale>
<asrwt>0</asrwt>
<pdfrwt beam="1">  1        1 0.35070643E-02 0.54129617E+02</pdfrwt>
<pdfrwt beam="2">  1       -1 0.49435562E-02 0.54129617E+02</pdfrwt>
<totfact> 0.35207722E+05</totfact>
</mgrwt>
</event>
<event>
 4    1  0.4029665E-002  0.1004727E+03  0.7818608E-02  0.1279305E+00
          1   -1    0    0    0  501  0.00000000000E+00  0.00000000000E+00  0.73561026796E+02  0.73561026969E+02  0.50400000000E-02 0. -1.
         -1   -1    0    0  501    0 -0.00000000000E+00 -0.00000000000E+00 -0.34307441562E+02  0.34307441933E+02  0.50400000000E-02 0. -1.
          2    1    1    2    0  502 -0.52678056064E+01 -0.49086083544E+02  0.96418016270E+01  0.50300673143E+02  0.25500000000E-02 0.  1.
         -2    1    1    2  502    0  0.52678056064E+01  0.49086083544E+02  0.29611783606E+02  0.57567795758E+02  0.25500000000E-02 0.  1.
<mgrwt>
<rscale>  0 0.10047270E+03</rscale>
<asrwt>0</asrwt>
<pdfrwt beam="1">  1        1 0.11317081E-01 0.10047270E+03</pdfrwt>
<pdfrwt beam="2">  1       -1 0.52780681E-02 0.10047270E+03</pdfrwt>
<totfact> 0.75953137E+04</totfact>
</mgrwt>
</event>
<event>
 4    1  0.4029665E-002  0.4265145E+02  0.7818608E-02  0.1489559E+00
          1   -1    0    0    0  501  0.00000000000E+00  0.00000000000E+00  0.74678548855E+03  0.74678548857E+03  0.50400000000E-02 0. -1.
         -1   -1    0    0  501    0 -0.00000000000E+00 -0.00000000000E+00 -0.60898175994E+00  0.60900261538E+00  0.50400000000E-02 0. -1.
          2    1    1    2    0  502 -0.10420817424E+02 -0.18325235494E+02  0.31663479353E+03  0.31733578457E+03  0.25500000000E-02 0. -1.
         -2    1    1    2  502    0  0.10420817424E+02  0.18325235494E+02  0.42954171326E+03  0.43005870661E+03  0.25500000000E-02 0. -1.
<mgrwt>
<rscale>  0 0.42651450E+02</rscale>
<asrwt>0</asrwt>
<pdfrwt beam="1">  1        1 0.11489039E+00 0.42651450E+02</pdfrwt>
<pdfrwt beam="2">  1       -1 0.93690855E-04 0.42651450E+02</pdfrwt>
<totfact> 0.97857213E+05</totfact>
</mgrwt>
</event>
<event>
 4    1  0.4029665E-002  0.4565041E+02  0.7818608E-02  0.1470322E+00
         -1   -1    0    0  501    0 -0.00000000000E+00  0.00000000000E+00  0.29122582809E+01  0.29122626421E+01  0.50400000000E-02 0.  1.
          1   -1    0    0    0  501  0.00000000000E+00 -0.00000000000E+00 -0.17889538988E+03  0.17889538995E+03  0.50400000000E-02 0.  1.
          2    1    1    2    0  502  0.13812592442E+02 -0.18120514564E+02 -0.93407353674E+02  0.96146110087E+02  0.25500000000E-02 0. -1.
         -2    1    1    2  502    0 -0.13812592442E+02  0.18120514564E+02 -0.82575777927E+02  0.85661542507E+02  0.25500000000E-02 0. -1.
<mgrwt>
<rscale>  0 0.45650410E+02</rscale>
<asrwt>0</asrwt>
<pdfrwt beam="2">  1        1 0.27522359E-01 0.45650410E+02</pdfrwt>
<pdfrwt beam="1">  1       -1 0.44804022E-03 0.45650410E+02</pdfrwt>
<totfact> 0.69188899E+05</totfact>
</mgrwt>
</event>
<event>
 4    1  0.4029665E-002  0.4892477E+02  0.7818608E-02  0.1451229E+00
         -1   -1    0    0  501    0 -0.00000000000E+00  0.00000000000E+00  0.15348193551E+02  0.15348194379E+02  0.50400000000E-02 0. -1.
          1   -1    0    0    0  501  0.00000000000E+00 -0.00000000000E+00 -0.38988846152E+02  0.38988846478E+02  0.50400000000E-02 0. -1.
          2    1    1    2    0  502 -0.89118304695E+01  0.22633560674E+02 -0.14697162724E+02  0.28420158159E+02  0.25500000000E-02 0.  1.
         -2    1    1    2  502    0  0.89118304695E+01 -0.22633560674E+02 -0.89434898762E+01  0.25916882698E+02  0.25500000000E-02 0.  1.
<mgrwt>
<rscale>  0 0.48924774E+02</rscale>
<asrwt>0</asrwt>
<pdfrwt beam="2">  1        1 0.59982841E-02 0.48924774E+02</pdfrwt>
<pdfrwt beam="1">  1       -1 0.23612606E-02 0.48924774E+02</pdfrwt>
<totfact> 0.48137751E+05</totfact>
</mgrwt>
</event>
<event>
 4    1  0.4029665E-002  0.1091789E+03  0.7818608E-02  0.1262098E+00
          1   -1    0    0    0  501  0.00000000000E+00  0.00000000000E+00  0.48885447056E+03  0.48885447059E+03  0.50400000000E-02 0.  1.
         -1   -1    0    0  501    0 -0.00000000000E+00 -0.00000000000E+00 -0.60958995826E+01  0.60959016661E+01  0.50400000000E-02 0.  1.
          2    1    1    2    0  502 -0.41975008268E+02  0.49926365448E+01  0.39797360526E+03  0.40021221649E+03  0.25500000000E-02 0. -1.
         -2    1    1    2  502    0  0.41975008268E+02 -0.49926365448E+01  0.84784965718E+02  0.94738155762E+02  0.25500000000E-02 0. -1.
<mgrwt>
<rscale>  0 0.10917890E+03</rscale>
<asrwt>0</asrwt>
<pdfrwt beam="1">  1        1 0.75208377E-01 0.10917890E+03</pdfrwt>
<pdfrwt beam="2">  1       -1 0.93783090E-03 0.10917890E+03</pdfrwt>
<totfact> 0.85780041E+04</totfact>
</mgrwt>
</event>
<event>
 4    1  0.4029665E-002  0.5708935E+02  0.7818608E-02  0.1410469E+00
          1   -1    0    0    0  501  0.00000000000E+00  0.00000000000E+00  0.90481312428E+02  0.90481312568E+02  0.50400000000E-02 0.  1.
         -1   -1    0    0  501    0 -0.00000000000E+00 -0.00000000000E+00 -0.90051581981E+01  0.90051596085E+01  0.50400000000E-02 0.  1.
          2    1    1    2    0  502  0.13866379194E+02  0.21822796112E+02  0.19660882628E+02  0.32481705840E+02  0.25500000000E-02 0. -1.
         -2    1    1    2  502    0 -0.13866379194E+02 -0.21822796112E+02  0.61815271601E+02  0.67004766336E+02  0.25500000000E-02 0. -1.
<mgrwt>
<rscale>  0 0.57089355E+02</rscale>
<asrwt>0</asrwt>
<pdfrwt beam="1">  1        1 0.13920202E-01 0.57089355E+02</pdfrwt>
<pdfrwt beam="2">  1       -1 0.13854091E-02 0.57089355E+02</pdfrwt>
<totfact> 0.35538360E+05</totfact>
</mgrwt>
</event>
<event>
 4    1  0.4029665E-002  0.4525753E+02  0.7818608E-02  0.1472740E+00
         -1   -1    0    0  501    0 -0.00000000000E+00  0.00000000000E+00  0.12727419309E+01  0.12727519099E+01  0.50400000000E-02 0. -1.
          1   -1    0    0    0  501  0.00000000000E+00 -0.00000000000E+00 -0.40232747693E+03  0.40232747696E+03  0.50400000000E-02 0. -1.
          2    1    1    2    0  502 -0.14507168845E+02 -0.16369863179E+02 -0.14881094792E+03  0.15040986868E+03  0.25500000000E-02 0.  1.
         -2    1    1    2  502    0  0.14507168845E+02  0.16369863179E+02 -0.25224378708E+03  0.25319036019E+03  0.25500000000E-02 0.  1.
<mgrwt>
<rscale>  0 0.45257533E+02</rscale>
<asrwt>0</asrwt>
<pdfrwt beam="2">  1        1 0.61896434E-01 0.45257533E+02</pdfrwt>
<pdfrwt beam="1">  1       -1 0.19580754E-03 0.45257533E+02</pdfrwt>
<totfact> 0.81028134E+05</totfact>
</mgrwt>
</event>
<event>
 4    1  0.4029665E-002  0.4271981E+02  0.7818608E-02  0.1489100E+00
          1   -1    0    0    0  501  0.00000000000E+00  0.00000000000E+00  0.36755542347E+03  0.36755542351E+03  0.50400000000E-02 0. -1.
         -1   -1    0    0  501    0 -0.00000000000E+00 -0.00000000000E+00 -0.12412920042E+01  0.12413022361E+01  0.50400000000E-02 0. -1.
          2    1    1    2    0  502  0.20720354602E+02 -0.38549306448E+00  0.13849573987E+03  0.14003767946E+03  0.25500000000E-02 0.  1.
         -2    1    1    2  502    0 -0.20720354602E+02  0.38549306448E+00  0.22781839160E+03  0.22875904629E+03  0.25500000000E-02 0.  1.
<mgrwt>
<rscale>  0 0.42719808E+02</rscale>
<asrwt>0</asrwt>
<pdfrwt beam="1">  1        1 0.56547017E-01 0.42719808E+02</pdfrwt>
<pdfrwt beam="2">  1       -1 0.19096870E-03 0.42719808E+02</pdfrwt>
<totfact> 0.92048051E+05</totfact>
</mgrwt>
</event>
<event>
 4    1  0.4029665E-002  0.4578339E+02  0.7818608E-02  0.1469510E+00
         -1   -1    0    0  501    0 -0.00000000000E+00  0.00000000000E+00  0.19509889994E+02  0.19509890645E+02  0.50400000000E-02 0. -1.
          1   -1    0    0    0  501  0.00000000000E+00 -0.00000000000E+00 -0.26859698203E+02  0.26859698676E+02  0.50400000000E-02 0. -1.
          2    1    1    2    0  502  0.15532998253E+02  0.13822431943E+02  0.60235103982E+01  0.21647548211E+02  0.25500000000E-02 0. -1.
         -2    1    1    2  502    0 -0.15532998253E+02 -0.13822431943E+02 -0.13373318607E+02  0.24722041109E+02  0.25500000000E-02 0. -1.
<mgrwt>
<rscale>  0 0.45783394E+02</rscale>
<asrwt>0</asrwt>
<pdfrwt beam="2">  1        1 0.41322613E-02 0.45783394E+02</pdfrwt>
<pdfrwt beam="1">  1       -1 0.30015216E-02 0.45783394E+02</pdfrwt>
<totfact> 0.55240702E+05</totfact>
</mgrwt>
</event>
<event>
 4    1  0.4029665E-002  0.1076747E+03  0.7818608E-02  0.1264938E+00
         -1   -1    0    0  501    0 -0.00000000000E+00  0.00000000000E+00  0.80419119009E+00  0.80420698320E+00  0.50400000000E-02 0. -1.
          1   -1    0    0    0  501  0.00000000000E+00 -0.00000000000E+00 -0.36041589310E+04  0.36041589310E+04  0.50400000000E-02 0. -1.
          2    1    1    2    0  502  0.98597217684E+01  0.49525556836E+02 -0.24266594314E+04  0.24271847872E+04  0.25500000000E-02 0.  1.
         -2    1    1    2  502    0 -0.98597217684E+01 -0.49525556836E+02 -0.11766953084E+04  0.11777783508E+04  0.25500000000E-02 0.  1.
<mgrwt>
<rscale>  0 0.10767472E+03</rscale>
<asrwt>0</asrwt>
<pdfrwt beam="2">  1        1 0.55447306E+00 0.10767472E+03</pdfrwt>
<pdfrwt beam="1">  1       -1 0.12372582E-03 0.10767472E+03</pdfrwt>
<totfact> 0.95747869E+03</totfact>
</mgrwt>
</event>
<event>
 4    1  0.4029665E-002  0.4903422E+02  0.7818608E-02  0.1450621E+00
         -1   -1    0    0  501    0 -0.00000000000E+00  0.00000000000E+00  0.40841880668E+02  0.40841880979E+02  0.50400000000E-02 0.  1.
          1   -1    0    0    0  501  0.00000000000E+00 -0.00000000000E+00 -0.14717457940E+02  0.14717458803E+02  0.50400000000E-02 0.  1.
          2    1    1    2    0  502 -0.22416959299E+02  0.95959191663E+01  0.10176330820E+02  0.26422706983E+02  0.25500000000E-02 0.  1.
         -2    1    1    2  502    0  0.22416959299E+02 -0.95959191663E+01  0.15948091908E+02  0.29136632799E+02  0.25500000000E-02 0.  1.
<mgrwt>
<rscale>  0 0.49034220E+02</rscale>
<asrwt>0</asrwt>
<pdfrwt beam="2">  1        1 0.22642244E-02 0.49034220E+02</pdfrwt>
<pdfrwt beam="1">  1       -1 0.62833662E-02 0.49034220E+02</pdfrwt>
<totfact> 0.43794450E+05</totfact>
</mgrwt>
</event>
<event>
 4    1  0.4029665E-002  0.8853321E+02  0.7818608E-02  0.1306443E+00
          1   -1    0    0    0  501  0.00000000000E+00  0.00000000000E+00  0.21271235526E+04  0.21271235526E+04  0.50400000000E-02 0.  1.
         -1   -1    0    0  501    0 -0.00000000000E+00 -0.00000000000E+00 -0.92120540362E+00  0.92121919067E+00  0.50400000000E-02 0.  1.
          2    1    1    2    0  502 -0.31621251344E+02  0.19539790402E+01  0.31997850206E+03  0.32154309720E+03  0.25500000000E-02 0.  1.
         -2    1    1    2  502    0  0.31621251344E+02 -0.19539790402E+01  0.18062238451E+04  0.18065016746E+04  0.25500000000E-02 0.  1.
<mgrwt>
<rscale>  0 0.88533212E+02</rscale>
<asrwt>0</asrwt>
<pdfrwt beam="1">  1        1 0.32725040E+00 0.88533212E+02</pdfrwt>
<pdfrwt beam="2">  1       -1 0.14172470E-03 0.88533212E+02</pdfrwt>
<totfact> 0.78121171E+04</totfact>
</mgrwt>
</event>
<event>
 4    1  0.4029665E-002  0.7856716E+02  0.7818608E-02  0.1333168E+00
          1   -1    0    0    0  501  0.00000000000E+00  0.00000000000E+00  0.47471423999E+03  0.47471424002E+03  0.50400000000E-02 0.  1.
         -1   -1    0    0  501    0 -0.00000000000E+00 -0.00000000000E+00 -0.32507949910E+01  0.32507988980E+01  0.50400000000E-02 0.  1.
          2    1    1    2    0  502  0.20094757052E+02 -0.32974981628E+02  0.27962210246E+03  0.28227587368E+03  0.25500000000E-02 0.  1.
         -2    1    1    2  502    0 -0.20094757052E+02  0.32974981628E+02  0.19184134254E+03  0.19568916523E+03  0.25500000000E-02 0.  1.
<mgrwt>
<rscale>  0 0.78567159E+02</rscale>
<asrwt>0</asrwt>
<pdfrwt beam="1">  1        1 0.73032921E-01 0.78567159E+02</pdfrwt>
<pdfrwt beam="2">  1       -1 0.50012288E-03 0.78567159E+02</pdfrwt>
<totfact> 0.20469839E+05</totfact>
</mgrwt>
</event>
<event>
 4    1  0.4029665E-002  0.4466945E+02  0.7818608E-02  0.1476416E+00
         -1   -1    0    0  501    0 -0.00000000000E+00  0.00000000000E+00  0.85507201221E+02  0.85507201369E+02  0.50400000000E-02 0. -1.
          1   -1    0    0    0  501  0.00000000000E+00 -0.00000000000E+00 -0.58338926250E+01  0.58338948021E+01  0.50400000000E-02 0. -1.
          2    1    1    2    0  502  0.16524948286E+02 -0.13807008579E+02  0.51956869182E+02  0.56242543181E+02  0.25500000000E-02 0.  1.
         -2    1    1    2  502    0 -0.16524948286E+02  0.13807008579E+02  0.27716439414E+02  0.35098552990E+02  0.25500000000E-02 0.  1.
<mgrwt>
<rscale>  0 0.44669450E+02</rscale>
<asrwt>0</asrwt>
<pdfrwt beam="2">  1        1 0.89752219E-03 0.44669450E+02</pdfrwt>
<pdfrwt beam="1">  1       -1 0.13154953E-01 0.44669450E+02</pdfrwt>
<totfact> 0.50329790E+05</totfact>
</mgrwt>
</event>
<event>
 4    1  0.4029665E-002  0.4120730E+02  0.7818608E-02  0.1499510E+00
         -1   -1    0    0  501    0 -0.00000000000E+00  0.00000000000E+00  0.48361265617E+02  0.48361265880E+02  0.50400000000E-02 0. -1.
          1   -1    0    0    0  501  0.00000000000E+00 -0.00000000000E+00 -0.87778988293E+01  0.87779002762E+01  0.50400000000E-02 0. -1.
          2    1    1    2    0  502  0.16508170073E+02 -0.12326650560E+02  0.19499680599E+02  0.28367297071E+02  0.25500000000E-02 0. -1.
         -2    1    1    2  502    0 -0.16508170073E+02  0.12326650560E+02  0.20083686189E+02  0.28771869085E+02  0.25500000000E-02 0. -1.
<mgrwt>
<rscale>  0 0.41207298E+02</rscale>
<asrwt>0</asrwt>
<pdfrwt beam="2">  1        1 0.13504461E-02 0.41207298E+02</pdfrwt>
<pdfrwt beam="1">  1       -1 0.74401950E-02 0.41207298E+02</pdfrwt>
<totfact> 0.65711742E+05</totfact>
</mgrwt>
</event>
<event>
 4    1  0.4029665E-002  0.4311849E+02  0.7818608E-02  0.1486441E+00
         -1   -1    0    0  501    0 -0.00000000000E+00  0.00000000000E+00  0.86686108397E+00  0.86687573533E+00  0.50400000000E-02 0. -1.
          1   -1    0    0    0  501  0.00000000000E+00 -0.00000000000E+00 -0.53618398988E+03  0.53618398990E+03  0.50400000000E-02 0. -1.
          2    1    1    2    0  502  0.19639205692E+02 -0.78649437860E+01 -0.21593524624E+03  0.21696909069E+03  0.25500000000E-02 0. -1.
         -2    1    1    2  502    0 -0.19639205692E+02  0.78649437860E+01 -0.31938188256E+03  0.32008177495E+03  0.25500000000E-02 0. -1.
<mgrwt>
<rscale>  0 0.43118487E+02</rscale>
<asrwt>0</asrwt>
<pdfrwt beam="2">  1        1 0.82489580E-01 0.43118487E+02</pdfrwt>
<pdfrwt beam="1">  1       -1 0.13336480E-03 0.43118487E+02</pdfrwt>
<totfact> 0.94441614E+05</totfact>
</mgrwt>
</event>
<event>
 4    1  0.4029665E-002  0.8170726E+02  0.7818608E-02  0.1324275E+00
         -1   -1    0    0  501    0 -0.00000000000E+00  0.00000000000E+00  0.37655915233E+02  0.37655915571E+02  0.50400000000E-02 0. -1.
          1   -1    0    0    0  501  0.00000000000E+00 -0.00000000000E+00 -0.44322888323E+02  0.44322888609E+02  0.50400000000E-02 0. -1.
          2    1    1    2    0  502  0.25621369576E+02 -0.22464979214E+02  0.19277805779E+02  0.39150525822E+02  0.25500000000E-02 0.  1.
         -2    1    1    2  502    0 -0.25621369576E+02  0.22464979214E+02 -0.25944778869E+02  0.42828278357E+02  0.25500000000E-02 0.  1.
<mgrwt>
<rscale>  0 0.81707257E+02</rscale>
<asrwt>0</asrwt>
<pdfrwt beam="2">  1        1 0.68189060E-02 0.81707257E+02</pdfrwt>
<pdfrwt beam="1">  1       -1 0.57932178E-02 0.81707257E+02</pdfrwt>
<totfact> 0.12495186E+05</totfact>
</mgrwt>
</event>
<event>
 4    1  0.4029665E-002  0.5190468E+02  0.7818608E-02  0.1435331E+00
         -1   -1    0    0  501    0 -0.00000000000E+00  0.00000000000E+00  0.16387533483E+01  0.16387610986E+01  0.50400000000E-02 0.  1.
          1   -1    0    0    0  501  0.00000000000E+00 -0.00000000000E+00 -0.41099681033E+03  0.41099681036E+03  0.50400000000E-02 0.  1.
          2    1    1    2    0  502 -0.25087721047E+02 -0.60611839968E+01 -0.22629376259E+03  0.22776083661E+03  0.25500000000E-02 0. -1.
         -2    1    1    2  502    0  0.25087721047E+02  0.60611839968E+01 -0.18306429439E+03  0.18487473485E+03  0.25500000000E-02 0. -1.
<mgrwt>
<rscale>  0 0.51904682E+02</rscale>
<asrwt>0</asrwt>
<pdfrwt beam="2">  1        1 0.63230197E-01 0.51904682E+02</pdfrwt>
<pdfrwt beam="1">  1       -1 0.25211683E-03 0.51904682E+02</pdfrwt>
<totfact> 0.57883242E+05</totfact>
</mgrwt>
</event>
<event>
 4    1  0.4029665E-002  0.5360596E+02  0.7818608E-02  0.1426809E+00
         -1   -1    0    0  501    0 -0.00000000000E+00  0.00000000000E+00  0.18021990473E+01  0.18022060947E+01  0.50400000000E-02 0. -1.
          1   -1    0    0    0  501  0.00000000000E+00 -0.00000000000E+00 -0.39862322084E+03  0.39862322087E+03  0.50400000000E-02 0. -1.
          2    1    1    2    0  502 -0.10124274305E+02  0.24795122060E+02 -0.20624771365E+03  0.20797937014E+03  0.25500000000E-02 0. -1.
         -2    1    1    2  502    0  0.10124274305E+02 -0.24795122060E+02 -0.19057330814E+03  0.19244605683E+03  0.25500000000E-02 0. -1.
<mgrwt>
<rscale>  0 0.53605963E+02</rscale>
<asrwt>0</asrwt>
<pdfrwt beam="2">  1        1 0.61326580E-01 0.53605963E+02</pdfrwt>
<pdfrwt beam="1">  1       -1 0.27726225E-03 0.53605963E+02</pdfrwt>
<totfact> 0.53148923E+05</totfact>
</mgrwt>
</event>
<event>
 4    1  0.4029665E-002  0.4638346E+02  0.7818608E-02  0.1465885E+00
         -1   -1    0    0  501    0 -0.00000000000E+00  0.00000000000E+00  0.46335122902E+01  0.46335150313E+01  0.50400000000E-02 0.  1.
          1   -1    0    0    0  501  0.00000000000E+00 -0.00000000000E+00 -0.11607959323E+03  0.11607959334E+03  0.50400000000E-02 0.  1.
          2    1    1    2    0  502  0.17327475226E+02 -0.11671155657E+02 -0.29516580908E+02  0.36161938928E+02  0.25500000000E-02 0. -1.
         -2    1    1    2  502    0 -0.17327475226E+02  0.11671155657E+02 -0.81929500033E+02  0.84551169443E+02  0.25500000000E-02 0. -1.
<mgrwt>
<rscale>  0 0.46383462E+02</rscale>
<asrwt>0</asrwt>
<pdfrwt beam="2">  1        1 0.17858397E-01 0.46383462E+02</pdfrwt>
<pdfrwt beam="1">  1       -1 0.71284835E-03 0.46383462E+02</pdfrwt>
<totfact> 0.62220967E+05</totfact>
</mgrwt>
</event>
<event>
 4    1  0.4029665E-002  0.4804183E+02  0.7818608E-02  0.1456199E+00
          1   -1    0    0    0  501  0.00000000000E+00  0.00000000000E+00  0.13116315919E+03  0.13116315928E+03  0.50400000000E-02 0.  1.
         -1   -1    0    0  501    0 -0.00000000000E+00 -0.00000000000E+00 -0.43991335830E+01  0.43991364702E+01  0.50400000000E-02 0.  1.
          2    1    1    2    0  502  0.17703819248E+02 -0.15418089563E+02  0.49032131483E+02  0.54362603194E+02  0.25500000000E-02 0. -1.
         -2    1    1    2  502    0 -0.17703819248E+02  0.15418089563E+02  0.77731894119E+02  0.81199692558E+02  0.25500000000E-02 0. -1.
<mgrwt>
<rscale>  0 0.48041834E+02</rscale>
<asrwt>0</asrwt>
<pdfrwt beam="1">  1        1 0.20178946E-01 0.48041834E+02</pdfrwt>
<pdfrwt beam="2">  1       -1 0.67679009E-03 0.48041834E+02</pdfrwt>
<totfact> 0.58011650E+05</totfact>
</mgrwt>
</event>
<event>
 4    1  0.4029665E-002  0.1231410E+03  0.7818608E-02  0.1238004E+00
          1   -1    0    0    0  501  0.00000000000E+00  0.00000000000E+00  0.70389935929E+02  0.70389936110E+02  0.50400000000E-02 0. -1.
         -1   -1    0    0  501    0 -0.00000000000E+00 -0.00000000000E+00 -0.53856062654E+02  0.53856062890E+02  0.50400000000E-02 0. -1.
          2    1    1    2    0  502  0.11249228972E+02  0.59185250322E+02 -0.45548048012E+01  0.60416763083E+02  0.25500000000E-02 0.  1.
         -2    1    1    2  502    0 -0.11249228972E+02 -0.59185250322E+02  0.21088678077E+02  0.63829235916E+02  0.25500000000E-02 0.  1.
<mgrwt>
<rscale>  0 0.12314097E+03</rscale>
<asrwt>0</asrwt>
<pdfrwt beam="1">  1        1 0.10829221E-01 0.12314097E+03</pdfrwt>
<pdfrwt beam="2">  1       -1 0.82855481E-02 0.12314097E+03</pdfrwt>
<totfact> 0.42284276E+04</totfact>
</mgrwt>
</event>
<event>
 4    1  0.4029665E-002  0.5543922E+02  0.7818608E-02  0.1418033E+00
         -1   -1    0    0  501    0 -0.00000000000E+00  0.00000000000E+00  0.53049853329E+00  0.53052247400E+00  0.50400000000E-02 0. -1.
          1   -1    0    0    0  501  0.00000000000E+00 -0.00000000000E+00 -0.14483722024E+04  0.14483722024E+04  0.50400000000E-02 0. -1.
          2    1    1    2    0  502 -0.27491392512E+02 -0.34532348579E+01 -0.74539578278E+03  0.74591056735E+03  0.25500000000E-02 0.  1.
         -2    1    1    2  502    0  0.27491392512E+02  0.34532348579E+01 -0.70244592111E+03  0.70299215755E+03  0.25500000000E-02 0.  1.
<mgrwt>
<rscale>  0 0.55439216E+02</rscale>
<asrwt>0</asrwt>
<pdfrwt beam="2">  1        1 0.22282333E+00 0.55439216E+02</pdfrwt>
<pdfrwt beam="1">  1       -1 0.81618161E-04 0.55439216E+02</pdfrwt>
<totfact> 0.41074902E+05</totfact>
</mgrwt>
</event>
<event>
 4    1  0.4029665E-002  0.5462283E+02  0.7818608E-02  0.1421891E+00
          1   -1    0    0    0  501  0.00000000000E+00  0.00000000000E+00  0.87881518758E+02  0.87881518903E+02  0.50400000000E-02 0.  1.
         -1   -1    0    0  501    0 -0.00000000000E+00 -0.00000000000E+00 -0.84877166813E+01  0.84877181777E+01  0.50400000000E-02 0.  1.
          2    1    1    2    0  502 -0.23666744964E+02  0.11485202574E+02  0.26745597426E+02  0.37514686238E+02  0.25500000000E-02 0. -1.
         -2    1    1    2  502    0  0.23666744964E+02 -0.11485202574E+02  0.52648204651E+02  0.58854550842E+02  0.25500000000E-02 0. -1.
<mgrwt>
<rscale>  0 0.54622834E+02</rscale>
<asrwt>0</asrwt>
<pdfrwt beam="1">  1        1 0.13520233E-01 0.54622834E+02</pdfrwt>
<pdfrwt beam="2">  1       -1 0.13058027E-02 0.54622834E+02</pdfrwt>
<totfact> 0.39649073E+05</totfact>
</mgrwt>
</event>
<event>
 4    1  0.4029665E-002  0.8535189E+02  0.7818608E-02  0.1314515E+00
          1   -1    0    0    0  501  0.00000000000E+00  0.00000000000E+00  0.28880498160E+03  0.28880498164E+03  0.50400000000E-02 0.  1.
         -1   -1    0    0  501    0 -0.00000000000E+00 -0.00000000000E+00 -0.63061097299E+01  0.63061117440E+01  0.50400000000E-02 0.  1.
          2    1    1    2    0  502 -0.11173024483E+02 -0.31909559188E+02  0.51207502255E+02  0.61361753050E+02  0.25500000000E-02 0.  1.
         -2    1    1    2  502    0  0.11173024483E+02  0.31909559188E+02  0.23129136962E+03  0.23374934034E+03  0.25500000000E-02 0.  1.
<mgrwt>
<rscale>  0 0.85351888E+02</rscale>
<asrwt>0</asrwt>
<pdfrwt beam="1">  1        1 0.44431538E-01 0.85351888E+02</pdfrwt>
<pdfrwt beam="2">  1       -1 0.97017084E-03 0.85351888E+02</pdfrwt>
<totfact> 0.15156371E+05</totfact>
</mgrwt>
</event>
<event>
 4    1  0.4029665E-002  0.7887299E+02  0.7818608E-02  0.1332280E+00
         -1   -1    0    0  501    0 -0.00000000000E+00  0.00000000000E+00  0.14745396442E+01  0.14745482576E+01  0.50400000000E-02 0. -1.
          1   -1    0    0    0  501  0.00000000000E+00 -0.00000000000E+00 -0.10547241440E+04  0.10547241440E+04  0.50400000000E-02 0. -1.
          2    1    1    2    0  502 -0.37003571100E+02  0.12326250664E+02 -0.60474962117E+03  0.60600602723E+03  0.25500000000E-02 0. -1.
         -2    1    1    2  502    0  0.37003571100E+02 -0.12326250664E+02 -0.44849998316E+03  0.45019266502E+03  0.25500000000E-02 0. -1.
<mgrwt>
<rscale>  0 0.78872990E+02</rscale>
<asrwt>0</asrwt>
<pdfrwt beam="2">  1        1 0.16226465E+00 0.78872990E+02</pdfrwt>
<pdfrwt beam="1">  1       -1 0.22685376E-03 0.78872990E+02</pdfrwt>
<totfact> 0.19592953E+05</totfact>
</mgrwt>
</event>
<event>
 4    1  0.4029665E-002  0.5608116E+02  0.7818608E-02  0.1415054E+00
          1   -1    0    0    0  501  0.00000000000E+00  0.00000000000E+00  0.92603535688E+02  0.92603535826E+02  0.50400000000E-02 0. -1.
         -1   -1    0    0  501    0 -0.00000000000E+00 -0.00000000000E+00 -0.84907553866E+01  0.84907568825E+01  0.50400000000E-02 0. -1.
          2    1    1    2    0  502 -0.12414718565E+02  0.23029819091E+02  0.23870570739E+02  0.35416125682E+02  0.25500000000E-02 0.  1.
         -2    1    1    2  502    0  0.12414718565E+02 -0.23029819091E+02  0.60242209563E+02  0.65678167026E+02  0.25500000000E-02 0.  1.
<mgrwt>
<rscale>  0 0.56081157E+02</rscale>
<asrwt>0</asrwt>
<pdfrwt beam="1">  1        1 0.14246698E-01 0.56081157E+02</pdfrwt>
<pdfrwt beam="2">  1       -1 0.13062702E-02 0.56081157E+02</pdfrwt>
<totfact> 0.37317439E+05</totfact>
</mgrwt>
</event>
<event>
 4    1  0.4029665E-002  0.4717385E+02  0.7818608E-02  0.1461210E+00
          1   -1    0    0    0  501  0.00000000000E+00  0.00000000000E+00  0.29428235422E+02  0.29428235853E+02  0.50400000000E-02 0. -1.
         -1   -1    0    0  501    0 -0.00000000000E+00 -0.00000000000E+00 -0.18905075574E+02  0.18905076246E+02  0.50400000000E-02 0. -1.
          2    1    1    2    0  502  0.13652951096E+02 -0.19063307943E+02  0.78798243212E+01  0.24736701906E+02  0.25500000000E-02 0. -1.
         -2    1    1    2  502    0 -0.13652951096E+02  0.19063307943E+02  0.26433355264E+01  0.23596610193E+02  0.25500000000E-02 0. -1.
<mgrwt>
<rscale>  0 0.47173850E+02</rscale>
<asrwt>0</asrwt>
<pdfrwt beam="1">  1        1 0.45274209E-02 0.47173850E+02</pdfrwt>
<pdfrwt beam="2">  1       -1 0.29084732E-02 0.47173850E+02</pdfrwt>
<totfact> 0.51557807E+05</totfact>
</mgrwt>
</event>
<event>
 4    1  0.4029665E-002  0.7680129E+02  0.7818608E-02  0.1338382E+00
         -1   -1    0    0  501    0 -0.00000000000E+00  0.00000000000E+00  0.24497479860E+01  0.24497531705E+01  0.50400000000E-02 0.  1.
          1   -1    0    0    0  501  0.00000000000E+00 -0.00000000000E+00 -0.60194272898E+03  0.60194272900E+03  0.50400000000E-02 0.  1.
          2    1    1    2    0  502 -0.25570749330E+02  0.18723552428E+02 -0.47038626319E+03  0.47145272429E+03  0.25500000000E-02 0. -1.
         -2    1    1    2  502    0  0.25570749330E+02 -0.18723552428E+02 -0.12910671780E+03  0.13293975788E+03  0.25500000000E-02 0. -1.
<mgrwt>
<rscale>  0 0.76801291E+02</rscale>
<asrwt>0</asrwt>
<pdfrwt beam="2">  1        1 0.92606456E-01 0.76801291E+02</pdfrwt>
<pdfrwt beam="1">  1       -1 0.37688519E-03 0.76801291E+02</pdfrwt>
<totfact> 0.22215271E+05</totfact>
</mgrwt>
</event>
<event>
 4    1  0.4029665E-002  0.6836580E+02  0.7818608E-02  0.1365740E+00
          1   -1    0    0    0  501  0.00000000000E+00  0.00000000000E+00  0.13018351939E+02  0.13018352915E+02  0.50400000000E-02 0.  1.
         -1   -1    0    0  501    0 -0.00000000000E+00 -0.00000000000E+00 -0.89755640606E+02  0.89755640748E+02  0.50400000000E-02 0.  1.
          2    1    1    2    0  502 -0.28273876525E+01  0.34037555741E+02 -0.36284940668E+02  0.49831177465E+02  0.25500000000E-02 0. -1.
         -2    1    1    2  502    0  0.28273876525E+01 -0.34037555741E+02 -0.40452347999E+02  0.52942816198E+02  0.25500000000E-02 0. -1.
<mgrwt>
<rscale>  0 0.68365798E+02</rscale>
<asrwt>0</asrwt>
<pdfrwt beam="1">  1        1 0.20028235E-02 0.68365798E+02</pdfrwt>
<pdfrwt beam="2">  1       -1 0.13808560E-01 0.68365798E+02</pdfrwt>
<totfact> 0.17302067E+05</totfact>
</mgrwt>
</event>
<event>
 4    1  0.4029665E-002  0.4275403E+02  0.7818608E-02  0.1488870E+00
          1   -1    0    0    0  501  0.00000000000E+00  0.00000000000E+00  0.51426878205E+01  0.51426902901E+01  0.50400000000E-02 0.  1.
         -1   -1    0    0  501    0 -0.00000000000E+00 -0.00000000000E+00 -0.88859484862E+02  0.88859485004E+02  0.50400000000E-02 0.  1.
          2    1    1    2    0  502 -0.97359387369E+01  0.18643147180E+02 -0.50265637190E+02  0.54488436649E+02  0.25500000000E-02 0.  1.
         -2    1    1    2  502    0  0.97359387369E+01 -0.18643147180E+02 -0.33451159851E+02  0.39513738645E+02  0.25500000000E-02 0.  1.
<mgrwt>
<rscale>  0 0.42754027E+02</rscale>
<asrwt>0</asrwt>
<pdfrwt beam="1">  1        1 0.79118301E-03 0.42754027E+02</pdfrwt>
<pdfrwt beam="2">  1       -1 0.13670689E-01 0.42754027E+02</pdfrwt>
<totfact> 0.55689916E+05</totfact>
</mgrwt>
</event>
<event>
 4    1  0.4029665E-002  0.5728339E+02  0.7818608E-02  0.1409599E+00
         -1   -1    0    0  501    0 -0.00000000000E+00  0.00000000000E+00  0.96499996819E+02  0.96499996951E+02  0.50400000000E-02 0. -1.
          1   -1    0    0    0  501  0.00000000000E+00 -0.00000000000E+00 -0.85010022140E+01  0.85010037080E+01  0.50400000000E-02 0. -1.
          2    1    1    2    0  502  0.18254159888E+02 -0.20044685260E+02  0.27065921703E+02  0.38308848645E+02  0.25500000000E-02 0.  1.
         -2    1    1    2  502    0 -0.18254159888E+02  0.20044685260E+02  0.60933072903E+02  0.66692152014E+02  0.25500000000E-02 0.  1.
<mgrwt>
<rscale>  0 0.57283393E+02</rscale>
<asrwt>0</asrwt>
<pdfrwt beam="2">  1        1 0.13078465E-02 0.57283393E+02</pdfrwt>
<pdfrwt beam="1">  1       -1 0.14846155E-01 0.57283393E+02</pdfrwt>
<totfact> 0.26692174E+05</totfact>
</mgrwt>
</event>
<event>
 4    1  0.4029665E-002  0.4688546E+02  0.7818608E-02  0.1462903E+00
         -1   -1    0    0  501    0 -0.00000000000E+00  0.00000000000E+00  0.16792483799E+02  0.16792484555E+02  0.50400000000E-02 0. -1.
          1   -1    0    0    0  501  0.00000000000E+00 -0.00000000000E+00 -0.32726642468E+02  0.32726642856E+02  0.50400000000E-02 0. -1.
          2    1    1    2    0  502 -0.82820616920E+01  0.19947787919E+02 -0.17592445760E+02  0.27856793481E+02  0.25500000000E-02 0.  1.
         -2    1    1    2  502    0  0.82820616920E+01 -0.19947787919E+02  0.16582870908E+01  0.21662333930E+02  0.25500000000E-02 0.  1.
<mgrwt>
<rscale>  0 0.46885462E+02</rscale>
<asrwt>0</asrwt>
<pdfrwt beam="2">  1        1 0.50348681E-02 0.46885462E+02</pdfrwt>
<pdfrwt beam="1">  1       -1 0.25834591E-02 0.46885462E+02</pdfrwt>
<totfact> 0.52850590E+05</totfact>
</mgrwt>
</event>
<event>
 4    1  0.4029665E-002  0.4391110E+02  0.7818608E-02  0.1481256E+00
         -1   -1    0    0  501    0 -0.00000000000E+00  0.00000000000E+00  0.10735187385E+03  0.10735187397E+03  0.50400000000E-02 0. -1.
          1   -1    0    0    0  501  0.00000000000E+00 -0.00000000000E+00 -0.44903366776E+01  0.44903395061E+01  0.50400000000E-02 0. -1.
          2    1    1    2    0  502 -0.20123683044E+02 -0.62267466133E+01  0.67195784744E+02  0.70420227822E+02  0.25500000000E-02 0.  1.
         -2    1    1    2  502    0  0.20123683044E+02  0.62267466133E+01  0.35665752431E+02  0.41421985655E+02  0.25500000000E-02 0.  1.
<mgrwt>
<rscale>  0 0.43911102E+02</rscale>
<asrwt>0</asrwt>
<pdfrwt beam="2">  1        1 0.69082133E-03 0.43911102E+02</pdfrwt>
<pdfrwt beam="1">  1       -1 0.16515671E-01 0.43911102E+02</pdfrwt>
<totfact> 0.50603633E+05</totfact>
</mgrwt>
</event>
<event>
 4    1  0.4029665E-002  0.9583524E+02  0.7818608E-02  0.1289306E+00
         -1   -1    0    0  501    0 -0.00000000000E+00  0.00000000000E+00  0.32627716603E+01  0.32627755530E+01  0.50400000000E-02 0.  1.
          1   -1    0    0    0  501  0.00000000000E+00 -0.00000000000E+00 -0.70372590722E+03  0.70372590723E+03  0.50400000000E-02 0.  1.
          2    1    1    2    0  502 -0.27129951894E+02 -0.18644422362E+02 -0.60710492559E+03  0.60799674297E+03  0.25500000000E-02 0. -1.
         -2    1    1    2  502    0  0.27129951894E+02  0.18644422362E+02 -0.93358209962E+02  0.98991939817E+02  0.25500000000E-02 0. -1.
<mgrwt>
<rscale>  0 0.95835240E+02</rscale>
<asrwt>0</asrwt>
<pdfrwt beam="2">  1        1 0.10826540E+00 0.95835240E+02</pdfrwt>
<pdfrwt beam="1">  1       -1 0.50196573E-03 0.95835240E+02</pdfrwt>
<totfact> 0.12457116E+05</totfact>
</mgrwt>
</event>
<event>
 4    1  0.4029665E-002  0.5009065E+02  0.7818608E-02  0.1444853E+00
          1   -1    0    0    0  501  0.00000000000E+00  0.00000000000E+00  0.15025163226E+03  0.15025163234E+03  0.50400000000E-02 0. -1.
         -1   -1    0    0  501    0 -0.00000000000E+00 -0.00000000000E+00 -0.41747835566E+01  0.41747865989E+01  0.50400000000E-02 0. -1.
          2    1    1    2    0  502 -0.20579582794E+02 -0.14271340707E+02  0.72178040807E+02  0.76399345382E+02  0.25500000000E-02 0.  1.
         -2    1    1    2  502    0  0.20579582794E+02  0.14271340707E+02  0.73898807893E+02  0.78027073559E+02  0.25500000000E-02 0.  1.
<mgrwt>
<rscale>  0 0.50090649E+02</rscale>
<asrwt>0</asrwt>
<pdfrwt beam="1">  1        1 0.23115638E-01 0.50090649E+02</pdfrwt>
<pdfrwt beam="2">  1       -1 0.64227457E-03 0.50090649E+02</pdfrwt>
<totfact> 0.53353288E+05</totfact>
</mgrwt>
</event>
<event>
 4    1  0.4029665E-002  0.4841692E+02  0.7818608E-02  0.1454072E+00
         -1   -1    0    0  501    0 -0.00000000000E+00  0.00000000000E+00  0.32210522125E+02  0.32210522519E+02  0.50400000000E-02 0.  1.
          1   -1    0    0    0  501  0.00000000000E+00 -0.00000000000E+00 -0.18194351936E+02  0.18194352634E+02  0.50400000000E-02 0.  1.
          2    1    1    2    0  502  0.59343075376E+01  0.22925997523E+02  0.17786694491E+01  0.23748284988E+02  0.25500000000E-02 0. -1.
         -2    1    1    2  502    0 -0.59343075376E+01 -0.22925997523E+02  0.12237500740E+02  0.26656590165E+02  0.25500000000E-02 0. -1.
<mgrwt>
<rscale>  0 0.48416923E+02</rscale>
<asrwt>0</asrwt>
<pdfrwt beam="2">  1        1 0.27991311E-02 0.48416923E+02</pdfrwt>
<pdfrwt beam="1">  1       -1 0.49554650E-02 0.48416923E+02</pdfrwt>
<totfact> 0.46212646E+05</totfact>
</mgrwt>
</event>
<event>
 4    1  0.4029665E-002  0.4956579E+02  0.7818608E-02  0.1447698E+00
         -1   -1    0    0  501    0 -0.00000000000E+00  0.00000000000E+00  0.72370266764E+00  0.72372021717E+00  0.50400000000E-02 0.  1.
          1   -1    0    0    0  501  0.00000000000E+00 -0.00000000000E+00 -0.84866949080E+03  0.84866949082E+03  0.50400000000E-02 0.  1.
          2    1    1    2    0  502  0.14260083155E+02  0.17261229208E+02 -0.24189466852E+03  0.24292865346E+03  0.25500000000E-02 0.  1.
         -2    1    1    2  502    0 -0.14260083155E+02 -0.17261229208E+02 -0.60605111961E+03  0.60646455758E+03  0.25500000000E-02 0.  1.
<mgrwt>
<rscale>  0 0.49565788E+02</rscale>
<asrwt>0</asrwt>
<pdfrwt beam="2">  1        1 0.13056374E+00 0.49565788E+02</pdfrwt>
<pdfrwt beam="1">  1       -1 0.11134090E-03 0.49565788E+02</pdfrwt>
<totfact> 0.66928044E+05</totfact>
</mgrwt>
</event>
<event>
 4    1  0.4029665E-002  0.7960132E+02  0.7818608E-02  0.1330187E+00
         -1   -1    0    0  501    0 -0.00000000000E+00  0.00000000000E+00  0.10374054622E+03  0.10374054635E+03  0.50400000000E-02 0.  1.
          1   -1    0    0    0  501  0.00000000000E+00 -0.00000000000E+00 -0.15269752685E+02  0.15269753517E+02  0.50400000000E-02 0.  1.
          2    1    1    2    0  502  0.21994311378E+02 -0.30574145954E+02  0.63472858108E+02  0.73806042142E+02  0.25500000000E-02 0.  1.
         -2    1    1    2  502    0 -0.21994311378E+02  0.30574145954E+02  0.24997935431E+02  0.45204257721E+02  0.25500000000E-02 0.  1.
<mgrwt>
<rscale>  0 0.79601320E+02</rscale>
<asrwt>0</asrwt>
<pdfrwt beam="2">  1        1 0.23491928E-02 0.79601320E+02</pdfrwt>
<pdfrwt beam="1">  1       -1 0.15960084E-01 0.79601320E+02</pdfrwt>
<totfact> 0.11453834E+05</totfact>
</mgrwt>
</event>
<event>
 4    1  0.4029665E-002  0.1312042E+03  0.7818608E-02  0.1225680E+00
         -1   -1    0    0  501    0 -0.00000000000E+00  0.00000000000E+00  0.26019060861E+02  0.26019061349E+02  0.50400000000E-02 0. -1.
          1   -1    0    0    0  501  0.00000000000E+00 -0.00000000000E+00 -0.16540330239E+03  0.16540330247E+03  0.50400000000E-02 0. -1.
          2    1    1    2    0  502  0.38845693139E+02  0.52782566283E+02 -0.73983426815E+02  0.98835897470E+02  0.25500000000E-02 0.  1.
         -2    1    1    2  502    0 -0.38845693139E+02 -0.52782566283E+02 -0.65400814718E+02  0.92586466351E+02  0.25500000000E-02 0.  1.
<mgrwt>
<rscale>  0 0.13120425E+03</rscale>
<asrwt>0</asrwt>
<pdfrwt beam="2">  1        1 0.25446661E-01 0.13120425E+03</pdfrwt>
<pdfrwt beam="1">  1       -1 0.40029326E-02 0.13120425E+03</pdfrwt>
<totfact> 0.41928306E+04</totfact>
</mgrwt>
</event>
<event>
 4    1  0.4029665E-002  0.1634274E+03  0.7818608E-02  0.1184881E+00
          1   -1    0    0    0  501  0.00000000000E+00  0.00000000000E+00  0.58649867434E+03  0.58649867436E+03  0.50400000000E-02 0. -1.
         -1   -1    0    0  501    0 -0.00000000000E+00 -0.00000000000E+00 -0.11384723211E+02  0.11384724326E+02  0.50400000000E-02 0. -1.
          2    1    1    2    0  502 -0.29011314682E+01  0.68765543297E+02  0.44869335191E+03  0.45394145059E+03  0.25500000000E-02 0. -1.
         -2    1    1    2  502    0  0.29011314682E+01 -0.68765543297E+02  0.12642059921E+03  0.14394194809E+03  0.25500000000E-02 0. -1.
<mgrwt>
<rscale>  0 0.16342736E+03</rscale>
<asrwt>0</asrwt>
<pdfrwt beam="1">  1        1 0.90230545E-01 0.16342736E+03</pdfrwt>
<pdfrwt beam="2">  1       -1 0.17514964E-02 0.16342736E+03</pdfrwt>
<totfact> 0.28853328E+04</totfact>
</mgrwt>
</event>
<event>
 4    1  0.4029665E-002  0.4802827E+02  0.7818608E-02  0.1456276E+00
         -1   -1    0    0  501    0 -0.00000000000E+00  0.00000000000E+00  0.48121633831E+00  0.48124273071E+00  0.50400000000E-02 0. -1.
          1   -1    0    0    0  501  0.00000000000E+00 -0.00000000000E+00 -0.11983442528E+04  0.11983442528E+04  0.50400000000E-02 0. -1.
          2    1    1    2    0  502  0.21814310713E+02  0.71432110484E+01 -0.42280453405E+03  0.42342716450E+03  0.25500000000E-02 0.  1.
         -2    1    1    2  502    0 -0.21814310713E+02 -0.71432110484E+01 -0.77505850238E+03  0.77539833101E+03  0.25500000000E-02 0.  1.
<mgrwt>
<rscale>  0 0.48028269E+02</rscale>
<asrwt>0</asrwt>
<pdfrwt beam="2">  1        1 0.18435827E+00 0.48028269E+02</pdfrwt>
<pdfrwt beam="1">  1       -1 0.74036273E-04 0.48028269E+02</pdfrwt>
<totfact> 0.65757409E+05</totfact>
</mgrwt>
</event>
<event>
 4    1  0.4029665E-002  0.4512577E+02  0.7818608E-02  0.1473558E+00
          1   -1    0    0    0  501  0.00000000000E+00  0.00000000000E+00  0.14668084934E+02  0.14668085800E+02  0.50400000000E-02 0.  1.
         -1   -1    0    0  501    0 -0.00000000000E+00 -0.00000000000E+00 -0.34706892465E+02  0.34706892831E+02  0.50400000000E-02 0.  1.
          2    1    1    2    0  502  0.18048794877E+02  0.90504460089E+01 -0.21038133003E+02  0.29159434429E+02  0.25500000000E-02 0. -1.
         -2    1    1    2  502    0 -0.18048794877E+02 -0.90504460089E+01  0.99932547163E+00  0.20215544202E+02  0.25500000000E-02 0. -1.
<mgrwt>
<rscale>  0 0.45125765E+02</rscale>
<asrwt>0</asrwt>
<pdfrwt beam="1">  1        1 0.22566286E-02 0.45125765E+02</pdfrwt>
<pdfrwt beam="2">  1       -1 0.53395220E-02 0.45125765E+02</pdfrwt>
<totfact> 0.54457017E+05</totfact>
</mgrwt>
</event>
<event>
 4    1  0.4029665E-002  0.4595479E+02  0.7818608E-02  0.1468468E+00
          1   -1    0    0    0  501  0.00000000000E+00  0.00000000000E+00  0.32415351432E+00  0.32419269338E+00  0.50400000000E-02 0.  1.
         -1   -1    0    0  501    0 -0.00000000000E+00 -0.00000000000E+00 -0.16286382872E+04  0.16286382872E+04  0.50400000000E-02 0.  1.
          2    1    1    2    0  502 -0.20108396873E+02 -0.78489016396E+01 -0.53502892918E+03  0.53546419856E+03  0.25500000000E-02 0.  1.
         -2    1    1    2  502    0  0.20108396873E+02  0.78489016396E+01 -0.10932852045E+04  0.10934982813E+04  0.25500000000E-02 0.  1.
<mgrwt>
<rscale>  0 0.45954793E+02</rscale>
<asrwt>0</asrwt>
<pdfrwt beam="1">  1        1 0.49874090E-04 0.45954793E+02</pdfrwt>
<pdfrwt beam="2">  1       -1 0.25055319E+00 0.45954793E+02</pdfrwt>
<totfact> 0.67375948E+04</totfact>
</mgrwt>
</event>
<event>
 4    1  0.4029665E-002  0.6384674E+02  0.7818608E-02  0.1382363E+00
         -1   -1    0    0  501    0 -0.00000000000E+00  0.00000000000E+00  0.19265576730E+02  0.19265577389E+02  0.50400000000E-02 0. -1.
          1   -1    0    0    0  501  0.00000000000E+00 -0.00000000000E+00 -0.52897541505E+02  0.52897541745E+02  0.50400000000E-02 0. -1.
          2    1    1    2    0  502  0.24383778619E+02 -0.15889300819E+02 -0.31641861434E+02  0.42991230987E+02  0.25500000000E-02 0.  1.
         -2    1    1    2  502    0 -0.24383778619E+02  0.15889300819E+02 -0.19901033408E+01  0.29171888147E+02  0.25500000000E-02 0.  1.
<mgrwt>
<rscale>  0 0.63846744E+02</rscale>
<asrwt>0</asrwt>
<pdfrwt beam="2">  1        1 0.81380833E-02 0.63846744E+02</pdfrwt>
<pdfrwt beam="1">  1       -1 0.29639350E-02 0.63846744E+02</pdfrwt>
<totfact> 0.24859564E+05</totfact>
</mgrwt>
</event>
<event>
 4    1  0.4029665E-002  0.5783517E+02  0.7818608E-02  0.1407148E+00
         -1   -1    0    0  501    0 -0.00000000000E+00  0.00000000000E+00  0.50460283367E+02  0.50460283619E+02  0.50400000000E-02 0. -1.
          1   -1    0    0    0  501  0.00000000000E+00 -0.00000000000E+00 -0.16571976807E+02  0.16571977574E+02  0.50400000000E-02 0. -1.
          2    1    1    2    0  502 -0.41558118868E+01 -0.25859138576E+02  0.27367473525E+01  0.26333545391E+02  0.25500000000E-02 0.  1.
         -2    1    1    2  502    0  0.41558118868E+01  0.25859138576E+02  0.31151559208E+02  0.40698715801E+02  0.25500000000E-02 0.  1.
<mgrwt>
<rscale>  0 0.57835169E+02</rscale>
<asrwt>0</asrwt>
<pdfrwt beam="2">  1        1 0.25495350E-02 0.57835169E+02</pdfrwt>
<pdfrwt beam="1">  1       -1 0.77631206E-02 0.57835169E+02</pdfrwt>
<totfact> 0.28492988E+05</totfact>
</mgrwt>
</event>
<event>
 4    1  0.4029665E-002  0.4438210E+02  0.7818608E-02  0.1478236E+00
         -1   -1    0    0  501    0 -0.00000000000E+00  0.00000000000E+00  0.89446507107E+00  0.89447927028E+00  0.50400000000E-02 0. -1.
          1   -1    0    0    0  501  0.00000000000E+00 -0.00000000000E+00 -0.55053995351E+03  0.55053995353E+03  0.50400000000E-02 0. -1.
          2    1    1    2    0  502 -0.21735180051E+02 -0.10447100800E+01 -0.32888548785E+03  0.32960457156E+03  0.25500000000E-02 0.  1.
         -2    1    1    2  502    0  0.21735180051E+02  0.10447100800E+01 -0.22076000059E+03  0.22182986124E+03  0.25500000000E-02 0.  1.
<mgrwt>
<rscale>  0 0.44382099E+02</rscale>
<asrwt>0</asrwt>
<pdfrwt beam="2">  1        1 0.84698185E-01 0.44382099E+02</pdfrwt>
<pdfrwt beam="1">  1       -1 0.13761154E-03 0.44382099E+02</pdfrwt>
<totfact> 0.88206420E+05</totfact>
</mgrwt>
</event>
<event>
 4    1  0.4029665E-002  0.5883009E+02  0.7818608E-02  0.1402808E+00
         -1   -1    0    0  501    0 -0.00000000000E+00  0.00000000000E+00  0.65803196535E+00  0.65805126626E+00  0.50400000000E-02 0.  1.
          1   -1    0    0    0  501  0.00000000000E+00 -0.00000000000E+00 -0.13148786681E+04  0.13148786681E+04  0.50400000000E-02 0.  1.
          2    1    1    2    0  502 -0.17533165084E+02  0.23086572624E+02 -0.76856723234E+03  0.76911377074E+03  0.25500000000E-02 0.  1.
         -2    1    1    2  502    0  0.17533165084E+02 -0.23086572624E+02 -0.54565340377E+03  0.54642294861E+03  0.25500000000E-02 0.  1.
<mgrwt>
<rscale>  0 0.58830091E+02</rscale>
<asrwt>0</asrwt>
<pdfrwt beam="2">  1        1 0.20228692E+00 0.58830091E+02</pdfrwt>
<pdfrwt beam="1">  1       -1 0.10123822E-03 0.58830091E+02</pdfrwt>
<totfact> 0.37702524E+05</totfact>
</mgrwt>
</event>
<event>
 4    1  0.4029665E-002  0.4392071E+02  0.7818608E-02  0.1481194E+00
          1   -1    0    0    0  501  0.00000000000E+00  0.00000000000E+00  0.13457614272E+01  0.13457708648E+01  0.50400000000E-02 0.  1.
         -1   -1    0    0  501    0 -0.00000000000E+00 -0.00000000000E+00 -0.35835137385E+03  0.35835137389E+03  0.50400000000E-02 0.  1.
          2    1    1    2    0  502 -0.10248261556E+02  0.19090630186E+02 -0.14922751226E+03  0.15079233882E+03  0.25500000000E-02 0.  1.
         -2    1    1    2  502    0  0.10248261556E+02 -0.19090630186E+02 -0.20777810017E+03  0.20890480593E+03  0.25500000000E-02 0.  1.
<mgrwt>
<rscale>  0 0.43920709E+02</rscale>
<asrwt>0</asrwt>
<pdfrwt beam="1">  1        1 0.20704123E-03 0.43920709E+02</pdfrwt>
<pdfrwt beam="2">  1       -1 0.55130905E-01 0.43920709E+02</pdfrwt>
<totfact> 0.35807132E+05</totfact>
</mgrwt>
</event>
<event>
 4    1  0.4029665E-002  0.5941421E+02  0.7818608E-02  0.1400307E+00
          1   -1    0    0    0  501  0.00000000000E+00  0.00000000000E+00  0.50988662788E+03  0.50988662790E+03  0.50400000000E-02 0. -1.
         -1   -1    0    0  501    0 -0.00000000000E+00 -0.00000000000E+00 -0.17307971824E+01  0.17308045205E+01  0.50400000000E-02 0. -1.
          2    1    1    2    0  502  0.13911299189E+02 -0.21950735480E+02  0.37801485807E+03  0.37890710202E+03  0.25500000000E-02 0. -1.
         -2    1    1    2  502    0 -0.13911299189E+02  0.21950735480E+02  0.13014097262E+03  0.13271033040E+03  0.25500000000E-02 0. -1.
<mgrwt>
<rscale>  0 0.59414215E+02</rscale>
<asrwt>0</asrwt>
<pdfrwt beam="1">  1        1 0.78444147E-01 0.59414215E+02</pdfrwt>
<pdfrwt beam="2">  1       -1 0.26627689E-03 0.59414215E+02</pdfrwt>
<totfact> 0.42359420E+05</totfact>
</mgrwt>
</event>
<event>
 4    1  0.4029665E-002  0.1894698E+03  0.7818608E-02  0.1158940E+00
          1   -1    0    0    0  501  0.00000000000E+00  0.00000000000E+00  0.85275079332E+03  0.85275079334E+03  0.50400000000E-02 0. -1.
         -1   -1    0    0  501    0 -0.00000000000E+00 -0.00000000000E+00 -0.10524410112E+02  0.10524411319E+02  0.50400000000E-02 0. -1.
          2    1    1    2    0  502  0.11441688221E+02 -0.86950493381E+02  0.25788687879E+03  0.27239115769E+03  0.25500000000E-02 0.  1.
         -2    1    1    2  502    0 -0.11441688221E+02  0.86950493381E+02  0.58433950442E+03  0.59088404697E+03  0.25500000000E-02 0.  1.
<mgrwt>
<rscale>  0 0.18946978E+03</rscale>
<asrwt>0</asrwt>
<pdfrwt beam="1">  1        1 0.13119251E+00 0.18946978E+03</pdfrwt>
<pdfrwt beam="2">  1       -1 0.16191392E-02 0.18946978E+03</pdfrwt>
<totfact> 0.18978071E+04</totfact>
</mgrwt>
</event>
<event>
 4    1  0.4029665E-002  0.7731762E+02  0.7818608E-02  0.1336841E+00
          1   -1    0    0    0  501  0.00000000000E+00  0.00000000000E+00  0.30764027236E+02  0.30764027649E+02  0.50400000000E-02 0. -1.
         -1   -1    0    0  501    0 -0.00000000000E+00 -0.00000000000E+00 -0.48579585819E+02  0.48579586080E+02  0.50400000000E-02 0. -1.
          2    1    1    2    0  502  0.15459167004E+02 -0.14812244585E+02  0.24124422308E+02  0.32254863079E+02  0.25500000000E-02 0.  1.
         -2    1    1    2  502    0 -0.15459167004E+02  0.14812244585E+02 -0.41939980891E+02  0.47088750649E+02  0.25500000000E-02 0.  1.
<mgrwt>
<rscale>  0 0.77317624E+02</rscale>
<asrwt>0</asrwt>
<pdfrwt beam="1">  1        1 0.47329273E-02 0.77317624E+02</pdfrwt>
<pdfrwt beam="2">  1       -1 0.74737824E-02 0.77317624E+02</pdfrwt>
<totfact> 0.13859646E+05</totfact>
</mgrwt>
</event>
<event>
 4    1  0.4029665E-002  0.5985306E+02  0.7818608E-02  0.1398449E+00
          1   -1    0    0    0  501  0.00000000000E+00  0.00000000000E+00  0.44635494080E+02  0.44635494364E+02  0.50400000000E-02 0.  1.
         -1   -1    0    0  501    0 -0.00000000000E+00 -0.00000000000E+00 -0.20064686784E+02  0.20064687417E+02  0.50400000000E-02 0.  1.
          2    1    1    2    0  502  0.55230706637E+01  0.20864813842E+02  0.34694705198E+02  0.40860339469E+02  0.25500000000E-02 0. -1.
         -2    1    1    2  502    0 -0.55230706637E+01 -0.20864813842E+02 -0.10123897902E+02  0.23839842312E+02  0.25500000000E-02 0. -1.
<mgrwt>
<rscale>  0 0.59853061E+02</rscale>
<asrwt>0</asrwt>
<pdfrwt beam="1">  1        1 0.68669991E-02 0.59853061E+02</pdfrwt>
<pdfrwt beam="2">  1       -1 0.30868750E-02 0.59853061E+02</pdfrwt>
<totfact> 0.28916033E+05</totfact>
</mgrwt>
</event>
<event>
 4    1  0.4029665E-002  0.4763130E+02  0.7818608E-02  0.1458553E+00
         -1   -1    0    0  501    0 -0.00000000000E+00  0.00000000000E+00  0.44800277182E+00  0.44803112074E+00  0.50400000000E-02 0.  1.
          1   -1    0    0    0  501  0.00000000000E+00 -0.00000000000E+00 -0.12659904705E+04  0.12659904705E+04  0.50400000000E-02 0.  1.
          2    1    1    2    0  502 -0.21739843704E+02  0.96258157890E+01 -0.59604407553E+03  0.59651807778E+03  0.25500000000E-02 0. -1.
         -2    1    1    2  502    0  0.21739843704E+02 -0.96258157890E+01 -0.66949839215E+03  0.66992042380E+03  0.25500000000E-02 0. -1.
<mgrwt>
<rscale>  0 0.47631301E+02</rscale>
<asrwt>0</asrwt>
<pdfrwt beam="2">  1        1 0.19476490E+00 0.47631301E+02</pdfrwt>
<pdfrwt beam="1">  1       -1 0.68926698E-04 0.47631301E+02</pdfrwt>
<totfact> 0.65329027E+05</totfact>
</mgrwt>
</event>
<event>
 4    1  0.4029665E-002  0.9236754E+02  0.7818608E-02  0.1297218E+00
          1   -1    0    0    0  501  0.00000000000E+00  0.00000000000E+00  0.24485965916E+02  0.24485966435E+02  0.50400000000E-02 0. -1.
         -1   -1    0    0  501    0 -0.00000000000E+00 -0.00000000000E+00 -0.87108691308E+02  0.87108691453E+02  0.50400000000E-02 0. -1.
          2    1    1    2    0  502 -0.43225899318E+02 -0.69284319410E+01 -0.13536273019E+02  0.45822617065E+02  0.25500000000E-02 0.  1.
         -2    1    1    2  502    0  0.43225899318E+02  0.69284319410E+01 -0.49086452372E+02  0.65772040823E+02  0.25500000000E-02 0.  1.
<mgrwt>
<rscale>  0 0.92367537E+02</rscale>
<asrwt>0</asrwt>
<pdfrwt beam="1">  1        1 0.37670718E-02 0.92367537E+02</pdfrwt>
<pdfrwt beam="2">  1       -1 0.13401337E-01 0.92367537E+02</pdfrwt>
<totfact> 0.80685737E+04</totfact>
</mgrwt>
</event>
<event>
 4    1  0.4029665E-002  0.1159503E+03  0.7818608E-02  0.1249931E+00
         -1   -1    0    0  501    0 -0.00000000000E+00  0.00000000000E+00  0.64290866470E+03  0.64290866472E+03  0.50400000000E-02 0. -1.
          1   -1    0    0    0  501  0.00000000000E+00 -0.00000000000E+00 -0.52279828074E+01  0.52279852368E+01  0.50400000000E-02 0. -1.
          2    1    1    2    0  502 -0.29419300572E+02  0.26789753132E+02  0.83144368583E+02  0.92174682818E+02  0.25500000000E-02 0. -1.
         -2    1    1    2  502    0  0.29419300572E+02 -0.26789753132E+02  0.55453631331E+03  0.55596196714E+03  0.25500000000E-02 0. -1.
<mgrwt>
<rscale>  0 0.11595027E+03</rscale>
<asrwt>0</asrwt>
<pdfrwt beam="2">  1        1 0.80430501E-03 0.11595027E+03</pdfrwt>
<pdfrwt beam="1">  1       -1 0.98909054E-01 0.11595027E+03</pdfrwt>
<totfact> 0.20888582E+04</totfact>
</mgrwt>
</event>
<event>
 4    1  0.4029665E-002  0.4245822E+02  0.7818608E-02  0.1490863E+00
         -1   -1    0    0  501    0 -0.00000000000E+00  0.00000000000E+00  0.29666633077E+03  0.29666633081E+03  0.50400000000E-02 0. -1.
          1   -1    0    0    0  501  0.00000000000E+00 -0.00000000000E+00 -0.15191267375E+01  0.15191350981E+01  0.50400000000E-02 0. -1.
          2    1    1    2    0  502  0.10222707636E+02  0.18487061735E+02  0.13284229993E+03  0.13451153059E+03  0.25500000000E-02 0.  1.
         -2    1    1    2  502    0 -0.10222707636E+02 -0.18487061735E+02  0.16230490410E+03  0.16367393533E+03  0.25500000000E-02 0.  1.
<mgrwt>
<rscale>  0 0.42458215E+02</rscale>
<asrwt>0</asrwt>
<pdfrwt beam="2">  1        1 0.23371252E-03 0.42458215E+02</pdfrwt>
<pdfrwt beam="1">  1       -1 0.45640962E-01 0.42458215E+02</pdfrwt>
<totfact> 0.42090307E+05</totfact>
</mgrwt>
</event>
<event>
 4    1  0.4029665E-002  0.5334264E+02  0.7818608E-02  0.1428103E+00
         -1   -1    0    0  501    0 -0.00000000000E+00  0.00000000000E+00  0.15444936031E+04  0.15444936031E+04  0.50400000000E-02 0.  1.
          1   -1    0    0    0  501  0.00000000000E+00 -0.00000000000E+00 -0.46056394628E+00  0.46059152208E+00  0.50400000000E-02 0.  1.
          2    1    1    2    0  502 -0.23794039924E+02  0.37828758868E+01  0.11033757714E+04  0.11036387812E+04  0.25500000000E-02 0.  1.
         -2    1    1    2  502    0  0.23794039924E+02 -0.37828758868E+01  0.44065726768E+03  0.44131541334E+03  0.25500000000E-02 0.  1.
<mgrwt>
<rscale>  0 0.53342642E+02</rscale>
<asrwt>0</asrwt>
<pdfrwt beam="2">  1        1 0.70857087E-04 0.53342642E+02</pdfrwt>
<pdfrwt beam="1">  1       -1 0.23761785E+00 0.53342642E+02</pdfrwt>
<totfact> 0.51802841E+04</totfact>
</mgrwt>
</event>
<event>
 4    1  0.4029665E-002  0.4344028E+02  0.7818608E-02  0.1484320E+00
          1   -1    0    0    0  501  0.00000000000E+00  0.00000000000E+00  0.13598888715E+04  0.13598888715E+04  0.50400000000E-02 0. -1.
         -1   -1    0    0  501    0 -0.00000000000E+00 -0.00000000000E+00 -0.34689567944E+00  0.34693229025E+00  0.50400000000E-02 0. -1.
          2    1    1    2    0  502 -0.20546700804E+02 -0.35731966346E+01  0.86980065927E+03  0.87005064308E+03  0.25500000000E-02 0. -1.
         -2    1    1    2  502    0  0.20546700804E+02  0.35731966346E+01  0.48974131658E+03  0.49018516075E+03  0.25500000000E-02 0. -1.
<mgrwt>
<rscale>  0 0.43440280E+02</rscale>
<asrwt>0</asrwt>
<pdfrwt beam="1">  1        1 0.20921372E+00 0.43440280E+02</pdfrwt>
<pdfrwt beam="2">  1       -1 0.53371372E-04 0.43440280E+02</pdfrwt>
<totfact> 0.78632859E+05</totfact>
</mgrwt>
</event>
<event>
 4    1  0.4029665E-002  0.4288888E+02  0.7818608E-02  0.1487968E+00
          1   -1    0    0    0  501  0.00000000000E+00  0.00000000000E+00  0.16133591735E+04  0.16133591735E+04  0.50400000000E-02 0.  1.
         -1   -1    0    0  501    0 -0.00000000000E+00 -0.00000000000E+00 -0.28501275576E+00  0.28505731449E+00  0.50400000000E-02 0.  1.
          2    1    1    2    0  502  0.91482365231E+01 -0.18230539135E+02  0.10555975501E+04  0.10557945967E+04  0.25500000000E-02 0. -1.
         -2    1    1    2  502    0 -0.91482365231E+01  0.18230539135E+02  0.55747661071E+03  0.55784963412E+03  0.25500000000E-02 0. -1.
<mgrwt>
<rscale>  0 0.42888875E+02</rscale>
<asrwt>0</asrwt>
<pdfrwt beam="1">  1        1 0.24821342E+00 0.42888875E+02</pdfrwt>
<pdfrwt beam="2">  1       -1 0.43850783E-04 0.42888875E+02</pdfrwt>
<totfact> 0.71080466E+05</totfact>
</mgrwt>
</event>
<event>
 4    1  0.4029665E-002  0.7626328E+02  0.7818608E-02  0.1340003E+00
          1   -1    0    0    0  501  0.00000000000E+00  0.00000000000E+00  0.28576713136E+03  0.28576713141E+03  0.50400000000E-02 0. -1.
         -1   -1    0    0  501    0 -0.00000000000E+00 -0.00000000000E+00 -0.50881340213E+01  0.50881365175E+01  0.50400000000E-02 0. -1.
          2    1    1    2    0  502  0.36068509611E+02 -0.12175053384E+02  0.13193822848E+03  0.13732030240E+03  0.25500000000E-02 0. -1.
         -2    1    1    2  502    0 -0.36068509611E+02  0.12175053384E+02  0.14874076886E+03  0.15353496552E+03  0.25500000000E-02 0. -1.
<mgrwt>
<rscale>  0 0.76263276E+02</rscale>
<asrwt>0</asrwt>
<pdfrwt beam="1">  1        1 0.43964174E-01 0.76263276E+02</pdfrwt>
<pdfrwt beam="2">  1       -1 0.78279005E-03 0.76263276E+02</pdfrwt>
<totfact> 0.20343633E+05</totfact>
</mgrwt>
</event>
<event>
 4    1  0.4029665E-002  0.4339479E+02  0.7818608E-02  0.1484619E+00
          1   -1    0    0    0  501  0.00000000000E+00  0.00000000000E+00  0.54781762970E+03  0.54781762972E+03  0.50400000000E-02 0. -1.
         -1   -1    0    0  501    0 -0.00000000000E+00 -0.00000000000E+00 -0.85936049173E+00  0.85937527096E+00  0.50400000000E-02 0. -1.
          2    1    1    2    0  502 -0.14549791010E+02  0.14336087241E+02  0.18094806425E+03  0.18209728657E+03  0.25500000000E-02 0. -1.
         -2    1    1    2  502    0  0.14549791010E+02 -0.14336087241E+02  0.36601020496E+03  0.36657971842E+03  0.25500000000E-02 0. -1.
<mgrwt>
<rscale>  0 0.43394787E+02</rscale>
<asrwt>0</asrwt>
<pdfrwt beam="1">  1        1 0.84279696E-01 0.43394787E+02</pdfrwt>
<pdfrwt beam="2">  1       -1 0.13221035E-03 0.43394787E+02</pdfrwt>
<totfact> 0.93150695E+05</totfact>
</mgrwt>
</event>
<event>
 4    1  0.4029665E-002  0.5298594E+02  0.7818608E-02  0.1429871E+00
          1   -1    0    0    0  501  0.00000000000E+00  0.00000000000E+00  0.92766474501E+00  0.92767843606E+00  0.50400000000E-02 0.  1.
         -1   -1    0    0  501    0 -0.00000000000E+00 -0.00000000000E+00 -0.75660112812E+03  0.75660112813E+03  0.50400000000E-02 0.  1.
          2    1    1    2    0  502  0.13691446245E+02  0.17756884396E+02 -0.57957590254E+03  0.58000947360E+03  0.25500000000E-02 0.  1.
         -2    1    1    2  502    0 -0.13691446245E+02 -0.17756884396E+02 -0.17609756083E+03  0.17751933297E+03  0.25500000000E-02 0.  1.
<mgrwt>
<rscale>  0 0.52985937E+02</rscale>
<asrwt>0</asrwt>
<pdfrwt beam="1">  1        1 0.14271931E-03 0.52985937E+02</pdfrwt>
<pdfrwt beam="2">  1       -1 0.11639968E+00 0.52985937E+02</pdfrwt>
<totfact> 0.13828142E+05</totfact>
</mgrwt>
</event>
<event>
 4    1  0.4029665E-002  0.6205317E+02  0.7818608E-02  0.1389412E+00
         -1   -1    0    0  501    0 -0.00000000000E+00  0.00000000000E+00  0.15407743546E+02  0.15407744370E+02  0.50400000000E-02 0. -1.
          1   -1    0    0    0  501  0.00000000000E+00 -0.00000000000E+00 -0.62478259371E+02  0.62478259574E+02  0.50400000000E-02 0. -1.
          2    1    1    2    0  502  0.84491378706E+00 -0.25581076927E+02 -0.15237993301E+01  0.25640346077E+02  0.25500000000E-02 0. -1.
         -2    1    1    2  502    0 -0.84491378706E+00  0.25581076927E+02 -0.45546716494E+02  0.52245657867E+02  0.25500000000E-02 0. -1.
<mgrwt>
<rscale>  0 0.62053172E+02</rscale>
<asrwt>0</asrwt>
<pdfrwt beam="2">  1        1 0.96120399E-02 0.62053172E+02</pdfrwt>
<pdfrwt beam="1">  1       -1 0.23704222E-02 0.62053172E+02</pdfrwt>
<totfact> 0.27326191E+05</totfact>
</mgrwt>
</event>
<event>
 4    1  0.4029665E-002  0.4945140E+02  0.7818608E-02  0.1448323E+00
         -1   -1    0    0  501    0 -0.00000000000E+00  0.00000000000E+00  0.22503024963E+01  0.22503081403E+01  0.50400000000E-02 0. -1.
          1   -1    0    0    0  501  0.00000000000E+00 -0.00000000000E+00 -0.27167882704E+03  0.27167882708E+03  0.50400000000E-02 0. -1.
          2    1    1    2    0  502 -0.22057584976E+02 -0.10809950048E+00 -0.19659949638E+03  0.19783303750E+03  0.25500000000E-02 0. -1.
         -2    1    1    2  502    0  0.22057584976E+02  0.10809950048E+00 -0.72829028156E+02  0.76096097726E+02  0.25500000000E-02 0. -1.
<mgrwt>
<rscale>  0 0.49451403E+02</rscale>
<asrwt>0</asrwt>
<pdfrwt beam="2">  1        1 0.41796717E-01 0.49451403E+02</pdfrwt>
<pdfrwt beam="1">  1       -1 0.34620104E-03 0.49451403E+02</pdfrwt>
<totfact> 0.60969527E+05</totfact>
</mgrwt>
</event>
<event>
 4    1  0.4029665E-002  0.1318722E+03  0.7818608E-02  0.1224704E+00
          1   -1    0    0    0  501  0.00000000000E+00  0.00000000000E+00  0.77749509255E+03  0.77749509257E+03  0.50400000000E-02 0. -1.
         -1   -1    0    0  501    0 -0.00000000000E+00 -0.00000000000E+00 -0.55917644208E+01  0.55917666921E+01  0.50400000000E-02 0. -1.
          2    1    1    2    0  502  0.10287636307E+01  0.60092630742E+02  0.22491869377E+03  0.23281022623E+03  0.25500000000E-02 0.  1.
         -2    1    1    2  502    0 -0.10287636307E+01 -0.60092630742E+02  0.54698463437E+03  0.55027663304E+03  0.25500000000E-02 0.  1.
<mgrwt>
<rscale>  0 0.13187222E+03</rscale>
<asrwt>0</asrwt>
<pdfrwt beam="1">  1        1 0.11961464E+00 0.13187222E+03</pdfrwt>
<pdfrwt beam="2">  1       -1 0.86027157E-03 0.13187222E+03</pdfrwt>
<totfact> 0.52468086E+04</totfact>
</mgrwt>
</event>
<event>
 4    1  0.4029665E-002  0.1055578E+03  0.7818608E-02  0.1269025E+00
         -1   -1    0    0  501    0 -0.00000000000E+00  0.00000000000E+00  0.14574942183E+02  0.14574943054E+02  0.50400000000E-02 0. -1.
          1   -1    0    0    0  501  0.00000000000E+00 -0.00000000000E+00 -0.19112335869E+03  0.19112335876E+03  0.50400000000E-02 0. -1.
          2    1    1    2    0  502 -0.52530748794E+02 -0.32964101474E+00 -0.78333314634E+02  0.94316999635E+02  0.25500000000E-02 0.  1.
         -2    1    1    2  502    0  0.52530748794E+02  0.32964101474E+00 -0.98215101877E+02  0.11138130218E+03  0.25500000000E-02 0.  1.
<mgrwt>
<rscale>  0 0.10555779E+03</rscale>
<asrwt>0</asrwt>
<pdfrwt beam="2">  1        1 0.29403592E-01 0.10555779E+03</pdfrwt>
<pdfrwt beam="1">  1       -1 0.22422990E-02 0.10555779E+03</pdfrwt>
<totfact> 0.78949260E+04</totfact>
</mgrwt>
</event>
<event>
 4    1  0.4029665E-002  0.4874290E+02  0.7818608E-02  0.1452242E+00
          1   -1    0    0    0  501  0.00000000000E+00  0.00000000000E+00  0.36978240880E+03  0.36978240883E+03  0.50400000000E-02 0.  1.
         -1   -1    0    0  501    0 -0.00000000000E+00 -0.00000000000E+00 -0.16062580851E+01  0.16062659921E+01  0.50400000000E-02 0.  1.
          2    1    1    2    0  502 -0.14085636554E+02 -0.19704529425E+02  0.16351047595E+03  0.16529473491E+03  0.25500000000E-02 0.  1.
         -2    1    1    2  502    0  0.14085636554E+02  0.19704529425E+02  0.20466567476E+03  0.20609393991E+03  0.25500000000E-02 0.  1.
<mgrwt>
<rscale>  0 0.48742895E+02</rscale>
<asrwt>0</asrwt>
<pdfrwt beam="1">  1        1 0.56889656E-01 0.48742895E+02</pdfrwt>
<pdfrwt beam="2">  1       -1 0.24711701E-03 0.48742895E+02</pdfrwt>
<totfact> 0.66593601E+05</totfact>
</mgrwt>
</event>
<event>
 4    1  0.4029665E-002  0.6766986E+02  0.7818608E-02  0.1368201E+00
         -1   -1    0    0  501    0 -0.00000000000E+00  0.00000000000E+00  0.74064007597E+03  0.74064007599E+03  0.50400000000E-02 0. -1.
          1   -1    0    0    0  501  0.00000000000E+00 -0.00000000000E+00 -0.15456892072E+01  0.15456974240E+01  0.50400000000E-02 0. -1.
          2    1    1    2    0  502  0.46313996381E+00 -0.33806976560E+02  0.35534721094E+03  0.35695205069E+03  0.25500000000E-02 0.  1.
         -2    1    1    2  502    0 -0.46313996381E+00  0.33806976560E+02  0.38374717583E+03  0.38523372273E+03  0.25500000000E-02 0.  1.
<mgrwt>
<rscale>  0 0.67669858E+02</rscale>
<asrwt>0</asrwt>
<pdfrwt beam="2">  1        1 0.23779873E-03 0.67669858E+02</pdfrwt>
<pdfrwt beam="1">  1       -1 0.11394474E+00 0.67669858E+02</pdfrwt>
<totfact> 0.76003231E+04</totfact>
</mgrwt>
</event>
<event>
 4    1  0.4029665E-002  0.4409598E+02  0.7818608E-02  0.1480065E+00
          1   -1    0    0    0  501  0.00000000000E+00  0.00000000000E+00  0.28294498623E+00  0.28298987055E+00  0.50400000000E-02 0. -1.
         -1   -1    0    0  501    0 -0.00000000000E+00 -0.00000000000E+00 -0.17179145386E+04  0.17179145386E+04  0.50400000000E-02 0. -1.
          2    1    1    2    0  502  0.11642535941E+02  0.18722798145E+02 -0.85302955461E+03  0.85331442789E+03  0.25500000000E-02 0.  1.
         -2    1    1    2  502    0 -0.11642535941E+02 -0.18722798145E+02 -0.86460203896E+03  0.86488310054E+03  0.25500000000E-02 0.  1.
<mgrwt>
<rscale>  0 0.44095980E+02</rscale>
<asrwt>0</asrwt>
<pdfrwt beam="1">  1        1 0.43534827E-04 0.44095980E+02</pdfrwt>
<pdfrwt beam="2">  1       -1 0.26428620E+00 0.44095980E+02</pdfrwt>
<totfact> 0.66353014E+04</totfact>
</mgrwt>
</event>
<event>
 4    1  0.4029665E-002  0.6150184E+02  0.7818608E-02  0.1391635E+00
          1   -1    0    0    0  501  0.00000000000E+00  0.00000000000E+00  0.17855980192E+04  0.17855980192E+04  0.50400000000E-02 0.  1.
         -1   -1    0    0  501    0 -0.00000000000E+00 -0.00000000000E+00 -0.52956913531E+00  0.52959311804E+00  0.50400000000E-02 0.  1.
          2    1    1    2    0  502  0.21333162253E+02  0.11187605188E+02  0.33742231364E+03  0.33828107258E+03  0.25500000000E-02 0. -1.
         -2    1    1    2  502    0 -0.21333162253E+02 -0.11187605188E+02  0.14476461364E+04  0.14478465397E+04  0.25500000000E-02 0. -1.
<mgrwt>
<rscale>  0 0.61501838E+02</rscale>
<asrwt>0</asrwt>
<pdfrwt beam="1">  1        1 0.27470923E+00 0.61501838E+02</pdfrwt>
<pdfrwt beam="2">  1       -1 0.81473475E-04 0.61501838E+02</pdfrwt>
<totfact> 0.25883687E+05</totfact>
</mgrwt>
</event>
<event>
 4    1  0.4029665E-002  0.5340759E+02  0.7818608E-02  0.1427783E+00
          1   -1    0    0    0  501  0.00000000000E+00  0.00000000000E+00  0.83275322756E+02  0.83275322909E+02  0.50400000000E-02 0. -1.
         -1   -1    0    0  501    0 -0.00000000000E+00 -0.00000000000E+00 -0.85630714839E+01  0.85630729671E+01  0.50400000000E-02 0. -1.
          2    1    1    2    0  502 -0.24288577936E+02  0.10210540273E+02  0.29879933046E+02  0.39837175554E+02  0.25500000000E-02 0.  1.
         -2    1    1    2  502    0  0.24288577936E+02 -0.10210540273E+02  0.44832318227E+02  0.52001220321E+02  0.25500000000E-02 0.  1.
<mgrwt>
<rscale>  0 0.53407588E+02</rscale>
<asrwt>0</asrwt>
<pdfrwt beam="1">  1        1 0.12811588E-01 0.53407588E+02</pdfrwt>
<pdfrwt beam="2">  1       -1 0.13173958E-02 0.53407588E+02</pdfrwt>
<totfact> 0.41709203E+05</totfact>
</mgrwt>
</event>
<event>
 4    1  0.4029665E-002  0.4499604E+02  0.7818608E-02  0.1474366E+00
         -1   -1    0    0  501    0 -0.00000000000E+00  0.00000000000E+00  0.65026206241E+01  0.65026225773E+01  0.50400000000E-02 0.  1.
          1   -1    0    0    0  501  0.00000000000E+00 -0.00000000000E+00 -0.77839497283E+02  0.77839497446E+02  0.50400000000E-02 0.  1.
          2    1    1    2    0  502  0.47547408773E+01 -0.21257590800E+02 -0.46216704904E+02  0.51092822844E+02  0.25500000000E-02 0. -1.
         -2    1    1    2  502    0 -0.47547408773E+01  0.21257590800E+02 -0.25120171755E+02  0.33249297180E+02  0.25500000000E-02 0. -1.
<mgrwt>
<rscale>  0 0.44996036E+02</rscale>
<asrwt>0</asrwt>
<pdfrwt beam="2">  1        1 0.11975307E-01 0.44996036E+02</pdfrwt>
<pdfrwt beam="1">  1       -1 0.10004034E-02 0.44996036E+02</pdfrwt>
<totfact> 0.63781317E+05</totfact>
</mgrwt>
</event>
<event>
 4    1  0.4029665E-002  0.4816486E+02  0.7818608E-02  0.1455499E+00
          1   -1    0    0    0  501  0.00000000000E+00  0.00000000000E+00  0.22252035172E+03  0.22252035178E+03  0.50400000000E-02 0. -1.
         -1   -1    0    0  501    0 -0.00000000000E+00 -0.00000000000E+00 -0.26063360885E+01  0.26063409615E+01  0.50400000000E-02 0. -1.
          2    1    1    2    0  502 -0.10327197218E+02 -0.21194316754E+02  0.87004766916E+02  0.90142551204E+02  0.25500000000E-02 0. -1.
         -2    1    1    2  502    0  0.10327197218E+02  0.21194316754E+02  0.13290924872E+03  0.13498414153E+03  0.25500000000E-02 0. -1.
<mgrwt>
<rscale>  0 0.48164858E+02</rscale>
<asrwt>0</asrwt>
<pdfrwt beam="1">  1        1 0.34233898E-01 0.48164858E+02</pdfrwt>
<pdfrwt beam="2">  1       -1 0.40097519E-03 0.48164858E+02</pdfrwt>
<totfact> 0.62859910E+05</totfact>
</mgrwt>
</event>
<event>
 4    1  0.4029665E-002  0.5657065E+02  0.7818608E-02  0.1412814E+00
         -1   -1    0    0  501    0 -0.00000000000E+00  0.00000000000E+00  0.23699184259E+03  0.23699184264E+03  0.50400000000E-02 0. -1.
          1   -1    0    0    0  501  0.00000000000E+00 -0.00000000000E+00 -0.33758932553E+01  0.33758970175E+01  0.50400000000E-02 0. -1.
          2    1    1    2    0  502  0.16819879850E+02  0.21161839909E+02  0.15218641485E+03  0.15456855016E+03  0.25500000000E-02 0.  1.
         -2    1    1    2  502    0 -0.16819879850E+02 -0.21161839909E+02  0.81429534481E+02  0.85799189500E+02  0.25500000000E-02 0.  1.
<mgrwt>
<rscale>  0 0.56570650E+02</rscale>
<asrwt>0</asrwt>
<pdfrwt beam="2">  1        1 0.51936842E-03 0.56570650E+02</pdfrwt>
<pdfrwt beam="1">  1       -1 0.36460288E-01 0.56570650E+02</pdfrwt>
<totfact> 0.22399972E+05</totfact>
</mgrwt>
</event>
<event>
 4    1  0.4029665E-002  0.5829876E+02  0.7818608E-02  0.1405113E+00
          1   -1    0    0    0  501  0.00000000000E+00  0.00000000000E+00  0.14612587254E+04  0.14612587254E+04  0.50400000000E-02 0. -1.
         -1   -1    0    0  501    0 -0.00000000000E+00 -0.00000000000E+00 -0.58146464323E+00  0.58148648559E+00  0.50400000000E-02 0. -1.
          2    1    1    2    0  502 -0.22654742997E+01 -0.29061176824E+02  0.73142473241E+03  0.73200534394E+03  0.25500000000E-02 0.  1.
         -2    1    1    2  502    0  0.22654742997E+01  0.29061176824E+02  0.72925252833E+03  0.72983486794E+03  0.25500000000E-02 0.  1.
<mgrwt>
<rscale>  0 0.58298757E+02</rscale>
<asrwt>0</asrwt>
<pdfrwt beam="1">  1        1 0.22480523E+00 0.58298757E+02</pdfrwt>
<pdfrwt beam="2">  1       -1 0.89459293E-04 0.58298757E+02</pdfrwt>
<totfact> 0.35936110E+05</totfact>
</mgrwt>
</event>
<event>
 4    1  0.4029665E-002  0.4172781E+02  0.7818608E-02  0.1495868E+00
          1   -1    0    0    0  501  0.00000000000E+00  0.00000000000E+00  0.14274413639E+04  0.14274413640E+04  0.50400000000E-02 0.  1.
         -1   -1    0    0  501    0 -0.00000000000E+00 -0.00000000000E+00 -0.30493211168E+00  0.30497376007E+00  0.50400000000E-02 0.  1.
          2    1    1    2    0  502  0.15971938521E+02 -0.13284984280E+02  0.64767465137E+03  0.64800775278E+03  0.25500000000E-02 0.  1.
         -2    1    1    2  502    0 -0.15971938521E+02  0.13284984280E+02  0.77946178046E+03  0.77973858494E+03  0.25500000000E-02 0.  1.
<mgrwt>
<rscale>  0 0.41727806E+02</rscale>
<asrwt>0</asrwt>
<pdfrwt beam="1">  1        1 0.21961046E+00 0.41727806E+02</pdfrwt>
<pdfrwt beam="2">  1       -1 0.46914963E-04 0.41727806E+02</pdfrwt>
<totfact> 0.84017667E+05</totfact>
</mgrwt>
</event>
<event>
 4    1  0.4029665E-002  0.7119647E+02  0.7818608E-02  0.1356071E+00
          1   -1    0    0    0  501  0.00000000000E+00  0.00000000000E+00  0.25149124239E+04  0.25149124239E+04  0.50400000000E-02 0. -1.
         -1   -1    0    0  501    0 -0.00000000000E+00 -0.00000000000E+00 -0.50387543736E+00  0.50390064296E+00  0.50400000000E-02 0. -1.
          2    1    1    2    0  502 -0.33080943372E+02 -0.12444245779E+02  0.11071999123E+04  0.11077638980E+04  0.25500000000E-02 0.  1.
         -2    1    1    2  502    0  0.33080943372E+02  0.12444245779E+02  0.14072086362E+04  0.14076524265E+04  0.25500000000E-02 0.  1.
<mgrwt>
<rscale>  0 0.71196469E+02</rscale>
<asrwt>0</asrwt>
<pdfrwt beam="1">  1        1 0.38690848E+00 0.71196469E+02</pdfrwt>
<pdfrwt beam="2">  1       -1 0.77521464E-04 0.71196469E+02</pdfrwt>
<totfact> 0.99089115E+04</totfact>
</mgrwt>
</event>
<event>
 4    1  0.4029665E-002  0.5720624E+02  0.7818608E-02  0.1409944E+00
         -1   -1    0    0  501    0 -0.00000000000E+00  0.00000000000E+00  0.30924043593E+03  0.30924043598E+03  0.50400000000E-02 0. -1.
          1   -1    0    0    0  501  0.00000000000E+00 -0.00000000000E+00 -0.26456365174E+01  0.26456413181E+01  0.50400000000E-02 0. -1.
          2    1    1    2    0  502  0.17533306087E+02 -0.19419552204E+02  0.90280040980E+02  0.93994795792E+02  0.25500000000E-02 0. -1.
         -2    1    1    2  502    0 -0.17533306087E+02  0.19419552204E+02  0.21631475844E+03  0.21789128150E+03  0.25500000000E-02 0. -1.
<mgrwt>
<rscale>  0 0.57206242E+02</rscale>
<asrwt>0</asrwt>
<pdfrwt beam="2">  1        1 0.40702137E-03 0.57206242E+02</pdfrwt>
<pdfrwt beam="1">  1       -1 0.47575452E-01 0.57206242E+02</pdfrwt>
<totfact> 0.19805026E+05</totfact>
</mgrwt>
</event>
<event>
 4    1  0.4029665E-002  0.5734925E+02  0.7818608E-02  0.1409305E+00
         -1   -1    0    0  501    0 -0.00000000000E+00  0.00000000000E+00  0.32092926291E+03  0.32092926295E+03  0.50400000000E-02 0. -1.
          1   -1    0    0    0  501  0.00000000000E+00 -0.00000000000E+00 -0.25620391975E+01  0.25620441548E+01  0.50400000000E-02 0. -1.
          2    1    1    2    0  502  0.18686562304E+02 -0.20746102290E+02  0.19601964900E+03  0.19799821002E+03  0.25500000000E-02 0.  1.
         -2    1    1    2  502    0 -0.18686562304E+02  0.20746102290E+02  0.12234757471E+03  0.12549309708E+03  0.25500000000E-02 0.  1.
<mgrwt>
<rscale>  0 0.57349251E+02</rscale>
<asrwt>0</asrwt>
<pdfrwt beam="2">  1        1 0.39416041E-03 0.57349251E+02</pdfrwt>
<pdfrwt beam="1">  1       -1 0.49373714E-01 0.57349251E+02</pdfrwt>
<totfact> 0.19387216E+05</totfact>
</mgrwt>
</event>
<event>
 4    1  0.4029665E-002  0.4560368E+02  0.7818608E-02  0.1470608E+00
         -1   -1    0    0  501    0 -0.00000000000E+00  0.00000000000E+00  0.54944039360E+01  0.54944062476E+01  0.50400000000E-02 0. -1.
          1   -1    0    0    0  501  0.00000000000E+00 -0.00000000000E+00 -0.94627886741E+02  0.94627886875E+02  0.50400000000E-02 0. -1.
          2    1    1    2    0  502 -0.12065184889E+02  0.18546289245E+02 -0.32463569106E+02  0.39286344405E+02  0.25500000000E-02 0.  1.
         -2    1    1    2  502    0  0.12065184889E+02 -0.18546289245E+02 -0.56669913699E+02  0.60835948717E+02  0.25500000000E-02 0.  1.
<mgrwt>
<rscale>  0 0.45603682E+02</rscale>
<asrwt>0</asrwt>
<pdfrwt beam="2">  1        1 0.14558135E-01 0.45603682E+02</pdfrwt>
<pdfrwt beam="1">  1       -1 0.84529317E-03 0.45603682E+02</pdfrwt>
<totfact> 0.63157512E+05</totfact>
</mgrwt>
</event>
<event>
 4    1  0.4029665E-002  0.4398194E+02  0.7818608E-02  0.1480799E+00
         -1   -1    0    0  501    0 -0.00000000000E+00  0.00000000000E+00  0.52757827824E+00  0.52760235146E+00  0.50400000000E-02 0.  1.
          1   -1    0    0    0  501  0.00000000000E+00 -0.00000000000E+00 -0.91662559123E+03  0.91662559124E+03  0.50400000000E-02 0.  1.
          2    1    1    2    0  502 -0.42938789158E+01 -0.21550159629E+02 -0.47618045477E+03  0.47668718494E+03  0.25500000000E-02 0.  1.
         -2    1    1    2  502    0  0.42938789158E+01  0.21550159629E+02 -0.43991755818E+03  0.44046600865E+03  0.25500000000E-02 0.  1.
<mgrwt>
<rscale>  0 0.43981942E+02</rscale>
<asrwt>0</asrwt>
<pdfrwt beam="2">  1        1 0.14101805E+00 0.43981942E+02</pdfrwt>
<pdfrwt beam="1">  1       -1 0.81168475E-04 0.43981942E+02</pdfrwt>
<totfact> 0.88738577E+05</totfact>
</mgrwt>
</event>
<event>
 4    1  0.4029665E-002  0.5623365E+02  0.7818608E-02  0.1414353E+00
          1   -1    0    0    0  501  0.00000000000E+00  0.00000000000E+00  0.79445203369E+03  0.79445203370E+03  0.50400000000E-02 0. -1.
         -1   -1    0    0  501    0 -0.00000000000E+00 -0.00000000000E+00 -0.99508937012E+00  0.99510213351E+00  0.50400000000E-02 0. -1.
          2    1    1    2    0  502  0.22077834471E+02  0.11214595044E+02  0.20834605894E+03  0.20981248342E+03  0.25500000000E-02 0. -1.
         -2    1    1    2  502    0 -0.22077834471E+02 -0.11214595044E+02  0.58511088538E+03  0.58563465241E+03  0.25500000000E-02 0. -1.
<mgrwt>
<rscale>  0 0.56233650E+02</rscale>
<asrwt>0</asrwt>
<pdfrwt beam="1">  1        1 0.12222310E+00 0.56233650E+02</pdfrwt>
<pdfrwt beam="2">  1       -1 0.15309203E-03 0.56233650E+02</pdfrwt>
<totfact> 0.49190304E+05</totfact>
</mgrwt>
</event>
<event>
 4    1  0.4029665E-002  0.5042162E+02  0.7818608E-02  0.1443081E+00
         -1   -1    0    0  501    0 -0.00000000000E+00  0.00000000000E+00  0.15508310519E+01  0.15508392416E+01  0.50400000000E-02 0.  1.
          1   -1    0    0    0  501  0.00000000000E+00 -0.00000000000E+00 -0.40983401940E+03  0.40983401943E+03  0.50400000000E-02 0.  1.
          2    1    1    2    0  502  0.25177057557E+02 -0.11705412197E+01 -0.20883288136E+03  0.21034834617E+03  0.25500000000E-02 0. -1.
         -2    1    1    2  502    0 -0.25177057557E+02  0.11705412197E+01 -0.19945030699E+03  0.20103651250E+03  0.25500000000E-02 0. -1.
<mgrwt>
<rscale>  0 0.50421623E+02</rscale>
<asrwt>0</asrwt>
<pdfrwt beam="2">  1        1 0.63051302E-01 0.50421623E+02</pdfrwt>
<pdfrwt beam="1">  1       -1 0.23859035E-03 0.50421623E+02</pdfrwt>
<totfact> 0.62195965E+05</totfact>
</mgrwt>
</event>
<event>
 4    1  0.4029665E-002  0.7002395E+02  0.7818608E-02  0.1360012E+00
          1   -1    0    0    0  501  0.00000000000E+00  0.00000000000E+00  0.21225391994E+04  0.21225391994E+04  0.50400000000E-02 0.  1.
         -1   -1    0    0  501    0 -0.00000000000E+00 -0.00000000000E+00 -0.57752299584E+00  0.57754498727E+00  0.50400000000E-02 0.  1.
          2    1    1    2    0  502 -0.27845487196E+02 -0.85877665929E+00  0.41799246802E+03  0.41891981570E+03  0.25500000000E-02 0. -1.
         -2    1    1    2  502    0  0.27845487196E+02  0.85877665929E+00  0.17039692084E+04  0.17041969287E+04  0.25500000000E-02 0. -1.
<mgrwt>
<rscale>  0 0.70023954E+02</rscale>
<asrwt>0</asrwt>
<pdfrwt beam="1">  1        1 0.32654851E+00 0.70023954E+02</pdfrwt>
<pdfrwt beam="2">  1       -1 0.88850292E-04 0.70023954E+02</pdfrwt>
<totfact> 0.14507136E+05</totfact>
</mgrwt>
</event>
<event>
 4    1  0.4029665E-002  0.6471177E+02  0.7818608E-02  0.1379059E+00
          1   -1    0    0    0  501  0.00000000000E+00  0.00000000000E+00  0.10898105433E+02  0.10898106598E+02  0.50400000000E-02 0. -1.
         -1   -1    0    0  501    0 -0.00000000000E+00 -0.00000000000E+00 -0.96062878787E+02  0.96062878919E+02  0.50400000000E-02 0. -1.
          2    1    1    2    0  502 -0.29468308269E+02 -0.12776355579E+02 -0.49044924152E+02  0.58626112319E+02  0.25500000000E-02 0. -1.
         -2    1    1    2  502    0  0.29468308269E+02  0.12776355579E+02 -0.36119849203E+02  0.48334873198E+02  0.25500000000E-02 0. -1.
<mgrwt>
<rscale>  0 0.64711775E+02</rscale>
<asrwt>0</asrwt>
<pdfrwt beam="1">  1        1 0.16766318E-02 0.64711775E+02</pdfrwt>
<pdfrwt beam="2">  1       -1 0.14778904E-01 0.64711775E+02</pdfrwt>
<totfact> 0.19660681E+05</totfact>
</mgrwt>
</event>
<event>
 4    1  0.4029665E-002  0.4474391E+02  0.7818608E-02  0.1475947E+00
         -1   -1    0    0  501    0 -0.00000000000E+00  0.00000000000E+00  0.48443733371E+01  0.48443759588E+01  0.50400000000E-02 0. -1.
          1   -1    0    0    0  501  0.00000000000E+00 -0.00000000000E+00 -0.10331658753E+03  0.10331658765E+03  0.50400000000E-02 0. -1.
          2    1    1    2    0  502  0.11139949767E+01 -0.21707463774E+02 -0.36433522988E+02  0.42424716523E+02  0.25500000000E-02 0. -1.
         -2    1    1    2  502    0 -0.11139949767E+01  0.21707463774E+02 -0.62038691206E+02  0.65736247089E+02  0.25500000000E-02 0. -1.
<mgrwt>
<rscale>  0 0.44743906E+02</rscale>
<asrwt>0</asrwt>
<pdfrwt beam="2">  1        1 0.15894858E-01 0.44743906E+02</pdfrwt>
<pdfrwt beam="1">  1       -1 0.74528850E-03 0.44743906E+02</pdfrwt>
<totfact> 0.66987408E+05</totfact>
</mgrwt>
</event>
<event>
 4    1  0.4029665E-002  0.7149692E+02  0.7818608E-02  0.1355075E+00
          1   -1    0    0    0  501  0.00000000000E+00  0.00000000000E+00  0.14861623540E+04  0.14861623540E+04  0.50400000000E-02 0. -1.
         -1   -1    0    0  501    0 -0.00000000000E+00 -0.00000000000E+00 -0.85989344284E+00  0.85990821292E+00  0.50400000000E-02 0. -1.
          2    1    1    2    0  502 -0.98739961612E+00 -0.35513636522E+02  0.82521570412E+03  0.82598011578E+03  0.25500000000E-02 0. -1.
         -2    1    1    2  502    0  0.98739961612E+00  0.35513636522E+02  0.66008675645E+03  0.66104214646E+03  0.25500000000E-02 0. -1.
<mgrwt>
<rscale>  0 0.71496916E+02</rscale>
<asrwt>0</asrwt>
<pdfrwt beam="1">  1        1 0.22864025E+00 0.71496916E+02</pdfrwt>
<pdfrwt beam="2">  1       -1 0.13229250E-03 0.71496916E+02</pdfrwt>
<totfact> 0.21039190E+05</totfact>
</mgrwt>
</event>
<event>
 4    1  0.4029665E-002  0.4088774E+02  0.7818608E-02  0.1501778E+00
          1   -1    0    0    0  501  0.00000000000E+00  0.00000000000E+00  0.26705191945E+01  0.26705239505E+01  0.50400000000E-02 0. -1.
         -1   -1    0    0  501    0 -0.00000000000E+00 -0.00000000000E+00 -0.15650568658E+03  0.15650568666E+03  0.50400000000E-02 0. -1.
          2    1    1    2    0  502 -0.18284268512E+02 -0.88535456518E+01 -0.85839341427E+02  0.88210499878E+02  0.25500000000E-02 0.  1.
         -2    1    1    2  502    0  0.18284268512E+02  0.88535456518E+01 -0.67995825958E+02  0.70965710733E+02  0.25500000000E-02 0.  1.
<mgrwt>
<rscale>  0 0.40887740E+02</rscale>
<asrwt>0</asrwt>
<pdfrwt beam="1">  1        1 0.41084960E-03 0.40887740E+02</pdfrwt>
<pdfrwt beam="2">  1       -1 0.24077791E-01 0.40887740E+02</pdfrwt>
<totfact> 0.55840958E+05</totfact>
</mgrwt>
</event>
<event>
 4    1  0.4029665E-002  0.5490740E+02  0.7818608E-02  0.1420537E+00
         -1   -1    0    0  501    0 -0.00000000000E+00  0.00000000000E+00  0.43597724733E+01  0.43597753865E+01  0.50400000000E-02 0.  1.
          1   -1    0    0    0  501  0.00000000000E+00 -0.00000000000E+00 -0.17287725298E+03  0.17287725306E+03  0.50400000000E-02 0.  1.
          2    1    1    2    0  502 -0.15482962192E+02 -0.15364036643E+02 -0.30445236676E+02  0.37452478997E+02  0.25500000000E-02 0. -1.
         -2    1    1    2  502    0  0.15482962192E+02  0.15364036643E+02 -0.13807224383E+03  0.13978454945E+03  0.25500000000E-02 0. -1.
<mgrwt>
<rscale>  0 0.54907404E+02</rscale>
<asrwt>0</asrwt>
<pdfrwt beam="2">  1        1 0.26596495E-01 0.54907404E+02</pdfrwt>
<pdfrwt beam="1">  1       -1 0.67073459E-03 0.54907404E+02</pdfrwt>
<totfact> 0.43299271E+05</totfact>
</mgrwt>
</event>
<event>
 4    1  0.4029665E-002  0.5097791E+02  0.7818608E-02  0.1440137E+00
         -1   -1    0    0  501    0 -0.00000000000E+00  0.00000000000E+00  0.75739352982E+02  0.75739353150E+02  0.50400000000E-02 0.  1.
          1   -1    0    0    0  501  0.00000000000E+00 -0.00000000000E+00 -0.85779283001E+01  0.85779297807E+01  0.50400000000E-02 0.  1.
          2    1    1    2    0  502 -0.32015630401E+01  0.22557047835E+02  0.52483829253E+02  0.57215581379E+02  0.25500000000E-02 0.  1.
         -2    1    1    2  502    0  0.32015630401E+01 -0.22557047835E+02  0.14677595429E+02  0.27101701552E+02  0.25500000000E-02 0.  1.
<mgrwt>
<rscale>  0 0.50977909E+02</rscale>
<asrwt>0</asrwt>
<pdfrwt beam="2">  1        1 0.13196814E-02 0.50977909E+02</pdfrwt>
<pdfrwt beam="1">  1       -1 0.11652209E-01 0.50977909E+02</pdfrwt>
<totfact> 0.37011647E+05</totfact>
</mgrwt>
</event>
<event>
 4    1  0.4029665E-002  0.5357936E+02  0.7818608E-02  0.1426939E+00
         -1   -1    0    0  501    0 -0.00000000000E+00  0.00000000000E+00  0.11455205127E+01  0.11455316000E+01  0.50400000000E-02 0.  1.
          1   -1    0    0    0  501  0.00000000000E+00 -0.00000000000E+00 -0.62651304587E+03  0.62651304589E+03  0.50400000000E-02 0.  1.
          2    1    1    2    0  502 -0.34364530751E+01 -0.26450399178E+02 -0.34197999381E+03  0.34301858405E+03  0.25500000000E-02 0. -1.
         -2    1    1    2  502    0  0.34364530751E+01  0.26450399178E+02 -0.28338753154E+03  0.28463999344E+03  0.25500000000E-02 0. -1.
<mgrwt>
<rscale>  0 0.53579363E+02</rscale>
<asrwt>0</asrwt>
<pdfrwt beam="2">  1        1 0.96386350E-01 0.53579363E+02</pdfrwt>
<pdfrwt beam="1">  1       -1 0.17623528E-03 0.53579363E+02</pdfrwt>
<totfact> 0.55784467E+05</totfact>
</mgrwt>
</event>
<event>
 4    1  0.4029665E-002  0.4426996E+02  0.7818608E-02  0.1478951E+00
          1   -1    0    0    0  501  0.00000000000E+00  0.00000000000E+00  0.24844010716E+04  0.24844010716E+04  0.50400000000E-02 0.  1.
         -1   -1    0    0  501    0 -0.00000000000E+00 -0.00000000000E+00 -0.19718124783E+00  0.19724564912E+00  0.50400000000E-02 0.  1.
          2    1    1    2    0  502  0.21978632538E+02  0.11473138838E+01  0.11095179572E+04  0.11097362182E+04  0.25500000000E-02 0. -1.
         -2    1    1    2  502    0 -0.21978632538E+02 -0.11473138838E+01  0.13746859331E+04  0.13748620991E+04  0.25500000000E-02 0. -1.
<mgrwt>
<rscale>  0 0.44269959E+02</rscale>
<asrwt>0</asrwt>
<pdfrwt beam="1">  1        1 0.38222332E+00 0.44269959E+02</pdfrwt>
<pdfrwt beam="2">  1       -1 0.30339915E-04 0.44269959E+02</pdfrwt>
<totfact> 0.34306617E+05</totfact>
</mgrwt>
</event>
<event>
 4    1  0.4029665E-002  0.8465513E+02  0.7818608E-02  0.1316337E+00
         -1   -1    0    0  501    0 -0.00000000000E+00  0.00000000000E+00  0.34018476823E+01  0.34018514158E+01  0.50400000000E-02 0.  1.
          1   -1    0    0    0  501  0.00000000000E+00 -0.00000000000E+00 -0.52666138169E+03  0.52666138171E+03  0.50400000000E-02 0.  1.
          2    1    1    2    0  502  0.40049026575E+02  0.11968907603E+02 -0.30337227868E+03  0.30623833653E+03  0.25500000000E-02 0. -1.
         -2    1    1    2  502    0 -0.40049026575E+02 -0.11968907603E+02 -0.21988725532E+03  0.22382489660E+03  0.25500000000E-02 0. -1.
<mgrwt>
<rscale>  0 0.84655131E+02</rscale>
<asrwt>0</asrwt>
<pdfrwt beam="2">  1        1 0.81024764E-01 0.84655131E+02</pdfrwt>
<pdfrwt beam="1">  1       -1 0.52336189E-03 0.84655131E+02</pdfrwt>
<totfact> 0.17036895E+05</totfact>
</mgrwt>
</event>
<event>
 4    1  0.4029665E-002  0.4390509E+02  0.7818608E-02  0.1481295E+00
         -1   -1    0    0  501    0 -0.00000000000E+00  0.00000000000E+00  0.61567768343E+02  0.61567768549E+02  0.50400000000E-02 0.  1.
          1   -1    0    0    0  501  0.00000000000E+00 -0.00000000000E+00 -0.78273779527E+01  0.78273795753E+01  0.50400000000E-02 0.  1.
          2    1    1    2    0  502  0.43715385790E+01 -0.21413517382E+02  0.23605951569E+02  0.32169706747E+02  0.25500000000E-02 0. -1.
         -2    1    1    2  502    0 -0.43715385790E+01  0.21413517382E+02  0.30134438822E+02  0.37225441378E+02  0.25500000000E-02 0. -1.
<mgrwt>
<rscale>  0 0.43905091E+02</rscale>
<asrwt>0</asrwt>
<pdfrwt beam="2">  1        1 0.12042121E-02 0.43905091E+02</pdfrwt>
<pdfrwt beam="1">  1       -1 0.94719646E-02 0.43905091E+02</pdfrwt>
<totfact> 0.54848072E+05</totfact>
</mgrwt>
</event>
<event>
 4    1  0.4029665E-002  0.8542802E+02  0.7818608E-02  0.1314317E+00
          1   -1    0    0    0  501  0.00000000000E+00  0.00000000000E+00  0.19543706236E+02  0.19543706885E+02  0.50400000000E-02 0. -1.
         -1   -1    0    0  501    0 -0.00000000000E+00 -0.00000000000E+00 -0.93354168007E+02  0.93354168143E+02  0.50400000000E-02 0. -1.
          2    1    1    2    0  502 -0.31760080437E+02 -0.11683096854E+02 -0.71349164385E+02  0.78967719521E+02  0.25500000000E-02 0. -1.
         -2    1    1    2  502    0  0.31760080437E+02  0.11683096854E+02 -0.24612973870E+01  0.33930155508E+02  0.25500000000E-02 0. -1.
<mgrwt>
<rscale>  0 0.85428016E+02</rscale>
<asrwt>0</asrwt>
<pdfrwt beam="1">  1        1 0.30067242E-02 0.85428016E+02</pdfrwt>
<pdfrwt beam="2">  1       -1 0.14362179E-01 0.85428016E+02</pdfrwt>
<totfact> 0.97389740E+04</totfact>
</mgrwt>
</event>
<event>
 4    1  0.4029665E-002  0.4194046E+02  0.7818608E-02  0.1494399E+00
          1   -1    0    0    0  501  0.00000000000E+00  0.00000000000E+00  0.17376739578E+02  0.17376740309E+02  0.50400000000E-02 0. -1.
         -1   -1    0    0  501    0 -0.00000000000E+00 -0.00000000000E+00 -0.25306852449E+02  0.25306852951E+02  0.50400000000E-02 0. -1.
          2    1    1    2    0  502 -0.17531262771E+02  0.11384694927E+02 -0.22638668294E+01  0.21025735480E+02  0.25500000000E-02 0. -1.
         -2    1    1    2  502    0  0.17531262771E+02 -0.11384694927E+02 -0.56662460421E+01  0.21657857781E+02  0.25500000000E-02 0. -1.
<mgrwt>
<rscale>  0 0.41940463E+02</rscale>
<asrwt>0</asrwt>
<pdfrwt beam="1">  1        1 0.26733446E-02 0.41940463E+02</pdfrwt>
<pdfrwt beam="2">  1       -1 0.38933620E-02 0.41940463E+02</pdfrwt>
<totfact> 0.66744966E+05</totfact>
</mgrwt>
</event>
<event>
 4    1  0.4029665E-002  0.6690809E+02  0.7818608E-02  0.1370934E+00
         -1   -1    0    0  501    0 -0.00000000000E+00  0.00000000000E+00  0.19673993227E+01  0.19674057783E+01  0.50400000000E-02 0. -1.
          1   -1    0    0    0  501  0.00000000000E+00 -0.00000000000E+00 -0.56885825413E+03  0.56885825416E+03  0.50400000000E-02 0. -1.
          2    1    1    2    0  502  0.44441234346E+01  0.32902557787E+02 -0.31846055907E+03  0.32018659596E+03  0.25500000000E-02 0.  1.
         -2    1    1    2  502    0 -0.44441234346E+01 -0.32902557787E+02 -0.24843029574E+03  0.25063906398E+03  0.25500000000E-02 0.  1.
<mgrwt>
<rscale>  0 0.66908092E+02</rscale>
<asrwt>0</asrwt>
<pdfrwt beam="2">  1        1 0.87516524E-01 0.66908092E+02</pdfrwt>
<pdfrwt beam="1">  1       -1 0.30267777E-03 0.66908092E+02</pdfrwt>
<totfact> 0.31604923E+05</totfact>
</mgrwt>
</event>
<event>
 4    1  0.4029665E-002  0.4184739E+02  0.7818608E-02  0.1495041E+00
         -1   -1    0    0  501    0 -0.00000000000E+00  0.00000000000E+00  0.13128282518E+01  0.13128379262E+01  0.50400000000E-02 0.  1.
          1   -1    0    0    0  501  0.00000000000E+00 -0.00000000000E+00 -0.33347803609E+03  0.33347803613E+03  0.50400000000E-02 0.  1.
          2    1    1    2    0  502  0.18560245816E+02 -0.90635817221E+01 -0.19282050504E+03  0.19392364066E+03  0.25500000000E-02 0. -1.
         -2    1    1    2  502    0 -0.18560245816E+02  0.90635817221E+01 -0.13934470281E+03  0.14086723340E+03  0.25500000000E-02 0. -1.
<mgrwt>
<rscale>  0 0.41847390E+02</rscale>
<asrwt>0</asrwt>
<pdfrwt beam="2">  1        1 0.51304247E-01 0.41847390E+02</pdfrwt>
<pdfrwt beam="1">  1       -1 0.20197459E-03 0.41847390E+02</pdfrwt>
<totfact> 0.95303156E+05</totfact>
</mgrwt>
</event>
<event>
 4    1  0.4029665E-002  0.7260187E+02  0.7818608E-02  0.1351462E+00
          1   -1    0    0    0  501  0.00000000000E+00  0.00000000000E+00  0.90664686003E+02  0.90664686143E+02  0.50400000000E-02 0.  1.
         -1   -1    0    0  501    0 -0.00000000000E+00 -0.00000000000E+00 -0.14534412318E+02  0.14534413192E+02  0.50400000000E-02 0.  1.
          2    1    1    2    0  502  0.31501718921E+02 -0.96748061541E+01  0.60125815029E+02  0.68564377111E+02  0.25500000000E-02 0. -1.
         -2    1    1    2  502    0 -0.31501718921E+02  0.96748061541E+01  0.16004458656E+02  0.36634722225E+02  0.25500000000E-02 0. -1.
<mgrwt>
<rscale>  0 0.72601873E+02</rscale>
<asrwt>0</asrwt>
<pdfrwt beam="1">  1        1 0.13948413E-01 0.72601873E+02</pdfrwt>
<pdfrwt beam="2">  1       -1 0.22360635E-02 0.72601873E+02</pdfrwt>
<totfact> 0.18978201E+05</totfact>
</mgrwt>
</event>
<event>
 4    1  0.4029665E-002  0.4441031E+02  0.7818608E-02  0.1478057E+00
          1   -1    0    0    0  501  0.00000000000E+00  0.00000000000E+00  0.36070647224E+02  0.36070647576E+02  0.50400000000E-02 0.  1.
         -1   -1    0    0  501    0 -0.00000000000E+00 -0.00000000000E+00 -0.13669533446E+02  0.13669534376E+02  0.50400000000E-02 0.  1.
          2    1    1    2    0  502 -0.15630017666E+02  0.15261387068E+02  0.15661189430E+02  0.26878992696E+02  0.25500000000E-02 0.  1.
         -2    1    1    2  502    0  0.15630017666E+02 -0.15261387068E+02  0.67399243471E+01  0.22861189256E+02  0.25500000000E-02 0.  1.
<mgrwt>
<rscale>  0 0.44410312E+02</rscale>
<asrwt>0</asrwt>
<pdfrwt beam="1">  1        1 0.55493305E-02 0.44410312E+02</pdfrwt>
<pdfrwt beam="2">  1       -1 0.21030052E-02 0.44410312E+02</pdfrwt>
<totfact> 0.61168266E+05</totfact>
</mgrwt>
</event>
<event>
 4    1  0.4029665E-002  0.5941862E+02  0.7818608E-02  0.1400288E+00
          1   -1    0    0    0  501  0.00000000000E+00  0.00000000000E+00  0.31422213945E+03  0.31422213949E+03  0.50400000000E-02 0. -1.
         -1   -1    0    0  501    0 -0.00000000000E+00 -0.00000000000E+00 -0.28089753431E+01  0.28089798646E+01  0.50400000000E-02 0. -1.
          2    1    1    2    0  502 -0.25588464859E+02 -0.14778444328E+02  0.13928641889E+03  0.14238637029E+03  0.25500000000E-02 0.  1.
         -2    1    1    2  502    0  0.25588464859E+02  0.14778444328E+02  0.17212674522E+03  0.17464474906E+03  0.25500000000E-02 0.  1.
<mgrwt>
<rscale>  0 0.59418615E+02</rscale>
<asrwt>0</asrwt>
<pdfrwt beam="1">  1        1 0.48341887E-01 0.59418615E+02</pdfrwt>
<pdfrwt beam="2">  1       -1 0.43215023E-03 0.59418615E+02</pdfrwt>
<totfact> 0.39399625E+05</totfact>
</mgrwt>
</event>
<event>
 4    1  0.4029665E-002  0.5162739E+02  0.7818608E-02  0.1436756E+00
          1   -1    0    0    0  501  0.00000000000E+00  0.00000000000E+00  0.21540945951E+03  0.21540945957E+03  0.50400000000E-02 0.  1.
         -1   -1    0    0  501    0 -0.00000000000E+00 -0.00000000000E+00 -0.30933938287E+01  0.30933979345E+01  0.50400000000E-02 0.  1.
          2    1    1    2    0  502 -0.24547618057E+02  0.13997875625E+01  0.72886141510E+02  0.76921613271E+02  0.25500000000E-02 0. -1.
         -2    1    1    2  502    0  0.24547618057E+02 -0.13997875625E+01  0.13942992417E+03  0.14158124423E+03  0.25500000000E-02 0. -1.
<mgrwt>
<rscale>  0 0.51627386E+02</rscale>
<asrwt>0</asrwt>
<pdfrwt beam="1">  1        1 0.33139913E-01 0.51627386E+02</pdfrwt>
<pdfrwt beam="2">  1       -1 0.47590712E-03 0.51627386E+02</pdfrwt>
<totfact> 0.52546252E+05</totfact>
</mgrwt>
</event>
<event>
 4    1  0.4029665E-002  0.4285519E+02  0.7818608E-02  0.1488193E+00
         -1   -1    0    0  501    0 -0.00000000000E+00  0.00000000000E+00  0.65952271230E+03  0.65952271232E+03  0.50400000000E-02 0. -1.
          1   -1    0    0    0  501  0.00000000000E+00 -0.00000000000E+00 -0.69616384745E+00  0.69618209119E+00  0.50400000000E-02 0. -1.
          2    1    1    2    0  502 -0.14472163402E+02 -0.14907726992E+02  0.41014037671E+03  0.41066630304E+03  0.25500000000E-02 0.  1.
         -2    1    1    2  502    0  0.14472163402E+02  0.14907726992E+02  0.24868617175E+03  0.24955259138E+03  0.25500000000E-02 0.  1.
<mgrwt>
<rscale>  0 0.42855193E+02</rscale>
<asrwt>0</asrwt>
<pdfrwt beam="2">  1        1 0.10710288E-03 0.42855193E+02</pdfrwt>
<pdfrwt beam="1">  1       -1 0.10146565E+00 0.42855193E+02</pdfrwt>
<totfact> 0.26218999E+05</totfact>
</mgrwt>
</event>
<event>
 4    1  0.4029665E-002  0.5943467E+02  0.7818608E-02  0.1400220E+00
         -1   -1    0    0  501    0 -0.00000000000E+00  0.00000000000E+00  0.78103678511E+00  0.78105304640E+00  0.50400000000E-02 0.  1.
          1   -1    0    0    0  501  0.00000000000E+00 -0.00000000000E+00 -0.11306903624E+04  0.11306903624E+04  0.50400000000E-02 0.  1.
          2    1    1    2    0  502  0.22213211796E+02 -0.14515480534E+02 -0.81965116968E+03  0.82008058501E+03  0.25500000000E-02 0. -1.
         -2    1    1    2  502    0 -0.22213211796E+02  0.14515480534E+02 -0.31025815593E+03  0.31139083044E+03  0.25500000000E-02 0. -1.
<mgrwt>
<rscale>  0 0.59434669E+02</rscale>
<asrwt>0</asrwt>
<pdfrwt beam="2">  1        1 0.17395106E+00 0.59434669E+02</pdfrwt>
<pdfrwt beam="1">  1       -1 0.12016166E-03 0.59434669E+02</pdfrwt>
<totfact> 0.39541390E+05</totfact>
</mgrwt>
</event>
<event>
 4    1  0.4029665E-002  0.6842116E+02  0.7818608E-02  0.1365546E+00
          1   -1    0    0    0  501  0.00000000000E+00  0.00000000000E+00  0.17439926307E+03  0.17439926314E+03  0.50400000000E-02 0. -1.
         -1   -1    0    0  501    0 -0.00000000000E+00 -0.00000000000E+00 -0.67108293251E+01  0.67108312176E+01  0.50400000000E-02 0. -1.
          2    1    1    2    0  502  0.58108703366E+01  0.25627259637E+02  0.25861177008E+02  0.36868999624E+02  0.25500000000E-02 0. -1.
         -2    1    1    2  502    0 -0.58108703366E+01 -0.25627259637E+02  0.14182725673E+03  0.14424109473E+03  0.25500000000E-02 0. -1.
<mgrwt>
<rscale>  0 0.68421162E+02</rscale>
<asrwt>0</asrwt>
<pdfrwt beam="1">  1        1 0.26830654E-01 0.68421162E+02</pdfrwt>
<pdfrwt beam="2">  1       -1 0.10324355E-02 0.68421162E+02</pdfrwt>
<totfact> 0.24642109E+05</totfact>
</mgrwt>
</event>
<event>
 4    1  0.4029665E-002  0.5332890E+02  0.7818608E-02  0.1428171E+00
         -1   -1    0    0  501    0 -0.00000000000E+00  0.00000000000E+00  0.20549624603E+02  0.20549625221E+02  0.50400000000E-02 0. -1.
          1   -1    0    0    0  501  0.00000000000E+00 -0.00000000000E+00 -0.34598826862E+02  0.34598827229E+02  0.50400000000E-02 0. -1.
          2    1    1    2    0  502 -0.22211223169E+02 -0.85183716889E+01  0.54317883000E+01  0.24400930752E+02  0.25500000000E-02 0. -1.
         -2    1    1    2  502    0  0.22211223169E+02  0.85183716889E+01 -0.19480990559E+02  0.30747521698E+02  0.25500000000E-02 0. -1.
<mgrwt>
<rscale>  0 0.53328901E+02</rscale>
<asrwt>0</asrwt>
<pdfrwt beam="2">  1        1 0.53228965E-02 0.53328901E+02</pdfrwt>
<pdfrwt beam="1">  1       -1 0.31614808E-02 0.53328901E+02</pdfrwt>
<totfact> 0.38111316E+05</totfact>
</mgrwt>
</event>
<event>
 4    1  0.4029665E-002  0.5090904E+02  0.7818608E-02  0.1440499E+00
          1   -1    0    0    0  501  0.00000000000E+00  0.00000000000E+00  0.15341143266E+04  0.15341143266E+04  0.50400000000E-02 0.  1.
         -1   -1    0    0  501    0 -0.00000000000E+00 -0.00000000000E+00 -0.42233452068E+00  0.42236459245E+00  0.50400000000E-02 0.  1.
          2    1    1    2    0  502  0.14403191431E+02  0.16523025635E+02  0.11569237456E+04  0.11571313734E+04  0.25500000000E-02 0. -1.
         -2    1    1    2  502    0 -0.14403191431E+02 -0.16523025635E+02  0.37676824655E+03  0.37740531782E+03  0.25500000000E-02 0. -1.
<mgrwt>
<rscale>  0 0.50909037E+02</rscale>
<asrwt>0</asrwt>
<pdfrwt beam="1">  1        1 0.23602069E+00 0.50909037E+02</pdfrwt>
<pdfrwt beam="2">  1       -1 0.64976003E-04 0.50909037E+02</pdfrwt>
<totfact> 0.48598961E+05</totfact>
</mgrwt>
</event>
<event>
 4    1  0.4029665E-002  0.4537342E+02  0.7818608E-02  0.1472024E+00
          1   -1    0    0    0  501  0.00000000000E+00  0.00000000000E+00  0.17922248210E+03  0.17922248217E+03  0.50400000000E-02 0.  1.
         -1   -1    0    0  501    0 -0.00000000000E+00 -0.00000000000E+00 -0.28717736026E+01  0.28717780253E+01  0.50400000000E-02 0.  1.
          2    1    1    2    0  502  0.21545105750E+01  0.22404961946E+02  0.99570797610E+02  0.10208314248E+03  0.25500000000E-02 0.  1.
         -2    1    1    2  502    0 -0.21545105750E+01 -0.22404961946E+02  0.76779910888E+02  0.80011117715E+02  0.25500000000E-02 0.  1.
<mgrwt>
<rscale>  0 0.45373420E+02</rscale>
<asrwt>0</asrwt>
<pdfrwt beam="1">  1        1 0.27572698E-01 0.45373420E+02</pdfrwt>
<pdfrwt beam="2">  1       -1 0.44181154E-03 0.45373420E+02</pdfrwt>
<totfact> 0.70261926E+05</totfact>
</mgrwt>
</event>
<event>
 4    1  0.4029665E-002  0.6555178E+02  0.7818608E-02  0.1375908E+00
          1   -1    0    0    0  501  0.00000000000E+00  0.00000000000E+00  0.14108515166E+03  0.14108515175E+03  0.50400000000E-02 0. -1.
         -1   -1    0    0  501    0 -0.00000000000E+00 -0.00000000000E+00 -0.76142591099E+01  0.76142607780E+01  0.50400000000E-02 0. -1.
          2    1    1    2    0  502  0.31682855394E+02  0.83932017740E+01  0.66960736114E+02  0.74551923847E+02  0.25500000000E-02 0. -1.
         -2    1    1    2  502    0 -0.31682855394E+02 -0.83932017740E+01  0.66510156434E+02  0.74147488678E+02  0.25500000000E-02 0. -1.
<mgrwt>
<rscale>  0 0.65551782E+02</rscale>
<asrwt>0</asrwt>
<pdfrwt beam="1">  1        1 0.21705408E-01 0.65551782E+02</pdfrwt>
<pdfrwt beam="2">  1       -1 0.11714246E-02 0.65551782E+02</pdfrwt>
<totfact> 0.26566582E+05</totfact>
</mgrwt>
</event>
<event>
 4    1  0.4029665E-002  0.6627188E+02  0.7818608E-02  0.1373250E+00
         -1   -1    0    0  501    0 -0.00000000000E+00  0.00000000000E+00  0.26850407744E+03  0.26850407749E+03  0.50400000000E-02 0. -1.
          1   -1    0    0    0  501  0.00000000000E+00 -0.00000000000E+00 -0.40892864454E+01  0.40892895512E+01  0.50400000000E-02 0. -1.
          2    1    1    2    0  502 -0.30382240818E+02  0.12219415249E+02  0.15301732938E+03  0.15648226022E+03  0.25500000000E-02 0.  1.
         -2    1    1    2  502    0  0.30382240818E+02 -0.12219415249E+02  0.11139746162E+03  0.11611110682E+03  0.25500000000E-02 0.  1.
<mgrwt>
<rscale>  0 0.66271880E+02</rscale>
<asrwt>0</asrwt>
<pdfrwt beam="2">  1        1 0.62912121E-03 0.66271880E+02</pdfrwt>
<pdfrwt beam="1">  1       -1 0.41308321E-01 0.66271880E+02</pdfrwt>
<totfact> 0.14393975E+05</totfact>
</mgrwt>
</event>
<event>
 4    1  0.4029665E-002  0.5871689E+02  0.7818608E-02  0.1403297E+00
          1   -1    0    0    0  501  0.00000000000E+00  0.00000000000E+00  0.21141746988E+02  0.21141747589E+02  0.50400000000E-02 0. -1.
         -1   -1    0    0  501    0 -0.00000000000E+00 -0.00000000000E+00 -0.40768543557E+02  0.40768543869E+02  0.50400000000E-02 0. -1.
          2    1    1    2    0  502 -0.21202561388E+02 -0.16004130504E+02 -0.22992699555E+02  0.35133246960E+02  0.25500000000E-02 0. -1.
         -2    1    1    2  502    0  0.21202561388E+02  0.16004130504E+02  0.33659029862E+01  0.26777044498E+02  0.25500000000E-02 0. -1.
<mgrwt>
<rscale>  0 0.58716889E+02</rscale>
<asrwt>0</asrwt>
<pdfrwt beam="1">  1        1 0.32525765E-02 0.58716889E+02</pdfrwt>
<pdfrwt beam="2">  1       -1 0.62720837E-02 0.58716889E+02</pdfrwt>
<totfact> 0.28114715E+05</totfact>
</mgrwt>
</event>
<event>
 4    1  0.4029665E-002  0.7076474E+02  0.7818608E-02  0.1357512E+00
         -1   -1    0    0  501    0 -0.00000000000E+00  0.00000000000E+00  0.22658572960E+01  0.22658629012E+01  0.50400000000E-02 0. -1.
          1   -1    0    0    0  501  0.00000000000E+00 -0.00000000000E+00 -0.55251068945E+03  0.55251068948E+03  0.50400000000E-02 0. -1.
          2    1    1    2    0  502  0.27109664942E+02 -0.20387427957E+02 -0.35403965880E+03  0.35566087944E+03  0.25500000000E-02 0.  1.
         -2    1    1    2  502    0 -0.27109664942E+02  0.20387427957E+02 -0.19620517335E+03  0.19911567294E+03  0.25500000000E-02 0.  1.
<mgrwt>
<rscale>  0 0.70764735E+02</rscale>
<asrwt>0</asrwt>
<pdfrwt beam="2">  1        1 0.85001537E-01 0.70764735E+02</pdfrwt>
<pdfrwt beam="1">  1       -1 0.34859430E-03 0.70764735E+02</pdfrwt>
<totfact> 0.27297428E+05</totfact>
</mgrwt>
</event>
<event>
 4    1  0.4029665E-002  0.9854612E+03  0.7818608E-02  0.9324636E-01
          1   -1    0    0    0  501  0.00000000000E+00  0.00000000000E+00  0.27914312930E+03  0.27914312934E+03  0.50400000000E-02 0.  1.
         -1   -1    0    0  501    0 -0.00000000000E+00 -0.00000000000E+00 -0.86974542960E+03  0.86974542961E+03  0.50400000000E-02 0.  1.
          2    1    1    2    0  502  0.14369650512E+03  0.44121690404E+03 -0.10210086906E+03  0.47512696141E+03  0.25500000000E-02 0. -1.
         -2    1    1    2  502    0 -0.14369650512E+03 -0.44121690404E+03 -0.48850143124E+03  0.67376159755E+03  0.25500000000E-02 0. -1.
<mgrwt>
<rscale>  0 0.98546123E+03</rscale>
<asrwt>0</asrwt>
<pdfrwt beam="1">  1        1 0.42945097E-01 0.98546123E+03</pdfrwt>
<pdfrwt beam="2">  1       -1 0.13380699E+00 0.98546123E+03</pdfrwt>
<totfact> 0.45562898E+01</totfact>
</mgrwt>
</event>
<event>
 4    1  0.4029665E-002  0.1465388E+03  0.7818608E-02  0.1204792E+00
         -1   -1    0    0  501    0 -0.00000000000E+00  0.00000000000E+00  0.18017384890E+03  0.18017384897E+03  0.50400000000E-02 0. -1.
          1   -1    0    0    0  501  0.00000000000E+00 -0.00000000000E+00 -0.29795686318E+02  0.29795686745E+02  0.50400000000E-02 0. -1.
          2    1    1    2    0  502  0.19235676194E+02 -0.70315347584E+02  0.85732455685E+02  0.11253583122E+03  0.25500000000E-02 0.  1.
         -2    1    1    2  502    0 -0.19235676194E+02  0.70315347584E+02  0.64645706896E+02  0.97433704492E+02  0.25500000000E-02 0.  1.
<mgrwt>
<rscale>  0 0.14653878E+03</rscale>
<asrwt>0</asrwt>
<pdfrwt beam="2">  1        1 0.45839519E-02 0.14653878E+03</pdfrwt>
<pdfrwt beam="1">  1       -1 0.27719053E-01 0.14653878E+03</pdfrwt>
<totfact> 0.20523693E+04</totfact>
</mgrwt>
</event>
<event>
 4    1  0.4029665E-002  0.6764143E+02  0.7818608E-02  0.1368302E+00
         -1   -1    0    0  501    0 -0.00000000000E+00  0.00000000000E+00  0.13645561726E+03  0.13645561735E+03  0.50400000000E-02 0. -1.
          1   -1    0    0    0  501  0.00000000000E+00 -0.00000000000E+00 -0.83825109292E+01  0.83825124444E+01  0.50400000000E-02 0. -1.
          2    1    1    2    0  502  0.76820302068E+01 -0.28740175649E+02  0.98485585560E+02  0.10288061943E+03  0.25500000000E-02 0.  1.
         -2    1    1    2  502    0 -0.76820302068E+01  0.28740175649E+02  0.29587520767E+02  0.41957510366E+02  0.25500000000E-02 0.  1.
<mgrwt>
<rscale>  0 0.67641432E+02</rscale>
<asrwt>0</asrwt>
<pdfrwt beam="2">  1        1 0.12896172E-02 0.67641432E+02</pdfrwt>
<pdfrwt beam="1">  1       -1 0.20993172E-01 0.67641432E+02</pdfrwt>
<totfact> 0.16451990E+05</totfact>
</mgrwt>
</event>
<event>
 4    1  0.4029665E-002  0.5931374E+02  0.7818608E-02  0.1400734E+00
         -1   -1    0    0  501    0 -0.00000000000E+00  0.00000000000E+00  0.23222943034E+01  0.23222997725E+01  0.50400000000E-02 0. -1.
          1   -1    0    0    0  501  0.00000000000E+00 -0.00000000000E+00 -0.37873273698E+03  0.37873273702E+03  0.50400000000E-02 0. -1.
          2    1    1    2    0  502 -0.23214928362E+02  0.93253610253E+01 -0.85890835195E+02  0.89460219283E+02  0.25500000000E-02 0. -1.
         -2    1    1    2  502    0  0.23214928362E+02 -0.93253610253E+01 -0.29051960748E+03  0.29159481750E+03  0.25500000000E-02 0. -1.
<mgrwt>
<rscale>  0 0.59313740E+02</rscale>
<asrwt>0</asrwt>
<pdfrwt beam="2">  1        1 0.58266526E-01 0.59313740E+02</pdfrwt>
<pdfrwt beam="1">  1       -1 0.35727677E-03 0.59313740E+02</pdfrwt>
<totfact> 0.40843355E+05</totfact>
</mgrwt>
</event>
<event>
 4    1  0.4029665E-002  0.4299297E+02  0.7818608E-02  0.1487275E+00
         -1   -1    0    0  501    0 -0.00000000000E+00  0.00000000000E+00  0.85901414771E+02  0.85901414918E+02  0.50400000000E-02 0.  1.
          1   -1    0    0    0  501  0.00000000000E+00 -0.00000000000E+00 -0.53794089036E+01  0.53794112646E+01  0.50400000000E-02 0.  1.
          2    1    1    2    0  502  0.18904807108E+02  0.81193509805E+01  0.27038771856E+02  0.33976621111E+02  0.25500000000E-02 0. -1.
         -2    1    1    2  502    0 -0.18904807108E+02 -0.81193509805E+01  0.53483234011E+02  0.57304205072E+02  0.25500000000E-02 0. -1.
<mgrwt>
<rscale>  0 0.42992974E+02</rscale>
<asrwt>0</asrwt>
<pdfrwt beam="2">  1        1 0.82760161E-03 0.42992974E+02</pdfrwt>
<pdfrwt beam="1">  1       -1 0.13215602E-01 0.42992974E+02</pdfrwt>
<totfact> 0.55219497E+05</totfact>
</mgrwt>
</event>
<event>
 4    1  0.4029665E-002  0.4559686E+02  0.7818608E-02  0.1470650E+00
         -1   -1    0    0  501    0 -0.00000000000E+00  0.00000000000E+00  0.40716030066E+00  0.40719149308E+00  0.50400000000E-02 0. -1.
          1   -1    0    0    0  501  0.00000000000E+00 -0.00000000000E+00 -0.12765207272E+04  0.12765207272E+04  0.50400000000E-02 0. -1.
          2    1    1    2    0  502  0.20250897096E+02 -0.58414716839E+01 -0.88146745003E+03  0.88171939249E+03  0.25500000000E-02 0.  1.
         -2    1    1    2  502    0 -0.20250897096E+02  0.58414716839E+01 -0.39464611686E+03  0.39520852620E+03  0.25500000000E-02 0.  1.
<mgrwt>
<rscale>  0 0.45596863E+02</rscale>
<asrwt>0</asrwt>
<pdfrwt beam="2">  1        1 0.19638460E+00 0.45596863E+02</pdfrwt>
<pdfrwt beam="1">  1       -1 0.62643468E-04 0.45596863E+02</pdfrwt>
<totfact> 0.72438986E+05</totfact>
</mgrwt>
</event>
<event>
 4    1  0.4029665E-002  0.1061016E+03  0.7818608E-02  0.1267964E+00
         -1   -1    0    0  501    0 -0.00000000000E+00  0.00000000000E+00  0.35415943125E+02  0.35415943484E+02  0.50400000000E-02 0. -1.
          1   -1    0    0    0  501  0.00000000000E+00 -0.00000000000E+00 -0.79466622724E+02  0.79466622883E+02  0.50400000000E-02 0. -1.
          2    1    1    2    0  502 -0.17640157881E+02  0.25007298050E+02  0.24895119129E+02  0.39450058160E+02  0.25500000000E-02 0.  1.
         -2    1    1    2  502    0  0.17640157881E+02 -0.25007298050E+02 -0.68945798727E+02  0.75432508208E+02  0.25500000000E-02 0.  1.
<mgrwt>
<rscale>  0 0.10610156E+03</rscale>
<asrwt>0</asrwt>
<pdfrwt beam="2">  1        1 0.12225634E-01 0.10610156E+03</pdfrwt>
<pdfrwt beam="1">  1       -1 0.54486067E-02 0.10610156E+03</pdfrwt>
<totfact> 0.66062853E+04</totfact>
</mgrwt>
</event>
<event>
 4    1  0.4029665E-002  0.7456337E+02  0.7818608E-02  0.1345228E+00
         -1   -1    0    0  501    0 -0.00000000000E+00  0.00000000000E+00  0.24694769917E+03  0.24694769922E+03  0.50400000000E-02 0.  1.
          1   -1    0    0    0  501  0.00000000000E+00 -0.00000000000E+00 -0.56284138518E+01  0.56284161083E+01  0.50400000000E-02 0.  1.
          2    1    1    2    0  502  0.13349683024E+02  0.34546848580E+02  0.10619843054E+03  0.11247135387E+03  0.25500000000E-02 0. -1.
         -2    1    1    2  502    0 -0.13349683024E+02 -0.34546848580E+02  0.13512085477E+03  0.14010476146E+03  0.25500000000E-02 0. -1.
<mgrwt>
<rscale>  0 0.74563373E+02</rscale>
<asrwt>0</asrwt>
<pdfrwt beam="2">  1        1 0.86590999E-03 0.74563373E+02</pdfrwt>
<pdfrwt beam="1">  1       -1 0.37991954E-01 0.74563373E+02</pdfrwt>
<totfact> 0.10954570E+05</totfact>
</mgrwt>
</event>
<event>
 4    1  0.4029665E-002  0.4156987E+02  0.7818608E-02  0.1496967E+00
         -1   -1    0    0  501    0 -0.00000000000E+00  0.00000000000E+00  0.37565064265E+01  0.37565098075E+01  0.50400000000E-02 0. -1.
          1   -1    0    0    0  501  0.00000000000E+00 -0.00000000000E+00 -0.11500400146E+03  0.11500400157E+03  0.50400000000E-02 0. -1.
          2    1    1    2    0  502 -0.97151570107E+01 -0.17706534081E+02 -0.41596494721E+02  0.46240393646E+02  0.25500000000E-02 0.  1.
         -2    1    1    2  502    0  0.97151570107E+01  0.17706534081E+02 -0.69651000315E+02  0.72520117735E+02  0.25500000000E-02 0.  1.
<mgrwt>
<rscale>  0 0.41569868E+02</rscale>
<asrwt>0</asrwt>
<pdfrwt beam="2">  1        1 0.17692921E-01 0.41569868E+02</pdfrwt>
<pdfrwt beam="1">  1       -1 0.57792442E-03 0.41569868E+02</pdfrwt>
<totfact> 0.81535355E+05</totfact>
</mgrwt>
</event>
<event>
 4    1  0.4029665E-002  0.5566055E+02  0.7818608E-02  0.1417001E+00
          1   -1    0    0    0  501  0.00000000000E+00  0.00000000000E+00  0.23007379701E+02  0.23007380253E+02  0.50400000000E-02 0.  1.
         -1   -1    0    0  501    0 -0.00000000000E+00 -0.00000000000E+00 -0.33664166981E+02  0.33664167358E+02  0.50400000000E-02 0.  1.
          2    1    1    2    0  502 -0.22256914687E+02 -0.11789118866E+02 -0.17382810355E+02  0.30602543642E+02  0.25500000000E-02 0. -1.
         -2    1    1    2  502    0  0.22256914687E+02  0.11789118866E+02  0.67260230753E+01  0.26069003969E+02  0.25500000000E-02 0. -1.
<mgrwt>
<rscale>  0 0.55660553E+02</rscale>
<asrwt>0</asrwt>
<pdfrwt beam="1">  1        1 0.35395969E-02 0.55660553E+02</pdfrwt>
<pdfrwt beam="2">  1       -1 0.51791027E-02 0.55660553E+02</pdfrwt>
<totfact> 0.32726705E+05</totfact>
</mgrwt>
</event>
<event>
 4    1  0.4029665E-002  0.5133602E+02  0.7818608E-02  0.1438266E+00
          1   -1    0    0    0  501  0.00000000000E+00  0.00000000000E+00  0.19743588185E+03  0.19743588192E+03  0.50400000000E-02 0.  1.
         -1   -1    0    0  501    0 -0.00000000000E+00 -0.00000000000E+00 -0.33370142797E+01  0.33370180858E+01  0.50400000000E-02 0.  1.
          2    1    1    2    0  502  0.22645369075E+02  0.10608810152E+02  0.11968138300E+03  0.12226607476E+03  0.25500000000E-02 0. -1.
         -2    1    1    2  502    0 -0.22645369075E+02 -0.10608810152E+02  0.74417484572E+02  0.78506825244E+02  0.25500000000E-02 0. -1.
<mgrwt>
<rscale>  0 0.51336020E+02</rscale>
<asrwt>0</asrwt>
<pdfrwt beam="1">  1        1 0.30374753E-01 0.51336020E+02</pdfrwt>
<pdfrwt beam="2">  1       -1 0.51338707E-03 0.51336020E+02</pdfrwt>
<totfact> 0.52494288E+05</totfact>
</mgrwt>
</event>
<event>
 4    1  0.4029665E-002  0.1032123E+03  0.7818608E-02  0.1273682E+00
          1   -1    0    0    0  501  0.00000000000E+00  0.00000000000E+00  0.87281065176E+03  0.87281065178E+03  0.50400000000E-02 0.  1.
         -1   -1    0    0  501    0 -0.00000000000E+00 -0.00000000000E+00 -0.30512813056E+01  0.30512854681E+01  0.50400000000E-02 0.  1.
          2    1    1    2    0  502 -0.99650201386E+01 -0.32675899440E+02  0.10663644039E+03  0.11197475812E+03  0.25500000000E-02 0.  1.
         -2    1    1    2  502    0  0.99650201386E+01  0.32675899440E+02  0.76312293007E+03  0.76388717913E+03  0.25500000000E-02 0.  1.
<mgrwt>
<rscale>  0 0.10321226E+03</rscale>
<asrwt>0</asrwt>
<pdfrwt beam="1">  1        1 0.13427855E+00 0.10321226E+03</pdfrwt>
<pdfrwt beam="2">  1       -1 0.46942827E-03 0.10321226E+03</pdfrwt>
<totfact> 0.10058168E+05</totfact>
</mgrwt>
</event>
<event>
 4    1  0.4029665E-002  0.7119963E+02  0.7818608E-02  0.1356061E+00
         -1   -1    0    0  501    0 -0.00000000000E+00  0.00000000000E+00  0.11470094034E+02  0.11470095141E+02  0.50400000000E-02 0.  1.
          1   -1    0    0    0  501  0.00000000000E+00 -0.00000000000E+00 -0.11049140165E+03  0.11049140176E+03  0.50400000000E-02 0.  1.
          2    1    1    2    0  502 -0.35498615575E+02 -0.20185626998E+01 -0.52536586788E+02  0.63437522501E+02  0.25500000000E-02 0.  1.
         -2    1    1    2  502    0  0.35498615575E+02  0.20185626998E+01 -0.46484720826E+02  0.58523974403E+02  0.25500000000E-02 0.  1.
<mgrwt>
<rscale>  0 0.71199630E+02</rscale>
<asrwt>0</asrwt>
<pdfrwt beam="2">  1        1 0.16998677E-01 0.71199630E+02</pdfrwt>
<pdfrwt beam="1">  1       -1 0.17646300E-02 0.71199630E+02</pdfrwt>
<totfact> 0.20583992E+05</totfact>
</mgrwt>
</event>
<event>
 4    1  0.4029665E-002  0.4213579E+02  0.7818608E-02  0.1493058E+00
         -1   -1    0    0  501    0 -0.00000000000E+00  0.00000000000E+00  0.65348159527E+00  0.65350103057E+00  0.50400000000E-02 0. -1.
          1   -1    0    0    0  501  0.00000000000E+00 -0.00000000000E+00 -0.67920732749E+03  0.67920732751E+03  0.50400000000E-02 0. -1.
          2    1    1    2    0  502  0.28320379439E+01  0.20299636293E+02 -0.26062741674E+03  0.26143210597E+03  0.25500000000E-02 0.  1.
         -2    1    1    2  502    0 -0.28320379439E+01 -0.20299636293E+02 -0.41792642916E+03  0.41842872256E+03  0.25500000000E-02 0.  1.
<mgrwt>
<rscale>  0 0.42135785E+02</rscale>
<asrwt>0</asrwt>
<pdfrwt beam="2">  1        1 0.10449287E+00 0.42135785E+02</pdfrwt>
<pdfrwt beam="1">  1       -1 0.10053767E-03 0.42135785E+02</pdfrwt>
<totfact> 0.10101472E+06</totfact>
</mgrwt>
</event>
<event>
 4    1  0.4029665E-002  0.5910443E+02  0.7818608E-02  0.1401629E+00
          1   -1    0    0    0  501  0.00000000000E+00  0.00000000000E+00  0.12439056676E+04  0.12439056676E+04  0.50400000000E-02 0. -1.
         -1   -1    0    0  501    0 -0.00000000000E+00 -0.00000000000E+00 -0.70208075629E+00  0.70209884628E+00  0.50400000000E-02 0. -1.
          2    1    1    2    0  502  0.19127865566E+02 -0.21752407927E+02  0.49829059700E+03  0.49913180780E+03  0.25500000000E-02 0.  1.
         -2    1    1    2  502    0 -0.19127865566E+02  0.21752407927E+02  0.74491298986E+03  0.74547595867E+03  0.25500000000E-02 0.  1.
<mgrwt>
<rscale>  0 0.59104433E+02</rscale>
<asrwt>0</asrwt>
<pdfrwt beam="1">  1        1 0.19137126E+00 0.59104433E+02</pdfrwt>
<pdfrwt beam="2">  1       -1 0.10801316E-03 0.59104433E+02</pdfrwt>
<totfact> 0.38415383E+05</totfact>
</mgrwt>
</event>
<event>
 4    1  0.4029665E-002  0.5976854E+02  0.7818608E-02  0.1398806E+00
         -1   -1    0    0  501    0 -0.00000000000E+00  0.00000000000E+00  0.31276078876E+01  0.31276119485E+01  0.50400000000E-02 0.  1.
          1   -1    0    0    0  501  0.00000000000E+00 -0.00000000000E+00 -0.28554378131E+03  0.28554378135E+03  0.50400000000E-02 0.  1.
          2    1    1    2    0  502  0.16751659282E+01 -0.28229240648E+02 -0.94537571013E+02  0.98676484271E+02  0.25500000000E-02 0.  1.
         -2    1    1    2  502    0 -0.16751659282E+01  0.28229240648E+02 -0.18787860241E+03  0.18999490903E+03  0.25500000000E-02 0.  1.
<mgrwt>
<rscale>  0 0.59768539E+02</rscale>
<asrwt>0</asrwt>
<pdfrwt beam="2">  1        1 0.43929792E-01 0.59768539E+02</pdfrwt>
<pdfrwt beam="1">  1       -1 0.48117099E-03 0.59768539E+02</pdfrwt>
<totfact> 0.38158417E+05</totfact>
</mgrwt>
</event>
<event>
 4    1  0.4029665E-002  0.7981799E+02  0.7818608E-02  0.1329569E+00
          1   -1    0    0    0  501  0.00000000000E+00  0.00000000000E+00  0.10231303485E+03  0.10231303497E+03  0.50400000000E-02 0.  1.
         -1   -1    0    0  501    0 -0.00000000000E+00 -0.00000000000E+00 -0.15567202289E+02  0.15567203105E+02  0.50400000000E-02 0.  1.
          2    1    1    2    0  502 -0.27406293106E+02  0.18506051939E+02  0.76368460191E+02  0.83220914310E+02  0.25500000000E-02 0.  1.
         -2    1    1    2  502    0  0.27406293106E+02 -0.18506051939E+02  0.10377372366E+02  0.34659323765E+02  0.25500000000E-02 0.  1.
<mgrwt>
<rscale>  0 0.79817987E+02</rscale>
<asrwt>0</asrwt>
<pdfrwt beam="1">  1        1 0.15740468E-01 0.79817987E+02</pdfrwt>
<pdfrwt beam="2">  1       -1 0.23949542E-02 0.79817987E+02</pdfrwt>
<totfact> 0.15016219E+05</totfact>
</mgrwt>
</event>
<event>
 4    1  0.4029665E-002  0.1064780E+03  0.7818608E-02  0.1267235E+00
         -1   -1    0    0  501    0 -0.00000000000E+00  0.00000000000E+00  0.10069851159E+02  0.10069852420E+02  0.50400000000E-02 0. -1.
          1   -1    0    0    0  501  0.00000000000E+00 -0.00000000000E+00 -0.28147272289E+03  0.28147272293E+03  0.50400000000E-02 0. -1.
          2    1    1    2    0  502  0.51630780317E+02  0.72664107824E+01 -0.16517217812E+03  0.17320619687E+03  0.25500000000E-02 0. -1.
         -2    1    1    2  502    0 -0.51630780317E+02 -0.72664107824E+01 -0.10623069361E+03  0.11833637848E+03  0.25500000000E-02 0. -1.
<mgrwt>
<rscale>  0 0.10647795E+03</rscale>
<asrwt>0</asrwt>
<pdfrwt beam="2">  1        1 0.43303490E-01 0.10647795E+03</pdfrwt>
<pdfrwt beam="1">  1       -1 0.15492082E-02 0.10647795E+03</pdfrwt>
<totfact> 0.83387060E+04</totfact>
</mgrwt>
</event>
<event>
 4    1  0.4029665E-002  0.5761809E+02  0.7818608E-02  0.1408108E+00
          1   -1    0    0    0  501  0.00000000000E+00  0.00000000000E+00  0.59375620757E+03  0.59375620759E+03  0.50400000000E-02 0.  1.
         -1   -1    0    0  501    0 -0.00000000000E+00 -0.00000000000E+00 -0.13978101298E+01  0.13978192160E+01  0.50400000000E-02 0.  1.
          2    1    1    2    0  502  0.26561568061E+02 -0.94619030319E+01  0.23514310781E+03  0.23682762859E+03  0.25500000000E-02 0.  1.
         -2    1    1    2  502    0 -0.26561568061E+02  0.94619030319E+01  0.35721528963E+03  0.35832639822E+03  0.25500000000E-02 0.  1.
<mgrwt>
<rscale>  0 0.57618093E+02</rscale>
<asrwt>0</asrwt>
<pdfrwt beam="1">  1        1 0.91347142E-01 0.57618093E+02</pdfrwt>
<pdfrwt beam="2">  1       -1 0.21504834E-03 0.57618093E+02</pdfrwt>
<totfact> 0.46359861E+05</totfact>
</mgrwt>
</event>
<event>
 4    1  0.4029665E-002  0.5030983E+02  0.7818608E-02  0.1443678E+00
         -1   -1    0    0  501    0 -0.00000000000E+00  0.00000000000E+00  0.42262389231E+00  0.42265394350E+00  0.50400000000E-02 0.  1.
          1   -1    0    0    0  501  0.00000000000E+00 -0.00000000000E+00 -0.14971877447E+04  0.14971877447E+04  0.50400000000E-02 0.  1.
          2    1    1    2    0  502 -0.19276959068E+02  0.15587387082E+02 -0.62138193602E+03  0.62187625634E+03  0.25500000000E-02 0. -1.
         -2    1    1    2  502    0  0.19276959068E+02 -0.15587387082E+02 -0.87538318477E+03  0.87573414229E+03  0.25500000000E-02 0. -1.
<mgrwt>
<rscale>  0 0.50309833E+02</rscale>
<asrwt>0</asrwt>
<pdfrwt beam="2">  1        1 0.23033233E+00 0.50309833E+02</pdfrwt>
<pdfrwt beam="1">  1       -1 0.65022571E-04 0.50309833E+02</pdfrwt>
<totfact> 0.51070280E+05</totfact>
</mgrwt>
</event>
<event>
 4    1  0.4029665E-002  0.1047114E+03  0.7818608E-02  0.1270689E+00
         -1   -1    0    0  501    0 -0.00000000000E+00  0.00000000000E+00  0.15173228399E+03  0.15173228408E+03  0.50400000000E-02 0.  1.
          1   -1    0    0    0  501  0.00000000000E+00 -0.00000000000E+00 -0.18065498599E+02  0.18065499302E+02  0.50400000000E-02 0.  1.
          2    1    1    2    0  502  0.18998295351E+02  0.45817411868E+02  0.39653248149E+02  0.63502366506E+02  0.25500000000E-02 0.  1.
         -2    1    1    2  502    0 -0.18998295351E+02 -0.45817411868E+02  0.94013537243E+02  0.10629541687E+03  0.25500000000E-02 0.  1.
<mgrwt>
<rscale>  0 0.10471140E+03</rscale>
<asrwt>0</asrwt>
<pdfrwt beam="2">  1        1 0.27793074E-02 0.10471140E+03</pdfrwt>
<pdfrwt beam="1">  1       -1 0.23343429E-01 0.10471140E+03</pdfrwt>
<totfact> 0.52007207E+04</totfact>
</mgrwt>
</event>
<event>
 4    1  0.4029665E-002  0.5277285E+02  0.7818608E-02  0.1430935E+00
         -1   -1    0    0  501    0 -0.00000000000E+00  0.00000000000E+00  0.48174722685E+01  0.48174749049E+01  0.50400000000E-02 0.  1.
          1   -1    0    0    0  501  0.00000000000E+00 -0.00000000000E+00 -0.14452458576E+03  0.14452458585E+03  0.50400000000E-02 0.  1.
          2    1    1    2    0  502  0.20342353118E+02 -0.42620598442E+01 -0.11585728025E+03  0.11770677924E+03  0.25500000000E-02 0. -1.
         -2    1    1    2  502    0 -0.20342353118E+02  0.42620598442E+01 -0.23849833237E+02  0.31635281513E+02  0.25500000000E-02 0. -1.
<mgrwt>
<rscale>  0 0.52772849E+02</rscale>
<asrwt>0</asrwt>
<pdfrwt beam="2">  1        1 0.22234548E-01 0.52772849E+02</pdfrwt>
<pdfrwt beam="1">  1       -1 0.74114990E-03 0.52772849E+02</pdfrwt>
<totfact> 0.46493357E+05</totfact>
</mgrwt>
</event>
<event>
 4    1  0.4029665E-002  0.7673527E+02  0.7818608E-02  0.1338580E+00
          1   -1    0    0    0  501  0.00000000000E+00  0.00000000000E+00  0.49583757425E+03  0.49583757428E+03  0.50400000000E-02 0.  1.
         -1   -1    0    0  501    0 -0.00000000000E+00 -0.00000000000E+00 -0.29688641847E+01  0.29688684627E+01  0.50400000000E-02 0.  1.
          2    1    1    2    0  502  0.12397239423E+02  0.21527913897E+02  0.56368972982E+02  0.61600355061E+02  0.25500000000E-02 0. -1.
         -2    1    1    2  502    0 -0.12397239423E+02 -0.21527913897E+02  0.43649973709E+03  0.43720608768E+03  0.25500000000E-02 0. -1.
<mgrwt>
<rscale>  0 0.76735272E+02</rscale>
<asrwt>0</asrwt>
<pdfrwt beam="1">  1        1 0.76282721E-01 0.76735272E+02</pdfrwt>
<pdfrwt beam="2">  1       -1 0.45674856E-03 0.76735272E+02</pdfrwt>
<totfact> 0.21885632E+05</totfact>
</mgrwt>
</event>
<event>
 4    1  0.4029665E-002  0.4207063E+02  0.7818608E-02  0.1493504E+00
         -1   -1    0    0  501    0 -0.00000000000E+00  0.00000000000E+00  0.16030416634E+02  0.16030417426E+02  0.50400000000E-02 0. -1.
          1   -1    0    0    0  501  0.00000000000E+00 -0.00000000000E+00 -0.27602808491E+02  0.27602808951E+02  0.50400000000E-02 0. -1.
          2    1    1    2    0  502 -0.14672698318E+02 -0.14898205657E+02 -0.81603077098E+01  0.22446274438E+02  0.25500000000E-02 0. -1.
         -2    1    1    2  502    0  0.14672698318E+02  0.14898205657E+02 -0.34120841473E+01  0.21186951939E+02  0.25500000000E-02 0. -1.
<mgrwt>
<rscale>  0 0.42070633E+02</rscale>
<asrwt>0</asrwt>
<pdfrwt beam="2">  1        1 0.42465860E-02 0.42070633E+02</pdfrwt>
<pdfrwt beam="1">  1       -1 0.24662180E-02 0.42070633E+02</pdfrwt>
<totfact> 0.68639791E+05</totfact>
</mgrwt>
</event>
<event>
 4    1  0.4029665E-002  0.6366932E+02  0.7818608E-02  0.1383048E+00
          1   -1    0    0    0  501  0.00000000000E+00  0.00000000000E+00  0.22783310563E+03  0.22783310568E+03  0.50400000000E-02 0. -1.
         -1   -1    0    0  501    0 -0.00000000000E+00 -0.00000000000E+00 -0.44481915393E+01  0.44481943945E+01  0.50400000000E-02 0. -1.
          2    1    1    2    0  502 -0.11119445323E+02 -0.22627324210E+02  0.18260441250E+03  0.18433667388E+03  0.25500000000E-02 0. -1.
         -2    1    1    2  502    0  0.11119445323E+02  0.22627324210E+02  0.40780501588E+02  0.47944626200E+02  0.25500000000E-02 0. -1.
<mgrwt>
<rscale>  0 0.63669322E+02</rscale>
<asrwt>0</asrwt>
<pdfrwt beam="1">  1        1 0.35051259E-01 0.63669322E+02</pdfrwt>
<pdfrwt beam="2">  1       -1 0.68433715E-03 0.63669322E+02</pdfrwt>
<totfact> 0.31151935E+05</totfact>
</mgrwt>
</event>
<event>
 4    1  0.4029665E-002  0.5898412E+02  0.7818608E-02  0.1402145E+00
         -1   -1    0    0  501    0 -0.00000000000E+00  0.00000000000E+00  0.49380241014E+01  0.49380266734E+01  0.50400000000E-02 0.  1.
          1   -1    0    0    0  501  0.00000000000E+00 -0.00000000000E+00 -0.17613956006E+03  0.17613956013E+03  0.50400000000E-02 0.  1.
          2    1    1    2    0  502  0.26335097606E+02  0.97897445276E+01 -0.58072964981E+02  0.64512368829E+02  0.25500000000E-02 0. -1.
         -2    1    1    2  502    0 -0.26335097606E+02 -0.97897445276E+01 -0.11312857098E+03  0.11656521798E+03  0.25500000000E-02 0. -1.
<mgrwt>
<rscale>  0 0.58984121E+02</rscale>
<asrwt>0</asrwt>
<pdfrwt beam="2">  1        1 0.27098389E-01 0.58984121E+02</pdfrwt>
<pdfrwt beam="1">  1       -1 0.75969635E-03 0.58984121E+02</pdfrwt>
<totfact> 0.36195948E+05</totfact>
</mgrwt>
</event>
<event>
 4    1  0.4029665E-002  0.5719750E+02  0.7818608E-02  0.1409984E+00
          1   -1    0    0    0  501  0.00000000000E+00  0.00000000000E+00  0.40761429493E+03  0.40761429496E+03  0.50400000000E-02 0. -1.
         -1   -1    0    0  501    0 -0.00000000000E+00 -0.00000000000E+00 -0.20065221769E+01  0.20065285066E+01  0.50400000000E-02 0. -1.
          2    1    1    2    0  502 -0.11097337680E+02  0.22856231492E+02  0.10879136684E+03  0.11171893182E+03  0.25500000000E-02 0. -1.
         -2    1    1    2  502    0  0.11097337680E+02 -0.22856231492E+02  0.29681640591E+03  0.29790189165E+03  0.25500000000E-02 0. -1.
<mgrwt>
<rscale>  0 0.57197497E+02</rscale>
<asrwt>0</asrwt>
<pdfrwt beam="1">  1        1 0.62709874E-01 0.57197497E+02</pdfrwt>
<pdfrwt beam="2">  1       -1 0.30869630E-03 0.57197497E+02</pdfrwt>
<totfact> 0.45296143E+05</totfact>
</mgrwt>
</event>
<event>
 4    1  0.4029665E-002  0.4788455E+02  0.7818608E-02  0.1457097E+00
          1   -1    0    0    0  501  0.00000000000E+00  0.00000000000E+00  0.25467058742E+03  0.25467058747E+03  0.50400000000E-02 0.  1.
         -1   -1    0    0  501    0 -0.00000000000E+00 -0.00000000000E+00 -0.22508756268E+01  0.22508812694E+01  0.50400000000E-02 0.  1.
          2    1    1    2    0  502 -0.21219122012E+02 -0.30758294436E+01  0.69043242420E+02  0.72295789616E+02  0.25500000000E-02 0. -1.
         -2    1    1    2  502    0  0.21219122012E+02  0.30758294436E+01  0.18337646938E+03  0.18462567913E+03  0.25500000000E-02 0. -1.
<mgrwt>
<rscale>  0 0.47884551E+02</rscale>
<asrwt>0</asrwt>
<pdfrwt beam="1">  1        1 0.39180116E-01 0.47884551E+02</pdfrwt>
<pdfrwt beam="2">  1       -1 0.34628877E-03 0.47884551E+02</pdfrwt>
<totfact> 0.65303582E+05</totfact>
</mgrwt>
</event>
<event>
 4    1  0.4029665E-002  0.4458604E+02  0.7818608E-02  0.1476943E+00
         -1   -1    0    0  501    0 -0.00000000000E+00  0.00000000000E+00  0.90174606423E+01  0.90174620507E+01  0.50400000000E-02 0.  1.
          1   -1    0    0    0  501  0.00000000000E+00 -0.00000000000E+00 -0.55112921223E+02  0.55112921454E+02  0.50400000000E-02 0.  1.
          2    1    1    2    0  502 -0.20888246069E+02 -0.24002921055E+01 -0.12390486762E+02  0.24405007575E+02  0.25500000000E-02 0.  1.
         -2    1    1    2  502    0  0.20888246069E+02  0.24002921055E+01 -0.33704973819E+02  0.39725375929E+02  0.25500000000E-02 0.  1.
<mgrwt>
<rscale>  0 0.44586036E+02</rscale>
<asrwt>0</asrwt>
<pdfrwt beam="2">  1        1 0.84789109E-02 0.44586036E+02</pdfrwt>
<pdfrwt beam="1">  1       -1 0.13873018E-02 0.44586036E+02</pdfrwt>
<totfact> 0.62916123E+05</totfact>
</mgrwt>
</event>
<event>
 4    1  0.4029665E-002  0.4714015E+02  0.7818608E-02  0.1461407E+00
          1   -1    0    0    0  501  0.00000000000E+00  0.00000000000E+00  0.16020989059E+02  0.16020989852E+02  0.50400000000E-02 0. -1.
         -1   -1    0    0  501    0 -0.00000000000E+00 -0.00000000000E+00 -0.34676288410E+02  0.34676288776E+02  0.50400000000E-02 0. -1.
          2    1    1    2    0  502 -0.21676580395E+02 -0.33839228694E+01 -0.62252006555E-01  0.21939210410E+02  0.25500000000E-02 0. -1.
         -2    1    1    2  502    0  0.21676580395E+02  0.33839228694E+01 -0.18593047344E+02  0.28758068218E+02  0.25500000000E-02 0. -1.
<mgrwt>
<rscale>  0 0.47140151E+02</rscale>
<asrwt>0</asrwt>
<pdfrwt beam="1">  1        1 0.24647676E-02 0.47140151E+02</pdfrwt>
<pdfrwt beam="2">  1       -1 0.53348137E-02 0.47140151E+02</pdfrwt>
<totfact> 0.48979726E+05</totfact>
</mgrwt>
</event>
<event>
 4    1  0.4029665E-002  0.4208004E+02  0.7818608E-02  0.1493440E+00
          1   -1    0    0    0  501  0.00000000000E+00  0.00000000000E+00  0.10014707426E+04  0.10014707426E+04  0.50400000000E-02 0.  1.
         -1   -1    0    0  501    0 -0.00000000000E+00 -0.00000000000E+00 -0.44201803071E+00  0.44204676345E+00  0.50400000000E-02 0.  1.
          2    1    1    2    0  502 -0.14222450015E+02 -0.14497814446E+02  0.63139796334E+03  0.63172450706E+03  0.25500000000E-02 0. -1.
         -2    1    1    2  502    0  0.14222450015E+02  0.14497814446E+02  0.36963076118E+03  0.37018828227E+03  0.25500000000E-02 0. -1.
<mgrwt>
<rscale>  0 0.42080044E+02</rscale>
<asrwt>0</asrwt>
<pdfrwt beam="1">  1        1 0.15407110E+00 0.42080044E+02</pdfrwt>
<pdfrwt beam="2">  1       -1 0.68005568E-04 0.42080044E+02</pdfrwt>
<totfact> 0.96923033E+05</totfact>
</mgrwt>
</event>
<event>
 4    1  0.4029665E-002  0.4513474E+02  0.7818608E-02  0.1473502E+00
          1   -1    0    0    0  501  0.00000000000E+00  0.00000000000E+00  0.35849020132E+03  0.35849020136E+03  0.50400000000E-02 0. -1.
         -1   -1    0    0  501    0 -0.00000000000E+00 -0.00000000000E+00 -0.14206374076E+01  0.14206463477E+01  0.50400000000E-02 0. -1.
          2    1    1    2    0  502  0.20652424118E+02  0.38969553718E+01  0.11298300739E+03  0.11492114187E+03  0.25500000000E-02 0. -1.
         -2    1    1    2  502    0 -0.20652424118E+02 -0.38969553718E+01  0.24408655652E+03  0.24498970583E+03  0.25500000000E-02 0. -1.
<mgrwt>
<rscale>  0 0.45134741E+02</rscale>
<asrwt>0</asrwt>
<pdfrwt beam="1">  1        1 0.55152287E-01 0.45134741E+02</pdfrwt>
<pdfrwt beam="2">  1       -1 0.21856050E-03 0.45134741E+02</pdfrwt>
<totfact> 0.80130632E+05</totfact>
</mgrwt>
</event>
<event>
 4    1  0.4029665E-002  0.7999431E+02  0.7818608E-02  0.1329068E+00
         -1   -1    0    0  501    0 -0.00000000000E+00  0.00000000000E+00  0.17568835027E+01  0.17568907318E+01  0.50400000000E-02 0.  1.
          1   -1    0    0    0  501  0.00000000000E+00 -0.00000000000E+00 -0.91057199316E+03  0.91057199317E+03  0.50400000000E-02 0.  1.
          2    1    1    2    0  502 -0.39897589176E+02 -0.20508573350E+01 -0.43232622081E+03  0.43416815273E+03  0.25500000000E-02 0. -1.
         -2    1    1    2  502    0  0.39897589176E+02  0.20508573350E+01 -0.47648888884E+03  0.47816073117E+03  0.25500000000E-02 0. -1.
<mgrwt>
<rscale>  0 0.79994305E+02</rscale>
<asrwt>0</asrwt>
<pdfrwt beam="2">  1        1 0.14008762E+00 0.79994305E+02</pdfrwt>
<pdfrwt beam="1">  1       -1 0.27029105E-03 0.79994305E+02</pdfrwt>
<totfact> 0.19585060E+05</totfact>
</mgrwt>
</event>
<event>
 4    1  0.4029665E-002  0.5834717E+02  0.7818608E-02  0.1404902E+00
         -1   -1    0    0  501    0 -0.00000000000E+00  0.00000000000E+00  0.43306163336E+01  0.43306192664E+01  0.50400000000E-02 0. -1.
          1   -1    0    0    0  501  0.00000000000E+00 -0.00000000000E+00 -0.19653038925E+03  0.19653038931E+03  0.50400000000E-02 0. -1.
          2    1    1    2    0  502  0.12735608394E+02 -0.25254876747E+02 -0.12070688417E+03  0.12397643491E+03  0.25500000000E-02 0.  1.
         -2    1    1    2  502    0 -0.12735608394E+02  0.25254876747E+02 -0.71492888748E+02  0.76884573672E+02  0.25500000000E-02 0.  1.
<mgrwt>
<rscale>  0 0.58347168E+02</rscale>
<asrwt>0</asrwt>
<pdfrwt beam="2">  1        1 0.30235438E-01 0.58347168E+02</pdfrwt>
<pdfrwt beam="1">  1       -1 0.66624905E-03 0.58347168E+02</pdfrwt>
<totfact> 0.37932363E+05</totfact>
</mgrwt>
</event>
<event>
 4    1  0.4029665E-002  0.1161695E+03  0.7818608E-02  0.1249553E+00
          1   -1    0    0    0  501  0.00000000000E+00  0.00000000000E+00  0.16333731300E+04  0.16333731300E+04  0.50400000000E-02 0. -1.
         -1   -1    0    0  501    0 -0.00000000000E+00 -0.00000000000E+00 -0.20655607647E+01  0.20655669135E+01  0.50400000000E-02 0. -1.
          2    1    1    2    0  502 -0.38594254001E+01 -0.38978075326E+02  0.14194772333E+04  0.14200175355E+04  0.25500000000E-02 0. -1.
         -2    1    1    2  502    0  0.38594254001E+01  0.38978075326E+02  0.21183033598E+03  0.21542116138E+03  0.25500000000E-02 0. -1.
<mgrwt>
<rscale>  0 0.11616947E+03</rscale>
<asrwt>0</asrwt>
<pdfrwt beam="1">  1        1 0.25128867E+00 0.11616947E+03</pdfrwt>
<pdfrwt beam="2">  1       -1 0.31777842E-03 0.11616947E+03</pdfrwt>
<totfact> 0.53472173E+04</totfact>
</mgrwt>
</event>
<event>
 4    1  0.4029665E-002  0.6675330E+02  0.7818608E-02  0.1371495E+00
          1   -1    0    0    0  501  0.00000000000E+00  0.00000000000E+00  0.12677913872E+04  0.12677913872E+04  0.50400000000E-02 0. -1.
         -1   -1    0    0  501    0 -0.00000000000E+00 -0.00000000000E+00 -0.87868681714E+00  0.87870127132E+00  0.50400000000E-02 0. -1.
          2    1    1    2    0  502 -0.25995918184E+01 -0.29982816972E+02  0.35917705243E+03  0.36043568385E+03  0.25500000000E-02 0. -1.
         -2    1    1    2  502    0  0.25995918184E+01  0.29982816972E+02  0.90773564794E+03  0.90823440462E+03  0.25500000000E-02 0. -1.
<mgrwt>
<rscale>  0 0.66753300E+02</rscale>
<asrwt>0</asrwt>
<pdfrwt beam="1">  1        1 0.19504490E+00 0.66753300E+02</pdfrwt>
<pdfrwt beam="2">  1       -1 0.13518365E-03 0.66753300E+02</pdfrwt>
<totfact> 0.27894196E+05</totfact>
</mgrwt>
</event>
<event>
 4    1  0.4029665E-002  0.4844328E+02  0.7818608E-02  0.1453924E+00
          1   -1    0    0    0  501  0.00000000000E+00  0.00000000000E+00  0.10465399939E+04  0.10465399939E+04  0.50400000000E-02 0.  1.
         -1   -1    0    0  501    0 -0.00000000000E+00 -0.00000000000E+00 -0.56058639717E+00  0.56060905299E+00  0.50400000000E-02 0.  1.
          2    1    1    2    0  502 -0.14187364475E+02 -0.19561171075E+02  0.55894615182E+03  0.55946824875E+03  0.25500000000E-02 0.  1.
         -2    1    1    2  502    0  0.14187364475E+02  0.19561171075E+02  0.48703325568E+03  0.48763235421E+03  0.25500000000E-02 0.  1.
<mgrwt>
<rscale>  0 0.48443284E+02</rscale>
<asrwt>0</asrwt>
<pdfrwt beam="1">  1        1 0.16100633E+00 0.48443284E+02</pdfrwt>
<pdfrwt beam="2">  1       -1 0.86245711E-04 0.48443284E+02</pdfrwt>
<totfact> 0.67760467E+05</totfact>
</mgrwt>
</event>
<event>
 4    1  0.4029665E-002  0.7313912E+02  0.7818608E-02  0.1349732E+00
          1   -1    0    0    0  501  0.00000000000E+00  0.00000000000E+00  0.12872367470E+04  0.12872367470E+04  0.50400000000E-02 0. -1.
         -1   -1    0    0  501    0 -0.00000000000E+00 -0.00000000000E+00 -0.10389111863E+01  0.10389234114E+01  0.50400000000E-02 0. -1.
          2    1    1    2    0  502  0.24990255135E+02 -0.13850360682E+02  0.10451420294E+04  0.10455324993E+04  0.25500000000E-02 0. -1.
         -2    1    1    2  502    0 -0.24990255135E+02  0.13850360682E+02  0.24105580641E+03  0.24274317118E+03  0.25500000000E-02 0. -1.
<mgrwt>
<rscale>  0 0.73139115E+02</rscale>
<asrwt>0</asrwt>
<pdfrwt beam="1">  1        1 0.19803649E+00 0.73139115E+02</pdfrwt>
<pdfrwt beam="2">  1       -1 0.15983338E-03 0.73139115E+02</pdfrwt>
<totfact> 0.21859249E+05</totfact>
</mgrwt>
</event>
<event>
 4    1  0.4029665E-002  0.5175882E+02  0.7818608E-02  0.1436079E+00
          1   -1    0    0    0  501  0.00000000000E+00  0.00000000000E+00  0.50232631343E+03  0.50232631346E+03  0.50400000000E-02 0. -1.
         -1   -1    0    0  501    0 -0.00000000000E+00 -0.00000000000E+00 -0.13332794551E+01  0.13332889811E+01  0.50400000000E-02 0. -1.
          2    1    1    2    0  502  0.12156271051E+02  0.21777344572E+02  0.18327857547E+03  0.18496773745E+03  0.25500000000E-02 0.  1.
         -2    1    1    2  502    0 -0.12156271051E+02 -0.21777344572E+02  0.31771445851E+03  0.31869186499E+03  0.25500000000E-02 0.  1.
<mgrwt>
<rscale>  0 0.51758816E+02</rscale>
<asrwt>0</asrwt>
<pdfrwt beam="1">  1        1 0.77280888E-01 0.51758816E+02</pdfrwt>
<pdfrwt beam="2">  1       -1 0.20512087E-03 0.51758816E+02</pdfrwt>
<totfact> 0.59819328E+05</totfact>
</mgrwt>
</event>
<event>
 4    1  0.4029665E-002  0.5202143E+02  0.7818608E-02  0.1434734E+00
          1   -1    0    0    0  501  0.00000000000E+00  0.00000000000E+00  0.24510217600E+02  0.24510218118E+02  0.50400000000E-02 0. -1.
         -1   -1    0    0  501    0 -0.00000000000E+00 -0.00000000000E+00 -0.27603066746E+02  0.27603067206E+02  0.50400000000E-02 0. -1.
          2    1    1    2    0  502 -0.24057246624E+02  0.96598110218E+01  0.57725446825E+00  0.25930605340E+02  0.25500000000E-02 0.  1.
         -2    1    1    2  502    0  0.24057246624E+02 -0.96598110218E+01 -0.36701036150E+01  0.26182679984E+02  0.25500000000E-02 0.  1.
<mgrwt>
<rscale>  0 0.52021426E+02</rscale>
<asrwt>0</asrwt>
<pdfrwt beam="1">  1        1 0.37708028E-02 0.52021426E+02</pdfrwt>
<pdfrwt beam="2">  1       -1 0.42466257E-02 0.52021426E+02</pdfrwt>
<totfact> 0.39368798E+05</totfact>
</mgrwt>
</event>
<event>
 4    1  0.4029665E-002  0.6923483E+02  0.7818608E-02  0.1362715E+00
          1   -1    0    0    0  501  0.00000000000E+00  0.00000000000E+00  0.32181817440E+01  0.32181856906E+01  0.50400000000E-02 0.  1.
         -1   -1    0    0  501    0 -0.00000000000E+00 -0.00000000000E+00 -0.37237317075E+03  0.37237317079E+03  0.50400000000E-02 0.  1.
          2    1    1    2    0  502  0.20945118022E+01  0.34255195684E+02 -0.20917557207E+03  0.21197222783E+03  0.25500000000E-02 0. -1.
         -2    1    1    2  502    0 -0.20945118022E+01 -0.34255195684E+02 -0.15997941694E+03  0.16361912865E+03  0.25500000000E-02 0. -1.
<mgrwt>
<rscale>  0 0.69234826E+02</rscale>
<asrwt>0</asrwt>
<pdfrwt beam="1">  1        1 0.49510548E-03 0.69234826E+02</pdfrwt>
<pdfrwt beam="2">  1       -1 0.57288146E-01 0.69234826E+02</pdfrwt>
<totfact> 0.11260225E+05</totfact>
</mgrwt>
</event>
<event>
 4    1  0.4029665E-002  0.6373038E+02  0.7818608E-02  0.1382812E+00
          1   -1    0    0    0  501  0.00000000000E+00  0.00000000000E+00  0.26646414001E+01  0.26646461665E+01  0.50400000000E-02 0.  1.
         -1   -1    0    0  501    0 -0.00000000000E+00 -0.00000000000E+00 -0.38106047719E+03  0.38106047722E+03  0.50400000000E-02 0.  1.
          2    1    1    2    0  502  0.31149818750E+02 -0.35963689125E+01 -0.15506032837E+03  0.15819908508E+03  0.25500000000E-02 0. -1.
         -2    1    1    2  502    0 -0.31149818750E+02  0.35963689125E+01 -0.22333550742E+03  0.22552603831E+03  0.25500000000E-02 0. -1.
<mgrwt>
<rscale>  0 0.63730383E+02</rscale>
<asrwt>0</asrwt>
<pdfrwt beam="1">  1        1 0.40994550E-03 0.63730383E+02</pdfrwt>
<pdfrwt beam="2">  1       -1 0.58624646E-01 0.63730383E+02</pdfrwt>
<totfact> 0.13758109E+05</totfact>
</mgrwt>
</event>
<event>
 4    1  0.4029665E-002  0.4198980E+02  0.7818608E-02  0.1494059E+00
          1   -1    0    0    0  501  0.00000000000E+00  0.00000000000E+00  0.19787936619E+03  0.19787936626E+03  0.50400000000E-02 0. -1.
         -1   -1    0    0  501    0 -0.00000000000E+00 -0.00000000000E+00 -0.22275456723E+01  0.22275513740E+01  0.50400000000E-02 0. -1.
          2    1    1    2    0  502  0.12148371673E+02 -0.17123168924E+02  0.97858884655E+02  0.10008569908E+03  0.25500000000E-02 0. -1.
         -2    1    1    2  502    0 -0.12148371673E+02  0.17123168924E+02  0.97792935867E+02  0.10002121855E+03  0.25500000000E-02 0. -1.
<mgrwt>
<rscale>  0 0.41989804E+02</rscale>
<asrwt>0</asrwt>
<pdfrwt beam="1">  1        1 0.30442979E-01 0.41989804E+02</pdfrwt>
<pdfrwt beam="2">  1       -1 0.34269979E-03 0.41989804E+02</pdfrwt>
<totfact> 0.86466973E+05</totfact>
</mgrwt>
</event>
<event>
 4    1  0.4029665E-002  0.8469556E+02  0.7818608E-02  0.1316231E+00
          1   -1    0    0    0  501  0.00000000000E+00  0.00000000000E+00  0.13571314089E+04  0.13571314090E+04  0.50400000000E-02 0. -1.
         -1   -1    0    0  501    0 -0.00000000000E+00 -0.00000000000E+00 -0.13214108114E+01  0.13214204229E+01  0.50400000000E-02 0. -1.
          2    1    1    2    0  502 -0.21243721215E+02  0.13503592026E+02  0.13170056761E+03  0.13408460838E+03  0.25500000000E-02 0. -1.
         -2    1    1    2  502    0  0.21243721215E+02 -0.13503592026E+02  0.12241094305E+04  0.12243682210E+04  0.25500000000E-02 0. -1.
<mgrwt>
<rscale>  0 0.84695564E+02</rscale>
<asrwt>0</asrwt>
<pdfrwt beam="1">  1        1 0.20878988E+00 0.84695564E+02</pdfrwt>
<pdfrwt beam="2">  1       -1 0.20329429E-03 0.84695564E+02</pdfrwt>
<totfact> 0.14441534E+05</totfact>
</mgrwt>
</event>
<event>
 4    1  0.4029665E-002  0.1284622E+03  0.7818608E-02  0.1229756E+00
         -1   -1    0    0  501    0 -0.00000000000E+00  0.00000000000E+00  0.32643812831E+02  0.32643813220E+02  0.50400000000E-02 0.  1.
          1   -1    0    0    0  501  0.00000000000E+00 -0.00000000000E+00 -0.12638332630E+03  0.12638332641E+03  0.50400000000E-02 0.  1.
          2    1    1    2    0  502  0.27698976632E+02  0.57549522954E+02 -0.55307023612E+02  0.84486968025E+02  0.25500000000E-02 0.  1.
         -2    1    1    2  502    0 -0.27698976632E+02 -0.57549522954E+02 -0.38432489862E+02  0.74540171600E+02  0.25500000000E-02 0.  1.
<mgrwt>
<rscale>  0 0.12846219E+03</rscale>
<asrwt>0</asrwt>
<pdfrwt beam="2">  1        1 0.19443588E-01 0.12846219E+03</pdfrwt>
<pdfrwt beam="1">  1       -1 0.50221252E-02 0.12846219E+03</pdfrwt>
<totfact> 0.42054679E+04</totfact>
</mgrwt>
</event>
<event>
 4    1  0.4029665E-002  0.5981440E+02  0.7818608E-02  0.1398612E+00
          1   -1    0    0    0  501  0.00000000000E+00  0.00000000000E+00  0.79835178137E+02  0.79835178296E+02  0.50400000000E-02 0. -1.
         -1   -1    0    0  501    0 -0.00000000000E+00 -0.00000000000E+00 -0.11203589777E+02  0.11203590910E+02  0.50400000000E-02 0. -1.
          2    1    1    2    0  502  0.24508358613E+02 -0.15908008534E+02  0.24603886149E+02  0.38197848075E+02  0.25500000000E-02 0.  1.
         -2    1    1    2  502    0 -0.24508358613E+02  0.15908008534E+02  0.44027702212E+02  0.52840921131E+02  0.25500000000E-02 0.  1.
<mgrwt>
<rscale>  0 0.59814401E+02</rscale>
<asrwt>0</asrwt>
<pdfrwt beam="1">  1        1 0.12282335E-01 0.59814401E+02</pdfrwt>
<pdfrwt beam="2">  1       -1 0.17236293E-02 0.59814401E+02</pdfrwt>
<totfact> 0.30996664E+05</totfact>
</mgrwt>
</event>
<event>
 4    1  0.4029665E-002  0.4586747E+02  0.7818608E-02  0.1468998E+00
          1   -1    0    0    0  501  0.00000000000E+00  0.00000000000E+00  0.19054618719E+01  0.19054685374E+01  0.50400000000E-02 0. -1.
         -1   -1    0    0  501    0 -0.00000000000E+00 -0.00000000000E+00 -0.27602512549E+03  0.27602512554E+03  0.50400000000E-02 0. -1.
          2    1    1    2    0  502  0.19729224873E+02  0.10061387225E+02 -0.10096555502E+03  0.10336593798E+03  0.25500000000E-02 0. -1.
         -2    1    1    2  502    0 -0.19729224873E+02 -0.10061387225E+02 -0.17315410860E+03  0.17456465610E+03  0.25500000000E-02 0. -1.
<mgrwt>
<rscale>  0 0.45867474E+02</rscale>
<asrwt>0</asrwt>
<pdfrwt beam="1">  1        1 0.29314872E-03 0.45867474E+02</pdfrwt>
<pdfrwt beam="2">  1       -1 0.42465373E-01 0.45867474E+02</pdfrwt>
<totfact> 0.35802852E+05</totfact>
</mgrwt>
</event>
<event>
 4    1  0.4029665E-002  0.7698312E+02  0.7818608E-02  0.1337838E+00
          1   -1    0    0    0  501  0.00000000000E+00  0.00000000000E+00  0.10722915592E+02  0.10722916776E+02  0.50400000000E-02 0. -1.
         -1   -1    0    0  501    0 -0.00000000000E+00 -0.00000000000E+00 -0.13817139191E+03  0.13817139200E+03  0.50400000000E-02 0. -1.
          2    1    1    2    0  502 -0.36512170884E+02  0.24099111445E+01 -0.40623571962E+02  0.54673767931E+02  0.25500000000E-02 0. -1.
         -2    1    1    2  502    0  0.36512170884E+02 -0.24099111445E+01 -0.86824904358E+02  0.94220540848E+02  0.25500000000E-02 0. -1.
<mgrwt>
<rscale>  0 0.76983122E+02</rscale>
<asrwt>0</asrwt>
<pdfrwt beam="1">  1        1 0.16496795E-02 0.76983122E+02</pdfrwt>
<pdfrwt beam="2">  1       -1 0.21257136E-01 0.76983122E+02</pdfrwt>
<totfact> 0.11790876E+05</totfact>
</mgrwt>
</event>
<event>
 4    1  0.4029665E-002  0.5055543E+02  0.7818608E-02  0.1442369E+00
          1   -1    0    0    0  501  0.00000000000E+00  0.00000000000E+00  0.10730219760E+04  0.10730219760E+04  0.50400000000E-02 0. -1.
         -1   -1    0    0  501    0 -0.00000000000E+00 -0.00000000000E+00 -0.59546920136E+00  0.59549053004E+00  0.50400000000E-02 0. -1.
          2    1    1    2    0  502  0.17386685298E+02 -0.14636635797E+02  0.30123124576E+03  0.30208739028E+03  0.25500000000E-02 0.  1.
         -2    1    1    2  502    0 -0.17386685298E+02  0.14636635797E+02  0.77119526102E+03  0.77153007625E+03  0.25500000000E-02 0.  1.
<mgrwt>
<rscale>  0 0.50555435E+02</rscale>
<asrwt>0</asrwt>
<pdfrwt beam="1">  1        1 0.16507835E+00 0.50555435E+02</pdfrwt>
<pdfrwt beam="2">  1       -1 0.91613376E-04 0.50555435E+02</pdfrwt>
<totfact> 0.60469698E+05</totfact>
</mgrwt>
</event>
<event>
 4    1  0.4029665E-002  0.4130652E+02  0.7818608E-02  0.1498811E+00
         -1   -1    0    0  501    0 -0.00000000000E+00  0.00000000000E+00  0.21153841846E+01  0.21153901886E+01  0.50400000000E-02 0. -1.
          1   -1    0    0    0  501  0.00000000000E+00 -0.00000000000E+00 -0.20164491059E+03  0.20164491066E+03  0.50400000000E-02 0. -1.
          2    1    1    2    0  502 -0.49608236768E+01 -0.19938210831E+02 -0.89399782282E+02  0.91730382651E+02  0.25500000000E-02 0.  1.
         -2    1    1    2  502    0  0.49608236768E+01  0.19938210831E+02 -0.11012974413E+03  0.11202991819E+03  0.25500000000E-02 0.  1.
<mgrwt>
<rscale>  0 0.41306516E+02</rscale>
<asrwt>0</asrwt>
<pdfrwt beam="2">  1        1 0.31022279E-01 0.41306516E+02</pdfrwt>
<pdfrwt beam="1">  1       -1 0.32544435E-03 0.41306516E+02</pdfrwt>
<totfact> 0.90294220E+05</totfact>
</mgrwt>
</event>
<event>
 4    1  0.4029665E-002  0.6041673E+02  0.7818608E-02  0.1396091E+00
         -1   -1    0    0  501    0 -0.00000000000E+00  0.00000000000E+00  0.18267757506E+02  0.18267758201E+02  0.50400000000E-02 0.  1.
          1   -1    0    0    0  501  0.00000000000E+00 -0.00000000000E+00 -0.49953873600E+02  0.49953873854E+02  0.50400000000E-02 0.  1.
          2    1    1    2    0  502  0.20537003864E+02 -0.18937088605E+02 -0.28616878292E+01  0.28081508440E+02  0.25500000000E-02 0.  1.
         -2    1    1    2  502    0 -0.20537003864E+02  0.18937088605E+02 -0.28824428265E+02  0.40140123615E+02  0.25500000000E-02 0.  1.
<mgrwt>
<rscale>  0 0.60416729E+02</rscale>
<asrwt>0</asrwt>
<pdfrwt beam="2">  1        1 0.76852113E-02 0.60416729E+02</pdfrwt>
<pdfrwt beam="1">  1       -1 0.28104243E-02 0.60416729E+02</pdfrwt>
<totfact> 0.28562467E+05</totfact>
</mgrwt>
</event>
<event>
 4    1  0.4029665E-002  0.5502302E+02  0.7818608E-02  0.1419990E+00
         -1   -1    0    0  501    0 -0.00000000000E+00  0.00000000000E+00  0.26452453097E+02  0.26452453577E+02  0.50400000000E-02 0.  1.
          1   -1    0    0    0  501  0.00000000000E+00 -0.00000000000E+00 -0.28612961666E+02  0.28612962110E+02  0.50400000000E-02 0.  1.
          2    1    1    2    0  502  0.20336868842E+02  0.63519917455E+01 -0.18499039847E+02  0.28216139267E+02  0.25500000000E-02 0. -1.
         -2    1    1    2  502    0 -0.20336868842E+02 -0.63519917455E+01  0.16338531278E+02  0.26849276419E+02  0.25500000000E-02 0. -1.
<mgrwt>
<rscale>  0 0.55023015E+02</rscale>
<asrwt>0</asrwt>
<pdfrwt beam="2">  1        1 0.44019942E-02 0.55023015E+02</pdfrwt>
<pdfrwt beam="1">  1       -1 0.40696082E-02 0.55023015E+02</pdfrwt>
<totfact> 0.34478509E+05</totfact>
</mgrwt>
</event>
<event>
 4    1  0.4029665E-002  0.5144642E+02  0.7818608E-02  0.1437693E+00
          1   -1    0    0    0  501  0.00000000000E+00  0.00000000000E+00  0.57539114712E+03  0.57539114714E+03  0.50400000000E-02 0.  1.
         -1   -1    0    0  501    0 -0.00000000000E+00 -0.00000000000E+00 -0.11499661455E+01  0.11499771899E+01  0.50400000000E-02 0.  1.
          2    1    1    2    0  502 -0.16784216178E+02 -0.17455175136E+02  0.38436063326E+03  0.38512269403E+03  0.25500000000E-02 0.  1.
         -2    1    1    2  502    0  0.16784216178E+02  0.17455175136E+02  0.18988054772E+03  0.19141843030E+03  0.25500000000E-02 0.  1.
<mgrwt>
<rscale>  0 0.51446420E+02</rscale>
<asrwt>0</asrwt>
<pdfrwt beam="1">  1        1 0.88521672E-01 0.51446420E+02</pdfrwt>
<pdfrwt beam="2">  1       -1 0.17691881E-03 0.51446420E+02</pdfrwt>
<totfact> 0.61460358E+05</totfact>
</mgrwt>
</event>
<event>
 4    1  0.4029665E-002  0.5050871E+02  0.7818608E-02  0.1442617E+00
          1   -1    0    0    0  501  0.00000000000E+00  0.00000000000E+00  0.37354867279E+00  0.37358267163E+00  0.50400000000E-02 0. -1.
         -1   -1    0    0  501    0 -0.00000000000E+00 -0.00000000000E+00 -0.17072833250E+04  0.17072833250E+04  0.50400000000E-02 0. -1.
          2    1    1    2    0  502 -0.90200360959E+01 -0.22337745516E+02 -0.59720350738E+03  0.59768918775E+03  0.25500000000E-02 0. -1.
         -2    1    1    2  502    0  0.90200360959E+01  0.22337745516E+02 -0.11097062690E+04  0.11099677199E+04  0.25500000000E-02 0. -1.
<mgrwt>
<rscale>  0 0.50508710E+02</rscale>
<asrwt>0</asrwt>
<pdfrwt beam="1">  1        1 0.57473010E-04 0.50508710E+02</pdfrwt>
<pdfrwt beam="2">  1       -1 0.26265273E+00 0.50508710E+02</pdfrwt>
<totfact> 0.48027097E+04</totfact>
</mgrwt>
</event>
<event>
 4    1  0.4029665E-002  0.4191306E+02  0.7818608E-02  0.1494587E+00
          1   -1    0    0    0  501  0.00000000000E+00  0.00000000000E+00  0.23317269284E+03  0.23317269289E+03  0.50400000000E-02 0.  1.
         -1   -1    0    0  501    0 -0.00000000000E+00 -0.00000000000E+00 -0.18834769320E+01  0.18834836753E+01  0.50400000000E-02 0.  1.
          2    1    1    2    0  502 -0.45997819969E+01  0.20396455421E+02  0.12358131311E+03  0.12533760148E+03  0.25500000000E-02 0.  1.
         -2    1    1    2  502    0  0.45997819969E+01 -0.20396455421E+02  0.10770790280E+03  0.10971857509E+03  0.25500000000E-02 0.  1.
<mgrwt>
<rscale>  0 0.41913062E+02</rscale>
<asrwt>0</asrwt>
<pdfrwt beam="1">  1        1 0.35872686E-01 0.41913062E+02</pdfrwt>
<pdfrwt beam="2">  1       -1 0.28976650E-03 0.41913062E+02</pdfrwt>
<totfact> 0.89313240E+05</totfact>
</mgrwt>
</event>
<event>
 4    1  0.4029665E-002  0.5461941E+02  0.7818608E-02  0.1421907E+00
         -1   -1    0    0  501    0 -0.00000000000E+00  0.00000000000E+00  0.17093011873E+03  0.17093011880E+03  0.50400000000E-02 0.  1.
          1   -1    0    0    0  501  0.00000000000E+00 -0.00000000000E+00 -0.43633013962E+01  0.43633043070E+01  0.50400000000E-02 0.  1.
          2    1    1    2    0  502  0.21630879120E+02 -0.10441242801E+02  0.41573387404E+02  0.48013133927E+02  0.25500000000E-02 0. -1.
         -2    1    1    2  502    0 -0.21630879120E+02  0.10441242801E+02  0.12499342993E+03  0.12728028918E+03  0.25500000000E-02 0. -1.
<mgrwt>
<rscale>  0 0.54619406E+02</rscale>
<asrwt>0</asrwt>
<pdfrwt beam="2">  1        1 0.67127730E-03 0.54619406E+02</pdfrwt>
<pdfrwt beam="1">  1       -1 0.26296944E-01 0.54619406E+02</pdfrwt>
<totfact> 0.26804809E+05</totfact>
</mgrwt>
</event>
<event>
 4    1  0.4029665E-002  0.8582149E+02  0.7818608E-02  0.1313298E+00
          1   -1    0    0    0  501  0.00000000000E+00  0.00000000000E+00  0.40158269638E+02  0.40158269954E+02  0.50400000000E-02 0.  1.
         -1   -1    0    0  501    0 -0.00000000000E+00 -0.00000000000E+00 -0.45851876154E+02  0.45851876431E+02  0.50400000000E-02 0.  1.
          2    1    1    2    0  502  0.19907923669E+02 -0.31525218024E+02  0.18440586423E+02  0.41595913626E+02  0.25500000000E-02 0. -1.
         -2    1    1    2  502    0 -0.19907923669E+02  0.31525218024E+02 -0.24134192939E+02  0.44414232760E+02  0.25500000000E-02 0. -1.
<mgrwt>
<rscale>  0 0.85821490E+02</rscale>
<asrwt>0</asrwt>
<pdfrwt beam="1">  1        1 0.61781953E-02 0.85821490E+02</pdfrwt>
<pdfrwt beam="2">  1       -1 0.70541349E-02 0.85821490E+02</pdfrwt>
<totfact> 0.10752210E+05</totfact>
</mgrwt>
</event>
<event>
 4    1  0.4029665E-002  0.5787341E+02  0.7818608E-02  0.1406979E+00
          1   -1    0    0    0  501  0.00000000000E+00  0.00000000000E+00  0.10132638778E+04  0.10132638778E+04  0.50400000000E-02 0. -1.
         -1   -1    0    0  501    0 -0.00000000000E+00 -0.00000000000E+00 -0.82636433654E+00  0.82637970589E+00  0.50400000000E-02 0. -1.
          2    1    1    2    0  502  0.11130184077E+02 -0.24548702275E+02  0.69067491835E+03  0.69120066741E+03  0.25500000000E-02 0.  1.
         -2    1    1    2  502    0 -0.11130184077E+02  0.24548702275E+02  0.32176259509E+03  0.32288959009E+03  0.25500000000E-02 0.  1.
<mgrwt>
<rscale>  0 0.57873411E+02</rscale>
<asrwt>0</asrwt>
<pdfrwt beam="1">  1        1 0.15588641E+00 0.57873411E+02</pdfrwt>
<pdfrwt beam="2">  1       -1 0.12713444E-03 0.57873411E+02</pdfrwt>
<totfact> 0.43863909E+05</totfact>
</mgrwt>
</event>
<event>
 4    1  0.4029665E-002  0.6838098E+02  0.7818608E-02  0.1365687E+00
         -1   -1    0    0  501    0 -0.00000000000E+00  0.00000000000E+00  0.10021466657E+02  0.10021467924E+02  0.50400000000E-02 0.  1.
          1   -1    0    0    0  501  0.00000000000E+00 -0.00000000000E+00 -0.11664854851E+03  0.11664854862E+03  0.50400000000E-02 0.  1.
          2    1    1    2    0  502  0.20681022857E+02 -0.23701878254E+02 -0.28494908699E+02  0.42443416067E+02  0.25500000000E-02 0.  1.
         -2    1    1    2  502    0 -0.20681022857E+02  0.23701878254E+02 -0.78132173151E+02  0.84226600472E+02  0.25500000000E-02 0.  1.
<mgrwt>
<rscale>  0 0.68380981E+02</rscale>
<asrwt>0</asrwt>
<pdfrwt beam="2">  1        1 0.17945930E-01 0.68380981E+02</pdfrwt>
<pdfrwt beam="1">  1       -1 0.15417643E-02 0.68380981E+02</pdfrwt>
<totfact> 0.23080316E+05</totfact>
</mgrwt>
</event>
<event>
 4    1  0.4029665E-002  0.4768779E+02  0.7818608E-02  0.1458227E+00
          1   -1    0    0    0  501  0.00000000000E+00  0.00000000000E+00  0.92035035789E+02  0.92035035927E+02  0.50400000000E-02 0. -1.
         -1   -1    0    0  501    0 -0.00000000000E+00 -0.00000000000E+00 -0.61773338918E+01  0.61773359478E+01  0.50400000000E-02 0. -1.
          2    1    1    2    0  502  0.19276562455E+02 -0.12996694671E+02  0.32024978450E+02  0.39573971038E+02  0.25500000000E-02 0. -1.
         -2    1    1    2  502    0 -0.19276562455E+02  0.12996694671E+02  0.53832723448E+02  0.58638400837E+02  0.25500000000E-02 0. -1.
<mgrwt>
<rscale>  0 0.47687787E+02</rscale>
<asrwt>0</asrwt>
<pdfrwt beam="1">  1        1 0.14159237E-01 0.47687787E+02</pdfrwt>
<pdfrwt beam="2">  1       -1 0.95035920E-03 0.47687787E+02</pdfrwt>
<totfact> 0.56270125E+05</totfact>
</mgrwt>
</event>
<event>
 4    1  0.4029665E-002  0.5106948E+02  0.7818608E-02  0.1439657E+00
         -1   -1    0    0  501    0 -0.00000000000E+00  0.00000000000E+00  0.93553647770E+02  0.93553647906E+02  0.50400000000E-02 0.  1.
          1   -1    0    0    0  501  0.00000000000E+00 -0.00000000000E+00 -0.69695076819E+01  0.69695095043E+01  0.50400000000E-02 0.  1.
          2    1    1    2    0  502 -0.20069294248E+02  0.15743878008E+02  0.45601597549E+02  0.52250856183E+02  0.25500000000E-02 0.  1.
         -2    1    1    2  502    0  0.20069294248E+02 -0.15743878008E+02  0.40982542540E+02  0.48272301228E+02  0.25500000000E-02 0.  1.
<mgrwt>
<rscale>  0 0.51069481E+02</rscale>
<asrwt>0</asrwt>
<pdfrwt beam="2">  1        1 0.10722322E-02 0.51069481E+02</pdfrwt>
<pdfrwt beam="1">  1       -1 0.14392867E-01 0.51069481E+02</pdfrwt>
<totfact> 0.35707367E+05</totfact>
</mgrwt>
</event>
<event>
 4    1  0.4029665E-002  0.6387007E+02  0.7818608E-02  0.1382273E+00
          1   -1    0    0    0  501  0.00000000000E+00  0.00000000000E+00  0.20474421897E+02  0.20474422518E+02  0.50400000000E-02 0.  1.
         -1   -1    0    0  501    0 -0.00000000000E+00 -0.00000000000E+00 -0.49810761249E+02  0.49810761504E+02  0.50400000000E-02 0.  1.
          2    1    1    2    0  502  0.20050863628E+02  0.24855440459E+02 -0.14809576942E+02  0.35201614002E+02  0.25500000000E-02 0.  1.
         -2    1    1    2  502    0 -0.20050863628E+02 -0.24855440459E+02 -0.14526762409E+02  0.35083570019E+02  0.25500000000E-02 0.  1.
<mgrwt>
<rscale>  0 0.63870073E+02</rscale>
<asrwt>0</asrwt>
<pdfrwt beam="1">  1        1 0.31499111E-02 0.63870073E+02</pdfrwt>
<pdfrwt beam="2">  1       -1 0.76631941E-02 0.63870073E+02</pdfrwt>
<totfact> 0.22291974E+05</totfact>
</mgrwt>
</event>
<event>
 4    1  0.4029665E-002  0.6654971E+02  0.7818608E-02  0.1372235E+00
         -1   -1    0    0  501    0 -0.00000000000E+00  0.00000000000E+00  0.31242837600E+02  0.31242838006E+02  0.50400000000E-02 0. -1.
          1   -1    0    0    0  501  0.00000000000E+00 -0.00000000000E+00 -0.35439032146E+02  0.35439032504E+02  0.50400000000E-02 0. -1.
          2    1    1    2    0  502 -0.27838821096E+01  0.27299633061E+02 -0.20955567261E+02  0.34527608816E+02  0.25500000000E-02 0.  1.
         -2    1    1    2  502    0  0.27838821096E+01 -0.27299633061E+02  0.16759372714E+02  0.32154261695E+02  0.25500000000E-02 0.  1.
<mgrwt>
<rscale>  0 0.66549709E+02</rscale>
<asrwt>0</asrwt>
<pdfrwt beam="2">  1        1 0.54521588E-02 0.66549709E+02</pdfrwt>
<pdfrwt beam="1">  1       -1 0.48065905E-02 0.66549709E+02</pdfrwt>
<totfact> 0.21256808E+05</totfact>
</mgrwt>
</event>
<event>
 4    1  0.4029665E-002  0.5441624E+02  0.7818608E-02  0.1422880E+00
         -1   -1    0    0  501    0 -0.00000000000E+00  0.00000000000E+00  0.42632083104E+00  0.42635062164E+00  0.50400000000E-02 0.  1.
          1   -1    0    0    0  501  0.00000000000E+00 -0.00000000000E+00 -0.17363824912E+04  0.17363824912E+04  0.50400000000E-02 0.  1.
          2    1    1    2    0  502 -0.17656577386E+02  0.16223718912E+02 -0.45760045092E+03  0.45822825804E+03  0.25500000000E-02 0.  1.
         -2    1    1    2  502    0  0.17656577386E+02 -0.16223718912E+02 -0.12783557194E+04  0.12785805838E+04  0.25500000000E-02 0.  1.
<mgrwt>
<rscale>  0 0.54416244E+02</rscale>
<asrwt>0</asrwt>
<pdfrwt beam="2">  1        1 0.26713011E+00 0.54416244E+02</pdfrwt>
<pdfrwt beam="1">  1       -1 0.65591502E-04 0.54416244E+02</pdfrwt>
<totfact> 0.36463040E+05</totfact>
</mgrwt>
</event>
<event>
 4    1  0.4029665E-002  0.4398716E+02  0.7818608E-02  0.1480765E+00
          1   -1    0    0    0  501  0.00000000000E+00  0.00000000000E+00  0.17292297897E+02  0.17292298631E+02  0.50400000000E-02 0.  1.
         -1   -1    0    0  501    0 -0.00000000000E+00 -0.00000000000E+00 -0.27972999086E+02  0.27972999540E+02  0.50400000000E-02 0.  1.
          2    1    1    2    0  502 -0.91829922050E+01  0.18146706524E+02  0.32747173822E+01  0.20599856406E+02  0.25500000000E-02 0.  1.
         -2    1    1    2  502    0  0.91829922050E+01 -0.18146706524E+02 -0.13955418571E+02  0.24665441766E+02  0.25500000000E-02 0.  1.
<mgrwt>
<rscale>  0 0.43987155E+02</rscale>
<asrwt>0</asrwt>
<pdfrwt beam="1">  1        1 0.26603536E-02 0.43987155E+02</pdfrwt>
<pdfrwt beam="2">  1       -1 0.43035384E-02 0.43987155E+02</pdfrwt>
<totfact> 0.59035890E+05</totfact>
</mgrwt>
</event>
<event>
 4    1  0.4029665E-002  0.7011629E+02  0.7818608E-02  0.1359698E+00
         -1   -1    0    0  501    0 -0.00000000000E+00  0.00000000000E+00  0.10509733787E+02  0.10509734995E+02  0.50400000000E-02 0.  1.
          1   -1    0    0    0  501  0.00000000000E+00 -0.00000000000E+00 -0.11694619519E+03  0.11694619530E+03  0.50400000000E-02 0.  1.
          2    1    1    2    0  502  0.34423986833E+02  0.81111928311E+00 -0.41242297324E+02  0.53727049788E+02  0.25500000000E-02 0. -1.
         -2    1    1    2  502    0 -0.34423986833E+02 -0.81111928311E+00 -0.65194164078E+02  0.73728880503E+02  0.25500000000E-02 0. -1.
<mgrwt>
<rscale>  0 0.70116288E+02</rscale>
<asrwt>0</asrwt>
<pdfrwt beam="2">  1        1 0.17991722E-01 0.70116288E+02</pdfrwt>
<pdfrwt beam="1">  1       -1 0.16168823E-02 0.70116288E+02</pdfrwt>
<totfact> 0.21621159E+05</totfact>
</mgrwt>
</event>
<event>
 4    1  0.4029665E-002  0.4860092E+02  0.7818608E-02  0.1453037E+00
         -1   -1    0    0  501    0 -0.00000000000E+00  0.00000000000E+00  0.76110335030E+02  0.76110335197E+02  0.50400000000E-02 0.  1.
          1   -1    0    0    0  501  0.00000000000E+00 -0.00000000000E+00 -0.77586357738E+01  0.77586374108E+01  0.50400000000E-02 0.  1.
          2    1    1    2    0  502  0.91060672635E+01  0.20241213011E+02  0.17102628055E+02  0.28020118809E+02  0.25500000000E-02 0. -1.
         -2    1    1    2  502    0 -0.91060672635E+01 -0.20241213011E+02  0.51249071201E+02  0.55848853799E+02  0.25500000000E-02 0. -1.
<mgrwt>
<rscale>  0 0.48600924E+02</rscale>
<asrwt>0</asrwt>
<pdfrwt beam="2">  1        1 0.11936364E-02 0.48600924E+02</pdfrwt>
<pdfrwt beam="1">  1       -1 0.11709283E-01 0.48600924E+02</pdfrwt>
<totfact> 0.41607628E+05</totfact>
</mgrwt>
</event>
<event>
 4    1  0.4029665E-002  0.5704181E+02  0.7818608E-02  0.1410683E+00
          1   -1    0    0    0  501  0.00000000000E+00  0.00000000000E+00  0.73138248513E+01  0.73138265878E+01  0.50400000000E-02 0.  1.
         -1   -1    0    0  501    0 -0.00000000000E+00 -0.00000000000E+00 -0.11121977719E+03  0.11121977731E+03  0.50400000000E-02 0.  1.
          2    1    1    2    0  502  0.16915209640E+02 -0.22808110985E+02 -0.46412887927E+02  0.54410388862E+02  0.25500000000E-02 0. -1.
         -2    1    1    2  502    0 -0.16915209640E+02  0.22808110985E+02 -0.57493064416E+02  0.64123215035E+02  0.25500000000E-02 0. -1.
<mgrwt>
<rscale>  0 0.57041812E+02</rscale>
<asrwt>0</asrwt>
<pdfrwt beam="1">  1        1 0.11252040E-02 0.57041812E+02</pdfrwt>
<pdfrwt beam="2">  1       -1 0.17110734E-01 0.57041812E+02</pdfrwt>
<totfact> 0.26324309E+05</totfact>
</mgrwt>
</event>
<event>
 4    1  0.4029665E-002  0.8855478E+02  0.7818608E-02  0.1306390E+00
          1   -1    0    0    0  501  0.00000000000E+00  0.00000000000E+00  0.98524757604E+03  0.98524757605E+03  0.50400000000E-02 0.  1.
         -1   -1    0    0  501    0 -0.00000000000E+00 -0.00000000000E+00 -0.19898388719E+01  0.19898452547E+01  0.50400000000E-02 0.  1.
          2    1    1    2    0  502 -0.23811937551E+02 -0.34904973667E+02  0.63915854122E+03  0.64055367174E+03  0.25500000000E-02 0.  1.
         -2    1    1    2  502    0  0.23811937551E+02  0.34904973667E+02  0.34409919594E+03  0.34668374956E+03  0.25500000000E-02 0.  1.
<mgrwt>
<rscale>  0 0.88554776E+02</rscale>
<asrwt>0</asrwt>
<pdfrwt beam="1">  1        1 0.15157661E+00 0.88554776E+02</pdfrwt>
<pdfrwt beam="2">  1       -1 0.30612942E-03 0.88554776E+02</pdfrwt>
<totfact> 0.14747303E+05</totfact>
</mgrwt>
</event>
<event>
 4    1  0.4029665E-002  0.4173019E+02  0.7818608E-02  0.1495852E+00
          1   -1    0    0    0  501  0.00000000000E+00  0.00000000000E+00  0.20933881838E+02  0.20933882445E+02  0.50400000000E-02 0.  1.
         -1   -1    0    0  501    0 -0.00000000000E+00 -0.00000000000E+00 -0.20796531662E+02  0.20796532273E+02  0.50400000000E-02 0.  1.
          2    1    1    2    0  502  0.13380020621E+02  0.15223670303E+02  0.50252194685E+01  0.20881521173E+02  0.25500000000E-02 0. -1.
         -2    1    1    2  502    0 -0.13380020621E+02 -0.15223670303E+02 -0.48878692930E+01  0.20848893545E+02  0.25500000000E-02 0. -1.
<mgrwt>
<rscale>  0 0.41730189E+02</rscale>
<asrwt>0</asrwt>
<pdfrwt beam="1">  1        1 0.32205973E-02 0.41730189E+02</pdfrwt>
<pdfrwt beam="2">  1       -1 0.31994665E-02 0.41730189E+02</pdfrwt>
<totfact> 0.68595076E+05</totfact>
</mgrwt>
</event>
<event>
 4    1  0.4029665E-002  0.5067711E+02  0.7818608E-02  0.1441723E+00
          1   -1    0    0    0  501  0.00000000000E+00  0.00000000000E+00  0.18542086376E+03  0.18542086383E+03  0.50400000000E-02 0.  1.
         -1   -1    0    0  501    0 -0.00000000000E+00 -0.00000000000E+00 -0.34626205436E+01  0.34626242116E+01  0.50400000000E-02 0.  1.
          2    1    1    2    0  502 -0.42425405973E+01  0.24610162545E+02  0.74998541743E+02  0.79047077879E+02  0.25500000000E-02 0.  1.
         -2    1    1    2  502    0  0.42425405973E+01 -0.24610162545E+02  0.10695970148E+03  0.10983641016E+03  0.25500000000E-02 0.  1.
<mgrwt>
<rscale>  0 0.50677113E+02</rscale>
<asrwt>0</asrwt>
<pdfrwt beam="1">  1        1 0.28526295E-01 0.50677113E+02</pdfrwt>
<pdfrwt beam="2">  1       -1 0.53271100E-03 0.50677113E+02</pdfrwt>
<totfact> 0.53642032E+05</totfact>
</mgrwt>
</event>
<event>
 4    1  0.4029665E-002  0.8148376E+02  0.7818608E-02  0.1324893E+00
          1   -1    0    0    0  501  0.00000000000E+00  0.00000000000E+00  0.76827802961E+03  0.76827802963E+03  0.50400000000E-02 0. -1.
         -1   -1    0    0  501    0 -0.00000000000E+00 -0.00000000000E+00 -0.21605440811E+01  0.21605499596E+01  0.50400000000E-02 0. -1.
          2    1    1    2    0  502 -0.24629219247E+02 -0.32442153751E+02  0.39156326906E+03  0.39367611747E+03  0.25500000000E-02 0. -1.
         -2    1    1    2  502    0  0.24629219247E+02  0.32442153751E+02  0.37455421646E+03  0.37676246211E+03  0.25500000000E-02 0. -1.
<mgrwt>
<rscale>  0 0.81483761E+02</rscale>
<asrwt>0</asrwt>
<pdfrwt beam="1">  1        1 0.11819672E+00 0.81483761E+02</pdfrwt>
<pdfrwt beam="2">  1       -1 0.33239157E-03 0.81483761E+02</pdfrwt>
<totfact> 0.19045832E+05</totfact>
</mgrwt>
</event>
<event>
 4    1  0.4029665E-002  0.4442168E+02  0.7818608E-02  0.1477985E+00
          1   -1    0    0    0  501  0.00000000000E+00  0.00000000000E+00  0.16225992935E+04  0.16225992935E+04  0.50400000000E-02 0. -1.
         -1   -1    0    0  501    0 -0.00000000000E+00 -0.00000000000E+00 -0.30401069047E+00  0.30405246507E+00  0.50400000000E-02 0. -1.
          2    1    1    2    0  502 -0.19762591022E+02 -0.98052970443E+01  0.71716511451E+03  0.71750435910E+03  0.25500000000E-02 0. -1.
         -2    1    1    2  502    0  0.19762591022E+02  0.98052970443E+01  0.90513016831E+03  0.90539898688E+03  0.25500000000E-02 0. -1.
<mgrwt>
<rscale>  0 0.44421681E+02</rscale>
<asrwt>0</asrwt>
<pdfrwt beam="1">  1        1 0.24963622E+00 0.44421681E+02</pdfrwt>
<pdfrwt beam="2">  1       -1 0.46773048E-04 0.44421681E+02</pdfrwt>
<totfact> 0.64848243E+05</totfact>
</mgrwt>
</event>
<event>
 4    1  0.4029665E-002  0.4275493E+02  0.7818608E-02  0.1488864E+00
         -1   -1    0    0  501    0 -0.00000000000E+00  0.00000000000E+00  0.32779398675E+02  0.32779399063E+02  0.50400000000E-02 0.  1.
          1   -1    0    0    0  501  0.00000000000E+00 -0.00000000000E+00 -0.13941562643E+02  0.13941563554E+02  0.50400000000E-02 0.  1.
          2    1    1    2    0  502  0.17284623444E+02  0.11932644771E+02  0.13769406906E+02  0.25114593206E+02  0.25500000000E-02 0.  1.
         -2    1    1    2  502    0 -0.17284623444E+02 -0.11932644771E+02  0.50684291261E+01  0.21606369411E+02  0.25500000000E-02 0.  1.
<mgrwt>
<rscale>  0 0.42754933E+02</rscale>
<asrwt>0</asrwt>
<pdfrwt beam="2">  1        1 0.21448559E-02 0.42754933E+02</pdfrwt>
<pdfrwt beam="1">  1       -1 0.50429845E-02 0.42754933E+02</pdfrwt>
<totfact> 0.62373470E+05</totfact>
</mgrwt>
</event>
<event>
 4    1  0.4029665E-002  0.4203986E+02  0.7818608E-02  0.1493715E+00
         -1   -1    0    0  501    0 -0.00000000000E+00  0.00000000000E+00  0.65905554986E+01  0.65905574257E+01  0.50400000000E-02 0.  1.
          1   -1    0    0    0  501  0.00000000000E+00 -0.00000000000E+00 -0.67040987246E+02  0.67040987436E+02  0.50400000000E-02 0.  1.
          2    1    1    2    0  502 -0.65814454794E+01  0.18964442891E+02 -0.19305268376E+02  0.27850653715E+02  0.25500000000E-02 0. -1.
         -2    1    1    2  502    0  0.65814454794E+01 -0.18964442891E+02 -0.41145163371E+02  0.45780891146E+02  0.25500000000E-02 0. -1.
<mgrwt>
<rscale>  0 0.42039858E+02</rscale>
<asrwt>0</asrwt>
<pdfrwt beam="2">  1        1 0.10313998E-01 0.42039858E+02</pdfrwt>
<pdfrwt beam="1">  1       -1 0.10139318E-02 0.42039858E+02</pdfrwt>
<totfact> 0.74315759E+05</totfact>
</mgrwt>
</event>
<event>
 4    1  0.4029665E-002  0.4203786E+02  0.7818608E-02  0.1493729E+00
          1   -1    0    0    0  501  0.00000000000E+00  0.00000000000E+00  0.54501638663E+03  0.54501638665E+03  0.50400000000E-02 0. -1.
         -1   -1    0    0  501    0 -0.00000000000E+00 -0.00000000000E+00 -0.81060155065E+00  0.81061721886E+00  0.50400000000E-02 0. -1.
          2    1    1    2    0  502 -0.19277062084E+02 -0.83775850151E+01  0.27106816111E+03  0.27188184387E+03  0.25500000000E-02 0.  1.
         -2    1    1    2  502    0  0.19277062084E+02  0.83775850151E+01  0.27313762397E+03  0.27394516000E+03  0.25500000000E-02 0.  1.
<mgrwt>
<rscale>  0 0.42037860E+02</rscale>
<asrwt>0</asrwt>
<pdfrwt beam="1">  1        1 0.83848543E-01 0.42037860E+02</pdfrwt>
<pdfrwt beam="2">  1       -1 0.12470934E-03 0.42037860E+02</pdfrwt>
<totfact> 0.10059900E+06</totfact>
</mgrwt>
</event>
<event>
 4    1  0.4029665E-002  0.7755478E+02  0.7818608E-02  0.1336137E+00
          1   -1    0    0    0  501  0.00000000000E+00  0.00000000000E+00  0.15945720620E+03  0.15945720628E+03  0.50400000000E-02 0.  1.
         -1   -1    0    0  501    0 -0.00000000000E+00 -0.00000000000E+00 -0.94300268677E+01  0.94300282145E+01  0.50400000000E-02 0.  1.
          2    1    1    2    0  502 -0.24717212538E+02 -0.29738166253E+02  0.68707146729E+02  0.78841430390E+02  0.25500000000E-02 0. -1.
         -2    1    1    2  502    0  0.24717212538E+02  0.29738166253E+02  0.81320032605E+02  0.90045804106E+02  0.25500000000E-02 0. -1.
<mgrwt>
<rscale>  0 0.77554777E+02</rscale>
<asrwt>0</asrwt>
<pdfrwt beam="1">  1        1 0.24531877E-01 0.77554777E+02</pdfrwt>
<pdfrwt beam="2">  1       -1 0.14507735E-02 0.77554777E+02</pdfrwt>
<totfact> 0.17463882E+05</totfact>
</mgrwt>
</event>
<event>
 4    1  0.4029665E-002  0.6588884E+02  0.7818608E-02  0.1374659E+00
         -1   -1    0    0  501    0 -0.00000000000E+00  0.00000000000E+00  0.16922768901E+01  0.16922843952E+01  0.50400000000E-02 0. -1.
          1   -1    0    0    0  501  0.00000000000E+00 -0.00000000000E+00 -0.64134438288E+03  0.64134438290E+03  0.50400000000E-02 0. -1.
          2    1    1    2    0  502  0.31570618825E+02  0.66122014816E+01 -0.25442374822E+03  0.25646026758E+03  0.25500000000E-02 0.  1.
         -2    1    1    2  502    0 -0.31570618825E+02 -0.66122014816E+01 -0.38522835777E+03  0.38657639972E+03  0.25500000000E-02 0.  1.
<mgrwt>
<rscale>  0 0.65888837E+02</rscale>
<asrwt>0</asrwt>
<pdfrwt beam="2">  1        1 0.98668173E-01 0.65888837E+02</pdfrwt>
<pdfrwt beam="1">  1       -1 0.26035138E-03 0.65888837E+02</pdfrwt>
<totfact> 0.33081485E+05</totfact>
</mgrwt>
</event>
<event>
 4    1  0.4029665E-002  0.4386847E+02  0.7818608E-02  0.1481532E+00
          1   -1    0    0    0  501  0.00000000000E+00  0.00000000000E+00  0.22580881533E+01  0.22580937779E+01  0.50400000000E-02 0. -1.
         -1   -1    0    0  501    0 -0.00000000000E+00 -0.00000000000E+00 -0.21306081761E+03  0.21306081767E+03  0.50400000000E-02 0. -1.
          2    1    1    2    0  502  0.15756430917E+02 -0.14992116174E+02 -0.91447630165E+02  0.93998392177E+02  0.25500000000E-02 0.  1.
         -2    1    1    2  502    0 -0.15756430917E+02  0.14992116174E+02 -0.11935509929E+03  0.12132051927E+03  0.25500000000E-02 0.  1.
<mgrwt>
<rscale>  0 0.43868473E+02</rscale>
<asrwt>0</asrwt>
<pdfrwt beam="1">  1        1 0.34739878E-03 0.43868473E+02</pdfrwt>
<pdfrwt beam="2">  1       -1 0.32778572E-01 0.43868473E+02</pdfrwt>
<totfact> 0.43443886E+05</totfact>
</mgrwt>
</event>
<event>
 4    1  0.4029665E-002  0.4615977E+02  0.7818608E-02  0.1467229E+00
         -1   -1    0    0  501    0 -0.00000000000E+00  0.00000000000E+00  0.99871372239E+00  0.99872643947E+00  0.50400000000E-02 0. -1.
          1   -1    0    0    0  501  0.00000000000E+00 -0.00000000000E+00 -0.53336385560E+03  0.53336385562E+03  0.50400000000E-02 0. -1.
          2    1    1    2    0  502  0.18872213212E+02  0.10624104189E+02 -0.17382579661E+03  0.17516974509E+03  0.25500000000E-02 0. -1.
         -2    1    1    2  502    0 -0.18872213212E+02 -0.10624104189E+02 -0.35853934527E+03  0.35919283697E+03  0.25500000000E-02 0. -1.
<mgrwt>
<rscale>  0 0.46159775E+02</rscale>
<asrwt>0</asrwt>
<pdfrwt beam="2">  1        1 0.82055751E-01 0.46159775E+02</pdfrwt>
<pdfrwt beam="1">  1       -1 0.15364967E-03 0.46159775E+02</pdfrwt>
<totfact> 0.79893980E+05</totfact>
</mgrwt>
</event>
<event>
 4    1  0.4029665E-002  0.6882313E+02  0.7818608E-02  0.1364141E+00
          1   -1    0    0    0  501  0.00000000000E+00  0.00000000000E+00  0.18945726330E+04  0.18945726330E+04  0.50400000000E-02 0.  1.
         -1   -1    0    0  501    0 -0.00000000000E+00 -0.00000000000E+00 -0.62501511083E+00  0.62503543129E+00  0.50400000000E-02 0.  1.
          2    1    1    2    0  502  0.31797117774E+02 -0.18336719504E+00  0.58470971204E+03  0.58557368253E+03  0.25500000000E-02 0. -1.
         -2    1    1    2  502    0 -0.31797117774E+02  0.18336719504E+00  0.13092379058E+04  0.13096239859E+04  0.25500000000E-02 0. -1.
<mgrwt>
<rscale>  0 0.68823129E+02</rscale>
<asrwt>0</asrwt>
<pdfrwt beam="1">  1        1 0.29147105E+00 0.68823129E+02</pdfrwt>
<pdfrwt beam="2">  1       -1 0.96158283E-04 0.68823129E+02</pdfrwt>
<totfact> 0.17998691E+05</totfact>
</mgrwt>
</event>
<event>
 4    1  0.4029665E-002  0.9352877E+02  0.7818608E-02  0.1294524E+00
         -1   -1    0    0  501    0 -0.00000000000E+00  0.00000000000E+00  0.47685362914E+03  0.47685362916E+03  0.50400000000E-02 0. -1.
          1   -1    0    0    0  501  0.00000000000E+00 -0.00000000000E+00 -0.45861176643E+01  0.45861204337E+01  0.50400000000E-02 0. -1.
          2    1    1    2    0  502  0.28898627752E+02 -0.34384652588E+02  0.30314479540E+03  0.30645424129E+03  0.25500000000E-02 0.  1.
         -2    1    1    2  502    0 -0.28898627752E+02  0.34384652588E+02  0.16912271608E+03  0.17498550831E+03  0.25500000000E-02 0.  1.
<mgrwt>
<rscale>  0 0.93528766E+02</rscale>
<asrwt>0</asrwt>
<pdfrwt beam="2">  1        1 0.70555664E-03 0.93528766E+02</pdfrwt>
<pdfrwt beam="1">  1       -1 0.73362111E-01 0.93528766E+02</pdfrwt>
<totfact> 0.45276476E+04</totfact>
</mgrwt>
</event>
<event>
 4    1  0.4029665E-002  0.9715304E+02  0.7818608E-02  0.1286399E+00
          1   -1    0    0    0  501  0.00000000000E+00  0.00000000000E+00  0.15751009014E+04  0.15751009015E+04  0.50400000000E-02 0.  1.
         -1   -1    0    0  501    0 -0.00000000000E+00 -0.00000000000E+00 -0.14981080693E+01  0.14981165472E+01  0.50400000000E-02 0.  1.
          2    1    1    2    0  502 -0.18143500271E+02  0.25164023504E+02  0.18019914769E+03  0.18285006840E+03  0.25500000000E-02 0. -1.
         -2    1    1    2  502    0  0.18143500271E+02 -0.25164023504E+02  0.13934036457E+04  0.13937489496E+04  0.25500000000E-02 0. -1.
<mgrwt>
<rscale>  0 0.97153035E+02</rscale>
<asrwt>0</asrwt>
<pdfrwt beam="1">  1        1 0.24232358E+00 0.97153035E+02</pdfrwt>
<pdfrwt beam="2">  1       -1 0.23047847E-03 0.97153035E+02</pdfrwt>
<totfact> 0.89497016E+04</totfact>
</mgrwt>
</event>
<event>
 4    1  0.4029665E-002  0.5809644E+02  0.7818608E-02  0.1405998E+00
          1   -1    0    0    0  501  0.00000000000E+00  0.00000000000E+00  0.64049284547E+01  0.64049304377E+01  0.50400000000E-02 0. -1.
         -1   -1    0    0  501    0 -0.00000000000E+00 -0.00000000000E+00 -0.13174211466E+03  0.13174211476E+03  0.50400000000E-02 0. -1.
          2    1    1    2    0  502  0.27580518702E+02 -0.45006537768E+01 -0.43815934774E+02  0.51969000788E+02  0.25500000000E-02 0.  1.
         -2    1    1    2  502    0 -0.27580518702E+02  0.45006537768E+01 -0.81521251435E+02  0.86178044410E+02  0.25500000000E-02 0.  1.
<mgrwt>
<rscale>  0 0.58096436E+02</rscale>
<asrwt>0</asrwt>
<pdfrwt beam="1">  1        1 0.98537387E-03 0.58096436E+02</pdfrwt>
<pdfrwt beam="2">  1       -1 0.20268016E-01 0.58096436E+02</pdfrwt>
<totfact> 0.24340306E+05</totfact>
</mgrwt>
</event>
<event>
 4    1  0.4029665E-002  0.5724726E+02  0.7818608E-02  0.1409761E+00
          1   -1    0    0    0  501  0.00000000000E+00  0.00000000000E+00  0.12954422400E+01  0.12954520442E+01  0.50400000000E-02 0.  1.
         -1   -1    0    0  501    0 -0.00000000000E+00 -0.00000000000E+00 -0.63245508723E+03  0.63245508725E+03  0.50400000000E-02 0.  1.
          2    1    1    2    0  502 -0.26258647910E+00  0.25440144896E+02 -0.46078468668E+03  0.46148650837E+03  0.25500000000E-02 0. -1.
         -2    1    1    2  502    0  0.26258647910E+00 -0.25440144896E+02 -0.17037495831E+03  0.17226403093E+03  0.25500000000E-02 0. -1.
<mgrwt>
<rscale>  0 0.57247258E+02</rscale>
<asrwt>0</asrwt>
<pdfrwt beam="1">  1        1 0.19930007E-03 0.57247258E+02</pdfrwt>
<pdfrwt beam="2">  1       -1 0.97300537E-01 0.57247258E+02</pdfrwt>
<totfact> 0.13240885E+05</totfact>
</mgrwt>
</event>
<event>
 4    1  0.4029665E-002  0.4147855E+02  0.7818608E-02  0.1497604E+00
         -1   -1    0    0  501    0 -0.00000000000E+00  0.00000000000E+00  0.35543705719E+03  0.35543705723E+03  0.50400000000E-02 0. -1.
          1   -1    0    0    0  501  0.00000000000E+00 -0.00000000000E+00 -0.12101032799E+01  0.12101137755E+01  0.50400000000E-02 0. -1.
          2    1    1    2    0  502 -0.20676503235E+02  0.14992996790E+01  0.17201403275E+03  0.17325874626E+03  0.25500000000E-02 0.  1.
         -2    1    1    2  502    0  0.20676503235E+02 -0.14992996790E+01  0.18221292116E+03  0.18338842474E+03  0.25500000000E-02 0.  1.
<mgrwt>
<rscale>  0 0.41478545E+02</rscale>
<asrwt>0</asrwt>
<pdfrwt beam="2">  1        1 0.18617051E-03 0.41478545E+02</pdfrwt>
<pdfrwt beam="1">  1       -1 0.54682635E-01 0.41478545E+02</pdfrwt>
<totfact> 0.41305895E+05</totfact>
</mgrwt>
</event>
<event>
 4    1  0.4029665E-002  0.8850957E+02  0.7818608E-02  0.1306502E+00
          1   -1    0    0    0  501  0.00000000000E+00  0.00000000000E+00  0.91022147220E+03  0.91022147222E+03  0.50400000000E-02 0. -1.
         -1   -1    0    0  501    0 -0.00000000000E+00 -0.00000000000E+00 -0.21516556355E+01  0.21516615383E+01  0.50400000000E-02 0. -1.
          2    1    1    2    0  502 -0.17628080958E+02 -0.30645618585E+02  0.17963905898E+03  0.18308493847E+03  0.25500000000E-02 0. -1.
         -2    1    1    2  502    0  0.17628080958E+02  0.30645618585E+02  0.72843075759E+03  0.72928819529E+03  0.25500000000E-02 0. -1.
<mgrwt>
<rscale>  0 0.88509567E+02</rscale>
<asrwt>0</asrwt>
<pdfrwt beam="1">  1        1 0.14003388E+00 0.88509567E+02</pdfrwt>
<pdfrwt beam="2">  1       -1 0.33102487E-03 0.88509567E+02</pdfrwt>
<totfact> 0.15022132E+05</totfact>
</mgrwt>
</event>
<event>
 4    1  0.4029665E-002  0.6579352E+02  0.7818608E-02  0.1375011E+00
          1   -1    0    0    0  501  0.00000000000E+00  0.00000000000E+00  0.58071293881E+02  0.58071294100E+02  0.50400000000E-02 0. -1.
         -1   -1    0    0  501    0 -0.00000000000E+00 -0.00000000000E+00 -0.18635655488E+02  0.18635656170E+02  0.50400000000E-02 0. -1.
          2    1    1    2    0  502 -0.21873711247E+02  0.23857116009E+02  0.26573260223E+02  0.41877910566E+02  0.25500000000E-02 0. -1.
         -2    1    1    2  502    0  0.21873711247E+02 -0.23857116009E+02  0.12862378170E+02  0.34829039704E+02  0.25500000000E-02 0. -1.
<mgrwt>
<rscale>  0 0.65793515E+02</rscale>
<asrwt>0</asrwt>
<pdfrwt beam="1">  1        1 0.89340452E-02 0.65793515E+02</pdfrwt>
<pdfrwt beam="2">  1       -1 0.28670240E-02 0.65793515E+02</pdfrwt>
<totfact> 0.23216516E+05</totfact>
</mgrwt>
</event>
<event>
 4    1  0.4029665E-002  0.1183501E+03  0.7818608E-02  0.1245844E+00
         -1   -1    0    0  501    0 -0.00000000000E+00  0.00000000000E+00  0.11397631807E+01  0.11397743240E+01  0.50400000000E-02 0.  1.
          1   -1    0    0    0  501  0.00000000000E+00 -0.00000000000E+00 -0.30722756118E+04  0.30722756118E+04  0.50400000000E-02 0.  1.
          2    1    1    2    0  502 -0.51271518915E+02 -0.18668529534E+02 -0.94088618639E+03  0.94246702775E+03  0.25500000000E-02 0. -1.
         -2    1    1    2  502    0  0.51271518915E+02  0.18668529534E+02 -0.21302496622E+04  0.21309483584E+04  0.25500000000E-02 0. -1.
<mgrwt>
<rscale>  0 0.11835005E+03</rscale>
<asrwt>0</asrwt>
<pdfrwt beam="2">  1        1 0.47265116E+00 0.11835005E+03</pdfrwt>
<pdfrwt beam="1">  1       -1 0.17535150E-03 0.11835005E+03</pdfrwt>
<totfact> 0.14297817E+04</totfact>
</mgrwt>
</event>
<event>
 4    1  0.4029665E-002  0.6767714E+02  0.7818608E-02  0.1368175E+00
         -1   -1    0    0  501    0 -0.00000000000E+00  0.00000000000E+00  0.15313246672E+01  0.15313329612E+01  0.50400000000E-02 0. -1.
          1   -1    0    0    0  501  0.00000000000E+00 -0.00000000000E+00 -0.74774856248E+03  0.74774856249E+03  0.50400000000E-02 0. -1.
          2    1    1    2    0  502  0.20348401326E+02  0.23582387724E+02 -0.22670548413E+03  0.22883523109E+03  0.25500000000E-02 0. -1.
         -2    1    1    2  502    0 -0.20348401326E+02 -0.23582387724E+02 -0.51951175368E+03  0.52044466436E+03  0.25500000000E-02 0. -1.
<mgrwt>
<rscale>  0 0.67677143E+02</rscale>
<asrwt>0</asrwt>
<pdfrwt beam="2">  1        1 0.11503795E+00 0.67677143E+02</pdfrwt>
<pdfrwt beam="1">  1       -1 0.23558965E-03 0.67677143E+02</pdfrwt>
<totfact> 0.30853209E+05</totfact>
</mgrwt>
</event>
<event>
 4    1  0.4029665E-002  0.5108491E+02  0.7818608E-02  0.1439576E+00
         -1   -1    0    0  501    0 -0.00000000000E+00  0.00000000000E+00  0.17243454363E+03  0.17243454371E+03  0.50400000000E-02 0.  1.
          1   -1    0    0    0  501  0.00000000000E+00 -0.00000000000E+00 -0.37835608076E+01  0.37835641645E+01  0.50400000000E-02 0.  1.
          2    1    1    2    0  502  0.23316447155E+02 -0.26339636668E+00  0.48362623508E+02  0.53690496781E+02  0.25500000000E-02 0. -1.
         -2    1    1    2  502    0 -0.23316447155E+02  0.26339636668E+00  0.12028835932E+03  0.12252761109E+03  0.25500000000E-02 0. -1.
<mgrwt>
<rscale>  0 0.51084905E+02</rscale>
<asrwt>0</asrwt>
<pdfrwt beam="2">  1        1 0.58208670E-03 0.51084905E+02</pdfrwt>
<pdfrwt beam="1">  1       -1 0.26528384E-01 0.51084905E+02</pdfrwt>
<totfact> 0.31599570E+05</totfact>
</mgrwt>
</event>
<event>
 4    1  0.4029665E-002  0.4544990E+02  0.7818608E-02  0.1471552E+00
          1   -1    0    0    0  501  0.00000000000E+00  0.00000000000E+00  0.98990069031E+03  0.98990069032E+03  0.50400000000E-02 0. -1.
         -1   -1    0    0  501    0 -0.00000000000E+00 -0.00000000000E+00 -0.52167987478E+00  0.52170422018E+00  0.50400000000E-02 0. -1.
          2    1    1    2    0  502  0.20320291931E+02  0.26856246926E+01  0.70853137096E+03  0.70882778620E+03  0.25500000000E-02 0.  1.
         -2    1    1    2  502    0 -0.20320291931E+02 -0.26856246926E+01  0.28084763947E+03  0.28159460834E+03  0.25500000000E-02 0.  1.
<mgrwt>
<rscale>  0 0.45449899E+02</rscale>
<asrwt>0</asrwt>
<pdfrwt beam="1">  1        1 0.15229200E+00 0.45449899E+02</pdfrwt>
<pdfrwt beam="2">  1       -1 0.80260535E-04 0.45449899E+02</pdfrwt>
<totfact> 0.80528641E+05</totfact>
</mgrwt>
</event>
<event>
 4    1  0.4029665E-002  0.4329813E+02  0.7818608E-02  0.1485255E+00
         -1   -1    0    0  501    0 -0.00000000000E+00  0.00000000000E+00  0.23753000961E+01  0.23753054431E+01  0.50400000000E-02 0.  1.
          1   -1    0    0    0  501  0.00000000000E+00 -0.00000000000E+00 -0.19731467806E+03  0.19731467812E+03  0.50400000000E-02 0.  1.
          2    1    1    2    0  502 -0.76942387512E+01 -0.19722675581E+02 -0.11834970470E+03  0.12022827393E+03  0.25500000000E-02 0.  1.
         -2    1    1    2  502    0  0.76942387512E+01  0.19722675581E+02 -0.76589673259E+02  0.79461709637E+02  0.25500000000E-02 0.  1.
<mgrwt>
<rscale>  0 0.43298135E+02</rscale>
<asrwt>0</asrwt>
<pdfrwt beam="2">  1        1 0.30356092E-01 0.43298135E+02</pdfrwt>
<pdfrwt beam="1">  1       -1 0.36543136E-03 0.43298135E+02</pdfrwt>
<totfact> 0.80154953E+05</totfact>
</mgrwt>
</event>
<event>
 4    1  0.4029665E-002  0.5204677E+02  0.7818608E-02  0.1434604E+00
         -1   -1    0    0  501    0 -0.00000000000E+00  0.00000000000E+00  0.53266072337E+01  0.53266096182E+01  0.50400000000E-02 0. -1.
          1   -1    0    0    0  501  0.00000000000E+00 -0.00000000000E+00 -0.12713839673E+03  0.12713839683E+03  0.50400000000E-02 0. -1.
          2    1    1    2    0  502 -0.23490855597E+02 -0.96786152992E+01 -0.75240241693E+02  0.79414040744E+02  0.25500000000E-02 0. -1.
         -2    1    1    2  502    0  0.23490855597E+02  0.96786152992E+01 -0.46571547801E+02  0.53050965701E+02  0.25500000000E-02 0. -1.
<mgrwt>
<rscale>  0 0.52046766E+02</rscale>
<asrwt>0</asrwt>
<pdfrwt beam="2">  1        1 0.19559751E-01 0.52046766E+02</pdfrwt>
<pdfrwt beam="1">  1       -1 0.81947833E-03 0.52046766E+02</pdfrwt>
<totfact> 0.47209210E+05</totfact>
</mgrwt>
</event>
<event>
 4    1  0.4029665E-002  0.5193216E+02  0.7818608E-02  0.1435190E+00
          1   -1    0    0    0  501  0.00000000000E+00  0.00000000000E+00  0.11899328312E+03  0.11899328323E+03  0.50400000000E-02 0.  1.
         -1   -1    0    0  501    0 -0.00000000000E+00 -0.00000000000E+00 -0.56661774138E+01  0.56661796553E+01  0.50400000000E-02 0.  1.
          2    1    1    2    0  502 -0.70108091170E+01  0.24989209196E+02  0.58561520459E+02  0.64055161429E+02  0.25500000000E-02 0. -1.
         -2    1    1    2  502    0  0.70108091170E+01 -0.24989209196E+02  0.54765585252E+02  0.60604301458E+02  0.25500000000E-02 0. -1.
<mgrwt>
<rscale>  0 0.51932156E+02</rscale>
<asrwt>0</asrwt>
<pdfrwt beam="1">  1        1 0.18306658E-01 0.51932156E+02</pdfrwt>
<pdfrwt beam="2">  1       -1 0.87171982E-03 0.51932156E+02</pdfrwt>
<totfact> 0.47010099E+05</totfact>
</mgrwt>
</event>
<event>
 4    1  0.4029665E-002  0.9095119E+02  0.7818608E-02  0.1300564E+00
          1   -1    0    0    0  501  0.00000000000E+00  0.00000000000E+00  0.87687199613E+03  0.87687199615E+03  0.50400000000E-02 0. -1.
         -1   -1    0    0  501    0 -0.00000000000E+00 -0.00000000000E+00 -0.23584142702E+01  0.23584196555E+01  0.50400000000E-02 0. -1.
          2    1    1    2    0  502 -0.34350507317E+01  0.20299806712E+02  0.45276009112E+02  0.49737297209E+02  0.25500000000E-02 0.  1.
         -2    1    1    2  502    0  0.34350507317E+01 -0.20299806712E+02  0.82923757275E+03  0.82949311860E+03  0.25500000000E-02 0.  1.
<mgrwt>
<rscale>  0 0.90951191E+02</rscale>
<asrwt>0</asrwt>
<pdfrwt beam="1">  1        1 0.13490342E+00 0.90951191E+02</pdfrwt>
<pdfrwt beam="2">  1       -1 0.36283328E-03 0.90951191E+02</pdfrwt>
<totfact> 0.14068478E+05</totfact>
</mgrwt>
</event>
<event>
 4    1  0.4029665E-002  0.2155816E+03  0.7818608E-02  0.1137221E+00
         -1   -1    0    0  501    0 -0.00000000000E+00  0.00000000000E+00  0.19690970785E+03  0.19690970792E+03  0.50400000000E-02 0. -1.
          1   -1    0    0    0  501  0.00000000000E+00 -0.00000000000E+00 -0.59006012053E+02  0.59006012268E+02  0.50400000000E-02 0. -1.
          2    1    1    2    0  502  0.32494826558E+02  0.99144317851E+02  0.10109881933E+03  0.14528069656E+03  0.25500000000E-02 0.  1.
         -2    1    1    2  502    0 -0.32494826558E+02 -0.99144317851E+02  0.36804876470E+02  0.11063502363E+03  0.25500000000E-02 0.  1.
<mgrwt>
<rscale>  0 0.21558160E+03</rscale>
<asrwt>0</asrwt>
<pdfrwt beam="2">  1        1 0.90778480E-02 0.21558160E+03</pdfrwt>
<pdfrwt beam="1">  1       -1 0.30293801E-01 0.21558160E+03</pdfrwt>
<totfact> 0.71885668E+03</totfact>
</mgrwt>
</event>
<event>
 4    1  0.4029665E-002  0.6071558E+02  0.7818608E-02  0.1394853E+00
         -1   -1    0    0  501    0 -0.00000000000E+00  0.00000000000E+00  0.17429274604E+02  0.17429275332E+02  0.50400000000E-02 0. -1.
          1   -1    0    0    0  501  0.00000000000E+00 -0.00000000000E+00 -0.52876282603E+02  0.52876282843E+02  0.50400000000E-02 0. -1.
          2    1    1    2    0  502  0.27119339459E+01  0.26741960166E+02 -0.34062831562E+02  0.43390822990E+02  0.25500000000E-02 0.  1.
         -2    1    1    2  502    0 -0.27119339459E+01 -0.26741960166E+02 -0.13841764378E+01  0.26914735186E+02  0.25500000000E-02 0.  1.
<mgrwt>
<rscale>  0 0.60715576E+02</rscale>
<asrwt>0</asrwt>
<pdfrwt beam="2">  1        1 0.81348127E-02 0.60715576E+02</pdfrwt>
<pdfrwt beam="1">  1       -1 0.26814270E-02 0.60715576E+02</pdfrwt>
<totfact> 0.28375179E+05</totfact>
</mgrwt>
</event>
<event>
 4    1  0.4029665E-002  0.4288904E+02  0.7818608E-02  0.1487967E+00
         -1   -1    0    0  501    0 -0.00000000000E+00  0.00000000000E+00  0.15295756432E+01  0.15295839467E+01  0.50400000000E-02 0. -1.
          1   -1    0    0    0  501  0.00000000000E+00 -0.00000000000E+00 -0.30064945570E+03  0.30064945574E+03  0.50400000000E-02 0. -1.
          2    1    1    2    0  502  0.66549493026E+01  0.20034474023E+02 -0.17610871456E+03  0.17736952346E+03  0.25500000000E-02 0. -1.
         -2    1    1    2  502    0 -0.66549493026E+01 -0.20034474023E+02 -0.12301116549E+03  0.12480951623E+03  0.25500000000E-02 0. -1.
<mgrwt>
<rscale>  0 0.42889036E+02</rscale>
<asrwt>0</asrwt>
<pdfrwt beam="2">  1        1 0.46253716E-01 0.42889036E+02</pdfrwt>
<pdfrwt beam="1">  1       -1 0.23532021E-03 0.42889036E+02</pdfrwt>
<totfact> 0.88207583E+05</totfact>
</mgrwt>
</event>
<event>
 4    1  0.4029665E-002  0.7486635E+02  0.7818608E-02  0.1344285E+00
          1   -1    0    0    0  501  0.00000000000E+00  0.00000000000E+00  0.44140391842E+03  0.44140391844E+03  0.50400000000E-02 0.  1.
         -1   -1    0    0  501    0 -0.00000000000E+00 -0.00000000000E+00 -0.31745114099E+01  0.31745154108E+01  0.50400000000E-02 0.  1.
          2    1    1    2    0  502  0.36461018280E+02  0.77405579874E+01  0.19861204026E+03  0.20207935232E+03  0.25500000000E-02 0.  1.
         -2    1    1    2  502    0 -0.36461018280E+02 -0.77405579874E+01  0.23961736675E+03  0.24249908153E+03  0.25500000000E-02 0.  1.
<mgrwt>
<rscale>  0 0.74866352E+02</rscale>
<asrwt>0</asrwt>
<pdfrwt beam="1">  1        1 0.67908292E-01 0.74866352E+02</pdfrwt>
<pdfrwt beam="2">  1       -1 0.48838670E-03 0.74866352E+02</pdfrwt>
<totfact> 0.22985240E+05</totfact>
</mgrwt>
</event>
<event>
 4    1  0.4029665E-002  0.6734481E+02  0.7818608E-02  0.1369362E+00
         -1   -1    0    0  501    0 -0.00000000000E+00  0.00000000000E+00  0.23668493916E+01  0.23668547578E+01  0.50400000000E-02 0.  1.
          1   -1    0    0    0  501  0.00000000000E+00 -0.00000000000E+00 -0.47904599575E+03  0.47904599578E+03  0.50400000000E-02 0.  1.
          2    1    1    2    0  502 -0.28657279814E+02 -0.17528120963E+02 -0.22179535924E+03  0.22432488961E+03  0.25500000000E-02 0.  1.
         -2    1    1    2  502    0  0.28657279814E+02  0.17528120963E+02 -0.25488378712E+03  0.25708796092E+03  0.25500000000E-02 0.  1.
<mgrwt>
<rscale>  0 0.67344815E+02</rscale>
<asrwt>0</asrwt>
<pdfrwt beam="2">  1        1 0.73699307E-01 0.67344815E+02</pdfrwt>
<pdfrwt beam="1">  1       -1 0.36413147E-03 0.67344815E+02</pdfrwt>
<totfact> 0.30549848E+05</totfact>
</mgrwt>
</event>
<event>
 4    1  0.4029665E-002  0.4553932E+02  0.7818608E-02  0.1471003E+00
         -1   -1    0    0  501    0 -0.00000000000E+00  0.00000000000E+00  0.51616715281E+01  0.51616739887E+01  0.50400000000E-02 0. -1.
          1   -1    0    0    0  501  0.00000000000E+00 -0.00000000000E+00 -0.10044369093E+03  0.10044369105E+03  0.50400000000E-02 0. -1.
          2    1    1    2    0  502  0.95561957743E+01  0.20361124368E+02 -0.55859936152E+02  0.60218176132E+02  0.25500000000E-02 0. -1.
         -2    1    1    2  502    0 -0.95561957743E+01 -0.20361124368E+02 -0.39422083248E+02  0.45387188912E+02  0.25500000000E-02 0. -1.
<mgrwt>
<rscale>  0 0.45539323E+02</rscale>
<asrwt>0</asrwt>
<pdfrwt beam="2">  1        1 0.15452874E-01 0.45539323E+02</pdfrwt>
<pdfrwt beam="1">  1       -1 0.79410359E-03 0.45539323E+02</pdfrwt>
<totfact> 0.63871320E+05</totfact>
</mgrwt>
</event>
<event>
 4    1  0.4029665E-002  0.5190353E+02  0.7818608E-02  0.1435337E+00
         -1   -1    0    0  501    0 -0.00000000000E+00  0.00000000000E+00  0.23993672119E+03  0.23993672125E+03  0.50400000000E-02 0.  1.
          1   -1    0    0    0  501  0.00000000000E+00 -0.00000000000E+00 -0.28069628907E+01  0.28069674154E+01  0.50400000000E-02 0.  1.
          2    1    1    2    0  502  0.27624946476E+01  0.25738211796E+02  0.10993224332E+03  0.11293885537E+03  0.25500000000E-02 0. -1.
         -2    1    1    2  502    0 -0.27624946476E+01 -0.25738211796E+02  0.12719751498E+03  0.12980483329E+03  0.25500000000E-02 0. -1.
<mgrwt>
<rscale>  0 0.51903527E+02</rscale>
<asrwt>0</asrwt>
<pdfrwt beam="2">  1        1 0.43184094E-03 0.51903527E+02</pdfrwt>
<pdfrwt beam="1">  1       -1 0.36913330E-01 0.51903527E+02</pdfrwt>
<totfact> 0.27670459E+05</totfact>
</mgrwt>
</event>
<event>
 4    1  0.4029665E-002  0.5707636E+02  0.7818608E-02  0.1410527E+00
         -1   -1    0    0  501    0 -0.00000000000E+00  0.00000000000E+00  0.59379941087E+02  0.59379941300E+02  0.50400000000E-02 0.  1.
          1   -1    0    0    0  501  0.00000000000E+00 -0.00000000000E+00 -0.13715534649E+02  0.13715535575E+02  0.50400000000E-02 0.  1.
          2    1    1    2    0  502  0.60848012114E+01 -0.27851044906E+02  0.21151574406E+02  0.35497811405E+02  0.25500000000E-02 0.  1.
         -2    1    1    2  502    0 -0.60848012114E+01  0.27851044906E+02  0.24512832031E+02  0.37597665471E+02  0.25500000000E-02 0.  1.
<mgrwt>
<rscale>  0 0.57076359E+02</rscale>
<asrwt>0</asrwt>
<pdfrwt beam="2">  1        1 0.21100824E-02 0.57076359E+02</pdfrwt>
<pdfrwt beam="1">  1       -1 0.91353754E-02 0.57076359E+02</pdfrwt>
<totfact> 0.28870356E+05</totfact>
</mgrwt>
</event>
<event>
 4    1  0.4029665E-002  0.9310264E+02  0.7818608E-02  0.1295507E+00
         -1   -1    0    0  501    0 -0.00000000000E+00  0.00000000000E+00  0.82280030480E+02  0.82280030634E+02  0.50400000000E-02 0. -1.
          1   -1    0    0    0  501  0.00000000000E+00 -0.00000000000E+00 -0.26337197096E+02  0.26337197578E+02  0.50400000000E-02 0. -1.
          2    1    1    2    0  502  0.37154523786E+02  0.26378181872E+02  0.39085659312E+02  0.60032956674E+02  0.25500000000E-02 0. -1.
         -2    1    1    2  502    0 -0.37154523786E+02 -0.26378181872E+02  0.16857174072E+02  0.48584271538E+02  0.25500000000E-02 0. -1.
<mgrwt>
<rscale>  0 0.93102640E+02</rscale>
<asrwt>0</asrwt>
<pdfrwt beam="2">  1        1 0.40518765E-02 0.93102640E+02</pdfrwt>
<pdfrwt beam="1">  1       -1 0.12658466E-01 0.93102640E+02</pdfrwt>
<totfact> 0.79849384E+04</totfact>
</mgrwt>
</event>
<event>
 4    1  0.4029665E-002  0.8088034E+02  0.7818608E-02  0.1326572E+00
          1   -1    0    0    0  501  0.00000000000E+00  0.00000000000E+00  0.29298787043E+01  0.29298830392E+01  0.50400000000E-02 0.  1.
         -1   -1    0    0  501    0 -0.00000000000E+00 -0.00000000000E+00 -0.55818223125E+03  0.55818223127E+03  0.50400000000E-02 0.  1.
          2    1    1    2    0  502  0.35272959961E+02 -0.13765135864E+02 -0.17908676404E+03  0.18304570394E+03  0.25500000000E-02 0. -1.
         -2    1    1    2  502    0 -0.35272959961E+02  0.13765135864E+02 -0.37616558850E+03  0.37806641037E+03  0.25500000000E-02 0. -1.
<mgrwt>
<rscale>  0 0.80880343E+02</rscale>
<asrwt>0</asrwt>
<pdfrwt beam="1">  1        1 0.45075135E-03 0.80880343E+02</pdfrwt>
<pdfrwt beam="2">  1       -1 0.85874105E-01 0.80880343E+02</pdfrwt>
<totfact> 0.59887293E+04</totfact>
</mgrwt>
</event>
<event>
 4    1  0.4029665E-002  0.7290267E+02  0.7818608E-02  0.1350492E+00
         -1   -1    0    0  501    0 -0.00000000000E+00  0.00000000000E+00  0.44416855916E+01  0.44416884511E+01  0.50400000000E-02 0.  1.
          1   -1    0    0    0  501  0.00000000000E+00 -0.00000000000E+00 -0.29914305299E+03  0.29914305303E+03  0.50400000000E-02 0.  1.
          2    1    1    2    0  502  0.20517925476E+02 -0.30041234199E+02 -0.15688199361E+03  0.16104477932E+03  0.25500000000E-02 0.  1.
         -2    1    1    2  502    0 -0.20517925476E+02  0.30041234199E+02 -0.13781937379E+03  0.14253996217E+03  0.25500000000E-02 0.  1.
<mgrwt>
<rscale>  0 0.72902670E+02</rscale>
<asrwt>0</asrwt>
<pdfrwt beam="2">  1        1 0.46021993E-01 0.72902670E+02</pdfrwt>
<pdfrwt beam="1">  1       -1 0.68333670E-03 0.72902670E+02</pdfrwt>
<totfact> 0.23076005E+05</totfact>
</mgrwt>
</event>
<event>
 4    1  0.4029665E-002  0.4690936E+02  0.7818608E-02  0.1462762E+00
          1   -1    0    0    0  501  0.00000000000E+00  0.00000000000E+00  0.47701430434E+03  0.47701430436E+03  0.50400000000E-02 0. -1.
         -1   -1    0    0  501    0 -0.00000000000E+00 -0.00000000000E+00 -0.11532555435E+01  0.11532665564E+01  0.50400000000E-02 0. -1.
          2    1    1    2    0  502  0.21241599407E+02 -0.98416605943E+01  0.22330660214E+03  0.22453040417E+03  0.25500000000E-02 0.  1.
         -2    1    1    2  502    0 -0.21241599407E+02  0.98416605943E+01  0.25255444665E+03  0.25363716675E+03  0.25500000000E-02 0.  1.
<mgrwt>
<rscale>  0 0.46909361E+02</rscale>
<asrwt>0</asrwt>
<pdfrwt beam="1">  1        1 0.73386692E-01 0.46909361E+02</pdfrwt>
<pdfrwt beam="2">  1       -1 0.17742508E-03 0.46909361E+02</pdfrwt>
<totfact> 0.75899140E+05</totfact>
</mgrwt>
</event>
<event>
 4    1  0.4029665E-002  0.6695489E+02  0.7818608E-02  0.1370765E+00
         -1   -1    0    0  501    0 -0.00000000000E+00  0.00000000000E+00  0.11648022327E+02  0.11648023418E+02  0.50400000000E-02 0. -1.
          1   -1    0    0    0  501  0.00000000000E+00 -0.00000000000E+00 -0.96217134528E+02  0.96217134660E+02  0.50400000000E-02 0. -1.
          2    1    1    2    0  502  0.91253219510E+01  0.24552653959E+02 -0.75870785803E+02  0.80265063771E+02  0.25500000000E-02 0.  1.
         -2    1    1    2  502    0 -0.91253219510E+01 -0.24552653959E+02 -0.86983263975E+01  0.27600094307E+02  0.25500000000E-02 0.  1.
<mgrwt>
<rscale>  0 0.66954892E+02</rscale>
<asrwt>0</asrwt>
<pdfrwt beam="2">  1        1 0.14802636E-01 0.66954892E+02</pdfrwt>
<pdfrwt beam="1">  1       -1 0.17920036E-02 0.66954892E+02</pdfrwt>
<totfact> 0.23696618E+05</totfact>
</mgrwt>
</event>
<event>
 4    1  0.4029665E-002  0.1084301E+03  0.7818608E-02  0.1263505E+00
         -1   -1    0    0  501    0 -0.00000000000E+00  0.00000000000E+00  0.47760014867E+01  0.47760041460E+01  0.50400000000E-02 0.  1.
          1   -1    0    0    0  501  0.00000000000E+00 -0.00000000000E+00 -0.61542489340E+03  0.61542489342E+03  0.50400000000E-02 0.  1.
          2    1    1    2    0  502 -0.55934543717E+01 -0.47722227448E+02 -0.16169272369E+03  0.16868086621E+03  0.25500000000E-02 0.  1.
         -2    1    1    2  502    0  0.55934543717E+01  0.47722227448E+02 -0.44895616822E+03  0.45152003136E+03  0.25500000000E-02 0.  1.
<mgrwt>
<rscale>  0 0.10843009E+03</rscale>
<asrwt>0</asrwt>
<pdfrwt beam="2">  1        1 0.94680690E-01 0.10843009E+03</pdfrwt>
<pdfrwt beam="1">  1       -1 0.73477015E-03 0.10843009E+03</pdfrwt>
<totfact> 0.89281693E+04</totfact>
</mgrwt>
</event>
<event>
 4    1  0.4029665E-002  0.5036687E+02  0.7818608E-02  0.1443373E+00
         -1   -1    0    0  501    0 -0.00000000000E+00  0.00000000000E+00  0.92078196895E+02  0.92078197033E+02  0.50400000000E-02 0. -1.
          1   -1    0    0    0  501  0.00000000000E+00 -0.00000000000E+00 -0.68876816161E+01  0.68876834600E+01  0.50400000000E-02 0. -1.
          2    1    1    2    0  502 -0.15852640912E+02 -0.13568663651E+02  0.70298996431E+02  0.73330510450E+02  0.25500000000E-02 0. -1.
         -2    1    1    2  502    0  0.15852640912E+02  0.13568663651E+02  0.14891518848E+02  0.25635370043E+02  0.25500000000E-02 0. -1.
<mgrwt>
<rscale>  0 0.50366870E+02</rscale>
<asrwt>0</asrwt>
<pdfrwt beam="2">  1        1 0.10596434E-02 0.50366870E+02</pdfrwt>
<pdfrwt beam="1">  1       -1 0.14165877E-01 0.50366870E+02</pdfrwt>
<totfact> 0.37044889E+05</totfact>
</mgrwt>
</event>
<event>
 4    1  0.4029665E-002  0.1249176E+03  0.7818608E-02  0.1235198E+00
          1   -1    0    0    0  501  0.00000000000E+00  0.00000000000E+00  0.17739462766E+02  0.17739463482E+02  0.50400000000E-02 0.  1.
         -1   -1    0    0  501    0 -0.00000000000E+00 -0.00000000000E+00 -0.21991099903E+03  0.21991099909E+03  0.50400000000E-02 0.  1.
          2    1    1    2    0  502 -0.30900786103E+02 -0.35447299776E+02 -0.22882653029E+02  0.52297088441E+02  0.25500000000E-02 0. -1.
         -2    1    1    2  502    0  0.30900786103E+02  0.35447299776E+02 -0.17928888324E+03  0.18535337413E+03  0.25500000000E-02 0. -1.
<mgrwt>
<rscale>  0 0.12491762E+03</rscale>
<asrwt>0</asrwt>
<pdfrwt beam="1">  1        1 0.27291483E-02 0.12491762E+03</pdfrwt>
<pdfrwt beam="2">  1       -1 0.33832459E-01 0.12491762E+03</pdfrwt>
<totfact> 0.29479800E+04</totfact>
</mgrwt>
</event>
<event>
 4    1  0.4029665E-002  0.4964681E+02  0.7818608E-02  0.1447256E+00
         -1   -1    0    0  501    0 -0.00000000000E+00  0.00000000000E+00  0.38615404727E+01  0.38615437618E+01  0.50400000000E-02 0. -1.
          1   -1    0    0    0  501  0.00000000000E+00 -0.00000000000E+00 -0.15957391203E+03  0.15957391211E+03  0.50400000000E-02 0. -1.
          2    1    1    2    0  502 -0.19125995580E+02  0.11667359227E+02 -0.11304639409E+03  0.11524503548E+03  0.25500000000E-02 0. -1.
         -2    1    1    2  502    0  0.19125995580E+02 -0.11667359227E+02 -0.42665977463E+02  0.48190420393E+02  0.25500000000E-02 0. -1.
<mgrwt>
<rscale>  0 0.49646808E+02</rscale>
<asrwt>0</asrwt>
<pdfrwt beam="2">  1        1 0.24549828E-01 0.49646808E+02</pdfrwt>
<pdfrwt beam="1">  1       -1 0.59408353E-03 0.49646808E+02</pdfrwt>
<totfact> 0.55086933E+05</totfact>
</mgrwt>
</event>
<event>
 4    1  0.4029665E-002  0.2241387E+03  0.7818608E-02  0.1130835E+00
          1   -1    0    0    0  501  0.00000000000E+00  0.00000000000E+00  0.44876588553E+03  0.44876588556E+03  0.50400000000E-02 0. -1.
         -1   -1    0    0  501    0 -0.00000000000E+00 -0.00000000000E+00 -0.27986845732E+02  0.27986846185E+02  0.50400000000E-02 0. -1.
          2    1    1    2    0  502  0.74309146827E+02 -0.15485770156E+01  0.31980242792E+02  0.80913431076E+02  0.25500000000E-02 0. -1.
         -2    1    1    2  502    0 -0.74309146827E+02  0.15485770156E+01  0.38879879701E+03  0.39583930067E+03  0.25500000000E-02 0. -1.
<mgrwt>
<rscale>  0 0.22413872E+03</rscale>
<asrwt>0</asrwt>
<pdfrwt beam="1">  1        1 0.69040912E-01 0.22413872E+03</pdfrwt>
<pdfrwt beam="2">  1       -1 0.43056682E-02 0.22413872E+03</pdfrwt>
<totfact> 0.11278834E+04</totfact>
</mgrwt>
</event>
<event>
 4    1  0.4029665E-002  0.6488123E+02  0.7818608E-02  0.1378419E+00
          1   -1    0    0    0  501  0.00000000000E+00  0.00000000000E+00  0.32569801664E+02  0.32569802054E+02  0.50400000000E-02 0.  1.
         -1   -1    0    0  501    0 -0.00000000000E+00 -0.00000000000E+00 -0.32311944024E+02  0.32311944417E+02  0.50400000000E-02 0.  1.
          2    1    1    2    0  502 -0.10021538347E+02 -0.26056556838E+02  0.16652322975E+02  0.32506541681E+02  0.25500000000E-02 0.  1.
         -2    1    1    2  502    0  0.10021538347E+02  0.26056556838E+02 -0.16394465335E+02  0.32375204790E+02  0.25500000000E-02 0.  1.
<mgrwt>
<rscale>  0 0.64881234E+02</rscale>
<asrwt>0</asrwt>
<pdfrwt beam="1">  1        1 0.50107388E-02 0.64881234E+02</pdfrwt>
<pdfrwt beam="2">  1       -1 0.49710684E-02 0.64881234E+02</pdfrwt>
<totfact> 0.22543398E+05</totfact>
</mgrwt>
</event>
<event>
 4    1  0.4029665E-002  0.5372365E+03  0.7818608E-02  0.1004492E+00
          1   -1    0    0    0  501  0.00000000000E+00  0.00000000000E+00  0.16020916757E+03  0.16020916765E+03  0.50400000000E-02 0.  1.
         -1   -1    0    0  501    0 -0.00000000000E+00 -0.00000000000E+00 -0.45038466318E+03  0.45038466321E+03  0.50400000000E-02 0.  1.
          2    1    1    2    0  502  0.18901574514E+03  0.16909431745E+03 -0.24569556116E+03  0.35310925913E+03  0.25500000000E-02 0.  1.
         -2    1    1    2  502    0 -0.18901574514E+03 -0.16909431745E+03 -0.44479934446E+02  0.25748457173E+03  0.25500000000E-02 0.  1.
<mgrwt>
<rscale>  0 0.53723645E+03</rscale>
<asrwt>0</asrwt>
<pdfrwt beam="1">  1        1 0.24647564E-01 0.53723645E+03</pdfrwt>
<pdfrwt beam="2">  1       -1 0.69289948E-01 0.53723645E+03</pdfrwt>
<totfact> 0.42480858E+02</totfact>
</mgrwt>
</event>
<event>
 4    1  0.4029665E-002  0.8159283E+02  0.7818608E-02  0.1324591E+00
          1   -1    0    0    0  501  0.00000000000E+00  0.00000000000E+00  0.42522984819E+03  0.42522984822E+03  0.50400000000E-02 0. -1.
         -1   -1    0    0  501    0 -0.00000000000E+00 -0.00000000000E+00 -0.39139933508E+01  0.39139965958E+01  0.50400000000E-02 0. -1.
          2    1    1    2    0  502  0.24282617982E+02 -0.91330702423E+01  0.45061475027E+02  0.51996106068E+02  0.25500000000E-02 0.  1.
         -2    1    1    2  502    0 -0.24282617982E+02  0.91330702423E+01  0.37625437981E+03  0.37714773874E+03  0.25500000000E-02 0.  1.
<mgrwt>
<rscale>  0 0.81592831E+02</rscale>
<asrwt>0</asrwt>
<pdfrwt beam="1">  1        1 0.65419952E-01 0.81592831E+02</pdfrwt>
<pdfrwt beam="2">  1       -1 0.60215331E-03 0.81592831E+02</pdfrwt>
<totfact> 0.18258153E+05</totfact>
</mgrwt>
</event>
<event>
 4    1  0.4029665E-002  0.1085084E+03  0.7818608E-02  0.1263357E+00
          1   -1    0    0    0  501  0.00000000000E+00  0.00000000000E+00  0.93589656871E+03  0.93589656872E+03  0.50400000000E-02 0. -1.
         -1   -1    0    0  501    0 -0.00000000000E+00 -0.00000000000E+00 -0.31451283649E+01  0.31451324032E+01  0.50400000000E-02 0. -1.
          2    1    1    2    0  502  0.43866996317E+02  0.10729662963E+02  0.72658603494E+03  0.72798812161E+03  0.25500000000E-02 0. -1.
         -2    1    1    2  502    0 -0.43866996317E+02 -0.10729662963E+02  0.20616540540E+03  0.21105357951E+03  0.25500000000E-02 0. -1.
<mgrwt>
<rscale>  0 0.10850837E+03</rscale>
<asrwt>0</asrwt>
<pdfrwt beam="1">  1        1 0.14398399E+00 0.10850837E+03</pdfrwt>
<pdfrwt beam="2">  1       -1 0.48386656E-03 0.10850837E+03</pdfrwt>
<totfact> 0.86879186E+04</totfact>
</mgrwt>
</event>
<event>
 4    1  0.4029665E-002  0.5283785E+02  0.7818608E-02  0.1430609E+00
          1   -1    0    0    0  501  0.00000000000E+00  0.00000000000E+00  0.37135530458E+02  0.37135530800E+02  0.50400000000E-02 0. -1.
         -1   -1    0    0  501    0 -0.00000000000E+00 -0.00000000000E+00 -0.18794930123E+02  0.18794930799E+02  0.50400000000E-02 0. -1.
          2    1    1    2    0  502  0.72752077586E+01 -0.22819449746E+02 -0.26314225333E+01  0.24095234502E+02  0.25500000000E-02 0.  1.
         -2    1    1    2  502    0 -0.72752077586E+01  0.22819449746E+02  0.20972022868E+02  0.31835227097E+02  0.25500000000E-02 0.  1.
<mgrwt>
<rscale>  0 0.52837855E+02</rscale>
<asrwt>0</asrwt>
<pdfrwt beam="1">  1        1 0.57131585E-02 0.52837855E+02</pdfrwt>
<pdfrwt beam="2">  1       -1 0.28915278E-02 0.52837855E+02</pdfrwt>
<totfact> 0.39304093E+05</totfact>
</mgrwt>
</event>
<event>
 4    1  0.4029665E-002  0.1576473E+03  0.7818608E-02  0.1191379E+00
         -1   -1    0    0  501    0 -0.00000000000E+00  0.00000000000E+00  0.13004061148E+03  0.13004061157E+03  0.50400000000E-02 0.  1.
          1   -1    0    0    0  501  0.00000000000E+00 -0.00000000000E+00 -0.47778663284E+02  0.47778663550E+02  0.50400000000E-02 0.  1.
          2    1    1    2    0  502  0.29082656417E+00  0.75334321160E+02  0.67289403080E+02  0.10101093158E+03  0.25500000000E-02 0.  1.
         -2    1    1    2  502    0 -0.29082656417E+00 -0.75334321160E+02  0.14972545112E+02  0.76808343546E+02  0.25500000000E-02 0.  1.
<mgrwt>
<rscale>  0 0.15764729E+03</rscale>
<asrwt>0</asrwt>
<pdfrwt beam="2">  1        1 0.73505636E-02 0.15764729E+03</pdfrwt>
<pdfrwt beam="1">  1       -1 0.20006248E-01 0.15764729E+03</pdfrwt>
<totfact> 0.18521373E+04</totfact>
</mgrwt>
</event>
<event>
 4    1  0.4029665E-002  0.6591773E+02  0.7818608E-02  0.1374552E+00
         -1   -1    0    0  501    0 -0.00000000000E+00  0.00000000000E+00  0.15080980046E+03  0.15080980054E+03  0.50400000000E-02 0. -1.
          1   -1    0    0    0  501  0.00000000000E+00 -0.00000000000E+00 -0.72030244133E+01  0.72030261766E+01  0.50400000000E-02 0. -1.
          2    1    1    2    0  502  0.25967707010E+02  0.15907466979E+02  0.10202210038E+03  0.10647008165E+03  0.25500000000E-02 0. -1.
         -2    1    1    2  502    0 -0.25967707010E+02 -0.15907466979E+02  0.41584675663E+02  0.51542745072E+02  0.25500000000E-02 0. -1.
<mgrwt>
<rscale>  0 0.65917731E+02</rscale>
<asrwt>0</asrwt>
<pdfrwt beam="2">  1        1 0.11081577E-02 0.65917731E+02</pdfrwt>
<pdfrwt beam="1">  1       -1 0.23201508E-01 0.65917731E+02</pdfrwt>
<totfact> 0.17188100E+05</totfact>
</mgrwt>
</event>
<event>
 4    1  0.4029665E-002  0.5140350E+02  0.7818608E-02  0.1437915E+00
          1   -1    0    0    0  501  0.00000000000E+00  0.00000000000E+00  0.42270942979E+02  0.42270943279E+02  0.50400000000E-02 0. -1.
         -1   -1    0    0  501    0 -0.00000000000E+00 -0.00000000000E+00 -0.15627282049E+02  0.15627282862E+02  0.50400000000E-02 0. -1.
          2    1    1    2    0  502 -0.12627217226E+02 -0.17361473591E+02 -0.25956851618E+01  0.21624175547E+02  0.25500000000E-02 0.  1.
         -2    1    1    2  502    0  0.12627217226E+02  0.17361473591E+02  0.29239346092E+02  0.36274050594E+02  0.25500000000E-02 0.  1.
<mgrwt>
<rscale>  0 0.51403501E+02</rscale>
<asrwt>0</asrwt>
<pdfrwt beam="1">  1        1 0.65032221E-02 0.51403501E+02</pdfrwt>
<pdfrwt beam="2">  1       -1 0.24041973E-02 0.51403501E+02</pdfrwt>
<totfact> 0.42728189E+05</totfact>
</mgrwt>
</event>
<event>
 4    1  0.4029665E-002  0.6696608E+02  0.7818608E-02  0.1370725E+00
         -1   -1    0    0  501    0 -0.00000000000E+00  0.00000000000E+00  0.48345169951E+02  0.48345170214E+02  0.50400000000E-02 0.  1.
          1   -1    0    0    0  501  0.00000000000E+00 -0.00000000000E+00 -0.23189784470E+02  0.23189785018E+02  0.50400000000E-02 0.  1.
          2    1    1    2    0  502  0.15960751043E+02  0.17893076124E+02  0.37543279508E+02  0.44546667550E+02  0.25500000000E-02 0. -1.
         -2    1    1    2  502    0 -0.15960751043E+02 -0.17893076124E+02 -0.12387894027E+02  0.26988287682E+02  0.25500000000E-02 0. -1.
<mgrwt>
<rscale>  0 0.66966084E+02</rscale>
<asrwt>0</asrwt>
<pdfrwt beam="2">  1        1 0.35676592E-02 0.66966084E+02</pdfrwt>
<pdfrwt beam="1">  1       -1 0.74377185E-02 0.66966084E+02</pdfrwt>
<totfact> 0.19877718E+05</totfact>
</mgrwt>
</event>
<event>
 4    1  0.4029665E-002  0.7895514E+02  0.7818608E-02  0.1332043E+00
          1   -1    0    0    0  501  0.00000000000E+00  0.00000000000E+00  0.44534627461E+03  0.44534627464E+03  0.50400000000E-02 0.  1.
         -1   -1    0    0  501    0 -0.00000000000E+00 -0.00000000000E+00 -0.34994739224E+01  0.34994775518E+01  0.50400000000E-02 0.  1.
          2    1    1    2    0  502  0.28145689097E+02  0.14865981351E+02  0.88173265054E+02  0.93742743149E+02  0.25500000000E-02 0.  1.
         -2    1    1    2  502    0 -0.28145689097E+02 -0.14865981351E+02  0.35367353564E+03  0.35510300904E+03  0.25500000000E-02 0.  1.
<mgrwt>
<rscale>  0 0.78955139E+02</rscale>
<asrwt>0</asrwt>
<pdfrwt beam="1">  1        1 0.68514741E-01 0.78955139E+02</pdfrwt>
<pdfrwt beam="2">  1       -1 0.53838144E-03 0.78955139E+02</pdfrwt>
<totfact> 0.20034533E+05</totfact>
</mgrwt>
</event>
<event>
 4    1  0.4029665E-002  0.5717323E+02  0.7818608E-02  0.1410092E+00
         -1   -1    0    0  501    0 -0.00000000000E+00  0.00000000000E+00  0.11490160130E+03  0.11490160141E+03  0.50400000000E-02 0. -1.
          1   -1    0    0    0  501  0.00000000000E+00 -0.00000000000E+00 -0.71121232018E+01  0.71121249876E+01  0.50400000000E-02 0. -1.
          2    1    1    2    0  502  0.26976686215E+02 -0.83826558723E+01  0.63242010093E+02  0.69264437959E+02  0.25500000000E-02 0. -1.
         -2    1    1    2  502    0 -0.26976686215E+02  0.83826558723E+01  0.44547468001E+02  0.52749288436E+02  0.25500000000E-02 0. -1.
<mgrwt>
<rscale>  0 0.57173227E+02</rscale>
<asrwt>0</asrwt>
<pdfrwt beam="2">  1        1 0.10941731E-02 0.57173227E+02</pdfrwt>
<pdfrwt beam="1">  1       -1 0.17677168E-01 0.57173227E+02</pdfrwt>
<totfact> 0.26018029E+05</totfact>
</mgrwt>
</event>
<event>
 4    1  0.4029665E-002  0.8037781E+02  0.7818608E-02  0.1327983E+00
          1   -1    0    0    0  501  0.00000000000E+00  0.00000000000E+00  0.64837817216E+03  0.64837817218E+03  0.50400000000E-02 0. -1.
         -1   -1    0    0  501    0 -0.00000000000E+00 -0.00000000000E+00 -0.24910561906E+01  0.24910612892E+01  0.50400000000E-02 0. -1.
          2    1    1    2    0  502  0.39582491767E+02 -0.11368806581E+01  0.26738066296E+03  0.27029703121E+03  0.25500000000E-02 0.  1.
         -2    1    1    2  502    0 -0.39582491767E+02  0.11368806581E+01  0.37850645302E+03  0.38057220226E+03  0.25500000000E-02 0.  1.
<mgrwt>
<rscale>  0 0.80377811E+02</rscale>
<asrwt>0</asrwt>
<pdfrwt beam="1">  1        1 0.99750417E-01 0.80377811E+02</pdfrwt>
<pdfrwt beam="2">  1       -1 0.38324008E-03 0.80377811E+02</pdfrwt>
<totfact> 0.19790254E+05</totfact>
</mgrwt>
</event>
<event>
 4    1  0.4029665E-002  0.4052229E+02  0.7818608E-02  0.1504403E+00
         -1   -1    0    0  501    0 -0.00000000000E+00  0.00000000000E+00  0.10879968587E+01  0.10880085322E+01  0.50400000000E-02 0. -1.
          1   -1    0    0    0  501  0.00000000000E+00 -0.00000000000E+00 -0.37730979964E+03  0.37730979967E+03  0.50400000000E-02 0. -1.
          2    1    1    2    0  502  0.17953754926E+02 -0.90803545347E+01 -0.16576994448E+03  0.16698642056E+03  0.25500000000E-02 0.  1.
         -2    1    1    2  502    0 -0.17953754926E+02  0.90803545347E+01 -0.21045185830E+03  0.21141138764E+03  0.25500000000E-02 0.  1.
<mgrwt>
<rscale>  0 0.40522295E+02</rscale>
<asrwt>0</asrwt>
<pdfrwt beam="2">  1        1 0.58047558E-01 0.40522295E+02</pdfrwt>
<pdfrwt beam="1">  1       -1 0.16738533E-03 0.40522295E+02</pdfrwt>
<totfact> 0.10509022E+06</totfact>
</mgrwt>
</event>
<event>
 4    1  0.4029665E-002  0.8759613E+02  0.7818608E-02  0.1308780E+00
         -1   -1    0    0  501    0 -0.00000000000E+00  0.00000000000E+00  0.14187838520E+01  0.14187928038E+01  0.50400000000E-02 0.  1.
          1   -1    0    0    0  501  0.00000000000E+00 -0.00000000000E+00 -0.13520485489E+04  0.13520485490E+04  0.50400000000E-02 0.  1.
          2    1    1    2    0  502  0.35141979366E+02  0.22483811882E+02 -0.46929139187E+03  0.47114211338E+03  0.25500000000E-02 0. -1.
         -2    1    1    2  502    0 -0.35141979366E+02 -0.22483811882E+02 -0.88133837322E+03  0.88232522837E+03  0.25500000000E-02 0. -1.
<mgrwt>
<rscale>  0 0.87596135E+02</rscale>
<asrwt>0</asrwt>
<pdfrwt beam="2">  1        1 0.20800644E+00 0.87596135E+02</pdfrwt>
<pdfrwt beam="1">  1       -1 0.21827621E-03 0.87596135E+02</pdfrwt>
<totfact> 0.13248517E+05</totfact>
</mgrwt>
</event>
<event>
 4    1  0.4029665E-002  0.6599795E+02  0.7818608E-02  0.1374256E+00
          1   -1    0    0    0  501  0.00000000000E+00  0.00000000000E+00  0.32823406057E+03  0.32823406061E+03  0.50400000000E-02 0.  1.
         -1   -1    0    0  501    0 -0.00000000000E+00 -0.00000000000E+00 -0.33175460191E+01  0.33175498474E+01  0.50400000000E-02 0.  1.
          2    1    1    2    0  502  0.11999475366E+01  0.26712865384E+02  0.25960030826E+03  0.26097382456E+03  0.25500000000E-02 0. -1.
         -2    1    1    2  502    0 -0.11999475366E+01 -0.26712865384E+02  0.65316206295E+02  0.70577785899E+02  0.25500000000E-02 0. -1.
<mgrwt>
<rscale>  0 0.65997947E+02</rscale>
<asrwt>0</asrwt>
<pdfrwt beam="1">  1        1 0.50497517E-01 0.65997947E+02</pdfrwt>
<pdfrwt beam="2">  1       -1 0.51039230E-03 0.65997947E+02</pdfrwt>
<totfact> 0.30351513E+05</totfact>
</mgrwt>
</event>
<event>
 4    1  0.4029665E-002  0.5438726E+02  0.7818608E-02  0.1423019E+00
          1   -1    0    0    0  501  0.00000000000E+00  0.00000000000E+00  0.21871196302E+01  0.21871254373E+01  0.50400000000E-02 0.  1.
         -1   -1    0    0  501    0 -0.00000000000E+00 -0.00000000000E+00 -0.33811245893E+03  0.33811245897E+03  0.50400000000E-02 0.  1.
          2    1    1    2    0  502 -0.19893211501E+01 -0.25829088336E+02 -0.11621701902E+03  0.11906928538E+03  0.25500000000E-02 0.  1.
         -2    1    1    2  502    0  0.19893211501E+01  0.25829088336E+02 -0.21970832028E+03  0.22123029903E+03  0.25500000000E-02 0.  1.
<mgrwt>
<rscale>  0 0.54387256E+02</rscale>
<asrwt>0</asrwt>
<pdfrwt beam="1">  1        1 0.33648066E-03 0.54387256E+02</pdfrwt>
<pdfrwt beam="2">  1       -1 0.52017260E-01 0.54387256E+02</pdfrwt>
<totfact> 0.21663184E+05</totfact>
</mgrwt>
</event>
<event>
 4    1  0.4029665E-002  0.5094315E+02  0.7818608E-02  0.1440320E+00
          1   -1    0    0    0  501  0.00000000000E+00  0.00000000000E+00  0.42080493548E+01  0.42080523730E+01  0.50400000000E-02 0.  1.
         -1   -1    0    0  501    0 -0.00000000000E+00 -0.00000000000E+00 -0.15418094068E+03  0.15418094076E+03  0.50400000000E-02 0.  1.
          2    1    1    2    0  502 -0.15682260523E+02 -0.15605399122E+02 -0.35739953425E+02  0.42033392133E+02  0.25500000000E-02 0.  1.
         -2    1    1    2  502    0  0.15682260523E+02  0.15605399122E+02 -0.11423293790E+03  0.11635560100E+03  0.25500000000E-02 0.  1.
<mgrwt>
<rscale>  0 0.50943155E+02</rscale>
<asrwt>0</asrwt>
<pdfrwt beam="1">  1        1 0.64739257E-03 0.50943155E+02</pdfrwt>
<pdfrwt beam="2">  1       -1 0.23720141E-01 0.50943155E+02</pdfrwt>
<totfact> 0.32671371E+05</totfact>
</mgrwt>
</event>
<event>
 4    1  0.4029665E-002  0.5763206E+02  0.7818608E-02  0.1408046E+00
         -1   -1    0    0  501    0 -0.00000000000E+00  0.00000000000E+00  0.14969219334E+01  0.14969304180E+01  0.50400000000E-02 0.  1.
          1   -1    0    0    0  501  0.00000000000E+00 -0.00000000000E+00 -0.55471239980E+03  0.55471239982E+03  0.50400000000E-02 0.  1.
          2    1    1    2    0  502 -0.43800602994E+01 -0.28449723190E+02 -0.28952658465E+03  0.29095397386E+03  0.25500000000E-02 0.  1.
         -2    1    1    2  502    0  0.43800602994E+01  0.28449723190E+02 -0.26368889321E+03  0.26525535638E+03  0.25500000000E-02 0.  1.
<mgrwt>
<rscale>  0 0.57632058E+02</rscale>
<asrwt>0</asrwt>
<pdfrwt beam="2">  1        1 0.85340206E-01 0.57632058E+02</pdfrwt>
<pdfrwt beam="1">  1       -1 0.23029678E-03 0.57632058E+02</pdfrwt>
<totfact> 0.46112153E+05</totfact>
</mgrwt>
</event>
<event>
 4    1  0.4029665E-002  0.7041613E+02  0.7818608E-02  0.1358684E+00
         -1   -1    0    0  501    0 -0.00000000000E+00  0.00000000000E+00  0.22317279966E+02  0.22317280535E+02  0.50400000000E-02 0.  1.
          1   -1    0    0    0  501  0.00000000000E+00 -0.00000000000E+00 -0.55544753688E+02  0.55544753917E+02  0.50400000000E-02 0.  1.
          2    1    1    2    0  502  0.16845135368E+01 -0.35132368272E+02 -0.14869972772E+02  0.38186869249E+02  0.25500000000E-02 0. -1.
         -2    1    1    2  502    0 -0.16845135368E+01  0.35132368272E+02 -0.18357500950E+02  0.39675165203E+02  0.25500000000E-02 0. -1.
<mgrwt>
<rscale>  0 0.70416130E+02</rscale>
<asrwt>0</asrwt>
<pdfrwt beam="2">  1        1 0.85453468E-02 0.70416130E+02</pdfrwt>
<pdfrwt beam="1">  1       -1 0.34334278E-02 0.70416130E+02</pdfrwt>
<totfact> 0.19272818E+05</totfact>
</mgrwt>
</event>
<event>
 4    1  0.4029665E-002  0.1198761E+03  0.7818608E-02  0.1243302E+00
          1   -1    0    0    0  501  0.00000000000E+00  0.00000000000E+00  0.17313180206E+04  0.17313180206E+04  0.50400000000E-02 0. -1.
         -1   -1    0    0  501    0 -0.00000000000E+00 -0.00000000000E+00 -0.20750463540E+01  0.20750524747E+01  0.50400000000E-02 0. -1.
          2    1    1    2    0  502 -0.38884064107E+02 -0.25610146650E+02  0.31882688646E+03  0.32220868019E+03  0.25500000000E-02 0. -1.
         -2    1    1    2  502    0  0.38884064107E+02  0.25610146650E+02  0.14104160877E+04  0.14111843928E+04  0.25500000000E-02 0. -1.
<mgrwt>
<rscale>  0 0.11987611E+03</rscale>
<asrwt>0</asrwt>
<pdfrwt beam="1">  1        1 0.26635669E+00 0.11987611E+03</pdfrwt>
<pdfrwt beam="2">  1       -1 0.31923828E-03 0.11987611E+03</pdfrwt>
<totfact> 0.46164822E+04</totfact>
</mgrwt>
</event>
<event>
 4    1  0.4029665E-002  0.4920773E+02  0.7818608E-02  0.1449662E+00
          1   -1    0    0    0  501  0.00000000000E+00  0.00000000000E+00  0.87642994251E+02  0.87642994396E+02  0.50400000000E-02 0. -1.
         -1   -1    0    0  501    0 -0.00000000000E+00 -0.00000000000E+00 -0.69069998343E+01  0.69070016732E+01  0.50400000000E-02 0. -1.
          2    1    1    2    0  502 -0.10956554338E+02 -0.21830016071E+02  0.46053188194E+02  0.52129567752E+02  0.25500000000E-02 0.  1.
         -2    1    1    2  502    0  0.10956554338E+02  0.21830016071E+02  0.34682806223E+02  0.42420428317E+02  0.25500000000E-02 0.  1.
<mgrwt>
<rscale>  0 0.49207733E+02</rscale>
<asrwt>0</asrwt>
<pdfrwt beam="1">  1        1 0.13483536E-01 0.49207733E+02</pdfrwt>
<pdfrwt beam="2">  1       -1 0.10626156E-02 0.49207733E+02</pdfrwt>
<totfact> 0.51676341E+05</totfact>
</mgrwt>
</event>
<event>
 4    1  0.4029665E-002  0.5493710E+02  0.7818608E-02  0.1420397E+00
          1   -1    0    0    0  501  0.00000000000E+00  0.00000000000E+00  0.18706335697E+03  0.18706335704E+03  0.50400000000E-02 0. -1.
         -1   -1    0    0  501    0 -0.00000000000E+00 -0.00000000000E+00 -0.40335050903E+01  0.40335082392E+01  0.50400000000E-02 0. -1.
          2    1    1    2    0  502  0.12489944178E+02  0.19543799903E+02  0.40325598492E+02  0.46520024940E+02  0.25500000000E-02 0.  1.
         -2    1    1    2  502    0 -0.12489944178E+02 -0.19543799903E+02  0.14270425339E+03  0.14457684034E+03  0.25500000000E-02 0.  1.
<mgrwt>
<rscale>  0 0.54937103E+02</rscale>
<asrwt>0</asrwt>
<pdfrwt beam="1">  1        1 0.28778973E-01 0.54937103E+02</pdfrwt>
<pdfrwt beam="2">  1       -1 0.62053960E-03 0.54937103E+02</pdfrwt>
<totfact> 0.43827449E+05</totfact>
</mgrwt>
</event>
<event>
 4    1  0.4029665E-002  0.4832180E+02  0.7818608E-02  0.1454609E+00
          1   -1    0    0    0  501  0.00000000000E+00  0.00000000000E+00  0.23909332479E+01  0.23909385600E+01  0.50400000000E-02 0. -1.
         -1   -1    0    0  501    0 -0.00000000000E+00 -0.00000000000E+00 -0.24415090029E+03  0.24415090034E+03  0.50400000000E-02 0. -1.
          2    1    1    2    0  502 -0.17753646486E+02  0.16350525543E+02 -0.12650966580E+03  0.12879140964E+03  0.25500000000E-02 0.  1.
         -2    1    1    2  502    0  0.17753646486E+02 -0.16350525543E+02 -0.11525030124E+03  0.11775042926E+03  0.25500000000E-02 0.  1.
<mgrwt>
<rscale>  0 0.48321803E+02</rscale>
<asrwt>0</asrwt>
<pdfrwt beam="1">  1        1 0.36783649E-03 0.48321803E+02</pdfrwt>
<pdfrwt beam="2">  1       -1 0.37561658E-01 0.48321803E+02</pdfrwt>
<totfact> 0.32848363E+05</totfact>
</mgrwt>
</event>
<event>
 4    1  0.4029665E-002  0.4290450E+02  0.7818608E-02  0.1487864E+00
         -1   -1    0    0  501    0 -0.00000000000E+00  0.00000000000E+00  0.81102084455E+00  0.81103650466E+00  0.50400000000E-02 0.  1.
          1   -1    0    0    0  501  0.00000000000E+00 -0.00000000000E+00 -0.56742624399E+03  0.56742624401E+03  0.50400000000E-02 0.  1.
          2    1    1    2    0  502  0.20500523019E+02  0.58961842247E+01 -0.25321512110E+03  0.25411205008E+03  0.25500000000E-02 0.  1.
         -2    1    1    2  502    0 -0.20500523019E+02 -0.58961842247E+01 -0.31340010204E+03  0.31412523044E+03  0.25500000000E-02 0.  1.
<mgrwt>
<rscale>  0 0.42904497E+02</rscale>
<asrwt>0</asrwt>
<pdfrwt beam="2">  1        1 0.87296029E-01 0.42904497E+02</pdfrwt>
<pdfrwt beam="1">  1       -1 0.12477410E-03 0.42904497E+02</pdfrwt>
<totfact> 0.96021159E+05</totfact>
</mgrwt>
</event>
<event>
 4    1  0.4029665E-002  0.5311364E+02  0.7818608E-02  0.1429236E+00
          1   -1    0    0    0  501  0.00000000000E+00  0.00000000000E+00  0.14778155905E+03  0.14778155914E+03  0.50400000000E-02 0.  1.
         -1   -1    0    0  501    0 -0.00000000000E+00 -0.00000000000E+00 -0.47723435693E+01  0.47723462307E+01  0.50400000000E-02 0.  1.
          2    1    1    2    0  502  0.81856035310E+01  0.19881910568E+02  0.11627529034E+03  0.11824651210E+03  0.25500000000E-02 0.  1.
         -2    1    1    2  502    0 -0.81856035310E+01 -0.19881910568E+02  0.26733925141E+02  0.34307393270E+02  0.25500000000E-02 0.  1.
<mgrwt>
<rscale>  0 0.53113636E+02</rscale>
<asrwt>0</asrwt>
<pdfrwt beam="1">  1        1 0.22735623E-01 0.53113636E+02</pdfrwt>
<pdfrwt beam="2">  1       -1 0.73420695E-03 0.53113636E+02</pdfrwt>
<totfact> 0.45904179E+05</totfact>
</mgrwt>
</event>
<event>
 4    1  0.4029665E-002  0.4968402E+02  0.7818608E-02  0.1447053E+00
          1   -1    0    0    0  501  0.00000000000E+00  0.00000000000E+00  0.75308452264E+02  0.75308452433E+02  0.50400000000E-02 0. -1.
         -1   -1    0    0  501    0 -0.00000000000E+00 -0.00000000000E+00 -0.81946356444E+01  0.81946371943E+01  0.50400000000E-02 0. -1.
          2    1    1    2    0  502  0.47525133953E+01  0.22645542611E+02  0.18363829546E+02  0.29540433745E+02  0.25500000000E-02 0. -1.
         -2    1    1    2  502    0 -0.47525133953E+01 -0.22645542611E+02  0.48749987073E+02  0.53962655882E+02  0.25500000000E-02 0. -1.
<mgrwt>
<rscale>  0 0.49684018E+02</rscale>
<asrwt>0</asrwt>
<pdfrwt beam="1">  1        1 0.11585916E-01 0.49684018E+02</pdfrwt>
<pdfrwt beam="2">  1       -1 0.12607133E-02 0.49684018E+02</pdfrwt>
<totfact> 0.49515221E+05</totfact>
</mgrwt>
</event>
<event>
 4    1  0.4029665E-002  0.4648613E+02  0.7818608E-02  0.1465272E+00
         -1   -1    0    0  501    0 -0.00000000000E+00  0.00000000000E+00  0.63691786442E+03  0.63691786444E+03  0.50400000000E-02 0.  1.
          1   -1    0    0    0  501  0.00000000000E+00 -0.00000000000E+00 -0.84820229998E+00  0.84821727363E+00  0.50400000000E-02 0.  1.
          2    1    1    2    0  502 -0.13379117505E+02 -0.15988894228E+02  0.17705447410E+03  0.17827768320E+03  0.25500000000E-02 0. -1.
         -2    1    1    2  502    0  0.13379117505E+02  0.15988894228E+02  0.45901518802E+03  0.45948839851E+03  0.25500000000E-02 0. -1.
<mgrwt>
<rscale>  0 0.46486126E+02</rscale>
<asrwt>0</asrwt>
<pdfrwt beam="2">  1        1 0.13049327E-03 0.46486126E+02</pdfrwt>
<pdfrwt beam="1">  1       -1 0.97987771E-01 0.46486126E+02</pdfrwt>
<totfact> 0.22092701E+05</totfact>
</mgrwt>
</event>
<event>
 4    1  0.4029665E-002  0.7429961E+02  0.7818608E-02  0.1346054E+00
          1   -1    0    0    0  501  0.00000000000E+00  0.00000000000E+00  0.38381398389E+02  0.38381398720E+02  0.50400000000E-02 0.  1.
         -1   -1    0    0  501    0 -0.00000000000E+00 -0.00000000000E+00 -0.35957730899E+02  0.35957731253E+02  0.50400000000E-02 0.  1.
          2    1    1    2    0  502  0.29322569507E+02 -0.21134514202E+02  0.97970294739E+01  0.37449466833E+02  0.25500000000E-02 0. -1.
         -2    1    1    2  502    0 -0.29322569507E+02  0.21134514202E+02 -0.73733619844E+01  0.36889663139E+02  0.25500000000E-02 0. -1.
<mgrwt>
<rscale>  0 0.74299610E+02</rscale>
<asrwt>0</asrwt>
<pdfrwt beam="1">  1        1 0.59048306E-02 0.74299610E+02</pdfrwt>
<pdfrwt beam="2">  1       -1 0.55319587E-02 0.74299610E+02</pdfrwt>
<totfact> 0.15919078E+05</totfact>
</mgrwt>
</event>
<event>
 4    1  0.4029665E-002  0.9937683E+02  0.7818608E-02  0.1281612E+00
          1   -1    0    0    0  501  0.00000000000E+00  0.00000000000E+00  0.74528164275E+03  0.74528164277E+03  0.50400000000E-02 0.  1.
         -1   -1    0    0  501    0 -0.00000000000E+00 -0.00000000000E+00 -0.33127574536E+01  0.33127612875E+01  0.50400000000E-02 0.  1.
          2    1    1    2    0  502 -0.71651902830E+01  0.35036572861E+02  0.63084581057E+03  0.63185863776E+03  0.25500000000E-02 0.  1.
         -2    1    1    2  502    0  0.71651902830E+01 -0.35036572861E+02  0.11112307473E+03  0.11673576630E+03  0.25500000000E-02 0.  1.
<mgrwt>
<rscale>  0 0.99376833E+02</rscale>
<asrwt>0</asrwt>
<pdfrwt beam="1">  1        1 0.11465874E+00 0.99376833E+02</pdfrwt>
<pdfrwt beam="2">  1       -1 0.50965517E-03 0.99376833E+02</pdfrwt>
<totfact> 0.11292977E+05</totfact>
</mgrwt>
</event>
<event>
 4    1  0.4029665E-002  0.4076786E+02  0.7818608E-02  0.1502636E+00
         -1   -1    0    0  501    0 -0.00000000000E+00  0.00000000000E+00  0.27798168970E+00  0.27802737528E+00  0.50400000000E-02 0. -1.
          1   -1    0    0    0  501  0.00000000000E+00 -0.00000000000E+00 -0.14945961647E+04  0.14945961647E+04  0.50400000000E-02 0. -1.
          2    1    1    2    0  502 -0.18946437917E+02  0.74601375048E+01 -0.71269602669E+03  0.71298684955E+03  0.25500000000E-02 0.  1.
         -2    1    1    2  502    0  0.18946437917E+02 -0.74601375048E+01 -0.78162215636E+03  0.78188734258E+03  0.25500000000E-02 0.  1.
<mgrwt>
<rscale>  0 0.40767856E+02</rscale>
<asrwt>0</asrwt>
<pdfrwt beam="2">  1        1 0.22993144E+00 0.40767856E+02</pdfrwt>
<pdfrwt beam="1">  1       -1 0.42771125E-04 0.40767856E+02</pdfrwt>
<totfact> 0.85955373E+05</totfact>
</mgrwt>
</event>
<event>
 4    1  0.4029665E-002  0.7980299E+02  0.7818608E-02  0.1329611E+00
         -1   -1    0    0  501    0 -0.00000000000E+00  0.00000000000E+00  0.58346763037E+00  0.58348939775E+00  0.50400000000E-02 0.  1.
          1   -1    0    0    0  501  0.00000000000E+00 -0.00000000000E+00 -0.27286850877E+04  0.27286850877E+04  0.50400000000E-02 0.  1.
          2    1    1    2    0  502  0.23761399774E+02 -0.22070318191E+02 -0.56899928086E+03  0.56992270062E+03  0.25500000000E-02 0. -1.
         -2    1    1    2  502    0 -0.23761399774E+02  0.22070318191E+02 -0.21591023393E+04  0.21593458765E+04  0.25500000000E-02 0. -1.
<mgrwt>
<rscale>  0 0.79802986E+02</rscale>
<asrwt>0</asrwt>
<pdfrwt beam="2">  1        1 0.41978749E+00 0.79802986E+02</pdfrwt>
<pdfrwt beam="1">  1       -1 0.89768110E-04 0.79802986E+02</pdfrwt>
<totfact> 0.59704989E+04</totfact>
</mgrwt>
</event>
<event>
 4    1  0.4029665E-002  0.5238323E+02  0.7818608E-02  0.1432895E+00
         -1   -1    0    0  501    0 -0.00000000000E+00  0.00000000000E+00  0.18131620833E+01  0.18131690881E+01  0.50400000000E-02 0.  1.
          1   -1    0    0    0  501  0.00000000000E+00 -0.00000000000E+00 -0.37834423114E+03  0.37834423117E+03  0.50400000000E-02 0.  1.
          2    1    1    2    0  502 -0.25149041663E+02 -0.62412546575E+01 -0.16056115281E+03  0.16263859122E+03  0.25500000000E-02 0.  1.
         -2    1    1    2  502    0  0.25149041663E+02  0.62412546575E+01 -0.21596991625E+03  0.21751880904E+03  0.25500000000E-02 0.  1.
<mgrwt>
<rscale>  0 0.52383232E+02</rscale>
<asrwt>0</asrwt>
<pdfrwt beam="2">  1        1 0.58206743E-01 0.52383232E+02</pdfrwt>
<pdfrwt beam="1">  1       -1 0.27894886E-03 0.52383232E+02</pdfrwt>
<totfact> 0.55856147E+05</totfact>
</mgrwt>
</event>
<event>
 4    1  0.4029665E-002  0.5498039E+02  0.7818608E-02  0.1420192E+00
          1   -1    0    0    0  501  0.00000000000E+00  0.00000000000E+00  0.38758897252E+03  0.38758897255E+03  0.50400000000E-02 0.  1.
         -1   -1    0    0  501    0 -0.00000000000E+00 -0.00000000000E+00 -0.19497702285E+01  0.19497767425E+01  0.50400000000E-02 0.  1.
          2    1    1    2    0  502  0.15832593721E+00  0.27281936676E+02  0.16891706361E+03  0.17110611772E+03  0.25500000000E-02 0. -1.
         -2    1    1    2  502    0 -0.15832593721E+00 -0.27281936676E+02  0.21672213868E+03  0.21843263157E+03  0.25500000000E-02 0. -1.
<mgrwt>
<rscale>  0 0.54980386E+02</rscale>
<asrwt>0</asrwt>
<pdfrwt beam="1">  1        1 0.59629046E-01 0.54980386E+02</pdfrwt>
<pdfrwt beam="2">  1       -1 0.29996529E-03 0.54980386E+02</pdfrwt>
<totfact> 0.49657442E+05</totfact>
</mgrwt>
</event>
<event>
 4    1  0.4029665E-002  0.8549495E+02  0.7818608E-02  0.1314143E+00
         -1   -1    0    0  501    0 -0.00000000000E+00  0.00000000000E+00  0.13371817507E+01  0.13371912489E+01  0.50400000000E-02 0. -1.
          1   -1    0    0    0  501  0.00000000000E+00 -0.00000000000E+00 -0.13665609022E+04  0.13665609022E+04  0.50400000000E-02 0. -1.
          2    1    1    2    0  502  0.61625229868E+00  0.22303021815E+02 -0.12660090472E+04  0.12662056358E+04  0.25500000000E-02 0.  1.
         -2    1    1    2  502    0 -0.61625229868E+00 -0.22303021815E+02 -0.99214673283E+02  0.10169245769E+03  0.25500000000E-02 0.  1.
<mgrwt>
<rscale>  0 0.85494954E+02</rscale>
<asrwt>0</asrwt>
<pdfrwt beam="2">  1        1 0.21023902E+00 0.85494954E+02</pdfrwt>
<pdfrwt beam="1">  1       -1 0.20572209E-03 0.85494954E+02</pdfrwt>
<totfact> 0.14025922E+05</totfact>
</mgrwt>
</event>
<event>
 4    1  0.4029665E-002  0.4949775E+02  0.7818608E-02  0.1448070E+00
          1   -1    0    0    0  501  0.00000000000E+00  0.00000000000E+00  0.42762143578E+03  0.42762143581E+03  0.50400000000E-02 0. -1.
         -1   -1    0    0  501    0 -0.00000000000E+00 -0.00000000000E+00 -0.14323528712E+01  0.14323617383E+01  0.50400000000E-02 0. -1.
          2    1    1    2    0  502  0.56777768736E+01  0.23989588444E+02  0.19416462831E+03  0.19572337724E+03  0.25500000000E-02 0. -1.
         -2    1    1    2  502    0 -0.56777768736E+01 -0.23989588444E+02  0.23202445460E+03  0.23333042031E+03  0.25500000000E-02 0. -1.
<mgrwt>
<rscale>  0 0.49497745E+02</rscale>
<asrwt>0</asrwt>
<pdfrwt beam="1">  1        1 0.65787924E-01 0.49497745E+02</pdfrwt>
<pdfrwt beam="2">  1       -1 0.22036263E-03 0.49497745E+02</pdfrwt>
<totfact> 0.65521567E+05</totfact>
</mgrwt>
</event>
<event>
 4    1  0.4029665E-002  0.6084646E+02  0.7818608E-02  0.1394313E+00
          1   -1    0    0    0  501  0.00000000000E+00  0.00000000000E+00  0.66232650733E+02  0.66232650925E+02  0.50400000000E-02 0. -1.
         -1   -1    0    0  501    0 -0.00000000000E+00 -0.00000000000E+00 -0.13974571624E+02  0.13974572533E+02  0.50400000000E-02 0. -1.
          2    1    1    2    0  502  0.40130326305E+00  0.21121106070E+02 -0.27303247612E+01  0.21300630172E+02  0.25500000000E-02 0. -1.
         -2    1    1    2  502    0 -0.40130326305E+00 -0.21121106070E+02  0.54988403870E+02  0.58906593286E+02  0.25500000000E-02 0. -1.
<mgrwt>
<rscale>  0 0.60846461E+02</rscale>
<asrwt>0</asrwt>
<pdfrwt beam="1">  1        1 0.10189639E-01 0.60846461E+02</pdfrwt>
<pdfrwt beam="2">  1       -1 0.21499341E-02 0.60846461E+02</pdfrwt>
<totfact> 0.28966987E+05</totfact>
</mgrwt>
</event>
<event>
 4    1  0.4029665E-002  0.5057321E+02  0.7818608E-02  0.1442274E+00
         -1   -1    0    0  501    0 -0.00000000000E+00  0.00000000000E+00  0.63513248802E+02  0.63513249002E+02  0.50400000000E-02 0. -1.
          1   -1    0    0    0  501  0.00000000000E+00 -0.00000000000E+00 -0.10067385554E+02  0.10067386816E+02  0.50400000000E-02 0. -1.
          2    1    1    2    0  502  0.18227188030E+02 -0.16310812023E+02  0.17390986264E+02  0.30011987306E+02  0.25500000000E-02 0.  1.
         -2    1    1    2  502    0 -0.18227188030E+02  0.16310812023E+02  0.36054876983E+02  0.43568648511E+02  0.25500000000E-02 0.  1.
<mgrwt>
<rscale>  0 0.50573211E+02</rscale>
<asrwt>0</asrwt>
<pdfrwt beam="2">  1        1 0.15488287E-02 0.50573211E+02</pdfrwt>
<pdfrwt beam="1">  1       -1 0.97712692E-02 0.50573211E+02</pdfrwt>
<totfact> 0.38635166E+05</totfact>
</mgrwt>
</event>
<event>
 4    1  0.4029665E-002  0.5915539E+02  0.7818608E-02  0.1401411E+00
          1   -1    0    0    0  501  0.00000000000E+00  0.00000000000E+00  0.22574132449E+01  0.22574188712E+01  0.50400000000E-02 0.  1.
         -1   -1    0    0  501    0 -0.00000000000E+00 -0.00000000000E+00 -0.38754045532E+03  0.38754045535E+03  0.50400000000E-02 0.  1.
          2    1    1    2    0  502  0.27589590115E+02  0.18480458189E+01 -0.26182674606E+03  0.26328282457E+03  0.25500000000E-02 0.  1.
         -2    1    1    2  502    0 -0.27589590115E+02 -0.18480458189E+01 -0.12345629602E+03  0.12651504965E+03  0.25500000000E-02 0.  1.
<mgrwt>
<rscale>  0 0.59155391E+02</rscale>
<asrwt>0</asrwt>
<pdfrwt beam="1">  1        1 0.34729509E-03 0.59155391E+02</pdfrwt>
<pdfrwt beam="2">  1       -1 0.59621556E-01 0.59155391E+02</pdfrwt>
<totfact> 0.16477859E+05</totfact>
</mgrwt>
</event>
<event>
 4    1  0.4029665E-002  0.9440057E+02  0.7818608E-02  0.1292532E+00
          1   -1    0    0    0  501  0.00000000000E+00  0.00000000000E+00  0.64582521279E+02  0.64582521476E+02  0.50400000000E-02 0. -1.
         -1   -1    0    0  501    0 -0.00000000000E+00 -0.00000000000E+00 -0.34496438160E+02  0.34496438529E+02  0.50400000000E-02 0. -1.
          2    1    1    2    0  502 -0.37586950220E+02 -0.14174341070E+02 -0.10967734340E+02  0.41641109191E+02  0.25500000000E-02 0.  1.
         -2    1    1    2  502    0  0.37586950220E+02  0.14174341070E+02  0.41053817459E+02  0.57437850813E+02  0.25500000000E-02 0.  1.
<mgrwt>
<rscale>  0 0.94400572E+02</rscale>
<asrwt>0</asrwt>
<pdfrwt beam="1">  1        1 0.99357725E-02 0.94400572E+02</pdfrwt>
<pdfrwt beam="2">  1       -1 0.53071444E-02 0.94400572E+02</pdfrwt>
<totfact> 0.88495394E+04</totfact>
</mgrwt>
</event>
<event>
 4    1  0.4029665E-002  0.8469922E+02  0.7818608E-02  0.1316221E+00
          1   -1    0    0    0  501  0.00000000000E+00  0.00000000000E+00  0.25569259585E+02  0.25569260082E+02  0.50400000000E-02 0. -1.
         -1   -1    0    0  501    0 -0.00000000000E+00 -0.00000000000E+00 -0.70142409491E+02  0.70142409672E+02  0.50400000000E-02 0. -1.
          2    1    1    2    0  502 -0.37643120538E+02 -0.11614305636E+02 -0.39850741441E+02  0.56035508556E+02  0.25500000000E-02 0. -1.
         -2    1    1    2  502    0  0.37643120538E+02  0.11614305636E+02 -0.47224084644E+01  0.39676161198E+02  0.25500000000E-02 0. -1.
<mgrwt>
<rscale>  0 0.84699221E+02</rscale>
<asrwt>0</asrwt>
<pdfrwt beam="1">  1        1 0.39337323E-02 0.84699221E+02</pdfrwt>
<pdfrwt beam="2">  1       -1 0.10791140E-01 0.84699221E+02</pdfrwt>
<totfact> 0.10436307E+05</totfact>
</mgrwt>
</event>
<event>
 4    1  0.4029665E-002  0.4376032E+02  0.7818608E-02  0.1482232E+00
         -1   -1    0    0  501    0 -0.00000000000E+00  0.00000000000E+00  0.36855918863E+00  0.36859364770E+00  0.50400000000E-02 0. -1.
          1   -1    0    0    0  501  0.00000000000E+00 -0.00000000000E+00 -0.12988934204E+04  0.12988934204E+04  0.50400000000E-02 0. -1.
          2    1    1    2    0  502  0.17410486338E+01 -0.21802040873E+02 -0.63092985550E+03  0.63130883314E+03  0.25500000000E-02 0.  1.
         -2    1    1    2  502    0 -0.17410486338E+01  0.21802040873E+02 -0.66759500571E+03  0.66795318091E+03  0.25500000000E-02 0.  1.
<mgrwt>
<rscale>  0 0.43760324E+02</rscale>
<asrwt>0</asrwt>
<pdfrwt beam="2">  1        1 0.19982609E+00 0.43760324E+02</pdfrwt>
<pdfrwt beam="1">  1       -1 0.56705105E-04 0.43760324E+02</pdfrwt>
<totfact> 0.79372233E+05</totfact>
</mgrwt>
</event>
<event>
 4    1  0.4029665E-002  0.1177950E+03  0.7818608E-02  0.1246780E+00
         -1   -1    0    0  501    0 -0.00000000000E+00  0.00000000000E+00  0.21352985868E+04  0.21352985868E+04  0.50400000000E-02 0.  1.
          1   -1    0    0    0  501  0.00000000000E+00 -0.00000000000E+00 -0.16245534035E+01  0.16245612215E+01  0.50400000000E-02 0.  1.
          2    1    1    2    0  502 -0.82555229131E+01 -0.58079503012E+02  0.11620258014E+04  0.11635056276E+04  0.25500000000E-02 0. -1.
         -2    1    1    2  502    0  0.82555229131E+01  0.58079503012E+02  0.97164823206E+03  0.97341752049E+03  0.25500000000E-02 0. -1.
<mgrwt>
<rscale>  0 0.11779499E+03</rscale>
<asrwt>0</asrwt>
<pdfrwt beam="2">  1        1 0.24993359E-03 0.11779499E+03</pdfrwt>
<pdfrwt beam="1">  1       -1 0.32850524E+00 0.11779499E+03</pdfrwt>
<totfact> 0.28535120E+03</totfact>
</mgrwt>
</event>
<event>
 4    1  0.4029665E-002  0.5603141E+02  0.7818608E-02  0.1415283E+00
          1   -1    0    0    0  501  0.00000000000E+00  0.00000000000E+00  0.56141100740E+01  0.56141123363E+01  0.50400000000E-02 0.  1.
         -1   -1    0    0  501    0 -0.00000000000E+00 -0.00000000000E+00 -0.13980478744E+03  0.13980478753E+03  0.50400000000E-02 0.  1.
          2    1    1    2    0  502  0.22867457217E+02  0.15796957512E+02 -0.57950720910E+02  0.64270915092E+02  0.25500000000E-02 0.  1.
         -2    1    1    2  502    0 -0.22867457217E+02 -0.15796957512E+02 -0.76239956455E+02  0.81147984774E+02  0.25500000000E-02 0.  1.
<mgrwt>
<rscale>  0 0.56031407E+02</rscale>
<asrwt>0</asrwt>
<pdfrwt beam="1">  1        1 0.86370953E-03 0.56031407E+02</pdfrwt>
<pdfrwt beam="2">  1       -1 0.21508426E-01 0.56031407E+02</pdfrwt>
<totfact> 0.26325606E+05</totfact>
</mgrwt>
</event>
<event>
 4    1  0.4029665E-002  0.4727005E+02  0.7818608E-02  0.1460648E+00
          1   -1    0    0    0  501  0.00000000000E+00  0.00000000000E+00  0.29368782350E+01  0.29368825596E+01  0.50400000000E-02 0. -1.
         -1   -1    0    0  501    0 -0.00000000000E+00 -0.00000000000E+00 -0.19020673092E+03  0.19020673099E+03  0.50400000000E-02 0. -1.
          2    1    1    2    0  502  0.64735001603E+01  0.22661040607E+02 -0.10092749226E+03  0.10364259581E+03  0.25500000000E-02 0. -1.
         -2    1    1    2  502    0 -0.64735001603E+01 -0.22661040607E+02 -0.86342360434E+02  0.89501017746E+02  0.25500000000E-02 0. -1.
<mgrwt>
<rscale>  0 0.47270051E+02</rscale>
<asrwt>0</asrwt>
<pdfrwt beam="1">  1        1 0.45182791E-03 0.47270051E+02</pdfrwt>
<pdfrwt beam="2">  1       -1 0.29262565E-01 0.47270051E+02</pdfrwt>
<totfact> 0.37332415E+05</totfact>
</mgrwt>
</event>
<event>
 4    1  0.4029665E-002  0.4643740E+02  0.7818608E-02  0.1465563E+00
         -1   -1    0    0  501    0 -0.00000000000E+00  0.00000000000E+00  0.42003190437E+00  0.42006214098E+00  0.50400000000E-02 0.  1.
          1   -1    0    0    0  501  0.00000000000E+00 -0.00000000000E+00 -0.12834467828E+04  0.12834467828E+04  0.50400000000E-02 0.  1.
          2    1    1    2    0  502  0.16723657814E+02 -0.13765773276E+02 -0.41031423062E+03  0.41088556204E+03  0.25500000000E-02 0. -1.
         -2    1    1    2  502    0 -0.16723657814E+02  0.13765773276E+02 -0.87271252025E+03  0.87298128288E+03  0.25500000000E-02 0. -1.
<mgrwt>
<rscale>  0 0.46437399E+02</rscale>
<asrwt>0</asrwt>
<pdfrwt beam="2">  1        1 0.19745021E+00 0.46437399E+02</pdfrwt>
<pdfrwt beam="1">  1       -1 0.64623647E-04 0.46437399E+02</pdfrwt>
<totfact> 0.69046778E+05</totfact>
</mgrwt>
</event>
<event>
 4    1  0.4029665E-002  0.4654945E+02  0.7818608E-02  0.1464894E+00
         -1   -1    0    0  501    0 -0.00000000000E+00  0.00000000000E+00  0.30065753709E+00  0.30069977753E+00  0.50400000000E-02 0.  1.
          1   -1    0    0    0  501  0.00000000000E+00 -0.00000000000E+00 -0.18016337582E+04  0.18016337582E+04  0.50400000000E-02 0.  1.
          2    1    1    2    0  502 -0.15801385603E+02  0.14997615589E+02 -0.12177601837E+04  0.12179550391E+04  0.25500000000E-02 0.  1.
         -2    1    1    2  502    0  0.15801385603E+02 -0.14997615589E+02 -0.58357291692E+03  0.58397941884E+03  0.25500000000E-02 0.  1.
<mgrwt>
<rscale>  0 0.46549450E+02</rscale>
<asrwt>0</asrwt>
<pdfrwt beam="2">  1        1 0.27716578E+00 0.46549450E+02</pdfrwt>
<pdfrwt beam="1">  1       -1 0.46259698E-04 0.46549450E+02</pdfrwt>
<totfact> 0.51680580E+05</totfact>
</mgrwt>
</event>
<event>
 4    1  0.4029665E-002  0.4558737E+02  0.7818608E-02  0.1470708E+00
          1   -1    0    0    0  501  0.00000000000E+00  0.00000000000E+00  0.53534263832E+02  0.53534264069E+02  0.50400000000E-02 0. -1.
         -1   -1    0    0  501    0 -0.00000000000E+00 -0.00000000000E+00 -0.97050354788E+01  0.97050367875E+01  0.50400000000E-02 0. -1.
          2    1    1    2    0  502  0.22499906128E+02 -0.35516814652E+01  0.23068382945E+02  0.32419292330E+02  0.25500000000E-02 0.  1.
         -2    1    1    2  502    0 -0.22499906128E+02  0.35516814652E+01  0.20760845408E+02  0.30820008527E+02  0.25500000000E-02 0.  1.
<mgrwt>
<rscale>  0 0.45587366E+02</rscale>
<asrwt>0</asrwt>
<pdfrwt beam="1">  1        1 0.82360407E-02 0.45587366E+02</pdfrwt>
<pdfrwt beam="2">  1       -1 0.14930825E-02 0.45587366E+02</pdfrwt>
<totfact> 0.59329737E+05</totfact>
</mgrwt>
</event>
<event>
 4    1  0.4029665E-002  0.5370458E+02  0.7818608E-02  0.1426326E+00
          1   -1    0    0    0  501  0.00000000000E+00  0.00000000000E+00  0.38200601365E+02  0.38200601697E+02  0.50400000000E-02 0.  1.
         -1   -1    0    0  501    0 -0.00000000000E+00 -0.00000000000E+00 -0.18875236924E+02  0.18875237597E+02  0.50400000000E-02 0.  1.
          2    1    1    2    0  502 -0.15461378560E+01 -0.22979637354E+02  0.24334784975E+02  0.33505761318E+02  0.25500000000E-02 0.  1.
         -2    1    1    2  502    0  0.15461378560E+01  0.22979637354E+02 -0.50094205341E+01  0.23570077976E+02  0.25500000000E-02 0.  1.
<mgrwt>
<rscale>  0 0.53704578E+02</rscale>
<asrwt>0</asrwt>
<pdfrwt beam="1">  1        1 0.58770157E-02 0.53704578E+02</pdfrwt>
<pdfrwt beam="2">  1       -1 0.29038827E-02 0.53704578E+02</pdfrwt>
<totfact> 0.37780041E+05</totfact>
</mgrwt>
</event>
<event>
 4    1  0.4029665E-002  0.8569645E+02  0.7818608E-02  0.1313621E+00
          1   -1    0    0    0  501  0.00000000000E+00  0.00000000000E+00  0.20930957392E+02  0.20930957999E+02  0.50400000000E-02 0. -1.
         -1   -1    0    0  501    0 -0.00000000000E+00 -0.00000000000E+00 -0.87715536604E+02  0.87715536749E+02  0.50400000000E-02 0. -1.
          2    1    1    2    0  502 -0.31627157996E+02 -0.65798282482E+00  0.32484123533E+01  0.31800349897E+02  0.25500000000E-02 0. -1.
         -2    1    1    2  502    0  0.31627157996E+02  0.65798282482E+00 -0.70032991565E+02  0.76846144851E+02  0.25500000000E-02 0. -1.
<mgrwt>
<rscale>  0 0.85696446E+02</rscale>
<asrwt>0</asrwt>
<pdfrwt beam="1">  1        1 0.32201474E-02 0.85696446E+02</pdfrwt>
<pdfrwt beam="2">  1       -1 0.13494698E-01 0.85696446E+02</pdfrwt>
<totfact> 0.97661410E+04</totfact>
</mgrwt>
</event>
<event>
 4    1  0.4029665E-002  0.6575223E+02  0.7818608E-02  0.1375164E+00
         -1   -1    0    0  501    0 -0.00000000000E+00  0.00000000000E+00  0.86673951300E+00  0.86675416642E+00  0.50400000000E-02 0.  1.
          1   -1    0    0    0  501  0.00000000000E+00 -0.00000000000E+00 -0.12470064024E+04  0.12470064024E+04  0.50400000000E-02 0.  1.
          2    1    1    2    0  502  0.14674385728E+02  0.19375912228E+02 -0.20293240231E+03  0.20438278667E+03  0.25500000000E-02 0.  1.
         -2    1    1    2  502    0 -0.14674385728E+02 -0.19375912228E+02 -0.10432072606E+04  0.10434903699E+04  0.25500000000E-02 0.  1.
<mgrwt>
<rscale>  0 0.65752228E+02</rscale>
<asrwt>0</asrwt>
<pdfrwt beam="2">  1        1 0.19184570E+00 0.65752228E+02</pdfrwt>
<pdfrwt beam="1">  1       -1 0.13334667E-03 0.65752228E+02</pdfrwt>
<totfact> 0.29249372E+05</totfact>
</mgrwt>
</event>
<event>
 4    1  0.4029665E-002  0.4851799E+02  0.7818608E-02  0.1453503E+00
          1   -1    0    0    0  501  0.00000000000E+00  0.00000000000E+00  0.24040965785E+03  0.24040965790E+03  0.50400000000E-02 0. -1.
         -1   -1    0    0  501    0 -0.00000000000E+00 -0.00000000000E+00 -0.24478978678E+01  0.24479030563E+01  0.50400000000E-02 0. -1.
          2    1    1    2    0  502  0.68503032996E+00 -0.20213358524E+02  0.51927562000E+02  0.55727200101E+02  0.25500000000E-02 0.  1.
         -2    1    1    2  502    0 -0.68503032996E+00  0.20213358524E+02  0.18603419798E+03  0.18713036086E+03  0.25500000000E-02 0.  1.
<mgrwt>
<rscale>  0 0.48517994E+02</rscale>
<asrwt>0</asrwt>
<pdfrwt beam="1">  1        1 0.36986113E-01 0.48517994E+02</pdfrwt>
<pdfrwt beam="2">  1       -1 0.37659996E-03 0.48517994E+02</pdfrwt>
<totfact> 0.62568161E+05</totfact>
</mgrwt>
</event>
<event>
 4    1  0.4029665E-002  0.5607224E+02  0.7818608E-02  0.1415095E+00
         -1   -1    0    0  501    0 -0.00000000000E+00  0.00000000000E+00  0.41330632545E+00  0.41333705406E+00  0.50400000000E-02 0.  1.
          1   -1    0    0    0  501  0.00000000000E+00 -0.00000000000E+00 -0.19017248387E+04  0.19017248387E+04  0.50400000000E-02 0.  1.
          2    1    1    2    0  502  0.18390493591E+02  0.20925074987E+02 -0.84362288745E+03  0.84408272418E+03  0.25500000000E-02 0. -1.
         -2    1    1    2  502    0 -0.18390493591E+02 -0.20925074987E+02 -0.10576886449E+04  0.10580554516E+04  0.25500000000E-02 0. -1.
<mgrwt>
<rscale>  0 0.56072244E+02</rscale>
<asrwt>0</asrwt>
<pdfrwt beam="2">  1        1 0.29256605E+00 0.56072244E+02</pdfrwt>
<pdfrwt beam="1">  1       -1 0.63589476E-04 0.56072244E+02</pdfrwt>
<totfact> 0.30255593E+05</totfact>
</mgrwt>
</event>
<event>
 4    1  0.4029665E-002  0.6835918E+02  0.7818608E-02  0.1365763E+00
         -1   -1    0    0  501    0 -0.00000000000E+00  0.00000000000E+00  0.31031944347E+03  0.31031944351E+03  0.50400000000E-02 0.  1.
          1   -1    0    0    0  501  0.00000000000E+00 -0.00000000000E+00 -0.37646497153E+01  0.37646530890E+01  0.50400000000E-02 0.  1.
          2    1    1    2    0  502  0.12754433011E+02 -0.20602374705E+02  0.42518488300E+02  0.48938280096E+02  0.25500000000E-02 0.  1.
         -2    1    1    2  502    0 -0.12754433011E+02  0.20602374705E+02  0.26403630546E+03  0.26514581651E+03  0.25500000000E-02 0.  1.
<mgrwt>
<rscale>  0 0.68359185E+02</rscale>
<asrwt>0</asrwt>
<pdfrwt beam="2">  1        1 0.57917721E-03 0.68359185E+02</pdfrwt>
<pdfrwt beam="1">  1       -1 0.47741447E-01 0.68359185E+02</pdfrwt>
<totfact> 0.12591292E+05</totfact>
</mgrwt>
</event>
<event>
 4    1  0.4029665E-002  0.5813010E+02  0.7818608E-02  0.1405851E+00
          1   -1    0    0    0  501  0.00000000000E+00  0.00000000000E+00  0.16752227819E+04  0.16752227819E+04  0.50400000000E-02 0.  1.
         -1   -1    0    0  501    0 -0.00000000000E+00 -0.00000000000E+00 -0.50426495750E+00  0.50429014363E+00  0.50400000000E-02 0.  1.
          2    1    1    2    0  502  0.23294083449E+02 -0.16905516269E+02  0.95398095077E+03  0.95441503825E+03  0.25500000000E-02 0.  1.
         -2    1    1    2  502    0 -0.23294083449E+02  0.16905516269E+02  0.72073756618E+03  0.72131203381E+03  0.25500000000E-02 0.  1.
<mgrwt>
<rscale>  0 0.58130104E+02</rscale>
<asrwt>0</asrwt>
<pdfrwt beam="1">  1        1 0.25773004E+00 0.58130104E+02</pdfrwt>
<pdfrwt beam="2">  1       -1 0.77580122E-04 0.58130104E+02</pdfrwt>
<totfact> 0.32059234E+05</totfact>
</mgrwt>
</event>
<event>
 4    1  0.4029665E-002  0.4860670E+02  0.7818608E-02  0.1453005E+00
          1   -1    0    0    0  501  0.00000000000E+00  0.00000000000E+00  0.22782698056E+03  0.22782698061E+03  0.50400000000E-02 0.  1.
         -1   -1    0    0  501    0 -0.00000000000E+00 -0.00000000000E+00 -0.25925475957E+01  0.25925524946E+01  0.50400000000E-02 0.  1.
          2    1    1    2    0  502 -0.20390481914E+02  0.35379642353E+01  0.52212911315E+02  0.56164731444E+02  0.25500000000E-02 0. -1.
         -2    1    1    2  502    0  0.20390481914E+02 -0.35379642353E+01  0.17302152165E+03  0.17425480166E+03  0.25500000000E-02 0. -1.
<mgrwt>
<rscale>  0 0.48606702E+02</rscale>
<asrwt>0</asrwt>
<pdfrwt beam="1">  1        1 0.35050278E-01 0.48606702E+02</pdfrwt>
<pdfrwt beam="2">  1       -1 0.39885416E-03 0.48606702E+02</pdfrwt>
<totfact> 0.61700031E+05</totfact>
</mgrwt>
</event>
<event>
 4    1  0.4029665E-002  0.8168580E+02  0.7818608E-02  0.1324334E+00
         -1   -1    0    0  501    0 -0.00000000000E+00  0.00000000000E+00  0.19024559428E+02  0.19024560096E+02  0.50400000000E-02 0.  1.
          1   -1    0    0    0  501  0.00000000000E+00 -0.00000000000E+00 -0.87683624214E+02  0.87683624359E+02  0.50400000000E-02 0.  1.
          2    1    1    2    0  502 -0.18360727262E+02  0.36463438171E+02 -0.32759914897E+02  0.52344155924E+02  0.25500000000E-02 0. -1.
         -2    1    1    2  502    0  0.18360727262E+02 -0.36463438171E+02 -0.35899149889E+02  0.54364028531E+02  0.25500000000E-02 0. -1.
<mgrwt>
<rscale>  0 0.81685797E+02</rscale>
<asrwt>0</asrwt>
<pdfrwt beam="2">  1        1 0.13489788E-01 0.81685797E+02</pdfrwt>
<pdfrwt beam="1">  1       -1 0.29268554E-02 0.81685797E+02</pdfrwt>
<totfact> 0.13778107E+05</totfact>
</mgrwt>
</event>
<event>
 4    1  0.4029665E-002  0.4746331E+02  0.7818608E-02  0.1459525E+00
          1   -1    0    0    0  501  0.00000000000E+00  0.00000000000E+00  0.54930431856E+01  0.54930454978E+01  0.50400000000E-02 0. -1.
         -1   -1    0    0  501    0 -0.00000000000E+00 -0.00000000000E+00 -0.10252809029E+03  0.10252809041E+03  0.50400000000E-02 0. -1.
          2    1    1    2    0  502  0.20222178291E+02  0.70023670973E+00 -0.20296105620E+02  0.28659356869E+02  0.25500000000E-02 0. -1.
         -2    1    1    2  502    0 -0.20222178291E+02 -0.70023670973E+00 -0.76738941483E+02  0.79361779042E+02  0.25500000000E-02 0. -1.
<mgrwt>
<rscale>  0 0.47463306E+02</rscale>
<asrwt>0</asrwt>
<pdfrwt beam="1">  1        1 0.84508383E-03 0.47463306E+02</pdfrwt>
<pdfrwt beam="2">  1       -1 0.15773551E-01 0.47463306E+02</pdfrwt>
<totfact> 0.42143687E+05</totfact>
</mgrwt>
</event>
<event>
 4    1  0.4029665E-002  0.5462703E+02  0.7818608E-02  0.1421871E+00
         -1   -1    0    0  501    0 -0.00000000000E+00  0.00000000000E+00  0.90167762264E+00  0.90169170827E+00  0.50400000000E-02 0.  1.
          1   -1    0    0    0  501  0.00000000000E+00 -0.00000000000E+00 -0.82737125109E+03  0.82737125110E+03  0.50400000000E-02 0.  1.
          2    1    1    2    0  502  0.13127308991E+02 -0.21283906969E+02 -0.24665809696E+03  0.24792246316E+03  0.25500000000E-02 0. -1.
         -2    1    1    2  502    0 -0.13127308991E+02  0.21283906969E+02 -0.57981147651E+03  0.58035047965E+03  0.25500000000E-02 0. -1.
<mgrwt>
<rscale>  0 0.54627026E+02</rscale>
<asrwt>0</asrwt>
<pdfrwt beam="2">  1        1 0.12728728E+00 0.54627026E+02</pdfrwt>
<pdfrwt beam="1">  1       -1 0.13872138E-03 0.54627026E+02</pdfrwt>
<totfact> 0.52691226E+05</totfact>
</mgrwt>
</event>
<event>
 4    1  0.4029665E-002  0.4350940E+02  0.7818608E-02  0.1483868E+00
          1   -1    0    0    0  501  0.00000000000E+00  0.00000000000E+00  0.10873034435E+04  0.10873034435E+04  0.50400000000E-02 0. -1.
         -1   -1    0    0  501    0 -0.00000000000E+00 -0.00000000000E+00 -0.43525200160E+00  0.43528118096E+00  0.50400000000E-02 0. -1.
          2    1    1    2    0  502 -0.16283926139E+02 -0.13973757530E+02  0.63299835428E+03  0.63336194130E+03  0.25500000000E-02 0. -1.
         -2    1    1    2  502    0  0.16283926139E+02  0.13973757530E+02  0.45386983723E+03  0.45437678342E+03  0.25500000000E-02 0. -1.
<mgrwt>
<rscale>  0 0.43509396E+02</rscale>
<asrwt>0</asrwt>
<pdfrwt beam="1">  1        1 0.16727757E+00 0.43509396E+02</pdfrwt>
<pdfrwt beam="2">  1       -1 0.66964047E-04 0.43509396E+02</pdfrwt>
<totfact> 0.87156823E+05</totfact>
</mgrwt>
</event>
<event>
 4    1  0.4029665E-002  0.5149191E+02  0.7818608E-02  0.1437457E+00
          1   -1    0    0    0  501  0.00000000000E+00  0.00000000000E+00  0.11140482492E+02  0.11140483632E+02  0.50400000000E-02 0. -1.
         -1   -1    0    0  501    0 -0.00000000000E+00 -0.00000000000E+00 -0.59499582273E+02  0.59499582486E+02  0.50400000000E-02 0. -1.
          2    1    1    2    0  502  0.23494052448E+02  0.56976658526E+01 -0.36328146119E+02  0.43636774669E+02  0.25500000000E-02 0. -1.
         -2    1    1    2  502    0 -0.23494052448E+02 -0.56976658526E+01 -0.12030953662E+02  0.27003291449E+02  0.25500000000E-02 0. -1.
<mgrwt>
<rscale>  0 0.51491906E+02</rscale>
<asrwt>0</asrwt>
<pdfrwt beam="1">  1        1 0.17139205E-02 0.51491906E+02</pdfrwt>
<pdfrwt beam="2">  1       -1 0.91537818E-02 0.51491906E+02</pdfrwt>
<totfact> 0.37257683E+05</totfact>
</mgrwt>
</event>
<event>
 4    1  0.4029665E-002  0.6087371E+02  0.7818608E-02  0.1394201E+00
          1   -1    0    0    0  501  0.00000000000E+00  0.00000000000E+00  0.99067042885E+03  0.99067042886E+03  0.50400000000E-02 0.  1.
         -1   -1    0    0  501    0 -0.00000000000E+00 -0.00000000000E+00 -0.93511972890E+00  0.93513331081E+00  0.50400000000E-02 0.  1.
          2    1    1    2    0  502  0.90975451933E+01 -0.26848181499E+02  0.31434587616E+03  0.31562148223E+03  0.25500000000E-02 0. -1.
         -2    1    1    2  502    0 -0.90975451933E+01  0.26848181499E+02  0.67538943295E+03  0.67598407994E+03  0.25500000000E-02 0. -1.
<mgrwt>
<rscale>  0 0.60873712E+02</rscale>
<asrwt>0</asrwt>
<pdfrwt beam="1">  1        1 0.15241093E+00 0.60873712E+02</pdfrwt>
<pdfrwt beam="2">  1       -1 0.14386553E-03 0.60873712E+02</pdfrwt>
<totfact> 0.38831376E+05</totfact>
</mgrwt>
</event>
<event>
 4    1  0.4029665E-002  0.6152318E+02  0.7818608E-02  0.1391549E+00
         -1   -1    0    0  501    0 -0.00000000000E+00  0.00000000000E+00  0.85515615736E+03  0.85515615738E+03  0.50400000000E-02 0.  1.
          1   -1    0    0    0  501  0.00000000000E+00 -0.00000000000E+00 -0.11065469576E+01  0.11065584354E+01  0.50400000000E-02 0.  1.
          2    1    1    2    0  502 -0.22338013312E+02  0.31107047144E+01  0.13587741581E+03  0.13773647105E+03  0.25500000000E-02 0.  1.
         -2    1    1    2  502    0  0.22338013312E+02 -0.31107047144E+01  0.71817219459E+03  0.71852624476E+03  0.25500000000E-02 0.  1.
<mgrwt>
<rscale>  0 0.61523178E+02</rscale>
<asrwt>0</asrwt>
<pdfrwt beam="2">  1        1 0.17023924E-03 0.61523178E+02</pdfrwt>
<pdfrwt beam="1">  1       -1 0.13156220E+00 0.61523178E+02</pdfrwt>
<totfact> 0.84368205E+04</totfact>
</mgrwt>
</event>
<event>
 4    1  0.4029665E-002  0.6396630E+02  0.7818608E-02  0.1381903E+00
         -1   -1    0    0  501    0 -0.00000000000E+00  0.00000000000E+00  0.92057159293E+02  0.92057159431E+02  0.50400000000E-02 0.  1.
          1   -1    0    0    0  501  0.00000000000E+00 -0.00000000000E+00 -0.11111811244E+02  0.11111812387E+02  0.50400000000E-02 0.  1.
          2    1    1    2    0  502 -0.31068972948E+02  0.75540100341E+01  0.39246801868E+02  0.50622678821E+02  0.25500000000E-02 0.  1.
         -2    1    1    2  502    0  0.31068972948E+02 -0.75540100341E+01  0.41698546181E+02  0.52546292997E+02  0.25500000000E-02 0.  1.
<mgrwt>
<rscale>  0 0.63966299E+02</rscale>
<asrwt>0</asrwt>
<pdfrwt beam="2">  1        1 0.17095096E-02 0.63966299E+02</pdfrwt>
<pdfrwt beam="1">  1       -1 0.14162640E-01 0.63966299E+02</pdfrwt>
<totfact> 0.20387275E+05</totfact>
</mgrwt>
</event>
<event>
 4    1  0.4029665E-002  0.7068383E+02  0.7818608E-02  0.1357783E+00
         -1   -1    0    0  501    0 -0.00000000000E+00  0.00000000000E+00  0.51615467218E+01  0.51615491825E+01  0.50400000000E-02 0.  1.
          1   -1    0    0    0  501  0.00000000000E+00 -0.00000000000E+00 -0.24199150861E+03  0.24199150866E+03  0.50400000000E-02 0.  1.
          2    1    1    2    0  502 -0.32109416533E+02  0.51436821464E+00 -0.66815356374E+02  0.74132118940E+02  0.25500000000E-02 0. -1.
         -2    1    1    2  502    0  0.32109416533E+02 -0.51436821464E+00 -0.17001460552E+03  0.17302093891E+03  0.25500000000E-02 0. -1.
<mgrwt>
<rscale>  0 0.70683825E+02</rscale>
<asrwt>0</asrwt>
<pdfrwt beam="2">  1        1 0.37229454E-01 0.70683825E+02</pdfrwt>
<pdfrwt beam="1">  1       -1 0.79408449E-03 0.70683825E+02</pdfrwt>
<totfact> 0.24039741E+05</totfact>
</mgrwt>
</event>
<event>
 4    1  0.4029665E-002  0.4336119E+02  0.7818608E-02  0.1484840E+00
         -1   -1    0    0  501    0 -0.00000000000E+00  0.00000000000E+00  0.38280765796E+02  0.38280766128E+02  0.50400000000E-02 0.  1.
          1   -1    0    0    0  501  0.00000000000E+00 -0.00000000000E+00 -0.12278967214E+02  0.12278968249E+02  0.50400000000E-02 0.  1.
          2    1    1    2    0  502  0.36930108838E+01 -0.20588727844E+02  0.19649655839E+02  0.28699181604E+02  0.25500000000E-02 0. -1.
         -2    1    1    2  502    0 -0.36930108838E+01  0.20588727844E+02  0.63521427433E+01  0.21860552773E+02  0.25500000000E-02 0. -1.
<mgrwt>
<rscale>  0 0.43361195E+02</rscale>
<asrwt>0</asrwt>
<pdfrwt beam="2">  1        1 0.18890720E-02 0.43361195E+02</pdfrwt>
<pdfrwt beam="1">  1       -1 0.58893485E-02 0.43361195E+02</pdfrwt>
<totfact> 0.59447325E+05</totfact>
</mgrwt>
</event>
<event>
 4    1  0.4029665E-002  0.5808011E+02  0.7818608E-02  0.1406070E+00
         -1   -1    0    0  501    0 -0.00000000000E+00  0.00000000000E+00  0.38126013818E+02  0.38126014151E+02  0.50400000000E-02 0. -1.
          1   -1    0    0    0  501  0.00000000000E+00 -0.00000000000E+00 -0.22119405103E+02  0.22119405677E+02  0.50400000000E-02 0. -1.
          2    1    1    2    0  502 -0.25546523870E+01 -0.20673317166E+02 -0.12984989978E+02  0.24546328905E+02  0.25500000000E-02 0. -1.
         -2    1    1    2  502    0  0.25546523870E+01  0.20673317166E+02  0.28991598693E+02  0.35699090924E+02  0.25500000000E-02 0. -1.
<mgrwt>
<rscale>  0 0.58080109E+02</rscale>
<asrwt>0</asrwt>
<pdfrwt beam="2">  1        1 0.34029855E-02 0.58080109E+02</pdfrwt>
<pdfrwt beam="1">  1       -1 0.58655406E-02 0.58080109E+02</pdfrwt>
<totfact> 0.29092589E+05</totfact>
</mgrwt>
</event>
<event>
 4    1  0.4029665E-002  0.4815782E+02  0.7818608E-02  0.1455539E+00
         -1   -1    0    0  501    0 -0.00000000000E+00  0.00000000000E+00  0.90707488128E+01  0.90707502130E+01  0.50400000000E-02 0. -1.
          1   -1    0    0    0  501  0.00000000000E+00 -0.00000000000E+00 -0.63919066447E+02  0.63919066646E+02  0.50400000000E-02 0. -1.
          2    1    1    2    0  502 -0.22932542729E+02  0.11929023499E+00 -0.16299117884E+02  0.28134978167E+02  0.25500000000E-02 0.  1.
         -2    1    1    2  502    0  0.22932542729E+02 -0.11929023499E+00 -0.38549199750E+02  0.44854838692E+02  0.25500000000E-02 0.  1.
<mgrwt>
<rscale>  0 0.48157818E+02</rscale>
<asrwt>0</asrwt>
<pdfrwt beam="2">  1        1 0.98337023E-02 0.48157818E+02</pdfrwt>
<pdfrwt beam="1">  1       -1 0.13955000E-02 0.48157818E+02</pdfrwt>
<totfact> 0.52605036E+05</totfact>
</mgrwt>
</event>
<event>
 4    1  0.4029665E-002  0.6943011E+02  0.7818608E-02  0.1362042E+00
         -1   -1    0    0  501    0 -0.00000000000E+00  0.00000000000E+00  0.68669574307E+00  0.68671423835E+00  0.50400000000E-02 0.  1.
          1   -1    0    0    0  501  0.00000000000E+00 -0.00000000000E+00 -0.17549531060E+04  0.17549531060E+04  0.50400000000E-02 0.  1.
          2    1    1    2    0  502  0.79195892889E+00  0.34624156599E+02 -0.81689179668E+03  0.81762562760E+03  0.25500000000E-02 0. -1.
         -2    1    1    2  502    0 -0.79195892889E+00 -0.34624156599E+02 -0.93737461357E+03  0.93801419264E+03  0.25500000000E-02 0. -1.
<mgrwt>
<rscale>  0 0.69430111E+02</rscale>
<asrwt>0</asrwt>
<pdfrwt beam="2">  1        1 0.26998920E+00 0.69430111E+02</pdfrwt>
<pdfrwt beam="1">  1       -1 0.10564833E-03 0.69430111E+02</pdfrwt>
<totfact> 0.19344475E+05</totfact>
</mgrwt>
</event>
<event>
 4    1  0.4029665E-002  0.4241659E+02  0.7818608E-02  0.1491145E+00
         -1   -1    0    0  501    0 -0.00000000000E+00  0.00000000000E+00  0.20568773712E+01  0.20568835460E+01  0.50400000000E-02 0.  1.
          1   -1    0    0    0  501  0.00000000000E+00 -0.00000000000E+00 -0.21867663831E+03  0.21867663837E+03  0.50400000000E-02 0.  1.
          2    1    1    2    0  502 -0.18128109524E+02 -0.95022056316E+01 -0.79395689878E+02  0.81991437629E+02  0.25500000000E-02 0. -1.
         -2    1    1    2  502    0  0.18128109524E+02  0.95022056316E+01 -0.13722407106E+03  0.13874208429E+03  0.25500000000E-02 0. -1.
<mgrwt>
<rscale>  0 0.42416587E+02</rscale>
<asrwt>0</asrwt>
<pdfrwt beam="2">  1        1 0.33642542E-01 0.42416587E+02</pdfrwt>
<pdfrwt beam="1">  1       -1 0.31644332E-03 0.42416587E+02</pdfrwt>
<totfact> 0.85792580E+05</totfact>
</mgrwt>
</event>
<event>
 4    1  0.4029665E-002  0.6693585E+02  0.7818608E-02  0.1370834E+00
          1   -1    0    0    0  501  0.00000000000E+00  0.00000000000E+00  0.14101572491E+03  0.14101572500E+03  0.50400000000E-02 0. -1.
         -1   -1    0    0  501    0 -0.00000000000E+00 -0.00000000000E+00 -0.79430982042E+01  0.79430998032E+01  0.50400000000E-02 0. -1.
          2    1    1    2    0  502 -0.27287769895E+02 -0.92216733512E+01  0.10446221039E+03  0.10836057886E+03  0.25500000000E-02 0.  1.
         -2    1    1    2  502    0  0.27287769895E+02  0.92216733512E+01  0.28610416316E+02  0.40598245942E+02  0.25500000000E-02 0.  1.
<mgrwt>
<rscale>  0 0.66935846E+02</rscale>
<asrwt>0</asrwt>
<pdfrwt beam="1">  1        1 0.21694725E-01 0.66935846E+02</pdfrwt>
<pdfrwt beam="2">  1       -1 0.12220154E-02 0.66935846E+02</pdfrwt>
<totfact> 0.25159487E+05</totfact>
</mgrwt>
</event>
<event>
 4    1  0.4029665E-002  0.5399904E+02  0.7818608E-02  0.1424893E+00
         -1   -1    0    0  501    0 -0.00000000000E+00  0.00000000000E+00  0.34493999480E+00  0.34497681316E+00  0.50400000000E-02 0.  1.
          1   -1    0    0    0  501  0.00000000000E+00 -0.00000000000E+00 -0.21132234009E+04  0.21132234009E+04  0.50400000000E-02 0.  1.
          2    1    1    2    0  502  0.20844530143E+02  0.13544542370E+02 -0.64401816067E+03  0.64449774270E+03  0.25500000000E-02 0. -1.
         -2    1    1    2  502    0 -0.20844530143E+02 -0.13544542370E+02 -0.14688603002E+04  0.14690706350E+04  0.25500000000E-02 0. -1.
<mgrwt>
<rscale>  0 0.53999044E+02</rscale>
<asrwt>0</asrwt>
<pdfrwt beam="2">  1        1 0.32510093E+00 0.53999044E+02</pdfrwt>
<pdfrwt beam="1">  1       -1 0.53072216E-04 0.53999044E+02</pdfrwt>
<totfact> 0.28448056E+05</totfact>
</mgrwt>
</event>
<event>
 4    1  0.4029665E-002  0.5761831E+02  0.7818608E-02  0.1408107E+00
         -1   -1    0    0  501    0 -0.00000000000E+00  0.00000000000E+00  0.19341066087E+03  0.19341066094E+03  0.50400000000E-02 0. -1.
          1   -1    0    0    0  501  0.00000000000E+00 -0.00000000000E+00 -0.42912163874E+01  0.42912193472E+01  0.50400000000E-02 0. -1.
          2    1    1    2    0  502 -0.27392508187E+02  0.71026072140E+01  0.11309180182E+03  0.11657852366E+03  0.25500000000E-02 0.  1.
         -2    1    1    2  502    0  0.27392508187E+02 -0.71026072140E+01  0.76027642668E+02  0.81123356625E+02  0.25500000000E-02 0.  1.
<mgrwt>
<rscale>  0 0.57618306E+02</rscale>
<asrwt>0</asrwt>
<pdfrwt beam="2">  1        1 0.66018737E-03 0.57618306E+02</pdfrwt>
<pdfrwt beam="1">  1       -1 0.29755487E-01 0.57618306E+02</pdfrwt>
<totfact> 0.22707887E+05</totfact>
</mgrwt>
</event>
<event>
 4    1  0.4029665E-002  0.4364591E+02  0.7818608E-02  0.1482976E+00
         -1   -1    0    0  501    0 -0.00000000000E+00  0.00000000000E+00  0.63921953826E+03  0.63921953828E+03  0.50400000000E-02 0. -1.
          1   -1    0    0    0  501  0.00000000000E+00 -0.00000000000E+00 -0.74502717098E+00  0.74504421822E+00  0.50400000000E-02 0. -1.
          2    1    1    2    0  502  0.20761726317E+01 -0.21174254757E+02  0.24803380306E+03  0.24894462642E+03  0.25500000000E-02 0.  1.
         -2    1    1    2  502    0 -0.20761726317E+01  0.21174254757E+02  0.39044070803E+03  0.39101995608E+03  0.25500000000E-02 0.  1.
<mgrwt>
<rscale>  0 0.43645911E+02</rscale>
<asrwt>0</asrwt>
<pdfrwt beam="2">  1        1 0.11462086E-03 0.43645911E+02</pdfrwt>
<pdfrwt beam="1">  1       -1 0.98341486E-01 0.43645911E+02</pdfrwt>
<totfact> 0.25704109E+05</totfact>
</mgrwt>
</event>
<event>
 4    1  0.4029665E-002  0.4617032E+02  0.7818608E-02  0.1467165E+00
          1   -1    0    0    0  501  0.00000000000E+00  0.00000000000E+00  0.51818206583E+03  0.51818206585E+03  0.50400000000E-02 0.  1.
         -1   -1    0    0  501    0 -0.00000000000E+00 -0.00000000000E+00 -0.10284445055E+01  0.10284568549E+01  0.50400000000E-02 0.  1.
          2    1    1    2    0  502  0.18837832882E+02 -0.75343514461E+01  0.38242816664E+03  0.38296596852E+03  0.25500000000E-02 0. -1.
         -2    1    1    2  502    0 -0.18837832882E+02  0.75343514461E+01  0.13472545468E+03  0.13624455419E+03  0.25500000000E-02 0. -1.
<mgrwt>
<rscale>  0 0.46170324E+02</rscale>
<asrwt>0</asrwt>
<pdfrwt beam="1">  1        1 0.79720600E-01 0.46170324E+02</pdfrwt>
<pdfrwt beam="2">  1       -1 0.15822262E-03 0.46170324E+02</pdfrwt>
<totfact> 0.79633813E+05</totfact>
</mgrwt>
</event>
<event>
 4    1  0.4029665E-002  0.5099257E+02  0.7818608E-02  0.1440060E+00
          1   -1    0    0    0  501  0.00000000000E+00  0.00000000000E+00  0.15592534837E+04  0.15592534837E+04  0.50400000000E-02 0. -1.
         -1   -1    0    0  501    0 -0.00000000000E+00 -0.00000000000E+00 -0.41688972755E+00  0.41692019205E+00  0.50400000000E-02 0. -1.
          2    1    1    2    0  502 -0.15744863933E+02 -0.18630778330E+02  0.10063629149E+04  0.10066584938E+04  0.25500000000E-02 0. -1.
         -2    1    1    2  502    0  0.15744863933E+02  0.18630778330E+02  0.55247367904E+03  0.55301191007E+03  0.25500000000E-02 0. -1.
<mgrwt>
<rscale>  0 0.50992569E+02</rscale>
<asrwt>0</asrwt>
<pdfrwt beam="1">  1        1 0.23988976E+00 0.50992569E+02</pdfrwt>
<pdfrwt beam="2">  1       -1 0.64137993E-04 0.50992569E+02</pdfrwt>
<totfact> 0.47728918E+05</totfact>
</mgrwt>
</event>
<event>
 4    1  0.4029665E-002  0.4222143E+02  0.7818608E-02  0.1492473E+00
         -1   -1    0    0  501    0 -0.00000000000E+00  0.00000000000E+00  0.10031512333E+04  0.10031512333E+04  0.50400000000E-02 0. -1.
          1   -1    0    0    0  501  0.00000000000E+00 -0.00000000000E+00 -0.44424802761E+00  0.44427661613E+00  0.50400000000E-02 0. -1.
          2    1    1    2    0  502 -0.11801749490E+02 -0.16265658009E+02  0.65504951524E+03  0.65535770412E+03  0.25500000000E-02 0. -1.
         -2    1    1    2  502    0  0.11801749490E+02  0.16265658009E+02  0.34765747000E+03  0.34823780578E+03  0.25500000000E-02 0. -1.
<mgrwt>
<rscale>  0 0.42221431E+02</rscale>
<asrwt>0</asrwt>
<pdfrwt beam="2">  1        1 0.68348796E-04 0.42221431E+02</pdfrwt>
<pdfrwt beam="1">  1       -1 0.15432928E+00 0.42221431E+02</pdfrwt>
<totfact> 0.17982100E+05</totfact>
</mgrwt>
</event>
<event>
 4    1  0.4029665E-002  0.1134031E+03  0.7818608E-02  0.1254395E+00
          1   -1    0    0    0  501  0.00000000000E+00  0.00000000000E+00  0.13948041355E+03  0.13948041364E+03  0.50400000000E-02 0.  1.
         -1   -1    0    0  501    0 -0.00000000000E+00 -0.00000000000E+00 -0.23050306119E+02  0.23050306670E+02  0.50400000000E-02 0.  1.
          2    1    1    2    0  502  0.27306681648E+02  0.49012431364E+02  0.69963284383E+02  0.89681293808E+02  0.25500000000E-02 0. -1.
         -2    1    1    2  502    0 -0.27306681648E+02 -0.49012431364E+02  0.46466823043E+02  0.72849426498E+02  0.25500000000E-02 0. -1.
<mgrwt>
<rscale>  0 0.11340311E+03</rscale>
<asrwt>0</asrwt>
<pdfrwt beam="1">  1        1 0.21458525E-01 0.11340311E+03</pdfrwt>
<pdfrwt beam="2">  1       -1 0.35462011E-02 0.11340311E+03</pdfrwt>
<totfact> 0.60868855E+04</totfact>
</mgrwt>
</event>
<event>
 4    1  0.4029665E-002  0.5388432E+02  0.7818608E-02  0.1425450E+00
          1   -1    0    0    0  501  0.00000000000E+00  0.00000000000E+00  0.60325189648E+00  0.60327295000E+00  0.50400000000E-02 0. -1.
         -1   -1    0    0  501    0 -0.00000000000E+00 -0.00000000000E+00 -0.12032574271E+04  0.12032574272E+04  0.50400000000E-02 0. -1.
          2    1    1    2    0  502  0.17733209552E+02  0.19173828349E+02 -0.74914930570E+03  0.74960441878E+03  0.25500000000E-02 0.  1.
         -2    1    1    2  502    0 -0.17733209552E+02 -0.19173828349E+02 -0.45350486954E+03  0.45425628132E+03  0.25500000000E-02 0.  1.
<mgrwt>
<rscale>  0 0.53884321E+02</rscale>
<asrwt>0</asrwt>
<pdfrwt beam="1">  1        1 0.92810567E-04 0.53884321E+02</pdfrwt>
<pdfrwt beam="2">  1       -1 0.18511461E+00 0.53884321E+02</pdfrwt>
<totfact> 0.77319636E+04</totfact>
</mgrwt>
</event>
<event>
 4    1  0.4029665E-002  0.7144441E+02  0.7818608E-02  0.1355249E+00
          1   -1    0    0    0  501  0.00000000000E+00  0.00000000000E+00  0.56737074761E+02  0.56737074985E+02  0.50400000000E-02 0.  1.
         -1   -1    0    0  501    0 -0.00000000000E+00 -0.00000000000E+00 -0.22491038562E+02  0.22491039127E+02  0.50400000000E-02 0.  1.
          2    1    1    2    0  502 -0.27241569628E+02 -0.16468607354E+02 -0.85280350077E+00  0.31844079894E+02  0.25500000000E-02 0. -1.
         -2    1    1    2  502    0  0.27241569628E+02  0.16468607354E+02  0.35098839699E+02  0.47384034218E+02  0.25500000000E-02 0. -1.
<mgrwt>
<rscale>  0 0.71444405E+02</rscale>
<asrwt>0</asrwt>
<pdfrwt beam="1">  1        1 0.87287807E-02 0.71444405E+02</pdfrwt>
<pdfrwt beam="2">  1       -1 0.34601599E-02 0.71444405E+02</pdfrwt>
<totfact> 0.18589069E+05</totfact>
</mgrwt>
</event>
<event>
 4    1  0.4029665E-002  0.9939209E+02  0.7818608E-02  0.1281580E+00
          1   -1    0    0    0  501  0.00000000000E+00  0.00000000000E+00  0.16076838229E+02  0.16076839019E+02  0.50400000000E-02 0. -1.
         -1   -1    0    0  501    0 -0.00000000000E+00 -0.00000000000E+00 -0.15361832232E+03  0.15361832240E+03  0.50400000000E-02 0. -1.
          2    1    1    2    0  502 -0.48545649375E+02 -0.29858068210E+01 -0.51350792596E+02  0.70728346667E+02  0.25500000000E-02 0. -1.
         -2    1    1    2  502    0  0.48545649375E+02  0.29858068210E+01 -0.86190691498E+02  0.98966814756E+02  0.25500000000E-02 0. -1.
<mgrwt>
<rscale>  0 0.99392092E+02</rscale>
<asrwt>0</asrwt>
<pdfrwt beam="1">  1        1 0.24733599E-02 0.99392092E+02</pdfrwt>
<pdfrwt beam="2">  1       -1 0.23633587E-01 0.99392092E+02</pdfrwt>
<totfact> 0.59408504E+04</totfact>
</mgrwt>
</event>
<event>
 4    1  0.4029665E-002  0.4876317E+02  0.7818608E-02  0.1452129E+00
         -1   -1    0    0  501    0 -0.00000000000E+00  0.00000000000E+00  0.51073005083E+01  0.51073029951E+01  0.50400000000E-02 0. -1.
          1   -1    0    0    0  501  0.00000000000E+00 -0.00000000000E+00 -0.11639445071E+03  0.11639445081E+03  0.50400000000E-02 0. -1.
          2    1    1    2    0  502 -0.13213663081E+02  0.18018550903E+02 -0.79953972672E+02  0.83017509124E+02  0.25500000000E-02 0.  1.
         -2    1    1    2  502    0  0.13213663081E+02 -0.18018550903E+02 -0.31333177526E+02  0.38484244686E+02  0.25500000000E-02 0.  1.
<mgrwt>
<rscale>  0 0.48763166E+02</rscale>
<asrwt>0</asrwt>
<pdfrwt beam="2">  1        1 0.17906837E-01 0.48763166E+02</pdfrwt>
<pdfrwt beam="1">  1       -1 0.78573883E-03 0.48763166E+02</pdfrwt>
<totfact> 0.54916684E+05</totfact>
</mgrwt>
</event>
<event>
 4    1  0.4029665E-002  0.5647605E+02  0.7818608E-02  0.1413245E+00
          1   -1    0    0    0  501  0.00000000000E+00  0.00000000000E+00  0.21463715378E+03  0.21463715384E+03  0.50400000000E-02 0.  1.
         -1   -1    0    0  501    0 -0.00000000000E+00 -0.00000000000E+00 -0.37150404299E+01  0.37150438486E+01  0.50400000000E-02 0.  1.
          2    1    1    2    0  502 -0.65929399198E+01 -0.22010143561E+02  0.41993655713E+02  0.47868365367E+02  0.25500000000E-02 0. -1.
         -2    1    1    2  502    0  0.65929399198E+01  0.22010143561E+02  0.16892845764E+03  0.17048383232E+03  0.25500000000E-02 0. -1.
<mgrwt>
<rscale>  0 0.56476051E+02</rscale>
<asrwt>0</asrwt>
<pdfrwt beam="1">  1        1 0.33021087E-01 0.56476051E+02</pdfrwt>
<pdfrwt beam="2">  1       -1 0.57154519E-03 0.56476051E+02</pdfrwt>
<totfact> 0.41860722E+05</totfact>
</mgrwt>
</event>
<event>
 4    1  0.4029665E-002  0.4294525E+02  0.7818608E-02  0.1487592E+00
          1   -1    0    0    0  501  0.00000000000E+00  0.00000000000E+00  0.52263360639E+03  0.52263360641E+03  0.50400000000E-02 0.  1.
         -1   -1    0    0  501    0 -0.00000000000E+00 -0.00000000000E+00 -0.88220475736E+00  0.88221915390E+00  0.50400000000E-02 0.  1.
          2    1    1    2    0  502  0.19221194235E+02 -0.59445076678E+01  0.35232912898E+03  0.35290311222E+03  0.25500000000E-02 0. -1.
         -2    1    1    2  502    0 -0.19221194235E+02  0.59445076678E+01  0.16942227265E+03  0.17061271335E+03  0.25500000000E-02 0. -1.
<mgrwt>
<rscale>  0 0.42945250E+02</rscale>
<asrwt>0</asrwt>
<pdfrwt beam="1">  1        1 0.80405215E-01 0.42945250E+02</pdfrwt>
<pdfrwt beam="2">  1       -1 0.13572484E-03 0.42945250E+02</pdfrwt>
<totfact> 0.95151911E+05</totfact>
</mgrwt>
</event>
<event>
 4    1  0.4029665E-002  0.4535230E+02  0.7818608E-02  0.1472154E+00
          1   -1    0    0    0  501  0.00000000000E+00  0.00000000000E+00  0.16284898033E+04  0.16284898033E+04  0.50400000000E-02 0. -1.
         -1   -1    0    0  501    0 -0.00000000000E+00 -0.00000000000E+00 -0.31573726986E+00  0.31577749315E+00  0.50400000000E-02 0. -1.
          2    1    1    2    0  502 -0.11516827275E+02  0.16488090574E+02  0.11902703161E+04  0.11904402210E+04  0.25500000000E-02 0.  1.
         -2    1    1    2  502    0  0.11516827275E+02 -0.16488090574E+02  0.43790374998E+03  0.43836535983E+03  0.25500000000E-02 0.  1.
<mgrwt>
<rscale>  0 0.45352296E+02</rscale>
<asrwt>0</asrwt>
<pdfrwt beam="1">  1        1 0.25054376E+00 0.45352296E+02</pdfrwt>
<pdfrwt beam="2">  1       -1 0.48576729E-04 0.45352296E+02</pdfrwt>
<totfact> 0.61400569E+05</totfact>
</mgrwt>
</event>
<event>
 4    1  0.4029665E-002  0.4781558E+02  0.7818608E-02  0.1457493E+00
          1   -1    0    0    0  501  0.00000000000E+00  0.00000000000E+00  0.11510570680E+02  0.11510571783E+02  0.50400000000E-02 0.  1.
         -1   -1    0    0  501    0 -0.00000000000E+00 -0.00000000000E+00 -0.49657177092E+02  0.49657177348E+02  0.50400000000E-02 0.  1.
          2    1    1    2    0  502 -0.21753610385E+02 -0.99763150660E-01 -0.31759947790E+02  0.38495763502E+02  0.25500000000E-02 0. -1.
         -2    1    1    2  502    0  0.21753610385E+02  0.99763150660E-01 -0.63866586223E+01  0.22671985629E+02  0.25500000000E-02 0. -1.
<mgrwt>
<rscale>  0 0.47815583E+02</rscale>
<asrwt>0</asrwt>
<pdfrwt beam="1">  1        1 0.17708572E-02 0.47815583E+02</pdfrwt>
<pdfrwt beam="2">  1       -1 0.76395657E-02 0.47815583E+02</pdfrwt>
<totfact> 0.45633591E+05</totfact>
</mgrwt>
</event>
<event>
 4    1  0.4029665E-002  0.5512827E+02  0.7818608E-02  0.1419493E+00
         -1   -1    0    0  501    0 -0.00000000000E+00  0.00000000000E+00  0.69951343982E+03  0.69951343984E+03  0.50400000000E-02 0. -1.
          1   -1    0    0    0  501  0.00000000000E+00 -0.00000000000E+00 -0.10861514040E+01  0.10861630973E+01  0.50400000000E-02 0. -1.
          2    1    1    2    0  502  0.27123502084E+02  0.55436971640E-01  0.28683277548E+03  0.28811235401E+03  0.25500000000E-02 0.  1.
         -2    1    1    2  502    0 -0.27123502084E+02 -0.55436971640E-01  0.41159451293E+03  0.41248724892E+03  0.25500000000E-02 0.  1.
<mgrwt>
<rscale>  0 0.55128273E+02</rscale>
<asrwt>0</asrwt>
<pdfrwt beam="2">  1        1 0.16710120E-03 0.55128273E+02</pdfrwt>
<pdfrwt beam="1">  1       -1 0.10761740E+00 0.55128273E+02</pdfrwt>
<totfact> 0.13416712E+05</totfact>
</mgrwt>
</event>
<event>
 4    1  0.4029665E-002  0.4717191E+02  0.7818608E-02  0.1461221E+00
          1   -1    0    0    0  501  0.00000000000E+00  0.00000000000E+00  0.53450481221E+03  0.53450481224E+03  0.50400000000E-02 0.  1.
         -1   -1    0    0  501    0 -0.00000000000E+00 -0.00000000000E+00 -0.10407650532E+01  0.10407772564E+01  0.50400000000E-02 0.  1.
          2    1    1    2    0  502  0.12907867777E+02  0.19548445529E+02  0.29791147544E+03  0.29883105926E+03  0.25500000000E-02 0. -1.
         -2    1    1    2  502    0 -0.12907867777E+02 -0.19548445529E+02  0.23555257172E+03  0.23671453023E+03  0.25500000000E-02 0. -1.
<mgrwt>
<rscale>  0 0.47171907E+02</rscale>
<asrwt>0</asrwt>
<pdfrwt beam="1">  1        1 0.82231832E-01 0.47171907E+02</pdfrwt>
<pdfrwt beam="2">  1       -1 0.16011802E-03 0.47171907E+02</pdfrwt>
<totfact> 0.75754419E+05</totfact>
</mgrwt>
</event>
<event>
 4    1  0.4029665E-002  0.4359709E+02  0.7818608E-02  0.1483295E+00
          1   -1    0    0    0  501  0.00000000000E+00  0.00000000000E+00  0.32460932111E+02  0.32460932502E+02  0.50400000000E-02 0. -1.
         -1   -1    0    0  501    0 -0.00000000000E+00 -0.00000000000E+00 -0.14638414130E+02  0.14638414998E+02  0.50400000000E-02 0. -1.
          2    1    1    2    0  502  0.66753234182E+01  0.20504919921E+02  0.12355623237E+02  0.24853030314E+02  0.25500000000E-02 0. -1.
         -2    1    1    2  502    0 -0.66753234182E+01 -0.20504919921E+02  0.54668947432E+01  0.22246317186E+02  0.25500000000E-02 0. -1.
<mgrwt>
<rscale>  0 0.43597092E+02</rscale>
<asrwt>0</asrwt>
<pdfrwt beam="1">  1        1 0.49939896E-02 0.43597092E+02</pdfrwt>
<pdfrwt beam="2">  1       -1 0.22520638E-02 0.43597092E+02</pdfrwt>
<totfact> 0.63541421E+05</totfact>
</mgrwt>
</event>
<event>
 4    1  0.4029665E-002  0.4925083E+02  0.7818608E-02  0.1449425E+00
         -1   -1    0    0  501    0 -0.00000000000E+00  0.00000000000E+00  0.52634419903E+02  0.52634420144E+02  0.50400000000E-02 0. -1.
          1   -1    0    0    0  501  0.00000000000E+00 -0.00000000000E+00 -0.11521187082E+02  0.11521188185E+02  0.50400000000E-02 0. -1.
          2    1    1    2    0  502 -0.82704503810E+01 -0.21330939103E+02  0.86889690056E+01  0.24472586733E+02  0.25500000000E-02 0. -1.
         -2    1    1    2  502    0  0.82704503810E+01  0.21330939103E+02  0.32424263815E+02  0.39683021596E+02  0.25500000000E-02 0. -1.
<mgrwt>
<rscale>  0 0.49250829E+02</rscale>
<asrwt>0</asrwt>
<pdfrwt beam="2">  1        1 0.17724904E-02 0.49250829E+02</pdfrwt>
<pdfrwt beam="1">  1       -1 0.80976031E-02 0.49250829E+02</pdfrwt>
<totfact> 0.42169427E+05</totfact>
</mgrwt>
</event>
<event>
 4    1  0.4029665E-002  0.4226806E+02  0.7818608E-02  0.1492155E+00
          1   -1    0    0    0  501  0.00000000000E+00  0.00000000000E+00  0.66800011745E+03  0.66800011747E+03  0.50400000000E-02 0. -1.
         -1   -1    0    0  501    0 -0.00000000000E+00 -0.00000000000E+00 -0.66862397591E+00  0.66864297107E+00  0.50400000000E-02 0. -1.
          2    1    1    2    0  502  0.13167624347E+01  0.20927252552E+02  0.29192002778E+03  0.29267214829E+03  0.25500000000E-02 0.  1.
         -2    1    1    2  502    0 -0.13167624347E+01 -0.20927252552E+02  0.37541146569E+03  0.37599661214E+03  0.25500000000E-02 0.  1.
<mgrwt>
<rscale>  0 0.42268061E+02</rscale>
<asrwt>0</asrwt>
<pdfrwt beam="1">  1        1 0.10276934E+00 0.42268061E+02</pdfrwt>
<pdfrwt beam="2">  1       -1 0.10286660E-03 0.42268061E+02</pdfrwt>
<totfact> 0.10024162E+06</totfact>
</mgrwt>
</event>
<event>
 4    1  0.4029665E-002  0.4812298E+02  0.7818608E-02  0.1455737E+00
          1   -1    0    0    0  501  0.00000000000E+00  0.00000000000E+00  0.89424100963E+03  0.89424100965E+03  0.50400000000E-02 0.  1.
         -1   -1    0    0  501    0 -0.00000000000E+00 -0.00000000000E+00 -0.64741665796E+00  0.64743627532E+00  0.50400000000E-02 0.  1.
          2    1    1    2    0  502 -0.18778834765E+02 -0.13837877088E+02  0.33705940658E+03  0.33786561685E+03  0.25500000000E-02 0.  1.
         -2    1    1    2  502    0  0.18778834765E+02  0.13837877088E+02  0.55653418639E+03  0.55702282907E+03  0.25500000000E-02 0.  1.
<mgrwt>
<rscale>  0 0.48122980E+02</rscale>
<asrwt>0</asrwt>
<pdfrwt beam="1">  1        1 0.13757637E+00 0.48122980E+02</pdfrwt>
<pdfrwt beam="2">  1       -1 0.99603474E-04 0.48122980E+02</pdfrwt>
<totfact> 0.71451368E+05</totfact>
</mgrwt>
</event>
<event>
 4    1  0.4029665E-002  0.4204639E+02  0.7818608E-02  0.1493670E+00
          1   -1    0    0    0  501  0.00000000000E+00  0.00000000000E+00  0.53590512170E+01  0.53590535870E+01  0.50400000000E-02 0. -1.
         -1   -1    0    0  501    0 -0.00000000000E+00 -0.00000000000E+00 -0.82472540447E+02  0.82472540601E+02  0.50400000000E-02 0. -1.
          2    1    1    2    0  502  0.16070120408E+02  0.13550135289E+02 -0.37833916508E+02  0.43281175829E+02  0.25500000000E-02 0. -1.
         -2    1    1    2  502    0 -0.16070120408E+02 -0.13550135289E+02 -0.39279572721E+02  0.44550418359E+02  0.25500000000E-02 0. -1.
<mgrwt>
<rscale>  0 0.42046388E+02</rscale>
<asrwt>0</asrwt>
<pdfrwt beam="1">  1        1 0.82446967E-03 0.42046388E+02</pdfrwt>
<pdfrwt beam="2">  1       -1 0.12688082E-01 0.42046388E+02</pdfrwt>
<totfact> 0.58636457E+05</totfact>
</mgrwt>
</event>
<event>
 4    1  0.4029665E-002  0.4059823E+02  0.7818608E-02  0.1503855E+00
          1   -1    0    0    0  501  0.00000000000E+00  0.00000000000E+00  0.19983605903E+01  0.19983669459E+01  0.50400000000E-02 0.  1.
         -1   -1    0    0  501    0 -0.00000000000E+00 -0.00000000000E+00 -0.20619570828E+03  0.20619570834E+03  0.50400000000E-02 0.  1.
          2    1    1    2    0  502 -0.15097840862E+02  0.13189315238E+02 -0.11843746985E+03  0.12012217574E+03  0.25500000000E-02 0.  1.
         -2    1    1    2  502    0  0.15097840862E+02 -0.13189315238E+02 -0.85759877843E+02  0.88071899544E+02  0.25500000000E-02 0.  1.
<mgrwt>
<rscale>  0 0.40598229E+02</rscale>
<asrwt>0</asrwt>
<pdfrwt beam="1">  1        1 0.30744075E-03 0.40598229E+02</pdfrwt>
<pdfrwt beam="2">  1       -1 0.31722400E-01 0.40598229E+02</pdfrwt>
<totfact> 0.52947700E+05</totfact>
</mgrwt>
</event>
<event>
 4    1  0.4029665E-002  0.7439413E+02  0.7818608E-02  0.1345758E+00
          1   -1    0    0    0  501  0.00000000000E+00  0.00000000000E+00  0.34626174030E+01  0.34626210710E+01  0.50400000000E-02 0. -1.
         -1   -1    0    0  501    0 -0.00000000000E+00 -0.00000000000E+00 -0.39958817047E+03  0.39958817050E+03  0.50400000000E-02 0. -1.
          2    1    1    2    0  502  0.30586818720E+02  0.10550719251E+02 -0.29748311756E+03  0.29923749163E+03  0.25500000000E-02 0. -1.
         -2    1    1    2  502    0 -0.30586818720E+02 -0.10550719251E+02 -0.98642435502E+02  0.10381329994E+03  0.25500000000E-02 0. -1.
<mgrwt>
<rscale>  0 0.74394131E+02</rscale>
<asrwt>0</asrwt>
<pdfrwt beam="1">  1        1 0.53271097E-03 0.74394131E+02</pdfrwt>
<pdfrwt beam="2">  1       -1 0.61475067E-01 0.74394131E+02</pdfrwt>
<totfact> 0.90463772E+04</totfact>
</mgrwt>
</event>
<event>
 4    1  0.4029665E-002  0.4448489E+02  0.7818608E-02  0.1477583E+00
          1   -1    0    0    0  501  0.00000000000E+00  0.00000000000E+00  0.32580935189E+01  0.32580974171E+01  0.50400000000E-02 0.  1.
         -1   -1    0    0  501    0 -0.00000000000E+00 -0.00000000000E+00 -0.15184524515E+03  0.15184524523E+03  0.50400000000E-02 0.  1.
          2    1    1    2    0  502  0.52893180366E+01 -0.21576595883E+02 -0.70474241012E+02  0.73892794155E+02  0.25500000000E-02 0.  1.
         -2    1    1    2  502    0 -0.52893180366E+01  0.21576595883E+02 -0.78112910615E+02  0.81210548493E+02  0.25500000000E-02 0.  1.
<mgrwt>
<rscale>  0 0.44484888E+02</rscale>
<asrwt>0</asrwt>
<pdfrwt beam="1">  1        1 0.50124558E-03 0.44484888E+02</pdfrwt>
<pdfrwt beam="2">  1       -1 0.23360802E-01 0.44484888E+02</pdfrwt>
<totfact> 0.45786579E+05</totfact>
</mgrwt>
</event>
<event>
 4    1  0.4029665E-002  0.7235262E+02  0.7818608E-02  0.1352271E+00
         -1   -1    0    0  501    0 -0.00000000000E+00  0.00000000000E+00  0.52150341590E+02  0.52150341833E+02  0.50400000000E-02 0.  1.
          1   -1    0    0    0  501  0.00000000000E+00 -0.00000000000E+00 -0.25095240169E+02  0.25095240675E+02  0.50400000000E-02 0.  1.
          2    1    1    2    0  502 -0.22916318060E+02  0.26530108740E+02  0.39950697841E+01  0.35284060030E+02  0.25500000000E-02 0.  1.
         -2    1    1    2  502    0  0.22916318060E+02 -0.26530108740E+02  0.23060031636E+02  0.41961522479E+02  0.25500000000E-02 0.  1.
<mgrwt>
<rscale>  0 0.72352619E+02</rscale>
<asrwt>0</asrwt>
<pdfrwt beam="2">  1        1 0.38608063E-02 0.72352619E+02</pdfrwt>
<pdfrwt beam="1">  1       -1 0.80231294E-02 0.72352619E+02</pdfrwt>
<totfact> 0.16218787E+05</totfact>
</mgrwt>
</event>
<event>
 4    1  0.4029665E-002  0.4926171E+02  0.7818608E-02  0.1449365E+00
         -1   -1    0    0  501    0 -0.00000000000E+00  0.00000000000E+00  0.78796391258E+00  0.78798003092E+00  0.50400000000E-02 0. -1.
          1   -1    0    0    0  501  0.00000000000E+00 -0.00000000000E+00 -0.76992469125E+03  0.76992469126E+03  0.50400000000E-02 0. -1.
          2    1    1    2    0  502  0.11055123394E+02  0.21628517969E+02 -0.44844732272E+03  0.44910467578E+03  0.25500000000E-02 0.  1.
         -2    1    1    2  502    0 -0.11055123394E+02 -0.21628517969E+02 -0.32068940461E+03  0.32160799552E+03  0.25500000000E-02 0.  1.
<mgrwt>
<rscale>  0 0.49261713E+02</rscale>
<asrwt>0</asrwt>
<pdfrwt beam="2">  1        1 0.11844935E+00 0.49261713E+02</pdfrwt>
<pdfrwt beam="1">  1       -1 0.12122707E-03 0.49261713E+02</pdfrwt>
<totfact> 0.68594303E+05</totfact>
</mgrwt>
</event>
<event>
 4    1  0.4029665E-002  0.8641543E+02  0.7818608E-02  0.1311772E+00
          1   -1    0    0    0  501  0.00000000000E+00  0.00000000000E+00  0.29449611047E+04  0.29449611047E+04  0.50400000000E-02 0.  1.
         -1   -1    0    0  501    0 -0.00000000000E+00 -0.00000000000E+00 -0.63392253242E+00  0.63394256736E+00  0.50400000000E-02 0.  1.
          2    1    1    2    0  502 -0.35971928894E+02 -0.11042318039E+02  0.74828248716E+03  0.74922799804E+03  0.25500000000E-02 0. -1.
         -2    1    1    2  502    0  0.35971928894E+02  0.11042318039E+02  0.21960446950E+04  0.21963670492E+04  0.25500000000E-02 0. -1.
<mgrwt>
<rscale>  0 0.86415432E+02</rscale>
<asrwt>0</asrwt>
<pdfrwt beam="1">  1        1 0.45307408E+00 0.86415432E+02</pdfrwt>
<pdfrwt beam="2">  1       -1 0.97527409E-04 0.86415432E+02</pdfrwt>
<totfact> 0.38549298E+04</totfact>
</mgrwt>
</event>
<event>
 4    1  0.4029665E-002  0.5959760E+02  0.7818608E-02  0.1399528E+00
          1   -1    0    0    0  501  0.00000000000E+00  0.00000000000E+00  0.85104266644E+01  0.85104281567E+01  0.50400000000E-02 0.  1.
         -1   -1    0    0  501    0 -0.00000000000E+00 -0.00000000000E+00 -0.10433887320E+03  0.10433887332E+03  0.50400000000E-02 0.  1.
          2    1    1    2    0  502 -0.37755343507E+01  0.20438476820E+02 -0.74804596051E+01  0.22089438127E+02  0.25500000000E-02 0. -1.
         -2    1    1    2  502    0  0.37755343507E+01 -0.20438476820E+02 -0.88347986930E+02  0.90759863351E+02  0.25500000000E-02 0. -1.
<mgrwt>
<rscale>  0 0.59597598E+02</rscale>
<asrwt>0</asrwt>
<pdfrwt beam="1">  1        1 0.13092966E-02 0.59597598E+02</pdfrwt>
<pdfrwt beam="2">  1       -1 0.16052134E-01 0.59597598E+02</pdfrwt>
<totfact> 0.23852891E+05</totfact>
</mgrwt>
</event>
<event>
 4    1  0.4029665E-002  0.5596389E+02  0.7818608E-02  0.1415595E+00
         -1   -1    0    0  501    0 -0.00000000000E+00  0.00000000000E+00  0.34989212303E+03  0.34989212306E+03  0.50400000000E-02 0. -1.
          1   -1    0    0    0  501  0.00000000000E+00 -0.00000000000E+00 -0.22377990687E+01  0.22378047443E+01  0.50400000000E-02 0. -1.
          2    1    1    2    0  502 -0.20295411451E+02 -0.17690228917E+02  0.22180465584E+03  0.22343265940E+03  0.25500000000E-02 0. -1.
         -2    1    1    2  502    0  0.20295411451E+02  0.17690228917E+02  0.12584966812E+03  0.12869726841E+03  0.25500000000E-02 0. -1.
<mgrwt>
<rscale>  0 0.55963891E+02</rscale>
<asrwt>0</asrwt>
<pdfrwt beam="2">  1        1 0.34427752E-03 0.55963891E+02</pdfrwt>
<pdfrwt beam="1">  1       -1 0.53829511E-01 0.55963891E+02</pdfrwt>
<totfact> 0.19866978E+05</totfact>
</mgrwt>
</event>
<event>
 4    1  0.4029665E-002  0.4362016E+02  0.7818608E-02  0.1483144E+00
         -1   -1    0    0  501    0 -0.00000000000E+00  0.00000000000E+00  0.12869959496E+03  0.12869959506E+03  0.50400000000E-02 0.  1.
          1   -1    0    0    0  501  0.00000000000E+00 -0.00000000000E+00 -0.36960434834E+01  0.36960469197E+01  0.50400000000E-02 0.  1.
          2    1    1    2    0  502  0.12466796379E+02 -0.16906622723E+02  0.44693533395E+02  0.49383872243E+02  0.25500000000E-02 0. -1.
         -2    1    1    2  502    0 -0.12466796379E+02  0.16906622723E+02  0.80310018081E+02  0.83011769735E+02  0.25500000000E-02 0. -1.
<mgrwt>
<rscale>  0 0.43620157E+02</rscale>
<asrwt>0</asrwt>
<pdfrwt beam="2">  1        1 0.56862245E-03 0.43620157E+02</pdfrwt>
<pdfrwt beam="1">  1       -1 0.19799934E-01 0.43620157E+02</pdfrwt>
<totfact> 0.49736906E+05</totfact>
</mgrwt>
</event>
<event>
 4    1  0.4029665E-002  0.4816437E+02  0.7818608E-02  0.1455502E+00
          1   -1    0    0    0  501  0.00000000000E+00  0.00000000000E+00  0.12545264423E+04  0.12545264423E+04  0.50400000000E-02 0.  1.
         -1   -1    0    0  501    0 -0.00000000000E+00 -0.00000000000E+00 -0.46227353850E+00  0.46230101233E+00  0.50400000000E-02 0.  1.
          2    1    1    2    0  502  0.11037466753E+02 -0.19036221606E+02  0.88199633233E+03  0.88227078250E+03  0.25500000000E-02 0.  1.
         -2    1    1    2  502    0 -0.11037466753E+02  0.19036221606E+02  0.37206783644E+03  0.37271796083E+03  0.25500000000E-02 0.  1.
<mgrwt>
<rscale>  0 0.48164370E+02</rscale>
<asrwt>0</asrwt>
<pdfrwt beam="1">  1        1 0.19300270E+00 0.48164370E+02</pdfrwt>
<pdfrwt beam="2">  1       -1 0.71121626E-04 0.48164370E+02</pdfrwt>
<totfact> 0.63856533E+05</totfact>
</mgrwt>
</event>
<event>
 4    1  0.4029665E-002  0.4566431E+02  0.7818608E-02  0.1470237E+00
          1   -1    0    0    0  501  0.00000000000E+00  0.00000000000E+00  0.12607016013E+04  0.12607016013E+04  0.50400000000E-02 0. -1.
         -1   -1    0    0  501    0 -0.00000000000E+00 -0.00000000000E+00 -0.41349031356E+00  0.41352102850E+00  0.50400000000E-02 0. -1.
          2    1    1    2    0  502 -0.19271723550E+02 -0.72413656320E+01  0.90279975629E+03  0.90303446040E+03  0.25500000000E-02 0. -1.
         -2    1    1    2  502    0  0.19271723550E+02  0.72413656320E+01  0.35748835466E+03  0.35808066190E+03  0.25500000000E-02 0. -1.
<mgrwt>
<rscale>  0 0.45664309E+02</rscale>
<asrwt>0</asrwt>
<pdfrwt beam="1">  1        1 0.19395288E+00 0.45664309E+02</pdfrwt>
<pdfrwt beam="2">  1       -1 0.63616656E-04 0.45664309E+02</pdfrwt>
<totfact> 0.72654855E+05</totfact>
</mgrwt>
</event>
<event>
 4    1  0.4029665E-002  0.5245425E+02  0.7818608E-02  0.1432536E+00
         -1   -1    0    0  501    0 -0.00000000000E+00  0.00000000000E+00  0.28262176137E+02  0.28262176586E+02  0.50400000000E-02 0. -1.
          1   -1    0    0    0  501  0.00000000000E+00 -0.00000000000E+00 -0.24338608740E+02  0.24338609262E+02  0.50400000000E-02 0. -1.
          2    1    1    2    0  502  0.23856627477E+02 -0.40839893714E+01  0.12091707785E+02  0.27055998363E+02  0.25500000000E-02 0.  1.
         -2    1    1    2  502    0 -0.23856627477E+02  0.40839893714E+01 -0.81681403875E+01  0.25544787485E+02  0.25500000000E-02 0.  1.
<mgrwt>
<rscale>  0 0.52454250E+02</rscale>
<asrwt>0</asrwt>
<pdfrwt beam="2">  1        1 0.37444014E-02 0.52454250E+02</pdfrwt>
<pdfrwt beam="1">  1       -1 0.43480272E-02 0.52454250E+02</pdfrwt>
<totfact> 0.38495726E+05</totfact>
</mgrwt>
</event>
<event>
 4    1  0.4029665E-002  0.4291347E+02  0.7818608E-02  0.1487804E+00
         -1   -1    0    0  501    0 -0.00000000000E+00  0.00000000000E+00  0.41642384177E+01  0.41642414677E+01  0.50400000000E-02 0.  1.
          1   -1    0    0    0  501  0.00000000000E+00 -0.00000000000E+00 -0.11055834267E+03  0.11055834279E+03  0.50400000000E-02 0.  1.
          2    1    1    2    0  502  0.76331389902E+01 -0.19846578884E+02 -0.45523117963E+02  0.50244460190E+02  0.25500000000E-02 0.  1.
         -2    1    1    2  502    0 -0.76331389902E+01  0.19846578884E+02 -0.60870986291E+02  0.64478124063E+02  0.25500000000E-02 0.  1.
<mgrwt>
<rscale>  0 0.42913470E+02</rscale>
<asrwt>0</asrwt>
<pdfrwt beam="2">  1        1 0.17008974E-01 0.42913470E+02</pdfrwt>
<pdfrwt beam="1">  1       -1 0.64065239E-03 0.42913470E+02</pdfrwt>
<totfact> 0.74982409E+05</totfact>
</mgrwt>
</event>
<event>
 4    1  0.4029665E-002  0.4676626E+02  0.7818608E-02  0.1463607E+00
          1   -1    0    0    0  501  0.00000000000E+00  0.00000000000E+00  0.92868328177E+01  0.92868341853E+01  0.50400000000E-02 0. -1.
         -1   -1    0    0  501    0 -0.00000000000E+00 -0.00000000000E+00 -0.58875909589E+02  0.58875909805E+02  0.50400000000E-02 0. -1.
          2    1    1    2    0  502 -0.17773540044E+02 -0.12166521382E+02 -0.38060994730E+02  0.43732851434E+02  0.25500000000E-02 0. -1.
         -2    1    1    2  502    0  0.17773540044E+02  0.12166521382E+02 -0.11528082042E+02  0.24429892556E+02  0.25500000000E-02 0. -1.
<mgrwt>
<rscale>  0 0.46766261E+02</rscale>
<asrwt>0</asrwt>
<pdfrwt beam="1">  1        1 0.14287437E-02 0.46766261E+02</pdfrwt>
<pdfrwt beam="2">  1       -1 0.90578321E-02 0.46766261E+02</pdfrwt>
<totfact> 0.47259891E+05</totfact>
</mgrwt>
</event>
<event>
 4    1  0.4029665E-002  0.4642834E+02  0.7818608E-02  0.1465617E+00
          1   -1    0    0    0  501  0.00000000000E+00  0.00000000000E+00  0.40868388205E+03  0.40868388208E+03  0.50400000000E-02 0.  1.
         -1   -1    0    0  501    0 -0.00000000000E+00 -0.00000000000E+00 -0.13186127018E+01  0.13186223337E+01  0.50400000000E-02 0.  1.
          2    1    1    2    0  502 -0.47920859779E+01 -0.21312956800E+02  0.13432152110E+03  0.13608628605E+03  0.25500000000E-02 0. -1.
         -2    1    1    2  502    0  0.47920859779E+01  0.21312956800E+02  0.27304374825E+03  0.27391621836E+03  0.25500000000E-02 0. -1.
<mgrwt>
<rscale>  0 0.46428342E+02</rscale>
<asrwt>0</asrwt>
<pdfrwt beam="1">  1        1 0.62874507E-01 0.46428342E+02</pdfrwt>
<pdfrwt beam="2">  1       -1 0.20286403E-03 0.46428342E+02</pdfrwt>
<totfact> 0.76267796E+05</totfact>
</mgrwt>
</event>
<event>
 4    1  0.4029665E-002  0.5951071E+02  0.7818608E-02  0.1399897E+00
         -1   -1    0    0  501    0 -0.00000000000E+00  0.00000000000E+00  0.22259896862E+01  0.22259953919E+01  0.50400000000E-02 0.  1.
          1   -1    0    0    0  501  0.00000000000E+00 -0.00000000000E+00 -0.39774673595E+03  0.39774673598E+03  0.50400000000E-02 0.  1.
          2    1    1    2    0  502 -0.34457658813E+01 -0.28213414571E+02 -0.13858820602E+03  0.14147282749E+03  0.25500000000E-02 0.  1.
         -2    1    1    2  502    0  0.34457658813E+01  0.28213414571E+02 -0.25693254025E+03  0.25849990389E+03  0.25500000000E-02 0.  1.
<mgrwt>
<rscale>  0 0.59510714E+02</rscale>
<asrwt>0</asrwt>
<pdfrwt beam="2">  1        1 0.61191749E-01 0.59510714E+02</pdfrwt>
<pdfrwt beam="1">  1       -1 0.34246071E-03 0.59510714E+02</pdfrwt>
<totfact> 0.40816328E+05</totfact>
</mgrwt>
</event>
<event>
 4    1  0.4029665E-002  0.6886798E+02  0.7818608E-02  0.1363985E+00
         -1   -1    0    0  501    0 -0.00000000000E+00  0.00000000000E+00  0.26216283505E+02  0.26216283989E+02  0.50400000000E-02 0.  1.
          1   -1    0    0    0  501  0.00000000000E+00 -0.00000000000E+00 -0.45227605967E+02  0.45227606248E+02  0.50400000000E-02 0.  1.
          2    1    1    2    0  502 -0.10563867608E+02  0.20131387628E+02 -0.36334764314E+02  0.42861208230E+02  0.25500000000E-02 0.  1.
         -2    1    1    2  502    0  0.10563867608E+02 -0.20131387628E+02  0.17323441852E+02  0.28582682008E+02  0.25500000000E-02 0.  1.
<mgrwt>
<rscale>  0 0.68867983E+02</rscale>
<asrwt>0</asrwt>
<pdfrwt beam="2">  1        1 0.69580933E-02 0.68867983E+02</pdfrwt>
<pdfrwt beam="1">  1       -1 0.40332744E-02 0.68867983E+02</pdfrwt>
<totfact> 0.19948490E+05</totfact>
</mgrwt>
</event>
<event>
 4    1  0.4029665E-002  0.5250453E+02  0.7818608E-02  0.1432283E+00
         -1   -1    0    0  501    0 -0.00000000000E+00  0.00000000000E+00  0.44131921573E+02  0.44131921861E+02  0.50400000000E-02 0. -1.
          1   -1    0    0    0  501  0.00000000000E+00 -0.00000000000E+00 -0.15616392848E+02  0.15616393661E+02  0.50400000000E-02 0. -1.
          2    1    1    2    0  502 -0.24866486846E+01  0.25980771339E+02  0.11039606435E+02  0.28338257142E+02  0.25500000000E-02 0. -1.
         -2    1    1    2  502    0  0.24866486846E+01 -0.25980771339E+02  0.17475922290E+02  0.31410058380E+02  0.25500000000E-02 0. -1.
<mgrwt>
<rscale>  0 0.52504532E+02</rscale>
<asrwt>0</asrwt>
<pdfrwt beam="2">  1        1 0.24025221E-02 0.52504532E+02</pdfrwt>
<pdfrwt beam="1">  1       -1 0.67895265E-02 0.52504532E+02</pdfrwt>
<totfact> 0.36736734E+05</totfact>
</mgrwt>
</event>
<event>
 4    1  0.4029665E-002  0.7187344E+02  0.7818608E-02  0.1353836E+00
          1   -1    0    0    0  501  0.00000000000E+00  0.00000000000E+00  0.60777578363E+03  0.60777578365E+03  0.50400000000E-02 0. -1.
         -1   -1    0    0  501    0 -0.00000000000E+00 -0.00000000000E+00 -0.21248726541E+01  0.21248786313E+01  0.50400000000E-02 0. -1.
          2    1    1    2    0  502  0.12091935263E+02 -0.21242662792E+02  0.79280505765E+02  0.82963029247E+02  0.25500000000E-02 0.  1.
         -2    1    1    2  502    0 -0.12091935263E+02  0.21242662792E+02  0.52637040521E+03  0.52693763304E+03  0.25500000000E-02 0.  1.
<mgrwt>
<rscale>  0 0.71873444E+02</rscale>
<asrwt>0</asrwt>
<pdfrwt beam="1">  1        1 0.93503982E-01 0.71873444E+02</pdfrwt>
<pdfrwt beam="2">  1       -1 0.32690389E-03 0.71873444E+02</pdfrwt>
<totfact> 0.26396413E+05</totfact>
</mgrwt>
</event>
<event>
 4    1  0.4029665E-002  0.5124552E+02  0.7818608E-02  0.1438737E+00
          1   -1    0    0    0  501  0.00000000000E+00  0.00000000000E+00  0.10402454313E+02  0.10402455534E+02  0.50400000000E-02 0.  1.
         -1   -1    0    0  501    0 -0.00000000000E+00 -0.00000000000E+00 -0.63112574535E+02  0.63112574737E+02  0.50400000000E-02 0.  1.
          2    1    1    2    0  502 -0.14831625495E+02 -0.19679270899E+02 -0.36425145447E+02  0.43977744887E+02  0.25500000000E-02 0. -1.
         -2    1    1    2  502    0  0.14831625495E+02  0.19679270899E+02 -0.16284974775E+02  0.29537285384E+02  0.25500000000E-02 0. -1.
<mgrwt>
<rscale>  0 0.51245516E+02</rscale>
<asrwt>0</asrwt>
<pdfrwt beam="1">  1        1 0.16003777E-02 0.51245516E+02</pdfrwt>
<pdfrwt beam="2">  1       -1 0.97096267E-02 0.51245516E+02</pdfrwt>
<totfact> 0.37427266E+05</totfact>
</mgrwt>
</event>
<event>
 4    1  0.4029665E-002  0.4321685E+02  0.7818608E-02  0.1485791E+00
         -1   -1    0    0  501    0 -0.00000000000E+00  0.00000000000E+00  0.21089568617E+00  0.21095590071E+00  0.50400000000E-02 0. -1.
          1   -1    0    0    0  501  0.00000000000E+00 -0.00000000000E+00 -0.22136885613E+04  0.22136885613E+04  0.50400000000E-02 0. -1.
          2    1    1    2    0  502 -0.53795204599E+01  0.20921057184E+02 -0.11345223997E+04  0.11347280314E+04  0.25500000000E-02 0. -1.
         -2    1    1    2  502    0  0.53795204599E+01 -0.20921057184E+02 -0.10789552659E+04  0.10791714857E+04  0.25500000000E-02 0. -1.
<mgrwt>
<rscale>  0 0.43216850E+02</rscale>
<asrwt>0</asrwt>
<pdfrwt beam="2">  1        1 0.34054887E+00 0.43216850E+02</pdfrwt>
<pdfrwt beam="1">  1       -1 0.32451895E-04 0.43216850E+02</pdfrwt>
<totfact> 0.45924537E+05</totfact>
</mgrwt>
</event>
<event>
 4    1  0.4029665E-002  0.4270569E+02  0.7818608E-02  0.1489195E+00
          1   -1    0    0    0  501  0.00000000000E+00  0.00000000000E+00  0.60943409028E+03  0.60943409030E+03  0.50400000000E-02 0.  1.
         -1   -1    0    0  501    0 -0.00000000000E+00 -0.00000000000E+00 -0.74813475177E+00  0.74815172820E+00  0.50400000000E-02 0.  1.
          2    1    1    2    0  502 -0.13894407537E+02 -0.14845903036E+02  0.39747736040E+03  0.39799711989E+03  0.25500000000E-02 0. -1.
         -2    1    1    2  502    0  0.13894407537E+02  0.14845903036E+02  0.21120859513E+03  0.21218512214E+03  0.25500000000E-02 0. -1.
<mgrwt>
<rscale>  0 0.42705691E+02</rscale>
<asrwt>0</asrwt>
<pdfrwt beam="1">  1        1 0.93759217E-01 0.42705691E+02</pdfrwt>
<pdfrwt beam="2">  1       -1 0.11509881E-03 0.42705691E+02</pdfrwt>
<totfact> 0.97517228E+05</totfact>
</mgrwt>
</event>
<event>
 4    1  0.4029665E-002  0.5351204E+02  0.7818608E-02  0.1427269E+00
          1   -1    0    0    0  501  0.00000000000E+00  0.00000000000E+00  0.89644675033E+02  0.89644675174E+02  0.50400000000E-02 0.  1.
         -1   -1    0    0  501    0 -0.00000000000E+00 -0.00000000000E+00 -0.79858000981E+01  0.79858016885E+01  0.50400000000E-02 0.  1.
          2    1    1    2    0  502  0.17762198361E+02  0.16052765040E+02  0.62623702215E+02  0.67044127570E+02  0.25500000000E-02 0. -1.
         -2    1    1    2  502    0 -0.17762198361E+02 -0.16052765040E+02  0.19035172720E+02  0.30586349293E+02  0.25500000000E-02 0. -1.
<mgrwt>
<rscale>  0 0.53512037E+02</rscale>
<asrwt>0</asrwt>
<pdfrwt beam="1">  1        1 0.13791490E-01 0.53512037E+02</pdfrwt>
<pdfrwt beam="2">  1       -1 0.12285846E-02 0.53512037E+02</pdfrwt>
<totfact> 0.41894476E+05</totfact>
</mgrwt>
</event>
<event>
 4    1  0.4029665E-002  0.6494538E+02  0.7818608E-02  0.1378177E+00
          1   -1    0    0    0  501  0.00000000000E+00  0.00000000000E+00  0.13106046979E+04  0.13106046979E+04  0.50400000000E-02 0. -1.
         -1   -1    0    0  501    0 -0.00000000000E+00 -0.00000000000E+00 -0.80456402611E+00  0.80457981189E+00  0.50400000000E-02 0. -1.
          2    1    1    2    0  502 -0.11297351563E+02 -0.28931607539E+02  0.46354203895E+03  0.46458141369E+03  0.25500000000E-02 0. -1.
         -2    1    1    2  502    0  0.11297351563E+02  0.28931607539E+02  0.84625809493E+03  0.84682786404E+03  0.25500000000E-02 0. -1.
<mgrwt>
<rscale>  0 0.64945385E+02</rscale>
<asrwt>0</asrwt>
<pdfrwt beam="1">  1        1 0.20163384E+00 0.64945385E+02</pdfrwt>
<pdfrwt beam="2">  1       -1 0.12377885E-03 0.64945385E+02</pdfrwt>
<totfact> 0.29370148E+05</totfact>
</mgrwt>
</event>
<event>
 4    1  0.4029665E-002  0.5432175E+02  0.7818608E-02  0.1423334E+00
         -1   -1    0    0  501    0 -0.00000000000E+00  0.00000000000E+00  0.41891753992E+00  0.41894785697E+00  0.50400000000E-02 0. -1.
          1   -1    0    0    0  501  0.00000000000E+00 -0.00000000000E+00 -0.17609345448E+04  0.17609345448E+04  0.50400000000E-02 0. -1.
          2    1    1    2    0  502  0.61766344132E+01  0.23256124376E+02 -0.47176757351E+03  0.47238082259E+03  0.25500000000E-02 0.  1.
         -2    1    1    2  502    0 -0.61766344132E+01 -0.23256124376E+02 -0.12887480538E+04  0.12889726701E+04  0.25500000000E-02 0.  1.
<mgrwt>
<rscale>  0 0.54321748E+02</rscale>
<asrwt>0</asrwt>
<pdfrwt beam="2">  1        1 0.27090708E+00 0.54321748E+02</pdfrwt>
<pdfrwt beam="1">  1       -1 0.64452595E-04 0.54321748E+02</pdfrwt>
<totfact> 0.36050180E+05</totfact>
</mgrwt>
</event>
<event>
 4    1  0.4029665E-002  0.4221597E+02  0.7818608E-02  0.1492510E+00
          1   -1    0    0    0  501  0.00000000000E+00  0.00000000000E+00  0.10999149456E+03  0.10999149468E+03  0.50400000000E-02 0. -1.
         -1   -1    0    0  501    0 -0.00000000000E+00 -0.00000000000E+00 -0.40507389336E+01  0.40507420690E+01  0.50400000000E-02 0. -1.
          2    1    1    2    0  502 -0.61402498254E+01  0.19831123354E+02  0.63282117823E+02  0.66600319550E+02  0.25500000000E-02 0. -1.
         -2    1    1    2  502    0  0.61402498254E+01 -0.19831123354E+02  0.42658637804E+02  0.47441917196E+02  0.25500000000E-02 0. -1.
<mgrwt>
<rscale>  0 0.42215969E+02</rscale>
<asrwt>0</asrwt>
<pdfrwt beam="1">  1        1 0.16921768E-01 0.42215969E+02</pdfrwt>
<pdfrwt beam="2">  1       -1 0.62319086E-03 0.42215969E+02</pdfrwt>
<totfact> 0.78022943E+05</totfact>
</mgrwt>
</event>
<event>
 4    1  0.4029665E-002  0.1179817E+03  0.7818608E-02  0.1246464E+00
         -1   -1    0    0  501    0 -0.00000000000E+00  0.00000000000E+00  0.27764060955E+02  0.27764061413E+02  0.50400000000E-02 0.  1.
          1   -1    0    0    0  501  0.00000000000E+00 -0.00000000000E+00 -0.12533911710E+03  0.12533911720E+03  0.50400000000E-02 0.  1.
          2    1    1    2    0  502 -0.49717268577E+02 -0.31707370285E+02 -0.46632120633E+02  0.75177914352E+02  0.25500000000E-02 0.  1.
         -2    1    1    2  502    0  0.49717268577E+02  0.31707370285E+02 -0.50942935511E+02  0.77925264261E+02  0.25500000000E-02 0.  1.
<mgrwt>
<rscale>  0 0.11798174E+03</rscale>
<asrwt>0</asrwt>
<pdfrwt beam="2">  1        1 0.19282941E-01 0.11798174E+03</pdfrwt>
<pdfrwt beam="1">  1       -1 0.42713941E-02 0.11798174E+03</pdfrwt>
<totfact> 0.53365662E+04</totfact>
</mgrwt>
</event>
<event>
 4    1  0.4029665E-002  0.5039592E+02  0.7818608E-02  0.1443218E+00
          1   -1    0    0    0  501  0.00000000000E+00  0.00000000000E+00  0.16353947660E+03  0.16353947668E+03  0.50400000000E-02 0.  1.
         -1   -1    0    0  501    0 -0.00000000000E+00 -0.00000000000E+00 -0.38824693984E+01  0.38824726697E+01  0.50400000000E-02 0.  1.
          2    1    1    2    0  502 -0.96801375635E+01  0.23252047670E+02  0.82346546714E+02  0.86112232269E+02  0.25500000000E-02 0.  1.
         -2    1    1    2  502    0  0.96801375635E+01 -0.23252047670E+02  0.77310460486E+02  0.81309717077E+02  0.25500000000E-02 0.  1.
<mgrwt>
<rscale>  0 0.50395924E+02</rscale>
<asrwt>0</asrwt>
<pdfrwt beam="1">  1        1 0.25159919E-01 0.50395924E+02</pdfrwt>
<pdfrwt beam="2">  1       -1 0.59730325E-03 0.50395924E+02</pdfrwt>
<totfact> 0.53268087E+05</totfact>
</mgrwt>
</event>
<event>
 4    1  0.4029665E-002  0.7780366E+02  0.7818608E-02  0.1335402E+00
         -1   -1    0    0  501    0 -0.00000000000E+00  0.00000000000E+00  0.54426524310E+03  0.54426524312E+03  0.50400000000E-02 0. -1.
          1   -1    0    0    0  501  0.00000000000E+00 -0.00000000000E+00 -0.27805394256E+01  0.27805439933E+01  0.50400000000E-02 0. -1.
          2    1    1    2    0  502 -0.52787382282E+01  0.22544389314E+02  0.50944335900E+02  0.55959270310E+02  0.25500000000E-02 0.  1.
         -2    1    1    2  502    0  0.52787382282E+01 -0.22544389314E+02  0.49054036777E+03  0.49108651681E+03  0.25500000000E-02 0.  1.
<mgrwt>
<rscale>  0 0.77803656E+02</rscale>
<asrwt>0</asrwt>
<pdfrwt beam="2">  1        1 0.42777606E-03 0.77803656E+02</pdfrwt>
<pdfrwt beam="1">  1       -1 0.83733035E-01 0.77803656E+02</pdfrwt>
<totfact> 0.67363293E+04</totfact>
</mgrwt>
</event>
<event>
 4    1  0.4029665E-002  0.5268918E+02  0.7818608E-02  0.1431354E+00
          1   -1    0    0    0  501  0.00000000000E+00  0.00000000000E+00  0.33832458383E+02  0.33832458758E+02  0.50400000000E-02 0. -1.
         -1   -1    0    0  501    0 -0.00000000000E+00 -0.00000000000E+00 -0.20513954793E+02  0.20513955412E+02  0.50400000000E-02 0. -1.
          2    1    1    2    0  502 -0.87534901296E+00  0.25873083057E+02  0.16214853564E+01  0.25938617620E+02  0.25500000000E-02 0. -1.
         -2    1    1    2  502    0  0.87534901296E+00 -0.25873083057E+02  0.11697018233E+02  0.28407796550E+02  0.25500000000E-02 0. -1.
<mgrwt>
<rscale>  0 0.52689185E+02</rscale>
<asrwt>0</asrwt>
<pdfrwt beam="1">  1        1 0.52049937E-02 0.52689185E+02</pdfrwt>
<pdfrwt beam="2">  1       -1 0.31559931E-02 0.52689185E+02</pdfrwt>
<totfact> 0.39244268E+05</totfact>
</mgrwt>
</event>
<event>
 4    1  0.4029665E-002  0.5154277E+02  0.7818608E-02  0.1437194E+00
          1   -1    0    0    0  501  0.00000000000E+00  0.00000000000E+00  0.15242781502E+02  0.15242782335E+02  0.50400000000E-02 0.  1.
         -1   -1    0    0  501    0 -0.00000000000E+00 -0.00000000000E+00 -0.43572385784E+02  0.43572386076E+02  0.50400000000E-02 0.  1.
          2    1    1    2    0  502  0.14422351346E+02  0.21263525013E+02 -0.16453448369E+02  0.30509960408E+02  0.25500000000E-02 0. -1.
         -2    1    1    2  502    0 -0.14422351346E+02 -0.21263525013E+02 -0.11876155913E+02  0.28305208003E+02  0.25500000000E-02 0. -1.
<mgrwt>
<rscale>  0 0.51542774E+02</rscale>
<asrwt>0</asrwt>
<pdfrwt beam="1">  1        1 0.23450434E-02 0.51542774E+02</pdfrwt>
<pdfrwt beam="2">  1       -1 0.67034440E-02 0.51542774E+02</pdfrwt>
<totfact> 0.38498670E+05</totfact>
</mgrwt>
</event>
<event>
 4    1  0.4029665E-002  0.4803185E+02  0.7818608E-02  0.1456256E+00
         -1   -1    0    0  501    0 -0.00000000000E+00  0.00000000000E+00  0.15218603126E+01  0.15218686582E+01  0.50400000000E-02 0. -1.
          1   -1    0    0    0  501  0.00000000000E+00 -0.00000000000E+00 -0.37898554213E+03  0.37898554217E+03  0.50400000000E-02 0. -1.
          2    1    1    2    0  502  0.10135615253E+02 -0.21694596601E+02 -0.17417084935E+03  0.17580918914E+03  0.25500000000E-02 0. -1.
         -2    1    1    2  502    0 -0.10135615253E+02  0.21694596601E+02 -0.20329283248E+03  0.20469822168E+03  0.25500000000E-02 0. -1.
<mgrwt>
<rscale>  0 0.48031850E+02</rscale>
<asrwt>0</asrwt>
<pdfrwt beam="2">  1        1 0.58305394E-01 0.48031850E+02</pdfrwt>
<pdfrwt beam="1">  1       -1 0.23413330E-03 0.48031850E+02</pdfrwt>
<totfact> 0.69332794E+05</totfact>
</mgrwt>
</event>
<event>
 4    1  0.4029665E-002  0.5285026E+02  0.7818608E-02  0.1430548E+00
         -1   -1    0    0  501    0 -0.00000000000E+00  0.00000000000E+00  0.67705588789E+01  0.67705607547E+01  0.50400000000E-02 0.  1.
          1   -1    0    0    0  501  0.00000000000E+00 -0.00000000000E+00 -0.10313586054E+03  0.10313586066E+03  0.50400000000E-02 0.  1.
          2    1    1    2    0  502 -0.68302118036E+01 -0.25493686053E+02 -0.45465076469E+02  0.52570457547E+02  0.25500000000E-02 0.  1.
         -2    1    1    2  502    0  0.68302118036E+01  0.25493686053E+02 -0.50900225187E+02  0.57335963866E+02  0.25500000000E-02 0.  1.
<mgrwt>
<rscale>  0 0.52850261E+02</rscale>
<asrwt>0</asrwt>
<pdfrwt beam="2">  1        1 0.15867054E-01 0.52850261E+02</pdfrwt>
<pdfrwt beam="1">  1       -1 0.10416247E-02 0.52850261E+02</pdfrwt>
<totfact> 0.44062970E+05</totfact>
</mgrwt>
</event>
<event>
 4    1  0.4029665E-002  0.1196192E+03  0.7818608E-02  0.1243727E+00
         -1   -1    0    0  501    0 -0.00000000000E+00  0.00000000000E+00  0.31697967121E+03  0.31697967125E+03  0.50400000000E-02 0.  1.
          1   -1    0    0    0  501  0.00000000000E+00 -0.00000000000E+00 -0.11285233456E+02  0.11285234581E+02  0.50400000000E-02 0.  1.
          2    1    1    2    0  502  0.86592546308E+01  0.34705036857E+02  0.21301563040E+02  0.41631464885E+02  0.25500000000E-02 0.  1.
         -2    1    1    2  502    0 -0.86592546308E+01 -0.34705036857E+02  0.28439287471E+03  0.28663344095E+03  0.25500000000E-02 0.  1.
<mgrwt>
<rscale>  0 0.11961923E+03</rscale>
<asrwt>0</asrwt>
<pdfrwt beam="2">  1        1 0.17361900E-02 0.11961923E+03</pdfrwt>
<pdfrwt beam="1">  1       -1 0.48766099E-01 0.11961923E+03</pdfrwt>
<totfact> 0.28937198E+04</totfact>
</mgrwt>
</event>
<event>
 4    1  0.4029665E-002  0.1155323E+03  0.7818608E-02  0.1250655E+00
         -1   -1    0    0  501    0 -0.00000000000E+00  0.00000000000E+00  0.20124435906E+01  0.20124499017E+01  0.50400000000E-02 0.  1.
          1   -1    0    0    0  501  0.00000000000E+00 -0.00000000000E+00 -0.16581447367E+04  0.16581447367E+04  0.50400000000E-02 0.  1.
          2    1    1    2    0  502  0.36594288999E+02  0.44460967258E+02 -0.89392924780E+03  0.89578201572E+03  0.25500000000E-02 0. -1.
         -2    1    1    2  502    0 -0.36594288999E+02 -0.44460967258E+02 -0.76220304531E+03  0.76437517090E+03  0.25500000000E-02 0. -1.
<mgrwt>
<rscale>  0 0.11553230E+03</rscale>
<asrwt>0</asrwt>
<pdfrwt beam="2">  1        1 0.25509810E+00 0.11553230E+03</pdfrwt>
<pdfrwt beam="1">  1       -1 0.30960852E-03 0.11553230E+03</pdfrwt>
<totfact> 0.53455203E+04</totfact>
</mgrwt>
</event>
<event>
 4    1  0.4029665E-002  0.4866843E+02  0.7818608E-02  0.1452659E+00
         -1   -1    0    0  501    0 -0.00000000000E+00  0.00000000000E+00  0.16266130146E+01  0.16266208227E+01  0.50400000000E-02 0. -1.
          1   -1    0    0    0  501  0.00000000000E+00 -0.00000000000E+00 -0.36404027825E+03  0.36404027828E+03  0.50400000000E-02 0. -1.
          2    1    1    2    0  502 -0.22536873617E+02  0.31844134003E+01 -0.24588473853E+03  0.24693593462E+03  0.25500000000E-02 0. -1.
         -2    1    1    2  502    0  0.22536873617E+02 -0.31844134003E+01 -0.11652892670E+03  0.11873096448E+03  0.25500000000E-02 0. -1.
<mgrwt>
<rscale>  0 0.48668433E+02</rscale>
<asrwt>0</asrwt>
<pdfrwt beam="2">  1        1 0.56006132E-01 0.48668433E+02</pdfrwt>
<pdfrwt beam="1">  1       -1 0.25024905E-03 0.48668433E+02</pdfrwt>
<totfact> 0.66680816E+05</totfact>
</mgrwt>
</event>
<event>
 4    1  0.4029665E-002  0.8950488E+02  0.7818608E-02  0.1304055E+00
          1   -1    0    0    0  501  0.00000000000E+00  0.00000000000E+00  0.69508414084E+03  0.69508414086E+03  0.50400000000E-02 0.  1.
         -1   -1    0    0  501    0 -0.00000000000E+00 -0.00000000000E+00 -0.28813479916E+01  0.28813523995E+01  0.50400000000E-02 0.  1.
          2    1    1    2    0  502 -0.35951136950E+02  0.13365715365E+02  0.16629634776E+03  0.17066224504E+03  0.25500000000E-02 0. -1.
         -2    1    1    2  502    0  0.35951136950E+02 -0.13365715365E+02  0.52590644509E+03  0.52730324822E+03  0.25500000000E-02 0. -1.
<mgrwt>
<rscale>  0 0.89504879E+02</rscale>
<asrwt>0</asrwt>
<pdfrwt beam="1">  1        1 0.10693617E+00 0.89504879E+02</pdfrwt>
<pdfrwt beam="2">  1       -1 0.44328403E-03 0.89504879E+02</pdfrwt>
<totfact> 0.14930814E+05</totfact>
</mgrwt>
</event>
<event>
 4    1  0.4029665E-002  0.4223265E+02  0.7818608E-02  0.1492396E+00
         -1   -1    0    0  501    0 -0.00000000000E+00  0.00000000000E+00  0.15519773802E+02  0.15519774621E+02  0.50400000000E-02 0.  1.
          1   -1    0    0    0  501  0.00000000000E+00 -0.00000000000E+00 -0.28731036277E+02  0.28731036719E+02  0.50400000000E-02 0.  1.
          2    1    1    2    0  502  0.20837251102E+02  0.31048185539E+01 -0.81125051106E+01  0.22575289088E+02  0.25500000000E-02 0. -1.
         -2    1    1    2  502    0 -0.20837251102E+02 -0.31048185539E+01 -0.50987573637E+01  0.21675522252E+02  0.25500000000E-02 0. -1.
<mgrwt>
<rscale>  0 0.42232651E+02</rscale>
<asrwt>0</asrwt>
<pdfrwt beam="2">  1        1 0.44201595E-02 0.42232651E+02</pdfrwt>
<pdfrwt beam="1">  1       -1 0.23876576E-02 0.42232651E+02</pdfrwt>
<totfact> 0.68189261E+05</totfact>
</mgrwt>
</event>
<event>
 4    1  0.4029665E-002  0.5035892E+02  0.7818608E-02  0.1443415E+00
          1   -1    0    0    0  501  0.00000000000E+00  0.00000000000E+00  0.65061317710E+03  0.65061317712E+03  0.50400000000E-02 0.  1.
         -1   -1    0    0  501    0 -0.00000000000E+00 -0.00000000000E+00 -0.97446700657E+00  0.97448004007E+00  0.50400000000E-02 0.  1.
          2    1    1    2    0  502 -0.53960133976E+01  0.21589984781E+02  0.47723515206E+03  0.47775373863E+03  0.25500000000E-02 0.  1.
         -2    1    1    2  502    0  0.53960133976E+01 -0.21589984781E+02  0.17240355803E+03  0.17383391853E+03  0.25500000000E-02 0.  1.
<mgrwt>
<rscale>  0 0.50358925E+02</rscale>
<asrwt>0</asrwt>
<pdfrwt beam="1">  1        1 0.10009430E+00 0.50358925E+02</pdfrwt>
<pdfrwt beam="2">  1       -1 0.14991906E-03 0.50358925E+02</pdfrwt>
<totfact> 0.65171733E+05</totfact>
</mgrwt>
</event>
<event>
 4    1  0.4029665E-002  0.4596748E+02  0.7818608E-02  0.1468391E+00
         -1   -1    0    0  501    0 -0.00000000000E+00  0.00000000000E+00  0.79668024956E+02  0.79668025116E+02  0.50400000000E-02 0. -1.
          1   -1    0    0    0  501  0.00000000000E+00 -0.00000000000E+00 -0.66306680043E+01  0.66306699198E+01  0.50400000000E-02 0. -1.
          2    1    1    2    0  502  0.85843016961E+00 -0.22893924833E+02  0.39972053211E+02  0.46072049456E+02  0.25500000000E-02 0.  1.
         -2    1    1    2  502    0 -0.85843016961E+00  0.22893924833E+02  0.33065303741E+02  0.40226645580E+02  0.25500000000E-02 0.  1.
<mgrwt>
<rscale>  0 0.45967480E+02</rscale>
<asrwt>0</asrwt>
<pdfrwt beam="2">  1        1 0.10201030E-02 0.45967480E+02</pdfrwt>
<pdfrwt beam="1">  1       -1 0.12256619E-01 0.45967480E+02</pdfrwt>
<totfact> 0.47404225E+05</totfact>
</mgrwt>
</event>
<event>
 4    1  0.4029665E-002  0.5696813E+02  0.7818608E-02  0.1411014E+00
          1   -1    0    0    0  501  0.00000000000E+00  0.00000000000E+00  0.41042398324E+03  0.41042398327E+03  0.50400000000E-02 0. -1.
         -1   -1    0    0  501    0 -0.00000000000E+00 -0.00000000000E+00 -0.19768353657E+01  0.19768417905E+01  0.50400000000E-02 0. -1.
          2    1    1    2    0  502 -0.27590267128E+02  0.28454182231E+01  0.25115131622E+03  0.25267825964E+03  0.25500000000E-02 0.  1.
         -2    1    1    2  502    0  0.27590267128E+02 -0.28454182231E+01  0.15729583165E+03  0.15972256543E+03  0.25500000000E-02 0.  1.
<mgrwt>
<rscale>  0 0.56968131E+02</rscale>
<asrwt>0</asrwt>
<pdfrwt beam="1">  1        1 0.63142179E-01 0.56968131E+02</pdfrwt>
<pdfrwt beam="2">  1       -1 0.30412888E-03 0.56968131E+02</pdfrwt>
<totfact> 0.45805411E+05</totfact>
</mgrwt>
</event>
<event>
 4    1  0.4029665E-002  0.4455844E+02  0.7818608E-02  0.1477117E+00
          1   -1    0    0    0  501  0.00000000000E+00  0.00000000000E+00  0.13202709751E+01  0.13202805949E+01  0.50400000000E-02 0. -1.
         -1   -1    0    0  501    0 -0.00000000000E+00 -0.00000000000E+00 -0.37595447556E+03  0.37595447559E+03  0.50400000000E-02 0. -1.
          2    1    1    2    0  502  0.20844330553E+02  0.16525191016E+01 -0.25243388029E+03  0.25329840280E+03  0.25500000000E-02 0.  1.
         -2    1    1    2  502    0 -0.20844330553E+02 -0.16525191016E+01 -0.12220032429E+03  0.12397635339E+03  0.25500000000E-02 0.  1.
<mgrwt>
<rscale>  0 0.44558438E+02</rscale>
<asrwt>0</asrwt>
<pdfrwt beam="1">  1        1 0.20311965E-03 0.44558438E+02</pdfrwt>
<pdfrwt beam="2">  1       -1 0.57839066E-01 0.44558438E+02</pdfrwt>
<totfact> 0.33806613E+05</totfact>
</mgrwt>
</event>
<event>
 4    1  0.4029665E-002  0.5812925E+02  0.7818608E-02  0.1405854E+00
         -1   -1    0    0  501    0 -0.00000000000E+00  0.00000000000E+00  0.17645091679E+03  0.17645091686E+03  0.50400000000E-02 0.  1.
          1   -1    0    0    0  501  0.00000000000E+00 -0.00000000000E+00 -0.47874623466E+01  0.47874649995E+01  0.50400000000E-02 0.  1.
          2    1    1    2    0  502 -0.28752025529E+00  0.25397216174E+02  0.12988633397E+03  0.13234636760E+03  0.25500000000E-02 0.  1.
         -2    1    1    2  502    0  0.28752025529E+00 -0.25397216174E+02  0.41777120469E+02  0.48892014261E+02  0.25500000000E-02 0.  1.
<mgrwt>
<rscale>  0 0.58129248E+02</rscale>
<asrwt>0</asrwt>
<pdfrwt beam="2">  1        1 0.73653294E-03 0.58129248E+02</pdfrwt>
<pdfrwt beam="1">  1       -1 0.27146293E-01 0.58129248E+02</pdfrwt>
<totfact> 0.22749268E+05</totfact>
</mgrwt>
</event>
<event>
 4    1  0.4029665E-002  0.4527589E+02  0.7818608E-02  0.1472627E+00
         -1   -1    0    0  501    0 -0.00000000000E+00  0.00000000000E+00  0.63536856992E+00  0.63538855926E+00  0.50400000000E-02 0. -1.
          1   -1    0    0    0  501  0.00000000000E+00 -0.00000000000E+00 -0.80656886023E+03  0.80656886025E+03  0.50400000000E-02 0. -1.
          2    1    1    2    0  502  0.10910458000E+02 -0.19797892470E+02 -0.38126321454E+03  0.38193276032E+03  0.25500000000E-02 0.  1.
         -2    1    1    2  502    0 -0.10910458000E+02  0.19797892470E+02 -0.42467027712E+03  0.42527148848E+03  0.25500000000E-02 0.  1.
<mgrwt>
<rscale>  0 0.45275891E+02</rscale>
<asrwt>0</asrwt>
<pdfrwt beam="2">  1        1 0.12408670E+00 0.45275891E+02</pdfrwt>
<pdfrwt beam="1">  1       -1 0.97751195E-04 0.45275891E+02</pdfrwt>
<totfact> 0.84128349E+05</totfact>
</mgrwt>
</event>
<event>
 4    1  0.4029665E-002  0.6255848E+02  0.7818608E-02  0.1387398E+00
          1   -1    0    0    0  501  0.00000000000E+00  0.00000000000E+00  0.59794871988E+03  0.59794871990E+03  0.50400000000E-02 0. -1.
         -1   -1    0    0  501    0 -0.00000000000E+00 -0.00000000000E+00 -0.16362414615E+01  0.16362492236E+01  0.50400000000E-02 0. -1.
          2    1    1    2    0  502 -0.24158959653E+02  0.19739116011E+02  0.31980674542E+03  0.32132482390E+03  0.25500000000E-02 0.  1.
         -2    1    1    2  502    0  0.24158959653E+02 -0.19739116011E+02  0.27650573300E+03  0.27826014522E+03  0.25500000000E-02 0.  1.
<mgrwt>
<rscale>  0 0.62558479E+02</rscale>
<asrwt>0</asrwt>
<pdfrwt beam="1">  1        1 0.91992267E-01 0.62558479E+02</pdfrwt>
<pdfrwt beam="2">  1       -1 0.25172963E-03 0.62558479E+02</pdfrwt>
<totfact> 0.37651215E+05</totfact>
</mgrwt>
</event>
<event>
 4    1  0.4029665E-002  0.5682381E+02  0.7818608E-02  0.1411666E+00
         -1   -1    0    0  501    0 -0.00000000000E+00  0.00000000000E+00  0.57336972867E+00  0.57339187940E+00  0.50400000000E-02 0. -1.
          1   -1    0    0    0  501  0.00000000000E+00 -0.00000000000E+00 -0.14078537389E+04  0.14078537389E+04  0.50400000000E-02 0. -1.
          2    1    1    2    0  502 -0.20164794414E+02 -0.45501807506E+01 -0.22052993470E+03  0.22149667082E+03  0.25500000000E-02 0. -1.
         -2    1    1    2  502    0  0.20164794414E+02  0.45501807506E+01 -0.11867504344E+04  0.11869304599E+04  0.25500000000E-02 0. -1.
<mgrwt>
<rscale>  0 0.56823809E+02</rscale>
<asrwt>0</asrwt>
<pdfrwt beam="2">  1        1 0.21659012E+00 0.56823809E+02</pdfrwt>
<pdfrwt beam="1">  1       -1 0.88213559E-04 0.56823809E+02</pdfrwt>
<totfact> 0.39393514E+05</totfact>
</mgrwt>
</event>
<event>
 4    1  0.4029665E-002  0.6354890E+02  0.7818608E-02  0.1383515E+00
         -1   -1    0    0  501    0 -0.00000000000E+00  0.00000000000E+00  0.16894091577E+02  0.16894092328E+02  0.50400000000E-02 0. -1.
          1   -1    0    0    0  501  0.00000000000E+00 -0.00000000000E+00 -0.59761465473E+02  0.59761465686E+02  0.50400000000E-02 0. -1.
          2    1    1    2    0  502 -0.10480857388E+02 -0.29903636568E+02 -0.24272812385E+02  0.39915476687E+02  0.25500000000E-02 0. -1.
         -2    1    1    2  502    0  0.10480857388E+02  0.29903636568E+02 -0.18594561512E+02  0.36740081327E+02  0.25500000000E-02 0. -1.
<mgrwt>
<rscale>  0 0.63548901E+02</rscale>
<asrwt>0</asrwt>
<pdfrwt beam="2">  1        1 0.91940716E-02 0.63548901E+02</pdfrwt>
<pdfrwt beam="1">  1       -1 0.25990911E-02 0.63548901E+02</pdfrwt>
<totfact> 0.25532950E+05</totfact>
</mgrwt>
</event>
<event>
 4    1  0.4029665E-002  0.6607969E+02  0.7818608E-02  0.1373956E+00
         -1   -1    0    0  501    0 -0.00000000000E+00  0.00000000000E+00  0.15357220421E+01  0.15357303124E+01  0.50400000000E-02 0.  1.
          1   -1    0    0    0  501  0.00000000000E+00 -0.00000000000E+00 -0.71082417254E+03  0.71082417256E+03  0.50400000000E-02 0.  1.
          2    1    1    2    0  502 -0.17606164909E+02 -0.19429544246E+02 -0.13792312656E+03  0.14039328004E+03  0.25500000000E-02 0. -1.
         -2    1    1    2  502    0  0.17606164909E+02  0.19429544246E+02 -0.57136532393E+03  0.57196662283E+03  0.25500000000E-02 0. -1.
<mgrwt>
<rscale>  0 0.66079688E+02</rscale>
<asrwt>0</asrwt>
<pdfrwt beam="2">  1        1 0.10935730E+00 0.66079688E+02</pdfrwt>
<pdfrwt beam="1">  1       -1 0.23626614E-03 0.66079688E+02</pdfrwt>
<totfact> 0.32855212E+05</totfact>
</mgrwt>
</event>
<event>
 4    1  0.4029665E-002  0.7666937E+02  0.7818608E-02  0.1338778E+00
          1   -1    0    0    0  501  0.00000000000E+00  0.00000000000E+00  0.59024381583E+02  0.59024381798E+02  0.50400000000E-02 0.  1.
         -1   -1    0    0  501    0 -0.00000000000E+00 -0.00000000000E+00 -0.24897307114E+02  0.24897307624E+02  0.50400000000E-02 0.  1.
          2    1    1    2    0  502 -0.23298577820E+02 -0.20798526288E+02  0.41395651171E+02  0.51855591468E+02  0.25500000000E-02 0.  1.
         -2    1    1    2  502    0  0.23298577820E+02  0.20798526288E+02 -0.72685767023E+01  0.32066097954E+02  0.25500000000E-02 0.  1.
<mgrwt>
<rscale>  0 0.76669373E+02</rscale>
<asrwt>0</asrwt>
<pdfrwt beam="1">  1        1 0.90806739E-02 0.76669373E+02</pdfrwt>
<pdfrwt beam="2">  1       -1 0.38303551E-02 0.76669373E+02</pdfrwt>
<totfact> 0.15453300E+05</totfact>
</mgrwt>
</event>
<event>
 4    1  0.4029665E-002  0.5527501E+02  0.7818608E-02  0.1418803E+00
         -1   -1    0    0  501    0 -0.00000000000E+00  0.00000000000E+00  0.40769159962E+01  0.40769191115E+01  0.50400000000E-02 0. -1.
          1   -1    0    0    0  501  0.00000000000E+00 -0.00000000000E+00 -0.18735522499E+03  0.18735522506E+03  0.50400000000E-02 0. -1.
          2    1    1    2    0  502 -0.12756248310E+02  0.24491369287E+02 -0.95561633488E+02  0.99471477530E+02  0.25500000000E-02 0. -1.
         -2    1    1    2  502    0  0.12756248310E+02 -0.24491369287E+02 -0.87716675503E+02  0.91960666637E+02  0.25500000000E-02 0. -1.
<mgrwt>
<rscale>  0 0.55275015E+02</rscale>
<asrwt>0</asrwt>
<pdfrwt beam="2">  1        1 0.28823874E-01 0.55275015E+02</pdfrwt>
<pdfrwt beam="1">  1       -1 0.62721823E-03 0.55275015E+02</pdfrwt>
<totfact> 0.43163005E+05</totfact>
</mgrwt>
</event>
<event>
 4    1  0.4029665E-002  0.1252530E+03  0.7818608E-02  0.1234674E+00
          1   -1    0    0    0  501  0.00000000000E+00  0.00000000000E+00  0.51461642384E+02  0.51461642630E+02  0.50400000000E-02 0. -1.
         -1   -1    0    0  501    0 -0.00000000000E+00 -0.00000000000E+00 -0.76213602925E+02  0.76213603091E+02  0.50400000000E-02 0. -1.
          2    1    1    2    0  502  0.20533712243E+02 -0.25369681827E+02  0.42106931801E+02  0.53275208180E+02  0.25500000000E-02 0.  1.
         -2    1    1    2  502    0 -0.20533712243E+02  0.25369681827E+02 -0.66858892342E+02  0.74400037541E+02  0.25500000000E-02 0.  1.
<mgrwt>
<rscale>  0 0.12525298E+03</rscale>
<asrwt>0</asrwt>
<pdfrwt beam="1">  1        1 0.79171758E-02 0.12525298E+03</pdfrwt>
<pdfrwt beam="2">  1       -1 0.11725170E-01 0.12525298E+03</pdfrwt>
<totfact> 0.37862481E+04</totfact>
</mgrwt>
</event>
<event>
 4    1  0.4029665E-002  0.5869816E+02  0.7818608E-02  0.1403378E+00
         -1   -1    0    0  501    0 -0.00000000000E+00  0.00000000000E+00  0.76267611809E+00  0.76269277085E+00  0.50400000000E-02 0. -1.
          1   -1    0    0    0  501  0.00000000000E+00 -0.00000000000E+00 -0.11293903727E+04  0.11293903727E+04  0.50400000000E-02 0. -1.
          2    1    1    2    0  502  0.19974656615E+02  0.17280667084E+02 -0.81070031446E+03  0.81113045081E+03  0.25500000000E-02 0.  1.
         -2    1    1    2  502    0 -0.19974656615E+02 -0.17280667084E+02 -0.31792738208E+03  0.31902261463E+03  0.25500000000E-02 0.  1.
<mgrwt>
<rscale>  0 0.58698159E+02</rscale>
<asrwt>0</asrwt>
<pdfrwt beam="2">  1        1 0.17375103E+00 0.58698159E+02</pdfrwt>
<pdfrwt beam="1">  1       -1 0.11733697E-03 0.58698159E+02</pdfrwt>
<totfact> 0.40827092E+05</totfact>
</mgrwt>
</event>
<event>
 4    1  0.4029665E-002  0.5150051E+02  0.7818608E-02  0.1437412E+00
         -1   -1    0    0  501    0 -0.00000000000E+00  0.00000000000E+00  0.38002517597E+00  0.38005859545E+00  0.50400000000E-02 0. -1.
          1   -1    0    0    0  501  0.00000000000E+00 -0.00000000000E+00 -0.17447437914E+04  0.17447437914E+04  0.50400000000E-02 0. -1.
          2    1    1    2    0  502  0.25532299830E+02 -0.19234472239E+01 -0.77952024863E+03  0.77994064903E+03  0.25500000000E-02 0. -1.
         -2    1    1    2  502    0 -0.25532299830E+02  0.19234472239E+01 -0.96484351760E+03  0.96518320097E+03  0.25500000000E-02 0. -1.
<mgrwt>
<rscale>  0 0.51500514E+02</rscale>
<asrwt>0</asrwt>
<pdfrwt beam="2">  1        1 0.26841571E+00 0.51500514E+02</pdfrwt>
<pdfrwt beam="1">  1       -1 0.58469380E-04 0.51500514E+02</pdfrwt>
<totfact> 0.41651811E+05</totfact>
</mgrwt>
</event>
<event>
 4    1  0.4029665E-002  0.6343603E+02  0.7818608E-02  0.1383953E+00
          1   -1    0    0    0  501  0.00000000000E+00  0.00000000000E+00  0.39218775760E+03  0.39218775763E+03  0.50400000000E-02 0.  1.
         -1   -1    0    0  501    0 -0.00000000000E+00 -0.00000000000E+00 -0.25651782025E+01  0.25651831538E+01  0.50400000000E-02 0.  1.
          2    1    1    2    0  502  0.26100158216E+02  0.12092887555E+02  0.11165382116E+03  0.11529974837E+03  0.25500000000E-02 0. -1.
         -2    1    1    2  502    0 -0.26100158216E+02 -0.12092887555E+02  0.27796875824E+03  0.27945319242E+03  0.25500000000E-02 0. -1.
<mgrwt>
<rscale>  0 0.63436030E+02</rscale>
<asrwt>0</asrwt>
<pdfrwt beam="1">  1        1 0.60336609E-01 0.63436030E+02</pdfrwt>
<pdfrwt beam="2">  1       -1 0.39464298E-03 0.63436030E+02</pdfrwt>
<totfact> 0.34611179E+05</totfact>
</mgrwt>
</event>
<event>
 4    1  0.4029665E-002  0.4687973E+02  0.7818608E-02  0.1462937E+00
         -1   -1    0    0  501    0 -0.00000000000E+00  0.00000000000E+00  0.15047940582E+04  0.15047940582E+04  0.50400000000E-02 0. -1.
          1   -1    0    0    0  501  0.00000000000E+00 -0.00000000000E+00 -0.36510056912E+00  0.36513535459E+00  0.50400000000E-02 0. -1.
          2    1    1    2    0  502 -0.21229480734E+02  0.90832446361E+01  0.88156616266E+03  0.88186852497E+03  0.25500000000E-02 0.  1.
         -2    1    1    2  502    0  0.21229480734E+02 -0.90832446361E+01  0.62286279500E+03  0.62329066862E+03  0.25500000000E-02 0.  1.
<mgrwt>
<rscale>  0 0.46879733E+02</rscale>
<asrwt>0</asrwt>
<pdfrwt beam="2">  1        1 0.56171564E-04 0.46879733E+02</pdfrwt>
<pdfrwt beam="1">  1       -1 0.23150856E+00 0.46879733E+02</pdfrwt>
<totfact> 0.75182279E+04</totfact>
</mgrwt>
</event>
<event>
 4    1  0.4029665E-002  0.8082199E+02  0.7818608E-02  0.1326735E+00
         -1   -1    0    0  501    0 -0.00000000000E+00  0.00000000000E+00  0.43876642443E+02  0.43876642733E+02  0.50400000000E-02 0. -1.
          1   -1    0    0    0  501  0.00000000000E+00 -0.00000000000E+00 -0.37219087805E+02  0.37219088146E+02  0.50400000000E-02 0. -1.
          2    1    1    2    0  502  0.28955026186E+02 -0.15597395435E+02  0.26889711218E+02  0.42482100486E+02  0.25500000000E-02 0. -1.
         -2    1    1    2  502    0 -0.28955026186E+02  0.15597395435E+02 -0.20232156579E+02  0.38613630393E+02  0.25500000000E-02 0. -1.
<mgrwt>
<rscale>  0 0.80821993E+02</rscale>
<asrwt>0</asrwt>
<pdfrwt beam="2">  1        1 0.57260136E-02 0.80821993E+02</pdfrwt>
<pdfrwt beam="1">  1       -1 0.67502527E-02 0.80821993E+02</pdfrwt>
<totfact> 0.12573832E+05</totfact>
</mgrwt>
</event>
<event>
 4    1  0.4029665E-002  0.4597398E+02  0.7818608E-02  0.1468351E+00
          1   -1    0    0    0  501  0.00000000000E+00  0.00000000000E+00  0.18333258693E+04  0.18333258693E+04  0.50400000000E-02 0.  1.
         -1   -1    0    0  501    0 -0.00000000000E+00 -0.00000000000E+00 -0.28819820312E+00  0.28824226943E+00  0.50400000000E-02 0.  1.
          2    1    1    2    0  502 -0.60822197248E+01 -0.22101839378E+02  0.84840141582E+03  0.84871105040E+03  0.25500000000E-02 0. -1.
         -2    1    1    2  502    0  0.60822197248E+01  0.22101839378E+02  0.98463625527E+03  0.98490306117E+03  0.25500000000E-02 0. -1.
<mgrwt>
<rscale>  0 0.45973976E+02</rscale>
<asrwt>0</asrwt>
<pdfrwt beam="1">  1        1 0.28205682E+00 0.45973976E+02</pdfrwt>
<pdfrwt beam="2">  1       -1 0.44340525E-04 0.45973976E+02</pdfrwt>
<totfact> 0.52189149E+05</totfact>
</mgrwt>
</event>
<event>
 4    1  0.4029665E-002  0.4254723E+02  0.7818608E-02  0.1490262E+00
          1   -1    0    0    0  501  0.00000000000E+00  0.00000000000E+00  0.19379240135E+03  0.19379240141E+03  0.50400000000E-02 0. -1.
         -1   -1    0    0  501    0 -0.00000000000E+00 -0.00000000000E+00 -0.23353143743E+01  0.23353198129E+01  0.50400000000E-02 0. -1.
          2    1    1    2    0  502  0.36185017435E+01 -0.20217511470E+02  0.70177045082E+02  0.73120851936E+02  0.25500000000E-02 0. -1.
         -2    1    1    2  502    0 -0.36185017435E+01  0.20217511470E+02  0.12128004189E+03  0.12300686929E+03  0.25500000000E-02 0. -1.
<mgrwt>
<rscale>  0 0.42547231E+02</rscale>
<asrwt>0</asrwt>
<pdfrwt beam="1">  1        1 0.29814226E-01 0.42547231E+02</pdfrwt>
<pdfrwt beam="2">  1       -1 0.35927944E-03 0.42547231E+02</pdfrwt>
<totfact> 0.83423452E+05</totfact>
</mgrwt>
</event>
<event>
 4    1  0.4029665E-002  0.8297810E+02  0.7818608E-02  0.1320806E+00
          1   -1    0    0    0  501  0.00000000000E+00  0.00000000000E+00  0.15168476199E+02  0.15168477036E+02  0.50400000000E-02 0. -1.
         -1   -1    0    0  501    0 -0.00000000000E+00 -0.00000000000E+00 -0.11348147198E+03  0.11348147209E+03  0.50400000000E-02 0. -1.
          2    1    1    2    0  502 -0.20203462954E+02 -0.15065585846E+02 -0.10025391078E+03  0.10337310301E+03  0.25500000000E-02 0.  1.
         -2    1    1    2  502    0  0.20203462954E+02  0.15065585846E+02  0.19409150003E+01  0.25276846120E+02  0.25500000000E-02 0.  1.
<mgrwt>
<rscale>  0 0.82978095E+02</rscale>
<asrwt>0</asrwt>
<pdfrwt beam="1">  1        1 0.23336119E-02 0.82978095E+02</pdfrwt>
<pdfrwt beam="2">  1       -1 0.17458687E-01 0.82978095E+02</pdfrwt>
<totfact> 0.10123108E+05</totfact>
</mgrwt>
</event>
<event>
 4    1  0.4029665E-002  0.5462333E+02  0.7818608E-02  0.1421889E+00
         -1   -1    0    0  501    0 -0.00000000000E+00  0.00000000000E+00  0.16206151656E+02  0.16206152440E+02  0.50400000000E-02 0.  1.
          1   -1    0    0    0  501  0.00000000000E+00 -0.00000000000E+00 -0.46027399336E+02  0.46027399612E+02  0.50400000000E-02 0.  1.
          2    1    1    2    0  502 -0.82780426209E+01  0.23380348565E+02 -0.27938825032E+02  0.37359665943E+02  0.25500000000E-02 0.  1.
         -2    1    1    2  502    0  0.82780426209E+01 -0.23380348565E+02 -0.18824226478E+01  0.24873886110E+02  0.25500000000E-02 0.  1.
<mgrwt>
<rscale>  0 0.54623330E+02</rscale>
<asrwt>0</asrwt>
<pdfrwt beam="2">  1        1 0.70811384E-02 0.54623330E+02</pdfrwt>
<pdfrwt beam="1">  1       -1 0.24932542E-02 0.54623330E+02</pdfrwt>
<totfact> 0.36827858E+05</totfact>
</mgrwt>
</event>
<event>
 4    1  0.4029665E-002  0.7811946E+02  0.7818608E-02  0.1334474E+00
          1   -1    0    0    0  501  0.00000000000E+00  0.00000000000E+00  0.96175735259E+02  0.96175735391E+02  0.50400000000E-02 0. -1.
         -1   -1    0    0  501    0 -0.00000000000E+00 -0.00000000000E+00 -0.15863278349E+02  0.15863279150E+02  0.50400000000E-02 0. -1.
          2    1    1    2    0  502  0.26311305384E+02  0.11247010551E+02  0.78287707602E+02  0.83353135547E+02  0.25500000000E-02 0.  1.
         -2    1    1    2  502    0 -0.26311305384E+02 -0.11247010551E+02  0.20247493075E+01  0.28685878994E+02  0.25500000000E-02 0.  1.
<mgrwt>
<rscale>  0 0.78119460E+02</rscale>
<asrwt>0</asrwt>
<pdfrwt beam="1">  1        1 0.14796267E-01 0.78119460E+02</pdfrwt>
<pdfrwt beam="2">  1       -1 0.24405044E-02 0.78119460E+02</pdfrwt>
<totfact> 0.15753895E+05</totfact>
</mgrwt>
</event>
<event>
 4    1  0.4029665E-002  0.6956189E+02  0.7818608E-02  0.1361589E+00
         -1   -1    0    0  501    0 -0.00000000000E+00  0.00000000000E+00  0.10074232209E+02  0.10074233469E+02  0.50400000000E-02 0.  1.
          1   -1    0    0    0  501  0.00000000000E+00 -0.00000000000E+00 -0.12008002951E+03  0.12008002962E+03  0.50400000000E-02 0.  1.
          2    1    1    2    0  502 -0.22741046076E+02  0.25975069969E+02 -0.62909027040E+02  0.71759355670E+02  0.25500000000E-02 0.  1.
         -2    1    1    2  502    0  0.22741046076E+02 -0.25975069969E+02 -0.47096770265E+02  0.58394907419E+02  0.25500000000E-02 0.  1.
<mgrwt>
<rscale>  0 0.69561892E+02</rscale>
<asrwt>0</asrwt>
<pdfrwt beam="2">  1        1 0.18473850E-01 0.69561892E+02</pdfrwt>
<pdfrwt beam="1">  1       -1 0.15498821E-02 0.69561892E+02</pdfrwt>
<totfact> 0.22168335E+05</totfact>
</mgrwt>
</event>
<event>
 4    1  0.4029665E-002  0.5396355E+02  0.7818608E-02  0.1425065E+00
          1   -1    0    0    0  501  0.00000000000E+00  0.00000000000E+00  0.35990607812E+01  0.35990643102E+01  0.50400000000E-02 0.  1.
         -1   -1    0    0  501    0 -0.00000000000E+00 -0.00000000000E+00 -0.20227942139E+03  0.20227942145E+03  0.50400000000E-02 0.  1.
          2    1    1    2    0  502 -0.21821199247E+02 -0.15597400433E+02 -0.11051056644E+03  0.11371907904E+03  0.25500000000E-02 0. -1.
         -2    1    1    2  502    0  0.21821199247E+02  0.15597400433E+02 -0.88169794164E+02  0.92159406716E+02  0.25500000000E-02 0. -1.
<mgrwt>
<rscale>  0 0.53963554E+02</rscale>
<asrwt>0</asrwt>
<pdfrwt beam="1">  1        1 0.55370209E-03 0.53963554E+02</pdfrwt>
<pdfrwt beam="2">  1       -1 0.31119902E-01 0.53963554E+02</pdfrwt>
<totfact> 0.26431479E+05</totfact>
</mgrwt>
</event>
<event>
 4    1  0.4029665E-002  0.6755189E+02  0.7818608E-02  0.1368622E+00
         -1   -1    0    0  501    0 -0.00000000000E+00  0.00000000000E+00  0.92820187994E+02  0.92820188131E+02  0.50400000000E-02 0. -1.
          1   -1    0    0    0  501  0.00000000000E+00 -0.00000000000E+00 -0.12290584781E+02  0.12290585814E+02  0.50400000000E-02 0. -1.
          2    1    1    2    0  502 -0.12025358872E+02 -0.21016248972E+02  0.36236339557E+01  0.24483110636E+02  0.25500000000E-02 0. -1.
         -2    1    1    2  502    0  0.12025358872E+02  0.21016248972E+02  0.76905969258E+02  0.80627663310E+02  0.25500000000E-02 0. -1.
<mgrwt>
<rscale>  0 0.67551890E+02</rscale>
<asrwt>0</asrwt>
<pdfrwt beam="2">  1        1 0.18908592E-02 0.67551890E+02</pdfrwt>
<pdfrwt beam="1">  1       -1 0.14280029E-01 0.67551890E+02</pdfrwt>
<totfact> 0.17737063E+05</totfact>
</mgrwt>
</event>
<event>
 4    1  0.4029665E-002  0.7135541E+02  0.7818608E-02  0.1355544E+00
         -1   -1    0    0  501    0 -0.00000000000E+00  0.00000000000E+00  0.26994943119E+01  0.26994990168E+01  0.50400000000E-02 0.  1.
          1   -1    0    0    0  501  0.00000000000E+00 -0.00000000000E+00 -0.47153187376E+03  0.47153187378E+03  0.50400000000E-02 0.  1.
          2    1    1    2    0  502  0.33017941160E+02 -0.23932724727E+01 -0.14599965862E+03  0.14970575311E+03  0.25500000000E-02 0. -1.
         -2    1    1    2  502    0 -0.33017941160E+02  0.23932724727E+01 -0.32283272083E+03  0.32452561969E+03  0.25500000000E-02 0. -1.
<mgrwt>
<rscale>  0 0.71355413E+02</rscale>
<asrwt>0</asrwt>
<pdfrwt beam="2">  1        1 0.72543300E-01 0.71355413E+02</pdfrwt>
<pdfrwt beam="1">  1       -1 0.41530756E-03 0.71355413E+02</pdfrwt>
<totfact> 0.26266072E+05</totfact>
</mgrwt>
</event>
<event>
 4    1  0.4029665E-002  0.6352408E+02  0.7818608E-02  0.1383611E+00
         -1   -1    0    0  501    0 -0.00000000000E+00  0.00000000000E+00  0.52576983824E+01  0.52577007980E+01  0.50400000000E-02 0. -1.
          1   -1    0    0    0  501  0.00000000000E+00 -0.00000000000E+00 -0.19187616476E+03  0.19187616483E+03  0.50400000000E-02 0. -1.
          2    1    1    2    0  502  0.25054828443E+02  0.10893848196E+01 -0.15379528414E+03  0.15582657225E+03  0.25500000000E-02 0. -1.
         -2    1    1    2  502    0 -0.25054828443E+02 -0.10893848196E+01 -0.32823182237E+02  0.41307293379E+02  0.25500000000E-02 0. -1.
<mgrwt>
<rscale>  0 0.63524082E+02</rscale>
<asrwt>0</asrwt>
<pdfrwt beam="2">  1        1 0.29519405E-01 0.63524082E+02</pdfrwt>
<pdfrwt beam="1">  1       -1 0.80887701E-03 0.63524082E+02</pdfrwt>
<totfact> 0.30378382E+05</totfact>
</mgrwt>
</event>
<event>
 4    1  0.4029665E-002  0.7225496E+02  0.7818608E-02  0.1352589E+00
         -1   -1    0    0  501    0 -0.00000000000E+00  0.00000000000E+00  0.21551626060E+01  0.21551684992E+01  0.50400000000E-02 0. -1.
          1   -1    0    0    0  501  0.00000000000E+00 -0.00000000000E+00 -0.60561235380E+03  0.60561235382E+03  0.50400000000E-02 0. -1.
          2    1    1    2    0  502  0.58889778629E+01 -0.27368279156E+02 -0.49381369955E+03  0.49460658370E+03  0.25500000000E-02 0. -1.
         -2    1    1    2  502    0 -0.58889778629E+01  0.27368279156E+02 -0.10964349164E+03  0.11316093862E+03  0.25500000000E-02 0. -1.
<mgrwt>
<rscale>  0 0.72254962E+02</rscale>
<asrwt>0</asrwt>
<pdfrwt beam="2">  1        1 0.93170996E-01 0.72254962E+02</pdfrwt>
<pdfrwt beam="1">  1       -1 0.33156442E-03 0.72254962E+02</pdfrwt>
<totfact> 0.26032848E+05</totfact>
</mgrwt>
</event>
<event>
 4    1  0.4029665E-002  0.5445192E+02  0.7818608E-02  0.1422709E+00
          1   -1    0    0    0  501  0.00000000000E+00  0.00000000000E+00  0.11562314425E+03  0.11562314436E+03  0.50400000000E-02 0.  1.
         -1   -1    0    0  501    0 -0.00000000000E+00 -0.00000000000E+00 -0.64109372668E+01  0.64109392479E+01  0.50400000000E-02 0.  1.
          2    1    1    2    0  502 -0.21543195394E+02 -0.77673406618E+01  0.87605774825E+02  0.90549503797E+02  0.25500000000E-02 0.  1.
         -2    1    1    2  502    0  0.21543195394E+02  0.77673406618E+01  0.21606432158E+02  0.31484579810E+02  0.25500000000E-02 0.  1.
<mgrwt>
<rscale>  0 0.54451918E+02</rscale>
<asrwt>0</asrwt>
<pdfrwt beam="1">  1        1 0.17788178E-01 0.54451918E+02</pdfrwt>
<pdfrwt beam="2">  1       -1 0.98629811E-03 0.54451918E+02</pdfrwt>
<totfact> 0.41505313E+05</totfact>
</mgrwt>
</event>
<event>
 4    1  0.4029665E-002  0.4171177E+02  0.7818608E-02  0.1495980E+00
         -1   -1    0    0  501    0 -0.00000000000E+00  0.00000000000E+00  0.10330292653E+01  0.10330415600E+01  0.50400000000E-02 0.  1.
          1   -1    0    0    0  501  0.00000000000E+00 -0.00000000000E+00 -0.42105813321E+03  0.42105813324E+03  0.50400000000E-02 0.  1.
          2    1    1    2    0  502  0.74904389467E+01 -0.19401027528E+02 -0.19413656123E+03  0.19524730717E+03  0.25500000000E-02 0.  1.
         -2    1    1    2  502    0 -0.74904389467E+01  0.19401027528E+02 -0.22588854272E+03  0.22684386764E+03  0.25500000000E-02 0.  1.
<mgrwt>
<rscale>  0 0.41711772E+02</rscale>
<asrwt>0</asrwt>
<pdfrwt beam="2">  1        1 0.64778038E-01 0.41711772E+02</pdfrwt>
<pdfrwt beam="1">  1       -1 0.15892886E-03 0.41711772E+02</pdfrwt>
<totfact> 0.99558082E+05</totfact>
</mgrwt>
</event>
<event>
 4    1  0.4029665E-002  0.5455871E+02  0.7818608E-02  0.1422197E+00
          1   -1    0    0    0  501  0.00000000000E+00  0.00000000000E+00  0.87082526143E+02  0.87082526289E+02  0.50400000000E-02 0.  1.
         -1   -1    0    0  501    0 -0.00000000000E+00 -0.00000000000E+00 -0.85454916478E+01  0.85454931341E+01  0.50400000000E-02 0.  1.
          2    1    1    2    0  502  0.39917752775E+01 -0.23914596224E+02  0.17354115747E+02  0.29816229176E+02  0.25500000000E-02 0.  1.
         -2    1    1    2  502    0 -0.39917752775E+01  0.23914596224E+02  0.61182918749E+02  0.65811790248E+02  0.25500000000E-02 0.  1.
<mgrwt>
<rscale>  0 0.54558705E+02</rscale>
<asrwt>0</asrwt>
<pdfrwt beam="1">  1        1 0.13397312E-01 0.54558705E+02</pdfrwt>
<pdfrwt beam="2">  1       -1 0.13146911E-02 0.54558705E+02</pdfrwt>
<totfact> 0.39721470E+05</totfact>
</mgrwt>
</event>
<event>
 4    1  0.4029665E-002  0.5433280E+02  0.7818608E-02  0.1423281E+00
          1   -1    0    0    0  501  0.00000000000E+00  0.00000000000E+00  0.64447845557E+01  0.64447865264E+01  0.50400000000E-02 0. -1.
         -1   -1    0    0  501    0 -0.00000000000E+00 -0.00000000000E+00 -0.11451322669E+03  0.11451322680E+03  0.50400000000E-02 0. -1.
          2    1    1    2    0  502  0.22286337603E+02 -0.12873787147E+02 -0.34677686475E+02  0.43185150052E+02  0.25500000000E-02 0.  1.
         -2    1    1    2  502    0 -0.22286337603E+02  0.12873787147E+02 -0.73390755658E+02  0.77772863273E+02  0.25500000000E-02 0.  1.
<mgrwt>
<rscale>  0 0.54332797E+02</rscale>
<asrwt>0</asrwt>
<pdfrwt beam="1">  1        1 0.99150557E-03 0.54332797E+02</pdfrwt>
<pdfrwt beam="2">  1       -1 0.17617418E-01 0.54332797E+02</pdfrwt>
<totfact> 0.29571587E+05</totfact>
</mgrwt>
</event>
<event>
 4    1  0.4029665E-002  0.5780500E+02  0.7818608E-02  0.1407281E+00
         -1   -1    0    0  501    0 -0.00000000000E+00  0.00000000000E+00  0.17013109396E+02  0.17013110142E+02  0.50400000000E-02 0.  1.
          1   -1    0    0    0  501  0.00000000000E+00 -0.00000000000E+00 -0.49100628834E+02  0.49100629092E+02  0.50400000000E-02 0.  1.
          2    1    1    2    0  502 -0.13078245000E+02 -0.25015571021E+02 -0.89438202312E+01  0.29610998170E+02  0.25500000000E-02 0.  1.
         -2    1    1    2  502    0  0.13078245000E+02  0.25015571021E+02 -0.23143699207E+02  0.36502741065E+02  0.25500000000E-02 0.  1.
<mgrwt>
<rscale>  0 0.57804996E+02</rscale>
<asrwt>0</asrwt>
<pdfrwt beam="2">  1        1 0.75539429E-02 0.57804996E+02</pdfrwt>
<pdfrwt beam="1">  1       -1 0.26174015E-02 0.57804996E+02</pdfrwt>
<totfact> 0.32001478E+05</totfact>
</mgrwt>
</event>
<event>
 4    1  0.4029665E-002  0.4256476E+02  0.7818608E-02  0.1490143E+00
         -1   -1    0    0  501    0 -0.00000000000E+00  0.00000000000E+00  0.62785784717E+01  0.62785804946E+01  0.50400000000E-02 0.  1.
          1   -1    0    0    0  501  0.00000000000E+00 -0.00000000000E+00 -0.72140465016E+02  0.72140465192E+02  0.50400000000E-02 0.  1.
          2    1    1    2    0  502 -0.21044049132E+02 -0.16544462872E+01 -0.37925862428E+02  0.43404610859E+02  0.25500000000E-02 0. -1.
         -2    1    1    2  502    0  0.21044049132E+02  0.16544462872E+01 -0.27936024116E+02  0.35014434828E+02  0.25500000000E-02 0. -1.
<mgrwt>
<rscale>  0 0.42564758E+02</rscale>
<asrwt>0</asrwt>
<pdfrwt beam="2">  1        1 0.11098533E-01 0.42564758E+02</pdfrwt>
<pdfrwt beam="1">  1       -1 0.96593537E-03 0.42564758E+02</pdfrwt>
<totfact> 0.72630697E+05</totfact>
</mgrwt>
</event>
<event>
 4    1  0.4029665E-002  0.8419074E+02  0.7818608E-02  0.1317562E+00
         -1   -1    0    0  501    0 -0.00000000000E+00  0.00000000000E+00  0.12584387301E+02  0.12584388310E+02  0.50400000000E-02 0. -1.
          1   -1    0    0    0  501  0.00000000000E+00 -0.00000000000E+00 -0.14081100104E+03  0.14081100113E+03  0.50400000000E-02 0. -1.
          2    1    1    2    0  502 -0.12327388606E+02  0.30182925112E+02 -0.11262935429E+03  0.11725333655E+03  0.25500000000E-02 0. -1.
         -2    1    1    2  502    0  0.12327388606E+02 -0.30182925112E+02 -0.15597259449E+02  0.36142052888E+02  0.25500000000E-02 0. -1.
<mgrwt>
<rscale>  0 0.84190742E+02</rscale>
<asrwt>0</asrwt>
<pdfrwt beam="2">  1        1 0.21663230E-01 0.84190742E+02</pdfrwt>
<pdfrwt beam="1">  1       -1 0.19360598E-02 0.84190742E+02</pdfrwt>
<totfact> 0.13732457E+05</totfact>
</mgrwt>
</event>
<event>
 4    1  0.4029665E-002  0.5212812E+02  0.7818608E-02  0.1434190E+00
         -1   -1    0    0  501    0 -0.00000000000E+00  0.00000000000E+00  0.42824006959E+01  0.42824036617E+01  0.50400000000E-02 0.  1.
          1   -1    0    0    0  501  0.00000000000E+00 -0.00000000000E+00 -0.15863414078E+03  0.15863414086E+03  0.50400000000E-02 0.  1.
          2    1    1    2    0  502 -0.52594745517E+01  0.25301295765E+02 -0.66569340393E+02  0.71409346215E+02  0.25500000000E-02 0.  1.
         -2    1    1    2  502    0  0.52594745517E+01 -0.25301295765E+02 -0.87782399692E+02  0.91507198308E+02  0.25500000000E-02 0.  1.
<mgrwt>
<rscale>  0 0.52128119E+02</rscale>
<asrwt>0</asrwt>
<pdfrwt beam="2">  1        1 0.24405248E-01 0.52128119E+02</pdfrwt>
<pdfrwt beam="1">  1       -1 0.65883124E-03 0.52128119E+02</pdfrwt>
<totfact> 0.48683594E+05</totfact>
</mgrwt>
</event>
<event>
 4    1  0.4029665E-002  0.9098484E+02  0.7818608E-02  0.1300484E+00
          1   -1    0    0    0  501  0.00000000000E+00  0.00000000000E+00  0.38357226050E+03  0.38357226053E+03  0.50400000000E-02 0. -1.
         -1   -1    0    0  501    0 -0.00000000000E+00 -0.00000000000E+00 -0.53954885729E+01  0.53954909269E+01  0.50400000000E-02 0. -1.
          2    1    1    2    0  502  0.21045444048E+02 -0.27232916609E+02  0.61907877641E+02  0.70831686291E+02  0.25500000000E-02 0.  1.
         -2    1    1    2  502    0 -0.21045444048E+02  0.27232916609E+02  0.31626889428E+03  0.31813606517E+03  0.25500000000E-02 0.  1.
<mgrwt>
<rscale>  0 0.90984839E+02</rscale>
<asrwt>0</asrwt>
<pdfrwt beam="1">  1        1 0.59011086E-01 0.90984839E+02</pdfrwt>
<pdfrwt beam="2">  1       -1 0.83007578E-03 0.90984839E+02</pdfrwt>
<totfact> 0.13470373E+05</totfact>
</mgrwt>
</event>
<event>
 4    1  0.4029665E-002  0.5112820E+02  0.7818608E-02  0.1439350E+00
         -1   -1    0    0  501    0 -0.00000000000E+00  0.00000000000E+00  0.79238594860E+00  0.79240197699E+00  0.50400000000E-02 0.  1.
          1   -1    0    0    0  501  0.00000000000E+00 -0.00000000000E+00 -0.82474527081E+03  0.82474527083E+03  0.50400000000E-02 0.  1.
          2    1    1    2    0  502  0.20935506818E+02 -0.58741661926E+01 -0.62903744240E+03  0.62941314351E+03  0.25500000000E-02 0. -1.
         -2    1    1    2  502    0 -0.20935506818E+02  0.58741661926E+01 -0.19491544247E+03  0.19612452930E+03  0.25500000000E-02 0. -1.
<mgrwt>
<rscale>  0 0.51128199E+02</rscale>
<asrwt>0</asrwt>
<pdfrwt beam="2">  1        1 0.12688320E+00 0.51128199E+02</pdfrwt>
<pdfrwt beam="1">  1       -1 0.12190742E-03 0.51128199E+02</pdfrwt>
<totfact> 0.62174904E+05</totfact>
</mgrwt>
</event>
<event>
 4    1  0.4029665E-002  0.1041745E+03  0.7818608E-02  0.1271755E+00
         -1   -1    0    0  501    0 -0.00000000000E+00  0.00000000000E+00  0.14040693444E+01  0.14040783901E+01  0.50400000000E-02 0. -1.
          1   -1    0    0    0  501  0.00000000000E+00 -0.00000000000E+00 -0.19322939839E+04  0.19322939840E+04  0.50400000000E-02 0. -1.
          2    1    1    2    0  502 -0.52345235204E+01 -0.50794842993E+02 -0.77472701594E+03  0.77640805350E+03  0.25500000000E-02 0. -1.
         -2    1    1    2  502    0  0.52345235204E+01  0.50794842993E+02 -0.11561628987E+04  0.11572900088E+04  0.25500000000E-02 0. -1.
<mgrwt>
<rscale>  0 0.10417454E+03</rscale>
<asrwt>0</asrwt>
<pdfrwt beam="2">  1        1 0.29727387E+00 0.10417454E+03</pdfrwt>
<pdfrwt beam="1">  1       -1 0.21601291E-03 0.10417454E+03</pdfrwt>
<totfact> 0.58725389E+04</totfact>
</mgrwt>
</event>
<event>
 4    1  0.4029665E-002  0.6914137E+02  0.7818608E-02  0.1363037E+00
          1   -1    0    0    0  501  0.00000000000E+00  0.00000000000E+00  0.30485430078E+01  0.30485471740E+01  0.50400000000E-02 0. -1.
         -1   -1    0    0  501    0 -0.00000000000E+00 -0.00000000000E+00 -0.39203360629E+03  0.39203360632E+03  0.50400000000E-02 0. -1.
          2    1    1    2    0  502  0.33973546309E+02  0.37460121151E+01 -0.16485740158E+03  0.16836328970E+03  0.25500000000E-02 0.  1.
         -2    1    1    2  502    0 -0.33973546309E+02 -0.37460121151E+01 -0.22412766170E+03  0.22671886379E+03  0.25500000000E-02 0.  1.
<mgrwt>
<rscale>  0 0.69141366E+02</rscale>
<asrwt>0</asrwt>
<pdfrwt beam="1">  1        1 0.46900725E-03 0.69141366E+02</pdfrwt>
<pdfrwt beam="2">  1       -1 0.60312823E-01 0.69141366E+02</pdfrwt>
<totfact> 0.11022264E+05</totfact>
</mgrwt>
</event>
<event>
 4    1  0.4029665E-002  0.8102809E+02  0.7818608E-02  0.1326159E+00
          1   -1    0    0    0  501  0.00000000000E+00  0.00000000000E+00  0.33541762691E+04  0.33541762691E+04  0.50400000000E-02 0.  1.
         -1   -1    0    0  501    0 -0.00000000000E+00 -0.00000000000E+00 -0.48934351251E+00  0.48936946659E+00  0.50400000000E-02 0.  1.
          2    1    1    2    0  502 -0.19815300292E+02 -0.31841077604E+02  0.23113610359E+04  0.23116652739E+04  0.25500000000E-02 0. -1.
         -2    1    1    2  502    0  0.19815300292E+02  0.31841077604E+02  0.10423258897E+04  0.10430003647E+04  0.25500000000E-02 0. -1.
<mgrwt>
<rscale>  0 0.81028092E+02</rscale>
<asrwt>0</asrwt>
<pdfrwt beam="1">  1        1 0.51602271E+00 0.81028092E+02</pdfrwt>
<pdfrwt beam="2">  1       -1 0.75286258E-04 0.81028092E+02</pdfrwt>
<totfact> 0.28491477E+04</totfact>
</mgrwt>
</event>
<event>
 4    1  0.4029665E-002  0.4087326E+02  0.7818608E-02  0.1501882E+00
          1   -1    0    0    0  501  0.00000000000E+00  0.00000000000E+00  0.40395488254E+03  0.40395488257E+03  0.50400000000E-02 0. -1.
         -1   -1    0    0  501    0 -0.00000000000E+00 -0.00000000000E+00 -0.10339106770E+01  0.10339229611E+01  0.50400000000E-02 0. -1.
          2    1    1    2    0  502  0.19203741592E+02 -0.60178645363E+01  0.23671181541E+03  0.23756574237E+03  0.25500000000E-02 0.  1.
         -2    1    1    2  502    0 -0.19203741592E+02  0.60178645363E+01  0.16620915645E+03  0.16742306316E+03  0.25500000000E-02 0.  1.
<mgrwt>
<rscale>  0 0.40873256E+02</rscale>
<asrwt>0</asrwt>
<pdfrwt beam="1">  1        1 0.62146911E-01 0.40873256E+02</pdfrwt>
<pdfrwt beam="2">  1       -1 0.15906412E-03 0.40873256E+02</pdfrwt>
<totfact> 0.10397377E+06</totfact>
</mgrwt>
</event>
<event>
 4    1  0.4029665E-002  0.6973176E+02  0.7818608E-02  0.1361008E+00
          1   -1    0    0    0  501  0.00000000000E+00  0.00000000000E+00  0.34502413479E+02  0.34502413847E+02  0.50400000000E-02 0.  1.
         -1   -1    0    0  501    0 -0.00000000000E+00 -0.00000000000E+00 -0.35233175669E+02  0.35233176030E+02  0.50400000000E-02 0.  1.
          2    1    1    2    0  502 -0.15038900606E+02  0.16158525018E+02 -0.27355066947E+02  0.35150620996E+02  0.25500000000E-02 0.  1.
         -2    1    1    2  502    0  0.15038900606E+02 -0.16158525018E+02  0.26624304757E+02  0.34584968881E+02  0.25500000000E-02 0.  1.
<mgrwt>
<rscale>  0 0.69731761E+02</rscale>
<asrwt>0</asrwt>
<pdfrwt beam="1">  1        1 0.53080637E-02 0.69731761E+02</pdfrwt>
<pdfrwt beam="2">  1       -1 0.54204886E-02 0.69731761E+02</pdfrwt>
<totfact> 0.18674897E+05</totfact>
</mgrwt>
</event>
<event>
 4    1  0.4029665E-002  0.1078483E+03  0.7818608E-02  0.1264607E+00
         -1   -1    0    0  501    0 -0.00000000000E+00  0.00000000000E+00  0.13196831905E+01  0.13196928146E+01  0.50400000000E-02 0. -1.
          1   -1    0    0    0  501  0.00000000000E+00 -0.00000000000E+00 -0.22034101762E+04  0.22034101762E+04  0.50400000000E-02 0. -1.
          2    1    1    2    0  502 -0.27965251234E+01  0.51720892657E+02 -0.79444110125E+03  0.79612783814E+03  0.25500000000E-02 0. -1.
         -2    1    1    2  502    0  0.27965251234E+01 -0.51720892657E+02 -0.14076493918E+04  0.14086020309E+04  0.25500000000E-02 0. -1.
<mgrwt>
<rscale>  0 0.10784830E+03</rscale>
<asrwt>0</asrwt>
<pdfrwt beam="2">  1        1 0.33898324E+00 0.10784830E+03</pdfrwt>
<pdfrwt beam="1">  1       -1 0.20303069E-03 0.10784830E+03</pdfrwt>
<totfact> 0.43286903E+04</totfact>
</mgrwt>
</event>
<event>
 4    1  0.4029665E-002  0.5241304E+02  0.7818608E-02  0.1432744E+00
          1   -1    0    0    0  501  0.00000000000E+00  0.00000000000E+00  0.29060971718E+02  0.29060972155E+02  0.50400000000E-02 0.  1.
         -1   -1    0    0  501    0 -0.00000000000E+00 -0.00000000000E+00 -0.23632439189E+02  0.23632439727E+02  0.50400000000E-02 0.  1.
          2    1    1    2    0  502  0.19316487673E+02  0.17196427271E+02 -0.15437006304E+01  0.25908045566E+02  0.25500000000E-02 0. -1.
         -2    1    1    2  502    0 -0.19316487673E+02 -0.17196427271E+02  0.69722331586E+01  0.26785366315E+02  0.25500000000E-02 0. -1.
<mgrwt>
<rscale>  0 0.52413039E+02</rscale>
<asrwt>0</asrwt>
<pdfrwt beam="1">  1        1 0.44709188E-02 0.52413039E+02</pdfrwt>
<pdfrwt beam="2">  1       -1 0.36357599E-02 0.52413039E+02</pdfrwt>
<totfact> 0.39222516E+05</totfact>
</mgrwt>
</event>
<event>
 4    1  0.4029665E-002  0.1216158E+03  0.7818608E-02  0.1240455E+00
          1   -1    0    0    0  501  0.00000000000E+00  0.00000000000E+00  0.22076055288E+02  0.22076055864E+02  0.50400000000E-02 0.  1.
         -1   -1    0    0  501    0 -0.00000000000E+00 -0.00000000000E+00 -0.16749364326E+03  0.16749364334E+03  0.50400000000E-02 0.  1.
          2    1    1    2    0  502  0.19591913073E+02 -0.57550780287E+02 -0.70698287861E+02  0.93242604439E+02  0.25500000000E-02 0. -1.
         -2    1    1    2  502    0 -0.19591913073E+02  0.57550780287E+02 -0.74719300110E+02  0.96327094761E+02  0.25500000000E-02 0. -1.
<mgrwt>
<rscale>  0 0.12161577E+03</rscale>
<asrwt>0</asrwt>
<pdfrwt beam="1">  1        1 0.33963164E-02 0.12161577E+03</pdfrwt>
<pdfrwt beam="2">  1       -1 0.25768252E-01 0.12161577E+03</pdfrwt>
<totfact> 0.34254635E+04</totfact>
</mgrwt>
</event>
<event>
 4    1  0.4029665E-002  0.5955974E+02  0.7818608E-02  0.1399689E+00
         -1   -1    0    0  501    0 -0.00000000000E+00  0.00000000000E+00  0.10039006147E+03  0.10039006159E+03  0.50400000000E-02 0. -1.
          1   -1    0    0    0  501  0.00000000000E+00 -0.00000000000E+00 -0.88339482122E+01  0.88339496499E+01  0.50400000000E-02 0. -1.
          2    1    1    2    0  502  0.94470380368E+01 -0.21571659154E+02  0.79205474673E+02  0.82632259022E+02  0.25500000000E-02 0.  1.
         -2    1    1    2  502    0 -0.94470380368E+01  0.21571659154E+02  0.12350638582E+02  0.26591752222E+02  0.25500000000E-02 0.  1.
<mgrwt>
<rscale>  0 0.59559741E+02</rscale>
<asrwt>0</asrwt>
<pdfrwt beam="2">  1        1 0.13590690E-02 0.59559741E+02</pdfrwt>
<pdfrwt beam="1">  1       -1 0.15444626E-01 0.59559741E+02</pdfrwt>
<totfact> 0.24049765E+05</totfact>
</mgrwt>
</event>
<event>
 4    1  0.4029665E-002  0.4779878E+02  0.7818608E-02  0.1457589E+00
          1   -1    0    0    0  501  0.00000000000E+00  0.00000000000E+00  0.72662369854E+01  0.72662387334E+01  0.50400000000E-02 0. -1.
         -1   -1    0    0  501    0 -0.00000000000E+00 -0.00000000000E+00 -0.78607492584E+02  0.78607492745E+02  0.50400000000E-02 0. -1.
          2    1    1    2    0  502 -0.11303700975E+02 -0.20724978884E+02 -0.28976794462E+02  0.37375834830E+02  0.25500000000E-02 0.  1.
         -2    1    1    2  502    0  0.11303700975E+02  0.20724978884E+02 -0.42364461136E+02  0.48497896648E+02  0.25500000000E-02 0.  1.
<mgrwt>
<rscale>  0 0.47798776E+02</rscale>
<asrwt>0</asrwt>
<pdfrwt beam="1">  1        1 0.11178828E-02 0.47798776E+02</pdfrwt>
<pdfrwt beam="2">  1       -1 0.12093460E-01 0.47798776E+02</pdfrwt>
<totfact> 0.43151046E+05</totfact>
</mgrwt>
</event>
<event>
 4    1  0.4029665E-002  0.4741800E+02  0.7818608E-02  0.1459787E+00
          1   -1    0    0    0  501  0.00000000000E+00  0.00000000000E+00  0.99299813089E+00  0.99301092117E+00  0.50400000000E-02 0. -1.
         -1   -1    0    0  501    0 -0.00000000000E+00 -0.00000000000E+00 -0.56607665703E+03  0.56607665706E+03  0.50400000000E-02 0. -1.
          2    1    1    2    0  502  0.21944076977E+02 -0.70634512051E-01 -0.38988580254E+03  0.39050286367E+03  0.25500000000E-02 0.  1.
         -2    1    1    2  502    0 -0.21944076977E+02  0.70634512051E-01 -0.17519785636E+03  0.17656680431E+03  0.25500000000E-02 0.  1.
<mgrwt>
<rscale>  0 0.47418001E+02</rscale>
<asrwt>0</asrwt>
<pdfrwt beam="1">  1        1 0.15277038E-03 0.47418001E+02</pdfrwt>
<pdfrwt beam="2">  1       -1 0.87088460E-01 0.47418001E+02</pdfrwt>
<totfact> 0.22934061E+05</totfact>
</mgrwt>
</event>
<event>
 4    1  0.4029665E-002  0.4739729E+02  0.7818608E-02  0.1459908E+00
          1   -1    0    0    0  501  0.00000000000E+00  0.00000000000E+00  0.19682695582E+02  0.19682696228E+02  0.50400000000E-02 0. -1.
         -1   -1    0    0  501    0 -0.00000000000E+00 -0.00000000000E+00 -0.28533988626E+02  0.28533989072E+02  0.50400000000E-02 0. -1.
          2    1    1    2    0  502 -0.23397265530E+02  0.26021372380E+01 -0.16540873136E+01  0.23599558552E+02  0.25500000000E-02 0.  1.
         -2    1    1    2  502    0  0.23397265530E+02 -0.26021372380E+01 -0.71972057304E+01  0.24617126748E+02  0.25500000000E-02 0.  1.
<mgrwt>
<rscale>  0 0.47397293E+02</rscale>
<asrwt>0</asrwt>
<pdfrwt beam="1">  1        1 0.30281071E-02 0.47397293E+02</pdfrwt>
<pdfrwt beam="2">  1       -1 0.43898445E-02 0.47397293E+02</pdfrwt>
<totfact> 0.49199594E+05</totfact>
</mgrwt>
</event>
<event>
 4    1  0.4029665E-002  0.5390529E+02  0.7818608E-02  0.1425348E+00
          1   -1    0    0    0  501  0.00000000000E+00  0.00000000000E+00  0.57475155834E+01  0.57475177932E+01  0.50400000000E-02 0. -1.
         -1   -1    0    0  501    0 -0.00000000000E+00 -0.00000000000E+00 -0.12639284956E+03  0.12639284966E+03  0.50400000000E-02 0. -1.
          2    1    1    2    0  502  0.49150478704E+01 -0.20205826379E+02 -0.10235529984E+03  0.10444635239E+03  0.25500000000E-02 0.  1.
         -2    1    1    2  502    0 -0.49150478704E+01  0.20205826379E+02 -0.18290034134E+02  0.27694015063E+02  0.25500000000E-02 0.  1.
<mgrwt>
<rscale>  0 0.53905288E+02</rscale>
<asrwt>0</asrwt>
<pdfrwt beam="1">  1        1 0.88423344E-03 0.53905288E+02</pdfrwt>
<pdfrwt beam="2">  1       -1 0.19445052E-01 0.53905288E+02</pdfrwt>
<totfact> 0.29600659E+05</totfact>
</mgrwt>
</event>
<event>
 4    1  0.4029665E-002  0.6995514E+02  0.7818608E-02  0.1360246E+00
         -1   -1    0    0  501    0 -0.00000000000E+00  0.00000000000E+00  0.18204548892E+02  0.18204549590E+02  0.50400000000E-02 0.  1.
          1   -1    0    0    0  501  0.00000000000E+00 -0.00000000000E+00 -0.67204646170E+02  0.67204646359E+02  0.50400000000E-02 0.  1.
          2    1    1    2    0  502  0.13025090411E+02  0.29875712435E+02 -0.89978499043E+01  0.33810833812E+02  0.25500000000E-02 0.  1.
         -2    1    1    2  502    0 -0.13025090411E+02 -0.29875712435E+02 -0.40002247373E+02  0.51598362136E+02  0.25500000000E-02 0.  1.
<mgrwt>
<rscale>  0 0.69955137E+02</rscale>
<asrwt>0</asrwt>
<pdfrwt beam="2">  1        1 0.10339176E-01 0.69955137E+02</pdfrwt>
<pdfrwt beam="1">  1       -1 0.28006999E-02 0.69955137E+02</pdfrwt>
<totfact> 0.20096701E+05</totfact>
</mgrwt>
</event>
<event>
 4    1  0.4029665E-002  0.4351930E+02  0.7818608E-02  0.1483803E+00
          1   -1    0    0    0  501  0.00000000000E+00  0.00000000000E+00  0.39695812152E+02  0.39695812472E+02  0.50400000000E-02 0. -1.
         -1   -1    0    0  501    0 -0.00000000000E+00 -0.00000000000E+00 -0.11927766580E+02  0.11927767644E+02  0.50400000000E-02 0. -1.
          2    1    1    2    0  502  0.14923346990E+02  0.15743041516E+02  0.11852577450E+02  0.24719086558E+02  0.25500000000E-02 0.  1.
         -2    1    1    2  502    0 -0.14923346990E+02 -0.15743041516E+02  0.15915468123E+02  0.26904493558E+02  0.25500000000E-02 0.  1.
<mgrwt>
<rscale>  0 0.43519302E+02</rscale>
<asrwt>0</asrwt>
<pdfrwt beam="1">  1        1 0.61070482E-02 0.43519302E+02</pdfrwt>
<pdfrwt beam="2">  1       -1 0.18350411E-02 0.43519302E+02</pdfrwt>
<totfact> 0.64902011E+05</totfact>
</mgrwt>
</event>
<event>
 4    1  0.4029665E-002  0.4842747E+02  0.7818608E-02  0.1454013E+00
         -1   -1    0    0  501    0 -0.00000000000E+00  0.00000000000E+00  0.33012423491E+01  0.33012461963E+01  0.50400000000E-02 0. -1.
          1   -1    0    0    0  501  0.00000000000E+00 -0.00000000000E+00 -0.17760118190E+03  0.17760118197E+03  0.50400000000E-02 0. -1.
          2    1    1    2    0  502  0.23707374351E+02  0.51276081153E-01 -0.10555014135E+03  0.10817982517E+03  0.25500000000E-02 0.  1.
         -2    1    1    2  502    0 -0.23707374351E+02 -0.51276081153E-01 -0.68749798192E+02  0.72722602992E+02  0.25500000000E-02 0.  1.
<mgrwt>
<rscale>  0 0.48427467E+02</rscale>
<asrwt>0</asrwt>
<pdfrwt beam="2">  1        1 0.27323252E-01 0.48427467E+02</pdfrwt>
<pdfrwt beam="1">  1       -1 0.50788388E-03 0.48427467E+02</pdfrwt>
<totfact> 0.59661497E+05</totfact>
</mgrwt>
</event>
<event>
 4    1  0.4029665E-002  0.6271966E+02  0.7818608E-02  0.1386760E+00
         -1   -1    0    0  501    0 -0.00000000000E+00  0.00000000000E+00  0.30039845096E+02  0.30039845519E+02  0.50400000000E-02 0. -1.
          1   -1    0    0    0  501  0.00000000000E+00 -0.00000000000E+00 -0.32737820771E+02  0.32737821159E+02  0.50400000000E-02 0. -1.
          2    1    1    2    0  502  0.21158306946E+02  0.14355992534E+02 -0.19522612569E+02  0.32169875389E+02  0.25500000000E-02 0.  1.
         -2    1    1    2  502    0 -0.21158306946E+02 -0.14355992534E+02  0.16824636894E+02  0.30607791289E+02  0.25500000000E-02 0.  1.
<mgrwt>
<rscale>  0 0.62719665E+02</rscale>
<asrwt>0</asrwt>
<pdfrwt beam="2">  1        1 0.50365879E-02 0.62719665E+02</pdfrwt>
<pdfrwt beam="1">  1       -1 0.46215147E-02 0.62719665E+02</pdfrwt>
<totfact> 0.24705130E+05</totfact>
</mgrwt>
</event>
<event>
 4    1  0.4029665E-002  0.4545772E+02  0.7818608E-02  0.1471504E+00
          1   -1    0    0    0  501  0.00000000000E+00  0.00000000000E+00  0.53193607335E+02  0.53193607574E+02  0.50400000000E-02 0. -1.
         -1   -1    0    0  501    0 -0.00000000000E+00 -0.00000000000E+00 -0.97117147547E+01  0.97117160625E+01  0.50400000000E-02 0. -1.
          2    1    1    2    0  502  0.47956745332E+01  0.20922418893E+02  0.11398791560E+02  0.24303879568E+02  0.25500000000E-02 0. -1.
         -2    1    1    2  502    0 -0.47956745332E+01 -0.20922418893E+02  0.32083101020E+02  0.38601444068E+02  0.25500000000E-02 0. -1.
<mgrwt>
<rscale>  0 0.45457725E+02</rscale>
<asrwt>0</asrwt>
<pdfrwt beam="1">  1        1 0.81836322E-02 0.45457725E+02</pdfrwt>
<pdfrwt beam="2">  1       -1 0.14941101E-02 0.45457725E+02</pdfrwt>
<totfact> 0.59719838E+05</totfact>
</mgrwt>
</event>
<event>
 4    1  0.4029665E-002  0.4297904E+02  0.7818608E-02  0.1487367E+00
         -1   -1    0    0  501    0 -0.00000000000E+00  0.00000000000E+00  0.46768763589E+00  0.46771479168E+00  0.50400000000E-02 0.  1.
          1   -1    0    0    0  501  0.00000000000E+00 -0.00000000000E+00 -0.98738146230E+03  0.98738146232E+03  0.50400000000E-02 0.  1.
          2    1    1    2    0  502  0.13510034145E+02 -0.14807169245E+02 -0.31538127554E+03  0.31601759801E+03  0.25500000000E-02 0. -1.
         -2    1    1    2  502    0 -0.13510034145E+02  0.14807169245E+02 -0.67153249913E+03  0.67183157910E+03  0.25500000000E-02 0. -1.
<mgrwt>
<rscale>  0 0.42979042E+02</rscale>
<asrwt>0</asrwt>
<pdfrwt beam="2">  1        1 0.15190317E+00 0.42979042E+02</pdfrwt>
<pdfrwt beam="1">  1       -1 0.71954824E-04 0.42979042E+02</pdfrwt>
<totfact> 0.92384438E+05</totfact>
</mgrwt>
</event>
<event>
 4    1  0.4029665E-002  0.4224981E+02  0.7818608E-02  0.1492279E+00
         -1   -1    0    0  501    0 -0.00000000000E+00  0.00000000000E+00  0.62908615408E+02  0.62908615610E+02  0.50400000000E-02 0.  1.
          1   -1    0    0    0  501  0.00000000000E+00 -0.00000000000E+00 -0.70938049453E+01  0.70938067357E+01  0.50400000000E-02 0.  1.
          2    1    1    2    0  502  0.97563904826E+01 -0.17542147903E+02  0.16998783282E+02  0.26303474065E+02  0.25500000000E-02 0.  1.
         -2    1    1    2  502    0 -0.97563904826E+01  0.17542147903E+02  0.38816027180E+02  0.43698948281E+02  0.25500000000E-02 0.  1.
<mgrwt>
<rscale>  0 0.42249806E+02</rscale>
<asrwt>0</asrwt>
<pdfrwt beam="2">  1        1 0.10913548E-02 0.42249806E+02</pdfrwt>
<pdfrwt beam="1">  1       -1 0.96782485E-02 0.42249806E+02</pdfrwt>
<totfact> 0.60063424E+05</totfact>
</mgrwt>
</event>
<event>
 4    1  0.4029665E-002  0.5872578E+02  0.7818608E-02  0.1403258E+00
         -1   -1    0    0  501    0 -0.00000000000E+00  0.00000000000E+00  0.14300621242E+01  0.14300710055E+01  0.50400000000E-02 0.  1.
          1   -1    0    0    0  501  0.00000000000E+00 -0.00000000000E+00 -0.60289455909E+03  0.60289455911E+03  0.50400000000E-02 0.  1.
          2    1    1    2    0  502 -0.19876934830E+02 -0.48259579923E+01 -0.83945044942E+02  0.86401116808E+02  0.25500000000E-02 0. -1.
         -2    1    1    2  502    0  0.19876934830E+02  0.48259579923E+01 -0.51751945202E+03  0.51792351330E+03  0.25500000000E-02 0. -1.
<mgrwt>
<rscale>  0 0.58725782E+02</rscale>
<asrwt>0</asrwt>
<pdfrwt beam="2">  1        1 0.92752807E-01 0.58725782E+02</pdfrwt>
<pdfrwt beam="1">  1       -1 0.22001072E-03 0.58725782E+02</pdfrwt>
<totfact> 0.44220688E+05</totfact>
</mgrwt>
</event>
<event>
 4    1  0.4029665E-002  0.5682886E+02  0.7818608E-02  0.1411643E+00
          1   -1    0    0    0  501  0.00000000000E+00  0.00000000000E+00  0.29210572633E+03  0.29210572637E+03  0.50400000000E-02 0.  1.
         -1   -1    0    0  501    0 -0.00000000000E+00 -0.00000000000E+00 -0.27639963583E+01  0.27640009534E+01  0.50400000000E-02 0.  1.
          2    1    1    2    0  502 -0.72115728721E+00  0.28404281123E+02  0.14343656527E+03  0.14622370368E+03  0.25500000000E-02 0.  1.
         -2    1    1    2  502    0  0.72115728721E+00 -0.28404281123E+02  0.14590516470E+03  0.14864602364E+03  0.25500000000E-02 0.  1.
<mgrwt>
<rscale>  0 0.56828861E+02</rscale>
<asrwt>0</asrwt>
<pdfrwt beam="1">  1        1 0.44939316E-01 0.56828861E+02</pdfrwt>
<pdfrwt beam="2">  1       -1 0.42523082E-03 0.56828861E+02</pdfrwt>
<totfact> 0.43548913E+05</totfact>
</mgrwt>
</event>
<event>
 4    1  0.4029665E-002  0.7038098E+02  0.7818608E-02  0.1358802E+00
         -1   -1    0    0  501    0 -0.00000000000E+00  0.00000000000E+00  0.13461170320E+01  0.13461264671E+01  0.50400000000E-02 0. -1.
          1   -1    0    0    0  501  0.00000000000E+00 -0.00000000000E+00 -0.91995443862E+03  0.91995443863E+03  0.50400000000E-02 0. -1.
          2    1    1    2    0  502 -0.12840785642E+02  0.32622220731E+02 -0.49917152839E+03  0.50040114891E+03  0.25500000000E-02 0. -1.
         -2    1    1    2  502    0  0.12840785642E+02 -0.32622220731E+02 -0.41943679319E+03  0.42089941619E+03  0.25500000000E-02 0. -1.
<mgrwt>
<rscale>  0 0.70380983E+02</rscale>
<asrwt>0</asrwt>
<pdfrwt beam="2">  1        1 0.14153095E+00 0.70380983E+02</pdfrwt>
<pdfrwt beam="1">  1       -1 0.20709639E-03 0.70380983E+02</pdfrwt>
<totfact> 0.27243461E+05</totfact>
</mgrwt>
</event>
<event>
 4    1  0.4029665E-002  0.4885863E+02  0.7818608E-02  0.1451597E+00
         -1   -1    0    0  501    0 -0.00000000000E+00  0.00000000000E+00  0.88185589681E+00  0.88187029904E+00  0.50400000000E-02 0.  1.
          1   -1    0    0    0  501  0.00000000000E+00 -0.00000000000E+00 -0.67673943493E+03  0.67673943494E+03  0.50400000000E-02 0.  1.
          2    1    1    2    0  502  0.28658457734E+01  0.21951634446E+02 -0.48119260400E+03  0.48170157720E+03  0.25500000000E-02 0. -1.
         -2    1    1    2  502    0 -0.28658457734E+01 -0.21951634446E+02 -0.19466497503E+03  0.19591972805E+03  0.25500000000E-02 0. -1.
<mgrwt>
<rscale>  0 0.48858635E+02</rscale>
<asrwt>0</asrwt>
<pdfrwt beam="2">  1        1 0.10411335E+00 0.48858635E+02</pdfrwt>
<pdfrwt beam="1">  1       -1 0.13567179E-03 0.48858635E+02</pdfrwt>
<totfact> 0.70273952E+05</totfact>
</mgrwt>
</event>
<event>
 4    1  0.4029665E-002  0.9027986E+02  0.7818608E-02  0.1302175E+00
         -1   -1    0    0  501    0 -0.00000000000E+00  0.00000000000E+00  0.23659115292E+01  0.23659168974E+01  0.50400000000E-02 0.  1.
          1   -1    0    0    0  501  0.00000000000E+00 -0.00000000000E+00 -0.86123725472E+03  0.86123725474E+03  0.50400000000E-02 0.  1.
          2    1    1    2    0  502  0.23120612327E+02 -0.29341625943E+02 -0.67183496073E+03  0.67287272808E+03  0.25500000000E-02 0. -1.
         -2    1    1    2  502    0 -0.23120612327E+02  0.29341625943E+02 -0.18703638247E+03  0.19073044356E+03  0.25500000000E-02 0. -1.
<mgrwt>
<rscale>  0 0.90279864E+02</rscale>
<asrwt>0</asrwt>
<pdfrwt beam="2">  1        1 0.13249779E+00 0.90279864E+02</pdfrwt>
<pdfrwt beam="1">  1       -1 0.36398749E-03 0.90279864E+02</pdfrwt>
<totfact> 0.14384117E+05</totfact>
</mgrwt>
</event>
<event>
 4    1  0.4029665E-002  0.9563580E+02  0.7818608E-02  0.1289750E+00
          1   -1    0    0    0  501  0.00000000000E+00  0.00000000000E+00  0.70558513883E+03  0.70558513885E+03  0.50400000000E-02 0.  1.
         -1   -1    0    0  501    0 -0.00000000000E+00 -0.00000000000E+00 -0.32406439761E+01  0.32406478953E+01  0.50400000000E-02 0.  1.
          2    1    1    2    0  502  0.17238635165E+01  0.45039876680E+02  0.46952547051E+03  0.47168392983E+03  0.25500000000E-02 0.  1.
         -2    1    1    2  502    0 -0.17238635165E+01 -0.45039876680E+02  0.23281902434E+03  0.23714185691E+03  0.25500000000E-02 0.  1.
<mgrwt>
<rscale>  0 0.95635801E+02</rscale>
<asrwt>0</asrwt>
<pdfrwt beam="1">  1        1 0.10855158E+00 0.95635801E+02</pdfrwt>
<pdfrwt beam="2">  1       -1 0.49856082E-03 0.95635801E+02</pdfrwt>
<totfact> 0.12525880E+05</totfact>
</mgrwt>
</event>
<event>
 4    1  0.4029665E-002  0.3187414E+03  0.7818608E-02  0.1076230E+00
          1   -1    0    0    0  501  0.00000000000E+00  0.00000000000E+00  0.56546174214E+02  0.56546174438E+02  0.50400000000E-02 0.  1.
         -1   -1    0    0  501    0 -0.00000000000E+00 -0.00000000000E+00 -0.44917322888E+03  0.44917322891E+03  0.50400000000E-02 0.  1.
          2    1    1    2    0  502 -0.10858403748E+03 -0.10196734087E+03 -0.10640425636E+03  0.18305654202E+03  0.25500000000E-02 0.  1.
         -2    1    1    2  502    0  0.10858403748E+03  0.10196734087E+03 -0.28622279831E+03  0.32266286133E+03  0.25500000000E-02 0.  1.
<mgrwt>
<rscale>  0 0.31874145E+03</rscale>
<asrwt>0</asrwt>
<pdfrwt beam="1">  1        1 0.86994117E-02 0.31874145E+03</pdfrwt>
<pdfrwt beam="2">  1       -1 0.69103571E-01 0.31874145E+03</pdfrwt>
<totfact> 0.17093389E+03</totfact>
</mgrwt>
</event>
<event>
 4    1  0.4029665E-002  0.4484186E+02  0.7818608E-02  0.1475331E+00
         -1   -1    0    0  501    0 -0.00000000000E+00  0.00000000000E+00  0.12834286906E+01  0.12834385865E+01  0.50400000000E-02 0. -1.
          1   -1    0    0    0  501  0.00000000000E+00 -0.00000000000E+00 -0.39168217299E+03  0.39168217302E+03  0.50400000000E-02 0. -1.
          2    1    1    2    0  502 -0.13205891871E+02 -0.16547219079E+02 -0.13050932306E+03  0.13221531474E+03  0.25500000000E-02 0. -1.
         -2    1    1    2  502    0  0.13205891871E+02  0.16547219079E+02 -0.25988942124E+03  0.26075029687E+03  0.25500000000E-02 0. -1.
<mgrwt>
<rscale>  0 0.44841859E+02</rscale>
<asrwt>0</asrwt>
<pdfrwt beam="2">  1        1 0.60258701E-01 0.44841859E+02</pdfrwt>
<pdfrwt beam="1">  1       -1 0.19745164E-03 0.44841859E+02</pdfrwt>
<totfact> 0.82553284E+05</totfact>
</mgrwt>
</event>
<event>
 4    1  0.4029665E-002  0.7794771E+02  0.7818608E-02  0.1334979E+00
          1   -1    0    0    0  501  0.00000000000E+00  0.00000000000E+00  0.25585541334E+01  0.25585590975E+01  0.50400000000E-02 0. -1.
         -1   -1    0    0  501    0 -0.00000000000E+00 -0.00000000000E+00 -0.59367903070E+03  0.59367903072E+03  0.50400000000E-02 0. -1.
          2    1    1    2    0  502 -0.36343249945E+02  0.12814706658E+00 -0.40322477319E+03  0.40485931626E+03  0.25500000000E-02 0. -1.
         -2    1    1    2  502    0  0.36343249945E+02 -0.12814706658E+00 -0.18789570337E+03  0.19137827356E+03  0.25500000000E-02 0. -1.
<mgrwt>
<rscale>  0 0.77947711E+02</rscale>
<asrwt>0</asrwt>
<pdfrwt beam="1">  1        1 0.39362457E-03 0.77947711E+02</pdfrwt>
<pdfrwt beam="2">  1       -1 0.91335127E-01 0.77947711E+02</pdfrwt>
<totfact> 0.63117447E+04</totfact>
</mgrwt>
</event>
<event>
 4    1  0.4029665E-002  0.4674844E+02  0.7818608E-02  0.1463713E+00
         -1   -1    0    0  501    0 -0.00000000000E+00  0.00000000000E+00  0.27907893022E+01  0.27907938532E+01  0.50400000000E-02 0. -1.
          1   -1    0    0    0  501  0.00000000000E+00 -0.00000000000E+00 -0.19577029165E+03  0.19577029171E+03  0.50400000000E-02 0. -1.
          2    1    1    2    0  502  0.13158067773E+02 -0.19316971524E+02 -0.95334705551E+02  0.98157965675E+02  0.25500000000E-02 0.  1.
         -2    1    1    2  502    0 -0.13158067773E+02  0.19316971524E+02 -0.97644796793E+02  0.10040311989E+03  0.25500000000E-02 0.  1.
<mgrwt>
<rscale>  0 0.46748437E+02</rscale>
<asrwt>0</asrwt>
<pdfrwt beam="2">  1        1 0.30118496E-01 0.46748437E+02</pdfrwt>
<pdfrwt beam="1">  1       -1 0.42935271E-03 0.46748437E+02</pdfrwt>
<totfact> 0.66223083E+05</totfact>
</mgrwt>
</event>
<event>
 4    1  0.4029665E-002  0.5580586E+02  0.7818608E-02  0.1416326E+00
         -1   -1    0    0  501    0 -0.00000000000E+00  0.00000000000E+00  0.48046972814E+00  0.48049616155E+00  0.50400000000E-02 0.  1.
          1   -1    0    0    0  501  0.00000000000E+00 -0.00000000000E+00 -0.16203975655E+04  0.16203975655E+04  0.50400000000E-02 0.  1.
          2    1    1    2    0  502  0.23597325481E+02 -0.86815954279E+01 -0.45856328163E+03  0.45925209540E+03  0.25500000000E-02 0. -1.
         -2    1    1    2  502    0 -0.23597325481E+02  0.86815954279E+01 -0.11613538141E+04  0.11616259662E+04  0.25500000000E-02 0. -1.
<mgrwt>
<rscale>  0 0.55805857E+02</rscale>
<asrwt>0</asrwt>
<pdfrwt beam="2">  1        1 0.24928756E+00 0.55805857E+02</pdfrwt>
<pdfrwt beam="1">  1       -1 0.73921751E-04 0.55805857E+02</pdfrwt>
<totfact> 0.36740672E+05</totfact>
</mgrwt>
</event>
<event>
 4    1  0.4029665E-002  0.4806816E+02  0.7818608E-02  0.1456049E+00
          1   -1    0    0    0  501  0.00000000000E+00  0.00000000000E+00  0.15371699544E+01  0.15371782169E+01  0.50400000000E-02 0.  1.
         -1   -1    0    0  501    0 -0.00000000000E+00 -0.00000000000E+00 -0.37577851513E+03  0.37577851516E+03  0.50400000000E-02 0.  1.
          2    1    1    2    0  502  0.63633640971E+00  0.20367087627E+02 -0.87084087556E+02  0.89436354434E+02  0.25500000000E-02 0.  1.
         -2    1    1    2  502    0 -0.63633640971E+00 -0.20367087627E+02 -0.28715725761E+03  0.28787933894E+03  0.25500000000E-02 0.  1.
<mgrwt>
<rscale>  0 0.48068160E+02</rscale>
<asrwt>0</asrwt>
<pdfrwt beam="1">  1        1 0.23648862E-03 0.48068160E+02</pdfrwt>
<pdfrwt beam="2">  1       -1 0.57812007E-01 0.48068160E+02</pdfrwt>
<totfact> 0.28069051E+05</totfact>
</mgrwt>
</event>
<event>
 4    1  0.4029665E-002  0.8031177E+02  0.7818608E-02  0.1328169E+00
          1   -1    0    0    0  501  0.00000000000E+00  0.00000000000E+00  0.11612636929E+03  0.11612636940E+03  0.50400000000E-02 0. -1.
         -1   -1    0    0  501    0 -0.00000000000E+00 -0.00000000000E+00 -0.13885691931E+02  0.13885692846E+02  0.50400000000E-02 0. -1.
          2    1    1    2    0  502 -0.26366023363E+02  0.30280670026E+02  0.52155491651E+02  0.65820068984E+02  0.25500000000E-02 0.  1.
         -2    1    1    2  502    0  0.26366023363E+02 -0.30280670026E+02  0.50085185713E+02  0.64191993267E+02  0.25500000000E-02 0.  1.
<mgrwt>
<rscale>  0 0.80311769E+02</rscale>
<asrwt>0</asrwt>
<pdfrwt beam="1">  1        1 0.17865596E-01 0.80311769E+02</pdfrwt>
<pdfrwt beam="2">  1       -1 0.21362603E-02 0.80311769E+02</pdfrwt>
<totfact> 0.15074466E+05</totfact>
</mgrwt>
</event>
<event>
 4    1  0.4029665E-002  0.7194387E+02  0.7818608E-02  0.1353605E+00
         -1   -1    0    0  501    0 -0.00000000000E+00  0.00000000000E+00  0.14915857383E+04  0.14915857383E+04  0.50400000000E-02 0.  1.
          1   -1    0    0    0  501  0.00000000000E+00 -0.00000000000E+00 -0.86751246069E+00  0.86752710104E+00  0.50400000000E-02 0.  1.
          2    1    1    2    0  502  0.30563840279E+02  0.15525177605E+02  0.97146734668E+03  0.97207200615E+03  0.25500000000E-02 0. -1.
         -2    1    1    2  502    0 -0.30563840279E+02 -0.15525177605E+02  0.51925087912E+03  0.52038125922E+03  0.25500000000E-02 0. -1.
<mgrwt>
<rscale>  0 0.71943871E+02</rscale>
<asrwt>0</asrwt>
<pdfrwt beam="2">  1        1 0.13346487E-03 0.71943871E+02</pdfrwt>
<pdfrwt beam="1">  1       -1 0.22947424E+00 0.71943871E+02</pdfrwt>
<totfact> 0.25889991E+04</totfact>
</mgrwt>
</event>
<event>
 4    1  0.4029665E-002  0.4582349E+02  0.7818608E-02  0.1469265E+00
          1   -1    0    0    0  501  0.00000000000E+00  0.00000000000E+00  0.11299228768E+04  0.11299228768E+04  0.50400000000E-02 0.  1.
         -1   -1    0    0  501    0 -0.00000000000E+00 -0.00000000000E+00 -0.46457386042E+00  0.46460119821E+00  0.50400000000E-02 0.  1.
          2    1    1    2    0  502 -0.20406884954E+02  0.98092954550E+01  0.47826737706E+03  0.47880303591E+03  0.25500000000E-02 0. -1.
         -2    1    1    2  502    0  0.20406884954E+02 -0.98092954550E+01  0.65119092589E+03  0.65158444211E+03  0.25500000000E-02 0. -1.
<mgrwt>
<rscale>  0 0.45823491E+02</rscale>
<asrwt>0</asrwt>
<pdfrwt beam="1">  1        1 0.17383461E+00 0.45823491E+02</pdfrwt>
<pdfrwt beam="2">  1       -1 0.71474876E-04 0.45823491E+02</pdfrwt>
<totfact> 0.75693598E+05</totfact>
</mgrwt>
</event>
<event>
 4    1  0.4029665E-002  0.1416016E+03  0.7818608E-02  0.1211190E+00
         -1   -1    0    0  501    0 -0.00000000000E+00  0.00000000000E+00  0.14181886730E+02  0.14181887625E+02  0.50400000000E-02 0.  1.
          1   -1    0    0    0  501  0.00000000000E+00 -0.00000000000E+00 -0.35346189024E+03  0.35346189027E+03  0.50400000000E-02 0.  1.
          2    1    1    2    0  502 -0.44694369802E+02  0.77764123747E+01 -0.28511277318E+02  0.53581267456E+02  0.25500000000E-02 0. -1.
         -2    1    1    2  502    0  0.44694369802E+02 -0.77764123747E+01 -0.31076872619E+03  0.31406251044E+03  0.25500000000E-02 0. -1.
<mgrwt>
<rscale>  0 0.14160165E+03</rscale>
<asrwt>0</asrwt>
<pdfrwt beam="2">  1        1 0.54378746E-01 0.14160165E+03</pdfrwt>
<pdfrwt beam="1">  1       -1 0.21818291E-02 0.14160165E+03</pdfrwt>
<totfact> 0.39862667E+04</totfact>
</mgrwt>
</event>
<event>
 4    1  0.4029665E-002  0.5866353E+02  0.7818608E-02  0.1403527E+00
         -1   -1    0    0  501    0 -0.00000000000E+00  0.00000000000E+00  0.11007978857E+03  0.11007978869E+03  0.50400000000E-02 0.  1.
          1   -1    0    0    0  501  0.00000000000E+00 -0.00000000000E+00 -0.78157159394E+01  0.78157175644E+01  0.50400000000E-02 0.  1.
          2    1    1    2    0  502  0.17040910563E+02  0.21921284344E+02  0.32128283274E+02  0.42463654256E+02  0.25500000000E-02 0.  1.
         -2    1    1    2  502    0 -0.17040910563E+02 -0.21921284344E+02  0.70135789359E+02  0.75431851996E+02  0.25500000000E-02 0.  1.
<mgrwt>
<rscale>  0 0.58663531E+02</rscale>
<asrwt>0</asrwt>
<pdfrwt beam="2">  1        1 0.12024180E-02 0.58663531E+02</pdfrwt>
<pdfrwt beam="1">  1       -1 0.16935352E-01 0.58663531E+02</pdfrwt>
<totfact> 0.24583705E+05</totfact>
</mgrwt>
</event>
<event>
 4    1  0.4029665E-002  0.4456517E+02  0.7818608E-02  0.1477075E+00
          1   -1    0    0    0  501  0.00000000000E+00  0.00000000000E+00  0.80012895886E+01  0.80012911760E+01  0.50400000000E-02 0. -1.
         -1   -1    0    0  501    0 -0.00000000000E+00 -0.00000000000E+00 -0.62054192063E+02  0.62054192268E+02  0.50400000000E-02 0. -1.
          2    1    1    2    0  502 -0.19000928243E+02 -0.78525747565E+01 -0.13520658511E+02  0.24607039999E+02  0.25500000000E-02 0.  1.
         -2    1    1    2  502    0  0.19000928243E+02  0.78525747565E+01 -0.40532243963E+02  0.45448443445E+02  0.25500000000E-02 0.  1.
<mgrwt>
<rscale>  0 0.44565171E+02</rscale>
<asrwt>0</asrwt>
<pdfrwt beam="1">  1        1 0.12309678E-02 0.44565171E+02</pdfrwt>
<pdfrwt beam="2">  1       -1 0.95467986E-02 0.44565171E+02</pdfrwt>
<totfact> 0.52837492E+05</totfact>
</mgrwt>
</event>
<event>
 4    1  0.4029665E-002  0.6186623E+02  0.7818608E-02  0.1390163E+00
          1   -1    0    0    0  501  0.00000000000E+00  0.00000000000E+00  0.21299219376E+03  0.21299219382E+03  0.50400000000E-02 0.  1.
         -1   -1    0    0  501    0 -0.00000000000E+00 -0.00000000000E+00 -0.44924519871E+01  0.44924548143E+01  0.50400000000E-02 0.  1.
          2    1    1    2    0  502 -0.26857005235E+02 -0.89231541216E+01  0.14814823249E+03  0.15082712026E+03  0.25500000000E-02 0. -1.
         -2    1    1    2  502    0  0.26857005235E+02  0.89231541216E+01  0.60351509286E+02  0.66657528376E+02  0.25500000000E-02 0. -1.
<mgrwt>
<rscale>  0 0.61866227E+02</rscale>
<asrwt>0</asrwt>
<pdfrwt beam="1">  1        1 0.32768027E-01 0.61866227E+02</pdfrwt>
<pdfrwt beam="2">  1       -1 0.69114676E-03 0.61866227E+02</pdfrwt>
<totfact> 0.33130410E+05</totfact>
</mgrwt>
</event>
<event>
 4    1  0.4029665E-002  0.4121635E+02  0.7818608E-02  0.1499447E+00
          1   -1    0    0    0  501  0.00000000000E+00  0.00000000000E+00  0.64041214634E+03  0.64041214636E+03  0.50400000000E-02 0. -1.
         -1   -1    0    0  501    0 -0.00000000000E+00 -0.00000000000E+00 -0.66315217417E+00  0.66317132606E+00  0.50400000000E-02 0. -1.
          2    1    1    2    0  502 -0.20089765789E+02 -0.18583521178E+01  0.38520958512E+03  0.38573757483E+03  0.25500000000E-02 0. -1.
         -2    1    1    2  502    0  0.20089765789E+02  0.18583521178E+01  0.25453940905E+03  0.25533774286E+03  0.25500000000E-02 0. -1.
<mgrwt>
<rscale>  0 0.41216349E+02</rscale>
<asrwt>0</asrwt>
<pdfrwt beam="1">  1        1 0.98524732E-01 0.41216349E+02</pdfrwt>
<pdfrwt beam="2">  1       -1 0.10202511E-03 0.41216349E+02</pdfrwt>
<totfact> 0.10648915E+06</totfact>
</mgrwt>
</event>
<event>
 4    1  0.4029665E-002  0.5447477E+02  0.7818608E-02  0.1422599E+00
          1   -1    0    0    0  501  0.00000000000E+00  0.00000000000E+00  0.19728308088E+02  0.19728308732E+02  0.50400000000E-02 0. -1.
         -1   -1    0    0  501    0 -0.00000000000E+00 -0.00000000000E+00 -0.37604592969E+02  0.37604593307E+02  0.50400000000E-02 0. -1.
          2    1    1    2    0  502  0.17781249878E+02 -0.12345331167E+02  0.84608609376E+01  0.23241476354E+02  0.25500000000E-02 0. -1.
         -2    1    1    2  502    0 -0.17781249878E+02  0.12345331167E+02 -0.26337145818E+02  0.34091425684E+02  0.25500000000E-02 0. -1.
<mgrwt>
<rscale>  0 0.54474766E+02</rscale>
<asrwt>0</asrwt>
<pdfrwt beam="1">  1        1 0.30351244E-02 0.54474766E+02</pdfrwt>
<pdfrwt beam="2">  1       -1 0.57853221E-02 0.54474766E+02</pdfrwt>
<totfact> 0.34117873E+05</totfact>
</mgrwt>
</event>
<event>
 4    1  0.4029665E-002  0.5495045E+02  0.7818608E-02  0.1420333E+00
          1   -1    0    0    0  501  0.00000000000E+00  0.00000000000E+00  0.16191208711E+02  0.16191209495E+02  0.50400000000E-02 0. -1.
         -1   -1    0    0  501    0 -0.00000000000E+00 -0.00000000000E+00 -0.46623326142E+02  0.46623326414E+02  0.50400000000E-02 0. -1.
          2    1    1    2    0  502  0.25575911855E+02  0.84095456205E+01 -0.21481347106E+02  0.34442648051E+02  0.25500000000E-02 0. -1.
         -2    1    1    2  502    0 -0.25575911855E+02 -0.84095456205E+01 -0.89507703250E+01  0.28371887859E+02  0.25500000000E-02 0. -1.
<mgrwt>
<rscale>  0 0.54950452E+02</rscale>
<asrwt>0</asrwt>
<pdfrwt beam="1">  1        1 0.24909553E-02 0.54950452E+02</pdfrwt>
<pdfrwt beam="2">  1       -1 0.71728195E-02 0.54950452E+02</pdfrwt>
<totfact> 0.32636001E+05</totfact>
</mgrwt>
</event>
<event>
 4    1  0.4029665E-002  0.1041615E+03  0.7818608E-02  0.1271781E+00
         -1   -1    0    0  501    0 -0.00000000000E+00  0.00000000000E+00  0.96376088202E+01  0.96376101381E+01  0.50400000000E-02 0.  1.
          1   -1    0    0    0  501  0.00000000000E+00 -0.00000000000E+00 -0.28143939415E+03  0.28143939419E+03  0.50400000000E-02 0.  1.
          2    1    1    2    0  502  0.51830605867E+02 -0.50956655568E+01 -0.13634684822E+03  0.14595492639E+03  0.25500000000E-02 0.  1.
         -2    1    1    2  502    0 -0.51830605867E+02  0.50956655568E+01 -0.13545493711E+03  0.14512207794E+03  0.25500000000E-02 0.  1.
<mgrwt>
<rscale>  0 0.10416147E+03</rscale>
<asrwt>0</asrwt>
<pdfrwt beam="2">  1        1 0.43298362E-01 0.10416147E+03</pdfrwt>
<pdfrwt beam="1">  1       -1 0.14827094E-02 0.10416147E+03</pdfrwt>
<totfact> 0.88501946E+04</totfact>
</mgrwt>
</event>
<event>
 4    1  0.4029665E-002  0.6234236E+02  0.7818608E-02  0.1388257E+00
          1   -1    0    0    0  501  0.00000000000E+00  0.00000000000E+00  0.24825985758E+02  0.24825986270E+02  0.50400000000E-02 0. -1.
         -1   -1    0    0  501    0 -0.00000000000E+00 -0.00000000000E+00 -0.39138115945E+02  0.39138116270E+02  0.50400000000E-02 0. -1.
          2    1    1    2    0  502  0.23387371074E+02  0.74541438445E+01 -0.26868051200E+02  0.36392658160E+02  0.25500000000E-02 0.  1.
         -2    1    1    2  502    0 -0.23387371074E+02 -0.74541438445E+01  0.12555921012E+02  0.27571444379E+02  0.25500000000E-02 0.  1.
<mgrwt>
<rscale>  0 0.62342356E+02</rscale>
<asrwt>0</asrwt>
<pdfrwt beam="1">  1        1 0.38193825E-02 0.62342356E+02</pdfrwt>
<pdfrwt beam="2">  1       -1 0.60212487E-02 0.62342356E+02</pdfrwt>
<totfact> 0.24352908E+05</totfact>
</mgrwt>
</event>
<event>
 4    1  0.4029665E-002  0.6673008E+02  0.7818608E-02  0.1371579E+00
          1   -1    0    0    0  501  0.00000000000E+00  0.00000000000E+00  0.16698832208E+04  0.16698832209E+04  0.50400000000E-02 0. -1.
         -1   -1    0    0  501    0 -0.00000000000E+00 -0.00000000000E+00 -0.66663941114E+00  0.66665846285E+00  0.50400000000E-02 0. -1.
          2    1    1    2    0  502 -0.20944407629E+02 -0.12694888663E+02  0.26737114130E+03  0.26849051308E+03  0.25500000000E-02 0.  1.
         -2    1    1    2  502    0  0.20944407629E+02  0.12694888663E+02  0.14018454401E+04  0.14020593662E+04  0.25500000000E-02 0.  1.
<mgrwt>
<rscale>  0 0.66730080E+02</rscale>
<asrwt>0</asrwt>
<pdfrwt beam="1">  1        1 0.25690314E+00 0.66730080E+02</pdfrwt>
<pdfrwt beam="2">  1       -1 0.10256216E-03 0.66730080E+02</pdfrwt>
<totfact> 0.22612401E+05</totfact>
</mgrwt>
</event>
<event>
 4    1  0.4029665E-002  0.4818692E+02  0.7818608E-02  0.1455374E+00
          1   -1    0    0    0  501  0.00000000000E+00  0.00000000000E+00  0.83263454142E+03  0.83263454144E+03  0.50400000000E-02 0.  1.
         -1   -1    0    0  501    0 -0.00000000000E+00 -0.00000000000E+00 -0.69716916796E+00  0.69718738539E+00  0.50400000000E-02 0.  1.
          2    1    1    2    0  502  0.16726500166E+02 -0.11825769513E+02  0.19662434588E+03  0.19768853794E+03  0.25500000000E-02 0.  1.
         -2    1    1    2  502    0 -0.16726500166E+02  0.11825769513E+02  0.63531302638E+03  0.63564319089E+03  0.25500000000E-02 0.  1.
<mgrwt>
<rscale>  0 0.48186916E+02</rscale>
<asrwt>0</asrwt>
<pdfrwt beam="1">  1        1 0.12809761E+00 0.48186916E+02</pdfrwt>
<pdfrwt beam="2">  1       -1 0.10725821E-03 0.48186916E+02</pdfrwt>
<totfact> 0.71932997E+05</totfact>
</mgrwt>
</event>
<event>
 4    1  0.4029665E-002  0.7627540E+02  0.7818608E-02  0.1339966E+00
         -1   -1    0    0  501    0 -0.00000000000E+00  0.00000000000E+00  0.46091360244E+02  0.46091360520E+02  0.50400000000E-02 0. -1.
          1   -1    0    0    0  501  0.00000000000E+00 -0.00000000000E+00 -0.31556549761E+02  0.31556550163E+02  0.50400000000E-02 0. -1.
          2    1    1    2    0  502 -0.24498124322E+02  0.25468008987E+02 -0.73331550651E+01  0.36090895621E+02  0.25500000000E-02 0. -1.
         -2    1    1    2  502    0  0.24498124322E+02 -0.25468008987E+02  0.21867965549E+02  0.41557015061E+02  0.25500000000E-02 0. -1.
<mgrwt>
<rscale>  0 0.76275404E+02</rscale>
<asrwt>0</asrwt>
<pdfrwt beam="2">  1        1 0.48548538E-02 0.76275404E+02</pdfrwt>
<pdfrwt beam="1">  1       -1 0.70909786E-02 0.76275404E+02</pdfrwt>
<totfact> 0.14440866E+05</totfact>
</mgrwt>
</event>
<event>
 4    1  0.4029665E-002  0.5643001E+02  0.7818608E-02  0.1413455E+00
          1   -1    0    0    0  501  0.00000000000E+00  0.00000000000E+00  0.97771167232E+00  0.97772466256E+00  0.50400000000E-02 0. -1.
         -1   -1    0    0  501    0 -0.00000000000E+00 -0.00000000000E+00 -0.81422900639E+03  0.81422900640E+03  0.50400000000E-02 0. -1.
          2    1    1    2    0  502 -0.12217232706E+02 -0.21482901502E+02 -0.20996935855E+03  0.21141879616E+03  0.25500000000E-02 0. -1.
         -2    1    1    2  502    0  0.12217232706E+02  0.21482901502E+02 -0.60328193616E+03  0.60378793491E+03  0.25500000000E-02 0. -1.
<mgrwt>
<rscale>  0 0.56430010E+02</rscale>
<asrwt>0</asrwt>
<pdfrwt beam="1">  1        1 0.15041883E-03 0.56430010E+02</pdfrwt>
<pdfrwt beam="2">  1       -1 0.12526546E+00 0.56430010E+02</pdfrwt>
<totfact> 0.11020452E+05</totfact>
</mgrwt>
</event>
<event>
 4    1  0.4029665E-002  0.5648536E+02  0.7818608E-02  0.1413202E+00
         -1   -1    0    0  501    0 -0.00000000000E+00  0.00000000000E+00  0.77361225046E+02  0.77361225211E+02  0.50400000000E-02 0. -1.
          1   -1    0    0    0  501  0.00000000000E+00 -0.00000000000E+00 -0.10310707764E+02  0.10310708996E+02  0.50400000000E-02 0. -1.
          2    1    1    2    0  502 -0.17020113891E+02  0.22303694237E+02  0.38557085808E+02  0.47684252390E+02  0.25500000000E-02 0. -1.
         -2    1    1    2  502    0  0.17020113891E+02 -0.22303694237E+02  0.28493431474E+02  0.39987681817E+02  0.25500000000E-02 0. -1.
<mgrwt>
<rscale>  0 0.56485363E+02</rscale>
<asrwt>0</asrwt>
<pdfrwt beam="2">  1        1 0.15862628E-02 0.56485363E+02</pdfrwt>
<pdfrwt beam="1">  1       -1 0.11901727E-01 0.56485363E+02</pdfrwt>
<totfact> 0.28598791E+05</totfact>
</mgrwt>
</event>
<event>
 4    1  0.4029665E-002  0.4458517E+02  0.7818608E-02  0.1476948E+00
         -1   -1    0    0  501    0 -0.00000000000E+00  0.00000000000E+00  0.94832928008E+00  0.94834267280E+00  0.50400000000E-02 0.  1.
          1   -1    0    0    0  501  0.00000000000E+00 -0.00000000000E+00 -0.52403288940E+03  0.52403288942E+03  0.50400000000E-02 0.  1.
          2    1    1    2    0  502 -0.16188322307E+02 -0.14150091535E+02 -0.33087611277E+03  0.33157395688E+03  0.25500000000E-02 0. -1.
         -2    1    1    2  502    0  0.16188322307E+02  0.14150091535E+02 -0.19220844735E+03  0.19340727522E+03  0.25500000000E-02 0. -1.
<mgrwt>
<rscale>  0 0.44585166E+02</rscale>
<asrwt>0</asrwt>
<pdfrwt beam="2">  1        1 0.80620214E-01 0.44585166E+02</pdfrwt>
<pdfrwt beam="1">  1       -1 0.14589826E-03 0.44585166E+02</pdfrwt>
<totfact> 0.86853520E+05</totfact>
</mgrwt>
</event>
<event>
 4    1  0.4029665E-002  0.6310073E+02  0.7818608E-02  0.1385262E+00
          1   -1    0    0    0  501  0.00000000000E+00  0.00000000000E+00  0.36123293879E+02  0.36123294230E+02  0.50400000000E-02 0. -1.
         -1   -1    0    0  501    0 -0.00000000000E+00 -0.00000000000E+00 -0.27556335233E+02  0.27556335694E+02  0.50400000000E-02 0. -1.
          2    1    1    2    0  502  0.23991630220E+02 -0.19864232024E+02 -0.78651175922E+00  0.31157738072E+02  0.25500000000E-02 0.  1.
         -2    1    1    2  502    0 -0.23991630220E+02  0.19864232024E+02  0.93534704053E+01  0.32521891852E+02  0.25500000000E-02 0.  1.
<mgrwt>
<rscale>  0 0.63100733E+02</rscale>
<asrwt>0</asrwt>
<pdfrwt beam="1">  1        1 0.55574299E-02 0.63100733E+02</pdfrwt>
<pdfrwt beam="2">  1       -1 0.42394363E-02 0.63100733E+02</pdfrwt>
<totfact> 0.24571891E+05</totfact>
</mgrwt>
</event>
<event>
 4    1  0.4029665E-002  0.5114732E+02  0.7818608E-02  0.1439250E+00
         -1   -1    0    0  501    0 -0.00000000000E+00  0.00000000000E+00  0.24196904560E+02  0.24196905084E+02  0.50400000000E-02 0.  1.
          1   -1    0    0    0  501  0.00000000000E+00 -0.00000000000E+00 -0.27028746600E+02  0.27028747070E+02  0.50400000000E-02 0.  1.
          2    1    1    2    0  502 -0.19785665932E+02  0.15009598395E+02  0.46968191396E+01  0.25274903301E+02  0.25500000000E-02 0.  1.
         -2    1    1    2  502    0  0.19785665932E+02 -0.15009598395E+02 -0.75286611802E+01  0.25950748853E+02  0.25500000000E-02 0.  1.
<mgrwt>
<rscale>  0 0.51147318E+02</rscale>
<asrwt>0</asrwt>
<pdfrwt beam="2">  1        1 0.41582688E-02 0.51147318E+02</pdfrwt>
<pdfrwt beam="1">  1       -1 0.37226008E-02 0.51147318E+02</pdfrwt>
<totfact> 0.41524397E+05</totfact>
</mgrwt>
</event>
<event>
 4    1  0.4029665E-002  0.5239998E+02  0.7818608E-02  0.1432810E+00
          1   -1    0    0    0  501  0.00000000000E+00  0.00000000000E+00  0.25372108095E+04  0.25372108095E+04  0.50400000000E-02 0.  1.
         -1   -1    0    0  501    0 -0.00000000000E+00 -0.00000000000E+00 -0.27052537644E+00  0.27057232101E+00  0.50400000000E-02 0.  1.
          2    1    1    2    0  502  0.20343624313E+02 -0.16431926290E+02  0.13460747801E+04  0.13463287804E+04  0.25500000000E-02 0.  1.
         -2    1    1    2  502    0 -0.20343624313E+02  0.16431926290E+02  0.11908655039E+04  0.11911526014E+04  0.25500000000E-02 0.  1.
<mgrwt>
<rscale>  0 0.52399980E+02</rscale>
<asrwt>0</asrwt>
<pdfrwt beam="1">  1        1 0.39032504E+00 0.52399980E+02</pdfrwt>
<pdfrwt beam="2">  1       -1 0.41624510E-04 0.52399980E+02</pdfrwt>
<totfact> 0.21366698E+05</totfact>
</mgrwt>
</event>
<event>
 4    1  0.4029665E-002  0.6910910E+02  0.7818608E-02  0.1363149E+00
         -1   -1    0    0  501    0 -0.00000000000E+00  0.00000000000E+00  0.31360662775E+03  0.31360662779E+03  0.50400000000E-02 0. -1.
          1   -1    0    0    0  501  0.00000000000E+00 -0.00000000000E+00 -0.38073695380E+01  0.38073728738E+01  0.50400000000E-02 0. -1.
          2    1    1    2    0  502 -0.31736110598E+02  0.12759082051E+02  0.13237924519E+03  0.13672687905E+03  0.25500000000E-02 0. -1.
         -2    1    1    2  502    0  0.31736110598E+02 -0.12759082051E+02  0.17742001302E+03  0.18068712162E+03  0.25500000000E-02 0. -1.
<mgrwt>
<rscale>  0 0.69109098E+02</rscale>
<asrwt>0</asrwt>
<pdfrwt beam="2">  1        1 0.58574948E-03 0.69109098E+02</pdfrwt>
<pdfrwt beam="1">  1       -1 0.48247168E-01 0.69109098E+02</pdfrwt>
<totfact> 0.12192940E+05</totfact>
</mgrwt>
</event>
<event>
 4    1  0.4029665E-002  0.5445424E+02  0.7818608E-02  0.1422698E+00
          1   -1    0    0    0  501  0.00000000000E+00  0.00000000000E+00  0.17985304645E+04  0.17985304645E+04  0.50400000000E-02 0.  1.
         -1   -1    0    0  501    0 -0.00000000000E+00 -0.00000000000E+00 -0.41216336634E+00  0.41219418016E+00  0.50400000000E-02 0.  1.
          2    1    1    2    0  502 -0.11264328702E+02  0.23475480974E+02  0.11619647778E+04  0.11622564813E+04  0.25500000000E-02 0.  1.
         -2    1    1    2  502    0  0.11264328702E+02 -0.23475480974E+02  0.63615352333E+03  0.63668617745E+03  0.25500000000E-02 0.  1.
<mgrwt>
<rscale>  0 0.54454241E+02</rscale>
<asrwt>0</asrwt>
<pdfrwt beam="1">  1        1 0.27670568E+00 0.54454241E+02</pdfrwt>
<pdfrwt beam="2">  1       -1 0.63410130E-04 0.54454241E+02</pdfrwt>
<totfact> 0.34956074E+05</totfact>
</mgrwt>
</event>
<event>
 4    1  0.4029665E-002  0.5866381E+02  0.7818608E-02  0.1403526E+00
          1   -1    0    0    0  501  0.00000000000E+00  0.00000000000E+00  0.53121547250E+03  0.53121547253E+03  0.50400000000E-02 0.  1.
         -1   -1    0    0  501    0 -0.00000000000E+00 -0.00000000000E+00 -0.16196034877E+01  0.16196113296E+01  0.50400000000E-02 0.  1.
          2    1    1    2    0  502  0.56304756537E+01 -0.28451235334E+02  0.22501389907E+03  0.22687536188E+03  0.25500000000E-02 0. -1.
         -2    1    1    2  502    0 -0.56304756537E+01  0.28451235334E+02  0.30458196994E+03  0.30595972197E+03  0.25500000000E-02 0. -1.
<mgrwt>
<rscale>  0 0.58663806E+02</rscale>
<asrwt>0</asrwt>
<pdfrwt beam="1">  1        1 0.81725423E-01 0.58663806E+02</pdfrwt>
<pdfrwt beam="2">  1       -1 0.24917048E-03 0.58663806E+02</pdfrwt>
<totfact> 0.43923748E+05</totfact>
</mgrwt>
</event>
<event>
 4    1  0.4029665E-002  0.8006903E+02  0.7818608E-02  0.1328856E+00
         -1   -1    0    0  501    0 -0.00000000000E+00  0.00000000000E+00  0.20920521799E+02  0.20920522406E+02  0.50400000000E-02 0.  1.
          1   -1    0    0    0  501  0.00000000000E+00 -0.00000000000E+00 -0.76611962911E+02  0.76611963077E+02  0.50400000000E-02 0.  1.
          2    1    1    2    0  502 -0.27686344675E+02  0.28911405487E+02 -0.28575794115E+02  0.49183117677E+02  0.25500000000E-02 0. -1.
         -2    1    1    2  502    0  0.27686344675E+02 -0.28911405487E+02 -0.27115646997E+02  0.48349367806E+02  0.25500000000E-02 0. -1.
<mgrwt>
<rscale>  0 0.80069027E+02</rscale>
<asrwt>0</asrwt>
<pdfrwt beam="2">  1        1 0.11786456E-01 0.80069027E+02</pdfrwt>
<pdfrwt beam="1">  1       -1 0.32185419E-02 0.80069027E+02</pdfrwt>
<totfact> 0.14252329E+05</totfact>
</mgrwt>
</event>
<event>
 4    1  0.4029665E-002  0.7173631E+02  0.7818608E-02  0.1354286E+00
          1   -1    0    0    0  501  0.00000000000E+00  0.00000000000E+00  0.18927032430E+03  0.18927032436E+03  0.50400000000E-02 0. -1.
         -1   -1    0    0  501    0 -0.00000000000E+00 -0.00000000000E+00 -0.67972848142E+01  0.67972866827E+01  0.50400000000E-02 0. -1.
          2    1    1    2    0  502 -0.23539895706E+02 -0.26633241017E+02  0.10436378683E+03  0.11025087856E+03  0.25500000000E-02 0. -1.
         -2    1    1    2  502    0  0.23539895706E+02  0.26633241017E+02  0.78109252656E+02  0.85816732482E+02  0.25500000000E-02 0. -1.
<mgrwt>
<rscale>  0 0.71736309E+02</rscale>
<asrwt>0</asrwt>
<pdfrwt beam="1">  1        1 0.29118507E-01 0.71736309E+02</pdfrwt>
<pdfrwt beam="2">  1       -1 0.10457364E-02 0.71736309E+02</pdfrwt>
<totfact> 0.22105812E+05</totfact>
</mgrwt>
</event>
<event>
 4    1  0.4029665E-002  0.5829536E+02  0.7818608E-02  0.1405128E+00
          1   -1    0    0    0  501  0.00000000000E+00  0.00000000000E+00  0.69210345786E+03  0.69210345788E+03  0.50400000000E-02 0.  1.
         -1   -1    0    0  501    0 -0.00000000000E+00 -0.00000000000E+00 -0.12275386530E+01  0.12275489995E+01  0.50400000000E-02 0.  1.
          2    1    1    2    0  502  0.10897582971E+02 -0.17764053025E+02  0.10307230648E+03  0.10515806799E+03  0.25500000000E-02 0. -1.
         -2    1    1    2  502    0 -0.10897582971E+02  0.17764053025E+02  0.58780361273E+03  0.58817293889E+03  0.25500000000E-02 0. -1.
<mgrwt>
<rscale>  0 0.58295363E+02</rscale>
<asrwt>0</asrwt>
<pdfrwt beam="1">  1        1 0.10647778E+00 0.58295363E+02</pdfrwt>
<pdfrwt beam="2">  1       -1 0.18885232E-03 0.58295363E+02</pdfrwt>
<totfact> 0.45198376E+05</totfact>
</mgrwt>
</event>
<event>
 4    1  0.4029665E-002  0.5342403E+02  0.7818608E-02  0.1427702E+00
         -1   -1    0    0  501    0 -0.00000000000E+00  0.00000000000E+00  0.68282097926E+01  0.68282116527E+01  0.50400000000E-02 0.  1.
          1   -1    0    0    0  501  0.00000000000E+00 -0.00000000000E+00 -0.10449761429E+03  0.10449761441E+03  0.50400000000E-02 0.  1.
          2    1    1    2    0  502 -0.86175591045E+01 -0.18579847117E+02 -0.13101141647E+02  0.24312814786E+02  0.25500000000E-02 0.  1.
         -2    1    1    2  502    0  0.86175591045E+01  0.18579847117E+02 -0.84568262851E+02  0.87013011279E+02  0.25500000000E-02 0.  1.
<mgrwt>
<rscale>  0 0.53424030E+02</rscale>
<asrwt>0</asrwt>
<pdfrwt beam="2">  1        1 0.16076555E-01 0.53424030E+02</pdfrwt>
<pdfrwt beam="1">  1       -1 0.10504940E-02 0.53424030E+02</pdfrwt>
<totfact> 0.42946648E+05</totfact>
</mgrwt>
</event>
<event>
 4    1  0.4029665E-002  0.5606501E+02  0.7818608E-02  0.1415128E+00
          1   -1    0    0    0  501  0.00000000000E+00  0.00000000000E+00  0.26566623358E+02  0.26566623836E+02  0.50400000000E-02 0. -1.
         -1   -1    0    0  501    0 -0.00000000000E+00 -0.00000000000E+00 -0.29579271164E+02  0.29579271593E+02  0.50400000000E-02 0. -1.
          2    1    1    2    0  502 -0.11365486822E+02  0.25118434294E+02 -0.65842745742E+01  0.28345417801E+02  0.25500000000E-02 0. -1.
         -2    1    1    2  502    0  0.11365486822E+02 -0.25118434294E+02  0.35716267681E+01  0.27800477629E+02  0.25500000000E-02 0. -1.
<mgrwt>
<rscale>  0 0.56065012E+02</rscale>
<asrwt>0</asrwt>
<pdfrwt beam="1">  1        1 0.40871729E-02 0.56065012E+02</pdfrwt>
<pdfrwt beam="2">  1       -1 0.45506571E-02 0.56065012E+02</pdfrwt>
<totfact> 0.32572839E+05</totfact>
</mgrwt>
</event>
<event>
 4    1  0.4029665E-002  0.4138204E+02  0.7818608E-02  0.1498281E+00
          1   -1    0    0    0  501  0.00000000000E+00  0.00000000000E+00  0.38707287341E+01  0.38707320154E+01  0.50400000000E-02 0.  1.
         -1   -1    0    0  501    0 -0.00000000000E+00 -0.00000000000E+00 -0.11060402871E+03  0.11060402882E+03  0.50400000000E-02 0.  1.
          2    1    1    2    0  502  0.58440386946E+01 -0.19795689116E+02 -0.57371837704E+02  0.60971713637E+02  0.25500000000E-02 0. -1.
         -2    1    1    2  502    0 -0.58440386946E+01  0.19795689116E+02 -0.49361462272E+02  0.53503047202E+02  0.25500000000E-02 0. -1.
<mgrwt>
<rscale>  0 0.41382044E+02</rscale>
<asrwt>0</asrwt>
<pdfrwt beam="1">  1        1 0.59549707E-03 0.41382044E+02</pdfrwt>
<pdfrwt beam="2">  1       -1 0.17016002E-01 0.41382044E+02</pdfrwt>
<totfact> 0.58159627E+05</totfact>
</mgrwt>
</event>
<event>
 4    1  0.4029665E-002  0.8378062E+02  0.7818608E-02  0.1318652E+00
         -1   -1    0    0  501    0 -0.00000000000E+00  0.00000000000E+00  0.46754410116E+01  0.46754437281E+01  0.50400000000E-02 0.  1.
          1   -1    0    0    0  501  0.00000000000E+00 -0.00000000000E+00 -0.37532240095E+03  0.37532240098E+03  0.50400000000E-02 0.  1.
          2    1    1    2    0  502  0.29784065012E+02  0.85975066455E+01 -0.57535348910E+02  0.65355367261E+02  0.25500000000E-02 0. -1.
         -2    1    1    2  502    0 -0.29784065012E+02 -0.85975066455E+01 -0.31311161103E+03  0.31464247745E+03  0.25500000000E-02 0. -1.
<mgrwt>
<rscale>  0 0.83780625E+02</rscale>
<asrwt>0</asrwt>
<pdfrwt beam="2">  1        1 0.57741885E-01 0.83780625E+02</pdfrwt>
<pdfrwt beam="1">  1       -1 0.71929912E-03 0.83780625E+02</pdfrwt>
<totfact> 0.16691876E+05</totfact>
</mgrwt>
</event>
<event>
 4    1  0.4029665E-002  0.7478666E+02  0.7818608E-02  0.1344533E+00
         -1   -1    0    0  501    0 -0.00000000000E+00  0.00000000000E+00  0.61905955165E+02  0.61905955370E+02  0.50400000000E-02 0. -1.
          1   -1    0    0    0  501  0.00000000000E+00 -0.00000000000E+00 -0.22586856608E+02  0.22586857170E+02  0.50400000000E-02 0. -1.
          2    1    1    2    0  502  0.49101848356E+01  0.33545653217E+02  0.37481527949E+02  0.50539941717E+02  0.25500000000E-02 0. -1.
         -2    1    1    2  502    0 -0.49101848356E+01 -0.33545653217E+02  0.18375706079E+01  0.33952870823E+02  0.25500000000E-02 0. -1.
<mgrwt>
<rscale>  0 0.74786656E+02</rscale>
<asrwt>0</asrwt>
<pdfrwt beam="2">  1        1 0.34749011E-02 0.74786656E+02</pdfrwt>
<pdfrwt beam="1">  1       -1 0.95239930E-02 0.74786656E+02</pdfrwt>
<totfact> 0.14578695E+05</totfact>
</mgrwt>
</event>
<event>
 4    1  0.4029665E-002  0.4283385E+02  0.7818608E-02  0.1488336E+00
         -1   -1    0    0  501    0 -0.00000000000E+00  0.00000000000E+00  0.16710456792E+00  0.16718055575E+00  0.50400000000E-02 0.  1.
          1   -1    0    0    0  501  0.00000000000E+00 -0.00000000000E+00 -0.27442716863E+04  0.27442716863E+04  0.50400000000E-02 0.  1.
          2    1    1    2    0  502  0.21264353771E+02 -0.29355110312E+00 -0.15344674102E+04  0.15346147699E+04  0.25500000000E-02 0.  1.
         -2    1    1    2  502    0 -0.21264353771E+02  0.29355110312E+00 -0.12096371715E+04  0.12098240970E+04  0.25500000000E-02 0.  1.
<mgrwt>
<rscale>  0 0.42833847E+02</rscale>
<asrwt>0</asrwt>
<pdfrwt beam="2">  1        1 0.42215957E+00 0.42833847E+02</pdfrwt>
<pdfrwt beam="1">  1       -1 0.25716438E-04 0.42833847E+02</pdfrwt>
<totfact> 0.29140909E+05</totfact>
</mgrwt>
</event>
<event>
 4    1  0.4029665E-002  0.7829399E+02  0.7818608E-02  0.1333964E+00
          1   -1    0    0    0  501  0.00000000000E+00  0.00000000000E+00  0.17467645196E+04  0.17467645196E+04  0.50400000000E-02 0.  1.
         -1   -1    0    0  501    0 -0.00000000000E+00 -0.00000000000E+00 -0.87732170753E+00  0.87733618420E+00  0.50400000000E-02 0.  1.
          2    1    1    2    0  502  0.14425486761E+02  0.17852547670E+02  0.15808139310E+04  0.15809805478E+04  0.25500000000E-02 0. -1.
         -2    1    1    2  502    0 -0.14425486761E+02 -0.17852547670E+02  0.16507326690E+03  0.16666130798E+03  0.25500000000E-02 0. -1.
<mgrwt>
<rscale>  0 0.78293987E+02</rscale>
<asrwt>0</asrwt>
<pdfrwt beam="1">  1        1 0.26873107E+00 0.78293987E+02</pdfrwt>
<pdfrwt beam="2">  1       -1 0.13497465E-03 0.78293987E+02</pdfrwt>
<totfact> 0.14231431E+05</totfact>
</mgrwt>
</event>
<event>
 4    1  0.4029665E-002  0.5131418E+02  0.7818608E-02  0.1438379E+00
          1   -1    0    0    0  501  0.00000000000E+00  0.00000000000E+00  0.11770967432E+03  0.11770967443E+03  0.50400000000E-02 0. -1.
         -1   -1    0    0  501    0 -0.00000000000E+00 -0.00000000000E+00 -0.55924560587E+01  0.55924583297E+01  0.50400000000E-02 0. -1.
          2    1    1    2    0  502 -0.15891291693E+02 -0.17656122973E+02  0.32759968868E+02  0.40465879415E+02  0.25500000000E-02 0. -1.
         -2    1    1    2  502    0  0.15891291693E+02  0.17656122973E+02  0.79357249398E+02  0.82836253347E+02  0.25500000000E-02 0. -1.
<mgrwt>
<rscale>  0 0.51314182E+02</rscale>
<asrwt>0</asrwt>
<pdfrwt beam="1">  1        1 0.18109179E-01 0.51314182E+02</pdfrwt>
<pdfrwt beam="2">  1       -1 0.86037814E-03 0.51314182E+02</pdfrwt>
<totfact> 0.48377954E+05</totfact>
</mgrwt>
</event>
<event>
 4    1  0.4029665E-002  0.5549735E+02  0.7818608E-02  0.1417761E+00
          1   -1    0    0    0  501  0.00000000000E+00  0.00000000000E+00  0.11283246300E+04  0.11283246300E+04  0.50400000000E-02 0. -1.
         -1   -1    0    0  501    0 -0.00000000000E+00 -0.00000000000E+00 -0.68240868765E+00  0.68242729912E+00  0.50400000000E-02 0. -1.
          2    1    1    2    0  502 -0.19961748557E+02 -0.10453550087E+02  0.23438240767E+03  0.23546307809E+03  0.25500000000E-02 0.  1.
         -2    1    1    2  502    0  0.19961748557E+02  0.10453550087E+02  0.89325981361E+03  0.89354397918E+03  0.25500000000E-02 0.  1.
<mgrwt>
<rscale>  0 0.55497353E+02</rscale>
<asrwt>0</asrwt>
<pdfrwt beam="1">  1        1 0.17358903E+00 0.55497353E+02</pdfrwt>
<pdfrwt beam="2">  1       -1 0.10498701E-03 0.55497353E+02</pdfrwt>
<totfact> 0.47040886E+05</totfact>
</mgrwt>
</event>
<event>
 4    1  0.4029665E-002  0.5385770E+02  0.7818608E-02  0.1425579E+00
         -1   -1    0    0  501    0 -0.00000000000E+00  0.00000000000E+00  0.87545527394E+01  0.87545541902E+01  0.50400000000E-02 0. -1.
          1   -1    0    0    0  501  0.00000000000E+00 -0.00000000000E+00 -0.82832662205E+02  0.82832662358E+02  0.50400000000E-02 0. -1.
          2    1    1    2    0  502  0.17952369904E+02 -0.14805101643E+02 -0.13991591151E+02  0.27152223653E+02  0.25500000000E-02 0. -1.
         -2    1    1    2  502    0 -0.17952369904E+02  0.14805101643E+02 -0.60086518314E+02  0.64434992896E+02  0.25500000000E-02 0. -1.
<mgrwt>
<rscale>  0 0.53857701E+02</rscale>
<asrwt>0</asrwt>
<pdfrwt beam="2">  1        1 0.12743486E-01 0.53857701E+02</pdfrwt>
<pdfrwt beam="1">  1       -1 0.13468545E-02 0.53857701E+02</pdfrwt>
<totfact> 0.40796696E+05</totfact>
</mgrwt>
</event>
<event>
 4    1  0.4029665E-002  0.4848067E+02  0.7818608E-02  0.1453713E+00
          1   -1    0    0    0  501  0.00000000000E+00  0.00000000000E+00  0.49598188788E+03  0.49598188791E+03  0.50400000000E-02 0.  1.
         -1   -1    0    0  501    0 -0.00000000000E+00 -0.00000000000E+00 -0.11847028060E+01  0.11847135266E+01  0.50400000000E-02 0.  1.
          2    1    1    2    0  502 -0.21261775758E+02  0.10206284558E+02  0.18996865936E+03  0.19142706940E+03  0.25500000000E-02 0.  1.
         -2    1    1    2  502    0  0.21261775758E+02 -0.10206284558E+02  0.30482852572E+03  0.30573953204E+03  0.25500000000E-02 0.  1.
<mgrwt>
<rscale>  0 0.48480669E+02</rscale>
<asrwt>0</asrwt>
<pdfrwt beam="1">  1        1 0.76304811E-01 0.48480669E+02</pdfrwt>
<pdfrwt beam="2">  1       -1 0.18226303E-03 0.48480669E+02</pdfrwt>
<totfact> 0.70278691E+05</totfact>
</mgrwt>
</event>
<event>
 4    1  0.4029665E-002  0.4787068E+02  0.7818608E-02  0.1457177E+00
          1   -1    0    0    0  501  0.00000000000E+00  0.00000000000E+00  0.45681760290E+02  0.45681760568E+02  0.50400000000E-02 0. -1.
         -1   -1    0    0  501    0 -0.00000000000E+00 -0.00000000000E+00 -0.12541120635E+02  0.12541121648E+02  0.50400000000E-02 0. -1.
          2    1    1    2    0  502  0.29182719267E+01 -0.23677547258E+02  0.18928077502E+02  0.30453483867E+02  0.25500000000E-02 0.  1.
         -2    1    1    2  502    0 -0.29182719267E+01  0.23677547258E+02  0.14212562153E+02  0.27769398349E+02  0.25500000000E-02 0.  1.
<mgrwt>
<rscale>  0 0.47870680E+02</rscale>
<asrwt>0</asrwt>
<pdfrwt beam="1">  1        1 0.70279631E-02 0.47870680E+02</pdfrwt>
<pdfrwt beam="2">  1       -1 0.19294033E-02 0.47870680E+02</pdfrwt>
<totfact> 0.51639263E+05</totfact>
</mgrwt>
</event>
<event>
 4    1  0.4029665E-002  0.4416754E+02  0.7818608E-02  0.1479606E+00
          1   -1    0    0    0  501  0.00000000000E+00  0.00000000000E+00  0.44458904837E+03  0.44458904840E+03  0.50400000000E-02 0. -1.
         -1   -1    0    0  501    0 -0.00000000000E+00 -0.00000000000E+00 -0.10969461506E+01  0.10969577289E+01  0.50400000000E-02 0. -1.
          2    1    1    2    0  502  0.17983269258E+02  0.10229902352E+02  0.29967682959E+03  0.30039016474E+03  0.25500000000E-02 0.  1.
         -2    1    1    2  502    0 -0.17983269258E+02 -0.10229902352E+02  0.14381527263E+03  0.14529584139E+03  0.25500000000E-02 0.  1.
<mgrwt>
<rscale>  0 0.44167537E+02</rscale>
<asrwt>0</asrwt>
<pdfrwt beam="1">  1        1 0.68398352E-01 0.44167537E+02</pdfrwt>
<pdfrwt beam="2">  1       -1 0.16876175E-03 0.44167537E+02</pdfrwt>
<totfact> 0.87231144E+05</totfact>
</mgrwt>
</event>
<event>
 4    1  0.4029665E-002  0.5139994E+02  0.7818608E-02  0.1437934E+00
          1   -1    0    0    0  501  0.00000000000E+00  0.00000000000E+00  0.72666011545E+03  0.72666011547E+03  0.50400000000E-02 0. -1.
         -1   -1    0    0  501    0 -0.00000000000E+00 -0.00000000000E+00 -0.90893026114E+00  0.90894423438E+00  0.50400000000E-02 0. -1.
          2    1    1    2    0  502 -0.30014379471E+01  0.25517647182E+02  0.35475024284E+03  0.35567948177E+03  0.25500000000E-02 0. -1.
         -2    1    1    2  502    0  0.30014379471E+01 -0.25517647182E+02  0.37100094235E+03  0.37188957794E+03  0.25500000000E-02 0. -1.
<mgrwt>
<rscale>  0 0.51399940E+02</rscale>
<asrwt>0</asrwt>
<pdfrwt beam="1">  1        1 0.11179392E+00 0.51399940E+02</pdfrwt>
<pdfrwt beam="2">  1       -1 0.13983643E-03 0.51399940E+02</pdfrwt>
<totfact> 0.61901700E+05</totfact>
</mgrwt>
</event>
<event>
 4    1  0.4029665E-002  0.8538816E+02  0.7818608E-02  0.1314421E+00
          1   -1    0    0    0  501  0.00000000000E+00  0.00000000000E+00  0.24543387473E+03  0.24543387478E+03  0.50400000000E-02 0.  1.
         -1   -1    0    0  501    0 -0.00000000000E+00 -0.00000000000E+00 -0.74267831666E+01  0.74267848767E+01  0.50400000000E-02 0.  1.
          2    1    1    2    0  502  0.21244782179E+02  0.19006850794E+02  0.21312393174E+03  0.21502188595E+03  0.25500000000E-02 0.  1.
         -2    1    1    2  502    0 -0.21244782179E+02 -0.19006850794E+02  0.24883159817E+02  0.37838773711E+02  0.25500000000E-02 0.  1.
<mgrwt>
<rscale>  0 0.85388158E+02</rscale>
<asrwt>0</asrwt>
<pdfrwt beam="1">  1        1 0.37759052E-01 0.85388158E+02</pdfrwt>
<pdfrwt beam="2">  1       -1 0.11425823E-02 0.85388158E+02</pdfrwt>
<totfact> 0.14673156E+05</totfact>
</mgrwt>
</event>
<event>
 4    1  0.4029665E-002  0.5650484E+02  0.7818608E-02  0.1413114E+00
         -1   -1    0    0  501    0 -0.00000000000E+00  0.00000000000E+00  0.24344033789E+03  0.24344033795E+03  0.50400000000E-02 0.  1.
          1   -1    0    0    0  501  0.00000000000E+00 -0.00000000000E+00 -0.32788271016E+01  0.32788309752E+01  0.50400000000E-02 0.  1.
          2    1    1    2    0  502 -0.15893724422E+02 -0.21812385234E+02  0.15656218035E+03  0.15887135345E+03  0.25500000000E-02 0.  1.
         -2    1    1    2  502    0  0.15893724422E+02  0.21812385234E+02  0.83599330443E+02  0.87847815469E+02  0.25500000000E-02 0.  1.
<mgrwt>
<rscale>  0 0.56504841E+02</rscale>
<asrwt>0</asrwt>
<pdfrwt beam="2">  1        1 0.50443512E-03 0.56504841E+02</pdfrwt>
<pdfrwt beam="1">  1       -1 0.37452369E-01 0.56504841E+02</pdfrwt>
<totfact> 0.22272132E+05</totfact>
</mgrwt>
</event>
<event>
 4    1  0.4029665E-002  0.1305641E+03  0.7818608E-02  0.1226621E+00
          1   -1    0    0    0  501  0.00000000000E+00  0.00000000000E+00  0.18081588676E+02  0.18081589379E+02  0.50400000000E-02 0. -1.
         -1   -1    0    0  501    0 -0.00000000000E+00 -0.00000000000E+00 -0.23569520104E+03  0.23569520109E+03  0.50400000000E-02 0. -1.
          2    1    1    2    0  502  0.51101814952E+02  0.38839944303E+02 -0.13195286626E+03  0.14673614308E+03  0.25500000000E-02 0. -1.
         -2    1    1    2  502    0 -0.51101814952E+02 -0.38839944303E+02 -0.85660746099E+02  0.10704064739E+03  0.25500000000E-02 0. -1.
<mgrwt>
<rscale>  0 0.13056407E+03</rscale>
<asrwt>0</asrwt>
<pdfrwt beam="1">  1        1 0.27817831E-02 0.13056407E+03</pdfrwt>
<pdfrwt beam="2">  1       -1 0.36260798E-01 0.13056407E+03</pdfrwt>
<totfact> 0.25628145E+04</totfact>
</mgrwt>
</event>
<event>
 4    1  0.4029665E-002  0.4532175E+02  0.7818608E-02  0.1472343E+00
          1   -1    0    0    0  501  0.00000000000E+00  0.00000000000E+00  0.45089686318E+03  0.45089686321E+03  0.50400000000E-02 0.  1.
         -1   -1    0    0  501    0 -0.00000000000E+00 -0.00000000000E+00 -0.11388698246E+01  0.11388809766E+01  0.50400000000E-02 0.  1.
          2    1    1    2    0  502  0.21068026657E+02 -0.30988095344E+01  0.30216949863E+03  0.30291891700E+03  0.25500000000E-02 0.  1.
         -2    1    1    2  502    0 -0.21068026657E+02  0.30988095344E+01  0.14758849472E+03  0.14911682718E+03  0.25500000000E-02 0.  1.
<mgrwt>
<rscale>  0 0.45321755E+02</rscale>
<asrwt>0</asrwt>
<pdfrwt beam="1">  1        1 0.69368625E-01 0.45321755E+02</pdfrwt>
<pdfrwt beam="2">  1       -1 0.17521192E-03 0.45321755E+02</pdfrwt>
<totfact> 0.82035431E+05</totfact>
</mgrwt>
</event>
<event>
 4    1  0.4029665E-002  0.4090601E+02  0.7818608E-02  0.1501648E+00
          1   -1    0    0    0  501  0.00000000000E+00  0.00000000000E+00  0.18550584366E+04  0.18550584366E+04  0.50400000000E-02 0. -1.
         -1   -1    0    0  501    0 -0.00000000000E+00 -0.00000000000E+00 -0.22547708891E+00  0.22553341043E+00  0.50400000000E-02 0. -1.
          2    1    1    2    0  502  0.18101791799E+02  0.91143300505E+01  0.10522826491E+04  0.10524778000E+04  0.25500000000E-02 0.  1.
         -2    1    1    2  502    0 -0.18101791799E+02 -0.91143300505E+01  0.80255031045E+03  0.80280617006E+03  0.25500000000E-02 0.  1.
<mgrwt>
<rscale>  0 0.40906011E+02</rscale>
<asrwt>0</asrwt>
<pdfrwt beam="1">  1        1 0.28539442E+00 0.40906011E+02</pdfrwt>
<pdfrwt beam="2">  1       -1 0.34693018E-04 0.40906011E+02</pdfrwt>
<totfact> 0.68646986E+05</totfact>
</mgrwt>
</event>
<event>
 4    1  0.4029665E-002  0.5920464E+02  0.7818608E-02  0.1401200E+00
          1   -1    0    0    0  501  0.00000000000E+00  0.00000000000E+00  0.75594918422E+03  0.75594918423E+03  0.50400000000E-02 0.  1.
         -1   -1    0    0  501    0 -0.00000000000E+00 -0.00000000000E+00 -0.11591959293E+01  0.11592068858E+01  0.50400000000E-02 0.  1.
          2    1    1    2    0  502 -0.11101193779E+02  0.19195787460E+02  0.62817743667E+03  0.62856869688E+03  0.25500000000E-02 0. -1.
         -2    1    1    2  502    0  0.11101193779E+02 -0.19195787460E+02  0.12661255162E+03  0.12853969424E+03  0.25500000000E-02 0. -1.
<mgrwt>
<rscale>  0 0.59204641E+02</rscale>
<asrwt>0</asrwt>
<pdfrwt beam="1">  1        1 0.11630046E+00 0.59204641E+02</pdfrwt>
<pdfrwt beam="2">  1       -1 0.17833779E-03 0.59204641E+02</pdfrwt>
<totfact> 0.43351222E+05</totfact>
</mgrwt>
</event>
<event>
 4    1  0.4029665E-002  0.6044940E+02  0.7818608E-02  0.1395955E+00
         -1   -1    0    0  501    0 -0.00000000000E+00  0.00000000000E+00  0.42997389473E+01  0.42997419012E+01  0.50400000000E-02 0.  1.
          1   -1    0    0    0  501  0.00000000000E+00 -0.00000000000E+00 -0.21246223573E+03  0.21246223579E+03  0.50400000000E-02 0.  1.
          2    1    1    2    0  502 -0.24627693002E+01 -0.24084439068E+02 -0.16896487479E+03  0.17069052216E+03  0.25500000000E-02 0. -1.
         -2    1    1    2  502    0  0.24627693002E+01  0.24084439068E+02 -0.39197621992E+02  0.46071455524E+02  0.25500000000E-02 0. -1.
<mgrwt>
<rscale>  0 0.60449400E+02</rscale>
<asrwt>0</asrwt>
<pdfrwt beam="2">  1        1 0.32686490E-01 0.60449400E+02</pdfrwt>
<pdfrwt beam="1">  1       -1 0.66149870E-03 0.60449400E+02</pdfrwt>
<totfact> 0.35139144E+05</totfact>
</mgrwt>
</event>
<event>
 4    1  0.4029665E-002  0.5057886E+02  0.7818608E-02  0.1442244E+00
         -1   -1    0    0  501    0 -0.00000000000E+00  0.00000000000E+00  0.59939105733E+01  0.59939126922E+01  0.50400000000E-02 0. -1.
          1   -1    0    0    0  501  0.00000000000E+00 -0.00000000000E+00 -0.10670081874E+03  0.10670081885E+03  0.50400000000E-02 0. -1.
          2    1    1    2    0  502 -0.19394264311E+02 -0.15324157963E+02 -0.38440312526E+02  0.45701476334E+02  0.25500000000E-02 0.  1.
         -2    1    1    2  502    0  0.19394264311E+02  0.15324157963E+02 -0.62266595636E+02  0.66993255213E+02  0.25500000000E-02 0.  1.
<mgrwt>
<rscale>  0 0.50578861E+02</rscale>
<asrwt>0</asrwt>
<pdfrwt beam="2">  1        1 0.16415509E-01 0.50578861E+02</pdfrwt>
<pdfrwt beam="1">  1       -1 0.92214034E-03 0.50578861E+02</pdfrwt>
<totfact> 0.49481225E+05</totfact>
</mgrwt>
</event>
<event>
 4    1  0.4029665E-002  0.5197556E+02  0.7818608E-02  0.1434968E+00
          1   -1    0    0    0  501  0.00000000000E+00  0.00000000000E+00  0.13092351485E+02  0.13092352455E+02  0.50400000000E-02 0. -1.
         -1   -1    0    0  501    0 -0.00000000000E+00 -0.00000000000E+00 -0.51584671124E+02  0.51584671370E+02  0.50400000000E-02 0. -1.
          2    1    1    2    0  502 -0.17641218103E+02  0.15611523645E+02 -0.55901888249E+01  0.24211205345E+02  0.25500000000E-02 0.  1.
         -2    1    1    2  502    0  0.17641218103E+02 -0.15611523645E+02 -0.32902130814E+02  0.40465818480E+02  0.25500000000E-02 0.  1.
<mgrwt>
<rscale>  0 0.51975559E+02</rscale>
<asrwt>0</asrwt>
<pdfrwt beam="1">  1        1 0.20142080E-02 0.51975559E+02</pdfrwt>
<pdfrwt beam="2">  1       -1 0.79361032E-02 0.51975559E+02</pdfrwt>
<totfact> 0.37024656E+05</totfact>
</mgrwt>
</event>
<event>
 4    1  0.4029665E-002  0.1040928E+03  0.7818608E-02  0.1271917E+00
         -1   -1    0    0  501    0 -0.00000000000E+00  0.00000000000E+00  0.77257944118E+01  0.77257960558E+01  0.50400000000E-02 0. -1.
          1   -1    0    0    0  501  0.00000000000E+00 -0.00000000000E+00 -0.35062151724E+03  0.35062151727E+03  0.50400000000E-02 0. -1.
          2    1    1    2    0  502 -0.42454831463E+02 -0.29996606434E+02 -0.18030601355E+03  0.18764985383E+03  0.25500000000E-02 0. -1.
         -2    1    1    2  502    0  0.42454831463E+02  0.29996606434E+02 -0.16258970927E+03  0.17069745950E+03  0.25500000000E-02 0. -1.
<mgrwt>
<rscale>  0 0.10409284E+03</rscale>
<asrwt>0</asrwt>
<pdfrwt beam="2">  1        1 0.53941760E-01 0.10409284E+03</pdfrwt>
<pdfrwt beam="1">  1       -1 0.11885842E-02 0.10409284E+03</pdfrwt>
<totfact> 0.92486388E+04</totfact>
</mgrwt>
</event>
<event>
 4    1  0.4029665E-002  0.5089023E+02  0.7818608E-02  0.1440598E+00
          1   -1    0    0    0  501  0.00000000000E+00  0.00000000000E+00  0.30699255090E+03  0.30699255095E+03  0.50400000000E-02 0.  1.
         -1   -1    0    0  501    0 -0.00000000000E+00 -0.00000000000E+00 -0.21090186882E+01  0.21090247103E+01  0.50400000000E-02 0.  1.
          2    1    1    2    0  502 -0.18723672212E+02  0.16601968281E+02  0.12444074362E+03  0.12693187122E+03  0.25500000000E-02 0. -1.
         -2    1    1    2  502    0  0.18723672212E+02 -0.16601968281E+02  0.18044278859E+03  0.18216970443E+03  0.25500000000E-02 0. -1.
<mgrwt>
<rscale>  0 0.50890233E+02</rscale>
<asrwt>0</asrwt>
<pdfrwt beam="1">  1        1 0.47229625E-01 0.50890233E+02</pdfrwt>
<pdfrwt beam="2">  1       -1 0.32446487E-03 0.50890233E+02</pdfrwt>
<totfact> 0.57991150E+05</totfact>
</mgrwt>
</event>
<event>
 4    1  0.4029665E-002  0.5991209E+02  0.7818608E-02  0.1398201E+00
          1   -1    0    0    0  501  0.00000000000E+00  0.00000000000E+00  0.64473035970E+01  0.64473055669E+01  0.50400000000E-02 0. -1.
         -1   -1    0    0  501    0 -0.00000000000E+00 -0.00000000000E+00 -0.13918445341E+03  0.13918445350E+03  0.50400000000E-02 0. -1.
          2    1    1    2    0  502  0.11263583676E+02  0.23697420954E+02 -0.10150361675E+03  0.10483997471E+03  0.25500000000E-02 0.  1.
         -2    1    1    2  502    0 -0.11263583676E+02 -0.23697420954E+02 -0.31233533061E+02  0.40791784358E+02  0.25500000000E-02 0.  1.
<mgrwt>
<rscale>  0 0.59912088E+02</rscale>
<asrwt>0</asrwt>
<pdfrwt beam="1">  1        1 0.99189312E-03 0.59912088E+02</pdfrwt>
<pdfrwt beam="2">  1       -1 0.21412991E-01 0.59912088E+02</pdfrwt>
<totfact> 0.22273059E+05</totfact>
</mgrwt>
</event>
<event>
 4    1  0.4029665E-002  0.6992786E+02  0.7818608E-02  0.1360339E+00
          1   -1    0    0    0  501  0.00000000000E+00  0.00000000000E+00  0.34696816262E+03  0.34696816266E+03  0.50400000000E-02 0.  1.
         -1   -1    0    0  501    0 -0.00000000000E+00 -0.00000000000E+00 -0.35233077352E+01  0.35233113399E+01  0.50400000000E-02 0.  1.
          2    1    1    2    0  502  0.21907369519E+01  0.33015962187E+02  0.22834531148E+03  0.23073021988E+03  0.25500000000E-02 0.  1.
         -2    1    1    2  502    0 -0.21907369519E+01 -0.33015962187E+02  0.11509954341E+03  0.11976125412E+03  0.25500000000E-02 0.  1.
<mgrwt>
<rscale>  0 0.69927856E+02</rscale>
<asrwt>0</asrwt>
<pdfrwt beam="1">  1        1 0.53379709E-01 0.69927856E+02</pdfrwt>
<pdfrwt beam="2">  1       -1 0.54204771E-03 0.69927856E+02</pdfrwt>
<totfact> 0.26398640E+05</totfact>
</mgrwt>
</event>
<event>
 4    1  0.4029665E-002  0.1552644E+03  0.7818608E-02  0.1194149E+00
         -1   -1    0    0  501    0 -0.00000000000E+00  0.00000000000E+00  0.23716739423E+02  0.23716739959E+02  0.50400000000E-02 0. -1.
          1   -1    0    0    0  501  0.00000000000E+00 -0.00000000000E+00 -0.25411411113E+03  0.25411411118E+03  0.50400000000E-02 0. -1.
          2    1    1    2    0  502  0.39481467188E+02 -0.53781273532E+02 -0.44171564304E+02  0.80014615750E+02  0.25500000000E-02 0.  1.
         -2    1    1    2  502    0 -0.39481467188E+02  0.53781273532E+02 -0.18622580741E+03  0.19781623539E+03  0.25500000000E-02 0.  1.
<mgrwt>
<rscale>  0 0.15526440E+03</rscale>
<asrwt>0</asrwt>
<pdfrwt beam="2">  1        1 0.39094477E-01 0.15526440E+03</pdfrwt>
<pdfrwt beam="1">  1       -1 0.36487293E-02 0.15526440E+03</pdfrwt>
<totfact> 0.28665249E+04</totfact>
</mgrwt>
</event>
<event>
 4    1  0.4029665E-002  0.6800449E+02  0.7818608E-02  0.1367013E+00
          1   -1    0    0    0  501  0.00000000000E+00  0.00000000000E+00  0.28785378345E+02  0.28785378786E+02  0.50400000000E-02 0. -1.
         -1   -1    0    0  501    0 -0.00000000000E+00 -0.00000000000E+00 -0.40164578222E+02  0.40164578538E+02  0.50400000000E-02 0. -1.
          2    1    1    2    0  502  0.12094992728E+02  0.26045654689E+02  0.12770331479E+02  0.31428432189E+02  0.25500000000E-02 0. -1.
         -2    1    1    2  502    0 -0.12094992728E+02 -0.26045654689E+02 -0.24149531356E+02  0.37521525135E+02  0.25500000000E-02 0. -1.
<mgrwt>
<rscale>  0 0.68004488E+02</rscale>
<asrwt>0</asrwt>
<pdfrwt beam="1">  1        1 0.44285198E-02 0.68004488E+02</pdfrwt>
<pdfrwt beam="2">  1       -1 0.61791659E-02 0.68004488E+02</pdfrwt>
<totfact> 0.19564997E+05</totfact>
</mgrwt>
</event>
<event>
 4    1  0.4029665E-002  0.5463927E+02  0.7818608E-02  0.1421813E+00
         -1   -1    0    0  501    0 -0.00000000000E+00  0.00000000000E+00  0.32477097050E+02  0.32477097441E+02  0.50400000000E-02 0. -1.
          1   -1    0    0    0  501  0.00000000000E+00 -0.00000000000E+00 -0.22981193930E+02  0.22981194483E+02  0.50400000000E-02 0. -1.
          2    1    1    2    0  502  0.94247493354E+01  0.21298920563E+02 -0.97451818140E+01  0.25247544282E+02  0.25500000000E-02 0. -1.
         -2    1    1    2  502    0 -0.94247493354E+01 -0.21298920563E+02  0.19241084933E+02  0.30210747642E+02  0.25500000000E-02 0. -1.
<mgrwt>
<rscale>  0 0.54639271E+02</rscale>
<asrwt>0</asrwt>
<pdfrwt beam="2">  1        1 0.35355684E-02 0.54639271E+02</pdfrwt>
<pdfrwt beam="1">  1       -1 0.49964765E-02 0.54639271E+02</pdfrwt>
<totfact> 0.34371929E+05</totfact>
</mgrwt>
</event>
<event>
 4    1  0.4029665E-002  0.5361765E+02  0.7818608E-02  0.1426752E+00
         -1   -1    0    0  501    0 -0.00000000000E+00  0.00000000000E+00  0.24283725294E+01  0.24283777596E+01  0.50400000000E-02 0. -1.
          1   -1    0    0    0  501  0.00000000000E+00 -0.00000000000E+00 -0.29596458338E+03  0.29596458342E+03  0.50400000000E-02 0. -1.
          2    1    1    2    0  502 -0.10698130949E+02  0.24276636471E+02 -0.12528040587E+03  0.12805852250E+03  0.25500000000E-02 0.  1.
         -2    1    1    2  502    0  0.10698130949E+02 -0.24276636471E+02 -0.16825580499E+03  0.17033443868E+03  0.25500000000E-02 0.  1.
<mgrwt>
<rscale>  0 0.53617648E+02</rscale>
<asrwt>0</asrwt>
<pdfrwt beam="2">  1        1 0.45532985E-01 0.53617648E+02</pdfrwt>
<pdfrwt beam="1">  1       -1 0.37359641E-03 0.53617648E+02</pdfrwt>
<totfact> 0.50552406E+05</totfact>
</mgrwt>
</event>
<event>
 4    1  0.4029665E-002  0.1025102E+03  0.7818608E-02  0.1275104E+00
         -1   -1    0    0  501    0 -0.00000000000E+00  0.00000000000E+00  0.14328598086E+02  0.14328598972E+02  0.50400000000E-02 0.  1.
          1   -1    0    0    0  501  0.00000000000E+00 -0.00000000000E+00 -0.18334571422E+03  0.18334571429E+03  0.50400000000E-02 0.  1.
          2    1    1    2    0  502  0.76837274620E+01  0.34372779307E+02 -0.15631315701E+03  0.16023211502E+03  0.25500000000E-02 0.  1.
         -2    1    1    2  502    0 -0.76837274620E+01 -0.34372779307E+02 -0.12703959130E+02  0.37442198240E+02  0.25500000000E-02 0.  1.
<mgrwt>
<rscale>  0 0.10251024E+03</rscale>
<asrwt>0</asrwt>
<pdfrwt beam="2">  1        1 0.28207031E-01 0.10251024E+03</pdfrwt>
<pdfrwt beam="1">  1       -1 0.22043999E-02 0.10251024E+03</pdfrwt>
<totfact> 0.84805275E+04</totfact>
</mgrwt>
</event>
<event>
 4    1  0.4029665E-002  0.4863583E+02  0.7818608E-02  0.1452841E+00
          1   -1    0    0    0  501  0.00000000000E+00  0.00000000000E+00  0.87400822187E+03  0.87400822189E+03  0.50400000000E-02 0.  1.
         -1   -1    0    0  501    0 -0.00000000000E+00 -0.00000000000E+00 -0.67659872607E+00  0.67661749735E+00  0.50400000000E-02 0.  1.
          2    1    1    2    0  502  0.36310329743E+01  0.19885588675E+02  0.67978099077E+03  0.68008147781E+03  0.25500000000E-02 0.  1.
         -2    1    1    2  502    0 -0.36310329743E+01 -0.19885588675E+02  0.19355063238E+03  0.19460336158E+03  0.25500000000E-02 0.  1.
<mgrwt>
<rscale>  0 0.48635833E+02</rscale>
<asrwt>0</asrwt>
<pdfrwt beam="1">  1        1 0.13446311E+00 0.48635833E+02</pdfrwt>
<pdfrwt beam="2">  1       -1 0.10409332E-03 0.48635833E+02</pdfrwt>
<totfact> 0.69855693E+05</totfact>
</mgrwt>
</event>
<event>
 4    1  0.4029665E-002  0.5005154E+02  0.7818608E-02  0.1445064E+00
         -1   -1    0    0  501    0 -0.00000000000E+00  0.00000000000E+00  0.28894842334E+00  0.28899237525E+00  0.50400000000E-02 0. -1.
          1   -1    0    0    0  501  0.00000000000E+00 -0.00000000000E+00 -0.21673128072E+04  0.21673128072E+04  0.50400000000E-02 0. -1.
          2    1    1    2    0  502  0.19557648060E+02 -0.15604574990E+02 -0.10603963587E+04  0.10606914923E+04  0.25500000000E-02 0.  1.
         -2    1    1    2  502    0 -0.19557648060E+02  0.15604574990E+02 -0.11066275001E+04  0.11069103073E+04  0.25500000000E-02 0.  1.
<mgrwt>
<rscale>  0 0.50051544E+02</rscale>
<asrwt>0</asrwt>
<pdfrwt beam="2">  1        1 0.33341973E+00 0.50051544E+02</pdfrwt>
<pdfrwt beam="1">  1       -1 0.44458721E-04 0.50051544E+02</pdfrwt>
<totfact> 0.33017913E+05</totfact>
</mgrwt>
</event>
<event>
 4    1  0.4029665E-002  0.5300823E+02  0.7818608E-02  0.1429760E+00
          1   -1    0    0    0  501  0.00000000000E+00  0.00000000000E+00  0.12607539955E+01  0.12607640695E+01  0.50400000000E-02 0.  1.
         -1   -1    0    0  501    0 -0.00000000000E+00 -0.00000000000E+00 -0.55717862918E+03  0.55717862920E+03  0.50400000000E-02 0.  1.
          2    1    1    2    0  502 -0.25904454676E+02 -0.30014246489E+01 -0.32784023435E+03  0.32887576467E+03  0.25500000000E-02 0. -1.
         -2    1    1    2  502    0  0.25904454676E+02  0.30014246489E+01 -0.22807764083E+03  0.22956362860E+03  0.25500000000E-02 0. -1.
<mgrwt>
<rscale>  0 0.53008226E+02</rscale>
<asrwt>0</asrwt>
<pdfrwt beam="1">  1        1 0.19396338E-03 0.53008226E+02</pdfrwt>
<pdfrwt beam="2">  1       -1 0.85719593E-01 0.53008226E+02</pdfrwt>
<totfact> 0.17591755E+05</totfact>
</mgrwt>
</event>
<event>
 4    1  0.4029665E-002  0.4387028E+02  0.7818608E-02  0.1481520E+00
         -1   -1    0    0  501    0 -0.00000000000E+00  0.00000000000E+00  0.40517041690E+02  0.40517042004E+02  0.50400000000E-02 0. -1.
          1   -1    0    0    0  501  0.00000000000E+00 -0.00000000000E+00 -0.11875257365E+02  0.11875258435E+02  0.50400000000E-02 0. -1.
          2    1    1    2    0  502 -0.21787017402E+02 -0.21665885169E+01  0.15915164204E+02  0.27067705688E+02  0.25500000000E-02 0.  1.
         -2    1    1    2  502    0  0.21787017402E+02  0.21665885169E+01  0.12726620121E+02  0.25324594750E+02  0.25500000000E-02 0.  1.
<mgrwt>
<rscale>  0 0.43870279E+02</rscale>
<asrwt>0</asrwt>
<pdfrwt beam="2">  1        1 0.18269628E-02 0.43870279E+02</pdfrwt>
<pdfrwt beam="1">  1       -1 0.62333911E-02 0.43870279E+02</pdfrwt>
<totfact> 0.57477592E+05</totfact>
</mgrwt>
</event>
<event>
 4    1  0.4029665E-002  0.4927763E+02  0.7818608E-02  0.1449277E+00
         -1   -1    0    0  501    0 -0.00000000000E+00  0.00000000000E+00  0.41130472856E+02  0.41130473164E+02  0.50400000000E-02 0. -1.
          1   -1    0    0    0  501  0.00000000000E+00 -0.00000000000E+00 -0.14759646833E+02  0.14759647694E+02  0.50400000000E-02 0. -1.
          2    1    1    2    0  502  0.15542758567E+02  0.14476893676E+02 -0.97666711133E+00  0.21262917945E+02  0.25500000000E-02 0.  1.
         -2    1    1    2  502    0 -0.15542758567E+02 -0.14476893676E+02  0.27347493134E+02  0.34627202913E+02  0.25500000000E-02 0.  1.
<mgrwt>
<rscale>  0 0.49277633E+02</rscale>
<asrwt>0</asrwt>
<pdfrwt beam="2">  1        1 0.22707150E-02 0.49277633E+02</pdfrwt>
<pdfrwt beam="1">  1       -1 0.63277652E-02 0.49277633E+02</pdfrwt>
<totfact> 0.43236625E+05</totfact>
</mgrwt>
</event>
<event>
 4    1  0.4029665E-002  0.4137072E+02  0.7818608E-02  0.1498360E+00
          1   -1    0    0    0  501  0.00000000000E+00  0.00000000000E+00  0.11793364734E+03  0.11793364745E+03  0.50400000000E-02 0. -1.
         -1   -1    0    0  501    0 -0.00000000000E+00 -0.00000000000E+00 -0.36281742484E+01  0.36281777490E+01  0.50400000000E-02 0. -1.
          2    1    1    2    0  502  0.15245510812E+02  0.13449543077E+02  0.68367949144E+02  0.71326659010E+02  0.25500000000E-02 0. -1.
         -2    1    1    2  502    0 -0.15245510812E+02 -0.13449543077E+02  0.45937523953E+02  0.50235166192E+02  0.25500000000E-02 0. -1.
<mgrwt>
<rscale>  0 0.41370716E+02</rscale>
<asrwt>0</asrwt>
<pdfrwt beam="1">  1        1 0.18143640E-01 0.41370716E+02</pdfrwt>
<pdfrwt beam="2">  1       -1 0.55818088E-03 0.41370716E+02</pdfrwt>
<totfact> 0.82790159E+05</totfact>
</mgrwt>
</event>
<event>
 4    1  0.4029665E-002  0.8930340E+02  0.7818608E-02  0.1304547E+00
          1   -1    0    0    0  501  0.00000000000E+00  0.00000000000E+00  0.30265128012E+01  0.30265169977E+01  0.50400000000E-02 0.  1.
         -1   -1    0    0  501    0 -0.00000000000E+00 -0.00000000000E+00 -0.65876908547E+03  0.65876908549E+03  0.50400000000E-02 0.  1.
          2    1    1    2    0  502 -0.30617917450E+02  0.28634098168E+02 -0.21392894879E+03  0.21799762289E+03  0.25500000000E-02 0.  1.
         -2    1    1    2  502    0  0.30617917450E+02 -0.28634098168E+02 -0.44181362387E+03  0.44379797960E+03  0.25500000000E-02 0.  1.
<mgrwt>
<rscale>  0 0.89303403E+02</rscale>
<asrwt>0</asrwt>
<pdfrwt beam="1">  1        1 0.46561820E-03 0.89303403E+02</pdfrwt>
<pdfrwt beam="2">  1       -1 0.10134898E+00 0.89303403E+02</pdfrwt>
<totfact> 0.40911448E+04</totfact>
</mgrwt>
</event>
<event>
 4    1  0.4029665E-002  0.4963502E+02  0.7818608E-02  0.1447320E+00
         -1   -1    0    0  501    0 -0.00000000000E+00  0.00000000000E+00  0.16033440961E+03  0.16033440969E+03  0.50400000000E-02 0. -1.
          1   -1    0    0    0  501  0.00000000000E+00 -0.00000000000E+00 -0.38413999682E+01  0.38414032745E+01  0.50400000000E-02 0. -1.
          2    1    1    2    0  502  0.23551752922E+02 -0.77938834567E+01  0.75956842906E+02  0.79905392032E+02  0.25500000000E-02 0. -1.
         -2    1    1    2  502    0 -0.23551752922E+02  0.77938834567E+01  0.80536166733E+02  0.84270420929E+02  0.25500000000E-02 0. -1.
<mgrwt>
<rscale>  0 0.49635023E+02</rscale>
<asrwt>0</asrwt>
<pdfrwt beam="2">  1        1 0.59098479E-03 0.49635023E+02</pdfrwt>
<pdfrwt beam="1">  1       -1 0.24666836E-01 0.49635023E+02</pdfrwt>
<totfact> 0.34533717E+05</totfact>
</mgrwt>
</event>
<event>
 4    1  0.4029665E-002  0.8278810E+02  0.7818608E-02  0.1321320E+00
          1   -1    0    0    0  501  0.00000000000E+00  0.00000000000E+00  0.87888838601E+03  0.87888838602E+03  0.50400000000E-02 0.  1.
         -1   -1    0    0  501    0 -0.00000000000E+00 -0.00000000000E+00 -0.19495813544E+01  0.19495878690E+01  0.50400000000E-02 0.  1.
          2    1    1    2    0  502 -0.16649097200E+02  0.12560341127E+02  0.58034246052E+02  0.61667887333E+02  0.25500000000E-02 0. -1.
         -2    1    1    2  502    0  0.16649097200E+02 -0.12560341127E+02  0.81890455860E+03  0.81917008656E+03  0.25500000000E-02 0. -1.
<mgrwt>
<rscale>  0 0.82788098E+02</rscale>
<asrwt>0</asrwt>
<pdfrwt beam="1">  1        1 0.13521360E+00 0.82788098E+02</pdfrwt>
<pdfrwt beam="2">  1       -1 0.29993610E-03 0.82788098E+02</pdfrwt>
<totfact> 0.18011063E+05</totfact>
</mgrwt>
</event>
<event>
 4    1  0.4029665E-002  0.5616905E+02  0.7818608E-02  0.1414650E+00
          1   -1    0    0    0  501  0.00000000000E+00  0.00000000000E+00  0.59096109562E+03  0.59096109564E+03  0.50400000000E-02 0. -1.
         -1   -1    0    0  501    0 -0.00000000000E+00 -0.00000000000E+00 -0.13346696425E+01  0.13346791585E+01  0.50400000000E-02 0. -1.
          2    1    1    2    0  502 -0.27532249997E+02  0.10076330986E+01  0.23734553077E+03  0.23893919958E+03  0.25500000000E-02 0.  1.
         -2    1    1    2  502    0  0.27532249997E+02 -0.10076330986E+01  0.35228089520E+03  0.35335657521E+03  0.25500000000E-02 0.  1.
<mgrwt>
<rscale>  0 0.56169054E+02</rscale>
<asrwt>0</asrwt>
<pdfrwt beam="1">  1        1 0.90916848E-01 0.56169054E+02</pdfrwt>
<pdfrwt beam="2">  1       -1 0.20533508E-03 0.56169054E+02</pdfrwt>
<totfact> 0.49417773E+05</totfact>
</mgrwt>
</event>
<event>
 4    1  0.4029665E-002  0.4232752E+02  0.7818608E-02  0.1491750E+00
         -1   -1    0    0  501    0 -0.00000000000E+00  0.00000000000E+00  0.22648619756E+01  0.22648675834E+01  0.50400000000E-02 0.  1.
          1   -1    0    0    0  501  0.00000000000E+00 -0.00000000000E+00 -0.19776226175E+03  0.19776226181E+03  0.50400000000E-02 0.  1.
          2    1    1    2    0  502  0.67705391238E+01 -0.19119315302E+02 -0.69191879467E+02  0.72103429934E+02  0.25500000000E-02 0.  1.
         -2    1    1    2  502    0 -0.67705391238E+01  0.19119315302E+02 -0.12630552031E+03  0.12792369946E+03  0.25500000000E-02 0.  1.
<mgrwt>
<rscale>  0 0.42327523E+02</rscale>
<asrwt>0</asrwt>
<pdfrwt beam="2">  1        1 0.30424950E-01 0.42327523E+02</pdfrwt>
<pdfrwt beam="1">  1       -1 0.34844090E-03 0.42327523E+02</pdfrwt>
<totfact> 0.84777666E+05</totfact>
</mgrwt>
</event>
<event>
 4    1  0.4029665E-002  0.4351685E+02  0.7818608E-02  0.1483819E+00
         -1   -1    0    0  501    0 -0.00000000000E+00  0.00000000000E+00  0.75756078965E+00  0.75757755485E+00  0.50400000000E-02 0. -1.
          1   -1    0    0    0  501  0.00000000000E+00 -0.00000000000E+00 -0.62493167819E+03  0.62493167821E+03  0.50400000000E-02 0. -1.
          2    1    1    2    0  502  0.20727073040E+02  0.60516764065E+01 -0.27352096082E+03  0.27437191977E+03  0.25500000000E-02 0.  1.
         -2    1    1    2  502    0 -0.20727073040E+02 -0.60516764065E+01 -0.35065315658E+03  0.35131733599E+03  0.25500000000E-02 0.  1.
<mgrwt>
<rscale>  0 0.43516847E+02</rscale>
<asrwt>0</asrwt>
<pdfrwt beam="2">  1        1 0.96142924E-01 0.43516847E+02</pdfrwt>
<pdfrwt beam="1">  1       -1 0.11654960E-03 0.43516847E+02</pdfrwt>
<totfact> 0.93243459E+05</totfact>
</mgrwt>
</event>
<event>
 4    1  0.4029665E-002  0.5193687E+02  0.7818608E-02  0.1435166E+00
         -1   -1    0    0  501    0 -0.00000000000E+00  0.00000000000E+00  0.39597699252E+01  0.39597731326E+01  0.50400000000E-02 0.  1.
          1   -1    0    0    0  501  0.00000000000E+00 -0.00000000000E+00 -0.17030263128E+03  0.17030263136E+03  0.50400000000E-02 0.  1.
          2    1    1    2    0  502  0.17968425289E+02  0.18405532089E+02 -0.71199355908E+02  0.75703211339E+02  0.25500000000E-02 0.  1.
         -2    1    1    2  502    0 -0.17968425289E+02 -0.18405532089E+02 -0.95143505448E+02  0.98559193150E+02  0.25500000000E-02 0.  1.
<mgrwt>
<rscale>  0 0.51936866E+02</rscale>
<asrwt>0</asrwt>
<pdfrwt beam="2">  1        1 0.26200399E-01 0.51936866E+02</pdfrwt>
<pdfrwt beam="1">  1       -1 0.60919575E-03 0.51936866E+02</pdfrwt>
<totfact> 0.49714294E+05</totfact>
</mgrwt>
</event>
<event>
 4    1  0.4029665E-002  0.8289294E+02  0.7818608E-02  0.1321037E+00
         -1   -1    0    0  501    0 -0.00000000000E+00  0.00000000000E+00  0.11200969379E+03  0.11200969390E+03  0.50400000000E-02 0. -1.
          1   -1    0    0    0  501  0.00000000000E+00 -0.00000000000E+00 -0.15336261306E+02  0.15336262134E+02  0.50400000000E-02 0. -1.
          2    1    1    2    0  502  0.40443798300E+02 -0.90557033794E+01  0.48830721049E+02  0.64047996919E+02  0.25500000000E-02 0. -1.
         -2    1    1    2  502    0 -0.40443798300E+02  0.90557033794E+01  0.47842711431E+02  0.63297959115E+02  0.25500000000E-02 0. -1.
<mgrwt>
<rscale>  0 0.82892943E+02</rscale>
<asrwt>0</asrwt>
<pdfrwt beam="2">  1        1 0.23594249E-02 0.82892943E+02</pdfrwt>
<pdfrwt beam="1">  1       -1 0.17232260E-01 0.82892943E+02</pdfrwt>
<totfact> 0.10175454E+05</totfact>
</mgrwt>
</event>
<event>
 4    1  0.4029665E-002  0.4909140E+02  0.7818608E-02  0.1450305E+00
         -1   -1    0    0  501    0 -0.00000000000E+00  0.00000000000E+00  0.56166440130E+01  0.56166462743E+01  0.50400000000E-02 0. -1.
          1   -1    0    0    0  501  0.00000000000E+00 -0.00000000000E+00 -0.10726889414E+03  0.10726889426E+03  0.50400000000E-02 0. -1.
          2    1    1    2    0  502 -0.17670275940E+02 -0.16802944313E+02 -0.44357327666E+02  0.50617685778E+02  0.25500000000E-02 0.  1.
         -2    1    1    2  502    0  0.17670275940E+02  0.16802944313E+02 -0.57294922462E+02  0.62267854756E+02  0.25500000000E-02 0.  1.
<mgrwt>
<rscale>  0 0.49091397E+02</rscale>
<asrwt>0</asrwt>
<pdfrwt beam="2">  1        1 0.16502905E-01 0.49091397E+02</pdfrwt>
<pdfrwt beam="1">  1       -1 0.86409934E-03 0.49091397E+02</pdfrwt>
<totfact> 0.53385130E+05</totfact>
</mgrwt>
</event>
<event>
 4    1  0.4029665E-002  0.5966261E+02  0.7818608E-02  0.1399253E+00
         -1   -1    0    0  501    0 -0.00000000000E+00  0.00000000000E+00  0.87483404158E+01  0.87483418676E+01  0.50400000000E-02 0.  1.
          1   -1    0    0    0  501  0.00000000000E+00 -0.00000000000E+00 -0.10172290193E+03  0.10172290206E+03  0.50400000000E-02 0.  1.
          2    1    1    2    0  502 -0.27862563810E+02 -0.83420238050E+01 -0.34205881524E+02  0.44899378176E+02  0.25500000000E-02 0. -1.
         -2    1    1    2  502    0  0.27862563810E+02  0.83420238050E+01 -0.58768679994E+02  0.65571865750E+02  0.25500000000E-02 0. -1.
<mgrwt>
<rscale>  0 0.59662607E+02</rscale>
<asrwt>0</asrwt>
<pdfrwt beam="2">  1        1 0.15649677E-01 0.59662607E+02</pdfrwt>
<pdfrwt beam="1">  1       -1 0.13458987E-02 0.59662607E+02</pdfrwt>
<totfact> 0.32239268E+05</totfact>
</mgrwt>
</event>
<event>
 4    1  0.4029665E-002  0.5619800E+02  0.7818608E-02  0.1414517E+00
         -1   -1    0    0  501    0 -0.00000000000E+00  0.00000000000E+00  0.66811195771E+00  0.66813096742E+00  0.50400000000E-02 0. -1.
          1   -1    0    0    0  501  0.00000000000E+00 -0.00000000000E+00 -0.11817519854E+04  0.11817519854E+04  0.50400000000E-02 0. -1.
          2    1    1    2    0  502 -0.63527165892E+01 -0.26399176588E+02 -0.74267377882E+03  0.74316997739E+03  0.25500000000E-02 0. -1.
         -2    1    1    2  502    0  0.63527165892E+01  0.26399176588E+02 -0.43841009461E+03  0.43925013898E+03  0.25500000000E-02 0. -1.
<mgrwt>
<rscale>  0 0.56198003E+02</rscale>
<asrwt>0</asrwt>
<pdfrwt beam="2">  1        1 0.18180633E+00 0.56198003E+02</pdfrwt>
<pdfrwt beam="1">  1       -1 0.10278886E-03 0.56198003E+02</pdfrwt>
<totfact> 0.44711306E+05</totfact>
</mgrwt>
</event>
<event>
 4    1  0.4029665E-002  0.4552625E+02  0.7818608E-02  0.1471083E+00
         -1   -1    0    0  501    0 -0.00000000000E+00  0.00000000000E+00  0.98341043121E+02  0.98341043250E+02  0.50400000000E-02 0. -1.
          1   -1    0    0    0  501  0.00000000000E+00 -0.00000000000E+00 -0.52690087911E+01  0.52690112016E+01  0.50400000000E-02 0. -1.
          2    1    1    2    0  502 -0.15001623019E+02  0.16961426663E+02  0.41237064635E+02  0.47045023050E+02  0.25500000000E-02 0.  1.
         -2    1    1    2  502    0  0.15001623019E+02 -0.16961426663E+02  0.51834969695E+02  0.56565031401E+02  0.25500000000E-02 0.  1.
<mgrwt>
<rscale>  0 0.45526254E+02</rscale>
<asrwt>0</asrwt>
<pdfrwt beam="2">  1        1 0.81061695E-03 0.45526254E+02</pdfrwt>
<pdfrwt beam="1">  1       -1 0.15129391E-01 0.45526254E+02</pdfrwt>
<totfact> 0.47008552E+05</totfact>
</mgrwt>
</event>
<event>
 4    1  0.4029665E-002  0.5710637E+03  0.7818608E-02  0.9967328E-01
         -1   -1    0    0  501    0 -0.00000000000E+00  0.00000000000E+00  0.61250100373E+03  0.61250100375E+03  0.50400000000E-02 0.  1.
          1   -1    0    0    0  501  0.00000000000E+00 -0.00000000000E+00 -0.13310741990E+03  0.13310742000E+03  0.50400000000E-02 0.  1.
          2    1    1    2    0  502  0.79739480062E+01  0.10453288200E+03  0.58646317397E+03  0.59575981880E+03  0.25500000000E-02 0.  1.
         -2    1    1    2  502    0 -0.79739480062E+01 -0.10453288200E+03 -0.10706959014E+03  0.14984860495E+03  0.25500000000E-02 0.  1.
<mgrwt>
<rscale>  0 0.57106367E+03</rscale>
<asrwt>0</asrwt>
<pdfrwt beam="2">  1        1 0.20478065E-01 0.57106367E+03</pdfrwt>
<pdfrwt beam="1">  1       -1 0.94230923E-01 0.57106367E+03</pdfrwt>
<totfact> 0.28192177E+02</totfact>
</mgrwt>
</event>
<event>
 4    1  0.4029665E-002  0.5424807E+02  0.7818608E-02  0.1423689E+00
         -1   -1    0    0  501    0 -0.00000000000E+00  0.00000000000E+00  0.13967069827E+03  0.13967069836E+03  0.50400000000E-02 0.  1.
          1   -1    0    0    0  501  0.00000000000E+00 -0.00000000000E+00 -0.52674831818E+01  0.52674855930E+01  0.50400000000E-02 0.  1.
          2    1    1    2    0  502  0.77656743417E+01 -0.25954669944E+02  0.63654452018E+02  0.69179764803E+02  0.25500000000E-02 0. -1.
         -2    1    1    2  502    0 -0.77656743417E+01  0.25954669944E+02  0.70748763072E+02  0.75758419153E+02  0.25500000000E-02 0. -1.
<mgrwt>
<rscale>  0 0.54248069E+02</rscale>
<asrwt>0</asrwt>
<pdfrwt beam="2">  1        1 0.81038214E-03 0.54248069E+02</pdfrwt>
<pdfrwt beam="1">  1       -1 0.21487802E-01 0.54248069E+02</pdfrwt>
<totfact> 0.28549036E+05</totfact>
</mgrwt>
</event>
<event>
 4    1  0.4029665E-002  0.5019530E+02  0.7818608E-02  0.1444291E+00
          1   -1    0    0    0  501  0.00000000000E+00  0.00000000000E+00  0.32544047997E+03  0.32544048001E+03  0.50400000000E-02 0. -1.
         -1   -1    0    0  501    0 -0.00000000000E+00 -0.00000000000E+00 -0.19355024013E+01  0.19355089633E+01  0.50400000000E-02 0. -1.
          2    1    1    2    0  502  0.20866194250E+02  0.33469184572E+01  0.73453538200E+02  0.76433122442E+02  0.25500000000E-02 0. -1.
         -2    1    1    2  502    0 -0.20866194250E+02 -0.33469184572E+01  0.25005143937E+03  0.25094286653E+03  0.25500000000E-02 0. -1.
<mgrwt>
<rscale>  0 0.50195295E+02</rscale>
<asrwt>0</asrwt>
<pdfrwt beam="1">  1        1 0.50067795E-01 0.50195295E+02</pdfrwt>
<pdfrwt beam="2">  1       -1 0.29776994E-03 0.50195295E+02</pdfrwt>
<totfact> 0.60619388E+05</totfact>
</mgrwt>
</event>
<event>
 4    1  0.4029665E-002  0.7337695E+02  0.7818608E-02  0.1348972E+00
          1   -1    0    0    0  501  0.00000000000E+00  0.00000000000E+00  0.63501664933E+03  0.63501664935E+03  0.50400000000E-02 0.  1.
         -1   -1    0    0  501    0 -0.00000000000E+00 -0.00000000000E+00 -0.21196961384E+01  0.21197021302E+01  0.50400000000E-02 0.  1.
          2    1    1    2    0  502  0.16133234797E+01  0.31613673451E+02  0.47749921705E+03  0.47854731161E+03  0.25500000000E-02 0. -1.
         -2    1    1    2  502    0 -0.16133234797E+01 -0.31613673451E+02  0.15539773614E+03  0.15858903987E+03  0.25500000000E-02 0. -1.
<mgrwt>
<rscale>  0 0.73376952E+02</rscale>
<asrwt>0</asrwt>
<pdfrwt beam="1">  1        1 0.97694750E-01 0.73376952E+02</pdfrwt>
<pdfrwt beam="2">  1       -1 0.32610796E-03 0.73376952E+02</pdfrwt>
<totfact> 0.25067732E+05</totfact>
</mgrwt>
</event>
<event>
 4    1  0.4029665E-002  0.4122571E+02  0.7818608E-02  0.1499380E+00
          1   -1    0    0    0  501  0.00000000000E+00  0.00000000000E+00  0.83073911571E+00  0.83075440412E+00  0.50400000000E-02 0. -1.
         -1   -1    0    0  501    0 -0.00000000000E+00 -0.00000000000E+00 -0.51145529436E+03  0.51145529438E+03  0.50400000000E-02 0. -1.
          2    1    1    2    0  502 -0.89778711706E+01  0.18503654050E+02 -0.23817266171E+03  0.23905899727E+03  0.25500000000E-02 0. -1.
         -2    1    1    2  502    0  0.89778711706E+01 -0.18503654050E+02 -0.27245189353E+03  0.27322705151E+03  0.25500000000E-02 0. -1.
<mgrwt>
<rscale>  0 0.41225712E+02</rscale>
<asrwt>0</asrwt>
<pdfrwt beam="1">  1        1 0.12780760E-03 0.41225712E+02</pdfrwt>
<pdfrwt beam="2">  1       -1 0.78685180E-01 0.41225712E+02</pdfrwt>
<totfact> 0.34503644E+05</totfact>
</mgrwt>
</event>
<event>
 4    1  0.4029665E-002  0.1021953E+03  0.7818608E-02  0.1275746E+00
         -1   -1    0    0  501    0 -0.00000000000E+00  0.00000000000E+00  0.26621522904E+01  0.26621570612E+01  0.50400000000E-02 0.  1.
          1   -1    0    0    0  501  0.00000000000E+00 -0.00000000000E+00 -0.98077262338E+03  0.98077262340E+03  0.50400000000E-02 0.  1.
          2    1    1    2    0  502  0.33622710437E+02 -0.10588189574E+02 -0.84502806366E+03  0.84576298382E+03  0.25500000000E-02 0.  1.
         -2    1    1    2  502    0 -0.33622710437E+02  0.10588189574E+02 -0.13308240743E+03  0.13767179664E+03  0.25500000000E-02 0.  1.
<mgrwt>
<rscale>  0 0.10219527E+03</rscale>
<asrwt>0</asrwt>
<pdfrwt beam="2">  1        1 0.15088781E+00 0.10219527E+03</pdfrwt>
<pdfrwt beam="1">  1       -1 0.40956304E-03 0.10219527E+03</pdfrwt>
<totfact> 0.10094120E+05</totfact>
</mgrwt>
</event>
<event>
 4    1  0.4029665E-002  0.8557441E+02  0.7818608E-02  0.1313937E+00
          1   -1    0    0    0  501  0.00000000000E+00  0.00000000000E+00  0.36579542292E+02  0.36579542639E+02  0.50400000000E-02 0. -1.
         -1   -1    0    0  501    0 -0.00000000000E+00 -0.00000000000E+00 -0.50048326517E+02  0.50048326771E+02  0.50400000000E-02 0. -1.
          2    1    1    2    0  502  0.25692433384E+02  0.31291242211E+02 -0.20743171345E+02  0.45492000794E+02  0.25500000000E-02 0. -1.
         -2    1    1    2  502    0 -0.25692433384E+02 -0.31291242211E+02  0.72743871194E+01  0.41135868616E+02  0.25500000000E-02 0. -1.
<mgrwt>
<rscale>  0 0.85574410E+02</rscale>
<asrwt>0</asrwt>
<pdfrwt beam="1">  1        1 0.56276219E-02 0.85574410E+02</pdfrwt>
<pdfrwt beam="2">  1       -1 0.76997426E-02 0.85574410E+02</pdfrwt>
<totfact> 0.10694455E+05</totfact>
</mgrwt>
</event>
<event>
 4    1  0.4029665E-002  0.6938631E+02  0.7818608E-02  0.1362192E+00
          1   -1    0    0    0  501  0.00000000000E+00  0.00000000000E+00  0.77787552488E+03  0.77787552489E+03  0.50400000000E-02 0.  1.
         -1   -1    0    0  501    0 -0.00000000000E+00 -0.00000000000E+00 -0.15473063814E+01  0.15473145897E+01  0.50400000000E-02 0.  1.
          2    1    1    2    0  502  0.20048221501E+02  0.18530675592E+02  0.62864094391E+03  0.62923346501E+03  0.25500000000E-02 0.  1.
         -2    1    1    2  502    0 -0.20048221501E+02 -0.18530675592E+02  0.14768727459E+03  0.15018937447E+03  0.25500000000E-02 0.  1.
<mgrwt>
<rscale>  0 0.69386309E+02</rscale>
<asrwt>0</asrwt>
<pdfrwt beam="1">  1        1 0.11967286E+00 0.69386309E+02</pdfrwt>
<pdfrwt beam="2">  1       -1 0.23804837E-03 0.69386309E+02</pdfrwt>
<totfact> 0.28871940E+05</totfact>
</mgrwt>
</event>
<event>
 4    1  0.4029665E-002  0.5375553E+02  0.7818608E-02  0.1426077E+00
         -1   -1    0    0  501    0 -0.00000000000E+00  0.00000000000E+00  0.26358401505E+02  0.26358401987E+02  0.50400000000E-02 0.  1.
          1   -1    0    0    0  501  0.00000000000E+00 -0.00000000000E+00 -0.27407359949E+02  0.27407360413E+02  0.50400000000E-02 0.  1.
          2    1    1    2    0  502  0.15022615553E+02 -0.18920363893E+02  0.11257197374E+02  0.26653023227E+02  0.25500000000E-02 0. -1.
         -2    1    1    2  502    0 -0.15022615553E+02  0.18920363893E+02 -0.12306155818E+02  0.27112739173E+02  0.25500000000E-02 0. -1.
<mgrwt>
<rscale>  0 0.53755529E+02</rscale>
<asrwt>0</asrwt>
<pdfrwt beam="2">  1        1 0.42165170E-02 0.53755529E+02</pdfrwt>
<pdfrwt beam="1">  1       -1 0.40551388E-02 0.53755529E+02</pdfrwt>
<totfact> 0.36505459E+05</totfact>
</mgrwt>
</event>
<event>
 4    1  0.4029665E-002  0.5119800E+02  0.7818608E-02  0.1438985E+00
          1   -1    0    0    0  501  0.00000000000E+00  0.00000000000E+00  0.14130922998E+04  0.14130922999E+04  0.50400000000E-02 0. -1.
         -1   -1    0    0  501    0 -0.00000000000E+00 -0.00000000000E+00 -0.46372718709E+00  0.46375457480E+00  0.50400000000E-02 0. -1.
          2    1    1    2    0  502  0.75042169772E+01  0.19286440304E+02  0.29030752848E+03  0.29104422542E+03  0.25500000000E-02 0. -1.
         -2    1    1    2  502    0 -0.75042169772E+01 -0.19286440304E+02  0.11223210442E+04  0.11225118290E+04  0.25500000000E-02 0. -1.
<mgrwt>
<rscale>  0 0.51197995E+02</rscale>
<asrwt>0</asrwt>
<pdfrwt beam="1">  1        1 0.21739701E+00 0.51197995E+02</pdfrwt>
<pdfrwt beam="2">  1       -1 0.71345344E-04 0.51197995E+02</pdfrwt>
<totfact> 0.51041949E+05</totfact>
</mgrwt>
</event>
<event>
 4    1  0.4029665E-002  0.4162217E+02  0.7818608E-02  0.1496602E+00
          1   -1    0    0    0  501  0.00000000000E+00  0.00000000000E+00  0.21792752356E+04  0.21792752356E+04  0.50400000000E-02 0.  1.
         -1   -1    0    0  501    0 -0.00000000000E+00 -0.00000000000E+00 -0.19870437602E+00  0.19876828381E+00  0.50400000000E-02 0.  1.
          2    1    1    2    0  502  0.20112972988E+02  0.22979391723E+00  0.80991293972E+03  0.81016267158E+03  0.25500000000E-02 0.  1.
         -2    1    1    2  502    0 -0.20112972988E+02 -0.22979391723E+00  0.13691635915E+04  0.13693113323E+04  0.25500000000E-02 0.  1.
<mgrwt>
<rscale>  0 0.41622166E+02</rscale>
<asrwt>0</asrwt>
<pdfrwt beam="1">  1        1 0.33526364E+00 0.41622166E+02</pdfrwt>
<pdfrwt beam="2">  1       -1 0.30575685E-04 0.41622166E+02</pdfrwt>
<totfact> 0.51829437E+05</totfact>
</mgrwt>
</event>
<event>
 4    1  0.4029665E-002  0.4864261E+02  0.7818608E-02  0.1452803E+00
         -1   -1    0    0  501    0 -0.00000000000E+00  0.00000000000E+00  0.33112225139E+02  0.33112225523E+02  0.50400000000E-02 0. -1.
          1   -1    0    0    0  501  0.00000000000E+00 -0.00000000000E+00 -0.17864274435E+02  0.17864275146E+02  0.50400000000E-02 0. -1.
          2    1    1    2    0  502  0.20030474282E+02 -0.73898971712E+01  0.19831728297E+02  0.29139799826E+02  0.25500000000E-02 0.  1.
         -2    1    1    2  502    0 -0.20030474282E+02  0.73898971712E+01 -0.45837775933E+01  0.21836700843E+02  0.25500000000E-02 0.  1.
<mgrwt>
<rscale>  0 0.48642611E+02</rscale>
<asrwt>0</asrwt>
<pdfrwt beam="2">  1        1 0.27483500E-02 0.48642611E+02</pdfrwt>
<pdfrwt beam="1">  1       -1 0.50941885E-02 0.48642611E+02</pdfrwt>
<totfact> 0.45575644E+05</totfact>
</mgrwt>
</event>
<event>
 4    1  0.4029665E-002  0.4069244E+02  0.7818608E-02  0.1503177E+00
          1   -1    0    0    0  501  0.00000000000E+00  0.00000000000E+00  0.86038250004E+02  0.86038250151E+02  0.50400000000E-02 0. -1.
         -1   -1    0    0  501    0 -0.00000000000E+00 -0.00000000000E+00 -0.48114479670E+01  0.48114506067E+01  0.50400000000E-02 0. -1.
          2    1    1    2    0  502 -0.86936039770E+01 -0.18284776968E+02  0.45110215794E+02  0.49445357662E+02  0.25500000000E-02 0. -1.
         -2    1    1    2  502    0  0.86936039770E+01  0.18284776968E+02  0.36116586243E+02  0.41404343096E+02  0.25500000000E-02 0. -1.
<mgrwt>
<rscale>  0 0.40692441E+02</rscale>
<asrwt>0</asrwt>
<pdfrwt beam="1">  1        1 0.13236654E-01 0.40692441E+02</pdfrwt>
<pdfrwt beam="2">  1       -1 0.74022298E-03 0.40692441E+02</pdfrwt>
<totfact> 0.82807810E+05</totfact>
</mgrwt>
</event>
<event>
 4    1  0.4029665E-002  0.6128735E+02  0.7818608E-02  0.1392507E+00
          1   -1    0    0    0  501  0.00000000000E+00  0.00000000000E+00  0.29143091592E+02  0.29143092028E+02  0.50400000000E-02 0.  1.
         -1   -1    0    0  501    0 -0.00000000000E+00 -0.00000000000E+00 -0.32221521933E+02  0.32221522327E+02  0.50400000000E-02 0.  1.
          2    1    1    2    0  502 -0.23845749814E+02  0.15334699130E+02 -0.13184096797E+02  0.31266486794E+02  0.25500000000E-02 0.  1.
         -2    1    1    2  502    0  0.23845749814E+02 -0.15334699130E+02  0.10105666456E+02  0.30098127560E+02  0.25500000000E-02 0.  1.
<mgrwt>
<rscale>  0 0.61287349E+02</rscale>
<asrwt>0</asrwt>
<pdfrwt beam="1">  1        1 0.44835526E-02 0.61287349E+02</pdfrwt>
<pdfrwt beam="2">  1       -1 0.49571573E-02 0.61287349E+02</pdfrwt>
<totfact> 0.25949298E+05</totfact>
</mgrwt>
</event>
<event>
 4    1  0.4029665E-002  0.4536855E+02  0.7818608E-02  0.1472054E+00
          1   -1    0    0    0  501  0.00000000000E+00  0.00000000000E+00  0.69224829347E+01  0.69224847694E+01  0.50400000000E-02 0.  1.
         -1   -1    0    0  501    0 -0.00000000000E+00 -0.00000000000E+00 -0.74334061592E+02  0.74334061762E+02  0.50400000000E-02 0.  1.
          2    1    1    2    0  502  0.20313768723E+02  0.13066917990E+00 -0.51786354831E+02  0.55628165773E+02  0.25500000000E-02 0.  1.
         -2    1    1    2  502    0 -0.20313768723E+02 -0.13066917990E+00 -0.15625223826E+02  0.25628380758E+02  0.25500000000E-02 0.  1.
<mgrwt>
<rscale>  0 0.45368551E+02</rscale>
<asrwt>0</asrwt>
<pdfrwt beam="1">  1        1 0.10649976E-02 0.45368551E+02</pdfrwt>
<pdfrwt beam="2">  1       -1 0.11436009E-01 0.45368551E+02</pdfrwt>
<totfact> 0.49423807E+05</totfact>
</mgrwt>
</event>
<event>
 4    1  0.4029665E-002  0.6274020E+02  0.7818608E-02  0.1386679E+00
          1   -1    0    0    0  501  0.00000000000E+00  0.00000000000E+00  0.33529782616E+03  0.33529782620E+03  0.50400000000E-02 0. -1.
         -1   -1    0    0  501    0 -0.00000000000E+00 -0.00000000000E+00 -0.29349502495E+01  0.29349545769E+01  0.50400000000E-02 0. -1.
          2    1    1    2    0  502  0.21241160612E+02  0.10264252459E+02  0.27765166302E+03  0.27865209091E+03  0.25500000000E-02 0.  1.
         -2    1    1    2  502    0 -0.21241160612E+02 -0.10264252459E+02  0.54711212893E+02  0.59580689870E+02  0.25500000000E-02 0.  1.
<mgrwt>
<rscale>  0 0.62740200E+02</rscale>
<asrwt>0</asrwt>
<pdfrwt beam="1">  1        1 0.51584234E-01 0.62740200E+02</pdfrwt>
<pdfrwt beam="2">  1       -1 0.45153155E-03 0.62740200E+02</pdfrwt>
<totfact> 0.34688533E+05</totfact>
</mgrwt>
</event>
<event>
 4    1  0.4029665E-002  0.6642722E+02  0.7818608E-02  0.1372682E+00
          1   -1    0    0    0  501  0.00000000000E+00  0.00000000000E+00  0.12156627496E+03  0.12156627506E+03  0.50400000000E-02 0. -1.
         -1   -1    0    0  501    0 -0.00000000000E+00 -0.00000000000E+00 -0.90744239295E+01  0.90744253291E+01  0.50400000000E-02 0. -1.
          2    1    1    2    0  502  0.20854855963E+02  0.24637455540E+02  0.40858692807E+02  0.52070740509E+02  0.25500000000E-02 0. -1.
         -2    1    1    2  502    0 -0.20854855963E+02 -0.24637455540E+02  0.71633158220E+02  0.78569959881E+02  0.25500000000E-02 0. -1.
<mgrwt>
<rscale>  0 0.66427224E+02</rscale>
<asrwt>0</asrwt>
<pdfrwt beam="1">  1        1 0.18702503E-01 0.66427224E+02</pdfrwt>
<pdfrwt beam="2">  1       -1 0.13960654E-02 0.66427224E+02</pdfrwt>
<totfact> 0.25057536E+05</totfact>
</mgrwt>
</event>
<event>
 4    1  0.4029665E-002  0.4472489E+02  0.7818608E-02  0.1476066E+00
          1   -1    0    0    0  501  0.00000000000E+00  0.00000000000E+00  0.14391623297E+03  0.14391623306E+03  0.50400000000E-02 0. -1.
         -1   -1    0    0  501    0 -0.00000000000E+00 -0.00000000000E+00 -0.34747900866E+01  0.34747937417E+01  0.50400000000E-02 0. -1.
          2    1    1    2    0  502  0.22236035779E+02 -0.83921194661E+00  0.77540452804E+02  0.80670114611E+02  0.25500000000E-02 0. -1.
         -2    1    1    2  502    0 -0.22236035779E+02  0.83921194661E+00  0.62900990080E+02  0.66720912190E+02  0.25500000000E-02 0. -1.
<mgrwt>
<rscale>  0 0.44724891E+02</rscale>
<asrwt>0</asrwt>
<pdfrwt beam="1">  1        1 0.22140960E-01 0.44724891E+02</pdfrwt>
<pdfrwt beam="2">  1       -1 0.53458336E-03 0.44724891E+02</pdfrwt>
<totfact> 0.70311867E+05</totfact>
</mgrwt>
</event>
<event>
 4    1  0.4029665E-002  0.4970214E+02  0.7818608E-02  0.1446955E+00
         -1   -1    0    0  501    0 -0.00000000000E+00  0.00000000000E+00  0.25305922123E+01  0.25305972312E+01  0.50400000000E-02 0.  1.
          1   -1    0    0    0  501  0.00000000000E+00 -0.00000000000E+00 -0.24404373460E+03  0.24404373465E+03  0.50400000000E-02 0.  1.
          2    1    1    2    0  502  0.15222830837E+02  0.13171123535E+02 -0.48460970023E+02  0.52475505675E+02  0.25500000000E-02 0. -1.
         -2    1    1    2  502    0 -0.15222830837E+02 -0.13171123535E+02 -0.19305217236E+03  0.19409882621E+03  0.25500000000E-02 0. -1.
<mgrwt>
<rscale>  0 0.49702145E+02</rscale>
<asrwt>0</asrwt>
<pdfrwt beam="2">  1        1 0.37545172E-01 0.49702145E+02</pdfrwt>
<pdfrwt beam="1">  1       -1 0.38932246E-03 0.49702145E+02</pdfrwt>
<totfact> 0.59073510E+05</totfact>
</mgrwt>
</event>
<event>
 4    1  0.4029665E-002  0.7618785E+02  0.7818608E-02  0.1340232E+00
          1   -1    0    0    0  501  0.00000000000E+00  0.00000000000E+00  0.18635756486E+02  0.18635757167E+02  0.50400000000E-02 0.  1.
         -1   -1    0    0  501    0 -0.00000000000E+00 -0.00000000000E+00 -0.77868958701E+02  0.77868958864E+02  0.50400000000E-02 0.  1.
          2    1    1    2    0  502 -0.32972195437E+02 -0.63850815688E+01 -0.68443161943E+01  0.34275058122E+02  0.25500000000E-02 0. -1.
         -2    1    1    2  502    0  0.32972195437E+02  0.63850815688E+01 -0.52388886021E+02  0.62229657910E+02  0.25500000000E-02 0. -1.
<mgrwt>
<rscale>  0 0.76187847E+02</rscale>
<asrwt>0</asrwt>
<pdfrwt beam="1">  1        1 0.28670396E-02 0.76187847E+02</pdfrwt>
<pdfrwt beam="2">  1       -1 0.11979840E-01 0.76187847E+02</pdfrwt>
<totfact> 0.13444411E+05</totfact>
</mgrwt>
</event>
<event>
 4    1  0.4029665E-002  0.4655144E+02  0.7818608E-02  0.1464882E+00
          1   -1    0    0    0  501  0.00000000000E+00  0.00000000000E+00  0.12953694200E+02  0.12953695180E+02  0.50400000000E-02 0. -1.
         -1   -1    0    0  501    0 -0.00000000000E+00 -0.00000000000E+00 -0.41822755711E+02  0.41822756014E+02  0.50400000000E-02 0. -1.
          2    1    1    2    0  502  0.11033912099E+02  0.19979502840E+02 -0.19805104257E+02  0.30218701347E+02  0.25500000000E-02 0. -1.
         -2    1    1    2  502    0 -0.11033912099E+02 -0.19979502840E+02 -0.90639572535E+01  0.24557749847E+02  0.25500000000E-02 0. -1.
<mgrwt>
<rscale>  0 0.46551444E+02</rscale>
<asrwt>0</asrwt>
<pdfrwt beam="1">  1        1 0.19928762E-02 0.46551444E+02</pdfrwt>
<pdfrwt beam="2">  1       -1 0.64342701E-02 0.46551444E+02</pdfrwt>
<totfact> 0.49599825E+05</totfact>
</mgrwt>
</event>
<event>
 4    1  0.4029665E-002  0.4623950E+02  0.7818608E-02  0.1466749E+00
         -1   -1    0    0  501    0 -0.00000000000E+00  0.00000000000E+00  0.73970860445E+00  0.73972577425E+00  0.50400000000E-02 0. -1.
          1   -1    0    0    0  501  0.00000000000E+00 -0.00000000000E+00 -0.72260437907E+03  0.72260437909E+03  0.50400000000E-02 0. -1.
          2    1    1    2    0  502 -0.25043124091E+01 -0.21718857979E+02 -0.24330199518E+03  0.24428229825E+03  0.25500000000E-02 0. -1.
         -2    1    1    2  502    0  0.25043124091E+01  0.21718857979E+02 -0.47856267528E+03  0.47906180661E+03  0.25500000000E-02 0. -1.
<mgrwt>
<rscale>  0 0.46239502E+02</rscale>
<asrwt>0</asrwt>
<pdfrwt beam="2">  1        1 0.11116934E+00 0.46239502E+02</pdfrwt>
<pdfrwt beam="1">  1       -1 0.11380322E-03 0.46239502E+02</pdfrwt>
<totfact> 0.80425379E+05</totfact>
</mgrwt>
</event>
<event>
 4    1  0.4029665E-002  0.4595973E+02  0.7818608E-02  0.1468438E+00
          1   -1    0    0    0  501  0.00000000000E+00  0.00000000000E+00  0.25446588038E+02  0.25446588537E+02  0.50400000000E-02 0. -1.
         -1   -1    0    0  501    0 -0.00000000000E+00 -0.00000000000E+00 -0.20752261716E+02  0.20752262328E+02  0.50400000000E-02 0. -1.
          2    1    1    2    0  502  0.20351041445E+02 -0.35193963887E+01  0.12475459360E+02  0.24128575001E+02  0.25500000000E-02 0.  1.
         -2    1    1    2  502    0 -0.20351041445E+02  0.35193963887E+01 -0.77811330383E+01  0.22070275864E+02  0.25500000000E-02 0.  1.
<mgrwt>
<rscale>  0 0.45959734E+02</rscale>
<asrwt>0</asrwt>
<pdfrwt beam="1">  1        1 0.39148598E-02 0.45959734E+02</pdfrwt>
<pdfrwt beam="2">  1       -1 0.31926557E-02 0.45959734E+02</pdfrwt>
<totfact> 0.54454023E+05</totfact>
</mgrwt>
</event>
<event>
 4    1  0.4029665E-002  0.7135257E+02  0.7818608E-02  0.1355553E+00
         -1   -1    0    0  501    0 -0.00000000000E+00  0.00000000000E+00  0.47362362479E+01  0.47362389295E+01  0.50400000000E-02 0. -1.
          1   -1    0    0    0  501  0.00000000000E+00 -0.00000000000E+00 -0.26873591857E+03  0.26873591862E+03  0.50400000000E-02 0. -1.
          2    1    1    2    0  502 -0.34798145771E+02  0.10876650985E+01 -0.10213849952E+03  0.10790906846E+03  0.25500000000E-02 0.  1.
         -2    1    1    2  502    0  0.34798145771E+02 -0.10876650985E+01 -0.16186118280E+03  0.16556308909E+03  0.25500000000E-02 0.  1.
<mgrwt>
<rscale>  0 0.71352566E+02</rscale>
<asrwt>0</asrwt>
<pdfrwt beam="2">  1        1 0.41343976E-01 0.71352566E+02</pdfrwt>
<pdfrwt beam="1">  1       -1 0.72865215E-03 0.71352566E+02</pdfrwt>
<totfact> 0.23921449E+05</totfact>
</mgrwt>
</event>
<event>
 4    1  0.4029665E-002  0.6485742E+02  0.7818608E-02  0.1378509E+00
         -1   -1    0    0  501    0 -0.00000000000E+00  0.00000000000E+00  0.29362373459E+03  0.29362373464E+03  0.50400000000E-02 0.  1.
          1   -1    0    0    0  501  0.00000000000E+00 -0.00000000000E+00 -0.35815252532E+01  0.35815287994E+01  0.50400000000E-02 0.  1.
          2    1    1    2    0  502 -0.25753387058E+02  0.14395883800E+02  0.83346340277E+02  0.88414313657E+02  0.25500000000E-02 0. -1.
         -2    1    1    2  502    0  0.25753387058E+02 -0.14395883800E+02  0.20669586906E+03  0.20879094978E+03  0.25500000000E-02 0. -1.
<mgrwt>
<rscale>  0 0.64857424E+02</rscale>
<asrwt>0</asrwt>
<pdfrwt beam="2">  1        1 0.55100388E-03 0.64857424E+02</pdfrwt>
<pdfrwt beam="1">  1       -1 0.45172905E-01 0.64857424E+02</pdfrwt>
<totfact> 0.14713752E+05</totfact>
</mgrwt>
</event>
<event>
 4    1  0.4029665E-002  0.6516148E+02  0.7818608E-02  0.1377365E+00
         -1   -1    0    0  501    0 -0.00000000000E+00  0.00000000000E+00  0.41752292315E+01  0.41752322735E+01  0.50400000000E-02 0. -1.
          1   -1    0    0    0  501  0.00000000000E+00 -0.00000000000E+00 -0.25423854112E+03  0.25423854117E+03  0.50400000000E-02 0. -1.
          2    1    1    2    0  502 -0.21462042164E+02  0.20389600741E+02 -0.17899340366E+03  0.18142489805E+03  0.25500000000E-02 0. -1.
         -2    1    1    2  502    0  0.21462042164E+02 -0.20389600741E+02 -0.71069908226E+02  0.76988875391E+02  0.25500000000E-02 0. -1.
<mgrwt>
<rscale>  0 0.65161479E+02</rscale>
<asrwt>0</asrwt>
<pdfrwt beam="2">  1        1 0.39113610E-01 0.65161479E+02</pdfrwt>
<pdfrwt beam="1">  1       -1 0.64234339E-03 0.65161479E+02</pdfrwt>
<totfact> 0.29942905E+05</totfact>
</mgrwt>
</event>
<event>
 4    1  0.4029665E-002  0.7735468E+02  0.7818608E-02  0.1336731E+00
          1   -1    0    0    0  501  0.00000000000E+00  0.00000000000E+00  0.16700714314E+02  0.16700715075E+02  0.50400000000E-02 0. -1.
         -1   -1    0    0  501    0 -0.00000000000E+00 -0.00000000000E+00 -0.89573197890E+02  0.89573198032E+02  0.50400000000E-02 0. -1.
          2    1    1    2    0  502  0.15988348458E+02  0.27027534033E+02 -0.54157127962E+01  0.31866045157E+02  0.25500000000E-02 0.  1.
         -2    1    1    2  502    0 -0.15988348458E+02 -0.27027534033E+02 -0.67456770780E+02  0.74407867950E+02  0.25500000000E-02 0.  1.
<mgrwt>
<rscale>  0 0.77354675E+02</rscale>
<asrwt>0</asrwt>
<pdfrwt beam="1">  1        1 0.25693408E-02 0.77354675E+02</pdfrwt>
<pdfrwt beam="2">  1       -1 0.13780492E-01 0.77354675E+02</pdfrwt>
<totfact> 0.12644390E+05</totfact>
</mgrwt>
</event>
<event>
 4    1  0.4029665E-002  0.6977613E+02  0.7818608E-02  0.1360856E+00
          1   -1    0    0    0  501  0.00000000000E+00  0.00000000000E+00  0.43526243775E+02  0.43526244067E+02  0.50400000000E-02 0. -1.
         -1   -1    0    0  501    0 -0.00000000000E+00 -0.00000000000E+00 -0.27964211001E+02  0.27964211455E+02  0.50400000000E-02 0. -1.
          2    1    1    2    0  502 -0.31373589801E+02  0.10003532274E+02  0.19588224991E+02  0.38315419347E+02  0.25500000000E-02 0.  1.
         -2    1    1    2  502    0  0.31373589801E+02 -0.10003532274E+02 -0.40261922162E+01  0.33175036175E+02  0.25500000000E-02 0.  1.
<mgrwt>
<rscale>  0 0.69776130E+02</rscale>
<asrwt>0</asrwt>
<pdfrwt beam="1">  1        1 0.66963453E-02 0.69776130E+02</pdfrwt>
<pdfrwt beam="2">  1       -1 0.43021864E-02 0.69776130E+02</pdfrwt>
<totfact> 0.19169837E+05</totfact>
</mgrwt>
</event>
<event>
 4    1  0.4029665E-002  0.5323373E+02  0.7818608E-02  0.1428641E+00
          1   -1    0    0    0  501  0.00000000000E+00  0.00000000000E+00  0.10382222944E+04  0.10382222944E+04  0.50400000000E-02 0.  1.
         -1   -1    0    0  501    0 -0.00000000000E+00 -0.00000000000E+00 -0.68236619721E+00  0.68238480984E+00  0.50400000000E-02 0.  1.
          2    1    1    2    0  502 -0.29182681713E+01 -0.25763756626E+02  0.40139831590E+03  0.40223487599E+03  0.25500000000E-02 0. -1.
         -2    1    1    2  502    0  0.29182681713E+01  0.25763756626E+02  0.63614161231E+03  0.63666980324E+03  0.25500000000E-02 0. -1.
<mgrwt>
<rscale>  0 0.53233729E+02</rscale>
<asrwt>0</asrwt>
<pdfrwt beam="1">  1        1 0.15972663E+00 0.53233729E+02</pdfrwt>
<pdfrwt beam="2">  1       -1 0.10498077E-03 0.53233729E+02</pdfrwt>
<totfact> 0.53725024E+05</totfact>
</mgrwt>
</event>
<event>
 4    1  0.4029665E-002  0.6366214E+02  0.7818608E-02  0.1383076E+00
         -1   -1    0    0  501    0 -0.00000000000E+00  0.00000000000E+00  0.78473587824E+03  0.78473587826E+03  0.50400000000E-02 0. -1.
          1   -1    0    0    0  501  0.00000000000E+00 -0.00000000000E+00 -0.12911519273E+01  0.12911617641E+01  0.50400000000E-02 0. -1.
          2    1    1    2    0  502  0.27741436257E+02  0.39049379854E+01  0.57831155551E+03  0.57898971586E+03  0.25500000000E-02 0.  1.
         -2    1    1    2  502    0 -0.27741436257E+02 -0.39049379854E+01  0.20513317081E+03  0.20703732417E+03  0.25500000000E-02 0.  1.
<mgrwt>
<rscale>  0 0.63662143E+02</rscale>
<asrwt>0</asrwt>
<pdfrwt beam="2">  1        1 0.19863910E-03 0.63662143E+02</pdfrwt>
<pdfrwt beam="1">  1       -1 0.12072885E+00 0.63662143E+02</pdfrwt>
<totfact> 0.84212421E+04</totfact>
</mgrwt>
</event>
<event>
 4    1  0.4029665E-002  0.7517519E+02  0.7818608E-02  0.1343329E+00
         -1   -1    0    0  501    0 -0.00000000000E+00  0.00000000000E+00  0.15018649635E+02  0.15018650481E+02  0.50400000000E-02 0.  1.
          1   -1    0    0    0  501  0.00000000000E+00 -0.00000000000E+00 -0.94071518273E+02  0.94071518408E+02  0.50400000000E-02 0.  1.
          2    1    1    2    0  502  0.31775336388E+02 -0.19279982034E+02 -0.47662888180E+02  0.60441216284E+02  0.25500000000E-02 0. -1.
         -2    1    1    2  502    0 -0.31775336388E+02  0.19279982034E+02 -0.31389980458E+02  0.48648952604E+02  0.25500000000E-02 0. -1.
<mgrwt>
<rscale>  0 0.75175188E+02</rscale>
<asrwt>0</asrwt>
<pdfrwt beam="2">  1        1 0.14472541E-01 0.75175188E+02</pdfrwt>
<pdfrwt beam="1">  1       -1 0.23105616E-02 0.75175188E+02</pdfrwt>
<totfact> 0.17396811E+05</totfact>
</mgrwt>
</event>
<event>
 4    1  0.4029665E-002  0.4948521E+02  0.7818608E-02  0.1448138E+00
         -1   -1    0    0  501    0 -0.00000000000E+00  0.00000000000E+00  0.22542046573E+02  0.22542047137E+02  0.50400000000E-02 0.  1.
          1   -1    0    0    0  501  0.00000000000E+00 -0.00000000000E+00 -0.27157978962E+02  0.27157979430E+02  0.50400000000E-02 0.  1.
          2    1    1    2    0  502 -0.22849035761E+02 -0.55754070782E+01  0.54086710227E+01  0.24133324015E+02  0.25500000000E-02 0. -1.
         -2    1    1    2  502    0  0.22849035761E+02  0.55754070782E+01 -0.10024603412E+02  0.25566702551E+02  0.25500000000E-02 0. -1.
<mgrwt>
<rscale>  0 0.49485208E+02</rscale>
<asrwt>0</asrwt>
<pdfrwt beam="2">  1        1 0.41781507E-02 0.49485208E+02</pdfrwt>
<pdfrwt beam="1">  1       -1 0.34680073E-02 0.49485208E+02</pdfrwt>
<totfact> 0.45261461E+05</totfact>
</mgrwt>
</event>
<event>
 4    1  0.4029665E-002  0.4126103E+02  0.7818608E-02  0.1499131E+00
          1   -1    0    0    0  501  0.00000000000E+00  0.00000000000E+00  0.22592691020E+02  0.22592691582E+02  0.50400000000E-02 0. -1.
         -1   -1    0    0  501    0 -0.00000000000E+00 -0.00000000000E+00 -0.18838757371E+02  0.18838758045E+02  0.50400000000E-02 0. -1.
          2    1    1    2    0  502  0.19234820244E+02  0.74316069104E+01  0.25208268819E+01  0.20774062331E+02  0.25500000000E-02 0. -1.
         -2    1    1    2  502    0 -0.19234820244E+02 -0.74316069104E+01  0.12331067668E+01  0.20657387295E+02  0.25500000000E-02 0. -1.
<mgrwt>
<rscale>  0 0.41261035E+02</rscale>
<asrwt>0</asrwt>
<pdfrwt beam="1">  1        1 0.34757987E-02 0.41261035E+02</pdfrwt>
<pdfrwt beam="2">  1       -1 0.28982705E-02 0.41261035E+02</pdfrwt>
<totfact> 0.70998225E+05</totfact>
</mgrwt>
</event>
<event>
 4    1  0.4029665E-002  0.4764102E+02  0.7818608E-02  0.1458497E+00
         -1   -1    0    0  501    0 -0.00000000000E+00  0.00000000000E+00  0.23530910763E+03  0.23530910768E+03  0.50400000000E-02 0. -1.
          1   -1    0    0    0  501  0.00000000000E+00 -0.00000000000E+00 -0.24113644879E+01  0.24113697549E+01  0.50400000000E-02 0. -1.
          2    1    1    2    0  502  0.23088222699E+02  0.78948664439E+00  0.14542741629E+03  0.14725088364E+03  0.25500000000E-02 0.  1.
         -2    1    1    2  502    0 -0.23088222699E+02 -0.78948664439E+00  0.87470326853E+02  0.90469593803E+02  0.25500000000E-02 0.  1.
<mgrwt>
<rscale>  0 0.47641018E+02</rscale>
<asrwt>0</asrwt>
<pdfrwt beam="2">  1        1 0.37097963E-03 0.47641018E+02</pdfrwt>
<pdfrwt beam="1">  1       -1 0.36201395E-01 0.47641018E+02</pdfrwt>
<totfact> 0.34424058E+05</totfact>
</mgrwt>
</event>
<event>
 4    1  0.4029665E-002  0.4989724E+02  0.7818608E-02  0.1445897E+00
         -1   -1    0    0  501    0 -0.00000000000E+00  0.00000000000E+00  0.22547317071E+01  0.22547373401E+01  0.50400000000E-02 0.  1.
          1   -1    0    0    0  501  0.00000000000E+00 -0.00000000000E+00 -0.27605624759E+03  0.27605624764E+03  0.50400000000E-02 0.  1.
          2    1    1    2    0  502 -0.73792031207E+01  0.20688166405E+02 -0.20289224518E+03  0.20407772055E+03  0.25500000000E-02 0.  1.
         -2    1    1    2  502    0  0.73792031207E+01 -0.20688166405E+02 -0.70909270707E+02  0.74233264421E+02  0.25500000000E-02 0.  1.
<mgrwt>
<rscale>  0 0.49897237E+02</rscale>
<asrwt>0</asrwt>
<pdfrwt beam="2">  1        1 0.42470166E-01 0.49897237E+02</pdfrwt>
<pdfrwt beam="1">  1       -1 0.34688246E-03 0.49897237E+02</pdfrwt>
<totfact> 0.59789364E+05</totfact>
</mgrwt>
</event>
<event>
 4    1  0.4029665E-002  0.4775002E+02  0.7818608E-02  0.1457869E+00
          1   -1    0    0    0  501  0.00000000000E+00  0.00000000000E+00  0.87659776785E+03  0.87659776786E+03  0.50400000000E-02 0. -1.
         -1   -1    0    0  501    0 -0.00000000000E+00 -0.00000000000E+00 -0.65024986564E+00  0.65026939753E+00  0.50400000000E-02 0. -1.
          2    1    1    2    0  502  0.12353265378E+02 -0.20429334902E+02  0.43365513567E+03  0.43431179767E+03  0.25500000000E-02 0.  1.
         -2    1    1    2  502    0 -0.12353265378E+02  0.20429334902E+02  0.44229238231E+03  0.44293623959E+03  0.25500000000E-02 0.  1.
<mgrwt>
<rscale>  0 0.47750022E+02</rscale>
<asrwt>0</asrwt>
<pdfrwt beam="1">  1        1 0.13486134E+00 0.47750022E+02</pdfrwt>
<pdfrwt beam="2">  1       -1 0.10003984E-03 0.47750022E+02</pdfrwt>
<totfact> 0.73067864E+05</totfact>
</mgrwt>
</event>
<event>
 4    1  0.4029665E-002  0.4555491E+02  0.7818608E-02  0.1470907E+00
         -1   -1    0    0  501    0 -0.00000000000E+00  0.00000000000E+00  0.35005110129E+00  0.35008738211E+00  0.50400000000E-02 0. -1.
          1   -1    0    0    0  501  0.00000000000E+00 -0.00000000000E+00 -0.14820278602E+04  0.14820278602E+04  0.50400000000E-02 0. -1.
          2    1    1    2    0  502 -0.21524407483E+02  0.35035312445E+01 -0.95480955430E+03  0.95505856357E+03  0.25500000000E-02 0.  1.
         -2    1    1    2  502    0  0.21524407483E+02 -0.35035312445E+01 -0.52686825479E+03  0.52731938402E+03  0.25500000000E-02 0.  1.
<mgrwt>
<rscale>  0 0.45554907E+02</rscale>
<asrwt>0</asrwt>
<pdfrwt beam="2">  1        1 0.22799927E+00 0.45554907E+02</pdfrwt>
<pdfrwt beam="1">  1       -1 0.53857994E-04 0.45554907E+02</pdfrwt>
<totfact> 0.65871287E+05</totfact>
</mgrwt>
</event>
<event>
 4    1  0.4029665E-002  0.4397572E+02  0.7818608E-02  0.1480839E+00
         -1   -1    0    0  501    0 -0.00000000000E+00  0.00000000000E+00  0.32486736513E+00  0.32490645811E+00  0.50400000000E-02 0. -1.
          1   -1    0    0    0  501  0.00000000000E+00 -0.00000000000E+00 -0.14881053255E+04  0.14881053255E+04  0.50400000000E-02 0. -1.
          2    1    1    2    0  502 -0.21335251114E+02  0.47815485569E+01 -0.82261406712E+03  0.82290458716E+03  0.25500000000E-02 0.  1.
         -2    1    1    2  502    0  0.21335251114E+02 -0.47815485569E+01 -0.66516639105E+03  0.66552564484E+03  0.25500000000E-02 0.  1.
<mgrwt>
<rscale>  0 0.43975719E+02</rscale>
<asrwt>0</asrwt>
<pdfrwt beam="2">  1        1 0.22893383E+00 0.43975719E+02</pdfrwt>
<pdfrwt beam="1">  1       -1 0.49983794E-04 0.43975719E+02</pdfrwt>
<totfact> 0.71623673E+05</totfact>
</mgrwt>
</event>
<event>
 4    1  0.4029665E-002  0.6292332E+02  0.7818608E-02  0.1385958E+00
          1   -1    0    0    0  501  0.00000000000E+00  0.00000000000E+00  0.47249570920E+03  0.47249570923E+03  0.50400000000E-02 0. -1.
         -1   -1    0    0  501    0 -0.00000000000E+00 -0.00000000000E+00 -0.20949073160E+01  0.20949133787E+01  0.50400000000E-02 0. -1.
          2    1    1    2    0  502  0.12306956990E+02 -0.20270083469E+02  0.79254167722E+02  0.82725815692E+02  0.25500000000E-02 0.  1.
         -2    1    1    2  502    0 -0.12306956990E+02  0.20270083469E+02  0.39114663417E+03  0.39186480692E+03  0.25500000000E-02 0.  1.
<mgrwt>
<rscale>  0 0.62923324E+02</rscale>
<asrwt>0</asrwt>
<pdfrwt beam="1">  1        1 0.72691644E-01 0.62923324E+02</pdfrwt>
<pdfrwt beam="2">  1       -1 0.32229392E-03 0.62923324E+02</pdfrwt>
<totfact> 0.36289908E+05</totfact>
</mgrwt>
</event>
<event>
 4    1  0.4029665E-002  0.1084562E+03  0.7818608E-02  0.1263456E+00
         -1   -1    0    0  501    0 -0.00000000000E+00  0.00000000000E+00  0.21766913632E+02  0.21766914216E+02  0.50400000000E-02 0.  1.
          1   -1    0    0    0  501  0.00000000000E+00 -0.00000000000E+00 -0.13509904689E+03  0.13509904698E+03  0.50400000000E-02 0.  1.
          2    1    1    2    0  502 -0.48379277216E+02 -0.18844200601E+02 -0.79306494859E+02  0.94790181420E+02  0.25500000000E-02 0.  1.
         -2    1    1    2  502    0  0.48379277216E+02  0.18844200601E+02 -0.34025638397E+02  0.62075779779E+02  0.25500000000E-02 0.  1.
<mgrwt>
<rscale>  0 0.10845625E+03</rscale>
<asrwt>0</asrwt>
<pdfrwt beam="2">  1        1 0.20784468E-01 0.10845625E+03</pdfrwt>
<pdfrwt beam="1">  1       -1 0.33487561E-02 0.10845625E+03</pdfrwt>
<totfact> 0.68453417E+04</totfact>
</mgrwt>
</event>
<event>
 4    1  0.4029665E-002  0.7546168E+02  0.7818608E-02  0.1342447E+00
         -1   -1    0    0  501    0 -0.00000000000E+00  0.00000000000E+00  0.24628771551E+01  0.24628823120E+01  0.50400000000E-02 0.  1.
          1   -1    0    0    0  501  0.00000000000E+00 -0.00000000000E+00 -0.57802908683E+03  0.57802908685E+03  0.50400000000E-02 0.  1.
          2    1    1    2    0  502 -0.22551945850E+02 -0.29021407149E+02 -0.22215541491E+03  0.22517517784E+03  0.25500000000E-02 0. -1.
         -2    1    1    2  502    0  0.22551945850E+02  0.29021407149E+02 -0.35341079476E+03  0.35531679132E+03  0.25500000000E-02 0. -1.
<mgrwt>
<rscale>  0 0.75461676E+02</rscale>
<asrwt>0</asrwt>
<pdfrwt beam="2">  1        1 0.88927444E-01 0.75461676E+02</pdfrwt>
<pdfrwt beam="1">  1       -1 0.37890504E-03 0.75461676E+02</pdfrwt>
<totfact> 0.23195382E+05</totfact>
</mgrwt>
</event>
<event>
 4    1  0.4029665E-002  0.5383471E+02  0.7818608E-02  0.1425691E+00
          1   -1    0    0    0  501  0.00000000000E+00  0.00000000000E+00  0.16911394541E+02  0.16911395292E+02  0.50400000000E-02 0.  1.
         -1   -1    0    0  501    0 -0.00000000000E+00 -0.00000000000E+00 -0.42843541078E+02  0.42843541374E+02  0.50400000000E-02 0.  1.
          2    1    1    2    0  502  0.22929141244E+02 -0.80811975069E+00  0.26583312914E+01  0.23096867915E+02  0.25500000000E-02 0.  1.
         -2    1    1    2  502    0 -0.22929141244E+02  0.80811975069E+00 -0.28590477828E+02  0.36658068752E+02  0.25500000000E-02 0.  1.
<mgrwt>
<rscale>  0 0.53834712E+02</rscale>
<asrwt>0</asrwt>
<pdfrwt beam="1">  1        1 0.26017531E-02 0.53834712E+02</pdfrwt>
<pdfrwt beam="2">  1       -1 0.65913141E-02 0.53834712E+02</pdfrwt>
<totfact> 0.34649093E+05</totfact>
</mgrwt>
</event>
<event>
 4    1  0.4029665E-002  0.4336350E+02  0.7818608E-02  0.1484824E+00
         -1   -1    0    0  501    0 -0.00000000000E+00  0.00000000000E+00  0.49860167602E+01  0.49860193075E+01  0.50400000000E-02 0.  1.
          1   -1    0    0    0  501  0.00000000000E+00 -0.00000000000E+00 -0.94283294791E+02  0.94283294926E+02  0.50400000000E-02 0.  1.
          2    1    1    2    0  502  0.46253151814E+01  0.20337061931E+02 -0.58212939196E+02  0.61836364098E+02  0.25500000000E-02 0.  1.
         -2    1    1    2  502    0 -0.46253151814E+01 -0.20337061931E+02 -0.31084338835E+02  0.37432950135E+02  0.25500000000E-02 0.  1.
<mgrwt>
<rscale>  0 0.43363497E+02</rscale>
<asrwt>0</asrwt>
<pdfrwt beam="2">  1        1 0.14505121E-01 0.43363497E+02</pdfrwt>
<pdfrwt beam="1">  1       -1 0.76707978E-03 0.43363497E+02</pdfrwt>
<totfact> 0.71565442E+05</totfact>
</mgrwt>
</event>
<event>
 4    1  0.4029665E-002  0.5297145E+02  0.7818608E-02  0.1429943E+00
          1   -1    0    0    0  501  0.00000000000E+00  0.00000000000E+00  0.43185248257E+01  0.43185277667E+01  0.50400000000E-02 0. -1.
         -1   -1    0    0  501    0 -0.00000000000E+00 -0.00000000000E+00 -0.16243820638E+03  0.16243820646E+03  0.50400000000E-02 0. -1.
          2    1    1    2    0  502 -0.17115681171E+02  0.12161504877E+02 -0.12988352511E+03  0.13156967297E+03  0.25500000000E-02 0. -1.
         -2    1    1    2  502    0  0.17115681171E+02 -0.12161504877E+02 -0.28236156444E+02  0.35187061259E+02  0.25500000000E-02 0. -1.
<mgrwt>
<rscale>  0 0.52971452E+02</rscale>
<asrwt>0</asrwt>
<pdfrwt beam="1">  1        1 0.66438879E-03 0.52971452E+02</pdfrwt>
<pdfrwt beam="2">  1       -1 0.24990489E-01 0.52971452E+02</pdfrwt>
<totfact> 0.29292730E+05</totfact>
</mgrwt>
</event>
<event>
 4    1  0.4029665E-002  0.5884788E+02  0.7818608E-02  0.1402731E+00
          1   -1    0    0    0  501  0.00000000000E+00  0.00000000000E+00  0.10454107676E+02  0.10454108891E+02  0.50400000000E-02 0. -1.
         -1   -1    0    0  501    0 -0.00000000000E+00 -0.00000000000E+00 -0.82816074652E+02  0.82816074806E+02  0.50400000000E-02 0. -1.
          2    1    1    2    0  502  0.85369966620E+01  0.20237627684E+02 -0.51499426960E+01  0.22560226119E+02  0.25500000000E-02 0. -1.
         -2    1    1    2  502    0 -0.85369966620E+01 -0.20237627684E+02 -0.67212024280E+02  0.70709957577E+02  0.25500000000E-02 0. -1.
<mgrwt>
<rscale>  0 0.58847879E+02</rscale>
<asrwt>0</asrwt>
<pdfrwt beam="1">  1        1 0.16083244E-02 0.58847879E+02</pdfrwt>
<pdfrwt beam="2">  1       -1 0.12740934E-01 0.58847879E+02</pdfrwt>
<totfact> 0.25558953E+05</totfact>
</mgrwt>
</event>
<event>
 4    1  0.4029665E-002  0.8678646E+02  0.7818608E-02  0.1310826E+00
         -1   -1    0    0  501    0 -0.00000000000E+00  0.00000000000E+00  0.14366346158E+01  0.14366434565E+01  0.50400000000E-02 0. -1.
          1   -1    0    0    0  501  0.00000000000E+00 -0.00000000000E+00 -0.13106789307E+04  0.13106789307E+04  0.50400000000E-02 0. -1.
          2    1    1    2    0  502  0.11185169308E+02 -0.23578355180E+02 -0.11787751539E+04  0.11790639975E+04  0.25500000000E-02 0. -1.
         -2    1    1    2  502    0 -0.11185169308E+02  0.23578355180E+02 -0.13046714217E+03  0.13305157661E+03  0.25500000000E-02 0. -1.
<mgrwt>
<rscale>  0 0.86786463E+02</rscale>
<asrwt>0</asrwt>
<pdfrwt beam="2">  1        1 0.20164196E+00 0.86786463E+02</pdfrwt>
<pdfrwt beam="1">  1       -1 0.22102244E-03 0.86786463E+02</pdfrwt>
<totfact> 0.13839132E+05</totfact>
</mgrwt>
</event>
<event>
 4    1  0.4029665E-002  0.9459656E+02  0.7818608E-02  0.1292087E+00
         -1   -1    0    0  501    0 -0.00000000000E+00  0.00000000000E+00  0.38666632383E+03  0.38666632386E+03  0.50400000000E-02 0. -1.
          1   -1    0    0    0  501  0.00000000000E+00 -0.00000000000E+00 -0.57856785403E+01  0.57856807355E+01  0.50400000000E-02 0. -1.
          2    1    1    2    0  502 -0.17483640738E+02 -0.43248613187E+02  0.22284456723E+03  0.22767481500E+03  0.25500000000E-02 0.  1.
         -2    1    1    2  502    0  0.17483640738E+02  0.43248613187E+02  0.15803607806E+03  0.16477718960E+03  0.25500000000E-02 0.  1.
<mgrwt>
<rscale>  0 0.94596564E+02</rscale>
<asrwt>0</asrwt>
<pdfrwt beam="2">  1        1 0.89010468E-03 0.94596564E+02</pdfrwt>
<pdfrwt beam="1">  1       -1 0.59487119E-01 0.94596564E+02</pdfrwt>
<totfact> 0.49204916E+04</totfact>
</mgrwt>
</event>
<event>
 4    1  0.4029665E-002  0.5153297E+02  0.7818608E-02  0.1437244E+00
         -1   -1    0    0  501    0 -0.00000000000E+00  0.00000000000E+00  0.71071436264E+00  0.71073223288E+00  0.50400000000E-02 0.  1.
          1   -1    0    0    0  501  0.00000000000E+00 -0.00000000000E+00 -0.93413537021E+03  0.93413537023E+03  0.50400000000E-02 0.  1.
          2    1    1    2    0  502  0.17613391771E+02  0.14332640470E+02 -0.68759443013E+03  0.68796929910E+03  0.25500000000E-02 0.  1.
         -2    1    1    2  502    0 -0.17613391771E+02 -0.14332640470E+02 -0.24583022572E+03  0.24687680336E+03  0.25500000000E-02 0.  1.
<mgrwt>
<rscale>  0 0.51532971E+02</rscale>
<asrwt>0</asrwt>
<pdfrwt beam="2">  1        1 0.14371215E+00 0.51532971E+02</pdfrwt>
<pdfrwt beam="1">  1       -1 0.10934279E-03 0.51532971E+02</pdfrwt>
<totfact> 0.59809699E+05</totfact>
</mgrwt>
</event>
<event>
 4    1  0.4029665E-002  0.4802261E+02  0.7818608E-02  0.1456308E+00
         -1   -1    0    0  501    0 -0.00000000000E+00  0.00000000000E+00  0.45227240289E+02  0.45227240570E+02  0.50400000000E-02 0.  1.
          1   -1    0    0    0  501  0.00000000000E+00 -0.00000000000E+00 -0.12747688994E+02  0.12747689991E+02  0.50400000000E-02 0.  1.
          2    1    1    2    0  502  0.14519330075E+02 -0.17312537682E+02  0.64315044025E+01  0.23492534179E+02  0.25500000000E-02 0. -1.
         -2    1    1    2  502    0 -0.14519330075E+02  0.17312537682E+02  0.26048046892E+02  0.34482396381E+02  0.25500000000E-02 0. -1.
<mgrwt>
<rscale>  0 0.48022613E+02</rscale>
<asrwt>0</asrwt>
<pdfrwt beam="2">  1        1 0.19611830E-02 0.48022613E+02</pdfrwt>
<pdfrwt beam="1">  1       -1 0.69580371E-02 0.48022613E+02</pdfrwt>
<totfact> 0.45605714E+05</totfact>
</mgrwt>
</event>
<event>
 4    1  0.4029665E-002  0.7752725E+02  0.7818608E-02  0.1336219E+00
         -1   -1    0    0  501    0 -0.00000000000E+00  0.00000000000E+00  0.67621552415E+00  0.67623430607E+00  0.50400000000E-02 0.  1.
          1   -1    0    0    0  501  0.00000000000E+00 -0.00000000000E+00 -0.22220692917E+04  0.22220692917E+04  0.50400000000E-02 0.  1.
          2    1    1    2    0  502 -0.66691368202E+00  0.37778051685E+02 -0.86241481687E+03  0.86324211107E+03  0.25500000000E-02 0.  1.
         -2    1    1    2  502    0  0.66691368202E+00 -0.37778051685E+02 -0.13589782593E+04  0.13595034149E+04  0.25500000000E-02 0.  1.
<mgrwt>
<rscale>  0 0.77527250E+02</rscale>
<asrwt>0</asrwt>
<pdfrwt beam="2">  1        1 0.34185097E+00 0.77527250E+02</pdfrwt>
<pdfrwt beam="1">  1       -1 0.10403638E-03 0.77527250E+02</pdfrwt>
<totfact> 0.10261516E+05</totfact>
</mgrwt>
</event>
<event>
 4    1  0.4029665E-002  0.4035980E+02  0.7818608E-02  0.1505580E+00
          1   -1    0    0    0  501  0.00000000000E+00  0.00000000000E+00  0.46881526940E+02  0.46881527211E+02  0.50400000000E-02 0. -1.
         -1   -1    0    0  501    0 -0.00000000000E+00 -0.00000000000E+00 -0.86863259379E+01  0.86863274001E+01  0.50400000000E-02 0. -1.
          2    1    1    2    0  502  0.20071490209E+02 -0.76054653254E+00  0.21776239613E+02  0.29625120564E+02  0.25500000000E-02 0. -1.
         -2    1    1    2  502    0 -0.20071490209E+02  0.76054653254E+00  0.16418961389E+02  0.25942734047E+02  0.25500000000E-02 0. -1.
<mgrwt>
<rscale>  0 0.40359795E+02</rscale>
<asrwt>0</asrwt>
<pdfrwt beam="1">  1        1 0.72125428E-02 0.40359795E+02</pdfrwt>
<pdfrwt beam="2">  1       -1 0.13363580E-02 0.40359795E+02</pdfrwt>
<totfact> 0.79465617E+05</totfact>
</mgrwt>
</event>
<event>
 4    1  0.4029665E-002  0.6727986E+02  0.7818608E-02  0.1369595E+00
          1   -1    0    0    0  501  0.00000000000E+00  0.00000000000E+00  0.51400775049E+03  0.51400775051E+03  0.50400000000E-02 0.  1.
         -1   -1    0    0  501    0 -0.00000000000E+00 -0.00000000000E+00 -0.22016076461E+01  0.22016134149E+01  0.50400000000E-02 0.  1.
          2    1    1    2    0  502 -0.23766738925E+02  0.16861699243E+02  0.38485476279E+03  0.38595642659E+03  0.25500000000E-02 0.  1.
         -2    1    1    2  502    0  0.23766738925E+02 -0.16861699243E+02  0.12695138006E+03  0.13025293734E+03  0.25500000000E-02 0.  1.
<mgrwt>
<rscale>  0 0.67279860E+02</rscale>
<asrwt>0</asrwt>
<pdfrwt beam="1">  1        1 0.79078171E-01 0.67279860E+02</pdfrwt>
<pdfrwt beam="2">  1       -1 0.33870908E-03 0.67279860E+02</pdfrwt>
<totfact> 0.30873607E+05</totfact>
</mgrwt>
</event>
<event>
 4    1  0.4029665E-002  0.1152477E+03  0.7818608E-02  0.1251149E+00
         -1   -1    0    0  501    0 -0.00000000000E+00  0.00000000000E+00  0.21491586852E+01  0.21491645948E+01  0.50400000000E-02 0. -1.
          1   -1    0    0    0  501  0.00000000000E+00 -0.00000000000E+00 -0.15450244556E+04  0.15450244556E+04  0.50400000000E-02 0. -1.
          2    1    1    2    0  502  0.32293240781E+02  0.42251687658E+01 -0.13325937318E+03  0.13718150749E+03  0.25500000000E-02 0.  1.
         -2    1    1    2  502    0 -0.32293240781E+02 -0.42251687658E+01 -0.14096159237E+04  0.14099921127E+04  0.25500000000E-02 0.  1.
<mgrwt>
<rscale>  0 0.11524769E+03</rscale>
<asrwt>0</asrwt>
<pdfrwt beam="2">  1        1 0.23769518E+00 0.11524769E+03</pdfrwt>
<pdfrwt beam="1">  1       -1 0.33064149E-03 0.11524769E+03</pdfrwt>
<totfact> 0.57558759E+04</totfact>
</mgrwt>
</event>
<event>
 4    1  0.4029665E-002  0.5224466E+02  0.7818608E-02  0.1433597E+00
         -1   -1    0    0  501    0 -0.00000000000E+00  0.00000000000E+00  0.43189101162E+02  0.43189101456E+02  0.50400000000E-02 0. -1.
          1   -1    0    0    0  501  0.00000000000E+00 -0.00000000000E+00 -0.15799730965E+02  0.15799731769E+02  0.50400000000E-02 0. -1.
          2    1    1    2    0  502  0.18143319757E+02  0.18306490944E+02  0.18494112544E+02  0.31722860334E+02  0.25500000000E-02 0. -1.
         -2    1    1    2  502    0 -0.18143319757E+02 -0.18306490944E+02  0.88952576526E+01  0.27265972891E+02  0.25500000000E-02 0. -1.
<mgrwt>
<rscale>  0 0.52244663E+02</rscale>
<asrwt>0</asrwt>
<pdfrwt beam="2">  1        1 0.24307280E-02 0.52244663E+02</pdfrwt>
<pdfrwt beam="1">  1       -1 0.66444771E-02 0.52244663E+02</pdfrwt>
<totfact> 0.37273885E+05</totfact>
</mgrwt>
</event>
<event>
 4    1  0.4029665E-002  0.4786193E+02  0.7818608E-02  0.1457227E+00
          1   -1    0    0    0  501  0.00000000000E+00  0.00000000000E+00  0.27398981850E+03  0.27398981855E+03  0.50400000000E-02 0. -1.
         -1   -1    0    0  501    0 -0.00000000000E+00 -0.00000000000E+00 -0.20901876926E+01  0.20901937690E+01  0.50400000000E-02 0. -1.
          2    1    1    2    0  502  0.19013318539E+02  0.13695337059E+02  0.16398524583E+03  0.16565092634E+03  0.25500000000E-02 0.  1.
         -2    1    1    2  502    0 -0.19013318539E+02 -0.13695337059E+02  0.10791438498E+03  0.11042908598E+03  0.25500000000E-02 0.  1.
<mgrwt>
<rscale>  0 0.47861926E+02</rscale>
<asrwt>0</asrwt>
<pdfrwt beam="1">  1        1 0.42152244E-01 0.47861926E+02</pdfrwt>
<pdfrwt beam="2">  1       -1 0.32156808E-03 0.47861926E+02</pdfrwt>
<totfact> 0.66230027E+05</totfact>
</mgrwt>
</event>
<event>
 4    1  0.4029665E-002  0.7155311E+02  0.7818608E-02  0.1354890E+00
         -1   -1    0    0  501    0 -0.00000000000E+00  0.00000000000E+00  0.10111550325E+02  0.10111551581E+02  0.50400000000E-02 0. -1.
          1   -1    0    0    0  501  0.00000000000E+00 -0.00000000000E+00 -0.12658413575E+03  0.12658413585E+03  0.50400000000E-02 0. -1.
          2    1    1    2    0  502  0.46005059949E+01  0.29012748138E+02 -0.97250642919E+02  0.10159031334E+03  0.25500000000E-02 0.  1.
         -2    1    1    2  502    0 -0.46005059949E+01 -0.29012748138E+02 -0.19221942509E+02  0.35105374093E+02  0.25500000000E-02 0.  1.
<mgrwt>
<rscale>  0 0.71553112E+02</rscale>
<asrwt>0</asrwt>
<pdfrwt beam="2">  1        1 0.19474481E-01 0.71553112E+02</pdfrwt>
<pdfrwt beam="1">  1       -1 0.15556233E-02 0.71553112E+02</pdfrwt>
<totfact> 0.20760549E+05</totfact>
</mgrwt>
</event>
<event>
 4    1  0.4029665E-002  0.9834451E+02  0.7818608E-02  0.1283816E+00
         -1   -1    0    0  501    0 -0.00000000000E+00  0.00000000000E+00  0.95515924977E+01  0.95515938274E+01  0.50400000000E-02 0.  1.
          1   -1    0    0    0  501  0.00000000000E+00 -0.00000000000E+00 -0.25314214184E+03  0.25314214189E+03  0.50400000000E-02 0.  1.
          2    1    1    2    0  502 -0.81288336317E+01  0.42414382394E+02 -0.58988800021E+02  0.73107703455E+02  0.25500000000E-02 0.  1.
         -2    1    1    2  502    0  0.81288336317E+01 -0.42414382394E+02 -0.18460174932E+03  0.18958603227E+03  0.25500000000E-02 0.  1.
<mgrwt>
<rscale>  0 0.98344512E+02</rscale>
<asrwt>0</asrwt>
<pdfrwt beam="2">  1        1 0.38944940E-01 0.98344512E+02</pdfrwt>
<pdfrwt beam="1">  1       -1 0.14694761E-02 0.98344512E+02</pdfrwt>
<totfact> 0.10118902E+05</totfact>
</mgrwt>
</event>
<event>
 4    1  0.4029665E-002  0.6365215E+02  0.7818608E-02  0.1383114E+00
         -1   -1    0    0  501    0 -0.00000000000E+00  0.00000000000E+00  0.54850650365E+03  0.54850650367E+03  0.50400000000E-02 0.  1.
          1   -1    0    0    0  501  0.00000000000E+00 -0.00000000000E+00 -0.18466456964E+01  0.18466525741E+01  0.50400000000E-02 0.  1.
          2    1    1    2    0  502 -0.24739026195E+02  0.28026967788E+01  0.44474074136E+03  0.44543709046E+03  0.25500000000E-02 0.  1.
         -2    1    1    2  502    0  0.24739026195E+02 -0.28026967788E+01  0.10191911659E+03  0.10491606578E+03  0.25500000000E-02 0.  1.
<mgrwt>
<rscale>  0 0.63652151E+02</rscale>
<asrwt>0</asrwt>
<pdfrwt beam="2">  1        1 0.28409955E-03 0.63652151E+02</pdfrwt>
<pdfrwt beam="1">  1       -1 0.84385712E-01 0.63652151E+02</pdfrwt>
<totfact> 0.11216822E+05</totfact>
</mgrwt>
</event>
<event>
 4    1  0.4029665E-002  0.7987063E+02  0.7818608E-02  0.1329419E+00
          1   -1    0    0    0  501  0.00000000000E+00  0.00000000000E+00  0.38374986486E+01  0.38375019583E+01  0.50400000000E-02 0. -1.
         -1   -1    0    0  501    0 -0.00000000000E+00 -0.00000000000E+00 -0.41559071357E+03  0.41559071360E+03  0.50400000000E-02 0. -1.
          2    1    1    2    0  502 -0.24523812646E+02  0.31405908738E+02 -0.21985051868E+03  0.22343231427E+03  0.25500000000E-02 0. -1.
         -2    1    1    2  502    0  0.24523812646E+02 -0.31405908738E+02 -0.19190269625E+03  0.19599590130E+03  0.25500000000E-02 0. -1.
<mgrwt>
<rscale>  0 0.79870633E+02</rscale>
<asrwt>0</asrwt>
<pdfrwt beam="1">  1        1 0.59038499E-03 0.79870633E+02</pdfrwt>
<pdfrwt beam="2">  1       -1 0.63936998E-01 0.79870633E+02</pdfrwt>
<totfact> 0.73788273E+04</totfact>
</mgrwt>
</event>
<event>
 4    1  0.4029665E-002  0.4891298E+02  0.7818608E-02  0.1451294E+00
         -1   -1    0    0  501    0 -0.00000000000E+00  0.00000000000E+00  0.10482263543E+01  0.10482384707E+01  0.50400000000E-02 0.  1.
          1   -1    0    0    0  501  0.00000000000E+00 -0.00000000000E+00 -0.57059863899E+03  0.57059863901E+03  0.50400000000E-02 0.  1.
          2    1    1    2    0  502  0.71203541078E-01 -0.24441990724E+02 -0.27496915383E+03  0.27605334909E+03  0.25500000000E-02 0. -1.
         -2    1    1    2  502    0 -0.71203541078E-01  0.24441990724E+02 -0.29458125880E+03  0.29559352839E+03  0.25500000000E-02 0. -1.
<mgrwt>
<rscale>  0 0.48912984E+02</rscale>
<asrwt>0</asrwt>
<pdfrwt beam="2">  1        1 0.87784159E-01 0.48912984E+02</pdfrwt>
<pdfrwt beam="1">  1       -1 0.16126698E-03 0.48912984E+02</pdfrwt>
<totfact> 0.69629509E+05</totfact>
</mgrwt>
</event>
<event>
 4    1  0.4029665E-002  0.8575011E+02  0.7818608E-02  0.1313482E+00
          1   -1    0    0    0  501  0.00000000000E+00  0.00000000000E+00  0.77321517243E+03  0.77321517244E+03  0.50400000000E-02 0.  1.
         -1   -1    0    0  501    0 -0.00000000000E+00 -0.00000000000E+00 -0.23774342564E+01  0.23774395986E+01  0.50400000000E-02 0.  1.
          2    1    1    2    0  502  0.35567102408E+02  0.17723521468E+02  0.53101720890E+03  0.53250203581E+03  0.25500000000E-02 0.  1.
         -2    1    1    2  502    0 -0.35567102408E+02 -0.17723521468E+02  0.23982052927E+03  0.24309057623E+03  0.25500000000E-02 0.  1.
<mgrwt>
<rscale>  0 0.85750109E+02</rscale>
<asrwt>0</asrwt>
<pdfrwt beam="1">  1        1 0.11895602E+00 0.85750109E+02</pdfrwt>
<pdfrwt beam="2">  1       -1 0.36576004E-03 0.85750109E+02</pdfrwt>
<totfact> 0.16653928E+05</totfact>
</mgrwt>
</event>
<event>
 4    1  0.4029665E-002  0.4624935E+02  0.7818608E-02  0.1466690E+00
         -1   -1    0    0  501    0 -0.00000000000E+00  0.00000000000E+00  0.19024942366E+01  0.19025009124E+01  0.50400000000E-02 0. -1.
          1   -1    0    0    0  501  0.00000000000E+00 -0.00000000000E+00 -0.28107825161E+03  0.28107825166E+03  0.50400000000E-02 0. -1.
          2    1    1    2    0  502  0.22044234224E+02 -0.64226541915E+01 -0.15640225402E+03  0.15807866339E+03  0.25500000000E-02 0. -1.
         -2    1    1    2  502    0 -0.22044234224E+02  0.64226541915E+01 -0.12277350335E+03  0.12490208918E+03  0.25500000000E-02 0. -1.
<mgrwt>
<rscale>  0 0.46249355E+02</rscale>
<asrwt>0</asrwt>
<pdfrwt beam="2">  1        1 0.43242775E-01 0.46249355E+02</pdfrwt>
<pdfrwt beam="1">  1       -1 0.29269216E-03 0.46249355E+02</pdfrwt>
<totfact> 0.72422661E+05</totfact>
</mgrwt>
</event>
<event>
 4    1  0.4029665E-002  0.4219531E+02  0.7818608E-02  0.1492651E+00
         -1   -1    0    0  501    0 -0.00000000000E+00  0.00000000000E+00  0.39300228813E+02  0.39300229136E+02  0.50400000000E-02 0. -1.
          1   -1    0    0    0  501  0.00000000000E+00 -0.00000000000E+00 -0.11325911737E+02  0.11325912858E+02  0.50400000000E-02 0. -1.
          2    1    1    2    0  502 -0.11856786715E+02 -0.17127327180E+02  0.17999286843E+02  0.27530039246E+02  0.25500000000E-02 0. -1.
         -2    1    1    2  502    0  0.11856786715E+02  0.17127327180E+02  0.99750302336E+01  0.23096102749E+02  0.25500000000E-02 0. -1.
<mgrwt>
<rscale>  0 0.42195306E+02</rscale>
<asrwt>0</asrwt>
<pdfrwt beam="2">  1        1 0.17424481E-02 0.42195306E+02</pdfrwt>
<pdfrwt beam="1">  1       -1 0.60461892E-02 0.42195306E+02</pdfrwt>
<totfact> 0.63339657E+05</totfact>
</mgrwt>
</event>
<event>
 4    1  0.4029665E-002  0.6049000E+02  0.7818608E-02  0.1395787E+00
         -1   -1    0    0  501    0 -0.00000000000E+00  0.00000000000E+00  0.77016492350E+01  0.77016508841E+01  0.50400000000E-02 0. -1.
          1   -1    0    0    0  501  0.00000000000E+00 -0.00000000000E+00 -0.11877454498E+03  0.11877454508E+03  0.50400000000E-02 0. -1.
          2    1    1    2    0  502 -0.21616513278E+02 -0.18939854484E+02 -0.35836999912E+02  0.45937809083E+02  0.25500000000E-02 0.  1.
         -2    1    1    2  502    0  0.21616513278E+02  0.18939854484E+02 -0.75235895828E+02  0.80538386883E+02  0.25500000000E-02 0.  1.
<mgrwt>
<rscale>  0 0.60489999E+02</rscale>
<asrwt>0</asrwt>
<pdfrwt beam="2">  1        1 0.18273006E-01 0.60489999E+02</pdfrwt>
<pdfrwt beam="1">  1       -1 0.11848693E-02 0.60489999E+02</pdfrwt>
<totfact> 0.31828958E+05</totfact>
</mgrwt>
</event>
<event>
 4    1  0.4029665E-002  0.7729047E+02  0.7818608E-02  0.1336921E+00
         -1   -1    0    0  501    0 -0.00000000000E+00  0.00000000000E+00  0.11175825250E+02  0.11175826387E+02  0.50400000000E-02 0. -1.
          1   -1    0    0    0  501  0.00000000000E+00 -0.00000000000E+00 -0.13363256304E+03  0.13363256314E+03  0.50400000000E-02 0. -1.
          2    1    1    2    0  502  0.37003185997E+02 -0.33776930150E+01 -0.41328925410E+02  0.55576295901E+02  0.25500000000E-02 0.  1.
         -2    1    1    2  502    0 -0.37003185997E+02  0.33776930150E+01 -0.81127812384E+02  0.89232093625E+02  0.25500000000E-02 0.  1.
<mgrwt>
<rscale>  0 0.77290472E+02</rscale>
<asrwt>0</asrwt>
<pdfrwt beam="2">  1        1 0.20558855E-01 0.77290472E+02</pdfrwt>
<pdfrwt beam="1">  1       -1 0.17193579E-02 0.77290472E+02</pdfrwt>
<totfact> 0.17090050E+05</totfact>
</mgrwt>
</event>
<event>
 4    1  0.4029665E-002  0.1143425E+03  0.7818608E-02  0.1252733E+00
          1   -1    0    0    0  501  0.00000000000E+00  0.00000000000E+00  0.66084703682E+02  0.66084703874E+02  0.50400000000E-02 0. -1.
         -1   -1    0    0  501    0 -0.00000000000E+00 -0.00000000000E+00 -0.49460023960E+02  0.49460024216E+02  0.50400000000E-02 0. -1.
          2    1    1    2    0  502 -0.35761993012E+02 -0.22533173958E+02  0.47212379430E+02  0.63369336834E+02  0.25500000000E-02 0. -1.
         -2    1    1    2  502    0  0.35761993012E+02  0.22533173958E+02 -0.30587699708E+02  0.52175391256E+02  0.25500000000E-02 0. -1.
<mgrwt>
<rscale>  0 0.11434249E+03</rscale>
<asrwt>0</asrwt>
<pdfrwt beam="1">  1        1 0.10166877E-01 0.11434249E+03</pdfrwt>
<pdfrwt beam="2">  1       -1 0.76092345E-02 0.11434249E+03</pdfrwt>
<totfact> 0.51729910E+04</totfact>
</mgrwt>
</event>
<event>
 4    1  0.4029665E-002  0.5482030E+02  0.7818608E-02  0.1420951E+00
         -1   -1    0    0  501    0 -0.00000000000E+00  0.00000000000E+00  0.13479997537E+01  0.13480091757E+01  0.50400000000E-02 0. -1.
          1   -1    0    0    0  501  0.00000000000E+00 -0.00000000000E+00 -0.55735456428E+03  0.55735456431E+03  0.50400000000E-02 0. -1.
          2    1    1    2    0  502  0.22583726356E+02  0.15007682066E+02 -0.31884731628E+03  0.31999822863E+03  0.25500000000E-02 0. -1.
         -2    1    1    2  502    0 -0.22583726356E+02 -0.15007682066E+02 -0.23715924825E+03  0.23870434486E+03  0.25500000000E-02 0. -1.
<mgrwt>
<rscale>  0 0.54820305E+02</rscale>
<asrwt>0</asrwt>
<pdfrwt beam="2">  1        1 0.85746673E-01 0.54820305E+02</pdfrwt>
<pdfrwt beam="1">  1       -1 0.20738575E-03 0.54820305E+02</pdfrwt>
<totfact> 0.52316448E+05</totfact>
</mgrwt>
</event>
<event>
 4    1  0.4029665E-002  0.5896676E+02  0.7818608E-02  0.1402220E+00
         -1   -1    0    0  501    0 -0.00000000000E+00  0.00000000000E+00  0.59124627072E+02  0.59124627287E+02  0.50400000000E-02 0.  1.
          1   -1    0    0    0  501  0.00000000000E+00 -0.00000000000E+00 -0.14702330141E+02  0.14702331005E+02  0.50400000000E-02 0.  1.
          2    1    1    2    0  502  0.25564369342E+02 -0.14527723988E+02  0.24919102628E+02  0.38542877765E+02  0.25500000000E-02 0. -1.
         -2    1    1    2  502    0 -0.25564369342E+02  0.14527723988E+02  0.19503194303E+02  0.35284080527E+02  0.25500000000E-02 0. -1.
<mgrwt>
<rscale>  0 0.58966764E+02</rscale>
<asrwt>0</asrwt>
<pdfrwt beam="2">  1        1 0.22618970E-02 0.58966764E+02</pdfrwt>
<pdfrwt beam="1">  1       -1 0.90960965E-02 0.58966764E+02</pdfrwt>
<totfact> 0.26635423E+05</totfact>
</mgrwt>
</event>
<event>
 4    1  0.4029665E-002  0.6123110E+02  0.7818608E-02  0.1392737E+00
          1   -1    0    0    0  501  0.00000000000E+00  0.00000000000E+00  0.26697565727E+01  0.26697613300E+01  0.50400000000E-02 0. -1.
         -1   -1    0    0  501    0 -0.00000000000E+00 -0.00000000000E+00 -0.35108478226E+03  0.35108478229E+03  0.50400000000E-02 0. -1.
          2    1    1    2    0  502  0.63060017076E+00  0.27155651277E+02 -0.92608521849E+02  0.96509923730E+02  0.25500000000E-02 0. -1.
         -2    1    1    2  502    0 -0.63060017076E+00 -0.27155651277E+02 -0.25580650383E+03  0.25724461989E+03  0.25500000000E-02 0. -1.
<mgrwt>
<rscale>  0 0.61231095E+02</rscale>
<asrwt>0</asrwt>
<pdfrwt beam="1">  1        1 0.41073243E-03 0.61231095E+02</pdfrwt>
<pdfrwt beam="2">  1       -1 0.54013007E-01 0.61231095E+02</pdfrwt>
<totfact> 0.15815108E+05</totfact>
</mgrwt>
</event>
<event>
 4    1  0.4029665E-002  0.4098940E+02  0.7818608E-02  0.1501054E+00
         -1   -1    0    0  501    0 -0.00000000000E+00  0.00000000000E+00  0.27539100061E+02  0.27539100522E+02  0.50400000000E-02 0. -1.
          1   -1    0    0    0  501  0.00000000000E+00 -0.00000000000E+00 -0.15252231284E+02  0.15252232117E+02  0.50400000000E-02 0. -1.
          2    1    1    2    0  502 -0.17962330157E+02  0.95155776657E+01  0.34128784977E+01  0.20611629463E+02  0.25500000000E-02 0. -1.
         -2    1    1    2  502    0  0.17962330157E+02 -0.95155776657E+01  0.88739902792E+01  0.22179703176E+02  0.25500000000E-02 0. -1.
<mgrwt>
<rscale>  0 0.40989401E+02</rscale>
<asrwt>0</asrwt>
<pdfrwt beam="2">  1        1 0.23464972E-02 0.40989401E+02</pdfrwt>
<pdfrwt beam="1">  1       -1 0.42367847E-02 0.40989401E+02</pdfrwt>
<totfact> 0.70038151E+05</totfact>
</mgrwt>
</event>
<event>
 4    1  0.4029665E-002  0.4326601E+02  0.7818608E-02  0.1485466E+00
         -1   -1    0    0  501    0 -0.00000000000E+00  0.00000000000E+00  0.34019213975E+02  0.34019214348E+02  0.50400000000E-02 0.  1.
          1   -1    0    0    0  501  0.00000000000E+00 -0.00000000000E+00 -0.13756548509E+02  0.13756549432E+02  0.50400000000E-02 0.  1.
          2    1    1    2    0  502  0.17026608848E+02  0.11662062819E+02  0.29684532837E+01  0.20849960179E+02  0.25500000000E-02 0.  1.
         -2    1    1    2  502    0 -0.17026608848E+02 -0.11662062819E+02  0.17294212183E+02  0.26925803602E+02  0.25500000000E-02 0.  1.
<mgrwt>
<rscale>  0 0.43266014E+02</rscale>
<asrwt>0</asrwt>
<pdfrwt beam="2">  1        1 0.21163922E-02 0.43266014E+02</pdfrwt>
<pdfrwt beam="1">  1       -1 0.52337253E-02 0.43266014E+02</pdfrwt>
<totfact> 0.60410986E+05</totfact>
</mgrwt>
</event>
<event>
 4    1  0.4029665E-002  0.7209198E+02  0.7818608E-02  0.1353120E+00
         -1   -1    0    0  501    0 -0.00000000000E+00  0.00000000000E+00  0.13695140817E+03  0.13695140826E+03  0.50400000000E-02 0. -1.
          1   -1    0    0    0  501  0.00000000000E+00 -0.00000000000E+00 -0.94874027475E+01  0.94874040862E+01  0.50400000000E-02 0. -1.
          2    1    1    2    0  502 -0.28933896902E+02 -0.21367606106E+02  0.58938754199E+02  0.69047242767E+02  0.25500000000E-02 0.  1.
         -2    1    1    2  502    0  0.28933896902E+02  0.21367606106E+02  0.68525251219E+02  0.77391569578E+02  0.25500000000E-02 0.  1.
<mgrwt>
<rscale>  0 0.72091977E+02</rscale>
<asrwt>0</asrwt>
<pdfrwt beam="2">  1        1 0.14596007E-02 0.72091977E+02</pdfrwt>
<pdfrwt beam="1">  1       -1 0.21069445E-01 0.72091977E+02</pdfrwt>
<totfact> 0.13975265E+05</totfact>
</mgrwt>
</event>
<event>
 4    1  0.4029665E-002  0.5763727E+02  0.7818608E-02  0.1408023E+00
         -1   -1    0    0  501    0 -0.00000000000E+00  0.00000000000E+00  0.10121526145E+02  0.10121527400E+02  0.50400000000E-02 0.  1.
          1   -1    0    0    0  501  0.00000000000E+00 -0.00000000000E+00 -0.82054195007E+02  0.82054195162E+02  0.50400000000E-02 0.  1.
          2    1    1    2    0  502 -0.21272310479E+02 -0.38703733753E+01 -0.54958003014E+01  0.22309074625E+02  0.25500000000E-02 0. -1.
         -2    1    1    2  502    0  0.21272310479E+02  0.38703733753E+01 -0.66436868561E+02  0.69866647936E+02  0.25500000000E-02 0. -1.
<mgrwt>
<rscale>  0 0.57637271E+02</rscale>
<asrwt>0</asrwt>
<pdfrwt beam="2">  1        1 0.12623722E-01 0.57637271E+02</pdfrwt>
<pdfrwt beam="1">  1       -1 0.15571580E-02 0.57637271E+02</pdfrwt>
<totfact> 0.34234428E+05</totfact>
</mgrwt>
</event>
<event>
 4    1  0.4029665E-002  0.7390904E+02  0.7818608E-02  0.1347283E+00
         -1   -1    0    0  501    0 -0.00000000000E+00  0.00000000000E+00  0.90776379415E+00  0.90777778535E+00  0.50400000000E-02 0.  1.
          1   -1    0    0    0  501  0.00000000000E+00 -0.00000000000E+00 -0.15043847634E+04  0.15043847634E+04  0.50400000000E-02 0.  1.
          2    1    1    2    0  502 -0.35098857110E+02 -0.67560160178E+01 -0.56061233097E+03  0.56175062009E+03  0.25500000000E-02 0.  1.
         -2    1    1    2  502    0  0.35098857110E+02  0.67560160178E+01 -0.94286466859E+03  0.94354192106E+03  0.25500000000E-02 0.  1.
<mgrwt>
<rscale>  0 0.73909040E+02</rscale>
<asrwt>0</asrwt>
<pdfrwt beam="2">  1        1 0.23144182E+00 0.73909040E+02</pdfrwt>
<pdfrwt beam="1">  1       -1 0.13965825E-03 0.73909040E+02</pdfrwt>
<totfact> 0.19116917E+05</totfact>
</mgrwt>
</event>
<event>
 4    1  0.4029665E-002  0.6006457E+02  0.7818608E-02  0.1397561E+00
          1   -1    0    0    0  501  0.00000000000E+00  0.00000000000E+00  0.11098072513E+03  0.11098072524E+03  0.50400000000E-02 0. -1.
         -1   -1    0    0  501    0 -0.00000000000E+00 -0.00000000000E+00 -0.81269786588E+01  0.81269802216E+01  0.50400000000E-02 0. -1.
          2    1    1    2    0  502  0.25083374999E+02 -0.12315097516E+02  0.73248891558E+02  0.78397942888E+02  0.25500000000E-02 0. -1.
         -2    1    1    2  502    0 -0.25083374999E+02  0.12315097516E+02  0.29604854911E+02  0.40709762576E+02  0.25500000000E-02 0. -1.
<mgrwt>
<rscale>  0 0.60064568E+02</rscale>
<asrwt>0</asrwt>
<pdfrwt beam="1">  1        1 0.17073958E-01 0.60064568E+02</pdfrwt>
<pdfrwt beam="2">  1       -1 0.12503045E-02 0.60064568E+02</pdfrwt>
<totfact> 0.32086846E+05</totfact>
</mgrwt>
</event>
<event>
 4    1  0.4029665E-002  0.6707056E+02  0.7818608E-02  0.1370348E+00
         -1   -1    0    0  501    0 -0.00000000000E+00  0.00000000000E+00  0.32948176526E+01  0.32948215074E+01  0.50400000000E-02 0. -1.
          1   -1    0    0    0  501  0.00000000000E+00 -0.00000000000E+00 -0.34132821512E+03  0.34132821516E+03  0.50400000000E-02 0. -1.
          2    1    1    2    0  502 -0.30353367397E+02 -0.49186151831E+01 -0.23777962846E+03  0.23975961170E+03  0.25500000000E-02 0. -1.
         -2    1    1    2  502    0  0.30353367397E+02  0.49186151831E+01 -0.10025376901E+03  0.10486342496E+03  0.25500000000E-02 0. -1.
<mgrwt>
<rscale>  0 0.67070557E+02</rscale>
<asrwt>0</asrwt>
<pdfrwt beam="2">  1        1 0.52512005E-01 0.67070557E+02</pdfrwt>
<pdfrwt beam="1">  1       -1 0.50689559E-03 0.67070557E+02</pdfrwt>
<totfact> 0.29316798E+05</totfact>
</mgrwt>
</event>
<event>
 4    1  0.4029665E-002  0.4852649E+02  0.7818608E-02  0.1453455E+00
          1   -1    0    0    0  501  0.00000000000E+00  0.00000000000E+00  0.66240546164E+02  0.66240546356E+02  0.50400000000E-02 0. -1.
         -1   -1    0    0  501    0 -0.00000000000E+00 -0.00000000000E+00 -0.88873823932E+01  0.88873838223E+01  0.50400000000E-02 0. -1.
          2    1    1    2    0  502  0.12746169860E+02  0.19774610851E+02  0.19490613915E+02  0.30551335776E+02  0.25500000000E-02 0. -1.
         -2    1    1    2  502    0 -0.12746169860E+02 -0.19774610851E+02  0.37862549856E+02  0.44576594402E+02  0.25500000000E-02 0. -1.
<mgrwt>
<rscale>  0 0.48526493E+02</rscale>
<asrwt>0</asrwt>
<pdfrwt beam="1">  1        1 0.10190854E-01 0.48526493E+02</pdfrwt>
<pdfrwt beam="2">  1       -1 0.13672897E-02 0.48526493E+02</pdfrwt>
<totfact> 0.51800371E+05</totfact>
</mgrwt>
</event>
<event>
 4    1  0.4029665E-002  0.6759840E+02  0.7818608E-02  0.1368456E+00
          1   -1    0    0    0  501  0.00000000000E+00  0.00000000000E+00  0.46953653042E+03  0.46953653045E+03  0.50400000000E-02 0. -1.
         -1   -1    0    0  501    0 -0.00000000000E+00 -0.00000000000E+00 -0.24330050227E+01  0.24330102429E+01  0.50400000000E-02 0. -1.
          2    1    1    2    0  502  0.17291743521E+02  0.14915215518E+02  0.40752988602E+03  0.40816917578E+03  0.25500000000E-02 0. -1.
         -2    1    1    2  502    0 -0.17291743521E+02 -0.14915215518E+02  0.59573639379E+02  0.63800364915E+02  0.25500000000E-02 0. -1.
<mgrwt>
<rscale>  0 0.67598402E+02</rscale>
<asrwt>0</asrwt>
<pdfrwt beam="1">  1        1 0.72236362E-01 0.67598402E+02</pdfrwt>
<pdfrwt beam="2">  1       -1 0.37430901E-03 0.67598402E+02</pdfrwt>
<totfact> 0.30180164E+05</totfact>
</mgrwt>
</event>
<event>
 4    1  0.4029665E-002  0.4358991E+02  0.7818608E-02  0.1483342E+00
         -1   -1    0    0  501    0 -0.00000000000E+00  0.00000000000E+00  0.44800505276E+01  0.44800533626E+01  0.50400000000E-02 0. -1.
          1   -1    0    0    0  501  0.00000000000E+00 -0.00000000000E+00 -0.10603003184E+03  0.10603003196E+03  0.50400000000E-02 0. -1.
          2    1    1    2    0  502 -0.19220420999E+02  0.10266924133E+02 -0.49682365075E+02  0.54251006631E+02  0.25500000000E-02 0. -1.
         -2    1    1    2  502    0  0.19220420999E+02 -0.10266924133E+02 -0.51867616237E+02  0.56259078690E+02  0.25500000000E-02 0. -1.
<mgrwt>
<rscale>  0 0.43589910E+02</rscale>
<asrwt>0</asrwt>
<pdfrwt beam="2">  1        1 0.16312311E-01 0.43589910E+02</pdfrwt>
<pdfrwt beam="1">  1       -1 0.68923885E-03 0.43589910E+02</pdfrwt>
<totfact> 0.71728179E+05</totfact>
</mgrwt>
</event>
<event>
 4    1  0.4029665E-002  0.5145743E+02  0.7818608E-02  0.1437635E+00
          1   -1    0    0    0  501  0.00000000000E+00  0.00000000000E+00  0.10963481504E+02  0.10963482663E+02  0.50400000000E-02 0.  1.
         -1   -1    0    0  501    0 -0.00000000000E+00 -0.00000000000E+00 -0.60379245337E+02  0.60379245547E+02  0.50400000000E-02 0.  1.
          2    1    1    2    0  502  0.13807583131E+02 -0.21476092154E+02 -0.20302814750E+02  0.32620180554E+02  0.25500000000E-02 0. -1.
         -2    1    1    2  502    0 -0.13807583131E+02  0.21476092154E+02 -0.29112949083E+02  0.38722547655E+02  0.25500000000E-02 0. -1.
<mgrwt>
<rscale>  0 0.51457430E+02</rscale>
<asrwt>0</asrwt>
<pdfrwt beam="1">  1        1 0.16866896E-02 0.51457430E+02</pdfrwt>
<pdfrwt beam="2">  1       -1 0.92891146E-02 0.51457430E+02</pdfrwt>
<totfact> 0.37252378E+05</totfact>
</mgrwt>
</event>
<event>
 4    1  0.4029665E-002  0.5562424E+02  0.7818608E-02  0.1417170E+00
          1   -1    0    0    0  501  0.00000000000E+00  0.00000000000E+00  0.34926354931E+03  0.34926354935E+03  0.50400000000E-02 0. -1.
         -1   -1    0    0  501    0 -0.00000000000E+00 -0.00000000000E+00 -0.22146970331E+01  0.22147027679E+01  0.50400000000E-02 0. -1.
          2    1    1    2    0  502 -0.20049701136E+02 -0.54361014686E+00  0.29527042690E+03  0.29595085915E+03  0.25500000000E-02 0.  1.
         -2    1    1    2  502    0  0.20049701136E+02  0.54361014686E+00  0.51778425381E+02  0.55527392961E+02  0.25500000000E-02 0.  1.
<mgrwt>
<rscale>  0 0.55624238E+02</rscale>
<asrwt>0</asrwt>
<pdfrwt beam="1">  1        1 0.53732853E-01 0.55624238E+02</pdfrwt>
<pdfrwt beam="2">  1       -1 0.34072307E-03 0.55624238E+02</pdfrwt>
<totfact> 0.47416776E+05</totfact>
</mgrwt>
</event>
<event>
 4    1  0.4029665E-002  0.9428517E+02  0.7818608E-02  0.1292794E+00
          1   -1    0    0    0  501  0.00000000000E+00  0.00000000000E+00  0.34037799688E+01  0.34037837002E+01  0.50400000000E-02 0.  1.
         -1   -1    0    0  501    0 -0.00000000000E+00 -0.00000000000E+00 -0.65292767046E+03  0.65292767048E+03  0.50400000000E-02 0.  1.
          2    1    1    2    0  502  0.18422450432E+02  0.34060985176E+02 -0.51192267103E+03  0.51338519507E+03  0.25500000000E-02 0.  1.
         -2    1    1    2  502    0 -0.18422450432E+02 -0.34060985176E+02 -0.13760121946E+03  0.14294625911E+03  0.25500000000E-02 0.  1.
<mgrwt>
<rscale>  0 0.94285171E+02</rscale>
<asrwt>0</asrwt>
<pdfrwt beam="1">  1        1 0.52365926E-03 0.94285171E+02</pdfrwt>
<pdfrwt beam="2">  1       -1 0.10045031E+00 0.94285171E+02</pdfrwt>
<totfact> 0.35726966E+04</totfact>
</mgrwt>
</event>
<event>
 4    1  0.4029665E-002  0.4339969E+02  0.7818608E-02  0.1484587E+00
          1   -1    0    0    0  501  0.00000000000E+00  0.00000000000E+00  0.97400538056E+02  0.97400538186E+02  0.50400000000E-02 0.  1.
         -1   -1    0    0  501    0 -0.00000000000E+00 -0.00000000000E+00 -0.48345012656E+01  0.48345038927E+01  0.50400000000E-02 0.  1.
          2    1    1    2    0  502 -0.20952064634E+02 -0.27334339029E+01  0.57924496715E+02  0.61657992179E+02  0.25500000000E-02 0. -1.
         -2    1    1    2  502    0  0.20952064634E+02  0.27334339029E+01  0.34641540075E+02  0.40577049900E+02  0.25500000000E-02 0. -1.
<mgrwt>
<rscale>  0 0.43399685E+02</rscale>
<asrwt>0</asrwt>
<pdfrwt beam="1">  1        1 0.14984699E-01 0.43399685E+02</pdfrwt>
<pdfrwt beam="2">  1       -1 0.74376959E-03 0.43399685E+02</pdfrwt>
<totfact> 0.71712356E+05</totfact>
</mgrwt>
</event>
<event>
 4    1  0.4029665E-002  0.5224180E+02  0.7818608E-02  0.1433612E+00
         -1   -1    0    0  501    0 -0.00000000000E+00  0.00000000000E+00  0.11040165155E+02  0.11040166306E+02  0.50400000000E-02 0. -1.
          1   -1    0    0    0  501  0.00000000000E+00 -0.00000000000E+00 -0.61801735550E+02  0.61801735756E+02  0.50400000000E-02 0. -1.
          2    1    1    2    0  502  0.11685064459E+02 -0.20904702168E+02 -0.10840063011E+02  0.26287911228E+02  0.25500000000E-02 0.  1.
         -2    1    1    2  502    0 -0.11685064459E+02  0.20904702168E+02 -0.39921507384E+02  0.46553990833E+02  0.25500000000E-02 0.  1.
<mgrwt>
<rscale>  0 0.52241800E+02</rscale>
<asrwt>0</asrwt>
<pdfrwt beam="2">  1        1 0.95079592E-02 0.52241800E+02</pdfrwt>
<pdfrwt beam="1">  1       -1 0.16984871E-02 0.52241800E+02</pdfrwt>
<totfact> 0.42613864E+05</totfact>
</mgrwt>
</event>
<event>
 4    1  0.4029665E-002  0.7837911E+02  0.7818608E-02  0.1333715E+00
         -1   -1    0    0  501    0 -0.00000000000E+00  0.00000000000E+00  0.14515672364E+02  0.14515673239E+02  0.50400000000E-02 0. -1.
          1   -1    0    0    0  501  0.00000000000E+00 -0.00000000000E+00 -0.10580434261E+03  0.10580434274E+03  0.50400000000E-02 0. -1.
          2    1    1    2    0  502 -0.39164800308E+02 -0.55272396799E-01 -0.47780604860E+02  0.61780829110E+02  0.25500000000E-02 0. -1.
         -2    1    1    2  502    0  0.39164800308E+02  0.55272396799E-01 -0.43508065391E+02  0.58539186865E+02  0.25500000000E-02 0. -1.
<mgrwt>
<rscale>  0 0.78379110E+02</rscale>
<asrwt>0</asrwt>
<pdfrwt beam="2">  1        1 0.16277591E-01 0.78379110E+02</pdfrwt>
<pdfrwt beam="1">  1       -1 0.22331805E-02 0.78379110E+02</pdfrwt>
<totfact> 0.15848481E+05</totfact>
</mgrwt>
</event>
<event>
 4    1  0.4029665E-002  0.1302883E+03  0.7818608E-02  0.1227029E+00
          1   -1    0    0    0  501  0.00000000000E+00  0.00000000000E+00  0.41701919877E+03  0.41701919880E+03  0.50400000000E-02 0. -1.
         -1   -1    0    0  501    0 -0.00000000000E+00 -0.00000000000E+00 -0.10176418073E+02  0.10176419321E+02  0.50400000000E-02 0. -1.
          2    1    1    2    0  502 -0.48602360834E+02  0.77191211190E+01  0.63464591269E+02  0.80308957538E+02  0.25500000000E-02 0. -1.
         -2    1    1    2  502    0  0.48602360834E+02 -0.77191211190E+01  0.34337818943E+03  0.34688666058E+03  0.25500000000E-02 0. -1.
<mgrwt>
<rscale>  0 0.13028833E+03</rscale>
<asrwt>0</asrwt>
<pdfrwt beam="1">  1        1 0.64156793E-01 0.13028833E+03</pdfrwt>
<pdfrwt beam="2">  1       -1 0.15656030E-02 0.13028833E+03</pdfrwt>
<totfact> 0.51748964E+04</totfact>
</mgrwt>
</event>
<event>
 4    1  0.4029665E-002  0.7362690E+02  0.7818608E-02  0.1348177E+00
         -1   -1    0    0  501    0 -0.00000000000E+00  0.00000000000E+00  0.41447305614E+01  0.41447336257E+01  0.50400000000E-02 0.  1.
          1   -1    0    0    0  501  0.00000000000E+00 -0.00000000000E+00 -0.32697656687E+03  0.32697656691E+03  0.50400000000E-02 0.  1.
          2    1    1    2    0  502 -0.32377536828E+02 -0.68889508635E+01 -0.88973613103E+02  0.94931903858E+02  0.25500000000E-02 0. -1.
         -2    1    1    2  502    0  0.32377536828E+02  0.68889508635E+01 -0.23385822321E+03  0.23618939668E+03  0.25500000000E-02 0. -1.
<mgrwt>
<rscale>  0 0.73626905E+02</rscale>
<asrwt>0</asrwt>
<pdfrwt beam="2">  1        1 0.50304067E-01 0.73626905E+02</pdfrwt>
<pdfrwt beam="1">  1       -1 0.63765135E-03 0.73626905E+02</pdfrwt>
<totfact> 0.22855882E+05</totfact>
</mgrwt>
</event>
<event>
 4    1  0.4029665E-002  0.5991407E+02  0.7818608E-02  0.1398193E+00
         -1   -1    0    0  501    0 -0.00000000000E+00  0.00000000000E+00  0.19685607778E+01  0.19685672296E+01  0.50400000000E-02 0.  1.
          1   -1    0    0    0  501  0.00000000000E+00 -0.00000000000E+00 -0.45587737844E+03  0.45587737847E+03  0.50400000000E-02 0.  1.
          2    1    1    2    0  502 -0.20155680704E+02  0.16897094879E+02 -0.33654317863E+03  0.33756936230E+03  0.25500000000E-02 0. -1.
         -2    1    1    2  502    0  0.20155680704E+02 -0.16897094879E+02 -0.11736563904E+03  0.12027658339E+03  0.25500000000E-02 0. -1.
<mgrwt>
<rscale>  0 0.59914065E+02</rscale>
<asrwt>0</asrwt>
<pdfrwt beam="2">  1        1 0.70134898E-01 0.59914065E+02</pdfrwt>
<pdfrwt beam="1">  1       -1 0.30285636E-03 0.59914065E+02</pdfrwt>
<totfact> 0.40919414E+05</totfact>
</mgrwt>
</event>
<event>
 4    1  0.4029665E-002  0.4646189E+02  0.7818608E-02  0.1465416E+00
          1   -1    0    0    0  501  0.00000000000E+00  0.00000000000E+00  0.13418690196E+03  0.13418690206E+03  0.50400000000E-02 0.  1.
         -1   -1    0    0  501    0 -0.00000000000E+00 -0.00000000000E+00 -0.40218277249E+01  0.40218308829E+01  0.50400000000E-02 0.  1.
          2    1    1    2    0  502 -0.21472386658E+02 -0.26314628544E+01  0.39896237418E+02  0.45383893092E+02  0.25500000000E-02 0.  1.
         -2    1    1    2  502    0  0.21472386658E+02  0.26314628544E+01  0.90268836820E+02  0.92824839849E+02  0.25500000000E-02 0.  1.
<mgrwt>
<rscale>  0 0.46461891E+02</rscale>
<asrwt>0</asrwt>
<pdfrwt beam="1">  1        1 0.20644140E-01 0.46461891E+02</pdfrwt>
<pdfrwt beam="2">  1       -1 0.61874296E-03 0.46461891E+02</pdfrwt>
<totfact> 0.63281191E+05</totfact>
</mgrwt>
</event>
<event>
 4    1  0.4029665E-002  0.6746661E+02  0.7818608E-02  0.1368926E+00
         -1   -1    0    0  501    0 -0.00000000000E+00  0.00000000000E+00  0.10933030992E+03  0.10933031004E+03  0.50400000000E-02 0. -1.
          1   -1    0    0    0  501  0.00000000000E+00 -0.00000000000E+00 -0.10408238144E+02  0.10408239364E+02  0.50400000000E-02 0. -1.
          2    1    1    2    0  502  0.33656494159E+02 -0.20622421744E+01  0.47755458450E+02  0.58460210914E+02  0.25500000000E-02 0. -1.
         -2    1    1    2  502    0 -0.33656494159E+02  0.20622421744E+01  0.51166613329E+02  0.61278338488E+02  0.25500000000E-02 0. -1.
<mgrwt>
<rscale>  0 0.67466613E+02</rscale>
<asrwt>0</asrwt>
<pdfrwt beam="2">  1        1 0.16012676E-02 0.67466613E+02</pdfrwt>
<pdfrwt beam="1">  1       -1 0.16820047E-01 0.67466613E+02</pdfrwt>
<totfact> 0.17295947E+05</totfact>
</mgrwt>
</event>
<event>
 4    1  0.4029665E-002  0.4682548E+02  0.7818608E-02  0.1463257E+00
         -1   -1    0    0  501    0 -0.00000000000E+00  0.00000000000E+00  0.92667198782E+02  0.92667198920E+02  0.50400000000E-02 0.  1.
          1   -1    0    0    0  501  0.00000000000E+00 -0.00000000000E+00 -0.59153215156E+01  0.59153236627E+01  0.50400000000E-02 0.  1.
          2    1    1    2    0  502 -0.12651651961E+02  0.15714291739E+02  0.68388774350E+02  0.71302368304E+02  0.25500000000E-02 0. -1.
         -2    1    1    2  502    0  0.12651651961E+02 -0.15714291739E+02  0.18363102917E+02  0.27280154278E+02  0.25500000000E-02 0. -1.
<mgrwt>
<rscale>  0 0.46825480E+02</rscale>
<asrwt>0</asrwt>
<pdfrwt beam="2">  1        1 0.91004976E-03 0.46825480E+02</pdfrwt>
<pdfrwt beam="1">  1       -1 0.14256490E-01 0.46825480E+02</pdfrwt>
<totfact> 0.44291084E+05</totfact>
</mgrwt>
</event>
<event>
 4    1  0.4029665E-002  0.7816853E+02  0.7818608E-02  0.1334331E+00
         -1   -1    0    0  501    0 -0.00000000000E+00  0.00000000000E+00  0.11193297184E+01  0.11193410651E+01  0.50400000000E-02 0.  1.
          1   -1    0    0    0  501  0.00000000000E+00 -0.00000000000E+00 -0.13647204363E+04  0.13647204363E+04  0.50400000000E-02 0.  1.
          2    1    1    2    0  502 -0.65764001564E+01 -0.23004582940E+02 -0.14179681452E+03  0.14380123952E+03  0.25500000000E-02 0.  1.
         -2    1    1    2  502    0  0.65764001564E+01  0.23004582940E+02 -0.12218042921E+04  0.12220385379E+04  0.25500000000E-02 0.  1.
<mgrwt>
<rscale>  0 0.78168533E+02</rscale>
<asrwt>0</asrwt>
<pdfrwt beam="2">  1        1 0.20995566E+00 0.78168533E+02</pdfrwt>
<pdfrwt beam="1">  1       -1 0.17220654E-03 0.78168533E+02</pdfrwt>
<totfact> 0.17749598E+05</totfact>
</mgrwt>
</event>
<event>
 4    1  0.4029665E-002  0.5537102E+02  0.7818608E-02  0.1418352E+00
         -1   -1    0    0  501    0 -0.00000000000E+00  0.00000000000E+00  0.33678199970E+02  0.33678200347E+02  0.50400000000E-02 0.  1.
          1   -1    0    0    0  501  0.00000000000E+00 -0.00000000000E+00 -0.22759156681E+02  0.22759157239E+02  0.50400000000E-02 0.  1.
          2    1    1    2    0  502 -0.25611646525E+02  0.10472093076E+02  0.64081867993E+01  0.28402218851E+02  0.25500000000E-02 0. -1.
         -2    1    1    2  502    0  0.25611646525E+02 -0.10472093076E+02  0.45108564895E+01  0.28035138735E+02  0.25500000000E-02 0. -1.
<mgrwt>
<rscale>  0 0.55371020E+02</rscale>
<asrwt>0</asrwt>
<pdfrwt beam="2">  1        1 0.35014088E-02 0.55371020E+02</pdfrwt>
<pdfrwt beam="1">  1       -1 0.51812616E-02 0.55371020E+02</pdfrwt>
<totfact> 0.33147072E+05</totfact>
</mgrwt>
</event>
<event>
 4    1  0.4029665E-002  0.5328697E+02  0.7818608E-02  0.1428378E+00
          1   -1    0    0    0  501  0.00000000000E+00  0.00000000000E+00  0.12691668649E+03  0.12691668659E+03  0.50400000000E-02 0.  1.
         -1   -1    0    0  501    0 -0.00000000000E+00 -0.00000000000E+00 -0.55932362425E+01  0.55932385132E+01  0.50400000000E-02 0.  1.
          2    1    1    2    0  502  0.18844969606E+02 -0.11778875142E+02  0.97208973140E+02  0.99716895482E+02  0.25500000000E-02 0.  1.
         -2    1    1    2  502    0 -0.18844969606E+02  0.11778875142E+02  0.24114477106E+02  0.32793029620E+02  0.25500000000E-02 0.  1.
<mgrwt>
<rscale>  0 0.53286965E+02</rscale>
<asrwt>0</asrwt>
<pdfrwt beam="1">  1        1 0.19525643E-01 0.53286965E+02</pdfrwt>
<pdfrwt beam="2">  1       -1 0.86049810E-03 0.53286965E+02</pdfrwt>
<totfact> 0.44462037E+05</totfact>
</mgrwt>
</event>
<event>
 4    1  0.4029665E-002  0.1417085E+03  0.7818608E-02  0.1211048E+00
          1   -1    0    0    0  501  0.00000000000E+00  0.00000000000E+00  0.43680762806E+03  0.43680762809E+03  0.50400000000E-02 0. -1.
         -1   -1    0    0  501    0 -0.00000000000E+00 -0.00000000000E+00 -0.11493210296E+02  0.11493211401E+02  0.50400000000E-02 0. -1.
          2    1    1    2    0  502  0.41123506109E+02  0.50913382588E+02  0.29854066980E+03  0.30563024525E+03  0.25500000000E-02 0.  1.
         -2    1    1    2  502    0 -0.41123506109E+02 -0.50913382588E+02  0.12677374797E+03  0.14267059425E+03  0.25500000000E-02 0.  1.
<mgrwt>
<rscale>  0 0.14170846E+03</rscale>
<asrwt>0</asrwt>
<pdfrwt beam="1">  1        1 0.67201186E-01 0.14170846E+03</pdfrwt>
<pdfrwt beam="2">  1       -1 0.17681860E-02 0.14170846E+03</pdfrwt>
<totfact> 0.41344093E+04</totfact>
</mgrwt>
</event>
<event>
 4    1  0.4029665E-002  0.4733218E+02  0.7818608E-02  0.1460286E+00
          1   -1    0    0    0  501  0.00000000000E+00  0.00000000000E+00  0.16314383881E+04  0.16314383882E+04  0.50400000000E-02 0.  1.
         -1   -1    0    0  501    0 -0.00000000000E+00 -0.00000000000E+00 -0.34328829308E+00  0.34332528856E+00  0.50400000000E-02 0.  1.
          2    1    1    2    0  502 -0.21192929918E+02 -0.10273098446E+02  0.73538235400E+03  0.73575939234E+03  0.25500000000E-02 0.  1.
         -2    1    1    2  502    0  0.21192929918E+02  0.10273098446E+02  0.89571274585E+03  0.89602232110E+03  0.25500000000E-02 0.  1.
<mgrwt>
<rscale>  0 0.47332183E+02</rscale>
<asrwt>0</asrwt>
<pdfrwt beam="1">  1        1 0.25099529E+00 0.47332183E+02</pdfrwt>
<pdfrwt beam="2">  1       -1 0.52815427E-04 0.47332183E+02</pdfrwt>
<totfact> 0.55135660E+05</totfact>
</mgrwt>
</event>
<event>
 4    1  0.4029665E-002  0.2504826E+03  0.7818608E-02  0.1113000E+00
          1   -1    0    0    0  501  0.00000000000E+00  0.00000000000E+00  0.18378489993E+04  0.18378489993E+04  0.50400000000E-02 0.  1.
         -1   -1    0    0  501    0 -0.00000000000E+00 -0.00000000000E+00 -0.85346416283E+01  0.85346431165E+01  0.50400000000E-02 0.  1.
          2    1    1    2    0  502  0.13090641821E+02  0.12450241118E+03  0.94140664429E+03  0.94969399557E+03  0.25500000000E-02 0.  1.
         -2    1    1    2  502    0 -0.13090641821E+02 -0.12450241118E+03  0.88790771338E+03  0.89668964685E+03  0.25500000000E-02 0.  1.
<mgrwt>
<rscale>  0 0.25048261E+03</rscale>
<asrwt>0</asrwt>
<pdfrwt beam="1">  1        1 0.28274607E+00 0.25048261E+03</pdfrwt>
<pdfrwt beam="2">  1       -1 0.13130216E-02 0.25048261E+03</pdfrwt>
<totfact> 0.54416629E+03</totfact>
</mgrwt>
</event>
<event>
 4    1  0.4029665E-002  0.6619638E+02  0.7818608E-02  0.1373527E+00
          1   -1    0    0    0  501  0.00000000000E+00  0.00000000000E+00  0.12633462305E+02  0.12633463311E+02  0.50400000000E-02 0. -1.
         -1   -1    0    0  501    0 -0.00000000000E+00 -0.00000000000E+00 -0.86713369865E+02  0.86713370012E+02  0.50400000000E-02 0. -1.
          2    1    1    2    0  502 -0.53042389380E+01 -0.19486181330E+02 -0.76395106392E+02  0.79019355228E+02  0.25500000000E-02 0. -1.
         -2    1    1    2  502    0  0.53042389380E+01  0.19486181330E+02  0.23151988319E+01  0.20327478094E+02  0.25500000000E-02 0. -1.
<mgrwt>
<rscale>  0 0.66196379E+02</rscale>
<asrwt>0</asrwt>
<pdfrwt beam="1">  1        1 0.19436097E-02 0.66196379E+02</pdfrwt>
<pdfrwt beam="2">  1       -1 0.13340518E-01 0.66196379E+02</pdfrwt>
<totfact> 0.18876968E+05</totfact>
</mgrwt>
</event>
<event>
 4    1  0.4029665E-002  0.8224799E+02  0.7818608E-02  0.1322790E+00
         -1   -1    0    0  501    0 -0.00000000000E+00  0.00000000000E+00  0.28037289260E+01  0.28037334560E+01  0.50400000000E-02 0.  1.
          1   -1    0    0    0  501  0.00000000000E+00 -0.00000000000E+00 -0.60319017656E+03  0.60319017658E+03  0.50400000000E-02 0.  1.
          2    1    1    2    0  502  0.23933393118E+02  0.25659606694E+02 -0.45820998853E+03  0.45955153826E+03  0.25500000000E-02 0. -1.
         -2    1    1    2  502    0 -0.23933393118E+02 -0.25659606694E+02 -0.14217645910E+03  0.14644237177E+03  0.25500000000E-02 0. -1.
<mgrwt>
<rscale>  0 0.82247994E+02</rscale>
<asrwt>0</asrwt>
<pdfrwt beam="2">  1        1 0.92798386E-01 0.82247994E+02</pdfrwt>
<pdfrwt beam="1">  1       -1 0.43134374E-03 0.82247994E+02</pdfrwt>
<totfact> 0.18578391E+05</totfact>
</mgrwt>
</event>
<event>
 4    1  0.4029665E-002  0.6952782E+02  0.7818608E-02  0.1361706E+00
          1   -1    0    0    0  501  0.00000000000E+00  0.00000000000E+00  0.13924121043E+03  0.13924121052E+03  0.50400000000E-02 0.  1.
         -1   -1    0    0  501    0 -0.00000000000E+00 -0.00000000000E+00 -0.86793927598E+01  0.86793942231E+01  0.50400000000E-02 0.  1.
          2    1    1    2    0  502 -0.12279759285E+02 -0.31920299081E+02  0.78538387855E+02  0.85661988974E+02  0.25500000000E-02 0.  1.
         -2    1    1    2  502    0  0.12279759285E+02  0.31920299081E+02  0.52023429817E+02  0.62258615772E+02  0.25500000000E-02 0.  1.
<mgrwt>
<rscale>  0 0.69527815E+02</rscale>
<asrwt>0</asrwt>
<pdfrwt beam="1">  1        1 0.21421723E-01 0.69527815E+02</pdfrwt>
<pdfrwt beam="2">  1       -1 0.13352914E-02 0.69527815E+02</pdfrwt>
<totfact> 0.22737281E+05</totfact>
</mgrwt>
</event>
<event>
 4    1  0.4029665E-002  0.6899935E+02  0.7818608E-02  0.1363529E+00
         -1   -1    0    0  501    0 -0.00000000000E+00  0.00000000000E+00  0.41599801814E+02  0.41599802119E+02  0.50400000000E-02 0.  1.
          1   -1    0    0    0  501  0.00000000000E+00 -0.00000000000E+00 -0.28611375064E+02  0.28611375508E+02  0.50400000000E-02 0.  1.
          2    1    1    2    0  502 -0.26824403882E+02  0.20765129291E+02  0.12888550896E+02  0.36288482867E+02  0.25500000000E-02 0.  1.
         -2    1    1    2  502    0  0.26824403882E+02 -0.20765129291E+02  0.99875854004E-01  0.33922694760E+02  0.25500000000E-02 0.  1.
<mgrwt>
<rscale>  0 0.68999350E+02</rscale>
<asrwt>0</asrwt>
<pdfrwt beam="2">  1        1 0.44017501E-02 0.68999350E+02</pdfrwt>
<pdfrwt beam="1">  1       -1 0.63999696E-02 0.68999350E+02</pdfrwt>
<totfact> 0.18790727E+05</totfact>
</mgrwt>
</event>
<event>
 4    1  0.4029665E-002  0.5610453E+02  0.7818608E-02  0.1414947E+00
          1   -1    0    0    0  501  0.00000000000E+00  0.00000000000E+00  0.21207579415E+03  0.21207579421E+03  0.50400000000E-02 0. -1.
         -1   -1    0    0  501    0 -0.00000000000E+00 -0.00000000000E+00 -0.37106040788E+01  0.37106075016E+01  0.50400000000E-02 0. -1.
          2    1    1    2    0  502  0.86813030019E+01  0.24165954376E+02  0.60741315345E+02  0.65945930648E+02  0.25500000000E-02 0. -1.
         -2    1    1    2  502    0 -0.86813030019E+01 -0.24165954376E+02  0.14762387473E+03  0.14984047107E+03  0.25500000000E-02 0. -1.
<mgrwt>
<rscale>  0 0.56104534E+02</rscale>
<asrwt>0</asrwt>
<pdfrwt beam="1">  1        1 0.32627059E-01 0.56104534E+02</pdfrwt>
<pdfrwt beam="2">  1       -1 0.57086221E-03 0.56104534E+02</pdfrwt>
<totfact> 0.42476968E+05</totfact>
</mgrwt>
</event>
<event>
 4    1  0.4029665E-002  0.4629024E+02  0.7818608E-02  0.1466444E+00
          1   -1    0    0    0  501  0.00000000000E+00  0.00000000000E+00  0.96831270319E+02  0.96831270450E+02  0.50400000000E-02 0.  1.
         -1   -1    0    0  501    0 -0.00000000000E+00 -0.00000000000E+00 -0.55322668766E+01  0.55322691723E+01  0.50400000000E-02 0.  1.
          2    1    1    2    0  502  0.22759218458E+02  0.40212974934E+01  0.42902014098E+02  0.48731259767E+02  0.25500000000E-02 0.  1.
         -2    1    1    2  502    0 -0.22759218458E+02 -0.40212974934E+01  0.48396989345E+02  0.53632279856E+02  0.25500000000E-02 0.  1.
<mgrwt>
<rscale>  0 0.46290239E+02</rscale>
<asrwt>0</asrwt>
<pdfrwt beam="1">  1        1 0.14897119E-01 0.46290239E+02</pdfrwt>
<pdfrwt beam="2">  1       -1 0.85111814E-03 0.46290239E+02</pdfrwt>
<totfact> 0.61022221E+05</totfact>
</mgrwt>
</event>
<event>
 4    1  0.4029665E-002  0.6899403E+02  0.7818608E-02  0.1363548E+00
          1   -1    0    0    0  501  0.00000000000E+00  0.00000000000E+00  0.33917351763E+02  0.33917352137E+02  0.50400000000E-02 0. -1.
         -1   -1    0    0  501    0 -0.00000000000E+00 -0.00000000000E+00 -0.35086586930E+02  0.35086587292E+02  0.50400000000E-02 0. -1.
          2    1    1    2    0  502 -0.29471377871E+02 -0.15697887025E+02 -0.92494843390E+01  0.34648791288E+02  0.25500000000E-02 0.  1.
         -2    1    1    2  502    0  0.29471377871E+02  0.15697887025E+02  0.80802491714E+01  0.34355148142E+02  0.25500000000E-02 0.  1.
<mgrwt>
<rscale>  0 0.68994033E+02</rscale>
<asrwt>0</asrwt>
<pdfrwt beam="1">  1        1 0.52180542E-02 0.68994033E+02</pdfrwt>
<pdfrwt beam="2">  1       -1 0.53979365E-02 0.68994033E+02</pdfrwt>
<totfact> 0.19182700E+05</totfact>
</mgrwt>
</event>
<event>
 4    1  0.4029665E-002  0.5184308E+02  0.7818608E-02  0.1435647E+00
          1   -1    0    0    0  501  0.00000000000E+00  0.00000000000E+00  0.30968317054E+01  0.30968358066E+01  0.50400000000E-02 0. -1.
         -1   -1    0    0  501    0 -0.00000000000E+00 -0.00000000000E+00 -0.21697199418E+03  0.21697199424E+03  0.50400000000E-02 0. -1.
          2    1    1    2    0  502  0.85551411911E+00 -0.20272530162E+02 -0.38461783782E+02  0.43485816099E+02  0.25500000000E-02 0. -1.
         -2    1    1    2  502    0 -0.85551411911E+00  0.20272530162E+02 -0.17541337869E+03  0.17658301395E+03  0.25500000000E-02 0. -1.
<mgrwt>
<rscale>  0 0.51843079E+02</rscale>
<asrwt>0</asrwt>
<pdfrwt beam="1">  1        1 0.47643614E-03 0.51843079E+02</pdfrwt>
<pdfrwt beam="2">  1       -1 0.33380295E-01 0.51843079E+02</pdfrwt>
<totfact> 0.28626337E+05</totfact>
</mgrwt>
</event>
<event>
 4    1  0.4029665E-002  0.6224722E+02  0.7818608E-02  0.1388636E+00
          1   -1    0    0    0  501  0.00000000000E+00  0.00000000000E+00  0.69839265028E+03  0.69839265029E+03  0.50400000000E-02 0.  1.
         -1   -1    0    0  501    0 -0.00000000000E+00 -0.00000000000E+00 -0.13870075903E+01  0.13870167473E+01  0.50400000000E-02 0.  1.
          2    1    1    2    0  502 -0.15077952377E+02 -0.27064426703E+02  0.31505682385E+03  0.31657642063E+03  0.25500000000E-02 0. -1.
         -2    1    1    2  502    0  0.15077952377E+02  0.27064426703E+02  0.38194881884E+03  0.38320324641E+03  0.25500000000E-02 0. -1.
<mgrwt>
<rscale>  0 0.62247221E+02</rscale>
<asrwt>0</asrwt>
<pdfrwt beam="1">  1        1 0.10744480E+00 0.62247221E+02</pdfrwt>
<pdfrwt beam="2">  1       -1 0.21338692E-03 0.62247221E+02</pdfrwt>
<totfact> 0.38274960E+05</totfact>
</mgrwt>
</event>
<event>
 4    1  0.4029665E-002  0.4143919E+02  0.7818608E-02  0.1497880E+00
         -1   -1    0    0  501    0 -0.00000000000E+00  0.00000000000E+00  0.17827179419E+02  0.17827180131E+02  0.50400000000E-02 0.  1.
          1   -1    0    0    0  501  0.00000000000E+00 -0.00000000000E+00 -0.24081294436E+02  0.24081294963E+02  0.50400000000E-02 0.  1.
          2    1    1    2    0  502  0.13915687932E+02 -0.14790781277E+02 -0.72830969378E+01  0.21574454545E+02  0.25500000000E-02 0. -1.
         -2    1    1    2  502    0 -0.13915687932E+02  0.14790781277E+02  0.10289819209E+01  0.20334020549E+02  0.25500000000E-02 0. -1.
<mgrwt>
<rscale>  0 0.41439188E+02</rscale>
<asrwt>0</asrwt>
<pdfrwt beam="2">  1        1 0.37048146E-02 0.41439188E+02</pdfrwt>
<pdfrwt beam="1">  1       -1 0.27426431E-02 0.41439188E+02</pdfrwt>
<totfact> 0.70569219E+05</totfact>
</mgrwt>
</event>
<event>
 4    1  0.4029665E-002  0.6332839E+02  0.7818608E-02  0.1384372E+00
          1   -1    0    0    0  501  0.00000000000E+00  0.00000000000E+00  0.28846823282E+03  0.28846823286E+03  0.50400000000E-02 0. -1.
         -1   -1    0    0  501    0 -0.00000000000E+00 -0.00000000000E+00 -0.34756713768E+01  0.34756750310E+01  0.50400000000E-02 0. -1.
          2    1    1    2    0  502  0.21864257076E+02  0.18090097700E+02  0.20725389552E+03  0.20918765400E+03  0.25500000000E-02 0.  1.
         -2    1    1    2  502    0 -0.21864257076E+02 -0.18090097700E+02  0.77738665920E+02  0.82756253890E+02  0.25500000000E-02 0.  1.
<mgrwt>
<rscale>  0 0.63328392E+02</rscale>
<asrwt>0</asrwt>
<pdfrwt beam="1">  1        1 0.44379720E-01 0.63328392E+02</pdfrwt>
<pdfrwt beam="2">  1       -1 0.53471906E-03 0.63328392E+02</pdfrwt>
<totfact> 0.32976547E+05</totfact>
</mgrwt>
</event>
<event>
 4    1  0.4029665E-002  0.5208347E+02  0.7818608E-02  0.1434417E+00
          1   -1    0    0    0  501  0.00000000000E+00  0.00000000000E+00  0.53846423083E+03  0.53846423085E+03  0.50400000000E-02 0. -1.
         -1   -1    0    0  501    0 -0.00000000000E+00 -0.00000000000E+00 -0.12594508985E+01  0.12594609828E+01  0.50400000000E-02 0. -1.
          2    1    1    2    0  502  0.22479107698E+02 -0.13146993458E+02  0.26720206193E+03  0.26846805327E+03  0.25500000000E-02 0. -1.
         -2    1    1    2  502    0 -0.22479107698E+02  0.13146993458E+02  0.27000271800E+03  0.27125563856E+03  0.25500000000E-02 0. -1.
<mgrwt>
<rscale>  0 0.52083471E+02</rscale>
<asrwt>0</asrwt>
<pdfrwt beam="1">  1        1 0.82840644E-01 0.52083471E+02</pdfrwt>
<pdfrwt beam="2">  1       -1 0.19376247E-03 0.52083471E+02</pdfrwt>
<totfact> 0.59295469E+05</totfact>
</mgrwt>
</event>
<event>
 4    1  0.4029665E-002  0.4775641E+02  0.7818608E-02  0.1457833E+00
         -1   -1    0    0  501    0 -0.00000000000E+00  0.00000000000E+00  0.88116647359E+00  0.88118088709E+00  0.50400000000E-02 0.  1.
          1   -1    0    0    0  501  0.00000000000E+00 -0.00000000000E+00 -0.64705591184E+03  0.64705591186E+03  0.50400000000E-02 0.  1.
          2    1    1    2    0  502  0.12259735058E+02  0.20427505503E+02 -0.30127542011E+03  0.30221592092E+03  0.25500000000E-02 0. -1.
         -2    1    1    2  502    0 -0.12259735058E+02 -0.20427505503E+02 -0.34489932525E+03  0.34572117183E+03  0.25500000000E-02 0. -1.
<mgrwt>
<rscale>  0 0.47756409E+02</rscale>
<asrwt>0</asrwt>
<pdfrwt beam="2">  1        1 0.99546684E-01 0.47756409E+02</pdfrwt>
<pdfrwt beam="1">  1       -1 0.13556570E-03 0.47756409E+02</pdfrwt>
<totfact> 0.74308175E+05</totfact>
</mgrwt>
</event>
<event>
 4    1  0.4029665E-002  0.4996354E+02  0.7818608E-02  0.1445538E+00
         -1   -1    0    0  501    0 -0.00000000000E+00  0.00000000000E+00  0.93564367504E+00  0.93565724934E+00  0.50400000000E-02 0. -1.
          1   -1    0    0    0  501  0.00000000000E+00 -0.00000000000E+00 -0.66701070983E+03  0.66701070985E+03  0.50400000000E-02 0. -1.
          2    1    1    2    0  502  0.14916992367E+02 -0.17330326103E+02 -0.19852977817E+03  0.19984226202E+03  0.25500000000E-02 0. -1.
         -2    1    1    2  502    0 -0.14916992367E+02  0.17330326103E+02 -0.46754528799E+03  0.46810410508E+03  0.25500000000E-02 0. -1.
<mgrwt>
<rscale>  0 0.49963542E+02</rscale>
<asrwt>0</asrwt>
<pdfrwt beam="2">  1        1 0.10261665E+00 0.49963542E+02</pdfrwt>
<pdfrwt beam="1">  1       -1 0.14394676E-03 0.49963542E+02</pdfrwt>
<totfact> 0.66482471E+05</totfact>
</mgrwt>
</event>
<event>
 4    1  0.4029665E-002  0.4428850E+02  0.7818608E-02  0.1478833E+00
          1   -1    0    0    0  501  0.00000000000E+00  0.00000000000E+00  0.18601123959E+04  0.18601123959E+04  0.50400000000E-02 0. -1.
         -1   -1    0    0  501    0 -0.00000000000E+00 -0.00000000000E+00 -0.26359855798E+00  0.26364673593E+00  0.50400000000E-02 0. -1.
          2    1    1    2    0  502  0.53286261359E+01  0.21287155143E+02  0.80509894686E+03  0.80539794603E+03  0.25500000000E-02 0.  1.
         -2    1    1    2  502    0 -0.53286261359E+01 -0.21287155143E+02  0.10547498504E+04  0.10549780966E+04  0.25500000000E-02 0.  1.
<mgrwt>
<rscale>  0 0.44288498E+02</rscale>
<asrwt>0</asrwt>
<pdfrwt beam="1">  1        1 0.28616694E+00 0.44288498E+02</pdfrwt>
<pdfrwt beam="2">  1       -1 0.40557926E-04 0.44288498E+02</pdfrwt>
<totfact> 0.56228509E+05</totfact>
</mgrwt>
</event>
<event>
 4    1  0.4029665E-002  0.5918629E+02  0.7818608E-02  0.1401279E+00
          1   -1    0    0    0  501  0.00000000000E+00  0.00000000000E+00  0.38571840777E+03  0.38571840780E+03  0.50400000000E-02 0. -1.
         -1   -1    0    0  501    0 -0.00000000000E+00 -0.00000000000E+00 -0.22704466529E+01  0.22704522469E+01  0.50400000000E-02 0. -1.
          2    1    1    2    0  502  0.26756738657E+02  0.35891409243E+01  0.11225791603E+03  0.11545841119E+03  0.25500000000E-02 0.  1.
         -2    1    1    2  502    0 -0.26756738657E+02 -0.35891409243E+01  0.27119004508E+03  0.27253044886E+03  0.25500000000E-02 0.  1.
<mgrwt>
<rscale>  0 0.59186288E+02</rscale>
<asrwt>0</asrwt>
<pdfrwt beam="1">  1        1 0.59341235E-01 0.59186288E+02</pdfrwt>
<pdfrwt beam="2">  1       -1 0.34930026E-03 0.59186288E+02</pdfrwt>
<totfact> 0.41187298E+05</totfact>
</mgrwt>
</event>
<event>
 4    1  0.4029665E-002  0.5781262E+02  0.7818608E-02  0.1407247E+00
         -1   -1    0    0  501    0 -0.00000000000E+00  0.00000000000E+00  0.24573457999E+01  0.24573509684E+01  0.50400000000E-02 0.  1.
          1   -1    0    0    0  501  0.00000000000E+00 -0.00000000000E+00 -0.34003108009E+03  0.34003108013E+03  0.50400000000E-02 0.  1.
          2    1    1    2    0  502  0.22954251940E+02 -0.78397108935E+01 -0.26193230610E+03  0.26305302077E+03  0.25500000000E-02 0.  1.
         -2    1    1    2  502    0 -0.22954251940E+02  0.78397108935E+01 -0.75641428189E+02  0.79435410329E+02  0.25500000000E-02 0.  1.
<mgrwt>
<rscale>  0 0.57812623E+02</rscale>
<asrwt>0</asrwt>
<pdfrwt beam="2">  1        1 0.52312437E-01 0.57812623E+02</pdfrwt>
<pdfrwt beam="1">  1       -1 0.37805387E-03 0.57812623E+02</pdfrwt>
<totfact> 0.42817194E+05</totfact>
</mgrwt>
</event>
<event>
 4    1  0.4029665E-002  0.6708138E+02  0.7818608E-02  0.1370309E+00
          1   -1    0    0    0  501  0.00000000000E+00  0.00000000000E+00  0.22857515640E+04  0.22857515640E+04  0.50400000000E-02 0. -1.
         -1   -1    0    0  501    0 -0.00000000000E+00 -0.00000000000E+00 -0.49215686292E+00  0.49218266865E+00  0.50400000000E-02 0. -1.
          2    1    1    2    0  502  0.30606754927E+02  0.13504122557E+02  0.10602462175E+04  0.10607738573E+04  0.25500000000E-02 0.  1.
         -2    1    1    2  502    0 -0.30606754927E+02 -0.13504122557E+02  0.12250131896E+04  0.12254698893E+04  0.25500000000E-02 0.  1.
<mgrwt>
<rscale>  0 0.67081378E+02</rscale>
<asrwt>0</asrwt>
<pdfrwt beam="1">  1        1 0.35165891E+00 0.67081378E+02</pdfrwt>
<pdfrwt beam="2">  1       -1 0.75717387E-04 0.67081378E+02</pdfrwt>
<totfact> 0.14182420E+05</totfact>
</mgrwt>
</event>
<event>
 4    1  0.4029665E-002  0.5712808E+02  0.7818608E-02  0.1410295E+00
          1   -1    0    0    0  501  0.00000000000E+00  0.00000000000E+00  0.10966883885E+01  0.10966999695E+01  0.50400000000E-02 0. -1.
         -1   -1    0    0  501    0 -0.00000000000E+00 -0.00000000000E+00 -0.74396716931E+03  0.74396716933E+03  0.50400000000E-02 0. -1.
          2    1    1    2    0  502  0.21824211484E+02 -0.11489499883E+02 -0.55934838681E+03  0.55989188478E+03  0.25500000000E-02 0. -1.
         -2    1    1    2  502    0 -0.21824211484E+02  0.11489499883E+02 -0.18352209411E+03  0.18517198451E+03  0.25500000000E-02 0. -1.
<mgrwt>
<rscale>  0 0.57128083E+02</rscale>
<asrwt>0</asrwt>
<pdfrwt beam="1">  1        1 0.16872278E-03 0.57128083E+02</pdfrwt>
<pdfrwt beam="2">  1       -1 0.11445608E+00 0.57128083E+02</pdfrwt>
<totfact> 0.11629310E+05</totfact>
</mgrwt>
</event>
<event>
 4    1  0.4029665E-002  0.5337340E+02  0.7818608E-02  0.1427952E+00
         -1   -1    0    0  501    0 -0.00000000000E+00  0.00000000000E+00  0.30255696482E+02  0.30255696902E+02  0.50400000000E-02 0.  1.
          1   -1    0    0    0  501  0.00000000000E+00 -0.00000000000E+00 -0.23538707141E+02  0.23538707680E+02  0.50400000000E-02 0.  1.
          2    1    1    2    0  502 -0.18320195386E+02 -0.14646610462E+02  0.16187891536E+02  0.28499133248E+02  0.25500000000E-02 0.  1.
         -2    1    1    2  502    0  0.18320195386E+02  0.14646610462E+02 -0.94709021945E+01  0.25295271334E+02  0.25500000000E-02 0.  1.
<mgrwt>
<rscale>  0 0.53373402E+02</rscale>
<asrwt>0</asrwt>
<pdfrwt beam="2">  1        1 0.36213396E-02 0.53373402E+02</pdfrwt>
<pdfrwt beam="1">  1       -1 0.46547226E-02 0.53373402E+02</pdfrwt>
<totfact> 0.36656588E+05</totfact>
</mgrwt>
</event>
<event>
 4    1  0.4029665E-002  0.4529009E+02  0.7818608E-02  0.1472539E+00
          1   -1    0    0    0  501  0.00000000000E+00  0.00000000000E+00  0.10190363969E+01  0.10190488604E+01  0.50400000000E-02 0. -1.
         -1   -1    0    0  501    0 -0.00000000000E+00 -0.00000000000E+00 -0.50321541054E+03  0.50321541056E+03  0.50400000000E-02 0. -1.
          2    1    1    2    0  502  0.17222071439E+02 -0.13611484361E+02 -0.18918413661E+03  0.19045343211E+03  0.25500000000E-02 0. -1.
         -2    1    1    2  502    0 -0.17222071439E+02  0.13611484361E+02 -0.31301223753E+03  0.31378102732E+03  0.25500000000E-02 0. -1.
<mgrwt>
<rscale>  0 0.45290086E+02</rscale>
<asrwt>0</asrwt>
<pdfrwt beam="1">  1        1 0.15677619E-03 0.45290086E+02</pdfrwt>
<pdfrwt beam="2">  1       -1 0.77417558E-01 0.45290086E+02</pdfrwt>
<totfact> 0.27724101E+05</totfact>
</mgrwt>
</event>
<event>
 4    1  0.4029665E-002  0.4707253E+02  0.7818608E-02  0.1461803E+00
          1   -1    0    0    0  501  0.00000000000E+00  0.00000000000E+00  0.90246185537E+02  0.90246185678E+02  0.50400000000E-02 0. -1.
         -1   -1    0    0  501    0 -0.00000000000E+00 -0.00000000000E+00 -0.61382731069E+01  0.61382751760E+01  0.50400000000E-02 0. -1.
          2    1    1    2    0  502  0.22915296209E+00  0.22095959082E+02  0.58647123583E+02  0.62671915799E+02  0.25500000000E-02 0.  1.
         -2    1    1    2  502    0 -0.22915296209E+00 -0.22095959082E+02  0.25460788847E+02  0.33712545055E+02  0.25500000000E-02 0.  1.
<mgrwt>
<rscale>  0 0.47072533E+02</rscale>
<asrwt>0</asrwt>
<pdfrwt beam="1">  1        1 0.13884030E-01 0.47072533E+02</pdfrwt>
<pdfrwt beam="2">  1       -1 0.94434979E-03 0.47072533E+02</pdfrwt>
<totfact> 0.57990410E+05</totfact>
</mgrwt>
</event>
<event>
 4    1  0.4029665E-002  0.4183891E+02  0.7818608E-02  0.1495099E+00
         -1   -1    0    0  501    0 -0.00000000000E+00  0.00000000000E+00  0.86160156793E+02  0.86160156941E+02  0.50400000000E-02 0.  1.
          1   -1    0    0    0  501  0.00000000000E+00 -0.00000000000E+00 -0.50791867306E+01  0.50791892312E+01  0.50400000000E-02 0.  1.
          2    1    1    2    0  502  0.17193149164E+02  0.11090807054E+02  0.50049380509E+02  0.54069870308E+02  0.25500000000E-02 0. -1.
         -2    1    1    2  502    0 -0.17193149164E+02 -0.11090807054E+02  0.31031589554E+02  0.37169475864E+02  0.25500000000E-02 0. -1.
<mgrwt>
<rscale>  0 0.41838912E+02</rscale>
<asrwt>0</asrwt>
<pdfrwt beam="2">  1        1 0.78141360E-03 0.41838912E+02</pdfrwt>
<pdfrwt beam="1">  1       -1 0.13255408E-01 0.41838912E+02</pdfrwt>
<totfact> 0.58966318E+05</totfact>
</mgrwt>
</event>
<event>
 4    1  0.4029665E-002  0.5206070E+02  0.7818608E-02  0.1434533E+00
          1   -1    0    0    0  501  0.00000000000E+00  0.00000000000E+00  0.53371809634E+01  0.53371833431E+01  0.50400000000E-02 0.  1.
         -1   -1    0    0  501    0 -0.00000000000E+00 -0.00000000000E+00 -0.12695444634E+03  0.12695444644E+03  0.50400000000E-02 0.  1.
          2    1    1    2    0  502 -0.22298951787E+02  0.83835260009E+01 -0.34150982482E+02  0.41639120668E+02  0.25500000000E-02 0.  1.
         -2    1    1    2  502    0  0.22298951787E+02 -0.83835260009E+01 -0.87466282897E+02  0.90652509118E+02  0.25500000000E-02 0.  1.
<mgrwt>
<rscale>  0 0.52060696E+02</rscale>
<asrwt>0</asrwt>
<pdfrwt beam="1">  1        1 0.82110505E-03 0.52060696E+02</pdfrwt>
<pdfrwt beam="2">  1       -1 0.19531451E-01 0.52060696E+02</pdfrwt>
<totfact> 0.32254779E+05</totfact>
</mgrwt>
</event>
<event>
 4    1  0.4029665E-002  0.4333436E+02  0.7818608E-02  0.1485016E+00
          1   -1    0    0    0  501  0.00000000000E+00  0.00000000000E+00  0.24985489576E+02  0.24985490084E+02  0.50400000000E-02 0. -1.
         -1   -1    0    0  501    0 -0.00000000000E+00 -0.00000000000E+00 -0.18789575285E+02  0.18789575961E+02  0.50400000000E-02 0. -1.
          2    1    1    2    0  502 -0.20055577375E+02  0.65064967079E+01  0.81393091482E+01  0.22601085000E+02  0.25500000000E-02 0. -1.
         -2    1    1    2  502    0  0.20055577375E+02 -0.65064967079E+01 -0.19433948573E+01  0.21173981046E+02  0.25500000000E-02 0. -1.
<mgrwt>
<rscale>  0 0.43334363E+02</rscale>
<asrwt>0</asrwt>
<pdfrwt beam="1">  1        1 0.38439216E-02 0.43334363E+02</pdfrwt>
<pdfrwt beam="2">  1       -1 0.28907040E-02 0.43334363E+02</pdfrwt>
<totfact> 0.63193166E+05</totfact>
</mgrwt>
</event>
<event>
 4    1  0.4029665E-002  0.1699525E+03  0.7818608E-02  0.1177897E+00
         -1   -1    0    0  501    0 -0.00000000000E+00  0.00000000000E+00  0.93288838479E+01  0.93288852093E+01  0.50400000000E-02 0.  1.
          1   -1    0    0    0  501  0.00000000000E+00 -0.00000000000E+00 -0.77404323571E+03  0.77404323573E+03  0.50400000000E-02 0.  1.
          2    1    1    2    0  502  0.31303469396E+02 -0.27591725164E+02 -0.72356658525E+03  0.72476880023E+03  0.25500000000E-02 0. -1.
         -2    1    1    2  502    0 -0.31303469396E+02  0.27591725164E+02 -0.41147766612E+02  0.58603320703E+02  0.25500000000E-02 0. -1.
<mgrwt>
<rscale>  0 0.16995246E+03</rscale>
<asrwt>0</asrwt>
<pdfrwt beam="2">  1        1 0.11908352E+00 0.16995246E+03</pdfrwt>
<pdfrwt beam="1">  1       -1 0.14352136E-02 0.16995246E+03</pdfrwt>
<totfact> 0.25995180E+04</totfact>
</mgrwt>
</event>
<event>
 4    1  0.4029665E-002  0.4675884E+02  0.7818608E-02  0.1463651E+00
          1   -1    0    0    0  501  0.00000000000E+00  0.00000000000E+00  0.13599430745E+04  0.13599430745E+04  0.50400000000E-02 0. -1.
         -1   -1    0    0  501    0 -0.00000000000E+00 -0.00000000000E+00 -0.40191085272E+00  0.40194245251E+00  0.50400000000E-02 0. -1.
          2    1    1    2    0  502  0.15726091692E+02 -0.16191232121E+02  0.50249208552E+03  0.50299876935E+03  0.25500000000E-02 0.  1.
         -2    1    1    2  502    0 -0.15726091692E+02  0.16191232121E+02  0.85704907809E+03  0.85734624757E+03  0.25500000000E-02 0.  1.
<mgrwt>
<rscale>  0 0.46758844E+02</rscale>
<asrwt>0</asrwt>
<pdfrwt beam="1">  1        1 0.20922117E+00 0.46758844E+02</pdfrwt>
<pdfrwt beam="2">  1       -1 0.61835121E-04 0.46758844E+02</pdfrwt>
<totfact> 0.65601610E+05</totfact>
</mgrwt>
</event>
<event>
 4    1  0.4029665E-002  0.4543105E+02  0.7818608E-02  0.1471668E+00
          1   -1    0    0    0  501  0.00000000000E+00  0.00000000000E+00  0.24900517111E+01  0.24900568117E+01  0.50400000000E-02 0.  1.
         -1   -1    0    0  501    0 -0.00000000000E+00 -0.00000000000E+00 -0.20722243845E+03  0.20722243851E+03  0.50400000000E-02 0.  1.
          2    1    1    2    0  502 -0.18008027749E+02  0.10695828434E+02 -0.61780199776E+02  0.65234062422E+02  0.25500000000E-02 0.  1.
         -2    1    1    2  502    0  0.18008027749E+02 -0.10695828434E+02 -0.14295218696E+03  0.14447843290E+03  0.25500000000E-02 0.  1.
<mgrwt>
<rscale>  0 0.45431052E+02</rscale>
<asrwt>0</asrwt>
<pdfrwt beam="1">  1        1 0.38308544E-03 0.45431052E+02</pdfrwt>
<pdfrwt beam="2">  1       -1 0.31880362E-01 0.45431052E+02</pdfrwt>
<totfact> 0.40196454E+05</totfact>
</mgrwt>
</event>
<event>
 4    1  0.4029665E-002  0.4837626E+02  0.7818608E-02  0.1454302E+00
         -1   -1    0    0  501    0 -0.00000000000E+00  0.00000000000E+00  0.31259074508E+00  0.31263137320E+00  0.50400000000E-02 0. -1.
          1   -1    0    0    0  501  0.00000000000E+00 -0.00000000000E+00 -0.18715448362E+04  0.18715448362E+04  0.50400000000E-02 0. -1.
          2    1    1    2    0  502  0.22858471062E+02 -0.47357734548E+01 -0.69050317685E+03  0.69089765848E+03  0.25500000000E-02 0.  1.
         -2    1    1    2  502    0 -0.22858471062E+02  0.47357734548E+01 -0.11807290686E+04  0.11809598091E+04  0.25500000000E-02 0.  1.
<mgrwt>
<rscale>  0 0.48376260E+02</rscale>
<asrwt>0</asrwt>
<pdfrwt beam="2">  1        1 0.28792101E+00 0.48376260E+02</pdfrwt>
<pdfrwt beam="1">  1       -1 0.48095508E-04 0.48376260E+02</pdfrwt>
<totfact> 0.44796326E+05</totfact>
</mgrwt>
</event>
<event>
 4    1  0.4029665E-002  0.6600414E+02  0.7818608E-02  0.1374234E+00
          1   -1    0    0    0  501  0.00000000000E+00  0.00000000000E+00  0.51894938985E+01  0.51894963459E+01  0.50400000000E-02 0.  1.
         -1   -1    0    0  501    0 -0.00000000000E+00 -0.00000000000E+00 -0.20987332108E+03  0.20987332114E+03  0.50400000000E-02 0.  1.
          2    1    1    2    0  502  0.15227586834E+02 -0.28056348227E+02 -0.75061651292E+02  0.81567699353E+02  0.25500000000E-02 0. -1.
         -2    1    1    2  502    0 -0.15227586834E+02  0.28056348227E+02 -0.12962217589E+03  0.13349511813E+03  0.25500000000E-02 0. -1.
<mgrwt>
<rscale>  0 0.66004139E+02</rscale>
<asrwt>0</asrwt>
<pdfrwt beam="1">  1        1 0.79838403E-03 0.66004139E+02</pdfrwt>
<pdfrwt beam="2">  1       -1 0.32288197E-01 0.66004139E+02</pdfrwt>
<totfact> 0.15739703E+05</totfact>
</mgrwt>
</event>
<event>
 4    1  0.4029665E-002  0.1246811E+03  0.7818608E-02  0.1235569E+00
          1   -1    0    0    0  501  0.00000000000E+00  0.00000000000E+00  0.17340090579E+02  0.17340091311E+02  0.50400000000E-02 0. -1.
         -1   -1    0    0  501    0 -0.00000000000E+00 -0.00000000000E+00 -0.22412471719E+03  0.22412471725E+03  0.50400000000E-02 0. -1.
          2    1    1    2    0  502 -0.26402466731E+01  0.46160431284E+02 -0.22408752771E+02  0.51380040153E+02  0.25500000000E-02 0. -1.
         -2    1    1    2  502    0  0.26402466731E+01 -0.46160431284E+02 -0.18437587384E+03  0.19008476840E+03  0.25500000000E-02 0. -1.
<mgrwt>
<rscale>  0 0.12468108E+03</rscale>
<asrwt>0</asrwt>
<pdfrwt beam="1">  1        1 0.26677065E-02 0.12468108E+03</pdfrwt>
<pdfrwt beam="2">  1       -1 0.34480724E-01 0.12468108E+03</pdfrwt>
<totfact> 0.29448019E+04</totfact>
</mgrwt>
</event>
<event>
 4    1  0.4029665E-002  0.4587490E+02  0.7818608E-02  0.1468953E+00
          1   -1    0    0    0  501  0.00000000000E+00  0.00000000000E+00  0.12726403913E+02  0.12726404911E+02  0.50400000000E-02 0.  1.
         -1   -1    0    0  501    0 -0.00000000000E+00 -0.00000000000E+00 -0.41341345942E+02  0.41341346249E+02  0.50400000000E-02 0.  1.
          2    1    1    2    0  502  0.52299701394E+01 -0.21849311711E+02 -0.19757315491E+02  0.29918163912E+02  0.25500000000E-02 0. -1.
         -2    1    1    2  502    0 -0.52299701394E+01  0.21849311711E+02 -0.88576265370E+01  0.24149587249E+02  0.25500000000E-02 0. -1.
<mgrwt>
<rscale>  0 0.45874904E+02</rscale>
<asrwt>0</asrwt>
<pdfrwt beam="1">  1        1 0.19579084E-02 0.45874904E+02</pdfrwt>
<pdfrwt beam="2">  1       -1 0.63602071E-02 0.45874904E+02</pdfrwt>
<totfact> 0.51460018E+05</totfact>
</mgrwt>
</event>
<event>
 4    1  0.4029665E-002  0.5257665E+02  0.7818608E-02  0.1431919E+00
          1   -1    0    0    0  501  0.00000000000E+00  0.00000000000E+00  0.24078905251E+04  0.24078905251E+04  0.50400000000E-02 0. -1.
         -1   -1    0    0  501    0 -0.00000000000E+00 -0.00000000000E+00 -0.28698265915E+00  0.28702691207E+00  0.50400000000E-02 0. -1.
          2    1    1    2    0  502  0.22465391609E+02  0.12672291910E+02  0.14364318795E+04  0.14366634349E+04  0.25500000000E-02 0. -1.
         -2    1    1    2  502    0 -0.22465391609E+02 -0.12672291910E+02  0.97117166293E+03  0.97151411708E+03  0.25500000000E-02 0. -1.
<mgrwt>
<rscale>  0 0.52576653E+02</rscale>
<asrwt>0</asrwt>
<pdfrwt beam="1">  1        1 0.37044937E+00 0.52576653E+02</pdfrwt>
<pdfrwt beam="2">  1       -1 0.44154026E-04 0.52576653E+02</pdfrwt>
<totfact> 0.23814311E+05</totfact>
</mgrwt>
</event>
<event>
 4    1  0.4029665E-002  0.8510072E+02  0.7818608E-02  0.1315169E+00
         -1   -1    0    0  501    0 -0.00000000000E+00  0.00000000000E+00  0.17793599759E+01  0.17793671138E+01  0.50400000000E-02 0.  1.
          1   -1    0    0    0  501  0.00000000000E+00 -0.00000000000E+00 -0.10175172393E+04  0.10175172393E+04  0.50400000000E-02 0.  1.
          2    1    1    2    0  502  0.15584554820E+02  0.37434203983E+02 -0.66234433500E+03  0.66358436999E+03  0.25500000000E-02 0. -1.
         -2    1    1    2  502    0 -0.15584554820E+02 -0.37434203983E+02 -0.35339354432E+03  0.35571223644E+03  0.25500000000E-02 0. -1.
<mgrwt>
<rscale>  0 0.85100719E+02</rscale>
<asrwt>0</asrwt>
<pdfrwt beam="2">  1        1 0.15654065E+00 0.85100719E+02</pdfrwt>
<pdfrwt beam="1">  1       -1 0.27374905E-03 0.85100719E+02</pdfrwt>
<totfact> 0.16234565E+05</totfact>
</mgrwt>
</event>
<event>
 4    1  0.4029665E-002  0.4542767E+02  0.7818608E-02  0.1471689E+00
          1   -1    0    0    0  501  0.00000000000E+00  0.00000000000E+00  0.49880595190E+03  0.49880595192E+03  0.50400000000E-02 0.  1.
         -1   -1    0    0  501    0 -0.00000000000E+00 -0.00000000000E+00 -0.10343005107E+01  0.10343127902E+01  0.50400000000E-02 0.  1.
          2    1    1    2    0  502  0.13825387574E+02  0.17476615166E+02  0.29728010343E+03  0.29811412801E+03  0.25500000000E-02 0.  1.
         -2    1    1    2  502    0 -0.13825387574E+02 -0.17476615166E+02  0.20049154796E+03  0.20172613670E+03  0.25500000000E-02 0.  1.
<mgrwt>
<rscale>  0 0.45427671E+02</rscale>
<asrwt>0</asrwt>
<pdfrwt beam="1">  1        1 0.76739584E-01 0.45427671E+02</pdfrwt>
<pdfrwt beam="2">  1       -1 0.15912368E-03 0.45427671E+02</pdfrwt>
<totfact> 0.82547899E+05</totfact>
</mgrwt>
</event>
<event>
 4    1  0.4029665E-002  0.6517542E+02  0.7818608E-02  0.1377313E+00
         -1   -1    0    0  501    0 -0.00000000000E+00  0.00000000000E+00  0.43665363379E+03  0.43665363382E+03  0.50400000000E-02 0.  1.
          1   -1    0    0    0  501  0.00000000000E+00 -0.00000000000E+00 -0.24320369426E+01  0.24320421648E+01  0.50400000000E-02 0.  1.
          2    1    1    2    0  502 -0.17498775686E+02  0.17557236915E+02  0.35962547906E+03  0.36047877734E+03  0.25500000000E-02 0. -1.
         -2    1    1    2  502    0  0.17498775686E+02 -0.17557236915E+02  0.74596117786E+02  0.78606898640E+02  0.25500000000E-02 0. -1.
<mgrwt>
<rscale>  0 0.65175422E+02</rscale>
<asrwt>0</asrwt>
<pdfrwt beam="2">  1        1 0.37416019E-03 0.65175422E+02</pdfrwt>
<pdfrwt beam="1">  1       -1 0.67177437E-01 0.65175422E+02</pdfrwt>
<totfact> 0.12121105E+05</totfact>
</mgrwt>
</event>
<event>
 4    1  0.4029665E-002  0.8142867E+02  0.7818608E-02  0.1325045E+00
         -1   -1    0    0  501    0 -0.00000000000E+00  0.00000000000E+00  0.93958228117E+00  0.93959579857E+00  0.50400000000E-02 0.  1.
          1   -1    0    0    0  501  0.00000000000E+00 -0.00000000000E+00 -0.17642361392E+04  0.17642361392E+04  0.50400000000E-02 0.  1.
          2    1    1    2    0  502  0.26525027012E+02  0.27074055795E+02 -0.12039635064E+04  0.12045599637E+04  0.25500000000E-02 0.  1.
         -2    1    1    2  502    0 -0.26525027012E+02 -0.27074055795E+02 -0.55933305054E+03  0.56061577126E+03  0.25500000000E-02 0.  1.
<mgrwt>
<rscale>  0 0.81428667E+02</rscale>
<asrwt>0</asrwt>
<pdfrwt beam="2">  1        1 0.27141829E+00 0.81428667E+02</pdfrwt>
<pdfrwt beam="1">  1       -1 0.14455357E-03 0.81428667E+02</pdfrwt>
<totfact> 0.12695738E+05</totfact>
</mgrwt>
</event>
<event>
 4    1  0.4029665E-002  0.4088716E+02  0.7818608E-02  0.1501783E+00
         -1   -1    0    0  501    0 -0.00000000000E+00  0.00000000000E+00  0.78309905949E+01  0.78309922167E+01  0.50400000000E-02 0. -1.
          1   -1    0    0    0  501  0.00000000000E+00 -0.00000000000E+00 -0.53369983025E+02  0.53369983263E+02  0.50400000000E-02 0. -1.
          2    1    1    2    0  502 -0.68673964464E+01  0.19252032654E+02 -0.23325522938E+02  0.31014221288E+02  0.25500000000E-02 0.  1.
         -2    1    1    2  502    0  0.68673964464E+01 -0.19252032654E+02 -0.22213469492E+02  0.30186754192E+02  0.25500000000E-02 0.  1.
<mgrwt>
<rscale>  0 0.40887157E+02</rscale>
<asrwt>0</asrwt>
<pdfrwt beam="2">  1        1 0.82107665E-02 0.40887157E+02</pdfrwt>
<pdfrwt beam="1">  1       -1 0.12047680E-02 0.40887157E+02</pdfrwt>
<totfact> 0.77848922E+05</totfact>
</mgrwt>
</event>
<event>
 4    1  0.4029665E-002  0.4914772E+02  0.7818608E-02  0.1449993E+00
         -1   -1    0    0  501    0 -0.00000000000E+00  0.00000000000E+00  0.19028913944E+01  0.19028980689E+01  0.50400000000E-02 0. -1.
          1   -1    0    0    0  501  0.00000000000E+00 -0.00000000000E+00 -0.31734526332E+03  0.31734526336E+03  0.50400000000E-02 0. -1.
          2    1    1    2    0  502  0.52435661656E+01  0.22350456268E+02 -0.21466014438E+03  0.21588426407E+03  0.25500000000E-02 0. -1.
         -2    1    1    2  502    0 -0.52435661656E+01 -0.22350456268E+02 -0.10078222754E+03  0.10336389735E+03  0.25500000000E-02 0. -1.
<mgrwt>
<rscale>  0 0.49147722E+02</rscale>
<asrwt>0</asrwt>
<pdfrwt beam="2">  1        1 0.48822307E-01 0.49147722E+02</pdfrwt>
<pdfrwt beam="1">  1       -1 0.29275329E-03 0.49147722E+02</pdfrwt>
<totfact> 0.63613907E+05</totfact>
</mgrwt>
</event>
<event>
 4    1  0.4029665E-002  0.4291504E+02  0.7818608E-02  0.1487794E+00
          1   -1    0    0    0  501  0.00000000000E+00  0.00000000000E+00  0.19097189272E+04  0.19097189272E+04  0.50400000000E-02 0. -1.
         -1   -1    0    0  501    0 -0.00000000000E+00 -0.00000000000E+00 -0.24106939891E+00  0.24112207839E+00  0.50400000000E-02 0. -1.
          2    1    1    2    0  502  0.20393270752E+02  0.39913017981E+01  0.71668955997E+03  0.71699075403E+03  0.25500000000E-02 0. -1.
         -2    1    1    2  502    0 -0.20393270752E+02 -0.39913017981E+01  0.11927882978E+04  0.11929692952E+04  0.25500000000E-02 0. -1.
<mgrwt>
<rscale>  0 0.42915037E+02</rscale>
<asrwt>0</asrwt>
<pdfrwt beam="1">  1        1 0.29379992E+00 0.42915037E+02</pdfrwt>
<pdfrwt beam="2">  1       -1 0.37092031E-04 0.42915037E+02</pdfrwt>
<totfact> 0.58739203E+05</totfact>
</mgrwt>
</event>
<event>
 4    1  0.4029665E-002  0.4514186E+02  0.7818608E-02  0.1473458E+00
          1   -1    0    0    0  501  0.00000000000E+00  0.00000000000E+00  0.49920331849E+02  0.49920332103E+02  0.50400000000E-02 0.  1.
         -1   -1    0    0  501    0 -0.00000000000E+00 -0.00000000000E+00 -0.10205199340E+02  0.10205200585E+02  0.50400000000E-02 0.  1.
          2    1    1    2    0  502  0.22276493020E+02  0.16259901251E+01  0.15529122465E+02  0.27203669535E+02  0.25500000000E-02 0.  1.
         -2    1    1    2  502    0 -0.22276493020E+02 -0.16259901251E+01  0.24186010043E+02  0.32921863153E+02  0.25500000000E-02 0.  1.
<mgrwt>
<rscale>  0 0.45141865E+02</rscale>
<asrwt>0</asrwt>
<pdfrwt beam="1">  1        1 0.76800512E-02 0.45141865E+02</pdfrwt>
<pdfrwt beam="2">  1       -1 0.15700308E-02 0.45141865E+02</pdfrwt>
<totfact> 0.60410464E+05</totfact>
</mgrwt>
</event>
<event>
 4    1  0.4029665E-002  0.6943551E+02  0.7818608E-02  0.1362023E+00
         -1   -1    0    0  501    0 -0.00000000000E+00  0.00000000000E+00  0.71337307372E+01  0.71337325176E+01  0.50400000000E-02 0.  1.
          1   -1    0    0    0  501  0.00000000000E+00 -0.00000000000E+00 -0.16896099174E+03  0.16896099181E+03  0.50400000000E-02 0.  1.
          2    1    1    2    0  502 -0.15224254821E+02 -0.13835692989E+02 -0.99883780032E+01  0.22868581875E+02  0.25500000000E-02 0. -1.
         -2    1    1    2  502    0  0.15224254821E+02  0.13835692989E+02 -0.15183888300E+03  0.15322614246E+03  0.25500000000E-02 0. -1.
<mgrwt>
<rscale>  0 0.69435506E+02</rscale>
<asrwt>0</asrwt>
<pdfrwt beam="2">  1        1 0.25993996E-01 0.69435506E+02</pdfrwt>
<pdfrwt beam="1">  1       -1 0.10974973E-02 0.69435506E+02</pdfrwt>
<totfact> 0.23583896E+05</totfact>
</mgrwt>
</event>
<event>
 4    1  0.4029665E-002  0.4704790E+02  0.7818608E-02  0.1461947E+00
         -1   -1    0    0  501    0 -0.00000000000E+00  0.00000000000E+00  0.56213723922E+01  0.56213746516E+01  0.50400000000E-02 0. -1.
          1   -1    0    0    0  501  0.00000000000E+00 -0.00000000000E+00 -0.98441455068E+02  0.98441455197E+02  0.50400000000E-02 0. -1.
          2    1    1    2    0  502 -0.34331183221E+01  0.22978223432E+02 -0.54564279139E+02  0.59304684621E+02  0.25500000000E-02 0. -1.
         -2    1    1    2  502    0  0.34331183221E+01 -0.22978223432E+02 -0.38255803537E+02  0.44758145228E+02  0.25500000000E-02 0. -1.
<mgrwt>
<rscale>  0 0.47047899E+02</rscale>
<asrwt>0</asrwt>
<pdfrwt beam="2">  1        1 0.15144838E-01 0.47047899E+02</pdfrwt>
<pdfrwt beam="1">  1       -1 0.86482677E-03 0.47047899E+02</pdfrwt>
<totfact> 0.58717634E+05</totfact>
</mgrwt>
</event>
<event>
 4    1  0.4029665E-002  0.5050917E+02  0.7818608E-02  0.1442614E+00
         -1   -1    0    0  501    0 -0.00000000000E+00  0.00000000000E+00  0.65793790447E+01  0.65793809751E+01  0.50400000000E-02 0. -1.
          1   -1    0    0    0  501  0.00000000000E+00 -0.00000000000E+00 -0.96938319023E+02  0.96938319154E+02  0.50400000000E-02 0. -1.
          2    1    1    2    0  502  0.10958107441E+02 -0.22716722402E+02 -0.42535358779E+02  0.49450847802E+02  0.25500000000E-02 0. -1.
         -2    1    1    2  502    0 -0.10958107441E+02  0.22716722402E+02 -0.47823581200E+02  0.54066852328E+02  0.25500000000E-02 0. -1.
<mgrwt>
<rscale>  0 0.50509170E+02</rscale>
<asrwt>0</asrwt>
<pdfrwt beam="2">  1        1 0.14913587E-01 0.50509170E+02</pdfrwt>
<pdfrwt beam="1">  1       -1 0.10122124E-02 0.50509170E+02</pdfrwt>
<totfact> 0.49013335E+05</totfact>
</mgrwt>
</event>
<event>
 4    1  0.4029665E-002  0.4503154E+02  0.7818608E-02  0.1474145E+00
          1   -1    0    0    0  501  0.00000000000E+00  0.00000000000E+00  0.47708720675E+03  0.47708720678E+03  0.50400000000E-02 0. -1.
         -1   -1    0    0  501    0 -0.00000000000E+00 -0.00000000000E+00 -0.10626086632E+01  0.10626206156E+01  0.50400000000E-02 0. -1.
          2    1    1    2    0  502 -0.67182089463E+01  0.20305271468E+02  0.16329106986E+03  0.16468579746E+03  0.25500000000E-02 0. -1.
         -2    1    1    2  502    0  0.67182089463E+01 -0.20305271468E+02  0.31273352823E+03  0.31346402994E+03  0.25500000000E-02 0. -1.
<mgrwt>
<rscale>  0 0.45031538E+02</rscale>
<asrwt>0</asrwt>
<pdfrwt beam="1">  1        1 0.73398041E-01 0.45031538E+02</pdfrwt>
<pdfrwt beam="2">  1       -1 0.16347916E-03 0.45031538E+02</pdfrwt>
<totfact> 0.83920786E+05</totfact>
</mgrwt>
</event>
<event>
 4    1  0.4029665E-002  0.1117927E+03  0.7818608E-02  0.1257286E+00
         -1   -1    0    0  501    0 -0.00000000000E+00  0.00000000000E+00  0.40140178733E+01  0.40140210374E+01  0.50400000000E-02 0. -1.
          1   -1    0    0    0  501  0.00000000000E+00 -0.00000000000E+00 -0.77837213665E+03  0.77837213666E+03  0.50400000000E-02 0. -1.
          2    1    1    2    0  502 -0.25036323745E+02 -0.29765554720E+02 -0.66813340934E+03  0.66926456536E+03  0.25500000000E-02 0.  1.
         -2    1    1    2  502    0  0.25036323745E+02  0.29765554720E+02 -0.10622470943E+03  0.11312159234E+03  0.25500000000E-02 0.  1.
<mgrwt>
<rscale>  0 0.11179268E+03</rscale>
<asrwt>0</asrwt>
<pdfrwt beam="2">  1        1 0.11974944E+00 0.11179268E+03</pdfrwt>
<pdfrwt beam="1">  1       -1 0.61754208E-03 0.11179268E+03</pdfrwt>
<totfact> 0.82170755E+04</totfact>
</mgrwt>
</event>
<event>
 4    1  0.4029665E-002  0.6971042E+02  0.7818608E-02  0.1361081E+00
         -1   -1    0    0  501    0 -0.00000000000E+00  0.00000000000E+00  0.58258291530E+02  0.58258291749E+02  0.50400000000E-02 0. -1.
          1   -1    0    0    0  501  0.00000000000E+00 -0.00000000000E+00 -0.20853437999E+02  0.20853438608E+02  0.50400000000E-02 0. -1.
          2    1    1    2    0  502 -0.23459077954E+02 -0.17516089759E+02  0.40167349571E+02  0.49704705179E+02  0.25500000000E-02 0. -1.
         -2    1    1    2  502    0  0.23459077954E+02  0.17516089759E+02 -0.27624960391E+01  0.29407025177E+02  0.25500000000E-02 0. -1.
<mgrwt>
<rscale>  0 0.69710421E+02</rscale>
<asrwt>0</asrwt>
<pdfrwt beam="2">  1        1 0.32082213E-02 0.69710421E+02</pdfrwt>
<pdfrwt beam="1">  1       -1 0.89628141E-02 0.69710421E+02</pdfrwt>
<totfact> 0.17548294E+05</totfact>
</mgrwt>
</event>
<event>
 4    1  0.4029665E-002  0.8132116E+02  0.7818608E-02  0.1325343E+00
          1   -1    0    0    0  501  0.00000000000E+00  0.00000000000E+00  0.26989413568E+03  0.26989413572E+03  0.50400000000E-02 0.  1.
         -1   -1    0    0  501    0 -0.00000000000E+00 -0.00000000000E+00 -0.61256708349E+01  0.61256729082E+01  0.50400000000E-02 0.  1.
          2    1    1    2    0  502  0.35770365353E+02 -0.16843051666E+01  0.66513870750E+02  0.75541054600E+02  0.25500000000E-02 0. -1.
         -2    1    1    2  502    0 -0.35770365353E+02  0.16843051666E+01  0.19725459409E+03  0.20047875403E+03  0.25500000000E-02 0. -1.
<mgrwt>
<rscale>  0 0.81321164E+02</rscale>
<asrwt>0</asrwt>
<pdfrwt beam="1">  1        1 0.41522190E-01 0.81321164E+02</pdfrwt>
<pdfrwt beam="2">  1       -1 0.94241071E-03 0.81321164E+02</pdfrwt>
<totfact> 0.17001374E+05</totfact>
</mgrwt>
</event>
<event>
 4    1  0.4029665E-002  0.8792412E+02  0.7818608E-02  0.1307958E+00
         -1   -1    0    0  501    0 -0.00000000000E+00  0.00000000000E+00  0.45357949792E+03  0.45357949795E+03  0.50400000000E-02 0.  1.
          1   -1    0    0    0  501  0.00000000000E+00 -0.00000000000E+00 -0.42609115755E+01  0.42609145563E+01  0.50400000000E-02 0.  1.
          2    1    1    2    0  502 -0.41172067272E+02  0.34545447278E+00  0.14442677532E+03  0.15018106371E+03  0.25500000000E-02 0.  1.
         -2    1    1    2  502    0  0.41172067272E+02 -0.34545447278E+00  0.30489181102E+03  0.30765934879E+03  0.25500000000E-02 0.  1.
<mgrwt>
<rscale>  0 0.87924122E+02</rscale>
<asrwt>0</asrwt>
<pdfrwt beam="2">  1        1 0.65552480E-03 0.87924122E+02</pdfrwt>
<pdfrwt beam="1">  1       -1 0.69781492E-01 0.87924122E+02</pdfrwt>
<totfact> 0.54797819E+04</totfact>
</mgrwt>
</event>
<event>
 4    1  0.4029665E-002  0.4697792E+02  0.7818608E-02  0.1462359E+00
          1   -1    0    0    0  501  0.00000000000E+00  0.00000000000E+00  0.30230816773E+02  0.30230817194E+02  0.50400000000E-02 0.  1.
         -1   -1    0    0  501    0 -0.00000000000E+00 -0.00000000000E+00 -0.18250620239E+02  0.18250620935E+02  0.50400000000E-02 0.  1.
          2    1    1    2    0  502 -0.12449940349E+02 -0.17489555090E+02  0.15826443016E+02  0.26671367737E+02  0.25500000000E-02 0.  1.
         -2    1    1    2  502    0  0.12449940349E+02  0.17489555090E+02 -0.38462464810E+01  0.21810070391E+02  0.25500000000E-02 0.  1.
<mgrwt>
<rscale>  0 0.46977918E+02</rscale>
<asrwt>0</asrwt>
<pdfrwt beam="1">  1        1 0.46508949E-02 0.46977918E+02</pdfrwt>
<pdfrwt beam="2">  1       -1 0.28077879E-02 0.46977918E+02</pdfrwt>
<totfact> 0.52230169E+05</totfact>
</mgrwt>
</event>
<event>
 4    1  0.4029665E-002  0.4031947E+02  0.7818608E-02  0.1505874E+00
          1   -1    0    0    0  501  0.00000000000E+00  0.00000000000E+00  0.79637463807E+02  0.79637463967E+02  0.50400000000E-02 0. -1.
         -1   -1    0    0  501    0 -0.00000000000E+00 -0.00000000000E+00 -0.51033120176E+01  0.51033145063E+01  0.50400000000E-02 0. -1.
          2    1    1    2    0  502 -0.18784177718E+02 -0.69154711765E+01  0.32229111962E+02  0.37939224274E+02  0.25500000000E-02 0.  1.
         -2    1    1    2  502    0  0.18784177718E+02  0.69154711765E+01  0.42305039828E+02  0.46801554199E+02  0.25500000000E-02 0.  1.
<mgrwt>
<rscale>  0 0.40319471E+02</rscale>
<asrwt>0</asrwt>
<pdfrwt beam="1">  1        1 0.12251918E-01 0.40319471E+02</pdfrwt>
<pdfrwt beam="2">  1       -1 0.78512510E-03 0.40319471E+02</pdfrwt>
<totfact> 0.83952710E+05</totfact>
</mgrwt>
</event>
<event>
 4    1  0.4029665E-002  0.6280241E+02  0.7818608E-02  0.1386434E+00
         -1   -1    0    0  501    0 -0.00000000000E+00  0.00000000000E+00  0.83300622021E+01  0.83300637268E+01  0.50400000000E-02 0. -1.
          1   -1    0    0    0  501  0.00000000000E+00 -0.00000000000E+00 -0.11837075149E+03  0.11837075160E+03  0.50400000000E-02 0. -1.
          2    1    1    2    0  502 -0.24189411228E+02 -0.67561450982E+01 -0.93046102410E+02  0.96376087762E+02  0.25500000000E-02 0. -1.
         -2    1    1    2  502    0  0.24189411228E+02  0.67561450982E+01 -0.16994586881E+02  0.30324727566E+02  0.25500000000E-02 0. -1.
<mgrwt>
<rscale>  0 0.62802415E+02</rscale>
<asrwt>0</asrwt>
<pdfrwt beam="2">  1        1 0.18210884E-01 0.62802415E+02</pdfrwt>
<pdfrwt beam="1">  1       -1 0.12815482E-02 0.62802415E+02</pdfrwt>
<totfact> 0.28874781E+05</totfact>
</mgrwt>
</event>
<event>
 4    1  0.4029665E-002  0.4898636E+02  0.7818608E-02  0.1450887E+00
         -1   -1    0    0  501    0 -0.00000000000E+00  0.00000000000E+00  0.24905145825E+00  0.24910244972E+00  0.50400000000E-02 0.  1.
          1   -1    0    0    0  501  0.00000000000E+00 -0.00000000000E+00 -0.24085565239E+04  0.24085565239E+04  0.50400000000E-02 0.  1.
          2    1    1    2    0  502 -0.18407067551E+02  0.13058843621E+02 -0.16721048817E+04  0.16722571838E+04  0.25500000000E-02 0. -1.
         -2    1    1    2  502    0  0.18407067551E+02 -0.13058843621E+02 -0.73620259081E+03  0.73654844258E+03  0.25500000000E-02 0. -1.
<mgrwt>
<rscale>  0 0.48986363E+02</rscale>
<asrwt>0</asrwt>
<pdfrwt beam="2">  1        1 0.37052851E+00 0.48986363E+02</pdfrwt>
<pdfrwt beam="1">  1       -1 0.38321461E-04 0.48986363E+02</pdfrwt>
<totfact> 0.28471145E+05</totfact>
</mgrwt>
</event>
