<event>
 4    1  0.2196664E-002  0.5540281E+02  0.7818608E-02  0.1418204E+00
          2   -1    0    0    0  501  0.00000000000E+00  0.00000000000E+00  0.18395525298E+04  0.18395525298E+04  0.25500000000E-02 0. -1.
         -2   -1    0    0  501    0 -0.00000000000E+00 -0.00000000000E+00 -0.41714535356E+00  0.41715314754E+00  0.25500000000E-02 0. -1.
          2    1    1    2    0  502 -0.59373540632E+00  0.23117964686E+02  0.14260455785E+04  0.14262330752E+04  0.25500000000E-02 0. -1.
         -2    1    1    2  502    0  0.59373540632E+00 -0.23117964686E+02  0.41308980588E+03  0.41373660769E+03  0.25500000000E-02 0. -1.
<mgrwt>
<rscale>  0 0.55402814E+02</rscale>
<asrwt>0</asrwt>
<pdfrwt beam="1">  1        2 0.28300861E+00 0.55402814E+02</pdfrwt>
<pdfrwt beam="2">  1       -2 0.64176689E-04 0.55402814E+02</pdfrwt>
<totfact> 0.76172108E+05</totfact>
</mgrwt>
</event>
<event>
 4    1  0.2196664E-002  0.1182115E+03  0.7818608E-02  0.1246077E+00
         -2   -1    0    0  501    0 -0.00000000000E+00  0.00000000000E+00  0.21013615504E+01  0.21013630976E+01  0.25500000000E-02 0.  1.
          2   -1    0    0    0  501  0.00000000000E+00 -0.00000000000E+00 -0.16624886309E+04  0.16624886309E+04  0.25500000000E-02 0.  1.
          2    1    1    2    0  502 -0.42982702565E+02  0.23679958703E+02 -0.12940782063E+04  0.12950083618E+04  0.25500000000E-02 0. -1.
         -2    1    1    2  502    0  0.42982702565E+02 -0.23679958703E+02 -0.36630906311E+03  0.36958163224E+03  0.25500000000E-02 0. -1.
<mgrwt>
<rscale>  0 0.11821152E+03</rscale>
<asrwt>0</asrwt>
<pdfrwt beam="2">  1        2 0.25576643E+00 0.11821152E+03</pdfrwt>
<pdfrwt beam="1">  1       -2 0.32328784E-03 0.11821152E+03</pdfrwt>
<totfact> 0.11253690E+05</totfact>
</mgrwt>
</event>
<event>
 4    1  0.2196664E-002  0.5526298E+02  0.7818608E-02  0.1418859E+00
          2   -1    0    0    0  501  0.00000000000E+00  0.00000000000E+00  0.48150313888E+03  0.48150313889E+03  0.25500000000E-02 0.  1.
         -2   -1    0    0  501    0 -0.00000000000E+00 -0.00000000000E+00 -0.15856570510E+01  0.15856591014E+01  0.25500000000E-02 0.  1.
          2    1    1    2    0  502 -0.19067932489E+02 -0.19986740522E+02  0.23413723549E+03  0.23576110981E+03  0.25500000000E-02 0.  1.
         -2    1    1    2  502    0  0.19067932489E+02  0.19986740522E+02  0.24578024634E+03  0.24732768818E+03  0.25500000000E-02 0.  1.
<mgrwt>
<rscale>  0 0.55262984E+02</rscale>
<asrwt>0</asrwt>
<pdfrwt beam="1">  1        2 0.74077371E-01 0.55262984E+02</pdfrwt>
<pdfrwt beam="2">  1       -2 0.24394751E-03 0.55262984E+02</pdfrwt>
<totfact> 0.77363982E+05</totfact>
</mgrwt>
</event>
<event>
 4    1  0.2196664E-002  0.4205391E+02  0.7818608E-02  0.1493619E+00
          2   -1    0    0    0  501  0.00000000000E+00  0.00000000000E+00  0.37607842359E+02  0.37607842445E+02  0.25500000000E-02 0.  1.
         -2   -1    0    0  501    0 -0.00000000000E+00 -0.00000000000E+00 -0.11756402448E+02  0.11756402725E+02  0.25500000000E-02 0.  1.
          2    1    1    2    0  502 -0.20576779312E+02  0.35497609414E+01  0.15831585196E+02  0.26203887992E+02  0.25500000000E-02 0.  1.
         -2    1    1    2  502    0  0.20576779312E+02 -0.35497609414E+01  0.10019854715E+02  0.23160357178E+02  0.25500000000E-02 0.  1.
<mgrwt>
<rscale>  0 0.42053915E+02</rscale>
<asrwt>0</asrwt>
<pdfrwt beam="1">  1        2 0.57858219E-02 0.42053915E+02</pdfrwt>
<pdfrwt beam="2">  1       -2 0.18086773E-02 0.42053915E+02</pdfrwt>
<totfact> 0.75909519E+05</totfact>
</mgrwt>
</event>
<event>
 4    1  0.2196664E-002  0.1267507E+03  0.7818608E-02  0.1232358E+00
          2   -1    0    0    0  501  0.00000000000E+00  0.00000000000E+00  0.73342407720E+03  0.73342407721E+03  0.25500000000E-02 0.  1.
         -2   -1    0    0  501    0 -0.00000000000E+00 -0.00000000000E+00 -0.54762814341E+01  0.54762820278E+01  0.25500000000E-02 0.  1.
          2    1    1    2    0  502  0.21948918564E+01 -0.62910594584E+02  0.32118464177E+03  0.32729517958E+03  0.25500000000E-02 0.  1.
         -2    1    1    2  502    0 -0.21948918564E+01  0.62910594584E+02  0.40676315400E+03  0.41160517965E+03  0.25500000000E-02 0.  1.
<mgrwt>
<rscale>  0 0.12675073E+03</rscale>
<asrwt>0</asrwt>
<pdfrwt beam="1">  1        2 0.11283442E+00 0.12675073E+03</pdfrwt>
<pdfrwt beam="2">  1       -2 0.84250528E-03 0.12675073E+03</pdfrwt>
<totfact> 0.99087714E+04</totfact>
</mgrwt>
</event>
<event>
 4    1  0.2196664E-002  0.4556569E+02  0.7818608E-02  0.1470841E+00
          2   -1    0    0    0  501  0.00000000000E+00  0.00000000000E+00  0.42794790949E+03  0.42794790949E+03  0.25500000000E-02 0. -1.
         -2   -1    0    0  501    0 -0.00000000000E+00 -0.00000000000E+00 -0.12128985077E+01  0.12129011883E+01  0.25500000000E-02 0. -1.
          2    1    1    2    0  502  0.39484452028E+01  0.20928419503E+02  0.28957539786E+03  0.29035753824E+03  0.25500000000E-02 0.  1.
         -2    1    1    2  502    0 -0.39484452028E+01 -0.20928419503E+02  0.13715961312E+03  0.13880327244E+03  0.25500000000E-02 0.  1.
<mgrwt>
<rscale>  0 0.45565687E+02</rscale>
<asrwt>0</asrwt>
<pdfrwt beam="1">  1        2 0.65838198E-01 0.45565687E+02</pdfrwt>
<pdfrwt beam="2">  1       -2 0.18659981E-03 0.45565687E+02</pdfrwt>
<totfact> 0.12012351E+06</totfact>
</mgrwt>
</event>
<event>
 4    1  0.2196664E-002  0.4754365E+02  0.7818608E-02  0.1459059E+00
          2   -1    0    0    0  501  0.00000000000E+00  0.00000000000E+00  0.23369336923E+03  0.23369336925E+03  0.25500000000E-02 0.  1.
         -2   -1    0    0  501    0 -0.00000000000E+00 -0.00000000000E+00 -0.24181241268E+01  0.24181254714E+01  0.25500000000E-02 0.  1.
          2    1    1    2    0  502 -0.15707433573E+02 -0.17086455769E+02  0.90106652525E+02  0.93047725797E+02  0.25500000000E-02 0.  1.
         -2    1    1    2  502    0  0.15707433573E+02  0.17086455769E+02  0.14116859258E+03  0.14306376892E+03  0.25500000000E-02 0.  1.
<mgrwt>
<rscale>  0 0.47543653E+02</rscale>
<asrwt>0</asrwt>
<pdfrwt beam="1">  1        2 0.35952833E-01 0.47543653E+02</pdfrwt>
<pdfrwt beam="2">  1       -2 0.37201913E-03 0.47543653E+02</pdfrwt>
<totfact> 0.87949180E+05</totfact>
</mgrwt>
</event>
<event>
 4    1  0.2196664E-002  0.5154615E+02  0.7818608E-02  0.1437176E+00
         -2   -1    0    0  501    0 -0.00000000000E+00  0.00000000000E+00  0.94302745064E+02  0.94302745099E+02  0.25500000000E-02 0.  1.
          2   -1    0    0    0  501  0.00000000000E+00 -0.00000000000E+00 -0.70438175752E+01  0.70438180368E+01  0.25500000000E-02 0.  1.
          2    1    1    2    0  502  0.20763687491E+02 -0.41068547482E+01  0.14716323818E+02  0.25779200286E+02  0.25500000000E-02 0. -1.
         -2    1    1    2  502    0 -0.20763687491E+02  0.41068547482E+01  0.72542603671E+02  0.75567362850E+02  0.25500000000E-02 0. -1.
<mgrwt>
<rscale>  0 0.51546149E+02</rscale>
<asrwt>0</asrwt>
<pdfrwt beam="2">  1        2 0.10836644E-02 0.51546149E+02</pdfrwt>
<pdfrwt beam="1">  1       -2 0.14508114E-01 0.51546149E+02</pdfrwt>
<totfact> 0.33252328E+05</totfact>
</mgrwt>
</event>
<event>
 4    1  0.2196664E-002  0.6478860E+02  0.7818608E-02  0.1378768E+00
         -2   -1    0    0  501    0 -0.00000000000E+00  0.00000000000E+00  0.21532110732E+03  0.21532110733E+03  0.25500000000E-02 0.  1.
          2   -1    0    0    0  501  0.00000000000E+00 -0.00000000000E+00 -0.48736082045E+01  0.48736088716E+01  0.25500000000E-02 0.  1.
          2    1    1    2    0  502  0.23753489073E+02 -0.16291980032E+01  0.17987904995E+03  0.18144794059E+03  0.25500000000E-02 0. -1.
         -2    1    1    2  502    0 -0.23753489073E+02  0.16291980032E+01  0.30568449164E+02  0.38746775608E+02  0.25500000000E-02 0. -1.
<mgrwt>
<rscale>  0 0.64788604E+02</rscale>
<asrwt>0</asrwt>
<pdfrwt beam="2">  1        2 0.74978610E-03 0.64788604E+02</pdfrwt>
<pdfrwt beam="1">  1       -2 0.33126317E-01 0.64788604E+02</pdfrwt>
<totfact> 0.14351435E+05</totfact>
</mgrwt>
</event>
<event>
 4    1  0.2196664E-002  0.5874473E+02  0.7818608E-02  0.1403176E+00
          2   -1    0    0    0  501  0.00000000000E+00  0.00000000000E+00  0.19693537730E+04  0.19693537730E+04  0.25500000000E-02 0. -1.
         -2   -1    0    0  501    0 -0.00000000000E+00 -0.00000000000E+00 -0.43807700333E+00  0.43808442491E+00  0.25500000000E-02 0. -1.
          2    1    1    2    0  502 -0.26208213059E+01 -0.22978479530E+02  0.15916042442E+04  0.15917722669E+04  0.25500000000E-02 0.  1.
         -2    1    1    2  502    0  0.26208213059E+01  0.22978479530E+02  0.37731145173E+03  0.37801959055E+03  0.25500000000E-02 0.  1.
<mgrwt>
<rscale>  0 0.58744733E+02</rscale>
<asrwt>0</asrwt>
<pdfrwt beam="1">  1        2 0.30297586E+00 0.58744733E+02</pdfrwt>
<pdfrwt beam="2">  1       -2 0.67397399E-04 0.58744733E+02</pdfrwt>
<totfact> 0.62247783E+05</totfact>
</mgrwt>
</event>
<event>
 4    1  0.2196664E-002  0.6555709E+02  0.7818608E-02  0.1375888E+00
         -2   -1    0    0  501    0 -0.00000000000E+00  0.00000000000E+00  0.43355078830E+01  0.43355086329E+01  0.25500000000E-02 0. -1.
          2   -1    0    0    0  501  0.00000000000E+00 -0.00000000000E+00 -0.24782166538E+03  0.24782166539E+03  0.25500000000E-02 0. -1.
          2    1    1    2    0  502  0.28865929104E+01 -0.27637570136E+02 -0.18861529896E+03  0.19065124890E+03  0.25500000000E-02 0.  1.
         -2    1    1    2  502    0 -0.28865929104E+01  0.27637570136E+02 -0.54870858541E+02  0.61505925122E+02  0.25500000000E-02 0.  1.
<mgrwt>
<rscale>  0 0.65557086E+02</rscale>
<asrwt>0</asrwt>
<pdfrwt beam="2">  1        2 0.38126399E-01 0.65557086E+02</pdfrwt>
<pdfrwt beam="1">  1       -2 0.66700146E-03 0.65557086E+02</pdfrwt>
<totfact> 0.39810328E+05</totfact>
</mgrwt>
</event>
<event>
 4    1  0.2196664E-002  0.6077831E+02  0.7818608E-02  0.1394594E+00
          2   -1    0    0    0  501  0.00000000000E+00  0.00000000000E+00  0.48914039310E+02  0.48914039376E+02  0.25500000000E-02 0. -1.
         -2   -1    0    0  501    0 -0.00000000000E+00 -0.00000000000E+00 -0.18880076683E+02  0.18880076855E+02  0.25500000000E-02 0. -1.
          2    1    1    2    0  502  0.22985531250E+02 -0.19874934197E+02  0.15453511027E+02  0.34090448307E+02  0.25500000000E-02 0. -1.
         -2    1    1    2  502    0 -0.22985531250E+02  0.19874934197E+02  0.14580451600E+02  0.33703667924E+02  0.25500000000E-02 0. -1.
<mgrwt>
<rscale>  0 0.60778313E+02</rscale>
<asrwt>0</asrwt>
<pdfrwt beam="1">  1        2 0.75252369E-02 0.60778313E+02</pdfrwt>
<pdfrwt beam="2">  1       -2 0.29046272E-02 0.60778313E+02</pdfrwt>
<totfact> 0.30664937E+05</totfact>
</mgrwt>
</event>
<event>
 4    1  0.2196664E-002  0.4994165E+02  0.7818608E-02  0.1445657E+00
          2   -1    0    0    0  501  0.00000000000E+00  0.00000000000E+00  0.59768192274E+00  0.59768736248E+00  0.25500000000E-02 0.  1.
         -2   -1    0    0  501    0 -0.00000000000E+00 -0.00000000000E+00 -0.10432625799E+04  0.10432625799E+04  0.25500000000E-02 0.  1.
          2    1    1    2    0  502 -0.21195029019E+02 -0.26195828299E+00 -0.79723683193E+03  0.79751856660E+03  0.25500000000E-02 0.  1.
         -2    1    1    2  502    0  0.21195029019E+02  0.26195828299E+00 -0.24542806602E+03  0.24634170063E+03  0.25500000000E-02 0.  1.
<mgrwt>
<rscale>  0 0.49941647E+02</rscale>
<asrwt>0</asrwt>
<pdfrwt beam="1">  1        2 0.91952318E-04 0.49941647E+02</pdfrwt>
<pdfrwt beam="2">  1       -2 0.16050048E+00 0.49941647E+02</pdfrwt>
<totfact> 0.81447540E+04</totfact>
</mgrwt>
</event>
<event>
 4    1  0.2196664E-002  0.4465981E+02  0.7818608E-02  0.1476477E+00
          2   -1    0    0    0  501  0.00000000000E+00  0.00000000000E+00  0.42942128092E+02  0.42942128168E+02  0.25500000000E-02 0. -1.
         -2   -1    0    0  501    0 -0.00000000000E+00 -0.00000000000E+00 -0.11611548128E+02  0.11611548408E+02  0.25500000000E-02 0. -1.
          2    1    1    2    0  502 -0.20599347095E+02 -0.85581654263E+01  0.14414006264E+02  0.26558216794E+02  0.25500000000E-02 0.  1.
         -2    1    1    2  502    0  0.20599347095E+02  0.85581654263E+01  0.16916573700E+02  0.27995459782E+02  0.25500000000E-02 0.  1.
<mgrwt>
<rscale>  0 0.44659807E+02</rscale>
<asrwt>0</asrwt>
<pdfrwt beam="1">  1        2 0.66064814E-02 0.44659807E+02</pdfrwt>
<pdfrwt beam="2">  1       -2 0.17863920E-02 0.44659807E+02</pdfrwt>
<totfact> 0.66620706E+05</totfact>
</mgrwt>
</event>
<event>
 4    1  0.2196664E-002  0.5357678E+02  0.7818608E-02  0.1426952E+00
         -2   -1    0    0  501    0 -0.00000000000E+00  0.00000000000E+00  0.37798764547E+01  0.37798773149E+01  0.25500000000E-02 0.  1.
          2   -1    0    0    0  501  0.00000000000E+00 -0.00000000000E+00 -0.18985215650E+03  0.18985215652E+03  0.25500000000E-02 0.  1.
          2    1    1    2    0  502 -0.11756933197E+02  0.22895053614E+02 -0.66182396633E+02  0.71010693482E+02  0.25500000000E-02 0. -1.
         -2    1    1    2  502    0  0.11756933197E+02 -0.22895053614E+02 -0.11988988341E+03  0.12262134035E+03  0.25500000000E-02 0. -1.
<mgrwt>
<rscale>  0 0.53576778E+02</rscale>
<asrwt>0</asrwt>
<pdfrwt beam="2">  1        2 0.29208017E-01 0.53576778E+02</pdfrwt>
<pdfrwt beam="1">  1       -2 0.58151967E-03 0.53576778E+02</pdfrwt>
<totfact> 0.60814974E+05</totfact>
</mgrwt>
</event>
<event>
 4    1  0.2196664E-002  0.6322528E+02  0.7818608E-02  0.1384774E+00
          2   -1    0    0    0  501  0.00000000000E+00  0.00000000000E+00  0.35456612606E+03  0.35456612607E+03  0.25500000000E-02 0.  1.
         -2   -1    0    0  501    0 -0.00000000000E+00 -0.00000000000E+00 -0.28185402229E+01  0.28185413764E+01  0.25500000000E-02 0.  1.
          2    1    1    2    0  502 -0.24206460476E+02 -0.17674122503E+02  0.11905734446E+03  0.12277205958E+03  0.25500000000E-02 0.  1.
         -2    1    1    2  502    0  0.24206460476E+02  0.17674122503E+02  0.23269024137E+03  0.23461260787E+03  0.25500000000E-02 0.  1.
<mgrwt>
<rscale>  0 0.63225283E+02</rscale>
<asrwt>0</asrwt>
<pdfrwt beam="1">  1        2 0.54548647E-01 0.63225283E+02</pdfrwt>
<pdfrwt beam="2">  1       -2 0.43362156E-03 0.63225283E+02</pdfrwt>
<totfact> 0.49630939E+05</totfact>
</mgrwt>
</event>
<event>
 4    1  0.2196664E-002  0.5149106E+02  0.7818608E-02  0.1437461E+00
         -2   -1    0    0  501    0 -0.00000000000E+00  0.00000000000E+00  0.82942950979E+01  0.82942954899E+01  0.25500000000E-02 0.  1.
          2   -1    0    0    0  501  0.00000000000E+00 -0.00000000000E+00 -0.79914230779E+02  0.79914230819E+02  0.25500000000E-02 0.  1.
          2    1    1    2    0  502  0.74866776846E+01  0.24622877794E+02 -0.37016168538E+02  0.45083624447E+02  0.25500000000E-02 0.  1.
         -2    1    1    2  502    0 -0.74866776846E+01 -0.24622877794E+02 -0.34603767143E+02  0.43124901862E+02  0.25500000000E-02 0.  1.
<mgrwt>
<rscale>  0 0.51491057E+02</rscale>
<asrwt>0</asrwt>
<pdfrwt beam="2">  1        2 0.12294497E-01 0.51491057E+02</pdfrwt>
<pdfrwt beam="1">  1       -2 0.12760455E-02 0.51491057E+02</pdfrwt>
<totfact> 0.52557391E+05</totfact>
</mgrwt>
</event>
<event>
 4    1  0.2196664E-002  0.5470234E+02  0.7818608E-02  0.1421512E+00
         -2   -1    0    0  501    0 -0.00000000000E+00  0.00000000000E+00  0.26704427080E+02  0.26704427202E+02  0.25500000000E-02 0. -1.
          2   -1    0    0    0  501  0.00000000000E+00 -0.00000000000E+00 -0.28013578015E+02  0.28013578131E+02  0.25500000000E-02 0. -1.
          2    1    1    2    0  502 -0.22990794400E+02 -0.12241727161E+02  0.76934741617E+01  0.27159272122E+02  0.25500000000E-02 0.  1.
         -2    1    1    2  502    0  0.22990794400E+02  0.12241727161E+02 -0.90026250963E+01  0.27558733210E+02  0.25500000000E-02 0.  1.
<mgrwt>
<rscale>  0 0.54702342E+02</rscale>
<asrwt>0</asrwt>
<pdfrwt beam="2">  1        2 0.43097813E-02 0.54702342E+02</pdfrwt>
<pdfrwt beam="1">  1       -2 0.41083734E-02 0.54702342E+02</pdfrwt>
<totfact> 0.36599511E+05</totfact>
</mgrwt>
</event>
<event>
 4    1  0.2196664E-002  0.4063157E+02  0.7818608E-02  0.1503615E+00
         -2   -1    0    0  501    0 -0.00000000000E+00  0.00000000000E+00  0.26898583526E+00  0.26899792206E+00  0.25500000000E-02 0.  1.
          2   -1    0    0    0  501  0.00000000000E+00 -0.00000000000E+00 -0.15343628121E+04  0.15343628121E+04  0.25500000000E-02 0.  1.
          2    1    1    2    0  502  0.10794470328E+02 -0.16853092698E+02 -0.89888233807E+03  0.89910511345E+03  0.25500000000E-02 0. -1.
         -2    1    1    2  502    0 -0.10794470328E+02  0.16853092698E+02 -0.63521148817E+03  0.63552669655E+03  0.25500000000E-02 0. -1.
<mgrwt>
<rscale>  0 0.40631571E+02</rscale>
<asrwt>0</asrwt>
<pdfrwt beam="2">  1        2 0.23604881E+00 0.40631571E+02</pdfrwt>
<pdfrwt beam="1">  1       -2 0.41384595E-04 0.40631571E+02</pdfrwt>
<totfact> 0.18074056E+06</totfact>
</mgrwt>
</event>
<event>
 4    1  0.2196664E-002  0.6491944E+02  0.7818608E-02  0.1378275E+00
         -2   -1    0    0  501    0 -0.00000000000E+00  0.00000000000E+00  0.26194074546E+01  0.26194086958E+01  0.25500000000E-02 0. -1.
          2   -1    0    0    0  501  0.00000000000E+00 -0.00000000000E+00 -0.40224106239E+03  0.40224106240E+03  0.25500000000E-02 0. -1.
          2    1    1    2    0  502  0.73124343671E+01 -0.31503927929E+02 -0.21707585190E+03  0.21947185391E+03  0.25500000000E-02 0.  1.
         -2    1    1    2  502    0 -0.73124343671E+01  0.31503927929E+02 -0.18254580303E+03  0.18538861719E+03  0.25500000000E-02 0.  1.
<mgrwt>
<rscale>  0 0.64919442E+02</rscale>
<asrwt>0</asrwt>
<pdfrwt beam="2">  1        2 0.61883191E-01 0.64919442E+02</pdfrwt>
<pdfrwt beam="1">  1       -2 0.40298618E-03 0.64919442E+02</pdfrwt>
<totfact> 0.48474235E+05</totfact>
</mgrwt>
</event>
<event>
 4    1  0.2196664E-002  0.4113084E+02  0.7818608E-02  0.1500051E+00
          2   -1    0    0    0  501  0.00000000000E+00  0.00000000000E+00  0.89022528897E+03  0.89022528897E+03  0.25500000000E-02 0. -1.
         -2   -1    0    0  501    0 -0.00000000000E+00 -0.00000000000E+00 -0.47508587979E+00  0.47509272324E+00  0.25500000000E-02 0. -1.
          2    1    1    2    0  502  0.10491353047E+02  0.17248272866E+02  0.35998994111E+03  0.36055558394E+03  0.25500000000E-02 0. -1.
         -2    1    1    2  502    0 -0.10491353047E+02 -0.17248272866E+02  0.52976026198E+03  0.53014479775E+03  0.25500000000E-02 0. -1.
<mgrwt>
<rscale>  0 0.41130841E+02</rscale>
<asrwt>0</asrwt>
<pdfrwt beam="1">  1        2 0.13695816E+00 0.41130841E+02</pdfrwt>
<pdfrwt beam="2">  1       -2 0.73090438E-04 0.41130841E+02</pdfrwt>
<totfact> 0.18467507E+06</totfact>
</mgrwt>
</event>
<event>
 4    1  0.2196664E-002  0.4255081E+02  0.7818608E-02  0.1490237E+00
          2   -1    0    0    0  501  0.00000000000E+00  0.00000000000E+00  0.22195879918E+03  0.22195879919E+03  0.25500000000E-02 0. -1.
         -2   -1    0    0  501    0 -0.00000000000E+00 -0.00000000000E+00 -0.20393095263E+01  0.20393111206E+01  0.25500000000E-02 0. -1.
          2    1    1    2    0  502 -0.17158866884E+02 -0.12195981835E+02  0.93756299477E+02  0.96090646703E+02  0.25500000000E-02 0.  1.
         -2    1    1    2  502    0  0.17158866884E+02  0.12195981835E+02  0.12616319018E+03  0.12790746361E+03  0.25500000000E-02 0.  1.
<mgrwt>
<rscale>  0 0.42550811E+02</rscale>
<asrwt>0</asrwt>
<pdfrwt beam="1">  1        2 0.34147525E-01 0.42550811E+02</pdfrwt>
<pdfrwt beam="2">  1       -2 0.31373989E-03 0.42550811E+02</pdfrwt>
<totfact> 0.11364579E+06</totfact>
</mgrwt>
</event>
<event>
 4    1  0.2196664E-002  0.6710886E+02  0.7818608E-02  0.1370210E+00
         -2   -1    0    0  501    0 -0.00000000000E+00  0.00000000000E+00  0.11209479354E+01  0.11209508359E+01  0.25500000000E-02 0. -1.
          2   -1    0    0    0  501  0.00000000000E+00 -0.00000000000E+00 -0.10044162396E+04  0.10044162396E+04  0.25500000000E-02 0. -1.
          2    1    1    2    0  502  0.12460856353E+02  0.29949355441E+02 -0.63024818067E+03  0.63108240831E+03  0.25500000000E-02 0. -1.
         -2    1    1    2  502    0 -0.12460856353E+02 -0.29949355441E+02 -0.37304711096E+03  0.37445478210E+03  0.25500000000E-02 0. -1.
<mgrwt>
<rscale>  0 0.67108860E+02</rscale>
<asrwt>0</asrwt>
<pdfrwt beam="2">  1        2 0.15452486E+00 0.67108860E+02</pdfrwt>
<pdfrwt beam="1">  1       -2 0.17245455E-03 0.67108860E+02</pdfrwt>
<totfact> 0.55341809E+05</totfact>
</mgrwt>
</event>
<event>
 4    1  0.2196664E-002  0.5078833E+02  0.7818608E-02  0.1441135E+00
         -2   -1    0    0  501    0 -0.00000000000E+00  0.00000000000E+00  0.85841205921E+01  0.85841209709E+01  0.25500000000E-02 0. -1.
          2   -1    0    0    0  501  0.00000000000E+00 -0.00000000000E+00 -0.75122857059E+02  0.75122857103E+02  0.25500000000E-02 0. -1.
          2    1    1    2    0  502  0.74809170026E+01 -0.23090152432E+02 -0.20963892823E+02  0.32071857872E+02  0.25500000000E-02 0.  1.
         -2    1    1    2  502    0 -0.74809170026E+01  0.23090152432E+02 -0.45574843644E+02  0.51635120202E+02  0.25500000000E-02 0.  1.
<mgrwt>
<rscale>  0 0.50788333E+02</rscale>
<asrwt>0</asrwt>
<pdfrwt beam="2">  1        2 0.11557362E-01 0.50788333E+02</pdfrwt>
<pdfrwt beam="1">  1       -2 0.13206340E-02 0.50788333E+02</pdfrwt>
<totfact> 0.53655188E+05</totfact>
</mgrwt>
</event>
<event>
 4    1  0.2196664E-002  0.5596876E+02  0.7818608E-02  0.1415572E+00
         -2   -1    0    0  501    0 -0.00000000000E+00  0.00000000000E+00  0.36423447383E+02  0.36423447472E+02  0.25500000000E-02 0. -1.
          2   -1    0    0    0  501  0.00000000000E+00 -0.00000000000E+00 -0.21500587998E+02  0.21500588149E+02  0.25500000000E-02 0. -1.
          2    1    1    2    0  502  0.26287993858E+02 -0.66184116694E+00 -0.24452771994E+01  0.26409771712E+02  0.25500000000E-02 0.  1.
         -2    1    1    2  502    0 -0.26287993858E+02  0.66184116694E+00  0.17368136584E+02  0.31514263909E+02  0.25500000000E-02 0.  1.
<mgrwt>
<rscale>  0 0.55968761E+02</rscale>
<asrwt>0</asrwt>
<pdfrwt beam="2">  1        2 0.33077828E-02 0.55968761E+02</pdfrwt>
<pdfrwt beam="1">  1       -2 0.56036073E-02 0.55968761E+02</pdfrwt>
<totfact> 0.32889039E+05</totfact>
</mgrwt>
</event>
<event>
 4    1  0.2196664E-002  0.4548979E+02  0.7818608E-02  0.1471307E+00
          2   -1    0    0    0  501  0.00000000000E+00  0.00000000000E+00  0.36672111618E+03  0.36672111619E+03  0.25500000000E-02 0.  1.
         -2   -1    0    0  501    0 -0.00000000000E+00 -0.00000000000E+00 -0.14106902823E+01  0.14106925870E+01  0.25500000000E-02 0.  1.
          2    1    1    2    0  502 -0.18977408185E+02  0.76437625774E+01  0.10223178741E+03  0.10425884850E+03  0.25500000000E-02 0.  1.
         -2    1    1    2  502    0  0.18977408185E+02 -0.76437625774E+01  0.26307863849E+03  0.26387296027E+03  0.25500000000E-02 0.  1.
<mgrwt>
<rscale>  0 0.45489794E+02</rscale>
<asrwt>0</asrwt>
<pdfrwt beam="1">  1        2 0.56418620E-01 0.45489794E+02</pdfrwt>
<pdfrwt beam="2">  1       -2 0.21702950E-03 0.45489794E+02</pdfrwt>
<totfact> 0.11452522E+06</totfact>
</mgrwt>
</event>
<event>
 4    1  0.2196664E-002  0.4180310E+02  0.7818608E-02  0.1495347E+00
          2   -1    0    0    0  501  0.00000000000E+00  0.00000000000E+00  0.69904375847E+01  0.69904380498E+01  0.25500000000E-02 0. -1.
         -2   -1    0    0  501    0 -0.00000000000E+00 -0.00000000000E+00 -0.62496042167E+02  0.62496042219E+02  0.25500000000E-02 0. -1.
          2    1    1    2    0  502 -0.43036027638E+00  0.20428332873E+02 -0.20436579151E+02  0.28899061712E+02  0.25500000000E-02 0.  1.
         -2    1    1    2  502    0  0.43036027638E+00 -0.20428332873E+02 -0.35069025432E+02  0.40587418558E+02  0.25500000000E-02 0.  1.
<mgrwt>
<rscale>  0 0.41803096E+02</rscale>
<asrwt>0</asrwt>
<pdfrwt beam="1">  1        2 0.10754520E-02 0.41803096E+02</pdfrwt>
<pdfrwt beam="2">  1       -2 0.96147754E-02 0.41803096E+02</pdfrwt>
<totfact> 0.60178189E+05</totfact>
</mgrwt>
</event>
<event>
 4    1  0.2196664E-002  0.4545117E+02  0.7818608E-02  0.1471545E+00
         -2   -1    0    0  501    0 -0.00000000000E+00  0.00000000000E+00  0.81336333620E+00  0.81336733348E+00  0.25500000000E-02 0. -1.
          2   -1    0    0    0  501  0.00000000000E+00 -0.00000000000E+00 -0.63495738084E+03  0.63495738085E+03  0.25500000000E-02 0. -1.
          2    1    1    2    0  502 -0.17246719313E+02  0.12547283494E+02 -0.20731422952E+03  0.20840842934E+03  0.25500000000E-02 0. -1.
         -2    1    1    2  502    0  0.17246719313E+02 -0.12547283494E+02 -0.42682978799E+03  0.42736231885E+03  0.25500000000E-02 0. -1.
<mgrwt>
<rscale>  0 0.45451175E+02</rscale>
<asrwt>0</asrwt>
<pdfrwt beam="2">  1        2 0.97685355E-01 0.45451175E+02</pdfrwt>
<pdfrwt beam="1">  1       -2 0.12513364E-03 0.45451175E+02</pdfrwt>
<totfact> 0.13587011E+06</totfact>
</mgrwt>
</event>
<event>
 4    1  0.2196664E-002  0.8872394E+02  0.7818608E-02  0.1305972E+00
         -2   -1    0    0  501    0 -0.00000000000E+00  0.00000000000E+00  0.21672583743E+02  0.21672583893E+02  0.25500000000E-02 0. -1.
          2   -1    0    0    0  501  0.00000000000E+00 -0.00000000000E+00 -0.90805248466E+02  0.90805248502E+02  0.25500000000E-02 0. -1.
          2    1    1    2    0  502 -0.11768596520E+02  0.42761356334E+02 -0.35802543501E+02  0.56998733207E+02  0.25500000000E-02 0. -1.
         -2    1    1    2  502    0  0.11768596520E+02 -0.42761356334E+02 -0.33330121222E+02  0.55479099188E+02  0.25500000000E-02 0. -1.
<mgrwt>
<rscale>  0 0.88723940E+02</rscale>
<asrwt>0</asrwt>
<pdfrwt beam="2">  1        2 0.13970038E-01 0.88723940E+02</pdfrwt>
<pdfrwt beam="1">  1       -2 0.33342437E-02 0.88723940E+02</pdfrwt>
<totfact> 0.12847402E+05</totfact>
</mgrwt>
</event>
<event>
 4    1  0.2196664E-002  0.9451545E+02  0.7818608E-02  0.1292271E+00
          2   -1    0    0    0  501  0.00000000000E+00  0.00000000000E+00  0.41560197912E+02  0.41560197991E+02  0.25500000000E-02 0.  1.
         -2   -1    0    0  501    0 -0.00000000000E+00 -0.00000000000E+00 -0.53736330146E+02  0.53736330207E+02  0.25500000000E-02 0.  1.
          2    1    1    2    0  502 -0.14384074758E+02 -0.41452026785E+02 -0.23786485955E+02  0.49909608812E+02  0.25500000000E-02 0. -1.
         -2    1    1    2  502    0  0.14384074758E+02  0.41452026785E+02  0.11610353721E+02  0.45386919385E+02  0.25500000000E-02 0. -1.
<mgrwt>
<rscale>  0 0.94515449E+02</rscale>
<asrwt>0</asrwt>
<pdfrwt beam="1">  1        2 0.63938766E-02 0.94515449E+02</pdfrwt>
<pdfrwt beam="2">  1       -2 0.82671277E-02 0.94515449E+02</pdfrwt>
<totfact> 0.86789823E+04</totfact>
</mgrwt>
</event>
<event>
 4    1  0.2196664E-002  0.4920980E+02  0.7818608E-02  0.1449651E+00
         -2   -1    0    0  501    0 -0.00000000000E+00  0.00000000000E+00  0.25511825718E+01  0.25511838462E+01  0.25500000000E-02 0.  1.
          2   -1    0    0    0  501  0.00000000000E+00 -0.00000000000E+00 -0.23730210577E+03  0.23730210578E+03  0.25500000000E-02 0.  1.
          2    1    1    2    0  502 -0.18647689447E+02 -0.10304024872E+02 -0.17736682890E+03  0.17864182392E+03  0.25500000000E-02 0.  1.
         -2    1    1    2  502    0  0.18647689447E+02  0.10304024872E+02 -0.57384094293E+02  0.61211465712E+02  0.25500000000E-02 0.  1.
<mgrwt>
<rscale>  0 0.49209802E+02</rscale>
<asrwt>0</asrwt>
<pdfrwt beam="2">  1        2 0.36507999E-01 0.49209802E+02</pdfrwt>
<pdfrwt beam="1">  1       -2 0.39248991E-03 0.49209802E+02</pdfrwt>
<totfact> 0.81150546E+05</totfact>
</mgrwt>
</event>
<event>
 4    1  0.2196664E-002  0.1108892E+03  0.7818608E-02  0.1258932E+00
          2   -1    0    0    0  501  0.00000000000E+00  0.00000000000E+00  0.11994068089E+04  0.11994068089E+04  0.25500000000E-02 0. -1.
         -2   -1    0    0  501    0 -0.00000000000E+00 -0.00000000000E+00 -0.25630187483E+01  0.25630200168E+01  0.25500000000E-02 0. -1.
          2    1    1    2    0  502 -0.40628190483E+02 -0.93173871195E+00  0.18959122653E+03  0.19389778540E+03  0.25500000000E-02 0. -1.
         -2    1    1    2  502    0  0.40628190483E+02  0.93173871195E+00  0.10072525637E+04  0.10080720436E+04  0.25500000000E-02 0. -1.
<mgrwt>
<rscale>  0 0.11088919E+03</rscale>
<asrwt>0</asrwt>
<pdfrwt beam="1">  1        2 0.18452375E+00 0.11088919E+03</pdfrwt>
<pdfrwt beam="2">  1       -2 0.39431148E-03 0.11088919E+03</pdfrwt>
<totfact> 0.14782030E+05</totfact>
</mgrwt>
</event>
<event>
 4    1  0.2196664E-002  0.4617565E+02  0.7818608E-02  0.1467133E+00
         -2   -1    0    0  501    0 -0.00000000000E+00  0.00000000000E+00  0.86697671799E+00  0.86698046808E+00  0.25500000000E-02 0.  1.
          2   -1    0    0    0  501  0.00000000000E+00 -0.00000000000E+00 -0.61483374096E+03  0.61483374097E+03  0.25500000000E-02 0.  1.
          2    1    1    2    0  502  0.19124769440E+02 -0.12483132900E+02 -0.26184021240E+03  0.26283432472E+03  0.25500000000E-02 0. -1.
         -2    1    1    2  502    0 -0.19124769440E+02  0.12483132900E+02 -0.35212655184E+03  0.35286639672E+03  0.25500000000E-02 0. -1.
<mgrwt>
<rscale>  0 0.46175651E+02</rscale>
<asrwt>0</asrwt>
<pdfrwt beam="2">  1        2 0.94589458E-01 0.46175651E+02</pdfrwt>
<pdfrwt beam="1">  1       -2 0.13338181E-03 0.46175651E+02</pdfrwt>
<totfact> 0.12963984E+06</totfact>
</mgrwt>
</event>
<event>
 4    1  0.2196664E-002  0.4556246E+02  0.7818608E-02  0.1470861E+00
          2   -1    0    0    0  501  0.00000000000E+00  0.00000000000E+00  0.49551195104E+03  0.49551195105E+03  0.25500000000E-02 0.  1.
         -2   -1    0    0  501    0 -0.00000000000E+00 -0.00000000000E+00 -0.10473686357E+01  0.10473717399E+01  0.25500000000E-02 0.  1.
          2    1    1    2    0  502 -0.21402134148E+02  0.69136894570E+01  0.28672913373E+03  0.28760988610E+03  0.25500000000E-02 0. -1.
         -2    1    1    2  502    0  0.21402134148E+02 -0.69136894570E+01  0.20773544868E+03  0.20894943669E+03  0.25500000000E-02 0. -1.
<mgrwt>
<rscale>  0 0.45562460E+02</rscale>
<asrwt>0</asrwt>
<pdfrwt beam="1">  1        2 0.76232573E-01 0.45562460E+02</pdfrwt>
<pdfrwt beam="2">  1       -2 0.16113395E-03 0.45562460E+02</pdfrwt>
<totfact> 0.12589625E+06</totfact>
</mgrwt>
</event>
<event>
 4    1  0.2196664E-002  0.6640646E+02  0.7818608E-02  0.1372758E+00
         -2   -1    0    0  501    0 -0.00000000000E+00  0.00000000000E+00  0.68000435783E+02  0.68000435831E+02  0.25500000000E-02 0. -1.
          2   -1    0    0    0  501  0.00000000000E+00 -0.00000000000E+00 -0.16212462862E+02  0.16212463063E+02  0.25500000000E-02 0. -1.
          2    1    1    2    0  502 -0.68679451941E-01 -0.28178404776E+02  0.48165242083E+02  0.55802488869E+02  0.25500000000E-02 0.  1.
         -2    1    1    2  502    0  0.68679451941E-01  0.28178404776E+02  0.36227308384E+01  0.28410410025E+02  0.25500000000E-02 0.  1.
<mgrwt>
<rscale>  0 0.66406462E+02</rscale>
<asrwt>0</asrwt>
<pdfrwt beam="2">  1        2 0.24942251E-02 0.66406462E+02</pdfrwt>
<pdfrwt beam="1">  1       -2 0.10461606E-01 0.66406462E+02</pdfrwt>
<totfact> 0.19282665E+05</totfact>
</mgrwt>
</event>
<event>
 4    1  0.2196664E-002  0.6186049E+02  0.7818608E-02  0.1390186E+00
         -2   -1    0    0  501    0 -0.00000000000E+00  0.00000000000E+00  0.14134396340E+02  0.14134396570E+02  0.25500000000E-02 0. -1.
          2   -1    0    0    0  501  0.00000000000E+00 -0.00000000000E+00 -0.67684541886E+02  0.67684541934E+02  0.25500000000E-02 0. -1.
          2    1    1    2    0  502  0.69525745604E+01  0.29503508143E+02 -0.34915989411E+02  0.46237664396E+02  0.25500000000E-02 0.  1.
         -2    1    1    2  502    0 -0.69525745604E+01 -0.29503508143E+02 -0.18634156135E+02  0.35581274108E+02  0.25500000000E-02 0.  1.
<mgrwt>
<rscale>  0 0.61860493E+02</rscale>
<asrwt>0</asrwt>
<pdfrwt beam="2">  1        2 0.10413006E-01 0.61860493E+02</pdfrwt>
<pdfrwt beam="1">  1       -2 0.21745226E-02 0.61860493E+02</pdfrwt>
<totfact> 0.31414971E+05</totfact>
</mgrwt>
</event>
<event>
 4    1  0.2196664E-002  0.4998709E+02  0.7818608E-02  0.1445411E+00
          2   -1    0    0    0  501  0.00000000000E+00  0.00000000000E+00  0.10542822136E+03  0.10542822140E+03  0.25500000000E-02 0.  1.
         -2   -1    0    0  501    0 -0.00000000000E+00 -0.00000000000E+00 -0.59251433160E+01  0.59251438647E+01  0.25500000000E-02 0.  1.
          2    1    1    2    0  502  0.34115506884E+01  0.20250463701E+02  0.18015852084E+02  0.27318325187E+02  0.25500000000E-02 0.  1.
         -2    1    1    2  502    0 -0.34115506884E+01 -0.20250463701E+02  0.81487225964E+02  0.84035040072E+02  0.25500000000E-02 0.  1.
<mgrwt>
<rscale>  0 0.49987092E+02</rscale>
<asrwt>0</asrwt>
<pdfrwt beam="1">  1        2 0.16219726E-01 0.49987092E+02</pdfrwt>
<pdfrwt beam="2">  1       -2 0.91156059E-03 0.49987092E+02</pdfrwt>
<totfact> 0.60752303E+05</totfact>
</mgrwt>
</event>
<event>
 4    1  0.2196664E-002  0.5686390E+02  0.7818608E-02  0.1411484E+00
         -2   -1    0    0  501    0 -0.00000000000E+00  0.00000000000E+00  0.26339335073E+02  0.26339335197E+02  0.25500000000E-02 0. -1.
          2   -1    0    0    0  501  0.00000000000E+00 -0.00000000000E+00 -0.30690821049E+02  0.30690821155E+02  0.25500000000E-02 0. -1.
          2    1    1    2    0  502 -0.14113278388E+02  0.20062658432E+02 -0.16594177537E+02  0.29615226233E+02  0.25500000000E-02 0. -1.
         -2    1    1    2  502    0  0.14113278388E+02 -0.20062658432E+02  0.12242691561E+02  0.27414930118E+02  0.25500000000E-02 0. -1.
<mgrwt>
<rscale>  0 0.56863902E+02</rscale>
<asrwt>0</asrwt>
<pdfrwt beam="2">  1        2 0.47216648E-02 0.56863902E+02</pdfrwt>
<pdfrwt beam="1">  1       -2 0.40522054E-02 0.56863902E+02</pdfrwt>
<totfact> 0.33523367E+05</totfact>
</mgrwt>
</event>
<event>
 4    1  0.2196664E-002  0.6677279E+02  0.7818608E-02  0.1371424E+00
          2   -1    0    0    0  501  0.00000000000E+00  0.00000000000E+00  0.15696596874E+04  0.15696596874E+04  0.25500000000E-02 0. -1.
         -2   -1    0    0  501    0 -0.00000000000E+00 -0.00000000000E+00 -0.71012064421E+00  0.71012522264E+00  0.25500000000E-02 0. -1.
          2    1    1    2    0  502 -0.28159662194E+02  0.14505640516E+01  0.12049037622E+04  0.12052336483E+04  0.25500000000E-02 0.  1.
         -2    1    1    2  502    0  0.28159662194E+02 -0.14505640516E+01  0.36404580456E+03  0.36513616438E+03  0.25500000000E-02 0.  1.
<mgrwt>
<rscale>  0 0.66772789E+02</rscale>
<asrwt>0</asrwt>
<pdfrwt beam="1">  1        2 0.24148377E+00 0.66772789E+02</pdfrwt>
<pdfrwt beam="2">  1       -2 0.10925074E-03 0.66772789E+02</pdfrwt>
<totfact> 0.51982664E+05</totfact>
</mgrwt>
</event>
<event>
 4    1  0.2196664E-002  0.5762324E+02  0.7818608E-02  0.1408085E+00
         -2   -1    0    0  501    0 -0.00000000000E+00  0.00000000000E+00  0.11984959223E+01  0.11984986351E+01  0.25500000000E-02 0.  1.
          2   -1    0    0    0  501  0.00000000000E+00 -0.00000000000E+00 -0.69262515605E+03  0.69262515605E+03  0.25500000000E-02 0.  1.
          2    1    1    2    0  502 -0.20376069782E+02 -0.20325093089E+02 -0.36193805696E+03  0.36308050170E+03  0.25500000000E-02 0. -1.
         -2    1    1    2  502    0  0.20376069782E+02  0.20325093089E+02 -0.32948860317E+03  0.33074315299E+03  0.25500000000E-02 0. -1.
<mgrwt>
<rscale>  0 0.57623237E+02</rscale>
<asrwt>0</asrwt>
<pdfrwt beam="2">  1        2 0.10655740E+00 0.57623237E+02</pdfrwt>
<pdfrwt beam="1">  1       -2 0.18438475E-03 0.57623237E+02</pdfrwt>
<totfact> 0.77106240E+05</totfact>
</mgrwt>
</event>
<event>
 4    1  0.2196664E-002  0.4402240E+02  0.7818608E-02  0.1480538E+00
          2   -1    0    0    0  501  0.00000000000E+00  0.00000000000E+00  0.98766068744E+03  0.98766068745E+03  0.25500000000E-02 0. -1.
         -2   -1    0    0  501    0 -0.00000000000E+00 -0.00000000000E+00 -0.49054261949E+00  0.49054924731E+00  0.25500000000E-02 0. -1.
          2    1    1    2    0  502 -0.17313524684E+02 -0.13471668514E+02  0.53404458186E+03  0.53449495733E+03  0.25500000000E-02 0. -1.
         -2    1    1    2  502    0  0.17313524684E+02  0.13471668514E+02  0.45312556296E+03  0.45365627936E+03  0.25500000000E-02 0. -1.
<mgrwt>
<rscale>  0 0.44022401E+02</rscale>
<asrwt>0</asrwt>
<pdfrwt beam="1">  1        2 0.15194874E+00 0.44022401E+02</pdfrwt>
<pdfrwt beam="2">  1       -2 0.75468139E-04 0.44022401E+02</pdfrwt>
<totfact> 0.15805467E+06</totfact>
</mgrwt>
</event>
<event>
 4    1  0.2196664E-002  0.4489482E+02  0.7818608E-02  0.1474999E+00
         -2   -1    0    0  501    0 -0.00000000000E+00  0.00000000000E+00  0.27015734707E+02  0.27015734827E+02  0.25500000000E-02 0.  1.
          2   -1    0    0    0  501  0.00000000000E+00 -0.00000000000E+00 -0.18651585294E+02  0.18651585468E+02  0.25500000000E-02 0.  1.
          2    1    1    2    0  502  0.41847286941E+01  0.20976065758E+02  0.11109469094E+02  0.24102439689E+02  0.25500000000E-02 0. -1.
         -2    1    1    2  502    0 -0.41847286941E+01 -0.20976065758E+02 -0.27453196817E+01  0.21564880606E+02  0.25500000000E-02 0. -1.
<mgrwt>
<rscale>  0 0.44894823E+02</rscale>
<asrwt>0</asrwt>
<pdfrwt beam="2">  1        2 0.28694747E-02 0.44894823E+02</pdfrwt>
<pdfrwt beam="1">  1       -2 0.41562669E-02 0.44894823E+02</pdfrwt>
<totfact> 0.57927273E+05</totfact>
</mgrwt>
</event>
<event>
 4    1  0.2196664E-002  0.4887051E+02  0.7818608E-02  0.1451531E+00
          2   -1    0    0    0  501  0.00000000000E+00  0.00000000000E+00  0.16725759303E+04  0.16725759303E+04  0.25500000000E-02 0. -1.
         -2   -1    0    0  501    0 -0.00000000000E+00 -0.00000000000E+00 -0.35697881906E+00  0.35698792663E+00  0.25500000000E-02 0. -1.
          2    1    1    2    0  502 -0.14536230204E+02  0.14225234250E+02  0.12997249650E+04  0.12998840886E+04  0.25500000000E-02 0.  1.
         -2    1    1    2  502    0  0.14536230204E+02 -0.14225234250E+02  0.37249398645E+03  0.37304882955E+03  0.25500000000E-02 0.  1.
<mgrwt>
<rscale>  0 0.48870515E+02</rscale>
<asrwt>0</asrwt>
<pdfrwt beam="1">  1        2 0.25732228E+00 0.48870515E+02</pdfrwt>
<pdfrwt beam="2">  1       -2 0.54919900E-04 0.48870515E+02</pdfrwt>
<totfact> 0.11051361E+06</totfact>
</mgrwt>
</event>
<event>
 4    1  0.2196664E-002  0.6657923E+02  0.7818608E-02  0.1372128E+00
         -2   -1    0    0  501    0 -0.00000000000E+00  0.00000000000E+00  0.16218281100E+01  0.16218301147E+01  0.25500000000E-02 0. -1.
          2   -1    0    0    0  501  0.00000000000E+00 -0.00000000000E+00 -0.68330170393E+03  0.68330170394E+03  0.25500000000E-02 0. -1.
          2    1    1    2    0  502  0.17239733394E+02  0.27567332319E+02 -0.41432958821E+03  0.41560338532E+03  0.25500000000E-02 0.  1.
         -2    1    1    2  502    0 -0.17239733394E+02 -0.27567332319E+02 -0.26735028762E+03  0.26932014873E+03  0.25500000000E-02 0.  1.
<mgrwt>
<rscale>  0 0.66579234E+02</rscale>
<asrwt>0</asrwt>
<pdfrwt beam="2">  1        2 0.10512311E+00 0.66579234E+02</pdfrwt>
<pdfrwt beam="1">  1       -2 0.24951272E-03 0.66579234E+02</pdfrwt>
<totfact> 0.53322332E+05</totfact>
</mgrwt>
</event>
<event>
 4    1  0.2196664E-002  0.6069883E+02  0.7818608E-02  0.1394922E+00
         -2   -1    0    0  501    0 -0.00000000000E+00  0.00000000000E+00  0.28460018202E+01  0.28460029626E+01  0.25500000000E-02 0. -1.
          2   -1    0    0    0  501  0.00000000000E+00 -0.00000000000E+00 -0.32364242953E+03  0.32364242954E+03  0.25500000000E-02 0. -1.
          2    1    1    2    0  502  0.14979177757E+02 -0.16761849646E+02 -0.50724009748E+02  0.55482074053E+02  0.25500000000E-02 0.  1.
         -2    1    1    2  502    0 -0.14979177757E+02  0.16761849646E+02 -0.27007241796E+03  0.27100635845E+03  0.25500000000E-02 0.  1.
<mgrwt>
<rscale>  0 0.60698835E+02</rscale>
<asrwt>0</asrwt>
<pdfrwt beam="2">  1        2 0.49791114E-01 0.60698835E+02</pdfrwt>
<pdfrwt beam="1">  1       -2 0.43784678E-03 0.60698835E+02</pdfrwt>
<totfact> 0.53323422E+05</totfact>
</mgrwt>
</event>
<event>
 4    1  0.2196664E-002  0.4788922E+02  0.7818608E-02  0.1457071E+00
          2   -1    0    0    0  501  0.00000000000E+00  0.00000000000E+00  0.10310840836E+04  0.10310840836E+04  0.25500000000E-02 0. -1.
         -2   -1    0    0  501    0 -0.00000000000E+00 -0.00000000000E+00 -0.55605690080E+00  0.55606274775E+00  0.25500000000E-02 0. -1.
          2    1    1    2    0  502 -0.22565196666E+02 -0.60750390265E+01  0.40280985134E+03  0.40348713801E+03  0.25500000000E-02 0. -1.
         -2    1    1    2  502    0  0.22565196666E+02  0.60750390265E+01  0.62771817534E+03  0.62815300832E+03  0.25500000000E-02 0. -1.
<mgrwt>
<rscale>  0 0.47889224E+02</rscale>
<asrwt>0</asrwt>
<pdfrwt beam="1">  1        2 0.15862887E+00 0.47889224E+02</pdfrwt>
<pdfrwt beam="2">  1       -2 0.85547367E-04 0.47889224E+02</pdfrwt>
<totfact> 0.12887908E+06</totfact>
</mgrwt>
</event>
<event>
 4    1  0.2196664E-002  0.4785110E+02  0.7818608E-02  0.1457289E+00
          2   -1    0    0    0  501  0.00000000000E+00  0.00000000000E+00  0.38429587894E+03  0.38429587895E+03  0.25500000000E-02 0.  1.
         -2   -1    0    0  501    0 -0.00000000000E+00 -0.00000000000E+00 -0.14895594456E+01  0.14895616283E+01  0.25500000000E-02 0.  1.
          2    1    1    2    0  502  0.12641466041E+00  0.23923914417E+02  0.19341565859E+03  0.19488967817E+03  0.25500000000E-02 0.  1.
         -2    1    1    2  502    0 -0.12641466041E+00 -0.23923914417E+02  0.18939066090E+03  0.19089576241E+03  0.25500000000E-02 0.  1.
<mgrwt>
<rscale>  0 0.47851102E+02</rscale>
<asrwt>0</asrwt>
<pdfrwt beam="1">  1        2 0.59122488E-01 0.47851102E+02</pdfrwt>
<pdfrwt beam="2">  1       -2 0.22916298E-03 0.47851102E+02</pdfrwt>
<totfact> 0.10273607E+06</totfact>
</mgrwt>
</event>
<event>
 4    1  0.2196664E-002  0.5645835E+02  0.7818608E-02  0.1413325E+00
          2   -1    0    0    0  501  0.00000000000E+00  0.00000000000E+00  0.10689469769E+04  0.10689469769E+04  0.25500000000E-02 0.  1.
         -2   -1    0    0  501    0 -0.00000000000E+00 -0.00000000000E+00 -0.74548514595E+00  0.74548950719E+00  0.25500000000E-02 0.  1.
          2    1    1    2    0  502 -0.26029619797E+02 -0.17680934956E+01  0.73835428560E+03  0.73881507722E+03  0.25500000000E-02 0. -1.
         -2    1    1    2  502    0  0.26029619797E+02  0.17680934956E+01  0.32984720616E+03  0.33087738919E+03  0.25500000000E-02 0. -1.
<mgrwt>
<rscale>  0 0.56458354E+02</rscale>
<asrwt>0</asrwt>
<pdfrwt beam="1">  1        2 0.16445374E+00 0.56458354E+02</pdfrwt>
<pdfrwt beam="2">  1       -2 0.11469011E-03 0.56458354E+02</pdfrwt>
<totfact> 0.85721882E+05</totfact>
</mgrwt>
</event>
<event>
 4    1  0.2196664E-002  0.7359070E+02  0.7818608E-02  0.1348292E+00
          2   -1    0    0    0  501  0.00000000000E+00  0.00000000000E+00  0.46139488763E+02  0.46139488833E+02  0.25500000000E-02 0. -1.
         -2   -1    0    0  501    0 -0.00000000000E+00 -0.00000000000E+00 -0.29343579364E+02  0.29343579474E+02  0.25500000000E-02 0. -1.
          2    1    1    2    0  502 -0.34343541685E+02 -0.12449522456E+02  0.38768573624E+01  0.36735534491E+02  0.25500000000E-02 0.  1.
         -2    1    1    2  502    0  0.34343541685E+02  0.12449522456E+02  0.12919052037E+02  0.38747533816E+02  0.25500000000E-02 0.  1.
<mgrwt>
<rscale>  0 0.73590699E+02</rscale>
<asrwt>0</asrwt>
<pdfrwt beam="1">  1        2 0.70983829E-02 0.73590699E+02</pdfrwt>
<pdfrwt beam="2">  1       -2 0.45143968E-02 0.73590699E+02</pdfrwt>
<totfact> 0.18062392E+05</totfact>
</mgrwt>
</event>
<event>
 4    1  0.2196664E-002  0.9706565E+02  0.7818608E-02  0.1286590E+00
          2   -1    0    0    0  501  0.00000000000E+00  0.00000000000E+00  0.29417190578E+02  0.29417190689E+02  0.25500000000E-02 0. -1.
         -2   -1    0    0  501    0 -0.00000000000E+00 -0.00000000000E+00 -0.80070020858E+02  0.80070020899E+02  0.25500000000E-02 0. -1.
          2    1    1    2    0  502 -0.35232888858E+02  0.25558059437E+02 -0.49541406604E+02  0.65946355732E+02  0.25500000000E-02 0. -1.
         -2    1    1    2  502    0  0.35232888858E+02 -0.25558059437E+02 -0.11114236756E+01  0.43540855855E+02  0.25500000000E-02 0. -1.
<mgrwt>
<rscale>  0 0.97065649E+02</rscale>
<asrwt>0</asrwt>
<pdfrwt beam="1">  1        2 0.45257217E-02 0.97065649E+02</pdfrwt>
<pdfrwt beam="2">  1       -2 0.12318465E-01 0.97065649E+02</pdfrwt>
<totfact> 0.72940883E+04</totfact>
</mgrwt>
</event>
<event>
 4    1  0.2196664E-002  0.4775906E+02  0.7818608E-02  0.1457817E+00
          2   -1    0    0    0  501  0.00000000000E+00  0.00000000000E+00  0.24497460990E+03  0.24497460992E+03  0.25500000000E-02 0. -1.
         -2   -1    0    0  501    0 -0.00000000000E+00 -0.00000000000E+00 -0.23277177538E+01  0.23277191505E+01  0.25500000000E-02 0. -1.
          2    1    1    2    0  502 -0.46429855144E+01  0.19816301800E+02  0.56651022651E+02  0.60196191785E+02  0.25500000000E-02 0. -1.
         -2    1    1    2  502    0  0.46429855144E+01 -0.19816301800E+02  0.18599586950E+03  0.18710613728E+03  0.25500000000E-02 0. -1.
<mgrwt>
<rscale>  0 0.47759059E+02</rscale>
<asrwt>0</asrwt>
<pdfrwt beam="1">  1        2 0.37688406E-01 0.47759059E+02</pdfrwt>
<pdfrwt beam="2">  1       -2 0.35811049E-03 0.47759059E+02</pdfrwt>
<totfact> 0.88375426E+05</totfact>
</mgrwt>
</event>
<event>
 4    1  0.2196664E-002  0.1002328E+03  0.7818608E-02  0.1279807E+00
         -2   -1    0    0  501    0 -0.00000000000E+00  0.00000000000E+00  0.29028068321E+01  0.29028079521E+01  0.25500000000E-02 0. -1.
          2   -1    0    0    0  501  0.00000000000E+00 -0.00000000000E+00 -0.86524926058E+03  0.86524926058E+03  0.25500000000E-02 0. -1.
          2    1    1    2    0  502  0.33590968087E+02 -0.24361433870E+02 -0.18775675448E+03  0.19228736687E+03  0.25500000000E-02 0.  1.
         -2    1    1    2  502    0 -0.33590968087E+02  0.24361433870E+02 -0.67458969927E+03  0.67586470167E+03  0.25500000000E-02 0.  1.
<mgrwt>
<rscale>  0 0.10023277E+03</rscale>
<asrwt>0</asrwt>
<pdfrwt beam="2">  1        2 0.13311507E+00 0.10023277E+03</pdfrwt>
<pdfrwt beam="1">  1       -2 0.44658644E-03 0.10023277E+03</pdfrwt>
<totfact> 0.19203382E+05</totfact>
</mgrwt>
</event>
<event>
 4    1  0.2196664E-002  0.7379301E+02  0.7818608E-02  0.1347650E+00
          2   -1    0    0    0  501  0.00000000000E+00  0.00000000000E+00  0.95805977871E+03  0.95805977871E+03  0.25500000000E-02 0. -1.
         -2   -1    0    0  501    0 -0.00000000000E+00 -0.00000000000E+00 -0.14209457580E+01  0.14209480460E+01  0.25500000000E-02 0. -1.
          2    1    1    2    0  502 -0.14989066488E+02  0.33416015431E+02  0.42009879884E+03  0.42169218987E+03  0.25500000000E-02 0. -1.
         -2    1    1    2  502    0  0.14989066488E+02 -0.33416015431E+02  0.53654003410E+03  0.53778853688E+03  0.25500000000E-02 0. -1.
<mgrwt>
<rscale>  0 0.73793010E+02</rscale>
<asrwt>0</asrwt>
<pdfrwt beam="1">  1        2 0.14739383E+00 0.73793010E+02</pdfrwt>
<pdfrwt beam="2">  1       -2 0.21860719E-03 0.73793010E+02</pdfrwt>
<totfact> 0.43271992E+05</totfact>
</mgrwt>
</event>
<event>
 4    1  0.2196664E-002  0.9611236E+02  0.7818608E-02  0.1288690E+00
         -2   -1    0    0  501    0 -0.00000000000E+00  0.00000000000E+00  0.43007868592E+01  0.43007876152E+01  0.25500000000E-02 0. -1.
          2   -1    0    0    0  501  0.00000000000E+00 -0.00000000000E+00 -0.53697065528E+03  0.53697065528E+03  0.25500000000E-02 0. -1.
          2    1    1    2    0  502  0.44083387396E+02 -0.87389707355E+01 -0.17048396002E+03  0.17630795582E+03  0.25500000000E-02 0. -1.
         -2    1    1    2  502    0 -0.44083387396E+02  0.87389707355E+01 -0.36218590840E+03  0.36496348708E+03  0.25500000000E-02 0. -1.
<mgrwt>
<rscale>  0 0.96112362E+02</rscale>
<asrwt>0</asrwt>
<pdfrwt beam="2">  1        2 0.82610817E-01 0.96112362E+02</pdfrwt>
<pdfrwt beam="1">  1       -2 0.66166000E-03 0.96112362E+02</pdfrwt>
<totfact> 0.19167348E+05</totfact>
</mgrwt>
</event>
<event>
 4    1  0.2196664E-002  0.4093384E+02  0.7818608E-02  0.1501450E+00
         -2   -1    0    0  501    0 -0.00000000000E+00  0.00000000000E+00  0.70622913157E+02  0.70622913203E+02  0.25500000000E-02 0.  1.
          2   -1    0    0    0  501  0.00000000000E+00 -0.00000000000E+00 -0.59314291721E+01  0.59314297202E+01  0.25500000000E-02 0.  1.
          2    1    1    2    0  502  0.17654457654E+02  0.10323296997E+02  0.33847135809E+02  0.39545909332E+02  0.25500000000E-02 0.  1.
         -2    1    1    2  502    0 -0.17654457654E+02 -0.10323296997E+02  0.30844348176E+02  0.37008433591E+02  0.25500000000E-02 0.  1.
<mgrwt>
<rscale>  0 0.40933841E+02</rscale>
<asrwt>0</asrwt>
<pdfrwt beam="2">  1        2 0.91252760E-03 0.40933841E+02</pdfrwt>
<pdfrwt beam="1">  1       -2 0.10865064E-01 0.40933841E+02</pdfrwt>
<totfact> 0.61827203E+05</totfact>
</mgrwt>
</event>
<event>
 4    1  0.2196664E-002  0.5488003E+02  0.7818608E-02  0.1420667E+00
         -2   -1    0    0  501    0 -0.00000000000E+00  0.00000000000E+00  0.59254866627E+00  0.59255415314E+00  0.25500000000E-02 0.  1.
          2   -1    0    0    0  501  0.00000000000E+00 -0.00000000000E+00 -0.12706990149E+04  0.12706990149E+04  0.25500000000E-02 0.  1.
          2    1    1    2    0  502 -0.26803144766E+02  0.56573148387E+01 -0.59812927494E+03  0.59875624700E+03  0.25500000000E-02 0.  1.
         -2    1    1    2  502    0  0.26803144766E+02 -0.56573148387E+01 -0.67197719129E+03  0.67253532205E+03  0.25500000000E-02 0.  1.
<mgrwt>
<rscale>  0 0.54880033E+02</rscale>
<asrwt>0</asrwt>
<pdfrwt beam="2">  1        2 0.19548998E+00 0.54880033E+02</pdfrwt>
<pdfrwt beam="1">  1       -2 0.91162772E-04 0.54880033E+02</pdfrwt>
<totfact> 0.90739893E+05</totfact>
</mgrwt>
</event>
<event>
 4    1  0.2196664E-002  0.4996102E+02  0.7818608E-02  0.1445552E+00
          2   -1    0    0    0  501  0.00000000000E+00  0.00000000000E+00  0.32307581661E+02  0.32307581762E+02  0.25500000000E-02 0.  1.
         -2   -1    0    0  501    0 -0.00000000000E+00 -0.00000000000E+00 -0.19315150184E+02  0.19315150352E+02  0.25500000000E-02 0.  1.
          2    1    1    2    0  502  0.29210894711E+01 -0.20942177334E+02 -0.72472422505E+01  0.22352406624E+02  0.25500000000E-02 0.  1.
         -2    1    1    2  502    0 -0.29210894711E+01  0.20942177334E+02  0.20239673727E+02  0.29270325490E+02  0.25500000000E-02 0.  1.
<mgrwt>
<rscale>  0 0.49961017E+02</rscale>
<asrwt>0</asrwt>
<pdfrwt beam="1">  1        2 0.49703972E-02 0.49961017E+02</pdfrwt>
<pdfrwt beam="2">  1       -2 0.29715616E-02 0.49961017E+02</pdfrwt>
<totfact> 0.47610199E+05</totfact>
</mgrwt>
</event>
<event>
 4    1  0.2196664E-002  0.4497836E+02  0.7818608E-02  0.1474477E+00
         -2   -1    0    0  501    0 -0.00000000000E+00  0.00000000000E+00  0.60888536880E+00  0.60889070845E+00  0.25500000000E-02 0.  1.
          2   -1    0    0    0  501  0.00000000000E+00 -0.00000000000E+00 -0.83063414157E+03  0.83063414157E+03  0.25500000000E-02 0.  1.
          2    1    1    2    0  502  0.19561701043E+02 -0.10638145166E+02 -0.35676709085E+03  0.35746130896E+03  0.25500000000E-02 0.  1.
         -2    1    1    2  502    0 -0.19561701043E+02  0.10638145166E+02 -0.47325816535E+03  0.47378172332E+03  0.25500000000E-02 0.  1.
<mgrwt>
<rscale>  0 0.44978359E+02</rscale>
<asrwt>0</asrwt>
<pdfrwt beam="2">  1        2 0.12778896E+00 0.44978359E+02</pdfrwt>
<pdfrwt beam="1">  1       -2 0.93675748E-04 0.44978359E+02</pdfrwt>
<totfact> 0.14732045E+06</totfact>
</mgrwt>
</event>
<event>
 4    1  0.2196664E-002  0.7887006E+02  0.7818608E-02  0.1332289E+00
         -2   -1    0    0  501    0 -0.00000000000E+00  0.00000000000E+00  0.33438308852E+02  0.33438308949E+02  0.25500000000E-02 0. -1.
          2   -1    0    0    0  501  0.00000000000E+00 -0.00000000000E+00 -0.46507180197E+02  0.46507180267E+02  0.25500000000E-02 0. -1.
          2    1    1    2    0  502 -0.37333861530E+02  0.11298379331E+02 -0.65440061006E+00  0.39011521874E+02  0.25500000000E-02 0. -1.
         -2    1    1    2  502    0  0.37333861530E+02 -0.11298379331E+02 -0.12414470735E+02  0.40933967342E+02  0.25500000000E-02 0. -1.
<mgrwt>
<rscale>  0 0.78870057E+02</rscale>
<asrwt>0</asrwt>
<pdfrwt beam="2">  1        2 0.71549508E-02 0.78870057E+02</pdfrwt>
<pdfrwt beam="1">  1       -2 0.51443552E-02 0.78870057E+02</pdfrwt>
<totfact> 0.14937351E+05</totfact>
</mgrwt>
</event>
<event>
 4    1  0.2196664E-002  0.4482121E+02  0.7818608E-02  0.1475461E+00
         -2   -1    0    0  501    0 -0.00000000000E+00  0.00000000000E+00  0.13848750179E+01  0.13848773656E+01  0.25500000000E-02 0.  1.
          2   -1    0    0    0  501  0.00000000000E+00 -0.00000000000E+00 -0.36265710696E+03  0.36265710697E+03  0.25500000000E-02 0.  1.
          2    1    1    2    0  502 -0.10299721233E+02 -0.17791844886E+02 -0.25310101306E+03  0.25393455223E+03  0.25500000000E-02 0.  1.
         -2    1    1    2  502    0  0.10299721233E+02  0.17791844886E+02 -0.10817121889E+03  0.11010743210E+03  0.25500000000E-02 0.  1.
<mgrwt>
<rscale>  0 0.44821209E+02</rscale>
<asrwt>0</asrwt>
<pdfrwt beam="2">  1        2 0.55793326E-01 0.44821209E+02</pdfrwt>
<pdfrwt beam="1">  1       -2 0.21305816E-03 0.44821209E+02</pdfrwt>
<totfact> 0.11831135E+06</totfact>
</mgrwt>
</event>
<event>
 4    1  0.2196664E-002  0.4392456E+02  0.7818608E-02  0.1481169E+00
         -2   -1    0    0  501    0 -0.00000000000E+00  0.00000000000E+00  0.86797996613E+03  0.86797996613E+03  0.25500000000E-02 0.  1.
          2   -1    0    0    0  501  0.00000000000E+00 -0.00000000000E+00 -0.55570319502E+00  0.55570904569E+00  0.25500000000E-02 0.  1.
          2    1    1    2    0  502 -0.19190669352E+02 -0.60955715697E+01  0.60711435810E+03  0.60744817194E+03  0.25500000000E-02 0.  1.
         -2    1    1    2  502    0  0.19190669352E+02  0.60955715697E+01  0.26030990484E+03  0.26108750324E+03  0.25500000000E-02 0.  1.
<mgrwt>
<rscale>  0 0.43924562E+02</rscale>
<asrwt>0</asrwt>
<pdfrwt beam="2">  1        2 0.85492867E-04 0.43924562E+02</pdfrwt>
<pdfrwt beam="1">  1       -2 0.13353598E+00 0.43924562E+02</pdfrwt>
<totfact> 0.13703249E+05</totfact>
</mgrwt>
</event>
<event>
 4    1  0.2196664E-002  0.7123104E+02  0.7818608E-02  0.1355956E+00
         -2   -1    0    0  501    0 -0.00000000000E+00  0.00000000000E+00  0.12064772608E+03  0.12064772610E+03  0.25500000000E-02 0. -1.
          2   -1    0    0    0  501  0.00000000000E+00 -0.00000000000E+00 -0.10513794357E+02  0.10513794666E+02  0.25500000000E-02 0. -1.
          2    1    1    2    0  502 -0.34113854321E+02  0.77719531192E+01  0.67323670616E+02  0.75872491350E+02  0.25500000000E-02 0. -1.
         -2    1    1    2  502    0  0.34113854321E+02 -0.77719531192E+01  0.42810261103E+02  0.55289029419E+02  0.25500000000E-02 0. -1.
<mgrwt>
<rscale>  0 0.71231044E+02</rscale>
<asrwt>0</asrwt>
<pdfrwt beam="2">  1        2 0.16175068E-02 0.71231044E+02</pdfrwt>
<pdfrwt beam="1">  1       -2 0.18561189E-01 0.71231044E+02</pdfrwt>
<totfact> 0.13975963E+05</totfact>
</mgrwt>
</event>
<event>
 4    1  0.2196664E-002  0.4227332E+02  0.7818608E-02  0.1492119E+00
          2   -1    0    0    0  501  0.00000000000E+00  0.00000000000E+00  0.19291366328E+02  0.19291366497E+02  0.25500000000E-02 0.  1.
         -2   -1    0    0  501    0 -0.00000000000E+00 -0.00000000000E+00 -0.23158460770E+02  0.23158460911E+02  0.25500000000E-02 0.  1.
          2    1    1    2    0  502 -0.15445819330E+02 -0.13412737245E+02 -0.72739760236E+01  0.21711416095E+02  0.25500000000E-02 0. -1.
         -2    1    1    2  502    0  0.15445819330E+02  0.13412737245E+02  0.34068815819E+01  0.20738411313E+02  0.25500000000E-02 0. -1.
<mgrwt>
<rscale>  0 0.42273318E+02</rscale>
<asrwt>0</asrwt>
<pdfrwt beam="1">  1        2 0.29679026E-02 0.42273318E+02</pdfrwt>
<pdfrwt beam="2">  1       -2 0.35628401E-02 0.42273318E+02</pdfrwt>
<totfact> 0.68070203E+05</totfact>
</mgrwt>
</event>
<event>
 4    1  0.2196664E-002  0.6015939E+02  0.7818608E-02  0.1397164E+00
          2   -1    0    0    0  501  0.00000000000E+00  0.00000000000E+00  0.90037891724E+02  0.90037891760E+02  0.25500000000E-02 0.  1.
         -2   -1    0    0  501    0 -0.00000000000E+00 -0.00000000000E+00 -0.10048969236E+02  0.10048969560E+02  0.25500000000E-02 0.  1.
          2    1    1    2    0  502  0.10827614383E+02  0.16843984616E+02  0.26508699988E+01  0.20198618003E+02  0.25500000000E-02 0.  1.
         -2    1    1    2  502    0 -0.10827614383E+02 -0.16843984616E+02  0.77338052488E+02  0.79888243316E+02  0.25500000000E-02 0.  1.
<mgrwt>
<rscale>  0 0.60159389E+02</rscale>
<asrwt>0</asrwt>
<pdfrwt beam="1">  1        2 0.13851983E-01 0.60159389E+02</pdfrwt>
<pdfrwt beam="2">  1       -2 0.15459953E-02 0.60159389E+02</pdfrwt>
<totfact> 0.36240022E+05</totfact>
</mgrwt>
</event>
<event>
 4    1  0.2196664E-002  0.4581148E+02  0.7818608E-02  0.1469338E+00
          2   -1    0    0    0  501  0.00000000000E+00  0.00000000000E+00  0.39675223285E+01  0.39675231480E+01  0.25500000000E-02 0.  1.
         -2   -1    0    0  501    0 -0.00000000000E+00 -0.00000000000E+00 -0.13224194331E+03  0.13224194333E+03  0.25500000000E-02 0.  1.
          2    1    1    2    0  502 -0.58049624264E+01 -0.22139894011E+02 -0.66797270638E+02  0.70609828401E+02  0.25500000000E-02 0.  1.
         -2    1    1    2  502    0  0.58049624264E+01  0.22139894011E+02 -0.61477150341E+02  0.65599638079E+02  0.25500000000E-02 0.  1.
<mgrwt>
<rscale>  0 0.45811480E+02</rscale>
<asrwt>0</asrwt>
<pdfrwt beam="1">  1        2 0.61038822E-03 0.45811480E+02</pdfrwt>
<pdfrwt beam="2">  1       -2 0.20344911E-01 0.45811480E+02</pdfrwt>
<totfact> 0.40432147E+05</totfact>
</mgrwt>
</event>
<event>
 4    1  0.2196664E-002  0.1558023E+03  0.7818608E-02  0.1193519E+00
         -2   -1    0    0  501    0 -0.00000000000E+00  0.00000000000E+00  0.28035111677E+01  0.28035123274E+01  0.25500000000E-02 0.  1.
          2   -1    0    0    0  501  0.00000000000E+00 -0.00000000000E+00 -0.21646395116E+04  0.21646395116E+04  0.25500000000E-02 0.  1.
          2    1    1    2    0  502 -0.35529088976E+02 -0.22542787857E+02 -0.16888214360E+03  0.17404502832E+03  0.25500000000E-02 0.  1.
         -2    1    1    2  502    0  0.35529088976E+02  0.22542787857E+02 -0.19929538569E+04  0.19933979956E+04  0.25500000000E-02 0.  1.
<mgrwt>
<rscale>  0 0.15580234E+03</rscale>
<asrwt>0</asrwt>
<pdfrwt beam="2">  1        2 0.33302013E+00 0.15580234E+03</pdfrwt>
<pdfrwt beam="1">  1       -2 0.43131123E-03 0.15580234E+03</pdfrwt>
<totfact> 0.42398088E+04</totfact>
</mgrwt>
</event>
<event>
 4    1  0.2196664E-002  0.1219470E+03  0.7818608E-02  0.1239919E+00
          2   -1    0    0    0  501  0.00000000000E+00  0.00000000000E+00  0.65567347198E+02  0.65567347247E+02  0.25500000000E-02 0.  1.
         -2   -1    0    0  501    0 -0.00000000000E+00 -0.00000000000E+00 -0.56701497915E+02  0.56701497972E+02  0.25500000000E-02 0.  1.
          2    1    1    2    0  502  0.44567381943E+02  0.14632565666E+02  0.43489598266E+02  0.63966465239E+02  0.25500000000E-02 0. -1.
         -2    1    1    2  502    0 -0.44567381943E+02 -0.14632565666E+02 -0.34623748984E+02  0.58302379981E+02  0.25500000000E-02 0. -1.
<mgrwt>
<rscale>  0 0.12194699E+03</rscale>
<asrwt>0</asrwt>
<pdfrwt beam="1">  1        2 0.10087284E-01 0.12194699E+03</pdfrwt>
<pdfrwt beam="2">  1       -2 0.87233074E-02 0.12194699E+03</pdfrwt>
<totfact> 0.46926917E+04</totfact>
</mgrwt>
</event>
<event>
 4    1  0.2196664E-002  0.4573685E+02  0.7818608E-02  0.1469793E+00
          2   -1    0    0    0  501  0.00000000000E+00  0.00000000000E+00  0.11453816034E+03  0.11453816036E+03  0.25500000000E-02 0.  1.
         -2   -1    0    0  501    0 -0.00000000000E+00 -0.00000000000E+00 -0.45658562782E+01  0.45658569902E+01  0.25500000000E-02 0.  1.
          2    1    1    2    0  502 -0.19256961829E+02 -0.93815951319E+01  0.34133724132E+02  0.40298337878E+02  0.25500000000E-02 0.  1.
         -2    1    1    2  502    0  0.19256961829E+02  0.93815951319E+01  0.75838579926E+02  0.78805679477E+02  0.25500000000E-02 0.  1.
<mgrwt>
<rscale>  0 0.45736848E+02</rscale>
<asrwt>0</asrwt>
<pdfrwt beam="1">  1        2 0.17621252E-01 0.45736848E+02</pdfrwt>
<pdfrwt beam="2">  1       -2 0.70243962E-03 0.45736848E+02</pdfrwt>
<totfact> 0.77664456E+05</totfact>
</mgrwt>
</event>
<event>
 4    1  0.2196664E-002  0.7335242E+02  0.7818608E-02  0.1349050E+00
          2   -1    0    0    0  501  0.00000000000E+00  0.00000000000E+00  0.13561689109E+04  0.13561689109E+04  0.25500000000E-02 0. -1.
         -2   -1    0    0  501    0 -0.00000000000E+00 -0.00000000000E+00 -0.99186931563E+00  0.99187259353E+00  0.25500000000E-02 0. -1.
          2    1    1    2    0  502  0.90739053032E+01 -0.35165391887E+02  0.58287746818E+03  0.58400777688E+03  0.25500000000E-02 0.  1.
         -2    1    1    2  502    0 -0.90739053032E+01  0.35165391887E+02  0.77229957341E+03  0.77315300662E+03  0.25500000000E-02 0.  1.
<mgrwt>
<rscale>  0 0.73352425E+02</rscale>
<asrwt>0</asrwt>
<pdfrwt beam="1">  1        2 0.20864280E+00 0.73352425E+02</pdfrwt>
<pdfrwt beam="2">  1       -2 0.15259449E-03 0.73352425E+02</pdfrwt>
<totfact> 0.42903398E+05</totfact>
</mgrwt>
</event>
<event>
 4    1  0.2196664E-002  0.5908309E+02  0.7818608E-02  0.1401720E+00
         -2   -1    0    0  501    0 -0.00000000000E+00  0.00000000000E+00  0.47384781090E+01  0.47384787952E+01  0.25500000000E-02 0.  1.
          2   -1    0    0    0  501  0.00000000000E+00 -0.00000000000E+00 -0.18417363288E+03  0.18417363290E+03  0.25500000000E-02 0.  1.
          2    1    1    2    0  502  0.22855697904E+02 -0.85352543310E+01 -0.14297793629E+03  0.14504455786E+03  0.25500000000E-02 0.  1.
         -2    1    1    2  502    0 -0.22855697904E+02  0.85352543310E+01 -0.36457218479E+02  0.43867553829E+02  0.25500000000E-02 0.  1.
<mgrwt>
<rscale>  0 0.59083087E+02</rscale>
<asrwt>0</asrwt>
<pdfrwt beam="2">  1        2 0.28334400E-01 0.59083087E+02</pdfrwt>
<pdfrwt beam="1">  1       -2 0.72899683E-03 0.59083087E+02</pdfrwt>
<totfact> 0.46944832E+05</totfact>
</mgrwt>
</event>
<event>
 4    1  0.2196664E-002  0.6540088E+02  0.7818608E-02  0.1376470E+00
          2   -1    0    0    0  501  0.00000000000E+00  0.00000000000E+00  0.23290664734E+01  0.23290678694E+01  0.25500000000E-02 0.  1.
         -2   -1    0    0  501    0 -0.00000000000E+00 -0.00000000000E+00 -0.45911897097E+03  0.45911897097E+03  0.25500000000E-02 0.  1.
          2    1    1    2    0  502  0.25265697455E+02  0.15941537521E+02 -0.13457003741E+03  0.13784622976E+03  0.25500000000E-02 0. -1.
         -2    1    1    2  502    0 -0.25265697455E+02 -0.15941537521E+02 -0.32221986709E+03  0.32360180908E+03  0.25500000000E-02 0. -1.
<mgrwt>
<rscale>  0 0.65400885E+02</rscale>
<asrwt>0</asrwt>
<pdfrwt beam="1">  1        2 0.35831839E-03 0.65400885E+02</pdfrwt>
<pdfrwt beam="2">  1       -2 0.70633616E-01 0.65400885E+02</pdfrwt>
<totfact> 0.90588655E+04</totfact>
</mgrwt>
</event>
<event>
 4    1  0.2196664E-002  0.5032283E+02  0.7818608E-02  0.1443608E+00
          2   -1    0    0    0  501  0.00000000000E+00  0.00000000000E+00  0.10255631572E+04  0.10255631572E+04  0.25500000000E-02 0.  1.
         -2   -1    0    0  501    0 -0.00000000000E+00 -0.00000000000E+00 -0.61731357737E+00  0.61731884412E+00  0.25500000000E-02 0.  1.
          2    1    1    2    0  502 -0.93943835073E+01 -0.23108754679E+02  0.57957381585E+03  0.58011040071E+03  0.25500000000E-02 0.  1.
         -2    1    1    2  502    0  0.93943835073E+01  0.23108754679E+02  0.44537202780E+03  0.44607007536E+03  0.25500000000E-02 0.  1.
<mgrwt>
<rscale>  0 0.50322828E+02</rscale>
<asrwt>0</asrwt>
<pdfrwt beam="1">  1        2 0.15777977E+00 0.50322828E+02</pdfrwt>
<pdfrwt beam="2">  1       -2 0.94971229E-04 0.50322828E+02</pdfrwt>
<totfact> 0.11405169E+06</totfact>
</mgrwt>
</event>
<event>
 4    1  0.2196664E-002  0.6042871E+02  0.7818608E-02  0.1396041E+00
         -2   -1    0    0  501    0 -0.00000000000E+00  0.00000000000E+00  0.17081961829E+01  0.17081980863E+01  0.25500000000E-02 0.  1.
          2   -1    0    0    0  501  0.00000000000E+00 -0.00000000000E+00 -0.53442738975E+03  0.53442738975E+03  0.25500000000E-02 0.  1.
          2    1    1    2    0  502  0.10162566779E+02 -0.18674275878E+02 -0.45683333764E+03  0.45732778696E+03  0.25500000000E-02 0. -1.
         -2    1    1    2  502    0 -0.10162566779E+02  0.18674275878E+02 -0.75885855931E+02  0.78807800882E+02  0.25500000000E-02 0. -1.
<mgrwt>
<rscale>  0 0.60428713E+02</rscale>
<asrwt>0</asrwt>
<pdfrwt beam="2">  1        2 0.82219465E-01 0.60428713E+02</pdfrwt>
<pdfrwt beam="1">  1       -2 0.26279999E-03 0.60428713E+02</pdfrwt>
<totfact> 0.63805464E+05</totfact>
</mgrwt>
</event>
<event>
 4    1  0.2196664E-002  0.4265184E+02  0.7818608E-02  0.1489557E+00
          2   -1    0    0    0  501  0.00000000000E+00  0.00000000000E+00  0.11930100942E+03  0.11930100944E+03  0.25500000000E-02 0.  1.
         -2   -1    0    0  501    0 -0.00000000000E+00 -0.00000000000E+00 -0.38121628485E+01  0.38121637013E+01  0.25500000000E-02 0.  1.
          2    1    1    2    0  502 -0.19107617318E+02 -0.94038044998E+01  0.60987488923E+02  0.64598811059E+02  0.25500000000E-02 0. -1.
         -2    1    1    2  502    0  0.19107617318E+02  0.94038044998E+01  0.54501357644E+02  0.58514362085E+02  0.25500000000E-02 0. -1.
<mgrwt>
<rscale>  0 0.42651843E+02</rscale>
<asrwt>0</asrwt>
<pdfrwt beam="1">  1        2 0.18354002E-01 0.42651843E+02</pdfrwt>
<pdfrwt beam="2">  1       -2 0.58648664E-03 0.42651843E+02</pdfrwt>
<totfact> 0.93419419E+05</totfact>
</mgrwt>
</event>
<event>
 4    1  0.2196664E-002  0.5316895E+02  0.7818608E-02  0.1428962E+00
         -2   -1    0    0  501    0 -0.00000000000E+00  0.00000000000E+00  0.17893247542E+02  0.17893247723E+02  0.25500000000E-02 0. -1.
          2   -1    0    0    0  501  0.00000000000E+00 -0.00000000000E+00 -0.39497260403E+02  0.39497260485E+02  0.25500000000E-02 0. -1.
          2    1    1    2    0  502  0.26215038424E+02  0.39749685484E+01 -0.87241580364E+01  0.27913071391E+02  0.25500000000E-02 0.  1.
         -2    1    1    2  502    0 -0.26215038424E+02 -0.39749685484E+01 -0.12879854825E+02  0.29477436818E+02  0.25500000000E-02 0.  1.
<mgrwt>
<rscale>  0 0.53168948E+02</rscale>
<asrwt>0</asrwt>
<pdfrwt beam="2">  1        2 0.60765016E-02 0.53168948E+02</pdfrwt>
<pdfrwt beam="1">  1       -2 0.27528074E-02 0.53168948E+02</pdfrwt>
<totfact> 0.41880169E+05</totfact>
</mgrwt>
</event>
<event>
 4    1  0.2196664E-002  0.5551248E+02  0.7818608E-02  0.1417691E+00
         -2   -1    0    0  501    0 -0.00000000000E+00  0.00000000000E+00  0.18837539884E+01  0.18837557144E+01  0.25500000000E-02 0.  1.
          2   -1    0    0    0  501  0.00000000000E+00 -0.00000000000E+00 -0.40897509478E+03  0.40897509479E+03  0.25500000000E-02 0.  1.
          2    1    1    2    0  502  0.25694933726E+02 -0.17138133356E+01 -0.28019079973E+03  0.28137173105E+03  0.25500000000E-02 0. -1.
         -2    1    1    2  502    0 -0.25694933726E+02  0.17138133356E+01 -0.12690054106E+03  0.12948711945E+03  0.25500000000E-02 0. -1.
<mgrwt>
<rscale>  0 0.55512479E+02</rscale>
<asrwt>0</asrwt>
<pdfrwt beam="2">  1        2 0.62919175E-01 0.55512479E+02</pdfrwt>
<pdfrwt beam="1">  1       -2 0.28980876E-03 0.55512479E+02</pdfrwt>
<totfact> 0.72492876E+05</totfact>
</mgrwt>
</event>
<event>
 4    1  0.2196664E-002  0.4681393E+02  0.7818608E-02  0.1463325E+00
         -2   -1    0    0  501    0 -0.00000000000E+00  0.00000000000E+00  0.16230048559E+03  0.16230048561E+03  0.25500000000E-02 0. -1.
          2   -1    0    0    0  501  0.00000000000E+00 -0.00000000000E+00 -0.33757506006E+01  0.33757515637E+01  0.25500000000E-02 0. -1.
          2    1    1    2    0  502 -0.15692483748E+02 -0.17302247844E+02  0.84787659926E+02  0.87946399067E+02  0.25500000000E-02 0.  1.
         -2    1    1    2  502    0  0.15692483748E+02  0.17302247844E+02  0.74137075067E+02  0.77729838110E+02  0.25500000000E-02 0.  1.
<mgrwt>
<rscale>  0 0.46813931E+02</rscale>
<asrwt>0</asrwt>
<pdfrwt beam="2">  1        2 0.51934645E-03 0.46813931E+02</pdfrwt>
<pdfrwt beam="1">  1       -2 0.24969300E-01 0.46813931E+02</pdfrwt>
<totfact> 0.35870105E+05</totfact>
</mgrwt>
</event>
<event>
 4    1  0.2196664E-002  0.5458467E+02  0.7818608E-02  0.1422073E+00
         -2   -1    0    0  501    0 -0.00000000000E+00  0.00000000000E+00  0.72227822338E+00  0.72228272475E+00  0.25500000000E-02 0.  1.
          2   -1    0    0    0  501  0.00000000000E+00 -0.00000000000E+00 -0.10312774614E+04  0.10312774614E+04  0.25500000000E-02 0.  1.
          2    1    1    2    0  502  0.19310655963E+02 -0.15450808531E+02 -0.73351566920E+03  0.73393246685E+03  0.25500000000E-02 0.  1.
         -2    1    1    2  502    0 -0.19310655963E+02  0.15450808531E+02 -0.29703951398E+03  0.29806727728E+03  0.25500000000E-02 0.  1.
<mgrwt>
<rscale>  0 0.54584671E+02</rscale>
<asrwt>0</asrwt>
<pdfrwt beam="2">  1        2 0.15865689E+00 0.54584671E+02</pdfrwt>
<pdfrwt beam="1">  1       -2 0.11112090E-03 0.54584671E+02</pdfrwt>
<totfact> 0.93234480E+05</totfact>
</mgrwt>
</event>
<event>
 4    1  0.2196664E-002  0.4214394E+02  0.7818608E-02  0.1493002E+00
         -2   -1    0    0  501    0 -0.00000000000E+00  0.00000000000E+00  0.16927066040E+01  0.16927085248E+01  0.25500000000E-02 0.  1.
          2   -1    0    0    0  501  0.00000000000E+00 -0.00000000000E+00 -0.26231818412E+03  0.26231818414E+03  0.25500000000E-02 0.  1.
          2    1    1    2    0  502 -0.13295535440E+01  0.20757654279E+02 -0.10917985716E+03  0.11114355195E+03  0.25500000000E-02 0. -1.
         -2    1    1    2  502    0  0.13295535440E+01 -0.20757654279E+02 -0.15144562036E+03  0.15286734071E+03  0.25500000000E-02 0. -1.
<mgrwt>
<rscale>  0 0.42143943E+02</rscale>
<asrwt>0</asrwt>
<pdfrwt beam="2">  1        2 0.40356611E-01 0.42143943E+02</pdfrwt>
<pdfrwt beam="1">  1       -2 0.26041676E-03 0.42143943E+02</pdfrwt>
<totfact> 0.12308288E+06</totfact>
</mgrwt>
</event>
<event>
 4    1  0.2196664E-002  0.5131237E+02  0.7818608E-02  0.1438389E+00
         -2   -1    0    0  501    0 -0.00000000000E+00  0.00000000000E+00  0.21376804927E+00  0.21378325797E+00  0.25500000000E-02 0. -1.
          2   -1    0    0    0  501  0.00000000000E+00 -0.00000000000E+00 -0.30791150316E+04  0.30791150316E+04  0.25500000000E-02 0. -1.
          2    1    1    2    0  502 -0.89801434825E+01  0.23671470113E+02 -0.17887571530E+04  0.17889363136E+04  0.25500000000E-02 0.  1.
         -2    1    1    2  502    0  0.89801434825E+01 -0.23671470113E+02 -0.12901441105E+04  0.12903925013E+04  0.25500000000E-02 0.  1.
<mgrwt>
<rscale>  0 0.51312370E+02</rscale>
<asrwt>0</asrwt>
<pdfrwt beam="2">  1        2 0.47367449E+00 0.51312370E+02</pdfrwt>
<pdfrwt beam="1">  1       -2 0.32891028E-04 0.51312370E+02</pdfrwt>
<totfact> 0.42610785E+05</totfact>
</mgrwt>
</event>
<event>
 4    1  0.2196664E-002  0.1087101E+03  0.7818608E-02  0.1262977E+00
          2   -1    0    0    0  501  0.00000000000E+00  0.00000000000E+00  0.44745703952E+03  0.44745703952E+03  0.25500000000E-02 0. -1.
         -2   -1    0    0  501    0 -0.00000000000E+00 -0.00000000000E+00 -0.66028049270E+01  0.66028054194E+01  0.25500000000E-02 0. -1.
          2    1    1    2    0  502 -0.26131975009E+02 -0.11484046029E+02  0.41363305282E+03  0.41461676983E+03  0.25500000000E-02 0.  1.
         -2    1    1    2  502    0  0.26131975009E+02  0.11484046029E+02  0.27221181769E+02  0.39443075114E+02  0.25500000000E-02 0.  1.
<mgrwt>
<rscale>  0 0.10871010E+03</rscale>
<asrwt>0</asrwt>
<pdfrwt beam="1">  1        2 0.68839553E-01 0.10871010E+03</pdfrwt>
<pdfrwt beam="2">  1       -2 0.10158161E-02 0.10871010E+03</pdfrwt>
<totfact> 0.12969745E+05</totfact>
</mgrwt>
</event>
<event>
 4    1  0.2196664E-002  0.8940835E+02  0.7818608E-02  0.1304291E+00
          2   -1    0    0    0  501  0.00000000000E+00  0.00000000000E+00  0.30781342973E+03  0.30781342974E+03  0.25500000000E-02 0. -1.
         -2   -1    0    0  501    0 -0.00000000000E+00 -0.00000000000E+00 -0.64924492893E+01  0.64924497901E+01  0.25500000000E-02 0. -1.
          2    1    1    2    0  502  0.32827490745E+02 -0.16280240832E+02  0.24068300158E+03  0.24345635676E+03  0.25500000000E-02 0. -1.
         -2    1    1    2  502    0 -0.32827490745E+02  0.16280240832E+02  0.60637978858E+02  0.70849522769E+02  0.25500000000E-02 0. -1.
<mgrwt>
<rscale>  0 0.89408348E+02</rscale>
<asrwt>0</asrwt>
<pdfrwt beam="1">  1        2 0.47355913E-01 0.89408348E+02</pdfrwt>
<pdfrwt beam="2">  1       -2 0.99883839E-03 0.89408348E+02</pdfrwt>
<totfact> 0.19109784E+05</totfact>
</mgrwt>
</event>
<event>
 4    1  0.2196664E-002  0.5222571E+02  0.7818608E-02  0.1433693E+00
         -2   -1    0    0  501    0 -0.00000000000E+00  0.00000000000E+00  0.90119728544E+00  0.90120089313E+00  0.25500000000E-02 0.  1.
          2   -1    0    0    0  501  0.00000000000E+00 -0.00000000000E+00 -0.75663774457E+03  0.75663774457E+03  0.25500000000E-02 0.  1.
          2    1    1    2    0  502  0.19355726089E+02 -0.17380833733E+02 -0.34497101930E+03  0.34595049021E+03  0.25500000000E-02 0. -1.
         -2    1    1    2  502    0 -0.19355726089E+02  0.17380833733E+02 -0.41076552798E+03  0.41158845526E+03  0.25500000000E-02 0. -1.
<mgrwt>
<rscale>  0 0.52225712E+02</rscale>
<asrwt>0</asrwt>
<pdfrwt beam="2">  1        2 0.11640530E+00 0.52225712E+02</pdfrwt>
<pdfrwt beam="1">  1       -2 0.13864662E-03 0.52225712E+02</pdfrwt>
<totfact> 0.10041113E+06</totfact>
</mgrwt>
</event>
<event>
 4    1  0.2196664E-002  0.4885497E+02  0.7818608E-02  0.1451617E+00
          2   -1    0    0    0  501  0.00000000000E+00  0.00000000000E+00  0.12861284779E+03  0.12861284781E+03  0.25500000000E-02 0. -1.
         -2   -1    0    0  501    0 -0.00000000000E+00 -0.00000000000E+00 -0.46395198297E+01  0.46395205305E+01  0.25500000000E-02 0. -1.
          2    1    1    2    0  502  0.27177294379E+01 -0.23485959721E+02  0.78739331671E+02  0.82212278376E+02  0.25500000000E-02 0.  1.
         -2    1    1    2  502    0 -0.27177294379E+01  0.23485959721E+02  0.45233996287E+02  0.51040089968E+02  0.25500000000E-02 0.  1.
<mgrwt>
<rscale>  0 0.48854965E+02</rscale>
<asrwt>0</asrwt>
<pdfrwt beam="1">  1        2 0.19786592E-01 0.48854965E+02</pdfrwt>
<pdfrwt beam="2">  1       -2 0.71377235E-03 0.48854965E+02</pdfrwt>
<totfact> 0.68006281E+05</totfact>
</mgrwt>
</event>
<event>
 4    1  0.2196664E-002  0.6696428E+02  0.7818608E-02  0.1370731E+00
          2   -1    0    0    0  501  0.00000000000E+00  0.00000000000E+00  0.62169663171E+03  0.62169663172E+03  0.25500000000E-02 0. -1.
         -2   -1    0    0  501    0 -0.00000000000E+00 -0.00000000000E+00 -0.18032158418E+01  0.18032176449E+01  0.25500000000E-02 0. -1.
          2    1    1    2    0  502 -0.83468410770E+00 -0.28645190372E+02  0.47116573458E+03  0.47203643194E+03  0.25500000000E-02 0.  1.
         -2    1    1    2  502    0  0.83468410770E+00  0.28645190372E+02  0.14872768129E+03  0.15146341742E+03  0.25500000000E-02 0.  1.
<mgrwt>
<rscale>  0 0.66964282E+02</rscale>
<asrwt>0</asrwt>
<pdfrwt beam="1">  1        2 0.95645700E-01 0.66964282E+02</pdfrwt>
<pdfrwt beam="2">  1       -2 0.27741778E-03 0.66964282E+02</pdfrwt>
<totfact> 0.51308936E+05</totfact>
</mgrwt>
</event>
<event>
 4    1  0.2196664E-002  0.4681503E+02  0.7818608E-02  0.1463319E+00
          2   -1    0    0    0  501  0.00000000000E+00  0.00000000000E+00  0.86415067958E+03  0.86415067959E+03  0.25500000000E-02 0. -1.
         -2   -1    0    0  501    0 -0.00000000000E+00 -0.00000000000E+00 -0.63404401174E+00  0.63404913952E+00  0.25500000000E-02 0. -1.
          2    1    1    2    0  502 -0.17827492924E+02  0.15112754297E+02  0.45582158579E+03  0.45642034674E+03  0.25500000000E-02 0.  1.
         -2    1    1    2  502    0  0.17827492924E+02 -0.15112754297E+02  0.40769504978E+03  0.40836438198E+03  0.25500000000E-02 0.  1.
<mgrwt>
<rscale>  0 0.46815031E+02</rscale>
<asrwt>0</asrwt>
<pdfrwt beam="1">  1        2 0.13294600E+00 0.46815031E+02</pdfrwt>
<pdfrwt beam="2">  1       -2 0.97545815E-04 0.46815031E+02</pdfrwt>
<totfact> 0.13435314E+06</totfact>
</mgrwt>
</event>
<event>
 4    1  0.2196664E-002  0.5007840E+02  0.7818608E-02  0.1444919E+00
          2   -1    0    0    0  501  0.00000000000E+00  0.00000000000E+00  0.83826357452E+01  0.83826361331E+01  0.25500000000E-02 0.  1.
         -2   -1    0    0  501    0 -0.00000000000E+00 -0.00000000000E+00 -0.74792873539E+02  0.74792873582E+02  0.25500000000E-02 0.  1.
          2    1    1    2    0  502 -0.64396591117E+01  0.24195171905E+02 -0.32718403599E+02  0.41199144331E+02  0.25500000000E-02 0. -1.
         -2    1    1    2  502    0  0.64396591117E+01 -0.24195171905E+02 -0.33691834195E+02  0.41976365385E+02  0.25500000000E-02 0. -1.
<mgrwt>
<rscale>  0 0.50078396E+02</rscale>
<asrwt>0</asrwt>
<pdfrwt beam="1">  1        2 0.12896364E-02 0.50078396E+02</pdfrwt>
<pdfrwt beam="2">  1       -2 0.11506596E-01 0.50078396E+02</pdfrwt>
<totfact> 0.37603528E+05</totfact>
</mgrwt>
</event>
<event>
 4    1  0.2196664E-002  0.4787949E+02  0.7818608E-02  0.1457126E+00
         -2   -1    0    0  501    0 -0.00000000000E+00  0.00000000000E+00  0.11249253367E+02  0.11249253656E+02  0.25500000000E-02 0.  1.
          2   -1    0    0    0  501  0.00000000000E+00 -0.00000000000E+00 -0.50946614341E+02  0.50946614404E+02  0.25500000000E-02 0.  1.
          2    1    1    2    0  502  0.56249993849E+01 -0.20615377622E+02 -0.33868164926E+02  0.40046061161E+02  0.25500000000E-02 0.  1.
         -2    1    1    2  502    0 -0.56249993849E+01  0.20615377622E+02 -0.58291960480E+01  0.22149806899E+02  0.25500000000E-02 0.  1.
<mgrwt>
<rscale>  0 0.47879490E+02</rscale>
<asrwt>0</asrwt>
<pdfrwt beam="2">  1        2 0.78379406E-02 0.47879490E+02</pdfrwt>
<pdfrwt beam="1">  1       -2 0.17306544E-02 0.47879490E+02</pdfrwt>
<totfact> 0.57529207E+05</totfact>
</mgrwt>
</event>
<event>
 4    1  0.2196664E-002  0.1334877E+03  0.7818608E-02  0.1222370E+00
          2   -1    0    0    0  501  0.00000000000E+00  0.00000000000E+00  0.58751691443E+02  0.58751691498E+02  0.25500000000E-02 0. -1.
         -2   -1    0    0  501    0 -0.00000000000E+00 -0.00000000000E+00 -0.75823225541E+02  0.75823225584E+02  0.25500000000E-02 0. -1.
          2    1    1    2    0  502 -0.16735929377E+02 -0.23897403886E+02 -0.69054387651E+02  0.74964562994E+02  0.25500000000E-02 0. -1.
         -2    1    1    2  502    0  0.16735929377E+02  0.23897403886E+02  0.51982853552E+02  0.59610354088E+02  0.25500000000E-02 0. -1.
<mgrwt>
<rscale>  0 0.13348772E+03</rscale>
<asrwt>0</asrwt>
<pdfrwt beam="1">  1        2 0.90387218E-02 0.13348772E+03</pdfrwt>
<pdfrwt beam="2">  1       -2 0.11665112E-01 0.13348772E+03</pdfrwt>
<totfact> 0.34409740E+04</totfact>
</mgrwt>
</event>
<event>
 4    1  0.2196664E-002  0.4830574E+02  0.7818608E-02  0.1454700E+00
          2   -1    0    0    0  501  0.00000000000E+00  0.00000000000E+00  0.17292357153E+02  0.17292357341E+02  0.25500000000E-02 0.  1.
         -2   -1    0    0  501    0 -0.00000000000E+00 -0.00000000000E+00 -0.33735195599E+02  0.33735195696E+02  0.25500000000E-02 0.  1.
          2    1    1    2    0  502 -0.26901053505E+01 -0.19962840980E+02 -0.22299354375E+02  0.30050173026E+02  0.25500000000E-02 0. -1.
         -2    1    1    2  502    0  0.26901053505E+01  0.19962840980E+02  0.58565159285E+01  0.20977380011E+02  0.25500000000E-02 0. -1.
<mgrwt>
<rscale>  0 0.48305737E+02</rscale>
<asrwt>0</asrwt>
<pdfrwt beam="1">  1        2 0.26603627E-02 0.48305737E+02</pdfrwt>
<pdfrwt beam="2">  1       -2 0.51900301E-02 0.48305737E+02</pdfrwt>
<totfact> 0.47192998E+05</totfact>
</mgrwt>
</event>
<event>
 4    1  0.2196664E-002  0.4709199E+03  0.7818608E-02  0.1021661E+00
         -2   -1    0    0  501    0 -0.00000000000E+00  0.00000000000E+00  0.10966571474E+03  0.10966571477E+03  0.25500000000E-02 0.  1.
          2   -1    0    0    0  501  0.00000000000E+00 -0.00000000000E+00 -0.50554893429E+03  0.50554893430E+03  0.25500000000E-02 0.  1.
          2    1    1    2    0  502 -0.16322506078E+03 -0.15410854346E+03 -0.29077511576E+03  0.36734456793E+03  0.25500000000E-02 0. -1.
         -2    1    1    2  502    0  0.16322506078E+03  0.15410854346E+03 -0.10510810379E+03  0.24787008114E+03  0.25500000000E-02 0. -1.
<mgrwt>
<rscale>  0 0.47091989E+03</rscale>
<asrwt>0</asrwt>
<pdfrwt beam="2">  1        2 0.77776758E-01 0.47091989E+03</pdfrwt>
<pdfrwt beam="1">  1       -2 0.16871649E-01 0.47091989E+03</pdfrwt>
<totfact> 0.17374960E+03</totfact>
</mgrwt>
</event>
<event>
 4    1  0.2196664E-002  0.1312556E+03  0.7818608E-02  0.1225605E+00
          2   -1    0    0    0  501  0.00000000000E+00  0.00000000000E+00  0.10348277546E+04  0.10348277546E+04  0.25500000000E-02 0. -1.
         -2   -1    0    0  501    0 -0.00000000000E+00 -0.00000000000E+00 -0.41620504570E+01  0.41620512382E+01  0.25500000000E-02 0. -1.
          2    1    1    2    0  502 -0.64860524054E+02 -0.99993321059E+01  0.51820341803E+03  0.52234247069E+03  0.25500000000E-02 0. -1.
         -2    1    1    2  502    0  0.64860524054E+02  0.99993321059E+01  0.51246228609E+03  0.51664733513E+03  0.25500000000E-02 0. -1.
<mgrwt>
<rscale>  0 0.13125556E+03</rscale>
<asrwt>0</asrwt>
<pdfrwt beam="1">  1        2 0.15920435E+00 0.13125556E+03</pdfrwt>
<pdfrwt beam="2">  1       -2 0.64031521E-03 0.13125556E+03</pdfrwt>
<totfact> 0.94272378E+04</totfact>
</mgrwt>
</event>
<event>
 4    1  0.2196664E-002  0.7354113E+02  0.7818608E-02  0.1348449E+00
         -2   -1    0    0  501    0 -0.00000000000E+00  0.00000000000E+00  0.57826526684E+00  0.57827088923E+00  0.25500000000E-02 0. -1.
          2   -1    0    0    0  501  0.00000000000E+00 -0.00000000000E+00 -0.23381447056E+04  0.23381447056E+04  0.25500000000E-02 0. -1.
          2    1    1    2    0  502  0.32824036520E+02  0.29897803501E+00 -0.16957378098E+04  0.16960554903E+04  0.25500000000E-02 0. -1.
         -2    1    1    2  502    0 -0.32824036520E+02 -0.29897803501E+00 -0.64182863061E+03  0.64266748621E+03  0.25500000000E-02 0. -1.
<mgrwt>
<rscale>  0 0.73541130E+02</rscale>
<asrwt>0</asrwt>
<pdfrwt beam="2">  1        2 0.35970700E+00 0.73541130E+02</pdfrwt>
<pdfrwt beam="1">  1       -2 0.88966192E-04 0.73541130E+02</pdfrwt>
<totfact> 0.28905065E+05</totfact>
</mgrwt>
</event>
<event>
 4    1  0.2196664E-002  0.1596441E+03  0.7818608E-02  0.1189099E+00
          2   -1    0    0    0  501  0.00000000000E+00  0.00000000000E+00  0.17250509296E+04  0.17250509296E+04  0.25500000000E-02 0.  1.
         -2   -1    0    0  501    0 -0.00000000000E+00 -0.00000000000E+00 -0.36935468499E+01  0.36935477302E+01  0.25500000000E-02 0.  1.
          2    1    1    2    0  502  0.10771539956E+02  0.56761017398E+02  0.14571171270E+04  0.14582620344E+04  0.25500000000E-02 0. -1.
         -2    1    1    2  502    0 -0.10771539956E+02 -0.56761017398E+02  0.26424025574E+03  0.27048244292E+03  0.25500000000E-02 0. -1.
<mgrwt>
<rscale>  0 0.15964407E+03</rscale>
<asrwt>0</asrwt>
<pdfrwt beam="1">  1        2 0.26539226E+00 0.15964407E+03</pdfrwt>
<pdfrwt beam="2">  1       -2 0.56823845E-03 0.15964407E+03</pdfrwt>
<totfact> 0.48356066E+04</totfact>
</mgrwt>
</event>
<event>
 4    1  0.2196664E-002  0.4668769E+02  0.7818608E-02  0.1464073E+00
         -2   -1    0    0  501    0 -0.00000000000E+00  0.00000000000E+00  0.37070343434E+01  0.37070352205E+01  0.25500000000E-02 0. -1.
          2   -1    0    0    0  501  0.00000000000E+00 -0.00000000000E+00 -0.14700029092E+03  0.14700029095E+03  0.25500000000E-02 0. -1.
          2    1    1    2    0  502  0.22286998463E+02  0.69274549298E+01 -0.73212305484E+02  0.76842316552E+02  0.25500000000E-02 0.  1.
         -2    1    1    2  502    0 -0.22286998463E+02 -0.69274549298E+01 -0.70080951096E+02  0.73865009614E+02  0.25500000000E-02 0.  1.
<mgrwt>
<rscale>  0 0.46687694E+02</rscale>
<asrwt>0</asrwt>
<pdfrwt beam="2">  1        2 0.22615425E-01 0.46687694E+02</pdfrwt>
<pdfrwt beam="1">  1       -2 0.57031316E-03 0.46687694E+02</pdfrwt>
<totfact> 0.79244457E+05</totfact>
</mgrwt>
</event>
<event>
 4    1  0.2196664E-002  0.6139689E+02  0.7818608E-02  0.1392061E+00
          2   -1    0    0    0  501  0.00000000000E+00  0.00000000000E+00  0.56328297482E+03  0.56328297482E+03  0.25500000000E-02 0. -1.
         -2   -1    0    0  501    0 -0.00000000000E+00 -0.00000000000E+00 -0.16730383992E+01  0.16730403425E+01  0.25500000000E-02 0. -1.
          2    1    1    2    0  502  0.17854606334E+02  0.17912000793E+02  0.12069324689E+03  0.12331458385E+03  0.25500000000E-02 0. -1.
         -2    1    1    2  502    0 -0.17854606334E+02 -0.17912000793E+02  0.44091668953E+03  0.44164143131E+03  0.25500000000E-02 0. -1.
<mgrwt>
<rscale>  0 0.61396892E+02</rscale>
<asrwt>0</asrwt>
<pdfrwt beam="1">  1        2 0.86658901E-01 0.61396892E+02</pdfrwt>
<pdfrwt beam="2">  1       -2 0.25739073E-03 0.61396892E+02</pdfrwt>
<totfact> 0.62251865E+05</totfact>
</mgrwt>
</event>
<event>
 4    1  0.2196664E-002  0.6962263E+02  0.7818608E-02  0.1361381E+00
         -2   -1    0    0  501    0 -0.00000000000E+00  0.00000000000E+00  0.92151597206E+01  0.92151600734E+01  0.25500000000E-02 0. -1.
          2   -1    0    0    0  501  0.00000000000E+00 -0.00000000000E+00 -0.13150370151E+03  0.13150370153E+03  0.25500000000E-02 0. -1.
          2    1    1    2    0  502 -0.10208534926E+02 -0.19959373316E+02 -0.73175973906E+01  0.23582578455E+02  0.25500000000E-02 0.  1.
         -2    1    1    2  502    0  0.10208534926E+02  0.19959373316E+02 -0.11497094440E+03  0.11713628315E+03  0.25500000000E-02 0.  1.
<mgrwt>
<rscale>  0 0.69622630E+02</rscale>
<asrwt>0</asrwt>
<pdfrwt beam="2">  1        2 0.20231337E-01 0.69622630E+02</pdfrwt>
<pdfrwt beam="1">  1       -2 0.14177170E-02 0.69622630E+02</pdfrwt>
<totfact> 0.27534291E+05</totfact>
</mgrwt>
</event>
<event>
 4    1  0.2196664E-002  0.4604830E+02  0.7818608E-02  0.1467901E+00
         -2   -1    0    0  501    0 -0.00000000000E+00  0.00000000000E+00  0.28976628621E+00  0.28977750625E+00  0.25500000000E-02 0. -1.
          2   -1    0    0    0  501  0.00000000000E+00 -0.00000000000E+00 -0.18294095306E+04  0.18294095306E+04  0.25500000000E-02 0. -1.
          2    1    1    2    0  502  0.46233209615E+01 -0.22171194465E+02 -0.74989225112E+03  0.75023418028E+03  0.25500000000E-02 0.  1.
         -2    1    1    2  502    0 -0.46233209615E+01  0.22171194465E+02 -0.10792275132E+04  0.10794651278E+04  0.25500000000E-02 0.  1.
<mgrwt>
<rscale>  0 0.46048300E+02</rscale>
<asrwt>0</asrwt>
<pdfrwt beam="2">  1        2 0.28143837E+00 0.46048300E+02</pdfrwt>
<pdfrwt beam="1">  1       -2 0.44581757E-04 0.46048300E+02</pdfrwt>
<totfact> 0.12121227E+06</totfact>
</mgrwt>
</event>
<event>
 4    1  0.2196664E-002  0.6290368E+02  0.7818608E-02  0.1386035E+00
          2   -1    0    0    0  501  0.00000000000E+00  0.00000000000E+00  0.54716221547E+03  0.54716221548E+03  0.25500000000E-02 0.  1.
         -2   -1    0    0  501    0 -0.00000000000E+00 -0.00000000000E+00 -0.18079057408E+01  0.18079075392E+01  0.25500000000E-02 0.  1.
          2    1    1    2    0  502 -0.27175809534E+02  0.15808733176E+02  0.26498175013E+03  0.26684034286E+03  0.25500000000E-02 0.  1.
         -2    1    1    2  502    0  0.27175809534E+02 -0.15808733176E+02  0.28037255960E+03  0.28212978016E+03  0.25500000000E-02 0.  1.
<mgrwt>
<rscale>  0 0.62903679E+02</rscale>
<asrwt>0</asrwt>
<pdfrwt beam="1">  1        2 0.84178883E-01 0.62903679E+02</pdfrwt>
<pdfrwt beam="2">  1       -2 0.27813922E-03 0.62903679E+02</pdfrwt>
<totfact> 0.58041219E+05</totfact>
</mgrwt>
</event>
<event>
 4    1  0.2196664E-002  0.4868296E+02  0.7818608E-02  0.1452578E+00
          2   -1    0    0    0  501  0.00000000000E+00  0.00000000000E+00  0.99668933578E+03  0.99668933578E+03  0.25500000000E-02 0. -1.
         -2   -1    0    0  501    0 -0.00000000000E+00 -0.00000000000E+00 -0.59447310050E+00  0.59447856960E+00  0.25500000000E-02 0. -1.
          2    1    1    2    0  502 -0.33394057449E+01 -0.21070669247E+02  0.73815632418E+03  0.73846454462E+03  0.25500000000E-02 0.  1.
         -2    1    1    2  502    0  0.33394057449E+01  0.21070669247E+02  0.25793853850E+03  0.25881926973E+03  0.25500000000E-02 0.  1.
<mgrwt>
<rscale>  0 0.48682963E+02</rscale>
<asrwt>0</asrwt>
<pdfrwt beam="1">  1        2 0.15333587E+00 0.48682963E+02</pdfrwt>
<pdfrwt beam="2">  1       -2 0.91458386E-04 0.48682963E+02</pdfrwt>
<totfact> 0.12363269E+06</totfact>
</mgrwt>
</event>
<event>
 4    1  0.2196664E-002  0.8786581E+02  0.7818608E-02  0.1308104E+00
          2   -1    0    0    0  501  0.00000000000E+00  0.00000000000E+00  0.25033739543E+03  0.25033739545E+03  0.25500000000E-02 0. -1.
         -2   -1    0    0  501    0 -0.00000000000E+00 -0.00000000000E+00 -0.77099945714E+01  0.77099949931E+01  0.25500000000E-02 0. -1.
          2    1    1    2    0  502 -0.30912530345E+02 -0.86088349409E+01  0.33188901109E+02  0.46164918875E+02  0.25500000000E-02 0. -1.
         -2    1    1    2  502    0  0.30912530345E+02  0.86088349409E+01  0.20943849975E+03  0.21188247157E+03  0.25500000000E-02 0. -1.
<mgrwt>
<rscale>  0 0.87865807E+02</rscale>
<asrwt>0</asrwt>
<pdfrwt beam="1">  1        2 0.38513450E-01 0.87865807E+02</pdfrwt>
<pdfrwt beam="2">  1       -2 0.11861529E-02 0.87865807E+02</pdfrwt>
<totfact> 0.18538277E+05</totfact>
</mgrwt>
</event>
<event>
 4    1  0.2196664E-002  0.6113593E+02  0.7818608E-02  0.1393126E+00
         -2   -1    0    0  501    0 -0.00000000000E+00  0.00000000000E+00  0.93832823938E+00  0.93833170432E+00  0.25500000000E-02 0.  1.
          2   -1    0    0    0  501  0.00000000000E+00 -0.00000000000E+00 -0.99581215319E+03  0.99581215319E+03  0.25500000000E-02 0.  1.
          2    1    1    2    0  502  0.90090884804E+01  0.28688809387E+02 -0.58701747669E+03  0.58778714635E+03  0.25500000000E-02 0.  1.
         -2    1    1    2  502    0 -0.90090884804E+01 -0.28688809387E+02 -0.40785634826E+03  0.40896333855E+03  0.25500000000E-02 0.  1.
<mgrwt>
<rscale>  0 0.61135927E+02</rscale>
<asrwt>0</asrwt>
<pdfrwt beam="2">  1        2 0.15320103E+00 0.61135927E+02</pdfrwt>
<pdfrwt beam="1">  1       -2 0.14435925E-03 0.61135927E+02</pdfrwt>
<totfact> 0.70081729E+05</totfact>
</mgrwt>
</event>
<event>
 4    1  0.2196664E-002  0.4336412E+02  0.7818608E-02  0.1484820E+00
         -2   -1    0    0  501    0 -0.00000000000E+00  0.00000000000E+00  0.16417000817E+03  0.16417000819E+03  0.25500000000E-02 0.  1.
          2   -1    0    0    0  501  0.00000000000E+00 -0.00000000000E+00 -0.28635657095E+01  0.28635668449E+01  0.25500000000E-02 0.  1.
          2    1    1    2    0  502 -0.18493949312E+02 -0.85100439345E+01  0.10939165762E+03  0.11126986013E+03  0.25500000000E-02 0.  1.
         -2    1    1    2  502    0  0.18493949312E+02  0.85100439345E+01  0.51914784835E+02  0.55763714904E+02  0.25500000000E-02 0.  1.
<mgrwt>
<rscale>  0 0.43364119E+02</rscale>
<asrwt>0</asrwt>
<pdfrwt beam="2">  1        2 0.44054880E-03 0.43364119E+02</pdfrwt>
<pdfrwt beam="1">  1       -2 0.25256916E-01 0.43364119E+02</pdfrwt>
<totfact> 0.43032667E+05</totfact>
</mgrwt>
</event>
<event>
 4    1  0.2196664E-002  0.4181660E+02  0.7818608E-02  0.1495253E+00
         -2   -1    0    0  501    0 -0.00000000000E+00  0.00000000000E+00  0.45499126777E+00  0.45499841346E+00  0.25500000000E-02 0.  1.
          2   -1    0    0    0  501  0.00000000000E+00 -0.00000000000E+00 -0.96079544539E+03  0.96079544540E+03  0.25500000000E-02 0.  1.
          2    1    1    2    0  502 -0.19909819562E+02 -0.59108127786E+01 -0.42472201181E+03  0.42522949797E+03  0.25500000000E-02 0.  1.
         -2    1    1    2  502    0  0.19909819562E+02  0.59108127786E+01 -0.53561844231E+03  0.53602094584E+03  0.25500000000E-02 0.  1.
<mgrwt>
<rscale>  0 0.41816598E+02</rscale>
<asrwt>0</asrwt>
<pdfrwt beam="2">  1        2 0.14781306E+00 0.41816598E+02</pdfrwt>
<pdfrwt beam="1">  1       -2 0.69999976E-04 0.41816598E+02</pdfrwt>
<totfact> 0.17872463E+06</totfact>
</mgrwt>
</event>
<event>
 4    1  0.2196664E-002  0.4795991E+02  0.7818608E-02  0.1456666E+00
         -2   -1    0    0  501    0 -0.00000000000E+00  0.00000000000E+00  0.45054541962E+00  0.45055263582E+00  0.25500000000E-02 0.  1.
          2   -1    0    0    0  501  0.00000000000E+00 -0.00000000000E+00 -0.12763053526E+04  0.12763053526E+04  0.25500000000E-02 0.  1.
          2    1    1    2    0  502 -0.20696825228E+01  0.22458146397E+02 -0.85483186396E+03  0.85512932798E+03  0.25500000000E-02 0. -1.
         -2    1    1    2  502    0  0.20696825228E+01 -0.22458146397E+02 -0.42102294324E+03  0.42162657728E+03  0.25500000000E-02 0. -1.
<mgrwt>
<rscale>  0 0.47959906E+02</rscale>
<asrwt>0</asrwt>
<pdfrwt beam="2">  1        2 0.19635178E+00 0.47959906E+02</pdfrwt>
<pdfrwt beam="1">  1       -2 0.69316257E-04 0.47959906E+02</pdfrwt>
<totfact> 0.12664393E+06</totfact>
</mgrwt>
</event>
<event>
 4    1  0.2196664E-002  0.1073118E+03  0.7818608E-02  0.1265631E+00
          2   -1    0    0    0  501  0.00000000000E+00  0.00000000000E+00  0.11859108375E+04  0.11859108375E+04  0.25500000000E-02 0.  1.
         -2   -1    0    0  501    0 -0.00000000000E+00 -0.00000000000E+00 -0.24276324755E+01  0.24276338148E+01  0.25500000000E-02 0.  1.
          2    1    1    2    0  502 -0.34219608236E+02  0.39643301020E+02  0.72106395834E+03  0.72296321132E+03  0.25500000000E-02 0.  1.
         -2    1    1    2  502    0  0.34219608236E+02 -0.39643301020E+02  0.46241924664E+03  0.46537525995E+03  0.25500000000E-02 0.  1.
<mgrwt>
<rscale>  0 0.10731182E+03</rscale>
<asrwt>0</asrwt>
<pdfrwt beam="1">  1        2 0.18244763E+00 0.10731182E+03</pdfrwt>
<pdfrwt beam="2">  1       -2 0.37348241E-03 0.10731182E+03</pdfrwt>
<totfact> 0.16158378E+05</totfact>
</mgrwt>
</event>
<event>
 4    1  0.2196664E-002  0.4144632E+02  0.7818608E-02  0.1497830E+00
         -2   -1    0    0  501    0 -0.00000000000E+00  0.00000000000E+00  0.25632665547E+02  0.25632665674E+02  0.25500000000E-02 0. -1.
          2   -1    0    0    0  501  0.00000000000E+00 -0.00000000000E+00 -0.16753986355E+02  0.16753986550E+02  0.25500000000E-02 0. -1.
          2    1    1    2    0  502  0.17704723802E+02 -0.97650692242E+01  0.90850349588E+01  0.22166454127E+02  0.25500000000E-02 0.  1.
         -2    1    1    2  502    0 -0.17704723802E+02  0.97650692242E+01 -0.20635576711E+00  0.20220198097E+02  0.25500000000E-02 0.  1.
<mgrwt>
<rscale>  0 0.41446319E+02</rscale>
<asrwt>0</asrwt>
<pdfrwt beam="2">  1        2 0.25775364E-02 0.41446319E+02</pdfrwt>
<pdfrwt beam="1">  1       -2 0.39434870E-02 0.41446319E+02</pdfrwt>
<totfact> 0.70287047E+05</totfact>
</mgrwt>
</event>
<event>
 4    1  0.2196664E-002  0.4908408E+02  0.7818608E-02  0.1450345E+00
          2   -1    0    0    0  501  0.00000000000E+00  0.00000000000E+00  0.77777693155E+03  0.77777693156E+03  0.25500000000E-02 0. -1.
         -2   -1    0    0  501    0 -0.00000000000E+00 -0.00000000000E+00 -0.77439943390E+00  0.77440363231E+00  0.25500000000E-02 0. -1.
          2    1    1    2    0  502 -0.56573558651E+01 -0.23118196260E+02  0.48347889318E+03  0.48406435195E+03  0.25500000000E-02 0.  1.
         -2    1    1    2  502    0  0.56573558651E+01  0.23118196260E+02  0.29352363894E+03  0.29448698324E+03  0.25500000000E-02 0.  1.
<mgrwt>
<rscale>  0 0.49084077E+02</rscale>
<asrwt>0</asrwt>
<pdfrwt beam="1">  1        2 0.11965790E+00 0.49084077E+02</pdfrwt>
<pdfrwt beam="2">  1       -2 0.11913878E-03 0.49084077E+02</pdfrwt>
<totfact> 0.11765505E+06</totfact>
</mgrwt>
</event>
<event>
 4    1  0.2196664E-002  0.1091781E+03  0.7818608E-02  0.1262100E+00
         -2   -1    0    0  501    0 -0.00000000000E+00  0.00000000000E+00  0.21097849140E+01  0.21097864550E+01  0.25500000000E-02 0. -1.
          2   -1    0    0    0  501  0.00000000000E+00 -0.00000000000E+00 -0.14124488400E+04  0.14124488400E+04  0.25500000000E-02 0. -1.
          2    1    1    2    0  502  0.53132472612E+02  0.85558688197E+01 -0.58663282912E+03  0.58909620500E+03  0.25500000000E-02 0. -1.
         -2    1    1    2  502    0 -0.53132472612E+02 -0.85558688197E+01 -0.82370622599E+03  0.82546242148E+03  0.25500000000E-02 0. -1.
<mgrwt>
<rscale>  0 0.10917810E+03</rscale>
<asrwt>0</asrwt>
<pdfrwt beam="2">  1        2 0.21729907E+00 0.10917810E+03</pdfrwt>
<pdfrwt beam="1">  1       -2 0.32458354E-03 0.10917810E+03</pdfrwt>
<totfact> 0.14917631E+05</totfact>
</mgrwt>
</event>
<event>
 4    1  0.2196664E-002  0.5729265E+02  0.7818608E-02  0.1409558E+00
         -2   -1    0    0  501    0 -0.00000000000E+00  0.00000000000E+00  0.20498661818E+01  0.20498677678E+01  0.25500000000E-02 0. -1.
          2   -1    0    0    0  501  0.00000000000E+00 -0.00000000000E+00 -0.40032448434E+03  0.40032448435E+03  0.25500000000E-02 0. -1.
          2    1    1    2    0  502  0.19915256504E+02  0.19418479174E+02 -0.24724308701E+03  0.24880281119E+03  0.25500000000E-02 0. -1.
         -2    1    1    2  502    0 -0.19915256504E+02 -0.19418479174E+02 -0.15103153115E+03  0.15357154093E+03  0.25500000000E-02 0. -1.
<mgrwt>
<rscale>  0 0.57292650E+02</rscale>
<asrwt>0</asrwt>
<pdfrwt beam="2">  1        2 0.61588320E-01 0.57292650E+02</pdfrwt>
<pdfrwt beam="1">  1       -2 0.31536447E-03 0.57292650E+02</pdfrwt>
<totfact> 0.66471657E+05</totfact>
</mgrwt>
</event>
<event>
 4    1  0.2196664E-002  0.7988300E+02  0.7818608E-02  0.1329384E+00
         -2   -1    0    0  501    0 -0.00000000000E+00  0.00000000000E+00  0.12488884110E+01  0.12488910143E+01  0.25500000000E-02 0.  1.
          2   -1    0    0    0  501  0.00000000000E+00 -0.00000000000E+00 -0.12773933807E+04  0.12773933807E+04  0.25500000000E-02 0.  1.
          2    1    1    2    0  502  0.18045997877E+01 -0.39569130896E+02 -0.55590643126E+03  0.55731582879E+03  0.25500000000E-02 0. -1.
         -2    1    1    2  502    0 -0.18045997877E+01  0.39569130896E+02 -0.72023806104E+03  0.72132644294E+03  0.25500000000E-02 0. -1.
<mgrwt>
<rscale>  0 0.79883001E+02</rscale>
<asrwt>0</asrwt>
<pdfrwt beam="2">  1        2 0.19652101E+00 0.79883001E+02</pdfrwt>
<pdfrwt beam="1">  1       -2 0.19213790E-03 0.79883001E+02</pdfrwt>
<totfact> 0.34836816E+05</totfact>
</mgrwt>
</event>
<event>
 4    1  0.2196664E-002  0.6738893E+02  0.7818608E-02  0.1369204E+00
          2   -1    0    0    0  501  0.00000000000E+00  0.00000000000E+00  0.22575650125E+01  0.22575664527E+01  0.25500000000E-02 0.  1.
         -2   -1    0    0  501    0 -0.00000000000E+00 -0.00000000000E+00 -0.50289436838E+03  0.50289436839E+03  0.25500000000E-02 0.  1.
          2    1    1    2    0  502 -0.31120331763E+02 -0.11388408767E+02 -0.20463162122E+03  0.20729754295E+03  0.25500000000E-02 0.  1.
         -2    1    1    2  502    0  0.31120331763E+02  0.11388408767E+02 -0.29600518215E+03  0.29785439189E+03  0.25500000000E-02 0.  1.
<mgrwt>
<rscale>  0 0.67388934E+02</rscale>
<asrwt>0</asrwt>
<pdfrwt beam="1">  1        2 0.34731821E-03 0.67388934E+02</pdfrwt>
<pdfrwt beam="2">  1       -2 0.77368275E-01 0.67388934E+02</pdfrwt>
<totfact> 0.78400101E+04</totfact>
</mgrwt>
</event>
<event>
 4    1  0.2196664E-002  0.4789065E+02  0.7818608E-02  0.1457063E+00
          2   -1    0    0    0  501  0.00000000000E+00  0.00000000000E+00  0.52265235319E+03  0.52265235319E+03  0.25500000000E-02 0. -1.
         -2   -1    0    0  501    0 -0.00000000000E+00 -0.00000000000E+00 -0.10970540773E+01  0.10970570410E+01  0.25500000000E-02 0. -1.
          2    1    1    2    0  502  0.23075159323E+02 -0.15264937370E+01  0.32871128874E+03  0.32952375410E+03  0.25500000000E-02 0. -1.
         -2    1    1    2  502    0 -0.23075159323E+02  0.15264937370E+01  0.19284401037E+03  0.19422565614E+03  0.25500000000E-02 0. -1.
<mgrwt>
<rscale>  0 0.47890653E+02</rscale>
<asrwt>0</asrwt>
<pdfrwt beam="1">  1        2 0.80408206E-01 0.47890653E+02</pdfrwt>
<pdfrwt beam="2">  1       -2 0.16877746E-03 0.47890653E+02</pdfrwt>
<totfact> 0.11322701E+06</totfact>
</mgrwt>
</event>
<event>
 4    1  0.2196664E-002  0.6083754E+02  0.7818608E-02  0.1394350E+00
          2   -1    0    0    0  501  0.00000000000E+00  0.00000000000E+00  0.57694493384E+03  0.57694493385E+03  0.25500000000E-02 0.  1.
         -2   -1    0    0  501    0 -0.00000000000E+00 -0.00000000000E+00 -0.16037943504E+01  0.16037963776E+01  0.25500000000E-02 0.  1.
          2    1    1    2    0  502 -0.25250971147E+02 -0.35538507254E+01  0.44538890085E+03  0.44611827401E+03  0.25500000000E-02 0. -1.
         -2    1    1    2  502    0  0.25250971147E+02  0.35538507254E+01  0.12995223864E+03  0.13243045621E+03  0.25500000000E-02 0. -1.
<mgrwt>
<rscale>  0 0.60837541E+02</rscale>
<asrwt>0</asrwt>
<pdfrwt beam="1">  1        2 0.88760916E-01 0.60837541E+02</pdfrwt>
<pdfrwt beam="2">  1       -2 0.24673731E-03 0.60837541E+02</pdfrwt>
<totfact> 0.64151181E+05</totfact>
</mgrwt>
</event>
<event>
 4    1  0.2196664E-002  0.4372410E+02  0.7818608E-02  0.1482468E+00
         -2   -1    0    0  501    0 -0.00000000000E+00  0.00000000000E+00  0.30844415569E+00  0.30845469631E+00  0.25500000000E-02 0. -1.
          2   -1    0    0    0  501  0.00000000000E+00 -0.00000000000E+00 -0.15495224781E+04  0.15495224781E+04  0.25500000000E-02 0. -1.
          2    1    1    2    0  502  0.21001744168E+02 -0.55323216607E+01 -0.86335918648E+03  0.86363230876E+03  0.25500000000E-02 0.  1.
         -2    1    1    2  502    0 -0.21001744168E+02  0.55323216607E+01 -0.68585484743E+03  0.68619862400E+03  0.25500000000E-02 0.  1.
<mgrwt>
<rscale>  0 0.43724104E+02</rscale>
<asrwt>0</asrwt>
<pdfrwt beam="2">  1        2 0.23838184E+00 0.43724104E+02</pdfrwt>
<pdfrwt beam="1">  1       -2 0.47454999E-04 0.43724104E+02</pdfrwt>
<totfact> 0.15057093E+06</totfact>
</mgrwt>
</event>
<event>
 4    1  0.2196664E-002  0.5329684E+02  0.7818608E-02  0.1428329E+00
         -2   -1    0    0  501    0 -0.00000000000E+00  0.00000000000E+00  0.15641442031E+02  0.15641442239E+02  0.25500000000E-02 0. -1.
          2   -1    0    0    0  501  0.00000000000E+00 -0.00000000000E+00 -0.45401080766E+02  0.45401080837E+02  0.25500000000E-02 0. -1.
          2    1    1    2    0  502 -0.76323699324E+00  0.20799932960E+02 -0.33939125115E+02  0.39813112940E+02  0.25500000000E-02 0.  1.
         -2    1    1    2  502    0  0.76323699324E+00 -0.20799932960E+02  0.41794863809E+01  0.21229410137E+02  0.25500000000E-02 0.  1.
<mgrwt>
<rscale>  0 0.53296843E+02</rscale>
<asrwt>0</asrwt>
<pdfrwt beam="2">  1        2 0.69847816E-02 0.53296843E+02</pdfrwt>
<pdfrwt beam="1">  1       -2 0.24063757E-02 0.53296843E+02</pdfrwt>
<totfact> 0.42695055E+05</totfact>
</mgrwt>
</event>
<event>
 4    1  0.2196664E-002  0.4611664E+02  0.7818608E-02  0.1467489E+00
          2   -1    0    0    0  501  0.00000000000E+00  0.00000000000E+00  0.76425942960E+03  0.76425942960E+03  0.25500000000E-02 0. -1.
         -2   -1    0    0  501    0 -0.00000000000E+00 -0.00000000000E+00 -0.69568570789E+00  0.69569038132E+00  0.25500000000E-02 0. -1.
          2    1    1    2    0  502 -0.16346602151E+02  0.14286562518E+02  0.25290208034E+03  0.25383218770E+03  0.25500000000E-02 0.  1.
         -2    1    1    2  502    0  0.16346602151E+02 -0.14286562518E+02  0.51066166356E+03  0.51112293228E+03  0.25500000000E-02 0.  1.
<mgrwt>
<rscale>  0 0.46116641E+02</rscale>
<asrwt>0</asrwt>
<pdfrwt beam="1">  1        2 0.11757804E+00 0.46116641E+02</pdfrwt>
<pdfrwt beam="2">  1       -2 0.10702923E-03 0.46116641E+02</pdfrwt>
<totfact> 0.13665834E+06</totfact>
</mgrwt>
</event>
<event>
 4    1  0.2196664E-002  0.4108332E+02  0.7818608E-02  0.1500387E+00
         -2   -1    0    0  501    0 -0.00000000000E+00  0.00000000000E+00  0.66145462976E+00  0.66145954504E+00  0.25500000000E-02 0. -1.
          2   -1    0    0    0  501  0.00000000000E+00 -0.00000000000E+00 -0.63792455730E+03  0.63792455730E+03  0.25500000000E-02 0. -1.
          2    1    1    2    0  502  0.90103276268E+01  0.18411003562E+02 -0.29772740626E+03  0.29843216901E+03  0.25500000000E-02 0. -1.
         -2    1    1    2  502    0 -0.90103276268E+01 -0.18411003562E+02 -0.33953569641E+03  0.34015384784E+03  0.25500000000E-02 0. -1.
<mgrwt>
<rscale>  0 0.41083316E+02</rscale>
<asrwt>0</asrwt>
<pdfrwt beam="2">  1        2 0.98141748E-01 0.41083316E+02</pdfrwt>
<pdfrwt beam="1">  1       -2 0.10176314E-03 0.41083316E+02</pdfrwt>
<totfact> 0.17381036E+06</totfact>
</mgrwt>
</event>
<event>
 4    1  0.2196664E-002  0.6131795E+02  0.7818608E-02  0.1392383E+00
          2   -1    0    0    0  501  0.00000000000E+00  0.00000000000E+00  0.13022751682E+02  0.13022751931E+02  0.25500000000E-02 0. -1.
         -2   -1    0    0  501    0 -0.00000000000E+00 -0.00000000000E+00 -0.72179271546E+02  0.72179271591E+02  0.25500000000E-02 0. -1.
          2    1    1    2    0  502  0.11368584064E+02  0.28012681735E+02 -0.22490700930E+02  0.37680056747E+02  0.25500000000E-02 0.  1.
         -2    1    1    2  502    0 -0.11368584064E+02 -0.28012681735E+02 -0.36665818935E+02  0.47521966776E+02  0.25500000000E-02 0.  1.
<mgrwt>
<rscale>  0 0.61317950E+02</rscale>
<asrwt>0</asrwt>
<pdfrwt beam="1">  1        2 0.20035003E-02 0.61317950E+02</pdfrwt>
<pdfrwt beam="2">  1       -2 0.11104503E-01 0.61317950E+02</pdfrwt>
<totfact> 0.23129719E+05</totfact>
</mgrwt>
</event>
<event>
 4    1  0.2196664E-002  0.7309366E+02  0.7818608E-02  0.1349878E+00
         -2   -1    0    0  501    0 -0.00000000000E+00  0.00000000000E+00  0.91557509289E+02  0.91557509324E+02  0.25500000000E-02 0. -1.
          2   -1    0    0    0  501  0.00000000000E+00 -0.00000000000E+00 -0.14588325403E+02  0.14588325626E+02  0.25500000000E-02 0. -1.
          2    1    1    2    0  502 -0.33735082159E+02 -0.13776327890E+02  0.34421635081E+02  0.50126758787E+02  0.25500000000E-02 0.  1.
         -2    1    1    2  502    0  0.33735082159E+02  0.13776327890E+02  0.42547548805E+02  0.56019076163E+02  0.25500000000E-02 0.  1.
<mgrwt>
<rscale>  0 0.73093659E+02</rscale>
<asrwt>0</asrwt>
<pdfrwt beam="2">  1        2 0.22443578E-02 0.73093659E+02</pdfrwt>
<pdfrwt beam="1">  1       -2 0.14085771E-01 0.73093659E+02</pdfrwt>
<totfact> 0.14167057E+05</totfact>
</mgrwt>
</event>
<event>
 4    1  0.2196664E-002  0.5585901E+02  0.7818608E-02  0.1416080E+00
         -2   -1    0    0  501    0 -0.00000000000E+00  0.00000000000E+00  0.14781248137E+01  0.14781270132E+01  0.25500000000E-02 0.  1.
          2   -1    0    0    0  501  0.00000000000E+00 -0.00000000000E+00 -0.52773399633E+03  0.52773399633E+03  0.25500000000E-02 0.  1.
          2    1    1    2    0  502  0.25146449354E+02  0.11856361220E+02 -0.28844351933E+03  0.28978022891E+03  0.25500000000E-02 0.  1.
         -2    1    1    2  502    0 -0.25146449354E+02 -0.11856361220E+02 -0.23781235218E+03  0.23943189444E+03  0.25500000000E-02 0.  1.
<mgrwt>
<rscale>  0 0.55859012E+02</rscale>
<asrwt>0</asrwt>
<pdfrwt beam="2">  1        2 0.81189695E-01 0.55859012E+02</pdfrwt>
<pdfrwt beam="1">  1       -2 0.22740441E-03 0.55859012E+02</pdfrwt>
<totfact> 0.77481383E+05</totfact>
</mgrwt>
</event>
<event>
 4    1  0.2196664E-002  0.4251103E+02  0.7818608E-02  0.1490506E+00
         -2   -1    0    0  501    0 -0.00000000000E+00  0.00000000000E+00  0.32044702301E+00  0.32045716883E+00  0.25500000000E-02 0. -1.
          2   -1    0    0    0  501  0.00000000000E+00 -0.00000000000E+00 -0.14098732665E+04  0.14098732665E+04  0.25500000000E-02 0. -1.
          2    1    1    2    0  502 -0.21892887749E+01 -0.21139231749E+02 -0.69250998127E+03  0.69283600820E+03  0.25500000000E-02 0. -1.
         -2    1    1    2  502    0  0.21892887749E+01  0.21139231749E+02 -0.71704283822E+03  0.71735771548E+03  0.25500000000E-02 0. -1.
<mgrwt>
<rscale>  0 0.42511027E+02</rscale>
<asrwt>0</asrwt>
<pdfrwt beam="2">  1        2 0.21689861E+00 0.42511027E+02</pdfrwt>
<pdfrwt beam="1">  1       -2 0.49301451E-04 0.42511027E+02</pdfrwt>
<totfact> 0.16645529E+06</totfact>
</mgrwt>
</event>
<event>
 4    1  0.2196664E-002  0.4245004E+02  0.7818608E-02  0.1490919E+00
          2   -1    0    0    0  501  0.00000000000E+00  0.00000000000E+00  0.18543822335E+04  0.18543822335E+04  0.25500000000E-02 0.  1.
         -2   -1    0    0  501    0 -0.00000000000E+00 -0.00000000000E+00 -0.24293216313E+00  0.24294554613E+00  0.25500000000E-02 0.  1.
          2    1    1    2    0  502  0.21009709201E+02 -0.10502131268E+01  0.80356893414E+03  0.80384422791E+03  0.25500000000E-02 0. -1.
         -2    1    1    2  502    0 -0.21009709201E+02  0.10502131268E+01  0.10505703672E+04  0.10507809511E+04  0.25500000000E-02 0. -1.
<mgrwt>
<rscale>  0 0.42450041E+02</rscale>
<asrwt>0</asrwt>
<pdfrwt beam="1">  1        2 0.28526878E+00 0.42450041E+02</pdfrwt>
<pdfrwt beam="2">  1       -2 0.37377934E-04 0.42450041E+02</pdfrwt>
<totfact> 0.14663093E+06</totfact>
</mgrwt>
</event>
<event>
 4    1  0.2196664E-002  0.6710441E+02  0.7818608E-02  0.1370226E+00
         -2   -1    0    0  501    0 -0.00000000000E+00  0.00000000000E+00  0.15622657600E+02  0.15622657808E+02  0.25500000000E-02 0. -1.
          2   -1    0    0    0  501  0.00000000000E+00 -0.00000000000E+00 -0.72058830689E+02  0.72058830734E+02  0.25500000000E-02 0. -1.
          2    1    1    2    0  502  0.21043587137E+02 -0.24427274074E+02 -0.16084857677E+02  0.36031193864E+02  0.25500000000E-02 0. -1.
         -2    1    1    2  502    0 -0.21043587137E+02  0.24427274074E+02 -0.40351315413E+02  0.51650294678E+02  0.25500000000E-02 0. -1.
<mgrwt>
<rscale>  0 0.67104410E+02</rscale>
<asrwt>0</asrwt>
<pdfrwt beam="2">  1        2 0.11085974E-01 0.67104410E+02</pdfrwt>
<pdfrwt beam="1">  1       -2 0.24034858E-02 0.67104410E+02</pdfrwt>
<totfact> 0.25706197E+05</totfact>
</mgrwt>
</event>
<event>
 4    1  0.2196664E-002  0.4091366E+02  0.7818608E-02  0.1501594E+00
          2   -1    0    0    0  501  0.00000000000E+00  0.00000000000E+00  0.98158630376E+03  0.98158630377E+03  0.25500000000E-02 0.  1.
         -2   -1    0    0  501    0 -0.00000000000E+00 -0.00000000000E+00 -0.42632850057E+00  0.42633612667E+00  0.25500000000E-02 0.  1.
          2    1    1    2    0  502 -0.18246052469E+02  0.88527141422E+01  0.42620708630E+03  0.42668931250E+03  0.25500000000E-02 0.  1.
         -2    1    1    2  502    0  0.18246052469E+02 -0.88527141422E+01  0.55495288896E+03  0.55532332740E+03  0.25500000000E-02 0.  1.
<mgrwt>
<rscale>  0 0.40913663E+02</rscale>
<asrwt>0</asrwt>
<pdfrwt beam="1">  1        2 0.15101191E+00 0.40913663E+02</pdfrwt>
<pdfrwt beam="2">  1       -2 0.65590183E-04 0.40913663E+02</pdfrwt>
<totfact> 0.18865988E+06</totfact>
</mgrwt>
</event>
<event>
 4    1  0.2196664E-002  0.4326245E+02  0.7818608E-02  0.1485490E+00
          2   -1    0    0    0  501  0.00000000000E+00  0.00000000000E+00  0.36694469748E+02  0.36694469837E+02  0.25500000000E-02 0.  1.
         -2   -1    0    0  501    0 -0.00000000000E+00 -0.00000000000E+00 -0.12751508172E+02  0.12751508427E+02  0.25500000000E-02 0.  1.
          2    1    1    2    0  502 -0.21546339597E+02  0.50912666985E+00  0.98622014206E+01  0.23701624066E+02  0.25500000000E-02 0.  1.
         -2    1    1    2  502    0  0.21546339597E+02 -0.50912666985E+00  0.14080760155E+02  0.25744354198E+02  0.25500000000E-02 0.  1.
<mgrwt>
<rscale>  0 0.43262447E+02</rscale>
<asrwt>0</asrwt>
<pdfrwt beam="1">  1        2 0.56453030E-02 0.43262447E+02</pdfrwt>
<pdfrwt beam="2">  1       -2 0.19617705E-02 0.43262447E+02</pdfrwt>
<totfact> 0.70385132E+05</totfact>
</mgrwt>
</event>
<event>
 4    1  0.2196664E-002  0.1644913E+03  0.7818608E-02  0.1183717E+00
         -2   -1    0    0  501    0 -0.00000000000E+00  0.00000000000E+00  0.70694000814E+01  0.70694005413E+01  0.25500000000E-02 0. -1.
          2   -1    0    0    0  501  0.00000000000E+00 -0.00000000000E+00 -0.95684825821E+03  0.95684825822E+03  0.25500000000E-02 0. -1.
          2    1    1    2    0  502 -0.10168181017E+02  0.70325847742E+02 -0.71758277566E+03  0.72109233576E+03  0.25500000000E-02 0. -1.
         -2    1    1    2  502    0  0.10168181017E+02 -0.70325847742E+02 -0.23219608248E+03  0.24282532300E+03  0.25500000000E-02 0. -1.
<mgrwt>
<rscale>  0 0.16449126E+03</rscale>
<asrwt>0</asrwt>
<pdfrwt beam="2">  1        2 0.14720732E+00 0.16449126E+03</pdfrwt>
<pdfrwt beam="1">  1       -2 0.10876008E-02 0.16449126E+03</pdfrwt>
<totfact> 0.50393238E+04</totfact>
</mgrwt>
</event>
<event>
 4    1  0.2196664E-002  0.4415700E+02  0.7818608E-02  0.1479674E+00
          2   -1    0    0    0  501  0.00000000000E+00  0.00000000000E+00  0.16611489761E+04  0.16611489761E+04  0.25500000000E-02 0.  1.
         -2   -1    0    0  501    0 -0.00000000000E+00 -0.00000000000E+00 -0.29344198463E+00  0.29345306413E+00  0.25500000000E-02 0.  1.
          2    1    1    2    0  502  0.23662421860E+01  0.21733148670E+02  0.71426698304E+03  0.71460146370E+03  0.25500000000E-02 0. -1.
         -2    1    1    2  502    0 -0.23662421860E+01 -0.21733148670E+02  0.94658855107E+03  0.94684096546E+03  0.25500000000E-02 0. -1.
<mgrwt>
<rscale>  0 0.44156995E+02</rscale>
<asrwt>0</asrwt>
<pdfrwt beam="1">  1        2 0.25555831E+00 0.44156995E+02</pdfrwt>
<pdfrwt beam="2">  1       -2 0.45146315E-04 0.44156995E+02</pdfrwt>
<totfact> 0.14239242E+06</totfact>
</mgrwt>
</event>
<event>
 4    1  0.2196664E-002  0.7058980E+02  0.7818608E-02  0.1358099E+00
          2   -1    0    0    0  501  0.00000000000E+00  0.00000000000E+00  0.94871773109E+03  0.94871773110E+03  0.25500000000E-02 0. -1.
         -2   -1    0    0  501    0 -0.00000000000E+00 -0.00000000000E+00 -0.13130657237E+01  0.13130681998E+01  0.25500000000E-02 0. -1.
          2    1    1    2    0  502  0.30352975677E+02  0.47787962173E+01  0.23997789421E+03  0.24193703673E+03  0.25500000000E-02 0.  1.
         -2    1    1    2  502    0 -0.30352975677E+02 -0.47787962173E+01  0.70742677116E+03  0.70809376257E+03  0.25500000000E-02 0.  1.
<mgrwt>
<rscale>  0 0.70589798E+02</rscale>
<asrwt>0</asrwt>
<pdfrwt beam="1">  1        2 0.14595710E+00 0.70589798E+02</pdfrwt>
<pdfrwt beam="2">  1       -2 0.20200958E-03 0.70589798E+02</pdfrwt>
<totfact> 0.48465462E+05</totfact>
</mgrwt>
</event>
<event>
 4    1  0.2196664E-002  0.6845636E+02  0.7818608E-02  0.1365422E+00
         -2   -1    0    0  501    0 -0.00000000000E+00  0.00000000000E+00  0.86809817017E+02  0.86809817054E+02  0.25500000000E-02 0. -1.
          2   -1    0    0    0  501  0.00000000000E+00 -0.00000000000E+00 -0.13495803714E+02  0.13495803955E+02  0.25500000000E-02 0. -1.
          2    1    1    2    0  502  0.59037352337E+01 -0.32702602369E+02  0.48673297428E+02  0.58935593493E+02  0.25500000000E-02 0.  1.
         -2    1    1    2  502    0 -0.59037352337E+01  0.32702602369E+02  0.24640715875E+02  0.41370027517E+02  0.25500000000E-02 0.  1.
<mgrwt>
<rscale>  0 0.68456359E+02</rscale>
<asrwt>0</asrwt>
<pdfrwt beam="2">  1        2 0.20762776E-02 0.68456359E+02</pdfrwt>
<pdfrwt beam="1">  1       -2 0.13355356E-01 0.68456359E+02</pdfrwt>
<totfact> 0.16890446E+05</totfact>
</mgrwt>
</event>
<event>
 4    1  0.2196664E-002  0.5426774E+02  0.7818608E-02  0.1423594E+00
         -2   -1    0    0  501    0 -0.00000000000E+00  0.00000000000E+00  0.42697163068E+02  0.42697163144E+02  0.25500000000E-02 0.  1.
          2   -1    0    0    0  501  0.00000000000E+00 -0.00000000000E+00 -0.17243460957E+02  0.17243461145E+02  0.25500000000E-02 0.  1.
          2    1    1    2    0  502 -0.22281517813E+02 -0.11897149906E+02  0.23674496812E+02  0.34619214574E+02  0.25500000000E-02 0. -1.
         -2    1    1    2  502    0  0.22281517813E+02  0.11897149906E+02  0.17792052993E+01  0.25321409715E+02  0.25500000000E-02 0. -1.
<mgrwt>
<rscale>  0 0.54267739E+02</rscale>
<asrwt>0</asrwt>
<pdfrwt beam="2">  1        2 0.26528402E-02 0.54267739E+02</pdfrwt>
<pdfrwt beam="1">  1       -2 0.65687943E-02 0.54267739E+02</pdfrwt>
<totfact> 0.34437299E+05</totfact>
</mgrwt>
</event>
<event>
 4    1  0.2196664E-002  0.4555328E+02  0.7818608E-02  0.1470917E+00
         -2   -1    0    0  501    0 -0.00000000000E+00  0.00000000000E+00  0.42972198137E+01  0.42972205703E+01  0.25500000000E-02 0. -1.
          2   -1    0    0    0  501  0.00000000000E+00 -0.00000000000E+00 -0.12072346277E+03  0.12072346280E+03  0.25500000000E-02 0. -1.
          2    1    1    2    0  502 -0.56906518698E+00 -0.22148790254E+02 -0.43721115655E+02  0.49014576460E+02  0.25500000000E-02 0. -1.
         -2    1    1    2  502    0  0.56906518698E+00  0.22148790254E+02 -0.72705127304E+02  0.76006106910E+02  0.25500000000E-02 0. -1.
<mgrwt>
<rscale>  0 0.45553279E+02</rscale>
<asrwt>0</asrwt>
<pdfrwt beam="2">  1        2 0.18572838E-01 0.45553279E+02</pdfrwt>
<pdfrwt beam="1">  1       -2 0.66111089E-03 0.45553279E+02</pdfrwt>
<totfact> 0.79588740E+05</totfact>
</mgrwt>
</event>
<event>
 4    1  0.2196664E-002  0.5014846E+02  0.7818608E-02  0.1444542E+00
         -2   -1    0    0  501    0 -0.00000000000E+00  0.00000000000E+00  0.63614611743E+00  0.63615122826E+00  0.25500000000E-02 0.  1.
          2   -1    0    0    0  501  0.00000000000E+00 -0.00000000000E+00 -0.98831775583E+03  0.98831775583E+03  0.25500000000E-02 0.  1.
          2    1    1    2    0  502  0.22754730854E+02  0.14832555022E+01 -0.69948266025E+03  0.69985424898E+03  0.25500000000E-02 0. -1.
         -2    1    1    2  502    0 -0.22754730854E+02 -0.14832555022E+01 -0.28819894946E+03  0.28909965808E+03  0.25500000000E-02 0. -1.
<mgrwt>
<rscale>  0 0.50148461E+02</rscale>
<asrwt>0</asrwt>
<pdfrwt beam="2">  1        2 0.15204766E+00 0.50148461E+02</pdfrwt>
<pdfrwt beam="1">  1       -2 0.97869818E-04 0.50148461E+02</pdfrwt>
<totfact> 0.11487116E+06</totfact>
</mgrwt>
</event>
<event>
 4    1  0.2196664E-002  0.1020377E+03  0.7818608E-02  0.1276068E+00
         -2   -1    0    0  501    0 -0.00000000000E+00  0.00000000000E+00  0.33100397074E+01  0.33100406897E+01  0.25500000000E-02 0. -1.
          2   -1    0    0    0  501  0.00000000000E+00 -0.00000000000E+00 -0.78637234384E+03  0.78637234385E+03  0.25500000000E-02 0. -1.
          2    1    1    2    0  502  0.15227652850E+02 -0.22045090220E+02 -0.72754247152E+03  0.72803565523E+03  0.25500000000E-02 0.  1.
         -2    1    1    2  502    0 -0.15227652850E+02  0.22045090220E+02 -0.55519832620E+02  0.61646729312E+02  0.25500000000E-02 0.  1.
<mgrwt>
<rscale>  0 0.10203772E+03</rscale>
<asrwt>0</asrwt>
<pdfrwt beam="2">  1        2 0.12098021E+00 0.10203772E+03</pdfrwt>
<pdfrwt beam="1">  1       -2 0.50923758E-03 0.10203772E+03</pdfrwt>
<totfact> 0.18031328E+05</totfact>
</mgrwt>
</event>
<event>
 4    1  0.2196664E-002  0.4452164E+02  0.7818608E-02  0.1477350E+00
          2   -1    0    0    0  501  0.00000000000E+00  0.00000000000E+00  0.74652701800E+03  0.74652701800E+03  0.25500000000E-02 0.  1.
         -2   -1    0    0  501    0 -0.00000000000E+00 -0.00000000000E+00 -0.66379688702E+00  0.66380178496E+00  0.25500000000E-02 0.  1.
          2    1    1    2    0  502 -0.73337966353E+01  0.20976200200E+02  0.39518736751E+03  0.39581162312E+03  0.25500000000E-02 0. -1.
         -2    1    1    2  502    0  0.73337966353E+01 -0.20976200200E+02  0.35067585360E+03  0.35137919667E+03  0.25500000000E-02 0. -1.
<mgrwt>
<rscale>  0 0.44521642E+02</rscale>
<asrwt>0</asrwt>
<pdfrwt beam="1">  1        2 0.11485063E+00 0.44521642E+02</pdfrwt>
<pdfrwt beam="2">  1       -2 0.10212269E-03 0.44521642E+02</pdfrwt>
<totfact> 0.14823088E+06</totfact>
</mgrwt>
</event>
<event>
 4    1  0.2196664E-002  0.4248644E+02  0.7818608E-02  0.1490672E+00
          2   -1    0    0    0  501  0.00000000000E+00  0.00000000000E+00  0.56430793714E+03  0.56430793715E+03  0.25500000000E-02 0.  1.
         -2   -1    0    0  501    0 -0.00000000000E+00 -0.00000000000E+00 -0.79969342663E+00  0.79969749224E+00  0.25500000000E-02 0.  1.
          2    1    1    2    0  502  0.18109122679E+02 -0.92602114448E+01  0.36329483246E+03  0.36386374805E+03  0.25500000000E-02 0. -1.
         -2    1    1    2  502    0 -0.18109122679E+02  0.92602114448E+01  0.20021341125E+03  0.20124388659E+03  0.25500000000E-02 0. -1.
<mgrwt>
<rscale>  0 0.42486445E+02</rscale>
<asrwt>0</asrwt>
<pdfrwt beam="1">  1        2 0.86816847E-01 0.42486445E+02</pdfrwt>
<pdfrwt beam="2">  1       -2 0.12302973E-03 0.42486445E+02</pdfrwt>
<totfact> 0.15509441E+06</totfact>
</mgrwt>
</event>
<event>
 4    1  0.2196664E-002  0.5127788E+02  0.7818608E-02  0.1438568E+00
         -2   -1    0    0  501    0 -0.00000000000E+00  0.00000000000E+00  0.39093475418E+00  0.39094307070E+00  0.25500000000E-02 0. -1.
          2   -1    0    0    0  501  0.00000000000E+00 -0.00000000000E+00 -0.16814783088E+04  0.16814783088E+04  0.25500000000E-02 0. -1.
          2    1    1    2    0  502 -0.22839613597E+02  0.58510713254E+01 -0.51014681306E+03  0.51069134893E+03  0.25500000000E-02 0. -1.
         -2    1    1    2  502    0  0.22839613597E+02 -0.58510713254E+01 -0.11709405609E+04  0.11711779029E+04  0.25500000000E-02 0. -1.
<mgrwt>
<rscale>  0 0.51277882E+02</rscale>
<asrwt>0</asrwt>
<pdfrwt beam="2">  1        2 0.25868318E+00 0.51277882E+02</pdfrwt>
<pdfrwt beam="1">  1       -2 0.60145795E-04 0.51277882E+02</pdfrwt>
<totfact> 0.97788065E+05</totfact>
</mgrwt>
</event>
<event>
 4    1  0.2196664E-002  0.4704517E+02  0.7818608E-02  0.1461963E+00
         -2   -1    0    0  501    0 -0.00000000000E+00  0.00000000000E+00  0.10287189622E+02  0.10287189938E+02  0.25500000000E-02 0.  1.
          2   -1    0    0    0  501  0.00000000000E+00 -0.00000000000E+00 -0.53786506409E+02  0.53786506469E+02  0.25500000000E-02 0.  1.
          2    1    1    2    0  502 -0.16202645248E+02  0.16329954498E+02 -0.15060935426E+02  0.27495907138E+02  0.25500000000E-02 0.  1.
         -2    1    1    2  502    0  0.16202645248E+02 -0.16329954498E+02 -0.28438381360E+02  0.36577789269E+02  0.25500000000E-02 0.  1.
<mgrwt>
<rscale>  0 0.47045170E+02</rscale>
<asrwt>0</asrwt>
<pdfrwt beam="2">  1        2 0.82748470E-02 0.47045170E+02</pdfrwt>
<pdfrwt beam="1">  1       -2 0.15826446E-02 0.47045170E+02</pdfrwt>
<totfact> 0.60790796E+05</totfact>
</mgrwt>
</event>
<event>
 4    1  0.2196664E-002  0.5782829E+02  0.7818608E-02  0.1407178E+00
          2   -1    0    0    0  501  0.00000000000E+00  0.00000000000E+00  0.98815128091E+01  0.98815131382E+01  0.25500000000E-02 0.  1.
         -2   -1    0    0  501    0 -0.00000000000E+00 -0.00000000000E+00 -0.84605234343E+02  0.84605234381E+02  0.25500000000E-02 0.  1.
          2    1    1    2    0  502  0.71756444984E+01 -0.26265128789E+02 -0.21463159605E+02  0.34670074863E+02  0.25500000000E-02 0.  1.
         -2    1    1    2  502    0 -0.71756444984E+01  0.26265128789E+02 -0.53260561929E+02  0.59816672657E+02  0.25500000000E-02 0.  1.
<mgrwt>
<rscale>  0 0.57828288E+02</rscale>
<asrwt>0</asrwt>
<pdfrwt beam="1">  1        2 0.15202328E-02 0.57828288E+02</pdfrwt>
<pdfrwt beam="2">  1       -2 0.13016189E-01 0.57828288E+02</pdfrwt>
<totfact> 0.25750366E+05</totfact>
</mgrwt>
</event>
<event>
 4    1  0.2196664E-002  0.5119802E+02  0.7818608E-02  0.1438985E+00
          2   -1    0    0    0  501  0.00000000000E+00  0.00000000000E+00  0.15187232981E+04  0.15187232981E+04  0.25500000000E-02 0. -1.
         -2   -1    0    0  501    0 -0.00000000000E+00 -0.00000000000E+00 -0.43148323723E+00  0.43149077222E+00  0.25500000000E-02 0. -1.
          2    1    1    2    0  502  0.21896363721E+02 -0.60695551328E+00  0.11522208024E+04  0.11524289986E+04  0.25500000000E-02 0.  1.
         -2    1    1    2  502    0 -0.21896363721E+02  0.60695551328E+00  0.36607101240E+03  0.36672579029E+03  0.25500000000E-02 0.  1.
<mgrwt>
<rscale>  0 0.51198022E+02</rscale>
<asrwt>0</asrwt>
<pdfrwt beam="1">  1        2 0.23365415E+00 0.51198022E+02</pdfrwt>
<pdfrwt beam="2">  1       -2 0.66381364E-04 0.51198022E+02</pdfrwt>
<totfact> 0.10286388E+06</totfact>
</mgrwt>
</event>
<event>
 4    1  0.2196664E-002  0.4206443E+02  0.7818608E-02  0.1493547E+00
          2   -1    0    0    0  501  0.00000000000E+00  0.00000000000E+00  0.46507338777E+03  0.46507338778E+03  0.25500000000E-02 0. -1.
         -2   -1    0    0  501    0 -0.00000000000E+00 -0.00000000000E+00 -0.95114741271E+00  0.95115083095E+00  0.25500000000E-02 0. -1.
          2    1    1    2    0  502 -0.13586447926E+02  0.15727814191E+02  0.26778657131E+03  0.26859189021E+03  0.25500000000E-02 0.  1.
         -2    1    1    2  502    0  0.13586447926E+02 -0.15727814191E+02  0.19633566905E+03  0.19743264840E+03  0.25500000000E-02 0.  1.
<mgrwt>
<rscale>  0 0.42064434E+02</rscale>
<asrwt>0</asrwt>
<pdfrwt beam="1">  1        2 0.71549731E-01 0.42064434E+02</pdfrwt>
<pdfrwt beam="2">  1       -2 0.14633068E-03 0.42064434E+02</pdfrwt>
<totfact> 0.14992877E+06</totfact>
</mgrwt>
</event>
<event>
 4    1  0.2196664E-002  0.6988945E+02  0.7818608E-02  0.1360469E+00
          2   -1    0    0    0  501  0.00000000000E+00  0.00000000000E+00  0.30384362362E+04  0.30384362362E+04  0.25500000000E-02 0. -1.
         -2   -1    0    0  501    0 -0.00000000000E+00 -0.00000000000E+00 -0.40189139074E+00  0.40189948053E+00  0.25500000000E-02 0. -1.
          2    1    1    2    0  502 -0.21466230539E+02 -0.27408523497E+02  0.13877989723E+04  0.13882355758E+04  0.25500000000E-02 0. -1.
         -2    1    1    2  502    0  0.21466230539E+02  0.27408523497E+02  0.16502353725E+04  0.16506025599E+04  0.25500000000E-02 0. -1.
<mgrwt>
<rscale>  0 0.69889446E+02</rscale>
<asrwt>0</asrwt>
<pdfrwt beam="1">  1        2 0.46742839E+00 0.69889446E+02</pdfrwt>
<pdfrwt beam="2">  1       -2 0.61833154E-04 0.69889446E+02</pdfrwt>
<totfact> 0.19903314E+05</totfact>
</mgrwt>
</event>
<event>
 4    1  0.2196664E-002  0.9584854E+02  0.7818608E-02  0.1289276E+00
         -2   -1    0    0  501    0 -0.00000000000E+00  0.00000000000E+00  0.27205511506E+02  0.27205511625E+02  0.25500000000E-02 0. -1.
          2   -1    0    0    0  501  0.00000000000E+00 -0.00000000000E+00 -0.84421708444E+02  0.84421708483E+02  0.25500000000E-02 0. -1.
          2    1    1    2    0  502 -0.11628969547E+02 -0.35375300454E+02  0.65258527600E+01  0.37805179218E+02  0.25500000000E-02 0.  1.
         -2    1    1    2  502    0  0.11628969547E+02  0.35375300454E+02 -0.63742049699E+02  0.73822040890E+02  0.25500000000E-02 0.  1.
<mgrwt>
<rscale>  0 0.95848542E+02</rscale>
<asrwt>0</asrwt>
<pdfrwt beam="2">  1        2 0.12987955E-01 0.95848542E+02</pdfrwt>
<pdfrwt beam="1">  1       -2 0.41854634E-02 0.95848542E+02</pdfrwt>
<totfact> 0.10149183E+05</totfact>
</mgrwt>
</event>
<event>
 4    1  0.2196664E-002  0.4987562E+02  0.7818608E-02  0.1446014E+00
          2   -1    0    0    0  501  0.00000000000E+00  0.00000000000E+00  0.55039807723E+01  0.55039813630E+01  0.25500000000E-02 0.  1.
         -2   -1    0    0  501    0 -0.00000000000E+00 -0.00000000000E+00 -0.11298990694E+03  0.11298990697E+03  0.25500000000E-02 0.  1.
          2    1    1    2    0  502 -0.43154391016E+01  0.24471856473E+02 -0.58726192501E+02  0.63767236619E+02  0.25500000000E-02 0. -1.
         -2    1    1    2  502    0  0.43154391016E+01 -0.24471856473E+02 -0.48759733666E+02  0.54726651711E+02  0.25500000000E-02 0. -1.
<mgrwt>
<rscale>  0 0.49875618E+02</rscale>
<asrwt>0</asrwt>
<pdfrwt beam="1">  1        2 0.84676640E-03 0.49875618E+02</pdfrwt>
<pdfrwt beam="2">  1       -2 0.17383061E-01 0.49875618E+02</pdfrwt>
<totfact> 0.34391230E+05</totfact>
</mgrwt>
</event>
<event>
 4    1  0.2196664E-002  0.4811130E+02  0.7818608E-02  0.1455803E+00
         -2   -1    0    0  501    0 -0.00000000000E+00  0.00000000000E+00  0.15355699798E+02  0.15355700010E+02  0.25500000000E-02 0.  1.
          2   -1    0    0    0  501  0.00000000000E+00 -0.00000000000E+00 -0.37684661226E+02  0.37684661312E+02  0.25500000000E-02 0.  1.
          2    1    1    2    0  502  0.86328950288E+01  0.20890837132E+02 -0.20921453132E+01  0.22700903753E+02  0.25500000000E-02 0.  1.
         -2    1    1    2  502    0 -0.86328950288E+01 -0.20890837132E+02 -0.20236816114E+02  0.30339457569E+02  0.25500000000E-02 0.  1.
<mgrwt>
<rscale>  0 0.48111302E+02</rscale>
<asrwt>0</asrwt>
<pdfrwt beam="2">  1        2 0.57976402E-02 0.48111302E+02</pdfrwt>
<pdfrwt beam="1">  1       -2 0.23624154E-02 0.48111302E+02</pdfrwt>
<totfact> 0.53858830E+05</totfact>
</mgrwt>
</event>
<event>
 4    1  0.2196664E-002  0.4376005E+02  0.7818608E-02  0.1482234E+00
         -2   -1    0    0  501    0 -0.00000000000E+00  0.00000000000E+00  0.48471780500E+00  0.48472451247E+00  0.25500000000E-02 0.  1.
          2   -1    0    0    0  501  0.00000000000E+00 -0.00000000000E+00 -0.98765140132E+03  0.98765140132E+03  0.25500000000E-02 0.  1.
          2    1    1    2    0  502  0.19003262080E+02  0.98578874545E+01 -0.59565649669E+03  0.59604107574E+03  0.25500000000E-02 0.  1.
         -2    1    1    2  502    0 -0.19003262080E+02 -0.98578874545E+01 -0.39151018683E+03  0.39209505010E+03  0.25500000000E-02 0.  1.
<mgrwt>
<rscale>  0 0.43760052E+02</rscale>
<asrwt>0</asrwt>
<pdfrwt beam="2">  1        2 0.15194476E+00 0.43760052E+02</pdfrwt>
<pdfrwt beam="1">  1       -2 0.74573277E-04 0.43760052E+02</pdfrwt>
<totfact> 0.16036616E+06</totfact>
</mgrwt>
</event>
<event>
 4    1  0.2196664E-002  0.1211761E+03  0.7818608E-02  0.1241169E+00
          2   -1    0    0    0  501  0.00000000000E+00  0.00000000000E+00  0.81240139307E+03  0.81240139307E+03  0.25500000000E-02 0. -1.
         -2   -1    0    0  501    0 -0.00000000000E+00 -0.00000000000E+00 -0.45185924830E+01  0.45185932025E+01  0.25500000000E-02 0. -1.
          2    1    1    2    0  502 -0.57499023927E+02 -0.76941521838E+01  0.52178889500E+03  0.52500379873E+03  0.25500000000E-02 0.  1.
         -2    1    1    2  502    0  0.57499023927E+02  0.76941521838E+01  0.28609390559E+03  0.29191618754E+03  0.25500000000E-02 0.  1.
<mgrwt>
<rscale>  0 0.12117609E+03</rscale>
<asrwt>0</asrwt>
<pdfrwt beam="1">  1        2 0.12498474E+00 0.12117609E+03</pdfrwt>
<pdfrwt beam="2">  1       -2 0.69516860E-03 0.12117609E+03</pdfrwt>
<totfact> 0.11426477E+05</totfact>
</mgrwt>
</event>
<event>
 4    1  0.2196664E-002  0.4975802E+02  0.7818608E-02  0.1446651E+00
          2   -1    0    0    0  501  0.00000000000E+00  0.00000000000E+00  0.23035942393E+03  0.23035942395E+03  0.25500000000E-02 0.  1.
         -2   -1    0    0  501    0 -0.00000000000E+00 -0.00000000000E+00 -0.26869531004E+01  0.26869543104E+01  0.25500000000E-02 0.  1.
          2    1    1    2    0  502  0.20349093603E+02  0.13798196791E+02  0.96008245890E+02  0.99106302174E+02  0.25500000000E-02 0. -1.
         -2    1    1    2  502    0 -0.20349093603E+02 -0.13798196791E+02  0.13166422494E+03  0.13394007608E+03  0.25500000000E-02 0. -1.
<mgrwt>
<rscale>  0 0.49758019E+02</rscale>
<asrwt>0</asrwt>
<pdfrwt beam="1">  1        2 0.35439906E-01 0.49758019E+02</pdfrwt>
<pdfrwt beam="2">  1       -2 0.41337756E-03 0.49758019E+02</pdfrwt>
<totfact> 0.78144141E+05</totfact>
</mgrwt>
</event>
<event>
 4    1  0.2196664E-002  0.4879400E+02  0.7818608E-02  0.1451957E+00
          2   -1    0    0    0  501  0.00000000000E+00  0.00000000000E+00  0.11169289899E+01  0.11169319008E+01  0.25500000000E-02 0.  1.
         -2   -1    0    0  501    0 -0.00000000000E+00 -0.00000000000E+00 -0.53290116672E+03  0.53290116673E+03  0.25500000000E-02 0.  1.
          2    1    1    2    0  502 -0.20607177086E+02  0.92196848501E+01 -0.36712294466E+03  0.36781641459E+03  0.25500000000E-02 0. -1.
         -2    1    1    2  502    0  0.20607177086E+02 -0.92196848501E+01 -0.16466129307E+03  0.16620168404E+03  0.25500000000E-02 0. -1.
<mgrwt>
<rscale>  0 0.48793997E+02</rscale>
<asrwt>0</asrwt>
<pdfrwt beam="1">  1        2 0.17183588E-03 0.48793997E+02</pdfrwt>
<pdfrwt beam="2">  1       -2 0.81984592E-01 0.48793997E+02</pdfrwt>
<totfact> 0.16734529E+05</totfact>
</mgrwt>
</event>
<event>
 4    1  0.2196664E-002  0.5096751E+02  0.7818608E-02  0.1440192E+00
          2   -1    0    0    0  501  0.00000000000E+00  0.00000000000E+00  0.10531336155E+03  0.10531336158E+03  0.25500000000E-02 0. -1.
         -2   -1    0    0  501    0 -0.00000000000E+00 -0.00000000000E+00 -0.61665656471E+01  0.61665661743E+01  0.25500000000E-02 0. -1.
          2    1    1    2    0  502 -0.10364386118E+02  0.21951689714E+02  0.32613260812E+02  0.40656143056E+02  0.25500000000E-02 0.  1.
         -2    1    1    2  502    0  0.10364386118E+02 -0.21951689714E+02  0.66533535093E+02  0.70823784701E+02  0.25500000000E-02 0.  1.
<mgrwt>
<rscale>  0 0.50967511E+02</rscale>
<asrwt>0</asrwt>
<pdfrwt beam="1">  1        2 0.16202054E-01 0.50967511E+02</pdfrwt>
<pdfrwt beam="2">  1       -2 0.94870252E-03 0.50967511E+02</pdfrwt>
<totfact> 0.57820567E+05</totfact>
</mgrwt>
</event>
<event>
 4    1  0.2196664E-002  0.6637781E+02  0.7818608E-02  0.1372862E+00
          2   -1    0    0    0  501  0.00000000000E+00  0.00000000000E+00  0.80334442564E+02  0.80334442604E+02  0.25500000000E-02 0. -1.
         -2   -1    0    0  501    0 -0.00000000000E+00 -0.00000000000E+00 -0.13711472553E+02  0.13711472790E+02  0.25500000000E-02 0. -1.
          2    1    1    2    0  502  0.26241542204E+02 -0.75234006654E+01  0.60054773049E+02  0.65968142821E+02  0.25500000000E-02 0. -1.
         -2    1    1    2  502    0 -0.26241542204E+02  0.75234006654E+01  0.65681969625E+01  0.28077772573E+02  0.25500000000E-02 0. -1.
<mgrwt>
<rscale>  0 0.66377813E+02</rscale>
<asrwt>0</asrwt>
<pdfrwt beam="1">  1        2 0.12359145E-01 0.66377813E+02</pdfrwt>
<pdfrwt beam="2">  1       -2 0.21094574E-02 0.66377813E+02</pdfrwt>
<totfact> 0.27187187E+05</totfact>
</mgrwt>
</event>
<event>
 4    1  0.2196664E-002  0.6082969E+02  0.7818608E-02  0.1394383E+00
         -2   -1    0    0  501    0 -0.00000000000E+00  0.00000000000E+00  0.69876119147E+00  0.69876584433E+00  0.25500000000E-02 0.  1.
          2   -1    0    0    0  501  0.00000000000E+00 -0.00000000000E+00 -0.13238567487E+04  0.13238567487E+04  0.25500000000E-02 0.  1.
          2    1    1    2    0  502  0.46723847071E+01 -0.30009528009E+02 -0.69709161763E+03  0.69775291209E+03  0.25500000000E-02 0.  1.
         -2    1    1    2  502    0 -0.46723847071E+01  0.30009528009E+02 -0.62606636984E+03  0.62680260242E+03  0.25500000000E-02 0.  1.
<mgrwt>
<rscale>  0 0.60829690E+02</rscale>
<asrwt>0</asrwt>
<pdfrwt beam="2">  1        2 0.20366826E+00 0.60829690E+02</pdfrwt>
<pdfrwt beam="1">  1       -2 0.10750314E-03 0.60829690E+02</pdfrwt>
<totfact> 0.69539542E+05</totfact>
</mgrwt>
</event>
<event>
 4    1  0.2196664E-002  0.5040225E+02  0.7818608E-02  0.1443184E+00
          2   -1    0    0    0  501  0.00000000000E+00  0.00000000000E+00  0.88283436825E+03  0.88283436825E+03  0.25500000000E-02 0.  1.
         -2   -1    0    0  501    0 -0.00000000000E+00 -0.00000000000E+00 -0.71938140957E+00  0.71938592906E+00  0.25500000000E-02 0.  1.
          2    1    1    2    0  502  0.93972387343E+01  0.22936788165E+02  0.36131547643E+03  0.36216471095E+03  0.25500000000E-02 0.  1.
         -2    1    1    2  502    0 -0.93972387343E+01 -0.22936788165E+02  0.52079951041E+03  0.52138904323E+03  0.25500000000E-02 0.  1.
<mgrwt>
<rscale>  0 0.50402247E+02</rscale>
<asrwt>0</asrwt>
<pdfrwt beam="1">  1        2 0.13582049E+00 0.50402247E+02</pdfrwt>
<pdfrwt beam="2">  1       -2 0.11067456E-03 0.50402247E+02</pdfrwt>
<totfact> 0.11234826E+06</totfact>
</mgrwt>
</event>
<event>
 4    1  0.2196664E-002  0.4697985E+02  0.7818608E-02  0.1462347E+00
         -2   -1    0    0  501    0 -0.00000000000E+00  0.00000000000E+00  0.83034679798E+00  0.83035071350E+00  0.25500000000E-02 0. -1.
          2   -1    0    0    0  501  0.00000000000E+00 -0.00000000000E+00 -0.66451191654E+03  0.66451191655E+03  0.25500000000E-02 0. -1.
          2    1    1    2    0  502  0.56150137423E-01  0.20587688868E+02 -0.17166250468E+03  0.17289265920E+03  0.25500000000E-02 0. -1.
         -2    1    1    2  502    0 -0.56150137423E-01 -0.20587688868E+02 -0.49201906507E+03  0.49244960806E+03  0.25500000000E-02 0. -1.
<mgrwt>
<rscale>  0 0.46979853E+02</rscale>
<asrwt>0</asrwt>
<pdfrwt beam="2">  1        2 0.10223218E+00 0.46979853E+02</pdfrwt>
<pdfrwt beam="1">  1       -2 0.12774649E-03 0.46979853E+02</pdfrwt>
<totfact> 0.12672421E+06</totfact>
</mgrwt>
</event>
<event>
 4    1  0.2196664E-002  0.5423561E+02  0.7818608E-02  0.1423749E+00
         -2   -1    0    0  501    0 -0.00000000000E+00  0.00000000000E+00  0.61270826147E+03  0.61270826147E+03  0.25500000000E-02 0. -1.
          2   -1    0    0    0  501  0.00000000000E+00 -0.00000000000E+00 -0.12002034315E+01  0.12002061404E+01  0.25500000000E-02 0. -1.
          2    1    1    2    0  502  0.22739938146E+02  0.13965995131E+02  0.25120777349E+03  0.25262125658E+03  0.25500000000E-02 0.  1.
         -2    1    1    2  502    0 -0.22739938146E+02 -0.13965995131E+02  0.36030028454E+03  0.36128721103E+03  0.25500000000E-02 0.  1.
<mgrwt>
<rscale>  0 0.54235612E+02</rscale>
<asrwt>0</asrwt>
<pdfrwt beam="2">  1        2 0.18464707E-03 0.54235612E+02</pdfrwt>
<pdfrwt beam="1">  1       -2 0.94262716E-01 0.54235612E+02</pdfrwt>
<totfact> 0.11473296E+05</totfact>
</mgrwt>
</event>
<event>
 4    1  0.2196664E-002  0.5409802E+02  0.7818608E-02  0.1424413E+00
         -2   -1    0    0  501    0 -0.00000000000E+00  0.00000000000E+00  0.38755714112E+03  0.38755714113E+03  0.25500000000E-02 0.  1.
          2   -1    0    0    0  501  0.00000000000E+00 -0.00000000000E+00 -0.18878471181E+01  0.18878488403E+01  0.25500000000E-02 0.  1.
          2    1    1    2    0  502 -0.35541051306E+01  0.23934268084E+02  0.10580022300E+03  0.10853187571E+03  0.25500000000E-02 0. -1.
         -2    1    1    2  502    0  0.35541051306E+01 -0.23934268084E+02  0.27986907100E+03  0.28091311426E+03  0.25500000000E-02 0. -1.
<mgrwt>
<rscale>  0 0.54098021E+02</rscale>
<asrwt>0</asrwt>
<pdfrwt beam="2">  1        2 0.29043834E-03 0.54098021E+02</pdfrwt>
<pdfrwt beam="1">  1       -2 0.59624137E-01 0.54098021E+02</pdfrwt>
<totfact> 0.16380504E+05</totfact>
</mgrwt>
</event>
<event>
 4    1  0.2196664E-002  0.7138563E+02  0.7818608E-02  0.1355444E+00
         -2   -1    0    0  501    0 -0.00000000000E+00  0.00000000000E+00  0.55427554179E+01  0.55427560045E+01  0.25500000000E-02 0. -1.
          2   -1    0    0    0  501  0.00000000000E+00 -0.00000000000E+00 -0.22984540333E+03  0.22984540334E+03  0.25500000000E-02 0. -1.
          2    1    1    2    0  502 -0.17651449531E+02  0.15458646165E+02 -0.23461632056E+02  0.33181193424E+02  0.25500000000E-02 0. -1.
         -2    1    1    2  502    0  0.17651449531E+02 -0.15458646165E+02 -0.20084101585E+03  0.20220696592E+03  0.25500000000E-02 0. -1.
<mgrwt>
<rscale>  0 0.71385627E+02</rscale>
<asrwt>0</asrwt>
<pdfrwt beam="2">  1        2 0.35360824E-01 0.71385627E+02</pdfrwt>
<pdfrwt beam="1">  1       -2 0.85273183E-03 0.71385627E+02</pdfrwt>
<totfact> 0.31082280E+05</totfact>
</mgrwt>
</event>
<event>
 4    1  0.2196664E-002  0.5436704E+02  0.7818608E-02  0.1423116E+00
         -2   -1    0    0  501    0 -0.00000000000E+00  0.00000000000E+00  0.38288162638E+01  0.38288171130E+01  0.25500000000E-02 0.  1.
          2   -1    0    0    0  501  0.00000000000E+00 -0.00000000000E+00 -0.19299533770E+03  0.19299533771E+03  0.25500000000E-02 0.  1.
          2    1    1    2    0  502  0.23122367944E+02 -0.70864433321E+00 -0.42900901333E+02  0.48740470020E+02  0.25500000000E-02 0.  1.
         -2    1    1    2  502    0 -0.23122367944E+02  0.70864433321E+00 -0.14626562010E+03  0.14808368481E+03  0.25500000000E-02 0.  1.
<mgrwt>
<rscale>  0 0.54367040E+02</rscale>
<asrwt>0</asrwt>
<pdfrwt beam="2">  1        2 0.29691583E-01 0.54367040E+02</pdfrwt>
<pdfrwt beam="1">  1       -2 0.58904887E-03 0.54367040E+02</pdfrwt>
<totfact> 0.58923241E+05</totfact>
</mgrwt>
</event>
<event>
 4    1  0.2196664E-002  0.6391284E+02  0.7818608E-02  0.1382108E+00
         -2   -1    0    0  501    0 -0.00000000000E+00  0.00000000000E+00  0.24025377863E+01  0.24025391396E+01  0.25500000000E-02 0.  1.
          2   -1    0    0    0  501  0.00000000000E+00 -0.00000000000E+00 -0.42505580611E+03  0.42505580612E+03  0.25500000000E-02 0.  1.
          2    1    1    2    0  502  0.23834469975E+02 -0.75357890551E+01 -0.34447663197E+03  0.34538242581E+03  0.25500000000E-02 0. -1.
         -2    1    1    2  502    0 -0.23834469975E+02  0.75357890551E+01 -0.78176636348E+02  0.82075919445E+02  0.25500000000E-02 0. -1.
<mgrwt>
<rscale>  0 0.63912845E+02</rscale>
<asrwt>0</asrwt>
<pdfrwt beam="2">  1        2 0.65393141E-01 0.63912845E+02</pdfrwt>
<pdfrwt beam="1">  1       -2 0.36962164E-03 0.63912845E+02</pdfrwt>
<totfact> 0.51410354E+05</totfact>
</mgrwt>
</event>
<event>
 4    1  0.2196664E-002  0.7652361E+02  0.7818608E-02  0.1339217E+00
          2   -1    0    0    0  501  0.00000000000E+00  0.00000000000E+00  0.77890623376E+03  0.77890623376E+03  0.25500000000E-02 0.  1.
         -2   -1    0    0  501    0 -0.00000000000E+00 -0.00000000000E+00 -0.18795139332E+01  0.18795156630E+01  0.25500000000E-02 0.  1.
          2    1    1    2    0  502  0.32167468232E+02 -0.17420800658E+02  0.50292371725E+03  0.50425241268E+03  0.25500000000E-02 0. -1.
         -2    1    1    2  502    0 -0.32167468232E+02  0.17420800658E+02  0.27410300257E+03  0.27653333675E+03  0.25500000000E-02 0. -1.
<mgrwt>
<rscale>  0 0.76523612E+02</rscale>
<asrwt>0</asrwt>
<pdfrwt beam="1">  1        2 0.11983152E+00 0.76523612E+02</pdfrwt>
<pdfrwt beam="2">  1       -2 0.28915664E-03 0.76523612E+02</pdfrwt>
<totfact> 0.38333133E+05</totfact>
</mgrwt>
</event>
<event>
 4    1  0.2196664E-002  0.5418790E+02  0.7818608E-02  0.1423979E+00
          2   -1    0    0    0  501  0.00000000000E+00  0.00000000000E+00  0.17872045591E+03  0.17872045593E+03  0.25500000000E-02 0. -1.
         -2   -1    0    0  501    0 -0.00000000000E+00 -0.00000000000E+00 -0.41074322731E+01  0.41074330647E+01  0.25500000000E-02 0. -1.
          2    1    1    2    0  502 -0.20794203126E+02 -0.73054258770E+01  0.14047334399E+03  0.14219187217E+03  0.25500000000E-02 0.  1.
         -2    1    1    2  502    0  0.20794203126E+02  0.73054258770E+01  0.34139679644E+02  0.40636016828E+02  0.25500000000E-02 0.  1.
<mgrwt>
<rscale>  0 0.54187904E+02</rscale>
<asrwt>0</asrwt>
<pdfrwt beam="1">  1        2 0.27495450E-01 0.54187904E+02</pdfrwt>
<pdfrwt beam="2">  1       -2 0.63191283E-03 0.54187904E+02</pdfrwt>
<totfact> 0.57932182E+05</totfact>
</mgrwt>
</event>
<event>
 4    1  0.2196664E-002  0.5600609E+02  0.7818608E-02  0.1415400E+00
          2   -1    0    0    0  501  0.00000000000E+00  0.00000000000E+00  0.11704822749E+03  0.11704822751E+03  0.25500000000E-02 0.  1.
         -2   -1    0    0  501    0 -0.00000000000E+00 -0.00000000000E+00 -0.66995498330E+01  0.66995503183E+01  0.25500000000E-02 0.  1.
          2    1    1    2    0  502  0.21406585018E+02 -0.10033542515E+02  0.22012321965E+02  0.32302572379E+02  0.25500000000E-02 0.  1.
         -2    1    1    2  502    0 -0.21406585018E+02  0.10033542515E+02  0.88336355688E+02  0.91445205453E+02  0.25500000000E-02 0.  1.
<mgrwt>
<rscale>  0 0.56006088E+02</rscale>
<asrwt>0</asrwt>
<pdfrwt beam="1">  1        2 0.18007420E-01 0.56006088E+02</pdfrwt>
<pdfrwt beam="2">  1       -2 0.10307000E-02 0.56006088E+02</pdfrwt>
<totfact> 0.46802768E+05</totfact>
</mgrwt>
</event>
<event>
 4    1  0.2196664E-002  0.5236504E+02  0.7818608E-02  0.1432987E+00
         -2   -1    0    0  501    0 -0.00000000000E+00  0.00000000000E+00  0.48514908026E+00  0.48515578176E+00  0.25500000000E-02 0.  1.
          2   -1    0    0    0  501  0.00000000000E+00 -0.00000000000E+00 -0.14130080231E+04  0.14130080231E+04  0.25500000000E-02 0.  1.
          2    1    1    2    0  502 -0.21409064553E+02 -0.14643017274E+02 -0.80267724995E+03  0.80309621690E+03  0.25500000000E-02 0.  1.
         -2    1    1    2  502    0  0.21409064553E+02  0.14643017274E+02 -0.60984562403E+03  0.61039696195E+03  0.25500000000E-02 0.  1.
<mgrwt>
<rscale>  0 0.52365037E+02</rscale>
<asrwt>0</asrwt>
<pdfrwt beam="2">  1        2 0.21738256E+00 0.52365037E+02</pdfrwt>
<pdfrwt beam="1">  1       -2 0.74639967E-04 0.52365037E+02</pdfrwt>
<totfact> 0.99614595E+05</totfact>
</mgrwt>
</event>
<event>
 4    1  0.2196664E-002  0.6797667E+02  0.7818608E-02  0.1367112E+00
         -2   -1    0    0  501    0 -0.00000000000E+00  0.00000000000E+00  0.35384594902E+01  0.35384604090E+01  0.25500000000E-02 0. -1.
          2   -1    0    0    0  501  0.00000000000E+00 -0.00000000000E+00 -0.32647163082E+03  0.32647163083E+03  0.25500000000E-02 0. -1.
          2    1    1    2    0  502 -0.22832876590E+02 -0.23184894533E+02 -0.11381889858E+03  0.11837914203E+03  0.25500000000E-02 0. -1.
         -2    1    1    2  502    0  0.22832876590E+02  0.23184894533E+02 -0.20911427276E+03  0.21163094921E+03  0.25500000000E-02 0. -1.
<mgrwt>
<rscale>  0 0.67976666E+02</rscale>
<asrwt>0</asrwt>
<pdfrwt beam="2">  1        2 0.50226381E-01 0.67976666E+02</pdfrwt>
<pdfrwt beam="1">  1       -2 0.54437871E-03 0.67976666E+02</pdfrwt>
<totfact> 0.40019158E+05</totfact>
</mgrwt>
</event>
<event>
 4    1  0.2196664E-002  0.1810057E+03  0.7818608E-02  0.1166833E+00
         -2   -1    0    0  501    0 -0.00000000000E+00  0.00000000000E+00  0.26949372461E+03  0.26949372462E+03  0.25500000000E-02 0. -1.
          2   -1    0    0    0  501  0.00000000000E+00 -0.00000000000E+00 -0.30393173453E+02  0.30393173560E+02  0.25500000000E-02 0. -1.
          2    1    1    2    0  502 -0.29167462784E+02 -0.65310256028E+02  0.27683305838E+02  0.76697691336E+02  0.25500000000E-02 0. -1.
         -2    1    1    2  502    0  0.29167462784E+02  0.65310256028E+02  0.21141724532E+03  0.22318920684E+03  0.25500000000E-02 0. -1.
<mgrwt>
<rscale>  0 0.18100574E+03</rscale>
<asrwt>0</asrwt>
<pdfrwt beam="2">  1        2 0.46758727E-02 0.18100574E+03</pdfrwt>
<pdfrwt beam="1">  1       -2 0.41460575E-01 0.18100574E+03</pdfrwt>
<totfact> 0.91971427E+03</totfact>
</mgrwt>
</event>
<event>
 4    1  0.2196664E-002  0.6882584E+02  0.7818608E-02  0.1364132E+00
         -2   -1    0    0  501    0 -0.00000000000E+00  0.00000000000E+00  0.35850180790E+02  0.35850180881E+02  0.25500000000E-02 0. -1.
          2   -1    0    0    0  501  0.00000000000E+00 -0.00000000000E+00 -0.33033278412E+02  0.33033278510E+02  0.25500000000E-02 0. -1.
          2    1    1    2    0  502  0.25309388456E+02  0.90647980117E+01 -0.20092394765E+02  0.33562479660E+02  0.25500000000E-02 0.  1.
         -2    1    1    2  502    0 -0.25309388456E+02 -0.90647980117E+01  0.22909297144E+02  0.35320979731E+02  0.25500000000E-02 0.  1.
<mgrwt>
<rscale>  0 0.68825838E+02</rscale>
<asrwt>0</asrwt>
<pdfrwt beam="2">  1        2 0.50820429E-02 0.68825838E+02</pdfrwt>
<pdfrwt beam="1">  1       -2 0.55154124E-02 0.68825838E+02</pdfrwt>
<totfact> 0.20223988E+05</totfact>
</mgrwt>
</event>
<event>
 4    1  0.2196664E-002  0.5308059E+02  0.7818608E-02  0.1429400E+00
         -2   -1    0    0  501    0 -0.00000000000E+00  0.00000000000E+00  0.22071178600E+02  0.22071178747E+02  0.25500000000E-02 0.  1.
          2   -1    0    0    0  501  0.00000000000E+00 -0.00000000000E+00 -0.31914343030E+02  0.31914343132E+02  0.25500000000E-02 0.  1.
          2    1    1    2    0  502 -0.21851476102E+02  0.77079975400E+01  0.82407258728E+01  0.24592881152E+02  0.25500000000E-02 0.  1.
         -2    1    1    2  502    0  0.21851476102E+02 -0.77079975400E+01 -0.18083890303E+02  0.29392640728E+02  0.25500000000E-02 0.  1.
<mgrwt>
<rscale>  0 0.53080587E+02</rscale>
<asrwt>0</asrwt>
<pdfrwt beam="2">  1        2 0.49098990E-02 0.53080587E+02</pdfrwt>
<pdfrwt beam="1">  1       -2 0.33955659E-02 0.53080587E+02</pdfrwt>
<totfact> 0.40531009E+05</totfact>
</mgrwt>
</event>
<event>
 4    1  0.2196664E-002  0.4807078E+02  0.7818608E-02  0.1456034E+00
          2   -1    0    0    0  501  0.00000000000E+00  0.00000000000E+00  0.22764774525E+04  0.22764774525E+04  0.25500000000E-02 0. -1.
         -2   -1    0    0  501    0 -0.00000000000E+00 -0.00000000000E+00 -0.25376289371E+00  0.25377570554E+00  0.25500000000E-02 0. -1.
          2    1    1    2    0  502  0.77767971641E+01 -0.21380098358E+02  0.77090192006E+03  0.77123754936E+03  0.25500000000E-02 0. -1.
         -2    1    1    2  502    0 -0.77767971641E+01  0.21380098358E+02  0.15053217696E+04  0.15054936789E+04  0.25500000000E-02 0. -1.
<mgrwt>
<rscale>  0 0.48070785E+02</rscale>
<asrwt>0</asrwt>
<pdfrwt beam="1">  1        2 0.35023543E+00 0.48070785E+02</pdfrwt>
<pdfrwt beam="2">  1       -2 0.39040524E-04 0.48070785E+02</pdfrwt>
<totfact> 0.88411703E+05</totfact>
</mgrwt>
</event>
<event>
 4    1  0.2196664E-002  0.6854007E+02  0.7818608E-02  0.1365129E+00
          2   -1    0    0    0  501  0.00000000000E+00  0.00000000000E+00  0.84347523040E+01  0.84347526894E+01  0.25500000000E-02 0. -1.
         -2   -1    0    0  501    0 -0.00000000000E+00 -0.00000000000E+00 -0.13923767715E+03  0.13923767717E+03  0.25500000000E-02 0. -1.
          2    1    1    2    0  502  0.30603389402E+02 -0.12735282884E+02 -0.84144793426E+02  0.90438383114E+02  0.25500000000E-02 0. -1.
         -2    1    1    2  502    0 -0.30603389402E+02  0.12735282884E+02 -0.46658131416E+02  0.57234046745E+02  0.25500000000E-02 0. -1.
<mgrwt>
<rscale>  0 0.68540071E+02</rscale>
<asrwt>0</asrwt>
<pdfrwt beam="1">  1        2 0.12976543E-02 0.68540071E+02</pdfrwt>
<pdfrwt beam="2">  1       -2 0.21421179E-01 0.68540071E+02</pdfrwt>
<totfact> 0.14707704E+05</totfact>
</mgrwt>
</event>
<event>
 4    1  0.2196664E-002  0.4292812E+02  0.7818608E-02  0.1487707E+00
         -2   -1    0    0  501    0 -0.00000000000E+00  0.00000000000E+00  0.39245808517E+01  0.39245816801E+01  0.25500000000E-02 0. -1.
          2   -1    0    0    0  501  0.00000000000E+00 -0.00000000000E+00 -0.11738981355E+03  0.11738981358E+03  0.25500000000E-02 0. -1.
          2    1    1    2    0  502 -0.21368410150E+02  0.19949019500E+01 -0.57700383426E+02  0.61562349209E+02  0.25500000000E-02 0.  1.
         -2    1    1    2  502    0  0.21368410150E+02 -0.19949019500E+01 -0.55764849271E+02  0.59752046047E+02  0.25500000000E-02 0.  1.
<mgrwt>
<rscale>  0 0.42928120E+02</rscale>
<asrwt>0</asrwt>
<pdfrwt beam="2">  1        2 0.18059969E-01 0.42928120E+02</pdfrwt>
<pdfrwt beam="1">  1       -2 0.60378183E-03 0.42928120E+02</pdfrwt>
<totfact> 0.91536562E+05</totfact>
</mgrwt>
</event>
<event>
 4    1  0.2196664E-002  0.6049838E+02  0.7818608E-02  0.1395752E+00
          2   -1    0    0    0  501  0.00000000000E+00  0.00000000000E+00  0.18976300470E+03  0.18976300472E+03  0.25500000000E-02 0. -1.
         -2   -1    0    0  501    0 -0.00000000000E+00 -0.00000000000E+00 -0.48218742489E+01  0.48218749231E+01  0.25500000000E-02 0. -1.
          2    1    1    2    0  502  0.22096044841E+02  0.95606270221E+01  0.15137244650E+03  0.15327510676E+03  0.25500000000E-02 0. -1.
         -2    1    1    2  502    0 -0.22096044841E+02 -0.95606270221E+01  0.33568683954E+02  0.41309772882E+02  0.25500000000E-02 0. -1.
<mgrwt>
<rscale>  0 0.60498377E+02</rscale>
<asrwt>0</asrwt>
<pdfrwt beam="1">  1        2 0.29194313E-01 0.60498377E+02</pdfrwt>
<pdfrwt beam="2">  1       -2 0.74182673E-03 0.60498377E+02</pdfrwt>
<totfact> 0.44627365E+05</totfact>
</mgrwt>
</event>
<event>
 4    1  0.2196664E-002  0.4909312E+02  0.7818608E-02  0.1450295E+00
         -2   -1    0    0  501    0 -0.00000000000E+00  0.00000000000E+00  0.43564381743E+03  0.43564381744E+03  0.25500000000E-02 0.  1.
          2   -1    0    0    0  501  0.00000000000E+00 -0.00000000000E+00 -0.13830864820E+01  0.13830888328E+01  0.25500000000E-02 0.  1.
          2    1    1    2    0  502 -0.76291594064E+01 -0.22943455062E+02  0.17943864481E+03  0.18106030339E+03  0.25500000000E-02 0.  1.
         -2    1    1    2  502    0  0.76291594064E+01  0.22943455062E+02  0.25482208614E+03  0.25596660288E+03  0.25500000000E-02 0.  1.
<mgrwt>
<rscale>  0 0.49093119E+02</rscale>
<asrwt>0</asrwt>
<pdfrwt beam="2">  1        2 0.21278230E-03 0.49093119E+02</pdfrwt>
<pdfrwt beam="1">  1       -2 0.67022257E-01 0.49093119E+02</pdfrwt>
<totfact> 0.19210640E+05</totfact>
</mgrwt>
</event>
<event>
 4    1  0.2196664E-002  0.4911437E+02  0.7818608E-02  0.1450178E+00
         -2   -1    0    0  501    0 -0.00000000000E+00  0.00000000000E+00  0.48827225597E+01  0.48827232256E+01  0.25500000000E-02 0. -1.
          2   -1    0    0    0  501  0.00000000000E+00 -0.00000000000E+00 -0.12350798714E+03  0.12350798716E+03  0.25500000000E-02 0. -1.
          2    1    1    2    0  502  0.18442124034E+02 -0.10225123055E+02 -0.92212123960E+02  0.94592499132E+02  0.25500000000E-02 0. -1.
         -2    1    1    2  502    0 -0.18442124034E+02  0.10225123055E+02 -0.26413140618E+02  0.33798211257E+02  0.25500000000E-02 0. -1.
<mgrwt>
<rscale>  0 0.49114368E+02</rscale>
<asrwt>0</asrwt>
<pdfrwt beam="2">  1        2 0.19001226E-01 0.49114368E+02</pdfrwt>
<pdfrwt beam="1">  1       -2 0.75118823E-03 0.49114368E+02</pdfrwt>
<totfact> 0.66333697E+05</totfact>
</mgrwt>
</event>
<event>
 4    1  0.2196664E-002  0.8679123E+02  0.7818608E-02  0.1310814E+00
          2   -1    0    0    0  501  0.00000000000E+00  0.00000000000E+00  0.10809306275E+04  0.10809306275E+04  0.25500000000E-02 0. -1.
         -2   -1    0    0  501    0 -0.00000000000E+00 -0.00000000000E+00 -0.17421825933E+01  0.17421844595E+01  0.25500000000E-02 0. -1.
          2    1    1    2    0  502  0.39213775907E+02 -0.12985817310E+02  0.70547524899E+03  0.70668357744E+03  0.25500000000E-02 0. -1.
         -2    1    1    2  502    0 -0.39213775907E+02  0.12985817310E+02  0.37371319595E+03  0.37598923456E+03  0.25500000000E-02 0. -1.
<mgrwt>
<rscale>  0 0.86791233E+02</rscale>
<asrwt>0</asrwt>
<pdfrwt beam="1">  1        2 0.16629693E+00 0.86791233E+02</pdfrwt>
<pdfrwt beam="2">  1       -2 0.26802839E-03 0.86791233E+02</pdfrwt>
<totfact> 0.28488829E+05</totfact>
</mgrwt>
</event>
<event>
 4    1  0.2196664E-002  0.6015139E+02  0.7818608E-02  0.1397198E+00
         -2   -1    0    0  501    0 -0.00000000000E+00  0.00000000000E+00  0.14568295208E+01  0.14568317525E+01  0.25500000000E-02 0. -1.
          2   -1    0    0    0  501  0.00000000000E+00 -0.00000000000E+00 -0.62090082963E+03  0.62090082964E+03  0.25500000000E-02 0. -1.
          2    1    1    2    0  502 -0.11749840967E+02 -0.27310374594E+02 -0.26272552203E+03  0.26440237377E+03  0.25500000000E-02 0. -1.
         -2    1    1    2  502    0  0.11749840967E+02  0.27310374594E+02 -0.35671847808E+03  0.35795528762E+03  0.25500000000E-02 0. -1.
<mgrwt>
<rscale>  0 0.60151387E+02</rscale>
<asrwt>0</asrwt>
<pdfrwt beam="2">  1        2 0.95522994E-01 0.60151387E+02</pdfrwt>
<pdfrwt beam="1">  1       -2 0.22412829E-03 0.60151387E+02</pdfrwt>
<totfact> 0.67361722E+05</totfact>
</mgrwt>
</event>
<event>
 4    1  0.2196664E-002  0.5489144E+02  0.7818608E-02  0.1420613E+00
          2   -1    0    0    0  501  0.00000000000E+00  0.00000000000E+00  0.51104686149E+01  0.51104692511E+01  0.25500000000E-02 0.  1.
         -2   -1    0    0  501    0 -0.00000000000E+00 -0.00000000000E+00 -0.14739695928E+03  0.14739695931E+03  0.25500000000E-02 0.  1.
          2    1    1    2    0  502  0.11009974446E+02 -0.18195558015E+02 -0.22943165477E+02  0.31283969016E+02  0.25500000000E-02 0. -1.
         -2    1    1    2  502    0 -0.11009974446E+02  0.18195558015E+02 -0.11934332519E+03  0.12122345954E+03  0.25500000000E-02 0. -1.
<mgrwt>
<rscale>  0 0.54891441E+02</rscale>
<asrwt>0</asrwt>
<pdfrwt beam="1">  1        2 0.78622610E-03 0.54891441E+02</pdfrwt>
<pdfrwt beam="2">  1       -2 0.22676452E-01 0.54891441E+02</pdfrwt>
<totfact> 0.25078843E+05</totfact>
</mgrwt>
</event>
<event>
 4    1  0.2196664E-002  0.4524360E+02  0.7818608E-02  0.1472827E+00
         -2   -1    0    0  501    0 -0.00000000000E+00  0.00000000000E+00  0.11793822770E+01  0.11793850337E+01  0.25500000000E-02 0. -1.
          2   -1    0    0    0  501  0.00000000000E+00 -0.00000000000E+00 -0.43390947433E+03  0.43390947434E+03  0.25500000000E-02 0. -1.
          2    1    1    2    0  502  0.26226810633E+01 -0.22459984186E+02 -0.21015960577E+03  0.21137263127E+03  0.25500000000E-02 0. -1.
         -2    1    1    2  502    0 -0.26226810633E+01  0.22459984186E+02 -0.22257048628E+03  0.22371622810E+03  0.25500000000E-02 0. -1.
<mgrwt>
<rscale>  0 0.45243596E+02</rscale>
<asrwt>0</asrwt>
<pdfrwt beam="2">  1        2 0.66755177E-01 0.45243596E+02</pdfrwt>
<pdfrwt beam="1">  1       -2 0.18144399E-03 0.45243596E+02</pdfrwt>
<totfact> 0.12278380E+06</totfact>
</mgrwt>
</event>
<event>
 4    1  0.2196664E-002  0.6485025E+02  0.7818608E-02  0.1378536E+00
         -2   -1    0    0  501    0 -0.00000000000E+00  0.00000000000E+00  0.51849756082E+00  0.51850383131E+00  0.25500000000E-02 0.  1.
          2   -1    0    0    0  501  0.00000000000E+00 -0.00000000000E+00 -0.20277481698E+04  0.20277481698E+04  0.25500000000E-02 0.  1.
          2    1    1    2    0  502 -0.25708566055E+02  0.10821100967E+02 -0.49650518962E+03  0.49728807539E+03  0.25500000000E-02 0.  1.
         -2    1    1    2  502    0  0.25708566055E+02 -0.10821100967E+02 -0.15307244826E+04  0.15309785982E+04  0.25500000000E-02 0.  1.
<mgrwt>
<rscale>  0 0.64850253E+02</rscale>
<asrwt>0</asrwt>
<pdfrwt beam="2">  1        2 0.31195491E+00 0.64850253E+02</pdfrwt>
<pdfrwt beam="1">  1       -2 0.79770962E-04 0.64850253E+02</pdfrwt>
<totfact> 0.47124352E+05</totfact>
</mgrwt>
</event>
<event>
 4    1  0.2196664E-002  0.6300818E+02  0.7818608E-02  0.1385624E+00
          2   -1    0    0    0  501  0.00000000000E+00  0.00000000000E+00  0.44184178317E+03  0.44184178318E+03  0.25500000000E-02 0. -1.
         -2   -1    0    0  501    0 -0.00000000000E+00 -0.00000000000E+00 -0.22462959871E+01  0.22462974344E+01  0.25500000000E-02 0. -1.
          2    1    1    2    0  502 -0.10007802366E+02 -0.24210674459E+02  0.96467063310E+02  0.99961028287E+02  0.25500000000E-02 0. -1.
         -2    1    1    2  502    0  0.10007802366E+02  0.24210674459E+02  0.34312842388E+03  0.34412705233E+03  0.25500000000E-02 0. -1.
<mgrwt>
<rscale>  0 0.63008182E+02</rscale>
<asrwt>0</asrwt>
<pdfrwt beam="1">  1        2 0.67975606E-01 0.63008182E+02</pdfrwt>
<pdfrwt beam="2">  1       -2 0.34558438E-03 0.63008182E+02</pdfrwt>
<totfact> 0.54012448E+05</totfact>
</mgrwt>
</event>
<event>
 4    1  0.2196664E-002  0.9398761E+02  0.7818608E-02  0.1293473E+00
          2   -1    0    0    0  501  0.00000000000E+00  0.00000000000E+00  0.22877455322E+03  0.22877455323E+03  0.25500000000E-02 0.  1.
         -2   -1    0    0  501    0 -0.00000000000E+00 -0.00000000000E+00 -0.96532485990E+01  0.96532489358E+01  0.25500000000E-02 0.  1.
          2    1    1    2    0  502 -0.10886870576E+02 -0.37419634117E+02  0.17618075410E+03  0.18043949426E+03  0.25500000000E-02 0. -1.
         -2    1    1    2  502    0  0.10886870576E+02  0.37419634117E+02  0.42940550523E+02  0.57988307908E+02  0.25500000000E-02 0. -1.
<mgrwt>
<rscale>  0 0.93987609E+02</rscale>
<asrwt>0</asrwt>
<pdfrwt beam="1">  1        2 0.35196081E-01 0.93987609E+02</pdfrwt>
<pdfrwt beam="2">  1       -2 0.14851154E-02 0.93987609E+02</pdfrwt>
<totfact> 0.14971288E+05</totfact>
</mgrwt>
</event>
<event>
 4    1  0.2196664E-002  0.5625232E+02  0.7818608E-02  0.1414268E+00
          2   -1    0    0    0  501  0.00000000000E+00  0.00000000000E+00  0.13360937223E+02  0.13360937467E+02  0.25500000000E-02 0. -1.
         -2   -1    0    0  501    0 -0.00000000000E+00 -0.00000000000E+00 -0.59208493318E+02  0.59208493373E+02  0.25500000000E-02 0. -1.
          2    1    1    2    0  502  0.12449202333E+02 -0.24739975447E+02 -0.29248008579E+02  0.40280206506E+02  0.25500000000E-02 0.  1.
         -2    1    1    2  502    0 -0.12449202333E+02  0.24739975447E+02 -0.16599547515E+02  0.32289224333E+02  0.25500000000E-02 0.  1.
<mgrwt>
<rscale>  0 0.56252323E+02</rscale>
<asrwt>0</asrwt>
<pdfrwt beam="1">  1        2 0.20555289E-02 0.56252323E+02</pdfrwt>
<pdfrwt beam="2">  1       -2 0.91089989E-02 0.56252323E+02</pdfrwt>
<totfact> 0.29736400E+05</totfact>
</mgrwt>
</event>
<event>
 4    1  0.2196664E-002  0.4191123E+02  0.7818608E-02  0.1494600E+00
          2   -1    0    0    0  501  0.00000000000E+00  0.00000000000E+00  0.99651114524E+03  0.99651114524E+03  0.25500000000E-02 0.  1.
         -2   -1    0    0  501    0 -0.00000000000E+00 -0.00000000000E+00 -0.44067150098E+00  0.44067887886E+00  0.25500000000E-02 0.  1.
          2    1    1    2    0  502  0.18499699926E+02 -0.86340226938E+01  0.61049748127E+03  0.61083873476E+03  0.25500000000E-02 0.  1.
         -2    1    1    2  502    0 -0.18499699926E+02  0.86340226938E+01  0.38557299247E+03  0.38611308936E+03  0.25500000000E-02 0.  1.
<mgrwt>
<rscale>  0 0.41911227E+02</rscale>
<asrwt>0</asrwt>
<pdfrwt beam="1">  1        2 0.15330951E+00 0.41911227E+02</pdfrwt>
<pdfrwt beam="2">  1       -2 0.67796137E-04 0.41911227E+02</pdfrwt>
<totfact> 0.17813639E+06</totfact>
</mgrwt>
</event>
<event>
 4    1  0.2196664E-002  0.8195757E+02  0.7818608E-02  0.1323586E+00
          2   -1    0    0    0  501  0.00000000000E+00  0.00000000000E+00  0.76485820977E+03  0.76485820977E+03  0.25500000000E-02 0. -1.
         -2   -1    0    0  501    0 -0.00000000000E+00 -0.00000000000E+00 -0.21955186292E+01  0.21955201100E+01  0.25500000000E-02 0. -1.
          2    1    1    2    0  502 -0.10308664234E+02  0.36984036026E+02  0.51539077136E+03  0.51681886062E+03  0.25500000000E-02 0.  1.
         -2    1    1    2  502    0  0.10308664234E+02 -0.36984036026E+02  0.24727191978E+03  0.25023486927E+03  0.25500000000E-02 0.  1.
<mgrwt>
<rscale>  0 0.81957575E+02</rscale>
<asrwt>0</asrwt>
<pdfrwt beam="1">  1        2 0.11767056E+00 0.81957575E+02</pdfrwt>
<pdfrwt beam="2">  1       -2 0.33777201E-03 0.81957575E+02</pdfrwt>
<totfact> 0.31963966E+05</totfact>
</mgrwt>
</event>
<event>
 4    1  0.2196664E-002  0.5561078E+02  0.7818608E-02  0.1417232E+00
         -2   -1    0    0  501    0 -0.00000000000E+00  0.00000000000E+00  0.31953466397E+02  0.31953466499E+02  0.25500000000E-02 0. -1.
          2   -1    0    0    0  501  0.00000000000E+00 -0.00000000000E+00 -0.24195798493E+02  0.24195798627E+02  0.25500000000E-02 0. -1.
          2    1    1    2    0  502 -0.15458813302E+02  0.14614268196E+02  0.21957178841E+02  0.30572364200E+02  0.25500000000E-02 0. -1.
         -2    1    1    2  502    0  0.15458813302E+02 -0.14614268196E+02 -0.14199510937E+02  0.25576900926E+02  0.25500000000E-02 0. -1.
<mgrwt>
<rscale>  0 0.55610777E+02</rscale>
<asrwt>0</asrwt>
<pdfrwt beam="2">  1        2 0.37224305E-02 0.55610777E+02</pdfrwt>
<pdfrwt beam="1">  1       -2 0.49159179E-02 0.55610777E+02</pdfrwt>
<totfact> 0.34152896E+05</totfact>
</mgrwt>
</event>
<event>
 4    1  0.2196664E-002  0.4458473E+02  0.7818608E-02  0.1476951E+00
          2   -1    0    0    0  501  0.00000000000E+00  0.00000000000E+00  0.52086976644E+02  0.52086976707E+02  0.25500000000E-02 0.  1.
         -2   -1    0    0  501    0 -0.00000000000E+00 -0.00000000000E+00 -0.95407655308E+01  0.95407658716E+01  0.25500000000E-02 0.  1.
          2    1    1    2    0  502  0.18858908915E+02 -0.10330138237E+02  0.29401392454E+02  0.36425431860E+02  0.25500000000E-02 0. -1.
         -2    1    1    2  502    0 -0.18858908915E+02  0.10330138237E+02  0.13144818659E+02  0.25202310718E+02  0.25500000000E-02 0. -1.
<mgrwt>
<rscale>  0 0.44584735E+02</rscale>
<asrwt>0</asrwt>
<pdfrwt beam="1">  1        2 0.80133811E-02 0.44584735E+02</pdfrwt>
<pdfrwt beam="2">  1       -2 0.14678101E-02 0.44584735E+02</pdfrwt>
<totfact> 0.69245103E+05</totfact>
</mgrwt>
</event>
<event>
 4    1  0.2196664E-002  0.9142386E+02  0.7818608E-02  0.1299440E+00
         -2   -1    0    0  501    0 -0.00000000000E+00  0.00000000000E+00  0.75109081619E+01  0.75109085948E+01  0.25500000000E-02 0. -1.
          2   -1    0    0    0  501  0.00000000000E+00 -0.00000000000E+00 -0.27820611907E+03  0.27820611908E+03  0.25500000000E-02 0. -1.
          2    1    1    2    0  502 -0.34004293509E+02  0.29282546220E+02 -0.10813489392E+03  0.11707653385E+03  0.25500000000E-02 0.  1.
         -2    1    1    2  502    0  0.34004293509E+02 -0.29282546220E+02 -0.16256031699E+03  0.16864049382E+03  0.25500000000E-02 0.  1.
<mgrwt>
<rscale>  0 0.91423863E+02</rscale>
<asrwt>0</asrwt>
<pdfrwt beam="2">  1        2 0.42800933E-01 0.91423863E+02</pdfrwt>
<pdfrwt beam="1">  1       -2 0.11555246E-02 0.91423863E+02</pdfrwt>
<totfact> 0.17341816E+05</totfact>
</mgrwt>
</event>
<event>
 4    1  0.2196664E-002  0.6615985E+02  0.7818608E-02  0.1373661E+00
          2   -1    0    0    0  501  0.00000000000E+00  0.00000000000E+00  0.23230043759E+03  0.23230043760E+03  0.25500000000E-02 0.  1.
         -2   -1    0    0  501    0 -0.00000000000E+00 -0.00000000000E+00 -0.47106298860E+01  0.47106305762E+01  0.25500000000E-02 0.  1.
          2    1    1    2    0  502 -0.96291608567E+01 -0.29404218483E+02  0.71871229232E+02  0.78248338010E+02  0.25500000000E-02 0. -1.
         -2    1    1    2  502    0  0.96291608567E+01  0.29404218483E+02  0.15571857847E+03  0.15876273017E+03  0.25500000000E-02 0. -1.
<mgrwt>
<rscale>  0 0.66159851E+02</rscale>
<asrwt>0</asrwt>
<pdfrwt beam="1">  1        2 0.35738535E-01 0.66159851E+02</pdfrwt>
<pdfrwt beam="2">  1       -2 0.72471221E-03 0.66159851E+02</pdfrwt>
<totfact> 0.38003595E+05</totfact>
</mgrwt>
</event>
<event>
 4    1  0.2196664E-002  0.4360701E+02  0.7818608E-02  0.1483230E+00
          2   -1    0    0    0  501  0.00000000000E+00  0.00000000000E+00  0.97758928386E+01  0.97758931712E+01  0.25500000000E-02 0.  1.
         -2   -1    0    0  501    0 -0.00000000000E+00 -0.00000000000E+00 -0.48629086701E+02  0.48629086767E+02  0.25500000000E-02 0.  1.
          2    1    1    2    0  502  0.12312036396E+01 -0.21653348278E+02 -0.16428911251E+02  0.27208316476E+02  0.25500000000E-02 0. -1.
         -2    1    1    2  502    0 -0.12312036396E+01  0.21653348278E+02 -0.22424282611E+02  0.31196663463E+02  0.25500000000E-02 0. -1.
<mgrwt>
<rscale>  0 0.43607006E+02</rscale>
<asrwt>0</asrwt>
<pdfrwt beam="1">  1        2 0.15039836E-02 0.43607006E+02</pdfrwt>
<pdfrwt beam="2">  1       -2 0.74813978E-02 0.43607006E+02</pdfrwt>
<totfact> 0.56813864E+05</totfact>
</mgrwt>
</event>
<event>
 4    1  0.2196664E-002  0.5937212E+02  0.7818608E-02  0.1400486E+00
          2   -1    0    0    0  501  0.00000000000E+00  0.00000000000E+00  0.48041032589E+03  0.48041032590E+03  0.25500000000E-02 0.  1.
         -2   -1    0    0  501    0 -0.00000000000E+00 -0.00000000000E+00 -0.18343937258E+01  0.18343954982E+01  0.25500000000E-02 0.  1.
          2    1    1    2    0  502  0.13708941295E+02 -0.21124178449E+02  0.36696650447E+03  0.36782955482E+03  0.25500000000E-02 0.  1.
         -2    1    1    2  502    0 -0.13708941295E+02  0.21124178449E+02  0.11160942769E+03  0.11441516658E+03  0.25500000000E-02 0.  1.
<mgrwt>
<rscale>  0 0.59372119E+02</rscale>
<asrwt>0</asrwt>
<pdfrwt beam="1">  1        2 0.73909361E-01 0.59372119E+02</pdfrwt>
<pdfrwt beam="2">  1       -2 0.28221425E-03 0.59372119E+02</pdfrwt>
<totfact> 0.64542660E+05</totfact>
</mgrwt>
</event>
<event>
 4    1  0.2196664E-002  0.5274410E+02  0.7818608E-02  0.1431079E+00
         -2   -1    0    0  501    0 -0.00000000000E+00  0.00000000000E+00  0.14002960326E+01  0.14002983544E+01  0.25500000000E-02 0. -1.
          2   -1    0    0    0  501  0.00000000000E+00 -0.00000000000E+00 -0.49666960617E+03  0.49666960618E+03  0.25500000000E-02 0. -1.
          2    1    1    2    0  502  0.30601475608E+01 -0.24989932113E+02 -0.32176410702E+03  0.32274758215E+03  0.25500000000E-02 0. -1.
         -2    1    1    2  502    0 -0.30601475608E+01  0.24989932113E+02 -0.17350520312E+03  0.17532232238E+03  0.25500000000E-02 0. -1.
<mgrwt>
<rscale>  0 0.52744101E+02</rscale>
<asrwt>0</asrwt>
<pdfrwt beam="2">  1        2 0.76410568E-01 0.52744101E+02</pdfrwt>
<pdfrwt beam="1">  1       -2 0.21543073E-03 0.52744101E+02</pdfrwt>
<totfact> 0.87780415E+05</totfact>
</mgrwt>
</event>
<event>
 4    1  0.2196664E-002  0.8030801E+02  0.7818608E-02  0.1328180E+00
          2   -1    0    0    0  501  0.00000000000E+00  0.00000000000E+00  0.46681600005E+03  0.46681600006E+03  0.25500000000E-02 0. -1.
         -2   -1    0    0  501    0 -0.00000000000E+00 -0.00000000000E+00 -0.34539177820E+01  0.34539187233E+01  0.25500000000E-02 0. -1.
          2    1    1    2    0  502 -0.25569721422E+02  0.65388261099E+01  0.40888901925E+03  0.40973991381E+03  0.25500000000E-02 0.  1.
         -2    1    1    2  502    0  0.25569721422E+02 -0.65388261099E+01  0.54473063019E+02  0.60530004970E+02  0.25500000000E-02 0.  1.
<mgrwt>
<rscale>  0 0.80308015E+02</rscale>
<asrwt>0</asrwt>
<pdfrwt beam="1">  1        2 0.71817831E-01 0.80308015E+02</pdfrwt>
<pdfrwt beam="2">  1       -2 0.53137215E-03 0.80308015E+02</pdfrwt>
<totfact> 0.29416368E+05</totfact>
</mgrwt>
</event>
<event>
 4    1  0.2196664E-002  0.6395437E+02  0.7818608E-02  0.1381948E+00
          2   -1    0    0    0  501  0.00000000000E+00  0.00000000000E+00  0.44051148952E+03  0.44051148953E+03  0.25500000000E-02 0.  1.
         -2   -1    0    0  501    0 -0.00000000000E+00 -0.00000000000E+00 -0.23212562630E+01  0.23212576636E+01  0.25500000000E-02 0.  1.
          2    1    1    2    0  502 -0.77658400311E+00 -0.30633627610E+02  0.15581607410E+03  0.15880072789E+03  0.25500000000E-02 0. -1.
         -2    1    1    2  502    0  0.77658400311E+00  0.30633627610E+02  0.28237415916E+03  0.28403201931E+03  0.25500000000E-02 0. -1.
<mgrwt>
<rscale>  0 0.63954370E+02</rscale>
<asrwt>0</asrwt>
<pdfrwt beam="1">  1        2 0.67770971E-01 0.63954370E+02</pdfrwt>
<pdfrwt beam="2">  1       -2 0.35711660E-03 0.63954370E+02</pdfrwt>
<totfact> 0.51946171E+05</totfact>
</mgrwt>
</event>
<event>
 4    1  0.2196664E-002  0.4084397E+02  0.7818608E-02  0.1502091E+00
         -2   -1    0    0  501    0 -0.00000000000E+00  0.00000000000E+00  0.32342237892E+02  0.32342237992E+02  0.25500000000E-02 0.  1.
          2   -1    0    0    0  501  0.00000000000E+00 -0.00000000000E+00 -0.12895133924E+02  0.12895134176E+02  0.25500000000E-02 0.  1.
          2    1    1    2    0  502  0.17462606529E+02  0.10579120777E+02  0.92318786324E+01  0.22407320518E+02  0.25500000000E-02 0. -1.
         -2    1    1    2  502    0 -0.17462606529E+02 -0.10579120777E+02  0.10215225335E+02  0.22830051650E+02  0.25500000000E-02 0. -1.
<mgrwt>
<rscale>  0 0.40843971E+02</rscale>
<asrwt>0</asrwt>
<pdfrwt beam="2">  1        2 0.19838668E-02 0.40843971E+02</pdfrwt>
<pdfrwt beam="1">  1       -2 0.49757289E-02 0.40843971E+02</pdfrwt>
<totfact> 0.70473144E+05</totfact>
</mgrwt>
</event>
<event>
 4    1  0.2196664E-002  0.9830294E+02  0.7818608E-02  0.1283906E+00
         -2   -1    0    0  501    0 -0.00000000000E+00  0.00000000000E+00  0.48034288152E+02  0.48034288220E+02  0.25500000000E-02 0. -1.
          2   -1    0    0    0  501  0.00000000000E+00 -0.00000000000E+00 -0.50294631140E+02  0.50294631205E+02  0.25500000000E-02 0. -1.
          2    1    1    2    0  502  0.14850448693E+02  0.32067899224E+02 -0.35300301864E+02  0.49949948000E+02  0.25500000000E-02 0. -1.
         -2    1    1    2  502    0 -0.14850448693E+02 -0.32067899224E+02  0.33039958876E+02  0.48378971424E+02  0.25500000000E-02 0. -1.
<mgrwt>
<rscale>  0 0.98302936E+02</rscale>
<asrwt>0</asrwt>
<pdfrwt beam="2">  1        2 0.77376355E-02 0.98302936E+02</pdfrwt>
<pdfrwt beam="1">  1       -2 0.73898905E-02 0.98302936E+02</pdfrwt>
<totfact> 0.81539196E+04</totfact>
</mgrwt>
</event>
<event>
 4    1  0.2196664E-002  0.5438039E+02  0.7818608E-02  0.1423052E+00
         -2   -1    0    0  501    0 -0.00000000000E+00  0.00000000000E+00  0.76209179033E+02  0.76209179076E+02  0.25500000000E-02 0. -1.
          2   -1    0    0    0  501  0.00000000000E+00 -0.00000000000E+00 -0.97010173449E+01  0.97010176800E+01  0.25500000000E-02 0. -1.
          2    1    1    2    0  502  0.15948920467E+02  0.20810400616E+02  0.44631472759E+02  0.51763010007E+02  0.25500000000E-02 0. -1.
         -2    1    1    2  502    0 -0.15948920467E+02 -0.20810400616E+02  0.21876688930E+02  0.34147186749E+02  0.25500000000E-02 0. -1.
<mgrwt>
<rscale>  0 0.54380386E+02</rscale>
<asrwt>0</asrwt>
<pdfrwt beam="2">  1        2 0.14924642E-02 0.54380386E+02</pdfrwt>
<pdfrwt beam="1">  1       -2 0.11724489E-01 0.54380386E+02</pdfrwt>
<totfact> 0.30646981E+05</totfact>
</mgrwt>
</event>
<event>
 4    1  0.2196664E-002  0.1565176E+03  0.7818608E-02  0.1192685E+00
          2   -1    0    0    0  501  0.00000000000E+00  0.00000000000E+00  0.69394676944E+02  0.69394676991E+02  0.25500000000E-02 0. -1.
         -2   -1    0    0  501    0 -0.00000000000E+00 -0.00000000000E+00 -0.88255132927E+02  0.88255132964E+02  0.25500000000E-02 0. -1.
          2    1    1    2    0  502  0.58545983872E+02  0.14371972759E+02  0.40833178354E+02  0.72811635674E+02  0.25500000000E-02 0.  1.
         -2    1    1    2  502    0 -0.58545983872E+02 -0.14371972759E+02 -0.59693634337E+02  0.84838174281E+02  0.25500000000E-02 0.  1.
<mgrwt>
<rscale>  0 0.15651756E+03</rscale>
<asrwt>0</asrwt>
<pdfrwt beam="1">  1        2 0.10676104E-01 0.15651756E+03</pdfrwt>
<pdfrwt beam="2">  1       -2 0.13577713E-01 0.15651756E+03</pdfrwt>
<totfact> 0.22341364E+04</totfact>
</mgrwt>
</event>
<event>
 4    1  0.2196664E-002  0.8282954E+02  0.7818608E-02  0.1321208E+00
          2   -1    0    0    0  501  0.00000000000E+00  0.00000000000E+00  0.20425038730E+04  0.20425038730E+04  0.25500000000E-02 0.  1.
         -2   -1    0    0  501    0 -0.00000000000E+00 -0.00000000000E+00 -0.83974344251E+00  0.83974731422E+00  0.25500000000E-02 0.  1.
          2    1    1    2    0  502  0.19848472987E+02  0.22006464276E+02  0.17345103710E+04  0.17347635209E+04  0.25500000000E-02 0.  1.
         -2    1    1    2  502    0 -0.19848472987E+02 -0.22006464276E+02  0.30715375854E+03  0.30858009940E+03  0.25500000000E-02 0.  1.
<mgrwt>
<rscale>  0 0.82829540E+02</rscale>
<asrwt>0</asrwt>
<pdfrwt beam="1">  1        2 0.31423164E+00 0.82829540E+02</pdfrwt>
<pdfrwt beam="2">  1       -2 0.12919148E-03 0.82829540E+02</pdfrwt>
<totfact> 0.24835454E+05</totfact>
</mgrwt>
</event>
<event>
 4    1  0.2196664E-002  0.4837124E+02  0.7818608E-02  0.1454330E+00
          2   -1    0    0    0  501  0.00000000000E+00  0.00000000000E+00  0.55719316356E+03  0.55719316356E+03  0.25500000000E-02 0.  1.
         -2   -1    0    0  501    0 -0.00000000000E+00 -0.00000000000E+00 -0.10498036230E+01  0.10498067200E+01  0.25500000000E-02 0.  1.
          2    1    1    2    0  502  0.23308689307E+01 -0.22125325523E+02  0.38754596320E+03  0.38818402412E+03  0.25500000000E-02 0.  1.
         -2    1    1    2  502    0 -0.23308689307E+01  0.22125325523E+02  0.16859739673E+03  0.17005894616E+03  0.25500000000E-02 0.  1.
<mgrwt>
<rscale>  0 0.48371242E+02</rscale>
<asrwt>0</asrwt>
<pdfrwt beam="1">  1        2 0.85721902E-01 0.48371242E+02</pdfrwt>
<pdfrwt beam="2">  1       -2 0.16150872E-03 0.48371242E+02</pdfrwt>
<totfact> 0.11257674E+06</totfact>
</mgrwt>
</event>
<event>
 4    1  0.2196664E-002  0.6302095E+02  0.7818608E-02  0.1385574E+00
          2   -1    0    0    0  501  0.00000000000E+00  0.00000000000E+00  0.17703227423E+04  0.17703227423E+04  0.25500000000E-02 0. -1.
         -2   -1    0    0  501    0 -0.00000000000E+00 -0.00000000000E+00 -0.56086098684E+00  0.56086678370E+00  0.25500000000E-02 0. -1.
          2    1    1    2    0  502 -0.71280511526E+00  0.25334997386E+02  0.35877429040E+03  0.35966840513E+03  0.25500000000E-02 0. -1.
         -2    1    1    2  502    0  0.71280511526E+00 -0.25334997386E+02  0.14109875909E+04  0.14112152040E+04  0.25500000000E-02 0. -1.
<mgrwt>
<rscale>  0 0.63020952E+02</rscale>
<asrwt>0</asrwt>
<pdfrwt beam="1">  1        2 0.27235201E+00 0.63020952E+02</pdfrwt>
<pdfrwt beam="2">  1       -2 0.86288442E-04 0.63020952E+02</pdfrwt>
<totfact> 0.56447019E+05</totfact>
</mgrwt>
</event>
<event>
 4    1  0.2196664E-002  0.4510993E+02  0.7818608E-02  0.1473657E+00
         -2   -1    0    0  501    0 -0.00000000000E+00  0.00000000000E+00  0.65338823247E+02  0.65338823296E+02  0.25500000000E-02 0. -1.
          2   -1    0    0    0  501  0.00000000000E+00 -0.00000000000E+00 -0.77859745786E+01  0.77859749961E+01  0.25500000000E-02 0. -1.
          2    1    1    2    0  502 -0.19988144864E+02  0.24328130762E+01  0.12302211612E+02  0.23596375392E+02  0.25500000000E-02 0. -1.
         -2    1    1    2  502    0  0.19988144864E+02 -0.24328130762E+01  0.45250637056E+02  0.49528422901E+02  0.25500000000E-02 0. -1.
<mgrwt>
<rscale>  0 0.45109929E+02</rscale>
<asrwt>0</asrwt>
<pdfrwt beam="2">  1        2 0.11978423E-02 0.45109929E+02</pdfrwt>
<pdfrwt beam="1">  1       -2 0.10052127E-01 0.45109929E+02</pdfrwt>
<totfact> 0.49728364E+05</totfact>
</mgrwt>
</event>
<event>
 4    1  0.2196664E-002  0.6036972E+02  0.7818608E-02  0.1396287E+00
         -2   -1    0    0  501    0 -0.00000000000E+00  0.00000000000E+00  0.10129768197E+02  0.10129768518E+02  0.25500000000E-02 0.  1.
          2   -1    0    0    0  501  0.00000000000E+00 -0.00000000000E+00 -0.89945375895E+02  0.89945375931E+02  0.25500000000E-02 0.  1.
          2    1    1    2    0  502 -0.29196731215E+02 -0.31823170430E+01 -0.51458275516E+02  0.59249728953E+02  0.25500000000E-02 0.  1.
         -2    1    1    2  502    0  0.29196731215E+02  0.31823170430E+01 -0.28357332182E+02  0.40825415496E+02  0.25500000000E-02 0.  1.
<mgrwt>
<rscale>  0 0.60369722E+02</rscale>
<asrwt>0</asrwt>
<pdfrwt beam="2">  1        2 0.13837750E-01 0.60369722E+02</pdfrwt>
<pdfrwt beam="1">  1       -2 0.15584260E-02 0.60369722E+02</pdfrwt>
<totfact> 0.35902891E+05</totfact>
</mgrwt>
</event>
<event>
 4    1  0.2196664E-002  0.6076661E+02  0.7818608E-02  0.1394643E+00
         -2   -1    0    0  501    0 -0.00000000000E+00  0.00000000000E+00  0.24556579193E+02  0.24556579326E+02  0.25500000000E-02 0.  1.
          2   -1    0    0    0  501  0.00000000000E+00 -0.00000000000E+00 -0.37592579270E+02  0.37592579356E+02  0.25500000000E-02 0.  1.
          2    1    1    2    0  502 -0.13696219358E+02  0.26478376711E+02 -0.12521326034E+02  0.32333797644E+02  0.25500000000E-02 0.  1.
         -2    1    1    2  502    0  0.13696219358E+02 -0.26478376711E+02 -0.51467404243E+00  0.29815361038E+02  0.25500000000E-02 0.  1.
<mgrwt>
<rscale>  0 0.60766608E+02</rscale>
<asrwt>0</asrwt>
<pdfrwt beam="2">  1        2 0.57834737E-02 0.60766608E+02</pdfrwt>
<pdfrwt beam="1">  1       -2 0.37779353E-02 0.60766608E+02</pdfrwt>
<totfact> 0.29126565E+05</totfact>
</mgrwt>
</event>
<event>
 4    1  0.2196664E-002  0.4455660E+02  0.7818608E-02  0.1477129E+00
         -2   -1    0    0  501    0 -0.00000000000E+00  0.00000000000E+00  0.60039362169E+02  0.60039362224E+02  0.25500000000E-02 0.  1.
          2   -1    0    0    0  501  0.00000000000E+00 -0.00000000000E+00 -0.82666221179E+01  0.82666225112E+01  0.25500000000E-02 0.  1.
          2    1    1    2    0  502 -0.19597801030E+02  0.10594201202E+02  0.26053065381E+02  0.34279339646E+02  0.25500000000E-02 0. -1.
         -2    1    1    2  502    0  0.19597801030E+02 -0.10594201202E+02  0.25719674670E+02  0.34026645088E+02  0.25500000000E-02 0. -1.
<mgrwt>
<rscale>  0 0.44556604E+02</rscale>
<asrwt>0</asrwt>
<pdfrwt beam="2">  1        2 0.12717880E-02 0.44556604E+02</pdfrwt>
<pdfrwt beam="1">  1       -2 0.92368252E-02 0.44556604E+02</pdfrwt>
<totfact> 0.52039091E+05</totfact>
</mgrwt>
</event>
<event>
 4    1  0.2196664E-002  0.8550442E+02  0.7818608E-02  0.1314119E+00
         -2   -1    0    0  501    0 -0.00000000000E+00  0.00000000000E+00  0.18626425991E+01  0.18626443446E+01  0.25500000000E-02 0. -1.
          2   -1    0    0    0  501  0.00000000000E+00 -0.00000000000E+00 -0.98126749349E+03  0.98126749349E+03  0.25500000000E-02 0. -1.
          2    1    1    2    0  502  0.27743014255E+02 -0.73596239872E+01 -0.85401183526E+03  0.85449403372E+03  0.25500000000E-02 0.  1.
         -2    1    1    2  502    0 -0.27743014255E+02  0.73596239872E+01 -0.12539301563E+03  0.12863610411E+03  0.25500000000E-02 0.  1.
<mgrwt>
<rscale>  0 0.85504421E+02</rscale>
<asrwt>0</asrwt>
<pdfrwt beam="2">  1        2 0.15096382E+00 0.85504421E+02</pdfrwt>
<pdfrwt beam="1">  1       -2 0.28656132E-03 0.85504421E+02</pdfrwt>
<totfact> 0.29564329E+05</totfact>
</mgrwt>
</event>
<event>
 4    1  0.2196664E-002  0.5763294E+02  0.7818608E-02  0.1408042E+00
          2   -1    0    0    0  501  0.00000000000E+00  0.00000000000E+00  0.56314853599E+03  0.56314853599E+03  0.25500000000E-02 0. -1.
         -2   -1    0    0  501    0 -0.00000000000E+00 -0.00000000000E+00 -0.14745458741E+01  0.14745480790E+01  0.25500000000E-02 0. -1.
          2    1    1    2    0  502  0.17284403569E+02  0.20127764598E+02  0.17064430896E+03  0.17269440553E+03  0.25500000000E-02 0.  1.
         -2    1    1    2  502    0 -0.17284403569E+02 -0.20127764598E+02  0.39102968115E+03  0.39192867854E+03  0.25500000000E-02 0.  1.
<mgrwt>
<rscale>  0 0.57632941E+02</rscale>
<asrwt>0</asrwt>
<pdfrwt beam="1">  1        2 0.86638282E-01 0.57632941E+02</pdfrwt>
<pdfrwt beam="2">  1       -2 0.22685326E-03 0.57632941E+02</pdfrwt>
<totfact> 0.73022037E+05</totfact>
</mgrwt>
</event>
<event>
 4    1  0.2196664E-002  0.5429720E+02  0.7818608E-02  0.1423452E+00
         -2   -1    0    0  501    0 -0.00000000000E+00  0.00000000000E+00  0.11790936824E+03  0.11790936827E+03  0.25500000000E-02 0. -1.
          2   -1    0    0    0  501  0.00000000000E+00 -0.00000000000E+00 -0.62509580204E+01  0.62509585406E+01  0.25500000000E-02 0. -1.
          2    1    1    2    0  502 -0.16166343667E+02 -0.17024413782E+02  0.87004060178E+02  0.90115968763E+02  0.25500000000E-02 0.  1.
         -2    1    1    2  502    0  0.16166343667E+02  0.17024413782E+02  0.24654350041E+02  0.34044358045E+02  0.25500000000E-02 0.  1.
<mgrwt>
<rscale>  0 0.54297202E+02</rscale>
<asrwt>0</asrwt>
<pdfrwt beam="2">  1        2 0.96168590E-03 0.54297202E+02</pdfrwt>
<pdfrwt beam="1">  1       -2 0.18139903E-01 0.54297202E+02</pdfrwt>
<totfact> 0.27594389E+05</totfact>
</mgrwt>
</event>
<event>
 4    1  0.2196664E-002  0.7548565E+02  0.7818608E-02  0.1342374E+00
          2   -1    0    0    0  501  0.00000000000E+00  0.00000000000E+00  0.43807634312E+02  0.43807634386E+02  0.25500000000E-02 0.  1.
         -2   -1    0    0  501    0 -0.00000000000E+00 -0.00000000000E+00 -0.32517635699E+02  0.32517635799E+02  0.25500000000E-02 0.  1.
          2    1    1    2    0  502 -0.19261361698E+02  0.67485246574E+01  0.37746808626E+02  0.42911119858E+02  0.25500000000E-02 0.  1.
         -2    1    1    2  502    0  0.19261361698E+02 -0.67485246574E+01 -0.26456810012E+02  0.33414150327E+02  0.25500000000E-02 0.  1.
<mgrwt>
<rscale>  0 0.75485646E+02</rscale>
<asrwt>0</asrwt>
<pdfrwt beam="1">  1        2 0.67396360E-02 0.75485646E+02</pdfrwt>
<pdfrwt beam="2">  1       -2 0.50027132E-02 0.75485646E+02</pdfrwt>
<totfact> 0.16643776E+05</totfact>
</mgrwt>
</event>
<event>
 4    1  0.2196664E-002  0.1126550E+03  0.7818608E-02  0.1255731E+00
         -2   -1    0    0  501    0 -0.00000000000E+00  0.00000000000E+00  0.91438232186E+02  0.91438232222E+02  0.25500000000E-02 0. -1.
          2   -1    0    0    0  501  0.00000000000E+00 -0.00000000000E+00 -0.34698702843E+02  0.34698702936E+02  0.25500000000E-02 0. -1.
          2    1    1    2    0  502 -0.21129596797E+02  0.31594714473E+02  0.74915131786E+02  0.84005730878E+02  0.25500000000E-02 0. -1.
         -2    1    1    2  502    0  0.21129596797E+02 -0.31594714473E+02 -0.18175602442E+02  0.42131204280E+02  0.25500000000E-02 0. -1.
<mgrwt>
<rscale>  0 0.11265501E+03</rscale>
<asrwt>0</asrwt>
<pdfrwt beam="2">  1        2 0.53382621E-02 0.11265501E+03</pdfrwt>
<pdfrwt beam="1">  1       -2 0.14067420E-01 0.11265501E+03</pdfrwt>
<totfact> 0.48632356E+04</totfact>
</mgrwt>
</event>
<event>
 4    1  0.2196664E-002  0.4305406E+02  0.7818608E-02  0.1486869E+00
         -2   -1    0    0  501    0 -0.00000000000E+00  0.00000000000E+00  0.23069234676E+01  0.23069248769E+01  0.25500000000E-02 0. -1.
          2   -1    0    0    0  501  0.00000000000E+00 -0.00000000000E+00 -0.20087917980E+03  0.20087917982E+03  0.25500000000E-02 0. -1.
          2    1    1    2    0  502  0.60447569018E+01 -0.19839975319E+02 -0.72073448756E+02  0.74998304839E+02  0.25500000000E-02 0.  1.
         -2    1    1    2  502    0 -0.60447569018E+01  0.19839975319E+02 -0.12649880758E+03  0.12818779986E+03  0.25500000000E-02 0.  1.
<mgrwt>
<rscale>  0 0.43054061E+02</rscale>
<asrwt>0</asrwt>
<pdfrwt beam="2">  1        2 0.30904476E-01 0.43054061E+02</pdfrwt>
<pdfrwt beam="1">  1       -2 0.35491157E-03 0.43054061E+02</pdfrwt>
<totfact> 0.10683876E+06</totfact>
</mgrwt>
</event>
<event>
 4    1  0.2196664E-002  0.6658347E+02  0.7818608E-02  0.1372112E+00
          2   -1    0    0    0  501  0.00000000000E+00  0.00000000000E+00  0.35589535500E+03  0.35589535501E+03  0.25500000000E-02 0. -1.
         -2   -1    0    0  501    0 -0.00000000000E+00 -0.00000000000E+00 -0.31142279783E+01  0.31142290223E+01  0.25500000000E-02 0. -1.
          2    1    1    2    0  502  0.20673286282E+02 -0.10129322713E+02  0.46721735417E+02  0.52085588325E+02  0.25500000000E-02 0. -1.
         -2    1    1    2  502    0 -0.20673286282E+02  0.10129322713E+02  0.30605939160E+03  0.30692399570E+03  0.25500000000E-02 0. -1.
<mgrwt>
<rscale>  0 0.66583465E+02</rscale>
<asrwt>0</asrwt>
<pdfrwt beam="1">  1        2 0.54753123E-01 0.66583465E+02</pdfrwt>
<pdfrwt beam="2">  1       -2 0.47911215E-03 0.66583465E+02</pdfrwt>
<totfact> 0.43524533E+05</totfact>
</mgrwt>
</event>
<event>
 4    1  0.2196664E-002  0.5133083E+02  0.7818608E-02  0.1438293E+00
         -2   -1    0    0  501    0 -0.00000000000E+00  0.00000000000E+00  0.48580805937E+02  0.48580806003E+02  0.25500000000E-02 0.  1.
          2   -1    0    0    0  501  0.00000000000E+00 -0.00000000000E+00 -0.13559129491E+02  0.13559129731E+02  0.25500000000E-02 0.  1.
          2    1    1    2    0  502  0.21862675801E+02  0.62526254684E+01  0.31918311847E+02  0.39189929269E+02  0.25500000000E-02 0.  1.
         -2    1    1    2  502    0 -0.21862675801E+02 -0.62526254684E+01  0.31033645984E+01  0.22950006465E+02  0.25500000000E-02 0.  1.
<mgrwt>
<rscale>  0 0.51330827E+02</rscale>
<asrwt>0</asrwt>
<pdfrwt beam="2">  1        2 0.20860199E-02 0.51330827E+02</pdfrwt>
<pdfrwt beam="1">  1       -2 0.74739702E-02 0.51330827E+02</pdfrwt>
<totfact> 0.38475125E+05</totfact>
</mgrwt>
</event>
<event>
 4    1  0.2196664E-002  0.4681846E+02  0.7818608E-02  0.1463299E+00
         -2   -1    0    0  501    0 -0.00000000000E+00  0.00000000000E+00  0.73420848698E+00  0.73421291521E+00  0.25500000000E-02 0.  1.
          2   -1    0    0    0  501  0.00000000000E+00 -0.00000000000E+00 -0.74636877822E+03  0.74636877822E+03  0.25500000000E-02 0.  1.
          2    1    1    2    0  502 -0.21822586744E+02 -0.67681095066E+01 -0.29151359930E+03  0.29240761136E+03  0.25500000000E-02 0.  1.
         -2    1    1    2  502    0  0.21822586744E+02  0.67681095066E+01 -0.45412097043E+03  0.45469537978E+03  0.25500000000E-02 0.  1.
<mgrwt>
<rscale>  0 0.46818456E+02</rscale>
<asrwt>0</asrwt>
<pdfrwt beam="2">  1        2 0.11482536E+00 0.46818456E+02</pdfrwt>
<pdfrwt beam="1">  1       -2 0.11295609E-03 0.46818456E+02</pdfrwt>
<totfact> 0.13110008E+06</totfact>
</mgrwt>
</event>
<event>
 4    1  0.2196664E-002  0.4605028E+02  0.7818608E-02  0.1467889E+00
         -2   -1    0    0  501    0 -0.00000000000E+00  0.00000000000E+00  0.24368779194E+01  0.24368792536E+01  0.25500000000E-02 0.  1.
          2   -1    0    0    0  501  0.00000000000E+00 -0.00000000000E+00 -0.21755582553E+03  0.21755582555E+03  0.25500000000E-02 0.  1.
          2    1    1    2    0  502  0.19612448280E+02 -0.89138803283E+01 -0.68733879947E+02  0.72030907596E+02  0.25500000000E-02 0. -1.
         -2    1    1    2  502    0 -0.19612448280E+02  0.89138803283E+01 -0.14638506767E+03  0.14796179721E+03  0.25500000000E-02 0. -1.
<mgrwt>
<rscale>  0 0.46050283E+02</rscale>
<asrwt>0</asrwt>
<pdfrwt beam="2">  1        2 0.33470112E-01 0.46050283E+02</pdfrwt>
<pdfrwt beam="1">  1       -2 0.37490457E-03 0.46050283E+02</pdfrwt>
<totfact> 0.92921372E+05</totfact>
</mgrwt>
</event>
<event>
 4    1  0.2196664E-002  0.5409305E+02  0.7818608E-02  0.1424437E+00
          2   -1    0    0    0  501  0.00000000000E+00  0.00000000000E+00  0.11781855114E+04  0.11781855114E+04  0.25500000000E-02 0. -1.
         -2   -1    0    0  501    0 -0.00000000000E+00 -0.00000000000E+00 -0.62087966046E+00  0.62088489696E+00  0.25500000000E-02 0. -1.
          2    1    1    2    0  502  0.22320642810E+02 -0.11476033180E+02  0.36911949014E+03  0.36997176709E+03  0.25500000000E-02 0.  1.
         -2    1    1    2  502    0 -0.22320642810E+02  0.11476033180E+02  0.80844514164E+03  0.80883462925E+03  0.25500000000E-02 0.  1.
<mgrwt>
<rscale>  0 0.54093050E+02</rscale>
<asrwt>0</asrwt>
<pdfrwt beam="1">  1        2 0.18126017E+00 0.54093050E+02</pdfrwt>
<pdfrwt beam="2">  1       -2 0.95519898E-04 0.54093050E+02</pdfrwt>
<totfact> 0.94957770E+05</totfact>
</mgrwt>
</event>
<event>
 4    1  0.2196664E-002  0.7677662E+02  0.7818608E-02  0.1338456E+00
          2   -1    0    0    0  501  0.00000000000E+00  0.00000000000E+00  0.17576311773E+02  0.17576311958E+02  0.25500000000E-02 0. -1.
         -2   -1    0    0  501    0 -0.00000000000E+00 -0.00000000000E+00 -0.83843665465E+02  0.83843665503E+02  0.25500000000E-02 0. -1.
          2    1    1    2    0  502 -0.13333087378E+02 -0.22857359201E+02  0.36034906747E+01  0.26706089946E+02  0.25500000000E-02 0.  1.
         -2    1    1    2  502    0  0.13333087378E+02  0.22857359201E+02 -0.69870844366E+02  0.74713887515E+02  0.25500000000E-02 0.  1.
<mgrwt>
<rscale>  0 0.76776622E+02</rscale>
<asrwt>0</asrwt>
<pdfrwt beam="1">  1        2 0.27040480E-02 0.76776622E+02</pdfrwt>
<pdfrwt beam="2">  1       -2 0.12899025E-01 0.76776622E+02</pdfrwt>
<totfact> 0.12836074E+05</totfact>
</mgrwt>
</event>
<event>
 4    1  0.2196664E-002  0.1191194E+03  0.7818608E-02  0.1244557E+00
          2   -1    0    0    0  501  0.00000000000E+00  0.00000000000E+00  0.11524774981E+04  0.11524774981E+04  0.25500000000E-02 0. -1.
         -2   -1    0    0  501    0 -0.00000000000E+00 -0.00000000000E+00 -0.30780295276E+01  0.30780305839E+01  0.25500000000E-02 0. -1.
          2    1    1    2    0  502  0.18506239266E+02  0.99643144520E+01  0.11153051133E+04  0.11155031439E+04  0.25500000000E-02 0.  1.
         -2    1    1    2  502    0 -0.18506239266E+02 -0.99643144520E+01  0.34094355353E+02  0.40052384794E+02  0.25500000000E-02 0.  1.
<mgrwt>
<rscale>  0 0.11911944E+03</rscale>
<asrwt>0</asrwt>
<pdfrwt beam="1">  1        2 0.17730431E+00 0.11911944E+03</pdfrwt>
<pdfrwt beam="2">  1       -2 0.47354286E-03 0.11911944E+03</pdfrwt>
<totfact> 0.12234898E+05</totfact>
</mgrwt>
</event>
<event>
 4    1  0.2196664E-002  0.5533774E+02  0.7818608E-02  0.1418508E+00
          2   -1    0    0    0  501  0.00000000000E+00  0.00000000000E+00  0.12811192806E+04  0.12811192806E+04  0.25500000000E-02 0.  1.
         -2   -1    0    0  501    0 -0.00000000000E+00 -0.00000000000E+00 -0.59757344924E+00  0.59757888997E+00  0.25500000000E-02 0.  1.
          2    1    1    2    0  502  0.10845961178E+02  0.23655733810E+02  0.42256818291E+03  0.42336874924E+03  0.25500000000E-02 0.  1.
         -2    1    1    2  502    0 -0.10845961178E+02 -0.23655733810E+02  0.85795352428E+03  0.85834811029E+03  0.25500000000E-02 0.  1.
<mgrwt>
<rscale>  0 0.55337740E+02</rscale>
<asrwt>0</asrwt>
<pdfrwt beam="1">  1        2 0.19709361E+00 0.55337740E+02</pdfrwt>
<pdfrwt beam="2">  1       -2 0.91935571E-04 0.55337740E+02</pdfrwt>
<totfact> 0.88756070E+05</totfact>
</mgrwt>
</event>
<event>
 4    1  0.2196664E-002  0.7058321E+02  0.7818608E-02  0.1358121E+00
          2   -1    0    0    0  501  0.00000000000E+00  0.00000000000E+00  0.35350782270E+03  0.35350782270E+03  0.25500000000E-02 0. -1.
         -2   -1    0    0  501    0 -0.00000000000E+00 -0.00000000000E+00 -0.35232520796E+01  0.35232530024E+01  0.25500000000E-02 0. -1.
          2    1    1    2    0  502 -0.29847520264E+02 -0.16089004672E+02  0.12549149924E+03  0.12999171868E+03  0.25500000000E-02 0.  1.
         -2    1    1    2  502    0  0.29847520264E+02  0.16089004672E+02  0.22449307137E+03  0.22703935702E+03  0.25500000000E-02 0.  1.
<mgrwt>
<rscale>  0 0.70583209E+02</rscale>
<asrwt>0</asrwt>
<pdfrwt beam="1">  1        2 0.54385811E-01 0.70583209E+02</pdfrwt>
<pdfrwt beam="2">  1       -2 0.54203894E-03 0.70583209E+02</pdfrwt>
<totfact> 0.37359021E+05</totfact>
</mgrwt>
</event>
<event>
 4    1  0.2196664E-002  0.4511615E+02  0.7818608E-02  0.1473618E+00
         -2   -1    0    0  501    0 -0.00000000000E+00  0.00000000000E+00  0.12641321885E+03  0.12641321888E+03  0.25500000000E-02 0. -1.
          2   -1    0    0    0  501  0.00000000000E+00 -0.00000000000E+00 -0.40254233704E+01  0.40254241780E+01  0.25500000000E-02 0. -1.
          2    1    1    2    0  502 -0.22485814044E+02  0.17360637273E+01  0.59774502457E+02  0.63887533220E+02  0.25500000000E-02 0. -1.
         -2    1    1    2  502    0  0.22485814044E+02 -0.17360637273E+01  0.62613293026E+02  0.66551109837E+02  0.25500000000E-02 0. -1.
<mgrwt>
<rscale>  0 0.45116151E+02</rscale>
<asrwt>0</asrwt>
<pdfrwt beam="2">  1        2 0.61929607E-03 0.45116151E+02</pdfrwt>
<pdfrwt beam="1">  1       -2 0.19448184E-01 0.45116151E+02</pdfrwt>
<totfact> 0.42531237E+05</totfact>
</mgrwt>
</event>
<event>
 4    1  0.2196664E-002  0.4724008E+02  0.7818608E-02  0.1460823E+00
         -2   -1    0    0  501    0 -0.00000000000E+00  0.00000000000E+00  0.15221816735E+01  0.15221838094E+01  0.25500000000E-02 0.  1.
          2   -1    0    0    0  501  0.00000000000E+00 -0.00000000000E+00 -0.36651733786E+03  0.36651733787E+03  0.25500000000E-02 0.  1.
          2    1    1    2    0  502  0.90955451150E+00  0.22345073344E+02 -0.12327866469E+03  0.12529069705E+03  0.25500000000E-02 0.  1.
         -2    1    1    2  502    0 -0.90955451150E+00 -0.22345073344E+02 -0.24171649149E+03  0.24274882463E+03  0.25500000000E-02 0.  1.
<mgrwt>
<rscale>  0 0.47240083E+02</rscale>
<asrwt>0</asrwt>
<pdfrwt beam="2">  1        2 0.56387213E-01 0.47240083E+02</pdfrwt>
<pdfrwt beam="1">  1       -2 0.23418225E-03 0.47240083E+02</pdfrwt>
<totfact> 0.10434732E+06</totfact>
</mgrwt>
</event>
<event>
 4    1  0.2196664E-002  0.5308678E+02  0.7818608E-02  0.1429369E+00
         -2   -1    0    0  501    0 -0.00000000000E+00  0.00000000000E+00  0.39639061700E+00  0.39639881905E+00  0.25500000000E-02 0.  1.
          2   -1    0    0    0  501  0.00000000000E+00 -0.00000000000E+00 -0.17773989483E+04  0.17773989484E+04  0.25500000000E-02 0.  1.
          2    1    1    2    0  502 -0.70881003569E+01  0.19697259735E+02 -0.34198377762E+03  0.34262388617E+03  0.25500000000E-02 0.  1.
         -2    1    1    2  502    0  0.70881003569E+01 -0.19697259735E+02 -0.14350187801E+04  0.14351714610E+04  0.25500000000E-02 0.  1.
<mgrwt>
<rscale>  0 0.53086780E+02</rscale>
<asrwt>0</asrwt>
<pdfrwt beam="2">  1        2 0.27343961E+00 0.53086780E+02</pdfrwt>
<pdfrwt beam="1">  1       -2 0.60985226E-04 0.53086780E+02</pdfrwt>
<totfact> 0.86784006E+05</totfact>
</mgrwt>
</event>
<event>
 4    1  0.2196664E-002  0.5393996E+02  0.7818608E-02  0.1425179E+00
         -2   -1    0    0  501    0 -0.00000000000E+00  0.00000000000E+00  0.38477920411E+01  0.38477928861E+01  0.25500000000E-02 0.  1.
          2   -1    0    0    0  501  0.00000000000E+00 -0.00000000000E+00 -0.18903820143E+03  0.18903820145E+03  0.25500000000E-02 0.  1.
          2    1    1    2    0  502 -0.18211597046E+02  0.10761026648E+02 -0.32767085655E+02  0.39001844448E+02  0.25500000000E-02 0. -1.
         -2    1    1    2  502    0  0.18211597046E+02 -0.10761026648E+02 -0.15242332373E+03  0.15388414989E+03  0.25500000000E-02 0. -1.
<mgrwt>
<rscale>  0 0.53939958E+02</rscale>
<asrwt>0</asrwt>
<pdfrwt beam="2">  1        2 0.29082793E-01 0.53939958E+02</pdfrwt>
<pdfrwt beam="1">  1       -2 0.59196822E-03 0.53939958E+02</pdfrwt>
<totfact> 0.59699688E+05</totfact>
</mgrwt>
</event>
<event>
 4    1  0.2196664E-002  0.4422281E+02  0.7818608E-02  0.1479253E+00
          2   -1    0    0    0  501  0.00000000000E+00  0.00000000000E+00  0.36062523829E+03  0.36062523830E+03  0.25500000000E-02 0. -1.
         -2   -1    0    0  501    0 -0.00000000000E+00 -0.00000000000E+00 -0.13557392104E+01  0.13557416086E+01  0.25500000000E-02 0. -1.
          2    1    1    2    0  502  0.73085260880E+01 -0.20868463359E+02  0.18031410909E+03  0.18166476065E+03  0.25500000000E-02 0. -1.
         -2    1    1    2  502    0 -0.73085260880E+01  0.20868463359E+02  0.17895538999E+03  0.18031621926E+03  0.25500000000E-02 0. -1.
<mgrwt>
<rscale>  0 0.44222809E+02</rscale>
<asrwt>0</asrwt>
<pdfrwt beam="1">  1        2 0.55480834E-01 0.44222809E+02</pdfrwt>
<pdfrwt beam="2">  1       -2 0.20857534E-03 0.44222809E+02</pdfrwt>
<totfact> 0.12203581E+06</totfact>
</mgrwt>
</event>
<event>
 4    1  0.2196664E-002  0.4528493E+02  0.7818608E-02  0.1472571E+00
          2   -1    0    0    0  501  0.00000000000E+00  0.00000000000E+00  0.15288893634E+03  0.15288893636E+03  0.25500000000E-02 0. -1.
         -2   -1    0    0  501    0 -0.00000000000E+00 -0.00000000000E+00 -0.33532908574E+01  0.33532918270E+01  0.25500000000E-02 0. -1.
          2    1    1    2    0  502  0.19217977389E+02  0.11842584301E+02  0.80846143387E+02  0.83938527297E+02  0.25500000000E-02 0. -1.
         -2    1    1    2  502    0 -0.19217977389E+02 -0.11842584301E+02  0.68689502099E+02  0.72303700894E+02  0.25500000000E-02 0. -1.
<mgrwt>
<rscale>  0 0.45284927E+02</rscale>
<asrwt>0</asrwt>
<pdfrwt beam="1">  1        2 0.23521376E-01 0.45284927E+02</pdfrwt>
<pdfrwt beam="2">  1       -2 0.51589096E-03 0.45284927E+02</pdfrwt>
<totfact> 0.86514945E+05</totfact>
</mgrwt>
</event>
<event>
 4    1  0.2196664E-002  0.7881835E+02  0.7818608E-02  0.1332439E+00
         -2   -1    0    0  501    0 -0.00000000000E+00  0.00000000000E+00  0.19950771134E+01  0.19950787431E+01  0.25500000000E-02 0.  1.
          2   -1    0    0    0  501  0.00000000000E+00 -0.00000000000E+00 -0.77845741612E+03  0.77845741613E+03  0.25500000000E-02 0.  1.
          2    1    1    2    0  502  0.33053256693E+02  0.15834519539E+02 -0.24479573837E+03  0.24752414694E+03  0.25500000000E-02 0.  1.
         -2    1    1    2  502    0 -0.33053256693E+02 -0.15834519539E+02 -0.53166660064E+03  0.53292834793E+03  0.25500000000E-02 0.  1.
<mgrwt>
<rscale>  0 0.78818354E+02</rscale>
<asrwt>0</asrwt>
<pdfrwt beam="2">  1        2 0.11976244E+00 0.78818354E+02</pdfrwt>
<pdfrwt beam="1">  1       -2 0.30693569E-03 0.78818354E+02</pdfrwt>
<totfact> 0.35502408E+05</totfact>
</mgrwt>
</event>
<event>
 4    1  0.2196664E-002  0.7116955E+02  0.7818608E-02  0.1356161E+00
         -2   -1    0    0  501    0 -0.00000000000E+00  0.00000000000E+00  0.20181188069E+01  0.20181204180E+01  0.25500000000E-02 0.  1.
          2   -1    0    0    0  501  0.00000000000E+00 -0.00000000000E+00 -0.62745347462E+03  0.62745347463E+03  0.25500000000E-02 0.  1.
          2    1    1    2    0  502  0.13604973993E+02  0.31470209309E+02 -0.22843447413E+03  0.23099302666E+03  0.25500000000E-02 0.  1.
         -2    1    1    2  502    0 -0.13604973993E+02 -0.31470209309E+02 -0.39700088169E+03  0.39847856838E+03  0.25500000000E-02 0.  1.
<mgrwt>
<rscale>  0 0.71169549E+02</rscale>
<asrwt>0</asrwt>
<pdfrwt beam="2">  1        2 0.96531148E-01 0.71169549E+02</pdfrwt>
<pdfrwt beam="1">  1       -2 0.31048044E-03 0.71169549E+02</pdfrwt>
<totfact> 0.43998733E+05</totfact>
</mgrwt>
</event>
<event>
 4    1  0.2196664E-002  0.4290026E+02  0.7818608E-02  0.1487892E+00
         -2   -1    0    0  501    0 -0.00000000000E+00  0.00000000000E+00  0.51363758696E+01  0.51363765026E+01  0.25500000000E-02 0.  1.
          2   -1    0    0    0  501  0.00000000000E+00 -0.00000000000E+00 -0.89578331761E+02  0.89578331797E+02  0.25500000000E-02 0.  1.
          2    1    1    2    0  502 -0.88532533986E+01 -0.19526264612E+02 -0.40735181247E+02  0.46032706885E+02  0.25500000000E-02 0. -1.
         -2    1    1    2  502    0  0.88532533986E+01  0.19526264612E+02 -0.43706774644E+02  0.48682001415E+02  0.25500000000E-02 0. -1.
<mgrwt>
<rscale>  0 0.42900257E+02</rscale>
<asrwt>0</asrwt>
<pdfrwt beam="2">  1        2 0.13781281E-01 0.42900257E+02</pdfrwt>
<pdfrwt beam="1">  1       -2 0.79021179E-03 0.42900257E+02</pdfrwt>
<totfact> 0.85548055E+05</totfact>
</mgrwt>
</event>
<event>
 4    1  0.2196664E-002  0.6685776E+02  0.7818608E-02  0.1371117E+00
         -2   -1    0    0  501    0 -0.00000000000E+00  0.00000000000E+00  0.87845213489E+00  0.87845583600E+00  0.25500000000E-02 0. -1.
          2   -1    0    0    0  501  0.00000000000E+00 -0.00000000000E+00 -0.12721099559E+04  0.12721099559E+04  0.25500000000E-02 0. -1.
          2    1    1    2    0  502 -0.27930354194E+02  0.17632542159E+02 -0.53763923253E+03  0.53865290828E+03  0.25500000000E-02 0. -1.
         -2    1    1    2  502    0  0.27930354194E+02 -0.17632542159E+02 -0.73359227120E+03  0.73433550343E+03  0.25500000000E-02 0. -1.
<mgrwt>
<rscale>  0 0.66857761E+02</rscale>
<asrwt>0</asrwt>
<pdfrwt beam="2">  1        2 0.19570775E+00 0.66857761E+02</pdfrwt>
<pdfrwt beam="1">  1       -2 0.13514778E-03 0.66857761E+02</pdfrwt>
<totfact> 0.55126585E+05</totfact>
</mgrwt>
</event>
<event>
 4    1  0.2196664E-002  0.4108745E+02  0.7818608E-02  0.1500358E+00
         -2   -1    0    0  501    0 -0.00000000000E+00  0.00000000000E+00  0.31431077009E+00  0.31432111398E+00  0.25500000000E-02 0. -1.
          2   -1    0    0    0  501  0.00000000000E+00 -0.00000000000E+00 -0.13427399274E+04  0.13427399274E+04  0.25500000000E-02 0. -1.
          2    1    1    2    0  502 -0.19181118903E+02  0.65111491427E+01 -0.78318513648E+03  0.78344704250E+03  0.25500000000E-02 0.  1.
         -2    1    1    2  502    0  0.19181118903E+02 -0.65111491427E+01 -0.55924048016E+03  0.55960720603E+03  0.25500000000E-02 0.  1.
<mgrwt>
<rscale>  0 0.41087447E+02</rscale>
<asrwt>0</asrwt>
<pdfrwt beam="2">  1        2 0.20657078E+00 0.41087447E+02</pdfrwt>
<pdfrwt beam="1">  1       -2 0.48357374E-04 0.41087447E+02</pdfrwt>
<totfact> 0.18297241E+06</totfact>
</mgrwt>
</event>
<event>
 4    1  0.2196664E-002  0.1911707E+03  0.7818608E-02  0.1157410E+00
          2   -1    0    0    0  501  0.00000000000E+00  0.00000000000E+00  0.49338806804E+03  0.49338806804E+03  0.25500000000E-02 0.  1.
         -2   -1    0    0  501    0 -0.00000000000E+00 -0.00000000000E+00 -0.18518000538E+02  0.18518000713E+02  0.25500000000E-02 0.  1.
          2    1    1    2    0  502 -0.79348146179E+02 -0.35534079207E+02  0.34379779075E+03  0.35462052961E+03  0.25500000000E-02 0. -1.
         -2    1    1    2  502    0  0.79348146179E+02  0.35534079207E+02  0.13107227675E+03  0.15728553915E+03  0.25500000000E-02 0. -1.
<mgrwt>
<rscale>  0 0.19117071E+03</rscale>
<asrwt>0</asrwt>
<pdfrwt beam="1">  1        2 0.75905842E-01 0.19117071E+03</pdfrwt>
<pdfrwt beam="2">  1       -2 0.28489237E-02 0.19117071E+03</pdfrwt>
<totfact> 0.27898826E+04</totfact>
</mgrwt>
</event>
<event>
 4    1  0.2196664E-002  0.4528155E+02  0.7818608E-02  0.1472592E+00
         -2   -1    0    0  501    0 -0.00000000000E+00  0.00000000000E+00  0.41717580205E+00  0.41718359546E+00  0.25500000000E-02 0.  1.
          2   -1    0    0    0  501  0.00000000000E+00 -0.00000000000E+00 -0.12287380697E+04  0.12287380697E+04  0.25500000000E-02 0.  1.
          2    1    1    2    0  502 -0.13472831197E+01 -0.21168890624E+02 -0.39927520293E+03  0.39983824828E+03  0.25500000000E-02 0.  1.
         -2    1    1    2  502    0  0.13472831197E+01  0.21168890624E+02 -0.82904569097E+03  0.82931700502E+03  0.25500000000E-02 0.  1.
<mgrwt>
<rscale>  0 0.45281545E+02</rscale>
<asrwt>0</asrwt>
<pdfrwt beam="2">  1        2 0.18903373E+00 0.45281545E+02</pdfrwt>
<pdfrwt beam="1">  1       -2 0.64182476E-04 0.45281545E+02</pdfrwt>
<totfact> 0.14660302E+06</totfact>
</mgrwt>
</event>
<event>
 4    1  0.2196664E-002  0.5708798E+02  0.7818608E-02  0.1410475E+00
          2   -1    0    0    0  501  0.00000000000E+00  0.00000000000E+00  0.56918297100E+03  0.56918297101E+03  0.25500000000E-02 0. -1.
         -2   -1    0    0  501    0 -0.00000000000E+00 -0.00000000000E+00 -0.14314532877E+01  0.14314555589E+01  0.25500000000E-02 0. -1.
          2    1    1    2    0  502  0.25863554722E+02  0.14640765214E+00  0.16317819198E+03  0.16521521492E+03  0.25500000000E-02 0.  1.
         -2    1    1    2  502    0 -0.25863554722E+02 -0.14640765214E+00  0.40457332573E+03  0.40539921164E+03  0.25500000000E-02 0.  1.
<mgrwt>
<rscale>  0 0.57087984E+02</rscale>
<asrwt>0</asrwt>
<pdfrwt beam="1">  1        2 0.87566729E-01 0.57087984E+02</pdfrwt>
<pdfrwt beam="2">  1       -2 0.22022346E-03 0.57087984E+02</pdfrwt>
<totfact> 0.75016197E+05</totfact>
</mgrwt>
</event>
<event>
 4    1  0.2196664E-002  0.2159641E+03  0.7818608E-02  0.1136928E+00
          2   -1    0    0    0  501  0.00000000000E+00  0.00000000000E+00  0.12663074950E+04  0.12663074950E+04  0.25500000000E-02 0. -1.
         -2   -1    0    0  501    0 -0.00000000000E+00 -0.00000000000E+00 -0.92079751336E+01  0.92079754867E+01  0.25500000000E-02 0. -1.
          2    1    1    2    0  502 -0.93094640826E+01  0.86338834170E+02  0.24949361627E+03  0.26417442150E+03  0.25500000000E-02 0.  1.
         -2    1    1    2  502    0  0.93094640826E+01 -0.86338834170E+02  0.10076059036E+04  0.10113410489E+04  0.25500000000E-02 0.  1.
<mgrwt>
<rscale>  0 0.21596415E+03</rscale>
<asrwt>0</asrwt>
<pdfrwt beam="1">  1        2 0.19481656E+00 0.21596415E+03</pdfrwt>
<pdfrwt beam="2">  1       -2 0.14166114E-02 0.21596415E+03</pdfrwt>
<totfact> 0.23192233E+04</totfact>
</mgrwt>
</event>
<event>
 4    1  0.2196664E-002  0.5338455E+02  0.7818608E-02  0.1427897E+00
         -2   -1    0    0  501    0 -0.00000000000E+00  0.00000000000E+00  0.23271770081E+01  0.23271784051E+01  0.25500000000E-02 0. -1.
          2   -1    0    0    0  501  0.00000000000E+00 -0.00000000000E+00 -0.30615513640E+03  0.30615513641E+03  0.25500000000E-02 0. -1.
          2    1    1    2    0  502  0.62539334935E+01  0.25307118357E+02 -0.11876159064E+03  0.12158896883E+03  0.25500000000E-02 0. -1.
         -2    1    1    2  502    0 -0.62539334935E+01 -0.25307118357E+02 -0.18506636876E+03  0.18689334599E+03  0.25500000000E-02 0. -1.
<mgrwt>
<rscale>  0 0.53384545E+02</rscale>
<asrwt>0</asrwt>
<pdfrwt beam="2">  1        2 0.47100758E-01 0.53384545E+02</pdfrwt>
<pdfrwt beam="1">  1       -2 0.35802758E-03 0.53384545E+02</pdfrwt>
<totfact> 0.72333232E+05</totfact>
</mgrwt>
</event>
<event>
 4    1  0.2196664E-002  0.6841014E+02  0.7818608E-02  0.1365584E+00
         -2   -1    0    0  501    0 -0.00000000000E+00  0.00000000000E+00  0.24905044978E+01  0.24905058033E+01  0.25500000000E-02 0.  1.
          2   -1    0    0    0  501  0.00000000000E+00 -0.00000000000E+00 -0.46977894127E+03  0.46977894127E+03  0.25500000000E-02 0.  1.
          2    1    1    2    0  502  0.37066325873E+01  0.33749326905E+02 -0.20498789021E+03  0.20778063271E+03  0.25500000000E-02 0. -1.
         -2    1    1    2  502    0 -0.37066325873E+01 -0.33749326905E+02 -0.26230054656E+03  0.26448881436E+03  0.25500000000E-02 0. -1.
<mgrwt>
<rscale>  0 0.68410142E+02</rscale>
<asrwt>0</asrwt>
<pdfrwt beam="2">  1        2 0.72273613E-01 0.68410142E+02</pdfrwt>
<pdfrwt beam="1">  1       -2 0.38315501E-03 0.68410142E+02</pdfrwt>
<totfact> 0.44660321E+05</totfact>
</mgrwt>
</event>
<event>
 4    1  0.2196664E-002  0.4236947E+02  0.7818608E-02  0.1491465E+00
          2   -1    0    0    0  501  0.00000000000E+00  0.00000000000E+00  0.29312838266E+03  0.29312838267E+03  0.25500000000E-02 0.  1.
         -2   -1    0    0  501    0 -0.00000000000E+00 -0.00000000000E+00 -0.15310447605E+01  0.15310468841E+01  0.25500000000E-02 0.  1.
          2    1    1    2    0  502  0.14859251724E+02  0.14009912318E+02  0.10663169137E+03  0.10856975922E+03  0.25500000000E-02 0.  1.
         -2    1    1    2  502    0 -0.14859251724E+02 -0.14009912318E+02  0.18496564653E+03  0.18608967034E+03  0.25500000000E-02 0.  1.
<mgrwt>
<rscale>  0 0.42369470E+02</rscale>
<asrwt>0</asrwt>
<pdfrwt beam="1">  1        2 0.45096718E-01 0.42369470E+02</pdfrwt>
<pdfrwt beam="2">  1       -2 0.23554529E-03 0.42369470E+02</pdfrwt>
<totfact> 0.12620766E+06</totfact>
</mgrwt>
</event>
<event>
 4    1  0.2196664E-002  0.4691920E+02  0.7818608E-02  0.1462704E+00
         -2   -1    0    0  501    0 -0.00000000000E+00  0.00000000000E+00  0.40459931077E+00  0.40460734642E+00  0.25500000000E-02 0. -1.
          2   -1    0    0    0  501  0.00000000000E+00 -0.00000000000E+00 -0.13602282977E+04  0.13602282977E+04  0.25500000000E-02 0. -1.
          2    1    1    2    0  502 -0.16025125784E+02  0.12043582827E+02 -0.32652199010E+03  0.32713676432E+03  0.25500000000E-02 0.  1.
         -2    1    1    2  502    0  0.16025125784E+02 -0.12043582827E+02 -0.10333017083E+04  0.10334961407E+04  0.25500000000E-02 0.  1.
<mgrwt>
<rscale>  0 0.46919203E+02</rscale>
<asrwt>0</asrwt>
<pdfrwt beam="2">  1        2 0.20926223E+00 0.46919203E+02</pdfrwt>
<pdfrwt beam="1">  1       -2 0.62247755E-04 0.46919203E+02</pdfrwt>
<totfact> 0.13198604E+06</totfact>
</mgrwt>
</event>
<event>
 4    1  0.2196664E-002  0.1521713E+03  0.7818608E-02  0.1197830E+00
         -2   -1    0    0  501    0 -0.00000000000E+00  0.00000000000E+00  0.16245216777E+02  0.16245216977E+02  0.25500000000E-02 0.  1.
          2   -1    0    0    0  501  0.00000000000E+00 -0.00000000000E+00 -0.35635257443E+03  0.35635257444E+03  0.25500000000E-02 0.  1.
          2    1    1    2    0  502  0.23860910903E+02 -0.22660574412E+02 -0.20797627673E+01  0.32972262911E+02  0.25500000000E-02 0. -1.
         -2    1    1    2  502    0 -0.23860910903E+02  0.22660574412E+02 -0.33802759489E+03  0.33962552851E+03  0.25500000000E-02 0. -1.
<mgrwt>
<rscale>  0 0.15217128E+03</rscale>
<asrwt>0</asrwt>
<pdfrwt beam="2">  1        2 0.54823467E-01 0.15217128E+03</pdfrwt>
<pdfrwt beam="1">  1       -2 0.24992644E-02 0.15217128E+03</pdfrwt>
<totfact> 0.47087266E+04</totfact>
</mgrwt>
</event>
<event>
 4    1  0.2196664E-002  0.5586304E+02  0.7818608E-02  0.1416061E+00
         -2   -1    0    0  501    0 -0.00000000000E+00  0.00000000000E+00  0.39996704087E+00  0.39997516958E+00  0.25500000000E-02 0.  1.
          2   -1    0    0    0  501  0.00000000000E+00 -0.00000000000E+00 -0.19505652557E+04  0.19505652557E+04  0.25500000000E-02 0.  1.
          2    1    1    2    0  502  0.53579074469E+01 -0.25999786277E+02 -0.12784876509E+04  0.12787632187E+04  0.25500000000E-02 0. -1.
         -2    1    1    2  502    0 -0.53579074469E+01  0.25999786277E+02 -0.67167763781E+03  0.67220201219E+03  0.25500000000E-02 0. -1.
<mgrwt>
<rscale>  0 0.55863038E+02</rscale>
<asrwt>0</asrwt>
<pdfrwt beam="2">  1        2 0.30007935E+00 0.55863038E+02</pdfrwt>
<pdfrwt beam="1">  1       -2 0.61535578E-04 0.55863038E+02</pdfrwt>
<totfact> 0.71265929E+05</totfact>
</mgrwt>
</event>
<event>
 4    1  0.2196664E-002  0.4870570E+02  0.7818608E-02  0.1452450E+00
         -2   -1    0    0  501    0 -0.00000000000E+00  0.00000000000E+00  0.32412574827E+02  0.32412574927E+02  0.25500000000E-02 0.  1.
          2   -1    0    0    0  501  0.00000000000E+00 -0.00000000000E+00 -0.18297258068E+02  0.18297258246E+02  0.25500000000E-02 0.  1.
          2    1    1    2    0  502  0.63372284018E+01 -0.20801021553E+02  0.18473230319E+02  0.28532493869E+02  0.25500000000E-02 0. -1.
         -2    1    1    2  502    0 -0.63372284018E+01  0.20801021553E+02 -0.43579135608E+01  0.22177339303E+02  0.25500000000E-02 0. -1.
<mgrwt>
<rscale>  0 0.48705698E+02</rscale>
<asrwt>0</asrwt>
<pdfrwt beam="2">  1        2 0.28149628E-02 0.48705698E+02</pdfrwt>
<pdfrwt beam="1">  1       -2 0.49865499E-02 0.48705698E+02</pdfrwt>
<totfact> 0.46571548E+05</totfact>
</mgrwt>
</event>
<event>
 4    1  0.2196664E-002  0.4292346E+02  0.7818608E-02  0.1487738E+00
         -2   -1    0    0  501    0 -0.00000000000E+00  0.00000000000E+00  0.87187614397E+00  0.87187987299E+00  0.25500000000E-02 0. -1.
          2   -1    0    0    0  501  0.00000000000E+00 -0.00000000000E+00 -0.52829154830E+03  0.52829154831E+03  0.25500000000E-02 0. -1.
          2    1    1    2    0  502 -0.11934073179E+02  0.17802491409E+02 -0.27752044963E+03  0.27834681743E+03  0.25500000000E-02 0.  1.
         -2    1    1    2  502    0  0.11934073179E+02 -0.17802491409E+02 -0.24989922253E+03  0.25081661075E+03  0.25500000000E-02 0.  1.
<mgrwt>
<rscale>  0 0.42923457E+02</rscale>
<asrwt>0</asrwt>
<pdfrwt beam="2">  1        2 0.81275367E-01 0.42923457E+02</pdfrwt>
<pdfrwt beam="1">  1       -2 0.13413550E-03 0.42923457E+02</pdfrwt>
<totfact> 0.14843399E+06</totfact>
</mgrwt>
</event>
<event>
 4    1  0.2196664E-002  0.7902744E+02  0.7818608E-02  0.1331834E+00
         -2   -1    0    0  501    0 -0.00000000000E+00  0.00000000000E+00  0.21591875093E+01  0.21591890151E+01  0.25500000000E-02 0.  1.
          2   -1    0    0    0  501  0.00000000000E+00 -0.00000000000E+00 -0.72311161933E+03  0.72311161933E+03  0.25500000000E-02 0.  1.
          2    1    1    2    0  502  0.95297014645E+01  0.38142885113E+02 -0.32418263181E+03  0.32655791779E+03  0.25500000000E-02 0.  1.
         -2    1    1    2  502    0 -0.95297014645E+01 -0.38142885113E+02 -0.39676980001E+03  0.39871289056E+03  0.25500000000E-02 0.  1.
<mgrwt>
<rscale>  0 0.79027441E+02</rscale>
<asrwt>0</asrwt>
<pdfrwt beam="2">  1        2 0.11124775E+00 0.79027441E+02</pdfrwt>
<pdfrwt beam="1">  1       -2 0.33218339E-03 0.79027441E+02</pdfrwt>
<totfact> 0.34736320E+05</totfact>
</mgrwt>
</event>
<event>
 4    1  0.2196664E-002  0.1032114E+03  0.7818608E-02  0.1273684E+00
         -2   -1    0    0  501    0 -0.00000000000E+00  0.00000000000E+00  0.20709938232E+02  0.20709938388E+02  0.25500000000E-02 0. -1.
          2   -1    0    0    0  501  0.00000000000E+00 -0.00000000000E+00 -0.12859271778E+03  0.12859271781E+03  0.25500000000E-02 0. -1.
          2    1    1    2    0  502  0.29187682423E+02  0.35615667015E+02 -0.20240594690E+02  0.50299882923E+02  0.25500000000E-02 0. -1.
         -2    1    1    2  502    0 -0.29187682423E+02 -0.35615667015E+02 -0.87642184861E+02  0.99002773274E+02  0.25500000000E-02 0. -1.
<mgrwt>
<rscale>  0 0.10321138E+03</rscale>
<asrwt>0</asrwt>
<pdfrwt beam="2">  1        2 0.19783495E-01 0.10321138E+03</pdfrwt>
<pdfrwt beam="1">  1       -2 0.31861444E-02 0.10321138E+03</pdfrwt>
<totfact> 0.94408817E+04</totfact>
</mgrwt>
</event>
<event>
 4    1  0.2196664E-002  0.4520388E+02  0.7818608E-02  0.1473073E+00
         -2   -1    0    0  501    0 -0.00000000000E+00  0.00000000000E+00  0.10110662259E+01  0.10110694416E+01  0.25500000000E-02 0. -1.
          2   -1    0    0    0  501  0.00000000000E+00 -0.00000000000E+00 -0.50525554837E+03  0.50525554837E+03  0.25500000000E-02 0. -1.
          2    1    1    2    0  502  0.19632314520E+02  0.81005992384E+01 -0.33872958741E+03  0.33939472724E+03  0.25500000000E-02 0. -1.
         -2    1    1    2  502    0 -0.19632314520E+02 -0.81005992384E+01 -0.16551489473E+03  0.16687189058E+03  0.25500000000E-02 0. -1.
<mgrwt>
<rscale>  0 0.45203878E+02</rscale>
<asrwt>0</asrwt>
<pdfrwt beam="2">  1        2 0.77731422E-01 0.45203878E+02</pdfrwt>
<pdfrwt beam="1">  1       -2 0.15554930E-03 0.45203878E+02</pdfrwt>
<totfact> 0.12912004E+06</totfact>
</mgrwt>
</event>
<event>
 4    1  0.2196664E-002  0.6672406E+02  0.7818608E-02  0.1371601E+00
          2   -1    0    0    0  501  0.00000000000E+00  0.00000000000E+00  0.12286673274E+03  0.12286673277E+03  0.25500000000E-02 0.  1.
         -2   -1    0    0  501    0 -0.00000000000E+00 -0.00000000000E+00 -0.90587997007E+01  0.90588000596E+01  0.25500000000E-02 0.  1.
          2    1    1    2    0  502  0.15738831005E+02 -0.12569421992E+02  0.43197314379E+01  0.20600030505E+02  0.25500000000E-02 0. -1.
         -2    1    1    2  502    0 -0.15738831005E+02  0.12569421992E+02  0.10948820161E+03  0.11132550232E+03  0.25500000000E-02 0. -1.
<mgrwt>
<rscale>  0 0.66724063E+02</rscale>
<asrwt>0</asrwt>
<pdfrwt beam="1">  1        2 0.18902574E-01 0.66724063E+02</pdfrwt>
<pdfrwt beam="2">  1       -2 0.13936615E-02 0.66724063E+02</pdfrwt>
<totfact> 0.30156000E+05</totfact>
</mgrwt>
</event>
<event>
 4    1  0.2196664E-002  0.6908524E+02  0.7818608E-02  0.1363232E+00
          2   -1    0    0    0  501  0.00000000000E+00  0.00000000000E+00  0.83021454560E+03  0.83021454561E+03  0.25500000000E-02 0. -1.
         -2   -1    0    0  501    0 -0.00000000000E+00 -0.00000000000E+00 -0.14372088336E+01  0.14372110958E+01  0.25500000000E-02 0. -1.
          2    1    1    2    0  502 -0.14313433358E+02 -0.20653186124E+02  0.12906799416E+03  0.13149135179E+03  0.25500000000E-02 0. -1.
         -2    1    1    2  502    0  0.14313433358E+02  0.20653186124E+02  0.69970934260E+03  0.70016040491E+03  0.25500000000E-02 0. -1.
<mgrwt>
<rscale>  0 0.69085241E+02</rscale>
<asrwt>0</asrwt>
<pdfrwt beam="1">  1        2 0.12772558E+00 0.69085241E+02</pdfrwt>
<pdfrwt beam="2">  1       -2 0.22110876E-03 0.69085241E+02</pdfrwt>
<totfact> 0.50419795E+05</totfact>
</mgrwt>
</event>
<event>
 4    1  0.2196664E-002  0.4234270E+02  0.7818608E-02  0.1491647E+00
          2   -1    0    0    0  501  0.00000000000E+00  0.00000000000E+00  0.15444803052E+01  0.15444824103E+01  0.25500000000E-02 0.  1.
         -2   -1    0    0  501    0 -0.00000000000E+00 -0.00000000000E+00 -0.29021132088E+03  0.29021132089E+03  0.25500000000E-02 0.  1.
          2    1    1    2    0  502 -0.19840888969E+02  0.73722653786E+01 -0.14113998662E+03  0.14271827844E+03  0.25500000000E-02 0.  1.
         -2    1    1    2  502    0  0.19840888969E+02 -0.73722653786E+01 -0.14752685395E+03  0.14903752485E+03  0.25500000000E-02 0.  1.
<mgrwt>
<rscale>  0 0.42342696E+02</rscale>
<asrwt>0</asrwt>
<pdfrwt beam="1">  1        2 0.23761275E-03 0.42342696E+02</pdfrwt>
<pdfrwt beam="2">  1       -2 0.44647852E-01 0.42342696E+02</pdfrwt>
<totfact> 0.35460354E+05</totfact>
</mgrwt>
</event>
<event>
 4    1  0.2196664E-002  0.6009452E+02  0.7818608E-02  0.1397436E+00
         -2   -1    0    0  501    0 -0.00000000000E+00  0.00000000000E+00  0.68501987188E+01  0.68501991934E+01  0.25500000000E-02 0. -1.
          2   -1    0    0    0  501  0.00000000000E+00 -0.00000000000E+00 -0.13179731317E+03  0.13179731319E+03  0.25500000000E-02 0. -1.
          2    1    1    2    0  502 -0.15281685220E+02 -0.20021352577E+02 -0.24671831239E+02  0.35257392492E+02  0.25500000000E-02 0.  1.
         -2    1    1    2  502    0  0.15281685220E+02  0.20021352577E+02 -0.10027528321E+03  0.10339011989E+03  0.25500000000E-02 0.  1.
<mgrwt>
<rscale>  0 0.60094520E+02</rscale>
<asrwt>0</asrwt>
<pdfrwt beam="2">  1        2 0.20276508E-01 0.60094520E+02</pdfrwt>
<pdfrwt beam="1">  1       -2 0.10538769E-02 0.60094520E+02</pdfrwt>
<totfact> 0.40425334E+05</totfact>
</mgrwt>
</event>
<event>
 4    1  0.2196664E-002  0.7380420E+02  0.7818608E-02  0.1347615E+00
         -2   -1    0    0  501    0 -0.00000000000E+00  0.00000000000E+00  0.22968554616E+03  0.22968554617E+03  0.25500000000E-02 0. -1.
          2   -1    0    0    0  501  0.00000000000E+00 -0.00000000000E+00 -0.59288227315E+01  0.59288232799E+01  0.25500000000E-02 0. -1.
          2    1    1    2    0  502  0.34586582085E+02  0.12825413372E+02  0.11513722953E+03  0.12090204514E+03  0.25500000000E-02 0. -1.
         -2    1    1    2  502    0 -0.34586582085E+02 -0.12825413372E+02  0.10861949389E+03  0.11471232431E+03  0.25500000000E-02 0. -1.
<mgrwt>
<rscale>  0 0.73804199E+02</rscale>
<asrwt>0</asrwt>
<pdfrwt beam="2">  1        2 0.91212659E-03 0.73804199E+02</pdfrwt>
<pdfrwt beam="1">  1       -2 0.35336239E-01 0.73804199E+02</pdfrwt>
<totfact> 0.10034073E+05</totfact>
</mgrwt>
</event>
<event>
 4    1  0.2196664E-002  0.4159452E+02  0.7818608E-02  0.1496795E+00
         -2   -1    0    0  501    0 -0.00000000000E+00  0.00000000000E+00  0.76844054417E+03  0.76844054417E+03  0.25500000000E-02 0. -1.
          2   -1    0    0    0  501  0.00000000000E+00 -0.00000000000E+00 -0.56285924457E+00  0.56286502086E+00  0.25500000000E-02 0. -1.
          2    1    1    2    0  502  0.13949863748E+01  0.20483122371E+02  0.32256006882E+03  0.32321278176E+03  0.25500000000E-02 0. -1.
         -2    1    1    2  502    0 -0.13949863748E+01 -0.20483122371E+02  0.44531761610E+03  0.44579062743E+03  0.25500000000E-02 0. -1.
<mgrwt>
<rscale>  0 0.41594523E+02</rscale>
<asrwt>0</asrwt>
<pdfrwt beam="2">  1        2 0.86594239E-04 0.41594523E+02</pdfrwt>
<pdfrwt beam="1">  1       -2 0.11822153E+00 0.41594523E+02</pdfrwt>
<totfact> 0.17720642E+05</totfact>
</mgrwt>
</event>
<event>
 4    1  0.2196664E-002  0.9938106E+02  0.7818608E-02  0.1281603E+00
         -2   -1    0    0  501    0 -0.00000000000E+00  0.00000000000E+00  0.37922500374E+02  0.37922500460E+02  0.25500000000E-02 0. -1.
          2   -1    0    0    0  501  0.00000000000E+00 -0.00000000000E+00 -0.65110384003E+02  0.65110384053E+02  0.25500000000E-02 0. -1.
          2    1    1    2    0  502  0.24621766963E+02 -0.30559327698E+02  0.18006310030E+02  0.43177900888E+02  0.25500000000E-02 0.  1.
         -2    1    1    2  502    0 -0.24621766963E+02  0.30559327698E+02 -0.45194193659E+02  0.59854983625E+02  0.25500000000E-02 0.  1.
<mgrwt>
<rscale>  0 0.99381056E+02</rscale>
<asrwt>0</asrwt>
<pdfrwt beam="2">  1        2 0.10016982E-01 0.99381056E+02</pdfrwt>
<pdfrwt beam="1">  1       -2 0.58342308E-02 0.99381056E+02</pdfrwt>
<totfact> 0.84963154E+04</totfact>
</mgrwt>
</event>
<event>
 4    1  0.2196664E-002  0.5911431E+02  0.7818608E-02  0.1401587E+00
         -2   -1    0    0  501    0 -0.00000000000E+00  0.00000000000E+00  0.35589797486E+01  0.35589806621E+01  0.25500000000E-02 0. -1.
          2   -1    0    0    0  501  0.00000000000E+00 -0.00000000000E+00 -0.24547070028E+03  0.24547070030E+03  0.25500000000E-02 0. -1.
          2    1    1    2    0  502 -0.14178890228E+02 -0.24375620291E+02 -0.83651971725E+02  0.88277200753E+02  0.25500000000E-02 0. -1.
         -2    1    1    2  502    0  0.14178890228E+02  0.24375620291E+02 -0.15825974881E+03  0.16075248021E+03  0.25500000000E-02 0. -1.
<mgrwt>
<rscale>  0 0.59114308E+02</rscale>
<asrwt>0</asrwt>
<pdfrwt beam="2">  1        2 0.37764710E-01 0.59114308E+02</pdfrwt>
<pdfrwt beam="1">  1       -2 0.54753561E-03 0.59114308E+02</pdfrwt>
<totfact> 0.51720897E+05</totfact>
</mgrwt>
</event>
<event>
 4    1  0.2196664E-002  0.5086101E+02  0.7818608E-02  0.1440752E+00
         -2   -1    0    0  501    0 -0.00000000000E+00  0.00000000000E+00  0.16315243077E+02  0.16315243276E+02  0.25500000000E-02 0.  1.
          2   -1    0    0    0  501  0.00000000000E+00 -0.00000000000E+00 -0.39638424237E+02  0.39638424319E+02  0.25500000000E-02 0.  1.
          2    1    1    2    0  502 -0.19991321940E+02  0.13424245304E+02 -0.20656260863E+02  0.31726084445E+02  0.25500000000E-02 0.  1.
         -2    1    1    2  502    0  0.19991321940E+02 -0.13424245304E+02 -0.26669202967E+01  0.24227583149E+02  0.25500000000E-02 0.  1.
<mgrwt>
<rscale>  0 0.50861008E+02</rscale>
<asrwt>0</asrwt>
<pdfrwt beam="2">  1        2 0.60982191E-02 0.50861008E+02</pdfrwt>
<pdfrwt beam="1">  1       -2 0.25100374E-02 0.50861008E+02</pdfrwt>
<totfact> 0.47050549E+05</totfact>
</mgrwt>
</event>
<event>
 4    1  0.2196664E-002  0.5669754E+02  0.7818608E-02  0.1412237E+00
         -2   -1    0    0  501    0 -0.00000000000E+00  0.00000000000E+00  0.32019529449E+00  0.32020544829E+00  0.25500000000E-02 0.  1.
          2   -1    0    0    0  501  0.00000000000E+00 -0.00000000000E+00 -0.25098436592E+04  0.25098436592E+04  0.25500000000E-02 0.  1.
          2    1    1    2    0  502  0.90557532307E+01 -0.26194462288E+02 -0.15185343194E+04  0.15187872253E+04  0.25500000000E-02 0.  1.
         -2    1    1    2  502    0 -0.90557532307E+01  0.26194462288E+02 -0.99098914451E+03  0.99137663936E+03  0.25500000000E-02 0.  1.
<mgrwt>
<rscale>  0 0.56697544E+02</rscale>
<asrwt>0</asrwt>
<pdfrwt beam="2">  1        2 0.38611404E+00 0.56697544E+02</pdfrwt>
<pdfrwt beam="1">  1       -2 0.49263606E-04 0.56697544E+02</pdfrwt>
<totfact> 0.50728408E+05</totfact>
</mgrwt>
</event>
<event>
 4    1  0.2196664E-002  0.3114174E+03  0.7818608E-02  0.1079668E+00
         -2   -1    0    0  501    0 -0.00000000000E+00  0.00000000000E+00  0.16927590096E+02  0.16927590288E+02  0.25500000000E-02 0. -1.
          2   -1    0    0    0  501  0.00000000000E+00 -0.00000000000E+00 -0.14322884668E+04  0.14322884669E+04  0.25500000000E-02 0. -1.
          2    1    1    2    0  502  0.41413191588E+02 -0.15007472624E+03 -0.72060735749E+03  0.73723296153E+03  0.25500000000E-02 0.  1.
         -2    1    1    2  502    0 -0.41413191588E+02  0.15007472624E+03 -0.69475351927E+03  0.71198309561E+03  0.25500000000E-02 0.  1.
<mgrwt>
<rscale>  0 0.31141735E+03</rscale>
<asrwt>0</asrwt>
<pdfrwt beam="2">  1        2 0.22035198E+00 0.31141735E+03</pdfrwt>
<pdfrwt beam="1">  1       -2 0.26042458E-02 0.31141735E+03</pdfrwt>
<totfact> 0.77802228E+03</totfact>
</mgrwt>
</event>
<event>
 4    1  0.2196664E-002  0.5514844E+02  0.7818608E-02  0.1419398E+00
          2   -1    0    0    0  501  0.00000000000E+00  0.00000000000E+00  0.67782208015E+03  0.67782208015E+03  0.25500000000E-02 0. -1.
         -2   -1    0    0  501    0 -0.00000000000E+00 -0.00000000000E+00 -0.11217347702E+01  0.11217376687E+01  0.25500000000E-02 0. -1.
          2    1    1    2    0  502  0.17447235974E+02 -0.98693694339E+01  0.10523980194E+03  0.10713181794E+03  0.25500000000E-02 0. -1.
         -2    1    1    2  502    0 -0.17447235974E+02  0.98693694339E+01  0.57146054344E+03  0.57181199988E+03  0.25500000000E-02 0. -1.
<mgrwt>
<rscale>  0 0.55148439E+02</rscale>
<asrwt>0</asrwt>
<pdfrwt beam="1">  1        2 0.10428030E+00 0.55148439E+02</pdfrwt>
<pdfrwt beam="2">  1       -2 0.17257483E-03 0.55148439E+02</pdfrwt>
<totfact> 0.85634748E+05</totfact>
</mgrwt>
</event>
<event>
 4    1  0.2196664E-002  0.6142928E+02  0.7818608E-02  0.1391930E+00
         -2   -1    0    0  501    0 -0.00000000000E+00  0.00000000000E+00  0.44970136870E+00  0.44970859844E+00  0.25500000000E-02 0. -1.
          2   -1    0    0    0  501  0.00000000000E+00 -0.00000000000E+00 -0.20977955169E+04  0.20977955169E+04  0.25500000000E-02 0. -1.
          2    1    1    2    0  502 -0.27777002755E+02 -0.12722131566E+02 -0.11565497348E+04  0.11569531986E+04  0.25500000000E-02 0. -1.
         -2    1    1    2  502    0  0.27777002755E+02  0.12722131566E+02 -0.94079608073E+03  0.94129202697E+03  0.25500000000E-02 0. -1.
<mgrwt>
<rscale>  0 0.61429280E+02</rscale>
<asrwt>0</asrwt>
<pdfrwt beam="2">  1        2 0.32272994E+00 0.61429280E+02</pdfrwt>
<pdfrwt beam="1">  1       -2 0.69187062E-04 0.61429280E+02</pdfrwt>
<totfact> 0.52317974E+05</totfact>
</mgrwt>
</event>
<event>
 4    1  0.2196664E-002  0.1435493E+03  0.7818608E-02  0.1208631E+00
         -2   -1    0    0  501    0 -0.00000000000E+00  0.00000000000E+00  0.65955113266E+01  0.65955118195E+01  0.25500000000E-02 0. -1.
          2   -1    0    0    0  501  0.00000000000E+00 -0.00000000000E+00 -0.78107672891E+03  0.78107672891E+03  0.25500000000E-02 0. -1.
          2    1    1    2    0  502 -0.13128751732E+02 -0.54532212678E+02 -0.14151354129E+03  0.15222420542E+03  0.25500000000E-02 0. -1.
         -2    1    1    2  502    0  0.13128751732E+02  0.54532212678E+02 -0.63296767629E+03  0.63544803531E+03  0.25500000000E-02 0. -1.
<mgrwt>
<rscale>  0 0.14354930E+03</rscale>
<asrwt>0</asrwt>
<pdfrwt beam="2">  1        2 0.12016558E+00 0.14354930E+03</pdfrwt>
<pdfrwt beam="1">  1       -2 0.10146947E-02 0.14354930E+03</pdfrwt>
<totfact> 0.71387981E+04</totfact>
</mgrwt>
</event>
<event>
 4    1  0.2196664E-002  0.5954850E+02  0.7818608E-02  0.1399736E+00
          2   -1    0    0    0  501  0.00000000000E+00  0.00000000000E+00  0.54370060805E+03  0.54370060806E+03  0.25500000000E-02 0.  1.
         -2   -1    0    0  501    0 -0.00000000000E+00 -0.00000000000E+00 -0.16305028227E+01  0.16305048167E+01  0.25500000000E-02 0.  1.
          2    1    1    2    0  502  0.15039593750E+02  0.15276238478E+02  0.46026049618E+03  0.46075945697E+03  0.25500000000E-02 0. -1.
         -2    1    1    2  502    0 -0.15039593750E+02 -0.15276238478E+02  0.81809609048E+02  0.84571655897E+02  0.25500000000E-02 0. -1.
<mgrwt>
<rscale>  0 0.59548499E+02</rscale>
<asrwt>0</asrwt>
<pdfrwt beam="1">  1        2 0.83646323E-01 0.59548499E+02</pdfrwt>
<pdfrwt beam="2">  1       -2 0.25084652E-03 0.59548499E+02</pdfrwt>
<totfact> 0.66557320E+05</totfact>
</mgrwt>
</event>
<event>
 4    1  0.2196664E-002  0.4526515E+02  0.7818608E-02  0.1472693E+00
         -2   -1    0    0  501    0 -0.00000000000E+00  0.00000000000E+00  0.88674132277E+00  0.88674498928E+00  0.25500000000E-02 0. -1.
          2   -1    0    0    0  501  0.00000000000E+00 -0.00000000000E+00 -0.57765703072E+03  0.57765703072E+03  0.25500000000E-02 0. -1.
          2    1    1    2    0  502 -0.15266116686E+02 -0.15511754205E+02 -0.20901328314E+03  0.21014333530E+03  0.25500000000E-02 0. -1.
         -2    1    1    2  502    0  0.15266116686E+02  0.15511754205E+02 -0.36775700626E+03  0.36840044041E+03  0.25500000000E-02 0. -1.
<mgrwt>
<rscale>  0 0.45265149E+02</rscale>
<asrwt>0</asrwt>
<pdfrwt beam="2">  1        2 0.88870012E-01 0.45265149E+02</pdfrwt>
<pdfrwt beam="1">  1       -2 0.13642249E-03 0.45265149E+02</pdfrwt>
<totfact> 0.13382793E+06</totfact>
</mgrwt>
</event>
<event>
 4    1  0.2196664E-002  0.4354842E+02  0.7818608E-02  0.1483612E+00
         -2   -1    0    0  501    0 -0.00000000000E+00  0.00000000000E+00  0.22997370975E+00  0.22998784680E+00  0.25500000000E-02 0. -1.
          2   -1    0    0    0  501  0.00000000000E+00 -0.00000000000E+00 -0.20615475784E+04  0.20615475784E+04  0.25500000000E-02 0. -1.
          2    1    1    2    0  502 -0.71430393473E+01  0.20264633270E+02 -0.11976307837E+04  0.11978235147E+04  0.25500000000E-02 0. -1.
         -2    1    1    2  502    0  0.71430393473E+01 -0.20264633270E+02 -0.86368682096E+03  0.86395405149E+03  0.25500000000E-02 0. -1.
<mgrwt>
<rscale>  0 0.43548425E+02</rscale>
<asrwt>0</asrwt>
<pdfrwt beam="2">  1        2 0.31714637E+00 0.43548425E+02</pdfrwt>
<pdfrwt beam="1">  1       -2 0.35383309E-04 0.43548425E+02</pdfrwt>
<totfact> 0.12604215E+06</totfact>
</mgrwt>
</event>
<event>
 4    1  0.2196664E-002  0.7328519E+02  0.7818608E-02  0.1349265E+00
          2   -1    0    0    0  501  0.00000000000E+00  0.00000000000E+00  0.74766037328E+03  0.74766037329E+03  0.25500000000E-02 0.  1.
         -2   -1    0    0  501    0 -0.00000000000E+00 -0.00000000000E+00 -0.17958410710E+01  0.17958428815E+01  0.25500000000E-02 0.  1.
          2    1    1    2    0  502 -0.36577201283E+02 -0.16258702994E+01  0.38790911702E+03  0.38963318414E+03  0.25500000000E-02 0.  1.
         -2    1    1    2  502    0  0.36577201283E+02  0.16258702994E+01  0.35795541519E+03  0.35982303203E+03  0.25500000000E-02 0.  1.
<mgrwt>
<rscale>  0 0.73285193E+02</rscale>
<asrwt>0</asrwt>
<pdfrwt beam="1">  1        2 0.11502464E+00 0.73285193E+02</pdfrwt>
<pdfrwt beam="2">  1       -2 0.27628346E-03 0.73285193E+02</pdfrwt>
<totfact> 0.42522722E+05</totfact>
</mgrwt>
</event>
<event>
 4    1  0.2196664E-002  0.1616206E+03  0.7818608E-02  0.1186879E+00
          2   -1    0    0    0  501  0.00000000000E+00  0.00000000000E+00  0.32016349661E+03  0.32016349662E+03  0.25500000000E-02 0. -1.
         -2   -1    0    0  501    0 -0.00000000000E+00 -0.00000000000E+00 -0.20396784405E+02  0.20396784564E+02  0.25500000000E-02 0. -1.
          2    1    1    2    0  502 -0.28310055962E+02  0.47252660740E+02  0.27447387008E+03  0.27994674239E+03  0.25500000000E-02 0. -1.
         -2    1    1    2  502    0  0.28310055962E+02 -0.47252660740E+02  0.25292842132E+02  0.60613538794E+02  0.25500000000E-02 0. -1.
<mgrwt>
<rscale>  0 0.16162062E+03</rscale>
<asrwt>0</asrwt>
<pdfrwt beam="1">  1        2 0.49255917E-01 0.16162062E+03</pdfrwt>
<pdfrwt beam="2">  1       -2 0.31379672E-02 0.16162062E+03</pdfrwt>
<totfact> 0.38003344E+04</totfact>
</mgrwt>
</event>
<event>
 4    1  0.2196664E-002  0.7303447E+02  0.7818608E-02  0.1350068E+00
         -2   -1    0    0  501    0 -0.00000000000E+00  0.00000000000E+00  0.23116681029E+02  0.23116681169E+02  0.25500000000E-02 0. -1.
          2   -1    0    0    0  501  0.00000000000E+00 -0.00000000000E+00 -0.57685979983E+02  0.57685980039E+02  0.25500000000E-02 0. -1.
          2    1    1    2    0  502  0.34756943961E+02 -0.70581594037E+01 -0.26907189365E+02  0.44518081874E+02  0.25500000000E-02 0. -1.
         -2    1    1    2  502    0 -0.34756943961E+02  0.70581594037E+01 -0.76621095886E+01  0.36284579335E+02  0.25500000000E-02 0. -1.
<mgrwt>
<rscale>  0 0.73034469E+02</rscale>
<asrwt>0</asrwt>
<pdfrwt beam="2">  1        2 0.88747661E-02 0.73034469E+02</pdfrwt>
<pdfrwt beam="1">  1       -2 0.35564125E-02 0.73034469E+02</pdfrwt>
<totfact> 0.19410124E+05</totfact>
</mgrwt>
</event>
<event>
 4    1  0.2196664E-002  0.5444114E+02  0.7818608E-02  0.1422760E+00
         -2   -1    0    0  501    0 -0.00000000000E+00  0.00000000000E+00  0.10370255631E+01  0.10370286983E+01  0.25500000000E-02 0.  1.
          2   -1    0    0    0  501  0.00000000000E+00 -0.00000000000E+00 -0.71450346963E+03  0.71450346964E+03  0.25500000000E-02 0.  1.
          2    1    1    2    0  502 -0.71266757495E+01 -0.24956140266E+02 -0.24886056660E+03  0.25021027169E+03  0.25500000000E-02 0. -1.
         -2    1    1    2  502    0  0.71266757495E+01  0.24956140266E+02 -0.46460587747E+03  0.46533022664E+03  0.25500000000E-02 0. -1.
<mgrwt>
<rscale>  0 0.54441142E+02</rscale>
<asrwt>0</asrwt>
<pdfrwt beam="2">  1        2 0.10992322E+00 0.54441142E+02</pdfrwt>
<pdfrwt beam="1">  1       -2 0.15954321E-03 0.54441142E+02</pdfrwt>
<totfact> 0.89498732E+05</totfact>
</mgrwt>
</event>
<event>
 4    1  0.2196664E-002  0.8535588E+02  0.7818608E-02  0.1314504E+00
          2   -1    0    0    0  501  0.00000000000E+00  0.00000000000E+00  0.10883757089E+02  0.10883757388E+02  0.25500000000E-02 0.  1.
         -2   -1    0    0  501    0 -0.00000000000E+00 -0.00000000000E+00 -0.16735089590E+03  0.16735089592E+03  0.25500000000E-02 0.  1.
          2    1    1    2    0  502 -0.30185454205E+02 -0.20768066506E+02 -0.12393141908E+03  0.12923417069E+03  0.25500000000E-02 0. -1.
         -2    1    1    2  502    0  0.30185454205E+02  0.20768066506E+02 -0.32535719733E+02  0.49000482620E+02  0.25500000000E-02 0. -1.
<mgrwt>
<rscale>  0 0.85355879E+02</rscale>
<asrwt>0</asrwt>
<pdfrwt beam="1">  1        2 0.16744243E-02 0.85355879E+02</pdfrwt>
<pdfrwt beam="2">  1       -2 0.25746290E-01 0.85355879E+02</pdfrwt>
<totfact> 0.79256971E+04</totfact>
</mgrwt>
</event>
<event>
 4    1  0.2196664E-002  0.4362537E+02  0.7818608E-02  0.1483110E+00
         -2   -1    0    0  501    0 -0.00000000000E+00  0.00000000000E+00  0.47213379742E+00  0.47214068365E+00  0.25500000000E-02 0.  1.
          2   -1    0    0    0  501  0.00000000000E+00 -0.00000000000E+00 -0.10077436000E+04  0.10077436000E+04  0.25500000000E-02 0.  1.
          2    1    1    2    0  502  0.12999615764E+02 -0.15657939074E+02 -0.68506953655E+03  0.68537174656E+03  0.25500000000E-02 0.  1.
         -2    1    1    2  502    0 -0.12999615764E+02  0.15657939074E+02 -0.32220192965E+03  0.32284399412E+03  0.25500000000E-02 0.  1.
<mgrwt>
<rscale>  0 0.43625373E+02</rscale>
<asrwt>0</asrwt>
<pdfrwt beam="2">  1        2 0.15503576E+00 0.43625373E+02</pdfrwt>
<pdfrwt beam="1">  1       -2 0.72637305E-04 0.43625373E+02</pdfrwt>
<totfact> 0.16172143E+06</totfact>
</mgrwt>
</event>
<event>
 4    1  0.2196664E-002  0.4613689E+02  0.7818608E-02  0.1467367E+00
         -2   -1    0    0  501    0 -0.00000000000E+00  0.00000000000E+00  0.32470837901E+02  0.32470838001E+02  0.25500000000E-02 0. -1.
          2   -1    0    0    0  501  0.00000000000E+00 -0.00000000000E+00 -0.16388646476E+02  0.16388646675E+02  0.25500000000E-02 0. -1.
          2    1    1    2    0  502  0.17111650537E+02  0.15454848804E+02  0.87840268902E+01  0.24674279535E+02  0.25500000000E-02 0.  1.
         -2    1    1    2  502    0 -0.17111650537E+02 -0.15454848804E+02  0.72981645349E+01  0.24185205141E+02  0.25500000000E-02 0.  1.
<mgrwt>
<rscale>  0 0.46136887E+02</rscale>
<asrwt>0</asrwt>
<pdfrwt beam="2">  1        2 0.25213303E-02 0.46136887E+02</pdfrwt>
<pdfrwt beam="1">  1       -2 0.49955135E-02 0.46136887E+02</pdfrwt>
<totfact> 0.52896676E+05</totfact>
</mgrwt>
</event>
<event>
 4    1  0.2196664E-002  0.5586208E+02  0.7818608E-02  0.1416065E+00
         -2   -1    0    0  501    0 -0.00000000000E+00  0.00000000000E+00  0.79679063663E+00  0.79679471706E+00  0.25500000000E-02 0.  1.
          2   -1    0    0    0  501  0.00000000000E+00 -0.00000000000E+00 -0.97910409149E+03  0.97910409150E+03  0.25500000000E-02 0.  1.
          2    1    1    2    0  502 -0.10960444555E+02  0.23247541261E+02 -0.68096056892E+03  0.68144543138E+03  0.25500000000E-02 0.  1.
         -2    1    1    2  502    0  0.10960444555E+02 -0.23247541261E+02 -0.29734673194E+03  0.29845545483E+03  0.25500000000E-02 0.  1.
<mgrwt>
<rscale>  0 0.55862079E+02</rscale>
<asrwt>0</asrwt>
<pdfrwt beam="2">  1        2 0.15063044E+00 0.55862079E+02</pdfrwt>
<pdfrwt beam="1">  1       -2 0.12258427E-03 0.55862079E+02</pdfrwt>
<totfact> 0.87827456E+05</totfact>
</mgrwt>
</event>
<event>
 4    1  0.2196664E-002  0.8418248E+02  0.7818608E-02  0.1317584E+00
          2   -1    0    0    0  501  0.00000000000E+00  0.00000000000E+00  0.31603700184E+01  0.31603710471E+01  0.25500000000E-02 0.  1.
         -2   -1    0    0  501    0 -0.00000000000E+00 -0.00000000000E+00 -0.56059016755E+03  0.56059016756E+03  0.25500000000E-02 0.  1.
          2    1    1    2    0  502  0.33606047833E+02 -0.47506221800E+01 -0.44542780415E+03  0.44671899846E+03  0.25500000000E-02 0. -1.
         -2    1    1    2  502    0 -0.33606047833E+02  0.47506221800E+01 -0.11200199338E+03  0.11703154015E+03  0.25500000000E-02 0. -1.
<mgrwt>
<rscale>  0 0.84182484E+02</rscale>
<asrwt>0</asrwt>
<pdfrwt beam="1">  1        2 0.48621130E-03 0.84182484E+02</pdfrwt>
<pdfrwt beam="2">  1       -2 0.86244562E-01 0.84182484E+02</pdfrwt>
<totfact> 0.40699907E+04</totfact>
</mgrwt>
</event>
<event>
 4    1  0.2196664E-002  0.4472531E+02  0.7818608E-02  0.1476064E+00
         -2   -1    0    0  501    0 -0.00000000000E+00  0.00000000000E+00  0.21211455953E+00  0.21212988677E+00  0.25500000000E-02 0. -1.
          2   -1    0    0    0  501  0.00000000000E+00 -0.00000000000E+00 -0.23575477928E+04  0.23575477928E+04  0.25500000000E-02 0. -1.
          2    1    1    2    0  502  0.21732893932E+02  0.19956936291E+00 -0.14562677827E+04  0.14564299549E+04  0.25500000000E-02 0. -1.
         -2    1    1    2  502    0 -0.21732893932E+02 -0.19956936291E+00 -0.90106789555E+03  0.90132996783E+03  0.25500000000E-02 0. -1.
<mgrwt>
<rscale>  0 0.44725307E+02</rscale>
<asrwt>0</asrwt>
<pdfrwt beam="2">  1        2 0.36267868E+00 0.44725307E+02</pdfrwt>
<pdfrwt beam="1">  1       -2 0.32636076E-04 0.44725307E+02</pdfrwt>
<totfact> 0.10106783E+06</totfact>
</mgrwt>
</event>
<event>
 4    1  0.2196664E-002  0.5918704E+02  0.7818608E-02  0.1401275E+00
          2   -1    0    0    0  501  0.00000000000E+00  0.00000000000E+00  0.89774155910E+01  0.89774159532E+01  0.25500000000E-02 0. -1.
         -2   -1    0    0  501    0 -0.00000000000E+00 -0.00000000000E+00 -0.97553279014E+02  0.97553279047E+02  0.25500000000E-02 0. -1.
          2    1    1    2    0  502 -0.27337387424E+02 -0.23201855493E+01 -0.24321190148E+02  0.36663828345E+02  0.25500000000E-02 0. -1.
         -2    1    1    2  502    0  0.27337387424E+02  0.23201855493E+01 -0.64254673275E+02  0.69866866656E+02  0.25500000000E-02 0. -1.
<mgrwt>
<rscale>  0 0.59187037E+02</rscale>
<asrwt>0</asrwt>
<pdfrwt beam="1">  1        2 0.13811410E-02 0.59187037E+02</pdfrwt>
<pdfrwt beam="2">  1       -2 0.15008196E-01 0.59187037E+02</pdfrwt>
<totfact> 0.23484733E+05</totfact>
</mgrwt>
</event>
<event>
 4    1  0.2196664E-002  0.7548106E+02  0.7818608E-02  0.1342388E+00
         -2   -1    0    0  501    0 -0.00000000000E+00  0.00000000000E+00  0.36336593385E+02  0.36336593475E+02  0.25500000000E-02 0. -1.
          2   -1    0    0    0  501  0.00000000000E+00 -0.00000000000E+00 -0.39198709258E+02  0.39198709341E+02  0.25500000000E-02 0. -1.
          2    1    1    2    0  502  0.15065583102E+02 -0.32478004523E+02 -0.13379277598E+02  0.38220382619E+02  0.25500000000E-02 0. -1.
         -2    1    1    2  502    0 -0.15065583102E+02  0.32478004523E+02  0.10517161726E+02  0.37314920197E+02  0.25500000000E-02 0. -1.
<mgrwt>
<rscale>  0 0.75481059E+02</rscale>
<asrwt>0</asrwt>
<pdfrwt beam="2">  1        2 0.60305706E-02 0.75481059E+02</pdfrwt>
<pdfrwt beam="1">  1       -2 0.55902452E-02 0.75481059E+02</pdfrwt>
<totfact> 0.16236851E+05</totfact>
</mgrwt>
</event>
<event>
 4    1  0.2196664E-002  0.5470653E+02  0.7818608E-02  0.1421492E+00
          2   -1    0    0    0  501  0.00000000000E+00  0.00000000000E+00  0.18179047177E+01  0.18179065061E+01  0.25500000000E-02 0. -1.
         -2   -1    0    0  501    0 -0.00000000000E+00 -0.00000000000E+00 -0.41157316114E+03  0.41157316115E+03  0.25500000000E-02 0. -1.
          2    1    1    2    0  502 -0.20798379350E+02  0.11648277675E+02 -0.30624384617E+03  0.30717022688E+03  0.25500000000E-02 0.  1.
         -2    1    1    2  502    0  0.20798379350E+02 -0.11648277675E+02 -0.10351141025E+03  0.10622084077E+03  0.25500000000E-02 0.  1.
<mgrwt>
<rscale>  0 0.54706532E+02</rscale>
<asrwt>0</asrwt>
<pdfrwt beam="1">  1        2 0.27967812E-03 0.54706532E+02</pdfrwt>
<pdfrwt beam="2">  1       -2 0.63318874E-01 0.54706532E+02</pdfrwt>
<totfact> 0.15302884E+05</totfact>
</mgrwt>
</event>
<event>
 4    1  0.2196664E-002  0.5331276E+02  0.7818608E-02  0.1428251E+00
          2   -1    0    0    0  501  0.00000000000E+00  0.00000000000E+00  0.12184149536E+04  0.12184149536E+04  0.25500000000E-02 0.  1.
         -2   -1    0    0  501    0 -0.00000000000E+00 -0.00000000000E+00 -0.58318317937E+00  0.58318875435E+00  0.25500000000E-02 0.  1.
          2    1    1    2    0  502  0.25990352910E+02  0.27189468230E+01  0.72919420134E+03  0.72966230161E+03  0.25500000000E-02 0.  1.
         -2    1    1    2  502    0 -0.25990352910E+02 -0.27189468230E+01  0.48863756908E+03  0.48933584074E+03  0.25500000000E-02 0.  1.
<mgrwt>
<rscale>  0 0.53312757E+02</rscale>
<asrwt>0</asrwt>
<pdfrwt beam="1">  1        2 0.18744661E+00 0.53312757E+02</pdfrwt>
<pdfrwt beam="2">  1       -2 0.89721802E-04 0.53312757E+02</pdfrwt>
<totfact> 0.98111009E+05</totfact>
</mgrwt>
</event>
<event>
 4    1  0.2196664E-002  0.1324271E+03  0.7818608E-02  0.1223898E+00
         -2   -1    0    0  501    0 -0.00000000000E+00  0.00000000000E+00  0.31624154179E+02  0.31624154281E+02  0.25500000000E-02 0.  1.
          2   -1    0    0    0  501  0.00000000000E+00 -0.00000000000E+00 -0.13863552510E+03  0.13863552512E+03  0.25500000000E-02 0.  1.
          2    1    1    2    0  502 -0.56068141855E+02  0.17601527563E+02 -0.14281058120E+02  0.60476432858E+02  0.25500000000E-02 0. -1.
         -2    1    1    2  502    0  0.56068141855E+02 -0.17601527563E+02 -0.92730312798E+02  0.10978324654E+03  0.25500000000E-02 0. -1.
<mgrwt>
<rscale>  0 0.13242706E+03</rscale>
<asrwt>0</asrwt>
<pdfrwt beam="2">  1        2 0.21328542E-01 0.13242706E+03</pdfrwt>
<pdfrwt beam="1">  1       -2 0.48652546E-02 0.13242706E+03</pdfrwt>
<totfact> 0.47957334E+04</totfact>
</mgrwt>
</event>
<event>
 4    1  0.2196664E-002  0.4912846E+02  0.7818608E-02  0.1450100E+00
         -2   -1    0    0  501    0 -0.00000000000E+00  0.00000000000E+00  0.34490990158E+03  0.34490990159E+03  0.25500000000E-02 0.  1.
          2   -1    0    0    0  501  0.00000000000E+00 -0.00000000000E+00 -0.17494456917E+01  0.17494475501E+01  0.25500000000E-02 0.  1.
          2    1    1    2    0  502  0.23622817639E+02  0.53310556274E+01  0.14253498338E+03  0.14457758872E+03  0.25500000000E-02 0.  1.
         -2    1    1    2  502    0 -0.23622817639E+02 -0.53310556274E+01  0.20062547251E+03  0.20208176042E+03  0.25500000000E-02 0.  1.
<mgrwt>
<rscale>  0 0.49128463E+02</rscale>
<asrwt>0</asrwt>
<pdfrwt beam="2">  1        2 0.26914547E-03 0.49128463E+02</pdfrwt>
<pdfrwt beam="1">  1       -2 0.53063094E-01 0.49128463E+02</pdfrwt>
<totfact> 0.22364658E+05</totfact>
</mgrwt>
</event>
<event>
 4    1  0.2196664E-002  0.6315965E+02  0.7818608E-02  0.1385031E+00
         -2   -1    0    0  501    0 -0.00000000000E+00  0.00000000000E+00  0.81782293600E+00  0.81782691148E+00  0.25500000000E-02 0.  1.
          2   -1    0    0    0  501  0.00000000000E+00 -0.00000000000E+00 -0.12194361279E+04  0.12194361279E+04  0.25500000000E-02 0.  1.
          2    1    1    2    0  502  0.29686177108E+02  0.25431387174E+01 -0.40709389427E+03  0.40818277208E+03  0.25500000000E-02 0.  1.
         -2    1    1    2  502    0 -0.29686177108E+02 -0.25431387174E+01 -0.81152441071E+03  0.81207118275E+03  0.25500000000E-02 0.  1.
<mgrwt>
<rscale>  0 0.63159647E+02</rscale>
<asrwt>0</asrwt>
<pdfrwt beam="2">  1        2 0.18760410E+00 0.63159647E+02</pdfrwt>
<pdfrwt beam="1">  1       -2 0.12582019E-03 0.63159647E+02</pdfrwt>
<totfact> 0.64095682E+05</totfact>
</mgrwt>
</event>
<event>
 4    1  0.2196664E-002  0.4854552E+02  0.7818608E-02  0.1453348E+00
          2   -1    0    0    0  501  0.00000000000E+00  0.00000000000E+00  0.12907516318E+03  0.12907516321E+03  0.25500000000E-02 0. -1.
         -2   -1    0    0  501    0 -0.00000000000E+00 -0.00000000000E+00 -0.45645258895E+01  0.45645266018E+01  0.25500000000E-02 0. -1.
          2    1    1    2    0  502 -0.77992255274E+01 -0.18474412883E+02  0.24606804244E+02  0.31743135821E+02  0.25500000000E-02 0. -1.
         -2    1    1    2  502    0  0.77992255274E+01  0.18474412883E+02  0.99903833047E+02  0.10189655399E+03  0.25500000000E-02 0. -1.
<mgrwt>
<rscale>  0 0.48545524E+02</rscale>
<asrwt>0</asrwt>
<pdfrwt beam="1">  1        2 0.19857718E-01 0.48545524E+02</pdfrwt>
<pdfrwt beam="2">  1       -2 0.70223480E-03 0.48545524E+02</pdfrwt>
<totfact> 0.69171924E+05</totfact>
</mgrwt>
</event>
<event>
 4    1  0.2196664E-002  0.4132375E+02  0.7818608E-02  0.1498690E+00
         -2   -1    0    0  501    0 -0.00000000000E+00  0.00000000000E+00  0.70751452917E+00  0.70751912447E+00  0.25500000000E-02 0. -1.
          2   -1    0    0    0  501  0.00000000000E+00 -0.00000000000E+00 -0.60339630622E+03  0.60339630623E+03  0.25500000000E-02 0. -1.
          2    1    1    2    0  502 -0.91156724887E+01  0.18404275460E+02 -0.26832984952E+03  0.26911469857E+03  0.25500000000E-02 0. -1.
         -2    1    1    2  502    0  0.91156724887E+01 -0.18404275460E+02 -0.33435894218E+03  0.33498912678E+03  0.25500000000E-02 0. -1.
<mgrwt>
<rscale>  0 0.41323748E+02</rscale>
<asrwt>0</asrwt>
<pdfrwt beam="2">  1        2 0.92829790E-01 0.41323748E+02</pdfrwt>
<pdfrwt beam="1">  1       -2 0.10884923E-03 0.41323748E+02</pdfrwt>
<totfact> 0.16893407E+06</totfact>
</mgrwt>
</event>
<event>
 4    1  0.2196664E-002  0.5139613E+02  0.7818608E-02  0.1437953E+00
         -2   -1    0    0  501    0 -0.00000000000E+00  0.00000000000E+00  0.11132820239E+02  0.11132820531E+02  0.25500000000E-02 0. -1.
          2   -1    0    0    0  501  0.00000000000E+00 -0.00000000000E+00 -0.59319246412E+02  0.59319246467E+02  0.25500000000E-02 0. -1.
          2    1    1    2    0  502  0.90677190836E+01 -0.23535969058E+02 -0.17346433671E+02  0.30611503336E+02  0.25500000000E-02 0.  1.
         -2    1    1    2  502    0 -0.90677190836E+01  0.23535969058E+02 -0.30839992502E+02  0.39840563662E+02  0.25500000000E-02 0.  1.
<mgrwt>
<rscale>  0 0.51396129E+02</rscale>
<asrwt>0</asrwt>
<pdfrwt beam="2">  1        2 0.91260378E-02 0.51396129E+02</pdfrwt>
<pdfrwt beam="1">  1       -2 0.17127416E-02 0.51396129E+02</pdfrwt>
<totfact> 0.49438784E+05</totfact>
</mgrwt>
</event>
<event>
 4    1  0.2196664E-002  0.5295071E+02  0.7818608E-02  0.1430046E+00
         -2   -1    0    0  501    0 -0.00000000000E+00  0.00000000000E+00  0.99895042617E+00  0.99895368083E+00  0.25500000000E-02 0.  1.
          2   -1    0    0    0  501  0.00000000000E+00 -0.00000000000E+00 -0.70167971908E+03  0.70167971909E+03  0.25500000000E-02 0.  1.
          2    1    1    2    0  502 -0.25537980188E+02 -0.36058846127E+01 -0.42968996200E+03  0.43046330191E+03  0.25500000000E-02 0. -1.
         -2    1    1    2  502    0  0.25537980188E+02  0.36058846127E+01 -0.27099080665E+03  0.27221537086E+03  0.25500000000E-02 0. -1.
<mgrwt>
<rscale>  0 0.52950709E+02</rscale>
<asrwt>0</asrwt>
<pdfrwt beam="2">  1        2 0.10795033E+00 0.52950709E+02</pdfrwt>
<pdfrwt beam="1">  1       -2 0.15368549E-03 0.52950709E+02</pdfrwt>
<totfact> 0.95520456E+05</totfact>
</mgrwt>
</event>
<event>
 4    1  0.2196664E-002  0.4822128E+02  0.7818608E-02  0.1455179E+00
         -2   -1    0    0  501    0 -0.00000000000E+00  0.00000000000E+00  0.23737077228E+02  0.23737077365E+02  0.25500000000E-02 0. -1.
          2   -1    0    0    0  501  0.00000000000E+00 -0.00000000000E+00 -0.24490078307E+02  0.24490078440E+02  0.25500000000E-02 0. -1.
          2    1    1    2    0  502  0.13185442013E-01 -0.23920326059E+02  0.26472283448E+01  0.24066366511E+02  0.25500000000E-02 0. -1.
         -2    1    1    2  502    0 -0.13185442013E-01  0.23920326059E+02 -0.34002294244E+01  0.24160789293E+02  0.25500000000E-02 0. -1.
<mgrwt>
<rscale>  0 0.48221277E+02</rscale>
<asrwt>0</asrwt>
<pdfrwt beam="2">  1        2 0.37677044E-02 0.48221277E+02</pdfrwt>
<pdfrwt beam="1">  1       -2 0.36518581E-02 0.48221277E+02</pdfrwt>
<totfact> 0.49998188E+05</totfact>
</mgrwt>
</event>
<event>
 4    1  0.2196664E-002  0.6990494E+02  0.7818608E-02  0.1360417E+00
          2   -1    0    0    0  501  0.00000000000E+00  0.00000000000E+00  0.16122551044E+01  0.16122571210E+01  0.25500000000E-02 0. -1.
         -2   -1    0    0  501    0 -0.00000000000E+00 -0.00000000000E+00 -0.75774269668E+03  0.75774269669E+03  0.25500000000E-02 0. -1.
          2    1    1    2    0  502 -0.16881029027E+02  0.26249092247E+02 -0.20710608234E+03  0.20944429649E+03  0.25500000000E-02 0.  1.
         -2    1    1    2  502    0  0.16881029027E+02 -0.26249092247E+02 -0.54902435924E+03  0.54991065732E+03  0.25500000000E-02 0.  1.
<mgrwt>
<rscale>  0 0.69904944E+02</rscale>
<asrwt>0</asrwt>
<pdfrwt beam="1">  1        2 0.24804001E-03 0.69904944E+02</pdfrwt>
<pdfrwt beam="2">  1       -2 0.11657552E+00 0.69904944E+02</pdfrwt>
<totfact> 0.49822983E+04</totfact>
</mgrwt>
</event>
<event>
 4    1  0.2196664E-002  0.7179575E+02  0.7818608E-02  0.1354091E+00
         -2   -1    0    0  501    0 -0.00000000000E+00  0.00000000000E+00  0.60716640915E+01  0.60716646270E+01  0.25500000000E-02 0.  1.
          2   -1    0    0    0  501  0.00000000000E+00 -0.00000000000E+00 -0.21224121692E+03  0.21224121693E+03  0.25500000000E-02 0.  1.
          2    1    1    2    0  502 -0.30963003185E+02 -0.12772008486E+02 -0.14235940196E+03  0.14624647380E+03  0.25500000000E-02 0. -1.
         -2    1    1    2  502    0  0.30963003185E+02  0.12772008486E+02 -0.63810150871E+02  0.72066407762E+02  0.25500000000E-02 0. -1.
<mgrwt>
<rscale>  0 0.71795750E+02</rscale>
<asrwt>0</asrwt>
<pdfrwt beam="2">  1        2 0.32652489E-01 0.71795750E+02</pdfrwt>
<pdfrwt beam="1">  1       -2 0.93410237E-03 0.71795750E+02</pdfrwt>
<totfact> 0.29772222E+05</totfact>
</mgrwt>
</event>
<event>
 4    1  0.2196664E-002  0.6024755E+02  0.7818608E-02  0.1396796E+00
         -2   -1    0    0  501    0 -0.00000000000E+00  0.00000000000E+00  0.16711415842E+01  0.16711435298E+01  0.25500000000E-02 0.  1.
          2   -1    0    0    0  501  0.00000000000E+00 -0.00000000000E+00 -0.54300678103E+03  0.54300678104E+03  0.25500000000E-02 0.  1.
          2    1    1    2    0  502 -0.41134975326E+01 -0.25441962392E+02 -0.41166378090E+03  0.41246973565E+03  0.25500000000E-02 0.  1.
         -2    1    1    2  502    0  0.41134975326E+01  0.25441962392E+02 -0.12967185855E+03  0.13220818892E+03  0.25500000000E-02 0.  1.
<mgrwt>
<rscale>  0 0.60247547E+02</rscale>
<asrwt>0</asrwt>
<pdfrwt beam="2">  1        2 0.83539365E-01 0.60247547E+02</pdfrwt>
<pdfrwt beam="1">  1       -2 0.25709929E-03 0.60247547E+02</pdfrwt>
<totfact> 0.64599077E+05</totfact>
</mgrwt>
</event>
<event>
 4    1  0.2196664E-002  0.8253493E+02  0.7818608E-02  0.1322008E+00
          2   -1    0    0    0  501  0.00000000000E+00  0.00000000000E+00  0.90802229261E+02  0.90802229297E+02  0.25500000000E-02 0. -1.
         -2   -1    0    0  501    0 -0.00000000000E+00 -0.00000000000E+00 -0.18755087552E+02  0.18755087726E+02  0.25500000000E-02 0. -1.
          2    1    1    2    0  502 -0.89845531759E+01 -0.28398191943E+02  0.73937770827E+02  0.79711815077E+02  0.25500000000E-02 0. -1.
         -2    1    1    2  502    0  0.89845531759E+01  0.28398191943E+02 -0.18906291187E+01  0.29845501946E+02  0.25500000000E-02 0. -1.
<mgrwt>
<rscale>  0 0.82534933E+02</rscale>
<asrwt>0</asrwt>
<pdfrwt beam="1">  1        2 0.13969574E-01 0.82534933E+02</pdfrwt>
<pdfrwt beam="2">  1       -2 0.28853980E-02 0.82534933E+02</pdfrwt>
<totfact> 0.15657830E+05</totfact>
</mgrwt>
</event>
<event>
 4    1  0.2196664E-002  0.5635377E+02  0.7818608E-02  0.1413803E+00
          2   -1    0    0    0  501  0.00000000000E+00  0.00000000000E+00  0.20687266391E+04  0.20687266391E+04  0.25500000000E-02 0. -1.
         -2   -1    0    0  501    0 -0.00000000000E+00 -0.00000000000E+00 -0.38377627564E+00  0.38378474728E+00  0.25500000000E-02 0. -1.
          2    1    1    2    0  502  0.24620800105E+02  0.66101806993E+01  0.59348429676E+03  0.59403155538E+03  0.25500000000E-02 0.  1.
         -2    1    1    2  502    0 -0.24620800105E+02 -0.66101806993E+01  0.14748585661E+04  0.14750788685E+04  0.25500000000E-02 0.  1.
<mgrwt>
<rscale>  0 0.56353774E+02</rscale>
<asrwt>0</asrwt>
<pdfrwt beam="1">  1        2 0.31826678E+00 0.56353774E+02</pdfrwt>
<pdfrwt beam="2">  1       -2 0.59042944E-04 0.56353774E+02</pdfrwt>
<totfact> 0.66041315E+05</totfact>
</mgrwt>
</event>
<event>
 4    1  0.2196664E-002  0.9304129E+02  0.7818608E-02  0.1295650E+00
         -2   -1    0    0  501    0 -0.00000000000E+00  0.00000000000E+00  0.15884253776E+02  0.15884253981E+02  0.25500000000E-02 0. -1.
          2   -1    0    0    0  501  0.00000000000E+00 -0.00000000000E+00 -0.13624628781E+03  0.13624628783E+03  0.25500000000E-02 0. -1.
          2    1    1    2    0  502 -0.31247434124E+02 -0.33212119864E+02 -0.75231235663E+02  0.87972642742E+02  0.25500000000E-02 0. -1.
         -2    1    1    2  502    0  0.31247434124E+02  0.33212119864E+02 -0.45130798371E+02  0.64157899072E+02  0.25500000000E-02 0. -1.
<mgrwt>
<rscale>  0 0.93041295E+02</rscale>
<asrwt>0</asrwt>
<pdfrwt beam="2">  1        2 0.20960967E-01 0.93041295E+02</pdfrwt>
<pdfrwt beam="1">  1       -2 0.24437315E-02 0.93041295E+02</pdfrwt>
<totfact> 0.12808862E+05</totfact>
</mgrwt>
</event>
<event>
 4    1  0.2196664E-002  0.5346441E+02  0.7818608E-02  0.1427504E+00
         -2   -1    0    0  501    0 -0.00000000000E+00  0.00000000000E+00  0.24304296276E+02  0.24304296410E+02  0.25500000000E-02 0. -1.
          2   -1    0    0    0  501  0.00000000000E+00 -0.00000000000E+00 -0.29402657556E+02  0.29402657667E+02  0.25500000000E-02 0. -1.
          2    1    1    2    0  502 -0.18075285821E+02 -0.11641208077E+02  0.13409272059E+02  0.25338552970E+02  0.25500000000E-02 0.  1.
         -2    1    1    2  502    0  0.18075285821E+02  0.11641208077E+02 -0.18507633339E+02  0.28368401106E+02  0.25500000000E-02 0.  1.
<mgrwt>
<rscale>  0 0.53464415E+02</rscale>
<asrwt>0</asrwt>
<pdfrwt beam="2">  1        2 0.45234858E-02 0.53464415E+02</pdfrwt>
<pdfrwt beam="1">  1       -2 0.37391225E-02 0.53464415E+02</pdfrwt>
<totfact> 0.39218443E+05</totfact>
</mgrwt>
</event>
<event>
 4    1  0.2196664E-002  0.6580173E+02  0.7818608E-02  0.1374981E+00
         -2   -1    0    0  501    0 -0.00000000000E+00  0.00000000000E+00  0.56259475904E+01  0.56259481683E+01  0.25500000000E-02 0.  1.
          2   -1    0    0    0  501  0.00000000000E+00 -0.00000000000E+00 -0.19240611218E+03  0.19240611219E+03  0.25500000000E-02 0.  1.
          2    1    1    2    0  502  0.30881051780E+02 -0.94634530453E+01 -0.11224962600E+03  0.11680400184E+03  0.25500000000E-02 0.  1.
         -2    1    1    2  502    0 -0.30881051780E+02  0.94634530453E+01 -0.74530538592E+02  0.81228058526E+02  0.25500000000E-02 0.  1.
<mgrwt>
<rscale>  0 0.65801725E+02</rscale>
<asrwt>0</asrwt>
<pdfrwt beam="2">  1        2 0.29600935E-01 0.65801725E+02</pdfrwt>
<pdfrwt beam="1">  1       -2 0.86553059E-03 0.65801725E+02</pdfrwt>
<totfact> 0.36104545E+05</totfact>
</mgrwt>
</event>
<event>
 4    1  0.2196664E-002  0.6733557E+02  0.7818608E-02  0.1369395E+00
         -2   -1    0    0  501    0 -0.00000000000E+00  0.00000000000E+00  0.23379535711E+01  0.23379549618E+01  0.25500000000E-02 0. -1.
          2   -1    0    0    0  501  0.00000000000E+00 -0.00000000000E+00 -0.48483403153E+03  0.48483403154E+03  0.25500000000E-02 0. -1.
          2    1    1    2    0  502  0.15670082953E+02  0.21687778577E+02 -0.93397657961E+02  0.97154689843E+02  0.25500000000E-02 0. -1.
         -2    1    1    2  502    0 -0.15670082953E+02 -0.21687778577E+02 -0.38909842000E+03  0.39001729666E+03  0.25500000000E-02 0. -1.
<mgrwt>
<rscale>  0 0.67335571E+02</rscale>
<asrwt>0</asrwt>
<pdfrwt beam="2">  1        2 0.74589771E-01 0.67335571E+02</pdfrwt>
<pdfrwt beam="1">  1       -2 0.35968566E-03 0.67335571E+02</pdfrwt>
<totfact> 0.46990305E+05</totfact>
</mgrwt>
</event>
<event>
 4    1  0.2196664E-002  0.4756190E+02  0.7818608E-02  0.1458954E+00
          2   -1    0    0    0  501  0.00000000000E+00  0.00000000000E+00  0.12724701017E+01  0.12724726568E+01  0.25500000000E-02 0. -1.
         -2   -1    0    0  501    0 -0.00000000000E+00 -0.00000000000E+00 -0.44443720854E+03  0.44443720855E+03  0.25500000000E-02 0. -1.
          2    1    1    2    0  502  0.15164774042E+02 -0.17294831949E+02 -0.16500356345E+03  0.16659909226E+03  0.25500000000E-02 0. -1.
         -2    1    1    2  502    0 -0.15164774042E+02  0.17294831949E+02 -0.27816117499E+03  0.27911058894E+03  0.25500000000E-02 0. -1.
<mgrwt>
<rscale>  0 0.47561902E+02</rscale>
<asrwt>0</asrwt>
<pdfrwt beam="1">  1        2 0.19576518E-03 0.47561902E+02</pdfrwt>
<pdfrwt beam="2">  1       -2 0.68374831E-01 0.47561902E+02</pdfrwt>
<totfact> 0.20464824E+05</totfact>
</mgrwt>
</event>
<event>
 4    1  0.2196664E-002  0.1520917E+03  0.7818608E-02  0.1197926E+00
          2   -1    0    0    0  501  0.00000000000E+00  0.00000000000E+00  0.25736006822E+02  0.25736006948E+02  0.25500000000E-02 0.  1.
         -2   -1    0    0  501    0 -0.00000000000E+00 -0.00000000000E+00 -0.22470354711E+03  0.22470354712E+03  0.25500000000E-02 0.  1.
          2    1    1    2    0  502 -0.14975692534E+02  0.66541136808E+02 -0.15486013148E+03  0.16921481786E+03  0.25500000000E-02 0. -1.
         -2    1    1    2  502    0  0.14975692534E+02 -0.66541136808E+02 -0.44107408807E+02  0.81224736212E+02  0.25500000000E-02 0. -1.
<mgrwt>
<rscale>  0 0.15209171E+03</rscale>
<asrwt>0</asrwt>
<pdfrwt beam="1">  1        2 0.39593858E-02 0.15209171E+03</pdfrwt>
<pdfrwt beam="2">  1       -2 0.34569775E-01 0.15209171E+03</pdfrwt>
<totfact> 0.15884815E+04</totfact>
</mgrwt>
</event>
<event>
 4    1  0.2196664E-002  0.1157931E+03  0.7818608E-02  0.1250203E+00
          2   -1    0    0    0  501  0.00000000000E+00  0.00000000000E+00  0.69518311820E+01  0.69518316497E+01  0.25500000000E-02 0.  1.
         -2   -1    0    0  501    0 -0.00000000000E+00 -0.00000000000E+00 -0.48217670975E+03  0.48217670976E+03  0.25500000000E-02 0.  1.
          2    1    1    2    0  502 -0.49114086035E+02 -0.30625398402E+02 -0.24343920915E+03  0.25022541244E+03  0.25500000000E-02 0. -1.
         -2    1    1    2  502    0  0.49114086035E+02  0.30625398402E+02 -0.23178566942E+03  0.23890312897E+03  0.25500000000E-02 0. -1.
<mgrwt>
<rscale>  0 0.11579311E+03</rscale>
<asrwt>0</asrwt>
<pdfrwt beam="1">  1        2 0.10695129E-02 0.11579311E+03</pdfrwt>
<pdfrwt beam="2">  1       -2 0.74181006E-01 0.11579311E+03</pdfrwt>
<totfact> 0.20017514E+04</totfact>
</mgrwt>
</event>
<event>
 4    1  0.2196664E-002  0.9072795E+02  0.7818608E-02  0.1301098E+00
          2   -1    0    0    0  501  0.00000000000E+00  0.00000000000E+00  0.43992038411E+02  0.43992038485E+02  0.25500000000E-02 0.  1.
         -2   -1    0    0  501    0 -0.00000000000E+00 -0.00000000000E+00 -0.46778700900E+02  0.46778700969E+02  0.25500000000E-02 0.  1.
          2    1    1    2    0  502  0.42729989612E+02  0.84996565419E+01  0.11253604349E+02  0.44997108695E+02  0.25500000000E-02 0.  1.
         -2    1    1    2  502    0 -0.42729989612E+02 -0.84996565419E+01 -0.14040266838E+02  0.45773630760E+02  0.25500000000E-02 0.  1.
<mgrwt>
<rscale>  0 0.90727954E+02</rscale>
<asrwt>0</asrwt>
<pdfrwt beam="1">  1        2 0.67680059E-02 0.90727954E+02</pdfrwt>
<pdfrwt beam="2">  1       -2 0.71967233E-02 0.90727954E+02</pdfrwt>
<totfact> 0.99163469E+04</totfact>
</mgrwt>
</event>
<event>
 4    1  0.2196664E-002  0.4751935E+02  0.7818608E-02  0.1459200E+00
         -2   -1    0    0  501    0 -0.00000000000E+00  0.00000000000E+00  0.12228127718E+01  0.12228154306E+01  0.25500000000E-02 0. -1.
          2   -1    0    0    0  501  0.00000000000E+00 -0.00000000000E+00 -0.46165812433E+03  0.46165812434E+03  0.25500000000E-02 0. -1.
          2    1    1    2    0  502  0.21476225314E+02  0.54096054516E+01 -0.14640634254E+03  0.14807197313E+03  0.25500000000E-02 0. -1.
         -2    1    1    2  502    0 -0.21476225314E+02 -0.54096054516E+01 -0.31402896902E+03  0.31480896664E+03  0.25500000000E-02 0. -1.
<mgrwt>
<rscale>  0 0.47519346E+02</rscale>
<asrwt>0</asrwt>
<pdfrwt beam="2">  1        2 0.71024188E-01 0.47519346E+02</pdfrwt>
<pdfrwt beam="1">  1       -2 0.18812562E-03 0.47519346E+02</pdfrwt>
<totfact> 0.11105569E+06</totfact>
</mgrwt>
</event>
<event>
 4    1  0.2196664E-002  0.4620900E+02  0.7818608E-02  0.1466932E+00
         -2   -1    0    0  501    0 -0.00000000000E+00  0.00000000000E+00  0.84888236077E+00  0.84888619080E+00  0.25500000000E-02 0. -1.
          2   -1    0    0    0  501  0.00000000000E+00 -0.00000000000E+00 -0.62884638375E+03  0.62884638375E+03  0.25500000000E-02 0. -1.
          2    1    1    2    0  502 -0.20115580091E+02 -0.81406802932E+01 -0.42208381892E+03  0.42264128696E+03  0.25500000000E-02 0. -1.
         -2    1    1    2  502    0  0.20115580091E+02  0.81406802932E+01 -0.20591368246E+03  0.20705398299E+03  0.25500000000E-02 0. -1.
<mgrwt>
<rscale>  0 0.46208995E+02</rscale>
<asrwt>0</asrwt>
<pdfrwt beam="2">  1        2 0.96745225E-01 0.46208995E+02</pdfrwt>
<pdfrwt beam="1">  1       -2 0.13059808E-03 0.46208995E+02</pdfrwt>
<totfact> 0.13016930E+06</totfact>
</mgrwt>
</event>
<event>
 4    1  0.2196664E-002  0.9686268E+02  0.7818608E-02  0.1287035E+00
          2   -1    0    0    0  501  0.00000000000E+00  0.00000000000E+00  0.41505103985E+03  0.41505103986E+03  0.25500000000E-02 0. -1.
         -2   -1    0    0  501    0 -0.00000000000E+00 -0.00000000000E+00 -0.56513405057E+01  0.56513410810E+01  0.25500000000E-02 0. -1.
          2    1    1    2    0  502 -0.46253770295E+02  0.88625695877E+01  0.25376908111E+03  0.25810211727E+03  0.25500000000E-02 0.  1.
         -2    1    1    2  502    0  0.46253770295E+02 -0.88625695877E+01  0.15563061824E+03  0.16260026367E+03  0.25500000000E-02 0.  1.
<mgrwt>
<rscale>  0 0.96862684E+02</rscale>
<asrwt>0</asrwt>
<pdfrwt beam="1">  1        2 0.63854019E-01 0.96862684E+02</pdfrwt>
<pdfrwt beam="2">  1       -2 0.86943687E-03 0.96862684E+02</pdfrwt>
<totfact> 0.17216932E+05</totfact>
</mgrwt>
</event>
<event>
 4    1  0.2196664E-002  0.9306508E+02  0.7818608E-02  0.1295594E+00
         -2   -1    0    0  501    0 -0.00000000000E+00  0.00000000000E+00  0.36230419246E+01  0.36230428219E+01  0.25500000000E-02 0. -1.
          2   -1    0    0    0  501  0.00000000000E+00 -0.00000000000E+00 -0.59764066733E+03  0.59764066734E+03  0.25500000000E-02 0. -1.
          2    1    1    2    0  502  0.34890131450E+02  0.30784755729E+02 -0.29374632529E+03  0.29740868529E+03  0.25500000000E-02 0.  1.
         -2    1    1    2  502    0 -0.34890131450E+02 -0.30784755729E+02 -0.30027130012E+03  0.30385502487E+03  0.25500000000E-02 0.  1.
<mgrwt>
<rscale>  0 0.93065084E+02</rscale>
<asrwt>0</asrwt>
<pdfrwt beam="2">  1        2 0.91944640E-01 0.93065084E+02</pdfrwt>
<pdfrwt beam="1">  1       -2 0.55739161E-03 0.93065084E+02</pdfrwt>
<totfact> 0.21558371E+05</totfact>
</mgrwt>
</event>
<event>
 4    1  0.2196664E-002  0.8045303E+02  0.7818608E-02  0.1327771E+00
          2   -1    0    0    0  501  0.00000000000E+00  0.00000000000E+00  0.28654291776E+04  0.28654291776E+04  0.25500000000E-02 0. -1.
         -2   -1    0    0  501    0 -0.00000000000E+00 -0.00000000000E+00 -0.56471963964E+00  0.56472539689E+00  0.25500000000E-02 0. -1.
          2    1    1    2    0  502 -0.18629193823E+02 -0.30235683318E+02  0.21054457246E+04  0.21057452226E+04  0.25500000000E-02 0. -1.
         -2    1    1    2  502    0  0.18629193823E+02  0.30235683318E+02  0.75941873338E+03  0.76024868038E+03  0.25500000000E-02 0. -1.
<mgrwt>
<rscale>  0 0.80453027E+02</rscale>
<asrwt>0</asrwt>
<pdfrwt beam="1">  1        2 0.44084392E+00 0.80453027E+02</pdfrwt>
<pdfrwt beam="2">  1       -2 0.86878681E-04 0.80453027E+02</pdfrwt>
<totfact> 0.15869700E+05</totfact>
</mgrwt>
</event>
<event>
 4    1  0.2196664E-002  0.6193689E+02  0.7818608E-02  0.1389879E+00
          2   -1    0    0    0  501  0.00000000000E+00  0.00000000000E+00  0.69327853200E+03  0.69327853200E+03  0.25500000000E-02 0.  1.
         -2   -1    0    0  501    0 -0.00000000000E+00 -0.00000000000E+00 -0.13833454552E+01  0.13833478055E+01  0.25500000000E-02 0.  1.
          2    1    1    2    0  502  0.29769928585E+02  0.46842068885E+01  0.26596656755E+03  0.26766846191E+03  0.25500000000E-02 0.  1.
         -2    1    1    2  502    0 -0.29769928585E+02 -0.46842068885E+01  0.42592861900E+03  0.42699341790E+03  0.25500000000E-02 0.  1.
<mgrwt>
<rscale>  0 0.61936888E+02</rscale>
<asrwt>0</asrwt>
<pdfrwt beam="1">  1        2 0.10665821E+00 0.61936888E+02</pdfrwt>
<pdfrwt beam="2">  1       -2 0.21282262E-03 0.61936888E+02</pdfrwt>
<totfact> 0.64292049E+05</totfact>
</mgrwt>
</event>
<event>
 4    1  0.2196664E-002  0.6009638E+02  0.7818608E-02  0.1397428E+00
         -2   -1    0    0  501    0 -0.00000000000E+00  0.00000000000E+00  0.10064234115E+01  0.10064266420E+01  0.25500000000E-02 0.  1.
          2   -1    0    0    0  501  0.00000000000E+00 -0.00000000000E+00 -0.89712963985E+03  0.89712963985E+03  0.25500000000E-02 0.  1.
          2    1    1    2    0  502 -0.25602945953E+02  0.14185338241E+01 -0.68216360631E+03  0.68264537562E+03  0.25500000000E-02 0.  1.
         -2    1    1    2  502    0  0.25602945953E+02 -0.14185338241E+01 -0.21395961013E+03  0.21549069087E+03  0.25500000000E-02 0.  1.
<mgrwt>
<rscale>  0 0.60096380E+02</rscale>
<asrwt>0</asrwt>
<pdfrwt beam="2">  1        2 0.13801931E+00 0.60096380E+02</pdfrwt>
<pdfrwt beam="1">  1       -2 0.15483534E-03 0.60096380E+02</pdfrwt>
<totfact> 0.72578633E+05</totfact>
</mgrwt>
</event>
<event>
 4    1  0.2196664E-002  0.1489839E+03  0.7818608E-02  0.1201727E+00
          2   -1    0    0    0  501  0.00000000000E+00  0.00000000000E+00  0.53944533597E+03  0.53944533597E+03  0.25500000000E-02 0.  1.
         -2   -1    0    0  501    0 -0.00000000000E+00 -0.00000000000E+00 -0.10286590929E+02  0.10286591245E+02  0.25500000000E-02 0.  1.
          2    1    1    2    0  502  0.74422743976E+02 -0.27833230748E+01  0.27048533013E+03  0.28055089650E+03  0.25500000000E-02 0. -1.
         -2    1    1    2  502    0 -0.74422743976E+02  0.27833230748E+01  0.25867341491E+03  0.26918103071E+03  0.25500000000E-02 0. -1.
<mgrwt>
<rscale>  0 0.14898394E+03</rscale>
<asrwt>0</asrwt>
<pdfrwt beam="1">  1        2 0.82991612E-01 0.14898394E+03</pdfrwt>
<pdfrwt beam="2">  1       -2 0.15825521E-02 0.14898394E+03</pdfrwt>
<totfact> 0.58250719E+04</totfact>
</mgrwt>
</event>
<event>
 4    1  0.2196664E-002  0.6458843E+02  0.7818608E-02  0.1379526E+00
         -2   -1    0    0  501    0 -0.00000000000E+00  0.00000000000E+00  0.34210855420E+02  0.34210855515E+02  0.25500000000E-02 0.  1.
          2   -1    0    0    0  501  0.00000000000E+00 -0.00000000000E+00 -0.30484956179E+02  0.30484956286E+02  0.25500000000E-02 0.  1.
          2    1    1    2    0  502  0.28838712755E+02  0.95193363415E+01 -0.91383562102E+01  0.31714329230E+02  0.25500000000E-02 0.  1.
         -2    1    1    2  502    0 -0.28838712755E+02 -0.95193363415E+01  0.12864255451E+02  0.32981482571E+02  0.25500000000E-02 0.  1.
<mgrwt>
<rscale>  0 0.64588433E+02</rscale>
<asrwt>0</asrwt>
<pdfrwt beam="2">  1        2 0.46899933E-02 0.64588433E+02</pdfrwt>
<pdfrwt beam="1">  1       -2 0.52632085E-02 0.64588433E+02</pdfrwt>
<totfact> 0.23710793E+05</totfact>
</mgrwt>
</event>
<event>
 4    1  0.2196664E-002  0.7507827E+02  0.7818608E-02  0.1343629E+00
          2   -1    0    0    0  501  0.00000000000E+00  0.00000000000E+00  0.93352120426E+02  0.93352120461E+02  0.25500000000E-02 0.  1.
         -2   -1    0    0  501    0 -0.00000000000E+00 -0.00000000000E+00 -0.15095389431E+02  0.15095389646E+02  0.25500000000E-02 0.  1.
          2    1    1    2    0  502 -0.33281713371E+02  0.95244131810E+01  0.60100389984E+02  0.69357362797E+02  0.25500000000E-02 0.  1.
         -2    1    1    2  502    0  0.33281713371E+02 -0.95244131810E+01  0.18156341010E+02  0.39090147310E+02  0.25500000000E-02 0.  1.
<mgrwt>
<rscale>  0 0.75078269E+02</rscale>
<asrwt>0</asrwt>
<pdfrwt beam="1">  1        2 0.14361865E-01 0.75078269E+02</pdfrwt>
<pdfrwt beam="2">  1       -2 0.23223676E-02 0.75078269E+02</pdfrwt>
<totfact> 0.20383283E+05</totfact>
</mgrwt>
</event>
<event>
 4    1  0.2196664E-002  0.1446424E+03  0.7818608E-02  0.1207215E+00
          2   -1    0    0    0  501  0.00000000000E+00  0.00000000000E+00  0.20545024221E+03  0.20545024222E+03  0.25500000000E-02 0.  1.
         -2   -1    0    0  501    0 -0.00000000000E+00 -0.00000000000E+00 -0.25458010238E+02  0.25458010366E+02  0.25500000000E-02 0.  1.
          2    1    1    2    0  502 -0.31605409090E+02  0.17832200646E+02 -0.98714889697E+01  0.37607653006E+02  0.25500000000E-02 0. -1.
         -2    1    1    2  502    0  0.31605409090E+02 -0.17832200646E+02  0.18986372094E+03  0.19330059958E+03  0.25500000000E-02 0. -1.
<mgrwt>
<rscale>  0 0.14464238E+03</rscale>
<asrwt>0</asrwt>
<pdfrwt beam="1">  1        2 0.31607730E-01 0.14464238E+03</pdfrwt>
<pdfrwt beam="2">  1       -2 0.39166170E-02 0.14464238E+03</pdfrwt>
<totfact> 0.43449101E+04</totfact>
</mgrwt>
</event>
<event>
 4    1  0.2196664E-002  0.1101280E+03  0.7818608E-02  0.1260333E+00
         -2   -1    0    0  501    0 -0.00000000000E+00  0.00000000000E+00  0.10209340829E+02  0.10209341147E+02  0.25500000000E-02 0. -1.
          2   -1    0    0    0  501  0.00000000000E+00 -0.00000000000E+00 -0.29698708603E+03  0.29698708604E+03  0.25500000000E-02 0. -1.
          2    1    1    2    0  502 -0.50706394787E+02 -0.20120473308E+02 -0.16427633954E+03  0.17309733579E+03  0.25500000000E-02 0. -1.
         -2    1    1    2  502    0  0.50706394787E+02  0.20120473308E+02 -0.12250140567E+03  0.13409909140E+03  0.25500000000E-02 0. -1.
<mgrwt>
<rscale>  0 0.11012797E+03</rscale>
<asrwt>0</asrwt>
<pdfrwt beam="2">  1        2 0.45690314E-01 0.11012797E+03</pdfrwt>
<pdfrwt beam="1">  1       -2 0.15706681E-02 0.11012797E+03</pdfrwt>
<totfact> 0.10753974E+05</totfact>
</mgrwt>
</event>
<event>
 4    1  0.2196664E-002  0.8669957E+02  0.7818608E-02  0.1311047E+00
          2   -1    0    0    0  501  0.00000000000E+00  0.00000000000E+00  0.41593984424E+03  0.41593984425E+03  0.25500000000E-02 0.  1.
         -2   -1    0    0  501    0 -0.00000000000E+00 -0.00000000000E+00 -0.45179695650E+01  0.45179702847E+01  0.25500000000E-02 0.  1.
          2    1    1    2    0  502 -0.38338002205E+02 -0.11040177064E+02  0.12347979077E+03  0.12976496699E+03  0.25500000000E-02 0. -1.
         -2    1    1    2  502    0  0.38338002205E+02  0.11040177064E+02  0.28794208391E+03  0.29069284754E+03  0.25500000000E-02 0. -1.
<mgrwt>
<rscale>  0 0.86699567E+02</rscale>
<asrwt>0</asrwt>
<pdfrwt beam="1">  1        2 0.63990786E-01 0.86699567E+02</pdfrwt>
<pdfrwt beam="2">  1       -2 0.69507185E-03 0.86699567E+02</pdfrwt>
<totfact> 0.23125424E+05</totfact>
</mgrwt>
</event>
<event>
 4    1  0.2196664E-002  0.5501757E+02  0.7818608E-02  0.1420016E+00
          2   -1    0    0    0  501  0.00000000000E+00  0.00000000000E+00  0.31757059901E+02  0.31757060003E+02  0.25500000000E-02 0.  1.
         -2   -1    0    0  501    0 -0.00000000000E+00 -0.00000000000E+00 -0.23828817973E+02  0.23828818110E+02  0.25500000000E-02 0.  1.
          2    1    1    2    0  502 -0.19339383118E+02 -0.95541770646E+01  0.21212053044E+02  0.30253020338E+02  0.25500000000E-02 0. -1.
         -2    1    1    2  502    0  0.19339383118E+02  0.95541770646E+01 -0.13283811116E+02  0.25332857775E+02  0.25500000000E-02 0. -1.
<mgrwt>
<rscale>  0 0.55017568E+02</rscale>
<asrwt>0</asrwt>
<pdfrwt beam="1">  1        2 0.48857015E-02 0.55017568E+02</pdfrwt>
<pdfrwt beam="2">  1       -2 0.36659720E-02 0.55017568E+02</pdfrwt>
<totfact> 0.36827849E+05</totfact>
</mgrwt>
</event>
<event>
 4    1  0.2196664E-002  0.7647049E+02  0.7818608E-02  0.1339377E+00
         -2   -1    0    0  501    0 -0.00000000000E+00  0.00000000000E+00  0.53912578904E+01  0.53912584934E+01  0.25500000000E-02 0.  1.
          2   -1    0    0    0  501  0.00000000000E+00 -0.00000000000E+00 -0.27116745943E+03  0.27116745944E+03  0.25500000000E-02 0.  1.
          2    1    1    2    0  502  0.19460847318E+02 -0.29537725081E+02 -0.18538803417E+03  0.18873241641E+03  0.25500000000E-02 0. -1.
         -2    1    1    2  502    0 -0.19460847318E+02  0.29537725081E+02 -0.80388167363E+02  0.87826301526E+02  0.25500000000E-02 0. -1.
<mgrwt>
<rscale>  0 0.76470486E+02</rscale>
<asrwt>0</asrwt>
<pdfrwt beam="2">  1        2 0.41718060E-01 0.76470486E+02</pdfrwt>
<pdfrwt beam="1">  1       -2 0.82942455E-03 0.76470486E+02</pdfrwt>
<totfact> 0.27558564E+05</totfact>
</mgrwt>
</event>
<event>
 4    1  0.2196664E-002  0.6833654E+02  0.7818608E-02  0.1365843E+00
          2   -1    0    0    0  501  0.00000000000E+00  0.00000000000E+00  0.88862007457E+03  0.88862007457E+03  0.25500000000E-02 0. -1.
         -2   -1    0    0  501    0 -0.00000000000E+00 -0.00000000000E+00 -0.13138005028E+01  0.13138029775E+01  0.25500000000E-02 0. -1.
          2    1    1    2    0  502 -0.16203803042E+02 -0.17002581983E+02  0.12048278601E+03  0.12275077498E+03  0.25500000000E-02 0. -1.
         -2    1    1    2  502    0  0.16203803042E+02  0.17002581983E+02  0.76682348806E+03  0.76718310257E+03  0.25500000000E-02 0. -1.
<mgrwt>
<rscale>  0 0.68336538E+02</rscale>
<asrwt>0</asrwt>
<pdfrwt beam="1">  1        2 0.13671102E+00 0.68336538E+02</pdfrwt>
<pdfrwt beam="2">  1       -2 0.20212298E-03 0.68336538E+02</pdfrwt>
<totfact> 0.52326007E+05</totfact>
</mgrwt>
</event>
<event>
 4    1  0.2196664E-002  0.8508844E+02  0.7818608E-02  0.1315201E+00
          2   -1    0    0    0  501  0.00000000000E+00  0.00000000000E+00  0.50552153630E+03  0.50552153631E+03  0.25500000000E-02 0.  1.
         -2   -1    0    0  501    0 -0.00000000000E+00 -0.00000000000E+00 -0.35804812264E+01  0.35804821344E+01  0.25500000000E-02 0.  1.
          2    1    1    2    0  502 -0.29454089215E+02 -0.25961598339E+02  0.34900440705E+03  0.35120595682E+03  0.25500000000E-02 0. -1.
         -2    1    1    2  502    0  0.29454089215E+02  0.25961598339E+02  0.15293664802E+03  0.15789606162E+03  0.25500000000E-02 0. -1.
<mgrwt>
<rscale>  0 0.85088439E+02</rscale>
<asrwt>0</asrwt>
<pdfrwt beam="1">  1        2 0.77772546E-01 0.85088439E+02</pdfrwt>
<pdfrwt beam="2">  1       -2 0.55084332E-03 0.85088439E+02</pdfrwt>
<totfact> 0.25947848E+05</totfact>
</mgrwt>
</event>
<event>
 4    1  0.2196664E-002  0.7690663E+02  0.7818608E-02  0.1338066E+00
         -2   -1    0    0  501    0 -0.00000000000E+00  0.00000000000E+00  0.79924702303E+00  0.79925109091E+00  0.25500000000E-02 0. -1.
          2   -1    0    0    0  501  0.00000000000E+00 -0.00000000000E+00 -0.18500583164E+04  0.18500583164E+04  0.25500000000E-02 0. -1.
          2    1    1    2    0  502  0.13063135712E+02  0.35705581808E+02 -0.78612121521E+03  0.78704008735E+03  0.25500000000E-02 0.  1.
         -2    1    1    2  502    0 -0.13063135712E+02 -0.35705581808E+02 -0.10631378541E+04  0.10638174801E+04  0.25500000000E-02 0.  1.
<mgrwt>
<rscale>  0 0.76906628E+02</rscale>
<asrwt>0</asrwt>
<pdfrwt beam="2">  1        2 0.28462093E+00 0.76906628E+02</pdfrwt>
<pdfrwt beam="1">  1       -2 0.12296287E-03 0.76906628E+02</pdfrwt>
<totfact> 0.32813664E+05</totfact>
</mgrwt>
</event>
<event>
 4    1  0.2196664E-002  0.6638673E+02  0.7818608E-02  0.1372830E+00
          2   -1    0    0    0  501  0.00000000000E+00  0.00000000000E+00  0.30962713433E+02  0.30962713538E+02  0.25500000000E-02 0.  1.
         -2   -1    0    0  501    0 -0.00000000000E+00 -0.00000000000E+00 -0.35584716502E+02  0.35584716593E+02  0.25500000000E-02 0.  1.
          2    1    1    2    0  502 -0.22726285283E+02 -0.20973388979E+02 -0.14399725307E+02  0.34113328530E+02  0.25500000000E-02 0.  1.
         -2    1    1    2  502    0  0.22726285283E+02  0.20973388979E+02  0.97777222384E+01  0.32434101601E+02  0.25500000000E-02 0.  1.
<mgrwt>
<rscale>  0 0.66386727E+02</rscale>
<asrwt>0</asrwt>
<pdfrwt beam="1">  1        2 0.47634944E-02 0.66386727E+02</pdfrwt>
<pdfrwt beam="2">  1       -2 0.54745718E-02 0.66386727E+02</pdfrwt>
<totfact> 0.22052585E+05</totfact>
</mgrwt>
</event>
<event>
 4    1  0.2196664E-002  0.4294648E+02  0.7818608E-02  0.1487584E+00
         -2   -1    0    0  501    0 -0.00000000000E+00  0.00000000000E+00  0.51137155335E+02  0.51137155398E+02  0.25500000000E-02 0.  1.
          2   -1    0    0    0  501  0.00000000000E+00 -0.00000000000E+00 -0.90169286487E+01  0.90169290092E+01  0.25500000000E-02 0.  1.
          2    1    1    2    0  502  0.20723798921E+02 -0.50585836623E+01  0.17619187418E+02  0.27667686606E+02  0.25500000000E-02 0. -1.
         -2    1    1    2  502    0 -0.20723798921E+02  0.50585836623E+01  0.24501039268E+02  0.32486397801E+02  0.25500000000E-02 0. -1.
<mgrwt>
<rscale>  0 0.42946483E+02</rscale>
<asrwt>0</asrwt>
<pdfrwt beam="2">  1        2 0.13872198E-02 0.42946483E+02</pdfrwt>
<pdfrwt beam="1">  1       -2 0.78672549E-02 0.42946483E+02</pdfrwt>
<totfact> 0.58434660E+05</totfact>
</mgrwt>
</event>
<event>
 4    1  0.2196664E-002  0.7065759E+02  0.7818608E-02  0.1357871E+00
          2   -1    0    0    0  501  0.00000000000E+00  0.00000000000E+00  0.13006462897E+03  0.13006462899E+03  0.25500000000E-02 0.  1.
         -2   -1    0    0  501    0 -0.00000000000E+00 -0.00000000000E+00 -0.95961817778E+01  0.95961821166E+01  0.25500000000E-02 0.  1.
          2    1    1    2    0  502 -0.11540098335E+02  0.31045506463E+02  0.35935355910E+02  0.48870718759E+02  0.25500000000E-02 0.  1.
         -2    1    1    2  502    0  0.11540098335E+02 -0.31045506463E+02  0.84533091279E+02  0.90790092350E+02  0.25500000000E-02 0.  1.
<mgrwt>
<rscale>  0 0.70657593E+02</rscale>
<asrwt>0</asrwt>
<pdfrwt beam="1">  1        2 0.20009942E-01 0.70657593E+02</pdfrwt>
<pdfrwt beam="2">  1       -2 0.14763357E-02 0.70657593E+02</pdfrwt>
<totfact> 0.26395741E+05</totfact>
</mgrwt>
</event>
<event>
 4    1  0.2196664E-002  0.1004897E+03  0.7818608E-02  0.1279269E+00
          2   -1    0    0    0  501  0.00000000000E+00  0.00000000000E+00  0.84271598630E+03  0.84271598630E+03  0.25500000000E-02 0.  1.
         -2   -1    0    0  501    0 -0.00000000000E+00 -0.00000000000E+00 -0.29957260103E+01  0.29957270956E+01  0.25500000000E-02 0.  1.
          2    1    1    2    0  502 -0.44410111461E+00  0.48574249299E+02  0.31179138964E+03  0.31555273027E+03  0.25500000000E-02 0.  1.
         -2    1    1    2  502    0  0.44410111461E+00 -0.48574249299E+02  0.52792887065E+03  0.53015898313E+03  0.25500000000E-02 0.  1.
<mgrwt>
<rscale>  0 0.10048973E+03</rscale>
<asrwt>0</asrwt>
<pdfrwt beam="1">  1        2 0.12964859E+00 0.10048973E+03</pdfrwt>
<pdfrwt beam="2">  1       -2 0.46088109E-03 0.10048973E+03</pdfrwt>
<totfact> 0.19000919E+05</totfact>
</mgrwt>
</event>
<event>
 4    1  0.2196664E-002  0.4687524E+02  0.7818608E-02  0.1462963E+00
         -2   -1    0    0  501    0 -0.00000000000E+00  0.00000000000E+00  0.41468799502E+01  0.41468807342E+01  0.25500000000E-02 0.  1.
          2   -1    0    0    0  501  0.00000000000E+00 -0.00000000000E+00 -0.13246634762E+03  0.13246634764E+03  0.25500000000E-02 0.  1.
          2    1    1    2    0  502  0.21285045235E+02 -0.80226599667E+01 -0.47697661945E+02  0.52843951263E+02  0.25500000000E-02 0. -1.
         -2    1    1    2  502    0 -0.21285045235E+02  0.80226599667E+01 -0.80621805722E+02  0.83769277113E+02  0.25500000000E-02 0. -1.
<mgrwt>
<rscale>  0 0.46875243E+02</rscale>
<asrwt>0</asrwt>
<pdfrwt beam="2">  1        2 0.20379435E-01 0.46875243E+02</pdfrwt>
<pdfrwt beam="1">  1       -2 0.63798169E-03 0.46875243E+02</pdfrwt>
<totfact> 0.76081042E+05</totfact>
</mgrwt>
</event>
<event>
 4    1  0.2196664E-002  0.5328586E+02  0.7818608E-02  0.1428384E+00
         -2   -1    0    0  501    0 -0.00000000000E+00  0.00000000000E+00  0.49683117485E+00  0.49683771878E+00  0.25500000000E-02 0.  1.
          2   -1    0    0    0  501  0.00000000000E+00 -0.00000000000E+00 -0.14287369049E+04  0.14287369049E+04  0.25500000000E-02 0.  1.
          2    1    1    2    0  502  0.95488523809E+01  0.22549013436E+02 -0.99569634187E+03  0.99599741154E+03  0.25500000000E-02 0.  1.
         -2    1    1    2  502    0 -0.95488523809E+01 -0.22549013436E+02 -0.43254373187E+03  0.43323633109E+03  0.25500000000E-02 0.  1.
<mgrwt>
<rscale>  0 0.53285860E+02</rscale>
<asrwt>0</asrwt>
<pdfrwt beam="2">  1        2 0.21980239E+00 0.53285860E+02</pdfrwt>
<pdfrwt beam="1">  1       -2 0.76437212E-04 0.53285860E+02</pdfrwt>
<totfact> 0.95080178E+05</totfact>
</mgrwt>
</event>
<event>
 4    1  0.2196664E-002  0.5952771E+02  0.7818608E-02  0.1399824E+00
          2   -1    0    0    0  501  0.00000000000E+00  0.00000000000E+00  0.19223651971E+03  0.19223651973E+03  0.25500000000E-02 0.  1.
         -2   -1    0    0  501    0 -0.00000000000E+00 -0.00000000000E+00 -0.46083173055E+01  0.46083180110E+01  0.25500000000E-02 0.  1.
          2    1    1    2    0  502 -0.13934092856E+02  0.25433449514E+02  0.71664213435E+02  0.77309629359E+02  0.25500000000E-02 0.  1.
         -2    1    1    2  502    0  0.13934092856E+02 -0.25433449514E+02  0.11596398897E+03  0.11953520838E+03  0.25500000000E-02 0.  1.
<mgrwt>
<rscale>  0 0.59527706E+02</rscale>
<asrwt>0</asrwt>
<pdfrwt beam="1">  1        2 0.29574857E-01 0.59527706E+02</pdfrwt>
<pdfrwt beam="2">  1       -2 0.70897177E-03 0.59527706E+02</pdfrwt>
<totfact> 0.46717497E+05</totfact>
</mgrwt>
</event>
<event>
 4    1  0.2196664E-002  0.5042293E+02  0.7818608E-02  0.1443074E+00
          2   -1    0    0    0  501  0.00000000000E+00  0.00000000000E+00  0.32004907093E+01  0.32004917251E+01  0.25500000000E-02 0.  1.
         -2   -1    0    0  501    0 -0.00000000000E+00 -0.00000000000E+00 -0.19860013929E+03  0.19860013931E+03  0.25500000000E-02 0.  1.
          2    1    1    2    0  502  0.19964624449E+02 -0.78543376162E+01 -0.44704646479E+02  0.49586109669E+02  0.25500000000E-02 0.  1.
         -2    1    1    2  502    0 -0.19964624449E+02  0.78543376162E+01 -0.15069500210E+03  0.15221452136E+03  0.25500000000E-02 0.  1.
<mgrwt>
<rscale>  0 0.50422931E+02</rscale>
<asrwt>0</asrwt>
<pdfrwt beam="1">  1        2 0.49238342E-03 0.50422931E+02</pdfrwt>
<pdfrwt beam="2">  1       -2 0.30553858E-01 0.50422931E+02</pdfrwt>
<totfact> 0.27696927E+05</totfact>
</mgrwt>
</event>
<event>
 4    1  0.2196664E-002  0.1169041E+03  0.7818608E-02  0.1248293E+00
          2   -1    0    0    0  501  0.00000000000E+00  0.00000000000E+00  0.36264980631E+04  0.36264980631E+04  0.25500000000E-02 0. -1.
         -2   -1    0    0  501    0 -0.00000000000E+00 -0.00000000000E+00 -0.94213165156E+00  0.94213510251E+00  0.25500000000E-02 0. -1.
          2    1    1    2    0  502  0.55703634121E+02 -0.70861480457E+00  0.23619575856E+04  0.23626144487E+04  0.25500000000E-02 0.  1.
         -2    1    1    2  502    0 -0.55703634121E+02  0.70861480457E+00  0.12635983459E+04  0.12648257495E+04  0.25500000000E-02 0.  1.
<mgrwt>
<rscale>  0 0.11690415E+03</rscale>
<asrwt>0</asrwt>
<pdfrwt beam="1">  1        2 0.55791366E+00 0.11690415E+03</pdfrwt>
<pdfrwt beam="2">  1       -2 0.14494596E-03 0.11690415E+03</pdfrwt>
<totfact> 0.27872388E+04</totfact>
</mgrwt>
</event>
<event>
 4    1  0.2196664E-002  0.5252337E+02  0.7818608E-02  0.1432188E+00
          2   -1    0    0    0  501  0.00000000000E+00  0.00000000000E+00  0.17867092626E+03  0.17867092628E+03  0.25500000000E-02 0. -1.
         -2   -1    0    0  501    0 -0.00000000000E+00 -0.00000000000E+00 -0.38600349069E+01  0.38600357492E+01  0.25500000000E-02 0. -1.
          2    1    1    2    0  502  0.42360010650E+01 -0.24030833711E+02  0.53666780937E+02  0.58953778984E+02  0.25500000000E-02 0.  1.
         -2    1    1    2  502    0 -0.42360010650E+01  0.24030833711E+02  0.12114411041E+03  0.12357718304E+03  0.25500000000E-02 0.  1.
<mgrwt>
<rscale>  0 0.52523370E+02</rscale>
<asrwt>0</asrwt>
<pdfrwt beam="1">  1        2 0.27487836E-01 0.52523370E+02</pdfrwt>
<pdfrwt beam="2">  1       -2 0.59385157E-03 0.52523370E+02</pdfrwt>
<totfact> 0.62683807E+05</totfact>
</mgrwt>
</event>
<event>
 4    1  0.2196664E-002  0.7666149E+02  0.7818608E-02  0.1338802E+00
          2   -1    0    0    0  501  0.00000000000E+00  0.00000000000E+00  0.14614703830E+03  0.14614703833E+03  0.25500000000E-02 0. -1.
         -2   -1    0    0  501    0 -0.00000000000E+00 -0.00000000000E+00 -0.10053204837E+02  0.10053205160E+02  0.25500000000E-02 0. -1.
          2    1    1    2    0  502  0.14978080223E+02  0.28547090960E+02  0.25797383526E+02  0.41289033565E+02  0.25500000000E-02 0. -1.
         -2    1    1    2  502    0 -0.14978080223E+02 -0.28547090960E+02  0.11029644994E+03  0.11491120992E+03  0.25500000000E-02 0. -1.
<mgrwt>
<rscale>  0 0.76661493E+02</rscale>
<asrwt>0</asrwt>
<pdfrwt beam="1">  1        2 0.22484161E-01 0.76661493E+02</pdfrwt>
<pdfrwt beam="2">  1       -2 0.15466469E-02 0.76661493E+02</pdfrwt>
<totfact> 0.22075865E+05</totfact>
</mgrwt>
</event>
<event>
 4    1  0.2196664E-002  0.4789210E+02  0.7818608E-02  0.1457054E+00
          2   -1    0    0    0  501  0.00000000000E+00  0.00000000000E+00  0.11036965677E+02  0.11036965972E+02  0.25500000000E-02 0.  1.
         -2   -1    0    0  501    0 -0.00000000000E+00 -0.00000000000E+00 -0.51953886648E+02  0.51953886711E+02  0.25500000000E-02 0.  1.
          2    1    1    2    0  502  0.20831894780E+02  0.11808035964E+02 -0.20623341653E+02  0.31602528078E+02  0.25500000000E-02 0.  1.
         -2    1    1    2  502    0 -0.20831894780E+02 -0.11808035964E+02 -0.20293579318E+02  0.31388324605E+02  0.25500000000E-02 0.  1.
<mgrwt>
<rscale>  0 0.47892099E+02</rscale>
<asrwt>0</asrwt>
<pdfrwt beam="1">  1        2 0.16979948E-02 0.47892099E+02</pdfrwt>
<pdfrwt beam="2">  1       -2 0.79929055E-02 0.47892099E+02</pdfrwt>
<totfact> 0.44904161E+05</totfact>
</mgrwt>
</event>
<event>
 4    1  0.2196664E-002  0.5224116E+02  0.7818608E-02  0.1433615E+00
          2   -1    0    0    0  501  0.00000000000E+00  0.00000000000E+00  0.10371916635E+03  0.10371916638E+03  0.25500000000E-02 0.  1.
         -2   -1    0    0  501    0 -0.00000000000E+00 -0.00000000000E+00 -0.65781937337E+01  0.65781942279E+01  0.25500000000E-02 0.  1.
          2    1    1    2    0  502  0.21539649444E+02 -0.14462597681E+02  0.54961018954E+02  0.60776943332E+02  0.25500000000E-02 0. -1.
         -2    1    1    2  502    0 -0.21539649444E+02  0.14462597681E+02  0.42179953665E+02  0.49520417280E+02  0.25500000000E-02 0. -1.
<mgrwt>
<rscale>  0 0.52241164E+02</rscale>
<asrwt>0</asrwt>
<pdfrwt beam="1">  1        2 0.15956795E-01 0.52241164E+02</pdfrwt>
<pdfrwt beam="2">  1       -2 0.10120299E-02 0.52241164E+02</pdfrwt>
<totfact> 0.54085760E+05</totfact>
</mgrwt>
</event>
<event>
 4    1  0.2196664E-002  0.5688240E+02  0.7818608E-02  0.1411401E+00
          2   -1    0    0    0  501  0.00000000000E+00  0.00000000000E+00  0.23756345543E+03  0.23756345545E+03  0.25500000000E-02 0. -1.
         -2   -1    0    0  501    0 -0.00000000000E+00 -0.00000000000E+00 -0.34049922208E+01  0.34049931756E+01  0.25500000000E-02 0. -1.
          2    1    1    2    0  502 -0.17273595495E+02  0.20195314648E+02  0.74154014395E+02  0.78772112403E+02  0.25500000000E-02 0. -1.
         -2    1    1    2  502    0  0.17273595495E+02 -0.20195314648E+02  0.16000444882E+03  0.16219633622E+03  0.25500000000E-02 0. -1.
<mgrwt>
<rscale>  0 0.56882399E+02</rscale>
<asrwt>0</asrwt>
<pdfrwt beam="1">  1        2 0.36548220E-01 0.56882399E+02</pdfrwt>
<pdfrwt beam="2">  1       -2 0.52384508E-03 0.56882399E+02</pdfrwt>
<totfact> 0.56389906E+05</totfact>
</mgrwt>
</event>
<event>
 4    1  0.2196664E-002  0.6215211E+02  0.7818608E-02  0.1389016E+00
          2   -1    0    0    0  501  0.00000000000E+00  0.00000000000E+00  0.22368375831E+02  0.22368375976E+02  0.25500000000E-02 0. -1.
         -2   -1    0    0  501    0 -0.00000000000E+00 -0.00000000000E+00 -0.43173502912E+02  0.43173502988E+02  0.25500000000E-02 0. -1.
          2    1    1    2    0  502  0.16273114973E+02  0.22906281038E+02  0.35957997156E+01  0.28327403058E+02  0.25500000000E-02 0.  1.
         -2    1    1    2  502    0 -0.16273114973E+02 -0.22906281038E+02 -0.24400926797E+02  0.37214475906E+02  0.25500000000E-02 0.  1.
<mgrwt>
<rscale>  0 0.62152108E+02</rscale>
<asrwt>0</asrwt>
<pdfrwt beam="1">  1        2 0.34412886E-02 0.62152108E+02</pdfrwt>
<pdfrwt beam="2">  1       -2 0.66420774E-02 0.62152108E+02</pdfrwt>
<totfact> 0.24845500E+05</totfact>
</mgrwt>
</event>
<event>
 4    1  0.2196664E-002  0.5002728E+02  0.7818608E-02  0.1445194E+00
          2   -1    0    0    0  501  0.00000000000E+00  0.00000000000E+00  0.11662399049E+02  0.11662399328E+02  0.25500000000E-02 0.  1.
         -2   -1    0    0  501    0 -0.00000000000E+00 -0.00000000000E+00 -0.53649532671E+02  0.53649532732E+02  0.25500000000E-02 0.  1.
          2    1    1    2    0  502  0.14336798264E+02 -0.20469930714E+02 -0.22375462177E+02  0.33544346201E+02  0.25500000000E-02 0. -1.
         -2    1    1    2  502    0 -0.14336798264E+02  0.20469930714E+02 -0.19611671446E+02  0.31767585859E+02  0.25500000000E-02 0. -1.
<mgrwt>
<rscale>  0 0.50027283E+02</rscale>
<asrwt>0</asrwt>
<pdfrwt beam="1">  1        2 0.17942153E-02 0.50027283E+02</pdfrwt>
<pdfrwt beam="2">  1       -2 0.82537742E-02 0.50027283E+02</pdfrwt>
<totfact> 0.40211657E+05</totfact>
</mgrwt>
</event>
<event>
 4    1  0.2196664E-002  0.6750725E+02  0.7818608E-02  0.1368781E+00
          2   -1    0    0    0  501  0.00000000000E+00  0.00000000000E+00  0.21654323892E+03  0.21654323893E+03  0.25500000000E-02 0.  1.
         -2   -1    0    0  501    0 -0.00000000000E+00 -0.00000000000E+00 -0.52613372673E+01  0.52613378853E+01  0.25500000000E-02 0.  1.
          2    1    1    2    0  502 -0.32634060829E+02 -0.61523490286E+01  0.12548408771E+03  0.12980404308E+03  0.25500000000E-02 0. -1.
         -2    1    1    2  502    0  0.32634060829E+02  0.61523490286E+01  0.85797813939E+02  0.92000533737E+02  0.25500000000E-02 0. -1.
<mgrwt>
<rscale>  0 0.67507247E+02</rscale>
<asrwt>0</asrwt>
<pdfrwt beam="1">  1        2 0.33314343E-01 0.67507247E+02</pdfrwt>
<pdfrwt beam="2">  1       -2 0.80943659E-03 0.67507247E+02</pdfrwt>
<totfact> 0.35193879E+05</totfact>
</mgrwt>
</event>
<event>
 4    1  0.2196664E-002  0.5125216E+02  0.7818608E-02  0.1438702E+00
          2   -1    0    0    0  501  0.00000000000E+00  0.00000000000E+00  0.10064811608E+02  0.10064811931E+02  0.25500000000E-02 0. -1.
         -2   -1    0    0  501    0 -0.00000000000E+00 -0.00000000000E+00 -0.65246730807E+02  0.65246730857E+02  0.25500000000E-02 0. -1.
          2    1    1    2    0  502 -0.21430728154E+02 -0.12915109320E+02 -0.35722096019E+02  0.43613579404E+02  0.25500000000E-02 0. -1.
         -2    1    1    2  502    0  0.21430728154E+02  0.12915109320E+02 -0.19459823181E+02  0.31697963384E+02  0.25500000000E-02 0. -1.
<mgrwt>
<rscale>  0 0.51252164E+02</rscale>
<asrwt>0</asrwt>
<pdfrwt beam="1">  1        2 0.15484326E-02 0.51252164E+02</pdfrwt>
<pdfrwt beam="2">  1       -2 0.10037958E-01 0.51252164E+02</pdfrwt>
<totfact> 0.36558953E+05</totfact>
</mgrwt>
</event>
<event>
 4    1  0.2196664E-002  0.5879089E+02  0.7818608E-02  0.1402977E+00
          2   -1    0    0    0  501  0.00000000000E+00  0.00000000000E+00  0.37378439489E+04  0.37378439489E+04  0.25500000000E-02 0. -1.
         -2   -1    0    0  501    0 -0.00000000000E+00 -0.00000000000E+00 -0.23116691387E+00  0.23118097796E+00  0.25500000000E-02 0. -1.
          2    1    1    2    0  502 -0.22223939358E+02  0.18840814656E+02  0.21167975603E+04  0.21169980612E+04  0.25500000000E-02 0.  1.
         -2    1    1    2  502    0  0.22223939358E+02 -0.18840814656E+02  0.16208152217E+04  0.16210770687E+04  0.25500000000E-02 0.  1.
<mgrwt>
<rscale>  0 0.58790888E+02</rscale>
<asrwt>0</asrwt>
<pdfrwt beam="1">  1        2 0.57509637E+00 0.58790888E+02</pdfrwt>
<pdfrwt beam="2">  1       -2 0.35562535E-04 0.58790888E+02</pdfrwt>
<totfact> 0.15390652E+05</totfact>
</mgrwt>
</event>
<event>
 4    1  0.2196664E-002  0.5959090E+02  0.7818608E-02  0.1399557E+00
         -2   -1    0    0  501    0 -0.00000000000E+00  0.00000000000E+00  0.16867797378E+01  0.16867816653E+01  0.25500000000E-02 0.  1.
          2   -1    0    0    0  501  0.00000000000E+00 -0.00000000000E+00 -0.52630954916E+03  0.52630954917E+03  0.25500000000E-02 0.  1.
          2    1    1    2    0  502  0.84115645407E+01 -0.25058962946E+02 -0.38414130256E+03  0.38504966743E+03  0.25500000000E-02 0. -1.
         -2    1    1    2  502    0 -0.84115645407E+01  0.25058962946E+02 -0.14048146686E+03  0.14294666341E+03  0.25500000000E-02 0. -1.
<mgrwt>
<rscale>  0 0.59590898E+02</rscale>
<asrwt>0</asrwt>
<pdfrwt beam="2">  1        2 0.80970569E-01 0.59590898E+02</pdfrwt>
<pdfrwt beam="1">  1       -2 0.25950514E-03 0.59590898E+02</pdfrwt>
<totfact> 0.65791969E+05</totfact>
</mgrwt>
</event>
<event>
 4    1  0.2196664E-002  0.6606705E+02  0.7818608E-02  0.1374002E+00
         -2   -1    0    0  501    0 -0.00000000000E+00  0.00000000000E+00  0.82070728359E+00  0.82071124511E+00  0.25500000000E-02 0. -1.
          2   -1    0    0    0  501  0.00000000000E+00 -0.00000000000E+00 -0.13295986536E+04  0.13295986536E+04  0.25500000000E-02 0. -1.
          2    1    1    2    0  502  0.77434439300E+01  0.28326898263E+02 -0.96901669891E+03  0.96946157059E+03  0.25500000000E-02 0. -1.
         -2    1    1    2  502    0 -0.77434439300E+01 -0.28326898263E+02 -0.35976124736E+03  0.36095779421E+03  0.25500000000E-02 0. -1.
<mgrwt>
<rscale>  0 0.66067055E+02</rscale>
<asrwt>0</asrwt>
<pdfrwt beam="2">  1        2 0.20455192E+00 0.66067055E+02</pdfrwt>
<pdfrwt beam="1">  1       -2 0.12626403E-03 0.66067055E+02</pdfrwt>
<totfact> 0.56344822E+05</totfact>
</mgrwt>
</event>
<event>
 4    1  0.2196664E-002  0.8150030E+02  0.7818608E-02  0.1324847E+00
          2   -1    0    0    0  501  0.00000000000E+00  0.00000000000E+00  0.11310233277E+04  0.11310233277E+04  0.25500000000E-02 0.  1.
         -2   -1    0    0  501    0 -0.00000000000E+00 -0.00000000000E+00 -0.14682042825E+01  0.14682064969E+01  0.25500000000E-02 0.  1.
          2    1    1    2    0  502 -0.24877652284E+00  0.35637457445E+02  0.29019208875E+03  0.29237226039E+03  0.25500000000E-02 0. -1.
         -2    1    1    2  502    0  0.24877652284E+00 -0.35637457445E+02  0.83936303470E+03  0.84011927385E+03  0.25500000000E-02 0. -1.
<mgrwt>
<rscale>  0 0.81500296E+02</rscale>
<asrwt>0</asrwt>
<pdfrwt beam="1">  1        2 0.17400401E+00 0.81500296E+02</pdfrwt>
<pdfrwt beam="2">  1       -2 0.22587720E-03 0.81500296E+02</pdfrwt>
<totfact> 0.33521398E+05</totfact>
</mgrwt>
</event>
<event>
 4    1  0.2196664E-002  0.9352527E+02  0.7818608E-02  0.1294533E+00
          2   -1    0    0    0  501  0.00000000000E+00  0.00000000000E+00  0.10562712110E+03  0.10562712113E+03  0.25500000000E-02 0. -1.
         -2   -1    0    0  501    0 -0.00000000000E+00 -0.00000000000E+00 -0.20702485441E+02  0.20702485598E+02  0.25500000000E-02 0. -1.
          2    1    1    2    0  502 -0.23735489014E+02 -0.26023704004E+02  0.84010619044E+02  0.91095503333E+02  0.25500000000E-02 0. -1.
         -2    1    1    2  502    0  0.23735489014E+02  0.26023704004E+02  0.91401661052E+00  0.35234103390E+02  0.25500000000E-02 0. -1.
<mgrwt>
<rscale>  0 0.93525268E+02</rscale>
<asrwt>0</asrwt>
<pdfrwt beam="1">  1        2 0.16250326E-01 0.93525268E+02</pdfrwt>
<pdfrwt beam="2">  1       -2 0.31849978E-02 0.93525268E+02</pdfrwt>
<totfact> 0.11631427E+05</totfact>
</mgrwt>
</event>
<event>
 4    1  0.2196664E-002  0.4149979E+02  0.7818608E-02  0.1497456E+00
          2   -1    0    0    0  501  0.00000000000E+00  0.00000000000E+00  0.58301968837E+00  0.58302526491E+00  0.25500000000E-02 0.  1.
         -2   -1    0    0  501    0 -0.00000000000E+00 -0.00000000000E+00 -0.73849304416E+03  0.73849304417E+03  0.25500000000E-02 0.  1.
          2    1    1    2    0  502 -0.18871663818E+02  0.84251858765E+01 -0.40196007894E+03  0.40249102912E+03  0.25500000000E-02 0. -1.
         -2    1    1    2  502    0  0.18871663818E+02 -0.84251858765E+01 -0.33594994553E+03  0.33658504031E+03  0.25500000000E-02 0. -1.
<mgrwt>
<rscale>  0 0.41499785E+02</rscale>
<asrwt>0</asrwt>
<pdfrwt beam="1">  1        2 0.89696357E-04 0.41499785E+02</pdfrwt>
<pdfrwt beam="2">  1       -2 0.11361357E+00 0.41499785E+02</pdfrwt>
<totfact> 0.18526135E+05</totfact>
</mgrwt>
</event>
<event>
 4    1  0.2196664E-002  0.5721399E+02  0.7818608E-02  0.1409910E+00
          2   -1    0    0    0  501  0.00000000000E+00  0.00000000000E+00  0.16163728451E+01  0.16163748566E+01  0.25500000000E-02 0. -1.
         -2   -1    0    0  501    0 -0.00000000000E+00 -0.00000000000E+00 -0.50629386561E+03  0.50629386561E+03  0.25500000000E-02 0. -1.
          2    1    1    2    0  502 -0.23584529493E+02 -0.92310407254E+01 -0.37041722917E+03  0.37128205696E+03  0.25500000000E-02 0. -1.
         -2    1    1    2  502    0  0.23584529493E+02  0.92310407254E+01 -0.13426026359E+03  0.13662818351E+03  0.25500000000E-02 0. -1.
<mgrwt>
<rscale>  0 0.57213990E+02</rscale>
<asrwt>0</asrwt>
<pdfrwt beam="1">  1        2 0.24867331E-03 0.57213990E+02</pdfrwt>
<pdfrwt beam="2">  1       -2 0.77891237E-01 0.57213990E+02</pdfrwt>
<totfact> 0.11763375E+05</totfact>
</mgrwt>
</event>
<event>
 4    1  0.2196664E-002  0.5780299E+02  0.7818608E-02  0.1407290E+00
          2   -1    0    0    0  501  0.00000000000E+00  0.00000000000E+00  0.16821022624E+04  0.16821022624E+04  0.25500000000E-02 0.  1.
         -2   -1    0    0  501    0 -0.00000000000E+00 -0.00000000000E+00 -0.49657557266E+00  0.49658211996E+00  0.25500000000E-02 0.  1.
          2    1    1    2    0  502 -0.25424195046E+02  0.68206617624E+01  0.11881492633E+04  0.11884408201E+04  0.25500000000E-02 0. -1.
         -2    1    1    2  502    0  0.25424195046E+02 -0.68206617624E+01  0.49345642353E+03  0.49415802437E+03  0.25500000000E-02 0. -1.
<mgrwt>
<rscale>  0 0.57802990E+02</rscale>
<asrwt>0</asrwt>
<pdfrwt beam="1">  1        2 0.25879126E+00 0.57802990E+02</pdfrwt>
<pdfrwt beam="2">  1       -2 0.76394888E-04 0.57802990E+02</pdfrwt>
<totfact> 0.72438453E+05</totfact>
</mgrwt>
</event>
<event>
 4    1  0.2196664E-002  0.5620469E+02  0.7818608E-02  0.1414486E+00
         -2   -1    0    0  501    0 -0.00000000000E+00  0.00000000000E+00  0.30201439823E+00  0.30202516325E+00  0.25500000000E-02 0.  1.
          2   -1    0    0    0  501  0.00000000000E+00 -0.00000000000E+00 -0.26148677645E+04  0.26148677645E+04  0.25500000000E-02 0.  1.
          2    1    1    2    0  502  0.26252418439E+02  0.13975736847E+01 -0.17693061018E+04  0.17695014056E+04  0.25500000000E-02 0.  1.
         -2    1    1    2  502    0 -0.26252418439E+02 -0.13975736847E+01 -0.84525964833E+03  0.84566838405E+03  0.25500000000E-02 0.  1.
<mgrwt>
<rscale>  0 0.56204690E+02</rscale>
<asrwt>0</asrwt>
<pdfrwt beam="2">  1        2 0.40226922E+00 0.56204690E+02</pdfrwt>
<pdfrwt beam="1">  1       -2 0.46466676E-04 0.56204690E+02</pdfrwt>
<totfact> 0.48368987E+05</totfact>
</mgrwt>
</event>
<event>
 4    1  0.2196664E-002  0.4897682E+02  0.7818608E-02  0.1450940E+00
         -2   -1    0    0  501    0 -0.00000000000E+00  0.00000000000E+00  0.22463497923E+03  0.22463497924E+03  0.25500000000E-02 0. -1.
          2   -1    0    0    0  501  0.00000000000E+00 -0.00000000000E+00 -0.26695849576E+01  0.26695861754E+01  0.25500000000E-02 0. -1.
          2    1    1    2    0  502 -0.73186246529E+01 -0.23193611223E+02  0.97711829399E+02  0.10069313521E+03  0.25500000000E-02 0. -1.
         -2    1    1    2  502    0  0.73186246529E+01  0.23193611223E+02  0.12425356487E+03  0.12661143020E+03  0.25500000000E-02 0. -1.
<mgrwt>
<rscale>  0 0.48976823E+02</rscale>
<asrwt>0</asrwt>
<pdfrwt beam="2">  1        2 0.41070534E-03 0.48976823E+02</pdfrwt>
<pdfrwt beam="1">  1       -2 0.34559239E-01 0.48976823E+02</pdfrwt>
<totfact> 0.28218514E+05</totfact>
</mgrwt>
</event>
<event>
 4    1  0.2196664E-002  0.5135968E+02  0.7818608E-02  0.1438143E+00
          2   -1    0    0    0  501  0.00000000000E+00  0.00000000000E+00  0.17300129840E+03  0.17300129842E+03  0.25500000000E-02 0. -1.
         -2   -1    0    0  501    0 -0.00000000000E+00 -0.00000000000E+00 -0.38118445626E+01  0.38118454155E+01  0.25500000000E-02 0. -1.
          2    1    1    2    0  502 -0.18741148933E+02 -0.17471705143E+02  0.78668790347E+02  0.82736145216E+02  0.25500000000E-02 0. -1.
         -2    1    1    2  502    0  0.18741148933E+02  0.17471705143E+02  0.90520663488E+02  0.94076998616E+02  0.25500000000E-02 0. -1.
<mgrwt>
<rscale>  0 0.51359678E+02</rscale>
<asrwt>0</asrwt>
<pdfrwt beam="1">  1        2 0.26615586E-01 0.51359678E+02</pdfrwt>
<pdfrwt beam="2">  1       -2 0.58643765E-03 0.51359678E+02</pdfrwt>
<totfact> 0.65640394E+05</totfact>
</mgrwt>
</event>
<event>
 4    1  0.2196664E-002  0.5759476E+02  0.7818608E-02  0.1408212E+00
         -2   -1    0    0  501    0 -0.00000000000E+00  0.00000000000E+00  0.89109669952E+00  0.89110034811E+00  0.25500000000E-02 0.  1.
          2   -1    0    0    0  501  0.00000000000E+00 -0.00000000000E+00 -0.93063671071E+03  0.93063671071E+03  0.25500000000E-02 0.  1.
          2    1    1    2    0  502  0.20112812818E+02  0.69128462649E+01 -0.15084369728E+03  0.15233559564E+03  0.25500000000E-02 0. -1.
         -2    1    1    2  502    0 -0.20112812818E+02 -0.69128462649E+01 -0.77890191673E+03  0.77919221542E+03  0.25500000000E-02 0. -1.
<mgrwt>
<rscale>  0 0.57594757E+02</rscale>
<asrwt>0</asrwt>
<pdfrwt beam="2">  1        2 0.14317410E+00 0.57594757E+02</pdfrwt>
<pdfrwt beam="1">  1       -2 0.13709283E-03 0.57594757E+02</pdfrwt>
<totfact> 0.81061911E+05</totfact>
</mgrwt>
</event>
<event>
 4    1  0.2196664E-002  0.6440996E+02  0.7818608E-02  0.1380205E+00
         -2   -1    0    0  501    0 -0.00000000000E+00  0.00000000000E+00  0.41446500367E+00  0.41447284804E+00  0.25500000000E-02 0.  1.
          2   -1    0    0    0  501  0.00000000000E+00 -0.00000000000E+00 -0.25023845632E+04  0.25023845632E+04  0.25500000000E-02 0.  1.
          2    1    1    2    0  502  0.28794360256E+02  0.14354351721E+02 -0.11960593789E+04  0.11964920395E+04  0.25500000000E-02 0. -1.
         -2    1    1    2  502    0 -0.28794360256E+02 -0.14354351721E+02 -0.13059107192E+04  0.13063069965E+04  0.25500000000E-02 0. -1.
<mgrwt>
<rscale>  0 0.64409957E+02</rscale>
<asrwt>0</asrwt>
<pdfrwt beam="2">  1        2 0.38497015E+00 0.64409957E+02</pdfrwt>
<pdfrwt beam="1">  1       -2 0.63766454E-04 0.64409957E+02</pdfrwt>
<totfact> 0.36783428E+05</totfact>
</mgrwt>
</event>
<event>
 4    1  0.2196664E-002  0.5377548E+02  0.7818608E-02  0.1425980E+00
         -2   -1    0    0  501    0 -0.00000000000E+00  0.00000000000E+00  0.12228361860E+01  0.12228388448E+01  0.25500000000E-02 0. -1.
          2   -1    0    0    0  501  0.00000000000E+00 -0.00000000000E+00 -0.59120731072E+03  0.59120731072E+03  0.25500000000E-02 0. -1.
          2    1    1    2    0  502 -0.55936939086E+01  0.25559655360E+02 -0.22675507683E+03  0.22825961156E+03  0.25500000000E-02 0.  1.
         -2    1    1    2  502    0  0.55936939086E+01 -0.25559655360E+02 -0.36322939770E+03  0.36417053801E+03  0.25500000000E-02 0.  1.
<mgrwt>
<rscale>  0 0.53775477E+02</rscale>
<asrwt>0</asrwt>
<pdfrwt beam="2">  1        2 0.90954743E-01 0.53775477E+02</pdfrwt>
<pdfrwt beam="1">  1       -2 0.18812932E-03 0.53775477E+02</pdfrwt>
<totfact> 0.88052703E+05</totfact>
</mgrwt>
</event>
<event>
 4    1  0.2196664E-002  0.5401981E+02  0.7818608E-02  0.1424792E+00
         -2   -1    0    0  501    0 -0.00000000000E+00  0.00000000000E+00  0.59618326135E+01  0.59618331588E+01  0.25500000000E-02 0. -1.
          2   -1    0    0    0  501  0.00000000000E+00 -0.00000000000E+00 -0.12236756277E+03  0.12236756279E+03  0.25500000000E-02 0. -1.
          2    1    1    2    0  502  0.24192501653E+02  0.70984728154E+01 -0.35186572945E+02  0.43286953862E+02  0.25500000000E-02 0.  1.
         -2    1    1    2  502    0 -0.24192501653E+02 -0.70984728154E+01 -0.81219157209E+02  0.85042442091E+02  0.25500000000E-02 0.  1.
<mgrwt>
<rscale>  0 0.54019810E+02</rscale>
<asrwt>0</asrwt>
<pdfrwt beam="2">  1        2 0.18825777E-01 0.54019810E+02</pdfrwt>
<pdfrwt beam="1">  1       -2 0.91720515E-03 0.54019810E+02</pdfrwt>
<totfact> 0.51983600E+05</totfact>
</mgrwt>
</event>
<event>
 4    1  0.2196664E-002  0.8916548E+02  0.7818608E-02  0.1304885E+00
         -2   -1    0    0  501    0 -0.00000000000E+00  0.00000000000E+00  0.21965664342E+02  0.21965664490E+02  0.25500000000E-02 0.  1.
          2   -1    0    0    0  501  0.00000000000E+00 -0.00000000000E+00 -0.90487627097E+02  0.90487627133E+02  0.25500000000E-02 0.  1.
          2    1    1    2    0  502 -0.41290752542E+02  0.79018588096E+01 -0.15543883192E+02  0.44821623457E+02  0.25500000000E-02 0.  1.
         -2    1    1    2  502    0  0.41290752542E+02 -0.79018588096E+01 -0.52978079562E+02  0.67631668165E+02  0.25500000000E-02 0.  1.
<mgrwt>
<rscale>  0 0.89165483E+02</rscale>
<asrwt>0</asrwt>
<pdfrwt beam="2">  1        2 0.13921173E-01 0.89165483E+02</pdfrwt>
<pdfrwt beam="1">  1       -2 0.33793330E-02 0.89165483E+02</pdfrwt>
<totfact> 0.12660095E+05</totfact>
</mgrwt>
</event>
<event>
 4    1  0.2196664E-002  0.4499463E+02  0.7818608E-02  0.1474375E+00
          2   -1    0    0    0  501  0.00000000000E+00  0.00000000000E+00  0.42257840688E+02  0.42257840765E+02  0.25500000000E-02 0. -1.
         -2   -1    0    0  501    0 -0.00000000000E+00 -0.00000000000E+00 -0.11977168179E+02  0.11977168450E+02  0.25500000000E-02 0. -1.
          2    1    1    2    0  502 -0.14172722856E+02 -0.16465711710E+02  0.80970843814E+01  0.23185092565E+02  0.25500000000E-02 0. -1.
         -2    1    1    2  502    0  0.14172722856E+02  0.16465711710E+02  0.22183588128E+02  0.31049916651E+02  0.25500000000E-02 0. -1.
<mgrwt>
<rscale>  0 0.44994634E+02</rscale>
<asrwt>0</asrwt>
<pdfrwt beam="1">  1        2 0.65012062E-02 0.44994634E+02</pdfrwt>
<pdfrwt beam="2">  1       -2 0.18426413E-02 0.44994634E+02</pdfrwt>
<totfact> 0.65188415E+05</totfact>
</mgrwt>
</event>
<event>
 4    1  0.2196664E-002  0.4518559E+02  0.7818608E-02  0.1473186E+00
          2   -1    0    0    0  501  0.00000000000E+00  0.00000000000E+00  0.14292133747E+02  0.14292133974E+02  0.25500000000E-02 0. -1.
         -2   -1    0    0  501    0 -0.00000000000E+00 -0.00000000000E+00 -0.35714364387E+02  0.35714364478E+02  0.25500000000E-02 0. -1.
          2    1    1    2    0  502  0.84959367350E+01 -0.20879131901E+02 -0.12395099327E+02  0.25724649342E+02  0.25500000000E-02 0. -1.
         -2    1    1    2  502    0 -0.84959367350E+01  0.20879131901E+02 -0.90271313135E+01  0.24281849110E+02  0.25500000000E-02 0. -1.
<mgrwt>
<rscale>  0 0.45185594E+02</rscale>
<asrwt>0</asrwt>
<pdfrwt beam="1">  1        2 0.21987898E-02 0.45185594E+02</pdfrwt>
<pdfrwt beam="2">  1       -2 0.54945176E-02 0.45185594E+02</pdfrwt>
<totfact> 0.54778763E+05</totfact>
</mgrwt>
</event>
<event>
 4    1  0.2196664E-002  0.7979203E+02  0.7818608E-02  0.1329643E+00
         -2   -1    0    0  501    0 -0.00000000000E+00  0.00000000000E+00  0.18622188832E+03  0.18622188834E+03  0.25500000000E-02 0.  1.
          2   -1    0    0    0  501  0.00000000000E+00 -0.00000000000E+00 -0.85472880834E+01  0.85472884638E+01  0.25500000000E-02 0.  1.
          2    1    1    2    0  502 -0.21818123557E+02 -0.20824741049E+02  0.25091691585E+02  0.39233829132E+02  0.25500000000E-02 0.  1.
         -2    1    1    2  502    0  0.21818123557E+02  0.20824741049E+02  0.15258290866E+03  0.15553534767E+03  0.25500000000E-02 0.  1.
<mgrwt>
<rscale>  0 0.79792034E+02</rscale>
<asrwt>0</asrwt>
<pdfrwt beam="2">  1        2 0.13149675E-02 0.79792034E+02</pdfrwt>
<pdfrwt beam="1">  1       -2 0.28649519E-01 0.79792034E+02</pdfrwt>
<totfact> 0.90161240E+04</totfact>
</mgrwt>
</event>
<event>
 4    1  0.2196664E-002  0.5726411E+02  0.7818608E-02  0.1409685E+00
         -2   -1    0    0  501    0 -0.00000000000E+00  0.00000000000E+00  0.20339500970E+02  0.20339501130E+02  0.25500000000E-02 0.  1.
          2   -1    0    0    0  501  0.00000000000E+00 -0.00000000000E+00 -0.40305540229E+02  0.40305540309E+02  0.25500000000E-02 0.  1.
          2    1    1    2    0  502  0.13456830130E+02 -0.23146480812E+02  0.76239713237E+00  0.26784829792E+02  0.25500000000E-02 0.  1.
         -2    1    1    2  502    0 -0.13456830130E+02  0.23146480812E+02 -0.20728436391E+02  0.33860211647E+02  0.25500000000E-02 0.  1.
<mgrwt>
<rscale>  0 0.57264110E+02</rscale>
<asrwt>0</asrwt>
<pdfrwt beam="2">  1        2 0.62008523E-02 0.57264110E+02</pdfrwt>
<pdfrwt beam="1">  1       -2 0.31291540E-02 0.57264110E+02</pdfrwt>
<totfact> 0.34571976E+05</totfact>
</mgrwt>
</event>
<event>
 4    1  0.2196664E-002  0.5062094E+02  0.7818608E-02  0.1442021E+00
         -2   -1    0    0  501    0 -0.00000000000E+00  0.00000000000E+00  0.10486240385E+01  0.10486271390E+01  0.25500000000E-02 0.  1.
          2   -1    0    0    0  501  0.00000000000E+00 -0.00000000000E+00 -0.61091385533E+03  0.61091385534E+03  0.25500000000E-02 0.  1.
          2    1    1    2    0  502  0.18277251046E+02 -0.16775369275E+02 -0.24430719612E+03  0.24556359055E+03  0.25500000000E-02 0. -1.
         -2    1    1    2  502    0 -0.18277251046E+02  0.16775369275E+02 -0.36555803517E+03  0.36639889193E+03  0.25500000000E-02 0. -1.
<mgrwt>
<rscale>  0 0.50620941E+02</rscale>
<asrwt>0</asrwt>
<pdfrwt beam="2">  1        2 0.93986463E-01 0.50620941E+02</pdfrwt>
<pdfrwt beam="1">  1       -2 0.16132750E-03 0.50620941E+02</pdfrwt>
<totfact> 0.10322858E+06</totfact>
</mgrwt>
</event>
<event>
 4    1  0.2196664E-002  0.7131327E+02  0.7818608E-02  0.1355683E+00
          2   -1    0    0    0  501  0.00000000000E+00  0.00000000000E+00  0.74737854663E+02  0.74737854706E+02  0.25500000000E-02 0. -1.
         -2   -1    0    0  501    0 -0.00000000000E+00 -0.00000000000E+00 -0.17011400189E+02  0.17011400380E+02  0.25500000000E-02 0. -1.
          2    1    1    2    0  502 -0.33765689792E+02  0.33762716291E+00  0.14128825337E+02  0.36604091453E+02  0.25500000000E-02 0.  1.
         -2    1    1    2  502    0  0.33765689792E+02 -0.33762716291E+00  0.43597629137E+02  0.55145163633E+02  0.25500000000E-02 0.  1.
<mgrwt>
<rscale>  0 0.71313268E+02</rscale>
<asrwt>0</asrwt>
<pdfrwt beam="1">  1        2 0.11498131E-01 0.71313268E+02</pdfrwt>
<pdfrwt beam="2">  1       -2 0.26171386E-02 0.71313268E+02</pdfrwt>
<totfact> 0.22051107E+05</totfact>
</mgrwt>
</event>
<event>
 4    1  0.2196664E-002  0.6128664E+02  0.7818608E-02  0.1392510E+00
         -2   -1    0    0  501    0 -0.00000000000E+00  0.00000000000E+00  0.11453470986E+01  0.11453499372E+01  0.25500000000E-02 0.  1.
          2   -1    0    0    0  501  0.00000000000E+00 -0.00000000000E+00 -0.81984913245E+03  0.81984913245E+03  0.25500000000E-02 0.  1.
          2    1    1    2    0  502  0.20081853135E+02  0.20542619794E+02 -0.26648961821E+03  0.26803357378E+03  0.25500000000E-02 0.  1.
         -2    1    1    2  502    0 -0.20081853135E+02 -0.20542619794E+02 -0.55221416715E+03  0.55296090862E+03  0.25500000000E-02 0.  1.
<mgrwt>
<rscale>  0 0.61286638E+02</rscale>
<asrwt>0</asrwt>
<pdfrwt beam="2">  1        2 0.12613017E+00 0.61286638E+02</pdfrwt>
<pdfrwt beam="1">  1       -2 0.17620812E-03 0.61286638E+02</pdfrwt>
<totfact> 0.68236367E+05</totfact>
</mgrwt>
</event>
<event>
 4    1  0.2196664E-002  0.5271535E+02  0.7818608E-02  0.1431223E+00
         -2   -1    0    0  501    0 -0.00000000000E+00  0.00000000000E+00  0.64497411296E+00  0.64497915384E+00  0.25500000000E-02 0. -1.
          2   -1    0    0    0  501  0.00000000000E+00 -0.00000000000E+00 -0.10771350548E+04  0.10771350548E+04  0.25500000000E-02 0. -1.
          2    1    1    2    0  502  0.75132661817E+01  0.24704386429E+02 -0.43011470902E+03  0.43088910267E+03  0.25500000000E-02 0. -1.
         -2    1    1    2  502    0 -0.75132661817E+01 -0.24704386429E+02 -0.64637537168E+03  0.64689093130E+03  0.25500000000E-02 0. -1.
<mgrwt>
<rscale>  0 0.52715347E+02</rscale>
<asrwt>0</asrwt>
<pdfrwt beam="2">  1        2 0.16571165E+00 0.52715347E+02</pdfrwt>
<pdfrwt beam="1">  1       -2 0.99228037E-04 0.52715347E+02</pdfrwt>
<totfact> 0.10169432E+06</totfact>
</mgrwt>
</event>
<event>
 4    1  0.2196664E-002  0.5476464E+02  0.7818608E-02  0.1421215E+00
          2   -1    0    0    0  501  0.00000000000E+00  0.00000000000E+00  0.79717772841E+03  0.79717772841E+03  0.25500000000E-02 0. -1.
         -2   -1    0    0  501    0 -0.00000000000E+00 -0.00000000000E+00 -0.94055580422E+00  0.94055926095E+00  0.25500000000E-02 0. -1.
          2    1    1    2    0  502  0.23661553326E+02  0.13726545399E+02  0.38024371833E+03  0.38122640582E+03  0.25500000000E-02 0.  1.
         -2    1    1    2  502    0 -0.23661553326E+02 -0.13726545399E+02  0.41599345427E+03  0.41689188185E+03  0.25500000000E-02 0.  1.
<mgrwt>
<rscale>  0 0.54764643E+02</rscale>
<asrwt>0</asrwt>
<pdfrwt beam="1">  1        2 0.12264316E+00 0.54764643E+02</pdfrwt>
<pdfrwt beam="2">  1       -2 0.14470065E-03 0.54764643E+02</pdfrwt>
<totfact> 0.90085855E+05</totfact>
</mgrwt>
</event>
<event>
 4    1  0.2196664E-002  0.8926311E+02  0.7818608E-02  0.1304646E+00
          2   -1    0    0    0  501  0.00000000000E+00  0.00000000000E+00  0.27259699370E+03  0.27259699371E+03  0.25500000000E-02 0. -1.
         -2   -1    0    0  501    0 -0.00000000000E+00 -0.00000000000E+00 -0.73074006503E+01  0.73074010952E+01  0.25500000000E-02 0. -1.
          2    1    1    2    0  502 -0.40481860492E+02 -0.93836180134E+01  0.18370436546E+03  0.18834576505E+03  0.25500000000E-02 0. -1.
         -2    1    1    2  502    0  0.40481860492E+02  0.93836180134E+01  0.81585227581E+02  0.91558629751E+02  0.25500000000E-02 0. -1.
<mgrwt>
<rscale>  0 0.89263106E+02</rscale>
<asrwt>0</asrwt>
<pdfrwt beam="1">  1        2 0.41937994E-01 0.89263106E+02</pdfrwt>
<pdfrwt beam="2">  1       -2 0.11242156E-02 0.89263106E+02</pdfrwt>
<totfact> 0.18345065E+05</totfact>
</mgrwt>
</event>
<event>
 4    1  0.2196664E-002  0.4116589E+02  0.7818608E-02  0.1499803E+00
         -2   -1    0    0  501    0 -0.00000000000E+00  0.00000000000E+00  0.51296967316E+01  0.51296973654E+01  0.25500000000E-02 0.  1.
          2   -1    0    0    0  501  0.00000000000E+00 -0.00000000000E+00 -0.82589203282E+02  0.82589203321E+02  0.25500000000E-02 0.  1.
          2    1    1    2    0  502  0.69240429025E+01  0.19026408168E+02 -0.30839509337E+02  0.36892030583E+02  0.25500000000E-02 0. -1.
         -2    1    1    2  502    0 -0.69240429025E+01 -0.19026408168E+02 -0.46619997213E+02  0.50826870103E+02  0.25500000000E-02 0. -1.
<mgrwt>
<rscale>  0 0.41165889E+02</rscale>
<asrwt>0</asrwt>
<pdfrwt beam="2">  1        2 0.12706030E-01 0.41165889E+02</pdfrwt>
<pdfrwt beam="1">  1       -2 0.78918423E-03 0.41165889E+02</pdfrwt>
<totfact> 0.92969801E+05</totfact>
</mgrwt>
</event>
<event>
 4    1  0.2196664E-002  0.4503555E+02  0.7818608E-02  0.1474120E+00
          2   -1    0    0    0  501  0.00000000000E+00  0.00000000000E+00  0.10781256000E+03  0.10781256003E+03  0.25500000000E-02 0.  1.
         -2   -1    0    0  501    0 -0.00000000000E+00 -0.00000000000E+00 -0.47030722722E+01  0.47030729635E+01  0.25500000000E-02 0.  1.
          2    1    1    2    0  502 -0.18289372107E+02 -0.12818634630E+02  0.44386645500E+02  0.49688960857E+02  0.25500000000E-02 0.  1.
         -2    1    1    2  502    0  0.18289372107E+02  0.12818634630E+02  0.58722842224E+02  0.62826672133E+02  0.25500000000E-02 0.  1.
<mgrwt>
<rscale>  0 0.45035555E+02</rscale>
<asrwt>0</asrwt>
<pdfrwt beam="1">  1        2 0.16586546E-01 0.45035555E+02</pdfrwt>
<pdfrwt beam="2">  1       -2 0.72354970E-03 0.45035555E+02</pdfrwt>
<totfact> 0.79421843E+05</totfact>
</mgrwt>
</event>
<event>
 4    1  0.2196664E-002  0.5211647E+02  0.7818608E-02  0.1434249E+00
         -2   -1    0    0  501    0 -0.00000000000E+00  0.00000000000E+00  0.35365893142E+01  0.35365902335E+01  0.25500000000E-02 0. -1.
          2   -1    0    0    0  501  0.00000000000E+00 -0.00000000000E+00 -0.19200183269E+03  0.19200183271E+03  0.25500000000E-02 0. -1.
          2    1    1    2    0  502  0.94482602751E+01 -0.24137322734E+02 -0.10426636662E+03  0.10744000738E+03  0.25500000000E-02 0.  1.
         -2    1    1    2  502    0 -0.94482602751E+01  0.24137322734E+02 -0.84198876760E+02  0.88098415565E+02  0.25500000000E-02 0.  1.
<mgrwt>
<rscale>  0 0.52116474E+02</rscale>
<asrwt>0</asrwt>
<pdfrwt beam="2">  1        2 0.29538735E-01 0.52116474E+02</pdfrwt>
<pdfrwt beam="1">  1       -2 0.54409088E-03 0.52116474E+02</pdfrwt>
<totfact> 0.65451625E+05</totfact>
</mgrwt>
</event>
<event>
 4    1  0.2196664E-002  0.4693232E+02  0.7818608E-02  0.1462627E+00
          2   -1    0    0    0  501  0.00000000000E+00  0.00000000000E+00  0.33141054553E+03  0.33141054554E+03  0.25500000000E-02 0.  1.
         -2   -1    0    0  501    0 -0.00000000000E+00 -0.00000000000E+00 -0.16615655272E+01  0.16615674839E+01  0.25500000000E-02 0.  1.
          2    1    1    2    0  502  0.21331739979E+02 -0.52164903507E+01  0.22357103988E+03  0.22464697812E+03  0.25500000000E-02 0.  1.
         -2    1    1    2  502    0 -0.21331739979E+02  0.52164903507E+01  0.10617794012E+03  0.10842513490E+03  0.25500000000E-02 0.  1.
<mgrwt>
<rscale>  0 0.46932320E+02</rscale>
<asrwt>0</asrwt>
<pdfrwt beam="1">  1        2 0.50986212E-01 0.46932320E+02</pdfrwt>
<pdfrwt beam="2">  1       -2 0.25562575E-03 0.46932320E+02</pdfrwt>
<totfact> 0.10244451E+06</totfact>
</mgrwt>
</event>
<event>
 4    1  0.2196664E-002  0.7613498E+02  0.7818608E-02  0.1340392E+00
         -2   -1    0    0  501    0 -0.00000000000E+00  0.00000000000E+00  0.65506672897E+03  0.65506672897E+03  0.25500000000E-02 0. -1.
          2   -1    0    0    0  501  0.00000000000E+00 -0.00000000000E+00 -0.22121917532E+01  0.22121932229E+01  0.25500000000E-02 0. -1.
          2    1    1    2    0  502 -0.33568229348E+02  0.13252066393E+02  0.43098745306E+03  0.43249581268E+03  0.25500000000E-02 0.  1.
         -2    1    1    2  502    0  0.33568229348E+02 -0.13252066393E+02  0.22186708416E+03  0.22478310952E+03  0.25500000000E-02 0.  1.
<mgrwt>
<rscale>  0 0.76134978E+02</rscale>
<asrwt>0</asrwt>
<pdfrwt beam="2">  1        2 0.34033741E-03 0.76134978E+02</pdfrwt>
<pdfrwt beam="1">  1       -2 0.10077947E+00 0.76134978E+02</pdfrwt>
<totfact> 0.46017990E+04</totfact>
</mgrwt>
</event>
<event>
 4    1  0.2196664E-002  0.6253205E+02  0.7818608E-02  0.1387503E+00
         -2   -1    0    0  501    0 -0.00000000000E+00  0.00000000000E+00  0.57784923547E+00  0.57785486191E+00  0.25500000000E-02 0. -1.
          2   -1    0    0    0  501  0.00000000000E+00 -0.00000000000E+00 -0.16917208980E+04  0.16917208980E+04  0.25500000000E-02 0. -1.
          2    1    1    2    0  502  0.33480815678E+01 -0.25876316697E+02 -0.37935779532E+03  0.38025403389E+03  0.25500000000E-02 0. -1.
         -2    1    1    2  502    0 -0.33480815678E+01  0.25876316697E+02 -0.13117852534E+04  0.13120447190E+04  0.25500000000E-02 0. -1.
<mgrwt>
<rscale>  0 0.62532052E+02</rscale>
<asrwt>0</asrwt>
<pdfrwt beam="2">  1        2 0.26026079E+00 0.62532052E+02</pdfrwt>
<pdfrwt beam="1">  1       -2 0.88901669E-04 0.62532052E+02</pdfrwt>
<totfact> 0.59176281E+05</totfact>
</mgrwt>
</event>
<event>
 4    1  0.2196664E-002  0.9469580E+02  0.7818608E-02  0.1291863E+00
         -2   -1    0    0  501    0 -0.00000000000E+00  0.00000000000E+00  0.27570608141E+01  0.27570619933E+01  0.25500000000E-02 0.  1.
          2   -1    0    0    0  501  0.00000000000E+00 -0.00000000000E+00 -0.81312067702E+03  0.81312067703E+03  0.25500000000E-02 0.  1.
          2    1    1    2    0  502  0.26184678098E+02  0.11063362179E+02 -0.73142156086E+03  0.73197372566E+03  0.25500000000E-02 0.  1.
         -2    1    1    2  502    0 -0.26184678098E+02 -0.11063362179E+02 -0.78942055345E+02  0.83904013363E+02  0.25500000000E-02 0.  1.
<mgrwt>
<rscale>  0 0.94695800E+02</rscale>
<asrwt>0</asrwt>
<pdfrwt beam="2">  1        2 0.12509530E+00 0.94695800E+02</pdfrwt>
<pdfrwt beam="1">  1       -2 0.42416394E-03 0.94695800E+02</pdfrwt>
<totfact> 0.22116358E+05</totfact>
</mgrwt>
</event>
<event>
 4    1  0.2196664E-002  0.4236727E+02  0.7818608E-02  0.1491480E+00
         -2   -1    0    0  501    0 -0.00000000000E+00  0.00000000000E+00  0.20554982378E+01  0.20554998195E+01  0.25500000000E-02 0. -1.
          2   -1    0    0    0  501  0.00000000000E+00 -0.00000000000E+00 -0.21831506514E+03  0.21831506515E+03  0.25500000000E-02 0. -1.
          2    1    1    2    0  502 -0.18893235701E+02 -0.93486677767E+01 -0.11903352850E+03  0.12088561891E+03  0.25500000000E-02 0.  1.
         -2    1    1    2  502    0  0.18893235701E+02  0.93486677767E+01 -0.97226038399E+02  0.99484946066E+02  0.25500000000E-02 0.  1.
<mgrwt>
<rscale>  0 0.42367271E+02</rscale>
<asrwt>0</asrwt>
<pdfrwt beam="2">  1        2 0.33586915E-01 0.42367271E+02</pdfrwt>
<pdfrwt beam="1">  1       -2 0.31623079E-03 0.42367271E+02</pdfrwt>
<totfact> 0.11422451E+06</totfact>
</mgrwt>
</event>
<event>
 4    1  0.2196664E-002  0.5320092E+02  0.7818608E-02  0.1428804E+00
         -2   -1    0    0  501    0 -0.00000000000E+00  0.00000000000E+00  0.73419433725E+01  0.73419438153E+01  0.25500000000E-02 0. -1.
          2   -1    0    0    0  501  0.00000000000E+00 -0.00000000000E+00 -0.96375647716E+02  0.96375647750E+02  0.25500000000E-02 0. -1.
          2    1    1    2    0  502 -0.24782398051E+02 -0.30557684875E+01 -0.26640514571E+02  0.36513312604E+02  0.25500000000E-02 0.  1.
         -2    1    1    2  502    0  0.24782398051E+02  0.30557684875E+01 -0.62393189772E+02  0.67204278961E+02  0.25500000000E-02 0.  1.
<mgrwt>
<rscale>  0 0.53200924E+02</rscale>
<asrwt>0</asrwt>
<pdfrwt beam="2">  1        2 0.14827022E-01 0.53200924E+02</pdfrwt>
<pdfrwt beam="1">  1       -2 0.11295299E-02 0.53200924E+02</pdfrwt>
<totfact> 0.50643043E+05</totfact>
</mgrwt>
</event>
<event>
 4    1  0.2196664E-002  0.5268365E+02  0.7818608E-02  0.1431382E+00
          2   -1    0    0    0  501  0.00000000000E+00  0.00000000000E+00  0.13792295018E+04  0.13792295018E+04  0.25500000000E-02 0.  1.
         -2   -1    0    0  501    0 -0.00000000000E+00 -0.00000000000E+00 -0.50309777494E+00  0.50310423736E+00  0.25500000000E-02 0.  1.
          2    1    1    2    0  502  0.12244275479E+02 -0.18944589926E+02  0.10456415268E+04  0.10458848036E+04  0.25500000000E-02 0.  1.
         -2    1    1    2  502    0 -0.12244275479E+02  0.18944589926E+02  0.33308487725E+03  0.33384780249E+03  0.25500000000E-02 0.  1.
<mgrwt>
<rscale>  0 0.52683650E+02</rscale>
<asrwt>0</asrwt>
<pdfrwt beam="1">  1        2 0.21219077E+00 0.52683650E+02</pdfrwt>
<pdfrwt beam="2">  1       -2 0.77399565E-04 0.52683650E+02</pdfrwt>
<totfact> 0.98763913E+05</totfact>
</mgrwt>
</event>
<event>
 4    1  0.2196664E-002  0.6669226E+02  0.7818608E-02  0.1371717E+00
         -2   -1    0    0  501    0 -0.00000000000E+00  0.00000000000E+00  0.81457335884E+00  0.81457735018E+00  0.25500000000E-02 0. -1.
          2   -1    0    0    0  501  0.00000000000E+00 -0.00000000000E+00 -0.13650848509E+04  0.13650848509E+04  0.25500000000E-02 0. -1.
          2    1    1    2    0  502 -0.11583441049E+01  0.33203701457E+02 -0.74055672382E+03  0.74130161793E+03  0.25500000000E-02 0. -1.
         -2    1    1    2  502    0  0.11583441049E+01 -0.33203701457E+02 -0.62371355374E+03  0.62459781033E+03  0.25500000000E-02 0. -1.
<mgrwt>
<rscale>  0 0.66692263E+02</rscale>
<asrwt>0</asrwt>
<pdfrwt beam="2">  1        2 0.21001122E+00 0.66692263E+02</pdfrwt>
<pdfrwt beam="1">  1       -2 0.12532038E-03 0.66692263E+02</pdfrwt>
<totfact> 0.54673632E+05</totfact>
</mgrwt>
</event>
<event>
 4    1  0.2196664E-002  0.6513110E+02  0.7818608E-02  0.1377479E+00
         -2   -1    0    0  501    0 -0.00000000000E+00  0.00000000000E+00  0.22567258208E+01  0.22567272615E+01  0.25500000000E-02 0.  1.
          2   -1    0    0    0  501  0.00000000000E+00 -0.00000000000E+00 -0.46993518039E+03  0.46993518040E+03  0.25500000000E-02 0.  1.
          2    1    1    2    0  502 -0.13853420111E+01 -0.31810262205E+02 -0.18429379898E+03  0.18702410621E+03  0.25500000000E-02 0.  1.
         -2    1    1    2  502    0  0.13853420111E+01  0.31810262205E+02 -0.28338465559E+03  0.28516780145E+03  0.25500000000E-02 0.  1.
<mgrwt>
<rscale>  0 0.65131105E+02</rscale>
<asrwt>0</asrwt>
<pdfrwt beam="2">  1        2 0.72297642E-01 0.65131105E+02</pdfrwt>
<pdfrwt beam="1">  1       -2 0.34718907E-03 0.65131105E+02</pdfrwt>
<totfact> 0.50653738E+05</totfact>
</mgrwt>
</event>
<event>
 4    1  0.2196664E-002  0.5032793E+02  0.7818608E-02  0.1443581E+00
          2   -1    0    0    0  501  0.00000000000E+00  0.00000000000E+00  0.17778798874E+04  0.17778798874E+04  0.25500000000E-02 0. -1.
         -2   -1    0    0  501    0 -0.00000000000E+00 -0.00000000000E+00 -0.35616409669E+00  0.35617322509E+00  0.25500000000E-02 0. -1.
          2    1    1    2    0  502 -0.25005830215E+02 -0.26195463132E+01  0.85218705080E+03  0.85255787083E+03  0.25500000000E-02 0.  1.
         -2    1    1    2  502    0  0.25005830215E+02  0.26195463132E+01  0.92533667248E+03  0.92567818976E+03  0.25500000000E-02 0.  1.
<mgrwt>
<rscale>  0 0.50327929E+02</rscale>
<asrwt>0</asrwt>
<pdfrwt beam="1">  1        2 0.27351647E+00 0.50327929E+02</pdfrwt>
<pdfrwt beam="2">  1       -2 0.54795882E-04 0.50327929E+02</pdfrwt>
<totfact> 0.99123261E+05</totfact>
</mgrwt>
</event>
<event>
 4    1  0.2196664E-002  0.4118157E+02  0.7818608E-02  0.1499692E+00
         -2   -1    0    0  501    0 -0.00000000000E+00  0.00000000000E+00  0.33352976035E+00  0.33353950822E+00  0.25500000000E-02 0.  1.
          2   -1    0    0    0  501  0.00000000000E+00 -0.00000000000E+00 -0.12711736718E+04  0.12711736719E+04  0.25500000000E-02 0.  1.
          2    1    1    2    0  502  0.11415437099E+02  0.17067346963E+02 -0.68299166174E+03  0.68330023895E+03  0.25500000000E-02 0.  1.
         -2    1    1    2  502    0 -0.11415437099E+02 -0.17067346963E+02 -0.58784848035E+03  0.58820697241E+03  0.25500000000E-02 0.  1.
<mgrwt>
<rscale>  0 0.41181571E+02</rscale>
<asrwt>0</asrwt>
<pdfrwt beam="2">  1        2 0.19556130E+00 0.41181571E+02</pdfrwt>
<pdfrwt beam="1">  1       -2 0.51314038E-04 0.41181571E+02</pdfrwt>
<totfact> 0.18379577E+06</totfact>
</mgrwt>
</event>
<event>
 4    1  0.2196664E-002  0.7134110E+02  0.7818608E-02  0.1355591E+00
          2   -1    0    0    0  501  0.00000000000E+00  0.00000000000E+00  0.10901193396E+03  0.10901193399E+03  0.25500000000E-02 0.  1.
         -2   -1    0    0  501    0 -0.00000000000E+00 -0.00000000000E+00 -0.11672006297E+02  0.11672006576E+02  0.25500000000E-02 0.  1.
          2    1    1    2    0  502 -0.10854383930E+02 -0.29701327387E+02  0.76589901614E+02  0.82861327137E+02  0.25500000000E-02 0.  1.
         -2    1    1    2  502    0  0.10854383930E+02  0.29701327387E+02  0.20750026045E+02  0.37822613426E+02  0.25500000000E-02 0.  1.
<mgrwt>
<rscale>  0 0.71341096E+02</rscale>
<asrwt>0</asrwt>
<pdfrwt beam="1">  1        2 0.16771067E-01 0.71341096E+02</pdfrwt>
<pdfrwt beam="2">  1       -2 0.17956933E-02 0.71341096E+02</pdfrwt>
<totfact> 0.24407610E+05</totfact>
</mgrwt>
</event>
<event>
 4    1  0.2196664E-002  0.6409968E+02  0.7818608E-02  0.1381391E+00
          2   -1    0    0    0  501  0.00000000000E+00  0.00000000000E+00  0.12860901070E+04  0.12860901070E+04  0.25500000000E-02 0.  1.
         -2   -1    0    0  501    0 -0.00000000000E+00 -0.00000000000E+00 -0.79869169373E+00  0.79869576444E+00  0.25500000000E-02 0.  1.
          2    1    1    2    0  502  0.20521755652E+02 -0.23489201378E+02  0.79059515637E+03  0.79121020362E+03  0.25500000000E-02 0. -1.
         -2    1    1    2  502    0 -0.20521755652E+02  0.23489201378E+02  0.49469625898E+03  0.49567859919E+03  0.25500000000E-02 0. -1.
<mgrwt>
<rscale>  0 0.64099676E+02</rscale>
<asrwt>0</asrwt>
<pdfrwt beam="1">  1        2 0.19785903E+00 0.64099676E+02</pdfrwt>
<pdfrwt beam="2">  1       -2 0.12287657E-03 0.64099676E+02</pdfrwt>
<totfact> 0.61246782E+05</totfact>
</mgrwt>
</event>
<event>
 4    1  0.2196664E-002  0.5450347E+02  0.7818608E-02  0.1422462E+00
         -2   -1    0    0  501    0 -0.00000000000E+00  0.00000000000E+00  0.76945901986E+02  0.76945902029E+02  0.25500000000E-02 0. -1.
          2   -1    0    0    0  501  0.00000000000E+00 -0.00000000000E+00 -0.96516790417E+01  0.96516793786E+01  0.25500000000E-02 0. -1.
          2    1    1    2    0  502 -0.24128437909E+02 -0.38074815374E+01  0.14450420821E+02  0.28381210334E+02  0.25500000000E-02 0.  1.
         -2    1    1    2  502    0  0.24128437909E+02  0.38074815374E+01  0.52843802124E+02  0.58216371074E+02  0.25500000000E-02 0.  1.
<mgrwt>
<rscale>  0 0.54503474E+02</rscale>
<asrwt>0</asrwt>
<pdfrwt beam="2">  1        2 0.14848737E-02 0.54503474E+02</pdfrwt>
<pdfrwt beam="1">  1       -2 0.11837831E-01 0.54503474E+02</pdfrwt>
<totfact> 0.30414162E+05</totfact>
</mgrwt>
</event>
<event>
 4    1  0.2196664E-002  0.4216474E+02  0.7818608E-02  0.1492860E+00
          2   -1    0    0    0  501  0.00000000000E+00  0.00000000000E+00  0.14611100901E+04  0.14611100901E+04  0.25500000000E-02 0. -1.
         -2   -1    0    0  501    0 -0.00000000000E+00 -0.00000000000E+00 -0.30419241325E+00  0.30420310120E+00  0.25500000000E-02 0. -1.
          2    1    1    2    0  502  0.21125770640E+01  0.20192319069E+02  0.53350186338E+03  0.53388803224E+03  0.25500000000E-02 0.  1.
         -2    1    1    2  502    0 -0.21125770640E+01 -0.20192319069E+02  0.92730403431E+03  0.92752626096E+03  0.25500000000E-02 0.  1.
<mgrwt>
<rscale>  0 0.42164744E+02</rscale>
<asrwt>0</asrwt>
<pdfrwt beam="1">  1        2 0.22478678E+00 0.42164744E+02</pdfrwt>
<pdfrwt beam="2">  1       -2 0.46799528E-04 0.42164744E+02</pdfrwt>
<totfact> 0.16802394E+06</totfact>
</mgrwt>
</event>
<event>
 4    1  0.2196664E-002  0.2087833E+03  0.7818608E-02  0.1142533E+00
          2   -1    0    0    0  501  0.00000000000E+00  0.00000000000E+00  0.68211449908E+03  0.68211449909E+03  0.25500000000E-02 0.  1.
         -2   -1    0    0  501    0 -0.00000000000E+00 -0.00000000000E+00 -0.15976222008E+02  0.15976222212E+02  0.25500000000E-02 0.  1.
          2    1    1    2    0  502  0.92028721630E+02 -0.79274717723E+01  0.17044835914E+03  0.19386792812E+03  0.25500000000E-02 0.  1.
         -2    1    1    2  502    0 -0.92028721630E+02  0.79274717723E+01  0.49568991793E+03  0.50422279318E+03  0.25500000000E-02 0.  1.
<mgrwt>
<rscale>  0 0.20878326E+03</rscale>
<asrwt>0</asrwt>
<pdfrwt beam="1">  1        2 0.10494068E+00 0.20878326E+03</pdfrwt>
<pdfrwt beam="2">  1       -2 0.24578807E-02 0.20878326E+03</pdfrwt>
<totfact> 0.24086930E+04</totfact>
</mgrwt>
</event>
<event>
 4    1  0.2196664E-002  0.1024775E+03  0.7818608E-02  0.1275171E+00
          2   -1    0    0    0  501  0.00000000000E+00  0.00000000000E+00  0.14057362768E+04  0.14057362768E+04  0.25500000000E-02 0.  1.
         -2   -1    0    0  501    0 -0.00000000000E+00 -0.00000000000E+00 -0.18676393933E+01  0.18676411341E+01  0.25500000000E-02 0.  1.
          2    1    1    2    0  502  0.67228164893E+01 -0.50783922896E+02  0.68684636949E+03  0.68875404781E+03  0.25500000000E-02 0.  1.
         -2    1    1    2  502    0 -0.67228164893E+01  0.50783922896E+02  0.71702226790E+03  0.71884987011E+03  0.25500000000E-02 0.  1.
<mgrwt>
<rscale>  0 0.10247750E+03</rscale>
<asrwt>0</asrwt>
<pdfrwt beam="1">  1        2 0.21626750E+00 0.10247750E+03</pdfrwt>
<pdfrwt beam="2">  1       -2 0.28732877E-03 0.10247750E+03</pdfrwt>
<totfact> 0.17693545E+05</totfact>
</mgrwt>
</event>
<event>
 4    1  0.2196664E-002  0.6509689E+02  0.7818608E-02  0.1377607E+00
          2   -1    0    0    0  501  0.00000000000E+00  0.00000000000E+00  0.34325147408E+03  0.34325147409E+03  0.25500000000E-02 0.  1.
         -2   -1    0    0  501    0 -0.00000000000E+00 -0.00000000000E+00 -0.30863705439E+01  0.30863715973E+01  0.25500000000E-02 0.  1.
          2    1    1    2    0  502 -0.29653260314E+01  0.29360090881E+02  0.97018654499E+02  0.10140723555E+03  0.25500000000E-02 0.  1.
         -2    1    1    2  502    0  0.29653260314E+01 -0.29360090881E+02  0.24314644904E+03  0.24493061014E+03  0.25500000000E-02 0.  1.
<mgrwt>
<rscale>  0 0.65096895E+02</rscale>
<asrwt>0</asrwt>
<pdfrwt beam="1">  1        2 0.52807945E-01 0.65096895E+02</pdfrwt>
<pdfrwt beam="2">  1       -2 0.47482609E-03 0.65096895E+02</pdfrwt>
<totfact> 0.45535828E+05</totfact>
</mgrwt>
</event>
<event>
 4    1  0.2196664E-002  0.5037912E+02  0.7818608E-02  0.1443307E+00
          2   -1    0    0    0  501  0.00000000000E+00  0.00000000000E+00  0.95788214406E+02  0.95788214440E+02  0.25500000000E-02 0.  1.
         -2   -1    0    0  501    0 -0.00000000000E+00 -0.00000000000E+00 -0.66241328656E+01  0.66241333564E+01  0.25500000000E-02 0.  1.
          2    1    1    2    0  502  0.89326176949E+01  0.23505621566E+02  0.47602680156E+02  0.53836057328E+02  0.25500000000E-02 0. -1.
         -2    1    1    2  502    0 -0.89326176949E+01 -0.23505621566E+02  0.41561401384E+02  0.48576290468E+02  0.25500000000E-02 0. -1.
<mgrwt>
<rscale>  0 0.50379118E+02</rscale>
<asrwt>0</asrwt>
<pdfrwt beam="1">  1        2 0.14736648E-01 0.50379118E+02</pdfrwt>
<pdfrwt beam="2">  1       -2 0.10190974E-02 0.50379118E+02</pdfrwt>
<totfact> 0.58091098E+05</totfact>
</mgrwt>
</event>
<event>
 4    1  0.2196664E-002  0.6007245E+02  0.7818608E-02  0.1397528E+00
          2   -1    0    0    0  501  0.00000000000E+00  0.00000000000E+00  0.28215640127E+01  0.28215651649E+01  0.25500000000E-02 0.  1.
         -2   -1    0    0  501    0 -0.00000000000E+00 -0.00000000000E+00 -0.31974275757E+03  0.31974275758E+03  0.25500000000E-02 0.  1.
          2    1    1    2    0  502  0.23499956272E+02  0.14156676457E+02 -0.92803156088E+02  0.96773370404E+02  0.25500000000E-02 0.  1.
         -2    1    1    2  502    0 -0.23499956272E+02 -0.14156676457E+02 -0.22411803747E+03  0.22579095234E+03  0.25500000000E-02 0.  1.
<mgrwt>
<rscale>  0 0.60072451E+02</rscale>
<asrwt>0</asrwt>
<pdfrwt beam="1">  1        2 0.43408711E-03 0.60072451E+02</pdfrwt>
<pdfrwt beam="2">  1       -2 0.49191165E-01 0.60072451E+02</pdfrwt>
<totfact> 0.14207448E+05</totfact>
</mgrwt>
</event>
<event>
 4    1  0.2196664E-002  0.4867994E+02  0.7818608E-02  0.1452594E+00
         -2   -1    0    0  501    0 -0.00000000000E+00  0.00000000000E+00  0.38167448023E+00  0.38168299852E+00  0.25500000000E-02 0.  1.
          2   -1    0    0    0  501  0.00000000000E+00 -0.00000000000E+00 -0.15521802796E+04  0.15521802796E+04  0.25500000000E-02 0.  1.
          2    1    1    2    0  502  0.59252672868E+01 -0.22176523970E+02 -0.10340716297E+04  0.10343263713E+04  0.25500000000E-02 0. -1.
         -2    1    1    2  502    0 -0.59252672868E+01  0.22176523970E+02 -0.51772697540E+03  0.51823559128E+03  0.25500000000E-02 0. -1.
<mgrwt>
<rscale>  0 0.48679943E+02</rscale>
<asrwt>0</asrwt>
<pdfrwt beam="2">  1        2 0.23879191E+00 0.48679943E+02</pdfrwt>
<pdfrwt beam="1">  1       -2 0.58721049E-04 0.48679943E+02</pdfrwt>
<totfact> 0.11556882E+06</totfact>
</mgrwt>
</event>
<event>
 4    1  0.2196664E-002  0.1013005E+03  0.7818608E-02  0.1277585E+00
          2   -1    0    0    0  501  0.00000000000E+00  0.00000000000E+00  0.26775776110E+02  0.26775776232E+02  0.25500000000E-02 0.  1.
         -2   -1    0    0  501    0 -0.00000000000E+00 -0.00000000000E+00 -0.95812331201E+02  0.95812331235E+02  0.25500000000E-02 0.  1.
          2    1    1    2    0  502 -0.15947276816E+02 -0.48068282752E+02 -0.35435185124E+02  0.61810418182E+02  0.25500000000E-02 0.  1.
         -2    1    1    2  502    0  0.15947276816E+02  0.48068282752E+02 -0.33601369967E+02  0.60777689285E+02  0.25500000000E-02 0.  1.
<mgrwt>
<rscale>  0 0.10130053E+03</rscale>
<asrwt>0</asrwt>
<pdfrwt beam="1">  1        2 0.41193502E-02 0.10130053E+03</pdfrwt>
<pdfrwt beam="2">  1       -2 0.14740358E-01 0.10130053E+03</pdfrwt>
<totfact> 0.62248740E+04</totfact>
</mgrwt>
</event>
<event>
 4    1  0.2196664E-002  0.4208226E+02  0.7818608E-02  0.1493424E+00
          2   -1    0    0    0  501  0.00000000000E+00  0.00000000000E+00  0.89933503762E+00  0.89933865279E+00  0.25500000000E-02 0.  1.
         -2   -1    0    0  501    0 -0.00000000000E+00 -0.00000000000E+00 -0.49228396157E+03  0.49228396158E+03  0.25500000000E-02 0.  1.
          2    1    1    2    0  502 -0.19716743152E+02  0.50201339258E+01 -0.30856109999E+03  0.30923115002E+03  0.25500000000E-02 0. -1.
         -2    1    1    2  502    0  0.19716743152E+02 -0.50201339258E+01 -0.18282352654E+03  0.18395215021E+03  0.25500000000E-02 0. -1.
<mgrwt>
<rscale>  0 0.42082258E+02</rscale>
<asrwt>0</asrwt>
<pdfrwt beam="1">  1        2 0.13835991E-03 0.42082258E+02</pdfrwt>
<pdfrwt beam="2">  1       -2 0.75735779E-01 0.42082258E+02</pdfrwt>
<totfact> 0.25515989E+05</totfact>
</mgrwt>
</event>
<event>
 4    1  0.2196664E-002  0.5287056E+02  0.7818608E-02  0.1430446E+00
         -2   -1    0    0  501    0 -0.00000000000E+00  0.00000000000E+00  0.16538271288E+03  0.16538271290E+03  0.25500000000E-02 0.  1.
          2   -1    0    0    0  501  0.00000000000E+00 -0.00000000000E+00 -0.42254951306E+01  0.42254959000E+01  0.25500000000E-02 0.  1.
          2    1    1    2    0  502  0.12276894627E+01  0.26028628250E+02  0.66294154103E+02  0.71231394657E+02  0.25500000000E-02 0. -1.
         -2    1    1    2  502    0 -0.12276894627E+01 -0.26028628250E+02  0.94863063643E+02  0.98376814140E+02  0.25500000000E-02 0. -1.
<mgrwt>
<rscale>  0 0.52870556E+02</rscale>
<asrwt>0</asrwt>
<pdfrwt beam="2">  1        2 0.65007611E-03 0.52870556E+02</pdfrwt>
<pdfrwt beam="1">  1       -2 0.25443499E-01 0.52870556E+02</pdfrwt>
<totfact> 0.26440259E+05</totfact>
</mgrwt>
</event>
<event>
 4    1  0.2196664E-002  0.7278564E+02  0.7818608E-02  0.1350869E+00
          2   -1    0    0    0  501  0.00000000000E+00  0.00000000000E+00  0.40349730585E+03  0.40349730586E+03  0.25500000000E-02 0. -1.
         -2   -1    0    0  501    0 -0.00000000000E+00 -0.00000000000E+00 -0.32823941224E+01  0.32823951129E+01  0.25500000000E-02 0. -1.
          2    1    1    2    0  502  0.32128432414E+02 -0.67129911888E+01  0.28796567834E+03  0.28983017843E+03  0.25500000000E-02 0. -1.
         -2    1    1    2  502    0 -0.32128432414E+02  0.67129911888E+01  0.11224923339E+03  0.11694952254E+03  0.25500000000E-02 0. -1.
<mgrwt>
<rscale>  0 0.72785641E+02</rscale>
<asrwt>0</asrwt>
<pdfrwt beam="1">  1        2 0.62076518E-01 0.72785641E+02</pdfrwt>
<pdfrwt beam="2">  1       -2 0.50498371E-03 0.72785641E+02</pdfrwt>
<totfact> 0.36151193E+05</totfact>
</mgrwt>
</event>
<event>
 4    1  0.2196664E-002  0.7342281E+02  0.7818608E-02  0.1348826E+00
          2   -1    0    0    0  501  0.00000000000E+00  0.00000000000E+00  0.83651262574E+01  0.83651266461E+01  0.25500000000E-02 0. -1.
         -2   -1    0    0  501    0 -0.00000000000E+00 -0.00000000000E+00 -0.16111259190E+03  0.16111259192E+03  0.25500000000E-02 0. -1.
          2    1    1    2    0  502  0.10986551120E+02 -0.18737873513E+02 -0.14468818583E+03  0.14630954628E+03  0.25500000000E-02 0. -1.
         -2    1    1    2  502    0 -0.10986551120E+02  0.18737873513E+02 -0.80592798167E+01  0.23168172284E+02  0.25500000000E-02 0. -1.
<mgrwt>
<rscale>  0 0.73422809E+02</rscale>
<asrwt>0</asrwt>
<pdfrwt beam="1">  1        2 0.12869427E-02 0.73422809E+02</pdfrwt>
<pdfrwt beam="2">  1       -2 0.24786550E-01 0.73422809E+02</pdfrwt>
<totfact> 0.11764419E+05</totfact>
</mgrwt>
</event>
<event>
 4    1  0.2196664E-002  0.4165419E+02  0.7818608E-02  0.1496380E+00
          2   -1    0    0    0  501  0.00000000000E+00  0.00000000000E+00  0.31894633510E+02  0.31894633612E+02  0.25500000000E-02 0.  1.
         -2   -1    0    0  501    0 -0.00000000000E+00 -0.00000000000E+00 -0.13600026008E+02  0.13600026247E+02  0.25500000000E-02 0.  1.
          2    1    1    2    0  502 -0.66743542073E+01 -0.19629447934E+02  0.69888312091E+01  0.21879350960E+02  0.25500000000E-02 0.  1.
         -2    1    1    2  502    0  0.66743542073E+01  0.19629447934E+02  0.11305776294E+02  0.23615308899E+02  0.25500000000E-02 0.  1.
<mgrwt>
<rscale>  0 0.41654188E+02</rscale>
<asrwt>0</asrwt>
<pdfrwt beam="1">  1        2 0.49068666E-02 0.41654188E+02</pdfrwt>
<pdfrwt beam="2">  1       -2 0.20923117E-02 0.41654188E+02</pdfrwt>
<totfact> 0.75833980E+05</totfact>
</mgrwt>
</event>
<event>
 4    1  0.2196664E-002  0.4656248E+02  0.7818608E-02  0.1464817E+00
         -2   -1    0    0  501    0 -0.00000000000E+00  0.00000000000E+00  0.34633075599E+00  0.34634014356E+00  0.25500000000E-02 0.  1.
          2   -1    0    0    0  501  0.00000000000E+00 -0.00000000000E+00 -0.15650030265E+04  0.15650030265E+04  0.25500000000E-02 0.  1.
          2    1    1    2    0  502  0.19685571746E+02  0.10998940002E+02 -0.97695921948E+03  0.97721943030E+03  0.25500000000E-02 0.  1.
         -2    1    1    2  502    0 -0.19685571746E+02 -0.10998940002E+02 -0.58769747628E+03  0.58812993636E+03  0.25500000000E-02 0.  1.
<mgrwt>
<rscale>  0 0.46562475E+02</rscale>
<asrwt>0</asrwt>
<pdfrwt beam="2">  1        2 0.24076403E+00 0.46562475E+02</pdfrwt>
<pdfrwt beam="1">  1       -2 0.53283630E-04 0.46562475E+02</pdfrwt>
<totfact> 0.12853000E+06</totfact>
</mgrwt>
</event>
<event>
 4    1  0.2196664E-002  0.5971381E+02  0.7818608E-02  0.1399037E+00
          2   -1    0    0    0  501  0.00000000000E+00  0.00000000000E+00  0.16220546945E+01  0.16220566989E+01  0.25500000000E-02 0. -1.
         -2   -1    0    0  501    0 -0.00000000000E+00 -0.00000000000E+00 -0.54957098982E+03  0.54957098983E+03  0.25500000000E-02 0. -1.
          2    1    1    2    0  502 -0.55879302899E+01 -0.28274992101E+02 -0.20203833755E+03  0.20408378179E+03  0.25500000000E-02 0. -1.
         -2    1    1    2  502    0  0.55879302899E+01  0.28274992101E+02 -0.34591059758E+03  0.34710926474E+03  0.25500000000E-02 0. -1.
<mgrwt>
<rscale>  0 0.59713809E+02</rscale>
<asrwt>0</asrwt>
<pdfrwt beam="1">  1        2 0.24954747E-03 0.59713809E+02</pdfrwt>
<pdfrwt beam="2">  1       -2 0.84549235E-01 0.59713809E+02</pdfrwt>
<totfact> 0.99007297E+04</totfact>
</mgrwt>
</event>
<event>
 4    1  0.2196664E-002  0.5428051E+02  0.7818608E-02  0.1423532E+00
         -2   -1    0    0  501    0 -0.00000000000E+00  0.00000000000E+00  0.23347380127E+03  0.23347380128E+03  0.25500000000E-02 0. -1.
          2   -1    0    0    0  501  0.00000000000E+00 -0.00000000000E+00 -0.31549295799E+01  0.31549306104E+01  0.25500000000E-02 0. -1.
          2    1    1    2    0  502  0.22090257982E+02  0.13006629726E+02  0.15401449147E+03  0.15613332605E+03  0.25500000000E-02 0. -1.
         -2    1    1    2  502    0 -0.22090257982E+02 -0.13006629726E+02  0.76304380214E+02  0.80495405837E+02  0.25500000000E-02 0. -1.
<mgrwt>
<rscale>  0 0.54280513E+02</rscale>
<asrwt>0</asrwt>
<pdfrwt beam="2">  1        2 0.48537390E-03 0.54280513E+02</pdfrwt>
<pdfrwt beam="1">  1       -2 0.35919044E-01 0.54280513E+02</pdfrwt>
<totfact> 0.21519654E+05</totfact>
</mgrwt>
</event>
<event>
 4    1  0.2196664E-002  0.4592158E+02  0.7818608E-02  0.1468669E+00
         -2   -1    0    0  501    0 -0.00000000000E+00  0.00000000000E+00  0.36571042426E+01  0.36571051317E+01  0.25500000000E-02 0.  1.
          2   -1    0    0    0  501  0.00000000000E+00 -0.00000000000E+00 -0.14415715012E+03  0.14415715015E+03  0.25500000000E-02 0.  1.
          2    1    1    2    0  502  0.22510324119E+02  0.19371413350E+01 -0.83416057804E+02  0.86421675028E+02  0.25500000000E-02 0.  1.
         -2    1    1    2  502    0 -0.22510324119E+02 -0.19371413350E+01 -0.57083988077E+02  0.61392580250E+02  0.25500000000E-02 0.  1.
<mgrwt>
<rscale>  0 0.45921576E+02</rscale>
<asrwt>0</asrwt>
<pdfrwt beam="2">  1        2 0.22178019E-01 0.45921576E+02</pdfrwt>
<pdfrwt beam="1">  1       -2 0.56263160E-03 0.45921576E+02</pdfrwt>
<totfact> 0.82098761E+05</totfact>
</mgrwt>
</event>
<event>
 4    1  0.2196664E-002  0.5333511E+02  0.7818608E-02  0.1428140E+00
          2   -1    0    0    0  501  0.00000000000E+00  0.00000000000E+00  0.88719180657E+03  0.88719180657E+03  0.25500000000E-02 0. -1.
         -2   -1    0    0  501    0 -0.00000000000E+00 -0.00000000000E+00 -0.80158176278E+00  0.80158581881E+00  0.25500000000E-02 0. -1.
          2    1    1    2    0  502  0.23876477650E+02  0.22733133340E+01  0.63728965274E+03  0.63774082168E+03  0.25500000000E-02 0. -1.
         -2    1    1    2  502    0 -0.23876477650E+02 -0.22733133340E+01  0.24910057206E+03  0.25025257071E+03  0.25500000000E-02 0. -1.
<mgrwt>
<rscale>  0 0.53335113E+02</rscale>
<asrwt>0</asrwt>
<pdfrwt beam="1">  1        2 0.13649170E+00 0.53335113E+02</pdfrwt>
<pdfrwt beam="2">  1       -2 0.12332000E-03 0.53335113E+02</pdfrwt>
<totfact> 0.97716487E+05</totfact>
</mgrwt>
</event>
<event>
 4    1  0.2196664E-002  0.7552110E+02  0.7818608E-02  0.1342265E+00
         -2   -1    0    0  501    0 -0.00000000000E+00  0.00000000000E+00  0.19073424663E+03  0.19073424665E+03  0.25500000000E-02 0.  1.
          2   -1    0    0    0  501  0.00000000000E+00 -0.00000000000E+00 -0.74756327924E+01  0.74756332273E+01  0.25500000000E-02 0.  1.
          2    1    1    2    0  502 -0.21833588539E+02 -0.30544310918E+02  0.81066066137E+02  0.89338500119E+02  0.25500000000E-02 0.  1.
         -2    1    1    2  502    0  0.21833588539E+02  0.30544310918E+02  0.10219254770E+03  0.10887137976E+03  0.25500000000E-02 0.  1.
<mgrwt>
<rscale>  0 0.75521103E+02</rscale>
<asrwt>0</asrwt>
<pdfrwt beam="2">  1        2 0.11500974E-02 0.75521103E+02</pdfrwt>
<pdfrwt beam="1">  1       -2 0.29343729E-01 0.75521103E+02</pdfrwt>
<totfact> 0.10264870E+05</totfact>
</mgrwt>
</event>
<event>
 4    1  0.2196664E-002  0.4137903E+02  0.7818608E-02  0.1498302E+00
         -2   -1    0    0  501    0 -0.00000000000E+00  0.00000000000E+00  0.91337554106E+00  0.91337910065E+00  0.25500000000E-02 0. -1.
          2   -1    0    0    0  501  0.00000000000E+00 -0.00000000000E+00 -0.46865200529E+03  0.46865200530E+03  0.25500000000E-02 0. -1.
          2    1    1    2    0  502 -0.98993880606E+01 -0.17435882539E+02 -0.17595248272E+03  0.17709117444E+03  0.25500000000E-02 0.  1.
         -2    1    1    2  502    0  0.98993880606E+01  0.17435882539E+02 -0.29178614703E+03  0.29247420996E+03  0.25500000000E-02 0.  1.
<mgrwt>
<rscale>  0 0.41379034E+02</rscale>
<asrwt>0</asrwt>
<pdfrwt beam="2">  1        2 0.72100117E-01 0.41379034E+02</pdfrwt>
<pdfrwt beam="1">  1       -2 0.14051996E-03 0.41379034E+02</pdfrwt>
<totfact> 0.15638702E+06</totfact>
</mgrwt>
</event>
<event>
 4    1  0.2196664E-002  0.6401392E+02  0.7818608E-02  0.1381720E+00
          2   -1    0    0    0  501  0.00000000000E+00  0.00000000000E+00  0.17398902702E+03  0.17398902703E+03  0.25500000000E-02 0. -1.
         -2   -1    0    0  501    0 -0.00000000000E+00 -0.00000000000E+00 -0.58879883318E+01  0.58879888840E+01  0.25500000000E-02 0. -1.
          2    1    1    2    0  502 -0.15213086676E+02 -0.22713473676E+02  0.13082660227E+03  0.13365230922E+03  0.25500000000E-02 0.  1.
         -2    1    1    2  502    0  0.15213086676E+02  0.22713473676E+02  0.37274436415E+02  0.46224706697E+02  0.25500000000E-02 0.  1.
<mgrwt>
<rscale>  0 0.64013918E+02</rscale>
<asrwt>0</asrwt>
<pdfrwt beam="1">  1        2 0.26767538E-01 0.64013918E+02</pdfrwt>
<pdfrwt beam="2">  1       -2 0.90584457E-03 0.64013918E+02</pdfrwt>
<totfact> 0.37485492E+05</totfact>
</mgrwt>
</event>
<event>
 4    1  0.2196664E-002  0.4485129E+02  0.7818608E-02  0.1475272E+00
          2   -1    0    0    0  501  0.00000000000E+00  0.00000000000E+00  0.10439919496E+04  0.10439919496E+04  0.25500000000E-02 0. -1.
         -2   -1    0    0  501    0 -0.00000000000E+00 -0.00000000000E+00 -0.48171442310E+00  0.48172117238E+00  0.25500000000E-02 0. -1.
          2    1    1    2    0  502  0.21548364417E+02 -0.34281296961E+01  0.40114164488E+03  0.40173461806E+03  0.25500000000E-02 0. -1.
         -2    1    1    2  502    0 -0.21548364417E+02  0.34281296961E+01  0.64236859027E+03  0.64273905269E+03  0.25500000000E-02 0. -1.
<mgrwt>
<rscale>  0 0.44851288E+02</rscale>
<asrwt>0</asrwt>
<pdfrwt beam="1">  1        2 0.16061248E+00 0.44851288E+02</pdfrwt>
<pdfrwt beam="2">  1       -2 0.74111198E-04 0.44851288E+02</pdfrwt>
<totfact> 0.15132460E+06</totfact>
</mgrwt>
</event>
<event>
 4    1  0.2196664E-002  0.5166081E+02  0.7818608E-02  0.1436584E+00
          2   -1    0    0    0  501  0.00000000000E+00  0.00000000000E+00  0.38219625597E+02  0.38219625682E+02  0.25500000000E-02 0. -1.
         -2   -1    0    0  501    0 -0.00000000000E+00 -0.00000000000E+00 -0.17457257976E+02  0.17457258163E+02  0.25500000000E-02 0. -1.
          2    1    1    2    0  502  0.93706513329E+00  0.25588830882E+02  0.67194851999E+01  0.26472964413E+02  0.25500000000E-02 0.  1.
         -2    1    1    2  502    0 -0.93706513329E+00 -0.25588830882E+02  0.14042882421E+02  0.29203919432E+02  0.25500000000E-02 0.  1.
<mgrwt>
<rscale>  0 0.51660812E+02</rscale>
<asrwt>0</asrwt>
<pdfrwt beam="1">  1        2 0.58799424E-02 0.51660812E+02</pdfrwt>
<pdfrwt beam="2">  1       -2 0.26857320E-02 0.51660812E+02</pdfrwt>
<totfact> 0.44892066E+05</totfact>
</mgrwt>
</event>
<event>
 4    1  0.2196664E-002  0.1211046E+03  0.7818608E-02  0.1241286E+00
         -2   -1    0    0  501    0 -0.00000000000E+00  0.00000000000E+00  0.13522746731E+02  0.13522746971E+02  0.25500000000E-02 0. -1.
          2   -1    0    0    0  501  0.00000000000E+00 -0.00000000000E+00 -0.27114164248E+03  0.27114164249E+03  0.25500000000E-02 0. -1.
          2    1    1    2    0  502 -0.33385028936E+02 -0.44085978708E+02 -0.70828723586E+02  0.89860123342E+02  0.25500000000E-02 0. -1.
         -2    1    1    2  502    0  0.33385028936E+02  0.44085978708E+02 -0.18679017216E+03  0.19480426612E+03  0.25500000000E-02 0. -1.
<mgrwt>
<rscale>  0 0.12110458E+03</rscale>
<asrwt>0</asrwt>
<pdfrwt beam="2">  1        2 0.41714095E-01 0.12110458E+03</pdfrwt>
<pdfrwt beam="1">  1       -2 0.20804228E-02 0.12110458E+03</pdfrwt>
<totfact> 0.79961254E+04</totfact>
</mgrwt>
</event>
<event>
 4    1  0.2196664E-002  0.4708809E+02  0.7818608E-02  0.1461712E+00
          2   -1    0    0    0  501  0.00000000000E+00  0.00000000000E+00  0.36265146168E+03  0.36265146169E+03  0.25500000000E-02 0. -1.
         -2   -1    0    0  501    0 -0.00000000000E+00 -0.00000000000E+00 -0.15285247124E+01  0.15285268395E+01  0.25500000000E-02 0. -1.
          2    1    1    2    0  502  0.18805324250E+02 -0.85445822758E+01  0.26794967123E+03  0.26874463050E+03  0.25500000000E-02 0. -1.
         -2    1    1    2  502    0 -0.18805324250E+02  0.85445822758E+01  0.93173265745E+02  0.95435358031E+02  0.25500000000E-02 0. -1.
<mgrwt>
<rscale>  0 0.47088092E+02</rscale>
<asrwt>0</asrwt>
<pdfrwt beam="1">  1        2 0.55792604E-01 0.47088092E+02</pdfrwt>
<pdfrwt beam="2">  1       -2 0.23515751E-03 0.47088092E+02</pdfrwt>
<totfact> 0.10480046E+06</totfact>
</mgrwt>
</event>
<event>
 4    1  0.2196664E-002  0.8009293E+02  0.7818608E-02  0.1328788E+00
          2   -1    0    0    0  501  0.00000000000E+00  0.00000000000E+00  0.17536166017E+04  0.17536166017E+04  0.25500000000E-02 0.  1.
         -2   -1    0    0  501    0 -0.00000000000E+00 -0.00000000000E+00 -0.91451922333E+00  0.91452277847E+00  0.25500000000E-02 0.  1.
          2    1    1    2    0  502 -0.19763263668E+02  0.24386322336E+02  0.33157792808E+03  0.33306035745E+03  0.25500000000E-02 0. -1.
         -2    1    1    2  502    0  0.19763263668E+02 -0.24386322336E+02  0.14211241544E+04  0.14214707671E+04  0.25500000000E-02 0. -1.
<mgrwt>
<rscale>  0 0.80092926E+02</rscale>
<asrwt>0</asrwt>
<pdfrwt beam="1">  1        2 0.26978624E+00 0.80092926E+02</pdfrwt>
<pdfrwt beam="2">  1       -2 0.14069602E-03 0.80092926E+02</pdfrwt>
<totfact> 0.30639769E+05</totfact>
</mgrwt>
</event>
<event>
 4    1  0.2196664E-002  0.1057151E+03  0.7818608E-02  0.1268717E+00
          2   -1    0    0    0  501  0.00000000000E+00  0.00000000000E+00  0.37199908378E+02  0.37199908466E+02  0.25500000000E-02 0.  1.
         -2   -1    0    0  501    0 -0.00000000000E+00 -0.00000000000E+00 -0.75105635317E+02  0.75105635360E+02  0.25500000000E-02 0.  1.
          2    1    1    2    0  502 -0.12967199399E+02 -0.49194182666E+02 -0.37162512200E+01  0.51010061734E+02  0.25500000000E-02 0.  1.
         -2    1    1    2  502    0  0.12967199399E+02  0.49194182666E+02 -0.34189475718E+02  0.61295482092E+02  0.25500000000E-02 0.  1.
<mgrwt>
<rscale>  0 0.10571514E+03</rscale>
<asrwt>0</asrwt>
<pdfrwt beam="1">  1        2 0.57230629E-02 0.10571514E+03</pdfrwt>
<pdfrwt beam="2">  1       -2 0.11554713E-01 0.10571514E+03</pdfrwt>
<totfact> 0.60357676E+04</totfact>
</mgrwt>
</event>
<event>
 4    1  0.2196664E-002  0.8909305E+02  0.7818608E-02  0.1305063E+00
          2   -1    0    0    0  501  0.00000000000E+00  0.00000000000E+00  0.73127900375E+02  0.73127900419E+02  0.25500000000E-02 0.  1.
         -2   -1    0    0  501    0 -0.00000000000E+00 -0.00000000000E+00 -0.27135920522E+02  0.27135920641E+02  0.25500000000E-02 0.  1.
          2    1    1    2    0  502  0.40780666987E+02 -0.73096976823E+01  0.45761651325E+01  0.41682559589E+02  0.25500000000E-02 0. -1.
         -2    1    1    2  502    0 -0.40780666987E+02  0.73096976823E+01  0.41415814721E+02  0.58581261472E+02  0.25500000000E-02 0. -1.
<mgrwt>
<rscale>  0 0.89093050E+02</rscale>
<asrwt>0</asrwt>
<pdfrwt beam="1">  1        2 0.11250446E-01 0.89093050E+02</pdfrwt>
<pdfrwt beam="2">  1       -2 0.41747571E-02 0.89093050E+02</pdfrwt>
<totfact> 0.11941810E+05</totfact>
</mgrwt>
</event>
<event>
 4    1  0.2196664E-002  0.7836630E+02  0.7818608E-02  0.1333753E+00
         -2   -1    0    0  501    0 -0.00000000000E+00  0.00000000000E+00  0.13240816001E+02  0.13240816246E+02  0.25500000000E-02 0.  1.
          2   -1    0    0    0  501  0.00000000000E+00 -0.00000000000E+00 -0.11595351180E+03  0.11595351183E+03  0.25500000000E-02 0.  1.
          2    1    1    2    0  502 -0.31309757777E+02  0.18537210239E+02 -0.75325704203E+02  0.83653396916E+02  0.25500000000E-02 0. -1.
         -2    1    1    2  502    0  0.31309757777E+02 -0.18537210239E+02 -0.27386991594E+02  0.45540931156E+02  0.25500000000E-02 0. -1.
<mgrwt>
<rscale>  0 0.78366297E+02</rscale>
<asrwt>0</asrwt>
<pdfrwt beam="2">  1        2 0.17839001E-01 0.78366297E+02</pdfrwt>
<pdfrwt beam="1">  1       -2 0.20370487E-02 0.78366297E+02</pdfrwt>
<totfact> 0.19355036E+05</totfact>
</mgrwt>
</event>
<event>
 4    1  0.2196664E-002  0.1069147E+03  0.7818608E-02  0.1266392E+00
          2   -1    0    0    0  501  0.00000000000E+00  0.00000000000E+00  0.13367178358E+04  0.13367178358E+04  0.25500000000E-02 0. -1.
         -2   -1    0    0  501    0 -0.00000000000E+00 -0.00000000000E+00 -0.21378381863E+01  0.21378397071E+01  0.25500000000E-02 0. -1.
          2    1    1    2    0  502  0.15236814784E+02  0.51238809577E+02  0.67146804910E+03  0.67359254531E+03  0.25500000000E-02 0. -1.
         -2    1    1    2  502    0 -0.15236814784E+02 -0.51238809577E+02  0.66311194848E+03  0.66526313016E+03  0.25500000000E-02 0. -1.
<mgrwt>
<rscale>  0 0.10691468E+03</rscale>
<asrwt>0</asrwt>
<pdfrwt beam="1">  1        2 0.20564899E+00 0.10691468E+03</pdfrwt>
<pdfrwt beam="2">  1       -2 0.32889816E-03 0.10691468E+03</pdfrwt>
<totfact> 0.16007761E+05</totfact>
</mgrwt>
</event>
<event>
 4    1  0.2196664E-002  0.6048208E+02  0.7818608E-02  0.1395820E+00
         -2   -1    0    0  501    0 -0.00000000000E+00  0.00000000000E+00  0.24200809530E+01  0.24200822964E+01  0.25500000000E-02 0.  1.
          2   -1    0    0    0  501  0.00000000000E+00 -0.00000000000E+00 -0.37788823673E+03  0.37788823674E+03  0.25500000000E-02 0.  1.
          2    1    1    2    0  502  0.18330338844E+02  0.21451666819E+02 -0.11932965680E+03  0.12262031777E+03  0.25500000000E-02 0.  1.
         -2    1    1    2  502    0 -0.18330338844E+02 -0.21451666819E+02 -0.25613849897E+03  0.25768800126E+03  0.25500000000E-02 0.  1.
<mgrwt>
<rscale>  0 0.60482076E+02</rscale>
<asrwt>0</asrwt>
<pdfrwt beam="2">  1        2 0.58136605E-01 0.60482076E+02</pdfrwt>
<pdfrwt beam="1">  1       -2 0.37232055E-03 0.60482076E+02</pdfrwt>
<totfact> 0.56815263E+05</totfact>
</mgrwt>
</event>
<event>
 4    1  0.2196664E-002  0.6965175E+02  0.7818608E-02  0.1361281E+00
         -2   -1    0    0  501    0 -0.00000000000E+00  0.00000000000E+00  0.19512740831E+03  0.19512740833E+03  0.25500000000E-02 0. -1.
          2   -1    0    0    0  501  0.00000000000E+00 -0.00000000000E+00 -0.62156397154E+01  0.62156402385E+01  0.25500000000E-02 0. -1.
          2    1    1    2    0  502 -0.14632134612E+02 -0.27842464484E+02  0.13767558366E+03  0.14122276210E+03  0.25500000000E-02 0.  1.
         -2    1    1    2  502    0  0.14632134612E+02  0.27842464484E+02  0.51236184936E+02  0.60120286469E+02  0.25500000000E-02 0.  1.
<mgrwt>
<rscale>  0 0.69651754E+02</rscale>
<asrwt>0</asrwt>
<pdfrwt beam="2">  1        2 0.95625220E-03 0.69651754E+02</pdfrwt>
<pdfrwt beam="1">  1       -2 0.30019605E-01 0.69651754E+02</pdfrwt>
<totfact> 0.12473556E+05</totfact>
</mgrwt>
</event>
<event>
 4    1  0.2196664E-002  0.5658912E+02  0.7818608E-02  0.1412730E+00
          2   -1    0    0    0  501  0.00000000000E+00  0.00000000000E+00  0.14275356863E+03  0.14275356865E+03  0.25500000000E-02 0. -1.
         -2   -1    0    0  501    0 -0.00000000000E+00 -0.00000000000E+00 -0.56081404204E+01  0.56081410002E+01  0.25500000000E-02 0. -1.
          2    1    1    2    0  502 -0.80697542310E+01 -0.21962027290E+02  0.11028472729E+03  0.11273940153E+03  0.25500000000E-02 0.  1.
         -2    1    1    2  502    0  0.80697542310E+01  0.21962027290E+02  0.26860700918E+02  0.35622308128E+02  0.25500000000E-02 0.  1.
<mgrwt>
<rscale>  0 0.56589119E+02</rscale>
<asrwt>0</asrwt>
<pdfrwt beam="1">  1        2 0.21962086E-01 0.56589119E+02</pdfrwt>
<pdfrwt beam="2">  1       -2 0.86279092E-03 0.56589119E+02</pdfrwt>
<totfact> 0.48326509E+05</totfact>
</mgrwt>
</event>
<event>
 4    1  0.2196664E-002  0.7894944E+02  0.7818608E-02  0.1332059E+00
          2   -1    0    0    0  501  0.00000000000E+00  0.00000000000E+00  0.28055467451E+03  0.28055467452E+03  0.25500000000E-02 0. -1.
         -2   -1    0    0  501    0 -0.00000000000E+00 -0.00000000000E+00 -0.55541873998E+01  0.55541879852E+01  0.25500000000E-02 0. -1.
          2    1    1    2    0  502 -0.98920216653E+01 -0.22216405886E+02  0.24817370361E+02  0.34746548911E+02  0.25500000000E-02 0.  1.
         -2    1    1    2  502    0  0.98920216653E+01  0.22216405886E+02  0.25018311675E+03  0.25136231360E+03  0.25500000000E-02 0.  1.
<mgrwt>
<rscale>  0 0.78949435E+02</rscale>
<asrwt>0</asrwt>
<pdfrwt beam="1">  1        2 0.43162256E-01 0.78949435E+02</pdfrwt>
<pdfrwt beam="2">  1       -2 0.85449044E-03 0.78949435E+02</pdfrwt>
<totfact> 0.25661389E+05</totfact>
</mgrwt>
</event>
<event>
 4    1  0.2196664E-002  0.4932500E+02  0.7818608E-02  0.1449017E+00
         -2   -1    0    0  501    0 -0.00000000000E+00  0.00000000000E+00  0.18923080868E+01  0.18923098050E+01  0.25500000000E-02 0. -1.
          2   -1    0    0    0  501  0.00000000000E+00 -0.00000000000E+00 -0.32142678980E+03  0.32142678981E+03  0.25500000000E-02 0. -1.
          2    1    1    2    0  502  0.13256499926E+02  0.20038109247E+02 -0.12328410041E+03  0.12560346346E+03  0.25500000000E-02 0. -1.
         -2    1    1    2  502    0 -0.13256499926E+02 -0.20038109247E+02 -0.19625038130E+03  0.19771563616E+03  0.25500000000E-02 0. -1.
<mgrwt>
<rscale>  0 0.49324995E+02</rscale>
<asrwt>0</asrwt>
<pdfrwt beam="2">  1        2 0.49450232E-01 0.49324995E+02</pdfrwt>
<pdfrwt beam="1">  1       -2 0.29112471E-03 0.49324995E+02</pdfrwt>
<totfact> 0.89628641E+05</totfact>
</mgrwt>
</event>
<event>
 4    1  0.2196664E-002  0.4969159E+02  0.7818608E-02  0.1447012E+00
         -2   -1    0    0  501    0 -0.00000000000E+00  0.00000000000E+00  0.14618040175E+01  0.14618062417E+01  0.25500000000E-02 0. -1.
          2   -1    0    0    0  501  0.00000000000E+00 -0.00000000000E+00 -0.42229542915E+03  0.42229542916E+03  0.25500000000E-02 0. -1.
          2    1    1    2    0  502  0.18702833593E+02 -0.11305170209E+02 -0.10961945860E+03  0.11177669063E+03  0.25500000000E-02 0.  1.
         -2    1    1    2  502    0 -0.18702833593E+02  0.11305170209E+02 -0.31121416653E+03  0.31198054477E+03  0.25500000000E-02 0.  1.
<mgrwt>
<rscale>  0 0.49691594E+02</rscale>
<asrwt>0</asrwt>
<pdfrwt beam="2">  1        2 0.64968430E-01 0.49691594E+02</pdfrwt>
<pdfrwt beam="1">  1       -2 0.22489343E-03 0.49691594E+02</pdfrwt>
<totfact> 0.96599845E+05</totfact>
</mgrwt>
</event>
<event>
 4    1  0.2196664E-002  0.7338444E+02  0.7818608E-02  0.1348948E+00
          2   -1    0    0    0  501  0.00000000000E+00  0.00000000000E+00  0.58125777535E+02  0.58125777591E+02  0.25500000000E-02 0.  1.
         -2   -1    0    0  501    0 -0.00000000000E+00 -0.00000000000E+00 -0.23162167967E+02  0.23162168107E+02  0.25500000000E-02 0.  1.
          2    1    1    2    0  502 -0.19974914493E+01 -0.34164390604E+02  0.28231427172E+01  0.34338982203E+02  0.25500000000E-02 0. -1.
         -2    1    1    2  502    0  0.19974914493E+01  0.34164390604E+02  0.32140466851E+02  0.46948963496E+02  0.25500000000E-02 0. -1.
<mgrwt>
<rscale>  0 0.73384441E+02</rscale>
<asrwt>0</asrwt>
<pdfrwt beam="1">  1        2 0.89424272E-02 0.73384441E+02</pdfrwt>
<pdfrwt beam="2">  1       -2 0.35634105E-02 0.73384441E+02</pdfrwt>
<totfact> 0.19194035E+05</totfact>
</mgrwt>
</event>
<event>
 4    1  0.2196664E-002  0.4606317E+02  0.7818608E-02  0.1467812E+00
          2   -1    0    0    0  501  0.00000000000E+00  0.00000000000E+00  0.19752569175E+04  0.19752569175E+04  0.25500000000E-02 0.  1.
         -2   -1    0    0  501    0 -0.00000000000E+00 -0.00000000000E+00 -0.26854330122E+00  0.26855540793E+00  0.25500000000E-02 0.  1.
          2    1    1    2    0  502  0.89847961494E+01 -0.19525828692E+02  0.13423705769E+04  0.13425426438E+04  0.25500000000E-02 0.  1.
         -2    1    1    2  502    0 -0.89847961494E+01  0.19525828692E+02  0.63261779723E+03  0.63298282909E+03  0.25500000000E-02 0.  1.
<mgrwt>
<rscale>  0 0.46063173E+02</rscale>
<asrwt>0</asrwt>
<pdfrwt beam="1">  1        2 0.30388953E+00 0.46063173E+02</pdfrwt>
<pdfrwt beam="2">  1       -2 0.41314762E-04 0.46063173E+02</pdfrwt>
<totfact> 0.11410583E+06</totfact>
</mgrwt>
</event>
<event>
 4    1  0.2196664E-002  0.5756050E+02  0.7818608E-02  0.1408364E+00
          2   -1    0    0    0  501  0.00000000000E+00  0.00000000000E+00  0.10270115358E+03  0.10270115361E+03  0.25500000000E-02 0. -1.
         -2   -1    0    0  501    0 -0.00000000000E+00 -0.00000000000E+00 -0.80651754911E+01  0.80651758942E+01  0.25500000000E-02 0. -1.
          2    1    1    2    0  502 -0.87367802549E+00  0.28382850252E+02  0.56334396275E+02  0.63086557299E+02  0.25500000000E-02 0. -1.
         -2    1    1    2  502    0  0.87367802549E+00 -0.28382850252E+02  0.38301581812E+02  0.47679772205E+02  0.25500000000E-02 0. -1.
<mgrwt>
<rscale>  0 0.57560502E+02</rscale>
<asrwt>0</asrwt>
<pdfrwt beam="1">  1        2 0.15800178E-01 0.57560502E+02</pdfrwt>
<pdfrwt beam="2">  1       -2 0.12407962E-02 0.57560502E+02</pdfrwt>
<totfact> 0.42070879E+05</totfact>
</mgrwt>
</event>
<event>
 4    1  0.2196664E-002  0.6969887E+02  0.7818608E-02  0.1361120E+00
          2   -1    0    0    0  501  0.00000000000E+00  0.00000000000E+00  0.20037220440E+03  0.20037220441E+03  0.25500000000E-02 0.  1.
         -2   -1    0    0  501    0 -0.00000000000E+00 -0.00000000000E+00 -0.60611358635E+01  0.60611363999E+01  0.25500000000E-02 0.  1.
          2    1    1    2    0  502  0.36410113889E+01  0.24935635678E+02  0.25860638015E+02  0.36108385393E+02  0.25500000000E-02 0.  1.
         -2    1    1    2  502    0 -0.36410113889E+01 -0.24935635678E+02  0.16845043052E+03  0.17032495542E+03  0.25500000000E-02 0.  1.
<mgrwt>
<rscale>  0 0.69698873E+02</rscale>
<asrwt>0</asrwt>
<pdfrwt beam="1">  1        2 0.30826496E-01 0.69698873E+02</pdfrwt>
<pdfrwt beam="2">  1       -2 0.93248240E-03 0.69698873E+02</pdfrwt>
<totfact> 0.31526814E+05</totfact>
</mgrwt>
</event>
<event>
 4    1  0.2196664E-002  0.5066502E+02  0.7818608E-02  0.1441787E+00
         -2   -1    0    0  501    0 -0.00000000000E+00  0.00000000000E+00  0.83802121502E+00  0.83802509468E+00  0.25500000000E-02 0.  1.
          2   -1    0    0    0  501  0.00000000000E+00 -0.00000000000E+00 -0.76577364461E+03  0.76577364461E+03  0.25500000000E-02 0.  1.
          2    1    1    2    0  502  0.23994662391E+02 -0.69503323867E+01 -0.44609913530E+03  0.44679804103E+03  0.25500000000E-02 0.  1.
         -2    1    1    2  502    0 -0.23994662391E+02  0.69503323867E+01 -0.31883648809E+03  0.31981362868E+03  0.25500000000E-02 0.  1.
<mgrwt>
<rscale>  0 0.50665019E+02</rscale>
<asrwt>0</asrwt>
<pdfrwt beam="2">  1        2 0.11781077E+00 0.50665019E+02</pdfrwt>
<pdfrwt beam="1">  1       -2 0.12892725E-03 0.50665019E+02</pdfrwt>
<totfact> 0.10849212E+06</totfact>
</mgrwt>
</event>
<event>
 4    1  0.2196664E-002  0.4906259E+02  0.7818608E-02  0.1450464E+00
          2   -1    0    0    0  501  0.00000000000E+00  0.00000000000E+00  0.92717686947E+01  0.92717690453E+01  0.25500000000E-02 0. -1.
         -2   -1    0    0  501    0 -0.00000000000E+00 -0.00000000000E+00 -0.64905040005E+02  0.64905040055E+02  0.25500000000E-02 0. -1.
          2    1    1    2    0  502  0.29416111884E+01  0.23430498756E+02 -0.17771647261E+02  0.29554573271E+02  0.25500000000E-02 0. -1.
         -2    1    1    2  502    0 -0.29416111884E+01 -0.23430498756E+02 -0.37861624049E+02  0.44622235830E+02  0.25500000000E-02 0. -1.
<mgrwt>
<rscale>  0 0.49062594E+02</rscale>
<asrwt>0</asrwt>
<pdfrwt beam="1">  1        2 0.14264260E-02 0.49062594E+02</pdfrwt>
<pdfrwt beam="2">  1       -2 0.99853905E-02 0.49062594E+02</pdfrwt>
<totfact> 0.40669204E+05</totfact>
</mgrwt>
</event>
<event>
 4    1  0.2196664E-002  0.6384841E+02  0.7818608E-02  0.1382356E+00
         -2   -1    0    0  501    0 -0.00000000000E+00  0.00000000000E+00  0.72107406428E+01  0.72107410937E+01  0.25500000000E-02 0. -1.
          2   -1    0    0    0  501  0.00000000000E+00 -0.00000000000E+00 -0.14133845269E+03  0.14133845271E+03  0.25500000000E-02 0. -1.
          2    1    1    2    0  502 -0.15516042552E+02 -0.26617060254E+02 -0.47606608916E+02  0.56706302048E+02  0.25500000000E-02 0.  1.
         -2    1    1    2  502    0  0.15516042552E+02  0.26617060254E+02 -0.86521103132E+02  0.91842891759E+02  0.25500000000E-02 0.  1.
<mgrwt>
<rscale>  0 0.63848413E+02</rscale>
<asrwt>0</asrwt>
<pdfrwt beam="2">  1        2 0.21744375E-01 0.63848413E+02</pdfrwt>
<pdfrwt beam="1">  1       -2 0.11093449E-02 0.63848413E+02</pdfrwt>
<totfact> 0.35305013E+05</totfact>
</mgrwt>
</event>
<event>
 4    1  0.2196664E-002  0.4559086E+02  0.7818608E-02  0.1470686E+00
         -2   -1    0    0  501    0 -0.00000000000E+00  0.00000000000E+00  0.37631647058E+01  0.37631655698E+01  0.25500000000E-02 0. -1.
          2   -1    0    0    0  501  0.00000000000E+00 -0.00000000000E+00 -0.13808366730E+03  0.13808366733E+03  0.25500000000E-02 0. -1.
          2    1    1    2    0  502 -0.10406165696E+02 -0.19646535851E+02 -0.82827424774E+02  0.85759296619E+02  0.25500000000E-02 0. -1.
         -2    1    1    2  502    0  0.10406165696E+02  0.19646535851E+02 -0.51493077825E+02  0.56087536279E+02  0.25500000000E-02 0. -1.
<mgrwt>
<rscale>  0 0.45590861E+02</rscale>
<asrwt>0</asrwt>
<pdfrwt beam="2">  1        2 0.21243637E-01 0.45590861E+02</pdfrwt>
<pdfrwt beam="1">  1       -2 0.57894859E-03 0.45590861E+02</pdfrwt>
<totfact> 0.82532953E+05</totfact>
</mgrwt>
</event>
<event>
 4    1  0.2196664E-002  0.6418742E+02  0.7818608E-02  0.1381054E+00
          2   -1    0    0    0  501  0.00000000000E+00  0.00000000000E+00  0.38377051492E+03  0.38377051493E+03  0.25500000000E-02 0.  1.
         -2   -1    0    0  501    0 -0.00000000000E+00 -0.00000000000E+00 -0.26839108941E+01  0.26839121055E+01  0.25500000000E-02 0.  1.
          2    1    1    2    0  502  0.31500283637E+02  0.27989989841E+01  0.22346724219E+03  0.22569384263E+03  0.25500000000E-02 0. -1.
         -2    1    1    2  502    0 -0.31500283637E+02 -0.27989989841E+01  0.15761936184E+03  0.16076058441E+03  0.25500000000E-02 0. -1.
<mgrwt>
<rscale>  0 0.64187416E+02</rscale>
<asrwt>0</asrwt>
<pdfrwt beam="1">  1        2 0.59041616E-01 0.64187416E+02</pdfrwt>
<pdfrwt beam="2">  1       -2 0.41290947E-03 0.64187416E+02</pdfrwt>
<totfact> 0.49093081E+05</totfact>
</mgrwt>
</event>
<event>
 4    1  0.2196664E-002  0.7016894E+02  0.7818608E-02  0.1359520E+00
          2   -1    0    0    0  501  0.00000000000E+00  0.00000000000E+00  0.13530552213E+02  0.13530552454E+02  0.25500000000E-02 0. -1.
         -2   -1    0    0  501    0 -0.00000000000E+00 -0.00000000000E+00 -0.90973369573E+02  0.90973369609E+02  0.25500000000E-02 0. -1.
          2    1    1    2    0  502  0.20092976759E+02 -0.12819294515E+02 -0.77065452427E+02  0.80666882865E+02  0.25500000000E-02 0. -1.
         -2    1    1    2  502    0 -0.20092976759E+02  0.12819294515E+02 -0.37736493232E+00  0.23837039197E+02  0.25500000000E-02 0. -1.
<mgrwt>
<rscale>  0 0.70168937E+02</rscale>
<asrwt>0</asrwt>
<pdfrwt beam="1">  1        2 0.20816235E-02 0.70168937E+02</pdfrwt>
<pdfrwt beam="2">  1       -2 0.13995903E-01 0.70168937E+02</pdfrwt>
<totfact> 0.15700528E+05</totfact>
</mgrwt>
</event>
<event>
 4    1  0.2196664E-002  0.5203002E+02  0.7818608E-02  0.1434690E+00
         -2   -1    0    0  501    0 -0.00000000000E+00  0.00000000000E+00  0.68099092985E+00  0.68099570412E+00  0.25500000000E-02 0. -1.
          2   -1    0    0    0  501  0.00000000000E+00 -0.00000000000E+00 -0.99381395242E+03  0.99381395243E+03  0.25500000000E-02 0. -1.
          2    1    1    2    0  502  0.17251829250E+02  0.14072752270E+02 -0.23933563085E+03  0.24036890849E+03  0.25500000000E-02 0. -1.
         -2    1    1    2  502    0 -0.17251829250E+02 -0.14072752270E+02 -0.75379733065E+03  0.75412603964E+03  0.25500000000E-02 0. -1.
<mgrwt>
<rscale>  0 0.52030017E+02</rscale>
<asrwt>0</asrwt>
<pdfrwt beam="2">  1        2 0.15289329E+00 0.52030017E+02</pdfrwt>
<pdfrwt beam="1">  1       -2 0.10476900E-03 0.52030017E+02</pdfrwt>
<totfact> 0.10489421E+06</totfact>
</mgrwt>
</event>
<event>
 4    1  0.2196664E-002  0.4840631E+02  0.7818608E-02  0.1454132E+00
          2   -1    0    0    0  501  0.00000000000E+00  0.00000000000E+00  0.18490878915E+04  0.18490878915E+04  0.25500000000E-02 0. -1.
         -2   -1    0    0  501    0 -0.00000000000E+00 -0.00000000000E+00 -0.31679574655E+00  0.31680600931E+00  0.25500000000E-02 0. -1.
          2    1    1    2    0  502 -0.22326503543E+01 -0.21222343047E+02  0.48806843653E+03  0.48853471864E+03  0.25500000000E-02 0. -1.
         -2    1    1    2  502    0  0.22326503543E+01  0.21222343047E+02  0.13607026593E+04  0.13608699789E+04  0.25500000000E-02 0. -1.
<mgrwt>
<rscale>  0 0.48406308E+02</rscale>
<asrwt>0</asrwt>
<pdfrwt beam="1">  1        2 0.28447709E+00 0.48406308E+02</pdfrwt>
<pdfrwt beam="2">  1       -2 0.48738249E-04 0.48406308E+02</pdfrwt>
<totfact> 0.10631205E+06</totfact>
</mgrwt>
</event>
<event>
 4    1  0.2196664E-002  0.1057722E+03  0.7818608E-02  0.1268606E+00
          2   -1    0    0    0  501  0.00000000000E+00  0.00000000000E+00  0.20670227318E+03  0.20670227319E+03  0.25500000000E-02 0.  1.
         -2   -1    0    0  501    0 -0.00000000000E+00 -0.00000000000E+00 -0.13531257989E+02  0.13531258229E+02  0.25500000000E-02 0.  1.
          2    1    1    2    0  502 -0.21101195974E+02  0.24931196236E+01  0.19742398360E+03  0.19856410910E+03  0.25500000000E-02 0. -1.
         -2    1    1    2  502    0  0.21101195974E+02 -0.24931196236E+01 -0.42529684084E+01  0.21669422322E+02  0.25500000000E-02 0. -1.
<mgrwt>
<rscale>  0 0.10577224E+03</rscale>
<asrwt>0</asrwt>
<pdfrwt beam="1">  1        2 0.31800349E-01 0.10577224E+03</pdfrwt>
<pdfrwt beam="2">  1       -2 0.20817321E-02 0.10577224E+03</pdfrwt>
<totfact> 0.10459461E+05</totfact>
</mgrwt>
</event>
<event>
 4    1  0.2196664E-002  0.7190497E+02  0.7818608E-02  0.1353732E+00
         -2   -1    0    0  501    0 -0.00000000000E+00  0.00000000000E+00  0.51975158668E+00  0.51975784204E+00  0.25500000000E-02 0.  1.
          2   -1    0    0    0  501  0.00000000000E+00 -0.00000000000E+00 -0.24869058330E+04  0.24869058330E+04  0.25500000000E-02 0.  1.
          2    1    1    2    0  502 -0.17822210897E+02 -0.24452093038E+02 -0.57147379772E+03  0.57227426776E+03  0.25500000000E-02 0.  1.
         -2    1    1    2  502    0  0.17822210897E+02  0.24452093038E+02 -0.19149122837E+04  0.19151513230E+04  0.25500000000E-02 0.  1.
<mgrwt>
<rscale>  0 0.71904966E+02</rscale>
<asrwt>0</asrwt>
<pdfrwt beam="2">  1        2 0.38259137E+00 0.71904966E+02</pdfrwt>
<pdfrwt beam="1">  1       -2 0.79964255E-04 0.71904966E+02</pdfrwt>
<totfact> 0.27955363E+05</totfact>
</mgrwt>
</event>
<event>
 4    1  0.2196664E-002  0.6092699E+02  0.7818608E-02  0.1393982E+00
          2   -1    0    0    0  501  0.00000000000E+00  0.00000000000E+00  0.48686716790E+03  0.48686716791E+03  0.25500000000E-02 0. -1.
         -2   -1    0    0  501    0 -0.00000000000E+00 -0.00000000000E+00 -0.19061137840E+01  0.19061154897E+01  0.25500000000E-02 0. -1.
          2    1    1    2    0  502  0.11835847892E+02  0.28052747609E+02  0.23453608987E+03  0.23650416783E+03  0.25500000000E-02 0. -1.
         -2    1    1    2  502    0 -0.11835847892E+02 -0.28052747609E+02  0.25042496425E+03  0.25226911557E+03  0.25500000000E-02 0. -1.
<mgrwt>
<rscale>  0 0.60926994E+02</rscale>
<asrwt>0</asrwt>
<pdfrwt beam="1">  1        2 0.74902705E-01 0.60926994E+02</pdfrwt>
<pdfrwt beam="2">  1       -2 0.29324816E-03 0.60926994E+02</pdfrwt>
<totfact> 0.60714417E+05</totfact>
</mgrwt>
</event>
<event>
 4    1  0.2196664E-002  0.4418845E+02  0.7818608E-02  0.1479472E+00
          2   -1    0    0    0  501  0.00000000000E+00  0.00000000000E+00  0.18785205550E+04  0.18785205550E+04  0.25500000000E-02 0.  1.
         -2   -1    0    0  501    0 -0.00000000000E+00 -0.00000000000E+00 -0.25985503169E+00  0.25986754318E+00  0.25500000000E-02 0.  1.
          2    1    1    2    0  502 -0.21132372714E+02 -0.36133076226E+01  0.71206326289E+03  0.71238593721E+03  0.25500000000E-02 0.  1.
         -2    1    1    2  502    0  0.21132372714E+02  0.36133076226E+01  0.11661974371E+04  0.11663944854E+04  0.25500000000E-02 0.  1.
<mgrwt>
<rscale>  0 0.44188450E+02</rscale>
<asrwt>0</asrwt>
<pdfrwt beam="1">  1        2 0.28900406E+00 0.44188450E+02</pdfrwt>
<pdfrwt beam="2">  1       -2 0.39978535E-04 0.44188450E+02</pdfrwt>
<totfact> 0.13162114E+06</totfact>
</mgrwt>
</event>
<event>
 4    1  0.2196664E-002  0.4990200E+02  0.7818608E-02  0.1445871E+00
          2   -1    0    0    0  501  0.00000000000E+00  0.00000000000E+00  0.12855108514E+04  0.12855108514E+04  0.25500000000E-02 0. -1.
         -2   -1    0    0  501    0 -0.00000000000E+00 -0.00000000000E+00 -0.48428068691E+00  0.48428740043E+00  0.25500000000E-02 0. -1.
          2    1    1    2    0  502 -0.17526329261E+02  0.11931294680E+02  0.30353254229E+03  0.30427213517E+03  0.25500000000E-02 0. -1.
         -2    1    1    2  502    0  0.17526329261E+02 -0.11931294680E+02  0.98149402839E+03  0.98172300359E+03  0.25500000000E-02 0. -1.
<mgrwt>
<rscale>  0 0.49902000E+02</rscale>
<asrwt>0</asrwt>
<pdfrwt beam="1">  1        2 0.19776767E+00 0.49902000E+02</pdfrwt>
<pdfrwt beam="2">  1       -2 0.74506454E-04 0.49902000E+02</pdfrwt>
<totfact> 0.11469088E+06</totfact>
</mgrwt>
</event>
<event>
 4    1  0.2196664E-002  0.4412985E+02  0.7818608E-02  0.1479848E+00
          2   -1    0    0    0  501  0.00000000000E+00  0.00000000000E+00  0.46344407563E+02  0.46344407633E+02  0.25500000000E-02 0. -1.
         -2   -1    0    0  501    0 -0.00000000000E+00 -0.00000000000E+00 -0.10505277270E+02  0.10505277580E+02  0.25500000000E-02 0. -1.
          2    1    1    2    0  502 -0.96571240107E+01  0.18695921471E+02  0.93682226046E+01  0.23033912500E+02  0.25500000000E-02 0.  1.
         -2    1    1    2  502    0  0.96571240107E+01 -0.18695921471E+02  0.26470907688E+02  0.33815772712E+02  0.25500000000E-02 0.  1.
<mgrwt>
<rscale>  0 0.44129848E+02</rscale>
<asrwt>0</asrwt>
<pdfrwt beam="1">  1        2 0.71299088E-02 0.44129848E+02</pdfrwt>
<pdfrwt beam="2">  1       -2 0.16161965E-02 0.44129848E+02</pdfrwt>
<totfact> 0.69581366E+05</totfact>
</mgrwt>
</event>
<event>
 4    1  0.2196664E-002  0.5247999E+02  0.7818608E-02  0.1432406E+00
         -2   -1    0    0  501    0 -0.00000000000E+00  0.00000000000E+00  0.22436560226E+00  0.22438009265E+00  0.25500000000E-02 0. -1.
          2   -1    0    0    0  501  0.00000000000E+00 -0.00000000000E+00 -0.30687200619E+04  0.30687200619E+04  0.25500000000E-02 0. -1.
          2    1    1    2    0  502  0.22854855744E+01  0.25410678774E+02 -0.11756108588E+04  0.11758876721E+04  0.25500000000E-02 0. -1.
         -2    1    1    2  502    0 -0.22854855744E+01 -0.25410678774E+02 -0.18928848375E+04  0.18930567699E+04  0.25500000000E-02 0. -1.
<mgrwt>
<rscale>  0 0.52479995E+02</rscale>
<asrwt>0</asrwt>
<pdfrwt beam="2">  1        2 0.47207717E+00 0.52479995E+02</pdfrwt>
<pdfrwt beam="1">  1       -2 0.34521357E-04 0.52479995E+02</pdfrwt>
<totfact> 0.40598546E+05</totfact>
</mgrwt>
</event>
<event>
 4    1  0.2196664E-002  0.5931742E+02  0.7818608E-02  0.1400719E+00
          2   -1    0    0    0  501  0.00000000000E+00  0.00000000000E+00  0.34150795064E+03  0.34150795065E+03  0.25500000000E-02 0. -1.
         -2   -1    0    0  501    0 -0.00000000000E+00 -0.00000000000E+00 -0.25757488787E+01  0.25757501410E+01  0.25500000000E-02 0. -1.
          2    1    1    2    0  502 -0.72057509703E+01  0.23335209078E+02  0.26708104659E+03  0.26819533979E+03  0.25500000000E-02 0.  1.
         -2    1    1    2  502    0  0.72057509703E+01 -0.23335209078E+02  0.71851155171E+02  0.75888361003E+02  0.25500000000E-02 0.  1.
<mgrwt>
<rscale>  0 0.59317415E+02</rscale>
<asrwt>0</asrwt>
<pdfrwt beam="1">  1        2 0.52539628E-01 0.59317415E+02</pdfrwt>
<pdfrwt beam="2">  1       -2 0.39626959E-03 0.59317415E+02</pdfrwt>
<totfact> 0.57615742E+05</totfact>
</mgrwt>
</event>
<event>
 4    1  0.2196664E-002  0.5246995E+02  0.7818608E-02  0.1432457E+00
          2   -1    0    0    0  501  0.00000000000E+00  0.00000000000E+00  0.42681175427E+01  0.42681183045E+01  0.25500000000E-02 0.  1.
         -2   -1    0    0  501    0 -0.00000000000E+00 -0.00000000000E+00 -0.16125937162E+03  0.16125937164E+03  0.25500000000E-02 0.  1.
          2    1    1    2    0  502 -0.11164216529E+02  0.18818549770E+02 -0.32834377102E+02  0.39457241063E+02  0.25500000000E-02 0. -1.
         -2    1    1    2  502    0  0.11164216529E+02 -0.18818549770E+02 -0.12415687697E+03  0.12607024888E+03  0.25500000000E-02 0. -1.
<mgrwt>
<rscale>  0 0.52469954E+02</rscale>
<asrwt>0</asrwt>
<pdfrwt beam="1">  1        2 0.65663365E-03 0.52469954E+02</pdfrwt>
<pdfrwt beam="2">  1       -2 0.24809129E-01 0.52469954E+02</pdfrwt>
<totfact> 0.27184162E+05</totfact>
</mgrwt>
</event>
<event>
 4    1  0.2196664E-002  0.5414279E+02  0.7818608E-02  0.1424197E+00
          2   -1    0    0    0  501  0.00000000000E+00  0.00000000000E+00  0.10851889502E+04  0.10851889502E+04  0.25500000000E-02 0.  1.
         -2   -1    0    0  501    0 -0.00000000000E+00 -0.00000000000E+00 -0.67532738250E+00  0.67533219682E+00  0.25500000000E-02 0.  1.
          2    1    1    2    0  502 -0.22925951112E+02  0.13453093404E+02  0.43945278432E+03  0.44025598759E+03  0.25500000000E-02 0. -1.
         -2    1    1    2  502    0  0.22925951112E+02 -0.13453093404E+02  0.64506083847E+03  0.64560829478E+03  0.25500000000E-02 0. -1.
<mgrwt>
<rscale>  0 0.54142790E+02</rscale>
<asrwt>0</asrwt>
<pdfrwt beam="1">  1        2 0.16695219E+00 0.54142790E+02</pdfrwt>
<pdfrwt beam="2">  1       -2 0.10389686E-03 0.54142790E+02</pdfrwt>
<totfact> 0.95149582E+05</totfact>
</mgrwt>
</event>
<event>
 4    1  0.2196664E-002  0.5728395E+02  0.7818608E-02  0.1409597E+00
         -2   -1    0    0  501    0 -0.00000000000E+00  0.00000000000E+00  0.16181417035E+01  0.16181437127E+01  0.25500000000E-02 0. -1.
          2   -1    0    0    0  501  0.00000000000E+00 -0.00000000000E+00 -0.50697803842E+03  0.50697803842E+03  0.25500000000E-02 0. -1.
          2    1    1    2    0  502 -0.22826511577E+02  0.13560413035E+02 -0.34806853556E+03  0.34907970420E+03  0.25500000000E-02 0.  1.
         -2    1    1    2  502    0  0.22826511577E+02 -0.13560413035E+02 -0.15729136115E+03  0.15951647793E+03  0.25500000000E-02 0.  1.
<mgrwt>
<rscale>  0 0.57283953E+02</rscale>
<asrwt>0</asrwt>
<pdfrwt beam="2">  1        2 0.77996495E-01 0.57283953E+02</pdfrwt>
<pdfrwt beam="1">  1       -2 0.24894544E-03 0.57283953E+02</pdfrwt>
<totfact> 0.71846114E+05</totfact>
</mgrwt>
</event>
<event>
 4    1  0.2196664E-002  0.9491737E+02  0.7818608E-02  0.1291362E+00
         -2   -1    0    0  501    0 -0.00000000000E+00  0.00000000000E+00  0.53661190994E+01  0.53661197052E+01  0.25500000000E-02 0.  1.
          2   -1    0    0    0  501  0.00000000000E+00 -0.00000000000E+00 -0.41973105292E+03  0.41973105292E+03  0.25500000000E-02 0.  1.
          2    1    1    2    0  502  0.43771347301E+02 -0.11037267390E+02 -0.27278670412E+03  0.27649654259E+03  0.25500000000E-02 0.  1.
         -2    1    1    2  502    0 -0.43771347301E+02  0.11037267390E+02 -0.14157822970E+03  0.14860063004E+03  0.25500000000E-02 0.  1.
<mgrwt>
<rscale>  0 0.94917374E+02</rscale>
<asrwt>0</asrwt>
<pdfrwt beam="2">  1        2 0.64573982E-01 0.94917374E+02</pdfrwt>
<pdfrwt beam="1">  1       -2 0.82555716E-03 0.94917374E+02</pdfrwt>
<totfact> 0.18247033E+05</totfact>
</mgrwt>
</event>
<event>
 4    1  0.2196664E-002  0.5206314E+02  0.7818608E-02  0.1434521E+00
         -2   -1    0    0  501    0 -0.00000000000E+00  0.00000000000E+00  0.29070813754E+00  0.29071932122E+00  0.25500000000E-02 0.  1.
          2   -1    0    0    0  501  0.00000000000E+00 -0.00000000000E+00 -0.23309620712E+04  0.23309620712E+04  0.25500000000E-02 0.  1.
          2    1    1    2    0  502 -0.14314660373E+01  0.24607755802E+02 -0.15401093407E+04  0.15403065837E+04  0.25500000000E-02 0.  1.
         -2    1    1    2  502    0  0.14314660373E+01 -0.24607755802E+02 -0.79056202237E+03  0.79094620674E+03  0.25500000000E-02 0.  1.
<mgrwt>
<rscale>  0 0.52063142E+02</rscale>
<asrwt>0</asrwt>
<pdfrwt beam="2">  1        2 0.35859458E+00 0.52063142E+02</pdfrwt>
<pdfrwt beam="1">  1       -2 0.44727056E-04 0.52063142E+02</pdfrwt>
<totfact> 0.70188186E+05</totfact>
</mgrwt>
</event>
<event>
 4    1  0.2196664E-002  0.5479110E+02  0.7818608E-02  0.1421089E+00
          2   -1    0    0    0  501  0.00000000000E+00  0.00000000000E+00  0.41287640978E+01  0.41287648853E+01  0.25500000000E-02 0. -1.
         -2   -1    0    0  501    0 -0.00000000000E+00 -0.00000000000E+00 -0.18177739170E+03  0.18177739172E+03  0.25500000000E-02 0. -1.
          2    1    1    2    0  502  0.26125472632E+02  0.12959981527E+01 -0.61197691191E+02  0.66553567486E+02  0.25500000000E-02 0.  1.
         -2    1    1    2  502    0 -0.26125472632E+02 -0.12959981527E+01 -0.11645093641E+03  0.11935258912E+03  0.25500000000E-02 0.  1.
<mgrwt>
<rscale>  0 0.54791096E+02</rscale>
<asrwt>0</asrwt>
<pdfrwt beam="1">  1        2 0.63519468E-03 0.54791096E+02</pdfrwt>
<pdfrwt beam="2">  1       -2 0.27965746E-01 0.54791096E+02</pdfrwt>
<totfact> 0.23371340E+05</totfact>
</mgrwt>
</event>
<event>
 4    1  0.2196664E-002  0.4291099E+02  0.7818608E-02  0.1487821E+00
          2   -1    0    0    0  501  0.00000000000E+00  0.00000000000E+00  0.10462113604E+04  0.10462113604E+04  0.25500000000E-02 0. -1.
         -2   -1    0    0  501    0 -0.00000000000E+00 -0.00000000000E+00 -0.44000143050E+00  0.44000881962E+00  0.25500000000E-02 0. -1.
          2    1    1    2    0  502 -0.19141705952E+02 -0.91881006270E+01  0.59811294247E+03  0.59848969753E+03  0.25500000000E-02 0.  1.
         -2    1    1    2  502    0  0.19141705952E+02  0.91881006270E+01  0.44765841651E+03  0.44816167170E+03  0.25500000000E-02 0.  1.
<mgrwt>
<rscale>  0 0.42910995E+02</rscale>
<asrwt>0</asrwt>
<pdfrwt beam="1">  1        2 0.16095426E+00 0.42910995E+02</pdfrwt>
<pdfrwt beam="2">  1       -2 0.67693660E-04 0.42910995E+02</pdfrwt>
<totfact> 0.16849527E+06</totfact>
</mgrwt>
</event>
<event>
 4    1  0.2196664E-002  0.5511017E+02  0.7818608E-02  0.1419579E+00
         -2   -1    0    0  501    0 -0.00000000000E+00  0.00000000000E+00  0.72228261062E+01  0.72228265563E+01  0.25500000000E-02 0. -1.
          2   -1    0    0    0  501  0.00000000000E+00 -0.00000000000E+00 -0.10512264611E+03  0.10512264614E+03  0.25500000000E-02 0. -1.
          2    1    1    2    0  502  0.10903533877E+02  0.20572735978E+02 -0.18909084403E+02  0.29994632788E+02  0.25500000000E-02 0. -1.
         -2    1    1    2  502    0 -0.10903533877E+02 -0.20572735978E+02 -0.78990735603E+02  0.82350839912E+02  0.25500000000E-02 0. -1.
<mgrwt>
<rscale>  0 0.55110167E+02</rscale>
<asrwt>0</asrwt>
<pdfrwt beam="2">  1        2 0.16172714E-01 0.55110167E+02</pdfrwt>
<pdfrwt beam="1">  1       -2 0.11112041E-02 0.55110167E+02</pdfrwt>
<totfact> 0.47347861E+05</totfact>
</mgrwt>
</event>
<event>
 4    1  0.2196664E-002  0.7780642E+02  0.7818608E-02  0.1335394E+00
         -2   -1    0    0  501    0 -0.00000000000E+00  0.00000000000E+00  0.40700649958E+01  0.40700657946E+01  0.25500000000E-02 0. -1.
          2   -1    0    0    0  501  0.00000000000E+00 -0.00000000000E+00 -0.37185145356E+03  0.37185145356E+03  0.25500000000E-02 0. -1.
          2    1    1    2    0  502  0.20184850270E+02  0.15935343172E+02 -0.42855949202E+02  0.49979953291E+02  0.25500000000E-02 0.  1.
         -2    1    1    2  502    0 -0.20184850270E+02 -0.15935343172E+02 -0.32492543936E+03  0.32594156607E+03  0.25500000000E-02 0.  1.
<mgrwt>
<rscale>  0 0.77806420E+02</rscale>
<asrwt>0</asrwt>
<pdfrwt beam="2">  1        2 0.57207889E-01 0.77806420E+02</pdfrwt>
<pdfrwt beam="1">  1       -2 0.62616420E-03 0.77806420E+02</pdfrwt>
<totfact> 0.29528006E+05</totfact>
</mgrwt>
</event>
<event>
 4    1  0.2196664E-002  0.5544209E+02  0.7818608E-02  0.1418020E+00
         -2   -1    0    0  501    0 -0.00000000000E+00  0.00000000000E+00  0.49955054969E+03  0.49955054970E+03  0.25500000000E-02 0.  1.
          2   -1    0    0    0  501  0.00000000000E+00 -0.00000000000E+00 -0.15382946536E+01  0.15382967671E+01  0.25500000000E-02 0.  1.
          2    1    1    2    0  502 -0.15518115056E+01 -0.26185750512E+02  0.33002404185E+03  0.33106490278E+03  0.25500000000E-02 0. -1.
         -2    1    1    2  502    0  0.15518115056E+01  0.26185750512E+02  0.16798821319E+03  0.17002394368E+03  0.25500000000E-02 0. -1.
<mgrwt>
<rscale>  0 0.55442095E+02</rscale>
<asrwt>0</asrwt>
<pdfrwt beam="2">  1        2 0.23666075E-03 0.55442095E+02</pdfrwt>
<pdfrwt beam="1">  1       -2 0.76853974E-01 0.55442095E+02</pdfrwt>
<totfact> 0.12854139E+05</totfact>
</mgrwt>
</event>
<event>
 4    1  0.2196664E-002  0.4726489E+02  0.7818608E-02  0.1460678E+00
          2   -1    0    0    0  501  0.00000000000E+00  0.00000000000E+00  0.10302008787E+03  0.10302008790E+03  0.25500000000E-02 0.  1.
         -2   -1    0    0  501    0 -0.00000000000E+00 -0.00000000000E+00 -0.54211983844E+01  0.54211989842E+01  0.25500000000E-02 0.  1.
          2    1    1    2    0  502 -0.23084508453E+02 -0.26484784205E+01  0.58689951722E+02  0.63122257629E+02  0.25500000000E-02 0. -1.
         -2    1    1    2  502    0  0.23084508453E+02  0.26484784205E+01  0.38908937762E+02  0.45319029256E+02  0.25500000000E-02 0. -1.
<mgrwt>
<rscale>  0 0.47264886E+02</rscale>
<asrwt>0</asrwt>
<pdfrwt beam="1">  1        2 0.15849244E-01 0.47264886E+02</pdfrwt>
<pdfrwt beam="2">  1       -2 0.83403056E-03 0.47264886E+02</pdfrwt>
<totfact> 0.69536854E+05</totfact>
</mgrwt>
</event>
<event>
 4    1  0.2196664E-002  0.4940292E+02  0.7818608E-02  0.1448589E+00
         -2   -1    0    0  501    0 -0.00000000000E+00  0.00000000000E+00  0.28743775245E+00  0.28744906337E+00  0.25500000000E-02 0.  1.
          2   -1    0    0    0  501  0.00000000000E+00 -0.00000000000E+00 -0.21227206253E+04  0.21227206253E+04  0.25500000000E-02 0.  1.
          2    1    1    2    0  502  0.11760659086E+02  0.18494004721E+02 -0.57158313910E+03  0.57200316976E+03  0.25500000000E-02 0.  1.
         -2    1    1    2  502    0 -0.11760659086E+02 -0.18494004721E+02 -0.15508500485E+04  0.15510049046E+04  0.25500000000E-02 0.  1.
<mgrwt>
<rscale>  0 0.49402917E+02</rscale>
<asrwt>0</asrwt>
<pdfrwt beam="2">  1        2 0.32655985E+00 0.49402917E+02</pdfrwt>
<pdfrwt beam="1">  1       -2 0.44223763E-04 0.49402917E+02</pdfrwt>
<totfact> 0.89513611E+05</totfact>
</mgrwt>
</event>
<event>
 4    1  0.2196664E-002  0.6830104E+02  0.7818608E-02  0.1365968E+00
         -2   -1    0    0  501    0 -0.00000000000E+00  0.00000000000E+00  0.11112762530E+01  0.11112791787E+01  0.25500000000E-02 0. -1.
          2   -1    0    0    0  501  0.00000000000E+00 -0.00000000000E+00 -0.10494749806E+04  0.10494749806E+04  0.25500000000E-02 0. -1.
          2    1    1    2    0  502 -0.26208322205E+02 -0.68192789069E-01 -0.18740430529E+03  0.18922804880E+03  0.25500000000E-02 0.  1.
         -2    1    1    2  502    0  0.26208322205E+02  0.68192789069E-01 -0.86095939909E+03  0.86135821102E+03  0.25500000000E-02 0.  1.
<mgrwt>
<rscale>  0 0.68301044E+02</rscale>
<asrwt>0</asrwt>
<pdfrwt beam="2">  1        2 0.16145690E+00 0.68301044E+02</pdfrwt>
<pdfrwt beam="1">  1       -2 0.17096664E-03 0.68301044E+02</pdfrwt>
<totfact> 0.52963752E+05</totfact>
</mgrwt>
</event>
<event>
 4    1  0.2196664E-002  0.4065833E+02  0.7818608E-02  0.1503422E+00
         -2   -1    0    0  501    0 -0.00000000000E+00  0.00000000000E+00  0.76840339349E+02  0.76840339391E+02  0.25500000000E-02 0.  1.
          2   -1    0    0    0  501  0.00000000000E+00 -0.00000000000E+00 -0.53783587001E+01  0.53783593046E+01  0.25500000000E-02 0.  1.
          2    1    1    2    0  502  0.71471210376E+01  0.18981991978E+02  0.38501878776E+02  0.43517720923E+02  0.25500000000E-02 0.  1.
         -2    1    1    2  502    0 -0.71471210376E+01 -0.18981991978E+02  0.32960101873E+02  0.38700977773E+02  0.25500000000E-02 0.  1.
<mgrwt>
<rscale>  0 0.40658329E+02</rscale>
<asrwt>0</asrwt>
<pdfrwt beam="2">  1        2 0.82743994E-03 0.40658329E+02</pdfrwt>
<pdfrwt beam="1">  1       -2 0.11821589E-01 0.40658329E+02</pdfrwt>
<totfact> 0.61777430E+05</totfact>
</mgrwt>
</event>
<event>
 4    1  0.2196664E-002  0.5035773E+02  0.7818608E-02  0.1443422E+00
          2   -1    0    0    0  501  0.00000000000E+00  0.00000000000E+00  0.45382376307E+02  0.45382376379E+02  0.25500000000E-02 0.  1.
         -2   -1    0    0  501    0 -0.00000000000E+00 -0.00000000000E+00 -0.13969632667E+02  0.13969632900E+02  0.25500000000E-02 0.  1.
          2    1    1    2    0  502 -0.14940523644E+02 -0.20190151170E+02  0.17786098069E+02  0.30776724030E+02  0.25500000000E-02 0. -1.
         -2    1    1    2  502    0  0.14940523644E+02  0.20190151170E+02  0.13626645572E+02  0.28575285249E+02  0.25500000000E-02 0. -1.
<mgrwt>
<rscale>  0 0.50357726E+02</rscale>
<asrwt>0</asrwt>
<pdfrwt beam="1">  1        2 0.69819042E-02 0.50357726E+02</pdfrwt>
<pdfrwt beam="2">  1       -2 0.21491742E-02 0.50357726E+02</pdfrwt>
<totfact> 0.49462883E+05</totfact>
</mgrwt>
</event>
<event>
 4    1  0.2196664E-002  0.6595875E+02  0.7818608E-02  0.1374401E+00
         -2   -1    0    0  501    0 -0.00000000000E+00  0.00000000000E+00  0.10151305599E+03  0.10151305602E+03  0.25500000000E-02 0. -1.
          2   -1    0    0    0  501  0.00000000000E+00 -0.00000000000E+00 -0.10714278119E+02  0.10714278422E+02  0.25500000000E-02 0. -1.
          2    1    1    2    0  502 -0.27415458871E+02 -0.12439020269E+02  0.22489227165E+02  0.37577945066E+02  0.25500000000E-02 0. -1.
         -2    1    1    2  502    0  0.27415458871E+02  0.12439020269E+02  0.68309550704E+02  0.74649389376E+02  0.25500000000E-02 0. -1.
<mgrwt>
<rscale>  0 0.65958749E+02</rscale>
<asrwt>0</asrwt>
<pdfrwt beam="2">  1        2 0.16483505E-02 0.65958749E+02</pdfrwt>
<pdfrwt beam="1">  1       -2 0.15617393E-01 0.65958749E+02</pdfrwt>
<totfact> 0.17780137E+05</totfact>
</mgrwt>
</event>
<event>
 4    1  0.2196664E-002  0.5773200E+02  0.7818608E-02  0.1407604E+00
          2   -1    0    0    0  501  0.00000000000E+00  0.00000000000E+00  0.16961884680E+04  0.16961884680E+04  0.25500000000E-02 0. -1.
         -2   -1    0    0  501    0 -0.00000000000E+00 -0.00000000000E+00 -0.49124281934E+00  0.49124943772E+00  0.25500000000E-02 0. -1.
          2    1    1    2    0  502  0.25341815955E+02 -0.11986872020E+02  0.64561270280E+03  0.64622105719E+03  0.25500000000E-02 0. -1.
         -2    1    1    2  502    0 -0.25341815955E+02  0.11986872020E+02  0.10500845223E+04  0.10504586602E+04  0.25500000000E-02 0. -1.
<mgrwt>
<rscale>  0 0.57732002E+02</rscale>
<asrwt>0</asrwt>
<pdfrwt beam="1">  1        2 0.26095760E+00 0.57732002E+02</pdfrwt>
<pdfrwt beam="2">  1       -2 0.75574726E-04 0.57732002E+02</pdfrwt>
<totfact> 0.72327049E+05</totfact>
</mgrwt>
</event>
<event>
 4    1  0.2196664E-002  0.4407465E+02  0.7818608E-02  0.1480202E+00
          2   -1    0    0    0  501  0.00000000000E+00  0.00000000000E+00  0.36956246732E+02  0.36956246820E+02  0.25500000000E-02 0.  1.
         -2   -1    0    0  501    0 -0.00000000000E+00 -0.00000000000E+00 -0.13141045790E+02  0.13141046037E+02  0.25500000000E-02 0.  1.
          2    1    1    2    0  502 -0.20119001397E+02 -0.56717346039E+01  0.39753933567E+01  0.21277841749E+02  0.25500000000E-02 0.  1.
         -2    1    1    2  502    0  0.20119001397E+02  0.56717346039E+01  0.19839807585E+02  0.28819451108E+02  0.25500000000E-02 0.  1.
<mgrwt>
<rscale>  0 0.44074652E+02</rscale>
<asrwt>0</asrwt>
<pdfrwt beam="1">  1        2 0.56855764E-02 0.44074652E+02</pdfrwt>
<pdfrwt beam="2">  1       -2 0.20216994E-02 0.44074652E+02</pdfrwt>
<totfact> 0.67207953E+05</totfact>
</mgrwt>
</event>
<event>
 4    1  0.2196664E-002  0.5245525E+02  0.7818608E-02  0.1432531E+00
          2   -1    0    0    0  501  0.00000000000E+00  0.00000000000E+00  0.91379162841E+03  0.91379162842E+03  0.25500000000E-02 0.  1.
         -2   -1    0    0  501    0 -0.00000000000E+00 -0.00000000000E+00 -0.75278253871E+00  0.75278685767E+00  0.25500000000E-02 0.  1.
          2    1    1    2    0  502  0.16162757877E+02 -0.13147557088E+02  0.73427171977E+03  0.73456725455E+03  0.25500000000E-02 0. -1.
         -2    1    1    2  502    0 -0.16162757877E+02  0.13147557088E+02  0.17876712611E+03  0.17997716072E+03  0.25500000000E-02 0. -1.
<mgrwt>
<rscale>  0 0.52455252E+02</rscale>
<asrwt>0</asrwt>
<pdfrwt beam="1">  1        2 0.14058352E+00 0.52455252E+02</pdfrwt>
<pdfrwt beam="2">  1       -2 0.11581287E-03 0.52455252E+02</pdfrwt>
<totfact> 0.10216215E+06</totfact>
</mgrwt>
</event>
<event>
 4    1  0.2196664E-002  0.4120706E+02  0.7818608E-02  0.1499512E+00
          2   -1    0    0    0  501  0.00000000000E+00  0.00000000000E+00  0.53622848010E+03  0.53622848011E+03  0.25500000000E-02 0. -1.
         -2   -1    0    0  501    0 -0.00000000000E+00 -0.00000000000E+00 -0.79164827215E+00  0.79165237907E+00  0.25500000000E-02 0. -1.
          2    1    1    2    0  502 -0.11042380425E+02  0.16781875139E+02  0.32735417398E+03  0.32796999974E+03  0.25500000000E-02 0.  1.
         -2    1    1    2  502    0  0.11042380425E+02 -0.16781875139E+02  0.20808265785E+03  0.20905013275E+03  0.25500000000E-02 0.  1.
<mgrwt>
<rscale>  0 0.41207060E+02</rscale>
<asrwt>0</asrwt>
<pdfrwt beam="1">  1        2 0.82496786E-01 0.41207060E+02</pdfrwt>
<pdfrwt beam="2">  1       -2 0.12179222E-03 0.41207060E+02</pdfrwt>
<totfact> 0.16456203E+06</totfact>
</mgrwt>
</event>
<event>
 4    1  0.2196664E-002  0.5105035E+02  0.7818608E-02  0.1439757E+00
          2   -1    0    0    0  501  0.00000000000E+00  0.00000000000E+00  0.39533827956E+03  0.39533827957E+03  0.25500000000E-02 0.  1.
         -2   -1    0    0  501    0 -0.00000000000E+00 -0.00000000000E+00 -0.16480424029E+01  0.16480443757E+01  0.25500000000E-02 0.  1.
          2    1    1    2    0  502  0.18905935715E+02  0.16965942359E+02  0.17739326929E+03  0.17920281695E+03  0.25500000000E-02 0.  1.
         -2    1    1    2  502    0 -0.18905935715E+02 -0.16965942359E+02  0.21629696787E+03  0.21778350700E+03  0.25500000000E-02 0.  1.
<mgrwt>
<rscale>  0 0.51050353E+02</rscale>
<asrwt>0</asrwt>
<pdfrwt beam="1">  1        2 0.60821309E-01 0.51050353E+02</pdfrwt>
<pdfrwt beam="2">  1       -2 0.25354499E-03 0.51050353E+02</pdfrwt>
<totfact> 0.88362501E+05</totfact>
</mgrwt>
</event>
<event>
 4    1  0.2196664E-002  0.5518245E+02  0.7818608E-02  0.1419238E+00
         -2   -1    0    0  501    0 -0.00000000000E+00  0.00000000000E+00  0.99037840270E+00  0.99038168553E+00  0.25500000000E-02 0.  1.
          2   -1    0    0    0  501  0.00000000000E+00 -0.00000000000E+00 -0.76867024515E+03  0.76867024516E+03  0.25500000000E-02 0.  1.
          2    1    1    2    0  502  0.14334631065E+02 -0.22445520020E+02 -0.48441012564E+03  0.48514168327E+03  0.25500000000E-02 0.  1.
         -2    1    1    2  502    0 -0.14334631065E+02  0.22445520020E+02 -0.28326974111E+03  0.28451894358E+03  0.25500000000E-02 0.  1.
<mgrwt>
<rscale>  0 0.55182449E+02</rscale>
<asrwt>0</asrwt>
<pdfrwt beam="2">  1        2 0.11825648E+00 0.55182449E+02</pdfrwt>
<pdfrwt beam="1">  1       -2 0.15236678E-03 0.55182449E+02</pdfrwt>
<totfact> 0.87818619E+05</totfact>
</mgrwt>
</event>
<event>
 4    1  0.2196664E-002  0.4854472E+02  0.7818608E-02  0.1453353E+00
          2   -1    0    0    0  501  0.00000000000E+00  0.00000000000E+00  0.99206401830E+03  0.99206401830E+03  0.25500000000E-02 0. -1.
         -2   -1    0    0  501    0 -0.00000000000E+00 -0.00000000000E+00 -0.59385751003E+00  0.59386298480E+00  0.25500000000E-02 0. -1.
          2    1    1    2    0  502 -0.14598115389E+02 -0.18952786440E+02  0.57963374858E+03  0.58012722362E+03  0.25500000000E-02 0.  1.
         -2    1    1    2  502    0  0.14598115389E+02  0.18952786440E+02  0.41183641221E+03  0.41253065767E+03  0.25500000000E-02 0.  1.
<mgrwt>
<rscale>  0 0.48544717E+02</rscale>
<asrwt>0</asrwt>
<pdfrwt beam="1">  1        2 0.15262586E+00 0.48544717E+02</pdfrwt>
<pdfrwt beam="2">  1       -2 0.91362739E-04 0.48544717E+02</pdfrwt>
<totfact> 0.12447337E+06</totfact>
</mgrwt>
</event>
<event>
 4    1  0.2196664E-002  0.4263547E+02  0.7818608E-02  0.1489667E+00
          2   -1    0    0    0  501  0.00000000000E+00  0.00000000000E+00  0.64020829358E+01  0.64020834437E+01  0.25500000000E-02 0.  1.
         -2   -1    0    0  501    0 -0.00000000000E+00 -0.00000000000E+00 -0.70984045244E+02  0.70984045290E+02  0.25500000000E-02 0.  1.
          2    1    1    2    0  502  0.13726078529E+02  0.16310697052E+02 -0.32216373472E+02  0.38630801135E+02  0.25500000000E-02 0.  1.
         -2    1    1    2  502    0 -0.13726078529E+02 -0.16310697052E+02 -0.32365588836E+02  0.38755327599E+02  0.25500000000E-02 0.  1.
<mgrwt>
<rscale>  0 0.42635467E+02</rscale>
<asrwt>0</asrwt>
<pdfrwt beam="1">  1        2 0.98493593E-03 0.42635467E+02</pdfrwt>
<pdfrwt beam="2">  1       -2 0.10920622E-01 0.42635467E+02</pdfrwt>
<totfact> 0.56034913E+05</totfact>
</mgrwt>
</event>
<event>
 4    1  0.2196664E-002  0.4138911E+02  0.7818608E-02  0.1498231E+00
          2   -1    0    0    0  501  0.00000000000E+00  0.00000000000E+00  0.15504032285E+04  0.15504032285E+04  0.25500000000E-02 0. -1.
         -2   -1    0    0  501    0 -0.00000000000E+00 -0.00000000000E+00 -0.27622198283E+00  0.27623375300E+00  0.25500000000E-02 0. -1.
          2    1    1    2    0  502 -0.11032810254E+02  0.17218960993E+02  0.65629574043E+03  0.65661428132E+03  0.25500000000E-02 0. -1.
         -2    1    1    2  502    0  0.11032810254E+02 -0.17218960993E+02  0.89383126612E+03  0.89406518097E+03  0.25500000000E-02 0. -1.
<mgrwt>
<rscale>  0 0.41389109E+02</rscale>
<asrwt>0</asrwt>
<pdfrwt beam="1">  1        2 0.23852345E+00 0.41389109E+02</pdfrwt>
<pdfrwt beam="2">  1       -2 0.42496617E-04 0.41389109E+02</pdfrwt>
<totfact> 0.17209817E+06</totfact>
</mgrwt>
</event>
<event>
 4    1  0.2196664E-002  0.8355727E+02  0.7818608E-02  0.1319249E+00
          2   -1    0    0    0  501  0.00000000000E+00  0.00000000000E+00  0.42526637007E+03  0.42526637008E+03  0.25500000000E-02 0. -1.
         -2   -1    0    0  501    0 -0.00000000000E+00 -0.00000000000E+00 -0.41043788633E+01  0.41043796554E+01  0.25500000000E-02 0. -1.
          2    1    1    2    0  502 -0.30752257807E+02 -0.25740292259E+02  0.27076902899E+03  0.27372272662E+03  0.25500000000E-02 0.  1.
         -2    1    1    2  502    0  0.30752257807E+02  0.25740292259E+02  0.15039296222E+03  0.15564802311E+03  0.25500000000E-02 0.  1.
<mgrwt>
<rscale>  0 0.83557273E+02</rscale>
<asrwt>0</asrwt>
<pdfrwt beam="1">  1        2 0.65425568E-01 0.83557273E+02</pdfrwt>
<pdfrwt beam="2">  1       -2 0.63144323E-03 0.83557273E+02</pdfrwt>
<totfact> 0.25684270E+05</totfact>
</mgrwt>
</event>
<event>
 4    1  0.2196664E-002  0.1085103E+03  0.7818608E-02  0.1263354E+00
          2   -1    0    0    0  501  0.00000000000E+00  0.00000000000E+00  0.33177955363E+02  0.33177955461E+02  0.25500000000E-02 0. -1.
         -2   -1    0    0  501    0 -0.00000000000E+00 -0.00000000000E+00 -0.88722266912E+02  0.88722266949E+02  0.25500000000E-02 0. -1.
          2    1    1    2    0  502 -0.40222507323E+02 -0.12084419846E+02 -0.66357870672E+02  0.78531842618E+02  0.25500000000E-02 0. -1.
         -2    1    1    2  502    0  0.40222507323E+02  0.12084419846E+02  0.10813559123E+02  0.43368379792E+02  0.25500000000E-02 0. -1.
<mgrwt>
<rscale>  0 0.10851034E+03</rscale>
<asrwt>0</asrwt>
<pdfrwt beam="1">  1        2 0.51043009E-02 0.10851034E+03</pdfrwt>
<pdfrwt beam="2">  1       -2 0.13649579E-01 0.10851034E+03</pdfrwt>
<totfact> 0.53827651E+04</totfact>
</mgrwt>
</event>
<event>
 4    1  0.2196664E-002  0.1188099E+03  0.7818608E-02  0.1245073E+00
          2   -1    0    0    0  501  0.00000000000E+00  0.00000000000E+00  0.10860025588E+02  0.10860025888E+02  0.25500000000E-02 0.  1.
         -2   -1    0    0  501    0 -0.00000000000E+00 -0.00000000000E+00 -0.32494818426E+03  0.32494818427E+03  0.25500000000E-02 0.  1.
          2    1    1    2    0  502  0.58350420299E+02  0.77071759287E+01 -0.17979178592E+03  0.18918049160E+03  0.25500000000E-02 0.  1.
         -2    1    1    2  502    0 -0.58350420299E+02 -0.77071759287E+01 -0.13429637276E+03  0.14662771857E+03  0.25500000000E-02 0.  1.
<mgrwt>
<rscale>  0 0.11880986E+03</rscale>
<asrwt>0</asrwt>
<pdfrwt beam="1">  1        2 0.16707734E-02 0.11880986E+03</pdfrwt>
<pdfrwt beam="2">  1       -2 0.49992021E-01 0.11880986E+03</pdfrwt>
<totfact> 0.24513614E+04</totfact>
</mgrwt>
</event>
<event>
 4    1  0.2196664E-002  0.4430198E+02  0.7818608E-02  0.1478747E+00
         -2   -1    0    0  501    0 -0.00000000000E+00  0.00000000000E+00  0.41347286381E+01  0.41347294244E+01  0.25500000000E-02 0. -1.
          2   -1    0    0    0  501  0.00000000000E+00 -0.00000000000E+00 -0.11866955580E+03  0.11866955583E+03  0.25500000000E-02 0. -1.
          2    1    1    2    0  502  0.19925349858E+02 -0.43156125441E+01 -0.33257768185E+02  0.39009271074E+02  0.25500000000E-02 0.  1.
         -2    1    1    2  502    0 -0.19925349858E+02  0.43156125441E+01 -0.81277058976E+02  0.83795014177E+02  0.25500000000E-02 0.  1.
<mgrwt>
<rscale>  0 0.44301985E+02</rscale>
<asrwt>0</asrwt>
<pdfrwt beam="2">  1        2 0.18256852E-01 0.44301985E+02</pdfrwt>
<pdfrwt beam="1">  1       -2 0.63611225E-03 0.44301985E+02</pdfrwt>
<totfact> 0.84902946E+05</totfact>
</mgrwt>
</event>
<event>
 4    1  0.2196664E-002  0.5324721E+02  0.7818608E-02  0.1428575E+00
          2   -1    0    0    0  501  0.00000000000E+00  0.00000000000E+00  0.89603359628E+02  0.89603359664E+02  0.25500000000E-02 0. -1.
         -2   -1    0    0  501    0 -0.00000000000E+00 -0.00000000000E+00 -0.79105997517E+01  0.79106001627E+01  0.25500000000E-02 0. -1.
          2    1    1    2    0  502  0.17311897190E+02  0.19003382687E+02  0.53532452051E+02  0.59384794072E+02  0.25500000000E-02 0. -1.
         -2    1    1    2  502    0 -0.17311897190E+02 -0.19003382687E+02  0.28160307825E+02  0.38129165755E+02  0.25500000000E-02 0. -1.
<mgrwt>
<rscale>  0 0.53247210E+02</rscale>
<asrwt>0</asrwt>
<pdfrwt beam="1">  1        2 0.13785132E-01 0.53247210E+02</pdfrwt>
<pdfrwt beam="2">  1       -2 0.12170154E-02 0.53247210E+02</pdfrwt>
<totfact> 0.49599845E+05</totfact>
</mgrwt>
</event>
<event>
 4    1  0.2196664E-002  0.8782745E+02  0.7818608E-02  0.1308200E+00
         -2   -1    0    0  501    0 -0.00000000000E+00  0.00000000000E+00  0.17720020913E+01  0.17720039260E+01  0.25500000000E-02 0.  1.
          2   -1    0    0    0  501  0.00000000000E+00 -0.00000000000E+00 -0.10882687148E+04  0.10882687148E+04  0.25500000000E-02 0.  1.
          2    1    1    2    0  502  0.41177417753E+02  0.62296529222E+01 -0.37036879565E+03  0.37270287510E+03  0.25500000000E-02 0.  1.
         -2    1    1    2  502    0 -0.41177417753E+02 -0.62296529222E+01 -0.71612791705E+03  0.71733784363E+03  0.25500000000E-02 0.  1.
<mgrwt>
<rscale>  0 0.87827454E+02</rscale>
<asrwt>0</asrwt>
<pdfrwt beam="2">  1        2 0.16742542E+00 0.87827454E+02</pdfrwt>
<pdfrwt beam="1">  1       -2 0.27261672E-03 0.87827454E+02</pdfrwt>
<totfact> 0.27612563E+05</totfact>
</mgrwt>
</event>
<event>
 4    1  0.2196664E-002  0.4595397E+02  0.7818608E-02  0.1468473E+00
         -2   -1    0    0  501    0 -0.00000000000E+00  0.00000000000E+00  0.20397896487E+03  0.20397896489E+03  0.25500000000E-02 0. -1.
          2   -1    0    0    0  501  0.00000000000E+00 -0.00000000000E+00 -0.25882169248E+01  0.25882181810E+01  0.25500000000E-02 0. -1.
          2    1    1    2    0  502  0.19590723937E+02 -0.11944328184E+02  0.95229645928E+02  0.97954830970E+02  0.25500000000E-02 0. -1.
         -2    1    1    2  502    0 -0.19590723937E+02  0.11944328184E+02  0.10616110202E+03  0.10861235210E+03  0.25500000000E-02 0. -1.
<mgrwt>
<rscale>  0 0.45953974E+02</rscale>
<asrwt>0</asrwt>
<pdfrwt beam="2">  1        2 0.39818736E-03 0.45953974E+02</pdfrwt>
<pdfrwt beam="1">  1       -2 0.31381376E-01 0.45953974E+02</pdfrwt>
<totfact> 0.34378324E+05</totfact>
</mgrwt>
</event>
<event>
 4    1  0.2196664E-002  0.7544962E+02  0.7818608E-02  0.1342484E+00
         -2   -1    0    0  501    0 -0.00000000000E+00  0.00000000000E+00  0.19010042709E+01  0.19010059812E+01  0.25500000000E-02 0.  1.
          2   -1    0    0    0  501  0.00000000000E+00 -0.00000000000E+00 -0.74863614201E+03  0.74863614201E+03  0.25500000000E-02 0.  1.
          2    1    1    2    0  502  0.21665956473E+02 -0.25652368419E+02 -0.54442555874E+03  0.54546003216E+03  0.25500000000E-02 0. -1.
         -2    1    1    2  502    0 -0.21665956473E+02  0.25652368419E+02 -0.20230957900E+03  0.20507711583E+03  0.25500000000E-02 0. -1.
<mgrwt>
<rscale>  0 0.75449616E+02</rscale>
<asrwt>0</asrwt>
<pdfrwt beam="2">  1        2 0.11517456E+00 0.75449616E+02</pdfrwt>
<pdfrwt beam="1">  1       -2 0.29246292E-03 0.75449616E+02</pdfrwt>
<totfact> 0.39455713E+05</totfact>
</mgrwt>
</event>
<event>
 4    1  0.2196664E-002  0.6564346E+02  0.7818608E-02  0.1375567E+00
         -2   -1    0    0  501    0 -0.00000000000E+00  0.00000000000E+00  0.75428580667E+02  0.75428580710E+02  0.25500000000E-02 0.  1.
          2   -1    0    0    0  501  0.00000000000E+00 -0.00000000000E+00 -0.14281931338E+02  0.14281931565E+02  0.25500000000E-02 0.  1.
          2    1    1    2    0  502 -0.17008632438E+02  0.11464909143E+02 -0.44436448951E+01  0.20987703674E+02  0.25500000000E-02 0. -1.
         -2    1    1    2  502    0  0.17008632438E+02 -0.11464909143E+02  0.65590294225E+02  0.68722808601E+02  0.25500000000E-02 0. -1.
<mgrwt>
<rscale>  0 0.65643456E+02</rscale>
<asrwt>0</asrwt>
<pdfrwt beam="2">  1        2 0.21972203E-02 0.65643456E+02</pdfrwt>
<pdfrwt beam="1">  1       -2 0.11604397E-01 0.65643456E+02</pdfrwt>
<totfact> 0.19375093E+05</totfact>
</mgrwt>
</event>
<event>
 4    1  0.2196664E-002  0.5604082E+02  0.7818608E-02  0.1415240E+00
          2   -1    0    0    0  501  0.00000000000E+00  0.00000000000E+00  0.26671401553E+02  0.26671401675E+02  0.25500000000E-02 0.  1.
         -2   -1    0    0  501    0 -0.00000000000E+00 -0.00000000000E+00 -0.29437644450E+02  0.29437644560E+02  0.25500000000E-02 0.  1.
          2    1    1    2    0  502  0.18386929799E+02 -0.10350640231E+02 -0.19842713555E+02  0.28964603024E+02  0.25500000000E-02 0. -1.
         -2    1    1    2  502    0 -0.18386929799E+02  0.10350640231E+02  0.17076470658E+02  0.27144443211E+02  0.25500000000E-02 0. -1.
<mgrwt>
<rscale>  0 0.56040815E+02</rscale>
<asrwt>0</asrwt>
<pdfrwt beam="1">  1        2 0.41032926E-02 0.56040815E+02</pdfrwt>
<pdfrwt beam="2">  1       -2 0.45288684E-02 0.56040815E+02</pdfrwt>
<totfact> 0.34016756E+05</totfact>
</mgrwt>
</event>
<event>
 4    1  0.2196664E-002  0.4319229E+02  0.7818608E-02  0.1485953E+00
         -2   -1    0    0  501    0 -0.00000000000E+00  0.00000000000E+00  0.40857488243E+03  0.40857488244E+03  0.25500000000E-02 0.  1.
          2   -1    0    0    0  501  0.00000000000E+00 -0.00000000000E+00 -0.11415112085E+01  0.11415140567E+01  0.25500000000E-02 0.  1.
          2    1    1    2    0  502  0.12337406024E+02  0.17685390600E+02  0.21497557121E+03  0.21605434699E+03  0.25500000000E-02 0. -1.
         -2    1    1    2  502    0 -0.12337406024E+02 -0.17685390600E+02  0.19245780002E+03  0.19366204951E+03  0.25500000000E-02 0. -1.
<mgrwt>
<rscale>  0 0.43192286E+02</rscale>
<asrwt>0</asrwt>
<pdfrwt beam="2">  1        2 0.17561720E-03 0.43192286E+02</pdfrwt>
<pdfrwt beam="1">  1       -2 0.62857722E-01 0.43192286E+02</pdfrwt>
<totfact> 0.27438843E+05</totfact>
</mgrwt>
</event>
<event>
 4    1  0.2196664E-002  0.4488131E+02  0.7818608E-02  0.1475084E+00
          2   -1    0    0    0  501  0.00000000000E+00  0.00000000000E+00  0.14895686522E+04  0.14895686522E+04  0.25500000000E-02 0. -1.
         -2   -1    0    0  501    0 -0.00000000000E+00 -0.00000000000E+00 -0.33806823964E+00  0.33807785664E+00  0.25500000000E-02 0. -1.
          2    1    1    2    0  502 -0.10152855793E+02 -0.19927498653E+02  0.80580273335E+03  0.80611303846E+03  0.25500000000E-02 0. -1.
         -2    1    1    2  502    0  0.10152855793E+02  0.19927498653E+02  0.68342785062E+03  0.68379369162E+03  0.25500000000E-02 0. -1.
<mgrwt>
<rscale>  0 0.44881311E+02</rscale>
<asrwt>0</asrwt>
<pdfrwt beam="1">  1        2 0.22916596E+00 0.44881311E+02</pdfrwt>
<pdfrwt beam="2">  1       -2 0.52010885E-04 0.44881311E+02</pdfrwt>
<totfact> 0.14335634E+06</totfact>
</mgrwt>
</event>
<event>
 4    1  0.2196664E-002  0.1832507E+03  0.7818608E-02  0.1164694E+00
          2   -1    0    0    0  501  0.00000000000E+00  0.00000000000E+00  0.19816638797E+04  0.19816638797E+04  0.25500000000E-02 0.  1.
         -2   -1    0    0  501    0 -0.00000000000E+00 -0.00000000000E+00 -0.42364423695E+01  0.42364431369E+01  0.25500000000E-02 0.  1.
          2    1    1    2    0  502 -0.25662559162E+02 -0.70244020903E+02  0.41502263850E+03  0.42170674632E+03  0.25500000000E-02 0. -1.
         -2    1    1    2  502    0  0.25662559162E+02  0.70244020903E+02  0.15624047988E+04  0.15641935765E+04  0.25500000000E-02 0. -1.
<mgrwt>
<rscale>  0 0.18325071E+03</rscale>
<asrwt>0</asrwt>
<pdfrwt beam="1">  1        2 0.30487069E+00 0.18325071E+03</pdfrwt>
<pdfrwt beam="2">  1       -2 0.65176187E-03 0.18325071E+03</pdfrwt>
<totfact> 0.29560874E+04</totfact>
</mgrwt>
</event>
<event>
 4    1  0.2196664E-002  0.8116532E+02  0.7818608E-02  0.1325777E+00
          2   -1    0    0    0  501  0.00000000000E+00  0.00000000000E+00  0.30085927626E+04  0.30085927626E+04  0.25500000000E-02 0. -1.
         -2   -1    0    0  501    0 -0.00000000000E+00 -0.00000000000E+00 -0.54741324882E+00  0.54741918808E+00  0.25500000000E-02 0. -1.
          2    1    1    2    0  502 -0.38432398059E+02 -0.69518211392E+01  0.19128075335E+04  0.19132062192E+04  0.25500000000E-02 0. -1.
         -2    1    1    2  502    0  0.38432398059E+02  0.69518211392E+01  0.10952378159E+04  0.10959339627E+04  0.25500000000E-02 0. -1.
<mgrwt>
<rscale>  0 0.81165325E+02</rscale>
<asrwt>0</asrwt>
<pdfrwt beam="1">  1        2 0.46287340E+00 0.81165325E+02</pdfrwt>
<pdfrwt beam="2">  1       -2 0.84215518E-04 0.81165325E+02</pdfrwt>
<totfact> 0.13781497E+05</totfact>
</mgrwt>
</event>
<event>
 4    1  0.2196664E-002  0.6668683E+02  0.7818608E-02  0.1371736E+00
         -2   -1    0    0  501    0 -0.00000000000E+00  0.00000000000E+00  0.12443159631E+01  0.12443185760E+01  0.25500000000E-02 0.  1.
          2   -1    0    0    0  501  0.00000000000E+00 -0.00000000000E+00 -0.89348867567E+03  0.89348867568E+03  0.25500000000E-02 0.  1.
          2    1    1    2    0  502  0.60318363744E+01 -0.21313750881E+02 -0.11174036793E+03  0.11391474381E+03  0.25500000000E-02 0.  1.
         -2    1    1    2  502    0 -0.60318363744E+01  0.21313750881E+02 -0.78050399178E+03  0.78081825044E+03  0.25500000000E-02 0.  1.
<mgrwt>
<rscale>  0 0.66686832E+02</rscale>
<asrwt>0</asrwt>
<pdfrwt beam="2">  1        2 0.13745928E+00 0.66686832E+02</pdfrwt>
<pdfrwt beam="1">  1       -2 0.19143414E-03 0.66686832E+02</pdfrwt>
<totfact> 0.55728686E+05</totfact>
</mgrwt>
</event>
<event>
 4    1  0.2196664E-002  0.4996416E+02  0.7818608E-02  0.1445535E+00
         -2   -1    0    0  501    0 -0.00000000000E+00  0.00000000000E+00  0.68284512581E+00  0.68284988712E+00  0.25500000000E-02 0.  1.
          2   -1    0    0    0  501  0.00000000000E+00 -0.00000000000E+00 -0.91397334860E+03  0.91397334860E+03  0.25500000000E-02 0.  1.
          2    1    1    2    0  502  0.21728372169E+02 -0.30792086834E+01 -0.67517361263E+03  0.67553017022E+03  0.25500000000E-02 0.  1.
         -2    1    1    2  502    0 -0.21728372169E+02  0.30792086834E+01 -0.23811689084E+03  0.23912602827E+03  0.25500000000E-02 0.  1.
<mgrwt>
<rscale>  0 0.49964164E+02</rscale>
<asrwt>0</asrwt>
<pdfrwt beam="2">  1        2 0.14061031E+00 0.49964164E+02</pdfrwt>
<pdfrwt beam="1">  1       -2 0.10505419E-03 0.49964164E+02</pdfrwt>
<totfact> 0.11523359E+06</totfact>
</mgrwt>
</event>
<event>
 4    1  0.2196664E-002  0.5430351E+02  0.7818608E-02  0.1423422E+00
          2   -1    0    0    0  501  0.00000000000E+00  0.00000000000E+00  0.17562283747E+04  0.17562283747E+04  0.25500000000E-02 0. -1.
         -2   -1    0    0  501    0 -0.00000000000E+00 -0.00000000000E+00 -0.41976941918E+00  0.41977716444E+00  0.25500000000E-02 0. -1.
          2    1    1    2    0  502 -0.19517109819E+02 -0.91276953488E+01  0.14123782891E+04  0.14125426237E+04  0.25500000000E-02 0. -1.
         -2    1    1    2  502    0  0.19517109819E+02  0.91276953488E+01  0.34343031625E+03  0.34410552818E+03  0.25500000000E-02 0. -1.
<mgrwt>
<rscale>  0 0.54303509E+02</rscale>
<asrwt>0</asrwt>
<pdfrwt beam="1">  1        2 0.27019122E+00 0.54303509E+02</pdfrwt>
<pdfrwt beam="2">  1       -2 0.64579971E-04 0.54303509E+02</pdfrwt>
<totfact> 0.82627619E+05</totfact>
</mgrwt>
</event>
<event>
 4    1  0.2196664E-002  0.5764331E+02  0.7818608E-02  0.1407996E+00
         -2   -1    0    0  501    0 -0.00000000000E+00  0.00000000000E+00  0.12457976219E+01  0.12458002316E+01  0.25500000000E-02 0. -1.
          2   -1    0    0    0  501  0.00000000000E+00 -0.00000000000E+00 -0.66679123079E+03  0.66679123080E+03  0.25500000000E-02 0. -1.
          2    1    1    2    0  502  0.49554439006E+01  0.20803610950E+02 -0.10884670160E+03  0.11092768414E+03  0.25500000000E-02 0.  1.
         -2    1    1    2  502    0 -0.49554439006E+01 -0.20803610950E+02 -0.55669873158E+03  0.55710934690E+03  0.25500000000E-02 0.  1.
<mgrwt>
<rscale>  0 0.57643310E+02</rscale>
<asrwt>0</asrwt>
<pdfrwt beam="2">  1        2 0.10258298E+00 0.57643310E+02</pdfrwt>
<pdfrwt beam="1">  1       -2 0.19166191E-03 0.57643310E+02</pdfrwt>
<totfact> 0.76352973E+05</totfact>
</mgrwt>
</event>
<event>
 4    1  0.2196664E-002  0.4744334E+02  0.7818608E-02  0.1459640E+00
          2   -1    0    0    0  501  0.00000000000E+00  0.00000000000E+00  0.62972443414E+01  0.62972448577E+01  0.25500000000E-02 0. -1.
         -2   -1    0    0  501    0 -0.00000000000E+00 -0.00000000000E+00 -0.89359328095E+02  0.89359328132E+02  0.25500000000E-02 0. -1.
          2    1    1    2    0  502  0.21789438131E+02 -0.67611777712E+01 -0.28429531736E+02  0.36451768409E+02  0.25500000000E-02 0.  1.
         -2    1    1    2  502    0 -0.21789438131E+02  0.67611777712E+01 -0.54632552018E+02  0.59204804580E+02  0.25500000000E-02 0.  1.
<mgrwt>
<rscale>  0 0.47443337E+02</rscale>
<asrwt>0</asrwt>
<pdfrwt beam="1">  1        2 0.96880692E-03 0.47443337E+02</pdfrwt>
<pdfrwt beam="2">  1       -2 0.13747588E-01 0.47443337E+02</pdfrwt>
<totfact> 0.41213348E+05</totfact>
</mgrwt>
</event>
<event>
 4    1  0.2196664E-002  0.4642980E+02  0.7818608E-02  0.1465608E+00
          2   -1    0    0    0  501  0.00000000000E+00  0.00000000000E+00  0.28655272799E+03  0.28655272800E+03  0.25500000000E-02 0.  1.
         -2   -1    0    0  501    0 -0.00000000000E+00 -0.00000000000E+00 -0.18807401662E+01  0.18807418949E+01  0.25500000000E-02 0.  1.
          2    1    1    2    0  502  0.12683907546E+02  0.18910487689E+02  0.17042430334E+03  0.17193874267E+03  0.25500000000E-02 0.  1.
         -2    1    1    2  502    0 -0.12683907546E+02 -0.18910487689E+02  0.11424768448E+03  0.11649472723E+03  0.25500000000E-02 0.  1.
<mgrwt>
<rscale>  0 0.46429795E+02</rscale>
<asrwt>0</asrwt>
<pdfrwt beam="1">  1        2 0.44085015E-01 0.46429795E+02</pdfrwt>
<pdfrwt beam="2">  1       -2 0.28934491E-03 0.46429795E+02</pdfrwt>
<totfact> 0.10003755E+06</totfact>
</mgrwt>
</event>
<event>
 4    1  0.2196664E-002  0.5860920E+02  0.7818608E-02  0.1403763E+00
         -2   -1    0    0  501    0 -0.00000000000E+00  0.00000000000E+00  0.48809332516E+00  0.48809998623E+00  0.25500000000E-02 0. -1.
          2   -1    0    0    0  501  0.00000000000E+00 -0.00000000000E+00 -0.17594046591E+04  0.17594046591E+04  0.25500000000E-02 0. -1.
          2    1    1    2    0  502 -0.20607379347E+02  0.16770307384E+02 -0.12506996111E+04  0.12509817842E+04  0.25500000000E-02 0.  1.
         -2    1    1    2  502    0  0.20607379347E+02 -0.16770307384E+02 -0.50821695473E+03  0.50891097490E+03  0.25500000000E-02 0.  1.
<mgrwt>
<rscale>  0 0.58609198E+02</rscale>
<asrwt>0</asrwt>
<pdfrwt beam="2">  1        2 0.27067256E+00 0.58609198E+02</pdfrwt>
<pdfrwt beam="1">  1       -2 0.75093202E-04 0.58609198E+02</pdfrwt>
<totfact> 0.68123134E+05</totfact>
</mgrwt>
</event>
<event>
 4    1  0.2196664E-002  0.4301698E+02  0.7818608E-02  0.1487115E+00
          2   -1    0    0    0  501  0.00000000000E+00  0.00000000000E+00  0.16797934387E+04  0.16797934387E+04  0.25500000000E-02 0. -1.
         -2   -1    0    0  501    0 -0.00000000000E+00 -0.00000000000E+00 -0.27539406055E+00  0.27540586611E+00  0.25500000000E-02 0. -1.
          2    1    1    2    0  502 -0.20017937496E+02  0.56441454868E+01  0.10538228555E+04  0.10540280759E+04  0.25500000000E-02 0.  1.
         -2    1    1    2  502    0  0.20017937496E+02 -0.56441454868E+01  0.62569518923E+03  0.62604076866E+03  0.25500000000E-02 0.  1.
<mgrwt>
<rscale>  0 0.43016976E+02</rscale>
<asrwt>0</asrwt>
<pdfrwt beam="1">  1        2 0.25843013E+00 0.43016976E+02</pdfrwt>
<pdfrwt beam="2">  1       -2 0.42369166E-04 0.43016976E+02</pdfrwt>
<totfact> 0.15091416E+06</totfact>
</mgrwt>
</event>
<event>
 4    1  0.2196664E-002  0.8992806E+02  0.7818608E-02  0.1303026E+00
          2   -1    0    0    0  501  0.00000000000E+00  0.00000000000E+00  0.24702679221E+03  0.24702679223E+03  0.25500000000E-02 0.  1.
         -2   -1    0    0  501    0 -0.00000000000E+00 -0.00000000000E+00 -0.81843922277E+01  0.81843926249E+01  0.25500000000E-02 0.  1.
          2    1    1    2    0  502 -0.37626768518E+02 -0.61561261285E+01  0.51779576247E+02  0.64302380367E+02  0.25500000000E-02 0. -1.
         -2    1    1    2  502    0  0.37626768518E+02  0.61561261285E+01  0.18706282374E+03  0.19090880449E+03  0.25500000000E-02 0. -1.
<mgrwt>
<rscale>  0 0.89928065E+02</rscale>
<asrwt>0</asrwt>
<pdfrwt beam="1">  1        2 0.38004126E-01 0.89928065E+02</pdfrwt>
<pdfrwt beam="2">  1       -2 0.12591372E-02 0.89928065E+02</pdfrwt>
<totfact> 0.17339969E+05</totfact>
</mgrwt>
</event>
<event>
 4    1  0.2196664E-002  0.1294530E+03  0.7818608E-02  0.1228270E+00
          2   -1    0    0    0  501  0.00000000000E+00  0.00000000000E+00  0.13248341505E+02  0.13248341751E+02  0.25500000000E-02 0.  1.
         -2   -1    0    0  501    0 -0.00000000000E+00 -0.00000000000E+00 -0.31622988911E+03  0.31622988912E+03  0.25500000000E-02 0.  1.
          2    1    1    2    0  502 -0.56101951811E+02 -0.19768961030E+02 -0.86537859086E+02  0.10500972278E+03  0.25500000000E-02 0. -1.
         -2    1    1    2  502    0  0.56101951811E+02  0.19768961030E+02 -0.21644368852E+03  0.22446850809E+03  0.25500000000E-02 0. -1.
<mgrwt>
<rscale>  0 0.12945303E+03</rscale>
<asrwt>0</asrwt>
<pdfrwt beam="1">  1        2 0.20382066E-02 0.12945303E+03</pdfrwt>
<pdfrwt beam="2">  1       -2 0.48650746E-01 0.12945303E+03</pdfrwt>
<totfact> 0.19929499E+04</totfact>
</mgrwt>
</event>
<event>
 4    1  0.2196664E-002  0.8092775E+02  0.7818608E-02  0.1326439E+00
         -2   -1    0    0  501    0 -0.00000000000E+00  0.00000000000E+00  0.41295234863E+01  0.41295242736E+01  0.25500000000E-02 0. -1.
          2   -1    0    0    0  501  0.00000000000E+00 -0.00000000000E+00 -0.39649246753E+03  0.39649246753E+03  0.25500000000E-02 0. -1.
          2    1    1    2    0  502  0.66224339866E-01  0.39847721393E+02 -0.16135965731E+03  0.16620705250E+03  0.25500000000E-02 0. -1.
         -2    1    1    2  502    0 -0.66224339866E-01 -0.39847721393E+02 -0.23100328673E+03  0.23441493931E+03  0.25500000000E-02 0. -1.
<mgrwt>
<rscale>  0 0.80927748E+02</rscale>
<asrwt>0</asrwt>
<pdfrwt beam="2">  1        2 0.60998811E-01 0.80927748E+02</pdfrwt>
<pdfrwt beam="1">  1       -2 0.63531168E-03 0.80927748E+02</pdfrwt>
<totfact> 0.27254763E+05</totfact>
</mgrwt>
</event>
<event>
 4    1  0.2196664E-002  0.1252138E+03  0.7818608E-02  0.1234736E+00
         -2   -1    0    0  501    0 -0.00000000000E+00  0.00000000000E+00  0.56457302316E+01  0.56457308075E+01  0.25500000000E-02 0.  1.
          2   -1    0    0    0  501  0.00000000000E+00 -0.00000000000E+00 -0.69426283778E+03  0.69426283779E+03  0.25500000000E-02 0.  1.
          2    1    1    2    0  502 -0.16531692755E+02  0.57094739521E+02 -0.45420213192E+03  0.45807497507E+03  0.25500000000E-02 0.  1.
         -2    1    1    2  502    0  0.16531692755E+02 -0.57094739521E+02 -0.23441497564E+03  0.24183359352E+03  0.25500000000E-02 0.  1.
<mgrwt>
<rscale>  0 0.12521375E+03</rscale>
<asrwt>0</asrwt>
<pdfrwt beam="2">  1        2 0.10680960E+00 0.12521375E+03</pdfrwt>
<pdfrwt beam="1">  1       -2 0.86857448E-03 0.12521375E+03</pdfrwt>
<totfact> 0.10113167E+05</totfact>
</mgrwt>
</event>
<event>
 4    1  0.2196664E-002  0.8339381E+02  0.7818608E-02  0.1319687E+00
          2   -1    0    0    0  501  0.00000000000E+00  0.00000000000E+00  0.79874757667E+03  0.79874757668E+03  0.25500000000E-02 0.  1.
         -2   -1    0    0  501    0 -0.00000000000E+00 -0.00000000000E+00 -0.21766965901E+01  0.21766980837E+01  0.25500000000E-02 0.  1.
          2    1    1    2    0  502 -0.11299636812E+01 -0.30276011675E+02  0.12314486217E+03  0.12681707608E+03  0.25500000000E-02 0.  1.
         -2    1    1    2  502    0  0.11299636812E+01  0.30276011675E+02  0.67342601791E+03  0.67410719868E+03  0.25500000000E-02 0.  1.
<mgrwt>
<rscale>  0 0.83393806E+02</rscale>
<asrwt>0</asrwt>
<pdfrwt beam="1">  1        2 0.12288429E+00 0.83393806E+02</pdfrwt>
<pdfrwt beam="2">  1       -2 0.33487639E-03 0.83393806E+02</pdfrwt>
<totfact> 0.30793502E+05</totfact>
</mgrwt>
</event>
<event>
 4    1  0.2196664E-002  0.4937625E+02  0.7818608E-02  0.1448735E+00
          2   -1    0    0    0  501  0.00000000000E+00  0.00000000000E+00  0.15892401040E+04  0.15892401040E+04  0.25500000000E-02 0. -1.
         -2   -1    0    0  501    0 -0.00000000000E+00 -0.00000000000E+00 -0.38351460282E+00  0.38352308024E+00  0.25500000000E-02 0. -1.
          2    1    1    2    0  502  0.19024904595E+02 -0.93050040191E+01  0.38596475623E+03  0.38654537011E+03  0.25500000000E-02 0. -1.
         -2    1    1    2  502    0 -0.19024904595E+02  0.93050040191E+01  0.12028918332E+04  0.12030782570E+04  0.25500000000E-02 0. -1.
<mgrwt>
<rscale>  0 0.49376250E+02</rscale>
<asrwt>0</asrwt>
<pdfrwt beam="1">  1        2 0.24449995E+00 0.49376250E+02</pdfrwt>
<pdfrwt beam="2">  1       -2 0.59002544E-04 0.49376250E+02</pdfrwt>
<totfact> 0.11045163E+06</totfact>
</mgrwt>
</event>
<event>
 4    1  0.2196664E-002  0.5562145E+02  0.7818608E-02  0.1417183E+00
          2   -1    0    0    0  501  0.00000000000E+00  0.00000000000E+00  0.13776479792E+04  0.13776479792E+04  0.25500000000E-02 0. -1.
         -2   -1    0    0  501    0 -0.00000000000E+00 -0.00000000000E+00 -0.56141512787E+00  0.56142091901E+00  0.25500000000E-02 0. -1.
          2    1    1    2    0  502  0.25748249161E+02  0.94448621616E+01  0.80278920419E+03  0.80325754533E+03  0.25500000000E-02 0.  1.
         -2    1    1    2  502    0 -0.25748249161E+02 -0.94448621616E+01  0.57429735992E+03  0.57495185483E+03  0.25500000000E-02 0.  1.
<mgrwt>
<rscale>  0 0.55621449E+02</rscale>
<asrwt>0</asrwt>
<pdfrwt beam="1">  1        2 0.21194258E+00 0.55621449E+02</pdfrwt>
<pdfrwt beam="2">  1       -2 0.86373332E-04 0.55621449E+02</pdfrwt>
<totfact> 0.86289078E+05</totfact>
</mgrwt>
</event>
<event>
 4    1  0.2196664E-002  0.4295661E+02  0.7818608E-02  0.1487517E+00
         -2   -1    0    0  501    0 -0.00000000000E+00  0.00000000000E+00  0.31563297183E+00  0.31564327239E+00  0.25500000000E-02 0. -1.
          2   -1    0    0    0  501  0.00000000000E+00 -0.00000000000E+00 -0.14615394969E+04  0.14615394969E+04  0.25500000000E-02 0. -1.
          2    1    1    2    0  502 -0.18614254754E+02 -0.97287266984E+01 -0.88348250632E+03  0.88373212999E+03  0.25500000000E-02 0. -1.
         -2    1    1    2  502    0  0.18614254754E+02  0.97287266984E+01 -0.57774135763E+03  0.57812301020E+03  0.25500000000E-02 0. -1.
<mgrwt>
<rscale>  0 0.42956610E+02</rscale>
<asrwt>0</asrwt>
<pdfrwt beam="2">  1        2 0.22484681E+00 0.42956610E+02</pdfrwt>
<pdfrwt beam="1">  1       -2 0.48560881E-04 0.42956610E+02</pdfrwt>
<totfact> 0.16055828E+06</totfact>
</mgrwt>
</event>
<event>
 4    1  0.2196664E-002  0.4608053E+02  0.7818608E-02  0.1467707E+00
         -2   -1    0    0  501    0 -0.00000000000E+00  0.00000000000E+00  0.14707065888E+02  0.14707066109E+02  0.25500000000E-02 0. -1.
          2   -1    0    0    0  501  0.00000000000E+00 -0.00000000000E+00 -0.36095153025E+02  0.36095153115E+02  0.25500000000E-02 0. -1.
          2    1    1    2    0  502 -0.13377856348E+02  0.18623023008E+02 -0.13176372322E+02  0.26446187258E+02  0.25500000000E-02 0.  1.
         -2    1    1    2  502    0  0.13377856348E+02 -0.18623023008E+02 -0.82117148153E+01  0.24356031966E+02  0.25500000000E-02 0.  1.
<mgrwt>
<rscale>  0 0.46080530E+02</rscale>
<asrwt>0</asrwt>
<pdfrwt beam="2">  1        2 0.55531005E-02 0.46080530E+02</pdfrwt>
<pdfrwt beam="1">  1       -2 0.22626256E-02 0.46080530E+02</pdfrwt>
<totfact> 0.59752248E+05</totfact>
</mgrwt>
</event>
<event>
 4    1  0.2196664E-002  0.7979819E+02  0.7818608E-02  0.1329625E+00
         -2   -1    0    0  501    0 -0.00000000000E+00  0.00000000000E+00  0.88069031222E+00  0.88069400392E+00  0.25500000000E-02 0. -1.
          2   -1    0    0    0  501  0.00000000000E+00 -0.00000000000E+00 -0.18075985261E+04  0.18075985261E+04  0.25500000000E-02 0. -1.
          2    1    1    2    0  502  0.12354336030E+02  0.31523656564E+02 -0.13817434502E+04  0.13821582155E+04  0.25500000000E-02 0.  1.
         -2    1    1    2  502    0 -0.12354336030E+02 -0.31523656564E+02 -0.42497438557E+03  0.42632100457E+03  0.25500000000E-02 0.  1.
<mgrwt>
<rscale>  0 0.79798192E+02</rscale>
<asrwt>0</asrwt>
<pdfrwt beam="2">  1        2 0.27808911E+00 0.79798192E+02</pdfrwt>
<pdfrwt beam="1">  1       -2 0.13549255E-03 0.79798192E+02</pdfrwt>
<totfact> 0.30315323E+05</totfact>
</mgrwt>
</event>
<event>
 4    1  0.2196664E-002  0.4659876E+02  0.7818608E-02  0.1464601E+00
         -2   -1    0    0  501    0 -0.00000000000E+00  0.00000000000E+00  0.47264339233E+00  0.47265027115E+00  0.25500000000E-02 0. -1.
          2   -1    0    0    0  501  0.00000000000E+00 -0.00000000000E+00 -0.11485552430E+04  0.11485552430E+04  0.25500000000E-02 0. -1.
          2    1    1    2    0  502  0.20023827072E+02 -0.11876969271E+02 -0.59670705289E+03  0.59716105284E+03  0.25500000000E-02 0. -1.
         -2    1    1    2  502    0 -0.20023827072E+02  0.11876969271E+02 -0.55137554672E+03  0.55186684044E+03  0.25500000000E-02 0. -1.
<mgrwt>
<rscale>  0 0.46598755E+02</rscale>
<asrwt>0</asrwt>
<pdfrwt beam="2">  1        2 0.17669857E+00 0.46598755E+02</pdfrwt>
<pdfrwt beam="1">  1       -2 0.72715817E-04 0.46598755E+02</pdfrwt>
<totfact> 0.13752994E+06</totfact>
</mgrwt>
</event>
<event>
 4    1  0.2196664E-002  0.9881440E+02  0.7818608E-02  0.1282809E+00
          2   -1    0    0    0  501  0.00000000000E+00  0.00000000000E+00  0.10595948775E+03  0.10595948778E+03  0.25500000000E-02 0.  1.
         -2   -1    0    0  501    0 -0.00000000000E+00 -0.00000000000E+00 -0.23037778208E+02  0.23037778349E+02  0.25500000000E-02 0.  1.
          2    1    1    2    0  502  0.24753110356E+02 -0.12725180094E+02 -0.11830051923E+02  0.30242301759E+02  0.25500000000E-02 0. -1.
         -2    1    1    2  502    0 -0.24753110356E+02  0.12725180094E+02  0.94751761463E+02  0.98754964369E+02  0.25500000000E-02 0. -1.
<mgrwt>
<rscale>  0 0.98814395E+02</rscale>
<asrwt>0</asrwt>
<pdfrwt beam="1">  1        2 0.16301459E-01 0.98814395E+02</pdfrwt>
<pdfrwt beam="2">  1       -2 0.35442736E-02 0.98814395E+02</pdfrwt>
<totfact> 0.99973051E+04</totfact>
</mgrwt>
</event>
<event>
 4    1  0.2196664E-002  0.5024754E+02  0.7818608E-02  0.1444011E+00
         -2   -1    0    0  501    0 -0.00000000000E+00  0.00000000000E+00  0.47664643962E+01  0.47664650783E+01  0.25500000000E-02 0. -1.
          2   -1    0    0    0  501  0.00000000000E+00 -0.00000000000E+00 -0.13242597940E+03  0.13242597942E+03  0.25500000000E-02 0. -1.
          2    1    1    2    0  502  0.30257553481E+01 -0.21924201165E+02 -0.96294074687E+02  0.98804729737E+02  0.25500000000E-02 0.  1.
         -2    1    1    2  502    0 -0.30257553481E+01  0.21924201165E+02 -0.31365440317E+02  0.38387714765E+02  0.25500000000E-02 0.  1.
<mgrwt>
<rscale>  0 0.50247538E+02</rscale>
<asrwt>0</asrwt>
<pdfrwt beam="2">  1        2 0.20373225E-01 0.50247538E+02</pdfrwt>
<pdfrwt beam="1">  1       -2 0.73330237E-03 0.50247538E+02</pdfrwt>
<totfact> 0.63902373E+05</totfact>
</mgrwt>
</event>
<event>
 4    1  0.2196664E-002  0.5801101E+02  0.7818608E-02  0.1406373E+00
          2   -1    0    0    0  501  0.00000000000E+00  0.00000000000E+00  0.30574237979E+04  0.30574237979E+04  0.25500000000E-02 0.  1.
         -2   -1    0    0  501    0 -0.00000000000E+00 -0.00000000000E+00 -0.27516672332E+00  0.27517853863E+00  0.25500000000E-02 0.  1.
          2    1    1    2    0  502  0.28474853180E+02 -0.53202963842E+01  0.14504560015E+04  0.14507452344E+04  0.25500000000E-02 0.  1.
         -2    1    1    2  502    0 -0.28474853180E+02  0.53202963842E+01  0.16066926296E+04  0.16069537420E+04  0.25500000000E-02 0.  1.
<mgrwt>
<rscale>  0 0.58011011E+02</rscale>
<asrwt>0</asrwt>
<pdfrwt beam="1">  1        2 0.47034789E+00 0.58011011E+02</pdfrwt>
<pdfrwt beam="2">  1       -2 0.42336501E-04 0.58011011E+02</pdfrwt>
<totfact> 0.31724598E+05</totfact>
</mgrwt>
</event>
<event>
 4    1  0.2196664E-002  0.6046198E+02  0.7818608E-02  0.1395903E+00
         -2   -1    0    0  501    0 -0.00000000000E+00  0.00000000000E+00  0.61268722856E+00  0.61269253508E+00  0.25500000000E-02 0.  1.
          2   -1    0    0    0  501  0.00000000000E+00 -0.00000000000E+00 -0.14916402303E+04  0.14916402303E+04  0.25500000000E-02 0.  1.
          2    1    1    2    0  502  0.18415860042E+02  0.23588227539E+02 -0.63974693309E+03  0.64044647457E+03  0.25500000000E-02 0. -1.
         -2    1    1    2  502    0 -0.18415860042E+02 -0.23588227539E+02 -0.85128060998E+03  0.85180644827E+03  0.25500000000E-02 0. -1.
<mgrwt>
<rscale>  0 0.60461984E+02</rscale>
<asrwt>0</asrwt>
<pdfrwt beam="2">  1        2 0.22948021E+00 0.60461984E+02</pdfrwt>
<pdfrwt beam="1">  1       -2 0.94261176E-04 0.60461984E+02</pdfrwt>
<totfact> 0.68271272E+05</totfact>
</mgrwt>
</event>
<event>
 4    1  0.2196664E-002  0.4633078E+02  0.7818608E-02  0.1466201E+00
         -2   -1    0    0  501    0 -0.00000000000E+00  0.00000000000E+00  0.11579196596E+01  0.11579224674E+01  0.25500000000E-02 0.  1.
          2   -1    0    0    0  501  0.00000000000E+00 -0.00000000000E+00 -0.46344722125E+03  0.46344722126E+03  0.25500000000E-02 0.  1.
          2    1    1    2    0  502 -0.21193535544E+02 -0.39792823143E+00 -0.32484665503E+03  0.32553751487E+03  0.25500000000E-02 0.  1.
         -2    1    1    2  502    0  0.21193535544E+02  0.39792823143E+00 -0.13744264656E+03  0.13906762886E+03  0.25500000000E-02 0.  1.
<mgrwt>
<rscale>  0 0.46330780E+02</rscale>
<asrwt>0</asrwt>
<pdfrwt beam="2">  1        2 0.71299425E-01 0.46330780E+02</pdfrwt>
<pdfrwt beam="1">  1       -2 0.17814207E-03 0.46330780E+02</pdfrwt>
<totfact> 0.11833368E+06</totfact>
</mgrwt>
</event>
<event>
 4    1  0.2196664E-002  0.1173816E+03  0.7818608E-02  0.1247480E+00
          2   -1    0    0    0  501  0.00000000000E+00  0.00000000000E+00  0.18094759604E+01  0.18094777572E+01  0.25500000000E-02 0. -1.
         -2   -1    0    0  501    0 -0.00000000000E+00 -0.00000000000E+00 -0.19036500253E+04  0.19036500253E+04  0.25500000000E-02 0. -1.
          2    1    1    2    0  502 -0.29732569516E+02 -0.36990172027E+02 -0.39039572228E+03  0.39326977826E+03  0.25500000000E-02 0. -1.
         -2    1    1    2  502    0  0.29732569516E+02  0.36990172027E+02 -0.15114448270E+04  0.15121897248E+04  0.25500000000E-02 0. -1.
<mgrwt>
<rscale>  0 0.11738161E+03</rscale>
<asrwt>0</asrwt>
<pdfrwt beam="1">  1        2 0.27838258E-03 0.11738161E+03</pdfrwt>
<pdfrwt beam="2">  1       -2 0.29286763E+00 0.11738161E+03</pdfrwt>
<totfact> 0.33411612E+03</totfact>
</mgrwt>
</event>
<event>
 4    1  0.2196664E-002  0.7780013E+02  0.7818608E-02  0.1335413E+00
          2   -1    0    0    0  501  0.00000000000E+00  0.00000000000E+00  0.59728506190E+03  0.59728506191E+03  0.25500000000E-02 0.  1.
         -2   -1    0    0  501    0 -0.00000000000E+00 -0.00000000000E+00 -0.25334885032E+01  0.25334897866E+01  0.25500000000E-02 0.  1.
          2    1    1    2    0  502 -0.24640029656E+02 -0.25839254502E+01  0.52859174004E+03  0.52917202815E+03  0.25500000000E-02 0. -1.
         -2    1    1    2  502    0  0.24640029656E+02  0.25839254502E+01  0.66159833361E+02  0.70646523545E+02  0.25500000000E-02 0. -1.
<mgrwt>
<rscale>  0 0.77800134E+02</rscale>
<asrwt>0</asrwt>
<pdfrwt beam="1">  1        2 0.91889989E-01 0.77800134E+02</pdfrwt>
<pdfrwt beam="2">  1       -2 0.38976765E-03 0.77800134E+02</pdfrwt>
<totfact> 0.34481968E+05</totfact>
</mgrwt>
</event>
<event>
 4    1  0.2196664E-002  0.5374669E+02  0.7818608E-02  0.1426121E+00
          2   -1    0    0    0  501  0.00000000000E+00  0.00000000000E+00  0.70350747655E+03  0.70350747656E+03  0.25500000000E-02 0.  1.
         -2   -1    0    0  501    0 -0.00000000000E+00 -0.00000000000E+00 -0.10265355680E+01  0.10265387352E+01  0.25500000000E-02 0.  1.
          2    1    1    2    0  502 -0.19660851783E+02 -0.16383354724E+02  0.45870803566E+03  0.45942140284E+03  0.25500000000E-02 0.  1.
         -2    1    1    2  502    0  0.19660851783E+02  0.16383354724E+02  0.24377290533E+03  0.24511261245E+03  0.25500000000E-02 0.  1.
<mgrwt>
<rscale>  0 0.53746686E+02</rscale>
<asrwt>0</asrwt>
<pdfrwt beam="1">  1        2 0.10823241E+00 0.53746686E+02</pdfrwt>
<pdfrwt beam="2">  1       -2 0.15792808E-03 0.53746686E+02</pdfrwt>
<totfact> 0.92093878E+05</totfact>
</mgrwt>
</event>
<event>
 4    1  0.2196664E-002  0.4599332E+02  0.7818608E-02  0.1468234E+00
         -2   -1    0    0  501    0 -0.00000000000E+00  0.00000000000E+00  0.26436661288E+01  0.26436673587E+01  0.25500000000E-02 0. -1.
          2   -1    0    0    0  501  0.00000000000E+00 -0.00000000000E+00 -0.20004275662E+03  0.20004275663E+03  0.25500000000E-02 0. -1.
          2    1    1    2    0  502  0.15604129822E+02 -0.16732138293E+02 -0.88465495201E+02  0.91376130182E+02  0.25500000000E-02 0. -1.
         -2    1    1    2  502    0 -0.15604129822E+02  0.16732138293E+02 -0.10893359529E+03  0.11131029381E+03  0.25500000000E-02 0. -1.
<mgrwt>
<rscale>  0 0.45993321E+02</rscale>
<asrwt>0</asrwt>
<pdfrwt beam="2">  1        2 0.30775797E-01 0.45993321E+02</pdfrwt>
<pdfrwt beam="1">  1       -2 0.40671812E-03 0.45993321E+02</pdfrwt>
<totfact> 0.90646557E+05</totfact>
</mgrwt>
</event>
<event>
 4    1  0.2196664E-002  0.4944274E+02  0.7818608E-02  0.1448371E+00
          2   -1    0    0    0  501  0.00000000000E+00  0.00000000000E+00  0.15393603960E+02  0.15393604172E+02  0.25500000000E-02 0.  1.
         -2   -1    0    0  501    0 -0.00000000000E+00 -0.00000000000E+00 -0.39701298855E+02  0.39701298936E+02  0.25500000000E-02 0.  1.
          2    1    1    2    0  502  0.23237748656E+02 -0.79568446751E+01 -0.90334138796E+01  0.26170726252E+02  0.25500000000E-02 0.  1.
         -2    1    1    2  502    0 -0.23237748656E+02  0.79568446751E+01 -0.15274281015E+02  0.28924176856E+02  0.25500000000E-02 0.  1.
<mgrwt>
<rscale>  0 0.49442738E+02</rscale>
<asrwt>0</asrwt>
<pdfrwt beam="1">  1        2 0.23682468E-02 0.49442738E+02</pdfrwt>
<pdfrwt beam="2">  1       -2 0.61078921E-02 0.49442738E+02</pdfrwt>
<totfact> 0.43528758E+05</totfact>
</mgrwt>
</event>
<event>
 4    1  0.2196664E-002  0.4870575E+02  0.7818608E-02  0.1452450E+00
         -2   -1    0    0  501    0 -0.00000000000E+00  0.00000000000E+00  0.39418222259E+01  0.39418230507E+01  0.25500000000E-02 0. -1.
          2   -1    0    0    0  501  0.00000000000E+00 -0.00000000000E+00 -0.15045387681E+03  0.15045387683E+03  0.25500000000E-02 0. -1.
          2    1    1    2    0  502  0.22319490276E+02  0.73118487355E+01 -0.52849769947E+02  0.57833562644E+02  0.25500000000E-02 0. -1.
         -2    1    1    2  502    0 -0.22319490276E+02 -0.73118487355E+01 -0.93662284635E+02  0.96562137236E+02  0.25500000000E-02 0. -1.
<mgrwt>
<rscale>  0 0.48705749E+02</rscale>
<asrwt>0</asrwt>
<pdfrwt beam="2">  1        2 0.23146746E-01 0.48705749E+02</pdfrwt>
<pdfrwt beam="1">  1       -2 0.60643437E-03 0.48705749E+02</pdfrwt>
<totfact> 0.71792559E+05</totfact>
</mgrwt>
</event>
<event>
 4    1  0.2196664E-002  0.1046765E+03  0.7818608E-02  0.1270758E+00
         -2   -1    0    0  501    0 -0.00000000000E+00  0.00000000000E+00  0.39698076219E+01  0.39698084409E+01  0.25500000000E-02 0.  1.
          2   -1    0    0    0  501  0.00000000000E+00 -0.00000000000E+00 -0.69003179196E+03  0.69003179196E+03  0.25500000000E-02 0.  1.
          2    1    1    2    0  502  0.19482780870E+02 -0.28657890732E+02 -0.82984202933E+02  0.89929035326E+02  0.25500000000E-02 0. -1.
         -2    1    1    2  502    0 -0.19482780870E+02  0.28657890732E+02 -0.60307778140E+03  0.60407256508E+03  0.25500000000E-02 0. -1.
<mgrwt>
<rscale>  0 0.10467653E+03</rscale>
<asrwt>0</asrwt>
<pdfrwt beam="2">  1        2 0.10615864E+00 0.10467653E+03</pdfrwt>
<pdfrwt beam="1">  1       -2 0.61074025E-03 0.10467653E+03</pdfrwt>
<totfact> 0.16377028E+05</totfact>
</mgrwt>
</event>
<event>
 4    1  0.2196664E-002  0.5275913E+02  0.7818608E-02  0.1431003E+00
         -2   -1    0    0  501    0 -0.00000000000E+00  0.00000000000E+00  0.24416210790E+01  0.24416224106E+01  0.25500000000E-02 0.  1.
          2   -1    0    0    0  501  0.00000000000E+00 -0.00000000000E+00 -0.28500793510E+03  0.28500793511E+03  0.25500000000E-02 0.  1.
          2    1    1    2    0  502 -0.23690700743E+02  0.46037046761E+01 -0.83254357501E+02  0.86681782676E+02  0.25500000000E-02 0.  1.
         -2    1    1    2  502    0  0.23690700743E+02 -0.46037046761E+01 -0.19931195652E+03  0.20076777485E+03  0.25500000000E-02 0.  1.
<mgrwt>
<rscale>  0 0.52759135E+02</rscale>
<asrwt>0</asrwt>
<pdfrwt beam="2">  1        2 0.43847348E-01 0.52759135E+02</pdfrwt>
<pdfrwt beam="1">  1       -2 0.37563434E-03 0.52759135E+02</pdfrwt>
<totfact> 0.72656374E+05</totfact>
</mgrwt>
</event>
<event>
 4    1  0.2196664E-002  0.6282478E+02  0.7818608E-02  0.1386346E+00
         -2   -1    0    0  501    0 -0.00000000000E+00  0.00000000000E+00  0.19568841929E+02  0.19568842095E+02  0.25500000000E-02 0.  1.
          2   -1    0    0    0  501  0.00000000000E+00 -0.00000000000E+00 -0.50423948390E+02  0.50423948454E+02  0.25500000000E-02 0.  1.
          2    1    1    2    0  502 -0.31067096812E+02  0.43209827352E+01 -0.17325731223E+02  0.35833174085E+02  0.25500000000E-02 0. -1.
         -2    1    1    2  502    0  0.31067096812E+02 -0.43209827352E+01 -0.13529375238E+02  0.34159616464E+02  0.25500000000E-02 0. -1.
<mgrwt>
<rscale>  0 0.62824781E+02</rscale>
<asrwt>0</asrwt>
<pdfrwt beam="2">  1        2 0.77575305E-02 0.62824781E+02</pdfrwt>
<pdfrwt beam="1">  1       -2 0.30105911E-02 0.62824781E+02</pdfrwt>
<totfact> 0.28257641E+05</totfact>
</mgrwt>
</event>
<event>
 4    1  0.2196664E-002  0.4925844E+02  0.7818608E-02  0.1449383E+00
          2   -1    0    0    0  501  0.00000000000E+00  0.00000000000E+00  0.48030326774E+03  0.48030326774E+03  0.25500000000E-02 0.  1.
         -2   -1    0    0  501    0 -0.00000000000E+00 -0.00000000000E+00 -0.12629473739E+01  0.12629499482E+01  0.25500000000E-02 0.  1.
          2    1    1    2    0  502  0.44812608895E+01  0.23291486236E+02  0.30438612302E+03  0.30530883860E+03  0.25500000000E-02 0. -1.
         -2    1    1    2  502    0 -0.44812608895E+01 -0.23291486236E+02  0.17465419734E+03  0.17625737909E+03  0.25500000000E-02 0. -1.
<mgrwt>
<rscale>  0 0.49258436E+02</rscale>
<asrwt>0</asrwt>
<pdfrwt beam="1">  1        2 0.73892752E-01 0.49258436E+02</pdfrwt>
<pdfrwt beam="2">  1       -2 0.19429995E-03 0.49258436E+02</pdfrwt>
<totfact> 0.10292164E+06</totfact>
</mgrwt>
</event>
<event>
 4    1  0.2196664E-002  0.6253785E+02  0.7818608E-02  0.1387480E+00
         -2   -1    0    0  501    0 -0.00000000000E+00  0.00000000000E+00  0.84946846190E+00  0.84947228929E+00  0.25500000000E-02 0. -1.
          2   -1    0    0    0  501  0.00000000000E+00 -0.00000000000E+00 -0.11510062779E+04  0.11510062779E+04  0.25500000000E-02 0. -1.
          2    1    1    2    0  502  0.29426507169E+02 -0.38738544540E+01 -0.39384555953E+03  0.39496234104E+03  0.25500000000E-02 0.  1.
         -2    1    1    2  502    0 -0.29426507169E+02  0.38738544540E+01 -0.75631124992E+03  0.75689340916E+03  0.25500000000E-02 0.  1.
<mgrwt>
<rscale>  0 0.62537852E+02</rscale>
<asrwt>0</asrwt>
<pdfrwt beam="2">  1        2 0.17707664E+00 0.62537852E+02</pdfrwt>
<pdfrwt beam="1">  1       -2 0.13068867E-03 0.62537852E+02</pdfrwt>
<totfact> 0.66085498E+05</totfact>
</mgrwt>
</event>
<event>
 4    1  0.2196664E-002  0.7239618E+02  0.7818608E-02  0.1352129E+00
         -2   -1    0    0  501    0 -0.00000000000E+00  0.00000000000E+00  0.11864006970E+01  0.11864034374E+01  0.25500000000E-02 0.  1.
          2   -1    0    0    0  501  0.00000000000E+00 -0.00000000000E+00 -0.11044330821E+04  0.11044330821E+04  0.25500000000E-02 0.  1.
          2    1    1    2    0  502 -0.21476052411E+01 -0.35480365565E+02 -0.65613546450E+03  0.65709756987E+03  0.25500000000E-02 0.  1.
         -2    1    1    2  502    0  0.21476052411E+01  0.35480365565E+02 -0.44711121687E+03  0.44852191564E+03  0.25500000000E-02 0.  1.
<mgrwt>
<rscale>  0 0.72396179E+02</rscale>
<asrwt>0</asrwt>
<pdfrwt beam="2">  1        2 0.16991196E+00 0.72396179E+02</pdfrwt>
<pdfrwt beam="1">  1       -2 0.18252428E-03 0.72396179E+02</pdfrwt>
<totfact> 0.45589712E+05</totfact>
</mgrwt>
</event>
<event>
 4    1  0.2196664E-002  0.9362237E+02  0.7818608E-02  0.1294309E+00
         -2   -1    0    0  501    0 -0.00000000000E+00  0.00000000000E+00  0.10061773121E+01  0.10061805434E+01  0.25500000000E-02 0.  1.
          2   -1    0    0    0  501  0.00000000000E+00 -0.00000000000E+00 -0.21778302532E+04  0.21778302532E+04  0.25500000000E-02 0.  1.
          2    1    1    2    0  502 -0.41669724755E+02  0.21151783031E+02 -0.10245796497E+04  0.10256447838E+04  0.25500000000E-02 0. -1.
         -2    1    1    2  502    0  0.41669724755E+02 -0.21151783031E+02 -0.11522444262E+04  0.11531916500E+04  0.25500000000E-02 0. -1.
<mgrwt>
<rscale>  0 0.93622367E+02</rscale>
<asrwt>0</asrwt>
<pdfrwt beam="2">  1        2 0.33504704E+00 0.93622367E+02</pdfrwt>
<pdfrwt beam="1">  1       -2 0.15479850E-03 0.93622367E+02</pdfrwt>
<totfact> 0.16784160E+05</totfact>
</mgrwt>
</event>
<event>
 4    1  0.2196664E-002  0.4927987E+02  0.7818608E-02  0.1449265E+00
         -2   -1    0    0  501    0 -0.00000000000E+00  0.00000000000E+00  0.82791451632E+01  0.82791455559E+01  0.25500000000E-02 0.  1.
          2   -1    0    0    0  501  0.00000000000E+00 -0.00000000000E+00 -0.73332017164E+02  0.73332017208E+02  0.25500000000E-02 0.  1.
          2    1    1    2    0  502  0.53874918911E+01 -0.20313325936E+02 -0.11223482197E+02  0.23824836591E+02  0.25500000000E-02 0.  1.
         -2    1    1    2  502    0 -0.53874918911E+01  0.20313325936E+02 -0.53829389803E+02  0.57786326173E+02  0.25500000000E-02 0.  1.
<mgrwt>
<rscale>  0 0.49279871E+02</rscale>
<asrwt>0</asrwt>
<pdfrwt beam="2">  1        2 0.11281848E-01 0.49279871E+02</pdfrwt>
<pdfrwt beam="1">  1       -2 0.12737147E-02 0.49279871E+02</pdfrwt>
<totfact> 0.57620896E+05</totfact>
</mgrwt>
</event>
<event>
 4    1  0.2196664E-002  0.8305438E+02  0.7818608E-02  0.1320600E+00
         -2   -1    0    0  501    0 -0.00000000000E+00  0.00000000000E+00  0.21241986871E+01  0.21242002177E+01  0.25500000000E-02 0.  1.
          2   -1    0    0    0  501  0.00000000000E+00 -0.00000000000E+00 -0.81183875150E+03  0.81183875150E+03  0.25500000000E-02 0.  1.
          2    1    1    2    0  502 -0.29751833433E+02  0.22623408960E+02 -0.58221869950E+03  0.58341717859E+03  0.25500000000E-02 0. -1.
         -2    1    1    2  502    0  0.29751833433E+02 -0.22623408960E+02 -0.22749585332E+03  0.23054577313E+03  0.25500000000E-02 0. -1.
<mgrwt>
<rscale>  0 0.83054378E+02</rscale>
<asrwt>0</asrwt>
<pdfrwt beam="2">  1        2 0.12489802E+00 0.83054378E+02</pdfrwt>
<pdfrwt beam="1">  1       -2 0.32680056E-03 0.83054378E+02</pdfrwt>
<totfact> 0.31209923E+05</totfact>
</mgrwt>
</event>
<event>
 4    1  0.2196664E-002  0.5090476E+02  0.7818608E-02  0.1440522E+00
          2   -1    0    0    0  501  0.00000000000E+00  0.00000000000E+00  0.21410635872E+04  0.21410635872E+04  0.25500000000E-02 0. -1.
         -2   -1    0    0  501    0 -0.00000000000E+00 -0.00000000000E+00 -0.30256562885E+00  0.30257637426E+00  0.25500000000E-02 0. -1.
          2    1    1    2    0  502 -0.13656582088E+02 -0.21420707650E+02  0.10042041970E+04  0.10045254692E+04  0.25500000000E-02 0.  1.
         -2    1    1    2  502    0  0.13656582088E+02  0.21420707650E+02  0.11365568245E+04  0.11368406943E+04  0.25500000000E-02 0.  1.
<mgrwt>
<rscale>  0 0.50904764E+02</rscale>
<asrwt>0</asrwt>
<pdfrwt beam="1">  1        2 0.32938180E+00 0.50904764E+02</pdfrwt>
<pdfrwt beam="2">  1       -2 0.46551166E-04 0.50904764E+02</pdfrwt>
<totfact> 0.82290904E+05</totfact>
</mgrwt>
</event>
<event>
 4    1  0.2196664E-002  0.5037466E+02  0.7818608E-02  0.1443331E+00
          2   -1    0    0    0  501  0.00000000000E+00  0.00000000000E+00  0.20348369532E+03  0.20348369534E+03  0.25500000000E-02 0. -1.
         -2   -1    0    0  501    0 -0.00000000000E+00 -0.00000000000E+00 -0.31177016813E+01  0.31177027242E+01  0.25500000000E-02 0. -1.
          2    1    1    2    0  502  0.16055267546E+02  0.12584180970E+02  0.16077516656E+03  0.16206414599E+03  0.25500000000E-02 0.  1.
         -2    1    1    2  502    0 -0.16055267546E+02 -0.12584180970E+02  0.39590827079E+02  0.44537252070E+02  0.25500000000E-02 0.  1.
<mgrwt>
<rscale>  0 0.50374659E+02</rscale>
<asrwt>0</asrwt>
<pdfrwt beam="1">  1        2 0.31305178E-01 0.50374659E+02</pdfrwt>
<pdfrwt beam="2">  1       -2 0.47964658E-03 0.50374659E+02</pdfrwt>
<totfact> 0.72671196E+05</totfact>
</mgrwt>
</event>
<event>
 4    1  0.2196664E-002  0.5241624E+02  0.7818608E-02  0.1432728E+00
         -2   -1    0    0  501    0 -0.00000000000E+00  0.00000000000E+00  0.25456157264E+02  0.25456157391E+02  0.25500000000E-02 0. -1.
          2   -1    0    0    0  501  0.00000000000E+00 -0.00000000000E+00 -0.26982297593E+02  0.26982297714E+02  0.25500000000E-02 0. -1.
          2    1    1    2    0  502 -0.18763488977E+02  0.13037119023E+02 -0.13607148629E+02  0.26593034639E+02  0.25500000000E-02 0.  1.
         -2    1    1    2  502    0  0.18763488977E+02 -0.13037119023E+02  0.12081008300E+02  0.25845420466E+02  0.25500000000E-02 0.  1.
<mgrwt>
<rscale>  0 0.52416242E+02</rscale>
<asrwt>0</asrwt>
<pdfrwt beam="2">  1        2 0.41511227E-02 0.52416242E+02</pdfrwt>
<pdfrwt beam="1">  1       -2 0.39163319E-02 0.52416242E+02</pdfrwt>
<totfact> 0.40749365E+05</totfact>
</mgrwt>
</event>
<event>
 4    1  0.2196664E-002  0.4833456E+02  0.7818608E-02  0.1454537E+00
          2   -1    0    0    0  501  0.00000000000E+00  0.00000000000E+00  0.14796841263E+01  0.14796863236E+01  0.25500000000E-02 0.  1.
         -2   -1    0    0  501    0 -0.00000000000E+00 -0.00000000000E+00 -0.39471730659E+03  0.39471730660E+03  0.25500000000E-02 0.  1.
          2    1    1    2    0  502  0.16275459308E+02 -0.17178342449E+02 -0.15640237860E+03  0.15818245814E+03  0.25500000000E-02 0. -1.
         -2    1    1    2  502    0 -0.16275459308E+02  0.17178342449E+02 -0.23683524386E+03  0.23801453478E+03  0.25500000000E-02 0. -1.
<mgrwt>
<rscale>  0 0.48334558E+02</rscale>
<asrwt>0</asrwt>
<pdfrwt beam="1">  1        2 0.22764420E-03 0.48334558E+02</pdfrwt>
<pdfrwt beam="2">  1       -2 0.60725656E-01 0.48334558E+02</pdfrwt>
<totfact> 0.21360088E+05</totfact>
</mgrwt>
</event>
<event>
 4    1  0.2196664E-002  0.4893363E+02  0.7818608E-02  0.1451180E+00
         -2   -1    0    0  501    0 -0.00000000000E+00  0.00000000000E+00  0.46806530727E+03  0.46806530728E+03  0.25500000000E-02 0.  1.
          2   -1    0    0    0  501  0.00000000000E+00 -0.00000000000E+00 -0.12789337999E+01  0.12789363420E+01  0.25500000000E-02 0.  1.
          2    1    1    2    0  502 -0.22170130535E+02  0.35726585059E+01  0.32655695623E+03  0.32732815987E+03  0.25500000000E-02 0.  1.
         -2    1    1    2  502    0  0.22170130535E+02 -0.35726585059E+01  0.14022941724E+03  0.14201608375E+03  0.25500000000E-02 0.  1.
<mgrwt>
<rscale>  0 0.48933634E+02</rscale>
<asrwt>0</asrwt>
<pdfrwt beam="2">  1        2 0.19675919E-03 0.48933634E+02</pdfrwt>
<pdfrwt beam="1">  1       -2 0.72010068E-01 0.48933634E+02</pdfrwt>
<totfact> 0.18378543E+05</totfact>
</mgrwt>
</event>
<event>
 4    1  0.2196664E-002  0.6607390E+02  0.7818608E-02  0.1373977E+00
          2   -1    0    0    0  501  0.00000000000E+00  0.00000000000E+00  0.11004817112E+04  0.11004817112E+04  0.25500000000E-02 0. -1.
         -2   -1    0    0  501    0 -0.00000000000E+00 -0.00000000000E+00 -0.99178220146E+00  0.99178547964E+00  0.25500000000E-02 0. -1.
          2    1    1    2    0  502 -0.11572620318E+02 -0.30100586582E+02  0.66934119814E+03  0.67011760937E+03  0.25500000000E-02 0. -1.
         -2    1    1    2  502    0  0.11572620318E+02  0.30100586582E+02  0.43014873086E+03  0.43135588731E+03  0.25500000000E-02 0. -1.
<mgrwt>
<rscale>  0 0.66073897E+02</rscale>
<asrwt>0</asrwt>
<pdfrwt beam="1">  1        2 0.16930421E+00 0.66073897E+02</pdfrwt>
<pdfrwt beam="2">  1       -2 0.15258274E-03 0.66073897E+02</pdfrwt>
<totfact> 0.57605069E+05</totfact>
</mgrwt>
</event>
<event>
 4    1  0.2196664E-002  0.7143543E+02  0.7818608E-02  0.1355279E+00
          2   -1    0    0    0  501  0.00000000000E+00  0.00000000000E+00  0.18691308041E+02  0.18691308215E+02  0.25500000000E-02 0. -1.
         -2   -1    0    0  501    0 -0.00000000000E+00 -0.00000000000E+00 -0.68253919802E+02  0.68253919849E+02  0.25500000000E-02 0. -1.
          2    1    1    2    0  502 -0.34164863704E+02 -0.10412189688E+02 -0.24389861191E+02  0.43249473308E+02  0.25500000000E-02 0.  1.
         -2    1    1    2  502    0  0.34164863704E+02  0.10412189688E+02 -0.25172750569E+02  0.43695754756E+02  0.25500000000E-02 0.  1.
<mgrwt>
<rscale>  0 0.71435427E+02</rscale>
<asrwt>0</asrwt>
<pdfrwt beam="1">  1        2 0.28755859E-02 0.71435427E+02</pdfrwt>
<pdfrwt beam="2">  1       -2 0.10500603E-01 0.71435427E+02</pdfrwt>
<totfact> 0.16115088E+05</totfact>
</mgrwt>
</event>
<event>
 4    1  0.2196664E-002  0.4555006E+02  0.7818608E-02  0.1470937E+00
         -2   -1    0    0  501    0 -0.00000000000E+00  0.00000000000E+00  0.88525007496E+01  0.88525011168E+01  0.25500000000E-02 0. -1.
          2   -1    0    0    0  501  0.00000000000E+00 -0.00000000000E+00 -0.58593831126E+02  0.58593831181E+02  0.25500000000E-02 0. -1.
          2    1    1    2    0  502 -0.80778984042E+01  0.20661788584E+02 -0.32498825176E+02  0.39348895721E+02  0.25500000000E-02 0.  1.
         -2    1    1    2  502    0  0.80778984042E+01 -0.20661788584E+02 -0.17242505200E+02  0.28097436577E+02  0.25500000000E-02 0.  1.
<mgrwt>
<rscale>  0 0.45550058E+02</rscale>
<asrwt>0</asrwt>
<pdfrwt beam="2">  1        2 0.90144353E-02 0.45550058E+02</pdfrwt>
<pdfrwt beam="1">  1       -2 0.13619233E-02 0.45550058E+02</pdfrwt>
<totfact> 0.67091910E+05</totfact>
</mgrwt>
</event>
<event>
 4    1  0.2196664E-002  0.5496196E+02  0.7818608E-02  0.1420279E+00
          2   -1    0    0    0  501  0.00000000000E+00  0.00000000000E+00  0.21538702991E+03  0.21538702992E+03  0.25500000000E-02 0. -1.
         -2   -1    0    0  501    0 -0.00000000000E+00 -0.00000000000E+00 -0.35062661796E+01  0.35062671069E+01  0.25500000000E-02 0. -1.
          2    1    1    2    0  502  0.13034642532E+02  0.19589578703E+02  0.16248125948E+03  0.16417616510E+03  0.25500000000E-02 0. -1.
         -2    1    1    2  502    0 -0.13034642532E+02 -0.19589578703E+02  0.49399504251E+02  0.54717131928E+02  0.25500000000E-02 0. -1.
<mgrwt>
<rscale>  0 0.54961964E+02</rscale>
<asrwt>0</asrwt>
<pdfrwt beam="1">  1        2 0.33136460E-01 0.54961964E+02</pdfrwt>
<pdfrwt beam="2">  1       -2 0.53942575E-03 0.54961964E+02</pdfrwt>
<totfact> 0.59479956E+05</totfact>
</mgrwt>
</event>
<event>
 4    1  0.2196664E-002  0.8395534E+02  0.7818608E-02  0.1318187E+00
          2   -1    0    0    0  501  0.00000000000E+00  0.00000000000E+00  0.28644494258E+03  0.28644494260E+03  0.25500000000E-02 0. -1.
         -2   -1    0    0  501    0 -0.00000000000E+00 -0.00000000000E+00 -0.61517044632E+01  0.61517049917E+01  0.25500000000E-02 0. -1.
          2    1    1    2    0  502 -0.28541211815E+02 -0.14035421259E+01  0.32978848013E+02  0.43636855124E+02  0.25500000000E-02 0.  1.
         -2    1    1    2  502    0  0.28541211815E+02  0.14035421259E+01  0.24731439011E+03  0.24895979246E+03  0.25500000000E-02 0.  1.
<mgrwt>
<rscale>  0 0.83955338E+02</rscale>
<asrwt>0</asrwt>
<pdfrwt beam="1">  1        2 0.44068449E-01 0.83955338E+02</pdfrwt>
<pdfrwt beam="2">  1       -2 0.94641620E-03 0.83955338E+02</pdfrwt>
<totfact> 0.21988035E+05</totfact>
</mgrwt>
</event>
<event>
 4    1  0.2196664E-002  0.4850029E+02  0.7818608E-02  0.1453603E+00
          2   -1    0    0    0  501  0.00000000000E+00  0.00000000000E+00  0.14837160050E+01  0.14837181963E+01  0.25500000000E-02 0. -1.
         -2   -1    0    0  501    0 -0.00000000000E+00 -0.00000000000E+00 -0.39634876509E+03  0.39634876510E+03  0.25500000000E-02 0. -1.
          2    1    1    2    0  502  0.80798302277E+01 -0.19215571694E+02 -0.29907551489E+03  0.29980107650E+03  0.25500000000E-02 0.  1.
         -2    1    1    2  502    0 -0.80798302277E+01  0.19215571694E+02 -0.95789534190E+02  0.98031406798E+02  0.25500000000E-02 0.  1.
<mgrwt>
<rscale>  0 0.48500286E+02</rscale>
<asrwt>0</asrwt>
<pdfrwt beam="1">  1        2 0.22826449E-03 0.48500286E+02</pdfrwt>
<pdfrwt beam="2">  1       -2 0.60976649E-01 0.48500286E+02</pdfrwt>
<totfact> 0.21123594E+05</totfact>
</mgrwt>
</event>
<event>
 4    1  0.2196664E-002  0.7066035E+02  0.7818608E-02  0.1357862E+00
         -2   -1    0    0  501    0 -0.00000000000E+00  0.00000000000E+00  0.56179205377E+00  0.56179784102E+00  0.25500000000E-02 0. -1.
          2   -1    0    0    0  501  0.00000000000E+00 -0.00000000000E+00 -0.22218448741E+04  0.22218448741E+04  0.25500000000E-02 0. -1.
          2    1    1    2    0  502  0.67197259641E+01 -0.30871151279E+02 -0.16079790521E+04  0.16082894064E+04  0.25500000000E-02 0. -1.
         -2    1    1    2  502    0 -0.67197259641E+01  0.30871151279E+02 -0.61330402993E+03  0.61411726554E+03  0.25500000000E-02 0. -1.
<mgrwt>
<rscale>  0 0.70660349E+02</rscale>
<asrwt>0</asrwt>
<pdfrwt beam="2">  1        2 0.34181525E+00 0.70660349E+02</pdfrwt>
<pdfrwt beam="1">  1       -2 0.86431771E-04 0.70660349E+02</pdfrwt>
<totfact> 0.34250574E+05</totfact>
</mgrwt>
</event>
<event>
 4    1  0.2196664E-002  0.1143417E+03  0.7818608E-02  0.1252735E+00
          2   -1    0    0    0  501  0.00000000000E+00  0.00000000000E+00  0.42966650767E+03  0.42966650767E+03  0.25500000000E-02 0. -1.
         -2   -1    0    0  501    0 -0.00000000000E+00 -0.00000000000E+00 -0.76070766359E+01  0.76070770633E+01  0.25500000000E-02 0. -1.
          2    1    1    2    0  502  0.48882780258E+02  0.49159937435E+01  0.99218816850E+02  0.11071615430E+03  0.25500000000E-02 0.  1.
         -2    1    1    2  502    0 -0.48882780258E+02 -0.49159937435E+01  0.32284061418E+03  0.32655743043E+03  0.25500000000E-02 0.  1.
<mgrwt>
<rscale>  0 0.11434170E+03</rscale>
<asrwt>0</asrwt>
<pdfrwt beam="1">  1        2 0.66102533E-01 0.11434170E+03</pdfrwt>
<pdfrwt beam="2">  1       -2 0.11703196E-02 0.11434170E+03</pdfrwt>
<totfact> 0.11149113E+05</totfact>
</mgrwt>
</event>
<event>
 4    1  0.2196664E-002  0.1576772E+03  0.7818608E-02  0.1191344E+00
          2   -1    0    0    0  501  0.00000000000E+00  0.00000000000E+00  0.17648431528E+04  0.17648431528E+04  0.25500000000E-02 0.  1.
         -2   -1    0    0  501    0 -0.00000000000E+00 -0.00000000000E+00 -0.35218553557E+01  0.35218562788E+01  0.25500000000E-02 0.  1.
          2    1    1    2    0  502  0.60666617397E+02  0.27513832713E+02  0.40775124656E+03  0.41315678444E+03  0.25500000000E-02 0. -1.
         -2    1    1    2  502    0 -0.60666617397E+02 -0.27513832713E+02  0.13535700509E+04  0.13552082247E+04  0.25500000000E-02 0. -1.
<mgrwt>
<rscale>  0 0.15767718E+03</rscale>
<asrwt>0</asrwt>
<pdfrwt beam="1">  1        2 0.27151424E+00 0.15767718E+03</pdfrwt>
<pdfrwt beam="2">  1       -2 0.54182415E-03 0.15767718E+03</pdfrwt>
<totfact> 0.49317162E+04</totfact>
</mgrwt>
</event>
<event>
 4    1  0.2196664E-002  0.6672581E+02  0.7818608E-02  0.1371595E+00
         -2   -1    0    0  501    0 -0.00000000000E+00  0.00000000000E+00  0.25254286680E+02  0.25254286809E+02  0.25500000000E-02 0. -1.
          2   -1    0    0    0  501  0.00000000000E+00 -0.00000000000E+00 -0.44075029473E+02  0.44075029547E+02  0.25500000000E-02 0. -1.
          2    1    1    2    0  502  0.19669546832E+02 -0.78444185536E+01 -0.36197243378E+02  0.41936456809E+02  0.25500000000E-02 0.  1.
         -2    1    1    2  502    0 -0.19669546832E+02  0.78444185536E+01  0.17376500586E+02  0.27392859546E+02  0.25500000000E-02 0.  1.
<mgrwt>
<rscale>  0 0.66725810E+02</rscale>
<asrwt>0</asrwt>
<pdfrwt beam="2">  1        2 0.67807738E-02 0.66725810E+02</pdfrwt>
<pdfrwt beam="1">  1       -2 0.38852749E-02 0.66725810E+02</pdfrwt>
<totfact> 0.23363047E+05</totfact>
</mgrwt>
</event>
<event>
 4    1  0.2196664E-002  0.5328067E+02  0.7818608E-02  0.1428409E+00
         -2   -1    0    0  501    0 -0.00000000000E+00  0.00000000000E+00  0.10466493203E+01  0.10466524266E+01  0.25500000000E-02 0.  1.
          2   -1    0    0    0  501  0.00000000000E+00 -0.00000000000E+00 -0.67807464721E+03  0.67807464721E+03  0.25500000000E-02 0.  1.
          2    1    1    2    0  502  0.37554856075E+01  0.25137590712E+02 -0.44024782887E+03  0.44098089865E+03  0.25500000000E-02 0.  1.
         -2    1    1    2  502    0 -0.37554856075E+01 -0.25137590712E+02 -0.23678016902E+03  0.23814040099E+03  0.25500000000E-02 0.  1.
<mgrwt>
<rscale>  0 0.53280669E+02</rscale>
<asrwt>0</asrwt>
<pdfrwt beam="2">  1        2 0.10431883E+00 0.53280669E+02</pdfrwt>
<pdfrwt beam="1">  1       -2 0.16102375E-03 0.53280669E+02</pdfrwt>
<totfact> 0.93322600E+05</totfact>
</mgrwt>
</event>
<event>
 4    1  0.2196664E-002  0.9716456E+02  0.7818608E-02  0.1286374E+00
          2   -1    0    0    0  501  0.00000000000E+00  0.00000000000E+00  0.93601785620E+02  0.93601785655E+02  0.25500000000E-02 0. -1.
         -2   -1    0    0  501    0 -0.00000000000E+00 -0.00000000000E+00 -0.25215734662E+02  0.25215734791E+02  0.25500000000E-02 0. -1.
          2    1    1    2    0  502  0.38727814859E+02  0.28238260011E+02  0.43898684561E+02  0.64994903530E+02  0.25500000000E-02 0.  1.
         -2    1    1    2  502    0 -0.38727814859E+02 -0.28238260011E+02  0.24487366397E+02  0.53822616916E+02  0.25500000000E-02 0.  1.
<mgrwt>
<rscale>  0 0.97164557E+02</rscale>
<asrwt>0</asrwt>
<pdfrwt beam="1">  1        2 0.14400275E-01 0.97164557E+02</pdfrwt>
<pdfrwt beam="2">  1       -2 0.38793438E-02 0.97164557E+02</pdfrwt>
<totfact> 0.10079021E+05</totfact>
</mgrwt>
</event>
<event>
 4    1  0.2196664E-002  0.4430259E+02  0.7818608E-02  0.1478743E+00
          2   -1    0    0    0  501  0.00000000000E+00  0.00000000000E+00  0.18522638587E+03  0.18522638589E+03  0.25500000000E-02 0. -1.
         -2   -1    0    0  501    0 -0.00000000000E+00 -0.00000000000E+00 -0.26490817538E+01  0.26490829811E+01  0.25500000000E-02 0. -1.
          2    1    1    2    0  502  0.95845360852E+01  0.19969611503E+02  0.90539181116E+02  0.93209398878E+02  0.25500000000E-02 0. -1.
         -2    1    1    2  502    0 -0.95845360852E+01 -0.19969611503E+02  0.92038123001E+02  0.94666069991E+02  0.25500000000E-02 0. -1.
<mgrwt>
<rscale>  0 0.44302594E+02</rscale>
<asrwt>0</asrwt>
<pdfrwt beam="1">  1        2 0.28496373E-01 0.44302594E+02</pdfrwt>
<pdfrwt beam="2">  1       -2 0.40755106E-03 0.44302594E+02</pdfrwt>
<totfact> 0.96986711E+05</totfact>
</mgrwt>
</event>
<event>
 4    1  0.2196664E-002  0.5361295E+02  0.7818608E-02  0.1426775E+00
         -2   -1    0    0  501    0 -0.00000000000E+00  0.00000000000E+00  0.31573767514E+02  0.31573767617E+02  0.25500000000E-02 0.  1.
          2   -1    0    0    0  501  0.00000000000E+00 -0.00000000000E+00 -0.22758991727E+02  0.22758991870E+02  0.25500000000E-02 0.  1.
          2    1    1    2    0  502  0.50519104541E+01 -0.26326133387E+02  0.44034044664E+01  0.27165733485E+02  0.25500000000E-02 0. -1.
         -2    1    1    2  502    0 -0.50519104541E+01  0.26326133387E+02  0.44113713206E+01  0.27167026002E+02  0.25500000000E-02 0. -1.
<mgrwt>
<rscale>  0 0.53612951E+02</rscale>
<asrwt>0</asrwt>
<pdfrwt beam="2">  1        2 0.35013833E-02 0.53612951E+02</pdfrwt>
<pdfrwt beam="1">  1       -2 0.48575027E-02 0.53612951E+02</pdfrwt>
<totfact> 0.37302701E+05</totfact>
</mgrwt>
</event>
<event>
 4    1  0.2196664E-002  0.7809119E+02  0.7818608E-02  0.1334557E+00
         -2   -1    0    0  501    0 -0.00000000000E+00  0.00000000000E+00  0.58680917896E+02  0.58680917951E+02  0.25500000000E-02 0. -1.
          2   -1    0    0    0  501  0.00000000000E+00 -0.00000000000E+00 -0.25980480823E+02  0.25980480948E+02  0.25500000000E-02 0. -1.
          2    1    1    2    0  502 -0.13798447696E+02 -0.36298756774E+02  0.20762203638E+02  0.44034827223E+02  0.25500000000E-02 0.  1.
         -2    1    1    2  502    0  0.13798447696E+02  0.36298756774E+02  0.11938233434E+02  0.40626571676E+02  0.25500000000E-02 0.  1.
<mgrwt>
<rscale>  0 0.78091190E+02</rscale>
<asrwt>0</asrwt>
<pdfrwt beam="2">  1        2 0.39969971E-02 0.78091190E+02</pdfrwt>
<pdfrwt beam="1">  1       -2 0.90278334E-02 0.78091190E+02</pdfrwt>
<totfact> 0.13434306E+05</totfact>
</mgrwt>
</event>
<event>
 4    1  0.2196664E-002  0.8423149E+02  0.7818608E-02  0.1317455E+00
          2   -1    0    0    0  501  0.00000000000E+00  0.00000000000E+00  0.18435044076E+02  0.18435044252E+02  0.25500000000E-02 0.  1.
         -2   -1    0    0  501    0 -0.00000000000E+00 -0.00000000000E+00 -0.96215445438E+02  0.96215445472E+02  0.25500000000E-02 0.  1.
          2    1    1    2    0  502 -0.18416994206E+02  0.31102545231E+02 -0.94700783358E+01  0.37366246608E+02  0.25500000000E-02 0. -1.
         -2    1    1    2  502    0  0.18416994206E+02 -0.31102545231E+02 -0.68310323027E+02  0.77284243115E+02  0.25500000000E-02 0. -1.
<mgrwt>
<rscale>  0 0.84231490E+02</rscale>
<asrwt>0</asrwt>
<pdfrwt beam="1">  1        2 0.28361607E-02 0.84231490E+02</pdfrwt>
<pdfrwt beam="2">  1       -2 0.14802376E-01 0.84231490E+02</pdfrwt>
<totfact> 0.98275880E+04</totfact>
</mgrwt>
</event>
<event>
 4    1  0.2196664E-002  0.8645295E+02  0.7818608E-02  0.1311676E+00
          2   -1    0    0    0  501  0.00000000000E+00  0.00000000000E+00  0.22216082484E+04  0.22216082484E+04  0.25500000000E-02 0.  1.
         -2   -1    0    0  501    0 -0.00000000000E+00 -0.00000000000E+00 -0.84106818070E+00  0.84107204631E+00  0.25500000000E-02 0.  1.
          2    1    1    2    0  502  0.20914528093E+02 -0.36950526176E+02  0.90190375077E+03  0.90290261630E+03  0.25500000000E-02 0. -1.
         -2    1    1    2  502    0 -0.20914528093E+02  0.36950526176E+02  0.13188634294E+04  0.13195467041E+04  0.25500000000E-02 0. -1.
<mgrwt>
<rscale>  0 0.86452954E+02</rscale>
<asrwt>0</asrwt>
<pdfrwt beam="1">  1        2 0.34178642E+00 0.86452954E+02</pdfrwt>
<pdfrwt beam="2">  1       -2 0.12939520E-03 0.86452954E+02</pdfrwt>
<totfact> 0.20233314E+05</totfact>
</mgrwt>
</event>
<event>
 4    1  0.2196664E-002  0.1413707E+03  0.7818608E-02  0.1211496E+00
         -2   -1    0    0  501    0 -0.00000000000E+00  0.00000000000E+00  0.92946373329E+01  0.92946376827E+01  0.25500000000E-02 0. -1.
          2   -1    0    0    0  501  0.00000000000E+00 -0.00000000000E+00 -0.53755925597E+03  0.53755925598E+03  0.25500000000E-02 0. -1.
          2    1    1    2    0  502  0.47900895776E+02  0.16417613390E+02 -0.73354423078E+02  0.89134197911E+02  0.25500000000E-02 0.  1.
         -2    1    1    2  502    0 -0.47900895776E+02 -0.16417613390E+02 -0.45491019556E+03  0.45771969575E+03  0.25500000000E-02 0.  1.
<mgrwt>
<rscale>  0 0.14137070E+03</rscale>
<asrwt>0</asrwt>
<pdfrwt beam="2">  1        2 0.82701400E-01 0.14137070E+03</pdfrwt>
<pdfrwt beam="1">  1       -2 0.14299447E-02 0.14137070E+03</pdfrwt>
<totfact> 0.67306276E+04</totfact>
</mgrwt>
</event>
<event>
 4    1  0.2196664E-002  0.4748540E+02  0.7818608E-02  0.1459397E+00
         -2   -1    0    0  501    0 -0.00000000000E+00  0.00000000000E+00  0.14166995596E+01  0.14167018545E+01  0.25500000000E-02 0. -1.
          2   -1    0    0    0  501  0.00000000000E+00 -0.00000000000E+00 -0.39790754467E+03  0.39790754468E+03  0.25500000000E-02 0. -1.
          2    1    1    2    0  502  0.19594175070E+02 -0.83052578136E+01 -0.10972388887E+03  0.11176869329E+03  0.25500000000E-02 0.  1.
         -2    1    1    2  502    0 -0.19594175070E+02  0.83052578136E+01 -0.28676695624E+03  0.28755555324E+03  0.25500000000E-02 0.  1.
<mgrwt>
<rscale>  0 0.47485404E+02</rscale>
<asrwt>0</asrwt>
<pdfrwt beam="2">  1        2 0.61216457E-01 0.47485404E+02</pdfrwt>
<pdfrwt beam="1">  1       -2 0.21795427E-03 0.47485404E+02</pdfrwt>
<totfact> 0.10594006E+06</totfact>
</mgrwt>
</event>
<event>
 4    1  0.2196664E-002  0.5641053E+02  0.7818608E-02  0.1413544E+00
         -2   -1    0    0  501    0 -0.00000000000E+00  0.00000000000E+00  0.34676932780E+01  0.34676942156E+01  0.25500000000E-02 0.  1.
          2   -1    0    0    0  501  0.00000000000E+00 -0.00000000000E+00 -0.22941382509E+03  0.22941382511E+03  0.25500000000E-02 0.  1.
          2    1    1    2    0  502 -0.11674747434E+02  0.23653148176E+02 -0.71738106010E+02  0.76433808008E+02  0.25500000000E-02 0.  1.
         -2    1    1    2  502    0  0.11674747434E+02 -0.23653148176E+02 -0.15420802581E+03  0.15644771131E+03  0.25500000000E-02 0.  1.
<mgrwt>
<rscale>  0 0.56410527E+02</rscale>
<asrwt>0</asrwt>
<pdfrwt beam="2">  1        2 0.35294423E-01 0.56410527E+02</pdfrwt>
<pdfrwt beam="1">  1       -2 0.53349153E-03 0.56410527E+02</pdfrwt>
<totfact> 0.56903198E+05</totfact>
</mgrwt>
</event>
<event>
 4    1  0.2196664E-002  0.8484961E+02  0.7818608E-02  0.1315826E+00
         -2   -1    0    0  501    0 -0.00000000000E+00  0.00000000000E+00  0.33477906798E+02  0.33477906895E+02  0.25500000000E-02 0.  1.
          2   -1    0    0    0  501  0.00000000000E+00 -0.00000000000E+00 -0.53762738762E+02  0.53762738822E+02  0.25500000000E-02 0.  1.
          2    1    1    2    0  502  0.16138206712E+02 -0.33622623326E+02  0.10649743474E+02  0.38785816451E+02  0.25500000000E-02 0.  1.
         -2    1    1    2  502    0 -0.16138206712E+02  0.33622623326E+02 -0.30934575438E+02  0.48454829267E+02  0.25500000000E-02 0.  1.
<mgrwt>
<rscale>  0 0.84849607E+02</rscale>
<asrwt>0</asrwt>
<pdfrwt beam="2">  1        2 0.82711906E-02 0.84849607E+02</pdfrwt>
<pdfrwt beam="1">  1       -2 0.51504472E-02 0.84849607E+02</pdfrwt>
<totfact> 0.12616325E+05</totfact>
</mgrwt>
</event>
<event>
 4    1  0.2196664E-002  0.4586293E+02  0.7818608E-02  0.1469025E+00
         -2   -1    0    0  501    0 -0.00000000000E+00  0.00000000000E+00  0.36266117071E+01  0.36266126036E+01  0.25500000000E-02 0.  1.
          2   -1    0    0    0  501  0.00000000000E+00 -0.00000000000E+00 -0.14499816757E+03  0.14499816759E+03  0.25500000000E-02 0.  1.
          2    1    1    2    0  502  0.19858001294E+02 -0.76123644901E+01 -0.98480447029E+02  0.10075061668E+03  0.25500000000E-02 0.  1.
         -2    1    1    2  502    0 -0.19858001294E+02  0.76123644901E+01 -0.42891108833E+02  0.47874163512E+02  0.25500000000E-02 0.  1.
<mgrwt>
<rscale>  0 0.45862931E+02</rscale>
<asrwt>0</asrwt>
<pdfrwt beam="2">  1        2 0.22307406E-01 0.45862931E+02</pdfrwt>
<pdfrwt beam="1">  1       -2 0.55794045E-03 0.45862931E+02</pdfrwt>
<totfact> 0.82503327E+05</totfact>
</mgrwt>
</event>
<event>
 4    1  0.2196664E-002  0.4255599E+02  0.7818608E-02  0.1490203E+00
          2   -1    0    0    0  501  0.00000000000E+00  0.00000000000E+00  0.21520299514E+03  0.21520299515E+03  0.25500000000E-02 0.  1.
         -2   -1    0    0  501    0 -0.00000000000E+00 -0.00000000000E+00 -0.21038407679E+01  0.21038423133E+01  0.25500000000E-02 0.  1.
          2    1    1    2    0  502 -0.16576189854E+02  0.11474268466E+02  0.71794666477E+02  0.74571462692E+02  0.25500000000E-02 0.  1.
         -2    1    1    2  502    0  0.16576189854E+02 -0.11474268466E+02  0.14130448789E+03  0.14273537477E+03  0.25500000000E-02 0.  1.
<mgrwt>
<rscale>  0 0.42555987E+02</rscale>
<asrwt>0</asrwt>
<pdfrwt beam="1">  1        2 0.33108156E-01 0.42555987E+02</pdfrwt>
<pdfrwt beam="2">  1       -2 0.32366790E-03 0.42555987E+02</pdfrwt>
<totfact> 0.11245203E+06</totfact>
</mgrwt>
</event>
<event>
 4    1  0.2196664E-002  0.4683447E+02  0.7818608E-02  0.1463204E+00
         -2   -1    0    0  501    0 -0.00000000000E+00  0.00000000000E+00  0.14399454086E+02  0.14399454312E+02  0.25500000000E-02 0. -1.
          2   -1    0    0    0  501  0.00000000000E+00 -0.00000000000E+00 -0.38082472014E+02  0.38082472099E+02  0.25500000000E-02 0. -1.
          2    1    1    2    0  502  0.14509662733E+02  0.15078741096E+02 -0.23619265148E+02  0.31555798806E+02  0.25500000000E-02 0. -1.
         -2    1    1    2  502    0 -0.14509662733E+02 -0.15078741096E+02 -0.63752778944E-01  0.20926127605E+02  0.25500000000E-02 0. -1.
<mgrwt>
<rscale>  0 0.46834467E+02</rscale>
<asrwt>0</asrwt>
<pdfrwt beam="2">  1        2 0.58588418E-02 0.46834467E+02</pdfrwt>
<pdfrwt beam="1">  1       -2 0.22153007E-02 0.46834467E+02</pdfrwt>
<totfact> 0.57820488E+05</totfact>
</mgrwt>
</event>
<event>
 4    1  0.2196664E-002  0.5324296E+02  0.7818608E-02  0.1428596E+00
         -2   -1    0    0  501    0 -0.00000000000E+00  0.00000000000E+00  0.15150715382E+01  0.15150736841E+01  0.25500000000E-02 0.  1.
          2   -1    0    0    0  501  0.00000000000E+00 -0.00000000000E+00 -0.46776845136E+03  0.46776845137E+03  0.25500000000E-02 0.  1.
          2    1    1    2    0  502 -0.23019711933E+02 -0.11635282643E+02 -0.29120301920E+03  0.29234309524E+03  0.25500000000E-02 0.  1.
         -2    1    1    2  502    0  0.23019711933E+02  0.11635282643E+02 -0.17505036062E+03  0.17694042981E+03  0.25500000000E-02 0.  1.
<mgrwt>
<rscale>  0 0.53242959E+02</rscale>
<asrwt>0</asrwt>
<pdfrwt beam="2">  1        2 0.71964262E-01 0.53242959E+02</pdfrwt>
<pdfrwt beam="1">  1       -2 0.23308847E-03 0.53242959E+02</pdfrwt>
<totfact> 0.84133414E+05</totfact>
</mgrwt>
</event>
<event>
 4    1  0.2196664E-002  0.8400347E+02  0.7818608E-02  0.1318059E+00
          2   -1    0    0    0  501  0.00000000000E+00  0.00000000000E+00  0.73125354279E+01  0.73125358725E+01  0.25500000000E-02 0.  1.
         -2   -1    0    0  501    0 -0.00000000000E+00 -0.00000000000E+00 -0.24124949924E+03  0.24124949925E+03  0.25500000000E-02 0.  1.
          2    1    1    2    0  502  0.19869273890E+02 -0.31483614597E+02 -0.17450765684E+03  0.17843466125E+03  0.25500000000E-02 0.  1.
         -2    1    1    2  502    0 -0.19869273890E+02  0.31483614597E+02 -0.59429306966E+02  0.70127373870E+02  0.25500000000E-02 0.  1.
<mgrwt>
<rscale>  0 0.84003466E+02</rscale>
<asrwt>0</asrwt>
<pdfrwt beam="1">  1        2 0.11250057E-02 0.84003466E+02</pdfrwt>
<pdfrwt beam="2">  1       -2 0.37115301E-01 0.84003466E+02</pdfrwt>
<totfact> 0.70511182E+04</totfact>
</mgrwt>
</event>
<event>
 4    1  0.2196664E-002  0.4424621E+02  0.7818608E-02  0.1479103E+00
          2   -1    0    0    0  501  0.00000000000E+00  0.00000000000E+00  0.11218110981E+04  0.11218110981E+04  0.25500000000E-02 0.  1.
         -2   -1    0    0  501    0 -0.00000000000E+00 -0.00000000000E+00 -0.43628343103E+00  0.43629088312E+00  0.25500000000E-02 0.  1.
          2    1    1    2    0  502  0.68469060480E+01 -0.20827197904E+02  0.63584049660E+03  0.63621835042E+03  0.25500000000E-02 0. -1.
         -2    1    1    2  502    0 -0.68469060480E+01  0.20827197904E+02  0.48553431804E+03  0.48602903853E+03  0.25500000000E-02 0. -1.
<mgrwt>
<rscale>  0 0.44246210E+02</rscale>
<asrwt>0</asrwt>
<pdfrwt beam="1">  1        2 0.17258483E+00 0.44246210E+02</pdfrwt>
<pdfrwt beam="2">  1       -2 0.67121682E-04 0.44246210E+02</pdfrwt>
<totfact> 0.15626476E+06</totfact>
</mgrwt>
</event>
<event>
 4    1  0.2196664E-002  0.9518848E+02  0.7818608E-02  0.1290752E+00
         -2   -1    0    0  501    0 -0.00000000000E+00  0.00000000000E+00  0.58461114269E+02  0.58461114324E+02  0.25500000000E-02 0. -1.
          2   -1    0    0    0  501  0.00000000000E+00 -0.00000000000E+00 -0.38747319307E+02  0.38747319391E+02  0.25500000000E-02 0. -1.
          2    1    1    2    0  502  0.39252385954E+01  0.29221278513E+02 -0.28297971840E+02  0.40866438953E+02  0.25500000000E-02 0. -1.
         -2    1    1    2  502    0 -0.39252385954E+01 -0.29221278513E+02  0.48011766801E+02  0.56341994763E+02  0.25500000000E-02 0. -1.
<mgrwt>
<rscale>  0 0.95188476E+02</rscale>
<asrwt>0</asrwt>
<pdfrwt beam="2">  1        2 0.59611261E-02 0.95188476E+02</pdfrwt>
<pdfrwt beam="1">  1       -2 0.89940175E-02 0.95188476E+02</pdfrwt>
<totfact> 0.83427709E+04</totfact>
</mgrwt>
</event>
<event>
 4    1  0.2196664E-002  0.4621411E+02  0.7818608E-02  0.1466901E+00
          2   -1    0    0    0  501  0.00000000000E+00  0.00000000000E+00  0.14931501619E+04  0.14931501619E+04  0.25500000000E-02 0. -1.
         -2   -1    0    0  501    0 -0.00000000000E+00 -0.00000000000E+00 -0.35758577790E+00  0.35759487001E+00  0.25500000000E-02 0. -1.
          2    1    1    2    0  502 -0.14432167836E+02  0.16963515673E+02  0.94531794454E+03  0.94558027931E+03  0.25500000000E-02 0. -1.
         -2    1    1    2  502    0  0.14432167836E+02 -0.16963515673E+02  0.54747463158E+03  0.54792747747E+03  0.25500000000E-02 0. -1.
<mgrwt>
<rscale>  0 0.46214113E+02</rscale>
<asrwt>0</asrwt>
<pdfrwt beam="1">  1        2 0.22971829E+00 0.46214113E+02</pdfrwt>
<pdfrwt beam="2">  1       -2 0.55013207E-04 0.46214113E+02</pdfrwt>
<totfact> 0.13331799E+06</totfact>
</mgrwt>
</event>
<event>
 4    1  0.2196664E-002  0.4970826E+02  0.7818608E-02  0.1446921E+00
         -2   -1    0    0  501    0 -0.00000000000E+00  0.00000000000E+00  0.10170175903E+01  0.10170207872E+01  0.25500000000E-02 0.  1.
          2   -1    0    0    0  501  0.00000000000E+00 -0.00000000000E+00 -0.60739044239E+03  0.60739044239E+03  0.25500000000E-02 0.  1.
          2    1    1    2    0  502  0.19585305000E+02  0.12667517094E+02 -0.19812762262E+03  0.19949587718E+03  0.25500000000E-02 0.  1.
         -2    1    1    2  502    0 -0.19585305000E+02 -0.12667517094E+02 -0.40824580218E+03  0.40891158600E+03  0.25500000000E-02 0.  1.
<mgrwt>
<rscale>  0 0.49708258E+02</rscale>
<asrwt>0</asrwt>
<pdfrwt beam="2">  1        2 0.93444394E-01 0.49708258E+02</pdfrwt>
<pdfrwt beam="1">  1       -2 0.15646498E-03 0.49708258E+02</pdfrwt>
<totfact> 0.10781055E+06</totfact>
</mgrwt>
</event>
<event>
 4    1  0.2196664E-002  0.4861406E+02  0.7818608E-02  0.1452964E+00
         -2   -1    0    0  501    0 -0.00000000000E+00  0.00000000000E+00  0.69036125603E+02  0.69036125650E+02  0.25500000000E-02 0. -1.
          2   -1    0    0    0  501  0.00000000000E+00 -0.00000000000E+00 -0.85582987169E+01  0.85582990968E+01  0.25500000000E-02 0. -1.
          2    1    1    2    0  502 -0.22074001963E+02  0.94417003591E+01  0.36300961561E+02  0.43522029883E+02  0.25500000000E-02 0.  1.
         -2    1    1    2  502    0  0.22074001963E+02 -0.94417003591E+01  0.24176865325E+02  0.34072394864E+02  0.25500000000E-02 0.  1.
<mgrwt>
<rscale>  0 0.48614064E+02</rscale>
<asrwt>0</asrwt>
<pdfrwt beam="2">  1        2 0.13166614E-02 0.48614064E+02</pdfrwt>
<pdfrwt beam="1">  1       -2 0.10620942E-01 0.48614064E+02</pdfrwt>
<totfact> 0.41076801E+05</totfact>
</mgrwt>
</event>
<event>
 4    1  0.2196664E-002  0.6820786E+02  0.7818608E-02  0.1366296E+00
          2   -1    0    0    0  501  0.00000000000E+00  0.00000000000E+00  0.26017900397E+03  0.26017900399E+03  0.25500000000E-02 0. -1.
         -2   -1    0    0  501    0 -0.00000000000E+00 -0.00000000000E+00 -0.44702985442E+01  0.44702992715E+01  0.25500000000E-02 0. -1.
          2    1    1    2    0  502 -0.23701660004E+02  0.23525816369E+02  0.10101602192E+03  0.10639299514E+03  0.25500000000E-02 0. -1.
         -2    1    1    2  502    0  0.23701660004E+02 -0.23525816369E+02  0.15469268351E+03  0.15825630812E+03  0.25500000000E-02 0. -1.
<mgrwt>
<rscale>  0 0.68207856E+02</rscale>
<asrwt>0</asrwt>
<pdfrwt beam="1">  1        2 0.40027529E-01 0.68207856E+02</pdfrwt>
<pdfrwt beam="2">  1       -2 0.68773846E-03 0.68207856E+02</pdfrwt>
<totfact> 0.36563276E+05</totfact>
</mgrwt>
</event>
<event>
 4    1  0.2196664E-002  0.7776403E+02  0.7818608E-02  0.1335519E+00
          2   -1    0    0    0  501  0.00000000000E+00  0.00000000000E+00  0.53409517473E+02  0.53409517534E+02  0.25500000000E-02 0. -1.
         -2   -1    0    0  501    0 -0.00000000000E+00 -0.00000000000E+00 -0.28306020906E+02  0.28306021021E+02  0.25500000000E-02 0. -1.
          2    1    1    2    0  502 -0.91084758152E+01 -0.27891531020E+02 -0.14257588989E+02  0.32621782364E+02  0.25500000000E-02 0. -1.
         -2    1    1    2  502    0  0.91084758152E+01  0.27891531020E+02  0.39361085555E+02  0.49093756191E+02  0.25500000000E-02 0. -1.
<mgrwt>
<rscale>  0 0.77764026E+02</rscale>
<asrwt>0</asrwt>
<pdfrwt beam="1">  1        2 0.82168488E-02 0.77764026E+02</pdfrwt>
<pdfrwt beam="2">  1       -2 0.43547725E-02 0.77764026E+02</pdfrwt>
<totfact> 0.16050841E+05</totfact>
</mgrwt>
</event>
<event>
 4    1  0.2196664E-002  0.9263713E+02  0.7818608E-02  0.1296588E+00
         -2   -1    0    0  501    0 -0.00000000000E+00  0.00000000000E+00  0.17602680708E+02  0.17602680893E+02  0.25500000000E-02 0. -1.
          2   -1    0    0    0  501  0.00000000000E+00 -0.00000000000E+00 -0.12187971270E+03  0.12187971273E+03  0.25500000000E-02 0. -1.
          2    1    1    2    0  502  0.27471806333E+02  0.33470269384E+02 -0.76900090255E+02  0.88252948753E+02  0.25500000000E-02 0.  1.
         -2    1    1    2  502    0 -0.27471806333E+02 -0.33470269384E+02 -0.27376941736E+02  0.51229444865E+02  0.25500000000E-02 0.  1.
<mgrwt>
<rscale>  0 0.92637135E+02</rscale>
<asrwt>0</asrwt>
<pdfrwt beam="2">  1        2 0.18750725E-01 0.92637135E+02</pdfrwt>
<pdfrwt beam="1">  1       -2 0.27081048E-02 0.92637135E+02</pdfrwt>
<totfact> 0.12495768E+05</totfact>
</mgrwt>
</event>
<event>
 4    1  0.2196664E-002  0.5347127E+02  0.7818608E-02  0.1427470E+00
          2   -1    0    0    0  501  0.00000000000E+00  0.00000000000E+00  0.15329983380E+04  0.15329983380E+04  0.25500000000E-02 0.  1.
         -2   -1    0    0  501    0 -0.00000000000E+00 -0.00000000000E+00 -0.46626844538E+00  0.46627541825E+00  0.25500000000E-02 0.  1.
          2    1    1    2    0  502 -0.17692890211E+02 -0.14786198239E+02  0.11543502695E+04  0.11545805363E+04  0.25500000000E-02 0.  1.
         -2    1    1    2  502    0  0.17692890211E+02  0.14786198239E+02  0.37818180011E+03  0.37888407721E+03  0.25500000000E-02 0.  1.
<mgrwt>
<rscale>  0 0.53471267E+02</rscale>
<asrwt>0</asrwt>
<pdfrwt beam="1">  1        2 0.23584680E+00 0.53471267E+02</pdfrwt>
<pdfrwt beam="2">  1       -2 0.71733869E-04 0.53471267E+02</pdfrwt>
<totfact> 0.91988984E+05</totfact>
</mgrwt>
</event>
<event>
 4    1  0.2196664E-002  0.7450950E+02  0.7818608E-02  0.1345397E+00
         -2   -1    0    0  501    0 -0.00000000000E+00  0.00000000000E+00  0.20992874672E+01  0.20992890160E+01  0.25500000000E-02 0.  1.
          2   -1    0    0    0  501  0.00000000000E+00 -0.00000000000E+00 -0.66113658080E+03  0.66113658081E+03  0.25500000000E-02 0.  1.
          2    1    1    2    0  502  0.13762685144E+02  0.34079141701E+02 -0.38374893443E+03  0.38550492096E+03  0.25500000000E-02 0.  1.
         -2    1    1    2  502    0 -0.13762685144E+02 -0.34079141701E+02 -0.27528835890E+03  0.27773094886E+03  0.25500000000E-02 0.  1.
<mgrwt>
<rscale>  0 0.74509496E+02</rscale>
<asrwt>0</asrwt>
<pdfrwt beam="2">  1        2 0.10171315E+00 0.74509496E+02</pdfrwt>
<pdfrwt beam="1">  1       -2 0.32296795E-03 0.74509496E+02</pdfrwt>
<totfact> 0.39621839E+05</totfact>
</mgrwt>
</event>
<event>
 4    1  0.2196664E-002  0.9852449E+02  0.7818608E-02  0.1283430E+00
          2   -1    0    0    0  501  0.00000000000E+00  0.00000000000E+00  0.19157309106E+03  0.19157309108E+03  0.25500000000E-02 0.  1.
         -2   -1    0    0  501    0 -0.00000000000E+00 -0.00000000000E+00 -0.12667586858E+02  0.12667587115E+02  0.25500000000E-02 0.  1.
          2    1    1    2    0  502  0.14726844633E+02  0.39263207825E+02  0.14304232765E+03  0.14906235926E+03  0.25500000000E-02 0.  1.
         -2    1    1    2  502    0 -0.14726844633E+02 -0.39263207825E+02  0.35863176556E+02  0.55178318938E+02  0.25500000000E-02 0.  1.
<mgrwt>
<rscale>  0 0.98524490E+02</rscale>
<asrwt>0</asrwt>
<pdfrwt beam="1">  1        2 0.29472783E-01 0.98524490E+02</pdfrwt>
<pdfrwt beam="2">  1       -2 0.19488596E-02 0.98524490E+02</pdfrwt>
<totfact> 0.12344903E+05</totfact>
</mgrwt>
</event>
<event>
 4    1  0.2196664E-002  0.4382218E+02  0.7818608E-02  0.1481831E+00
         -2   -1    0    0  501    0 -0.00000000000E+00  0.00000000000E+00  0.91204492330E+01  0.91204495895E+01  0.25500000000E-02 0. -1.
          2   -1    0    0    0  501  0.00000000000E+00 -0.00000000000E+00 -0.52639493355E+02  0.52639493417E+02  0.25500000000E-02 0. -1.
          2    1    1    2    0  502 -0.15188281713E+02 -0.15731115286E+02 -0.23724486794E+02  0.32264580729E+02  0.25500000000E-02 0.  1.
         -2    1    1    2  502    0  0.15188281713E+02  0.15731115286E+02 -0.19794557329E+02  0.29495362277E+02  0.25500000000E-02 0.  1.
<mgrwt>
<rscale>  0 0.43822179E+02</rscale>
<asrwt>0</asrwt>
<pdfrwt beam="2">  1        2 0.80983834E-02 0.43822179E+02</pdfrwt>
<pdfrwt beam="1">  1       -2 0.14031461E-02 0.43822179E+02</pdfrwt>
<totfact> 0.72470736E+05</totfact>
</mgrwt>
</event>
<event>
 4    1  0.2196664E-002  0.4454171E+02  0.7818608E-02  0.1477223E+00
          2   -1    0    0    0  501  0.00000000000E+00  0.00000000000E+00  0.17706200014E+04  0.17706200014E+04  0.25500000000E-02 0.  1.
         -2   -1    0    0  501    0 -0.00000000000E+00 -0.00000000000E+00 -0.28011700301E+00  0.28012860952E+00  0.25500000000E-02 0.  1.
          2    1    1    2    0  502 -0.17813235828E+02  0.13203161629E+02  0.80218855389E+03  0.80249492886E+03  0.25500000000E-02 0.  1.
         -2    1    1    2  502    0  0.17813235828E+02 -0.13203161629E+02  0.96815133051E+03  0.96840520115E+03  0.25500000000E-02 0.  1.
<mgrwt>
<rscale>  0 0.44541713E+02</rscale>
<asrwt>0</asrwt>
<pdfrwt beam="1">  1        2 0.27240890E+00 0.44541713E+02</pdfrwt>
<pdfrwt beam="2">  1       -2 0.43094895E-04 0.44541713E+02</pdfrwt>
<totfact> 0.13441913E+06</totfact>
</mgrwt>
</event>
<event>
 4    1  0.2196664E-002  0.4867337E+02  0.7818608E-02  0.1452631E+00
          2   -1    0    0    0  501  0.00000000000E+00  0.00000000000E+00  0.25443035552E+04  0.25443035552E+04  0.25500000000E-02 0.  1.
         -2   -1    0    0  501    0 -0.00000000000E+00 -0.00000000000E+00 -0.23277744576E+00  0.23279141254E+00  0.25500000000E-02 0.  1.
          2    1    1    2    0  502  0.23255040994E+02  0.69422879983E+01  0.11773280956E+04  0.11775782084E+04  0.25500000000E-02 0. -1.
         -2    1    1    2  502    0 -0.23255040994E+02 -0.69422879983E+01  0.13667426822E+04  0.13669581382E+04  0.25500000000E-02 0. -1.
<mgrwt>
<rscale>  0 0.48673371E+02</rscale>
<asrwt>0</asrwt>
<pdfrwt beam="1">  1        2 0.39144630E+00 0.48673371E+02</pdfrwt>
<pdfrwt beam="2">  1       -2 0.35811619E-04 0.48673371E+02</pdfrwt>
<totfact> 0.72930268E+05</totfact>
</mgrwt>
</event>
<event>
 4    1  0.2196664E-002  0.6319898E+02  0.7818608E-02  0.1384877E+00
         -2   -1    0    0  501    0 -0.00000000000E+00  0.00000000000E+00  0.85569290329E+01  0.85569294129E+01  0.25500000000E-02 0.  1.
          2   -1    0    0    0  501  0.00000000000E+00 -0.00000000000E+00 -0.11669231617E+03  0.11669231620E+03  0.25500000000E-02 0.  1.
          2    1    1    2    0  502 -0.18924125847E+02  0.20992951040E+02 -0.82073980118E+02  0.86804174735E+02  0.25500000000E-02 0. -1.
         -2    1    1    2  502    0  0.18924125847E+02 -0.20992951040E+02 -0.26061407023E+02  0.38445070880E+02  0.25500000000E-02 0. -1.
<mgrwt>
<rscale>  0 0.63198984E+02</rscale>
<asrwt>0</asrwt>
<pdfrwt beam="2">  1        2 0.17952663E-01 0.63198984E+02</pdfrwt>
<pdfrwt beam="1">  1       -2 0.13164507E-02 0.63198984E+02</pdfrwt>
<totfact> 0.34227861E+05</totfact>
</mgrwt>
</event>
<event>
 4    1  0.2196664E-002  0.5425826E+02  0.7818608E-02  0.1423640E+00
         -2   -1    0    0  501    0 -0.00000000000E+00  0.00000000000E+00  0.49088743688E+02  0.49088743754E+02  0.25500000000E-02 0. -1.
          2   -1    0    0    0  501  0.00000000000E+00 -0.00000000000E+00 -0.14993045525E+02  0.14993045742E+02  0.25500000000E-02 0. -1.
          2    1    1    2    0  502  0.43289396009E+01 -0.23245812849E+02  0.32755486100E+02  0.40398383745E+02  0.25500000000E-02 0. -1.
         -2    1    1    2  502    0 -0.43289396009E+01  0.23245812849E+02  0.13402120629E+01  0.23683405751E+02  0.25500000000E-02 0. -1.
<mgrwt>
<rscale>  0 0.54258263E+02</rscale>
<asrwt>0</asrwt>
<pdfrwt beam="2">  1        2 0.23066224E-02 0.54258263E+02</pdfrwt>
<pdfrwt beam="1">  1       -2 0.75521144E-02 0.54258263E+02</pdfrwt>
<totfact> 0.33610128E+05</totfact>
</mgrwt>
</event>
<event>
 4    1  0.2196664E-002  0.4666318E+02  0.7818608E-02  0.1464218E+00
         -2   -1    0    0  501    0 -0.00000000000E+00  0.00000000000E+00  0.12875305035E+02  0.12875305287E+02  0.25500000000E-02 0.  1.
          2   -1    0    0    0  501  0.00000000000E+00 -0.00000000000E+00 -0.42279625859E+02  0.42279625936E+02  0.25500000000E-02 0.  1.
          2    1    1    2    0  502  0.34047939049E+01  0.22859242098E+02 -0.18481818684E+02  0.29592485519E+02  0.25500000000E-02 0.  1.
         -2    1    1    2  502    0 -0.34047939049E+01 -0.22859242098E+02 -0.10922502141E+02  0.25562445704E+02  0.25500000000E-02 0.  1.
<mgrwt>
<rscale>  0 0.46663180E+02</rscale>
<asrwt>0</asrwt>
<pdfrwt beam="2">  1        2 0.65045578E-02 0.46663180E+02</pdfrwt>
<pdfrwt beam="1">  1       -2 0.19808162E-02 0.46663180E+02</pdfrwt>
<totfact> 0.59409206E+05</totfact>
</mgrwt>
</event>
<event>
 4    1  0.2196664E-002  0.5749181E+02  0.7818608E-02  0.1408669E+00
         -2   -1    0    0  501    0 -0.00000000000E+00  0.00000000000E+00  0.58754605751E+02  0.58754605807E+02  0.25500000000E-02 0.  1.
          2   -1    0    0    0  501  0.00000000000E+00 -0.00000000000E+00 -0.14064037796E+02  0.14064038027E+02  0.25500000000E-02 0.  1.
          2    1    1    2    0  502 -0.26217555917E+02  0.11104766062E+02  0.17334487950E+02  0.33334074857E+02  0.25500000000E-02 0.  1.
         -2    1    1    2  502    0  0.26217555917E+02 -0.11104766062E+02  0.27356080005E+02  0.39484568977E+02  0.25500000000E-02 0.  1.
<mgrwt>
<rscale>  0 0.57491808E+02</rscale>
<asrwt>0</asrwt>
<pdfrwt beam="2">  1        2 0.21636982E-02 0.57491808E+02</pdfrwt>
<pdfrwt beam="1">  1       -2 0.90391701E-02 0.57491808E+02</pdfrwt>
<totfact> 0.28248646E+05</totfact>
</mgrwt>
</event>
<event>
 4    1  0.2196664E-002  0.1011074E+03  0.7818608E-02  0.1277984E+00
          2   -1    0    0    0  501  0.00000000000E+00  0.00000000000E+00  0.10220669836E+04  0.10220669836E+04  0.25500000000E-02 0. -1.
         -2   -1    0    0  501    0 -0.00000000000E+00 -0.00000000000E+00 -0.25004968849E+01  0.25004981851E+01  0.25500000000E-02 0. -1.
          2    1    1    2    0  502 -0.36153478063E+02 -0.20703092944E+02  0.79995848130E+03  0.80104261050E+03  0.25500000000E-02 0. -1.
         -2    1    1    2  502    0  0.36153478063E+02  0.20703092944E+02  0.21960800541E+03  0.22352487127E+03  0.25500000000E-02 0. -1.
<mgrwt>
<rscale>  0 0.10110739E+03</rscale>
<asrwt>0</asrwt>
<pdfrwt beam="1">  1        2 0.15724103E+00 0.10110739E+03</pdfrwt>
<pdfrwt beam="2">  1       -2 0.38469203E-03 0.10110739E+03</pdfrwt>
<totfact> 0.19031902E+05</totfact>
</mgrwt>
</event>
<event>
 4    1  0.2196664E-002  0.4670452E+02  0.7818608E-02  0.1463973E+00
         -2   -1    0    0  501    0 -0.00000000000E+00  0.00000000000E+00  0.71359757158E+00  0.71360212770E+00  0.25500000000E-02 0.  1.
          2   -1    0    0    0  501  0.00000000000E+00 -0.00000000000E+00 -0.76419299181E+03  0.76419299182E+03  0.25500000000E-02 0.  1.
          2    1    1    2    0  502  0.10073281725E+01  0.22822042631E+02 -0.30240111961E+03  0.30326275322E+03  0.25500000000E-02 0.  1.
         -2    1    1    2  502    0 -0.10073281725E+01 -0.22822042631E+02 -0.46107827463E+03  0.46164384072E+03  0.25500000000E-02 0.  1.
<mgrwt>
<rscale>  0 0.46704518E+02</rscale>
<asrwt>0</asrwt>
<pdfrwt beam="2">  1        2 0.11756750E+00 0.46704518E+02</pdfrwt>
<pdfrwt beam="1">  1       -2 0.10978520E-03 0.46704518E+02</pdfrwt>
<totfact> 0.13248770E+06</totfact>
</mgrwt>
</event>
<event>
 4    1  0.2196664E-002  0.4215774E+02  0.7818608E-02  0.1492908E+00
         -2   -1    0    0  501    0 -0.00000000000E+00  0.00000000000E+00  0.36871064066E+03  0.36871064067E+03  0.25500000000E-02 0.  1.
          2   -1    0    0    0  501  0.00000000000E+00 -0.00000000000E+00 -0.12050596192E+01  0.12050623172E+01  0.25500000000E-02 0.  1.
          2    1    1    2    0  502  0.20029038512E+02 -0.58258492974E+01  0.15711524686E+03  0.15849386015E+03  0.25500000000E-02 0. -1.
         -2    1    1    2  502    0 -0.20029038512E+02  0.58258492974E+01  0.21039033418E+03  0.21142184283E+03  0.25500000000E-02 0. -1.
<mgrwt>
<rscale>  0 0.42157742E+02</rscale>
<asrwt>0</asrwt>
<pdfrwt beam="2">  1        2 0.18539372E-03 0.42157742E+02</pdfrwt>
<pdfrwt beam="1">  1       -2 0.56724799E-01 0.42157742E+02</pdfrwt>
<totfact> 0.31132267E+05</totfact>
</mgrwt>
</event>
<event>
 4    1  0.2196664E-002  0.7077848E+02  0.7818608E-02  0.1357466E+00
          2   -1    0    0    0  501  0.00000000000E+00  0.00000000000E+00  0.43224261523E+02  0.43224261598E+02  0.25500000000E-02 0.  1.
         -2   -1    0    0  501    0 -0.00000000000E+00 -0.00000000000E+00 -0.28974425666E+02  0.28974425779E+02  0.25500000000E-02 0.  1.
          2    1    1    2    0  502  0.27003922760E+02  0.28143777215E+01 -0.16030022326E+02  0.31529259247E+02  0.25500000000E-02 0. -1.
         -2    1    1    2  502    0 -0.27003922760E+02 -0.28143777215E+01  0.30279858182E+02  0.40669428130E+02  0.25500000000E-02 0. -1.
<mgrwt>
<rscale>  0 0.70778476E+02</rscale>
<asrwt>0</asrwt>
<pdfrwt beam="1">  1        2 0.66498864E-02 0.70778476E+02</pdfrwt>
<pdfrwt beam="2">  1       -2 0.44576040E-02 0.70778476E+02</pdfrwt>
<totfact> 0.19813655E+05</totfact>
</mgrwt>
</event>
<event>
 4    1  0.2196664E-002  0.4821291E+02  0.7818608E-02  0.1455226E+00
          2   -1    0    0    0  501  0.00000000000E+00  0.00000000000E+00  0.57655428280E+01  0.57655433919E+01  0.25500000000E-02 0. -1.
         -2   -1    0    0  501    0 -0.00000000000E+00 -0.00000000000E+00 -0.10079211078E+03  0.10079211081E+03  0.25500000000E-02 0. -1.
          2    1    1    2    0  502  0.75046481199E+01 -0.21597507259E+02 -0.30630708462E+02  0.38223191528E+02  0.25500000000E-02 0. -1.
         -2    1    1    2  502    0 -0.75046481199E+01  0.21597507259E+02 -0.64395859489E+02  0.68334462675E+02  0.25500000000E-02 0. -1.
<mgrwt>
<rscale>  0 0.48212914E+02</rscale>
<asrwt>0</asrwt>
<pdfrwt beam="1">  1        2 0.88700670E-03 0.48212914E+02</pdfrwt>
<pdfrwt beam="2">  1       -2 0.15506477E-01 0.48212914E+02</pdfrwt>
<totfact> 0.38492592E+05</totfact>
</mgrwt>
</event>
<event>
 4    1  0.2196664E-002  0.6329797E+02  0.7818608E-02  0.1384491E+00
          2   -1    0    0    0  501  0.00000000000E+00  0.00000000000E+00  0.70688535499E+02  0.70688535545E+02  0.25500000000E-02 0.  1.
         -2   -1    0    0  501    0 -0.00000000000E+00 -0.00000000000E+00 -0.14170026136E+02  0.14170026365E+02  0.25500000000E-02 0.  1.
          2    1    1    2    0  502 -0.26788988108E+02 -0.84938638677E+01  0.47772665986E+02  0.55425835395E+02  0.25500000000E-02 0. -1.
         -2    1    1    2  502    0  0.26788988108E+02  0.84938638677E+01  0.87458433771E+01  0.29432726515E+02  0.25500000000E-02 0. -1.
<mgrwt>
<rscale>  0 0.63297975E+02</rscale>
<asrwt>0</asrwt>
<pdfrwt beam="1">  1        2 0.10875159E-01 0.63297975E+02</pdfrwt>
<pdfrwt beam="2">  1       -2 0.21800041E-02 0.63297975E+02</pdfrwt>
<totfact> 0.29872273E+05</totfact>
</mgrwt>
</event>
<event>
 4    1  0.2196664E-002  0.1043814E+03  0.7818608E-02  0.1271343E+00
         -2   -1    0    0  501    0 -0.00000000000E+00  0.00000000000E+00  0.14537864265E+02  0.14537864488E+02  0.25500000000E-02 0. -1.
          2   -1    0    0    0  501  0.00000000000E+00 -0.00000000000E+00 -0.18736365981E+03  0.18736365982E+03  0.25500000000E-02 0. -1.
          2    1    1    2    0  502  0.27601543734E+02 -0.10017257303E+02 -0.16987104893E+03  0.17239015033E+03  0.25500000000E-02 0. -1.
         -2    1    1    2  502    0 -0.27601543734E+02  0.10017257303E+02 -0.29547466157E+01  0.29511373984E+02  0.25500000000E-02 0. -1.
<mgrwt>
<rscale>  0 0.10438137E+03</rscale>
<asrwt>0</asrwt>
<pdfrwt beam="2">  1        2 0.28825177E-01 0.10438137E+03</pdfrwt>
<pdfrwt beam="1">  1       -2 0.22365947E-02 0.10438137E+03</pdfrwt>
<totfact> 0.10457268E+05</totfact>
</mgrwt>
</event>
<event>
 4    1  0.2196664E-002  0.4424488E+02  0.7818608E-02  0.1479111E+00
         -2   -1    0    0  501    0 -0.00000000000E+00  0.00000000000E+00  0.50959851407E+00  0.50960489405E+00  0.25500000000E-02 0.  1.
          2   -1    0    0    0  501  0.00000000000E+00 -0.00000000000E+00 -0.96036261618E+03  0.96036261619E+03  0.25500000000E-02 0.  1.
          2    1    1    2    0  502  0.14840662475E+02  0.14600868998E+02 -0.31745127973E+03  0.31813321997E+03  0.25500000000E-02 0.  1.
         -2    1    1    2  502    0 -0.14840662475E+02 -0.14600868998E+02 -0.64240173794E+03  0.64273900111E+03  0.25500000000E-02 0.  1.
<mgrwt>
<rscale>  0 0.44244883E+02</rscale>
<asrwt>0</asrwt>
<pdfrwt beam="2">  1        2 0.14774665E+00 0.44244883E+02</pdfrwt>
<pdfrwt beam="1">  1       -2 0.78401031E-04 0.44244883E+02</pdfrwt>
<totfact> 0.15585888E+06</totfact>
</mgrwt>
</event>
<event>
 4    1  0.2196664E-002  0.5368160E+02  0.7818608E-02  0.1426439E+00
         -2   -1    0    0  501    0 -0.00000000000E+00  0.00000000000E+00  0.48865673809E+00  0.48866339149E+00  0.25500000000E-02 0.  1.
          2   -1    0    0    0  501  0.00000000000E+00 -0.00000000000E+00 -0.14742940641E+04  0.14742940641E+04  0.25500000000E-02 0.  1.
          2    1    1    2    0  502  0.16746812215E+02  0.11134487920E+02 -0.24853895684E+03  0.24935124947E+03  0.25500000000E-02 0. -1.
         -2    1    1    2  502    0 -0.16746812215E+02 -0.11134487920E+02 -0.12252664505E+04  0.12254314780E+04  0.25500000000E-02 0. -1.
<mgrwt>
<rscale>  0 0.53681603E+02</rscale>
<asrwt>0</asrwt>
<pdfrwt beam="2">  1        2 0.22681091E+00 0.53681603E+02</pdfrwt>
<pdfrwt beam="1">  1       -2 0.75179652E-04 0.53681603E+02</pdfrwt>
<totfact> 0.92411734E+05</totfact>
</mgrwt>
</event>
<event>
 4    1  0.2196664E-002  0.6541620E+02  0.7818608E-02  0.1376413E+00
         -2   -1    0    0  501    0 -0.00000000000E+00  0.00000000000E+00  0.79198029706E+02  0.79198029747E+02  0.25500000000E-02 0. -1.
          2   -1    0    0    0  501  0.00000000000E+00 -0.00000000000E+00 -0.13508163667E+02  0.13508163908E+02  0.25500000000E-02 0. -1.
          2    1    1    2    0  502  0.31679551206E+01 -0.24499605760E+02  0.24646814522E+01  0.24826221686E+02  0.25500000000E-02 0. -1.
         -2    1    1    2  502    0 -0.31679551206E+01  0.24499605760E+02  0.63225184586E+02  0.67879971969E+02  0.25500000000E-02 0. -1.
<mgrwt>
<rscale>  0 0.65416205E+02</rscale>
<asrwt>0</asrwt>
<pdfrwt beam="2">  1        2 0.20781790E-02 0.65416205E+02</pdfrwt>
<pdfrwt beam="1">  1       -2 0.12184312E-01 0.65416205E+02</pdfrwt>
<totfact> 0.19319459E+05</totfact>
</mgrwt>
</event>
<event>
 4    1  0.2196664E-002  0.4363317E+02  0.7818608E-02  0.1483059E+00
         -2   -1    0    0  501    0 -0.00000000000E+00  0.00000000000E+00  0.81459625720E+00  0.81460024843E+00  0.25500000000E-02 0. -1.
          2   -1    0    0    0  501  0.00000000000E+00 -0.00000000000E+00 -0.58429221405E+03  0.58429221405E+03  0.25500000000E-02 0. -1.
          2    1    1    2    0  502  0.18513168948E+02 -0.11520892732E+02 -0.30117354089E+03  0.30196186868E+03  0.25500000000E-02 0.  1.
         -2    1    1    2  502    0 -0.18513168948E+02  0.11520892732E+02 -0.28230407690E+03  0.28314494562E+03  0.25500000000E-02 0.  1.
<mgrwt>
<rscale>  0 0.43633172E+02</rscale>
<asrwt>0</asrwt>
<pdfrwt beam="2">  1        2 0.89890775E-01 0.43633172E+02</pdfrwt>
<pdfrwt beam="1">  1       -2 0.12532328E-03 0.43633172E+02</pdfrwt>
<totfact> 0.14680808E+06</totfact>
</mgrwt>
</event>
<event>
 4    1  0.2196664E-002  0.5989818E+02  0.7818608E-02  0.1398260E+00
          2   -1    0    0    0  501  0.00000000000E+00  0.00000000000E+00  0.23080850935E+03  0.23080850936E+03  0.25500000000E-02 0. -1.
         -2   -1    0    0  501    0 -0.00000000000E+00 -0.00000000000E+00 -0.38861124575E+01  0.38861132941E+01  0.25500000000E-02 0. -1.
          2    1    1    2    0  502  0.29782801128E+02  0.28339402898E+01  0.10805822673E+03  0.11212326623E+03  0.25500000000E-02 0.  1.
         -2    1    1    2  502    0 -0.29782801128E+02 -0.28339402898E+01  0.11886417016E+03  0.12257135642E+03  0.25500000000E-02 0.  1.
<mgrwt>
<rscale>  0 0.59898178E+02</rscale>
<asrwt>0</asrwt>
<pdfrwt beam="1">  1        2 0.35509007E-01 0.59898178E+02</pdfrwt>
<pdfrwt beam="2">  1       -2 0.59786343E-03 0.59898178E+02</pdfrwt>
<totfact> 0.48951090E+05</totfact>
</mgrwt>
</event>
<event>
 4    1  0.2196664E-002  0.4303494E+02  0.7818608E-02  0.1486996E+00
         -2   -1    0    0  501    0 -0.00000000000E+00  0.00000000000E+00  0.73670780530E+01  0.73670784943E+01  0.25500000000E-02 0.  1.
          2   -1    0    0    0  501  0.00000000000E+00 -0.00000000000E+00 -0.62847373815E+02  0.62847373867E+02  0.25500000000E-02 0.  1.
          2    1    1    2    0  502  0.13922043940E+02 -0.16390309772E+02 -0.28934604489E+02  0.36051031959E+02  0.25500000000E-02 0. -1.
         -2    1    1    2  502    0 -0.13922043940E+02  0.16390309772E+02 -0.26545691274E+02  0.34163420402E+02  0.25500000000E-02 0. -1.
<mgrwt>
<rscale>  0 0.43034940E+02</rscale>
<asrwt>0</asrwt>
<pdfrwt beam="2">  1        2 0.96688264E-02 0.43034940E+02</pdfrwt>
<pdfrwt beam="1">  1       -2 0.11333967E-02 0.43034940E+02</pdfrwt>
<totfact> 0.78497498E+05</totfact>
</mgrwt>
</event>
<event>
 4    1  0.2196664E-002  0.7530616E+02  0.7818608E-02  0.1342926E+00
          2   -1    0    0    0  501  0.00000000000E+00  0.00000000000E+00  0.17438805102E+04  0.17438805102E+04  0.25500000000E-02 0.  1.
         -2   -1    0    0  501    0 -0.00000000000E+00 -0.00000000000E+00 -0.81298620345E+00  0.81299020259E+00  0.25500000000E-02 0.  1.
          2    1    1    2    0  502 -0.22057493847E+02 -0.75385692548E+01  0.15566141841E+04  0.15567887080E+04  0.25500000000E-02 0. -1.
         -2    1    1    2  502    0  0.22057493847E+02  0.75385692548E+01  0.18645333989E+03  0.18790479244E+03  0.25500000000E-02 0. -1.
<mgrwt>
<rscale>  0 0.75306156E+02</rscale>
<asrwt>0</asrwt>
<pdfrwt beam="1">  1        2 0.26828593E+00 0.75306156E+02</pdfrwt>
<pdfrwt beam="2">  1       -2 0.12507668E-03 0.75306156E+02</pdfrwt>
<totfact> 0.36081919E+05</totfact>
</mgrwt>
</event>
<event>
 4    1  0.2196664E-002  0.5089387E+02  0.7818608E-02  0.1440579E+00
         -2   -1    0    0  501    0 -0.00000000000E+00  0.00000000000E+00  0.62705249122E+01  0.62705254307E+01  0.25500000000E-02 0. -1.
          2   -1    0    0    0  501  0.00000000000E+00 -0.00000000000E+00 -0.10326828616E+03  0.10326828619E+03  0.25500000000E-02 0. -1.
          2    1    1    2    0  502 -0.16240485218E+02  0.17824311242E+02 -0.65995754079E+02  0.70263069918E+02  0.25500000000E-02 0. -1.
         -2    1    1    2  502    0  0.16240485218E+02 -0.17824311242E+02 -0.31002007166E+02  0.39275741701E+02  0.25500000000E-02 0. -1.
<mgrwt>
<rscale>  0 0.50893866E+02</rscale>
<asrwt>0</asrwt>
<pdfrwt beam="2">  1        2 0.15887427E-01 0.50893866E+02</pdfrwt>
<pdfrwt beam="1">  1       -2 0.96469626E-03 0.50893866E+02</pdfrwt>
<totfact> 0.57731283E+05</totfact>
</mgrwt>
</event>
<event>
 4    1  0.2196664E-002  0.4837347E+02  0.7818608E-02  0.1454317E+00
          2   -1    0    0    0  501  0.00000000000E+00  0.00000000000E+00  0.16688967875E+04  0.16688967875E+04  0.25500000000E-02 0.  1.
         -2   -1    0    0  501    0 -0.00000000000E+00 -0.00000000000E+00 -0.35052524558E+00  0.35053452082E+00  0.25500000000E-02 0.  1.
          2    1    1    2    0  502 -0.20198526738E+02 -0.63302115478E+01  0.43045267666E+03  0.43097280530E+03  0.25500000000E-02 0. -1.
         -2    1    1    2  502    0  0.20198526738E+02  0.63302115478E+01  0.12380935856E+04  0.12382745167E+04  0.25500000000E-02 0. -1.
<mgrwt>
<rscale>  0 0.48373472E+02</rscale>
<asrwt>0</asrwt>
<pdfrwt beam="1">  1        2 0.25675957E+00 0.48373472E+02</pdfrwt>
<pdfrwt beam="2">  1       -2 0.53926370E-04 0.48373472E+02</pdfrwt>
<totfact> 0.11347873E+06</totfact>
</mgrwt>
</event>
<event>
 4    1  0.2196664E-002  0.1017572E+03  0.7818608E-02  0.1276644E+00
          2   -1    0    0    0  501  0.00000000000E+00  0.00000000000E+00  0.38322501363E+03  0.38322501364E+03  0.25500000000E-02 0. -1.
         -2   -1    0    0  501    0 -0.00000000000E+00 -0.00000000000E+00 -0.67548563836E+01  0.67548568649E+01  0.25500000000E-02 0. -1.
          2    1    1    2    0  502  0.49978915488E+02 -0.59453510713E+01  0.15971201809E+03  0.16745497282E+03  0.25500000000E-02 0.  1.
         -2    1    1    2  502    0 -0.49978915488E+02  0.59453510713E+01  0.21675813916E+03  0.22252489769E+03  0.25500000000E-02 0.  1.
<mgrwt>
<rscale>  0 0.10175716E+03</rscale>
<asrwt>0</asrwt>
<pdfrwt beam="1">  1        2 0.58957716E-01 0.10175716E+03</pdfrwt>
<pdfrwt beam="2">  1       -2 0.10392083E-02 0.10175716E+03</pdfrwt>
<totfact> 0.14657646E+05</totfact>
</mgrwt>
</event>
<event>
 4    1  0.2196664E-002  0.6600273E+02  0.7818608E-02  0.1374239E+00
         -2   -1    0    0  501    0 -0.00000000000E+00  0.00000000000E+00  0.48752556362E+01  0.48752563031E+01  0.25500000000E-02 0.  1.
          2   -1    0    0    0  501  0.00000000000E+00 -0.00000000000E+00 -0.22339138009E+03  0.22339138010E+03  0.25500000000E-02 0.  1.
          2    1    1    2    0  502 -0.29160108017E+02  0.11010709984E+02 -0.14675346549E+03  0.15002708847E+03  0.25500000000E-02 0.  1.
         -2    1    1    2  502    0  0.29160108017E+02 -0.11010709984E+02 -0.71762658958E+02  0.78239547935E+02  0.25500000000E-02 0.  1.
<mgrwt>
<rscale>  0 0.66002732E+02</rscale>
<asrwt>0</asrwt>
<pdfrwt beam="2">  1        2 0.34367897E-01 0.66002732E+02</pdfrwt>
<pdfrwt beam="1">  1       -2 0.75003956E-03 0.66002732E+02</pdfrwt>
<totfact> 0.37716934E+05</totfact>
</mgrwt>
</event>
<event>
 4    1  0.2196664E-002  0.7558703E+02  0.7818608E-02  0.1342063E+00
          2   -1    0    0    0  501  0.00000000000E+00  0.00000000000E+00  0.18972209694E+02  0.18972209865E+02  0.25500000000E-02 0. -1.
         -2   -1    0    0  501    0 -0.00000000000E+00 -0.00000000000E+00 -0.75286418214E+02  0.75286418257E+02  0.25500000000E-02 0. -1.
          2    1    1    2    0  502  0.67898376031E+01 -0.36687544304E+02 -0.35667435401E+02  0.51616312889E+02  0.25500000000E-02 0. -1.
         -2    1    1    2  502    0 -0.67898376031E+01  0.36687544304E+02 -0.20646773120E+02  0.42642315233E+02  0.25500000000E-02 0. -1.
<mgrwt>
<rscale>  0 0.75587029E+02</rscale>
<asrwt>0</asrwt>
<pdfrwt beam="1">  1        2 0.29188015E-02 0.75587029E+02</pdfrwt>
<pdfrwt beam="2">  1       -2 0.11582526E-01 0.75587029E+02</pdfrwt>
<totfact> 0.13706935E+05</totfact>
</mgrwt>
</event>
<event>
 4    1  0.2196664E-002  0.5077343E+02  0.7818608E-02  0.1441214E+00
          2   -1    0    0    0  501  0.00000000000E+00  0.00000000000E+00  0.17796993567E+01  0.17797011835E+01  0.25500000000E-02 0. -1.
         -2   -1    0    0  501    0 -0.00000000000E+00 -0.00000000000E+00 -0.36213133359E+03  0.36213133360E+03  0.25500000000E-02 0. -1.
          2    1    1    2    0  502  0.19317825824E+02 -0.16011444399E+02 -0.20787972642E+03  0.20938845577E+03  0.25500000000E-02 0. -1.
         -2    1    1    2  502    0 -0.19317825824E+02  0.16011444399E+02 -0.15247190781E+03  0.15452257901E+03  0.25500000000E-02 0. -1.
<mgrwt>
<rscale>  0 0.50773428E+02</rscale>
<asrwt>0</asrwt>
<pdfrwt beam="1">  1        2 0.27380033E-03 0.50773428E+02</pdfrwt>
<pdfrwt beam="2">  1       -2 0.55712454E-01 0.50773428E+02</pdfrwt>
<totfact> 0.20013591E+05</totfact>
</mgrwt>
</event>
<event>
 4    1  0.2196664E-002  0.4294087E+02  0.7818608E-02  0.1487622E+00
         -2   -1    0    0  501    0 -0.00000000000E+00  0.00000000000E+00  0.84281087927E+00  0.84281473689E+00  0.25500000000E-02 0. -1.
          2   -1    0    0    0  501  0.00000000000E+00 -0.00000000000E+00 -0.54695367070E+03  0.54695367070E+03  0.25500000000E-02 0. -1.
          2    1    1    2    0  502  0.73854646762E+01  0.20088605145E+02 -0.29471382842E+03  0.29548999614E+03  0.25500000000E-02 0. -1.
         -2    1    1    2  502    0 -0.73854646762E+01 -0.20088605145E+02 -0.25139703139E+03  0.25230648930E+03  0.25500000000E-02 0. -1.
<mgrwt>
<rscale>  0 0.42940869E+02</rscale>
<asrwt>0</asrwt>
<pdfrwt beam="2">  1        2 0.84146435E-01 0.42940869E+02</pdfrwt>
<pdfrwt beam="1">  1       -2 0.12966395E-03 0.42940869E+02</pdfrwt>
<totfact> 0.14980022E+06</totfact>
</mgrwt>
</event>
<event>
 4    1  0.2196664E-002  0.1048411E+03  0.7818608E-02  0.1270433E+00
          2   -1    0    0    0  501  0.00000000000E+00  0.00000000000E+00  0.14409318981E+04  0.14409318981E+04  0.25500000000E-02 0. -1.
         -2   -1    0    0  501    0 -0.00000000000E+00 -0.00000000000E+00 -0.19070381702E+01  0.19070398751E+01  0.25500000000E-02 0. -1.
          2    1    1    2    0  502  0.44356862557E+02 -0.25082116424E+01  0.33661509617E+03  0.33953430660E+03  0.25500000000E-02 0.  1.
         -2    1    1    2  502    0 -0.44356862557E+02  0.25082116424E+01  0.11024097637E+04  0.11033046313E+04  0.25500000000E-02 0.  1.
<mgrwt>
<rscale>  0 0.10484109E+03</rscale>
<asrwt>0</asrwt>
<pdfrwt beam="1">  1        2 0.22168201E+00 0.10484109E+03</pdfrwt>
<pdfrwt beam="2">  1       -2 0.29339038E-03 0.10484109E+03</pdfrwt>
<totfact> 0.16523661E+05</totfact>
</mgrwt>
</event>
<event>
 4    1  0.2196664E-002  0.4428432E+02  0.7818608E-02  0.1478860E+00
          2   -1    0    0    0  501  0.00000000000E+00  0.00000000000E+00  0.19700147474E+04  0.19700147474E+04  0.25500000000E-02 0.  1.
         -2   -1    0    0  501    0 -0.00000000000E+00 -0.00000000000E+00 -0.24886232861E+00  0.24887539272E+00  0.25500000000E-02 0.  1.
          2    1    1    2    0  502 -0.21017289998E+02 -0.29860766356E+01  0.70479245565E+03  0.70511208235E+03  0.25500000000E-02 0. -1.
         -2    1    1    2  502    0  0.21017289998E+02  0.29860766356E+01  0.12649734294E+04  0.12651515405E+04  0.25500000000E-02 0. -1.
<mgrwt>
<rscale>  0 0.44284324E+02</rscale>
<asrwt>0</asrwt>
<pdfrwt beam="1">  1        2 0.30306575E+00 0.44284324E+02</pdfrwt>
<pdfrwt beam="2">  1       -2 0.38289215E-04 0.44284324E+02</pdfrwt>
<totfact> 0.12604194E+06</totfact>
</mgrwt>
</event>
<event>
 4    1  0.2196664E-002  0.6357266E+02  0.7818608E-02  0.1383422E+00
         -2   -1    0    0  501    0 -0.00000000000E+00  0.00000000000E+00  0.83012706488E+00  0.83013098144E+00  0.25500000000E-02 0.  1.
          2   -1    0    0    0  501  0.00000000000E+00 -0.00000000000E+00 -0.12171250271E+04  0.12171250271E+04  0.25500000000E-02 0.  1.
          2    1    1    2    0  502  0.22517986423E+02 -0.22295006126E+02 -0.56027504389E+03  0.56117043028E+03  0.25500000000E-02 0.  1.
         -2    1    1    2  502    0 -0.22517986423E+02  0.22295006126E+02 -0.65601985617E+03  0.65678472783E+03  0.25500000000E-02 0.  1.
<mgrwt>
<rscale>  0 0.63572661E+02</rscale>
<asrwt>0</asrwt>
<pdfrwt beam="2">  1        2 0.18724858E+00 0.63572661E+02</pdfrwt>
<pdfrwt beam="1">  1       -2 0.12771313E-03 0.63572661E+02</pdfrwt>
<totfact> 0.63060419E+05</totfact>
</mgrwt>
</event>
<event>
 4    1  0.2196664E-002  0.4542769E+02  0.7818608E-02  0.1471689E+00
         -2   -1    0    0  501    0 -0.00000000000E+00  0.00000000000E+00  0.75483910614E+01  0.75483914922E+01  0.25500000000E-02 0. -1.
          2   -1    0    0    0  501  0.00000000000E+00 -0.00000000000E+00 -0.68348177257E+02  0.68348177304E+02  0.25500000000E-02 0. -1.
          2    1    1    2    0  502 -0.18005570085E+02 -0.12804070408E+02 -0.39204718721E+02  0.45001719407E+02  0.25500000000E-02 0.  1.
         -2    1    1    2  502    0  0.18005570085E+02  0.12804070408E+02 -0.21595067475E+02  0.30894849390E+02  0.25500000000E-02 0.  1.
<mgrwt>
<rscale>  0 0.45427691E+02</rscale>
<asrwt>0</asrwt>
<pdfrwt beam="2">  1        2 0.10515104E-01 0.45427691E+02</pdfrwt>
<pdfrwt beam="1">  1       -2 0.11612910E-02 0.45427691E+02</pdfrwt>
<totfact> 0.69720188E+05</totfact>
</mgrwt>
</event>
<event>
 4    1  0.2196664E-002  0.5794579E+02  0.7818608E-02  0.1406660E+00
          2   -1    0    0    0  501  0.00000000000E+00  0.00000000000E+00  0.24910716869E+03  0.24910716870E+03  0.25500000000E-02 0. -1.
         -2   -1    0    0  501    0 -0.00000000000E+00 -0.00000000000E+00 -0.33697483849E+01  0.33697493498E+01  0.25500000000E-02 0. -1.
          2    1    1    2    0  502 -0.16338626487E+01 -0.27152280380E+02  0.16633366044E+03  0.16854317678E+03  0.25500000000E-02 0. -1.
         -2    1    1    2  502    0  0.16338626487E+01  0.27152280380E+02  0.79403759866E+02  0.83933741274E+02  0.25500000000E-02 0. -1.
<mgrwt>
<rscale>  0 0.57945789E+02</rscale>
<asrwt>0</asrwt>
<pdfrwt beam="1">  1        2 0.38324189E-01 0.57945789E+02</pdfrwt>
<pdfrwt beam="2">  1       -2 0.51842278E-03 0.57945789E+02</pdfrwt>
<totfact> 0.54695307E+05</totfact>
</mgrwt>
</event>
<event>
 4    1  0.2196664E-002  0.4064742E+02  0.7818608E-02  0.1503500E+00
         -2   -1    0    0  501    0 -0.00000000000E+00  0.00000000000E+00  0.39591324809E+02  0.39591324891E+02  0.25500000000E-02 0.  1.
          2   -1    0    0    0  501  0.00000000000E+00 -0.00000000000E+00 -0.10432922934E+02  0.10432923246E+02  0.25500000000E-02 0.  1.
          2    1    1    2    0  502  0.19998637516E+02  0.16797668998E+01  0.18526258340E+02  0.27312806042E+02  0.25500000000E-02 0. -1.
         -2    1    1    2  502    0 -0.19998637516E+02 -0.16797668998E+01  0.10632143535E+02  0.22711442094E+02  0.25500000000E-02 0. -1.
<mgrwt>
<rscale>  0 0.40647423E+02</rscale>
<asrwt>0</asrwt>
<pdfrwt beam="2">  1        2 0.16050651E-02 0.40647423E+02</pdfrwt>
<pdfrwt beam="1">  1       -2 0.60909732E-02 0.40647423E+02</pdfrwt>
<totfact> 0.69266887E+05</totfact>
</mgrwt>
</event>
<event>
 4    1  0.2196664E-002  0.5294442E+02  0.7818608E-02  0.1430078E+00
          2   -1    0    0    0  501  0.00000000000E+00  0.00000000000E+00  0.24292962861E+04  0.24292962861E+04  0.25500000000E-02 0.  1.
         -2   -1    0    0  501    0 -0.00000000000E+00 -0.00000000000E+00 -0.28846391129E+00  0.28847518197E+00  0.25500000000E-02 0.  1.
          2    1    1    2    0  502  0.44190561810E+01 -0.23331058329E+02  0.67755614621E+03  0.67797212156E+03  0.25500000000E-02 0. -1.
         -2    1    1    2  502    0 -0.44190561810E+01  0.23331058329E+02  0.17514516760E+04  0.17516126398E+04  0.25500000000E-02 0. -1.
<mgrwt>
<rscale>  0 0.52944424E+02</rscale>
<asrwt>0</asrwt>
<pdfrwt beam="1">  1        2 0.37372097E+00 0.52944424E+02</pdfrwt>
<pdfrwt beam="2">  1       -2 0.44381939E-04 0.52944424E+02</pdfrwt>
<totfact> 0.63466712E+05</totfact>
</mgrwt>
</event>
<event>
 4    1  0.2196664E-002  0.7283224E+02  0.7818608E-02  0.1350718E+00
          2   -1    0    0    0  501  0.00000000000E+00  0.00000000000E+00  0.17739351478E+03  0.17739351480E+03  0.25500000000E-02 0.  1.
         -2   -1    0    0  501    0 -0.00000000000E+00 -0.00000000000E+00 -0.74756618136E+01  0.74756622485E+01  0.25500000000E-02 0.  1.
          2    1    1    2    0  502  0.26887458058E+02  0.21345602148E+02  0.54124862501E+02  0.64094234367E+02  0.25500000000E-02 0.  1.
         -2    1    1    2  502    0 -0.26887458058E+02 -0.21345602148E+02  0.11579299047E+03  0.12077494268E+03  0.25500000000E-02 0.  1.
<mgrwt>
<rscale>  0 0.72832245E+02</rscale>
<asrwt>0</asrwt>
<pdfrwt beam="1">  1        2 0.27291310E-01 0.72832245E+02</pdfrwt>
<pdfrwt beam="2">  1       -2 0.11501018E-02 0.72832245E+02</pdfrwt>
<totfact> 0.26951502E+05</totfact>
</mgrwt>
</event>
<event>
 4    1  0.2196664E-002  0.8938890E+02  0.7818608E-02  0.1304338E+00
         -2   -1    0    0  501    0 -0.00000000000E+00  0.00000000000E+00  0.97070956914E+00  0.97071291849E+00  0.25500000000E-02 0.  1.
          2   -1    0    0    0  501  0.00000000000E+00 -0.00000000000E+00 -0.20578662107E+04  0.20578662107E+04  0.25500000000E-02 0.  1.
          2    1    1    2    0  502  0.32246477486E+02  0.27495179881E+02 -0.70127994035E+03  0.70255916119E+03  0.25500000000E-02 0.  1.
         -2    1    1    2  502    0 -0.32246477486E+02 -0.27495179881E+02 -0.13556155608E+04  0.13562777625E+04  0.25500000000E-02 0.  1.
<mgrwt>
<rscale>  0 0.89388900E+02</rscale>
<asrwt>0</asrwt>
<pdfrwt beam="2">  1        2 0.31659131E+00 0.89388900E+02</pdfrwt>
<pdfrwt beam="1">  1       -2 0.14934184E-03 0.89388900E+02</pdfrwt>
<totfact> 0.20173201E+05</totfact>
</mgrwt>
</event>
<event>
 4    1  0.2196664E-002  0.5236346E+02  0.7818608E-02  0.1432995E+00
         -2   -1    0    0  501    0 -0.00000000000E+00  0.00000000000E+00  0.39325615819E+01  0.39325624087E+01  0.25500000000E-02 0.  1.
          2   -1    0    0    0  501  0.00000000000E+00 -0.00000000000E+00 -0.17430953894E+03  0.17430953896E+03  0.25500000000E-02 0.  1.
          2    1    1    2    0  502  0.18993215013E+01  0.23990127254E+02 -0.12029191665E+03  0.12267550223E+03  0.25500000000E-02 0. -1.
         -2    1    1    2  502    0 -0.18993215013E+01 -0.23990127254E+02 -0.50085060705E+02  0.55566599142E+02  0.25500000000E-02 0. -1.
<mgrwt>
<rscale>  0 0.52363463E+02</rscale>
<asrwt>0</asrwt>
<pdfrwt beam="2">  1        2 0.26816846E-01 0.52363463E+02</pdfrwt>
<pdfrwt beam="1">  1       -2 0.60500967E-03 0.52363463E+02</pdfrwt>
<totfact> 0.62665899E+05</totfact>
</mgrwt>
</event>
<event>
 4    1  0.2196664E-002  0.7297159E+02  0.7818608E-02  0.1350270E+00
          2   -1    0    0    0  501  0.00000000000E+00  0.00000000000E+00  0.45684588802E+02  0.45684588873E+02  0.25500000000E-02 0. -1.
         -2   -1    0    0  501    0 -0.00000000000E+00 -0.00000000000E+00 -0.29139217715E+02  0.29139217827E+02  0.25500000000E-02 0. -1.
          2    1    1    2    0  502  0.70852942532E+01 -0.23453431598E+02  0.35994990575E+02  0.43541982056E+02  0.25500000000E-02 0. -1.
         -2    1    1    2  502    0 -0.70852942532E+01  0.23453431598E+02 -0.19449619488E+02  0.31281824644E+02  0.25500000000E-02 0. -1.
<mgrwt>
<rscale>  0 0.72971589E+02</rscale>
<asrwt>0</asrwt>
<pdfrwt beam="1">  1        2 0.70283982E-02 0.72971589E+02</pdfrwt>
<pdfrwt beam="2">  1       -2 0.44829566E-02 0.72971589E+02</pdfrwt>
<totfact> 0.18445625E+05</totfact>
</mgrwt>
</event>
<event>
 4    1  0.2196664E-002  0.5418997E+02  0.7818608E-02  0.1423969E+00
          2   -1    0    0    0  501  0.00000000000E+00  0.00000000000E+00  0.19677911613E+02  0.19677911778E+02  0.25500000000E-02 0. -1.
         -2   -1    0    0  501    0 -0.00000000000E+00 -0.00000000000E+00 -0.37307732339E+02  0.37307732427E+02  0.25500000000E-02 0. -1.
          2    1    1    2    0  502 -0.20036423321E+02 -0.14549712615E+02 -0.20381726966E+02  0.32071283063E+02  0.25500000000E-02 0.  1.
         -2    1    1    2  502    0  0.20036423321E+02  0.14549712615E+02  0.27519062396E+01  0.24914361142E+02  0.25500000000E-02 0.  1.
<mgrwt>
<rscale>  0 0.54189972E+02</rscale>
<asrwt>0</asrwt>
<pdfrwt beam="1">  1        2 0.30273710E-02 0.54189972E+02</pdfrwt>
<pdfrwt beam="2">  1       -2 0.57396512E-02 0.54189972E+02</pdfrwt>
<totfact> 0.35365805E+05</totfact>
</mgrwt>
</event>
<event>
 4    1  0.2196664E-002  0.4059575E+02  0.7818608E-02  0.1503873E+00
         -2   -1    0    0  501    0 -0.00000000000E+00  0.00000000000E+00  0.17682887545E+01  0.17682905932E+01  0.25500000000E-02 0.  1.
          2   -1    0    0    0  501  0.00000000000E+00 -0.00000000000E+00 -0.23299555473E+03  0.23299555474E+03  0.25500000000E-02 0.  1.
          2    1    1    2    0  502 -0.47583548114E+01 -0.19718047725E+02 -0.11994230479E+03  0.12164538557E+03  0.25500000000E-02 0.  1.
         -2    1    1    2  502    0  0.47583548114E+01  0.19718047725E+02 -0.11128496118E+03  0.11311845976E+03  0.25500000000E-02 0.  1.
<mgrwt>
<rscale>  0 0.40595745E+02</rscale>
<asrwt>0</asrwt>
<pdfrwt beam="2">  1        2 0.35845446E-01 0.40595745E+02</pdfrwt>
<pdfrwt beam="1">  1       -2 0.27204475E-03 0.40595745E+02</pdfrwt>
<totfact> 0.12954561E+06</totfact>
</mgrwt>
</event>
<event>
 4    1  0.2196664E-002  0.4889712E+02  0.7818608E-02  0.1451383E+00
         -2   -1    0    0  501    0 -0.00000000000E+00  0.00000000000E+00  0.73354558467E+02  0.73354558512E+02  0.25500000000E-02 0.  1.
          2   -1    0    0    0  501  0.00000000000E+00 -0.00000000000E+00 -0.81485349853E+01  0.81485353843E+01  0.25500000000E-02 0.  1.
          2    1    1    2    0  502  0.23421400654E+02 -0.68964392196E+01  0.34717529376E+02  0.42443253115E+02  0.25500000000E-02 0. -1.
         -2    1    1    2  502    0 -0.23421400654E+02  0.68964392196E+01  0.30488494106E+02  0.39059840781E+02  0.25500000000E-02 0. -1.
<mgrwt>
<rscale>  0 0.48897125E+02</rscale>
<asrwt>0</asrwt>
<pdfrwt beam="2">  1        2 0.12536208E-02 0.48897125E+02</pdfrwt>
<pdfrwt beam="1">  1       -2 0.11285317E-01 0.48897125E+02</pdfrwt>
<totfact> 0.40004812E+05</totfact>
</mgrwt>
</event>
<event>
 4    1  0.2196664E-002  0.1251840E+03  0.7818608E-02  0.1234782E+00
          2   -1    0    0    0  501  0.00000000000E+00  0.00000000000E+00  0.86800754370E+03  0.86800754371E+03  0.25500000000E-02 0. -1.
         -2   -1    0    0  501    0 -0.00000000000E+00 -0.00000000000E+00 -0.45135081886E+01  0.45135089090E+01  0.25500000000E-02 0. -1.
          2    1    1    2    0  502 -0.38483370793E+02  0.13421015611E+01  0.77568131245E+03  0.77663651058E+03  0.25500000000E-02 0.  1.
         -2    1    1    2  502    0  0.38483370793E+02 -0.13421015611E+01  0.87812723060E+02  0.95884542038E+02  0.25500000000E-02 0.  1.
<mgrwt>
<rscale>  0 0.12518402E+03</rscale>
<asrwt>0</asrwt>
<pdfrwt beam="1">  1        2 0.13353944E+00 0.12518402E+03</pdfrwt>
<pdfrwt beam="2">  1       -2 0.69438687E-03 0.12518402E+03</pdfrwt>
<totfact> 0.10569509E+05</totfact>
</mgrwt>
</event>
<event>
 4    1  0.2196664E-002  0.6156847E+02  0.7818608E-02  0.1391365E+00
         -2   -1    0    0  501    0 -0.00000000000E+00  0.00000000000E+00  0.46115069634E+01  0.46115076685E+01  0.25500000000E-02 0. -1.
          2   -1    0    0    0  501  0.00000000000E+00 -0.00000000000E+00 -0.20550096492E+03  0.20550096493E+03  0.25500000000E-02 0. -1.
          2    1    1    2    0  502  0.17356167938E+02  0.24969373045E+02 -0.11679813368E+03  0.12069179836E+03  0.25500000000E-02 0. -1.
         -2    1    1    2  502    0 -0.17356167938E+02 -0.24969373045E+02 -0.84091324279E+02  0.89420674238E+02  0.25500000000E-02 0. -1.
<mgrwt>
<rscale>  0 0.61568473E+02</rscale>
<asrwt>0</asrwt>
<pdfrwt beam="2">  1        2 0.31615526E-01 0.61568473E+02</pdfrwt>
<pdfrwt beam="1">  1       -2 0.70946282E-03 0.61568473E+02</pdfrwt>
<totfact> 0.43833482E+05</totfact>
</mgrwt>
</event>
<event>
 4    1  0.2196664E-002  0.5195163E+02  0.7818608E-02  0.1435091E+00
         -2   -1    0    0  501    0 -0.00000000000E+00  0.00000000000E+00  0.88860522167E+02  0.88860522204E+02  0.25500000000E-02 0.  1.
          2   -1    0    0    0  501  0.00000000000E+00 -0.00000000000E+00 -0.75932818832E+01  0.75932823114E+01  0.25500000000E-02 0.  1.
          2    1    1    2    0  502  0.24273896735E+02 -0.83041359359E+01  0.33077825722E+02  0.41860760831E+02  0.25500000000E-02 0. -1.
         -2    1    1    2  502    0 -0.24273896735E+02  0.83041359359E+01  0.48189414562E+02  0.54593043684E+02  0.25500000000E-02 0. -1.
<mgrwt>
<rscale>  0 0.51951632E+02</rscale>
<asrwt>0</asrwt>
<pdfrwt beam="2">  1        2 0.11681972E-02 0.51951632E+02</pdfrwt>
<pdfrwt beam="1">  1       -2 0.13670850E-01 0.51951632E+02</pdfrwt>
<totfact> 0.33091849E+05</totfact>
</mgrwt>
</event>
<event>
 4    1  0.2196664E-002  0.5223045E+02  0.7818608E-02  0.1433669E+00
         -2   -1    0    0  501    0 -0.00000000000E+00  0.00000000000E+00  0.71931957605E+02  0.71931957650E+02  0.25500000000E-02 0. -1.
          2   -1    0    0    0  501  0.00000000000E+00 -0.00000000000E+00 -0.94812516113E+01  0.94812519542E+01  0.25500000000E-02 0. -1.
          2    1    1    2    0  502 -0.32590138188E+01 -0.22961264022E+02  0.49940781955E+02  0.55062896086E+02  0.25500000000E-02 0. -1.
         -2    1    1    2  502    0  0.32590138188E+01  0.22961264022E+02  0.12509924039E+02  0.26350313519E+02  0.25500000000E-02 0. -1.
<mgrwt>
<rscale>  0 0.52230451E+02</rscale>
<asrwt>0</asrwt>
<pdfrwt beam="2">  1        2 0.14586541E-02 0.52230451E+02</pdfrwt>
<pdfrwt beam="1">  1       -2 0.11066455E-01 0.52230451E+02</pdfrwt>
<totfact> 0.34232903E+05</totfact>
</mgrwt>
</event>
<event>
 4    1  0.2196664E-002  0.4266205E+02  0.7818608E-02  0.1489488E+00
         -2   -1    0    0  501    0 -0.00000000000E+00  0.00000000000E+00  0.31223267157E+01  0.31223277570E+01  0.25500000000E-02 0.  1.
          2   -1    0    0    0  501  0.00000000000E+00 -0.00000000000E+00 -0.14572864866E+03  0.14572864868E+03  0.25500000000E-02 0.  1.
          2    1    1    2    0  502 -0.19624587330E+02 -0.72074484825E+01 -0.56524648476E+02  0.60266969671E+02  0.25500000000E-02 0. -1.
         -2    1    1    2  502    0  0.19624587330E+02  0.72074484825E+01 -0.86081673470E+02  0.88584006770E+02  0.25500000000E-02 0. -1.
<mgrwt>
<rscale>  0 0.42662046E+02</rscale>
<asrwt>0</asrwt>
<pdfrwt beam="2">  1        2 0.22419787E-01 0.42662046E+02</pdfrwt>
<pdfrwt beam="1">  1       -2 0.48035815E-03 0.42662046E+02</pdfrwt>
<totfact> 0.98849388E+05</totfact>
</mgrwt>
</event>
<event>
 4    1  0.2196664E-002  0.1563500E+03  0.7818608E-02  0.1192880E+00
          2   -1    0    0    0  501  0.00000000000E+00  0.00000000000E+00  0.25915260398E+04  0.25915260398E+04  0.25500000000E-02 0.  1.
         -2   -1    0    0  501    0 -0.00000000000E+00 -0.00000000000E+00 -0.23581974469E+01  0.23581988256E+01  0.25500000000E-02 0.  1.
          2    1    1    2    0  502  0.62907655123E+02  0.46059635926E+02  0.12000505004E+04  0.12025805863E+04  0.25500000000E-02 0.  1.
         -2    1    1    2  502    0 -0.62907655123E+02 -0.46059635926E+02  0.13891173420E+04  0.13913036523E+04  0.25500000000E-02 0.  1.
<mgrwt>
<rscale>  0 0.15635002E+03</rscale>
<asrwt>0</asrwt>
<pdfrwt beam="1">  1        2 0.39869554E+00 0.15635002E+03</pdfrwt>
<pdfrwt beam="2">  1       -2 0.36280042E-03 0.15635002E+03</pdfrwt>
<totfact> 0.32177705E+04</totfact>
</mgrwt>
</event>
<event>
 4    1  0.2196664E-002  0.5217466E+02  0.7818608E-02  0.1433953E+00
         -2   -1    0    0  501    0 -0.00000000000E+00  0.00000000000E+00  0.63647140514E+00  0.63647651336E+00  0.25500000000E-02 0. -1.
          2   -1    0    0    0  501  0.00000000000E+00 -0.00000000000E+00 -0.10692484295E+04  0.10692484295E+04  0.25500000000E-02 0. -1.
          2    1    1    2    0  502  0.20161753187E+01  0.25649708326E+02 -0.62268654625E+03  0.62321786511E+03  0.25500000000E-02 0. -1.
         -2    1    1    2  502    0 -0.20161753187E+01 -0.25649708326E+02 -0.44592541188E+03  0.44666704095E+03  0.25500000000E-02 0. -1.
<mgrwt>
<rscale>  0 0.52174660E+02</rscale>
<asrwt>0</asrwt>
<pdfrwt beam="2">  1        2 0.16449832E+00 0.52174660E+02</pdfrwt>
<pdfrwt beam="1">  1       -2 0.97919927E-04 0.52174660E+02</pdfrwt>
<totfact> 0.10433477E+06</totfact>
</mgrwt>
</event>
<event>
 4    1  0.2196664E-002  0.4238368E+02  0.7818608E-02  0.1491369E+00
          2   -1    0    0    0  501  0.00000000000E+00  0.00000000000E+00  0.29851353978E+01  0.29851364870E+01  0.25500000000E-02 0. -1.
         -2   -1    0    0  501    0 -0.00000000000E+00 -0.00000000000E+00 -0.15044343387E+03  0.15044343389E+03  0.25500000000E-02 0. -1.
          2    1    1    2    0  502 -0.20456673014E+02  0.25235142356E+01 -0.91555725715E+02  0.93847187025E+02  0.25500000000E-02 0. -1.
         -2    1    1    2  502    0  0.20456673014E+02 -0.25235142356E+01 -0.55902572759E+02  0.59581383355E+02  0.25500000000E-02 0. -1.
<mgrwt>
<rscale>  0 0.42383681E+02</rscale>
<asrwt>0</asrwt>
<pdfrwt beam="1">  1        2 0.45925180E-03 0.42383681E+02</pdfrwt>
<pdfrwt beam="2">  1       -2 0.23145138E-01 0.42383681E+02</pdfrwt>
<totfact> 0.46860781E+05</totfact>
</mgrwt>
</event>
<event>
 4    1  0.2196664E-002  0.4977964E+02  0.7818608E-02  0.1446534E+00
         -2   -1    0    0  501    0 -0.00000000000E+00  0.00000000000E+00  0.24197305064E+01  0.24197318500E+01  0.25500000000E-02 0.  1.
          2   -1    0    0    0  501  0.00000000000E+00 -0.00000000000E+00 -0.25602149704E+03  0.25602149705E+03  0.25500000000E-02 0.  1.
          2    1    1    2    0  502 -0.61240003198E+01 -0.21452963450E+02 -0.18409110310E+03  0.18543804159E+03  0.25500000000E-02 0. -1.
         -2    1    1    2  502    0  0.61240003198E+01  0.21452963450E+02 -0.69510663432E+02  0.73003187313E+02  0.25500000000E-02 0. -1.
<mgrwt>
<rscale>  0 0.49779643E+02</rscale>
<asrwt>0</asrwt>
<pdfrwt beam="2">  1        2 0.39387901E-01 0.49779643E+02</pdfrwt>
<pdfrwt beam="1">  1       -2 0.37226654E-03 0.49779643E+02</pdfrwt>
<totfact> 0.80935926E+05</totfact>
</mgrwt>
</event>
<event>
 4    1  0.2196664E-002  0.6810630E+02  0.7818608E-02  0.1366654E+00
         -2   -1    0    0  501    0 -0.00000000000E+00  0.00000000000E+00  0.31066536926E+02  0.31066537031E+02  0.25500000000E-02 0. -1.
          2   -1    0    0    0  501  0.00000000000E+00 -0.00000000000E+00 -0.37326888745E+02  0.37326888832E+02  0.25500000000E-02 0. -1.
          2    1    1    2    0  502  0.15799009516E+02  0.19160715123E+02  0.20267738568E+02  0.32054998657E+02  0.25500000000E-02 0.  1.
         -2    1    1    2  502    0 -0.15799009516E+02 -0.19160715123E+02 -0.26528090388E+02  0.36338427206E+02  0.25500000000E-02 0.  1.
<mgrwt>
<rscale>  0 0.68106304E+02</rscale>
<asrwt>0</asrwt>
<pdfrwt beam="2">  1        2 0.57425983E-02 0.68106304E+02</pdfrwt>
<pdfrwt beam="1">  1       -2 0.47794672E-02 0.68106304E+02</pdfrwt>
<totfact> 0.21346719E+05</totfact>
</mgrwt>
</event>
<event>
 4    1  0.2196664E-002  0.4872680E+02  0.7818608E-02  0.1452332E+00
          2   -1    0    0    0  501  0.00000000000E+00  0.00000000000E+00  0.68277831683E+01  0.68277836445E+01  0.25500000000E-02 0.  1.
         -2   -1    0    0  501    0 -0.00000000000E+00 -0.00000000000E+00 -0.86935272984E+02  0.86935273021E+02  0.25500000000E-02 0.  1.
          2    1    1    2    0  502 -0.16922126344E+02 -0.15634340738E+02 -0.55300913582E+02  0.59908113138E+02  0.25500000000E-02 0. -1.
         -2    1    1    2  502    0  0.16922126344E+02  0.15634340738E+02 -0.24806576234E+02  0.33854943527E+02  0.25500000000E-02 0. -1.
<mgrwt>
<rscale>  0 0.48726798E+02</rscale>
<asrwt>0</asrwt>
<pdfrwt beam="1">  1        2 0.10504283E-02 0.48726798E+02</pdfrwt>
<pdfrwt beam="2">  1       -2 0.13374657E-01 0.48726798E+02</pdfrwt>
<totfact> 0.38874697E+05</totfact>
</mgrwt>
</event>
<event>
 4    1  0.2196664E-002  0.4218190E+02  0.7818608E-02  0.1492743E+00
          2   -1    0    0    0  501  0.00000000000E+00  0.00000000000E+00  0.18210670722E+01  0.18210688576E+01  0.25500000000E-02 0. -1.
         -2   -1    0    0  501    0 -0.00000000000E+00 -0.00000000000E+00 -0.24426772161E+03  0.24426772162E+03  0.25500000000E-02 0. -1.
          2    1    1    2    0  502  0.12140597894E+02 -0.16924367757E+02 -0.14057228969E+03  0.14210699130E+03  0.25500000000E-02 0. -1.
         -2    1    1    2  502    0 -0.12140597894E+02  0.16924367757E+02 -0.10187436485E+03  0.10398179918E+03  0.25500000000E-02 0. -1.
<mgrwt>
<rscale>  0 0.42181898E+02</rscale>
<asrwt>0</asrwt>
<pdfrwt beam="1">  1        2 0.28016450E-03 0.42181898E+02</pdfrwt>
<pdfrwt beam="2">  1       -2 0.37579624E-01 0.42181898E+02</pdfrwt>
<totfact> 0.39055336E+05</totfact>
</mgrwt>
</event>
<event>
 4    1  0.2196664E-002  0.4928013E+02  0.7818608E-02  0.1449263E+00
          2   -1    0    0    0  501  0.00000000000E+00  0.00000000000E+00  0.85234513660E+03  0.85234513660E+03  0.25500000000E-02 0. -1.
         -2   -1    0    0  501    0 -0.00000000000E+00 -0.00000000000E+00 -0.71230639507E+00  0.71231095945E+00  0.25500000000E-02 0. -1.
          2    1    1    2    0  502 -0.17453942284E+02  0.15109260888E+02  0.57492994750E+03  0.57539323458E+03  0.25500000000E-02 0. -1.
         -2    1    1    2  502    0  0.17453942284E+02 -0.15109260888E+02  0.27670288271E+03  0.27766421298E+03  0.25500000000E-02 0. -1.
<mgrwt>
<rscale>  0 0.49280131E+02</rscale>
<asrwt>0</asrwt>
<pdfrwt beam="1">  1        2 0.13112978E+00 0.49280131E+02</pdfrwt>
<pdfrwt beam="2">  1       -2 0.10958616E-03 0.49280131E+02</pdfrwt>
<totfact> 0.11822767E+06</totfact>
</mgrwt>
</event>
<event>
 4    1  0.2196664E-002  0.8578960E+02  0.7818608E-02  0.1313380E+00
          2   -1    0    0    0  501  0.00000000000E+00  0.00000000000E+00  0.75951246366E+03  0.75951246366E+03  0.25500000000E-02 0.  1.
         -2   -1    0    0  501    0 -0.00000000000E+00 -0.00000000000E+00 -0.24225586986E+01  0.24225600407E+01  0.25500000000E-02 0.  1.
          2    1    1    2    0  502 -0.13215274290E+02  0.18923691921E+02  0.69965706860E+03  0.70003768701E+03  0.25500000000E-02 0.  1.
         -2    1    1    2  502    0  0.13215274290E+02 -0.18923691921E+02  0.57432836360E+02  0.61897336690E+02  0.25500000000E-02 0.  1.
<mgrwt>
<rscale>  0 0.85789604E+02</rscale>
<asrwt>0</asrwt>
<pdfrwt beam="1">  1        2 0.11684804E+00 0.85789604E+02</pdfrwt>
<pdfrwt beam="2">  1       -2 0.37270155E-03 0.85789604E+02</pdfrwt>
<totfact> 0.28326393E+05</totfact>
</mgrwt>
</event>
<event>
 4    1  0.2196664E-002  0.4980154E+02  0.7818608E-02  0.1446415E+00
          2   -1    0    0    0  501  0.00000000000E+00  0.00000000000E+00  0.29068935032E+02  0.29068935144E+02  0.25500000000E-02 0.  1.
         -2   -1    0    0  501    0 -0.00000000000E+00 -0.00000000000E+00 -0.21330269822E+02  0.21330269974E+02  0.25500000000E-02 0.  1.
          2    1    1    2    0  502 -0.69060776171E+01 -0.23860300195E+02  0.56339311468E+01  0.25470552018E+02  0.25500000000E-02 0. -1.
         -2    1    1    2  502    0  0.69060776171E+01  0.23860300195E+02  0.21047340637E+01  0.24928653101E+02  0.25500000000E-02 0. -1.
<mgrwt>
<rscale>  0 0.49801535E+02</rscale>
<asrwt>0</asrwt>
<pdfrwt beam="1">  1        2 0.44721438E-02 0.49801535E+02</pdfrwt>
<pdfrwt beam="2">  1       -2 0.32815800E-02 0.49801535E+02</pdfrwt>
<totfact> 0.47195523E+05</totfact>
</mgrwt>
</event>
<event>
 4    1  0.2196664E-002  0.4889469E+02  0.7818608E-02  0.1451396E+00
         -2   -1    0    0  501    0 -0.00000000000E+00  0.00000000000E+00  0.25372136658E+01  0.25372149472E+01  0.25500000000E-02 0.  1.
          2   -1    0    0    0  501  0.00000000000E+00 -0.00000000000E+00 -0.23556259790E+03  0.23556259791E+03  0.25500000000E-02 0.  1.
          2    1    1    2    0  502 -0.14412465602E+02 -0.17055373400E+02 -0.16498165341E+03  0.16648588798E+03  0.25500000000E-02 0. -1.
         -2    1    1    2  502    0  0.14412465602E+02  0.17055373400E+02 -0.68043730821E+02  0.71613924882E+02  0.25500000000E-02 0. -1.
<mgrwt>
<rscale>  0 0.48894695E+02</rscale>
<asrwt>0</asrwt>
<pdfrwt beam="2">  1        2 0.36240383E-01 0.48894695E+02</pdfrwt>
<pdfrwt beam="1">  1       -2 0.39034085E-03 0.48894695E+02</pdfrwt>
<totfact> 0.82252984E+05</totfact>
</mgrwt>
</event>
<event>
 4    1  0.2196664E-002  0.7789798E+02  0.7818608E-02  0.1335125E+00
          2   -1    0    0    0  501  0.00000000000E+00  0.00000000000E+00  0.12084872172E+04  0.12084872172E+04  0.25500000000E-02 0. -1.
         -2   -1    0    0  501    0 -0.00000000000E+00 -0.00000000000E+00 -0.12553067256E+01  0.12553093156E+01  0.25500000000E-02 0. -1.
          2    1    1    2    0  502  0.35206458958E+02  0.13939029779E+02  0.74529739170E+03  0.74625866386E+03  0.25500000000E-02 0.  1.
         -2    1    1    2  502    0 -0.35206458958E+02 -0.13939029779E+02  0.46193451879E+03  0.46348386267E+03  0.25500000000E-02 0.  1.
<mgrwt>
<rscale>  0 0.77897977E+02</rscale>
<asrwt>0</asrwt>
<pdfrwt beam="1">  1        2 0.18591994E+00 0.77897977E+02</pdfrwt>
<pdfrwt beam="2">  1       -2 0.19312552E-03 0.77897977E+02</pdfrwt>
<totfact> 0.37485874E+05</totfact>
</mgrwt>
</event>
<event>
 4    1  0.2196664E-002  0.4450092E+02  0.7818608E-02  0.1477482E+00
         -2   -1    0    0  501    0 -0.00000000000E+00  0.00000000000E+00  0.56717923935E+00  0.56718497163E+00  0.25500000000E-02 0.  1.
          2   -1    0    0    0  501  0.00000000000E+00 -0.00000000000E+00 -0.87288175965E+03  0.87288175966E+03  0.25500000000E-02 0.  1.
          2    1    1    2    0  502 -0.21400501717E+02 -0.60880358571E+01 -0.43236876032E+03  0.43294086266E+03  0.25500000000E-02 0.  1.
         -2    1    1    2  502    0  0.21400501717E+02  0.60880358571E+01 -0.43994582009E+03  0.44050808197E+03  0.25500000000E-02 0.  1.
<mgrwt>
<rscale>  0 0.44500918E+02</rscale>
<asrwt>0</asrwt>
<pdfrwt beam="2">  1        2 0.13428843E+00 0.44500918E+02</pdfrwt>
<pdfrwt beam="1">  1       -2 0.87259484E-04 0.44500918E+02</pdfrwt>
<totfact> 0.15223924E+06</totfact>
</mgrwt>
</event>
<event>
 4    1  0.2196664E-002  0.4802892E+02  0.7818608E-02  0.1456272E+00
          2   -1    0    0    0  501  0.00000000000E+00  0.00000000000E+00  0.31940919121E+01  0.31940929300E+01  0.25500000000E-02 0.  1.
         -2   -1    0    0  501    0 -0.00000000000E+00 -0.00000000000E+00 -0.18055030613E+03  0.18055030615E+03  0.25500000000E-02 0.  1.
          2    1    1    2    0  502  0.48779899639E+00  0.21690948382E+02 -0.49297669634E+02  0.53860889590E+02  0.25500000000E-02 0.  1.
         -2    1    1    2  502    0 -0.48779899639E+00 -0.21690948382E+02 -0.12805854458E+03  0.12988350949E+03  0.25500000000E-02 0.  1.
<mgrwt>
<rscale>  0 0.48028923E+02</rscale>
<asrwt>0</asrwt>
<pdfrwt beam="1">  1        2 0.49139898E-03 0.48028923E+02</pdfrwt>
<pdfrwt beam="2">  1       -2 0.27776962E-01 0.48028923E+02</pdfrwt>
<totfact> 0.32403771E+05</totfact>
</mgrwt>
</event>
<event>
 4    1  0.2196664E-002  0.4960171E+02  0.7818608E-02  0.1447502E+00
         -2   -1    0    0  501    0 -0.00000000000E+00  0.00000000000E+00  0.16245620887E+01  0.16245640900E+01  0.25500000000E-02 0. -1.
          2   -1    0    0    0  501  0.00000000000E+00 -0.00000000000E+00 -0.37861404097E+03  0.37861404098E+03  0.25500000000E-02 0. -1.
          2    1    1    2    0  502  0.21931309705E+02 -0.61794294385E+01 -0.26357091603E+03  0.26455395570E+03  0.25500000000E-02 0. -1.
         -2    1    1    2  502    0 -0.21931309705E+02  0.61794294385E+01 -0.11341856285E+03  0.11568464937E+03  0.25500000000E-02 0. -1.
<mgrwt>
<rscale>  0 0.49601710E+02</rscale>
<asrwt>0</asrwt>
<pdfrwt beam="2">  1        2 0.58248244E-01 0.49601710E+02</pdfrwt>
<pdfrwt beam="1">  1       -2 0.24993309E-03 0.49601710E+02</pdfrwt>
<totfact> 0.93521332E+05</totfact>
</mgrwt>
</event>
<event>
 4    1  0.2196664E-002  0.8724864E+02  0.7818608E-02  0.1309655E+00
          2   -1    0    0    0  501  0.00000000000E+00  0.00000000000E+00  0.18759280941E+02  0.18759281114E+02  0.25500000000E-02 0. -1.
         -2   -1    0    0  501    0 -0.00000000000E+00 -0.00000000000E+00 -0.10144746274E+03  0.10144746277E+03  0.25500000000E-02 0. -1.
          2    1    1    2    0  502 -0.30223092192E+02  0.80146871564E+01  0.56782020748E+00  0.31272878635E+02  0.25500000000E-02 0.  1.
         -2    1    1    2  502    0  0.30223092192E+02 -0.80146871564E+01 -0.83256002005E+02  0.88933865249E+02  0.25500000000E-02 0.  1.
<mgrwt>
<rscale>  0 0.87248644E+02</rscale>
<asrwt>0</asrwt>
<pdfrwt beam="1">  1        2 0.28860433E-02 0.87248644E+02</pdfrwt>
<pdfrwt beam="2">  1       -2 0.15607302E-01 0.87248644E+02</pdfrwt>
<totfact> 0.88668784E+04</totfact>
</mgrwt>
</event>
<event>
 4    1  0.2196664E-002  0.4843450E+02  0.7818608E-02  0.1453973E+00
         -2   -1    0    0  501    0 -0.00000000000E+00  0.00000000000E+00  0.17918874823E+01  0.17918892967E+01  0.25500000000E-02 0. -1.
          2   -1    0    0    0  501  0.00000000000E+00 -0.00000000000E+00 -0.32729454396E+03  0.32729454397E+03  0.25500000000E-02 0. -1.
          2    1    1    2    0  502  0.23835268583E+02 -0.10136459190E+01 -0.13446825301E+03  0.13656814629E+03  0.25500000000E-02 0. -1.
         -2    1    1    2  502    0 -0.23835268583E+02  0.10136459190E+01 -0.19103440347E+03  0.19251828698E+03  0.25500000000E-02 0. -1.
<mgrwt>
<rscale>  0 0.48434504E+02</rscale>
<asrwt>0</asrwt>
<pdfrwt beam="2">  1        2 0.50352959E-01 0.48434504E+02</pdfrwt>
<pdfrwt beam="1">  1       -2 0.27567540E-03 0.48434504E+02</pdfrwt>
<totfact> 0.94360688E+05</totfact>
</mgrwt>
</event>
<event>
 4    1  0.2196664E-002  0.5093001E+02  0.7818608E-02  0.1440389E+00
          2   -1    0    0    0  501  0.00000000000E+00  0.00000000000E+00  0.62877955365E+03  0.62877955366E+03  0.25500000000E-02 0.  1.
         -2   -1    0    0  501    0 -0.00000000000E+00 -0.00000000000E+00 -0.10313081193E+01  0.10313112718E+01  0.25500000000E-02 0.  1.
          2    1    1    2    0  502 -0.27255849111E+01 -0.20842009525E+02  0.13610665523E+03  0.13772015023E+03  0.25500000000E-02 0.  1.
         -2    1    1    2  502    0  0.27255849111E+01  0.20842009525E+02  0.49164159030E+03  0.49209071470E+03  0.25500000000E-02 0.  1.
<mgrwt>
<rscale>  0 0.50930009E+02</rscale>
<asrwt>0</asrwt>
<pdfrwt beam="1">  1        2 0.96735209E-01 0.50930009E+02</pdfrwt>
<pdfrwt beam="2">  1       -2 0.15866321E-03 0.50930009E+02</pdfrwt>
<totfact> 0.10245524E+06</totfact>
</mgrwt>
</event>
<event>
 4    1  0.2196664E-002  0.6937876E+02  0.7818608E-02  0.1362218E+00
          2   -1    0    0    0  501  0.00000000000E+00  0.00000000000E+00  0.68320154094E+01  0.68320158853E+01  0.25500000000E-02 0.  1.
         -2   -1    0    0  501    0 -0.00000000000E+00 -0.00000000000E+00 -0.17613441974E+03  0.17613441976E+03  0.25500000000E-02 0.  1.
          2    1    1    2    0  502  0.21673223784E+02  0.74604196361E+01 -0.15984048771E+02  0.27944164185E+02  0.25500000000E-02 0.  1.
         -2    1    1    2  502    0 -0.21673223784E+02 -0.74604196361E+01 -0.15331835556E+03  0.15502227146E+03  0.25500000000E-02 0.  1.
<mgrwt>
<rscale>  0 0.69378761E+02</rscale>
<asrwt>0</asrwt>
<pdfrwt beam="1">  1        2 0.10510795E-02 0.69378761E+02</pdfrwt>
<pdfrwt beam="2">  1       -2 0.27097600E-01 0.69378761E+02</pdfrwt>
<totfact> 0.13122145E+05</totfact>
</mgrwt>
</event>
<event>
 4    1  0.2196664E-002  0.9633417E+02  0.7818608E-02  0.1288199E+00
         -2   -1    0    0  501    0 -0.00000000000E+00  0.00000000000E+00  0.23376809662E+02  0.23376809801E+02  0.25500000000E-02 0.  1.
          2   -1    0    0    0  501  0.00000000000E+00 -0.00000000000E+00 -0.99246574964E+02  0.99246574997E+02  0.25500000000E-02 0.  1.
          2    1    1    2    0  502 -0.30981660174E+02 -0.35379896441E+02 -0.51191833602E+02  0.69514057379E+02  0.25500000000E-02 0.  1.
         -2    1    1    2  502    0  0.30981660174E+02  0.35379896441E+02 -0.24677931700E+02  0.53109327418E+02  0.25500000000E-02 0.  1.
<mgrwt>
<rscale>  0 0.96334175E+02</rscale>
<asrwt>0</asrwt>
<pdfrwt beam="2">  1        2 0.15268704E-01 0.96334175E+02</pdfrwt>
<pdfrwt beam="1">  1       -2 0.35964323E-02 0.96334175E+02</pdfrwt>
<totfact> 0.10510780E+05</totfact>
</mgrwt>
</event>
<event>
 4    1  0.2196664E-002  0.8689863E+02  0.7818608E-02  0.1310541E+00
         -2   -1    0    0  501    0 -0.00000000000E+00  0.00000000000E+00  0.62675200064E+00  0.62675718807E+00  0.25500000000E-02 0. -1.
          2   -1    0    0    0  501  0.00000000000E+00 -0.00000000000E+00 -0.30120924741E+04  0.30120924741E+04  0.25500000000E-02 0. -1.
          2    1    1    2    0  502  0.38949434922E+02  0.19026834308E+02 -0.14030981690E+04  0.14037676271E+04  0.25500000000E-02 0.  1.
         -2    1    1    2  502    0 -0.38949434922E+02 -0.19026834308E+02 -0.16083675531E+04  0.16089516042E+04  0.25500000000E-02 0.  1.
<mgrwt>
<rscale>  0 0.86898626E+02</rscale>
<asrwt>0</asrwt>
<pdfrwt beam="2">  1        2 0.46338725E+00 0.86898626E+02</pdfrwt>
<pdfrwt beam="1">  1       -2 0.96426196E-04 0.86898626E+02</pdfrwt>
<totfact> 0.11467066E+05</totfact>
</mgrwt>
</event>
<event>
 4    1  0.2196664E-002  0.8236241E+02  0.7818608E-02  0.1322478E+00
         -2   -1    0    0  501    0 -0.00000000000E+00  0.00000000000E+00  0.31920710283E+01  0.31920720468E+01  0.25500000000E-02 0. -1.
          2   -1    0    0    0  501  0.00000000000E+00 -0.00000000000E+00 -0.53128247002E+03  0.53128247002E+03  0.25500000000E-02 0. -1.
          2    1    1    2    0  502  0.74046947917E+01  0.38752866143E+02 -0.34062927449E+03  0.34290657151E+03  0.25500000000E-02 0.  1.
         -2    1    1    2  502    0 -0.74046947917E+01 -0.38752866143E+02 -0.18746112450E+03  0.19156797056E+03  0.25500000000E-02 0.  1.
<mgrwt>
<rscale>  0 0.82362410E+02</rscale>
<asrwt>0</asrwt>
<pdfrwt beam="2">  1        2 0.81735694E-01 0.82362410E+02</pdfrwt>
<pdfrwt beam="1">  1       -2 0.49108835E-03 0.82362410E+02</pdfrwt>
<totfact> 0.28706852E+05</totfact>
</mgrwt>
</event>
<event>
 4    1  0.2196664E-002  0.4775249E+02  0.7818608E-02  0.1457855E+00
         -2   -1    0    0  501    0 -0.00000000000E+00  0.00000000000E+00  0.81638265450E+00  0.81638663700E+00  0.25500000000E-02 0.  1.
          2   -1    0    0    0  501  0.00000000000E+00 -0.00000000000E+00 -0.69829214376E+03  0.69829214377E+03  0.25500000000E-02 0.  1.
          2    1    1    2    0  502  0.11331151802E+02 -0.20826319552E+02 -0.30747315159E+03  0.30838591009E+03  0.25500000000E-02 0.  1.
         -2    1    1    2  502    0 -0.11331151802E+02  0.20826319552E+02 -0.39000260952E+03  0.39072262032E+03  0.25500000000E-02 0.  1.
<mgrwt>
<rscale>  0 0.47752486E+02</rscale>
<asrwt>0</asrwt>
<pdfrwt beam="2">  1        2 0.10742908E+00 0.47752486E+02</pdfrwt>
<pdfrwt beam="1">  1       -2 0.12559820E-03 0.47752486E+02</pdfrwt>
<totfact> 0.12316065E+06</totfact>
</mgrwt>
</event>
<event>
 4    1  0.2196664E-002  0.4495950E+02  0.7818608E-02  0.1474595E+00
         -2   -1    0    0  501    0 -0.00000000000E+00  0.00000000000E+00  0.29858986566E+00  0.29860075414E+00  0.25500000000E-02 0.  1.
          2   -1    0    0    0  501  0.00000000000E+00 -0.00000000000E+00 -0.16923877532E+04  0.16923877532E+04  0.25500000000E-02 0.  1.
          2    1    1    2    0  502  0.20076793950E+02  0.75929508138E+01 -0.59458753819E+03  0.59497484916E+03  0.25500000000E-02 0.  1.
         -2    1    1    2  502    0 -0.20076793950E+02 -0.75929508138E+01 -0.10975016251E+04  0.10977115048E+04  0.25500000000E-02 0.  1.
<mgrwt>
<rscale>  0 0.44959495E+02</rscale>
<asrwt>0</asrwt>
<pdfrwt beam="2">  1        2 0.26035967E+00 0.44959495E+02</pdfrwt>
<pdfrwt beam="1">  1       -2 0.45939095E-04 0.44959495E+02</pdfrwt>
<totfact> 0.13490572E+06</totfact>
</mgrwt>
</event>
<event>
 4    1  0.2196664E-002  0.1044342E+03  0.7818608E-02  0.1271238E+00
          2   -1    0    0    0  501  0.00000000000E+00  0.00000000000E+00  0.13609997091E+02  0.13609997330E+02  0.25500000000E-02 0.  1.
         -2   -1    0    0  501    0 -0.00000000000E+00 -0.00000000000E+00 -0.20033994159E+03  0.20033994161E+03  0.25500000000E-02 0.  1.
          2    1    1    2    0  502 -0.27695190139E+02 -0.43190858403E+02 -0.73486422274E+02  0.89625487846E+02  0.25500000000E-02 0.  1.
         -2    1    1    2  502    0  0.27695190139E+02  0.43190858403E+02 -0.11324352223E+03  0.12432445109E+03  0.25500000000E-02 0.  1.
<mgrwt>
<rscale>  0 0.10443421E+03</rscale>
<asrwt>0</asrwt>
<pdfrwt beam="1">  1        2 0.20938459E-02 0.10443421E+03</pdfrwt>
<pdfrwt beam="2">  1       -2 0.30821527E-01 0.10443421E+03</pdfrwt>
<totfact> 0.43999798E+04</totfact>
</mgrwt>
</event>
<event>
 4    1  0.2196664E-002  0.4405406E+02  0.7818608E-02  0.1480335E+00
         -2   -1    0    0  501    0 -0.00000000000E+00  0.00000000000E+00  0.15837678325E+01  0.15837698853E+01  0.25500000000E-02 0. -1.
          2   -1    0    0    0  501  0.00000000000E+00 -0.00000000000E+00 -0.30635160440E+03  0.30635160441E+03  0.25500000000E-02 0. -1.
          2    1    1    2    0  502  0.20498033595E+02 -0.72354718001E+01 -0.12750453949E+03  0.12934422689E+03  0.25500000000E-02 0.  1.
         -2    1    1    2  502    0 -0.20498033595E+02  0.72354718001E+01 -0.17726329708E+03  0.17859114740E+03  0.25500000000E-02 0.  1.
<mgrwt>
<rscale>  0 0.44054064E+02</rscale>
<asrwt>0</asrwt>
<pdfrwt beam="2">  1        2 0.47130969E-01 0.44054064E+02</pdfrwt>
<pdfrwt beam="1">  1       -2 0.24365699E-03 0.44054064E+02</pdfrwt>
<totfact> 0.11649032E+06</totfact>
</mgrwt>
</event>
<event>
 4    1  0.2196664E-002  0.6192993E+02  0.7818608E-02  0.1389907E+00
          2   -1    0    0    0  501  0.00000000000E+00  0.00000000000E+00  0.29068982363E+04  0.29068982363E+04  0.25500000000E-02 0.  1.
         -2   -1    0    0  501    0 -0.00000000000E+00 -0.00000000000E+00 -0.32984115233E+00  0.32985100920E+00  0.25500000000E-02 0.  1.
          2    1    1    2    0  502  0.12441002756E+02  0.28292931123E+02  0.15418636877E+04  0.15421734338E+04  0.25500000000E-02 0.  1.
         -2    1    1    2  502    0 -0.12441002756E+02 -0.28292931123E+02  0.13647047075E+04  0.13650546535E+04  0.25500000000E-02 0.  1.
<mgrwt>
<rscale>  0 0.61929928E+02</rscale>
<asrwt>0</asrwt>
<pdfrwt beam="1">  1        2 0.44723448E+00 0.61929928E+02</pdfrwt>
<pdfrwt beam="2">  1       -2 0.50743354E-04 0.61929928E+02</pdfrwt>
<totfact> 0.30362950E+05</totfact>
</mgrwt>
</event>
<event>
 4    1  0.2196664E-002  0.4583669E+02  0.7818608E-02  0.1469185E+00
          2   -1    0    0    0  501  0.00000000000E+00  0.00000000000E+00  0.82234246140E+03  0.82234246140E+03  0.25500000000E-02 0. -1.
         -2   -1    0    0  501    0 -0.00000000000E+00 -0.00000000000E+00 -0.63872232714E+00  0.63872741736E+00  0.25500000000E-02 0. -1.
          2    1    1    2    0  502  0.16888376945E+02 -0.12055632292E+02  0.23613282619E+03  0.23704275386E+03  0.25500000000E-02 0.  1.
         -2    1    1    2  502    0 -0.16888376945E+02  0.12055632292E+02  0.58557091288E+03  0.58593843496E+03  0.25500000000E-02 0.  1.
<mgrwt>
<rscale>  0 0.45836692E+02</rscale>
<asrwt>0</asrwt>
<pdfrwt beam="1">  1        2 0.12651414E+00 0.45836692E+02</pdfrwt>
<pdfrwt beam="2">  1       -2 0.98265432E-04 0.45836692E+02</pdfrwt>
<totfact> 0.14046843E+06</totfact>
</mgrwt>
</event>
<event>
 4    1  0.2196664E-002  0.6501418E+02  0.7818608E-02  0.1377918E+00
          2   -1    0    0    0  501  0.00000000000E+00  0.00000000000E+00  0.26912220306E+03  0.26912220307E+03  0.25500000000E-02 0. -1.
         -2   -1    0    0  501    0 -0.00000000000E+00 -0.00000000000E+00 -0.39265090939E+01  0.39265099220E+01  0.25500000000E-02 0. -1.
          2    1    1    2    0  502  0.18105572539E+02 -0.26606462298E+02  0.15184174360E+03  0.15521478891E+03  0.25500000000E-02 0.  1.
         -2    1    1    2  502    0 -0.18105572539E+02  0.26606462298E+02  0.11335395037E+03  0.11783392408E+03  0.25500000000E-02 0.  1.
<mgrwt>
<rscale>  0 0.65014180E+02</rscale>
<asrwt>0</asrwt>
<pdfrwt beam="1">  1        2 0.41403428E-01 0.65014180E+02</pdfrwt>
<pdfrwt beam="2">  1       -2 0.60407821E-03 0.65014180E+02</pdfrwt>
<totfact> 0.41883752E+05</totfact>
</mgrwt>
</event>
<event>
 4    1  0.2196664E-002  0.5188541E+02  0.7818608E-02  0.1435430E+00
          2   -1    0    0    0  501  0.00000000000E+00  0.00000000000E+00  0.11476983664E+02  0.11476983948E+02  0.25500000000E-02 0.  1.
         -2   -1    0    0  501    0 -0.00000000000E+00 -0.00000000000E+00 -0.58641182289E+02  0.58641182344E+02  0.25500000000E-02 0.  1.
          2    1    1    2    0  502  0.15431859875E+02 -0.13499975064E+02 -0.45061874058E+02  0.49507212869E+02  0.25500000000E-02 0. -1.
         -2    1    1    2  502    0 -0.15431859875E+02  0.13499975064E+02 -0.21023245661E+01  0.20610953423E+02  0.25500000000E-02 0. -1.
<mgrwt>
<rscale>  0 0.51885408E+02</rscale>
<asrwt>0</asrwt>
<pdfrwt beam="1">  1        2 0.17656899E-02 0.51885408E+02</pdfrwt>
<pdfrwt beam="2">  1       -2 0.90217202E-02 0.51885408E+02</pdfrwt>
<totfact> 0.36231698E+05</totfact>
</mgrwt>
</event>
<event>
 4    1  0.2196664E-002  0.8193809E+02  0.7818608E-02  0.1323640E+00
          2   -1    0    0    0  501  0.00000000000E+00  0.00000000000E+00  0.40878576708E+02  0.40878576787E+02  0.25500000000E-02 0.  1.
         -2   -1    0    0  501    0 -0.00000000000E+00 -0.00000000000E+00 -0.41059713754E+02  0.41059713833E+02  0.25500000000E-02 0.  1.
          2    1    1    2    0  502  0.40097767272E+01 -0.30798362441E+02 -0.26808515832E+02  0.41028209394E+02  0.25500000000E-02 0.  1.
         -2    1    1    2  502    0 -0.40097767272E+01  0.30798362441E+02  0.26627378785E+02  0.40910081227E+02  0.25500000000E-02 0.  1.
<mgrwt>
<rscale>  0 0.81938090E+02</rscale>
<asrwt>0</asrwt>
<pdfrwt beam="1">  1        2 0.62890118E-02 0.81938090E+02</pdfrwt>
<pdfrwt beam="2">  1       -2 0.63168791E-02 0.81938090E+02</pdfrwt>
<totfact> 0.13018113E+05</totfact>
</mgrwt>
</event>
<event>
 4    1  0.2196664E-002  0.4807718E+02  0.7818608E-02  0.1455997E+00
          2   -1    0    0    0  501  0.00000000000E+00  0.00000000000E+00  0.81158662197E+03  0.81158662197E+03  0.25500000000E-02 0. -1.
         -2   -1    0    0  501    0 -0.00000000000E+00 -0.00000000000E+00 -0.71200274438E+00  0.71200731071E+00  0.25500000000E-02 0. -1.
          2    1    1    2    0  502 -0.19356114874E+02 -0.13252886353E+02  0.31674591781E+03  0.31761340437E+03  0.25500000000E-02 0. -1.
         -2    1    1    2  502    0  0.19356114874E+02  0.13252886353E+02  0.49412870141E+03  0.49468522491E+03  0.25500000000E-02 0. -1.
<mgrwt>
<rscale>  0 0.48077178E+02</rscale>
<asrwt>0</asrwt>
<pdfrwt beam="1">  1        2 0.12485958E+00 0.48077178E+02</pdfrwt>
<pdfrwt beam="2">  1       -2 0.10953915E-03 0.48077178E+02</pdfrwt>
<totfact> 0.12471568E+06</totfact>
</mgrwt>
</event>
<event>
 4    1  0.2196664E-002  0.4565436E+02  0.7818608E-02  0.1470297E+00
          2   -1    0    0    0  501  0.00000000000E+00  0.00000000000E+00  0.81970713581E+03  0.81970713581E+03  0.25500000000E-02 0. -1.
         -2   -1    0    0  501    0 -0.00000000000E+00 -0.00000000000E+00 -0.63568814204E+00  0.63569325655E+00  0.25500000000E-02 0. -1.
          2    1    1    2    0  502 -0.10703844398E+02 -0.18718153552E+02  0.27490503950E+03  0.27574938315E+03  0.25500000000E-02 0. -1.
         -2    1    1    2  502    0  0.10703844398E+02  0.18718153552E+02  0.54416640817E+03  0.54459344592E+03  0.25500000000E-02 0. -1.
<mgrwt>
<rscale>  0 0.45654363E+02</rscale>
<asrwt>0</asrwt>
<pdfrwt beam="1">  1        2 0.12610843E+00 0.45654363E+02</pdfrwt>
<pdfrwt beam="2">  1       -2 0.97798852E-04 0.45654363E+02</pdfrwt>
<totfact> 0.14177024E+06</totfact>
</mgrwt>
</event>
<event>
 4    1  0.2196664E-002  0.4330933E+02  0.7818608E-02  0.1485181E+00
         -2   -1    0    0  501    0 -0.00000000000E+00  0.00000000000E+00  0.16979955660E+03  0.16979955662E+03  0.25500000000E-02 0. -1.
          2   -1    0    0    0  501  0.00000000000E+00 -0.00000000000E+00 -0.27616349441E+01  0.27616361214E+01  0.25500000000E-02 0. -1.
          2    1    1    2    0  502  0.70336844462E+01 -0.20125954806E+02  0.98637450973E+02  0.10091517980E+03  0.25500000000E-02 0.  1.
         -2    1    1    2  502    0 -0.70336844462E+01  0.20125954806E+02  0.68400470688E+02  0.71646012943E+02  0.25500000000E-02 0.  1.
<mgrwt>
<rscale>  0 0.43309329E+02</rscale>
<asrwt>0</asrwt>
<pdfrwt beam="2">  1        2 0.42486697E-03 0.43309329E+02</pdfrwt>
<pdfrwt beam="1">  1       -2 0.26123011E-01 0.43309329E+02</pdfrwt>
<totfact> 0.42646069E+05</totfact>
</mgrwt>
</event>
<event>
 4    1  0.2196664E-002  0.9878662E+02  0.7818608E-02  0.1282868E+00
         -2   -1    0    0  501    0 -0.00000000000E+00  0.00000000000E+00  0.13900426221E+03  0.13900426223E+03  0.25500000000E-02 0. -1.
          2   -1    0    0    0  501  0.00000000000E+00 -0.00000000000E+00 -0.17551254599E+02  0.17551254784E+02  0.25500000000E-02 0. -1.
          2    1    1    2    0  502 -0.35605754982E+02  0.33956486441E+02  0.67613746202E+02  0.83620759631E+02  0.25500000000E-02 0. -1.
         -2    1    1    2  502    0  0.35605754982E+02 -0.33956486441E+02  0.53839261406E+02  0.72934757383E+02  0.25500000000E-02 0. -1.
<mgrwt>
<rscale>  0 0.98786623E+02</rscale>
<asrwt>0</asrwt>
<pdfrwt beam="2">  1        2 0.27001930E-02 0.98786623E+02</pdfrwt>
<pdfrwt beam="1">  1       -2 0.21385272E-01 0.98786623E+02</pdfrwt>
<totfact> 0.58619514E+04</totfact>
</mgrwt>
</event>
<event>
 4    1  0.2196664E-002  0.4951024E+02  0.7818608E-02  0.1448001E+00
          2   -1    0    0    0  501  0.00000000000E+00  0.00000000000E+00  0.75687530167E+03  0.75687530167E+03  0.25500000000E-02 0.  1.
         -2   -1    0    0  501    0 -0.00000000000E+00 -0.00000000000E+00 -0.80966372794E+00  0.80966774349E+00  0.25500000000E-02 0.  1.
          2    1    1    2    0  502 -0.16184886097E+02 -0.14380520564E+02  0.56171816271E+03  0.56213525440E+03  0.25500000000E-02 0.  1.
         -2    1    1    2  502    0  0.16184886097E+02  0.14380520564E+02  0.19434747523E+03  0.19554971502E+03  0.25500000000E-02 0.  1.
<mgrwt>
<rscale>  0 0.49510241E+02</rscale>
<asrwt>0</asrwt>
<pdfrwt beam="1">  1        2 0.11644261E+00 0.49510241E+02</pdfrwt>
<pdfrwt beam="2">  1       -2 0.12456368E-03 0.49510241E+02</pdfrwt>
<totfact> 0.11459035E+06</totfact>
</mgrwt>
</event>
<event>
 4    1  0.2196664E-002  0.4544205E+02  0.7818608E-02  0.1471601E+00
         -2   -1    0    0  501    0 -0.00000000000E+00  0.00000000000E+00  0.12873970731E+03  0.12873970733E+03  0.25500000000E-02 0. -1.
          2   -1    0    0    0  501  0.00000000000E+00 -0.00000000000E+00 -0.40099893149E+01  0.40099901257E+01  0.25500000000E-02 0. -1.
          2    1    1    2    0  502  0.12959628810E+02  0.18539743890E+02  0.68610436266E+02  0.72243103848E+02  0.25500000000E-02 0. -1.
         -2    1    1    2  502    0 -0.12959628810E+02 -0.18539743890E+02  0.56119281727E+02  0.60506593611E+02  0.25500000000E-02 0. -1.
<mgrwt>
<rscale>  0 0.45442047E+02</rscale>
<asrwt>0</asrwt>
<pdfrwt beam="2">  1        2 0.61692156E-03 0.45442047E+02</pdfrwt>
<pdfrwt beam="1">  1       -2 0.19806107E-01 0.45442047E+02</pdfrwt>
<totfact> 0.41569641E+05</totfact>
</mgrwt>
</event>
<event>
 4    1  0.2196664E-002  0.4282161E+02  0.7818608E-02  0.1488418E+00
          2   -1    0    0    0  501  0.00000000000E+00  0.00000000000E+00  0.13765044893E+03  0.13765044895E+03  0.25500000000E-02 0.  1.
         -2   -1    0    0  501    0 -0.00000000000E+00 -0.00000000000E+00 -0.33303376990E+01  0.33303386753E+01  0.25500000000E-02 0.  1.
          2    1    1    2    0  502  0.17325233839E+02 -0.10214190026E+02  0.91337405161E+02  0.93525477777E+02  0.25500000000E-02 0.  1.
         -2    1    1    2  502    0 -0.17325233839E+02  0.10214190026E+02  0.42982706065E+02  0.47455309847E+02  0.25500000000E-02 0.  1.
<mgrwt>
<rscale>  0 0.42821609E+02</rscale>
<asrwt>0</asrwt>
<pdfrwt beam="1">  1        2 0.21176994E-01 0.42821609E+02</pdfrwt>
<pdfrwt beam="2">  1       -2 0.51235968E-03 0.42821609E+02</pdfrwt>
<totfact> 0.96319554E+05</totfact>
</mgrwt>
</event>
<event>
 4    1  0.2196664E-002  0.4278745E+02  0.7818608E-02  0.1488646E+00
         -2   -1    0    0  501    0 -0.00000000000E+00  0.00000000000E+00  0.21177988875E+00  0.21179524022E+00  0.25500000000E-02 0. -1.
          2   -1    0    0    0  501  0.00000000000E+00 -0.00000000000E+00 -0.21610873321E+04  0.21610873321E+04  0.25500000000E-02 0. -1.
          2    1    1    2    0  502  0.14962924694E+02  0.15212959872E+02 -0.10027050952E+04  0.10029321169E+04  0.25500000000E-02 0.  1.
         -2    1    1    2  502    0 -0.14962924694E+02 -0.15212959872E+02 -0.11581704571E+04  0.11583670104E+04  0.25500000000E-02 0.  1.
<mgrwt>
<rscale>  0 0.42787448E+02</rscale>
<asrwt>0</asrwt>
<pdfrwt beam="2">  1        2 0.33245732E+00 0.42787448E+02</pdfrwt>
<pdfrwt beam="1">  1       -2 0.32584433E-04 0.42787448E+02</pdfrwt>
<totfact> 0.12541719E+06</totfact>
</mgrwt>
</event>
<event>
 4    1  0.2196664E-002  0.7643110E+02  0.7818608E-02  0.1339496E+00
          2   -1    0    0    0  501  0.00000000000E+00  0.00000000000E+00  0.26977624696E+04  0.26977624696E+04  0.25500000000E-02 0.  1.
         -2   -1    0    0  501    0 -0.00000000000E+00 -0.00000000000E+00 -0.54134504003E+00  0.54135104587E+00  0.25500000000E-02 0.  1.
          2    1    1    2    0  502 -0.34479729232E+02 -0.16360240301E+02  0.14185016193E+04  0.14190149235E+04  0.25500000000E-02 0.  1.
         -2    1    1    2  502    0  0.34479729232E+02  0.16360240301E+02  0.12787195053E+04  0.12792888971E+04  0.25500000000E-02 0.  1.
<mgrwt>
<rscale>  0 0.76431105E+02</rscale>
<asrwt>0</asrwt>
<pdfrwt beam="1">  1        2 0.41504070E+00 0.76431105E+02</pdfrwt>
<pdfrwt beam="2">  1       -2 0.83284250E-04 0.76431105E+02</pdfrwt>
<totfact> 0.20626264E+05</totfact>
</mgrwt>
</event>
<event>
 4    1  0.2196664E-002  0.6030764E+02  0.7818608E-02  0.1396545E+00
          2   -1    0    0    0  501  0.00000000000E+00  0.00000000000E+00  0.28648337610E+04  0.28648337610E+04  0.25500000000E-02 0. -1.
         -2   -1    0    0  501    0 -0.00000000000E+00 -0.00000000000E+00 -0.31737900260E+00  0.31738924650E+00  0.25500000000E-02 0. -1.
          2    1    1    2    0  502  0.26411162306E+02  0.10233527001E+02  0.19236442565E+04  0.19238527750E+04  0.25500000000E-02 0.  1.
         -2    1    1    2  502    0 -0.26411162306E+02 -0.10233527001E+02  0.94087212550E+03  0.94129837518E+03  0.25500000000E-02 0.  1.
<mgrwt>
<rscale>  0 0.60307637E+02</rscale>
<asrwt>0</asrwt>
<pdfrwt beam="1">  1        2 0.44075936E+00 0.60307637E+02</pdfrwt>
<pdfrwt beam="2">  1       -2 0.48826587E-04 0.60307637E+02</pdfrwt>
<totfact> 0.33616897E+05</totfact>
</mgrwt>
</event>
<event>
 4    1  0.2196664E-002  0.1083701E+03  0.7818608E-02  0.1263618E+00
          2   -1    0    0    0  501  0.00000000000E+00  0.00000000000E+00  0.80689954886E+02  0.80689954926E+02  0.25500000000E-02 0.  1.
         -2   -1    0    0  501    0 -0.00000000000E+00 -0.00000000000E+00 -0.36386461698E+02  0.36386461787E+02  0.25500000000E-02 0.  1.
          2    1    1    2    0  502 -0.17396627134E+02 -0.18238620143E+02  0.73971196435E+02  0.78147474745E+02  0.25500000000E-02 0. -1.
         -2    1    1    2  502    0  0.17396627134E+02  0.18238620143E+02 -0.29667703247E+02  0.38928941969E+02  0.25500000000E-02 0. -1.
<mgrwt>
<rscale>  0 0.10837014E+03</rscale>
<asrwt>0</asrwt>
<pdfrwt beam="1">  1        2 0.12413839E-01 0.10837014E+03</pdfrwt>
<pdfrwt beam="2">  1       -2 0.55979173E-02 0.10837014E+03</pdfrwt>
<totfact> 0.70739755E+04</totfact>
</mgrwt>
</event>
<event>
 4    1  0.2196664E-002  0.5186381E+02  0.7818608E-02  0.1435540E+00
         -2   -1    0    0  501    0 -0.00000000000E+00  0.00000000000E+00  0.40014394947E+00  0.40015207459E+00  0.25500000000E-02 0. -1.
          2   -1    0    0    0  501  0.00000000000E+00 -0.00000000000E+00 -0.16805375347E+04  0.16805375347E+04  0.25500000000E-02 0. -1.
          2    1    1    2    0  502  0.22786239628E+02 -0.11341140669E+02 -0.67922074749E+03  0.67969747537E+03  0.25500000000E-02 0. -1.
         -2    1    1    2  502    0 -0.22786239628E+02  0.11341140669E+02 -0.10009166432E+04  0.10012402114E+04  0.25500000000E-02 0. -1.
<mgrwt>
<rscale>  0 0.51863812E+02</rscale>
<asrwt>0</asrwt>
<pdfrwt beam="2">  1        2 0.25853859E+00 0.51863812E+02</pdfrwt>
<pdfrwt beam="1">  1       -2 0.61562578E-04 0.51863812E+02</pdfrwt>
<totfact> 0.95085970E+05</totfact>
</mgrwt>
</event>
<event>
 4    1  0.2196664E-002  0.5529547E+02  0.7818608E-02  0.1418707E+00
         -2   -1    0    0  501    0 -0.00000000000E+00  0.00000000000E+00  0.19136245188E+03  0.19136245190E+03  0.25500000000E-02 0. -1.
          2   -1    0    0    0  501  0.00000000000E+00 -0.00000000000E+00 -0.39944997849E+01  0.39945005989E+01  0.25500000000E-02 0. -1.
          2    1    1    2    0  502  0.26472451327E+02 -0.32419326616E+01  0.67940190847E+02  0.72987467044E+02  0.25500000000E-02 0. -1.
         -2    1    1    2  502    0 -0.26472451327E+02  0.32419326616E+01  0.11942776125E+03  0.12236948545E+03  0.25500000000E-02 0. -1.
<mgrwt>
<rscale>  0 0.55295474E+02</rscale>
<asrwt>0</asrwt>
<pdfrwt beam="2">  1        2 0.61453862E-03 0.55295474E+02</pdfrwt>
<pdfrwt beam="1">  1       -2 0.29440371E-01 0.55295474E+02</pdfrwt>
<totfact> 0.22389760E+05</totfact>
</mgrwt>
</event>
<event>
 4    1  0.2196664E-002  0.4861841E+02  0.7818608E-02  0.1452939E+00
          2   -1    0    0    0  501  0.00000000000E+00  0.00000000000E+00  0.28236437248E+03  0.28236437249E+03  0.25500000000E-02 0. -1.
         -2   -1    0    0  501    0 -0.00000000000E+00 -0.00000000000E+00 -0.20928175475E+01  0.20928191011E+01  0.25500000000E-02 0. -1.
          2    1    1    2    0  502  0.45941654759E+01  0.22632486275E+02  0.95730637036E+02  0.98476853449E+02  0.25500000000E-02 0.  1.
         -2    1    1    2  502    0 -0.45941654759E+01 -0.22632486275E+02  0.18454091790E+03  0.18598033814E+03  0.25500000000E-02 0.  1.
<mgrwt>
<rscale>  0 0.48618405E+02</rscale>
<asrwt>0</asrwt>
<pdfrwt beam="1">  1        2 0.43440643E-01 0.48618405E+02</pdfrwt>
<pdfrwt beam="2">  1       -2 0.32197227E-03 0.48618405E+02</pdfrwt>
<totfact> 0.88802074E+05</totfact>
</mgrwt>
</event>
<event>
 4    1  0.2196664E-002  0.4377323E+02  0.7818608E-02  0.1482149E+00
         -2   -1    0    0  501    0 -0.00000000000E+00  0.00000000000E+00  0.95976483958E+01  0.95976487345E+01  0.25500000000E-02 0.  1.
          2   -1    0    0    0  501  0.00000000000E+00 -0.00000000000E+00 -0.49910540131E+02  0.49910540196E+02  0.25500000000E-02 0.  1.
          2    1    1    2    0  502 -0.14238201939E+02 -0.16502949900E+02 -0.17454537389E+02  0.27923728831E+02  0.25500000000E-02 0. -1.
         -2    1    1    2  502    0  0.14238201939E+02  0.16502949900E+02 -0.22858354345E+02  0.31584460099E+02  0.25500000000E-02 0. -1.
<mgrwt>
<rscale>  0 0.43773226E+02</rscale>
<asrwt>0</asrwt>
<pdfrwt beam="2">  1        2 0.76785445E-02 0.43773226E+02</pdfrwt>
<pdfrwt beam="1">  1       -2 0.14765614E-02 0.43773226E+02</pdfrwt>
<totfact> 0.71969021E+05</totfact>
</mgrwt>
</event>
<event>
 4    1  0.2196664E-002  0.7592144E+02  0.7818608E-02  0.1341041E+00
         -2   -1    0    0  501    0 -0.00000000000E+00  0.00000000000E+00  0.56612902670E+01  0.56612908413E+01  0.25500000000E-02 0. -1.
          2   -1    0    0    0  501  0.00000000000E+00 -0.00000000000E+00 -0.25453845867E+03  0.25453845868E+03  0.25500000000E-02 0. -1.
          2    1    1    2    0  502 -0.29551074310E+02  0.11635449342E+02 -0.53174867912E+02  0.61937196080E+02  0.25500000000E-02 0.  1.
         -2    1    1    2  502    0  0.29551074310E+02 -0.11635449342E+02 -0.19570230049E+03  0.19826255344E+03  0.25500000000E-02 0.  1.
<mgrwt>
<rscale>  0 0.75921438E+02</rscale>
<asrwt>0</asrwt>
<pdfrwt beam="2">  1        2 0.39159754E-01 0.75921438E+02</pdfrwt>
<pdfrwt beam="1">  1       -2 0.87096798E-03 0.75921438E+02</pdfrwt>
<totfact> 0.27445507E+05</totfact>
</mgrwt>
</event>
<event>
 4    1  0.2196664E-002  0.8125769E+02  0.7818608E-02  0.1325520E+00
          2   -1    0    0    0  501  0.00000000000E+00  0.00000000000E+00  0.54790427065E+03  0.54790427065E+03  0.25500000000E-02 0. -1.
         -2   -1    0    0  501    0 -0.00000000000E+00 -0.00000000000E+00 -0.30127572470E+01  0.30127583262E+01  0.25500000000E-02 0. -1.
          2    1    1    2    0  502  0.88243707126E+01 -0.37003310821E+02  0.17570751646E+03  0.17977832427E+03  0.25500000000E-02 0.  1.
         -2    1    1    2  502    0 -0.88243707126E+01  0.37003310821E+02  0.36918399694E+03  0.37113870471E+03  0.25500000000E-02 0.  1.
<mgrwt>
<rscale>  0 0.81257685E+02</rscale>
<asrwt>0</asrwt>
<pdfrwt beam="1">  1        2 0.84292985E-01 0.81257685E+02</pdfrwt>
<pdfrwt beam="2">  1       -2 0.46350109E-03 0.81257685E+02</pdfrwt>
<totfact> 0.30020983E+05</totfact>
</mgrwt>
</event>
<event>
 4    1  0.2196664E-002  0.5176407E+02  0.7818608E-02  0.1436052E+00
         -2   -1    0    0  501    0 -0.00000000000E+00  0.00000000000E+00  0.73691623078E+01  0.73691627490E+01  0.25500000000E-02 0. -1.
          2   -1    0    0    0  501  0.00000000000E+00 -0.00000000000E+00 -0.90903098633E+02  0.90903098668E+02  0.25500000000E-02 0. -1.
          2    1    1    2    0  502  0.15024771133E+02  0.17391857642E+02 -0.19171309590E+02  0.29929242852E+02  0.25500000000E-02 0.  1.
         -2    1    1    2  502    0 -0.15024771133E+02 -0.17391857642E+02 -0.64362626735E+02  0.68343018565E+02  0.25500000000E-02 0.  1.
<mgrwt>
<rscale>  0 0.51764069E+02</rscale>
<asrwt>0</asrwt>
<pdfrwt beam="2">  1        2 0.13985091E-01 0.51764069E+02</pdfrwt>
<pdfrwt beam="1">  1       -2 0.11337174E-02 0.51764069E+02</pdfrwt>
<totfact> 0.53508167E+05</totfact>
</mgrwt>
</event>
<event>
 4    1  0.2196664E-002  0.4824988E+02  0.7818608E-02  0.1455016E+00
          2   -1    0    0    0  501  0.00000000000E+00  0.00000000000E+00  0.90885838274E+03  0.90885838274E+03  0.25500000000E-02 0.  1.
         -2   -1    0    0  501    0 -0.00000000000E+00 -0.00000000000E+00 -0.64037513370E+00  0.64038021078E+00  0.25500000000E-02 0.  1.
          2    1    1    2    0  502  0.18963011210E+02  0.72133857465E+01  0.70015719342E+03  0.70045108625E+03  0.25500000000E-02 0. -1.
         -2    1    1    2  502    0 -0.18963011210E+02 -0.72133857465E+01  0.20806081419E+03  0.20904767670E+03  0.25500000000E-02 0. -1.
<mgrwt>
<rscale>  0 0.48249875E+02</rscale>
<asrwt>0</asrwt>
<pdfrwt beam="1">  1        2 0.13982434E+00 0.48249875E+02</pdfrwt>
<pdfrwt beam="2">  1       -2 0.98519663E-04 0.48249875E+02</pdfrwt>
<totfact> 0.12550620E+06</totfact>
</mgrwt>
</event>
<event>
 4    1  0.2196664E-002  0.5047366E+02  0.7818608E-02  0.1442803E+00
          2   -1    0    0    0  501  0.00000000000E+00  0.00000000000E+00  0.31962504423E+03  0.31962504424E+03  0.25500000000E-02 0.  1.
         -2   -1    0    0  501    0 -0.00000000000E+00 -0.00000000000E+00 -0.19926386920E+01  0.19926403236E+01  0.25500000000E-02 0.  1.
          2    1    1    2    0  502  0.21573842663E+02  0.12278000822E+02  0.18781926062E+03  0.18945251294E+03  0.25500000000E-02 0.  1.
         -2    1    1    2  502    0 -0.21573842663E+02 -0.12278000822E+02  0.12981314492E+03  0.13216517163E+03  0.25500000000E-02 0.  1.
<mgrwt>
<rscale>  0 0.50473656E+02</rscale>
<asrwt>0</asrwt>
<pdfrwt beam="1">  1        2 0.49173021E-01 0.50473656E+02</pdfrwt>
<pdfrwt beam="2">  1       -2 0.30656032E-03 0.50473656E+02</pdfrwt>
<totfact> 0.84477750E+05</totfact>
</mgrwt>
</event>
<event>
 4    1  0.2196664E-002  0.5491414E+02  0.7818608E-02  0.1420505E+00
         -2   -1    0    0  501    0 -0.00000000000E+00  0.00000000000E+00  0.32156972661E+01  0.32156982772E+01  0.25500000000E-02 0.  1.
          2   -1    0    0    0  501  0.00000000000E+00 -0.00000000000E+00 -0.23444074155E+03  0.23444074156E+03  0.25500000000E-02 0.  1.
          2    1    1    2    0  502 -0.16758758995E+02 -0.13879301394E+02 -0.43143217166E+02  0.48320060060E+02  0.25500000000E-02 0. -1.
         -2    1    1    2  502    0  0.16758758995E+02  0.13879301394E+02 -0.18808182711E+03  0.18933637978E+03  0.25500000000E-02 0. -1.
<mgrwt>
<rscale>  0 0.54914136E+02</rscale>
<asrwt>0</asrwt>
<pdfrwt beam="2">  1        2 0.36067793E-01 0.54914136E+02</pdfrwt>
<pdfrwt beam="1">  1       -2 0.49472292E-03 0.54914136E+02</pdfrwt>
<totfact> 0.61367739E+05</totfact>
</mgrwt>
</event>
<event>
 4    1  0.2196664E-002  0.4995060E+02  0.7818608E-02  0.1445608E+00
         -2   -1    0    0  501    0 -0.00000000000E+00  0.00000000000E+00  0.18826857107E+01  0.18826874376E+01  0.25500000000E-02 0. -1.
          2   -1    0    0    0  501  0.00000000000E+00 -0.00000000000E+00 -0.33131675738E+03  0.33131675739E+03  0.25500000000E-02 0. -1.
          2    1    1    2    0  502  0.24922734066E+02 -0.58358657598E+00 -0.15463946790E+03  0.15663603763E+03  0.25500000000E-02 0. -1.
         -2    1    1    2  502    0 -0.24922734066E+02  0.58358657598E+00 -0.17479460377E+03  0.17656340719E+03  0.25500000000E-02 0. -1.
<mgrwt>
<rscale>  0 0.49950600E+02</rscale>
<asrwt>0</asrwt>
<pdfrwt beam="2">  1        2 0.50971763E-01 0.49950600E+02</pdfrwt>
<pdfrwt beam="1">  1       -2 0.28964435E-03 0.49950600E+02</pdfrwt>
<totfact> 0.87784423E+05</totfact>
</mgrwt>
</event>
<event>
 4    1  0.2196664E-002  0.9794476E+02  0.7818608E-02  0.1284678E+00
         -2   -1    0    0  501    0 -0.00000000000E+00  0.00000000000E+00  0.28960348070E+03  0.28960348071E+03  0.25500000000E-02 0. -1.
          2   -1    0    0    0  501  0.00000000000E+00 -0.00000000000E+00 -0.82813014292E+01  0.82813018218E+01  0.25500000000E-02 0. -1.
          2    1    1    2    0  502  0.15748477459E+01 -0.48280459632E+02  0.16514557456E+03  0.17206552162E+03  0.25500000000E-02 0.  1.
         -2    1    1    2  502    0 -0.15748477459E+01  0.48280459632E+02  0.11617660472E+03  0.12581926092E+03  0.25500000000E-02 0.  1.
<mgrwt>
<rscale>  0 0.97944755E+02</rscale>
<asrwt>0</asrwt>
<pdfrwt beam="2">  1        2 0.12740463E-02 0.97944755E+02</pdfrwt>
<pdfrwt beam="1">  1       -2 0.44554386E-01 0.97944755E+02</pdfrwt>
<totfact> 0.43241163E+04</totfact>
</mgrwt>
</event>
<event>
 4    1  0.2196664E-002  0.4554915E+02  0.7818608E-02  0.1470942E+00
          2   -1    0    0    0  501  0.00000000000E+00  0.00000000000E+00  0.22312973041E+04  0.22312973041E+04  0.25500000000E-02 0.  1.
         -2   -1    0    0  501    0 -0.00000000000E+00 -0.00000000000E+00 -0.23245024141E+00  0.23246422785E+00  0.25500000000E-02 0.  1.
          2    1    1    2    0  502 -0.12223252508E+02 -0.19114232669E+02  0.12125236688E+04  0.12127359190E+04  0.25500000000E-02 0.  1.
         -2    1    1    2  502    0  0.12223252508E+02  0.19114232669E+02  0.10185411851E+04  0.10187938493E+04  0.25500000000E-02 0.  1.
<mgrwt>
<rscale>  0 0.45549147E+02</rscale>
<asrwt>0</asrwt>
<pdfrwt beam="1">  1        2 0.34326948E+00 0.45549147E+02</pdfrwt>
<pdfrwt beam="2">  1       -2 0.35763384E-04 0.45549147E+02</pdfrwt>
<totfact> 0.10361496E+06</totfact>
</mgrwt>
</event>
<event>
 4    1  0.2196664E-002  0.4960505E+02  0.7818608E-02  0.1447483E+00
         -2   -1    0    0  501    0 -0.00000000000E+00  0.00000000000E+00  0.85508124480E+02  0.85508124518E+02  0.25500000000E-02 0. -1.
          2   -1    0    0    0  501  0.00000000000E+00 -0.00000000000E+00 -0.71942314289E+01  0.71942318808E+01  0.25500000000E-02 0. -1.
          2    1    1    2    0  502  0.15510872261E+02  0.16223076296E+02  0.58880618212E+02  0.63013511014E+02  0.25500000000E-02 0.  1.
         -2    1    1    2  502    0 -0.15510872261E+02 -0.16223076296E+02  0.19433274838E+02  0.29688845384E+02  0.25500000000E-02 0.  1.
<mgrwt>
<rscale>  0 0.49605051E+02</rscale>
<asrwt>0</asrwt>
<pdfrwt beam="2">  1        2 0.11068049E-02 0.49605051E+02</pdfrwt>
<pdfrwt beam="1">  1       -2 0.13155096E-01 0.49605051E+02</pdfrwt>
<totfact> 0.37365400E+05</totfact>
</mgrwt>
</event>
<event>
 4    1  0.2196664E-002  0.5132517E+02  0.7818608E-02  0.1438322E+00
          2   -1    0    0    0  501  0.00000000000E+00  0.00000000000E+00  0.13493407311E+03  0.13493407313E+03  0.25500000000E-02 0.  1.
         -2   -1    0    0  501    0 -0.00000000000E+00 -0.00000000000E+00 -0.48806670548E+01  0.48806677209E+01  0.25500000000E-02 0.  1.
          2    1    1    2    0  502 -0.32641426837E+01  0.25336927070E+02  0.71673625573E+02  0.76090230057E+02  0.25500000000E-02 0.  1.
         -2    1    1    2  502    0  0.32641426837E+01 -0.25336927070E+02  0.58379780478E+02  0.63724510794E+02  0.25500000000E-02 0.  1.
<mgrwt>
<rscale>  0 0.51325173E+02</rscale>
<asrwt>0</asrwt>
<pdfrwt beam="1">  1        2 0.20759085E-01 0.51325173E+02</pdfrwt>
<pdfrwt beam="2">  1       -2 0.75087203E-03 0.51325173E+02</pdfrwt>
<totfact> 0.60906455E+05</totfact>
</mgrwt>
</event>
<event>
 4    1  0.2196664E-002  0.4794891E+02  0.7818608E-02  0.1456729E+00
         -2   -1    0    0  501    0 -0.00000000000E+00  0.00000000000E+00  0.10125723697E+02  0.10125724018E+02  0.25500000000E-02 0.  1.
          2   -1    0    0    0  501  0.00000000000E+00 -0.00000000000E+00 -0.56763789175E+02  0.56763789232E+02  0.25500000000E-02 0.  1.
          2    1    1    2    0  502  0.23363113334E+02  0.27493586052E+00 -0.15824301912E+02  0.28219128121E+02  0.25500000000E-02 0. -1.
         -2    1    1    2  502    0 -0.23363113334E+02 -0.27493586052E+00 -0.30813763566E+02  0.38670385129E+02  0.25500000000E-02 0. -1.
<mgrwt>
<rscale>  0 0.47948909E+02</rscale>
<asrwt>0</asrwt>
<pdfrwt beam="2">  1        2 0.87328905E-02 0.47948909E+02</pdfrwt>
<pdfrwt beam="1">  1       -2 0.15578037E-02 0.47948909E+02</pdfrwt>
<totfact> 0.58526663E+05</totfact>
</mgrwt>
</event>
<event>
 4    1  0.2196664E-002  0.6504965E+02  0.7818608E-02  0.1377785E+00
          2   -1    0    0    0  501  0.00000000000E+00  0.00000000000E+00  0.13838803567E+04  0.13838803567E+04  0.25500000000E-02 0. -1.
         -2   -1    0    0  501    0 -0.00000000000E+00 -0.00000000000E+00 -0.76441671912E+00  0.76442097235E+00  0.25500000000E-02 0. -1.
          2    1    1    2    0  502 -0.14611857869E+02  0.28859036065E+02  0.76378571326E+03  0.76447038277E+03  0.25500000000E-02 0. -1.
         -2    1    1    2  502    0  0.14611857869E+02 -0.28859036065E+02  0.61933022668E+03  0.62017439486E+03  0.25500000000E-02 0. -1.
<mgrwt>
<rscale>  0 0.65049650E+02</rscale>
<asrwt>0</asrwt>
<pdfrwt beam="1">  1        2 0.21290337E+00 0.65049650E+02</pdfrwt>
<pdfrwt beam="2">  1       -2 0.11760362E-03 0.65049650E+02</pdfrwt>
<totfact> 0.58055584E+05</totfact>
</mgrwt>
</event>
<event>
 4    1  0.2196664E-002  0.4335792E+02  0.7818608E-02  0.1484861E+00
          2   -1    0    0    0  501  0.00000000000E+00  0.00000000000E+00  0.16001886086E+02  0.16001886289E+02  0.25500000000E-02 0.  1.
         -2   -1    0    0  501    0 -0.00000000000E+00 -0.00000000000E+00 -0.29370116236E+02  0.29370116346E+02  0.25500000000E-02 0.  1.
          2    1    1    2    0  502  0.20688775661E+02 -0.26008184102E+01 -0.47665253482E+00  0.20857058731E+02  0.25500000000E-02 0.  1.
         -2    1    1    2  502    0 -0.20688775661E+02  0.26008184102E+01 -0.12891577615E+02  0.24514943905E+02  0.25500000000E-02 0.  1.
<mgrwt>
<rscale>  0 0.43357918E+02</rscale>
<asrwt>0</asrwt>
<pdfrwt beam="1">  1        2 0.24618287E-02 0.43357918E+02</pdfrwt>
<pdfrwt beam="2">  1       -2 0.45184794E-02 0.43357918E+02</pdfrwt>
<totfact> 0.62104396E+05</totfact>
</mgrwt>
</event>
<event>
 4    1  0.2196664E-002  0.7279560E+02  0.7818608E-02  0.1350836E+00
          2   -1    0    0    0  501  0.00000000000E+00  0.00000000000E+00  0.66381708332E+03  0.66381708333E+03  0.25500000000E-02 0.  1.
         -2   -1    0    0  501    0 -0.00000000000E+00 -0.00000000000E+00 -0.19957296990E+01  0.19957313281E+01  0.25500000000E-02 0.  1.
          2    1    1    2    0  502  0.30892238207E+02 -0.17989099264E+02  0.26829874762E+03  0.27066982849E+03  0.25500000000E-02 0.  1.
         -2    1    1    2  502    0 -0.30892238207E+02  0.17989099264E+02  0.39352260600E+03  0.39514298616E+03  0.25500000000E-02 0.  1.
<mgrwt>
<rscale>  0 0.72795605E+02</rscale>
<asrwt>0</asrwt>
<pdfrwt beam="1">  1        2 0.10212574E+00 0.72795605E+02</pdfrwt>
<pdfrwt beam="2">  1       -2 0.30703536E-03 0.72795605E+02</pdfrwt>
<totfact> 0.42116217E+05</totfact>
</mgrwt>
</event>
<event>
 4    1  0.2196664E-002  0.5505439E+02  0.7818608E-02  0.1419842E+00
         -2   -1    0    0  501    0 -0.00000000000E+00  0.00000000000E+00  0.39925296104E+01  0.39925304247E+01  0.25500000000E-02 0.  1.
          2   -1    0    0    0  501  0.00000000000E+00 -0.00000000000E+00 -0.18979102545E+03  0.18979102547E+03  0.25500000000E-02 0.  1.
          2    1    1    2    0  502 -0.99438101633E+01  0.18476646466E+02 -0.30182497671E+02  0.36759338914E+02  0.25500000000E-02 0.  1.
         -2    1    1    2  502    0  0.99438101633E+01 -0.18476646466E+02 -0.15561599817E+03  0.15702421698E+03  0.25500000000E-02 0.  1.
<mgrwt>
<rscale>  0 0.55054387E+02</rscale>
<asrwt>0</asrwt>
<pdfrwt beam="2">  1        2 0.29198612E-01 0.55054387E+02</pdfrwt>
<pdfrwt beam="1">  1       -2 0.61423554E-03 0.55054387E+02</pdfrwt>
<totfact> 0.56760259E+05</totfact>
</mgrwt>
</event>
<event>
 4    1  0.2196664E-002  0.5203003E+02  0.7818608E-02  0.1434690E+00
         -2   -1    0    0  501    0 -0.00000000000E+00  0.00000000000E+00  0.32725985062E+00  0.32726978524E+00  0.25500000000E-02 0. -1.
          2   -1    0    0    0  501  0.00000000000E+00 -0.00000000000E+00 -0.20679919433E+04  0.20679919433E+04  0.25500000000E-02 0. -1.
          2    1    1    2    0  502  0.12379084125E+02 -0.19052149373E+02 -0.53012851643E+03  0.53061518076E+03  0.25500000000E-02 0. -1.
         -2    1    1    2  502    0 -0.12379084125E+02  0.19052149373E+02 -0.15375361670E+04  0.15377040323E+04  0.25500000000E-02 0. -1.
<mgrwt>
<rscale>  0 0.52030030E+02</rscale>
<asrwt>0</asrwt>
<pdfrwt beam="2">  1        2 0.31814214E+00 0.52030030E+02</pdfrwt>
<pdfrwt beam="1">  1       -2 0.50350090E-04 0.52030030E+02</pdfrwt>
<totfact> 0.80744561E+05</totfact>
</mgrwt>
</event>
<event>
 4    1  0.2196664E-002  0.5995545E+02  0.7818608E-02  0.1398019E+00
         -2   -1    0    0  501    0 -0.00000000000E+00  0.00000000000E+00  0.94209979026E+02  0.94209979061E+02  0.25500000000E-02 0. -1.
          2   -1    0    0    0  501  0.00000000000E+00 -0.00000000000E+00 -0.95389475046E+01  0.95389478455E+01  0.25500000000E-02 0. -1.
          2    1    1    2    0  502 -0.23743428372E+02 -0.18294913296E+02  0.43128148641E+02  0.52521342853E+02  0.25500000000E-02 0.  1.
         -2    1    1    2  502    0  0.23743428372E+02  0.18294913296E+02  0.41542882881E+02  0.51227584053E+02  0.25500000000E-02 0.  1.
<mgrwt>
<rscale>  0 0.59955452E+02</rscale>
<asrwt>0</asrwt>
<pdfrwt beam="2">  1        2 0.14675304E-02 0.59955452E+02</pdfrwt>
<pdfrwt beam="1">  1       -2 0.14493843E-01 0.59955452E+02</pdfrwt>
<totfact> 0.22953144E+05</totfact>
</mgrwt>
</event>
<event>
 4    1  0.2196664E-002  0.6961812E+02  0.7818608E-02  0.1361396E+00
         -2   -1    0    0  501    0 -0.00000000000E+00  0.00000000000E+00  0.39750097332E+01  0.39750105511E+01  0.25500000000E-02 0.  1.
          2   -1    0    0    0  501  0.00000000000E+00 -0.00000000000E+00 -0.30482199263E+03  0.30482199264E+03  0.25500000000E-02 0.  1.
          2    1    1    2    0  502  0.21917051668E+01  0.28392796128E+02 -0.23921454079E+03  0.24090361346E+03  0.25500000000E-02 0. -1.
         -2    1    1    2  502    0 -0.21917051668E+01 -0.28392796128E+02 -0.61632442107E+02  0.67893389738E+02  0.25500000000E-02 0. -1.
<mgrwt>
<rscale>  0 0.69618116E+02</rscale>
<asrwt>0</asrwt>
<pdfrwt beam="2">  1        2 0.46895673E-01 0.69618116E+02</pdfrwt>
<pdfrwt beam="1">  1       -2 0.61154026E-03 0.69618116E+02</pdfrwt>
<totfact> 0.36712060E+05</totfact>
</mgrwt>
</event>
<event>
 4    1  0.2196664E-002  0.8674624E+02  0.7818608E-02  0.1310928E+00
          2   -1    0    0    0  501  0.00000000000E+00  0.00000000000E+00  0.15199599743E+04  0.15199599743E+04  0.25500000000E-02 0. -1.
         -2   -1    0    0  501    0 -0.00000000000E+00 -0.00000000000E+00 -0.12376810106E+01  0.12376836375E+01  0.25500000000E-02 0. -1.
          2    1    1    2    0  502  0.17439316858E+02 -0.12265451278E+02  0.14217220581E+04  0.14218819155E+04  0.25500000000E-02 0.  1.
         -2    1    1    2  502    0 -0.17439316858E+02  0.12265451278E+02  0.97000235202E+02  0.99315742474E+02  0.25500000000E-02 0.  1.
<mgrwt>
<rscale>  0 0.86746241E+02</rscale>
<asrwt>0</asrwt>
<pdfrwt beam="1">  1        2 0.23383946E+00 0.86746241E+02</pdfrwt>
<pdfrwt beam="2">  1       -2 0.19041310E-03 0.86746241E+02</pdfrwt>
<totfact> 0.26761376E+05</totfact>
</mgrwt>
</event>
<event>
 4    1  0.2196664E-002  0.4667232E+02  0.7818608E-02  0.1464164E+00
          2   -1    0    0    0  501  0.00000000000E+00  0.00000000000E+00  0.58452255620E+02  0.58452255676E+02  0.25500000000E-02 0. -1.
         -2   -1    0    0  501    0 -0.00000000000E+00 -0.00000000000E+00 -0.93166028700E+01  0.93166032190E+01  0.25500000000E-02 0. -1.
          2    1    1    2    0  502  0.68567726897E+00 -0.20691193243E+02  0.40205201192E+02  0.45222271510E+02  0.25500000000E-02 0. -1.
         -2    1    1    2  502    0 -0.68567726897E+00  0.20691193243E+02  0.89304515583E+01  0.22546587385E+02  0.25500000000E-02 0. -1.
<mgrwt>
<rscale>  0 0.46672324E+02</rscale>
<asrwt>0</asrwt>
<pdfrwt beam="1">  1        2 0.89926545E-02 0.46672324E+02</pdfrwt>
<pdfrwt beam="2">  1       -2 0.14333236E-02 0.46672324E+02</pdfrwt>
<totfact> 0.63049754E+05</totfact>
</mgrwt>
</event>
<event>
 4    1  0.2196664E-002  0.5681117E+02  0.7818608E-02  0.1411723E+00
          2   -1    0    0    0  501  0.00000000000E+00  0.00000000000E+00  0.80230199886E+02  0.80230199927E+02  0.25500000000E-02 0. -1.
         -2   -1    0    0  501    0 -0.00000000000E+00 -0.00000000000E+00 -0.10057026186E+02  0.10057026509E+02  0.25500000000E-02 0. -1.
          2    1    1    2    0  502  0.30126074483E+01 -0.28017579981E+02  0.40776159764E+02  0.49565671621E+02  0.25500000000E-02 0.  1.
         -2    1    1    2  502    0 -0.30126074483E+01  0.28017579981E+02  0.29397013937E+02  0.40721554815E+02  0.25500000000E-02 0.  1.
<mgrwt>
<rscale>  0 0.56811169E+02</rscale>
<asrwt>0</asrwt>
<pdfrwt beam="1">  1        2 0.12343107E-01 0.56811169E+02</pdfrwt>
<pdfrwt beam="2">  1       -2 0.15472349E-02 0.56811169E+02</pdfrwt>
<totfact> 0.40847410E+05</totfact>
</mgrwt>
</event>
<event>
 4    1  0.2196664E-002  0.5033109E+02  0.7818608E-02  0.1443564E+00
         -2   -1    0    0  501    0 -0.00000000000E+00  0.00000000000E+00  0.11515866378E+02  0.11515866660E+02  0.25500000000E-02 0. -1.
          2   -1    0    0    0  501  0.00000000000E+00 -0.00000000000E+00 -0.54994086519E+02  0.54994086578E+02  0.25500000000E-02 0. -1.
          2    1    1    2    0  502 -0.11637142556E+02  0.20148869710E+02 -0.34407422691E+02  0.41536378997E+02  0.25500000000E-02 0. -1.
         -2    1    1    2  502    0  0.11637142556E+02 -0.20148869710E+02 -0.90707974503E+01  0.24973574241E+02  0.25500000000E-02 0. -1.
<mgrwt>
<rscale>  0 0.50331086E+02</rscale>
<asrwt>0</asrwt>
<pdfrwt beam="2">  1        2 0.84606286E-02 0.50331086E+02</pdfrwt>
<pdfrwt beam="1">  1       -2 0.17716718E-02 0.50331086E+02</pdfrwt>
<totfact> 0.51376998E+05</totfact>
</mgrwt>
</event>
<event>
 4    1  0.2196664E-002  0.5597755E+02  0.7818608E-02  0.1415532E+00
          2   -1    0    0    0  501  0.00000000000E+00  0.00000000000E+00  0.17685207293E+04  0.17685207293E+04  0.25500000000E-02 0. -1.
         -2   -1    0    0  501    0 -0.00000000000E+00 -0.00000000000E+00 -0.44294923343E+00  0.44295657338E+00  0.25500000000E-02 0. -1.
          2    1    1    2    0  502 -0.53073616369E+01  0.27414748533E+02  0.82378998725E+03  0.82426311310E+03  0.25500000000E-02 0. -1.
         -2    1    1    2  502    0  0.53073616369E+01 -0.27414748533E+02  0.94428779280E+03  0.94470057275E+03  0.25500000000E-02 0. -1.
<mgrwt>
<rscale>  0 0.55977545E+02</rscale>
<asrwt>0</asrwt>
<pdfrwt beam="1">  1        2 0.27208218E+00 0.55977545E+02</pdfrwt>
<pdfrwt beam="2">  1       -2 0.68146082E-04 0.55977545E+02</pdfrwt>
<totfact> 0.76231500E+05</totfact>
</mgrwt>
</event>
<event>
 4    1  0.2196664E-002  0.4459168E+02  0.7818608E-02  0.1476907E+00
         -2   -1    0    0  501    0 -0.00000000000E+00  0.00000000000E+00  0.53447605430E+03  0.53447605431E+03  0.25500000000E-02 0.  1.
          2   -1    0    0    0  501  0.00000000000E+00 -0.00000000000E+00 -0.93007646210E+00  0.93007995778E+00  0.25500000000E-02 0.  1.
          2    1    1    2    0  502 -0.12295117522E+02 -0.15843948748E+02  0.14980378925E+03  0.15114025243E+03  0.25500000000E-02 0.  1.
         -2    1    1    2  502    0  0.12295117522E+02  0.15843948748E+02  0.38374218859E+03  0.38426588183E+03  0.25500000000E-02 0.  1.
<mgrwt>
<rscale>  0 0.44591682E+02</rscale>
<asrwt>0</asrwt>
<pdfrwt beam="2">  1        2 0.14308890E-03 0.44591682E+02</pdfrwt>
<pdfrwt beam="1">  1       -2 0.82227116E-01 0.44591682E+02</pdfrwt>
<totfact> 0.20788709E+05</totfact>
</mgrwt>
</event>
<event>
 4    1  0.2196664E-002  0.4074212E+02  0.7818608E-02  0.1502820E+00
          2   -1    0    0    0  501  0.00000000000E+00  0.00000000000E+00  0.36619107538E+01  0.36619116416E+01  0.25500000000E-02 0.  1.
         -2   -1    0    0  501    0 -0.00000000000E+00 -0.00000000000E+00 -0.11332337155E+03  0.11332337158E+03  0.25500000000E-02 0.  1.
          2    1    1    2    0  502  0.13678260208E+02  0.14720858953E+02 -0.64432253544E+02  0.67493064784E+02  0.25500000000E-02 0. -1.
         -2    1    1    2  502    0 -0.13678260208E+02 -0.14720858953E+02 -0.45229207255E+02  0.49492218440E+02  0.25500000000E-02 0. -1.
<mgrwt>
<rscale>  0 0.40742122E+02</rscale>
<asrwt>0</asrwt>
<pdfrwt beam="1">  1        2 0.56337104E-03 0.40742122E+02</pdfrwt>
<pdfrwt beam="2">  1       -2 0.17434362E-01 0.40742122E+02</pdfrwt>
<totfact> 0.56095987E+05</totfact>
</mgrwt>
</event>
<event>
 4    1  0.2196664E-002  0.9042883E+02  0.7818608E-02  0.1301817E+00
         -2   -1    0    0  501    0 -0.00000000000E+00  0.00000000000E+00  0.24095421908E+01  0.24095435401E+01  0.25500000000E-02 0. -1.
          2   -1    0    0    0  501  0.00000000000E+00 -0.00000000000E+00 -0.84843616229E+03  0.84843616230E+03  0.25500000000E-02 0. -1.
          2    1    1    2    0  502 -0.30186644354E+02  0.33483231364E+02 -0.39044261582E+03  0.39303663510E+03  0.25500000000E-02 0.  1.
         -2    1    1    2  502    0  0.30186644354E+02 -0.33483231364E+02 -0.45558400428E+03  0.45780907073E+03  0.25500000000E-02 0.  1.
<mgrwt>
<rscale>  0 0.90428830E+02</rscale>
<asrwt>0</asrwt>
<pdfrwt beam="2">  1        2 0.13052840E+00 0.90428830E+02</pdfrwt>
<pdfrwt beam="1">  1       -2 0.37069958E-03 0.90428830E+02</pdfrwt>
<totfact> 0.25145214E+05</totfact>
</mgrwt>
</event>
<event>
 4    1  0.2196664E-002  0.4206618E+02  0.7818608E-02  0.1493535E+00
          2   -1    0    0    0  501  0.00000000000E+00  0.00000000000E+00  0.11279818007E+04  0.11279818007E+04  0.25500000000E-02 0.  1.
         -2   -1    0    0  501    0 -0.00000000000E+00 -0.00000000000E+00 -0.39219260842E+00  0.39220089827E+00  0.25500000000E-02 0.  1.
          2    1    1    2    0  502  0.16577931497E+02 -0.12837911823E+02  0.51930447163E+03  0.51972759601E+03  0.25500000000E-02 0.  1.
         -2    1    1    2  502    0 -0.16577931497E+02  0.12837911823E+02  0.60828513645E+03  0.60864640558E+03  0.25500000000E-02 0.  1.
<mgrwt>
<rscale>  0 0.42066177E+02</rscale>
<asrwt>0</asrwt>
<pdfrwt beam="1">  1        2 0.17353472E+00 0.42066177E+02</pdfrwt>
<pdfrwt beam="2">  1       -2 0.60338290E-04 0.42066177E+02</pdfrwt>
<totfact> 0.17661844E+06</totfact>
</mgrwt>
</event>
<event>
 4    1  0.2196664E-002  0.6248327E+02  0.7818608E-02  0.1387696E+00
         -2   -1    0    0  501    0 -0.00000000000E+00  0.00000000000E+00  0.18143194840E+01  0.18143212760E+01  0.25500000000E-02 0.  1.
          2   -1    0    0    0  501  0.00000000000E+00 -0.00000000000E+00 -0.53796436215E+03  0.53796436215E+03  0.25500000000E-02 0.  1.
          2    1    1    2    0  502 -0.46407757130E+01  0.30384093414E+02 -0.31641338394E+03  0.31790275160E+03  0.25500000000E-02 0.  1.
         -2    1    1    2  502    0  0.46407757130E+01 -0.30384093414E+02 -0.21973665873E+03  0.22187593183E+03  0.25500000000E-02 0.  1.
<mgrwt>
<rscale>  0 0.62483268E+02</rscale>
<asrwt>0</asrwt>
<pdfrwt beam="2">  1        2 0.82763621E-01 0.62483268E+02</pdfrwt>
<pdfrwt beam="1">  1       -2 0.27912664E-03 0.62483268E+02</pdfrwt>
<totfact> 0.58739449E+05</totfact>
</mgrwt>
</event>
<event>
 4    1  0.2196664E-002  0.7039566E+02  0.7818608E-02  0.1358753E+00
          2   -1    0    0    0  501  0.00000000000E+00  0.00000000000E+00  0.82881464145E+03  0.82881464145E+03  0.25500000000E-02 0.  1.
         -2   -1    0    0  501    0 -0.00000000000E+00 -0.00000000000E+00 -0.14947690756E+01  0.14947712507E+01  0.25500000000E-02 0.  1.
          2    1    1    2    0  502 -0.30073115890E+01  0.33644225129E+02  0.29695031626E+03  0.29886530099E+03  0.25500000000E-02 0.  1.
         -2    1    1    2  502    0  0.30073115890E+01 -0.33644225129E+02  0.53036955611E+03  0.53144411171E+03  0.25500000000E-02 0.  1.
<mgrwt>
<rscale>  0 0.70395665E+02</rscale>
<asrwt>0</asrwt>
<pdfrwt beam="1">  1        2 0.12751004E+00 0.70395665E+02</pdfrwt>
<pdfrwt beam="2">  1       -2 0.22996446E-03 0.70395665E+02</pdfrwt>
<totfact> 0.48037222E+05</totfact>
</mgrwt>
</event>
<event>
 4    1  0.2196664E-002  0.4120772E+02  0.7818608E-02  0.1499507E+00
         -2   -1    0    0  501    0 -0.00000000000E+00  0.00000000000E+00  0.26095286489E+03  0.26095286490E+03  0.25500000000E-02 0.  1.
          2   -1    0    0    0  501  0.00000000000E+00 -0.00000000000E+00 -0.16268027469E+01  0.16268047454E+01  0.25500000000E-02 0.  1.
          2    1    1    2    0  502 -0.20263095866E+01 -0.20177356602E+02  0.10643549075E+03  0.10835010543E+03  0.25500000000E-02 0. -1.
         -2    1    1    2  502    0  0.20263095866E+01  0.20177356602E+02  0.15289057139E+03  0.15422956421E+03  0.25500000000E-02 0. -1.
<mgrwt>
<rscale>  0 0.41207723E+02</rscale>
<asrwt>0</asrwt>
<pdfrwt beam="2">  1        2 0.25027763E-03 0.41207723E+02</pdfrwt>
<pdfrwt beam="1">  1       -2 0.40146574E-01 0.41207723E+02</pdfrwt>
<totfact> 0.40008920E+05</totfact>
</mgrwt>
</event>
<event>
 4    1  0.2196664E-002  0.4993146E+02  0.7818608E-02  0.1445712E+00
         -2   -1    0    0  501    0 -0.00000000000E+00  0.00000000000E+00  0.26436450407E+01  0.26436462705E+01  0.25500000000E-02 0.  1.
          2   -1    0    0    0  501  0.00000000000E+00 -0.00000000000E+00 -0.23576824057E+03  0.23576824058E+03  0.25500000000E-02 0.  1.
          2    1    1    2    0  502  0.19554555827E+02 -0.15212121517E+02 -0.13127791781E+03  0.13359521326E+03  0.25500000000E-02 0.  1.
         -2    1    1    2  502    0 -0.19554555827E+02  0.15212121517E+02 -0.10184667771E+03  0.10481667359E+03  0.25500000000E-02 0.  1.
<mgrwt>
<rscale>  0 0.49931461E+02</rscale>
<asrwt>0</asrwt>
<pdfrwt beam="2">  1        2 0.36272021E-01 0.49931461E+02</pdfrwt>
<pdfrwt beam="1">  1       -2 0.40671490E-03 0.49931461E+02</pdfrwt>
<totfact> 0.78083673E+05</totfact>
</mgrwt>
</event>
<event>
 4    1  0.2196664E-002  0.7825668E+02  0.7818608E-02  0.1334073E+00
         -2   -1    0    0  501    0 -0.00000000000E+00  0.00000000000E+00  0.12823695866E+03  0.12823695869E+03  0.25500000000E-02 0. -1.
          2   -1    0    0    0  501  0.00000000000E+00 -0.00000000000E+00 -0.11939044960E+02  0.11939045232E+02  0.25500000000E-02 0. -1.
          2    1    1    2    0  502 -0.66333145426E+00  0.39089029144E+02  0.55241512695E+02  0.67675822413E+02  0.25500000000E-02 0. -1.
         -2    1    1    2  502    0  0.66333145426E+00 -0.39089029144E+02  0.61056401008E+02  0.72500181507E+02  0.25500000000E-02 0. -1.
<mgrwt>
<rscale>  0 0.78256676E+02</rscale>
<asrwt>0</asrwt>
<pdfrwt beam="2">  1        2 0.18367761E-02 0.78256676E+02</pdfrwt>
<pdfrwt beam="1">  1       -2 0.19728764E-01 0.78256676E+02</pdfrwt>
<totfact> 0.10834351E+05</totfact>
</mgrwt>
</event>
<event>
 4    1  0.2196664E-002  0.4605188E+02  0.7818608E-02  0.1467880E+00
         -2   -1    0    0  501    0 -0.00000000000E+00  0.00000000000E+00  0.29371047528E+02  0.29371047639E+02  0.25500000000E-02 0.  1.
          2   -1    0    0    0  501  0.00000000000E+00 -0.00000000000E+00 -0.18051585479E+02  0.18051585659E+02  0.25500000000E-02 0.  1.
          2    1    1    2    0  502  0.20653907471E+02  0.76472637533E+01 -0.12580727583E+01  0.22060083642E+02  0.25500000000E-02 0.  1.
         -2    1    1    2  502    0 -0.20653907471E+02 -0.76472637533E+01  0.12577534807E+02  0.25362549656E+02  0.25500000000E-02 0.  1.
<mgrwt>
<rscale>  0 0.46051883E+02</rscale>
<asrwt>0</asrwt>
<pdfrwt beam="2">  1        2 0.27771670E-02 0.46051883E+02</pdfrwt>
<pdfrwt beam="1">  1       -2 0.45186227E-02 0.46051883E+02</pdfrwt>
<totfact> 0.53920746E+05</totfact>
</mgrwt>
</event>
<event>
 4    1  0.2196664E-002  0.5614251E+02  0.7818608E-02  0.1414772E+00
         -2   -1    0    0  501    0 -0.00000000000E+00  0.00000000000E+00  0.19726264955E+01  0.19726281437E+01  0.25500000000E-02 0. -1.
          2   -1    0    0    0  501  0.00000000000E+00 -0.00000000000E+00 -0.39946493104E+03  0.39946493105E+03  0.25500000000E-02 0. -1.
          2    1    1    2    0  502 -0.14022591968E+02  0.14895342275E+02 -0.33619090426E+03  0.33681274979E+03  0.25500000000E-02 0.  1.
         -2    1    1    2  502    0  0.14022591968E+02 -0.14895342275E+02 -0.61301400285E+02  0.64624809403E+02  0.25500000000E-02 0.  1.
<mgrwt>
<rscale>  0 0.56142513E+02</rscale>
<asrwt>0</asrwt>
<pdfrwt beam="2">  1        2 0.61456079E-01 0.56142513E+02</pdfrwt>
<pdfrwt beam="1">  1       -2 0.30348144E-03 0.56142513E+02</pdfrwt>
<totfact> 0.69903413E+05</totfact>
</mgrwt>
</event>
<event>
 4    1  0.2196664E-002  0.4084763E+02  0.7818608E-02  0.1502065E+00
          2   -1    0    0    0  501  0.00000000000E+00  0.00000000000E+00  0.32401457655E+00  0.32402461067E+00  0.25500000000E-02 0.  1.
         -2   -1    0    0  501    0 -0.00000000000E+00 -0.00000000000E+00 -0.12873671530E+04  0.12873671530E+04  0.25500000000E-02 0.  1.
          2    1    1    2    0  502  0.49717595716E+01 -0.19403860321E+02 -0.51780343703E+03  0.51819072511E+03  0.25500000000E-02 0. -1.
         -2    1    1    2  502    0 -0.49717595716E+01  0.19403860321E+02 -0.76923970143E+03  0.76950045254E+03  0.25500000000E-02 0. -1.
<mgrwt>
<rscale>  0 0.40847628E+02</rscale>
<asrwt>0</asrwt>
<pdfrwt beam="1">  1        2 0.49850199E-04 0.40847628E+02</pdfrwt>
<pdfrwt beam="2">  1       -2 0.19805239E+00 0.40847628E+02</pdfrwt>
<totfact> 0.10099251E+05</totfact>
</mgrwt>
</event>
<event>
 4    1  0.2196664E-002  0.7850009E+02  0.7818608E-02  0.1333363E+00
          2   -1    0    0    0  501  0.00000000000E+00  0.00000000000E+00  0.85062104930E+01  0.85062108752E+01  0.25500000000E-02 0.  1.
         -2   -1    0    0  501    0 -0.00000000000E+00 -0.00000000000E+00 -0.18111074983E+03  0.18111074984E+03  0.25500000000E-02 0.  1.
          2    1    1    2    0  502 -0.23966353814E+02  0.21713851537E+02 -0.14002684739E+03  0.14371289246E+03  0.25500000000E-02 0.  1.
         -2    1    1    2  502    0  0.23966353814E+02 -0.21713851537E+02 -0.32577691947E+02  0.45904068260E+02  0.25500000000E-02 0.  1.
<mgrwt>
<rscale>  0 0.78500094E+02</rscale>
<asrwt>0</asrwt>
<pdfrwt beam="1">  1        2 0.13086479E-02 0.78500094E+02</pdfrwt>
<pdfrwt beam="2">  1       -2 0.27863190E-01 0.78500094E+02</pdfrwt>
<totfact> 0.95029109E+04</totfact>
</mgrwt>
</event>
<event>
 4    1  0.2196664E-002  0.4841452E+02  0.7818608E-02  0.1454086E+00
          2   -1    0    0    0  501  0.00000000000E+00  0.00000000000E+00  0.22224982404E+02  0.22224982550E+02  0.25500000000E-02 0.  1.
         -2   -1    0    0  501    0 -0.00000000000E+00 -0.00000000000E+00 -0.26366337623E+02  0.26366337746E+02  0.25500000000E-02 0.  1.
          2    1    1    2    0  502 -0.93385121006E+01 -0.19120959672E+02  0.95115029844E+01  0.23308530682E+02  0.25500000000E-02 0. -1.
         -2    1    1    2  502    0  0.93385121006E+01  0.19120959672E+02 -0.13652858203E+02  0.25282789614E+02  0.25500000000E-02 0. -1.
<mgrwt>
<rscale>  0 0.48414518E+02</rscale>
<asrwt>0</asrwt>
<pdfrwt beam="1">  1        2 0.34192281E-02 0.48414518E+02</pdfrwt>
<pdfrwt beam="2">  1       -2 0.40563596E-02 0.48414518E+02</pdfrwt>
<totfact> 0.48748353E+05</totfact>
</mgrwt>
</event>
<event>
 4    1  0.2196664E-002  0.6895880E+02  0.7818608E-02  0.1363670E+00
         -2   -1    0    0  501    0 -0.00000000000E+00  0.00000000000E+00  0.25916333561E+01  0.25916346106E+01  0.25500000000E-02 0.  1.
          2   -1    0    0    0  501  0.00000000000E+00 -0.00000000000E+00 -0.45871792635E+03  0.45871792636E+03  0.25500000000E-02 0.  1.
          2    1    1    2    0  502 -0.23109282591E+02 -0.14303407135E+02 -0.86122508412E+02  0.90308985484E+02  0.25500000000E-02 0. -1.
         -2    1    1    2  502    0  0.23109282591E+02  0.14303407135E+02 -0.37000378458E+03  0.37100057548E+03  0.25500000000E-02 0. -1.
<mgrwt>
<rscale>  0 0.68958798E+02</rscale>
<asrwt>0</asrwt>
<pdfrwt beam="2">  1        2 0.70571924E-01 0.68958798E+02</pdfrwt>
<pdfrwt beam="1">  1       -2 0.39871329E-03 0.68958798E+02</pdfrwt>
<totfact> 0.43411139E+05</totfact>
</mgrwt>
</event>
<event>
 4    1  0.2196664E-002  0.5169974E+02  0.7818608E-02  0.1436383E+00
          2   -1    0    0    0  501  0.00000000000E+00  0.00000000000E+00  0.32082936154E+03  0.32082936155E+03  0.25500000000E-02 0.  1.
         -2   -1    0    0  501    0 -0.00000000000E+00 -0.00000000000E+00 -0.20827753786E+01  0.20827769396E+01  0.25500000000E-02 0.  1.
          2    1    1    2    0  502  0.20495082804E+01  0.22045455803E+02  0.24270725841E+03  0.24371503010E+03  0.25500000000E-02 0. -1.
         -2    1    1    2  502    0 -0.20495082804E+01 -0.22045455803E+02  0.76039327750E+02  0.79197108388E+02  0.25500000000E-02 0. -1.
<mgrwt>
<rscale>  0 0.51699739E+02</rscale>
<asrwt>0</asrwt>
<pdfrwt beam="1">  1        2 0.49358347E-01 0.51699739E+02</pdfrwt>
<pdfrwt beam="2">  1       -2 0.32042721E-03 0.51699739E+02</pdfrwt>
<totfact> 0.79675584E+05</totfact>
</mgrwt>
</event>
<event>
 4    1  0.2196664E-002  0.4260988E+02  0.7818608E-02  0.1489839E+00
          2   -1    0    0    0  501  0.00000000000E+00  0.00000000000E+00  0.17088121745E+04  0.17088121745E+04  0.25500000000E-02 0.  1.
         -2   -1    0    0  501    0 -0.00000000000E+00 -0.00000000000E+00 -0.26561726377E+00  0.26562950384E+00  0.25500000000E-02 0.  1.
          2    1    1    2    0  502 -0.16064040684E+02  0.13335487333E+02  0.10245011232E+04  0.10247138332E+04  0.25500000000E-02 0.  1.
         -2    1    1    2  502    0  0.16064040684E+02 -0.13335487333E+02  0.68404543411E+03  0.68436397082E+03  0.25500000000E-02 0.  1.
<mgrwt>
<rscale>  0 0.42609880E+02</rscale>
<asrwt>0</asrwt>
<pdfrwt beam="1">  1        2 0.26289458E+00 0.42609880E+02</pdfrwt>
<pdfrwt beam="2">  1       -2 0.40865074E-04 0.42609880E+02</pdfrwt>
<totfact> 0.15303263E+06</totfact>
</mgrwt>
</event>
<event>
 4    1  0.2196664E-002  0.4287236E+02  0.7818608E-02  0.1488079E+00
          2   -1    0    0    0  501  0.00000000000E+00  0.00000000000E+00  0.15306947658E+04  0.15306947658E+04  0.25500000000E-02 0. -1.
         -2   -1    0    0  501    0 -0.00000000000E+00 -0.00000000000E+00 -0.30019146143E+00  0.30020229182E+00  0.25500000000E-02 0. -1.
          2    1    1    2    0  502  0.16264717096E+02  0.13264170469E+02  0.92098097657E+03  0.92122008144E+03  0.25500000000E-02 0.  1.
         -2    1    1    2  502    0 -0.16264717096E+02 -0.13264170469E+02  0.60941359774E+03  0.60977488662E+03  0.25500000000E-02 0.  1.
<mgrwt>
<rscale>  0 0.42872359E+02</rscale>
<asrwt>0</asrwt>
<pdfrwt beam="1">  1        2 0.23549049E+00 0.42872359E+02</pdfrwt>
<pdfrwt beam="2">  1       -2 0.46184333E-04 0.42872359E+02</pdfrwt>
<totfact> 0.15873053E+06</totfact>
</mgrwt>
</event>
<event>
 4    1  0.2196664E-002  0.7169723E+02  0.7818608E-02  0.1354415E+00
         -2   -1    0    0  501    0 -0.00000000000E+00  0.00000000000E+00  0.15081126862E+03  0.15081126864E+03  0.25500000000E-02 0. -1.
          2   -1    0    0    0  501  0.00000000000E+00 -0.00000000000E+00 -0.85214004770E+01  0.85214008585E+01  0.25500000000E-02 0. -1.
          2    1    1    2    0  502 -0.16414817712E+02 -0.26338276190E+02  0.31268929220E+02  0.44055612290E+02  0.25500000000E-02 0. -1.
         -2    1    1    2  502    0  0.16414817712E+02  0.26338276190E+02  0.11102093892E+03  0.11527705721E+03  0.25500000000E-02 0. -1.
<mgrwt>
<rscale>  0 0.71697231E+02</rscale>
<asrwt>0</asrwt>
<pdfrwt beam="2">  1        2 0.13109847E-02 0.71697231E+02</pdfrwt>
<pdfrwt beam="1">  1       -2 0.23201734E-01 0.71697231E+02</pdfrwt>
<totfact> 0.12787036E+05</totfact>
</mgrwt>
</event>
<event>
 4    1  0.2196664E-002  0.7016521E+02  0.7818608E-02  0.1359532E+00
         -2   -1    0    0  501    0 -0.00000000000E+00  0.00000000000E+00  0.87706427416E+01  0.87706431123E+01  0.25500000000E-02 0.  1.
          2   -1    0    0    0  501  0.00000000000E+00 -0.00000000000E+00 -0.14033054432E+03  0.14033054434E+03  0.25500000000E-02 0.  1.
          2    1    1    2    0  502  0.80493731777E+00  0.30570864452E+02 -0.10231289083E+03  0.10678554825E+03  0.25500000000E-02 0. -1.
         -2    1    1    2  502    0 -0.80493731777E+00 -0.30570864452E+02 -0.29247010743E+02  0.42315639205E+02  0.25500000000E-02 0. -1.
<mgrwt>
<rscale>  0 0.70165208E+02</rscale>
<asrwt>0</asrwt>
<pdfrwt beam="2">  1        2 0.21589313E-01 0.70165208E+02</pdfrwt>
<pdfrwt beam="1">  1       -2 0.13493298E-02 0.70165208E+02</pdfrwt>
<totfact> 0.27530881E+05</totfact>
</mgrwt>
</event>
<event>
 4    1  0.2196664E-002  0.1061661E+03  0.7818608E-02  0.1267839E+00
          2   -1    0    0    0  501  0.00000000000E+00  0.00000000000E+00  0.97227508888E+03  0.97227508889E+03  0.25500000000E-02 0.  1.
         -2   -1    0    0  501    0 -0.00000000000E+00 -0.00000000000E+00 -0.28981598039E+01  0.28981609257E+01  0.25500000000E-02 0.  1.
          2    1    1    2    0  502  0.98886356428E+01  0.52140847781E+02  0.47399235187E+03  0.47695408874E+03  0.25500000000E-02 0. -1.
         -2    1    1    2  502    0 -0.98886356428E+01 -0.52140847781E+02  0.49538457720E+03  0.49821916107E+03  0.25500000000E-02 0. -1.
<mgrwt>
<rscale>  0 0.10616608E+03</rscale>
<asrwt>0</asrwt>
<pdfrwt beam="1">  1        2 0.14958106E+00 0.10616608E+03</pdfrwt>
<pdfrwt beam="2">  1       -2 0.44587000E-03 0.10616608E+03</pdfrwt>
<totfact> 0.16670326E+05</totfact>
</mgrwt>
</event>
<event>
 4    1  0.2196664E-002  0.1085661E+03  0.7818608E-02  0.1263248E+00
         -2   -1    0    0  501    0 -0.00000000000E+00  0.00000000000E+00  0.47542183164E+01  0.47542190003E+01  0.25500000000E-02 0.  1.
          2   -1    0    0    0  501  0.00000000000E+00 -0.00000000000E+00 -0.61979686577E+03  0.61979686577E+03  0.25500000000E-02 0.  1.
          2    1    1    2    0  502 -0.21544175256E+02 -0.12131197068E+02 -0.58552341227E+03  0.58604520623E+03  0.25500000000E-02 0.  1.
         -2    1    1    2  502    0  0.21544175256E+02  0.12131197068E+02 -0.29519235184E+02  0.38505878540E+02  0.25500000000E-02 0.  1.
<mgrwt>
<rscale>  0 0.10856611E+03</rscale>
<asrwt>0</asrwt>
<pdfrwt beam="2">  1        2 0.95353300E-01 0.10856611E+03</pdfrwt>
<pdfrwt beam="1">  1       -2 0.73141875E-03 0.10856611E+03</pdfrwt>
<totfact> 0.14441402E+05</totfact>
</mgrwt>
</event>
<event>
 4    1  0.2196664E-002  0.4807153E+02  0.7818608E-02  0.1456030E+00
         -2   -1    0    0  501    0 -0.00000000000E+00  0.00000000000E+00  0.46463263421E+00  0.46463963162E+00  0.25500000000E-02 0. -1.
          2   -1    0    0    0  501  0.00000000000E+00 -0.00000000000E+00 -0.12433772708E+04  0.12433772708E+04  0.25500000000E-02 0. -1.
          2    1    1    2    0  502  0.11862867286E+02 -0.18027911330E+02 -0.89527102502E+03  0.89553109463E+03  0.25500000000E-02 0.  1.
         -2    1    1    2  502    0 -0.11862867286E+02  0.18027911330E+02 -0.34764161310E+03  0.34831081575E+03  0.25500000000E-02 0.  1.
<mgrwt>
<rscale>  0 0.48071530E+02</rscale>
<asrwt>0</asrwt>
<pdfrwt beam="2">  1        2 0.19128615E+00 0.48071530E+02</pdfrwt>
<pdfrwt beam="1">  1       -2 0.71483477E-04 0.48071530E+02</pdfrwt>
<totfact> 0.12641746E+06</totfact>
</mgrwt>
</event>
<event>
 4    1  0.2196664E-002  0.6250508E+02  0.7818608E-02  0.1387610E+00
         -2   -1    0    0  501    0 -0.00000000000E+00  0.00000000000E+00  0.20041931541E+02  0.20041931703E+02  0.25500000000E-02 0.  1.
          2   -1    0    0    0  501  0.00000000000E+00 -0.00000000000E+00 -0.48733895539E+02  0.48733895606E+02  0.25500000000E-02 0.  1.
          2    1    1    2    0  502  0.24947383628E+02  0.79627987864E+01 -0.33114269337E+02  0.42217685329E+02  0.25500000000E-02 0.  1.
         -2    1    1    2  502    0 -0.24947383628E+02 -0.79627987864E+01  0.44223053381E+01  0.26558141979E+02  0.25500000000E-02 0.  1.
<mgrwt>
<rscale>  0 0.62505085E+02</rscale>
<asrwt>0</asrwt>
<pdfrwt beam="2">  1        2 0.74975224E-02 0.62505085E+02</pdfrwt>
<pdfrwt beam="1">  1       -2 0.30833741E-02 0.62505085E+02</pdfrwt>
<totfact> 0.28441947E+05</totfact>
</mgrwt>
</event>
<event>
 4    1  0.2196664E-002  0.4231661E+02  0.7818608E-02  0.1491824E+00
          2   -1    0    0    0  501  0.00000000000E+00  0.00000000000E+00  0.21663324182E+04  0.21663324182E+04  0.25500000000E-02 0. -1.
         -2   -1    0    0  501    0 -0.00000000000E+00 -0.00000000000E+00 -0.20664274713E+00  0.20665848021E+00  0.25500000000E-02 0. -1.
          2    1    1    2    0  502  0.16443745969E+02 -0.11864028097E+02  0.77365401395E+03  0.77391968915E+03  0.25500000000E-02 0. -1.
         -2    1    1    2  502    0 -0.16443745969E+02  0.11864028097E+02  0.13924717615E+04  0.13926193876E+04  0.25500000000E-02 0. -1.
<mgrwt>
<rscale>  0 0.42316613E+02</rscale>
<asrwt>0</asrwt>
<pdfrwt beam="1">  1        2 0.33329081E+00 0.42316613E+02</pdfrwt>
<pdfrwt beam="2">  1       -2 0.31791553E-04 0.42316613E+02</pdfrwt>
<totfact> 0.12853965E+06</totfact>
</mgrwt>
</event>
<event>
 4    1  0.2196664E-002  0.5270354E+02  0.7818608E-02  0.1431282E+00
         -2   -1    0    0  501    0 -0.00000000000E+00  0.00000000000E+00  0.10731661593E+01  0.10731691889E+01  0.25500000000E-02 0.  1.
          2   -1    0    0    0  501  0.00000000000E+00 -0.00000000000E+00 -0.64707103297E+03  0.64707103297E+03  0.25500000000E-02 0.  1.
          2    1    1    2    0  502  0.20681863917E+02 -0.15895983142E+02 -0.27699427281E+03  0.27821978533E+03  0.25500000000E-02 0.  1.
         -2    1    1    2  502    0 -0.20681863917E+02  0.15895983142E+02 -0.36900359400E+03  0.36992441683E+03  0.25500000000E-02 0.  1.
<mgrwt>
<rscale>  0 0.52703538E+02</rscale>
<asrwt>0</asrwt>
<pdfrwt beam="2">  1        2 0.99549078E-01 0.52703538E+02</pdfrwt>
<pdfrwt beam="1">  1       -2 0.16510324E-03 0.52703538E+02</pdfrwt>
<totfact> 0.94802547E+05</totfact>
</mgrwt>
</event>
<event>
 4    1  0.2196664E-002  0.7789927E+02  0.7818608E-02  0.1335121E+00
         -2   -1    0    0  501    0 -0.00000000000E+00  0.00000000000E+00  0.10565307949E+02  0.10565308256E+02  0.25500000000E-02 0.  1.
          2   -1    0    0    0  501  0.00000000000E+00 -0.00000000000E+00 -0.14359013026E+03  0.14359013028E+03  0.25500000000E-02 0.  1.
          2    1    1    2    0  502 -0.24791473986E+02  0.24956386731E+02 -0.33420514277E+02  0.48521842526E+02  0.25500000000E-02 0. -1.
         -2    1    1    2  502    0  0.24791473986E+02 -0.24956386731E+02 -0.99604308031E+02  0.10563359601E+03  0.25500000000E-02 0. -1.
<mgrwt>
<rscale>  0 0.77899268E+02</rscale>
<asrwt>0</asrwt>
<pdfrwt beam="2">  1        2 0.22090788E-01 0.77899268E+02</pdfrwt>
<pdfrwt beam="1">  1       -2 0.16254321E-02 0.77899268E+02</pdfrwt>
<totfact> 0.21034042E+05</totfact>
</mgrwt>
</event>
<event>
 4    1  0.2196664E-002  0.8034216E+02  0.7818608E-02  0.1328083E+00
         -2   -1    0    0  501    0 -0.00000000000E+00  0.00000000000E+00  0.28674873195E+02  0.28674873309E+02  0.25500000000E-02 0. -1.
          2   -1    0    0    0  501  0.00000000000E+00 -0.00000000000E+00 -0.56276298329E+02  0.56276298387E+02  0.25500000000E-02 0. -1.
          2    1    1    2    0  502 -0.86063535521E+01 -0.33378029468E+02  0.80116631196E+01  0.35388542285E+02  0.25500000000E-02 0.  1.
         -2    1    1    2  502    0  0.86063535521E+01  0.33378029468E+02 -0.35613088253E+02  0.49562629410E+02  0.25500000000E-02 0.  1.
<mgrwt>
<rscale>  0 0.80342161E+02</rscale>
<asrwt>0</asrwt>
<pdfrwt beam="2">  1        2 0.86578920E-02 0.80342161E+02</pdfrwt>
<pdfrwt beam="1">  1       -2 0.44115190E-02 0.80342161E+02</pdfrwt>
<totfact> 0.14854474E+05</totfact>
</mgrwt>
</event>
<event>
 4    1  0.2196664E-002  0.9482779E+02  0.7818608E-02  0.1291564E+00
          2   -1    0    0    0  501  0.00000000000E+00  0.00000000000E+00  0.19887747053E+02  0.19887747217E+02  0.25500000000E-02 0. -1.
         -2   -1    0    0  501    0 -0.00000000000E+00 -0.00000000000E+00 -0.11303832535E+03  0.11303832538E+03  0.25500000000E-02 0. -1.
          2    1    1    2    0  502  0.41613232916E+02 -0.20718210282E+02 -0.33487580416E+02  0.57291565170E+02  0.25500000000E-02 0.  1.
         -2    1    1    2  502    0 -0.41613232916E+02  0.20718210282E+02 -0.59662997884E+02  0.75634507429E+02  0.25500000000E-02 0.  1.
<mgrwt>
<rscale>  0 0.94827794E+02</rscale>
<asrwt>0</asrwt>
<pdfrwt beam="1">  1        2 0.30596535E-02 0.94827794E+02</pdfrwt>
<pdfrwt beam="2">  1       -2 0.17390511E-01 0.94827794E+02</pdfrwt>
<totfact> 0.69668388E+04</totfact>
</mgrwt>
</event>
<event>
 4    1  0.2196664E-002  0.4188458E+02  0.7818608E-02  0.1494784E+00
          2   -1    0    0    0  501  0.00000000000E+00  0.00000000000E+00  0.95880200224E+01  0.95880203615E+01  0.25500000000E-02 0. -1.
         -2   -1    0    0  501    0 -0.00000000000E+00 -0.00000000000E+00 -0.45742448237E+02  0.45742448308E+02  0.25500000000E-02 0. -1.
          2    1    1    2    0  502  0.19761374910E+02 -0.46268113354E+01 -0.11256311902E+02  0.23208271922E+02  0.25500000000E-02 0.  1.
         -2    1    1    2  502    0 -0.19761374910E+02  0.46268113354E+01 -0.24898116313E+02  0.32122196748E+02  0.25500000000E-02 0.  1.
<mgrwt>
<rscale>  0 0.41884581E+02</rscale>
<asrwt>0</asrwt>
<pdfrwt beam="1">  1        2 0.14750801E-02 0.41884581E+02</pdfrwt>
<pdfrwt beam="2">  1       -2 0.70372996E-02 0.41884581E+02</pdfrwt>
<totfact> 0.63136930E+05</totfact>
</mgrwt>
</event>
<event>
 4    1  0.2196664E-002  0.4208117E+02  0.7818608E-02  0.1493432E+00
          2   -1    0    0    0  501  0.00000000000E+00  0.00000000000E+00  0.91010130981E+03  0.91010130981E+03  0.25500000000E-02 0. -1.
         -2   -1    0    0  501    0 -0.00000000000E+00 -0.00000000000E+00 -0.48643279810E+00  0.48643948192E+00  0.25500000000E-02 0. -1.
          2    1    1    2    0  502 -0.20879613953E+02 -0.25933212091E+01  0.45155648190E+03  0.45204639136E+03  0.25500000000E-02 0.  1.
         -2    1    1    2  502    0  0.20879613953E+02  0.25933212091E+01  0.45805839511E+03  0.45854135793E+03  0.25500000000E-02 0.  1.
<mgrwt>
<rscale>  0 0.42081168E+02</rscale>
<asrwt>0</asrwt>
<pdfrwt beam="1">  1        2 0.14001457E+00 0.42081168E+02</pdfrwt>
<pdfrwt beam="2">  1       -2 0.74836872E-04 0.42081168E+02</pdfrwt>
<totfact> 0.17518413E+06</totfact>
</mgrwt>
</event>
<event>
 4    1  0.2196664E-002  0.4339943E+02  0.7818608E-02  0.1484588E+00
          2   -1    0    0    0  501  0.00000000000E+00  0.00000000000E+00  0.13876872278E+04  0.13876872278E+04  0.25500000000E-02 0.  1.
         -2   -1    0    0  501    0 -0.00000000000E+00 -0.00000000000E+00 -0.33932063045E+00  0.33933021196E+00  0.25500000000E-02 0.  1.
          2    1    1    2    0  502 -0.20950847090E+02 -0.98117252020E+00  0.51566884896E+03  0.51609520680E+03  0.25500000000E-02 0. -1.
         -2    1    1    2  502    0  0.20950847090E+02  0.98117252020E+00  0.87167905824E+03  0.87193135124E+03  0.25500000000E-02 0. -1.
<mgrwt>
<rscale>  0 0.43399427E+02</rscale>
<asrwt>0</asrwt>
<pdfrwt beam="1">  1        2 0.21348689E+00 0.43399427E+02</pdfrwt>
<pdfrwt beam="2">  1       -2 0.52204755E-04 0.43399427E+02</pdfrwt>
<totfact> 0.15894129E+06</totfact>
</mgrwt>
</event>
<event>
 4    1  0.2196664E-002  0.4373440E+02  0.7818608E-02  0.1482401E+00
          2   -1    0    0    0  501  0.00000000000E+00  0.00000000000E+00  0.85762195276E+03  0.85762195277E+03  0.25500000000E-02 0.  1.
         -2   -1    0    0  501    0 -0.00000000000E+00 -0.00000000000E+00 -0.55755564749E+00  0.55756147871E+00  0.25500000000E-02 0.  1.
          2    1    1    2    0  502  0.74671655327E+01  0.20550093099E+02  0.43502760902E+03  0.43557672746E+03  0.25500000000E-02 0. -1.
         -2    1    1    2  502    0 -0.74671655327E+01 -0.20550093099E+02  0.42203678809E+03  0.42260278678E+03  0.25500000000E-02 0. -1.
<mgrwt>
<rscale>  0 0.43734401E+02</rscale>
<asrwt>0</asrwt>
<pdfrwt beam="1">  1        2 0.13194155E+00 0.43734401E+02</pdfrwt>
<pdfrwt beam="2">  1       -2 0.85778430E-04 0.43734401E+02</pdfrwt>
<totfact> 0.15843861E+06</totfact>
</mgrwt>
</event>
<event>
 4    1  0.2196664E-002  0.5686337E+02  0.7818608E-02  0.1411487E+00
          2   -1    0    0    0  501  0.00000000000E+00  0.00000000000E+00  0.55458577384E+02  0.55458577443E+02  0.25500000000E-02 0. -1.
         -2   -1    0    0  501    0 -0.00000000000E+00 -0.00000000000E+00 -0.14575934178E+02  0.14575934401E+02  0.25500000000E-02 0. -1.
          2    1    1    2    0  502  0.26408513277E+02  0.49063039908E+01  0.31921203334E+02  0.41718636377E+02  0.25500000000E-02 0.  1.
         -2    1    1    2  502    0 -0.26408513277E+02 -0.49063039908E+01  0.89614398716E+01  0.28315875467E+02  0.25500000000E-02 0.  1.
<mgrwt>
<rscale>  0 0.56863365E+02</rscale>
<asrwt>0</asrwt>
<pdfrwt beam="1">  1        2 0.85320888E-02 0.56863365E+02</pdfrwt>
<pdfrwt beam="2">  1       -2 0.22424514E-02 0.56863365E+02</pdfrwt>
<totfact> 0.37503389E+05</totfact>
</mgrwt>
</event>
<event>
 4    1  0.2196664E-002  0.1066602E+03  0.7818608E-02  0.1266883E+00
          2   -1    0    0    0  501  0.00000000000E+00  0.00000000000E+00  0.22295997781E+03  0.22295997782E+03  0.25500000000E-02 0.  1.
         -2   -1    0    0  501    0 -0.00000000000E+00 -0.00000000000E+00 -0.12756102908E+02  0.12756103163E+02  0.25500000000E-02 0.  1.
          2    1    1    2    0  502  0.18472753207E+02 -0.28394762419E+02  0.14073753053E+02  0.36682089300E+02  0.25500000000E-02 0.  1.
         -2    1    1    2  502    0 -0.18472753207E+02  0.28394762419E+02  0.19613012184E+03  0.19903399168E+03  0.25500000000E-02 0.  1.
<mgrwt>
<rscale>  0 0.10666022E+03</rscale>
<asrwt>0</asrwt>
<pdfrwt beam="1">  1        2 0.34301536E-01 0.10666022E+03</pdfrwt>
<pdfrwt beam="2">  1       -2 0.19624773E-02 0.10666022E+03</pdfrwt>
<totfact> 0.10518103E+05</totfact>
</mgrwt>
</event>
<event>
 4    1  0.2196664E-002  0.4874675E+02  0.7818608E-02  0.1452221E+00
          2   -1    0    0    0  501  0.00000000000E+00  0.00000000000E+00  0.59109835807E+03  0.59109835807E+03  0.25500000000E-02 0.  1.
         -2   -1    0    0  501    0 -0.00000000000E+00 -0.00000000000E+00 -0.10050112016E+01  0.10050144366E+01  0.25500000000E-02 0.  1.
          2    1    1    2    0  502  0.14135029629E+02  0.16873003893E+02  0.42218778397E+03  0.42276118821E+03  0.25500000000E-02 0. -1.
         -2    1    1    2  502    0 -0.14135029629E+02 -0.16873003893E+02  0.16790556290E+03  0.16934218430E+03  0.25500000000E-02 0. -1.
<mgrwt>
<rscale>  0 0.48746751E+02</rscale>
<asrwt>0</asrwt>
<pdfrwt beam="1">  1        2 0.90938292E-01 0.48746751E+02</pdfrwt>
<pdfrwt beam="2">  1       -2 0.15461722E-03 0.48746751E+02</pdfrwt>
<totfact> 0.11230234E+06</totfact>
</mgrwt>
</event>
<event>
 4    1  0.2196664E-002  0.6838808E+02  0.7818608E-02  0.1365662E+00
         -2   -1    0    0  501    0 -0.00000000000E+00  0.00000000000E+00  0.12647753117E+01  0.12647778823E+01  0.25500000000E-02 0.  1.
          2   -1    0    0    0  501  0.00000000000E+00 -0.00000000000E+00 -0.92445771772E+03  0.92445771772E+03  0.25500000000E-02 0.  1.
          2    1    1    2    0  502 -0.21717469658E+02  0.64716860372E+01 -0.80821629600E+03  0.80853392776E+03  0.25500000000E-02 0. -1.
         -2    1    1    2  502    0  0.21717469658E+02 -0.64716860372E+01 -0.11497664640E+03  0.11718856784E+03  0.25500000000E-02 0. -1.
<mgrwt>
<rscale>  0 0.68388083E+02</rscale>
<asrwt>0</asrwt>
<pdfrwt beam="2">  1        2 0.14222372E+00 0.68388083E+02</pdfrwt>
<pdfrwt beam="1">  1       -2 0.19458175E-03 0.68388083E+02</pdfrwt>
<totfact> 0.52443986E+05</totfact>
</mgrwt>
</event>
<event>
 4    1  0.2196664E-002  0.4919763E+02  0.7818608E-02  0.1449718E+00
          2   -1    0    0    0  501  0.00000000000E+00  0.00000000000E+00  0.50224814387E+03  0.50224814388E+03  0.25500000000E-02 0.  1.
         -2   -1    0    0  501    0 -0.00000000000E+00 -0.00000000000E+00 -0.12047850217E+01  0.12047877204E+01  0.25500000000E-02 0.  1.
          2    1    1    2    0  502  0.86332841253E+00  0.21350852841E+02  0.37522390378E+03  0.37583185366E+03  0.25500000000E-02 0. -1.
         -2    1    1    2  502    0 -0.86332841253E+00 -0.21350852841E+02  0.12581945507E+03  0.12762107794E+03  0.25500000000E-02 0. -1.
<mgrwt>
<rscale>  0 0.49197631E+02</rscale>
<asrwt>0</asrwt>
<pdfrwt beam="1">  1        2 0.77268953E-01 0.49197631E+02</pdfrwt>
<pdfrwt beam="2">  1       -2 0.18535173E-03 0.49197631E+02</pdfrwt>
<totfact> 0.10468213E+06</totfact>
</mgrwt>
</event>
<event>
 4    1  0.2196664E-002  0.8036361E+02  0.7818608E-02  0.1328023E+00
         -2   -1    0    0  501    0 -0.00000000000E+00  0.00000000000E+00  0.56173812894E+03  0.56173812895E+03  0.25500000000E-02 0. -1.
          2   -1    0    0    0  501  0.00000000000E+00 -0.00000000000E+00 -0.28742521434E+01  0.28742532746E+01  0.25500000000E-02 0. -1.
          2    1    1    2    0  502 -0.16581300892E+02  0.27475503255E+02  0.10954095064E+03  0.11414491970E+03  0.25500000000E-02 0. -1.
         -2    1    1    2  502    0  0.16581300892E+02 -0.27475503255E+02  0.44932292615E+03  0.45046746252E+03  0.25500000000E-02 0. -1.
<mgrwt>
<rscale>  0 0.80363607E+02</rscale>
<asrwt>0</asrwt>
<pdfrwt beam="2">  1        2 0.44219268E-03 0.80363607E+02</pdfrwt>
<pdfrwt beam="1">  1       -2 0.86421259E-01 0.80363607E+02</pdfrwt>
<totfact> 0.45786330E+04</totfact>
</mgrwt>
</event>
<event>
 4    1  0.2196664E-002  0.4075981E+02  0.7818608E-02  0.1502693E+00
          2   -1    0    0    0  501  0.00000000000E+00  0.00000000000E+00  0.45579002495E+01  0.45579009629E+01  0.25500000000E-02 0.  1.
         -2   -1    0    0  501    0 -0.00000000000E+00 -0.00000000000E+00 -0.91125410523E+02  0.91125410559E+02  0.25500000000E-02 0.  1.
          2    1    1    2    0  502 -0.12105078523E+02 -0.16309265264E+02 -0.47222717965E+02  0.51405351453E+02  0.25500000000E-02 0.  1.
         -2    1    1    2  502    0  0.12105078523E+02  0.16309265264E+02 -0.39344792308E+02  0.44277960068E+02  0.25500000000E-02 0.  1.
<mgrwt>
<rscale>  0 0.40759812E+02</rscale>
<asrwt>0</asrwt>
<pdfrwt beam="1">  1        2 0.70121555E-03 0.40759812E+02</pdfrwt>
<pdfrwt beam="2">  1       -2 0.14019293E-01 0.40759812E+02</pdfrwt>
<totfact> 0.59168218E+05</totfact>
</mgrwt>
</event>
<event>
 4    1  0.2196664E-002  0.4814084E+02  0.7818608E-02  0.1455635E+00
         -2   -1    0    0  501    0 -0.00000000000E+00  0.00000000000E+00  0.35297473556E+00  0.35298394644E+00  0.25500000000E-02 0.  1.
          2   -1    0    0    0  501  0.00000000000E+00 -0.00000000000E+00 -0.16414137497E+04  0.16414137497E+04  0.25500000000E-02 0.  1.
          2    1    1    2    0  502  0.59681293270E+01  0.22106966246E+02 -0.10735597842E+04  0.10738039611E+04  0.25500000000E-02 0. -1.
         -2    1    1    2  502    0 -0.59681293270E+01 -0.22106966246E+02 -0.56750099076E+03  0.56796277259E+03  0.25500000000E-02 0. -1.
<mgrwt>
<rscale>  0 0.48140841E+02</rscale>
<asrwt>0</asrwt>
<pdfrwt beam="2">  1        2 0.25251908E+00 0.48140841E+02</pdfrwt>
<pdfrwt beam="1">  1       -2 0.54305828E-04 0.48140841E+02</pdfrwt>
<totfact> 0.11582351E+06</totfact>
</mgrwt>
</event>
<event>
 4    1  0.2196664E-002  0.1087060E+03  0.7818608E-02  0.1262985E+00
          2   -1    0    0    0  501  0.00000000000E+00  0.00000000000E+00  0.43321758448E+02  0.43321758523E+02  0.25500000000E-02 0. -1.
         -2   -1    0    0  501    0 -0.00000000000E+00 -0.00000000000E+00 -0.68193161244E+02  0.68193161292E+02  0.25500000000E-02 0. -1.
          2    1    1    2    0  502  0.14955286280E+02 -0.51947274050E+02 -0.66265318788E+01  0.54461828836E+02  0.25500000000E-02 0.  1.
         -2    1    1    2  502    0 -0.14955286280E+02  0.51947274050E+02 -0.18244870918E+02  0.57053090979E+02  0.25500000000E-02 0.  1.
<mgrwt>
<rscale>  0 0.10870598E+03</rscale>
<asrwt>0</asrwt>
<pdfrwt beam="1">  1        2 0.66648860E-02 0.10870598E+03</pdfrwt>
<pdfrwt beam="2">  1       -2 0.10491256E-01 0.10870598E+03</pdfrwt>
<totfact> 0.58090006E+04</totfact>
</mgrwt>
</event>
<event>
 4    1  0.2196664E-002  0.6461803E+02  0.7818608E-02  0.1379414E+00
         -2   -1    0    0  501    0 -0.00000000000E+00  0.00000000000E+00  0.61148645060E+00  0.61149176754E+00  0.25500000000E-02 0. -1.
          2   -1    0    0    0  501  0.00000000000E+00 -0.00000000000E+00 -0.17070992197E+04  0.17070992197E+04  0.25500000000E-02 0. -1.
          2    1    1    2    0  502  0.39992061294E+01 -0.28459780125E+02 -0.46311422392E+03  0.46400510465E+03  0.25500000000E-02 0. -1.
         -2    1    1    2  502    0 -0.39992061294E+01  0.28459780125E+02 -0.12433735093E+04  0.12437056068E+04  0.25500000000E-02 0. -1.
<mgrwt>
<rscale>  0 0.64618034E+02</rscale>
<asrwt>0</asrwt>
<pdfrwt beam="2">  1        2 0.26262683E+00 0.64618034E+02</pdfrwt>
<pdfrwt beam="1">  1       -2 0.94076614E-04 0.64618034E+02</pdfrwt>
<totfact> 0.54159450E+05</totfact>
</mgrwt>
</event>
<event>
 4    1  0.2196664E-002  0.6817886E+02  0.7818608E-02  0.1366398E+00
         -2   -1    0    0  501    0 -0.00000000000E+00  0.00000000000E+00  0.11198381212E+02  0.11198381502E+02  0.25500000000E-02 0. -1.
          2   -1    0    0    0  501  0.00000000000E+00 -0.00000000000E+00 -0.10377297346E+03  0.10377297350E+03  0.25500000000E-02 0. -1.
          2    1    1    2    0  502 -0.86998859710E+01 -0.20014223230E+02 -0.90449305552E+02  0.93044795818E+02  0.25500000000E-02 0. -1.
         -2    1    1    2  502    0  0.86998859710E+01  0.20014223230E+02 -0.21252867006E+01  0.21926559180E+02  0.25500000000E-02 0. -1.
<mgrwt>
<rscale>  0 0.68178863E+02</rscale>
<asrwt>0</asrwt>
<pdfrwt beam="2">  1        2 0.15965072E-01 0.68178863E+02</pdfrwt>
<pdfrwt beam="1">  1       -2 0.17228280E-02 0.68178863E+02</pdfrwt>
<totfact> 0.27130216E+05</totfact>
</mgrwt>
</event>
<event>
 4    1  0.2196664E-002  0.5240601E+02  0.7818608E-02  0.1432780E+00
          2   -1    0    0    0  501  0.00000000000E+00  0.00000000000E+00  0.69823637291E+01  0.69823641947E+01  0.25500000000E-02 0. -1.
         -2   -1    0    0  501    0 -0.00000000000E+00 -0.00000000000E+00 -0.98333108356E+02  0.98333108389E+02  0.25500000000E-02 0. -1.
          2    1    1    2    0  502 -0.13368426956E+02 -0.22230934544E+02 -0.38245734244E+02  0.46213260915E+02  0.25500000000E-02 0. -1.
         -2    1    1    2  502    0  0.13368426956E+02  0.22230934544E+02 -0.53105010383E+02  0.59102211670E+02  0.25500000000E-02 0. -1.
<mgrwt>
<rscale>  0 0.52406013E+02</rscale>
<asrwt>0</asrwt>
<pdfrwt beam="1">  1        2 0.10742099E-02 0.52406013E+02</pdfrwt>
<pdfrwt beam="2">  1       -2 0.15128170E-01 0.52406013E+02</pdfrwt>
<totfact> 0.31603673E+05</totfact>
</mgrwt>
</event>
<event>
 4    1  0.2196664E-002  0.4211135E+02  0.7818608E-02  0.1493225E+00
          2   -1    0    0    0  501  0.00000000000E+00  0.00000000000E+00  0.46040461029E+01  0.46040468091E+01  0.25500000000E-02 0. -1.
         -2   -1    0    0  501    0 -0.00000000000E+00 -0.00000000000E+00 -0.96293869884E+02  0.96293869918E+02  0.25500000000E-02 0. -1.
          2    1    1    2    0  502 -0.26136556549E+01 -0.20811732076E+02 -0.50251207645E+02  0.54453129058E+02  0.25500000000E-02 0.  1.
         -2    1    1    2  502    0  0.26136556549E+01  0.20811732076E+02 -0.41438616136E+02  0.46444787669E+02  0.25500000000E-02 0.  1.
<mgrwt>
<rscale>  0 0.42111350E+02</rscale>
<asrwt>0</asrwt>
<pdfrwt beam="1">  1        2 0.70831492E-03 0.42111350E+02</pdfrwt>
<pdfrwt beam="2">  1       -2 0.14814440E-01 0.42111350E+02</pdfrwt>
<totfact> 0.54008026E+05</totfact>
</mgrwt>
</event>
<event>
 4    1  0.2196664E-002  0.4670592E+02  0.7818608E-02  0.1463965E+00
          2   -1    0    0    0  501  0.00000000000E+00  0.00000000000E+00  0.42201535265E+02  0.42201535342E+02  0.25500000000E-02 0.  1.
         -2   -1    0    0  501    0 -0.00000000000E+00 -0.00000000000E+00 -0.12922770105E+02  0.12922770357E+02  0.25500000000E-02 0.  1.
          2    1    1    2    0  502  0.70540931144E+01 -0.20658903188E+02  0.48490441585E+01  0.22362105142E+02  0.25500000000E-02 0.  1.
         -2    1    1    2  502    0 -0.70540931144E+01  0.20658903188E+02  0.24429721001E+02  0.32762200557E+02  0.25500000000E-02 0.  1.
<mgrwt>
<rscale>  0 0.46705920E+02</rscale>
<asrwt>0</asrwt>
<pdfrwt beam="1">  1        2 0.64925438E-02 0.46705920E+02</pdfrwt>
<pdfrwt beam="2">  1       -2 0.19881185E-02 0.46705920E+02</pdfrwt>
<totfact> 0.59251292E+05</totfact>
</mgrwt>
</event>
<event>
 4    1  0.2196664E-002  0.4544936E+02  0.7818608E-02  0.1471556E+00
         -2   -1    0    0  501    0 -0.00000000000E+00  0.00000000000E+00  0.35558148574E+01  0.35558157717E+01  0.25500000000E-02 0. -1.
          2   -1    0    0    0  501  0.00000000000E+00 -0.00000000000E+00 -0.14523001082E+03  0.14523001084E+03  0.25500000000E-02 0. -1.
          2    1    1    2    0  502  0.10374499585E+02 -0.20099790911E+02 -0.63680378758E+02  0.67578269300E+02  0.25500000000E-02 0. -1.
         -2    1    1    2  502    0 -0.10374499585E+02  0.20099790911E+02 -0.77993817206E+02  0.81207557316E+02  0.25500000000E-02 0. -1.
<mgrwt>
<rscale>  0 0.45449361E+02</rscale>
<asrwt>0</asrwt>
<pdfrwt beam="2">  1        2 0.22343074E-01 0.45449361E+02</pdfrwt>
<pdfrwt beam="1">  1       -2 0.54704863E-03 0.45449361E+02</pdfrwt>
<totfact> 0.84423911E+05</totfact>
</mgrwt>
</event>
<event>
 4    1  0.2196664E-002  0.6649768E+02  0.7818608E-02  0.1372425E+00
          2   -1    0    0    0  501  0.00000000000E+00  0.00000000000E+00  0.87213815548E+03  0.87213815549E+03  0.25500000000E-02 0. -1.
         -2   -1    0    0  501    0 -0.00000000000E+00 -0.00000000000E+00 -0.12675561598E+01  0.12675587248E+01  0.25500000000E-02 0. -1.
          2    1    1    2    0  502  0.22200290236E+02  0.85544105697E+01  0.13037413353E+03  0.13252715015E+03  0.25500000000E-02 0. -1.
         -2    1    1    2  502    0 -0.22200290236E+02 -0.85544105697E+01  0.74049646580E+03  0.74087856406E+03  0.25500000000E-02 0. -1.
<mgrwt>
<rscale>  0 0.66497676E+02</rscale>
<asrwt>0</asrwt>
<pdfrwt beam="1">  1        2 0.13417519E+00 0.66497676E+02</pdfrwt>
<pdfrwt beam="2">  1       -2 0.19500871E-03 0.66497676E+02</pdfrwt>
<totfact> 0.55969895E+05</totfact>
</mgrwt>
</event>
<event>
 4    1  0.2196664E-002  0.6439988E+02  0.7818608E-02  0.1380243E+00
          2   -1    0    0    0  501  0.00000000000E+00  0.00000000000E+00  0.60611601557E+03  0.60611601558E+03  0.25500000000E-02 0.  1.
         -2   -1    0    0  501    0 -0.00000000000E+00 -0.00000000000E+00 -0.17106222230E+01  0.17106241237E+01  0.25500000000E-02 0.  1.
          2    1    1    2    0  502  0.12760405785E+02 -0.25942885798E+02  0.16839980409E+03  0.17086355757E+03  0.25500000000E-02 0. -1.
         -2    1    1    2  502    0 -0.12760405785E+02  0.25942885798E+02  0.43600558926E+03  0.43696308213E+03  0.25500000000E-02 0. -1.
<mgrwt>
<rscale>  0 0.64399879E+02</rscale>
<asrwt>0</asrwt>
<pdfrwt beam="1">  1        2 0.93248564E-01 0.64399879E+02</pdfrwt>
<pdfrwt beam="2">  1       -2 0.26317295E-03 0.64399879E+02</pdfrwt>
<totfact> 0.56295178E+05</totfact>
</mgrwt>
</event>
<event>
 4    1  0.2196664E-002  0.7342449E+02  0.7818608E-02  0.1348820E+00
         -2   -1    0    0  501    0 -0.00000000000E+00  0.00000000000E+00  0.69922764824E+01  0.69922769474E+01  0.25500000000E-02 0.  1.
          2   -1    0    0    0  501  0.00000000000E+00 -0.00000000000E+00 -0.19275394818E+03  0.19275394820E+03  0.25500000000E-02 0.  1.
          2    1    1    2    0  502  0.33718453135E+02  0.65069055033E+01 -0.57566017817E+02  0.67030741566E+02  0.25500000000E-02 0.  1.
         -2    1    1    2  502    0 -0.33718453135E+02 -0.65069055033E+01 -0.12819565388E+03  0.13271548358E+03  0.25500000000E-02 0.  1.
<mgrwt>
<rscale>  0 0.73424490E+02</rscale>
<asrwt>0</asrwt>
<pdfrwt beam="2">  1        2 0.29654450E-01 0.73424490E+02</pdfrwt>
<pdfrwt beam="1">  1       -2 0.10757350E-02 0.73424490E+02</pdfrwt>
<totfact> 0.27147286E+05</totfact>
</mgrwt>
</event>
<event>
 4    1  0.2196664E-002  0.8985821E+02  0.7818608E-02  0.1303195E+00
          2   -1    0    0    0  501  0.00000000000E+00  0.00000000000E+00  0.85165943181E+03  0.85165943182E+03  0.25500000000E-02 0.  1.
         -2   -1    0    0  501    0 -0.00000000000E+00 -0.00000000000E+00 -0.23702241858E+01  0.23702255575E+01  0.25500000000E-02 0.  1.
          2    1    1    2    0  502  0.84983049568E+01  0.23196646420E+02  0.67975340481E+02  0.72325324142E+02  0.25500000000E-02 0. -1.
         -2    1    1    2  502    0 -0.84983049568E+01 -0.23196646420E+02  0.78131386715E+03  0.78170433323E+03  0.25500000000E-02 0. -1.
<mgrwt>
<rscale>  0 0.89858208E+02</rscale>
<asrwt>0</asrwt>
<pdfrwt beam="1">  1        2 0.13102439E+00 0.89858208E+02</pdfrwt>
<pdfrwt beam="2">  1       -2 0.36465037E-03 0.89858208E+02</pdfrwt>
<totfact> 0.25581553E+05</totfact>
</mgrwt>
</event>
<event>
 4    1  0.2196664E-002  0.4929494E+02  0.7818608E-02  0.1449182E+00
         -2   -1    0    0  501    0 -0.00000000000E+00  0.00000000000E+00  0.52304821246E+00  0.52305442839E+00  0.25500000000E-02 0.  1.
          2   -1    0    0    0  501  0.00000000000E+00 -0.00000000000E+00 -0.11614496629E+04  0.11614496629E+04  0.25500000000E-02 0.  1.
          2    1    1    2    0  502 -0.19820972204E+02 -0.13911520237E+02 -0.68873082912E+03  0.68915640918E+03  0.25500000000E-02 0.  1.
         -2    1    1    2  502    0  0.19820972204E+02  0.13911520237E+02 -0.47219578558E+03  0.47281630816E+03  0.25500000000E-02 0.  1.
<mgrwt>
<rscale>  0 0.49294940E+02</rscale>
<asrwt>0</asrwt>
<pdfrwt beam="2">  1        2 0.17868250E+00 0.49294940E+02</pdfrwt>
<pdfrwt beam="1">  1       -2 0.80470364E-04 0.49294940E+02</pdfrwt>
<totfact> 0.11967821E+06</totfact>
</mgrwt>
</event>
<event>
 4    1  0.2196664E-002  0.5648623E+02  0.7818608E-02  0.1413198E+00
         -2   -1    0    0  501    0 -0.00000000000E+00  0.00000000000E+00  0.15011326982E+01  0.15011348641E+01  0.25500000000E-02 0. -1.
          2   -1    0    0    0  501  0.00000000000E+00 -0.00000000000E+00 -0.53138063905E+03  0.53138063905E+03  0.25500000000E-02 0. -1.
          2    1    1    2    0  502  0.20496077677E+02 -0.19125919611E+02 -0.29732327304E+03  0.29864195737E+03  0.25500000000E-02 0. -1.
         -2    1    1    2  502    0 -0.20496077677E+02  0.19125919611E+02 -0.23255623331E+03  0.23423981655E+03  0.25500000000E-02 0. -1.
<mgrwt>
<rscale>  0 0.56486226E+02</rscale>
<asrwt>0</asrwt>
<pdfrwt beam="2">  1        2 0.81750718E-01 0.56486226E+02</pdfrwt>
<pdfrwt beam="1">  1       -2 0.23094408E-03 0.56486226E+02</pdfrwt>
<totfact> 0.75497702E+05</totfact>
</mgrwt>
</event>
<event>
 4    1  0.2196664E-002  0.5253449E+02  0.7818608E-02  0.1432132E+00
          2   -1    0    0    0  501  0.00000000000E+00  0.00000000000E+00  0.14636470275E+03  0.14636470278E+03  0.25500000000E-02 0.  1.
         -2   -1    0    0  501    0 -0.00000000000E+00 -0.00000000000E+00 -0.47140337181E+01  0.47140344078E+01  0.25500000000E-02 0.  1.
          2    1    1    2    0  502 -0.20369302467E+02  0.13929224819E+02  0.96713358037E+02  0.99811850080E+02  0.25500000000E-02 0.  1.
         -2    1    1    2  502    0  0.20369302467E+02 -0.13929224819E+02  0.44937310998E+02  0.51266887104E+02  0.25500000000E-02 0.  1.
<mgrwt>
<rscale>  0 0.52534491E+02</rscale>
<asrwt>0</asrwt>
<pdfrwt beam="1">  1        2 0.22517647E-01 0.52534491E+02</pdfrwt>
<pdfrwt beam="2">  1       -2 0.72523600E-03 0.52534491E+02</pdfrwt>
<totfact> 0.58840379E+05</totfact>
</mgrwt>
</event>
<event>
 4    1  0.2196664E-002  0.1098167E+03  0.7818608E-02  0.1260910E+00
         -2   -1    0    0  501    0 -0.00000000000E+00  0.00000000000E+00  0.16659349144E+02  0.16659349339E+02  0.25500000000E-02 0.  1.
          2   -1    0    0    0  501  0.00000000000E+00 -0.00000000000E+00 -0.18097518616E+03  0.18097518617E+03  0.25500000000E-02 0.  1.
          2    1    1    2    0  502  0.11291638191E+02 -0.50451668172E+02 -0.11544253022E+03  0.12649051231E+03  0.25500000000E-02 0. -1.
         -2    1    1    2  502    0 -0.11291638191E+02  0.50451668172E+02 -0.48873306795E+02  0.71144023206E+02  0.25500000000E-02 0. -1.
<mgrwt>
<rscale>  0 0.10981674E+03</rscale>
<asrwt>0</asrwt>
<pdfrwt beam="2">  1        2 0.27842335E-01 0.10981674E+03</pdfrwt>
<pdfrwt beam="1">  1       -2 0.25629769E-02 0.10981674E+03</pdfrwt>
<totfact> 0.89774024E+04</totfact>
</mgrwt>
</event>
<event>
 4    1  0.2196664E-002  0.6946142E+02  0.7818608E-02  0.1361934E+00
          2   -1    0    0    0  501  0.00000000000E+00  0.00000000000E+00  0.68189122344E+03  0.68189122344E+03  0.25500000000E-02 0.  1.
         -2   -1    0    0  501    0 -0.00000000000E+00 -0.00000000000E+00 -0.17689352782E+01  0.17689371161E+01  0.25500000000E-02 0.  1.
          2    1    1    2    0  502 -0.43104389065E+01 -0.21988408798E+02  0.60123510078E+03  0.60165248808E+03  0.25500000000E-02 0.  1.
         -2    1    1    2  502    0  0.43104389065E+01  0.21988408798E+02  0.78887187384E+02  0.82007672476E+02  0.25500000000E-02 0.  1.
<mgrwt>
<rscale>  0 0.69461416E+02</rscale>
<asrwt>0</asrwt>
<pdfrwt beam="1">  1        2 0.10490638E+00 0.69461416E+02</pdfrwt>
<pdfrwt beam="2">  1       -2 0.27214393E-03 0.69461416E+02</pdfrwt>
<totfact> 0.47820825E+05</totfact>
</mgrwt>
</event>
<event>
 4    1  0.2196664E-002  0.1541116E+03  0.7818608E-02  0.1195510E+00
         -2   -1    0    0  501    0 -0.00000000000E+00  0.00000000000E+00  0.37679424893E+01  0.37679433522E+01  0.25500000000E-02 0.  1.
          2   -1    0    0    0  501  0.00000000000E+00 -0.00000000000E+00 -0.15758189281E+04  0.15758189281E+04  0.25500000000E-02 0.  1.
          2    1    1    2    0  502 -0.49688743457E+02 -0.18638919140E+02 -0.21340080896E+03  0.21990062711E+03  0.25500000000E-02 0.  1.
         -2    1    1    2  502    0  0.49688743457E+02  0.18638919140E+02 -0.13586501766E+04  0.13596862443E+04  0.25500000000E-02 0.  1.
<mgrwt>
<rscale>  0 0.15411159E+03</rscale>
<asrwt>0</asrwt>
<pdfrwt beam="2">  1        2 0.24243316E+00 0.15411159E+03</pdfrwt>
<pdfrwt beam="1">  1       -2 0.57968478E-03 0.15411159E+03</pdfrwt>
<totfact> 0.55993390E+04</totfact>
</mgrwt>
</event>
<event>
 4    1  0.2196664E-002  0.5666046E+02  0.7818608E-02  0.1412406E+00
          2   -1    0    0    0  501  0.00000000000E+00  0.00000000000E+00  0.27449633960E+03  0.27449633961E+03  0.25500000000E-02 0.  1.
         -2   -1    0    0  501    0 -0.00000000000E+00 -0.00000000000E+00 -0.29239068860E+01  0.29239079979E+01  0.25500000000E-02 0.  1.
          2    1    1    2    0  502  0.18942310614E+02 -0.17896222646E+02  0.81371091876E+02  0.85442030149E+02  0.25500000000E-02 0.  1.
         -2    1    1    2  502    0 -0.18942310614E+02  0.17896222646E+02  0.19020134084E+03  0.19197821746E+03  0.25500000000E-02 0.  1.
<mgrwt>
<rscale>  0 0.56660459E+02</rscale>
<asrwt>0</asrwt>
<pdfrwt beam="1">  1        2 0.42230200E-01 0.56660459E+02</pdfrwt>
<pdfrwt beam="2">  1       -2 0.44983199E-03 0.56660459E+02</pdfrwt>
<totfact> 0.59905811E+05</totfact>
</mgrwt>
</event>
<event>
 4    1  0.2196664E-002  0.6959623E+02  0.7818608E-02  0.1361471E+00
         -2   -1    0    0  501    0 -0.00000000000E+00  0.00000000000E+00  0.25024036678E+02  0.25024036807E+02  0.25500000000E-02 0.  1.
          2   -1    0    0    0  501  0.00000000000E+00 -0.00000000000E+00 -0.48389827771E+02  0.48389827838E+02  0.25500000000E-02 0.  1.
          2    1    1    2    0  502 -0.13486467289E+02  0.30445010936E+02 -0.10228486698E+01  0.33314106873E+02  0.25500000000E-02 0.  1.
         -2    1    1    2  502    0  0.13486467289E+02 -0.30445010936E+02 -0.22342942423E+02  0.40099757773E+02  0.25500000000E-02 0.  1.
<mgrwt>
<rscale>  0 0.69596231E+02</rscale>
<asrwt>0</asrwt>
<pdfrwt beam="2">  1        2 0.74445889E-02 0.69596231E+02</pdfrwt>
<pdfrwt beam="1">  1       -2 0.38498518E-02 0.69596231E+02</pdfrwt>
<totfact> 0.21260996E+05</totfact>
</mgrwt>
</event>
<event>
 4    1  0.2196664E-002  0.5376919E+02  0.7818608E-02  0.1426011E+00
         -2   -1    0    0  501    0 -0.00000000000E+00  0.00000000000E+00  0.18127830455E+01  0.18127848390E+01  0.25500000000E-02 0.  1.
          2   -1    0    0    0  501  0.00000000000E+00 -0.00000000000E+00 -0.39871357990E+03  0.39871357990E+03  0.25500000000E-02 0.  1.
          2    1    1    2    0  502 -0.23684623183E+02 -0.47474310916E+01 -0.28636180331E+03  0.28737881251E+03  0.25500000000E-02 0. -1.
         -2    1    1    2  502    0  0.23684623183E+02  0.47474310916E+01 -0.11053899354E+03  0.11314755224E+03  0.25500000000E-02 0. -1.
<mgrwt>
<rscale>  0 0.53769195E+02</rscale>
<asrwt>0</asrwt>
<pdfrwt beam="2">  1        2 0.61340481E-01 0.53769195E+02</pdfrwt>
<pdfrwt beam="1">  1       -2 0.27889016E-03 0.53769195E+02</pdfrwt>
<totfact> 0.77856067E+05</totfact>
</mgrwt>
</event>
<event>
 4    1  0.2196664E-002  0.5122305E+02  0.7818608E-02  0.1438854E+00
          2   -1    0    0    0  501  0.00000000000E+00  0.00000000000E+00  0.36742162619E+02  0.36742162708E+02  0.25500000000E-02 0.  1.
         -2   -1    0    0  501    0 -0.00000000000E+00 -0.00000000000E+00 -0.17852791181E+02  0.17852791363E+02  0.25500000000E-02 0.  1.
          2    1    1    2    0  502 -0.12964863123E+02  0.21760519555E+02  0.13481102866E+02  0.28694041683E+02  0.25500000000E-02 0. -1.
         -2    1    1    2  502    0  0.12964863123E+02 -0.21760519555E+02  0.54082685718E+01  0.25900912388E+02  0.25500000000E-02 0. -1.
<mgrwt>
<rscale>  0 0.51223048E+02</rscale>
<asrwt>0</asrwt>
<pdfrwt beam="1">  1        2 0.56526404E-02 0.51223048E+02</pdfrwt>
<pdfrwt beam="2">  1       -2 0.27465833E-02 0.51223048E+02</pdfrwt>
<totfact> 0.45585984E+05</totfact>
</mgrwt>
</event>
<event>
 4    1  0.2196664E-002  0.4915242E+02  0.7818608E-02  0.1449968E+00
         -2   -1    0    0  501    0 -0.00000000000E+00  0.00000000000E+00  0.46445775496E+01  0.46445782497E+01  0.25500000000E-02 0.  1.
          2   -1    0    0    0  501  0.00000000000E+00 -0.00000000000E+00 -0.13004195992E+03  0.13004195995E+03  0.25500000000E-02 0.  1.
          2    1    1    2    0  502  0.10885707680E+02  0.17172249994E+02 -0.24867789152E+02  0.32121515303E+02  0.25500000000E-02 0. -1.
         -2    1    1    2  502    0 -0.10885707680E+02 -0.17172249994E+02 -0.10052959322E+03  0.10256502290E+03  0.25500000000E-02 0. -1.
<mgrwt>
<rscale>  0 0.49152417E+02</rscale>
<asrwt>0</asrwt>
<pdfrwt beam="2">  1        2 0.20006453E-01 0.49152417E+02</pdfrwt>
<pdfrwt beam="1">  1       -2 0.71455055E-03 0.49152417E+02</pdfrwt>
<totfact> 0.67190729E+05</totfact>
</mgrwt>
</event>
<event>
 4    1  0.2196664E-002  0.4400724E+02  0.7818608E-02  0.1480636E+00
          2   -1    0    0    0  501  0.00000000000E+00  0.00000000000E+00  0.78450658782E+03  0.78450658782E+03  0.25500000000E-02 0. -1.
         -2   -1    0    0  501    0 -0.00000000000E+00 -0.00000000000E+00 -0.61714863449E+00  0.61715390265E+00  0.25500000000E-02 0. -1.
          2    1    1    2    0  502 -0.99390486469E+01 -0.19614443878E+02  0.37758165667E+03  0.37822138829E+03  0.25500000000E-02 0.  1.
         -2    1    1    2  502    0  0.99390486469E+01  0.19614443878E+02  0.40630778251E+03  0.40690235344E+03  0.25500000000E-02 0.  1.
<mgrwt>
<rscale>  0 0.44007238E+02</rscale>
<asrwt>0</asrwt>
<pdfrwt beam="1">  1        2 0.12069283E+00 0.44007238E+02</pdfrwt>
<pdfrwt beam="2">  1       -2 0.94946737E-04 0.44007238E+02</pdfrwt>
<totfact> 0.15390219E+06</totfact>
</mgrwt>
</event>
<event>
 4    1  0.2196664E-002  0.4158798E+02  0.7818608E-02  0.1496840E+00
          2   -1    0    0    0  501  0.00000000000E+00  0.00000000000E+00  0.20842905984E+01  0.20842921583E+01  0.25500000000E-02 0.  1.
         -2   -1    0    0  501    0 -0.00000000000E+00 -0.00000000000E+00 -0.20745183921E+03  0.20745183922E+03  0.25500000000E-02 0.  1.
          2    1    1    2    0  502  0.20585608393E+02  0.14010046150E+01 -0.11568630373E+03  0.11751191839E+03  0.25500000000E-02 0. -1.
         -2    1    1    2  502    0 -0.20585608393E+02 -0.14010046150E+01 -0.89681244883E+02  0.92024212993E+02  0.25500000000E-02 0. -1.
<mgrwt>
<rscale>  0 0.41587983E+02</rscale>
<asrwt>0</asrwt>
<pdfrwt beam="1">  1        2 0.32066038E-03 0.41587983E+02</pdfrwt>
<pdfrwt beam="2">  1       -2 0.31915651E-01 0.41587983E+02</pdfrwt>
<totfact> 0.43484466E+05</totfact>
</mgrwt>
</event>
<event>
 4    1  0.2196664E-002  0.5631658E+02  0.7818608E-02  0.1413973E+00
          2   -1    0    0    0  501  0.00000000000E+00  0.00000000000E+00  0.59561785750E+01  0.59561791209E+01  0.25500000000E-02 0. -1.
         -2   -1    0    0  501    0 -0.00000000000E+00 -0.00000000000E+00 -0.13312047300E+03  0.13312047302E+03  0.25500000000E-02 0. -1.
          2    1    1    2    0  502 -0.27323073981E+02 -0.16656169385E+01 -0.47282235273E+02  0.54634553448E+02  0.25500000000E-02 0.  1.
         -2    1    1    2  502    0  0.27323073981E+02  0.16656169385E+01 -0.79882059152E+02  0.84442098697E+02  0.25500000000E-02 0.  1.
<mgrwt>
<rscale>  0 0.56316582E+02</rscale>
<asrwt>0</asrwt>
<pdfrwt beam="1">  1        2 0.91633531E-03 0.56316582E+02</pdfrwt>
<pdfrwt beam="2">  1       -2 0.20480071E-01 0.56316582E+02</pdfrwt>
<totfact> 0.24322874E+05</totfact>
</mgrwt>
</event>
<event>
 4    1  0.2196664E-002  0.4859141E+02  0.7818608E-02  0.1453091E+00
         -2   -1    0    0  501    0 -0.00000000000E+00  0.00000000000E+00  0.10469878764E+01  0.10469909817E+01  0.25500000000E-02 0. -1.
          2   -1    0    0    0  501  0.00000000000E+00 -0.00000000000E+00 -0.56378907775E+03  0.56378907776E+03  0.25500000000E-02 0. -1.
          2    1    1    2    0  502  0.71514841137E+01  0.22020748923E+02 -0.19577393602E+03  0.19713825387E+03  0.25500000000E-02 0. -1.
         -2    1    1    2  502    0 -0.71514841137E+01 -0.22020748923E+02 -0.36696815386E+03  0.36769781487E+03  0.25500000000E-02 0. -1.
<mgrwt>
<rscale>  0 0.48591407E+02</rscale>
<asrwt>0</asrwt>
<pdfrwt beam="2">  1        2 0.86736539E-01 0.48591407E+02</pdfrwt>
<pdfrwt beam="1">  1       -2 0.16107575E-03 0.48591407E+02</pdfrwt>
<totfact> 0.11170082E+06</totfact>
</mgrwt>
</event>
<event>
 4    1  0.2196664E-002  0.9038016E+02  0.7818608E-02  0.1301934E+00
          2   -1    0    0    0  501  0.00000000000E+00  0.00000000000E+00  0.27205498205E+03  0.27205498206E+03  0.25500000000E-02 0.  1.
         -2   -1    0    0  501    0 -0.00000000000E+00 -0.00000000000E+00 -0.75063624007E+01  0.75063628338E+01  0.25500000000E-02 0.  1.
          2    1    1    2    0  502 -0.21468894856E+02 -0.14116996708E+01  0.93528615212E+01  0.23460229484E+02  0.25500000000E-02 0.  1.
         -2    1    1    2  502    0  0.21468894856E+02  0.14116996708E+01  0.25519575813E+03  0.25610111541E+03  0.25500000000E-02 0.  1.
<mgrwt>
<rscale>  0 0.90380160E+02</rscale>
<asrwt>0</asrwt>
<pdfrwt beam="1">  1        2 0.41854609E-01 0.90380160E+02</pdfrwt>
<pdfrwt beam="2">  1       -2 0.11548251E-02 0.90380160E+02</pdfrwt>
<totfact> 0.17733422E+05</totfact>
</mgrwt>
</event>
<event>
 4    1  0.2196664E-002  0.7631753E+02  0.7818608E-02  0.1339839E+00
         -2   -1    0    0  501    0 -0.00000000000E+00  0.00000000000E+00  0.51573587261E+02  0.51573587324E+02  0.25500000000E-02 0. -1.
          2   -1    0    0    0  501  0.00000000000E+00 -0.00000000000E+00 -0.28233277952E+02  0.28233278067E+02  0.25500000000E-02 0. -1.
          2    1    1    2    0  502 -0.13781376205E+02 -0.34339970988E+02  0.21420151812E+02  0.42754916065E+02  0.25500000000E-02 0. -1.
         -2    1    1    2  502    0  0.13781376205E+02  0.34339970988E+02  0.19201574963E+01  0.37051949326E+02  0.25500000000E-02 0. -1.
<mgrwt>
<rscale>  0 0.76317532E+02</rscale>
<asrwt>0</asrwt>
<pdfrwt beam="2">  1        2 0.43435812E-02 0.76317532E+02</pdfrwt>
<pdfrwt beam="1">  1       -2 0.79343981E-02 0.76317532E+02</pdfrwt>
<totfact> 0.14628772E+05</totfact>
</mgrwt>
</event>
<event>
 4    1  0.2196664E-002  0.6473659E+02  0.7818608E-02  0.1378965E+00
         -2   -1    0    0  501    0 -0.00000000000E+00  0.00000000000E+00  0.17016669078E+01  0.17016688184E+01  0.25500000000E-02 0.  1.
          2   -1    0    0    0  501  0.00000000000E+00 -0.00000000000E+00 -0.61569383362E+03  0.61569383363E+03  0.25500000000E-02 0.  1.
          2    1    1    2    0  502 -0.24180155637E+02 -0.10682114368E+01 -0.10203057499E+03  0.10486209631E+03  0.25500000000E-02 0.  1.
         -2    1    1    2  502    0  0.24180155637E+02  0.10682114368E+01 -0.51196159172E+03  0.51253340614E+03  0.25500000000E-02 0.  1.
<mgrwt>
<rscale>  0 0.64736587E+02</rscale>
<asrwt>0</asrwt>
<pdfrwt beam="2">  1        2 0.94721951E-01 0.64736587E+02</pdfrwt>
<pdfrwt beam="1">  1       -2 0.26179555E-03 0.64736587E+02</pdfrwt>
<totfact> 0.55788896E+05</totfact>
</mgrwt>
</event>
<event>
 4    1  0.2196664E-002  0.5012959E+02  0.7818608E-02  0.1444644E+00
          2   -1    0    0    0  501  0.00000000000E+00  0.00000000000E+00  0.15012892016E+04  0.15012892016E+04  0.25500000000E-02 0. -1.
         -2   -1    0    0  501    0 -0.00000000000E+00 -0.00000000000E+00 -0.41846581951E+00  0.41847358889E+00  0.25500000000E-02 0. -1.
          2    1    1    2    0  502  0.12925070426E+01 -0.23369527366E+02  0.10191081230E+04  0.10193768546E+04  0.25500000000E-02 0. -1.
         -2    1    1    2  502    0 -0.12925070426E+01  0.23369527366E+02  0.48176261277E+03  0.48233082055E+03  0.25500000000E-02 0. -1.
<mgrwt>
<rscale>  0 0.50129594E+02</rscale>
<asrwt>0</asrwt>
<pdfrwt beam="1">  1        2 0.23096751E+00 0.50129594E+02</pdfrwt>
<pdfrwt beam="2">  1       -2 0.64379971E-04 0.50129594E+02</pdfrwt>
<totfact> 0.10886149E+06</totfact>
</mgrwt>
</event>
<event>
 4    1  0.2196664E-002  0.4691766E+02  0.7818608E-02  0.1462713E+00
          2   -1    0    0    0  501  0.00000000000E+00  0.00000000000E+00  0.71133844759E+02  0.71133844805E+02  0.25500000000E-02 0. -1.
         -2   -1    0    0  501    0 -0.00000000000E+00 -0.00000000000E+00 -0.77363536896E+01  0.77363541099E+01  0.25500000000E-02 0. -1.
          2    1    1    2    0  502 -0.20205568374E+02 -0.84586593944E+01  0.17583791988E+02  0.28089208947E+02  0.25500000000E-02 0.  1.
         -2    1    1    2  502    0  0.20205568374E+02  0.84586593944E+01  0.45813699082E+02  0.50780989968E+02  0.25500000000E-02 0.  1.
<mgrwt>
<rscale>  0 0.46917656E+02</rscale>
<asrwt>0</asrwt>
<pdfrwt beam="1">  1        2 0.10943669E-01 0.46917656E+02</pdfrwt>
<pdfrwt beam="2">  1       -2 0.11902083E-02 0.46917656E+02</pdfrwt>
<totfact> 0.64823493E+05</totfact>
</mgrwt>
</event>
<event>
 4    1  0.2196664E-002  0.5425622E+02  0.7818608E-02  0.1423649E+00
          2   -1    0    0    0  501  0.00000000000E+00  0.00000000000E+00  0.39569060793E+03  0.39569060793E+03  0.25500000000E-02 0. -1.
         -2   -1    0    0  501    0 -0.00000000000E+00 -0.00000000000E+00 -0.18598724070E+01  0.18598741551E+01  0.25500000000E-02 0. -1.
          2    1    1    2    0  502  0.13484991797E+02  0.22065404609E+02  0.25698444613E+03  0.25828227319E+03  0.25500000000E-02 0.  1.
         -2    1    1    2  502    0 -0.13484991797E+02 -0.22065404609E+02  0.13684628939E+03  0.13926820890E+03  0.25500000000E-02 0.  1.
<mgrwt>
<rscale>  0 0.54256221E+02</rscale>
<asrwt>0</asrwt>
<pdfrwt beam="1">  1        2 0.60875437E-01 0.54256221E+02</pdfrwt>
<pdfrwt beam="2">  1       -2 0.28613454E-03 0.54256221E+02</pdfrwt>
<totfact> 0.75920249E+05</totfact>
</mgrwt>
</event>
<event>
 4    1  0.2196664E-002  0.8120763E+02  0.7818608E-02  0.1325659E+00
          2   -1    0    0    0  501  0.00000000000E+00  0.00000000000E+00  0.13841697471E+03  0.13841697473E+03  0.25500000000E-02 0. -1.
         -2   -1    0    0  501    0 -0.00000000000E+00 -0.00000000000E+00 -0.11910893855E+02  0.11910894128E+02  0.25500000000E-02 0. -1.
          2    1    1    2    0  502  0.16792526694E+02  0.36866177207E+02  0.68344870950E+02  0.79448885243E+02  0.25500000000E-02 0.  1.
         -2    1    1    2  502    0 -0.16792526694E+02 -0.36866177207E+02  0.58161209903E+02  0.70878983617E+02  0.25500000000E-02 0.  1.
<mgrwt>
<rscale>  0 0.81207633E+02</rscale>
<asrwt>0</asrwt>
<pdfrwt beam="1">  1        2 0.21294920E-01 0.81207633E+02</pdfrwt>
<pdfrwt beam="2">  1       -2 0.18324452E-02 0.81207633E+02</pdfrwt>
<totfact> 0.18599459E+05</totfact>
</mgrwt>
</event>
<event>
 4    1  0.2196664E-002  0.4598772E+02  0.7818608E-02  0.1468268E+00
          2   -1    0    0    0  501  0.00000000000E+00  0.00000000000E+00  0.21560283343E+03  0.21560283345E+03  0.25500000000E-02 0. -1.
         -2   -1    0    0  501    0 -0.00000000000E+00 -0.00000000000E+00 -0.24522745290E+01  0.24522758548E+01  0.25500000000E-02 0. -1.
          2    1    1    2    0  502 -0.21600384637E+02  0.73108507372E+01  0.12055480163E+03  0.12269264589E+03  0.25500000000E-02 0. -1.
         -2    1    1    2  502    0  0.21600384637E+02 -0.73108507372E+01  0.92595757280E+02  0.95362463411E+02  0.25500000000E-02 0. -1.
<mgrwt>
<rscale>  0 0.45987715E+02</rscale>
<asrwt>0</asrwt>
<pdfrwt beam="1">  1        2 0.33169677E-01 0.45987715E+02</pdfrwt>
<pdfrwt beam="2">  1       -2 0.37727299E-03 0.45987715E+02</pdfrwt>
<totfact> 0.92954069E+05</totfact>
</mgrwt>
</event>
<event>
 4    1  0.2196664E-002  0.4326357E+02  0.7818608E-02  0.1485482E+00
         -2   -1    0    0  501    0 -0.00000000000E+00  0.00000000000E+00  0.33786214775E+03  0.33786214776E+03  0.25500000000E-02 0.  1.
          2   -1    0    0    0  501  0.00000000000E+00 -0.00000000000E+00 -0.13849843419E+01  0.13849866894E+01  0.25500000000E-02 0.  1.
          2    1    1    2    0  502  0.17835351579E+02  0.10758639493E+02  0.12245788619E+03  0.12421667354E+03  0.25500000000E-02 0. -1.
         -2    1    1    2  502    0 -0.17835351579E+02 -0.10758639493E+02  0.21401927722E+03  0.21503046091E+03  0.25500000000E-02 0. -1.
<mgrwt>
<rscale>  0 0.43263573E+02</rscale>
<asrwt>0</asrwt>
<pdfrwt beam="2">  1        2 0.21307457E-03 0.43263573E+02</pdfrwt>
<pdfrwt beam="1">  1       -2 0.51978823E-01 0.43263573E+02</pdfrwt>
<totfact> 0.30871221E+05</totfact>
</mgrwt>
</event>
<event>
 4    1  0.2196664E-002  0.5272184E+02  0.7818608E-02  0.1431190E+00
          2   -1    0    0    0  501  0.00000000000E+00  0.00000000000E+00  0.17268549565E+04  0.17268549565E+04  0.25500000000E-02 0.  1.
         -2   -1    0    0  501    0 -0.00000000000E+00 -0.00000000000E+00 -0.40240268691E+00  0.40241076642E+00  0.25500000000E-02 0.  1.
          2    1    1    2    0  502  0.24712150422E+02 -0.79251387305E+01  0.10147818191E+04  0.10151136087E+04  0.25500000000E-02 0. -1.
         -2    1    1    2  502    0 -0.24712150422E+02  0.79251387305E+01  0.71167073470E+03  0.71214375854E+03  0.25500000000E-02 0. -1.
<mgrwt>
<rscale>  0 0.52721838E+02</rscale>
<asrwt>0</asrwt>
<pdfrwt beam="1">  1        2 0.26567019E+00 0.52721838E+02</pdfrwt>
<pdfrwt beam="2">  1       -2 0.61908682E-04 0.52721838E+02</pdfrwt>
<totfact> 0.89880261E+05</totfact>
</mgrwt>
</event>
<event>
 4    1  0.2196664E-002  0.4825081E+02  0.7818608E-02  0.1455011E+00
         -2   -1    0    0  501    0 -0.00000000000E+00  0.00000000000E+00  0.64413600743E+00  0.64414105487E+00  0.25500000000E-02 0. -1.
          2   -1    0    0    0  501  0.00000000000E+00 -0.00000000000E+00 -0.90358706172E+03  0.90358706172E+03  0.25500000000E-02 0. -1.
          2    1    1    2    0  502 -0.23703992745E+02  0.21461169029E+01 -0.52537107138E+03  0.52590992360E+03  0.25500000000E-02 0. -1.
         -2    1    1    2  502    0  0.23703992745E+02 -0.21461169029E+01 -0.37757185433E+03  0.37832127918E+03  0.25500000000E-02 0. -1.
<mgrwt>
<rscale>  0 0.48250813E+02</rscale>
<asrwt>0</asrwt>
<pdfrwt beam="2">  1        2 0.13901238E+00 0.48250813E+02</pdfrwt>
<pdfrwt beam="1">  1       -2 0.99098959E-04 0.48250813E+02</pdfrwt>
<totfact> 0.12542362E+06</totfact>
</mgrwt>
</event>
<event>
 4    1  0.2196664E-002  0.4569489E+02  0.7818608E-02  0.1470050E+00
         -2   -1    0    0  501    0 -0.00000000000E+00  0.00000000000E+00  0.32643021618E+00  0.32644017604E+00  0.25500000000E-02 0. -1.
          2   -1    0    0    0  501  0.00000000000E+00 -0.00000000000E+00 -0.15991098487E+04  0.15991098487E+04  0.25500000000E-02 0. -1.
          2    1    1    2    0  502  0.10076934386E+02  0.20416235805E+02 -0.73262544386E+03  0.73297913223E+03  0.25500000000E-02 0. -1.
         -2    1    1    2  502    0 -0.10076934386E+02 -0.20416235805E+02 -0.86615797466E+03  0.86645715669E+03  0.25500000000E-02 0. -1.
<mgrwt>
<rscale>  0 0.45694890E+02</rscale>
<asrwt>0</asrwt>
<pdfrwt beam="2">  1        2 0.24601063E+00 0.45694890E+02</pdfrwt>
<pdfrwt beam="1">  1       -2 0.50222080E-04 0.45694890E+02</pdfrwt>
<totfact> 0.13335270E+06</totfact>
</mgrwt>
</event>
<event>
 4    1  0.2196664E-002  0.6213604E+02  0.7818608E-02  0.1389080E+00
         -2   -1    0    0  501    0 -0.00000000000E+00  0.00000000000E+00  0.10707447552E+03  0.10707447555E+03  0.25500000000E-02 0. -1.
          2   -1    0    0    0  501  0.00000000000E+00 -0.00000000000E+00 -0.90144898127E+01  0.90144901733E+01  0.25500000000E-02 0. -1.
          2    1    1    2    0  502 -0.24322163784E+02 -0.37955431993E+01  0.84441511975E+02  0.87956482140E+02  0.25500000000E-02 0.  1.
         -2    1    1    2  502    0  0.24322163784E+02  0.37955431993E+01  0.13618473732E+02  0.28132483584E+02  0.25500000000E-02 0.  1.
<mgrwt>
<rscale>  0 0.62136038E+02</rscale>
<asrwt>0</asrwt>
<pdfrwt beam="2">  1        2 0.13868446E-02 0.62136038E+02</pdfrwt>
<pdfrwt beam="1">  1       -2 0.16472997E-01 0.62136038E+02</pdfrwt>
<totfact> 0.20320472E+05</totfact>
</mgrwt>
</event>
<event>
 4    1  0.2196664E-002  0.5772060E+02  0.7818608E-02  0.1407654E+00
         -2   -1    0    0  501    0 -0.00000000000E+00  0.00000000000E+00  0.16805126126E+02  0.16805126319E+02  0.25500000000E-02 0. -1.
          2   -1    0    0    0  501  0.00000000000E+00 -0.00000000000E+00 -0.49563264549E+02  0.49563264615E+02  0.25500000000E-02 0. -1.
          2    1    1    2    0  502  0.10143144873E+02  0.26835332603E+02 -0.12761523294E+02  0.31398645625E+02  0.25500000000E-02 0. -1.
         -2    1    1    2  502    0 -0.10143144873E+02 -0.26835332603E+02 -0.19996615129E+02  0.34969745308E+02  0.25500000000E-02 0. -1.
<mgrwt>
<rscale>  0 0.57720600E+02</rscale>
<asrwt>0</asrwt>
<pdfrwt beam="2">  1        2 0.76251176E-02 0.57720600E+02</pdfrwt>
<pdfrwt beam="1">  1       -2 0.25854041E-02 0.57720600E+02</pdfrwt>
<totfact> 0.35240209E+05</totfact>
</mgrwt>
</event>
<event>
 4    1  0.2196664E-002  0.4362806E+02  0.7818608E-02  0.1483093E+00
          2   -1    0    0    0  501  0.00000000000E+00  0.00000000000E+00  0.62059383241E+03  0.62059383241E+03  0.25500000000E-02 0.  1.
         -2   -1    0    0  501    0 -0.00000000000E+00 -0.00000000000E+00 -0.76676642015E+00  0.76677066035E+00  0.25500000000E-02 0.  1.
          2    1    1    2    0  502 -0.20044936360E+02 -0.58486011725E+01  0.39981595244E+03  0.40036083905E+03  0.25500000000E-02 0. -1.
         -2    1    1    2  502    0  0.20044936360E+02  0.58486011725E+01  0.22001111355E+03  0.22099976403E+03  0.25500000000E-02 0. -1.
<mgrwt>
<rscale>  0 0.43628057E+02</rscale>
<asrwt>0</asrwt>
<pdfrwt beam="1">  1        2 0.95475875E-01 0.43628057E+02</pdfrwt>
<pdfrwt beam="2">  1       -2 0.11796451E-03 0.43628057E+02</pdfrwt>
<totfact> 0.14923270E+06</totfact>
</mgrwt>
</event>
<event>
 4    1  0.2196664E-002  0.5683188E+02  0.7818608E-02  0.1411629E+00
          2   -1    0    0    0  501  0.00000000000E+00  0.00000000000E+00  0.28252083465E+03  0.28252083466E+03  0.25500000000E-02 0.  1.
         -2   -1    0    0  501    0 -0.00000000000E+00 -0.00000000000E+00 -0.28580738968E+01  0.28580750344E+01  0.25500000000E-02 0.  1.
          2    1    1    2    0  502  0.67942292937E+01  0.26780539412E+02  0.17318034342E+03  0.17537043707E+03  0.25500000000E-02 0. -1.
         -2    1    1    2  502    0 -0.67942292937E+01 -0.26780539412E+02  0.10648241733E+03  0.11000847263E+03  0.25500000000E-02 0. -1.
<mgrwt>
<rscale>  0 0.56831878E+02</rscale>
<asrwt>0</asrwt>
<pdfrwt beam="1">  1        2 0.43464758E-01 0.56831878E+02</pdfrwt>
<pdfrwt beam="2">  1       -2 0.43970362E-03 0.56831878E+02</pdfrwt>
<totfact> 0.60057482E+05</totfact>
</mgrwt>
</event>
<event>
 4    1  0.2196664E-002  0.9492345E+02  0.7818608E-02  0.1291349E+00
         -2   -1    0    0  501    0 -0.00000000000E+00  0.00000000000E+00  0.22941671420E+02  0.22941671562E+02  0.25500000000E-02 0. -1.
          2   -1    0    0    0  501  0.00000000000E+00 -0.00000000000E+00 -0.98188815826E+02  0.98188815859E+02  0.25500000000E-02 0. -1.
          2    1    1    2    0  502  0.28808526317E+00 -0.39821774957E+02 -0.70574246581E+02  0.81034443546E+02  0.25500000000E-02 0. -1.
         -2    1    1    2  502    0 -0.28808526317E+00  0.39821774957E+02 -0.46728978249E+01  0.40096043875E+02  0.25500000000E-02 0. -1.
<mgrwt>
<rscale>  0 0.94923455E+02</rscale>
<asrwt>0</asrwt>
<pdfrwt beam="2">  1        2 0.15105971E-01 0.94923455E+02</pdfrwt>
<pdfrwt beam="1">  1       -2 0.35294880E-02 0.94923455E+02</pdfrwt>
<totfact> 0.10913965E+05</totfact>
</mgrwt>
</event>
<event>
 4    1  0.2196664E-002  0.5939560E+02  0.7818608E-02  0.1400386E+00
         -2   -1    0    0  501    0 -0.00000000000E+00  0.00000000000E+00  0.52806684090E+00  0.52807299776E+00  0.25500000000E-02 0. -1.
          2   -1    0    0    0  501  0.00000000000E+00 -0.00000000000E+00 -0.16701562940E+04  0.16701562940E+04  0.25500000000E-02 0. -1.
          2    1    1    2    0  502 -0.21377202085E+02  0.11974166989E+02 -0.36280354278E+03  0.36362999890E+03  0.25500000000E-02 0.  1.
         -2    1    1    2  502    0  0.21377202085E+02 -0.11974166989E+02 -0.13068246844E+04  0.13070543681E+04  0.25500000000E-02 0.  1.
<mgrwt>
<rscale>  0 0.59395599E+02</rscale>
<asrwt>0</asrwt>
<pdfrwt beam="2">  1        2 0.25694289E+00 0.59395599E+02</pdfrwt>
<pdfrwt beam="1">  1       -2 0.81242863E-04 0.59395599E+02</pdfrwt>
<totfact> 0.67899670E+05</totfact>
</mgrwt>
</event>
<event>
 4    1  0.2196664E-002  0.4796649E+02  0.7818608E-02  0.1456629E+00
          2   -1    0    0    0  501  0.00000000000E+00  0.00000000000E+00  0.14553053802E+04  0.14553053802E+04  0.25500000000E-02 0. -1.
         -2   -1    0    0  501    0 -0.00000000000E+00 -0.00000000000E+00 -0.39523662432E+00  0.39524485032E+00  0.25500000000E-02 0. -1.
          2    1    1    2    0  502 -0.20998608183E+02  0.47395703698E+01  0.10483311721E+04  0.10485521692E+04  0.25500000000E-02 0. -1.
         -2    1    1    2  502    0  0.20998608183E+02 -0.47395703698E+01  0.40657897147E+03  0.40714845588E+03  0.25500000000E-02 0. -1.
<mgrwt>
<rscale>  0 0.47966487E+02</rscale>
<asrwt>0</asrwt>
<pdfrwt beam="1">  1        2 0.22389235E+00 0.47966487E+02</pdfrwt>
<pdfrwt beam="2">  1       -2 0.60806480E-04 0.47966487E+02</pdfrwt>
<totfact> 0.12270175E+06</totfact>
</mgrwt>
</event>
<event>
 4    1  0.2196664E-002  0.4361099E+02  0.7818608E-02  0.1483204E+00
          2   -1    0    0    0  501  0.00000000000E+00  0.00000000000E+00  0.36574127465E+03  0.36574127466E+03  0.25500000000E-02 0.  1.
         -2   -1    0    0  501    0 -0.00000000000E+00 -0.00000000000E+00 -0.13000421481E+01  0.13000446489E+01  0.25500000000E-02 0.  1.
          2    1    1    2    0  502  0.18965264624E+01 -0.21344818724E+02  0.21618042901E+03  0.21723990424E+03  0.25500000000E-02 0.  1.
         -2    1    1    2  502    0 -0.18965264624E+01  0.21344818724E+02  0.14826080348E+03  0.14980141506E+03  0.25500000000E-02 0.  1.
<mgrwt>
<rscale>  0 0.43610986E+02</rscale>
<asrwt>0</asrwt>
<pdfrwt beam="1">  1        2 0.56267978E-01 0.43610986E+02</pdfrwt>
<pdfrwt beam="2">  1       -2 0.20000636E-03 0.43610986E+02</pdfrwt>
<totfact> 0.12686536E+06</totfact>
</mgrwt>
</event>
<event>
 4    1  0.2196664E-002  0.4663142E+02  0.7818608E-02  0.1464407E+00
          2   -1    0    0    0  501  0.00000000000E+00  0.00000000000E+00  0.15275656353E+03  0.15275656355E+03  0.25500000000E-02 0.  1.
         -2   -1    0    0  501    0 -0.00000000000E+00 -0.00000000000E+00 -0.35587496805E+01  0.35587505941E+01  0.25500000000E-02 0.  1.
          2    1    1    2    0  502 -0.13131783192E+02  0.17442107395E+02  0.47170327445E+02  0.51977982242E+02  0.25500000000E-02 0. -1.
         -2    1    1    2  502    0  0.13131783192E+02 -0.17442107395E+02  0.10202748641E+03  0.10433733190E+03  0.25500000000E-02 0. -1.
<mgrwt>
<rscale>  0 0.46631425E+02</rscale>
<asrwt>0</asrwt>
<pdfrwt beam="1">  1        2 0.23501005E-01 0.46631425E+02</pdfrwt>
<pdfrwt beam="2">  1       -2 0.54750013E-03 0.46631425E+02</pdfrwt>
<totfact> 0.80411910E+05</totfact>
</mgrwt>
</event>
<event>
 4    1  0.2196664E-002  0.9125658E+02  0.7818608E-02  0.1299837E+00
         -2   -1    0    0  501    0 -0.00000000000E+00  0.00000000000E+00  0.69864835498E+03  0.69864835499E+03  0.25500000000E-02 0. -1.
          2   -1    0    0    0  501  0.00000000000E+00 -0.00000000000E+00 -0.29799545153E+01  0.29799556064E+01  0.25500000000E-02 0. -1.
          2    1    1    2    0  502  0.41265815261E+02 -0.17040722137E+02  0.42023991724E+03  0.42260482932E+03  0.25500000000E-02 0.  1.
         -2    1    1    2  502    0 -0.41265815261E+02  0.17040722137E+02  0.27542848323E+03  0.27902348127E+03  0.25500000000E-02 0.  1.
<mgrwt>
<rscale>  0 0.91256577E+02</rscale>
<asrwt>0</asrwt>
<pdfrwt beam="2">  1        2 0.45845437E-03 0.91256577E+02</pdfrwt>
<pdfrwt beam="1">  1       -2 0.10748442E+00 0.91256577E+02</pdfrwt>
<totfact> 0.27171045E+04</totfact>
</mgrwt>
</event>
<event>
 4    1  0.2196664E-002  0.6268260E+02  0.7818608E-02  0.1386907E+00
         -2   -1    0    0  501    0 -0.00000000000E+00  0.00000000000E+00  0.33515823742E+03  0.33515823743E+03  0.25500000000E-02 0.  1.
          2   -1    0    0    0  501  0.00000000000E+00 -0.00000000000E+00 -0.29307850493E+01  0.29307861587E+01  0.25500000000E-02 0.  1.
          2    1    1    2    0  502 -0.26275247557E+02 -0.58781255141E+01  0.79590177420E+02  0.84021052969E+02  0.25500000000E-02 0. -1.
         -2    1    1    2  502    0  0.26275247557E+02  0.58781255141E+01  0.25263727495E+03  0.25406797062E+03  0.25500000000E-02 0. -1.
<mgrwt>
<rscale>  0 0.62682595E+02</rscale>
<asrwt>0</asrwt>
<pdfrwt beam="2">  1        2 0.45088974E-03 0.62682595E+02</pdfrwt>
<pdfrwt beam="1">  1       -2 0.51562847E-01 0.62682595E+02</pdfrwt>
<totfact> 0.12422702E+05</totfact>
</mgrwt>
</event>
<event>
 4    1  0.2196664E-002  0.5218122E+02  0.7818608E-02  0.1433920E+00
          2   -1    0    0    0  501  0.00000000000E+00  0.00000000000E+00  0.45253081160E+02  0.45253081232E+02  0.25500000000E-02 0.  1.
         -2   -1    0    0  501    0 -0.00000000000E+00 -0.00000000000E+00 -0.15042512736E+02  0.15042512952E+02  0.25500000000E-02 0.  1.
          2    1    1    2    0  502  0.87465565920E+01 -0.23901768462E+02  0.21735425025E+02  0.33469769873E+02  0.25500000000E-02 0.  1.
         -2    1    1    2  502    0 -0.87465565920E+01  0.23901768462E+02  0.84751433993E+01  0.26825824311E+02  0.25500000000E-02 0.  1.
<mgrwt>
<rscale>  0 0.52181225E+02</rscale>
<asrwt>0</asrwt>
<pdfrwt beam="1">  1        2 0.69620125E-02 0.52181225E+02</pdfrwt>
<pdfrwt beam="2">  1       -2 0.23142328E-02 0.52181225E+02</pdfrwt>
<totfact> 0.45086610E+05</totfact>
</mgrwt>
</event>
<event>
 4    1  0.2196664E-002  0.4883838E+02  0.7818608E-02  0.1451710E+00
          2   -1    0    0    0  501  0.00000000000E+00  0.00000000000E+00  0.74706027811E+03  0.74706027812E+03  0.25500000000E-02 0.  1.
         -2   -1    0    0  501    0 -0.00000000000E+00 -0.00000000000E+00 -0.79818912627E+00  0.79819319955E+00  0.25500000000E-02 0.  1.
          2    1    1    2    0  502 -0.18813632937E+02 -0.15466857961E+02  0.40018092321E+03  0.40092137357E+03  0.25500000000E-02 0.  1.
         -2    1    1    2  502    0  0.18813632937E+02  0.15466857961E+02  0.34608116578E+03  0.34693709775E+03  0.25500000000E-02 0.  1.
<mgrwt>
<rscale>  0 0.48838383E+02</rscale>
<asrwt>0</asrwt>
<pdfrwt beam="1">  1        2 0.11493227E+00 0.48838383E+02</pdfrwt>
<pdfrwt beam="2">  1       -2 0.12279872E-03 0.48838383E+02</pdfrwt>
<totfact> 0.11821010E+06</totfact>
</mgrwt>
</event>
<event>
 4    1  0.2196664E-002  0.7168820E+02  0.7818608E-02  0.1354445E+00
          2   -1    0    0    0  501  0.00000000000E+00  0.00000000000E+00  0.11704918408E+03  0.11704918411E+03  0.25500000000E-02 0. -1.
         -2   -1    0    0  501    0 -0.00000000000E+00 -0.00000000000E+00 -0.10976578852E+02  0.10976579148E+02  0.25500000000E-02 0. -1.
          2    1    1    2    0  502  0.29716470282E+02 -0.19871910911E+02  0.48366275296E+02  0.60143645065E+02  0.25500000000E-02 0.  1.
         -2    1    1    2  502    0 -0.29716470282E+02  0.19871910911E+02  0.57706329936E+02  0.67882118194E+02  0.25500000000E-02 0.  1.
<mgrwt>
<rscale>  0 0.71688203E+02</rscale>
<asrwt>0</asrwt>
<pdfrwt beam="1">  1        2 0.18007567E-01 0.71688203E+02</pdfrwt>
<pdfrwt beam="2">  1       -2 0.16887044E-02 0.71688203E+02</pdfrwt>
<totfact> 0.24605703E+05</totfact>
</mgrwt>
</event>
<event>
 4    1  0.2196664E-002  0.4174322E+02  0.7818608E-02  0.1495761E+00
         -2   -1    0    0  501    0 -0.00000000000E+00  0.00000000000E+00  0.36599521221E+01  0.36599530104E+01  0.25500000000E-02 0. -1.
          2   -1    0    0    0  501  0.00000000000E+00 -0.00000000000E+00 -0.11902452437E+03  0.11902452440E+03  0.25500000000E-02 0. -1.
          2    1    1    2    0  502 -0.16199383432E+02 -0.13045679119E+02 -0.62784985647E+02  0.66140488329E+02  0.25500000000E-02 0.  1.
         -2    1    1    2  502    0  0.16199383432E+02  0.13045679119E+02 -0.52579586599E+02  0.56543989076E+02  0.25500000000E-02 0.  1.
<mgrwt>
<rscale>  0 0.41743221E+02</rscale>
<asrwt>0</asrwt>
<pdfrwt beam="2">  1        2 0.18311462E-01 0.41743221E+02</pdfrwt>
<pdfrwt beam="1">  1       -2 0.56306972E-03 0.41743221E+02</pdfrwt>
<totfact> 0.98454170E+05</totfact>
</mgrwt>
</event>
<event>
 4    1  0.2196664E-002  0.4500006E+02  0.7818608E-02  0.1474341E+00
         -2   -1    0    0  501    0 -0.00000000000E+00  0.00000000000E+00  0.55071811809E+01  0.55071817713E+01  0.25500000000E-02 0. -1.
          2   -1    0    0    0  501  0.00000000000E+00 -0.00000000000E+00 -0.91925657712E+02  0.91925657748E+02  0.25500000000E-02 0. -1.
          2    1    1    2    0  502  0.12114146229E+02 -0.18894053798E+02 -0.39776592329E+02  0.45671819666E+02  0.25500000000E-02 0. -1.
         -2    1    1    2  502    0 -0.12114146229E+02  0.18894053798E+02 -0.46641884202E+02  0.51761019853E+02  0.25500000000E-02 0. -1.
<mgrwt>
<rscale>  0 0.45000057E+02</rscale>
<asrwt>0</asrwt>
<pdfrwt beam="2">  1        2 0.14142408E-01 0.45000057E+02</pdfrwt>
<pdfrwt beam="1">  1       -2 0.84725876E-03 0.45000057E+02</pdfrwt>
<totfact> 0.76410598E+05</totfact>
</mgrwt>
</event>
<event>
 4    1  0.2196664E-002  0.1468341E+03  0.7818608E-02  0.1204418E+00
          2   -1    0    0    0  501  0.00000000000E+00  0.00000000000E+00  0.26006473797E+04  0.26006473797E+04  0.25500000000E-02 0.  1.
         -2   -1    0    0  501    0 -0.00000000000E+00 -0.00000000000E+00 -0.20725849689E+01  0.20725865376E+01  0.25500000000E-02 0.  1.
          2    1    1    2    0  502 -0.68318658513E+02  0.21880503419E+02  0.15760955725E+04  0.15777273051E+04  0.25500000000E-02 0.  1.
         -2    1    1    2  502    0  0.68318658513E+02 -0.21880503419E+02  0.10224792223E+04  0.10249926612E+04  0.25500000000E-02 0.  1.
<mgrwt>
<rscale>  0 0.14683412E+03</rscale>
<asrwt>0</asrwt>
<pdfrwt beam="1">  1        2 0.40010259E+00 0.14683412E+03</pdfrwt>
<pdfrwt beam="2">  1       -2 0.31885696E-03 0.14683412E+03</pdfrwt>
<totfact> 0.38065855E+04</totfact>
</mgrwt>
</event>
<event>
 4    1  0.2196664E-002  0.7966654E+02  0.7818608E-02  0.1330000E+00
         -2   -1    0    0  501    0 -0.00000000000E+00  0.00000000000E+00  0.61006708835E+03  0.61006708835E+03  0.25500000000E-02 0. -1.
          2   -1    0    0    0  501  0.00000000000E+00 -0.00000000000E+00 -0.26008435457E+01  0.26008447957E+01  0.25500000000E-02 0. -1.
          2    1    1    2    0  502 -0.37676084827E+02 -0.22029771408E+01  0.20574488785E+03  0.20917767414E+03  0.25500000000E-02 0.  1.
         -2    1    1    2  502    0  0.37676084827E+02  0.22029771408E+01  0.40172135695E+03  0.40349025901E+03  0.25500000000E-02 0.  1.
<mgrwt>
<rscale>  0 0.79666541E+02</rscale>
<asrwt>0</asrwt>
<pdfrwt beam="2">  1        2 0.40012970E-03 0.79666541E+02</pdfrwt>
<pdfrwt beam="1">  1       -2 0.93856516E-01 0.79666541E+02</pdfrwt>
<totfact> 0.43649411E+04</totfact>
</mgrwt>
</event>
<event>
 4    1  0.2196664E-002  0.4496466E+02  0.7818608E-02  0.1474562E+00
         -2   -1    0    0  501    0 -0.00000000000E+00  0.00000000000E+00  0.68750157637E+01  0.68750162366E+01  0.25500000000E-02 0. -1.
          2   -1    0    0    0  501  0.00000000000E+00 -0.00000000000E+00 -0.73520567440E+02  0.73520567484E+02  0.25500000000E-02 0. -1.
          2    1    1    2    0  502  0.13030188069E+02 -0.18080649106E+02 -0.28031040412E+02  0.35811100322E+02  0.25500000000E-02 0. -1.
         -2    1    1    2  502    0 -0.13030188069E+02  0.18080649106E+02 -0.38614511265E+02  0.44584483399E+02  0.25500000000E-02 0. -1.
<mgrwt>
<rscale>  0 0.44964656E+02</rscale>
<asrwt>0</asrwt>
<pdfrwt beam="2">  1        2 0.11310856E-01 0.44964656E+02</pdfrwt>
<pdfrwt beam="1">  1       -2 0.10576948E-02 0.44964656E+02</pdfrwt>
<totfact> 0.72680874E+05</totfact>
</mgrwt>
</event>
<event>
 4    1  0.2196664E-002  0.4761114E+02  0.7818608E-02  0.1458669E+00
         -2   -1    0    0  501    0 -0.00000000000E+00  0.00000000000E+00  0.96612078618E+00  0.96612415143E+00  0.25500000000E-02 0.  1.
          2   -1    0    0    0  501  0.00000000000E+00 -0.00000000000E+00 -0.58657698961E+03  0.58657698961E+03  0.25500000000E-02 0.  1.
          2    1    1    2    0  502 -0.21004753354E+02  0.11200828453E+02 -0.29013052553E+03  0.29110544494E+03  0.25500000000E-02 0. -1.
         -2    1    1    2  502    0  0.21004753354E+02 -0.11200828453E+02 -0.29548034329E+03  0.29643766882E+03  0.25500000000E-02 0. -1.
<mgrwt>
<rscale>  0 0.47611142E+02</rscale>
<asrwt>0</asrwt>
<pdfrwt beam="2">  1        2 0.90242330E-01 0.47611142E+02</pdfrwt>
<pdfrwt beam="1">  1       -2 0.14863469E-03 0.47611142E+02</pdfrwt>
<totfact> 0.11875627E+06</totfact>
</mgrwt>
</event>
<event>
 4    1  0.2196664E-002  0.6117603E+02  0.7818608E-02  0.1392962E+00
          2   -1    0    0    0  501  0.00000000000E+00  0.00000000000E+00  0.90028940588E+03  0.90028940589E+03  0.25500000000E-02 0. -1.
         -2   -1    0    0  501    0 -0.00000000000E+00 -0.00000000000E+00 -0.10392494307E+01  0.10392525592E+01  0.25500000000E-02 0. -1.
          2    1    1    2    0  502  0.45211868847E+01 -0.30246094807E+02  0.44079395896E+03  0.44185357489E+03  0.25500000000E-02 0. -1.
         -2    1    1    2  502    0 -0.45211868847E+01  0.30246094807E+02  0.45845619749E+03  0.45947508356E+03  0.25500000000E-02 0. -1.
<mgrwt>
<rscale>  0 0.61176030E+02</rscale>
<asrwt>0</asrwt>
<pdfrwt beam="1">  1        2 0.13850621E+00 0.61176030E+02</pdfrwt>
<pdfrwt beam="2">  1       -2 0.15988460E-03 0.61176030E+02</pdfrwt>
<totfact> 0.69417609E+05</totfact>
</mgrwt>
</event>
<event>
 4    1  0.2196664E-002  0.5375648E+02  0.7818608E-02  0.1426073E+00
         -2   -1    0    0  501    0 -0.00000000000E+00  0.00000000000E+00  0.82247689843E+00  0.82248085142E+00  0.25500000000E-02 0.  1.
          2   -1    0    0    0  501  0.00000000000E+00 -0.00000000000E+00 -0.87836873419E+03  0.87836873419E+03  0.25500000000E-02 0.  1.
          2    1    1    2    0  502  0.19023615358E+02 -0.12350487805E+02 -0.67465347305E+03  0.67503462222E+03  0.25500000000E-02 0. -1.
         -2    1    1    2  502    0 -0.19023615358E+02  0.12350487805E+02 -0.20289278424E+03  0.20415659282E+03  0.25500000000E-02 0. -1.
<mgrwt>
<rscale>  0 0.53756478E+02</rscale>
<asrwt>0</asrwt>
<pdfrwt beam="2">  1        2 0.13513290E+00 0.53756478E+02</pdfrwt>
<pdfrwt beam="1">  1       -2 0.12653591E-03 0.53756478E+02</pdfrwt>
<totfact> 0.95709047E+05</totfact>
</mgrwt>
</event>
<event>
 4    1  0.2196664E-002  0.6060645E+02  0.7818608E-02  0.1395304E+00
         -2   -1    0    0  501    0 -0.00000000000E+00  0.00000000000E+00  0.37160314597E+00  0.37161189512E+00  0.25500000000E-02 0. -1.
          2   -1    0    0    0  501  0.00000000000E+00 -0.00000000000E+00 -0.24711163355E+04  0.24711163355E+04  0.25500000000E-02 0. -1.
          2    1    1    2    0  502  0.21764275972E+02 -0.14687015827E+02 -0.18523311729E+04  0.18525172512E+04  0.25500000000E-02 0.  1.
         -2    1    1    2  502    0 -0.21764275972E+02  0.14687015827E+02 -0.61841355947E+03  0.61897069615E+03  0.25500000000E-02 0.  1.
<mgrwt>
<rscale>  0 0.60606449E+02</rscale>
<asrwt>0</asrwt>
<pdfrwt beam="2">  1        2 0.38015859E+00 0.60606449E+02</pdfrwt>
<pdfrwt beam="1">  1       -2 0.57172367E-04 0.60606449E+02</pdfrwt>
<totfact> 0.43866538E+05</totfact>
</mgrwt>
</event>
<event>
 4    1  0.2196664E-002  0.8827036E+02  0.7818608E-02  0.1307095E+00
         -2   -1    0    0  501    0 -0.00000000000E+00  0.00000000000E+00  0.13953896272E+03  0.13953896274E+03  0.25500000000E-02 0. -1.
          2   -1    0    0    0  501  0.00000000000E+00 -0.00000000000E+00 -0.13959641508E+02  0.13959641741E+02  0.25500000000E-02 0. -1.
          2    1    1    2    0  502 -0.42167140727E+02  0.23508419385E+01  0.40498413572E+02  0.58512526208E+02  0.25500000000E-02 0. -1.
         -2    1    1    2  502    0  0.42167140727E+02 -0.23508419385E+01  0.85080907636E+02  0.94986078273E+02  0.25500000000E-02 0. -1.
<mgrwt>
<rscale>  0 0.88270356E+02</rscale>
<asrwt>0</asrwt>
<pdfrwt beam="2">  1        2 0.21476372E-02 0.88270356E+02</pdfrwt>
<pdfrwt beam="1">  1       -2 0.21467533E-01 0.88270356E+02</pdfrwt>
<totfact> 0.77786720E+04</totfact>
</mgrwt>
</event>
<event>
 4    1  0.2196664E-002  0.4271132E+02  0.7818608E-02  0.1489157E+00
          2   -1    0    0    0  501  0.00000000000E+00  0.00000000000E+00  0.13625432760E+04  0.13625432760E+04  0.25500000000E-02 0.  1.
         -2   -1    0    0  501    0 -0.00000000000E+00 -0.00000000000E+00 -0.33471060726E+00  0.33472032074E+00  0.25500000000E-02 0.  1.
          2    1    1    2    0  502 -0.12070192426E+01 -0.21022144157E+02  0.56749343273E+03  0.56788395261E+03  0.25500000000E-02 0. -1.
         -2    1    1    2  502    0  0.12070192426E+01  0.21022144157E+02  0.79471513267E+03  0.79499404371E+03  0.25500000000E-02 0. -1.
<mgrwt>
<rscale>  0 0.42711324E+02</rscale>
<asrwt>0</asrwt>
<pdfrwt beam="1">  1        2 0.20962202E+00 0.42711324E+02</pdfrwt>
<pdfrwt beam="2">  1       -2 0.51494692E-04 0.42711324E+02</pdfrwt>
<totfact> 0.16598112E+06</totfact>
</mgrwt>
</event>
<event>
 4    1  0.2196664E-002  0.5685799E+02  0.7818608E-02  0.1411511E+00
          2   -1    0    0    0  501  0.00000000000E+00  0.00000000000E+00  0.22675249434E+03  0.22675249435E+03  0.25500000000E-02 0. -1.
         -2   -1    0    0  501    0 -0.00000000000E+00 -0.00000000000E+00 -0.35642720140E+01  0.35642729262E+01  0.25500000000E-02 0. -1.
          2    1    1    2    0  502 -0.26243472879E+02 -0.35219659844E+01  0.15351162040E+03  0.15577850210E+03  0.25500000000E-02 0. -1.
         -2    1    1    2  502    0  0.26243472879E+02  0.35219659844E+01  0.69676601920E+02  0.74538265172E+02  0.25500000000E-02 0. -1.
<mgrwt>
<rscale>  0 0.56857987E+02</rscale>
<asrwt>0</asrwt>
<pdfrwt beam="1">  1        2 0.34885007E-01 0.56857987E+02</pdfrwt>
<pdfrwt beam="2">  1       -2 0.54834949E-03 0.56857987E+02</pdfrwt>
<totfact> 0.55550100E+05</totfact>
</mgrwt>
</event>
<event>
 4    1  0.2196664E-002  0.5759009E+02  0.7818608E-02  0.1408233E+00
          2   -1    0    0    0  501  0.00000000000E+00  0.00000000000E+00  0.37699804340E+02  0.37699804426E+02  0.25500000000E-02 0.  1.
         -2   -1    0    0  501    0 -0.00000000000E+00 -0.00000000000E+00 -0.21993604363E+02  0.21993604511E+02  0.25500000000E-02 0.  1.
          2    1    1    2    0  502 -0.23862715961E+02 -0.13689426396E+02 -0.96190927921E+00  0.27527347930E+02  0.25500000000E-02 0.  1.
         -2    1    1    2  502    0  0.23862715961E+02  0.13689426396E+02  0.16668109256E+02  0.32166061008E+02  0.25500000000E-02 0.  1.
<mgrwt>
<rscale>  0 0.57590089E+02</rscale>
<asrwt>0</asrwt>
<pdfrwt beam="1">  1        2 0.57999699E-02 0.57590089E+02</pdfrwt>
<pdfrwt beam="2">  1       -2 0.33836315E-02 0.57590089E+02</pdfrwt>
<totfact> 0.33633643E+05</totfact>
</mgrwt>
</event>
<event>
 4    1  0.2196664E-002  0.1525157E+03  0.7818608E-02  0.1197415E+00
         -2   -1    0    0  501    0 -0.00000000000E+00  0.00000000000E+00  0.58537629013E+02  0.58537629069E+02  0.25500000000E-02 0.  1.
          2   -1    0    0    0  501  0.00000000000E+00 -0.00000000000E+00 -0.99342264701E+02  0.99342264734E+02  0.25500000000E-02 0.  1.
          2    1    1    2    0  502  0.35889148008E+02  0.66162248109E+02 -0.77331309162E+01  0.75665549227E+02  0.25500000000E-02 0. -1.
         -2    1    1    2  502    0 -0.35889148008E+02 -0.66162248109E+02 -0.33071504772E+02  0.82214344576E+02  0.25500000000E-02 0. -1.
<mgrwt>
<rscale>  0 0.15251571E+03</rscale>
<asrwt>0</asrwt>
<pdfrwt beam="2">  1        2 0.15283425E-01 0.15251571E+03</pdfrwt>
<pdfrwt beam="1">  1       -2 0.90057891E-02 0.15251571E+03</pdfrwt>
<totfact> 0.27859000E+04</totfact>
</mgrwt>
</event>
<event>
 4    1  0.2196664E-002  0.6710247E+02  0.7818608E-02  0.1370233E+00
         -2   -1    0    0  501    0 -0.00000000000E+00  0.00000000000E+00  0.50155890546E+02  0.50155890611E+02  0.25500000000E-02 0.  1.
          2   -1    0    0    0  501  0.00000000000E+00 -0.00000000000E+00 -0.22443733924E+02  0.22443734069E+02  0.25500000000E-02 0.  1.
          2    1    1    2    0  502  0.13336464533E+02 -0.30705990019E+02  0.16267175320E+02  0.37220157290E+02  0.25500000000E-02 0. -1.
         -2    1    1    2  502    0 -0.13336464533E+02  0.30705990019E+02  0.11444981302E+02  0.35379467390E+02  0.25500000000E-02 0. -1.
<mgrwt>
<rscale>  0 0.67102473E+02</rscale>
<asrwt>0</asrwt>
<pdfrwt beam="2">  1        2 0.34528822E-02 0.67102473E+02</pdfrwt>
<pdfrwt beam="1">  1       -2 0.77162908E-02 0.67102473E+02</pdfrwt>
<totfact> 0.20061568E+05</totfact>
</mgrwt>
</event>
<event>
 4    1  0.2196664E-002  0.6916469E+02  0.7818608E-02  0.1362957E+00
          2   -1    0    0    0  501  0.00000000000E+00  0.00000000000E+00  0.15679880652E+04  0.15679880652E+04  0.25500000000E-02 0. -1.
         -2   -1    0    0  501    0 -0.00000000000E+00 -0.00000000000E+00 -0.76271955682E+00  0.76272381952E+00  0.25500000000E-02 0. -1.
          2    1    1    2    0  502  0.16100386740E+02 -0.28782290067E+02  0.54757822178E+03  0.54857046188E+03  0.25500000000E-02 0.  1.
         -2    1    1    2  502    0 -0.16100386740E+02  0.28782290067E+02  0.10196471239E+04  0.10201803271E+04  0.25500000000E-02 0.  1.
<mgrwt>
<rscale>  0 0.69164688E+02</rscale>
<asrwt>0</asrwt>
<pdfrwt beam="1">  1        2 0.24122548E+00 0.69164688E+02</pdfrwt>
<pdfrwt beam="2">  1       -2 0.11734348E-03 0.69164688E+02</pdfrwt>
<totfact> 0.47527949E+05</totfact>
</mgrwt>
</event>
<event>
 4    1  0.2196664E-002  0.4033597E+02  0.7818608E-02  0.1505754E+00
          2   -1    0    0    0  501  0.00000000000E+00  0.00000000000E+00  0.13466269747E+01  0.13466293891E+01  0.25500000000E-02 0. -1.
         -2   -1    0    0  501    0 -0.00000000000E+00 -0.00000000000E+00 -0.30204900972E+03  0.30204900973E+03  0.25500000000E-02 0. -1.
          2    1    1    2    0  502  0.19503137664E+02 -0.51199252344E+01 -0.14732663548E+03  0.14870011279E+03  0.25500000000E-02 0. -1.
         -2    1    1    2  502    0 -0.19503137664E+02  0.51199252344E+01 -0.15337574726E+03  0.15469552633E+03  0.25500000000E-02 0. -1.
<mgrwt>
<rscale>  0 0.40335975E+02</rscale>
<asrwt>0</asrwt>
<pdfrwt beam="1">  1        2 0.20717381E-03 0.40335975E+02</pdfrwt>
<pdfrwt beam="2">  1       -2 0.46469025E-01 0.40335975E+02</pdfrwt>
<totfact> 0.38994255E+05</totfact>
</mgrwt>
</event>
<event>
 4    1  0.2196664E-002  0.4292562E+02  0.7818608E-02  0.1487723E+00
         -2   -1    0    0  501    0 -0.00000000000E+00  0.00000000000E+00  0.67958104668E+01  0.67958109452E+01  0.25500000000E-02 0.  1.
          2   -1    0    0    0  501  0.00000000000E+00 -0.00000000000E+00 -0.67784718638E+02  0.67784718686E+02  0.25500000000E-02 0.  1.
          2    1    1    2    0  502 -0.61267591252E+01 -0.20237069308E+02 -0.36896138145E+02  0.42525300329E+02  0.25500000000E-02 0.  1.
         -2    1    1    2  502    0  0.61267591252E+01  0.20237069308E+02 -0.24092770027E+02  0.32055229303E+02  0.25500000000E-02 0.  1.
<mgrwt>
<rscale>  0 0.42925616E+02</rscale>
<asrwt>0</asrwt>
<pdfrwt beam="2">  1        2 0.10428418E-01 0.42925616E+02</pdfrwt>
<pdfrwt beam="1">  1       -2 0.10455094E-02 0.42925616E+02</pdfrwt>
<totfact> 0.80236899E+05</totfact>
</mgrwt>
</event>
<event>
 4    1  0.2196664E-002  0.4720371E+02  0.7818608E-02  0.1461035E+00
         -2   -1    0    0  501    0 -0.00000000000E+00  0.00000000000E+00  0.36169681561E+02  0.36169681651E+02  0.25500000000E-02 0.  1.
          2   -1    0    0    0  501  0.00000000000E+00 -0.00000000000E+00 -0.15400951958E+02  0.15400952169E+02  0.25500000000E-02 0.  1.
          2    1    1    2    0  502 -0.32862546114E+01  0.23197265781E+02  0.72683250093E+01  0.24530413042E+02  0.25500000000E-02 0.  1.
         -2    1    1    2  502    0  0.32862546114E+01 -0.23197265781E+02  0.13500404594E+02  0.27040220779E+02  0.25500000000E-02 0.  1.
<mgrwt>
<rscale>  0 0.47203709E+02</rscale>
<asrwt>0</asrwt>
<pdfrwt beam="2">  1        2 0.23693773E-02 0.47203709E+02</pdfrwt>
<pdfrwt beam="1">  1       -2 0.55645664E-02 0.47203709E+02</pdfrwt>
<totfact> 0.49305601E+05</totfact>
</mgrwt>
</event>
<event>
 4    1  0.2196664E-002  0.4704935E+02  0.7818608E-02  0.1461939E+00
         -2   -1    0    0  501    0 -0.00000000000E+00  0.00000000000E+00  0.57349252052E+00  0.57349818971E+00  0.25500000000E-02 0.  1.
          2   -1    0    0    0  501  0.00000000000E+00 -0.00000000000E+00 -0.96497807107E+03  0.96497807107E+03  0.25500000000E-02 0.  1.
          2    1    1    2    0  502  0.22528887320E+02  0.94946283786E+00 -0.34459981769E+03  0.34533677274E+03  0.25500000000E-02 0.  1.
         -2    1    1    2  502    0 -0.22528887320E+02 -0.94946283786E+00 -0.61980476086E+03  0.62021479653E+03  0.25500000000E-02 0.  1.
<mgrwt>
<rscale>  0 0.47049355E+02</rscale>
<asrwt>0</asrwt>
<pdfrwt beam="2">  1        2 0.14845687E+00 0.47049355E+02</pdfrwt>
<pdfrwt beam="1">  1       -2 0.88230827E-04 0.47049355E+02</pdfrwt>
<totfact> 0.13419417E+06</totfact>
</mgrwt>
</event>
<event>
 4    1  0.2196664E-002  0.8990126E+02  0.7818608E-02  0.1303091E+00
         -2   -1    0    0  501    0 -0.00000000000E+00  0.00000000000E+00  0.35014496307E+01  0.35014505593E+01  0.25500000000E-02 0.  1.
          2   -1    0    0    0  501  0.00000000000E+00 -0.00000000000E+00 -0.57706351974E+03  0.57706351974E+03  0.25500000000E-02 0.  1.
          2    1    1    2    0  502  0.26861685618E+02  0.28041371356E+02 -0.14055905323E+03  0.14582426448E+03  0.25500000000E-02 0. -1.
         -2    1    1    2  502    0 -0.26861685618E+02 -0.28041371356E+02 -0.43300301688E+03  0.43474070582E+03  0.25500000000E-02 0. -1.
<mgrwt>
<rscale>  0 0.89901260E+02</rscale>
<asrwt>0</asrwt>
<pdfrwt beam="2">  1        2 0.88778928E-01 0.89901260E+02</pdfrwt>
<pdfrwt beam="1">  1       -2 0.53868509E-03 0.89901260E+02</pdfrwt>
<totfact> 0.23383619E+05</totfact>
</mgrwt>
</event>
<event>
 4    1  0.2196664E-002  0.4955069E+02  0.7818608E-02  0.1447780E+00
         -2   -1    0    0  501    0 -0.00000000000E+00  0.00000000000E+00  0.34581713201E+01  0.34581722602E+01  0.25500000000E-02 0. -1.
          2   -1    0    0    0  501  0.00000000000E+00 -0.00000000000E+00 -0.17749778452E+03  0.17749778454E+03  0.25500000000E-02 0. -1.
          2    1    1    2    0  502  0.47971501109E+01  0.24096677865E+02 -0.98657566767E+02  0.10167093006E+03  0.25500000000E-02 0.  1.
         -2    1    1    2  502    0 -0.47971501109E+01 -0.24096677865E+02 -0.75382046437E+02  0.79285026738E+02  0.25500000000E-02 0.  1.
<mgrwt>
<rscale>  0 0.49550695E+02</rscale>
<asrwt>0</asrwt>
<pdfrwt beam="2">  1        2 0.27307344E-01 0.49550695E+02</pdfrwt>
<pdfrwt beam="1">  1       -2 0.53202657E-03 0.49550695E+02</pdfrwt>
<totfact> 0.72415438E+05</totfact>
</mgrwt>
</event>
<event>
 4    1  0.2196664E-002  0.6872329E+02  0.7818608E-02  0.1364489E+00
          2   -1    0    0    0  501  0.00000000000E+00  0.00000000000E+00  0.13485574031E+04  0.13485574031E+04  0.25500000000E-02 0.  1.
         -2   -1    0    0  501    0 -0.00000000000E+00 -0.00000000000E+00 -0.87554298247E+00  0.87554669587E+00  0.25500000000E-02 0.  1.
          2    1    1    2    0  502 -0.92197659042E+01 -0.29669767925E+02  0.96204074350E+03  0.96254230627E+03  0.25500000000E-02 0. -1.
         -2    1    1    2  502    0  0.92197659042E+01  0.29669767925E+02  0.38564111665E+03  0.38689064355E+03  0.25500000000E-02 0. -1.
<mgrwt>
<rscale>  0 0.68723285E+02</rscale>
<asrwt>0</asrwt>
<pdfrwt beam="1">  1        2 0.20746864E+00 0.68723285E+02</pdfrwt>
<pdfrwt beam="2">  1       -2 0.13470033E-03 0.68723285E+02</pdfrwt>
<totfact> 0.50789053E+05</totfact>
</mgrwt>
</event>
<event>
 4    1  0.2196664E-002  0.8401350E+02  0.7818608E-02  0.1318033E+00
          2   -1    0    0    0  501  0.00000000000E+00  0.00000000000E+00  0.31297648169E+03  0.31297648171E+03  0.25500000000E-02 0.  1.
         -2   -1    0    0  501    0 -0.00000000000E+00 -0.00000000000E+00 -0.56380181877E+01  0.56380187644E+01  0.25500000000E-02 0.  1.
          2    1    1    2    0  502 -0.17995700646E+02 -0.30211894082E+02  0.66529072557E+02  0.75251055060E+02  0.25500000000E-02 0.  1.
         -2    1    1    2  502    0  0.17995700646E+02  0.30211894082E+02  0.24080939095E+03  0.24336344541E+03  0.25500000000E-02 0.  1.
<mgrwt>
<rscale>  0 0.84013503E+02</rscale>
<asrwt>0</asrwt>
<pdfrwt beam="1">  1        2 0.48150247E-01 0.84013503E+02</pdfrwt>
<pdfrwt beam="2">  1       -2 0.86738712E-03 0.84013503E+02</pdfrwt>
<totfact> 0.22675613E+05</totfact>
</mgrwt>
</event>
<event>
 4    1  0.2196664E-002  0.4688117E+02  0.7818608E-02  0.1462928E+00
         -2   -1    0    0  501    0 -0.00000000000E+00  0.00000000000E+00  0.71647132089E+00  0.71647585874E+00  0.25500000000E-02 0. -1.
          2   -1    0    0    0  501  0.00000000000E+00 -0.00000000000E+00 -0.76689629177E+03  0.76689629177E+03  0.25500000000E-02 0. -1.
          2    1    1    2    0  502 -0.50585765410E+01 -0.22244914365E+02 -0.47131835345E+03  0.47187012590E+03  0.25500000000E-02 0. -1.
         -2    1    1    2  502    0  0.50585765410E+01  0.22244914365E+02 -0.29486146699E+03  0.29574264173E+03  0.25500000000E-02 0. -1.
<mgrwt>
<rscale>  0 0.46881166E+02</rscale>
<asrwt>0</asrwt>
<pdfrwt beam="2">  1        2 0.11798339E+00 0.46881166E+02</pdfrwt>
<pdfrwt beam="1">  1       -2 0.11022732E-03 0.46881166E+02</pdfrwt>
<totfact> 0.13135607E+06</totfact>
</mgrwt>
</event>
<event>
 4    1  0.2196664E-002  0.6892583E+02  0.7818608E-02  0.1363784E+00
          2   -1    0    0    0  501  0.00000000000E+00  0.00000000000E+00  0.47431537178E+02  0.47431537247E+02  0.25500000000E-02 0.  1.
         -2   -1    0    0  501    0 -0.00000000000E+00 -0.00000000000E+00 -0.25040146433E+02  0.25040146563E+02  0.25500000000E-02 0.  1.
          2    1    1    2    0  502  0.32823164683E+01  0.31794318789E+02  0.24744254621E+02  0.40421905595E+02  0.25500000000E-02 0. -1.
         -2    1    1    2  502    0 -0.32823164683E+01 -0.31794318789E+02 -0.23528638757E+01  0.32049778214E+02  0.25500000000E-02 0. -1.
<mgrwt>
<rscale>  0 0.68925834E+02</rscale>
<asrwt>0</asrwt>
<pdfrwt beam="1">  1        2 0.72971596E-02 0.68925834E+02</pdfrwt>
<pdfrwt beam="2">  1       -2 0.38523303E-02 0.68925834E+02</pdfrwt>
<totfact> 0.21732349E+05</totfact>
</mgrwt>
</event>
<event>
 4    1  0.2196664E-002  0.5542421E+02  0.7818608E-02  0.1418103E+00
          2   -1    0    0    0  501  0.00000000000E+00  0.00000000000E+00  0.22511804477E+04  0.22511804477E+04  0.25500000000E-02 0. -1.
         -2   -1    0    0  501    0 -0.00000000000E+00 -0.00000000000E+00 -0.34113216078E+00  0.34114169141E+00  0.25500000000E-02 0. -1.
          2    1    1    2    0  502 -0.12581483718E+02 -0.24690901648E+02  0.11320224376E+04  0.11323615737E+04  0.25500000000E-02 0. -1.
         -2    1    1    2  502    0  0.12581483718E+02  0.24690901648E+02  0.11188168779E+04  0.11191600157E+04  0.25500000000E-02 0. -1.
<mgrwt>
<rscale>  0 0.55424211E+02</rscale>
<asrwt>0</asrwt>
<pdfrwt beam="1">  1        2 0.34633451E+00 0.55424211E+02</pdfrwt>
<pdfrwt beam="2">  1       -2 0.52482747E-04 0.55424211E+02</pdfrwt>
<totfact> 0.62703336E+05</totfact>
</mgrwt>
</event>
<event>
 4    1  0.2196664E-002  0.1002368E+03  0.7818608E-02  0.1279799E+00
          2   -1    0    0    0  501  0.00000000000E+00  0.00000000000E+00  0.24369160884E+04  0.24369160884E+04  0.25500000000E-02 0. -1.
         -2   -1    0    0  501    0 -0.00000000000E+00 -0.00000000000E+00 -0.10307498843E+01  0.10307530385E+01  0.25500000000E-02 0. -1.
          2    1    1    2    0  502 -0.21860008173E+02 -0.32927604064E+02  0.46838391998E+03  0.47004849065E+03  0.25500000000E-02 0.  1.
         -2    1    1    2  502    0  0.21860008173E+02  0.32927604064E+02  0.19675014185E+04  0.19678983508E+04  0.25500000000E-02 0.  1.
<mgrwt>
<rscale>  0 0.10023682E+03</rscale>
<asrwt>0</asrwt>
<pdfrwt beam="1">  1        2 0.37490724E+00 0.10023682E+03</pdfrwt>
<pdfrwt beam="2">  1       -2 0.15857839E-03 0.10023682E+03</pdfrwt>
<totfact> 0.12021997E+05</totfact>
</mgrwt>
</event>
<event>
 4    1  0.2196664E-002  0.4936227E+02  0.7818608E-02  0.1448812E+00
          2   -1    0    0    0  501  0.00000000000E+00  0.00000000000E+00  0.99592004459E+02  0.99592004492E+02  0.25500000000E-02 0. -1.
         -2   -1    0    0  501    0 -0.00000000000E+00 -0.00000000000E+00 -0.61165394160E+01  0.61165399475E+01  0.25500000000E-02 0. -1.
          2    1    1    2    0  502 -0.10593762073E+02 -0.21559070248E+02  0.34597735842E+02  0.42119171843E+02  0.25500000000E-02 0.  1.
         -2    1    1    2  502    0  0.10593762073E+02  0.21559070248E+02  0.58877729201E+02  0.63589372596E+02  0.25500000000E-02 0.  1.
<mgrwt>
<rscale>  0 0.49362271E+02</rscale>
<asrwt>0</asrwt>
<pdfrwt beam="1">  1        2 0.15321848E-01 0.49362271E+02</pdfrwt>
<pdfrwt beam="2">  1       -2 0.94100607E-03 0.49362271E+02</pdfrwt>
<totfact> 0.61784474E+05</totfact>
</mgrwt>
</event>
<event>
 4    1  0.2196664E-002  0.4768822E+02  0.7818608E-02  0.1458225E+00
         -2   -1    0    0  501    0 -0.00000000000E+00  0.00000000000E+00  0.89954207909E+00  0.89954569342E+00  0.25500000000E-02 0. -1.
          2   -1    0    0    0  501  0.00000000000E+00 -0.00000000000E+00 -0.63203317303E+03  0.63203317303E+03  0.25500000000E-02 0. -1.
          2    1    1    2    0  502 -0.34765566608E+01  0.23457692293E+02 -0.28254089896E+03  0.28353431779E+03  0.25500000000E-02 0.  1.
         -2    1    1    2  502    0  0.34765566608E+01 -0.23457692293E+02 -0.34859273199E+03  0.34939840094E+03  0.25500000000E-02 0.  1.
<mgrwt>
<rscale>  0 0.47688220E+02</rscale>
<asrwt>0</asrwt>
<pdfrwt beam="2">  1        2 0.97235518E-01 0.47688220E+02</pdfrwt>
<pdfrwt beam="1">  1       -2 0.13839187E-03 0.47688220E+02</pdfrwt>
<totfact> 0.12065155E+06</totfact>
</mgrwt>
</event>
<event>
 4    1  0.2196664E-002  0.9263525E+02  0.7818608E-02  0.1296593E+00
          2   -1    0    0    0  501  0.00000000000E+00  0.00000000000E+00  0.21427425024E+03  0.21427425025E+03  0.25500000000E-02 0.  1.
         -2   -1    0    0  501    0 -0.00000000000E+00 -0.00000000000E+00 -0.10012040036E+02  0.10012040361E+02  0.25500000000E-02 0.  1.
          2    1    1    2    0  502 -0.60569955211E+01  0.22445066235E+02  0.19912496465E+03  0.20047747940E+03  0.25500000000E-02 0.  1.
         -2    1    1    2  502    0  0.60569955211E+01 -0.22445066235E+02  0.51372455508E+01  0.23808811213E+02  0.25500000000E-02 0.  1.
<mgrwt>
<rscale>  0 0.92635251E+02</rscale>
<asrwt>0</asrwt>
<pdfrwt beam="1">  1        2 0.32965271E-01 0.92635251E+02</pdfrwt>
<pdfrwt beam="2">  1       -2 0.15403138E-02 0.92635251E+02</pdfrwt>
<totfact> 0.15197013E+05</totfact>
</mgrwt>
</event>
<event>
 4    1  0.2196664E-002  0.5780279E+02  0.7818608E-02  0.1407291E+00
         -2   -1    0    0  501    0 -0.00000000000E+00  0.00000000000E+00  0.71868074535E+00  0.71868526925E+00  0.25500000000E-02 0.  1.
          2   -1    0    0    0  501  0.00000000000E+00 -0.00000000000E+00 -0.11622516411E+04  0.11622516411E+04  0.25500000000E-02 0.  1.
          2    1    1    2    0  502 -0.28736717666E+02  0.20866036646E+01 -0.62637036981E+03  0.62703268897E+03  0.25500000000E-02 0. -1.
         -2    1    1    2  502    0  0.28736717666E+02 -0.20866036646E+01 -0.53516259058E+03  0.53593763744E+03  0.25500000000E-02 0. -1.
<mgrwt>
<rscale>  0 0.57802786E+02</rscale>
<asrwt>0</asrwt>
<pdfrwt beam="2">  1        2 0.17880644E+00 0.57802786E+02</pdfrwt>
<pdfrwt beam="1">  1       -2 0.11056755E-03 0.57802786E+02</pdfrwt>
<totfact> 0.80537959E+05</totfact>
</mgrwt>
</event>
<event>
 4    1  0.2196664E-002  0.4304753E+02  0.7818608E-02  0.1486912E+00
          2   -1    0    0    0  501  0.00000000000E+00  0.00000000000E+00  0.56751552497E+02  0.56751552554E+02  0.25500000000E-02 0.  1.
         -2   -1    0    0  501    0 -0.00000000000E+00 -0.00000000000E+00 -0.81631684983E+01  0.81631688966E+01  0.25500000000E-02 0.  1.
          2    1    1    2    0  502 -0.40524601559E+01 -0.19906772206E+02  0.13570520954E+02  0.24430740030E+02  0.25500000000E-02 0. -1.
         -2    1    1    2  502    0  0.40524601559E+01  0.19906772206E+02  0.35017863044E+02  0.40483981420E+02  0.25500000000E-02 0. -1.
<mgrwt>
<rscale>  0 0.43047532E+02</rscale>
<asrwt>0</asrwt>
<pdfrwt beam="1">  1        2 0.87310083E-02 0.43047532E+02</pdfrwt>
<pdfrwt beam="2">  1       -2 0.12558721E-02 0.43047532E+02</pdfrwt>
<totfact> 0.76881306E+05</totfact>
</mgrwt>
</event>
<event>
 4    1  0.2196664E-002  0.7036741E+02  0.7818608E-02  0.1358848E+00
          2   -1    0    0    0  501  0.00000000000E+00  0.00000000000E+00  0.55285198511E+02  0.55285198570E+02  0.25500000000E-02 0. -1.
         -2   -1    0    0  501    0 -0.00000000000E+00 -0.00000000000E+00 -0.22391041096E+02  0.22391041241E+02  0.25500000000E-02 0. -1.
          2    1    1    2    0  502  0.34356432281E+02 -0.12600591296E+01  0.81908522924E+01  0.35341791916E+02  0.25500000000E-02 0. -1.
         -2    1    1    2  502    0 -0.34356432281E+02  0.12600591296E+01  0.24703305123E+02  0.42334447895E+02  0.25500000000E-02 0. -1.
<mgrwt>
<rscale>  0 0.70367412E+02</rscale>
<asrwt>0</asrwt>
<pdfrwt beam="1">  1        2 0.85054151E-02 0.70367412E+02</pdfrwt>
<pdfrwt beam="2">  1       -2 0.34447756E-02 0.70367412E+02</pdfrwt>
<totfact> 0.21259331E+05</totfact>
</mgrwt>
</event>
<event>
 4    1  0.2196664E-002  0.4735387E+02  0.7818608E-02  0.1460160E+00
         -2   -1    0    0  501    0 -0.00000000000E+00  0.00000000000E+00  0.25707725603E+01  0.25707738250E+01  0.25500000000E-02 0. -1.
          2   -1    0    0    0  501  0.00000000000E+00 -0.00000000000E+00 -0.21806561437E+03  0.21806561438E+03  0.25500000000E-02 0. -1.
          2    1    1    2    0  502 -0.23038535278E+02  0.54320434034E+01 -0.11036672071E+03  0.11287645570E+03  0.25500000000E-02 0. -1.
         -2    1    1    2  502    0  0.23038535278E+02 -0.54320434034E+01 -0.10512812110E+03  0.10775993251E+03  0.25500000000E-02 0. -1.
<mgrwt>
<rscale>  0 0.47353869E+02</rscale>
<asrwt>0</asrwt>
<pdfrwt beam="2">  1        2 0.33548542E-01 0.47353869E+02</pdfrwt>
<pdfrwt beam="1">  1       -2 0.39550374E-03 0.47353869E+02</pdfrwt>
<totfact> 0.86775468E+05</totfact>
</mgrwt>
</event>
<event>
 4    1  0.2196664E-002  0.9404845E+02  0.7818608E-02  0.1293334E+00
         -2   -1    0    0  501    0 -0.00000000000E+00  0.00000000000E+00  0.60231771446E+02  0.60231771500E+02  0.25500000000E-02 0.  1.
          2   -1    0    0    0  501  0.00000000000E+00 -0.00000000000E+00 -0.36712815076E+02  0.36712815164E+02  0.25500000000E-02 0.  1.
          2    1    1    2    0  502 -0.45681953475E+02  0.37874291664E+01  0.22575076856E+02  0.51096179843E+02  0.25500000000E-02 0. -1.
         -2    1    1    2  502    0  0.45681953475E+02 -0.37874291664E+01  0.94387951453E+00  0.45848406821E+02  0.25500000000E-02 0. -1.
<mgrwt>
<rscale>  0 0.94048453E+02</rscale>
<asrwt>0</asrwt>
<pdfrwt beam="2">  1        2 0.56481254E-02 0.94048453E+02</pdfrwt>
<pdfrwt beam="1">  1       -2 0.92664263E-02 0.94048453E+02</pdfrwt>
<totfact> 0.85190507E+04</totfact>
</mgrwt>
</event>
<event>
 4    1  0.2196664E-002  0.4919454E+02  0.7818608E-02  0.1449735E+00
          2   -1    0    0    0  501  0.00000000000E+00  0.00000000000E+00  0.11535214264E+03  0.11535214267E+03  0.25500000000E-02 0. -1.
         -2   -1    0    0  501    0 -0.00000000000E+00 -0.00000000000E+00 -0.52450321094E+01  0.52450327293E+01  0.25500000000E-02 0. -1.
          2    1    1    2    0  502 -0.21065602489E+02  0.49505112139E+01  0.26385550396E+02  0.34124250112E+02  0.25500000000E-02 0. -1.
         -2    1    1    2  502    0  0.21065602489E+02 -0.49505112139E+01  0.83721560137E+02  0.86472925288E+02  0.25500000000E-02 0. -1.
<mgrwt>
<rscale>  0 0.49194542E+02</rscale>
<asrwt>0</asrwt>
<pdfrwt beam="1">  1        2 0.17746484E-01 0.49194542E+02</pdfrwt>
<pdfrwt beam="2">  1       -2 0.80692804E-03 0.49194542E+02</pdfrwt>
<totfact> 0.64812590E+05</totfact>
</mgrwt>
</event>
<event>
 4    1  0.2196664E-002  0.4810626E+02  0.7818608E-02  0.1455832E+00
          2   -1    0    0    0  501  0.00000000000E+00  0.00000000000E+00  0.51814956998E+02  0.51814957061E+02  0.25500000000E-02 0.  1.
         -2   -1    0    0  501    0 -0.00000000000E+00 -0.00000000000E+00 -0.11165753747E+02  0.11165754038E+02  0.25500000000E-02 0.  1.
          2    1    1    2    0  502  0.19271047217E+02  0.12061311658E+02  0.30608661087E+02  0.38127924672E+02  0.25500000000E-02 0. -1.
         -2    1    1    2  502    0 -0.19271047217E+02 -0.12061311658E+02  0.10040542164E+02  0.24852786427E+02  0.25500000000E-02 0. -1.
<mgrwt>
<rscale>  0 0.48106260E+02</rscale>
<asrwt>0</asrwt>
<pdfrwt beam="1">  1        2 0.79715317E-02 0.48106260E+02</pdfrwt>
<pdfrwt beam="2">  1       -2 0.17178083E-02 0.48106260E+02</pdfrwt>
<totfact> 0.57021026E+05</totfact>
</mgrwt>
</event>
<event>
 4    1  0.2196664E-002  0.5159227E+02  0.7818608E-02  0.1436938E+00
         -2   -1    0    0  501    0 -0.00000000000E+00  0.00000000000E+00  0.10371460100E+01  0.10371491448E+01  0.25500000000E-02 0. -1.
          2   -1    0    0    0  501  0.00000000000E+00 -0.00000000000E+00 -0.64160634307E+03  0.64160634308E+03  0.25500000000E-02 0. -1.
          2    1    1    2    0  502 -0.12345989702E+02  0.20375693918E+02 -0.44349906633E+03  0.44413850791E+03  0.25500000000E-02 0.  1.
         -2    1    1    2  502    0  0.12345989702E+02 -0.20375693918E+02 -0.19707013073E+03  0.19850498431E+03  0.25500000000E-02 0.  1.
<mgrwt>
<rscale>  0 0.51592266E+02</rscale>
<asrwt>0</asrwt>
<pdfrwt beam="2">  1        2 0.98708351E-01 0.51592266E+02</pdfrwt>
<pdfrwt beam="1">  1       -2 0.15956168E-03 0.51592266E+02</pdfrwt>
<totfact> 0.99739610E+05</totfact>
</mgrwt>
</event>
<event>
 4    1  0.2196664E-002  0.5068711E+02  0.7818608E-02  0.1441670E+00
         -2   -1    0    0  501    0 -0.00000000000E+00  0.00000000000E+00  0.11319351539E+01  0.11319380262E+01  0.25500000000E-02 0.  1.
          2   -1    0    0    0  501  0.00000000000E+00 -0.00000000000E+00 -0.56743092018E+03  0.56743092019E+03  0.25500000000E-02 0.  1.
          2    1    1    2    0  502  0.12329315719E+02 -0.20085717734E+02 -0.17861486210E+03  0.18016302909E+03  0.25500000000E-02 0. -1.
         -2    1    1    2  502    0 -0.12329315719E+02  0.20085717734E+02 -0.38768412293E+03  0.38839982912E+03  0.25500000000E-02 0. -1.
<mgrwt>
<rscale>  0 0.50687112E+02</rscale>
<asrwt>0</asrwt>
<pdfrwt beam="2">  1        2 0.87296838E-01 0.50687112E+02</pdfrwt>
<pdfrwt beam="1">  1       -2 0.17414454E-03 0.50687112E+02</pdfrwt>
<totfact> 0.10082375E+06</totfact>
</mgrwt>
</event>
<event>
 4    1  0.2196664E-002  0.4867605E+02  0.7818608E-02  0.1452616E+00
         -2   -1    0    0  501    0 -0.00000000000E+00  0.00000000000E+00  0.28073111908E+00  0.28074270020E+00  0.25500000000E-02 0.  1.
          2   -1    0    0    0  501  0.00000000000E+00 -0.00000000000E+00 -0.21099454288E+04  0.21099454288E+04  0.25500000000E-02 0.  1.
          2    1    1    2    0  502 -0.32738127477E+01  0.21608614291E+02 -0.59055717812E+03  0.59096144603E+03  0.25500000000E-02 0.  1.
         -2    1    1    2  502    0  0.32738127477E+01 -0.21608614291E+02 -0.15191075196E+04  0.15192647255E+04  0.25500000000E-02 0.  1.
<mgrwt>
<rscale>  0 0.48676054E+02</rscale>
<asrwt>0</asrwt>
<pdfrwt beam="2">  1        2 0.32459429E+00 0.48676054E+02</pdfrwt>
<pdfrwt beam="1">  1       -2 0.43191983E-04 0.48676054E+02</pdfrwt>
<totfact> 0.93474678E+05</totfact>
</mgrwt>
</event>
<event>
 4    1  0.2196664E-002  0.7764939E+02  0.7818608E-02  0.1335858E+00
         -2   -1    0    0  501    0 -0.00000000000E+00  0.00000000000E+00  0.11664579264E+02  0.11664579543E+02  0.25500000000E-02 0.  1.
          2   -1    0    0    0  501  0.00000000000E+00 -0.00000000000E+00 -0.12922515478E+03  0.12922515480E+03  0.25500000000E-02 0.  1.
          2    1    1    2    0  502 -0.27282337865E+02  0.20282181739E+02 -0.92805854955E+02  0.98836327207E+02  0.25500000000E-02 0.  1.
         -2    1    1    2  502    0  0.27282337865E+02 -0.20282181739E+02 -0.24754720560E+02  0.42053407138E+02  0.25500000000E-02 0.  1.
<mgrwt>
<rscale>  0 0.77649394E+02</rscale>
<asrwt>0</asrwt>
<pdfrwt beam="2">  1        2 0.19880792E-01 0.77649394E+02</pdfrwt>
<pdfrwt beam="1">  1       -2 0.17945508E-02 0.77649394E+02</pdfrwt>
<totfact> 0.20512559E+05</totfact>
</mgrwt>
</event>
<event>
 4    1  0.2196664E-002  0.1261658E+03  0.7818608E-02  0.1233259E+00
         -2   -1    0    0  501    0 -0.00000000000E+00  0.00000000000E+00  0.39122273720E+02  0.39122273803E+02  0.25500000000E-02 0. -1.
          2   -1    0    0    0  501  0.00000000000E+00 -0.00000000000E+00 -0.10171828826E+03  0.10171828829E+03  0.25500000000E-02 0. -1.
          2    1    1    2    0  502  0.31284821052E+02  0.22551912164E+02  0.24429656038E+02  0.45652347926E+02  0.25500000000E-02 0. -1.
         -2    1    1    2  502    0 -0.31284821052E+02 -0.22551912164E+02 -0.87025670580E+02  0.95188214170E+02  0.25500000000E-02 0. -1.
<mgrwt>
<rscale>  0 0.12616578E+03</rscale>
<asrwt>0</asrwt>
<pdfrwt beam="2">  1        2 0.15648967E-01 0.12616578E+03</pdfrwt>
<pdfrwt beam="1">  1       -2 0.60188114E-02 0.12616578E+03</pdfrwt>
<totfact> 0.49275359E+04</totfact>
</mgrwt>
</event>
<event>
 4    1  0.2196664E-002  0.4455858E+02  0.7818608E-02  0.1477116E+00
          2   -1    0    0    0  501  0.00000000000E+00  0.00000000000E+00  0.21323648623E+01  0.21323663870E+01  0.25500000000E-02 0.  1.
         -2   -1    0    0  501    0 -0.00000000000E+00 -0.00000000000E+00 -0.23277751027E+03  0.23277751029E+03  0.25500000000E-02 0.  1.
          2    1    1    2    0  502 -0.20209091266E+02 -0.77891395114E+01 -0.14286240603E+03  0.14449479273E+03  0.25500000000E-02 0.  1.
         -2    1    1    2  502    0  0.20209091266E+02  0.77891395114E+01 -0.87782739378E+02  0.90415083937E+02  0.25500000000E-02 0.  1.
<mgrwt>
<rscale>  0 0.44558580E+02</rscale>
<asrwt>0</asrwt>
<pdfrwt beam="1">  1        2 0.32805644E-03 0.44558580E+02</pdfrwt>
<pdfrwt beam="2">  1       -2 0.35811905E-01 0.44558580E+02</pdfrwt>
<totfact> 0.34977000E+05</totfact>
</mgrwt>
</event>
<event>
 4    1  0.2196664E-002  0.5133082E+02  0.7818608E-02  0.1438293E+00
         -2   -1    0    0  501    0 -0.00000000000E+00  0.00000000000E+00  0.10746449290E+03  0.10746449293E+03  0.25500000000E-02 0.  1.
          2   -1    0    0    0  501  0.00000000000E+00 -0.00000000000E+00 -0.61295906601E+01  0.61295911905E+01  0.25500000000E-02 0.  1.
          2    1    1    2    0  502 -0.18986704926E+02 -0.14443197456E+02  0.71616372941E+02  0.75485136262E+02  0.25500000000E-02 0.  1.
         -2    1    1    2  502    0  0.18986704926E+02  0.14443197456E+02  0.29718529295E+02  0.38108947855E+02  0.25500000000E-02 0.  1.
<mgrwt>
<rscale>  0 0.51330824E+02</rscale>
<asrwt>0</asrwt>
<pdfrwt beam="2">  1        2 0.94301398E-03 0.51330824E+02</pdfrwt>
<pdfrwt beam="1">  1       -2 0.16532999E-01 0.51330824E+02</pdfrwt>
<totfact> 0.32493833E+05</totfact>
</mgrwt>
</event>
<event>
 4    1  0.2196664E-002  0.4470558E+02  0.7818608E-02  0.1476188E+00
         -2   -1    0    0  501    0 -0.00000000000E+00  0.00000000000E+00  0.48943428642E+01  0.48943435285E+01  0.25500000000E-02 0.  1.
          2   -1    0    0    0  501  0.00000000000E+00 -0.00000000000E+00 -0.10208666986E+03  0.10208666989E+03  0.25500000000E-02 0.  1.
          2    1    1    2    0  502  0.53280750561E+01 -0.21268984638E+02 -0.58996578193E+02  0.62939290879E+02  0.25500000000E-02 0.  1.
         -2    1    1    2  502    0 -0.53280750561E+01  0.21268984638E+02 -0.38195748804E+02  0.44041722543E+02  0.25500000000E-02 0.  1.
<mgrwt>
<rscale>  0 0.44705579E+02</rscale>
<asrwt>0</asrwt>
<pdfrwt beam="2">  1        2 0.15705640E-01 0.44705579E+02</pdfrwt>
<pdfrwt beam="1">  1       -2 0.75297595E-03 0.44705579E+02</pdfrwt>
<totfact> 0.79750247E+05</totfact>
</mgrwt>
</event>
<event>
 4    1  0.2196664E-002  0.4710733E+02  0.7818608E-02  0.1461599E+00
          2   -1    0    0    0  501  0.00000000000E+00  0.00000000000E+00  0.49570226134E+01  0.49570232693E+01  0.25500000000E-02 0.  1.
         -2   -1    0    0  501    0 -0.00000000000E+00 -0.00000000000E+00 -0.11191700460E+03  0.11191700463E+03  0.25500000000E-02 0.  1.
          2    1    1    2    0  502  0.21407716704E+02  0.97540705734E+01 -0.56355111327E+02  0.61068247121E+02  0.25500000000E-02 0. -1.
         -2    1    1    2  502    0 -0.21407716704E+02 -0.97540705734E+01 -0.50604870664E+02  0.55805780782E+02  0.25500000000E-02 0. -1.
<mgrwt>
<rscale>  0 0.47107331E+02</rscale>
<asrwt>0</asrwt>
<pdfrwt beam="1">  1        2 0.76261900E-03 0.47107331E+02</pdfrwt>
<pdfrwt beam="2">  1       -2 0.17217999E-01 0.47107331E+02</pdfrwt>
<totfact> 0.39629119E+05</totfact>
</mgrwt>
</event>
<event>
 4    1  0.2196664E-002  0.5582330E+02  0.7818608E-02  0.1416245E+00
         -2   -1    0    0  501    0 -0.00000000000E+00  0.00000000000E+00  0.26310109964E+02  0.26310110088E+02  0.25500000000E-02 0. -1.
          2   -1    0    0    0  501  0.00000000000E+00 -0.00000000000E+00 -0.29610682929E+02  0.29610683039E+02  0.25500000000E-02 0. -1.
          2    1    1    2    0  502  0.27725274860E+02  0.30566833092E+01 -0.63552921526E+00  0.27900503271E+02  0.25500000000E-02 0. -1.
         -2    1    1    2  502    0 -0.27725274860E+02 -0.30566833092E+01 -0.26650437499E+01  0.28020289856E+02  0.25500000000E-02 0. -1.
<mgrwt>
<rscale>  0 0.55823304E+02</rscale>
<asrwt>0</asrwt>
<pdfrwt beam="2">  1        2 0.45554897E-02 0.55823304E+02</pdfrwt>
<pdfrwt beam="1">  1       -2 0.40477092E-02 0.55823304E+02</pdfrwt>
<totfact> 0.35000671E+05</totfact>
</mgrwt>
</event>
<event>
 4    1  0.2196664E-002  0.4982931E+02  0.7818608E-02  0.1446264E+00
          2   -1    0    0    0  501  0.00000000000E+00  0.00000000000E+00  0.21518115284E+04  0.21518115284E+04  0.25500000000E-02 0. -1.
         -2   -1    0    0  501    0 -0.00000000000E+00 -0.00000000000E+00 -0.28846765539E+00  0.28847892593E+00  0.25500000000E-02 0. -1.
          2    1    1    2    0  502  0.11781846257E+02  0.21662441731E+02  0.92204799008E+03  0.92237767173E+03  0.25500000000E-02 0. -1.
         -2    1    1    2  502    0 -0.11781846257E+02 -0.21662441731E+02  0.12294750706E+04  0.12297223356E+04  0.25500000000E-02 0. -1.
<mgrwt>
<rscale>  0 0.49829315E+02</rscale>
<asrwt>0</asrwt>
<pdfrwt beam="1">  1        2 0.33104510E+00 0.49829315E+02</pdfrwt>
<pdfrwt beam="2">  1       -2 0.44380886E-04 0.49829315E+02</pdfrwt>
<totfact> 0.86338801E+05</totfact>
</mgrwt>
</event>
<event>
 4    1  0.2196664E-002  0.7711029E+02  0.7818608E-02  0.1337458E+00
         -2   -1    0    0  501    0 -0.00000000000E+00  0.00000000000E+00  0.71698885391E+02  0.71698885436E+02  0.25500000000E-02 0.  1.
          2   -1    0    0    0  501  0.00000000000E+00 -0.00000000000E+00 -0.20732526286E+02  0.20732526443E+02  0.25500000000E-02 0.  1.
          2    1    1    2    0  502  0.23333727379E+02 -0.20687732592E+02  0.52660811391E+02  0.61201357632E+02  0.25500000000E-02 0. -1.
         -2    1    1    2  502    0 -0.23333727379E+02  0.20687732592E+02 -0.16944522863E+01  0.31230054246E+02  0.25500000000E-02 0. -1.
<mgrwt>
<rscale>  0 0.77110286E+02</rscale>
<asrwt>0</asrwt>
<pdfrwt beam="2">  1        2 0.31896194E-02 0.77110286E+02</pdfrwt>
<pdfrwt beam="1">  1       -2 0.11030598E-01 0.77110286E+02</pdfrwt>
<totfact> 0.13207986E+05</totfact>
</mgrwt>
</event>
<event>
 4    1  0.2196664E-002  0.5290531E+02  0.7818608E-02  0.1430273E+00
         -2   -1    0    0  501    0 -0.00000000000E+00  0.00000000000E+00  0.18112433067E+01  0.18112451017E+01  0.25500000000E-02 0.  1.
          2   -1    0    0    0  501  0.00000000000E+00 -0.00000000000E+00 -0.38633275896E+03  0.38633275897E+03  0.25500000000E-02 0.  1.
          2    1    1    2    0  502 -0.17143753401E+02  0.17252095771E+02 -0.26857524649E+03  0.26967425929E+03  0.25500000000E-02 0.  1.
         -2    1    1    2  502    0  0.17143753401E+02 -0.17252095771E+02 -0.11594626916E+03  0.11846974477E+03  0.25500000000E-02 0.  1.
<mgrwt>
<rscale>  0 0.52905311E+02</rscale>
<asrwt>0</asrwt>
<pdfrwt beam="2">  1        2 0.59435744E-01 0.52905311E+02</pdfrwt>
<pdfrwt beam="1">  1       -2 0.27865326E-03 0.52905311E+02</pdfrwt>
<totfact> 0.80206303E+05</totfact>
</mgrwt>
</event>
<event>
 4    1  0.2196664E-002  0.4077792E+02  0.7818608E-02  0.1502564E+00
         -2   -1    0    0  501    0 -0.00000000000E+00  0.00000000000E+00  0.19981597740E+00  0.19983224796E+00  0.25500000000E-02 0.  1.
          2   -1    0    0    0  501  0.00000000000E+00 -0.00000000000E+00 -0.20803776021E+04  0.20803776021E+04  0.25500000000E-02 0.  1.
          2    1    1    2    0  502 -0.20324660808E+02  0.97051680311E+00 -0.11061397432E+04  0.11063268799E+04  0.25500000000E-02 0.  1.
         -2    1    1    2  502    0  0.20324660808E+02 -0.97051680311E+00 -0.97403804292E+03  0.97425055442E+03  0.25500000000E-02 0.  1.
<mgrwt>
<rscale>  0 0.40777916E+02</rscale>
<asrwt>0</asrwt>
<pdfrwt beam="2">  1        2 0.32004075E+00 0.40777916E+02</pdfrwt>
<pdfrwt beam="1">  1       -2 0.30743837E-04 0.40777916E+02</pdfrwt>
<totfact> 0.14686179E+06</totfact>
</mgrwt>
</event>
<event>
 4    1  0.2196664E-002  0.5446451E+02  0.7818608E-02  0.1422648E+00
         -2   -1    0    0  501    0 -0.00000000000E+00  0.00000000000E+00  0.37829888580E+00  0.37830748010E+00  0.25500000000E-02 0. -1.
          2   -1    0    0    0  501  0.00000000000E+00 -0.00000000000E+00 -0.19603211645E+04  0.19603211645E+04  0.25500000000E-02 0. -1.
          2    1    1    2    0  502 -0.76883702652E+01  0.26083537955E+02 -0.92738562997E+03  0.92778422527E+03  0.25500000000E-02 0. -1.
         -2    1    1    2  502    0  0.76883702652E+01 -0.26083537955E+02 -0.10325572356E+04  0.10329152467E+04  0.25500000000E-02 0. -1.
<mgrwt>
<rscale>  0 0.54464511E+02</rscale>
<asrwt>0</asrwt>
<pdfrwt beam="2">  1        2 0.30157974E+00 0.54464511E+02</pdfrwt>
<pdfrwt beam="1">  1       -2 0.58202059E-04 0.54464511E+02</pdfrwt>
<totfact> 0.75635157E+05</totfact>
</mgrwt>
</event>
<event>
 4    1  0.2196664E-002  0.1366795E+03  0.7818608E-02  0.1217868E+00
         -2   -1    0    0  501    0 -0.00000000000E+00  0.00000000000E+00  0.47750376040E+01  0.47750382849E+01  0.25500000000E-02 0. -1.
          2   -1    0    0    0  501  0.00000000000E+00 -0.00000000000E+00 -0.97807028107E+03  0.97807028108E+03  0.25500000000E-02 0. -1.
          2    1    1    2    0  502  0.51360365445E+02 -0.43502522901E+02 -0.40157435538E+03  0.40717603017E+03  0.25500000000E-02 0.  1.
         -2    1    1    2  502    0 -0.51360365445E+02  0.43502522901E+02 -0.57172088809E+03  0.57566928920E+03  0.25500000000E-02 0.  1.
<mgrwt>
<rscale>  0 0.13667952E+03</rscale>
<asrwt>0</asrwt>
<pdfrwt beam="2">  1        2 0.15047219E+00 0.13667952E+03</pdfrwt>
<pdfrwt beam="1">  1       -2 0.73462200E-03 0.13667952E+03</pdfrwt>
<totfact> 0.84195669E+04</totfact>
</mgrwt>
</event>
<event>
 4    1  0.2196664E-002  0.1445207E+03  0.7818608E-02  0.1207372E+00
          2   -1    0    0    0  501  0.00000000000E+00  0.00000000000E+00  0.28938400703E+03  0.28938400705E+03  0.25500000000E-02 0.  1.
         -2   -1    0    0  501    0 -0.00000000000E+00 -0.00000000000E+00 -0.18043701517E+02  0.18043701698E+02  0.25500000000E-02 0.  1.
          2    1    1    2    0  502 -0.25255846581E+02  0.63140498535E+02  0.18764487941E+03  0.19958752746E+03  0.25500000000E-02 0. -1.
         -2    1    1    2  502    0  0.25255846581E+02 -0.63140498535E+02  0.83695426107E+02  0.10784018129E+03  0.25500000000E-02 0. -1.
<mgrwt>
<rscale>  0 0.14452071E+03</rscale>
<asrwt>0</asrwt>
<pdfrwt beam="1">  1        2 0.44520612E-01 0.14452071E+03</pdfrwt>
<pdfrwt beam="2">  1       -2 0.27759543E-02 0.14452071E+03</pdfrwt>
<totfact> 0.50082056E+04</totfact>
</mgrwt>
</event>
<event>
 4    1  0.2196664E-002  0.9116917E+02  0.7818608E-02  0.1300045E+00
          2   -1    0    0    0  501  0.00000000000E+00  0.00000000000E+00  0.89230671070E+03  0.89230671070E+03  0.25500000000E-02 0. -1.
         -2   -1    0    0  501    0 -0.00000000000E+00 -0.00000000000E+00 -0.23287437473E+01  0.23287451435E+01  0.25500000000E-02 0. -1.
          2    1    1    2    0  502  0.43753775625E+02  0.11553272629E+02  0.39116685443E+03  0.39377579788E+03  0.25500000000E-02 0.  1.
         -2    1    1    2  502    0 -0.43753775625E+02 -0.11553272629E+02  0.49881111252E+03  0.50085965796E+03  0.25500000000E-02 0.  1.
<mgrwt>
<rscale>  0 0.91169168E+02</rscale>
<asrwt>0</asrwt>
<pdfrwt beam="1">  1        2 0.13727781E+00 0.91169168E+02</pdfrwt>
<pdfrwt beam="2">  1       -2 0.35826876E-03 0.91169168E+02</pdfrwt>
<totfact> 0.24775196E+05</totfact>
</mgrwt>
</event>
<event>
 4    1  0.2196664E-002  0.4534509E+02  0.7818608E-02  0.1472199E+00
         -2   -1    0    0  501    0 -0.00000000000E+00  0.00000000000E+00  0.22250331617E+00  0.22251792783E+00  0.25500000000E-02 0.  1.
          2   -1    0    0    0  501  0.00000000000E+00 -0.00000000000E+00 -0.23102010872E+04  0.23102010872E+04  0.25500000000E-02 0.  1.
          2    1    1    2    0  502 -0.77776237834E+01 -0.21127754228E+02 -0.12914308229E+04  0.12916270529E+04  0.25500000000E-02 0.  1.
         -2    1    1    2  502    0  0.77776237834E+01  0.21127754228E+02 -0.10185477610E+04  0.10187965522E+04  0.25500000000E-02 0.  1.
<mgrwt>
<rscale>  0 0.45345089E+02</rscale>
<asrwt>0</asrwt>
<pdfrwt beam="2">  1        2 0.35539635E+00 0.45345089E+02</pdfrwt>
<pdfrwt beam="1">  1       -2 0.34234254E-04 0.45345089E+02</pdfrwt>
<totfact> 0.10034902E+06</totfact>
</mgrwt>
</event>
<event>
 4    1  0.2196664E-002  0.5755756E+02  0.7818608E-02  0.1408377E+00
          2   -1    0    0    0  501  0.00000000000E+00  0.00000000000E+00  0.18611940213E+02  0.18611940388E+02  0.25500000000E-02 0.  1.
         -2   -1    0    0  501    0 -0.00000000000E+00 -0.00000000000E+00 -0.44499293015E+02  0.44499293088E+02  0.25500000000E-02 0.  1.
          2    1    1    2    0  502 -0.26132605834E+02  0.50863744526E+01 -0.96060688041E+00  0.26640327791E+02  0.25500000000E-02 0. -1.
         -2    1    1    2  502    0  0.26132605834E+02 -0.50863744526E+01 -0.24926745921E+02  0.36470905685E+02  0.25500000000E-02 0. -1.
<mgrwt>
<rscale>  0 0.57557560E+02</rscale>
<asrwt>0</asrwt>
<pdfrwt beam="1">  1        2 0.28633754E-02 0.57557560E+02</pdfrwt>
<pdfrwt beam="2">  1       -2 0.68460451E-02 0.57557560E+02</pdfrwt>
<totfact> 0.29691138E+05</totfact>
</mgrwt>
</event>
<event>
 4    1  0.2196664E-002  0.5132528E+02  0.7818608E-02  0.1438322E+00
          2   -1    0    0    0  501  0.00000000000E+00  0.00000000000E+00  0.12298941081E+03  0.12298941084E+03  0.25500000000E-02 0. -1.
         -2   -1    0    0  501    0 -0.00000000000E+00 -0.00000000000E+00 -0.53546971860E+01  0.53546977932E+01  0.25500000000E-02 0. -1.
          2    1    1    2    0  502 -0.19630633252E+02 -0.16002905774E+02  0.48471893403E+02  0.54689845599E+02  0.25500000000E-02 0. -1.
         -2    1    1    2  502    0  0.19630633252E+02  0.16002905774E+02  0.69162820221E+02  0.73654263031E+02  0.25500000000E-02 0. -1.
<mgrwt>
<rscale>  0 0.51325280E+02</rscale>
<asrwt>0</asrwt>
<pdfrwt beam="1">  1        2 0.18921447E-01 0.51325280E+02</pdfrwt>
<pdfrwt beam="2">  1       -2 0.82379964E-03 0.51325280E+02</pdfrwt>
<totfact> 0.59288428E+05</totfact>
</mgrwt>
</event>
<event>
 4    1  0.2196664E-002  0.4124781E+02  0.7818608E-02  0.1499225E+00
         -2   -1    0    0  501    0 -0.00000000000E+00  0.00000000000E+00  0.39442516259E+00  0.39443340551E+00  0.25500000000E-02 0. -1.
          2   -1    0    0    0  501  0.00000000000E+00 -0.00000000000E+00 -0.10783820597E+04  0.10783820597E+04  0.25500000000E-02 0. -1.
          2    1    1    2    0  502  0.20618364337E+02  0.46415693894E+00 -0.54198389835E+03  0.54237614113E+03  0.25500000000E-02 0.  1.
         -2    1    1    2  502    0 -0.20618364337E+02 -0.46415693894E+00 -0.53600373619E+03  0.53640035198E+03  0.25500000000E-02 0.  1.
<mgrwt>
<rscale>  0 0.41247810E+02</rscale>
<asrwt>0</asrwt>
<pdfrwt beam="2">  1        2 0.16590257E+00 0.41247810E+02</pdfrwt>
<pdfrwt beam="1">  1       -2 0.60682292E-04 0.41247810E+02</pdfrwt>
<totfact> 0.18543949E+06</totfact>
</mgrwt>
</event>
<event>
 4    1  0.2196664E-002  0.6307608E+02  0.7818608E-02  0.1385358E+00
          2   -1    0    0    0  501  0.00000000000E+00  0.00000000000E+00  0.89734285723E+01  0.89734289346E+01  0.25500000000E-02 0.  1.
         -2   -1    0    0  501    0 -0.00000000000E+00 -0.00000000000E+00 -0.11084370051E+03  0.11084370054E+03  0.25500000000E-02 0.  1.
          2    1    1    2    0  502 -0.20319069321E+02 -0.19352667574E+02 -0.78282127811E+02  0.83159376269E+02  0.25500000000E-02 0. -1.
         -2    1    1    2  502    0  0.20319069321E+02  0.19352667574E+02 -0.23588144131E+02  0.36657753210E+02  0.25500000000E-02 0. -1.
<mgrwt>
<rscale>  0 0.63076083E+02</rscale>
<asrwt>0</asrwt>
<pdfrwt beam="1">  1        2 0.13805276E-02 0.63076083E+02</pdfrwt>
<pdfrwt beam="2">  1       -2 0.17052876E-01 0.63076083E+02</pdfrwt>
<totfact> 0.19391185E+05</totfact>
</mgrwt>
</event>
<event>
 4    1  0.2196664E-002  0.1180446E+03  0.7818608E-02  0.1246358E+00
          2   -1    0    0    0  501  0.00000000000E+00  0.00000000000E+00  0.44912755491E+03  0.44912755492E+03  0.25500000000E-02 0. -1.
         -2   -1    0    0  501    0 -0.00000000000E+00 -0.00000000000E+00 -0.77564433694E+01  0.77564437886E+01  0.25500000000E-02 0. -1.
          2    1    1    2    0  502  0.49441798824E+02  0.18427737264E+01  0.34524775238E+03  0.34877485262E+03  0.25500000000E-02 0. -1.
         -2    1    1    2  502    0 -0.49441798824E+02 -0.18427737264E+01  0.96123359161E+02  0.10810914609E+03  0.25500000000E-02 0. -1.
<mgrwt>
<rscale>  0 0.11804461E+03</rscale>
<asrwt>0</asrwt>
<pdfrwt beam="1">  1        2 0.69096568E-01 0.11804461E+03</pdfrwt>
<pdfrwt beam="2">  1       -2 0.11932986E-02 0.11804461E+03</pdfrwt>
<totfact> 0.10385618E+05</totfact>
</mgrwt>
</event>
<event>
 4    1  0.2196664E-002  0.5763204E+02  0.7818608E-02  0.1408046E+00
         -2   -1    0    0  501    0 -0.00000000000E+00  0.00000000000E+00  0.37894820310E+01  0.37894828889E+01  0.25500000000E-02 0. -1.
          2   -1    0    0    0  501  0.00000000000E+00 -0.00000000000E+00 -0.21912303953E+03  0.21912303954E+03  0.25500000000E-02 0. -1.
          2    1    1    2    0  502  0.27821526714E+02 -0.19051737558E+01 -0.79589254489E+02  0.84333365120E+02  0.25500000000E-02 0.  1.
         -2    1    1    2  502    0 -0.27821526714E+02  0.19051737558E+01 -0.13574430301E+03  0.13857915731E+03  0.25500000000E-02 0.  1.
<mgrwt>
<rscale>  0 0.57632037E+02</rscale>
<asrwt>0</asrwt>
<pdfrwt beam="2">  1        2 0.33711227E-01 0.57632037E+02</pdfrwt>
<pdfrwt beam="1">  1       -2 0.58299747E-03 0.57632037E+02</pdfrwt>
<totfact> 0.53045910E+05</totfact>
</mgrwt>
</event>
<event>
 4    1  0.2196664E-002  0.5352479E+02  0.7818608E-02  0.1427207E+00
         -2   -1    0    0  501    0 -0.00000000000E+00  0.00000000000E+00  0.17052756939E+03  0.17052756941E+03  0.25500000000E-02 0. -1.
          2   -1    0    0    0  501  0.00000000000E+00 -0.00000000000E+00 -0.42000584979E+01  0.42000592720E+01  0.25500000000E-02 0. -1.
          2    1    1    2    0  502  0.24400976026E+02 -0.64302925301E+01  0.54062820891E+02  0.59661921711E+02  0.25500000000E-02 0. -1.
         -2    1    1    2  502    0 -0.24400976026E+02  0.64302925301E+01  0.11226469000E+03  0.11506570697E+03  0.25500000000E-02 0. -1.
<mgrwt>
<rscale>  0 0.53524792E+02</rscale>
<asrwt>0</asrwt>
<pdfrwt beam="2">  1        2 0.64616297E-03 0.53524792E+02</pdfrwt>
<pdfrwt beam="1">  1       -2 0.26235008E-01 0.53524792E+02</pdfrwt>
<totfact> 0.25365637E+05</totfact>
</mgrwt>
</event>
<event>
 4    1  0.2196664E-002  0.2635875E+03  0.7818608E-02  0.1105007E+00
         -2   -1    0    0  501    0 -0.00000000000E+00  0.00000000000E+00  0.12499523997E+02  0.12499524257E+02  0.25500000000E-02 0.  1.
          2   -1    0    0    0  501  0.00000000000E+00 -0.00000000000E+00 -0.13896201164E+04  0.13896201164E+04  0.25500000000E-02 0.  1.
          2    1    1    2    0  502  0.10981392556E+03  0.70329312185E+02 -0.58703416964E+03  0.60134385066E+03  0.25500000000E-02 0. -1.
         -2    1    1    2  502    0 -0.10981392556E+03 -0.70329312185E+02 -0.79008642278E+03  0.80077579001E+03  0.25500000000E-02 0. -1.
<mgrwt>
<rscale>  0 0.26358748E+03</rscale>
<asrwt>0</asrwt>
<pdfrwt beam="2">  1        2 0.21378759E+00 0.26358748E+03</pdfrwt>
<pdfrwt beam="1">  1       -2 0.19230048E-02 0.26358748E+03</pdfrwt>
<totfact> 0.12802684E+04</totfact>
</mgrwt>
</event>
<event>
 4    1  0.2196664E-002  0.4698786E+02  0.7818608E-02  0.1462300E+00
          2   -1    0    0    0  501  0.00000000000E+00  0.00000000000E+00  0.18755860820E+04  0.18755860820E+04  0.25500000000E-02 0. -1.
         -2   -1    0    0  501    0 -0.00000000000E+00 -0.00000000000E+00 -0.29428363643E+00  0.29429468424E+00  0.25500000000E-02 0. -1.
          2    1    1    2    0  502  0.16466859795E+02 -0.15030165605E+02  0.64183727931E+03  0.64222438171E+03  0.25500000000E-02 0.  1.
         -2    1    1    2  502    0 -0.16466859795E+02  0.15030165605E+02  0.12334545190E+04  0.12336559949E+04  0.25500000000E-02 0.  1.
<mgrwt>
<rscale>  0 0.46987856E+02</rscale>
<asrwt>0</asrwt>
<pdfrwt beam="1">  1        2 0.28854061E+00 0.46987856E+02</pdfrwt>
<pdfrwt beam="2">  1       -2 0.45276996E-04 0.46987856E+02</pdfrwt>
<totfact> 0.11325806E+06</totfact>
</mgrwt>
</event>
<event>
 4    1  0.2196664E-002  0.6556202E+02  0.7818608E-02  0.1375870E+00
         -2   -1    0    0  501    0 -0.00000000000E+00  0.00000000000E+00  0.49619871764E+00  0.49620526991E+00  0.25500000000E-02 0. -1.
          2   -1    0    0    0  501  0.00000000000E+00 -0.00000000000E+00 -0.21656397147E+04  0.21656397147E+04  0.25500000000E-02 0. -1.
          2    1    1    2    0  502 -0.12641561507E+02  0.22999696027E+02 -0.43361723406E+03  0.43441075122E+03  0.25500000000E-02 0.  1.
         -2    1    1    2  502    0  0.12641561507E+02 -0.22999696027E+02 -0.17315262819E+04  0.17317251687E+04  0.25500000000E-02 0.  1.
<mgrwt>
<rscale>  0 0.65562024E+02</rscale>
<asrwt>0</asrwt>
<pdfrwt beam="2">  1        2 0.33316777E+00 0.65562024E+02</pdfrwt>
<pdfrwt beam="1">  1       -2 0.76340502E-04 0.65562024E+02</pdfrwt>
<totfact> 0.42799036E+05</totfact>
</mgrwt>
</event>
<event>
 4    1  0.2196664E-002  0.5128946E+02  0.7818608E-02  0.1438508E+00
          2   -1    0    0    0  501  0.00000000000E+00  0.00000000000E+00  0.17710945066E+02  0.17710945249E+02  0.25500000000E-02 0.  1.
         -2   -1    0    0  501    0 -0.00000000000E+00 -0.00000000000E+00 -0.37132533681E+02  0.37132533769E+02  0.25500000000E-02 0.  1.
          2    1    1    2    0  502  0.11553387981E+02  0.22037437308E+02 -0.16347553092E+02  0.29771998850E+02  0.25500000000E-02 0.  1.
         -2    1    1    2  502    0 -0.11553387981E+02 -0.22037437308E+02 -0.30740355231E+01  0.25071480168E+02  0.25500000000E-02 0.  1.
<mgrwt>
<rscale>  0 0.51289464E+02</rscale>
<asrwt>0</asrwt>
<pdfrwt beam="1">  1        2 0.27247608E-02 0.51289464E+02</pdfrwt>
<pdfrwt beam="2">  1       -2 0.57126975E-02 0.51289464E+02</pdfrwt>
<totfact> 0.40335901E+05</totfact>
</mgrwt>
</event>
<event>
 4    1  0.2196664E-002  0.5385240E+02  0.7818608E-02  0.1425605E+00
         -2   -1    0    0  501    0 -0.00000000000E+00  0.00000000000E+00  0.15220740657E+03  0.15220740659E+03  0.25500000000E-02 0.  1.
          2   -1    0    0    0  501  0.00000000000E+00 -0.00000000000E+00 -0.47633693291E+01  0.47633700116E+01  0.25500000000E-02 0.  1.
          2    1    1    2    0  502 -0.15266819988E+02 -0.21388894767E+02  0.56611292426E+02  0.62413132021E+02  0.25500000000E-02 0.  1.
         -2    1    1    2  502    0  0.15266819988E+02  0.21388894767E+02  0.90832744812E+02  0.94557644580E+02  0.25500000000E-02 0.  1.
<mgrwt>
<rscale>  0 0.53852396E+02</rscale>
<asrwt>0</asrwt>
<pdfrwt beam="2">  1        2 0.73282623E-03 0.53852396E+02</pdfrwt>
<pdfrwt beam="1">  1       -2 0.23416520E-01 0.53852396E+02</pdfrwt>
<totfact> 0.26009100E+05</totfact>
</mgrwt>
</event>
<event>
 4    1  0.2196664E-002  0.4026938E+02  0.7818608E-02  0.1506238E+00
          2   -1    0    0    0  501  0.00000000000E+00  0.00000000000E+00  0.30487500366E+01  0.30487511031E+01  0.25500000000E-02 0.  1.
         -2   -1    0    0  501    0 -0.00000000000E+00 -0.00000000000E+00 -0.13297435879E+03  0.13297435881E+03  0.25500000000E-02 0.  1.
          2    1    1    2    0  502  0.61499880266E+01  0.19161646688E+02 -0.62787858406E+02  0.65934105183E+02  0.25500000000E-02 0. -1.
         -2    1    1    2  502    0 -0.61499880266E+01 -0.19161646688E+02 -0.67137750348E+02  0.70089004735E+02  0.25500000000E-02 0. -1.
<mgrwt>
<rscale>  0 0.40269376E+02</rscale>
<asrwt>0</asrwt>
<pdfrwt beam="1">  1        2 0.46903865E-03 0.40269376E+02</pdfrwt>
<pdfrwt beam="2">  1       -2 0.20457589E-01 0.40269376E+02</pdfrwt>
<totfact> 0.55115629E+05</totfact>
</mgrwt>
</event>
<event>
 4    1  0.2196664E-002  0.5508786E+02  0.7818608E-02  0.1419684E+00
         -2   -1    0    0  501    0 -0.00000000000E+00  0.00000000000E+00  0.35174200633E+03  0.35174200634E+03  0.25500000000E-02 0.  1.
          2   -1    0    0    0  501  0.00000000000E+00 -0.00000000000E+00 -0.21568867785E+01  0.21568882859E+01  0.25500000000E-02 0.  1.
          2    1    1    2    0  502  0.21863130093E+02  0.16751077435E+02  0.17652701647E+03  0.17866276221E+03  0.25500000000E-02 0.  1.
         -2    1    1    2  502    0 -0.21863130093E+02 -0.16751077435E+02  0.17305810309E+03  0.17523613241E+03  0.25500000000E-02 0.  1.
<mgrwt>
<rscale>  0 0.55087855E+02</rscale>
<asrwt>0</asrwt>
<pdfrwt beam="2">  1        2 0.33182842E-03 0.55087855E+02</pdfrwt>
<pdfrwt beam="1">  1       -2 0.54114226E-01 0.55087855E+02</pdfrwt>
<totfact> 0.16656806E+05</totfact>
</mgrwt>
</event>
<event>
 4    1  0.2196664E-002  0.4386968E+02  0.7818608E-02  0.1481524E+00
         -2   -1    0    0  501    0 -0.00000000000E+00  0.00000000000E+00  0.47788686880E+00  0.47789367214E+00  0.25500000000E-02 0. -1.
          2   -1    0    0    0  501  0.00000000000E+00 -0.00000000000E+00 -0.10067941069E+04  0.10067941069E+04  0.25500000000E-02 0. -1.
          2    1    1    2    0  502 -0.19427769961E+02  0.87391056078E+01 -0.38313152200E+03  0.38372330314E+03  0.25500000000E-02 0. -1.
         -2    1    1    2  502    0  0.19427769961E+02 -0.87391056078E+01 -0.62318469802E+03  0.62354869743E+03  0.25500000000E-02 0. -1.
<mgrwt>
<rscale>  0 0.43869676E+02</rscale>
<asrwt>0</asrwt>
<pdfrwt beam="2">  1        2 0.15488970E+00 0.43869676E+02</pdfrwt>
<pdfrwt beam="1">  1       -2 0.73522386E-04 0.43869676E+02</pdfrwt>
<totfact> 0.15953704E+06</totfact>
</mgrwt>
</event>
<event>
 4    1  0.2196664E-002  0.9080738E+02  0.7818608E-02  0.1300908E+00
         -2   -1    0    0  501    0 -0.00000000000E+00  0.00000000000E+00  0.10462061372E+03  0.10462061375E+03  0.25500000000E-02 0. -1.
          2   -1    0    0    0  501  0.00000000000E+00 -0.00000000000E+00 -0.19704482990E+02  0.19704483155E+02  0.25500000000E-02 0. -1.
          2    1    1    2    0  502 -0.35438022355E+02  0.15192302256E+02  0.75283425259E+02  0.84582820960E+02  0.25500000000E-02 0. -1.
         -2    1    1    2  502    0  0.35438022355E+02 -0.15192302256E+02  0.96327054725E+01  0.39742275948E+02  0.25500000000E-02 0. -1.
<mgrwt>
<rscale>  0 0.90807381E+02</rscale>
<asrwt>0</asrwt>
<pdfrwt beam="2">  1        2 0.30314589E-02 0.90807381E+02</pdfrwt>
<pdfrwt beam="1">  1       -2 0.16095479E-01 0.90807381E+02</pdfrwt>
<totfact> 0.79529303E+04</totfact>
</mgrwt>
</event>
<event>
 4    1  0.2196664E-002  0.5075162E+02  0.7818608E-02  0.1441329E+00
          2   -1    0    0    0  501  0.00000000000E+00  0.00000000000E+00  0.16343928374E+01  0.16343948266E+01  0.25500000000E-02 0. -1.
         -2   -1    0    0  501    0 -0.00000000000E+00 -0.00000000000E+00 -0.39398806614E+03  0.39398806615E+03  0.25500000000E-02 0. -1.
          2    1    1    2    0  502  0.54070956701E+01  0.24086396706E+02 -0.24199051757E+03  0.24324638084E+03  0.25500000000E-02 0.  1.
         -2    1    1    2  502    0 -0.54070956701E+01 -0.24086396706E+02 -0.15036315574E+03  0.15237608014E+03  0.25500000000E-02 0.  1.
<mgrwt>
<rscale>  0 0.50751617E+02</rscale>
<asrwt>0</asrwt>
<pdfrwt beam="1">  1        2 0.25144552E-03 0.50751617E+02</pdfrwt>
<pdfrwt beam="2">  1       -2 0.60613473E-01 0.50751617E+02</pdfrwt>
<totfact> 0.18971983E+05</totfact>
</mgrwt>
</event>
<event>
 4    1  0.2196664E-002  0.6969999E+02  0.7818608E-02  0.1361116E+00
         -2   -1    0    0  501    0 -0.00000000000E+00  0.00000000000E+00  0.16626090661E+02  0.16626090856E+02  0.25500000000E-02 0. -1.
          2   -1    0    0    0  501  0.00000000000E+00 -0.00000000000E+00 -0.73049164498E+02  0.73049164543E+02  0.25500000000E-02 0. -1.
          2    1    1    2    0  502  0.28179224634E+02 -0.11658925683E+02 -0.49913471644E+02  0.58492340585E+02  0.25500000000E-02 0.  1.
         -2    1    1    2  502    0 -0.28179224634E+02  0.11658925683E+02 -0.65096021937E+01  0.31182914814E+02  0.25500000000E-02 0.  1.
<mgrwt>
<rscale>  0 0.69699987E+02</rscale>
<asrwt>0</asrwt>
<pdfrwt beam="2">  1        2 0.11238333E-01 0.69699987E+02</pdfrwt>
<pdfrwt beam="1">  1       -2 0.25578602E-02 0.69699987E+02</pdfrwt>
<totfact> 0.23309774E+05</totfact>
</mgrwt>
</event>
<event>
 4    1  0.2196664E-002  0.5757853E+02  0.7818608E-02  0.1408284E+00
         -2   -1    0    0  501    0 -0.00000000000E+00  0.00000000000E+00  0.11392894275E+04  0.11392894275E+04  0.25500000000E-02 0.  1.
          2   -1    0    0    0  501  0.00000000000E+00 -0.00000000000E+00 -0.72748779335E+00  0.72749226249E+00  0.25500000000E-02 0.  1.
          2    1    1    2    0  502  0.18257430054E+02  0.21350759070E+02  0.69392726606E+03  0.69449567259E+03  0.25500000000E-02 0. -1.
         -2    1    1    2  502    0 -0.18257430054E+02 -0.21350759070E+02  0.44463467369E+03  0.44552124722E+03  0.25500000000E-02 0. -1.
<mgrwt>
<rscale>  0 0.57578527E+02</rscale>
<asrwt>0</asrwt>
<pdfrwt beam="2">  1        2 0.11192135E-03 0.57578527E+02</pdfrwt>
<pdfrwt beam="1">  1       -2 0.17527560E+00 0.57578527E+02</pdfrwt>
<totfact> 0.51374436E+04</totfact>
</mgrwt>
</event>
<event>
 4    1  0.2196664E-002  0.4284648E+02  0.7818608E-02  0.1488251E+00
         -2   -1    0    0  501    0 -0.00000000000E+00  0.00000000000E+00  0.94069901459E+01  0.94069904915E+01  0.25500000000E-02 0. -1.
          2   -1    0    0    0  501  0.00000000000E+00 -0.00000000000E+00 -0.48788751122E+02  0.48788751188E+02  0.25500000000E-02 0. -1.
          2    1    1    2    0  502 -0.21177472494E+02  0.32324485718E+01 -0.19492924349E+02  0.28963911531E+02  0.25500000000E-02 0.  1.
         -2    1    1    2  502    0  0.21177472494E+02 -0.32324485718E+01 -0.19888836627E+02  0.29231830149E+02  0.25500000000E-02 0.  1.
<mgrwt>
<rscale>  0 0.42846485E+02</rscale>
<asrwt>0</asrwt>
<pdfrwt beam="2">  1        2 0.75059616E-02 0.42846485E+02</pdfrwt>
<pdfrwt beam="1">  1       -2 0.14472293E-02 0.42846485E+02</pdfrwt>
<totfact> 0.75649475E+05</totfact>
</mgrwt>
</event>
<event>
 4    1  0.2196664E-002  0.9914179E+02  0.7818608E-02  0.1282111E+00
          2   -1    0    0    0  501  0.00000000000E+00  0.00000000000E+00  0.94643313347E+03  0.94643313348E+03  0.25500000000E-02 0. -1.
         -2   -1    0    0  501    0 -0.00000000000E+00 -0.00000000000E+00 -0.25963512957E+01  0.25963525479E+01  0.25500000000E-02 0. -1.
          2    1    1    2    0  502 -0.20935491962E+02  0.81887804911E+01  0.49002259037E+02  0.53912636245E+02  0.25500000000E-02 0. -1.
         -2    1    1    2  502    0  0.20935491962E+02 -0.81887804911E+01  0.89483452314E+03  0.89511684978E+03  0.25500000000E-02 0. -1.
<mgrwt>
<rscale>  0 0.99141787E+02</rscale>
<asrwt>0</asrwt>
<pdfrwt beam="1">  1        2 0.14560518E+00 0.99141787E+02</pdfrwt>
<pdfrwt beam="2">  1       -2 0.39943853E-03 0.99141787E+02</pdfrwt>
<totfact> 0.19965637E+05</totfact>
</mgrwt>
</event>
<event>
 4    1  0.2196664E-002  0.5558834E+02  0.7818608E-02  0.1417337E+00
         -2   -1    0    0  501    0 -0.00000000000E+00  0.00000000000E+00  0.16644888887E+03  0.16644888889E+03  0.25500000000E-02 0. -1.
          2   -1    0    0    0  501  0.00000000000E+00 -0.00000000000E+00 -0.46411602045E+01  0.46411609050E+01  0.25500000000E-02 0. -1.
          2    1    1    2    0  502  0.53154996489E+01 -0.21788325945E+02  0.30374384053E+02  0.37756971504E+02  0.25500000000E-02 0.  1.
         -2    1    1    2  502    0 -0.53154996489E+01  0.21788325945E+02  0.13143334461E+03  0.13333307829E+03  0.25500000000E-02 0.  1.
<mgrwt>
<rscale>  0 0.55588345E+02</rscale>
<asrwt>0</asrwt>
<pdfrwt beam="2">  1        2 0.71402470E-03 0.55588345E+02</pdfrwt>
<pdfrwt beam="1">  1       -2 0.25607522E-01 0.55588345E+02</pdfrwt>
<totfact> 0.23304565E+05</totfact>
</mgrwt>
</event>
<event>
 4    1  0.2196664E-002  0.5393522E+02  0.7818608E-02  0.1425202E+00
         -2   -1    0    0  501    0 -0.00000000000E+00  0.00000000000E+00  0.30388570954E+02  0.30388571061E+02  0.25500000000E-02 0. -1.
          2   -1    0    0    0  501  0.00000000000E+00 -0.00000000000E+00 -0.23931763845E+02  0.23931763981E+02  0.25500000000E-02 0. -1.
          2    1    1    2    0  502 -0.15511335067E+02 -0.22018886813E+02  0.45868157537E+01  0.27321635699E+02  0.25500000000E-02 0.  1.
         -2    1    1    2  502    0  0.15511335067E+02  0.22018886813E+02  0.18699913553E+01  0.26998699343E+02  0.25500000000E-02 0.  1.
<mgrwt>
<rscale>  0 0.53935224E+02</rscale>
<asrwt>0</asrwt>
<pdfrwt beam="2">  1        2 0.36818098E-02 0.53935224E+02</pdfrwt>
<pdfrwt beam="1">  1       -2 0.46751648E-02 0.53935224E+02</pdfrwt>
<totfact> 0.37015343E+05</totfact>
</mgrwt>
</event>
<event>
 4    1  0.2196664E-002  0.5746331E+02  0.7818608E-02  0.1408796E+00
          2   -1    0    0    0  501  0.00000000000E+00  0.00000000000E+00  0.11060614795E+04  0.11060614795E+04  0.25500000000E-02 0.  1.
         -2   -1    0    0  501    0 -0.00000000000E+00 -0.00000000000E+00 -0.74634683889E+00  0.74635119509E+00  0.25500000000E-02 0.  1.
          2    1    1    2    0  502 -0.17615684400E+01 -0.20454393183E+02  0.93981216674E+03  0.94003637913E+03  0.25500000000E-02 0. -1.
         -2    1    1    2  502    0  0.17615684400E+01  0.20454393183E+02  0.16550296593E+03  0.16677145158E+03  0.25500000000E-02 0. -1.
<mgrwt>
<rscale>  0 0.57463307E+02</rscale>
<asrwt>0</asrwt>
<pdfrwt beam="1">  1        2 0.17016313E+00 0.57463307E+02</pdfrwt>
<pdfrwt beam="2">  1       -2 0.11482304E-03 0.57463307E+02</pdfrwt>
<totfact> 0.81959965E+05</totfact>
</mgrwt>
</event>
<event>
 4    1  0.2196664E-002  0.4051060E+02  0.7818608E-02  0.1504487E+00
          2   -1    0    0    0  501  0.00000000000E+00  0.00000000000E+00  0.44519287088E+00  0.44520017383E+00  0.25500000000E-02 0.  1.
         -2   -1    0    0  501    0 -0.00000000000E+00 -0.00000000000E+00 -0.92156419464E+03  0.92156419465E+03  0.25500000000E-02 0.  1.
          2    1    1    2    0  502  0.18998097873E+02 -0.64887564970E+01 -0.39929618757E+03  0.39980054665E+03  0.25500000000E-02 0. -1.
         -2    1    1    2  502    0 -0.18998097873E+02  0.64887564970E+01 -0.52182281420E+03  0.52220884817E+03  0.25500000000E-02 0. -1.
<mgrwt>
<rscale>  0 0.40510600E+02</rscale>
<asrwt>0</asrwt>
<pdfrwt beam="1">  1        2 0.68492510E-04 0.40510600E+02</pdfrwt>
<pdfrwt beam="2">  1       -2 0.14177758E+00 0.40510600E+02</pdfrwt>
<totfact> 0.15595881E+05</totfact>
</mgrwt>
</event>
<event>
 4    1  0.2196664E-002  0.4787434E+02  0.7818608E-02  0.1457156E+00
          2   -1    0    0    0  501  0.00000000000E+00  0.00000000000E+00  0.86094506816E+02  0.86094506853E+02  0.25500000000E-02 0. -1.
         -2   -1    0    0  501    0 -0.00000000000E+00 -0.00000000000E+00 -0.66553377369E+01  0.66553382254E+01  0.25500000000E-02 0. -1.
          2    1    1    2    0  502 -0.13134217006E+02 -0.20012001914E+02  0.39744172566E+02  0.46395981899E+02  0.25500000000E-02 0. -1.
         -2    1    1    2  502    0  0.13134217006E+02  0.20012001914E+02  0.39694996513E+02  0.46353863179E+02  0.25500000000E-02 0. -1.
<mgrwt>
<rscale>  0 0.47874337E+02</rscale>
<asrwt>0</asrwt>
<pdfrwt beam="1">  1        2 0.13245309E-01 0.47874337E+02</pdfrwt>
<pdfrwt beam="2">  1       -2 0.10238982E-02 0.47874337E+02</pdfrwt>
<totfact> 0.64363139E+05</totfact>
</mgrwt>
</event>
<event>
 4    1  0.2196664E-002  0.6254308E+02  0.7818608E-02  0.1387459E+00
         -2   -1    0    0  501    0 -0.00000000000E+00  0.00000000000E+00  0.32804785477E+00  0.32805776552E+00  0.25500000000E-02 0. -1.
          2   -1    0    0    0  501  0.00000000000E+00 -0.00000000000E+00 -0.29809503149E+04  0.29809503149E+04  0.25500000000E-02 0. -1.
          2    1    1    2    0  502  0.10474553312E+02  0.29465060988E+02 -0.14929386330E+04  0.14932661076E+04  0.25500000000E-02 0.  1.
         -2    1    1    2  502    0 -0.10474553312E+02 -0.29465060988E+02 -0.14876836340E+04  0.14880122651E+04  0.25500000000E-02 0.  1.
<mgrwt>
<rscale>  0 0.62543077E+02</rscale>
<asrwt>0</asrwt>
<pdfrwt beam="2">  1        2 0.45858605E+00 0.62543077E+02</pdfrwt>
<pdfrwt beam="1">  1       -2 0.50472050E-04 0.62543077E+02</pdfrwt>
<totfact> 0.27869880E+05</totfact>
</mgrwt>
</event>
<event>
 4    1  0.2196664E-002  0.9594494E+02  0.7818608E-02  0.1289062E+00
         -2   -1    0    0  501    0 -0.00000000000E+00  0.00000000000E+00  0.14528381855E+01  0.14528404234E+01  0.25500000000E-02 0. -1.
          2   -1    0    0    0  501  0.00000000000E+00 -0.00000000000E+00 -0.15840415266E+04  0.15840415266E+04  0.25500000000E-02 0. -1.
          2    1    1    2    0  502  0.12133895046E+02  0.44017585862E+02 -0.54810176487E+03  0.55000029448E+03  0.25500000000E-02 0. -1.
         -2    1    1    2  502    0 -0.12133895046E+02 -0.44017585862E+02 -0.10344869235E+04  0.10354940725E+04  0.25500000000E-02 0. -1.
<mgrwt>
<rscale>  0 0.95944938E+02</rscale>
<asrwt>0</asrwt>
<pdfrwt beam="2">  1        2 0.24369732E+00 0.95944938E+02</pdfrwt>
<pdfrwt beam="1">  1       -2 0.22351501E-03 0.95944938E+02</pdfrwt>
<totfact> 0.20157459E+05</totfact>
</mgrwt>
</event>
<event>
 4    1  0.2196664E-002  0.1409915E+03  0.7818608E-02  0.1212001E+00
          2   -1    0    0    0  501  0.00000000000E+00  0.00000000000E+00  0.87442466251E+03  0.87442466252E+03  0.25500000000E-02 0.  1.
         -2   -1    0    0  501    0 -0.00000000000E+00 -0.00000000000E+00 -0.56833349015E+01  0.56833354736E+01  0.25500000000E-02 0.  1.
          2    1    1    2    0  502 -0.35344406419E+02 -0.56487535484E+02  0.57802171571E+03  0.58184978522E+03  0.25500000000E-02 0. -1.
         -2    1    1    2  502    0  0.35344406419E+02  0.56487535484E+02  0.29071961191E+03  0.29825821277E+03  0.25500000000E-02 0. -1.
<mgrwt>
<rscale>  0 0.14099147E+03</rscale>
<asrwt>0</asrwt>
<pdfrwt beam="1">  1        2 0.13452685E+00 0.14099147E+03</pdfrwt>
<pdfrwt beam="2">  1       -2 0.87435941E-03 0.14099147E+03</pdfrwt>
<totfact> 0.76446728E+04</totfact>
</mgrwt>
</event>
<event>
 4    1  0.2196664E-002  0.6692950E+02  0.7818608E-02  0.1370857E+00
          2   -1    0    0    0  501  0.00000000000E+00  0.00000000000E+00  0.38119539038E+02  0.38119539123E+02  0.25500000000E-02 0.  1.
         -2   -1    0    0  501    0 -0.00000000000E+00 -0.00000000000E+00 -0.29378358061E+02  0.29378358172E+02  0.25500000000E-02 0.  1.
          2    1    1    2    0  502 -0.24229018601E+02  0.61038028064E+01  0.26821447996E+02  0.36656402308E+02  0.25500000000E-02 0.  1.
         -2    1    1    2  502    0  0.24229018601E+02 -0.61038028064E+01 -0.18080267019E+02  0.30841494987E+02  0.25500000000E-02 0.  1.
<mgrwt>
<rscale>  0 0.66929499E+02</rscale>
<asrwt>0</asrwt>
<pdfrwt beam="1">  1        2 0.58645445E-02 0.66929499E+02</pdfrwt>
<pdfrwt beam="2">  1       -2 0.45197474E-02 0.66929499E+02</pdfrwt>
<totfact> 0.22486044E+05</totfact>
</mgrwt>
</event>
<event>
 4    1  0.2196664E-002  0.4677865E+02  0.7818608E-02  0.1463534E+00
         -2   -1    0    0  501    0 -0.00000000000E+00  0.00000000000E+00  0.37296924964E+01  0.37296933681E+01  0.25500000000E-02 0. -1.
          2   -1    0    0    0  501  0.00000000000E+00 -0.00000000000E+00 -0.14667707622E+03  0.14667707624E+03  0.25500000000E-02 0. -1.
          2    1    1    2    0  502 -0.18351497274E+02  0.14485681899E+02 -0.69321564565E+02  0.73157991720E+02  0.25500000000E-02 0. -1.
         -2    1    1    2  502    0  0.18351497274E+02 -0.14485681899E+02 -0.73625819156E+02  0.77248777888E+02  0.25500000000E-02 0. -1.
<mgrwt>
<rscale>  0 0.46778647E+02</rscale>
<asrwt>0</asrwt>
<pdfrwt beam="2">  1        2 0.22565700E-01 0.46778647E+02</pdfrwt>
<pdfrwt beam="1">  1       -2 0.57379903E-03 0.46778647E+02</pdfrwt>
<totfact> 0.78808561E+05</totfact>
</mgrwt>
</event>
<event>
 4    1  0.2196664E-002  0.6227943E+02  0.7818608E-02  0.1388508E+00
          2   -1    0    0    0  501  0.00000000000E+00  0.00000000000E+00  0.10063765005E+04  0.10063765005E+04  0.25500000000E-02 0. -1.
         -2   -1    0    0  501    0 -0.00000000000E+00 -0.00000000000E+00 -0.96353609636E+00  0.96353947065E+00  0.25500000000E-02 0. -1.
          2    1    1    2    0  502  0.97800138044E+00  0.30701806585E+02  0.58537770382E+03  0.58618308876E+03  0.25500000000E-02 0. -1.
         -2    1    1    2  502    0 -0.97800138044E+00 -0.30701806585E+02  0.42003526063E+03  0.42115695125E+03  0.25500000000E-02 0. -1.
<mgrwt>
<rscale>  0 0.62279428E+02</rscale>
<asrwt>0</asrwt>
<pdfrwt beam="1">  1        2 0.15482742E+00 0.62279428E+02</pdfrwt>
<pdfrwt beam="2">  1       -2 0.14823633E-03 0.62279428E+02</pdfrwt>
<totfact> 0.66904469E+05</totfact>
</mgrwt>
</event>
<event>
 4    1  0.2196664E-002  0.1302776E+03  0.7818608E-02  0.1227044E+00
          2   -1    0    0    0  501  0.00000000000E+00  0.00000000000E+00  0.96877314481E+03  0.96877314481E+03  0.25500000000E-02 0.  1.
         -2   -1    0    0  501    0 -0.00000000000E+00 -0.00000000000E+00 -0.43798320918E+01  0.43798328341E+01  0.25500000000E-02 0.  1.
          2    1    1    2    0  502  0.38580612372E+02  0.14425348008E+02  0.85914687267E+03  0.86013365423E+03  0.25500000000E-02 0. -1.
         -2    1    1    2  502    0 -0.38580612372E+02 -0.14425348008E+02  0.10524644005E+03  0.11301932342E+03  0.25500000000E-02 0. -1.
<mgrwt>
<rscale>  0 0.13027761E+03</rscale>
<asrwt>0</asrwt>
<pdfrwt beam="1">  1        2 0.14904215E+00 0.13027761E+03</pdfrwt>
<pdfrwt beam="2">  1       -2 0.67381982E-03 0.13027761E+03</pdfrwt>
<totfact> 0.95924709E+04</totfact>
</mgrwt>
</event>
<event>
 4    1  0.2196664E-002  0.8879905E+02  0.7818608E-02  0.1305786E+00
         -2   -1    0    0  501    0 -0.00000000000E+00  0.00000000000E+00  0.13399804640E+03  0.13399804643E+03  0.25500000000E-02 0. -1.
          2   -1    0    0    0  501  0.00000000000E+00 -0.00000000000E+00 -0.14711541326E+02  0.14711541547E+02  0.25500000000E-02 0. -1.
          2    1    1    2    0  502 -0.33720433761E+02 -0.10333770496E+02  0.14474696369E+02  0.38123107260E+02  0.25500000000E-02 0. -1.
         -2    1    1    2  502    0  0.33720433761E+02  0.10333770496E+02  0.10481180871E+03  0.11058648071E+03  0.25500000000E-02 0. -1.
<mgrwt>
<rscale>  0 0.88799050E+02</rscale>
<asrwt>0</asrwt>
<pdfrwt beam="2">  1        2 0.22633141E-02 0.88799050E+02</pdfrwt>
<pdfrwt beam="1">  1       -2 0.20615084E-01 0.88799050E+02</pdfrwt>
<totfact> 0.77698620E+04</totfact>
</mgrwt>
</event>
<event>
 4    1  0.2196664E-002  0.1308088E+03  0.7818608E-02  0.1226261E+00
         -2   -1    0    0  501    0 -0.00000000000E+00  0.00000000000E+00  0.66230420861E+02  0.66230420910E+02  0.25500000000E-02 0.  1.
          2   -1    0    0    0  501  0.00000000000E+00 -0.00000000000E+00 -0.64588654259E+02  0.64588654309E+02  0.25500000000E-02 0.  1.
          2    1    1    2    0  502 -0.13430638226E+00 -0.21091439745E+02  0.62735911020E+02  0.66186565153E+02  0.25500000000E-02 0.  1.
         -2    1    1    2  502    0  0.13430638226E+00  0.21091439745E+02 -0.61094144418E+02  0.64632510066E+02  0.25500000000E-02 0.  1.
<mgrwt>
<rscale>  0 0.13080877E+03</rscale>
<asrwt>0</asrwt>
<pdfrwt beam="2">  1        2 0.99367161E-02 0.13080877E+03</pdfrwt>
<pdfrwt beam="1">  1       -2 0.10189296E-01 0.13080877E+03</pdfrwt>
<totfact> 0.37832035E+04</totfact>
</mgrwt>
</event>
<event>
 4    1  0.2196664E-002  0.5126000E+02  0.7818608E-02  0.1438662E+00
          2   -1    0    0    0  501  0.00000000000E+00  0.00000000000E+00  0.40926683270E+03  0.40926683270E+03  0.25500000000E-02 0.  1.
         -2   -1    0    0  501    0 -0.00000000000E+00 -0.00000000000E+00 -0.16050564560E+01  0.16050584816E+01  0.25500000000E-02 0.  1.
          2    1    1    2    0  502  0.19815945191E+02 -0.16244549442E+02  0.20850268452E+03  0.21007124156E+03  0.25500000000E-02 0. -1.
         -2    1    1    2  502    0 -0.19815945191E+02  0.16244549442E+02  0.19915909172E+03  0.20080064963E+03  0.25500000000E-02 0. -1.
<mgrwt>
<rscale>  0 0.51259996E+02</rscale>
<asrwt>0</asrwt>
<pdfrwt beam="1">  1        2 0.62964108E-01 0.51259996E+02</pdfrwt>
<pdfrwt beam="2">  1       -2 0.24693200E-03 0.51259996E+02</pdfrwt>
<totfact> 0.88496629E+05</totfact>
</mgrwt>
</event>
<event>
 4    1  0.2196664E-002  0.1587142E+03  0.7818608E-02  0.1190156E+00
         -2   -1    0    0  501    0 -0.00000000000E+00  0.00000000000E+00  0.59298373669E+01  0.59298379151E+01  0.25500000000E-02 0.  1.
          2   -1    0    0    0  501  0.00000000000E+00 -0.00000000000E+00 -0.10620108158E+04  0.10620108158E+04  0.25500000000E-02 0.  1.
          2    1    1    2    0  502  0.14505126682E+02 -0.45104704608E+02 -0.95639611862E+03  0.95756898905E+03  0.25500000000E-02 0.  1.
         -2    1    1    2  502    0 -0.14505126682E+02  0.45104704608E+02 -0.99684859780E+02  0.11037166463E+03  0.25500000000E-02 0.  1.
<mgrwt>
<rscale>  0 0.15871423E+03</rscale>
<asrwt>0</asrwt>
<pdfrwt beam="2">  1        2 0.16338613E+00 0.15871423E+03</pdfrwt>
<pdfrwt beam="1">  1       -2 0.91228356E-03 0.15871423E+03</pdfrwt>
<totfact> 0.55920527E+04</totfact>
</mgrwt>
</event>
<event>
 4    1  0.2196664E-002  0.8004244E+02  0.7818608E-02  0.1328931E+00
          2   -1    0    0    0  501  0.00000000000E+00  0.00000000000E+00  0.89497850433E+02  0.89497850469E+02  0.25500000000E-02 0. -1.
         -2   -1    0    0  501    0 -0.00000000000E+00 -0.00000000000E+00 -0.17896498187E+02  0.17896498369E+02  0.25500000000E-02 0. -1.
          2    1    1    2    0  502  0.34239103625E+02  0.16781440981E+02  0.52110418498E+02  0.64571113518E+02  0.25500000000E-02 0.  1.
         -2    1    1    2  502    0 -0.34239103625E+02 -0.16781440981E+02  0.19490933748E+02  0.42823235320E+02  0.25500000000E-02 0.  1.
<mgrwt>
<rscale>  0 0.80042442E+02</rscale>
<asrwt>0</asrwt>
<pdfrwt beam="1">  1        2 0.13768900E-01 0.80042442E+02</pdfrwt>
<pdfrwt beam="2">  1       -2 0.27533074E-02 0.80042442E+02</pdfrwt>
<totfact> 0.16948528E+05</totfact>
</mgrwt>
</event>
<event>
 4    1  0.2196664E-002  0.4473865E+02  0.7818608E-02  0.1475980E+00
          2   -1    0    0    0  501  0.00000000000E+00  0.00000000000E+00  0.13410762466E+04  0.13410762466E+04  0.25500000000E-02 0.  1.
         -2   -1    0    0  501    0 -0.00000000000E+00 -0.00000000000E+00 -0.37311880621E+00  0.37312751983E+00  0.25500000000E-02 0.  1.
          2    1    1    2    0  502 -0.11504607776E+02 -0.17823000985E+02  0.45754609433E+03  0.45803760087E+03  0.25500000000E-02 0.  1.
         -2    1    1    2  502    0  0.11504607776E+02  0.17823000985E+02  0.88315703347E+03  0.88341177326E+03  0.25500000000E-02 0.  1.
<mgrwt>
<rscale>  0 0.44738646E+02</rscale>
<asrwt>0</asrwt>
<pdfrwt beam="1">  1        2 0.20632200E+00 0.44738646E+02</pdfrwt>
<pdfrwt beam="2">  1       -2 0.57402846E-04 0.44738646E+02</pdfrwt>
<totfact> 0.14877581E+06</totfact>
</mgrwt>
</event>
<event>
 4    1  0.2196664E-002  0.4436795E+02  0.7818608E-02  0.1478326E+00
         -2   -1    0    0  501    0 -0.00000000000E+00  0.00000000000E+00  0.26400290172E+00  0.26401521664E+00  0.25500000000E-02 0. -1.
          2   -1    0    0    0  501  0.00000000000E+00 -0.00000000000E+00 -0.18640597049E+04  0.18640597049E+04  0.25500000000E-02 0. -1.
          2    1    1    2    0  502 -0.75974429124E+01 -0.19899445986E+02 -0.67144556299E+03  0.67178333795E+03  0.25500000000E-02 0. -1.
         -2    1    1    2  502    0  0.75974429124E+01  0.19899445986E+02 -0.11923501390E+04  0.11925403822E+04  0.25500000000E-02 0. -1.
<mgrwt>
<rscale>  0 0.44367946E+02</rscale>
<asrwt>0</asrwt>
<pdfrwt beam="2">  1        2 0.28676788E+00 0.44367946E+02</pdfrwt>
<pdfrwt beam="1">  1       -2 0.40618271E-04 0.44367946E+02</pdfrwt>
<totfact> 0.13106653E+06</totfact>
</mgrwt>
</event>
<event>
 4    1  0.2196664E-002  0.4723529E+02  0.7818608E-02  0.1460851E+00
         -2   -1    0    0  501    0 -0.00000000000E+00  0.00000000000E+00  0.33904372408E+01  0.33904381998E+01  0.25500000000E-02 0. -1.
          2   -1    0    0    0  501  0.00000000000E+00 -0.00000000000E+00 -0.16451952191E+03  0.16451952193E+03  0.25500000000E-02 0. -1.
          2    1    1    2    0  502 -0.15898774487E+02 -0.12328618831E+02 -0.36590707715E+02  0.41756984686E+02  0.25500000000E-02 0.  1.
         -2    1    1    2  502    0  0.15898774487E+02  0.12328618831E+02 -0.12453837695E+03  0.12615297544E+03  0.25500000000E-02 0.  1.
<mgrwt>
<rscale>  0 0.47235292E+02</rscale>
<asrwt>0</asrwt>
<pdfrwt beam="2">  1        2 0.25310690E-01 0.47235292E+02</pdfrwt>
<pdfrwt beam="1">  1       -2 0.52160593E-03 0.47235292E+02</pdfrwt>
<totfact> 0.79675277E+05</totfact>
</mgrwt>
</event>
<event>
 4    1  0.2196664E-002  0.7141019E+02  0.7818608E-02  0.1355362E+00
         -2   -1    0    0  501    0 -0.00000000000E+00  0.00000000000E+00  0.16876656672E+01  0.16876675937E+01  0.25500000000E-02 0. -1.
          2   -1    0    0    0  501  0.00000000000E+00 -0.00000000000E+00 -0.75539439890E+03  0.75539439890E+03  0.25500000000E-02 0. -1.
          2    1    1    2    0  502  0.32996466810E+02 -0.12331504566E+02 -0.43869156972E+03  0.44010354029E+03  0.25500000000E-02 0. -1.
         -2    1    1    2  502    0 -0.32996466810E+02  0.12331504566E+02 -0.31501516351E+03  0.31697852621E+03  0.25500000000E-02 0. -1.
<mgrwt>
<rscale>  0 0.71410193E+02</rscale>
<asrwt>0</asrwt>
<pdfrwt beam="2">  1        2 0.11621425E+00 0.71410193E+02</pdfrwt>
<pdfrwt beam="1">  1       -2 0.25964162E-03 0.71410193E+02</pdfrwt>
<totfact> 0.45549645E+05</totfact>
</mgrwt>
</event>
<event>
 4    1  0.2196664E-002  0.4930439E+02  0.7818608E-02  0.1449130E+00
          2   -1    0    0    0  501  0.00000000000E+00  0.00000000000E+00  0.16550391859E+03  0.16550391861E+03  0.25500000000E-02 0.  1.
         -2   -1    0    0  501    0 -0.00000000000E+00 -0.00000000000E+00 -0.36720012709E+01  0.36720021564E+01  0.25500000000E-02 0.  1.
          2    1    1    2    0  502  0.21679737236E+02 -0.76746648736E+01  0.50453220647E+02  0.55447623643E+02  0.25500000000E-02 0.  1.
         -2    1    1    2  502    0 -0.21679737236E+02  0.76746648736E+01  0.11137869668E+03  0.11372829713E+03  0.25500000000E-02 0.  1.
<mgrwt>
<rscale>  0 0.49304388E+02</rscale>
<asrwt>0</asrwt>
<pdfrwt beam="1">  1        2 0.25462142E-01 0.49304388E+02</pdfrwt>
<pdfrwt beam="2">  1       -2 0.56492333E-03 0.49304388E+02</pdfrwt>
<totfact> 0.71713365E+05</totfact>
</mgrwt>
</event>
<event>
 4    1  0.2196664E-002  0.4895790E+02  0.7818608E-02  0.1451045E+00
         -2   -1    0    0  501    0 -0.00000000000E+00  0.00000000000E+00  0.18359847601E+02  0.18359847778E+02  0.25500000000E-02 0.  1.
          2   -1    0    0    0  501  0.00000000000E+00 -0.00000000000E+00 -0.32637473394E+02  0.32637473493E+02  0.25500000000E-02 0.  1.
          2    1    1    2    0  502  0.95186762559E-01 -0.24252182521E+02 -0.10600126702E+02  0.26467718265E+02  0.25500000000E-02 0. -1.
         -2    1    1    2  502    0 -0.95186762559E-01  0.24252182521E+02 -0.36774990913E+01  0.24529603006E+02  0.25500000000E-02 0. -1.
<mgrwt>
<rscale>  0 0.48957902E+02</rscale>
<asrwt>0</asrwt>
<pdfrwt beam="2">  1        2 0.50211498E-02 0.48957902E+02</pdfrwt>
<pdfrwt beam="1">  1       -2 0.28245920E-02 0.48957902E+02</pdfrwt>
<totfact> 0.50274781E+05</totfact>
</mgrwt>
</event>
<event>
 4    1  0.2196664E-002  0.5512448E+02  0.7818608E-02  0.1419511E+00
          2   -1    0    0    0  501  0.00000000000E+00  0.00000000000E+00  0.70424205320E+02  0.70424205366E+02  0.25500000000E-02 0. -1.
         -2   -1    0    0  501    0 -0.00000000000E+00 -0.00000000000E+00 -0.10787156939E+02  0.10787157240E+02  0.25500000000E-02 0. -1.
          2    1    1    2    0  502  0.74888154236E+01 -0.23334013450E+02  0.48402239936E+02  0.54252514941E+02  0.25500000000E-02 0. -1.
         -2    1    1    2  502    0 -0.74888154236E+01  0.23334013450E+02  0.11234808445E+02  0.26958847665E+02  0.25500000000E-02 0. -1.
<mgrwt>
<rscale>  0 0.55124476E+02</rscale>
<asrwt>0</asrwt>
<pdfrwt beam="1">  1        2 0.10834493E-01 0.55124476E+02</pdfrwt>
<pdfrwt beam="2">  1       -2 0.16595627E-02 0.55124476E+02</pdfrwt>
<totfact> 0.42828942E+05</totfact>
</mgrwt>
</event>
<event>
 4    1  0.2196664E-002  0.5042051E+02  0.7818608E-02  0.1443087E+00
         -2   -1    0    0  501    0 -0.00000000000E+00  0.00000000000E+00  0.15009645347E+01  0.15009667008E+01  0.25500000000E-02 0.  1.
          2   -1    0    0    0  501  0.00000000000E+00 -0.00000000000E+00 -0.42343208466E+03  0.42343208467E+03  0.25500000000E-02 0.  1.
          2    1    1    2    0  502 -0.11099831888E+02  0.20543787167E+02 -0.29105322752E+03  0.29198841538E+03  0.25500000000E-02 0.  1.
         -2    1    1    2  502    0  0.11099831888E+02 -0.20543787167E+02 -0.13087789260E+03  0.13294463599E+03  0.25500000000E-02 0.  1.
<mgrwt>
<rscale>  0 0.50420512E+02</rscale>
<asrwt>0</asrwt>
<pdfrwt beam="2">  1        2 0.65143303E-01 0.50420512E+02</pdfrwt>
<pdfrwt beam="1">  1       -2 0.23091812E-03 0.50420512E+02</pdfrwt>
<totfact> 0.93257919E+05</totfact>
</mgrwt>
</event>
<event>
 4    1  0.2196664E-002  0.4074314E+02  0.7818608E-02  0.1502813E+00
         -2   -1    0    0  501    0 -0.00000000000E+00  0.00000000000E+00  0.30760494066E+02  0.30760494172E+02  0.25500000000E-02 0.  1.
          2   -1    0    0    0  501  0.00000000000E+00 -0.00000000000E+00 -0.13491355316E+02  0.13491355557E+02  0.25500000000E-02 0.  1.
          2    1    1    2    0  502  0.10767670091E+02  0.17266567225E+02  0.96784261098E+01  0.22533286520E+02  0.25500000000E-02 0. -1.
         -2    1    1    2  502    0 -0.10767670091E+02 -0.17266567225E+02  0.75907126409E+01  0.21718563208E+02  0.25500000000E-02 0. -1.
<mgrwt>
<rscale>  0 0.40743135E+02</rscale>
<asrwt>0</asrwt>
<pdfrwt beam="2">  1        2 0.20755932E-02 0.40743135E+02</pdfrwt>
<pdfrwt beam="1">  1       -2 0.47323837E-02 0.40743135E+02</pdfrwt>
<totfact> 0.71369777E+05</totfact>
</mgrwt>
</event>
<event>
 4    1  0.2196664E-002  0.4728175E+02  0.7818608E-02  0.1460580E+00
         -2   -1    0    0  501    0 -0.00000000000E+00  0.00000000000E+00  0.11200395571E+01  0.11200424599E+01  0.25500000000E-02 0. -1.
          2   -1    0    0    0  501  0.00000000000E+00 -0.00000000000E+00 -0.49899159934E+03  0.49899159935E+03  0.25500000000E-02 0. -1.
          2    1    1    2    0  502 -0.15720807065E+01  0.22881081059E+02 -0.30958303855E+03  0.31043143055E+03  0.25500000000E-02 0.  1.
         -2    1    1    2  502    0  0.15720807065E+01 -0.22881081059E+02 -0.18828852124E+03  0.18968021126E+03  0.25500000000E-02 0.  1.
<mgrwt>
<rscale>  0 0.47281754E+02</rscale>
<asrwt>0</asrwt>
<pdfrwt beam="2">  1        2 0.76767761E-01 0.47281754E+02</pdfrwt>
<pdfrwt beam="1">  1       -2 0.17231440E-03 0.47281754E+02</pdfrwt>
<totfact> 0.11521328E+06</totfact>
</mgrwt>
</event>
<event>
 4    1  0.2196664E-002  0.6056731E+02  0.7818608E-02  0.1395466E+00
          2   -1    0    0    0  501  0.00000000000E+00  0.00000000000E+00  0.12029048021E+04  0.12029048021E+04  0.25500000000E-02 0. -1.
         -2   -1    0    0  501    0 -0.00000000000E+00 -0.00000000000E+00 -0.76240213369E+00  0.76240639816E+00  0.25500000000E-02 0. -1.
          2    1    1    2    0  502 -0.69609916074E+01  0.28263587697E+02  0.76712134815E+03  0.76767339969E+03  0.25500000000E-02 0.  1.
         -2    1    1    2  502    0  0.69609916074E+01 -0.28263587697E+02  0.43502105176E+03  0.43599380876E+03  0.25500000000E-02 0.  1.
<mgrwt>
<rscale>  0 0.60567310E+02</rscale>
<asrwt>0</asrwt>
<pdfrwt beam="1">  1        2 0.18506277E+00 0.60567310E+02</pdfrwt>
<pdfrwt beam="2">  1       -2 0.11729265E-03 0.60567310E+02</pdfrwt>
<totfact> 0.71375659E+05</totfact>
</mgrwt>
</event>
<event>
 4    1  0.2196664E-002  0.4646869E+02  0.7818608E-02  0.1465376E+00
          2   -1    0    0    0  501  0.00000000000E+00  0.00000000000E+00  0.19514073961E+02  0.19514074128E+02  0.25500000000E-02 0. -1.
         -2   -1    0    0  501    0 -0.00000000000E+00 -0.00000000000E+00 -0.27663868724E+02  0.27663868841E+02  0.25500000000E-02 0. -1.
          2    1    1    2    0  502  0.20274298338E+02 -0.83237388649E+01 -0.11906450994E+02  0.24941840020E+02  0.25500000000E-02 0. -1.
         -2    1    1    2  502    0 -0.20274298338E+02  0.83237388649E+01  0.37566562318E+01  0.22236102949E+02  0.25500000000E-02 0. -1.
<mgrwt>
<rscale>  0 0.46468690E+02</rscale>
<asrwt>0</asrwt>
<pdfrwt beam="1">  1        2 0.30021653E-02 0.46468690E+02</pdfrwt>
<pdfrwt beam="2">  1       -2 0.42559798E-02 0.46468690E+02</pdfrwt>
<totfact> 0.53262783E+05</totfact>
</mgrwt>
</event>
<event>
 4    1  0.2196664E-002  0.6209123E+02  0.7818608E-02  0.1389260E+00
          2   -1    0    0    0  501  0.00000000000E+00  0.00000000000E+00  0.17525773015E+03  0.17525773017E+03  0.25500000000E-02 0.  1.
         -2   -1    0    0  501    0 -0.00000000000E+00 -0.00000000000E+00 -0.54995022849E+01  0.54995028761E+01  0.25500000000E-02 0.  1.
          2    1    1    2    0  502 -0.11190256418E+02 -0.20332742719E+02  0.24850830067E+02  0.34003029670E+02  0.25500000000E-02 0. -1.
         -2    1    1    2  502    0  0.11190256418E+02  0.20332742719E+02  0.14490739780E+03  0.14675420338E+03  0.25500000000E-02 0. -1.
<mgrwt>
<rscale>  0 0.62091234E+02</rscale>
<asrwt>0</asrwt>
<pdfrwt beam="1">  1        2 0.26962728E-01 0.62091234E+02</pdfrwt>
<pdfrwt beam="2">  1       -2 0.84607732E-03 0.62091234E+02</pdfrwt>
<totfact> 0.40654134E+05</totfact>
</mgrwt>
</event>
<event>
 4    1  0.2196664E-002  0.5924624E+02  0.7818608E-02  0.1401022E+00
          2   -1    0    0    0  501  0.00000000000E+00  0.00000000000E+00  0.61307673642E+02  0.61307673695E+02  0.25500000000E-02 0.  1.
         -2   -1    0    0  501    0 -0.00000000000E+00 -0.00000000000E+00 -0.14313530935E+02  0.14313531162E+02  0.25500000000E-02 0.  1.
          2    1    1    2    0  502 -0.13917742521E+02 -0.26130348653E+02  0.22201295428E+02  0.37005353704E+02  0.25500000000E-02 0.  1.
         -2    1    1    2  502    0  0.13917742521E+02  0.26130348653E+02  0.24792847278E+02  0.38615851153E+02  0.25500000000E-02 0.  1.
<mgrwt>
<rscale>  0 0.59246242E+02</rscale>
<asrwt>0</asrwt>
<pdfrwt beam="1">  1        2 0.94319499E-02 0.59246242E+02</pdfrwt>
<pdfrwt beam="2">  1       -2 0.22020817E-02 0.59246242E+02</pdfrwt>
<totfact> 0.34409954E+05</totfact>
</mgrwt>
</event>
<event>
 4    1  0.2196664E-002  0.7435028E+02  0.7818608E-02  0.1345895E+00
         -2   -1    0    0  501    0 -0.00000000000E+00  0.00000000000E+00  0.19158292227E+02  0.19158292396E+02  0.25500000000E-02 0.  1.
          2   -1    0    0    0  501  0.00000000000E+00 -0.00000000000E+00 -0.72135401578E+02  0.72135401623E+02  0.25500000000E-02 0.  1.
          2    1    1    2    0  502 -0.33211417090E+02  0.12511899041E+02 -0.12901380109E+02  0.37762302074E+02  0.25500000000E-02 0. -1.
         -2    1    1    2  502    0  0.33211417090E+02 -0.12511899041E+02 -0.40075729242E+02  0.53531391944E+02  0.25500000000E-02 0. -1.
<mgrwt>
<rscale>  0 0.74350282E+02</rscale>
<asrwt>0</asrwt>
<pdfrwt beam="2">  1        2 0.11097754E-01 0.74350282E+02</pdfrwt>
<pdfrwt beam="1">  1       -2 0.29474296E-02 0.74350282E+02</pdfrwt>
<totfact> 0.19534582E+05</totfact>
</mgrwt>
</event>
<event>
 4    1  0.2196664E-002  0.5328136E+02  0.7818608E-02  0.1428406E+00
          2   -1    0    0    0  501  0.00000000000E+00  0.00000000000E+00  0.55466453990E+03  0.55466453991E+03  0.25500000000E-02 0. -1.
         -2   -1    0    0  501    0 -0.00000000000E+00 -0.00000000000E+00 -0.12795573717E+01  0.12795599126E+01  0.25500000000E-02 0. -1.
          2    1    1    2    0  502 -0.22566190471E+02 -0.14158164892E+02  0.27875878407E+03  0.28002883117E+03  0.25500000000E-02 0.  1.
         -2    1    1    2  502    0  0.22566190471E+02  0.14158164892E+02  0.27462619846E+03  0.27591526864E+03  0.25500000000E-02 0.  1.
<mgrwt>
<rscale>  0 0.53281359E+02</rscale>
<asrwt>0</asrwt>
<pdfrwt beam="1">  1        2 0.85332935E-01 0.53281359E+02</pdfrwt>
<pdfrwt beam="2">  1       -2 0.19685534E-03 0.53281359E+02</pdfrwt>
<totfact> 0.88486884E+05</totfact>
</mgrwt>
</event>
<event>
 4    1  0.2196664E-002  0.4216750E+02  0.7818608E-02  0.1492841E+00
         -2   -1    0    0  501    0 -0.00000000000E+00  0.00000000000E+00  0.11167603517E+01  0.11167632630E+01  0.25500000000E-02 0. -1.
          2   -1    0    0    0  501  0.00000000000E+00 -0.00000000000E+00 -0.39804767439E+03  0.39804767440E+03  0.25500000000E-02 0. -1.
          2    1    1    2    0  502  0.10744280433E+02  0.17325155562E+02 -0.14755556844E+03  0.14895719641E+03  0.25500000000E-02 0.  1.
         -2    1    1    2  502    0 -0.10744280433E+02 -0.17325155562E+02 -0.24937534560E+03  0.25020724125E+03  0.25500000000E-02 0.  1.
<mgrwt>
<rscale>  0 0.42167497E+02</rscale>
<asrwt>0</asrwt>
<pdfrwt beam="2">  1        2 0.61237991E-01 0.42167497E+02</pdfrwt>
<pdfrwt beam="1">  1       -2 0.17180983E-03 0.42167497E+02</pdfrwt>
<totfact> 0.14167891E+06</totfact>
</mgrwt>
</event>
<event>
 4    1  0.2196664E-002  0.7326700E+02  0.7818608E-02  0.1349323E+00
         -2   -1    0    0  501    0 -0.00000000000E+00  0.00000000000E+00  0.11667018011E+01  0.11667045878E+01  0.25500000000E-02 0.  1.
          2   -1    0    0    0  501  0.00000000000E+00 -0.00000000000E+00 -0.11502610420E+04  0.11502610420E+04  0.25500000000E-02 0.  1.
          2    1    1    2    0  502  0.16434135814E+01  0.24874859940E+02 -0.99640050918E+03  0.99671231264E+03  0.25500000000E-02 0. -1.
         -2    1    1    2  502    0 -0.16434135814E+01 -0.24874859940E+02 -0.15269383104E+03  0.15471543398E+03  0.25500000000E-02 0. -1.
<mgrwt>
<rscale>  0 0.73266998E+02</rscale>
<asrwt>0</asrwt>
<pdfrwt beam="2">  1        2 0.17696233E+00 0.73266998E+02</pdfrwt>
<pdfrwt beam="1">  1       -2 0.17949372E-03 0.73266998E+02</pdfrwt>
<totfact> 0.44116104E+05</totfact>
</mgrwt>
</event>
<event>
 4    1  0.2196664E-002  0.7266792E+02  0.7818608E-02  0.1351249E+00
          2   -1    0    0    0  501  0.00000000000E+00  0.00000000000E+00  0.28726064878E+01  0.28726076196E+01  0.25500000000E-02 0.  1.
         -2   -1    0    0  501    0 -0.00000000000E+00 -0.00000000000E+00 -0.45956749352E+03  0.45956749352E+03  0.25500000000E-02 0.  1.
          2    1    1    2    0  502  0.55181957146E+01  0.32829515691E+02 -0.32098949529E+03  0.32271114588E+03  0.25500000000E-02 0. -1.
         -2    1    1    2  502    0 -0.55181957146E+01 -0.32829515691E+02 -0.13570539174E+03  0.13972895526E+03  0.25500000000E-02 0. -1.
<mgrwt>
<rscale>  0 0.72667925E+02</rscale>
<asrwt>0</asrwt>
<pdfrwt beam="1">  1        2 0.44193991E-03 0.72667925E+02</pdfrwt>
<pdfrwt beam="2">  1       -2 0.70702633E-01 0.72667925E+02</pdfrwt>
<totfact> 0.69305784E+04</totfact>
</mgrwt>
</event>
<event>
 4    1  0.2196664E-002  0.4963162E+02  0.7818608E-02  0.1447339E+00
         -2   -1    0    0  501    0 -0.00000000000E+00  0.00000000000E+00  0.10724854814E+01  0.10724885129E+01  0.25500000000E-02 0. -1.
          2   -1    0    0    0  501  0.00000000000E+00 -0.00000000000E+00 -0.57420213757E+03  0.57420213757E+03  0.25500000000E-02 0. -1.
          2    1    1    2    0  502 -0.79211870633E+01 -0.21619475155E+02 -0.39385253540E+03  0.39452498851E+03  0.25500000000E-02 0. -1.
         -2    1    1    2  502    0  0.79211870633E+01  0.21619475155E+02 -0.17927711668E+03  0.18074963757E+03  0.25500000000E-02 0. -1.
<mgrwt>
<rscale>  0 0.49631616E+02</rscale>
<asrwt>0</asrwt>
<pdfrwt beam="2">  1        2 0.88338545E-01 0.49631616E+02</pdfrwt>
<pdfrwt beam="1">  1       -2 0.16499846E-03 0.49631616E+02</pdfrwt>
<totfact> 0.10656630E+06</totfact>
</mgrwt>
</event>
<event>
 4    1  0.2196664E-002  0.6509170E+02  0.7818608E-02  0.1377627E+00
          2   -1    0    0    0  501  0.00000000000E+00  0.00000000000E+00  0.25759075872E+03  0.25759075874E+03  0.25500000000E-02 0.  1.
         -2   -1    0    0  501    0 -0.00000000000E+00 -0.00000000000E+00 -0.41120740947E+01  0.41120748854E+01  0.25500000000E-02 0.  1.
          2    1    1    2    0  502 -0.27202100934E+02  0.16863697646E+02  0.15048897414E+03  0.15385470398E+03  0.25500000000E-02 0.  1.
         -2    1    1    2  502    0  0.27202100934E+02 -0.16863697646E+02  0.10298971049E+03  0.10784812964E+03  0.25500000000E-02 0.  1.
<mgrwt>
<rscale>  0 0.65091701E+02</rscale>
<asrwt>0</asrwt>
<pdfrwt beam="1">  1        2 0.39629349E-01 0.65091701E+02</pdfrwt>
<pdfrwt beam="2">  1       -2 0.63262682E-03 0.65091701E+02</pdfrwt>
<totfact> 0.41107469E+05</totfact>
</mgrwt>
</event>
<event>
 4    1  0.2196664E-002  0.4809868E+02  0.7818608E-02  0.1455875E+00
         -2   -1    0    0  501    0 -0.00000000000E+00  0.00000000000E+00  0.12285961333E+01  0.12285987796E+01  0.25500000000E-02 0. -1.
          2   -1    0    0    0  501  0.00000000000E+00 -0.00000000000E+00 -0.47075691637E+03  0.47075691637E+03  0.25500000000E-02 0. -1.
          2    1    1    2    0  502 -0.20633521164E+02  0.98440031384E+01 -0.30801578332E+03  0.30886302688E+03  0.25500000000E-02 0.  1.
         -2    1    1    2  502    0  0.20633521164E+02 -0.98440031384E+01 -0.16151253691E+03  0.16312248827E+03  0.25500000000E-02 0.  1.
<mgrwt>
<rscale>  0 0.48098680E+02</rscale>
<asrwt>0</asrwt>
<pdfrwt beam="2">  1        2 0.72423997E-01 0.48098680E+02</pdfrwt>
<pdfrwt beam="1">  1       -2 0.18901537E-03 0.48098680E+02</pdfrwt>
<totfact> 0.10846324E+06</totfact>
</mgrwt>
</event>
<event>
 4    1  0.2196664E-002  0.8616236E+02  0.7818608E-02  0.1312421E+00
         -2   -1    0    0  501    0 -0.00000000000E+00  0.00000000000E+00  0.18715234649E+01  0.18715252021E+01  0.25500000000E-02 0.  1.
          2   -1    0    0    0  501  0.00000000000E+00 -0.00000000000E+00 -0.99169861187E+03  0.99169861187E+03  0.25500000000E-02 0.  1.
          2    1    1    2    0  502  0.27882485694E+02 -0.11900692441E+02 -0.14194647567E+03  0.14514772286E+03  0.25500000000E-02 0. -1.
         -2    1    1    2  502    0 -0.27882485694E+02  0.11900692441E+02 -0.84788061273E+03  0.84842241422E+03  0.25500000000E-02 0. -1.
<mgrwt>
<rscale>  0 0.86162360E+02</rscale>
<asrwt>0</asrwt>
<pdfrwt beam="2">  1        2 0.15256860E+00 0.86162360E+02</pdfrwt>
<pdfrwt beam="1">  1       -2 0.28792761E-03 0.86162360E+02</pdfrwt>
<totfact> 0.28993328E+05</totfact>
</mgrwt>
</event>
<event>
 4    1  0.2196664E-002  0.5179059E+02  0.7818608E-02  0.1435916E+00
          2   -1    0    0    0  501  0.00000000000E+00  0.00000000000E+00  0.47062073982E+01  0.47062080890E+01  0.25500000000E-02 0. -1.
         -2   -1    0    0  501    0 -0.00000000000E+00 -0.00000000000E+00 -0.14248548480E+03  0.14248548483E+03  0.25500000000E-02 0. -1.
          2    1    1    2    0  502 -0.19841155179E+02  0.16074768025E+02 -0.56666594873E+02  0.62154425320E+02  0.25500000000E-02 0.  1.
         -2    1    1    2  502    0  0.19841155179E+02 -0.16074768025E+02 -0.81112682531E+02  0.85037267594E+02  0.25500000000E-02 0.  1.
<mgrwt>
<rscale>  0 0.51790590E+02</rscale>
<asrwt>0</asrwt>
<pdfrwt beam="1">  1        2 0.72403207E-03 0.51790590E+02</pdfrwt>
<pdfrwt beam="2">  1       -2 0.21920841E-01 0.51790590E+02</pdfrwt>
<totfact> 0.29268505E+05</totfact>
</mgrwt>
</event>
<event>
 4    1  0.2196664E-002  0.4416964E+02  0.7818608E-02  0.1479593E+00
         -2   -1    0    0  501    0 -0.00000000000E+00  0.00000000000E+00  0.10723715337E+01  0.10723745656E+01  0.25500000000E-02 0.  1.
          2   -1    0    0    0  501  0.00000000000E+00 -0.00000000000E+00 -0.45482230163E+03  0.45482230164E+03  0.25500000000E-02 0.  1.
          2    1    1    2    0  502 -0.53329160797E+00  0.21862723708E+02 -0.19510218366E+03  0.19632403104E+03  0.25500000000E-02 0. -1.
         -2    1    1    2  502    0  0.53329160797E+00 -0.21862723708E+02 -0.25864774644E+03  0.25957064517E+03  0.25500000000E-02 0. -1.
<mgrwt>
<rscale>  0 0.44169636E+02</rscale>
<asrwt>0</asrwt>
<pdfrwt beam="2">  1        2 0.69972508E-01 0.44169636E+02</pdfrwt>
<pdfrwt beam="1">  1       -2 0.16498083E-03 0.44169636E+02</pdfrwt>
<totfact> 0.13220491E+06</totfact>
</mgrwt>
</event>
<event>
 4    1  0.2196664E-002  0.4270274E+02  0.7818608E-02  0.1489215E+00
          2   -1    0    0    0  501  0.00000000000E+00  0.00000000000E+00  0.87711112652E+03  0.87711112652E+03  0.25500000000E-02 0. -1.
         -2   -1    0    0  501    0 -0.00000000000E+00 -0.00000000000E+00 -0.51974981357E+00  0.51975606895E+00  0.25500000000E-02 0. -1.
          2    1    1    2    0  502  0.14016175272E+01 -0.21050255686E+02  0.50584704837E+03  0.50628679041E+03  0.25500000000E-02 0.  1.
         -2    1    1    2  502    0 -0.14016175272E+01  0.21050255686E+02  0.37074432834E+03  0.37134409218E+03  0.25500000000E-02 0.  1.
<mgrwt>
<rscale>  0 0.42702744E+02</rscale>
<asrwt>0</asrwt>
<pdfrwt beam="1">  1        2 0.13493841E+00 0.42702744E+02</pdfrwt>
<pdfrwt beam="2">  1       -2 0.79963038E-04 0.42702744E+02</pdfrwt>
<totfact> 0.16836548E+06</totfact>
</mgrwt>
</event>
<event>
 4    1  0.2196664E-002  0.5385439E+02  0.7818608E-02  0.1425596E+00
         -2   -1    0    0  501    0 -0.00000000000E+00  0.00000000000E+00  0.10398629856E+01  0.10398661122E+01  0.25500000000E-02 0.  1.
          2   -1    0    0    0  501  0.00000000000E+00 -0.00000000000E+00 -0.69727706195E+03  0.69727706196E+03  0.25500000000E-02 0.  1.
          2    1    1    2    0  502 -0.26828367598E+02 -0.22005292301E+01 -0.33922849353E+03  0.34029483462E+03  0.25500000000E-02 0.  1.
         -2    1    1    2  502    0  0.26828367598E+02  0.22005292301E+01 -0.35700870543E+03  0.35802209345E+03  0.25500000000E-02 0.  1.
<mgrwt>
<rscale>  0 0.53854385E+02</rscale>
<asrwt>0</asrwt>
<pdfrwt beam="2">  1        2 0.10727302E+00 0.53854385E+02</pdfrwt>
<pdfrwt beam="1">  1       -2 0.15997972E-03 0.53854385E+02</pdfrwt>
<totfact> 0.91453629E+05</totfact>
</mgrwt>
</event>
<event>
 4    1  0.2196664E-002  0.5336022E+02  0.7818608E-02  0.1428017E+00
          2   -1    0    0    0  501  0.00000000000E+00  0.00000000000E+00  0.69542857570E+03  0.69542857570E+03  0.25500000000E-02 0.  1.
         -2   -1    0    0  501    0 -0.00000000000E+00 -0.00000000000E+00 -0.10235805754E+01  0.10235837518E+01  0.25500000000E-02 0.  1.
          2    1    1    2    0  502 -0.13769438172E+02 -0.19224025964E+02  0.50847013598E+03  0.50901968508E+03  0.25500000000E-02 0. -1.
         -2    1    1    2  502    0  0.13769438172E+02  0.19224025964E+02  0.18593485914E+03  0.18743247438E+03  0.25500000000E-02 0. -1.
<mgrwt>
<rscale>  0 0.53360221E+02</rscale>
<asrwt>0</asrwt>
<pdfrwt beam="1">  1        2 0.10698932E+00 0.53360221E+02</pdfrwt>
<pdfrwt beam="2">  1       -2 0.15747373E-03 0.53360221E+02</pdfrwt>
<totfact> 0.93520250E+05</totfact>
</mgrwt>
</event>
<event>
 4    1  0.2196664E-002  0.6132292E+02  0.7818608E-02  0.1392362E+00
          2   -1    0    0    0  501  0.00000000000E+00  0.00000000000E+00  0.23966140839E+03  0.23966140841E+03  0.25500000000E-02 0. -1.
         -2   -1    0    0  501    0 -0.00000000000E+00 -0.00000000000E+00 -0.39227218729E+01  0.39227227017E+01  0.25500000000E-02 0. -1.
          2    1    1    2    0  502 -0.25741518204E+02  0.60641686742E+01  0.56240079758E+02  0.62147779356E+02  0.25500000000E-02 0.  1.
         -2    1    1    2  502    0  0.25741518204E+02 -0.60641686742E+01  0.17949860676E+03  0.18143635175E+03  0.25500000000E-02 0.  1.
<mgrwt>
<rscale>  0 0.61322921E+02</rscale>
<asrwt>0</asrwt>
<pdfrwt beam="1">  1        2 0.36870978E-01 0.61322921E+02</pdfrwt>
<pdfrwt beam="2">  1       -2 0.60349587E-03 0.61322921E+02</pdfrwt>
<totfact> 0.46706158E+05</totfact>
</mgrwt>
</event>
<event>
 4    1  0.2196664E-002  0.6549482E+02  0.7818608E-02  0.1376120E+00
         -2   -1    0    0  501    0 -0.00000000000E+00  0.00000000000E+00  0.47425158116E+01  0.47425164971E+01  0.25500000000E-02 0.  1.
          2   -1    0    0    0  501  0.00000000000E+00 -0.00000000000E+00 -0.22612321776E+03  0.22612321778E+03  0.25500000000E-02 0.  1.
          2    1    1    2    0  502  0.16027544229E+02  0.19233472256E+02 -0.36282720627E+02  0.44082246445E+02  0.25500000000E-02 0. -1.
         -2    1    1    2  502    0 -0.16027544229E+02 -0.19233472256E+02 -0.18509798133E+03  0.18678348783E+03  0.25500000000E-02 0. -1.
<mgrwt>
<rscale>  0 0.65494825E+02</rscale>
<asrwt>0</asrwt>
<pdfrwt beam="2">  1        2 0.34788179E-01 0.65494825E+02</pdfrwt>
<pdfrwt beam="1">  1       -2 0.72961805E-03 0.65494825E+02</pdfrwt>
<totfact> 0.38641341E+05</totfact>
</mgrwt>
</event>
<event>
 4    1  0.2196664E-002  0.1106146E+03  0.7818608E-02  0.1259436E+00
          2   -1    0    0    0  501  0.00000000000E+00  0.00000000000E+00  0.21673346731E+04  0.21673346731E+04  0.25500000000E-02 0. -1.
         -2   -1    0    0  501    0 -0.00000000000E+00 -0.00000000000E+00 -0.14113636359E+01  0.14113659395E+01  0.25500000000E-02 0. -1.
          2    1    1    2    0  502 -0.40529755898E+02  0.30768270618E+02  0.65810929335E+03  0.66007362437E+03  0.25500000000E-02 0.  1.
         -2    1    1    2  502    0  0.40529755898E+02 -0.30768270618E+02  0.15078140161E+04  0.15086724147E+04  0.25500000000E-02 0.  1.
<mgrwt>
<rscale>  0 0.11061464E+03</rscale>
<asrwt>0</asrwt>
<pdfrwt beam="1">  1        2 0.33343576E+00 0.11061464E+03</pdfrwt>
<pdfrwt beam="2">  1       -2 0.21713327E-03 0.11061464E+03</pdfrwt>
<totfact> 0.10804990E+05</totfact>
</mgrwt>
</event>
<event>
 4    1  0.2196664E-002  0.6762780E+02  0.7818608E-02  0.1368351E+00
          2   -1    0    0    0  501  0.00000000000E+00  0.00000000000E+00  0.21209151352E+03  0.21209151354E+03  0.25500000000E-02 0.  1.
         -2   -1    0    0  501    0 -0.00000000000E+00 -0.00000000000E+00 -0.53909732929E+01  0.53909738960E+01  0.25500000000E-02 0.  1.
          2    1    1    2    0  502 -0.29747472425E+02 -0.11913952564E+02  0.13806463965E+03  0.14173460802E+03  0.25500000000E-02 0.  1.
         -2    1    1    2  502    0  0.29747472425E+02  0.11913952564E+02  0.68635900577E+02  0.75747879415E+02  0.25500000000E-02 0.  1.
<mgrwt>
<rscale>  0 0.67627798E+02</rscale>
<asrwt>0</asrwt>
<pdfrwt beam="1">  1        2 0.32629461E-01 0.67627798E+02</pdfrwt>
<pdfrwt beam="2">  1       -2 0.82938061E-03 0.67627798E+02</pdfrwt>
<totfact> 0.34778594E+05</totfact>
</mgrwt>
</event>
<event>
 4    1  0.2196664E-002  0.6451808E+02  0.7818608E-02  0.1379794E+00
          2   -1    0    0    0  501  0.00000000000E+00  0.00000000000E+00  0.65908512021E+03  0.65908512021E+03  0.25500000000E-02 0.  1.
         -2   -1    0    0  501    0 -0.00000000000E+00 -0.00000000000E+00 -0.15789233688E+01  0.15789254280E+01  0.25500000000E-02 0.  1.
          2    1    1    2    0  502  0.27278873398E+00  0.31468838121E+02  0.25614057698E+03  0.25806657546E+03  0.25500000000E-02 0. -1.
         -2    1    1    2  502    0 -0.27278873398E+00 -0.31468838121E+02  0.40136561986E+03  0.40259747018E+03  0.25500000000E-02 0. -1.
<mgrwt>
<rscale>  0 0.64518077E+02</rscale>
<asrwt>0</asrwt>
<pdfrwt beam="1">  1        2 0.10139770E+00 0.64518077E+02</pdfrwt>
<pdfrwt beam="2">  1       -2 0.24291147E-03 0.64518077E+02</pdfrwt>
<totfact> 0.57269005E+05</totfact>
</mgrwt>
</event>
<event>
 4    1  0.2196664E-002  0.5158911E+02  0.7818608E-02  0.1436954E+00
          2   -1    0    0    0  501  0.00000000000E+00  0.00000000000E+00  0.45311570937E+02  0.45311571009E+02  0.25500000000E-02 0.  1.
         -2   -1    0    0  501    0 -0.00000000000E+00 -0.00000000000E+00 -0.14684085233E+02  0.14684085454E+02  0.25500000000E-02 0.  1.
          2    1    1    2    0  502 -0.84614611031E+01  0.22927571938E+02  0.24909971288E+02  0.34896655356E+02  0.25500000000E-02 0.  1.
         -2    1    1    2  502    0  0.84614611031E+01 -0.22927571938E+02  0.57175144165E+01  0.25099001107E+02  0.25500000000E-02 0.  1.
<mgrwt>
<rscale>  0 0.51589107E+02</rscale>
<asrwt>0</asrwt>
<pdfrwt beam="1">  1        2 0.69710109E-02 0.51589107E+02</pdfrwt>
<pdfrwt beam="2">  1       -2 0.22590901E-02 0.51589107E+02</pdfrwt>
<totfact> 0.46453971E+05</totfact>
</mgrwt>
</event>
<event>
 4    1  0.2196664E-002  0.5996849E+02  0.7818608E-02  0.1397964E+00
         -2   -1    0    0  501    0 -0.00000000000E+00  0.00000000000E+00  0.45748100096E+00  0.45748810775E+00  0.25500000000E-02 0.  1.
          2   -1    0    0    0  501  0.00000000000E+00 -0.00000000000E+00 -0.19652140853E+04  0.19652140853E+04  0.25500000000E-02 0.  1.
          2    1    1    2    0  502  0.28122654521E+01 -0.28568664591E+02 -0.69855128683E+03  0.69914088549E+03  0.25500000000E-02 0.  1.
         -2    1    1    2  502    0 -0.28122654521E+01  0.28568664591E+02 -0.12662053175E+04  0.12665306879E+04  0.25500000000E-02 0.  1.
<mgrwt>
<rscale>  0 0.59968495E+02</rscale>
<asrwt>0</asrwt>
<pdfrwt beam="2">  1        2 0.30233387E+00 0.59968495E+02</pdfrwt>
<pdfrwt beam="1">  1       -2 0.70383813E-04 0.59968495E+02</pdfrwt>
<totfact> 0.59186227E+05</totfact>
</mgrwt>
</event>
<event>
 4    1  0.2196664E-002  0.4405357E+02  0.7818608E-02  0.1480338E+00
          2   -1    0    0    0  501  0.00000000000E+00  0.00000000000E+00  0.62569197116E+01  0.62569202312E+01  0.25500000000E-02 0. -1.
         -2   -1    0    0  501    0 -0.00000000000E+00 -0.00000000000E+00 -0.77542833110E+02  0.77542833152E+02  0.25500000000E-02 0. -1.
          2    1    1    2    0  502 -0.89452091860E+01  0.20114794869E+02 -0.37063343514E+02  0.43108156757E+02  0.25500000000E-02 0. -1.
         -2    1    1    2  502    0  0.89452091860E+01 -0.20114794869E+02 -0.34222569884E+02  0.40691596626E+02  0.25500000000E-02 0. -1.
<mgrwt>
<rscale>  0 0.44053572E+02</rscale>
<asrwt>0</asrwt>
<pdfrwt beam="1">  1        2 0.96260313E-03 0.44053572E+02</pdfrwt>
<pdfrwt beam="2">  1       -2 0.11929666E-01 0.44053572E+02</pdfrwt>
<totfact> 0.50873024E+05</totfact>
</mgrwt>
</event>
<event>
 4    1  0.2196664E-002  0.4594716E+02  0.7818608E-02  0.1468514E+00
          2   -1    0    0    0  501  0.00000000000E+00  0.00000000000E+00  0.19730511497E+03  0.19730511499E+03  0.25500000000E-02 0. -1.
         -2   -1    0    0  501    0 -0.00000000000E+00 -0.00000000000E+00 -0.26749704886E+01  0.26749717040E+01  0.25500000000E-02 0. -1.
          2    1    1    2    0  502  0.20019575889E+02 -0.76856750957E+01  0.13318798939E+03  0.13490327478E+03  0.25500000000E-02 0.  1.
         -2    1    1    2  502    0 -0.20019575889E+02  0.76856750957E+01  0.61442155092E+02  0.65076811918E+02  0.25500000000E-02 0.  1.
<mgrwt>
<rscale>  0 0.45947165E+02</rscale>
<asrwt>0</asrwt>
<pdfrwt beam="1">  1        2 0.30354636E-01 0.45947165E+02</pdfrwt>
<pdfrwt beam="2">  1       -2 0.41153397E-03 0.45947165E+02</pdfrwt>
<totfact> 0.90461962E+05</totfact>
</mgrwt>
</event>
<event>
 4    1  0.2196664E-002  0.5880032E+02  0.7818608E-02  0.1402936E+00
          2   -1    0    0    0  501  0.00000000000E+00  0.00000000000E+00  0.15109287536E+02  0.15109287751E+02  0.25500000000E-02 0. -1.
         -2   -1    0    0  501    0 -0.00000000000E+00 -0.00000000000E+00 -0.57207815302E+02  0.57207815359E+02  0.25500000000E-02 0. -1.
          2    1    1    2    0  502 -0.25081766142E+02  0.86262097956E+01 -0.54505345646E+01  0.27077939762E+02  0.25500000000E-02 0.  1.
         -2    1    1    2  502    0  0.25081766142E+02 -0.86262097956E+01 -0.36647993202E+02  0.45239163348E+02  0.25500000000E-02 0.  1.
<mgrwt>
<rscale>  0 0.58800318E+02</rscale>
<asrwt>0</asrwt>
<pdfrwt beam="1">  1        2 0.23245058E-02 0.58800318E+02</pdfrwt>
<pdfrwt beam="2">  1       -2 0.88012023E-02 0.58800318E+02</pdfrwt>
<totfact> 0.26890660E+05</totfact>
</mgrwt>
</event>
<event>
 4    1  0.2196664E-002  0.4861698E+02  0.7818608E-02  0.1452947E+00
         -2   -1    0    0  501    0 -0.00000000000E+00  0.00000000000E+00  0.28183034861E+03  0.28183034862E+03  0.25500000000E-02 0. -1.
          2   -1    0    0    0  501  0.00000000000E+00 -0.00000000000E+00 -0.20966603652E+01  0.20966619159E+01  0.25500000000E-02 0. -1.
          2    1    1    2    0  502 -0.23177924595E+02  0.71950022583E+01  0.13177777437E+03  0.13399390311E+03  0.25500000000E-02 0.  1.
         -2    1    1    2  502    0  0.23177924595E+02 -0.71950022583E+01  0.14795591388E+03  0.14993310743E+03  0.25500000000E-02 0.  1.
<mgrwt>
<rscale>  0 0.48616982E+02</rscale>
<asrwt>0</asrwt>
<pdfrwt beam="2">  1        2 0.32256341E-03 0.48616982E+02</pdfrwt>
<pdfrwt beam="1">  1       -2 0.43358494E-01 0.48616982E+02</pdfrwt>
<totfact> 0.25731044E+05</totfact>
</mgrwt>
</event>
<event>
 4    1  0.2196664E-002  0.5160205E+02  0.7818608E-02  0.1436887E+00
         -2   -1    0    0  501    0 -0.00000000000E+00  0.00000000000E+00  0.14317833739E+03  0.14317833742E+03  0.25500000000E-02 0.  1.
          2   -1    0    0    0  501  0.00000000000E+00 -0.00000000000E+00 -0.46493962131E+01  0.46493969123E+01  0.25500000000E-02 0.  1.
          2    1    1    2    0  502  0.14602961412E+02 -0.19732717326E+02  0.92014789057E+02  0.95233124630E+02  0.25500000000E-02 0.  1.
         -2    1    1    2  502    0 -0.14602961412E+02  0.19732717326E+02  0.46514152124E+02  0.52594609699E+02  0.25500000000E-02 0.  1.
<mgrwt>
<rscale>  0 0.51602049E+02</rscale>
<asrwt>0</asrwt>
<pdfrwt beam="2">  1        2 0.71529189E-03 0.51602049E+02</pdfrwt>
<pdfrwt beam="1">  1       -2 0.22027433E-01 0.51602049E+02</pdfrwt>
<totfact> 0.29485452E+05</totfact>
</mgrwt>
</event>
<event>
 4    1  0.2196664E-002  0.7033017E+02  0.7818608E-02  0.1358974E+00
         -2   -1    0    0  501    0 -0.00000000000E+00  0.00000000000E+00  0.28130358045E+01  0.28130369603E+01  0.25500000000E-02 0.  1.
          2   -1    0    0    0  501  0.00000000000E+00 -0.00000000000E+00 -0.43959022796E+03  0.43959022797E+03  0.25500000000E-02 0.  1.
          2    1    1    2    0  502 -0.30423680008E+02  0.14558453743E+02 -0.15578926093E+03  0.15939837737E+03  0.25500000000E-02 0.  1.
         -2    1    1    2  502    0  0.30423680008E+02 -0.14558453743E+02 -0.28098793123E+03  0.28300488756E+03  0.25500000000E-02 0.  1.
<mgrwt>
<rscale>  0 0.70330173E+02</rscale>
<asrwt>0</asrwt>
<pdfrwt beam="2">  1        2 0.67629212E-01 0.70330173E+02</pdfrwt>
<pdfrwt beam="1">  1       -2 0.43277518E-03 0.70330173E+02</pdfrwt>
<totfact> 0.40681829E+05</totfact>
</mgrwt>
</event>
<event>
 4    1  0.2196664E-002  0.4727277E+02  0.7818608E-02  0.1460632E+00
         -2   -1    0    0  501    0 -0.00000000000E+00  0.00000000000E+00  0.55423730202E+00  0.55424316816E+00  0.25500000000E-02 0. -1.
          2   -1    0    0    0  501  0.00000000000E+00 -0.00000000000E+00 -0.10080081795E+04  0.10080081795E+04  0.25500000000E-02 0. -1.
          2    1    1    2    0  502 -0.13998422362E+02  0.15752775390E+02 -0.73209364949E+03  0.73239689881E+03  0.25500000000E-02 0.  1.
         -2    1    1    2  502    0  0.13998422362E+02 -0.15752775390E+02 -0.27536029270E+03  0.27616552385E+03  0.25500000000E-02 0.  1.
<mgrwt>
<rscale>  0 0.47272770E+02</rscale>
<asrwt>0</asrwt>
<pdfrwt beam="2">  1        2 0.15507671E+00 0.47272770E+02</pdfrwt>
<pdfrwt beam="1">  1       -2 0.85268536E-04 0.47272770E+02</pdfrwt>
<totfact> 0.13295123E+06</totfact>
</mgrwt>
</event>
<event>
 4    1  0.2196664E-002  0.6282726E+02  0.7818608E-02  0.1386336E+00
         -2   -1    0    0  501    0 -0.00000000000E+00  0.00000000000E+00  0.59926404401E+00  0.59926946939E+00  0.25500000000E-02 0. -1.
          2   -1    0    0    0  501  0.00000000000E+00 -0.00000000000E+00 -0.16467058884E+04  0.16467058884E+04  0.25500000000E-02 0. -1.
          2    1    1    2    0  502  0.28167075384E+02  0.25367148779E+01 -0.11815980148E+04  0.11819364144E+04  0.25500000000E-02 0.  1.
         -2    1    1    2  502    0 -0.28167075384E+02 -0.25367148779E+01 -0.46450860957E+03  0.46536874350E+03  0.25500000000E-02 0.  1.
<mgrwt>
<rscale>  0 0.62827258E+02</rscale>
<asrwt>0</asrwt>
<pdfrwt beam="2">  1        2 0.25333575E+00 0.62827258E+02</pdfrwt>
<pdfrwt beam="1">  1       -2 0.92196204E-04 0.62827258E+02</pdfrwt>
<totfact> 0.59329313E+05</totfact>
</mgrwt>
</event>
<event>
 4    1  0.2196664E-002  0.5125708E+02  0.7818608E-02  0.1438677E+00
          2   -1    0    0    0  501  0.00000000000E+00  0.00000000000E+00  0.61820424432E+03  0.61820424433E+03  0.25500000000E-02 0.  1.
         -2   -1    0    0  501    0 -0.00000000000E+00 -0.00000000000E+00 -0.10624661608E+01  0.10624692209E+01  0.25500000000E-02 0.  1.
          2    1    1    2    0  502 -0.24766888584E+02  0.65892486323E+01  0.30771105755E+03  0.30877647564E+03  0.25500000000E-02 0.  1.
         -2    1    1    2  502    0  0.24766888584E+02 -0.65892486323E+01  0.30943072061E+03  0.31049023790E+03  0.25500000000E-02 0.  1.
<mgrwt>
<rscale>  0 0.51257079E+02</rscale>
<asrwt>0</asrwt>
<pdfrwt beam="1">  1        2 0.95108326E-01 0.51257079E+02</pdfrwt>
<pdfrwt beam="2">  1       -2 0.16345660E-03 0.51257079E+02</pdfrwt>
<totfact> 0.10039958E+06</totfact>
</mgrwt>
</event>
<event>
 4    1  0.2196664E-002  0.5955445E+02  0.7818608E-02  0.1399711E+00
          2   -1    0    0    0  501  0.00000000000E+00  0.00000000000E+00  0.79224808947E+02  0.79224808988E+02  0.25500000000E-02 0. -1.
         -2   -1    0    0  501    0 -0.00000000000E+00 -0.00000000000E+00 -0.11191989057E+02  0.11191989347E+02  0.25500000000E-02 0. -1.
          2    1    1    2    0  502 -0.28023525198E+02  0.28578917491E+01  0.48673152805E+02  0.56236654597E+02  0.25500000000E-02 0.  1.
         -2    1    1    2  502    0  0.28023525198E+02 -0.28578917491E+01  0.19359667086E+02  0.34180143738E+02  0.25500000000E-02 0.  1.
<mgrwt>
<rscale>  0 0.59554453E+02</rscale>
<asrwt>0</asrwt>
<pdfrwt beam="1">  1        2 0.12188432E-01 0.59554453E+02</pdfrwt>
<pdfrwt beam="2">  1       -2 0.17218445E-02 0.59554453E+02</pdfrwt>
<totfact> 0.36026817E+05</totfact>
</mgrwt>
</event>
<event>
 4    1  0.2196664E-002  0.1663917E+03  0.7818608E-02  0.1181664E+00
          2   -1    0    0    0  501  0.00000000000E+00  0.00000000000E+00  0.13338183608E+04  0.13338183608E+04  0.25500000000E-02 0.  1.
         -2   -1    0    0  501    0 -0.00000000000E+00 -0.00000000000E+00 -0.51892714033E+01  0.51892720299E+01  0.25500000000E-02 0.  1.
          2    1    1    2    0  502 -0.38666975027E+02  0.18976078434E+02  0.12371076577E+04  0.12378572548E+04  0.25500000000E-02 0.  1.
         -2    1    1    2  502    0  0.38666975027E+02 -0.18976078434E+02  0.91521431716E+02  0.10115037805E+03  0.25500000000E-02 0.  1.
<mgrwt>
<rscale>  0 0.16639166E+03</rscale>
<asrwt>0</asrwt>
<pdfrwt beam="1">  1        2 0.20520281E+00 0.16639166E+03</pdfrwt>
<pdfrwt beam="2">  1       -2 0.79834955E-03 0.16639166E+03</pdfrwt>
<totfact> 0.47889921E+04</totfact>
</mgrwt>
</event>
<event>
 4    1  0.2196664E-002  0.4495098E+02  0.7818608E-02  0.1474648E+00
         -2   -1    0    0  501    0 -0.00000000000E+00  0.00000000000E+00  0.31180736868E+01  0.31180747295E+01  0.25500000000E-02 0. -1.
          2   -1    0    0    0  501  0.00000000000E+00 -0.00000000000E+00 -0.16200631441E+03  0.16200631443E+03  0.25500000000E-02 0. -1.
          2    1    1    2    0  502 -0.12204866243E+02 -0.16025178161E+02 -0.11606487052E+03  0.11779991201E+03  0.25500000000E-02 0. -1.
         -2    1    1    2  502    0  0.12204866243E+02  0.16025178161E+02 -0.42823370206E+02  0.47324477148E+02  0.25500000000E-02 0. -1.
<mgrwt>
<rscale>  0 0.44950983E+02</rscale>
<asrwt>0</asrwt>
<pdfrwt beam="2">  1        2 0.24924042E-01 0.44950983E+02</pdfrwt>
<pdfrwt beam="1">  1       -2 0.47970385E-03 0.44950983E+02</pdfrwt>
<totfact> 0.89694567E+05</totfact>
</mgrwt>
</event>
<event>
 4    1  0.2196664E-002  0.4738919E+02  0.7818608E-02  0.1459955E+00
          2   -1    0    0    0  501  0.00000000000E+00  0.00000000000E+00  0.18277003440E+04  0.18277003440E+04  0.25500000000E-02 0.  1.
         -2   -1    0    0  501    0 -0.00000000000E+00 -0.00000000000E+00 -0.30717519434E+00  0.30718577851E+00  0.25500000000E-02 0.  1.
          2    1    1    2    0  502 -0.23538402271E+02 -0.13283300277E+01  0.10050863498E+04  0.10053628158E+04  0.25500000000E-02 0.  1.
         -2    1    1    2  502    0  0.23538402271E+02  0.13283300277E+01  0.82230681900E+03  0.82264471397E+03  0.25500000000E-02 0.  1.
<mgrwt>
<rscale>  0 0.47389192E+02</rscale>
<asrwt>0</asrwt>
<pdfrwt beam="1">  1        2 0.28119605E+00 0.47389192E+02</pdfrwt>
<pdfrwt beam="2">  1       -2 0.47256623E-04 0.47389192E+02</pdfrwt>
<totfact> 0.11298082E+06</totfact>
</mgrwt>
</event>
<event>
 4    1  0.2196664E-002  0.1311122E+03  0.7818608E-02  0.1225815E+00
         -2   -1    0    0  501    0 -0.00000000000E+00  0.00000000000E+00  0.31189079424E+01  0.31189089848E+01  0.25500000000E-02 0.  1.
          2   -1    0    0    0  501  0.00000000000E+00 -0.00000000000E+00 -0.13779177240E+04  0.13779177240E+04  0.25500000000E-02 0.  1.
          2    1    1    2    0  502 -0.50406189921E+02 -0.39998304007E+02 -0.81935998602E+03  0.82188285966E+03  0.25500000000E-02 0.  1.
         -2    1    1    2  502    0  0.50406189921E+02  0.39998304007E+02 -0.55543883002E+03  0.55915377331E+03  0.25500000000E-02 0.  1.
<mgrwt>
<rscale>  0 0.13111215E+03</rscale>
<asrwt>0</asrwt>
<pdfrwt beam="2">  1        2 0.21198686E+00 0.13111215E+03</pdfrwt>
<pdfrwt beam="1">  1       -2 0.47983317E-03 0.13111215E+03</pdfrwt>
<totfact> 0.91591146E+04</totfact>
</mgrwt>
</event>
<event>
 4    1  0.2196664E-002  0.5062430E+02  0.7818608E-02  0.1442003E+00
          2   -1    0    0    0  501  0.00000000000E+00  0.00000000000E+00  0.29948947407E+03  0.29948947408E+03  0.25500000000E-02 0.  1.
         -2   -1    0    0  501    0 -0.00000000000E+00 -0.00000000000E+00 -0.21393228209E+01  0.21393243406E+01  0.25500000000E-02 0.  1.
          2    1    1    2    0  502 -0.13397413146E+02  0.18261400048E+02  0.21601452469E+03  0.21719862867E+03  0.25500000000E-02 0.  1.
         -2    1    1    2  502    0  0.13397413146E+02 -0.18261400048E+02  0.81335626559E+02  0.84430169755E+02  0.25500000000E-02 0.  1.
<mgrwt>
<rscale>  0 0.50624298E+02</rscale>
<asrwt>0</asrwt>
<pdfrwt beam="1">  1        2 0.46075330E-01 0.50624298E+02</pdfrwt>
<pdfrwt beam="2">  1       -2 0.32912652E-03 0.50624298E+02</pdfrwt>
<totfact> 0.81971347E+05</totfact>
</mgrwt>
</event>
<event>
 4    1  0.2196664E-002  0.7608913E+02  0.7818608E-02  0.1340531E+00
         -2   -1    0    0  501    0 -0.00000000000E+00  0.00000000000E+00  0.53449903500E+00  0.53450511776E+00  0.25500000000E-02 0. -1.
          2   -1    0    0    0  501  0.00000000000E+00 -0.00000000000E+00 -0.27079200800E+04  0.27079200800E+04  0.25500000000E-02 0. -1.
          2    1    1    2    0  502 -0.85707722500E+01 -0.34663263374E+02 -0.88633053190E+03  0.88704949792E+03  0.25500000000E-02 0.  1.
         -2    1    1    2  502    0  0.85707722500E+01  0.34663263374E+02 -0.18210550491E+04  0.18214050872E+04  0.25500000000E-02 0.  1.
<mgrwt>
<rscale>  0 0.76089130E+02</rscale>
<asrwt>0</asrwt>
<pdfrwt beam="2">  1        2 0.41659211E+00 0.76089130E+02</pdfrwt>
<pdfrwt beam="1">  1       -2 0.82233257E-04 0.76089130E+02</pdfrwt>
<totfact> 0.20716614E+05</totfact>
</mgrwt>
</event>
<event>
 4    1  0.2196664E-002  0.4591086E+02  0.7818608E-02  0.1468734E+00
          2   -1    0    0    0  501  0.00000000000E+00  0.00000000000E+00  0.14226631463E+02  0.14226631692E+02  0.25500000000E-02 0.  1.
         -2   -1    0    0  501    0 -0.00000000000E+00 -0.00000000000E+00 -0.37039813662E+02  0.37039813749E+02  0.25500000000E-02 0.  1.
          2    1    1    2    0  502  0.83614358564E+01  0.21151479153E+02 -0.79372166531E+01  0.24089377216E+02  0.25500000000E-02 0.  1.
         -2    1    1    2  502    0 -0.83614358564E+01 -0.21151479153E+02 -0.14875965545E+02  0.27177068226E+02  0.25500000000E-02 0.  1.
<mgrwt>
<rscale>  0 0.45910861E+02</rscale>
<asrwt>0</asrwt>
<pdfrwt beam="1">  1        2 0.21887126E-02 0.45910861E+02</pdfrwt>
<pdfrwt beam="2">  1       -2 0.56984329E-02 0.45910861E+02</pdfrwt>
<totfact> 0.52464426E+05</totfact>
</mgrwt>
</event>
<event>
 4    1  0.2196664E-002  0.8319685E+02  0.7818608E-02  0.1320216E+00
          2   -1    0    0    0  501  0.00000000000E+00  0.00000000000E+00  0.13589974557E+02  0.13589974796E+02  0.25500000000E-02 0. -1.
         -2   -1    0    0  501    0 -0.00000000000E+00 -0.00000000000E+00 -0.12733127880E+03  0.12733127882E+03  0.25500000000E-02 0. -1.
          2    1    1    2    0  502 -0.15099671498E+02 -0.20736589270E+02 -0.11233994303E+03  0.11523137169E+03  0.25500000000E-02 0.  1.
         -2    1    1    2  502    0  0.15099671498E+02  0.20736589270E+02 -0.14013612076E+01  0.25689881931E+02  0.25500000000E-02 0.  1.
<mgrwt>
<rscale>  0 0.83196847E+02</rscale>
<asrwt>0</asrwt>
<pdfrwt beam="1">  1        2 0.20907654E-02 0.83196847E+02</pdfrwt>
<pdfrwt beam="2">  1       -2 0.19589427E-01 0.83196847E+02</pdfrwt>
<totfact> 0.93109026E+04</totfact>
</mgrwt>
</event>
<event>
 4    1  0.2196664E-002  0.7547223E+02  0.7818608E-02  0.1342415E+00
          2   -1    0    0    0  501  0.00000000000E+00  0.00000000000E+00  0.67218905173E+03  0.67218905173E+03  0.25500000000E-02 0.  1.
         -2   -1    0    0  501    0 -0.00000000000E+00 -0.00000000000E+00 -0.21184723244E+01  0.21184738592E+01  0.25500000000E-02 0.  1.
          2    1    1    2    0  502 -0.20877213955E+02 -0.15601609353E+02  0.57885844501E+03  0.57944487887E+03  0.25500000000E-02 0. -1.
         -2    1    1    2  502    0  0.20877213955E+02  0.15601609353E+02  0.91212134393E+02  0.94862646727E+02  0.25500000000E-02 0. -1.
<mgrwt>
<rscale>  0 0.75472231E+02</rscale>
<asrwt>0</asrwt>
<pdfrwt beam="1">  1        2 0.10341363E+00 0.75472231E+02</pdfrwt>
<pdfrwt beam="2">  1       -2 0.32591915E-03 0.75472231E+02</pdfrwt>
<totfact> 0.38485376E+05</totfact>
</mgrwt>
</event>
<event>
 4    1  0.2196664E-002  0.7329682E+02  0.7818608E-02  0.1349228E+00
         -2   -1    0    0  501    0 -0.00000000000E+00  0.00000000000E+00  0.73293308370E+00  0.73293751963E+00  0.25500000000E-02 0. -1.
          2   -1    0    0    0  501  0.00000000000E+00 -0.00000000000E+00 -0.18325025000E+04  0.18325025000E+04  0.25500000000E-02 0. -1.
          2    1    1    2    0  502  0.24978555537E+02 -0.15267978566E+02 -0.36446680241E+03  0.36564065621E+03  0.25500000000E-02 0. -1.
         -2    1    1    2  502    0 -0.24978555537E+02  0.15267978566E+02 -0.14673027645E+04  0.14675947813E+04  0.25500000000E-02 0. -1.
<mgrwt>
<rscale>  0 0.73296815E+02</rscale>
<asrwt>0</asrwt>
<pdfrwt beam="2">  1        2 0.28191979E+00 0.73296815E+02</pdfrwt>
<pdfrwt beam="1">  1       -2 0.11276074E-03 0.73296815E+02</pdfrwt>
<totfact> 0.37427568E+05</totfact>
</mgrwt>
</event>
<event>
 4    1  0.2196664E-002  0.4767743E+02  0.7818608E-02  0.1458287E+00
         -2   -1    0    0  501    0 -0.00000000000E+00  0.00000000000E+00  0.27150299908E+02  0.27150300028E+02  0.25500000000E-02 0.  1.
          2   -1    0    0    0  501  0.00000000000E+00 -0.00000000000E+00 -0.20931048830E+02  0.20931048985E+02  0.25500000000E-02 0.  1.
          2    1    1    2    0  502  0.96815119979E+01  0.20815187634E+02  0.95890515121E+01  0.24878778632E+02  0.25500000000E-02 0.  1.
         -2    1    1    2  502    0 -0.96815119979E+01 -0.20815187634E+02 -0.33698004339E+01  0.23202570381E+02  0.25500000000E-02 0.  1.
<mgrwt>
<rscale>  0 0.47677427E+02</rscale>
<asrwt>0</asrwt>
<pdfrwt beam="2">  1        2 0.32201614E-02 0.47677427E+02</pdfrwt>
<pdfrwt beam="1">  1       -2 0.41769692E-02 0.47677427E+02</pdfrwt>
<totfact> 0.50301126E+05</totfact>
</mgrwt>
</event>
<event>
 4    1  0.2196664E-002  0.6678356E+02  0.7818608E-02  0.1371385E+00
         -2   -1    0    0  501    0 -0.00000000000E+00  0.00000000000E+00  0.14003272282E+02  0.14003272514E+02  0.25500000000E-02 0.  1.
          2   -1    0    0    0  501  0.00000000000E+00 -0.00000000000E+00 -0.79625038561E+02  0.79625038602E+02  0.25500000000E-02 0.  1.
          2    1    1    2    0  502 -0.31446000792E+02  0.90902550009E+00 -0.48506258819E+02  0.57814655965E+02  0.25500000000E-02 0.  1.
         -2    1    1    2  502    0  0.31446000792E+02 -0.90902550009E+00 -0.17115507460E+02  0.35813655151E+02  0.25500000000E-02 0.  1.
<mgrwt>
<rscale>  0 0.66783564E+02</rscale>
<asrwt>0</asrwt>
<pdfrwt beam="2">  1        2 0.12250006E-01 0.66783564E+02</pdfrwt>
<pdfrwt beam="1">  1       -2 0.21543496E-02 0.66783564E+02</pdfrwt>
<totfact> 0.26691520E+05</totfact>
</mgrwt>
</event>
<event>
 4    1  0.2196664E-002  0.7858226E+02  0.7818608E-02  0.1333124E+00
         -2   -1    0    0  501    0 -0.00000000000E+00  0.00000000000E+00  0.74465884985E+01  0.74465889351E+01  0.25500000000E-02 0.  1.
          2   -1    0    0    0  501  0.00000000000E+00 -0.00000000000E+00 -0.20731544961E+03  0.20731544963E+03  0.25500000000E-02 0.  1.
          2    1    1    2    0  502 -0.39207138442E+02  0.22279303893E+01 -0.10342310942E+03  0.11062776752E+03  0.25500000000E-02 0.  1.
         -2    1    1    2  502    0  0.39207138442E+02 -0.22279303893E+01 -0.96445751699E+02  0.10413427104E+03  0.25500000000E-02 0.  1.
<mgrwt>
<rscale>  0 0.78582260E+02</rscale>
<asrwt>0</asrwt>
<pdfrwt beam="2">  1        2 0.31894680E-01 0.78582260E+02</pdfrwt>
<pdfrwt beam="1">  1       -2 0.11456292E-02 0.78582260E+02</pdfrwt>
<totfact> 0.23289647E+05</totfact>
</mgrwt>
</event>
<event>
 4    1  0.2196664E-002  0.6144852E+02  0.7818608E-02  0.1391852E+00
         -2   -1    0    0  501    0 -0.00000000000E+00  0.00000000000E+00  0.10065950843E+02  0.10065951166E+02  0.25500000000E-02 0.  1.
          2   -1    0    0    0  501  0.00000000000E+00 -0.00000000000E+00 -0.93779527043E+02  0.93779527078E+02  0.25500000000E-02 0.  1.
          2    1    1    2    0  502  0.11659968390E+00 -0.30541094295E+02 -0.36199062508E+02  0.47361842966E+02  0.25500000000E-02 0. -1.
         -2    1    1    2  502    0 -0.11659968390E+00  0.30541094295E+02 -0.47514513693E+02  0.56483635278E+02  0.25500000000E-02 0. -1.
<mgrwt>
<rscale>  0 0.61448519E+02</rscale>
<asrwt>0</asrwt>
<pdfrwt beam="2">  1        2 0.14427619E-01 0.61448519E+02</pdfrwt>
<pdfrwt beam="1">  1       -2 0.15486079E-02 0.61448519E+02</pdfrwt>
<totfact> 0.34661622E+05</totfact>
</mgrwt>
</event>
<event>
 4    1  0.2196664E-002  0.8803615E+02  0.7818608E-02  0.1307678E+00
         -2   -1    0    0  501    0 -0.00000000000E+00  0.00000000000E+00  0.51590276790E+01  0.51590283092E+01  0.25500000000E-02 0.  1.
          2   -1    0    0    0  501  0.00000000000E+00 -0.00000000000E+00 -0.37557286244E+03  0.37557286245E+03  0.25500000000E-02 0.  1.
          2    1    1    2    0  502  0.29421190345E+02 -0.29108393344E+02 -0.12038137959E+03  0.12729721742E+03  0.25500000000E-02 0. -1.
         -2    1    1    2  502    0 -0.29421190345E+02  0.29108393344E+02 -0.25003245518E+03  0.25343467335E+03  0.25500000000E-02 0. -1.
<mgrwt>
<rscale>  0 0.88036150E+02</rscale>
<asrwt>0</asrwt>
<pdfrwt beam="2">  1        2 0.57780419E-01 0.88036150E+02</pdfrwt>
<pdfrwt beam="1">  1       -2 0.79369691E-03 0.88036150E+02</pdfrwt>
<totfact> 0.21414613E+05</totfact>
</mgrwt>
</event>
<event>
 4    1  0.2196664E-002  0.4267694E+02  0.7818608E-02  0.1489388E+00
         -2   -1    0    0  501    0 -0.00000000000E+00  0.00000000000E+00  0.32812671730E+00  0.32813662567E+00  0.25500000000E-02 0. -1.
          2   -1    0    0    0  501  0.00000000000E+00 -0.00000000000E+00 -0.13876451360E+04  0.13876451360E+04  0.25500000000E-02 0. -1.
          2    1    1    2    0  502 -0.51165494050E+01 -0.20408031068E+02 -0.57792348738E+03  0.57830634104E+03  0.25500000000E-02 0. -1.
         -2    1    1    2  502    0  0.51165494050E+01  0.20408031068E+02 -0.80939352187E+03  0.80966693156E+03  0.25500000000E-02 0. -1.
<mgrwt>
<rscale>  0 0.42676941E+02</rscale>
<asrwt>0</asrwt>
<pdfrwt beam="2">  1        2 0.21347917E+00 0.42676941E+02</pdfrwt>
<pdfrwt beam="1">  1       -2 0.50482907E-04 0.42676941E+02</pdfrwt>
<totfact> 0.16557326E+06</totfact>
</mgrwt>
</event>
<event>
 4    1  0.2196664E-002  0.6724814E+02  0.7818608E-02  0.1369709E+00
         -2   -1    0    0  501    0 -0.00000000000E+00  0.00000000000E+00  0.15570732028E+03  0.15570732030E+03  0.25500000000E-02 0. -1.
          2   -1    0    0    0  501  0.00000000000E+00 -0.00000000000E+00 -0.72609173180E+01  0.72609177657E+01  0.25500000000E-02 0. -1.
          2    1    1    2    0  502 -0.31578447990E+01 -0.21588191948E+02  0.12222570611E+02  0.25008263718E+02  0.25500000000E-02 0.  1.
         -2    1    1    2  502    0  0.31578447990E+01  0.21588191948E+02  0.13622383235E+03  0.13795997435E+03  0.25500000000E-02 0.  1.
<mgrwt>
<rscale>  0 0.67248138E+02</rscale>
<asrwt>0</asrwt>
<pdfrwt beam="2">  1        2 0.11170642E-02 0.67248138E+02</pdfrwt>
<pdfrwt beam="1">  1       -2 0.23954972E-01 0.67248138E+02</pdfrwt>
<totfact> 0.14849561E+05</totfact>
</mgrwt>
</event>
<event>
 4    1  0.2196664E-002  0.9208141E+02  0.7818608E-02  0.1297888E+00
          2   -1    0    0    0  501  0.00000000000E+00  0.00000000000E+00  0.11413999406E+04  0.11413999406E+04  0.25500000000E-02 0.  1.
         -2   -1    0    0  501    0 -0.00000000000E+00 -0.00000000000E+00 -0.18571454782E+01  0.18571472289E+01  0.25500000000E-02 0.  1.
          2    1    1    2    0  502 -0.86459038607E+01  0.41012006699E+02  0.33321677184E+03  0.33584245322E+03  0.25500000000E-02 0.  1.
         -2    1    1    2  502    0  0.86459038607E+01 -0.41012006699E+02  0.80632602331E+03  0.80741463464E+03  0.25500000000E-02 0.  1.
<mgrwt>
<rscale>  0 0.92081415E+02</rscale>
<asrwt>0</asrwt>
<pdfrwt beam="1">  1        2 0.17560039E+00 0.92081415E+02</pdfrwt>
<pdfrwt beam="2">  1       -2 0.28571417E-03 0.92081415E+02</pdfrwt>
<totfact> 0.24334855E+05</totfact>
</mgrwt>
</event>
<event>
 4    1  0.2196664E-002  0.7963801E+02  0.7818608E-02  0.1330082E+00
         -2   -1    0    0  501    0 -0.00000000000E+00  0.00000000000E+00  0.36884442887E+03  0.36884442888E+03  0.25500000000E-02 0. -1.
          2   -1    0    0    0  501  0.00000000000E+00 -0.00000000000E+00 -0.42987044834E+01  0.42987052398E+01  0.25500000000E-02 0. -1.
          2    1    1    2    0  502 -0.35936186671E+01  0.29035810913E+02  0.55715966531E+02  0.62930607366E+02  0.25500000000E-02 0.  1.
         -2    1    1    2  502    0  0.35936186671E+01 -0.29035810913E+02  0.30882975786E+03  0.31021252675E+03  0.25500000000E-02 0.  1.
<mgrwt>
<rscale>  0 0.79638015E+02</rscale>
<asrwt>0</asrwt>
<pdfrwt beam="2">  1        2 0.66133920E-03 0.79638015E+02</pdfrwt>
<pdfrwt beam="1">  1       -2 0.56745297E-01 0.79638015E+02</pdfrwt>
<totfact> 0.63779643E+04</totfact>
</mgrwt>
</event>
<event>
 4    1  0.2196664E-002  0.8761924E+02  0.7818608E-02  0.1308722E+00
         -2   -1    0    0  501    0 -0.00000000000E+00  0.00000000000E+00  0.26772485629E+01  0.26772497773E+01  0.25500000000E-02 0.  1.
          2   -1    0    0    0  501  0.00000000000E+00 -0.00000000000E+00 -0.71688614750E+03  0.71688614750E+03  0.25500000000E-02 0.  1.
          2    1    1    2    0  502  0.24842571338E+02  0.49846786206E+01 -0.63601106214E+02  0.68462406398E+02  0.25500000000E-02 0. -1.
         -2    1    1    2  502    0 -0.24842571338E+02 -0.49846786206E+01 -0.65060779272E+03  0.65110099088E+03  0.25500000000E-02 0. -1.
<mgrwt>
<rscale>  0 0.87619241E+02</rscale>
<asrwt>0</asrwt>
<pdfrwt beam="2">  1        2 0.11029002E+00 0.87619241E+02</pdfrwt>
<pdfrwt beam="1">  1       -2 0.41188506E-03 0.87619241E+02</pdfrwt>
<totfact> 0.26476317E+05</totfact>
</mgrwt>
</event>
<event>
 4    1  0.2196664E-002  0.7586790E+02  0.7818608E-02  0.1341204E+00
          2   -1    0    0    0  501  0.00000000000E+00  0.00000000000E+00  0.29420149710E+04  0.29420149710E+04  0.25500000000E-02 0.  1.
         -2   -1    0    0  501    0 -0.00000000000E+00 -0.00000000000E+00 -0.48911203270E+00  0.48911867990E+00  0.25500000000E-02 0.  1.
          2    1    1    2    0  502 -0.76961918628E+01  0.32861869968E+02  0.21423643696E+04  0.21426302122E+04  0.25500000000E-02 0. -1.
         -2    1    1    2  502    0  0.76961918628E+01 -0.32861869968E+02  0.79916148932E+03  0.79987387748E+03  0.25500000000E-02 0. -1.
<mgrwt>
<rscale>  0 0.75867904E+02</rscale>
<asrwt>0</asrwt>
<pdfrwt beam="1">  1        2 0.45263035E+00 0.75867904E+02</pdfrwt>
<pdfrwt beam="2">  1       -2 0.75246411E-04 0.75867904E+02</pdfrwt>
<totfact> 0.17403425E+05</totfact>
</mgrwt>
</event>
<event>
 4    1  0.2196664E-002  0.4288272E+02  0.7818608E-02  0.1488009E+00
         -2   -1    0    0  501    0 -0.00000000000E+00  0.00000000000E+00  0.12671382963E+02  0.12671383220E+02  0.25500000000E-02 0.  1.
          2   -1    0    0    0  501  0.00000000000E+00 -0.00000000000E+00 -0.36281114986E+02  0.36281115075E+02  0.25500000000E-02 0.  1.
          2    1    1    2    0  502 -0.42744371851E+01  0.20365941407E+02 -0.59074341013E+01  0.21631924713E+02  0.25500000000E-02 0. -1.
         -2    1    1    2  502    0  0.42744371851E+01 -0.20365941407E+02 -0.17702297921E+02  0.27320573582E+02  0.25500000000E-02 0. -1.
<mgrwt>
<rscale>  0 0.42882720E+02</rscale>
<asrwt>0</asrwt>
<pdfrwt beam="2">  1        2 0.55817100E-02 0.42882720E+02</pdfrwt>
<pdfrwt beam="1">  1       -2 0.19494436E-02 0.42882720E+02</pdfrwt>
<totfact> 0.71850173E+05</totfact>
</mgrwt>
</event>
<event>
 4    1  0.2196664E-002  0.7017538E+02  0.7818608E-02  0.1359498E+00
          2   -1    0    0    0  501  0.00000000000E+00  0.00000000000E+00  0.12044941833E+03  0.12044941836E+03  0.25500000000E-02 0.  1.
         -2   -1    0    0  501    0 -0.00000000000E+00 -0.00000000000E+00 -0.10221268139E+02  0.10221268457E+02  0.25500000000E-02 0.  1.
          2    1    1    2    0  502  0.30494338661E+02  0.68138391320E+01  0.84837851454E+02  0.90409037933E+02  0.25500000000E-02 0.  1.
         -2    1    1    2  502    0 -0.30494338661E+02 -0.68138391320E+01  0.25390298737E+02  0.40261648881E+02  0.25500000000E-02 0.  1.
<mgrwt>
<rscale>  0 0.70175375E+02</rscale>
<asrwt>0</asrwt>
<pdfrwt beam="1">  1        2 0.18530680E-01 0.70175375E+02</pdfrwt>
<pdfrwt beam="2">  1       -2 0.15725028E-02 0.70175375E+02</pdfrwt>
<totfact> 0.26255486E+05</totfact>
</mgrwt>
</event>
<event>
 4    1  0.2196664E-002  0.4631452E+02  0.7818608E-02  0.1466298E+00
         -2   -1    0    0  501    0 -0.00000000000E+00  0.00000000000E+00  0.47885775816E+00  0.47886454771E+00  0.25500000000E-02 0. -1.
          2   -1    0    0    0  501  0.00000000000E+00 -0.00000000000E+00 -0.11198628187E+04  0.11198628187E+04  0.25500000000E-02 0. -1.
          2    1    1    2    0  502 -0.21611502294E+02  0.66747754940E+01 -0.43959443023E+03  0.44017595658E+03  0.25500000000E-02 0. -1.
         -2    1    1    2  502    0  0.21611502294E+02 -0.66747754940E+01 -0.67978953067E+03  0.68016572663E+03  0.25500000000E-02 0. -1.
<mgrwt>
<rscale>  0 0.46314525E+02</rscale>
<asrwt>0</asrwt>
<pdfrwt beam="2">  1        2 0.17228449E+00 0.46314525E+02</pdfrwt>
<pdfrwt beam="1">  1       -2 0.73671843E-04 0.46314525E+02</pdfrwt>
<totfact> 0.13978830E+06</totfact>
</mgrwt>
</event>
<event>
 4    1  0.2196664E-002  0.6113175E+02  0.7818608E-02  0.1393143E+00
          2   -1    0    0    0  501  0.00000000000E+00  0.00000000000E+00  0.10426903133E+03  0.10426903136E+03  0.25500000000E-02 0. -1.
         -2   -1    0    0  501    0 -0.00000000000E+00 -0.00000000000E+00 -0.89602130314E+01  0.89602133943E+01  0.25500000000E-02 0. -1.
          2    1    1    2    0  502  0.15914372256E+02 -0.12455680219E+02  0.90128830900E+02  0.92366754733E+02  0.25500000000E-02 0. -1.
         -2    1    1    2  502    0 -0.15914372256E+02  0.12455680219E+02  0.51799874002E+01  0.20862490024E+02  0.25500000000E-02 0. -1.
<mgrwt>
<rscale>  0 0.61131751E+02</rscale>
<asrwt>0</asrwt>
<pdfrwt beam="1">  1        2 0.16041391E-01 0.61131751E+02</pdfrwt>
<pdfrwt beam="2">  1       -2 0.13784942E-02 0.61131751E+02</pdfrwt>
<totfact> 0.36151523E+05</totfact>
</mgrwt>
</event>
<event>
 4    1  0.2196664E-002  0.4133714E+02  0.7818608E-02  0.1498596E+00
         -2   -1    0    0  501    0 -0.00000000000E+00  0.00000000000E+00  0.36568065677E+02  0.36568065766E+02  0.25500000000E-02 0.  1.
          2   -1    0    0    0  501  0.00000000000E+00 -0.00000000000E+00 -0.11682043099E+02  0.11682043377E+02  0.25500000000E-02 0.  1.
          2    1    1    2    0  502 -0.14175897161E+02  0.14512117751E+02  0.78280659450E+01  0.21744798111E+02  0.25500000000E-02 0. -1.
         -2    1    1    2  502    0  0.14175897161E+02 -0.14512117751E+02  0.17057956633E+02  0.26505311033E+02  0.25500000000E-02 0. -1.
<mgrwt>
<rscale>  0 0.41337137E+02</rscale>
<asrwt>0</asrwt>
<pdfrwt beam="2">  1        2 0.17972374E-02 0.41337137E+02</pdfrwt>
<pdfrwt beam="1">  1       -2 0.56258563E-02 0.41337137E+02</pdfrwt>
<totfact> 0.67344615E+05</totfact>
</mgrwt>
</event>
<event>
 4    1  0.2196664E-002  0.4975700E+02  0.7818608E-02  0.1446657E+00
          2   -1    0    0    0  501  0.00000000000E+00  0.00000000000E+00  0.80823979671E+02  0.80823979711E+02  0.25500000000E-02 0.  1.
         -2   -1    0    0  501    0 -0.00000000000E+00 -0.00000000000E+00 -0.76578735061E+01  0.76578739306E+01  0.25500000000E-02 0.  1.
          2    1    1    2    0  502  0.23363218307E+02  0.10129179191E+01  0.21486115012E+02  0.31757190008E+02  0.25500000000E-02 0.  1.
         -2    1    1    2  502    0 -0.23363218307E+02 -0.10129179191E+01  0.51679991153E+02  0.56724663634E+02  0.25500000000E-02 0.  1.
<mgrwt>
<rscale>  0 0.49757003E+02</rscale>
<asrwt>0</asrwt>
<pdfrwt beam="1">  1        2 0.12434458E-01 0.49757003E+02</pdfrwt>
<pdfrwt beam="2">  1       -2 0.11781344E-02 0.49757003E+02</pdfrwt>
<totfact> 0.57500647E+05</totfact>
</mgrwt>
</event>
<event>
 4    1  0.2196664E-002  0.4267828E+02  0.7818608E-02  0.1489379E+00
         -2   -1    0    0  501    0 -0.00000000000E+00  0.00000000000E+00  0.18026959737E+01  0.18026977772E+01  0.25500000000E-02 0. -1.
          2   -1    0    0    0  501  0.00000000000E+00 -0.00000000000E+00 -0.25259870224E+03  0.25259870225E+03  0.25500000000E-02 0. -1.
          2    1    1    2    0  502  0.11950069463E+02 -0.17588341239E+02 -0.13606949833E+03  0.13772095806E+03  0.25500000000E-02 0. -1.
         -2    1    1    2  502    0 -0.11950069463E+02  0.17588341239E+02 -0.11472650793E+03  0.11668044196E+03  0.25500000000E-02 0. -1.
<mgrwt>
<rscale>  0 0.42678280E+02</rscale>
<asrwt>0</asrwt>
<pdfrwt beam="2">  1        2 0.38861311E-01 0.42678280E+02</pdfrwt>
<pdfrwt beam="1">  1       -2 0.27733818E-03 0.42678280E+02</pdfrwt>
<totfact> 0.11782820E+06</totfact>
</mgrwt>
</event>
<event>
 4    1  0.2196664E-002  0.5867185E+02  0.7818608E-02  0.1403491E+00
          2   -1    0    0    0  501  0.00000000000E+00  0.00000000000E+00  0.78805309342E+03  0.78805309343E+03  0.25500000000E-02 0. -1.
         -2   -1    0    0  501    0 -0.00000000000E+00 -0.00000000000E+00 -0.10920526316E+01  0.10920556088E+01  0.25500000000E-02 0. -1.
          2    1    1    2    0  502 -0.95078708009E+01  0.27315397668E+02  0.45946315304E+03  0.46037258776E+03  0.25500000000E-02 0. -1.
         -2    1    1    2  502    0  0.95078708009E+01 -0.27315397668E+02  0.32749788775E+03  0.32877256127E+03  0.25500000000E-02 0. -1.
<mgrwt>
<rscale>  0 0.58671855E+02</rscale>
<asrwt>0</asrwt>
<pdfrwt beam="1">  1        2 0.12123920E+00 0.58671855E+02</pdfrwt>
<pdfrwt beam="2">  1       -2 0.16800796E-03 0.58671855E+02</pdfrwt>
<totfact> 0.75657016E+05</totfact>
</mgrwt>
</event>
<event>
 4    1  0.2196664E-002  0.7583294E+02  0.7818608E-02  0.1341311E+00
         -2   -1    0    0  501    0 -0.00000000000E+00  0.00000000000E+00  0.26264579082E+01  0.26264591460E+01  0.25500000000E-02 0. -1.
          2   -1    0    0    0  501  0.00000000000E+00 -0.00000000000E+00 -0.54737535983E+03  0.54737535984E+03  0.25500000000E-02 0. -1.
          2    1    1    2    0  502  0.31713726105E+02  0.18415457867E+02 -0.20251775181E+03  0.20581139258E+03  0.25500000000E-02 0. -1.
         -2    1    1    2  502    0 -0.31713726105E+02 -0.18415457867E+02 -0.34223115011E+03  0.34419042640E+03  0.25500000000E-02 0. -1.
<mgrwt>
<rscale>  0 0.75832940E+02</rscale>
<asrwt>0</asrwt>
<pdfrwt beam="2">  1        2 0.84211504E-01 0.75832940E+02</pdfrwt>
<pdfrwt beam="1">  1       -2 0.40407098E-03 0.75832940E+02</pdfrwt>
<totfact> 0.35925978E+05</totfact>
</mgrwt>
</event>
<event>
 4    1  0.2196664E-002  0.5533281E+02  0.7818608E-02  0.1418532E+00
         -2   -1    0    0  501    0 -0.00000000000E+00  0.00000000000E+00  0.49356450617E+01  0.49356457205E+01  0.25500000000E-02 0. -1.
          2   -1    0    0    0  501  0.00000000000E+00 -0.00000000000E+00 -0.15508205906E+03  0.15508205908E+03  0.25500000000E-02 0. -1.
          2    1    1    2    0  502 -0.18287688280E+02 -0.81082055241E+01 -0.19804549366E+02  0.28149648693E+02  0.25500000000E-02 0.  1.
         -2    1    1    2  502    0  0.18287688280E+02  0.81082055241E+01 -0.13034186464E+03  0.13186805611E+03  0.25500000000E-02 0.  1.
<mgrwt>
<rscale>  0 0.55332813E+02</rscale>
<asrwt>0</asrwt>
<pdfrwt beam="2">  1        2 0.23858775E-01 0.55332813E+02</pdfrwt>
<pdfrwt beam="1">  1       -2 0.75933018E-03 0.55332813E+02</pdfrwt>
<totfact> 0.52503796E+05</totfact>
</mgrwt>
</event>
<event>
 4    1  0.2196664E-002  0.7167715E+02  0.7818608E-02  0.1354481E+00
          2   -1    0    0    0  501  0.00000000000E+00  0.00000000000E+00  0.95991588900E+03  0.95991588901E+03  0.25500000000E-02 0. -1.
         -2   -1    0    0  501    0 -0.00000000000E+00 -0.00000000000E+00 -0.13380364176E+01  0.13380388475E+01  0.25500000000E-02 0. -1.
          2    1    1    2    0  502 -0.14519895094E+02 -0.15451913288E+02  0.91806156531E+02  0.94222923756E+02  0.25500000000E-02 0.  1.
         -2    1    1    2  502    0  0.14519895094E+02  0.15451913288E+02  0.86677169605E+03  0.86703100410E+03  0.25500000000E-02 0.  1.
<mgrwt>
<rscale>  0 0.71677154E+02</rscale>
<asrwt>0</asrwt>
<pdfrwt beam="1">  1        2 0.14768039E+00 0.71677154E+02</pdfrwt>
<pdfrwt beam="2">  1       -2 0.20585051E-03 0.71677154E+02</pdfrwt>
<totfact> 0.46641366E+05</totfact>
</mgrwt>
</event>
<event>
 4    1  0.2196664E-002  0.4102425E+02  0.7818608E-02  0.1500807E+00
         -2   -1    0    0  501    0 -0.00000000000E+00  0.00000000000E+00  0.43753739993E+01  0.43753747424E+01  0.25500000000E-02 0. -1.
          2   -1    0    0    0  501  0.00000000000E+00 -0.00000000000E+00 -0.96162591876E+02  0.96162591910E+02  0.25500000000E-02 0. -1.
          2    1    1    2    0  502  0.14053469714E+02  0.14431894274E+02 -0.36412312603E+02  0.41612931872E+02  0.25500000000E-02 0. -1.
         -2    1    1    2  502    0 -0.14053469714E+02 -0.14431894274E+02 -0.55374905273E+02  0.58925034780E+02  0.25500000000E-02 0. -1.
<mgrwt>
<rscale>  0 0.41024253E+02</rscale>
<asrwt>0</asrwt>
<pdfrwt beam="2">  1        2 0.14794243E-01 0.41024253E+02</pdfrwt>
<pdfrwt beam="1">  1       -2 0.67313459E-03 0.41024253E+02</pdfrwt>
<totfact> 0.97225939E+05</totfact>
</mgrwt>
</event>
<event>
 4    1  0.2196664E-002  0.1083374E+03  0.7818608E-02  0.1263680E+00
         -2   -1    0    0  501    0 -0.00000000000E+00  0.00000000000E+00  0.57844673148E+01  0.57844678769E+01  0.25500000000E-02 0. -1.
          2   -1    0    0    0  501  0.00000000000E+00 -0.00000000000E+00 -0.50726303073E+03  0.50726303074E+03  0.25500000000E-02 0. -1.
          2    1    1    2    0  502  0.17520828254E+02  0.36631231979E+02 -0.80953311916E+02  0.90566358521E+02  0.25500000000E-02 0.  1.
         -2    1    1    2  502    0 -0.17520828254E+02 -0.36631231979E+02 -0.42052525150E+03  0.42248114010E+03  0.25500000000E-02 0.  1.
<mgrwt>
<rscale>  0 0.10833737E+03</rscale>
<asrwt>0</asrwt>
<pdfrwt beam="2">  1        2 0.78040432E-01 0.10833737E+03</pdfrwt>
<pdfrwt beam="1">  1       -2 0.88991849E-03 0.10833737E+03</pdfrwt>
<totfact> 0.13661011E+05</totfact>
</mgrwt>
</event>
<event>
 4    1  0.2196664E-002  0.4153772E+02  0.7818608E-02  0.1497191E+00
         -2   -1    0    0  501    0 -0.00000000000E+00  0.00000000000E+00  0.19869590078E+02  0.19869590242E+02  0.25500000000E-02 0. -1.
          2   -1    0    0    0  501  0.00000000000E+00 -0.00000000000E+00 -0.21708829835E+02  0.21708829985E+02  0.25500000000E-02 0. -1.
          2    1    1    2    0  502  0.20303878718E+02 -0.43693180758E+01 -0.83516629855E+00  0.20785474272E+02  0.25500000000E-02 0.  1.
         -2    1    1    2  502    0 -0.20303878718E+02  0.43693180758E+01 -0.10040734582E+01  0.20792945955E+02  0.25500000000E-02 0.  1.
<mgrwt>
<rscale>  0 0.41537721E+02</rscale>
<asrwt>0</asrwt>
<pdfrwt beam="2">  1        2 0.33398200E-02 0.41537721E+02</pdfrwt>
<pdfrwt beam="1">  1       -2 0.30568601E-02 0.41537721E+02</pdfrwt>
<totfact> 0.72362111E+05</totfact>
</mgrwt>
</event>
<event>
 4    1  0.2196664E-002  0.4863680E+02  0.7818608E-02  0.1452836E+00
         -2   -1    0    0  501    0 -0.00000000000E+00  0.00000000000E+00  0.89309673089E+00  0.89310037131E+00  0.25500000000E-02 0. -1.
          2   -1    0    0    0  501  0.00000000000E+00 -0.00000000000E+00 -0.66217173189E+03  0.66217173190E+03  0.25500000000E-02 0. -1.
          2    1    1    2    0  502 -0.15956187764E+02  0.15235016926E+02 -0.47012211529E+03  0.47063946813E+03  0.25500000000E-02 0. -1.
         -2    1    1    2  502    0  0.15956187764E+02 -0.15235016926E+02 -0.19115651987E+03  0.19242536414E+03  0.25500000000E-02 0. -1.
<mgrwt>
<rscale>  0 0.48636802E+02</rscale>
<asrwt>0</asrwt>
<pdfrwt beam="2">  1        2 0.10187218E+00 0.48636802E+02</pdfrwt>
<pdfrwt beam="1">  1       -2 0.13740031E-03 0.48636802E+02</pdfrwt>
<totfact> 0.11628591E+06</totfact>
</mgrwt>
</event>
<event>
 4    1  0.2196664E-002  0.5299336E+02  0.7818608E-02  0.1429834E+00
         -2   -1    0    0  501    0 -0.00000000000E+00  0.00000000000E+00  0.17993855623E+01  0.17993873692E+01  0.25500000000E-02 0. -1.
          2   -1    0    0    0  501  0.00000000000E+00 -0.00000000000E+00 -0.39017409192E+03  0.39017409193E+03  0.25500000000E-02 0. -1.
          2    1    1    2    0  502  0.17327112653E+02 -0.19400992986E+02 -0.23149950197E+03  0.23295631947E+03  0.25500000000E-02 0.  1.
         -2    1    1    2  502    0 -0.17327112653E+02  0.19400992986E+02 -0.15687520439E+03  0.15901715983E+03  0.25500000000E-02 0.  1.
<mgrwt>
<rscale>  0 0.52993357E+02</rscale>
<asrwt>0</asrwt>
<pdfrwt beam="2">  1        2 0.60026716E-01 0.52993357E+02</pdfrwt>
<pdfrwt beam="1">  1       -2 0.27682900E-03 0.52993357E+02</pdfrwt>
<totfact> 0.80144527E+05</totfact>
</mgrwt>
</event>
<event>
 4    1  0.2196664E-002  0.4564866E+02  0.7818608E-02  0.1470332E+00
          2   -1    0    0    0  501  0.00000000000E+00  0.00000000000E+00  0.96477490599E+02  0.96477490632E+02  0.25500000000E-02 0. -1.
         -2   -1    0    0  501    0 -0.00000000000E+00 -0.00000000000E+00 -0.53997044182E+01  0.53997050203E+01  0.25500000000E-02 0. -1.
          2    1    1    2    0  502 -0.26101226424E+01 -0.22375844659E+02  0.53726406951E+02  0.58258200922E+02  0.25500000000E-02 0.  1.
         -2    1    1    2  502    0  0.26101226424E+01  0.22375844659E+02  0.37351379230E+02  0.43618994730E+02  0.25500000000E-02 0.  1.
<mgrwt>
<rscale>  0 0.45648657E+02</rscale>
<asrwt>0</asrwt>
<pdfrwt beam="1">  1        2 0.14842692E-01 0.45648657E+02</pdfrwt>
<pdfrwt beam="2">  1       -2 0.83072375E-03 0.45648657E+02</pdfrwt>
<totfact> 0.74613199E+05</totfact>
</mgrwt>
</event>
<event>
 4    1  0.2196664E-002  0.4650902E+02  0.7818608E-02  0.1465135E+00
          2   -1    0    0    0  501  0.00000000000E+00  0.00000000000E+00  0.86980838907E+02  0.86980838945E+02  0.25500000000E-02 0. -1.
         -2   -1    0    0  501    0 -0.00000000000E+00 -0.00000000000E+00 -0.62171426696E+01  0.62171431925E+01  0.25500000000E-02 0. -1.
          2    1    1    2    0  502  0.12112535333E+02  0.16137620954E+02  0.63546778309E+02  0.66673303219E+02  0.25500000000E-02 0. -1.
         -2    1    1    2  502    0 -0.12112535333E+02 -0.16137620954E+02  0.17216917929E+02  0.26524678918E+02  0.25500000000E-02 0. -1.
<mgrwt>
<rscale>  0 0.46509023E+02</rscale>
<asrwt>0</asrwt>
<pdfrwt beam="1">  1        2 0.13381667E-01 0.46509023E+02</pdfrwt>
<pdfrwt beam="2">  1       -2 0.95648357E-03 0.46509023E+02</pdfrwt>
<totfact> 0.69402670E+05</totfact>
</mgrwt>
</event>
<event>
 4    1  0.2196664E-002  0.5087311E+02  0.7818608E-02  0.1440688E+00
         -2   -1    0    0  501    0 -0.00000000000E+00  0.00000000000E+00  0.46263665352E+00  0.46264368112E+00  0.25500000000E-02 0.  1.
          2   -1    0    0    0  501  0.00000000000E+00 -0.00000000000E+00 -0.13985346375E+04  0.13985346375E+04  0.25500000000E-02 0.  1.
          2    1    1    2    0  502 -0.18151462054E+02  0.17335717288E+02 -0.81247243534E+03  0.81286004998E+03  0.25500000000E-02 0. -1.
         -2    1    1    2  502    0  0.18151462054E+02 -0.17335717288E+02 -0.58559956555E+03  0.58613723124E+03  0.25500000000E-02 0. -1.
<mgrwt>
<rscale>  0 0.50873109E+02</rscale>
<asrwt>0</asrwt>
<pdfrwt beam="2">  1        2 0.21515579E+00 0.50873109E+02</pdfrwt>
<pdfrwt beam="1">  1       -2 0.71176530E-04 0.50873109E+02</pdfrwt>
<totfact> 0.10733497E+06</totfact>
</mgrwt>
</event>
<event>
 4    1  0.2196664E-002  0.6183536E+02  0.7818608E-02  0.1390287E+00
         -2   -1    0    0  501    0 -0.00000000000E+00  0.00000000000E+00  0.10285113001E+01  0.10285144612E+01  0.25500000000E-02 0. -1.
          2   -1    0    0    0  501  0.00000000000E+00 -0.00000000000E+00 -0.92940307289E+03  0.92940307289E+03  0.25500000000E-02 0. -1.
          2    1    1    2    0  502 -0.18379019945E+02  0.24379253277E+02 -0.53754260553E+03  0.53840894228E+03  0.25500000000E-02 0.  1.
         -2    1    1    2  502    0  0.18379019945E+02 -0.24379253277E+02 -0.39083195606E+03  0.39202264507E+03  0.25500000000E-02 0.  1.
<mgrwt>
<rscale>  0 0.61835363E+02</rscale>
<asrwt>0</asrwt>
<pdfrwt beam="2">  1        2 0.14298442E+00 0.61835363E+02</pdfrwt>
<pdfrwt beam="1">  1       -2 0.15823349E-03 0.61835363E+02</pdfrwt>
<totfact> 0.67777258E+05</totfact>
</mgrwt>
</event>
<event>
 4    1  0.2196664E-002  0.4829920E+02  0.7818608E-02  0.1454737E+00
          2   -1    0    0    0  501  0.00000000000E+00  0.00000000000E+00  0.11124113513E+01  0.11124142740E+01  0.25500000000E-02 0.  1.
         -2   -1    0    0  501    0 -0.00000000000E+00 -0.00000000000E+00 -0.52426869174E+03  0.52426869174E+03  0.25500000000E-02 0.  1.
          2    1    1    2    0  502  0.22433024991E+02  0.66707857104E+01 -0.19680073459E+03  0.19818745958E+03  0.25500000000E-02 0. -1.
         -2    1    1    2  502    0 -0.22433024991E+02 -0.66707857104E+01 -0.32635554580E+03  0.32719364644E+03  0.25500000000E-02 0. -1.
<mgrwt>
<rscale>  0 0.48299201E+02</rscale>
<asrwt>0</asrwt>
<pdfrwt beam="1">  1        2 0.17114085E-03 0.48299201E+02</pdfrwt>
<pdfrwt beam="2">  1       -2 0.80656525E-01 0.48299201E+02</pdfrwt>
<totfact> 0.17383803E+05</totfact>
</mgrwt>
</event>
<event>
 4    1  0.2196664E-002  0.5561731E+02  0.7818608E-02  0.1417202E+00
          2   -1    0    0    0  501  0.00000000000E+00  0.00000000000E+00  0.25247784682E+03  0.25247784683E+03  0.25500000000E-02 0.  1.
         -2   -1    0    0  501    0 -0.00000000000E+00 -0.00000000000E+00 -0.30629270744E+01  0.30629281358E+01  0.25500000000E-02 0.  1.
          2    1    1    2    0  502 -0.10784568883E+02  0.19198843402E+02  0.20273753519E+03  0.20392991613E+03  0.25500000000E-02 0. -1.
         -2    1    1    2  502    0  0.10784568883E+02 -0.19198843402E+02  0.46677384557E+02  0.51610858833E+02  0.25500000000E-02 0. -1.
<mgrwt>
<rscale>  0 0.55617313E+02</rscale>
<asrwt>0</asrwt>
<pdfrwt beam="1">  1        2 0.38842750E-01 0.55617313E+02</pdfrwt>
<pdfrwt beam="2">  1       -2 0.47121959E-03 0.55617313E+02</pdfrwt>
<totfact> 0.60971295E+05</totfact>
</mgrwt>
</event>
<event>
 4    1  0.2196664E-002  0.5618738E+02  0.7818608E-02  0.1414566E+00
         -2   -1    0    0  501    0 -0.00000000000E+00  0.00000000000E+00  0.55992935821E+00  0.55993516472E+00  0.25500000000E-02 0.  1.
          2   -1    0    0    0  501  0.00000000000E+00 -0.00000000000E+00 -0.14095552851E+04  0.14095552851E+04  0.25500000000E-02 0.  1.
          2    1    1    2    0  502  0.17806227668E+02 -0.16545145518E+02 -0.10580416379E+04  0.10583207978E+04  0.25500000000E-02 0. -1.
         -2    1    1    2  502    0 -0.17806227668E+02  0.16545145518E+02 -0.35095371784E+03  0.35179442244E+03  0.25500000000E-02 0. -1.
<mgrwt>
<rscale>  0 0.56187382E+02</rscale>
<asrwt>0</asrwt>
<pdfrwt beam="2">  1        2 0.21685182E+00 0.56187382E+02</pdfrwt>
<pdfrwt beam="1">  1       -2 0.86144553E-04 0.56187382E+02</pdfrwt>
<totfact> 0.83613945E+05</totfact>
</mgrwt>
</event>
<event>
 4    1  0.2196664E-002  0.4820772E+02  0.7818608E-02  0.1455255E+00
          2   -1    0    0    0  501  0.00000000000E+00  0.00000000000E+00  0.35523012153E+03  0.35523012154E+03  0.25500000000E-02 0. -1.
         -2   -1    0    0  501    0 -0.00000000000E+00 -0.00000000000E+00 -0.16355474413E+01  0.16355494292E+01  0.25500000000E-02 0. -1.
          2    1    1    2    0  502  0.19748397594E+02 -0.59753563302E+01  0.26904650345E+03  0.26983647847E+03  0.25500000000E-02 0. -1.
         -2    1    1    2  502    0 -0.19748397594E+02  0.59753563302E+01  0.84548070647E+02  0.87029192501E+02  0.25500000000E-02 0. -1.
<mgrwt>
<rscale>  0 0.48207720E+02</rscale>
<asrwt>0</asrwt>
<pdfrwt beam="1">  1        2 0.54650754E-01 0.48207720E+02</pdfrwt>
<pdfrwt beam="2">  1       -2 0.25162299E-03 0.48207720E+02</pdfrwt>
<totfact> 0.98196255E+05</totfact>
</mgrwt>
</event>
<event>
 4    1  0.2196664E-002  0.4649071E+02  0.7818608E-02  0.1465244E+00
         -2   -1    0    0  501    0 -0.00000000000E+00  0.00000000000E+00  0.93435132896E+01  0.93435136376E+01  0.25500000000E-02 0.  1.
          2   -1    0    0    0  501  0.00000000000E+00 -0.00000000000E+00 -0.57831195780E+02  0.57831195836E+02  0.25500000000E-02 0.  1.
          2    1    1    2    0  502 -0.22609847014E+02  0.98643781772E+00 -0.31912510646E+02  0.39122711866E+02  0.25500000000E-02 0. -1.
         -2    1    1    2  502    0  0.22609847014E+02 -0.98643781772E+00 -0.16575171845E+02  0.28051997607E+02  0.25500000000E-02 0. -1.
<mgrwt>
<rscale>  0 0.46490711E+02</rscale>
<asrwt>0</asrwt>
<pdfrwt beam="2">  1        2 0.88971069E-02 0.46490711E+02</pdfrwt>
<pdfrwt beam="1">  1       -2 0.14374636E-02 0.46490711E+02</pdfrwt>
<totfact> 0.63541569E+05</totfact>
</mgrwt>
</event>
<event>
 4    1  0.2196664E-002  0.4750217E+02  0.7818608E-02  0.1459299E+00
          2   -1    0    0    0  501  0.00000000000E+00  0.00000000000E+00  0.18873253239E+02  0.18873253411E+02  0.25500000000E-02 0. -1.
         -2   -1    0    0  501    0 -0.00000000000E+00 -0.00000000000E+00 -0.29889598903E+02  0.29889599011E+02  0.25500000000E-02 0. -1.
          2    1    1    2    0  502 -0.14076380676E+02 -0.16683303041E+02  0.41017327659E+01  0.22210387468E+02  0.25500000000E-02 0.  1.
         -2    1    1    2  502    0  0.14076380676E+02  0.16683303041E+02 -0.15118078429E+02  0.26552464955E+02  0.25500000000E-02 0.  1.
<mgrwt>
<rscale>  0 0.47502167E+02</rscale>
<asrwt>0</asrwt>
<pdfrwt beam="1">  1        2 0.29035774E-02 0.47502167E+02</pdfrwt>
<pdfrwt beam="2">  1       -2 0.45983999E-02 0.47502167E+02</pdfrwt>
<totfact> 0.50008164E+05</totfact>
</mgrwt>
</event>
<event>
 4    1  0.2196664E-002  0.5466263E+02  0.7818608E-02  0.1421701E+00
          2   -1    0    0    0  501  0.00000000000E+00  0.00000000000E+00  0.13077146178E+02  0.13077146427E+02  0.25500000000E-02 0. -1.
         -2   -1    0    0  501    0 -0.00000000000E+00 -0.00000000000E+00 -0.57122603280E+02  0.57122603337E+02  0.25500000000E-02 0. -1.
          2    1    1    2    0  502  0.20673006706E+02  0.10082058076E+02 -0.40983366359E+02  0.46996355453E+02  0.25500000000E-02 0. -1.
         -2    1    1    2  502    0 -0.20673006706E+02 -0.10082058076E+02 -0.30620907431E+01  0.23203394311E+02  0.25500000000E-02 0. -1.
<mgrwt>
<rscale>  0 0.54662625E+02</rscale>
<asrwt>0</asrwt>
<pdfrwt beam="1">  1        2 0.20118687E-02 0.54662625E+02</pdfrwt>
<pdfrwt beam="2">  1       -2 0.87880927E-02 0.54662625E+02</pdfrwt>
<totfact> 0.32097208E+05</totfact>
</mgrwt>
</event>
<event>
 4    1  0.2196664E-002  0.4419366E+02  0.7818608E-02  0.1479439E+00
         -2   -1    0    0  501    0 -0.00000000000E+00  0.00000000000E+00  0.16389883633E+03  0.16389883635E+03  0.25500000000E-02 0.  1.
          2   -1    0    0    0  501  0.00000000000E+00 -0.00000000000E+00 -0.29790928160E+01  0.29790939074E+01  0.25500000000E-02 0.  1.
          2    1    1    2    0  502 -0.19721471152E+02  0.97269559176E+01  0.72256311327E+02  0.75528303495E+02  0.25500000000E-02 0. -1.
         -2    1    1    2  502    0  0.19721471152E+02 -0.97269559176E+01  0.88663432190E+02  0.91349626765E+02  0.25500000000E-02 0. -1.
<mgrwt>
<rscale>  0 0.44193662E+02</rscale>
<asrwt>0</asrwt>
<pdfrwt beam="2">  1        2 0.45832205E-03 0.44193662E+02</pdfrwt>
<pdfrwt beam="1">  1       -2 0.25215206E-01 0.44193662E+02</pdfrwt>
<totfact> 0.41124138E+05</totfact>
</mgrwt>
</event>
<event>
 4    1  0.2196664E-002  0.6206425E+02  0.7818608E-02  0.1389368E+00
          2   -1    0    0    0  501  0.00000000000E+00  0.00000000000E+00  0.26419928193E+02  0.26419928316E+02  0.25500000000E-02 0. -1.
         -2   -1    0    0  501    0 -0.00000000000E+00 -0.00000000000E+00 -0.36449485781E+02  0.36449485870E+02  0.25500000000E-02 0. -1.
          2    1    1    2    0  502  0.60778859280E+00  0.25513513153E+02  0.12868830662E+02  0.28581734893E+02  0.25500000000E-02 0.  1.
         -2    1    1    2  502    0 -0.60778859280E+00 -0.25513513153E+02 -0.22898388249E+02  0.34287679293E+02  0.25500000000E-02 0.  1.
<mgrwt>
<rscale>  0 0.62064251E+02</rscale>
<asrwt>0</asrwt>
<pdfrwt beam="1">  1        2 0.40646044E-02 0.62064251E+02</pdfrwt>
<pdfrwt beam="2">  1       -2 0.56076132E-02 0.62064251E+02</pdfrwt>
<totfact> 0.25739982E+05</totfact>
</mgrwt>
</event>
<event>
 4    1  0.2196664E-002  0.5063704E+02  0.7818608E-02  0.1441936E+00
         -2   -1    0    0  501    0 -0.00000000000E+00  0.00000000000E+00  0.10746044202E+01  0.10746074457E+01  0.25500000000E-02 0. -1.
          2   -1    0    0    0  501  0.00000000000E+00 -0.00000000000E+00 -0.59652316603E+03  0.59652316604E+03  0.25500000000E-02 0. -1.
          2    1    1    2    0  502 -0.12252208010E+02  0.20213973907E+02 -0.40479147356E+03  0.40548102103E+03  0.25500000000E-02 0. -1.
         -2    1    1    2  502    0  0.12252208010E+02 -0.20213973907E+02 -0.19065708806E+03  0.19211675246E+03  0.25500000000E-02 0. -1.
<mgrwt>
<rscale>  0 0.50637035E+02</rscale>
<asrwt>0</asrwt>
<pdfrwt beam="2">  1        2 0.91772531E-01 0.50637035E+02</pdfrwt>
<pdfrwt beam="1">  1       -2 0.16532447E-03 0.50637035E+02</pdfrwt>
<totfact> 0.10248811E+06</totfact>
</mgrwt>
</event>
<event>
 4    1  0.2196664E-002  0.5798578E+02  0.7818608E-02  0.1406484E+00
          2   -1    0    0    0  501  0.00000000000E+00  0.00000000000E+00  0.19898031051E+04  0.19898031051E+04  0.25500000000E-02 0. -1.
         -2   -1    0    0  501    0 -0.00000000000E+00 -0.00000000000E+00 -0.42244374620E+00  0.42245144242E+00  0.25500000000E-02 0. -1.
          2    1    1    2    0  502  0.20333238880E+02 -0.11377349947E+02  0.40248499535E+03  0.40315884733E+03  0.25500000000E-02 0.  1.
         -2    1    1    2  502    0 -0.20333238880E+02  0.11377349947E+02  0.15868956660E+04  0.15870667092E+04  0.25500000000E-02 0.  1.
<mgrwt>
<rscale>  0 0.57985775E+02</rscale>
<asrwt>0</asrwt>
<pdfrwt beam="1">  1        2 0.30611868E+00 0.57985775E+02</pdfrwt>
<pdfrwt beam="2">  1       -2 0.64992973E-04 0.57985775E+02</pdfrwt>
<totfact> 0.63745961E+05</totfact>
</mgrwt>
</event>
<event>
 4    1  0.2196664E-002  0.5565078E+02  0.7818608E-02  0.1417046E+00
         -2   -1    0    0  501    0 -0.00000000000E+00  0.00000000000E+00  0.39850212185E+02  0.39850212267E+02  0.25500000000E-02 0.  1.
          2   -1    0    0    0  501  0.00000000000E+00 -0.00000000000E+00 -0.19429065089E+02  0.19429065257E+02  0.25500000000E-02 0.  1.
          2    1    1    2    0  502 -0.41830014141E+01 -0.27103401228E+02  0.51961444811E+01  0.27912215658E+02  0.25500000000E-02 0. -1.
         -2    1    1    2  502    0  0.41830014141E+01  0.27103401228E+02  0.15225002615E+02  0.31367061865E+02  0.25500000000E-02 0. -1.
<mgrwt>
<rscale>  0 0.55650782E+02</rscale>
<asrwt>0</asrwt>
<pdfrwt beam="2">  1        2 0.29890869E-02 0.55650782E+02</pdfrwt>
<pdfrwt beam="1">  1       -2 0.61308019E-02 0.55650782E+02</pdfrwt>
<totfact> 0.32821105E+05</totfact>
</mgrwt>
</event>
<event>
 4    1  0.2196664E-002  0.6497313E+02  0.7818608E-02  0.1378073E+00
         -2   -1    0    0  501    0 -0.00000000000E+00  0.00000000000E+00  0.67928965544E+02  0.67928965592E+02  0.25500000000E-02 0. -1.
          2   -1    0    0    0  501  0.00000000000E+00 -0.00000000000E+00 -0.15536480536E+02  0.15536480746E+02  0.25500000000E-02 0. -1.
          2    1    1    2    0  502 -0.31596572920E+02  0.75159084148E+01  0.25248099655E+02  0.41137559994E+02  0.25500000000E-02 0. -1.
         -2    1    1    2  502    0  0.31596572920E+02 -0.75159084148E+01  0.27144385353E+02  0.42327886343E+02  0.25500000000E-02 0. -1.
<mgrwt>
<rscale>  0 0.64973135E+02</rscale>
<asrwt>0</asrwt>
<pdfrwt beam="2">  1        2 0.23902278E-02 0.64973135E+02</pdfrwt>
<pdfrwt beam="1">  1       -2 0.10450610E-01 0.64973135E+02</pdfrwt>
<totfact> 0.20344985E+05</totfact>
</mgrwt>
</event>
<event>
 4    1  0.2196664E-002  0.4918761E+02  0.7818608E-02  0.1449773E+00
          2   -1    0    0    0  501  0.00000000000E+00  0.00000000000E+00  0.38637584628E+03  0.38637584629E+03  0.25500000000E-02 0.  1.
         -2   -1    0    0  501    0 -0.00000000000E+00 -0.00000000000E+00 -0.15654569359E+01  0.15654590128E+01  0.25500000000E-02 0.  1.
          2    1    1    2    0  502  0.21051080563E+02 -0.12695476057E+02  0.18665234571E+03  0.18826423259E+03  0.25500000000E-02 0.  1.
         -2    1    1    2  502    0 -0.21051080563E+02  0.12695476057E+02  0.19815804363E+03  0.19967707271E+03  0.25500000000E-02 0.  1.
<mgrwt>
<rscale>  0 0.49187606E+02</rscale>
<asrwt>0</asrwt>
<pdfrwt beam="1">  1        2 0.59442419E-01 0.49187606E+02</pdfrwt>
<pdfrwt beam="2">  1       -2 0.24083977E-03 0.49187606E+02</pdfrwt>
<totfact> 0.96148257E+05</totfact>
</mgrwt>
</event>
<event>
 4    1  0.2196664E-002  0.4655094E+02  0.7818608E-02  0.1464885E+00
          2   -1    0    0    0  501  0.00000000000E+00  0.00000000000E+00  0.30482676804E+01  0.30482687470E+01  0.25500000000E-02 0. -1.
         -2   -1    0    0  501    0 -0.00000000000E+00 -0.00000000000E+00 -0.17772300449E+03  0.17772300451E+03  0.25500000000E-02 0. -1.
          2    1    1    2    0  502 -0.13389629816E+02  0.16463431635E+02 -0.12446720824E+03  0.12626326742E+03  0.25500000000E-02 0.  1.
         -2    1    1    2  502    0  0.13389629816E+02 -0.16463431635E+02 -0.50207528572E+02  0.54508005831E+02  0.25500000000E-02 0.  1.
<mgrwt>
<rscale>  0 0.46550935E+02</rscale>
<asrwt>0</asrwt>
<pdfrwt beam="1">  1        2 0.46896448E-03 0.46550935E+02</pdfrwt>
<pdfrwt beam="2">  1       -2 0.27341993E-01 0.46550935E+02</pdfrwt>
<totfact> 0.35184646E+05</totfact>
</mgrwt>
</event>
<event>
 4    1  0.2196664E-002  0.4899586E+02  0.7818608E-02  0.1450834E+00
          2   -1    0    0    0  501  0.00000000000E+00  0.00000000000E+00  0.13135145108E+04  0.13135145108E+04  0.25500000000E-02 0. -1.
         -2   -1    0    0  501    0 -0.00000000000E+00 -0.00000000000E+00 -0.45689926188E+00  0.45690637772E+00  0.25500000000E-02 0. -1.
          2    1    1    2    0  502 -0.96923349403E+01  0.19795048396E+02  0.36973505635E+03  0.37039141081E+03  0.25500000000E-02 0.  1.
         -2    1    1    2  502    0  0.96923349403E+01 -0.19795048396E+02  0.94332255514E+03  0.94358000633E+03  0.25500000000E-02 0.  1.
<mgrwt>
<rscale>  0 0.48995856E+02</rscale>
<asrwt>0</asrwt>
<pdfrwt beam="1">  1        2 0.20207565E+00 0.48995856E+02</pdfrwt>
<pdfrwt beam="2">  1       -2 0.70293962E-04 0.48995856E+02</pdfrwt>
<totfact> 0.11952854E+06</totfact>
</mgrwt>
</event>
<event>
 4    1  0.2196664E-002  0.4370001E+02  0.7818608E-02  0.1482624E+00
          2   -1    0    0    0  501  0.00000000000E+00  0.00000000000E+00  0.54345399115E+03  0.54345399116E+03  0.25500000000E-02 0.  1.
         -2   -1    0    0  501    0 -0.00000000000E+00 -0.00000000000E+00 -0.87849534449E+00  0.87849904541E+00  0.25500000000E-02 0.  1.
          2    1    1    2    0  502 -0.11772580711E+02  0.18341239084E+02  0.29069730354E+03  0.29151315065E+03  0.25500000000E-02 0.  1.
         -2    1    1    2  502    0  0.11772580711E+02 -0.18341239084E+02  0.25187819227E+03  0.25281933956E+03  0.25500000000E-02 0.  1.
<mgrwt>
<rscale>  0 0.43700014E+02</rscale>
<asrwt>0</asrwt>
<pdfrwt beam="1">  1        2 0.83608402E-01 0.43700014E+02</pdfrwt>
<pdfrwt beam="2">  1       -2 0.13515326E-03 0.43700014E+02</pdfrwt>
<totfact> 0.14329252E+06</totfact>
</mgrwt>
</event>
<event>
 4    1  0.2196664E-002  0.4607288E+02  0.7818608E-02  0.1467753E+00
         -2   -1    0    0  501    0 -0.00000000000E+00  0.00000000000E+00  0.19009297256E+00  0.19011007527E+00  0.25500000000E-02 0. -1.
          2   -1    0    0    0  501  0.00000000000E+00 -0.00000000000E+00 -0.27915477350E+04  0.27915477350E+04  0.25500000000E-02 0. -1.
          2    1    1    2    0  502 -0.21766471268E+02 -0.65490974760E+01 -0.11688960657E+04  0.11691170525E+04  0.25500000000E-02 0. -1.
         -2    1    1    2  502    0  0.21766471268E+02  0.65490974760E+01 -0.16224615763E+04  0.16226207926E+04  0.25500000000E-02 0. -1.
<mgrwt>
<rscale>  0 0.46072876E+02</rscale>
<asrwt>0</asrwt>
<pdfrwt beam="2">  1        2 0.42943606E+00 0.46072876E+02</pdfrwt>
<pdfrwt beam="1">  1       -2 0.29248624E-04 0.46072876E+02</pdfrwt>
<totfact> 0.70471345E+05</totfact>
</mgrwt>
</event>
<event>
 4    1  0.2196664E-002  0.8318477E+02  0.7818608E-02  0.1320249E+00
          2   -1    0    0    0  501  0.00000000000E+00  0.00000000000E+00  0.27243027513E+01  0.27243039447E+01  0.25500000000E-02 0. -1.
         -2   -1    0    0  501    0 -0.00000000000E+00 -0.00000000000E+00 -0.63499773468E+03  0.63499773468E+03  0.25500000000E-02 0. -1.
          2    1    1    2    0  502 -0.35878135293E+02 -0.20914086529E+02 -0.33376401823E+03  0.33633771641E+03  0.25500000000E-02 0.  1.
         -2    1    1    2  502    0  0.35878135293E+02  0.20914086529E+02 -0.29850941369E+03  0.30138432222E+03  0.25500000000E-02 0.  1.
<mgrwt>
<rscale>  0 0.83184769E+02</rscale>
<asrwt>0</asrwt>
<pdfrwt beam="1">  1        2 0.41912410E-03 0.83184769E+02</pdfrwt>
<pdfrwt beam="2">  1       -2 0.97691842E-01 0.83184769E+02</pdfrwt>
<totfact> 0.37702270E+04</totfact>
</mgrwt>
</event>
<event>
 4    1  0.2196664E-002  0.4220116E+02  0.7818608E-02  0.1492611E+00
         -2   -1    0    0  501    0 -0.00000000000E+00  0.00000000000E+00  0.20737578647E+03  0.20737578648E+03  0.25500000000E-02 0.  1.
          2   -1    0    0    0  501  0.00000000000E+00 -0.00000000000E+00 -0.21469925281E+01  0.21469940425E+01  0.25500000000E-02 0.  1.
          2    1    1    2    0  502  0.16299078536E+02 -0.13193313379E+02  0.90959198321E+02  0.93345054742E+02  0.25500000000E-02 0. -1.
         -2    1    1    2  502    0 -0.16299078536E+02  0.13193313379E+02  0.11426959562E+03  0.11617772578E+03  0.25500000000E-02 0. -1.
<mgrwt>
<rscale>  0 0.42201158E+02</rscale>
<asrwt>0</asrwt>
<pdfrwt beam="2">  1        2 0.33030671E-03 0.42201158E+02</pdfrwt>
<pdfrwt beam="1">  1       -2 0.31903963E-01 0.42201158E+02</pdfrwt>
<totfact> 0.41982559E+05</totfact>
</mgrwt>
</event>
<event>
 4    1  0.2196664E-002  0.4338039E+02  0.7818608E-02  0.1484713E+00
         -2   -1    0    0  501    0 -0.00000000000E+00  0.00000000000E+00  0.39195791656E+00  0.39196621137E+00  0.25500000000E-02 0. -1.
          2   -1    0    0    0  501  0.00000000000E+00 -0.00000000000E+00 -0.12002811027E+04  0.12002811027E+04  0.25500000000E-02 0. -1.
          2    1    1    2    0  502 -0.16135945021E+02 -0.14435859440E+02 -0.63605209778E+03  0.63642048510E+03  0.25500000000E-02 0. -1.
         -2    1    1    2  502    0  0.16135945021E+02  0.14435859440E+02 -0.56383704698E+03  0.56425258379E+03  0.25500000000E-02 0. -1.
<mgrwt>
<rscale>  0 0.43380395E+02</rscale>
<asrwt>0</asrwt>
<pdfrwt beam="2">  1        2 0.18465569E+00 0.43380395E+02</pdfrwt>
<pdfrwt beam="1">  1       -2 0.60302817E-04 0.43380395E+02</pdfrwt>
<totfact> 0.16317758E+06</totfact>
</mgrwt>
</event>
<event>
 4    1  0.2196664E-002  0.9691608E+02  0.7818608E-02  0.1286918E+00
          2   -1    0    0    0  501  0.00000000000E+00  0.00000000000E+00  0.17623579616E+04  0.17623579616E+04  0.25500000000E-02 0. -1.
         -2   -1    0    0  501    0 -0.00000000000E+00 -0.00000000000E+00 -0.13324077189E+01  0.13324101591E+01  0.25500000000E-02 0. -1.
          2    1    1    2    0  502  0.42684496629E+02 -0.83722249023E+01  0.12691698686E+04  0.12699150427E+04  0.25500000000E-02 0. -1.
         -2    1    1    2  502    0 -0.42684496629E+02  0.83722249023E+01  0.49185568526E+03  0.49377532900E+03  0.25500000000E-02 0. -1.
<mgrwt>
<rscale>  0 0.96916077E+02</rscale>
<asrwt>0</asrwt>
<pdfrwt beam="1">  1        2 0.27113222E+00 0.96916077E+02</pdfrwt>
<pdfrwt beam="2">  1       -2 0.20498582E-03 0.96916077E+02</pdfrwt>
<totfact> 0.18498019E+05</totfact>
</mgrwt>
</event>
<event>
 4    1  0.2196664E-002  0.7735092E+02  0.7818608E-02  0.1336742E+00
          2   -1    0    0    0  501  0.00000000000E+00  0.00000000000E+00  0.20424117422E+03  0.20424117423E+03  0.25500000000E-02 0.  1.
         -2   -1    0    0  501    0 -0.00000000000E+00 -0.00000000000E+00 -0.73236517948E+01  0.73236522387E+01  0.25500000000E-02 0.  1.
          2    1    1    2    0  502 -0.22602814741E+02 -0.27315931342E+02  0.56197334613E+02  0.66446879260E+02  0.25500000000E-02 0. -1.
         -2    1    1    2  502    0  0.22602814741E+02  0.27315931342E+02  0.14072018781E+03  0.14511794721E+03  0.25500000000E-02 0. -1.
<mgrwt>
<rscale>  0 0.77350922E+02</rscale>
<asrwt>0</asrwt>
<pdfrwt beam="1">  1        2 0.31421725E-01 0.77350922E+02</pdfrwt>
<pdfrwt beam="2">  1       -2 0.11267155E-02 0.77350922E+02</pdfrwt>
<totfact> 0.24153808E+05</totfact>
</mgrwt>
</event>
<event>
 4    1  0.2196664E-002  0.4157451E+02  0.7818608E-02  0.1496934E+00
         -2   -1    0    0  501    0 -0.00000000000E+00  0.00000000000E+00  0.39871171744E+01  0.39871179898E+01  0.25500000000E-02 0. -1.
          2   -1    0    0    0  501  0.00000000000E+00 -0.00000000000E+00 -0.10837653851E+03  0.10837653854E+03  0.25500000000E-02 0. -1.
          2    1    1    2    0  502 -0.20466332921E+02  0.27259567146E+01 -0.58708385266E+02  0.62233239754E+02  0.25500000000E-02 0. -1.
         -2    1    1    2  502    0  0.20466332921E+02 -0.27259567146E+01 -0.45681036069E+02  0.50130416775E+02  0.25500000000E-02 0. -1.
<mgrwt>
<rscale>  0 0.41574512E+02</rscale>
<asrwt>0</asrwt>
<pdfrwt beam="2">  1        2 0.16673311E-01 0.41574512E+02</pdfrwt>
<pdfrwt beam="1">  1       -2 0.61340279E-03 0.41574512E+02</pdfrwt>
<totfact> 0.96986036E+05</totfact>
</mgrwt>
</event>
<event>
 4    1  0.2196664E-002  0.4534974E+02  0.7818608E-02  0.1472170E+00
          2   -1    0    0    0  501  0.00000000000E+00  0.00000000000E+00  0.97981554699E+03  0.97981554699E+03  0.25500000000E-02 0. -1.
         -2   -1    0    0  501    0 -0.00000000000E+00 -0.00000000000E+00 -0.52473831458E+00  0.52474451049E+00  0.25500000000E-02 0. -1.
          2    1    1    2    0  502  0.44885208239E+01  0.22176288147E+02  0.52181977306E+03  0.52231007087E+03  0.25500000000E-02 0. -1.
         -2    1    1    2  502    0 -0.44885208239E+01 -0.22176288147E+02  0.45747103561E+03  0.45803022063E+03  0.25500000000E-02 0. -1.
<mgrwt>
<rscale>  0 0.45349743E+02</rscale>
<asrwt>0</asrwt>
<pdfrwt beam="1">  1        2 0.15074153E+00 0.45349743E+02</pdfrwt>
<pdfrwt beam="2">  1       -2 0.80729086E-04 0.45349743E+02</pdfrwt>
<totfact> 0.14696267E+06</totfact>
</mgrwt>
</event>
<event>
 4    1  0.2196664E-002  0.6282029E+02  0.7818608E-02  0.1386363E+00
         -2   -1    0    0  501    0 -0.00000000000E+00  0.00000000000E+00  0.75355134572E+00  0.75355566028E+00  0.25500000000E-02 0. -1.
          2   -1    0    0    0  501  0.00000000000E+00 -0.00000000000E+00 -0.13092598203E+04  0.13092598203E+04  0.25500000000E-02 0. -1.
          2    1    1    2    0  502  0.23818475484E+02 -0.99980008981E+01 -0.10268911376E+04  0.10272159891E+04  0.25500000000E-02 0. -1.
         -2    1    1    2  502    0 -0.23818475484E+02  0.99980008981E+01 -0.28161513140E+03  0.28279738690E+03  0.25500000000E-02 0. -1.
<mgrwt>
<rscale>  0 0.62820294E+02</rscale>
<asrwt>0</asrwt>
<pdfrwt beam="2">  1        2 0.20142277E+00 0.62820294E+02</pdfrwt>
<pdfrwt beam="1">  1       -2 0.11593236E-03 0.62820294E+02</pdfrwt>
<totfact> 0.64242481E+05</totfact>
</mgrwt>
</event>
<event>
 4    1  0.2196664E-002  0.1114256E+03  0.7818608E-02  0.1257952E+00
          2   -1    0    0    0  501  0.00000000000E+00  0.00000000000E+00  0.85841907979E+02  0.85841908016E+02  0.25500000000E-02 0.  1.
         -2   -1    0    0  501    0 -0.00000000000E+00 -0.00000000000E+00 -0.36158535247E+02  0.36158535336E+02  0.25500000000E-02 0.  1.
          2    1    1    2    0  502 -0.25017615445E+02 -0.53041967944E+01  0.79035620536E+02  0.83070120418E+02  0.25500000000E-02 0. -1.
         -2    1    1    2  502    0  0.25017615445E+02  0.53041967944E+01 -0.29352247804E+02  0.38930322935E+02  0.25500000000E-02 0. -1.
<mgrwt>
<rscale>  0 0.11142563E+03</rscale>
<asrwt>0</asrwt>
<pdfrwt beam="1">  1        2 0.13206447E-01 0.11142563E+03</pdfrwt>
<pdfrwt beam="2">  1       -2 0.55628516E-02 0.11142563E+03</pdfrwt>
<totfact> 0.66614761E+04</totfact>
</mgrwt>
</event>
<event>
 4    1  0.2196664E-002  0.4908677E+02  0.7818608E-02  0.1450330E+00
         -2   -1    0    0  501    0 -0.00000000000E+00  0.00000000000E+00  0.24181144323E+00  0.24182488825E+00  0.25500000000E-02 0.  1.
          2   -1    0    0    0  501  0.00000000000E+00 -0.00000000000E+00 -0.24910360179E+04  0.24910360179E+04  0.25500000000E-02 0.  1.
          2    1    1    2    0  502 -0.15000741561E+02  0.17864640710E+02 -0.16326163713E+04  0.16327830179E+04  0.25500000000E-02 0. -1.
         -2    1    1    2  502    0  0.15000741561E+02 -0.17864640710E+02 -0.85817783512E+03  0.85849482488E+03  0.25500000000E-02 0. -1.
<mgrwt>
<rscale>  0 0.49086771E+02</rscale>
<asrwt>0</asrwt>
<pdfrwt beam="2">  1        2 0.38321576E+00 0.49086771E+02</pdfrwt>
<pdfrwt beam="1">  1       -2 0.37204790E-04 0.49086771E+02</pdfrwt>
<totfact> 0.73892779E+05</totfact>
</mgrwt>
</event>
<event>
 4    1  0.2196664E-002  0.5047962E+02  0.7818608E-02  0.1442772E+00
         -2   -1    0    0  501    0 -0.00000000000E+00  0.00000000000E+00  0.15560882611E+03  0.15560882613E+03  0.25500000000E-02 0. -1.
          2   -1    0    0    0  501  0.00000000000E+00 -0.00000000000E+00 -0.40939054262E+01  0.40939062204E+01  0.25500000000E-02 0. -1.
          2    1    1    2    0  502  0.20825125475E+02 -0.13423758967E+01  0.12067319872E+03  0.12246431611E+03  0.25500000000E-02 0.  1.
         -2    1    1    2  502    0 -0.20825125475E+02  0.13423758967E+01  0.30841721967E+02  0.37238416245E+02  0.25500000000E-02 0.  1.
<mgrwt>
<rscale>  0 0.50479615E+02</rscale>
<asrwt>0</asrwt>
<pdfrwt beam="2">  1        2 0.62983167E-03 0.50479615E+02</pdfrwt>
<pdfrwt beam="1">  1       -2 0.23939819E-01 0.50479615E+02</pdfrwt>
<totfact> 0.30268677E+05</totfact>
</mgrwt>
</event>
<event>
 4    1  0.2196664E-002  0.7738702E+02  0.7818608E-02  0.1336635E+00
          2   -1    0    0    0  501  0.00000000000E+00  0.00000000000E+00  0.10677466923E+04  0.10677466923E+04  0.25500000000E-02 0.  1.
         -2   -1    0    0  501    0 -0.00000000000E+00 -0.00000000000E+00 -0.14021925563E+01  0.14021948750E+01  0.25500000000E-02 0.  1.
          2    1    1    2    0  502  0.65814987690E+01  0.30365251839E+02  0.21456647295E+03  0.21680437257E+03  0.25500000000E-02 0. -1.
         -2    1    1    2  502    0 -0.65814987690E+01 -0.30365251839E+02  0.85177802680E+03  0.85234451461E+03  0.25500000000E-02 0. -1.
<mgrwt>
<rscale>  0 0.77387020E+02</rscale>
<asrwt>0</asrwt>
<pdfrwt beam="1">  1        2 0.16426867E+00 0.77387020E+02</pdfrwt>
<pdfrwt beam="2">  1       -2 0.21572218E-03 0.77387020E+02</pdfrwt>
<totfact> 0.38411457E+05</totfact>
</mgrwt>
</event>
<event>
 4    1  0.2196664E-002  0.4531559E+02  0.7818608E-02  0.1472381E+00
          2   -1    0    0    0  501  0.00000000000E+00  0.00000000000E+00  0.21014873660E+04  0.21014873660E+04  0.25500000000E-02 0. -1.
         -2   -1    0    0  501    0 -0.00000000000E+00 -0.00000000000E+00 -0.24428492627E+00  0.24429823516E+00  0.25500000000E-02 0. -1.
          2    1    1    2    0  502 -0.54919326987E+01  0.21940006884E+02  0.11137125072E+04  0.11139421322E+04  0.25500000000E-02 0.  1.
         -2    1    1    2  502    0  0.54919326987E+01 -0.21940006884E+02  0.98753057391E+03  0.98778953206E+03  0.25500000000E-02 0.  1.
<mgrwt>
<rscale>  0 0.45315590E+02</rscale>
<asrwt>0</asrwt>
<pdfrwt beam="1">  1        2 0.32330252E+00 0.45315590E+02</pdfrwt>
<pdfrwt beam="2">  1       -2 0.37583696E-04 0.45315590E+02</pdfrwt>
<totfact> 0.11210638E+06</totfact>
</mgrwt>
</event>
<event>
 4    1  0.2196664E-002  0.6551801E+02  0.7818608E-02  0.1376033E+00
          2   -1    0    0    0  501  0.00000000000E+00  0.00000000000E+00  0.10849630896E+03  0.10849630899E+03  0.25500000000E-02 0.  1.
         -2   -1    0    0  501    0 -0.00000000000E+00 -0.00000000000E+00 -0.98911412722E+01  0.98911416009E+01  0.25500000000E-02 0.  1.
          2    1    1    2    0  502  0.12907555119E+02  0.16014892561E+02  0.32318386407E+01  0.20821300401E+02  0.25500000000E-02 0.  1.
         -2    1    1    2  502    0 -0.12907555119E+02 -0.16014892561E+02  0.95373329052E+02  0.97566150195E+02  0.25500000000E-02 0.  1.
<mgrwt>
<rscale>  0 0.65518008E+02</rscale>
<asrwt>0</asrwt>
<pdfrwt beam="1">  1        2 0.16691740E-01 0.65518008E+02</pdfrwt>
<pdfrwt beam="2">  1       -2 0.15217140E-02 0.65518008E+02</pdfrwt>
<totfact> 0.30506840E+05</totfact>
</mgrwt>
</event>
<event>
 4    1  0.2196664E-002  0.6450161E+02  0.7818608E-02  0.1379856E+00
         -2   -1    0    0  501    0 -0.00000000000E+00  0.00000000000E+00  0.83842758165E+03  0.83842758165E+03  0.25500000000E-02 0. -1.
          2   -1    0    0    0  501  0.00000000000E+00 -0.00000000000E+00 -0.12405523944E+01  0.12405550152E+01  0.25500000000E-02 0. -1.
          2    1    1    2    0  502 -0.21493568671E+02  0.23653835704E+02  0.36239496139E+03  0.36380157433E+03  0.25500000000E-02 0.  1.
         -2    1    1    2  502    0  0.21493568671E+02 -0.23653835704E+02  0.47479206786E+03  0.47586656234E+03  0.25500000000E-02 0.  1.
<mgrwt>
<rscale>  0 0.64501611E+02</rscale>
<asrwt>0</asrwt>
<pdfrwt beam="2">  1        2 0.19085401E-03 0.64501611E+02</pdfrwt>
<pdfrwt beam="1">  1       -2 0.12898913E+00 0.64501611E+02</pdfrwt>
<totfact> 0.55083784E+04</totfact>
</mgrwt>
</event>
<event>
 4    1  0.2196664E-002  0.5844223E+02  0.7818608E-02  0.1404488E+00
         -2   -1    0    0  501    0 -0.00000000000E+00  0.00000000000E+00  0.66100008489E+00  0.66100500356E+00  0.25500000000E-02 0. -1.
          2   -1    0    0    0  501  0.00000000000E+00 -0.00000000000E+00 -0.12917854796E+04  0.12917854796E+04  0.25500000000E-02 0. -1.
          2    1    1    2    0  502  0.25007073500E+02 -0.14845616772E+01 -0.97825494714E+03  0.97857564821E+03  0.25500000000E-02 0. -1.
         -2    1    1    2  502    0 -0.25007073500E+02  0.14845616772E+01 -0.31286953241E+03  0.31387083644E+03  0.25500000000E-02 0. -1.
<mgrwt>
<rscale>  0 0.58442228E+02</rscale>
<asrwt>0</asrwt>
<pdfrwt beam="2">  1        2 0.19873421E+00 0.58442228E+02</pdfrwt>
<pdfrwt beam="1">  1       -2 0.10169373E-03 0.58442228E+02</pdfrwt>
<totfact> 0.77294230E+05</totfact>
</mgrwt>
</event>
<event>
 4    1  0.2196664E-002  0.4171618E+02  0.7818608E-02  0.1495949E+00
          2   -1    0    0    0  501  0.00000000000E+00  0.00000000000E+00  0.15132772272E+04  0.15132772272E+04  0.25500000000E-02 0. -1.
         -2   -1    0    0  501    0 -0.00000000000E+00 -0.00000000000E+00 -0.28748953108E+00  0.28750083997E+00  0.25500000000E-02 0. -1.
          2    1    1    2    0  502 -0.17566139960E+02  0.10655809259E+02  0.88703285899E+03  0.88727076390E+03  0.25500000000E-02 0.  1.
         -2    1    1    2  502    0  0.17566139960E+02 -0.10655809259E+02  0.62595687872E+03  0.62629396418E+03  0.25500000000E-02 0.  1.
<mgrwt>
<rscale>  0 0.41716180E+02</rscale>
<asrwt>0</asrwt>
<pdfrwt beam="1">  1        2 0.23281508E+00 0.41716180E+02</pdfrwt>
<pdfrwt beam="2">  1       -2 0.44229422E-04 0.41716180E+02</pdfrwt>
<totfact> 0.17040332E+06</totfact>
</mgrwt>
</event>
<event>
 4    1  0.2196664E-002  0.5747215E+02  0.7818608E-02  0.1408757E+00
         -2   -1    0    0  501    0 -0.00000000000E+00  0.00000000000E+00  0.59404135407E+01  0.59404140880E+01  0.25500000000E-02 0.  1.
          2   -1    0    0    0  501  0.00000000000E+00 -0.00000000000E+00 -0.13900747210E+03  0.13900747213E+03  0.25500000000E-02 0.  1.
          2    1    1    2    0  502 -0.41111359688E+01  0.28286843041E+02 -0.73978921325E+02  0.79309064647E+02  0.25500000000E-02 0. -1.
         -2    1    1    2  502    0  0.41111359688E+01 -0.28286843041E+02 -0.59088137237E+02  0.65638821568E+02  0.25500000000E-02 0. -1.
<mgrwt>
<rscale>  0 0.57472147E+02</rscale>
<asrwt>0</asrwt>
<pdfrwt beam="2">  1        2 0.21385763E-01 0.57472147E+02</pdfrwt>
<pdfrwt beam="1">  1       -2 0.91390992E-03 0.57472147E+02</pdfrwt>
<totfact> 0.46073826E+05</totfact>
</mgrwt>
</event>
<event>
 4    1  0.2196664E-002  0.6220929E+02  0.7818608E-02  0.1388787E+00
          2   -1    0    0    0  501  0.00000000000E+00  0.00000000000E+00  0.98810708974E+03  0.98810708975E+03  0.25500000000E-02 0. -1.
         -2   -1    0    0  501    0 -0.00000000000E+00 -0.00000000000E+00 -0.97914229409E+00  0.97914561459E+00  0.25500000000E-02 0. -1.
          2    1    1    2    0  502  0.27720636725E+02  0.13988314646E+02  0.46427969653E+03  0.46531682031E+03  0.25500000000E-02 0.  1.
         -2    1    1    2  502    0 -0.27720636725E+02 -0.13988314646E+02  0.52284825092E+03  0.52376941506E+03  0.25500000000E-02 0.  1.
<mgrwt>
<rscale>  0 0.62209295E+02</rscale>
<asrwt>0</asrwt>
<pdfrwt beam="1">  1        2 0.15201636E+00 0.62209295E+02</pdfrwt>
<pdfrwt beam="2">  1       -2 0.15063765E-03 0.62209295E+02</pdfrwt>
<totfact> 0.67041234E+05</totfact>
</mgrwt>
</event>
<event>
 4    1  0.2196664E-002  0.4138576E+02  0.7818608E-02  0.1498255E+00
          2   -1    0    0    0  501  0.00000000000E+00  0.00000000000E+00  0.10336387954E+03  0.10336387957E+03  0.25500000000E-02 0.  1.
         -2   -1    0    0  501    0 -0.00000000000E+00 -0.00000000000E+00 -0.41425996123E+01  0.41426003971E+01  0.25500000000E-02 0.  1.
          2    1    1    2    0  502  0.12634703107E+02  0.16373391655E+02  0.51394403923E+02  0.55399534637E+02  0.25500000000E-02 0. -1.
         -2    1    1    2  502    0 -0.12634703107E+02 -0.16373391655E+02  0.47826876002E+02  0.52106945329E+02  0.25500000000E-02 0. -1.
<mgrwt>
<rscale>  0 0.41385757E+02</rscale>
<asrwt>0</asrwt>
<pdfrwt beam="1">  1        2 0.15902133E-01 0.41385757E+02</pdfrwt>
<pdfrwt beam="2">  1       -2 0.63732317E-03 0.41385757E+02</pdfrwt>
<totfact> 0.96887238E+05</totfact>
</mgrwt>
</event>
<event>
 4    1  0.2196664E-002  0.5673302E+02  0.7818608E-02  0.1412077E+00
          2   -1    0    0    0  501  0.00000000000E+00  0.00000000000E+00  0.15275556614E+03  0.15275556616E+03  0.25500000000E-02 0. -1.
         -2   -1    0    0  501    0 -0.00000000000E+00 -0.00000000000E+00 -0.52676241807E+01  0.52676247979E+01  0.25500000000E-02 0. -1.
          2    1    1    2    0  502  0.15770880401E+02 -0.22639706037E+02  0.55398042811E+02  0.61888772098E+02  0.25500000000E-02 0. -1.
         -2    1    1    2  502    0 -0.15770880401E+02  0.22639706037E+02  0.92089899150E+02  0.96134418862E+02  0.25500000000E-02 0. -1.
<mgrwt>
<rscale>  0 0.56733023E+02</rscale>
<asrwt>0</asrwt>
<pdfrwt beam="1">  1        2 0.23500857E-01 0.56733023E+02</pdfrwt>
<pdfrwt beam="2">  1       -2 0.81040376E-03 0.56733023E+02</pdfrwt>
<totfact> 0.49029643E+05</totfact>
</mgrwt>
</event>
<event>
 4    1  0.2196664E-002  0.4962071E+02  0.7818608E-02  0.1447398E+00
         -2   -1    0    0  501    0 -0.00000000000E+00  0.00000000000E+00  0.23504099224E+00  0.23505482452E+00  0.25500000000E-02 0. -1.
          2   -1    0    0    0  501  0.00000000000E+00 -0.00000000000E+00 -0.26188438432E+04  0.26188438432E+04  0.25500000000E-02 0. -1.
          2    1    1    2    0  502  0.22615531252E+02 -0.94241141264E+01 -0.11029978961E+04  0.11032699737E+04  0.25500000000E-02 0. -1.
         -2    1    1    2  502    0 -0.22615531252E+02  0.94241141264E+01 -0.15156109062E+04  0.15158089243E+04  0.25500000000E-02 0. -1.
<mgrwt>
<rscale>  0 0.49620712E+02</rscale>
<asrwt>0</asrwt>
<pdfrwt beam="2">  1        2 0.40287569E+00 0.49620712E+02</pdfrwt>
<pdfrwt beam="1">  1       -2 0.36163314E-04 0.49620712E+02</pdfrwt>
<totfact> 0.66120403E+05</totfact>
</mgrwt>
</event>
<event>
 4    1  0.2196664E-002  0.8902357E+02  0.7818608E-02  0.1305234E+00
         -2   -1    0    0  501    0 -0.00000000000E+00  0.00000000000E+00  0.57961012302E+01  0.57961017912E+01  0.25500000000E-02 0.  1.
          2   -1    0    0    0  501  0.00000000000E+00 -0.00000000000E+00 -0.34183306347E+03  0.34183306348E+03  0.25500000000E-02 0.  1.
          2    1    1    2    0  502 -0.63147906599E+01 -0.41365312532E+02 -0.10875465177E+03  0.11652699237E+03  0.25500000000E-02 0.  1.
         -2    1    1    2  502    0  0.63147906599E+01  0.41365312532E+02 -0.22728231047E+03  0.23110217291E+03  0.25500000000E-02 0.  1.
<mgrwt>
<rscale>  0 0.89023573E+02</rscale>
<asrwt>0</asrwt>
<pdfrwt beam="2">  1        2 0.52589686E-01 0.89023573E+02</pdfrwt>
<pdfrwt beam="1">  1       -2 0.89170819E-03 0.89023573E+02</pdfrwt>
<totfact> 0.20091845E+05</totfact>
</mgrwt>
</event>
<event>
 4    1  0.2196664E-002  0.4434746E+02  0.7818608E-02  0.1478457E+00
          2   -1    0    0    0  501  0.00000000000E+00  0.00000000000E+00  0.47591446569E+02  0.47591446637E+02  0.25500000000E-02 0.  1.
         -2   -1    0    0  501    0 -0.00000000000E+00 -0.00000000000E+00 -0.10331147790E+02  0.10331148105E+02  0.25500000000E-02 0.  1.
          2    1    1    2    0  502  0.20627413641E+02  0.28135597599E+01  0.86601719160E+01  0.22547835731E+02  0.25500000000E-02 0.  1.
         -2    1    1    2  502    0 -0.20627413641E+02 -0.28135597599E+01  0.28600126862E+02  0.35374759011E+02  0.25500000000E-02 0.  1.
<mgrwt>
<rscale>  0 0.44347459E+02</rscale>
<asrwt>0</asrwt>
<pdfrwt beam="1">  1        2 0.73217611E-02 0.44347459E+02</pdfrwt>
<pdfrwt beam="2">  1       -2 0.15894074E-02 0.44347459E+02</pdfrwt>
<totfact> 0.69043356E+05</totfact>
</mgrwt>
</event>
<event>
 4    1  0.2196664E-002  0.5770861E+02  0.7818608E-02  0.1407707E+00
          2   -1    0    0    0  501  0.00000000000E+00  0.00000000000E+00  0.94825929708E+02  0.94825929743E+02  0.25500000000E-02 0. -1.
         -2   -1    0    0  501    0 -0.00000000000E+00 -0.00000000000E+00 -0.87799910751E+01  0.87799914454E+01  0.25500000000E-02 0. -1.
          2    1    1    2    0  502 -0.20663164184E+02  0.59423546900E+01  0.77570473219E+02  0.80495069758E+02  0.25500000000E-02 0. -1.
         -2    1    1    2  502    0  0.20663164184E+02 -0.59423546900E+01  0.84754654137E+01  0.23110851430E+02  0.25500000000E-02 0. -1.
<mgrwt>
<rscale>  0 0.57708607E+02</rscale>
<asrwt>0</asrwt>
<pdfrwt beam="1">  1        2 0.14588604E-01 0.57708607E+02</pdfrwt>
<pdfrwt beam="2">  1       -2 0.13507679E-02 0.57708607E+02</pdfrwt>
<totfact> 0.40914681E+05</totfact>
</mgrwt>
</event>
<event>
 4    1  0.2196664E-002  0.4764765E+02  0.7818608E-02  0.1458459E+00
         -2   -1    0    0  501    0 -0.00000000000E+00  0.00000000000E+00  0.38608056274E+00  0.38608898382E+00  0.25500000000E-02 0.  1.
          2   -1    0    0    0  501  0.00000000000E+00 -0.00000000000E+00 -0.14700780151E+04  0.14700780151E+04  0.25500000000E-02 0.  1.
          2    1    1    2    0  502 -0.18398325150E+02 -0.11257696207E+02 -0.42264304060E+03  0.42319306926E+03  0.25500000000E-02 0. -1.
         -2    1    1    2  502    0  0.18398325150E+02  0.11257696207E+02 -0.10470488939E+04  0.10472710348E+04  0.25500000000E-02 0. -1.
<mgrwt>
<rscale>  0 0.47647654E+02</rscale>
<asrwt>0</asrwt>
<pdfrwt beam="2">  1        2 0.22616137E+00 0.47647654E+02</pdfrwt>
<pdfrwt beam="1">  1       -2 0.59398834E-04 0.47647654E+02</pdfrwt>
<totfact> 0.12432697E+06</totfact>
</mgrwt>
</event>
<event>
 4    1  0.2196664E-002  0.1162169E+03  0.7818608E-02  0.1249472E+00
          2   -1    0    0    0  501  0.00000000000E+00  0.00000000000E+00  0.79007384244E+03  0.79007384244E+03  0.25500000000E-02 0. -1.
         -2   -1    0    0  501    0 -0.00000000000E+00 -0.00000000000E+00 -0.42737679624E+01  0.42737687232E+01  0.25500000000E-02 0. -1.
          2    1    1    2    0  502  0.10155602903E+02 -0.17477385612E+02  0.76526860787E+03  0.76553552333E+03  0.25500000000E-02 0.  1.
         -2    1    1    2  502    0 -0.10155602903E+02  0.17477385612E+02  0.20531466608E+02  0.28812087841E+02  0.25500000000E-02 0.  1.
<mgrwt>
<rscale>  0 0.11621691E+03</rscale>
<asrwt>0</asrwt>
<pdfrwt beam="1">  1        2 0.12154977E+00 0.11621691E+03</pdfrwt>
<pdfrwt beam="2">  1       -2 0.65750310E-03 0.11621691E+03</pdfrwt>
<totfact> 0.12729936E+05</totfact>
</mgrwt>
</event>
<event>
 4    1  0.2196664E-002  0.4758153E+02  0.7818608E-02  0.1458840E+00
          2   -1    0    0    0  501  0.00000000000E+00  0.00000000000E+00  0.24312097558E+04  0.24312097558E+04  0.25500000000E-02 0. -1.
         -2   -1    0    0  501    0 -0.00000000000E+00 -0.00000000000E+00 -0.23279911485E+00  0.23281308034E+00  0.25500000000E-02 0. -1.
          2    1    1    2    0  502  0.20928456559E+02  0.11192786426E+02  0.11311850965E+04  0.11314340464E+04  0.25500000000E-02 0.  1.
         -2    1    1    2  502    0 -0.20928456559E+02 -0.11192786426E+02  0.12997918601E+04  0.13000085224E+04  0.25500000000E-02 0.  1.
<mgrwt>
<rscale>  0 0.47581528E+02</rscale>
<asrwt>0</asrwt>
<pdfrwt beam="1">  1        2 0.37403227E+00 0.47581528E+02</pdfrwt>
<pdfrwt beam="2">  1       -2 0.35816323E-04 0.47581528E+02</pdfrwt>
<totfact> 0.82909855E+05</totfact>
</mgrwt>
</event>
<event>
 4    1  0.2196664E-002  0.4190524E+02  0.7818608E-02  0.1494641E+00
         -2   -1    0    0  501    0 -0.00000000000E+00  0.00000000000E+00  0.22246477463E+01  0.22246492078E+01  0.25500000000E-02 0. -1.
          2   -1    0    0    0  501  0.00000000000E+00 -0.00000000000E+00 -0.19734005229E+03  0.19734005231E+03  0.25500000000E-02 0. -1.
          2    1    1    2    0  502  0.18739840975E+02  0.84509031249E+01 -0.78264368305E+02  0.80919161860E+02  0.25500000000E-02 0. -1.
         -2    1    1    2  502    0 -0.18739840975E+02 -0.84509031249E+01 -0.11685103624E+03  0.11864553966E+03  0.25500000000E-02 0. -1.
<mgrwt>
<rscale>  0 0.41905238E+02</rscale>
<asrwt>0</asrwt>
<pdfrwt beam="2">  1        2 0.30359994E-01 0.41905238E+02</pdfrwt>
<pdfrwt beam="1">  1       -2 0.34225377E-03 0.41905238E+02</pdfrwt>
<totfact> 0.11350314E+06</totfact>
</mgrwt>
</event>
<event>
 4    1  0.2196664E-002  0.5462617E+02  0.7818608E-02  0.1421875E+00
          2   -1    0    0    0  501  0.00000000000E+00  0.00000000000E+00  0.20397199908E+04  0.20397199908E+04  0.25500000000E-02 0. -1.
         -2   -1    0    0  501    0 -0.00000000000E+00 -0.00000000000E+00 -0.36573424419E+00  0.36574313373E+00  0.25500000000E-02 0. -1.
          2    1    1    2    0  502 -0.15008481071E+02  0.21837673399E+02  0.77232716371E+03  0.77278159029E+03  0.25500000000E-02 0.  1.
         -2    1    1    2  502    0  0.15008481071E+02 -0.21837673399E+02  0.12670270928E+04  0.12673041436E+04  0.25500000000E-02 0.  1.
<mgrwt>
<rscale>  0 0.54626167E+02</rscale>
<asrwt>0</asrwt>
<pdfrwt beam="1">  1        2 0.31380440E+00 0.54626167E+02</pdfrwt>
<pdfrwt beam="2">  1       -2 0.56267254E-04 0.54626167E+02</pdfrwt>
<totfact> 0.72420551E+05</totfact>
</mgrwt>
</event>
<event>
 4    1  0.2196664E-002  0.4342818E+02  0.7818608E-02  0.1484400E+00
         -2   -1    0    0  501    0 -0.00000000000E+00  0.00000000000E+00  0.23962075150E+00  0.23963431943E+00  0.25500000000E-02 0. -1.
          2   -1    0    0    0  501  0.00000000000E+00 -0.00000000000E+00 -0.19676440715E+04  0.19676440715E+04  0.25500000000E-02 0. -1.
          2    1    1    2    0  502  0.87687357869E+01 -0.19618238483E+02 -0.11250897595E+04  0.11252949537E+04  0.25500000000E-02 0. -1.
         -2    1    1    2  502    0 -0.87687357869E+01  0.19618238483E+02 -0.84231469125E+03  0.84258875206E+03  0.25500000000E-02 0. -1.
<mgrwt>
<rscale>  0 0.43428180E+02</rscale>
<asrwt>0</asrwt>
<pdfrwt beam="2">  1        2 0.30270153E+00 0.43428180E+02</pdfrwt>
<pdfrwt beam="1">  1       -2 0.36867351E-04 0.43428180E+02</pdfrwt>
<totfact> 0.13237412E+06</totfact>
</mgrwt>
</event>
<event>
 4    1  0.2196664E-002  0.1151423E+03  0.7818608E-02  0.1251333E+00
         -2   -1    0    0  501    0 -0.00000000000E+00  0.00000000000E+00  0.14358638607E+01  0.14358661250E+01  0.25500000000E-02 0.  1.
          2   -1    0    0    0  501  0.00000000000E+00 -0.00000000000E+00 -0.23083227697E+04  0.23083227697E+04  0.25500000000E-02 0.  1.
          2    1    1    2    0  502  0.37895021079E+02  0.43339187018E+02 -0.11464339165E+04  0.11478784964E+04  0.25500000000E-02 0.  1.
         -2    1    1    2  502    0 -0.37895021079E+02 -0.43339187018E+02 -0.11604529894E+04  0.11618801394E+04  0.25500000000E-02 0.  1.
<mgrwt>
<rscale>  0 0.11514234E+03</rscale>
<asrwt>0</asrwt>
<pdfrwt beam="2">  1        2 0.35512361E+00 0.11514234E+03</pdfrwt>
<pdfrwt beam="1">  1       -2 0.22090415E-03 0.11514234E+03</pdfrwt>
<totfact> 0.89563272E+04</totfact>
</mgrwt>
</event>
<event>
 4    1  0.2196664E-002  0.8090549E+02  0.7818608E-02  0.1326501E+00
         -2   -1    0    0  501    0 -0.00000000000E+00  0.00000000000E+00  0.41296852249E+03  0.41296852250E+03  0.25500000000E-02 0. -1.
          2   -1    0    0    0  501  0.00000000000E+00 -0.00000000000E+00 -0.39625889901E+01  0.39625898106E+01  0.25500000000E-02 0. -1.
          2    1    1    2    0  502  0.78341426543E+01  0.33741122045E+02  0.96826205470E+02  0.10283555407E+03  0.25500000000E-02 0. -1.
         -2    1    1    2  502    0 -0.78341426543E+01 -0.33741122045E+02  0.31217972803E+03  0.31409555825E+03  0.25500000000E-02 0. -1.
<mgrwt>
<rscale>  0 0.80905493E+02</rscale>
<asrwt>0</asrwt>
<pdfrwt beam="2">  1        2 0.60962880E-03 0.80905493E+02</pdfrwt>
<pdfrwt beam="1">  1       -2 0.63533654E-01 0.80905493E+02</pdfrwt>
<totfact> 0.56828032E+04</totfact>
</mgrwt>
</event>
<event>
 4    1  0.2196664E-002  0.6669819E+02  0.7818608E-02  0.1371695E+00
         -2   -1    0    0  501    0 -0.00000000000E+00  0.00000000000E+00  0.56689278426E+01  0.56689284162E+01  0.25500000000E-02 0.  1.
          2   -1    0    0    0  501  0.00000000000E+00 -0.00000000000E+00 -0.19618562658E+03  0.19618562660E+03  0.25500000000E-02 0.  1.
          2    1    1    2    0  502 -0.19563061009E+02 -0.16590424583E+02 -0.15975709121E+03  0.16180322538E+03  0.25500000000E-02 0. -1.
         -2    1    1    2  502    0  0.19563061009E+02  0.16590424583E+02 -0.30759607527E+02  0.40051329636E+02  0.25500000000E-02 0. -1.
<mgrwt>
<rscale>  0 0.66698192E+02</rscale>
<asrwt>0</asrwt>
<pdfrwt beam="2">  1        2 0.30182399E-01 0.66698192E+02</pdfrwt>
<pdfrwt beam="1">  1       -2 0.87214294E-03 0.66698192E+02</pdfrwt>
<totfact> 0.35092274E+05</totfact>
</mgrwt>
</event>
<event>
 4    1  0.2196664E-002  0.4680720E+02  0.7818608E-02  0.1463365E+00
          2   -1    0    0    0  501  0.00000000000E+00  0.00000000000E+00  0.62048480837E+00  0.62049004821E+00  0.25500000000E-02 0. -1.
         -2   -1    0    0  501    0 -0.00000000000E+00 -0.00000000000E+00 -0.88273924658E+03  0.88273924658E+03  0.25500000000E-02 0. -1.
          2    1    1    2    0  502 -0.97306502351E+01 -0.20366495167E+02 -0.55777648235E+03  0.55823300149E+03  0.25500000000E-02 0.  1.
         -2    1    1    2  502    0  0.97306502351E+01  0.20366495167E+02 -0.32434227942E+03  0.32512673514E+03  0.25500000000E-02 0.  1.
<mgrwt>
<rscale>  0 0.46807205E+02</rscale>
<asrwt>0</asrwt>
<pdfrwt beam="1">  1        2 0.95460311E-04 0.46807205E+02</pdfrwt>
<pdfrwt beam="2">  1       -2 0.13580503E+00 0.46807205E+02</pdfrwt>
<totfact> 0.11537921E+05</totfact>
</mgrwt>
</event>
<event>
 4    1  0.2196664E-002  0.5584141E+02  0.7818608E-02  0.1416161E+00
          2   -1    0    0    0  501  0.00000000000E+00  0.00000000000E+00  0.59075321257E+03  0.59075321257E+03  0.25500000000E-02 0.  1.
         -2   -1    0    0  501    0 -0.00000000000E+00 -0.00000000000E+00 -0.13196121924E+01  0.13196146562E+01  0.25500000000E-02 0.  1.
          2    1    1    2    0  502 -0.27485475921E+02 -0.33782735303E+01  0.33250450104E+03  0.33365567182E+03  0.25500000000E-02 0.  1.
         -2    1    1    2  502    0  0.27485475921E+02  0.33782735303E+01  0.25692909934E+03  0.25841715541E+03  0.25500000000E-02 0.  1.
<mgrwt>
<rscale>  0 0.55841414E+02</rscale>
<asrwt>0</asrwt>
<pdfrwt beam="1">  1        2 0.90885198E-01 0.55841414E+02</pdfrwt>
<pdfrwt beam="2">  1       -2 0.20301725E-03 0.55841414E+02</pdfrwt>
<totfact> 0.80121206E+05</totfact>
</mgrwt>
</event>
<event>
 4    1  0.2196664E-002  0.5219330E+02  0.7818608E-02  0.1433858E+00
          2   -1    0    0    0  501  0.00000000000E+00  0.00000000000E+00  0.11895582598E+04  0.11895582598E+04  0.25500000000E-02 0.  1.
         -2   -1    0    0  501    0 -0.00000000000E+00 -0.00000000000E+00 -0.57250821427E+00  0.57251389320E+00  0.25500000000E-02 0.  1.
          2    1    1    2    0  502 -0.24808699539E+02  0.75287155489E+01  0.66245049937E+03  0.66295762855E+03  0.25500000000E-02 0.  1.
         -2    1    1    2  502    0  0.24808699539E+02 -0.75287155489E+01  0.52653525226E+03  0.52717314519E+03  0.25500000000E-02 0.  1.
<mgrwt>
<rscale>  0 0.52193304E+02</rscale>
<asrwt>0</asrwt>
<pdfrwt beam="1">  1        2 0.18300690E+00 0.52193304E+02</pdfrwt>
<pdfrwt beam="2">  1       -2 0.88079616E-04 0.52193304E+02</pdfrwt>
<totfact> 0.10368806E+06</totfact>
</mgrwt>
</event>
<event>
 4    1  0.2196664E-002  0.4955506E+02  0.7818608E-02  0.1447756E+00
         -2   -1    0    0  501    0 -0.00000000000E+00  0.00000000000E+00  0.12978824401E+01  0.12978849451E+01  0.25500000000E-02 0.  1.
          2   -1    0    0    0  501  0.00000000000E+00 -0.00000000000E+00 -0.47302077621E+03  0.47302077622E+03  0.25500000000E-02 0.  1.
          2    1    1    2    0  502  0.23973792809E+02  0.39520985970E+01 -0.18939838098E+03  0.19095053954E+03  0.25500000000E-02 0. -1.
         -2    1    1    2  502    0 -0.23973792809E+02 -0.39520985970E+01 -0.28232451279E+03  0.28336812162E+03  0.25500000000E-02 0. -1.
<mgrwt>
<rscale>  0 0.49555058E+02</rscale>
<asrwt>0</asrwt>
<pdfrwt beam="2">  1        2 0.72772290E-01 0.49555058E+02</pdfrwt>
<pdfrwt beam="1">  1       -2 0.19967479E-03 0.49555058E+02</pdfrwt>
<totfact> 0.10091663E+06</totfact>
</mgrwt>
</event>
<event>
 4    1  0.2196664E-002  0.4939962E+02  0.7818608E-02  0.1448607E+00
          2   -1    0    0    0  501  0.00000000000E+00  0.00000000000E+00  0.22023105319E+04  0.22023105319E+04  0.25500000000E-02 0. -1.
         -2   -1    0    0  501    0 -0.00000000000E+00 -0.00000000000E+00 -0.27701255302E+00  0.27702428961E+00  0.25500000000E-02 0. -1.
          2    1    1    2    0  502  0.23111786665E+02  0.66186690784E+01  0.84832481203E+03  0.84866539235E+03  0.25500000000E-02 0.  1.
         -2    1    1    2  502    0 -0.23111786665E+02 -0.66186690784E+01  0.13537087074E+04  0.13539221639E+04  0.25500000000E-02 0.  1.
<mgrwt>
<rscale>  0 0.49399619E+02</rscale>
<asrwt>0</asrwt>
<pdfrwt beam="1">  1        2 0.33881217E+00 0.49399619E+02</pdfrwt>
<pdfrwt beam="2">  1       -2 0.42618827E-04 0.49399619E+02</pdfrwt>
<totfact> 0.85958766E+05</totfact>
</mgrwt>
</event>
<event>
 4    1  0.2196664E-002  0.4524584E+02  0.7818608E-02  0.1472813E+00
          2   -1    0    0    0  501  0.00000000000E+00  0.00000000000E+00  0.46737272409E+01  0.46737279365E+01  0.25500000000E-02 0.  1.
         -2   -1    0    0  501    0 -0.00000000000E+00 -0.00000000000E+00 -0.10950498348E+03  0.10950498351E+03  0.25500000000E-02 0.  1.
          2    1    1    2    0  502  0.19942405581E+02 -0.10027485891E+02 -0.61703563341E+02  0.65616916639E+02  0.25500000000E-02 0. -1.
         -2    1    1    2  502    0 -0.19942405581E+02  0.10027485891E+02 -0.43127692894E+02  0.48561794804E+02  0.25500000000E-02 0. -1.
<mgrwt>
<rscale>  0 0.45245838E+02</rscale>
<asrwt>0</asrwt>
<pdfrwt beam="1">  1        2 0.71903510E-03 0.45245838E+02</pdfrwt>
<pdfrwt beam="2">  1       -2 0.16846919E-01 0.45245838E+02</pdfrwt>
<totfact> 0.43960715E+05</totfact>
</mgrwt>
</event>
<event>
 4    1  0.2196664E-002  0.5136961E+02  0.7818608E-02  0.1438091E+00
         -2   -1    0    0  501    0 -0.00000000000E+00  0.00000000000E+00  0.68284462970E+02  0.68284463018E+02  0.25500000000E-02 0.  1.
          2   -1    0    0    0  501  0.00000000000E+00 -0.00000000000E+00 -0.96611913628E+01  0.96611916993E+01  0.25500000000E-02 0.  1.
          2    1    1    2    0  502  0.23084745685E+02 -0.73960326620E+01  0.42195933430E+02  0.48663164581E+02  0.25500000000E-02 0.  1.
         -2    1    1    2  502    0 -0.23084745685E+02  0.73960326620E+01  0.16427338178E+02  0.29282490137E+02  0.25500000000E-02 0.  1.
<mgrwt>
<rscale>  0 0.51369613E+02</rscale>
<asrwt>0</asrwt>
<pdfrwt beam="2">  1        2 0.14863371E-02 0.51369613E+02</pdfrwt>
<pdfrwt beam="1">  1       -2 0.10505302E-01 0.51369613E+02</pdfrwt>
<totfact> 0.36026670E+05</totfact>
</mgrwt>
</event>
<event>
 4    1  0.2196664E-002  0.5107704E+02  0.7818608E-02  0.1439617E+00
          2   -1    0    0    0  501  0.00000000000E+00  0.00000000000E+00  0.25223134507E+01  0.25223147397E+01  0.25500000000E-02 0. -1.
         -2   -1    0    0  501    0 -0.00000000000E+00 -0.00000000000E+00 -0.25857838101E+03  0.25857838102E+03  0.25500000000E-02 0. -1.
          2    1    1    2    0  502  0.12676521856E+02  0.16392319529E+02 -0.20433305863E+03  0.20538111208E+03  0.25500000000E-02 0. -1.
         -2    1    1    2  502    0 -0.12676521856E+02 -0.16392319529E+02 -0.51723008928E+02  0.55719583675E+02  0.25500000000E-02 0. -1.
<mgrwt>
<rscale>  0 0.51077036E+02</rscale>
<asrwt>0</asrwt>
<pdfrwt beam="1">  1        2 0.38804853E-03 0.51077036E+02</pdfrwt>
<pdfrwt beam="2">  1       -2 0.39781269E-01 0.51077036E+02</pdfrwt>
<totfact> 0.23818549E+05</totfact>
</mgrwt>
</event>
<event>
 4    1  0.2196664E-002  0.1074040E+03  0.7818608E-02  0.1265454E+00
         -2   -1    0    0  501    0 -0.00000000000E+00  0.00000000000E+00  0.18123753376E+01  0.18123771315E+01  0.25500000000E-02 0. -1.
          2   -1    0    0    0  501  0.00000000000E+00 -0.00000000000E+00 -0.15912271463E+04  0.15912271463E+04  0.25500000000E-02 0. -1.
          2    1    1    2    0  502 -0.68940905980E+01  0.38902342019E+02 -0.13341971153E+04  0.13347819534E+04  0.25500000000E-02 0. -1.
         -2    1    1    2  502    0  0.68940905980E+01 -0.38902342019E+02 -0.25521765562E+03  0.25825756997E+03  0.25500000000E-02 0. -1.
<mgrwt>
<rscale>  0 0.10740395E+03</rscale>
<asrwt>0</asrwt>
<pdfrwt beam="2">  1        2 0.24480306E+00 0.10740395E+03</pdfrwt>
<pdfrwt beam="1">  1       -2 0.27882839E-03 0.10740395E+03</pdfrwt>
<totfact> 0.14893672E+05</totfact>
</mgrwt>
</event>
<event>
 4    1  0.2196664E-002  0.6117368E+02  0.7818608E-02  0.1392971E+00
          2   -1    0    0    0  501  0.00000000000E+00  0.00000000000E+00  0.86082175551E+02  0.86082175589E+02  0.25500000000E-02 0.  1.
         -2   -1    0    0  501    0 -0.00000000000E+00 -0.00000000000E+00 -0.10868157587E+02  0.10868157886E+02  0.25500000000E-02 0.  1.
          2    1    1    2    0  502  0.27184628027E+01  0.28709546391E+02  0.21450481858E+02  0.35940941451E+02  0.25500000000E-02 0. -1.
         -2    1    1    2  502    0 -0.27184628027E+01 -0.28709546391E+02  0.53763536106E+02  0.61009392024E+02  0.25500000000E-02 0. -1.
<mgrwt>
<rscale>  0 0.61173676E+02</rscale>
<asrwt>0</asrwt>
<pdfrwt beam="1">  1        2 0.13243412E-01 0.61173676E+02</pdfrwt>
<pdfrwt beam="2">  1       -2 0.16720242E-02 0.61173676E+02</pdfrwt>
<totfact> 0.34296813E+05</totfact>
</mgrwt>
</event>
<event>
 4    1  0.2196664E-002  0.4749119E+02  0.7818608E-02  0.1459363E+00
          2   -1    0    0    0  501  0.00000000000E+00  0.00000000000E+00  0.97474808930E+03  0.97474808930E+03  0.25500000000E-02 0. -1.
         -2   -1    0    0  501    0 -0.00000000000E+00 -0.00000000000E+00 -0.57845768208E+00  0.57846330260E+00  0.25500000000E-02 0. -1.
          2    1    1    2    0  502  0.16959009593E+02 -0.16576710201E+02  0.46228747106E+03  0.46289534588E+03  0.25500000000E-02 0.  1.
         -2    1    1    2  502    0 -0.16959009593E+02  0.16576710201E+02  0.51188216055E+03  0.51243120672E+03  0.25500000000E-02 0.  1.
<mgrwt>
<rscale>  0 0.47491189E+02</rscale>
<asrwt>0</asrwt>
<pdfrwt beam="1">  1        2 0.14995910E+00 0.47491189E+02</pdfrwt>
<pdfrwt beam="2">  1       -2 0.88995195E-04 0.47491189E+02</pdfrwt>
<totfact> 0.13123875E+06</totfact>
</mgrwt>
</event>
<event>
 4    1  0.2196664E-002  0.4423918E+02  0.7818608E-02  0.1479148E+00
          2   -1    0    0    0  501  0.00000000000E+00  0.00000000000E+00  0.94708013836E+03  0.94708013836E+03  0.25500000000E-02 0.  1.
         -2   -1    0    0  501    0 -0.00000000000E+00 -0.00000000000E+00 -0.51661237688E+00  0.51661867025E+00  0.25500000000E-02 0.  1.
          2    1    1    2    0  502  0.88748647431E+01  0.20065098781E+02  0.41305850372E+03  0.41364078488E+03  0.25500000000E-02 0.  1.
         -2    1    1    2  502    0 -0.88748647431E+01 -0.20065098781E+02  0.53350502226E+03  0.53395597215E+03  0.25500000000E-02 0.  1.
<mgrwt>
<rscale>  0 0.44239182E+02</rscale>
<asrwt>0</asrwt>
<pdfrwt beam="1">  1        2 0.14570326E+00 0.44239182E+02</pdfrwt>
<pdfrwt beam="2">  1       -2 0.79480063E-04 0.44239182E+02</pdfrwt>
<totfact> 0.15574460E+06</totfact>
</mgrwt>
</event>
<event>
 4    1  0.2196664E-002  0.4107893E+02  0.7818608E-02  0.1500418E+00
          2   -1    0    0    0  501  0.00000000000E+00  0.00000000000E+00  0.10181092545E+03  0.10181092548E+03  0.25500000000E-02 0.  1.
         -2   -1    0    0  501    0 -0.00000000000E+00 -0.00000000000E+00 -0.41436577270E+01  0.41436585116E+01  0.25500000000E-02 0.  1.
          2    1    1    2    0  502 -0.11957315355E+02 -0.16307368064E+02  0.58119810993E+02  0.61537143906E+02  0.25500000000E-02 0. -1.
         -2    1    1    2  502    0  0.11957315355E+02  0.16307368064E+02  0.39547456730E+02  0.44417440088E+02  0.25500000000E-02 0. -1.
<mgrwt>
<rscale>  0 0.41078932E+02</rscale>
<asrwt>0</asrwt>
<pdfrwt beam="1">  1        2 0.15663219E-01 0.41078932E+02</pdfrwt>
<pdfrwt beam="2">  1       -2 0.63748590E-03 0.41078932E+02</pdfrwt>
<totfact> 0.98301649E+05</totfact>
</mgrwt>
</event>
<event>
 4    1  0.2196664E-002  0.5025406E+02  0.7818608E-02  0.1443976E+00
          2   -1    0    0    0  501  0.00000000000E+00  0.00000000000E+00  0.10530064109E+04  0.10530064109E+04  0.25500000000E-02 0. -1.
         -2   -1    0    0  501    0 -0.00000000000E+00 -0.00000000000E+00 -0.59958296692E+00  0.59958838942E+00  0.25500000000E-02 0. -1.
          2    1    1    2    0  502  0.68222965117E+01  0.24117627195E+02  0.56349558704E+03  0.56405272829E+03  0.25500000000E-02 0. -1.
         -2    1    1    2  502    0 -0.68222965117E+01 -0.24117627195E+02  0.48891124084E+03  0.48955327095E+03  0.25500000000E-02 0. -1.
<mgrwt>
<rscale>  0 0.50254057E+02</rscale>
<asrwt>0</asrwt>
<pdfrwt beam="1">  1        2 0.16199842E+00 0.50254057E+02</pdfrwt>
<pdfrwt beam="2">  1       -2 0.92245413E-04 0.50254057E+02</pdfrwt>
<totfact> 0.11448503E+06</totfact>
</mgrwt>
</event>
<event>
 4    1  0.2196664E-002  0.4836638E+02  0.7818608E-02  0.1454357E+00
         -2   -1    0    0  501    0 -0.00000000000E+00  0.00000000000E+00  0.11372103082E+01  0.11372131672E+01  0.25500000000E-02 0.  1.
          2   -1    0    0    0  501  0.00000000000E+00 -0.00000000000E+00 -0.51426356734E+03  0.51426356734E+03  0.25500000000E-02 0.  1.
          2    1    1    2    0  502  0.22547510662E+02 -0.65954719302E+01 -0.19540740703E+03  0.19681449442E+03  0.25500000000E-02 0.  1.
         -2    1    1    2  502    0 -0.22547510662E+02  0.65954719302E+01 -0.31771895000E+03  0.31858628609E+03  0.25500000000E-02 0.  1.
<mgrwt>
<rscale>  0 0.48366375E+02</rscale>
<asrwt>0</asrwt>
<pdfrwt beam="2">  1        2 0.79117287E-01 0.48366375E+02</pdfrwt>
<pdfrwt beam="1">  1       -2 0.17495606E-03 0.48366375E+02</pdfrwt>
<totfact> 0.10996689E+06</totfact>
</mgrwt>
</event>
<event>
 4    1  0.2196664E-002  0.5273872E+02  0.7818608E-02  0.1431106E+00
         -2   -1    0    0  501    0 -0.00000000000E+00  0.00000000000E+00  0.24558842551E+01  0.24558855789E+01  0.25500000000E-02 0.  1.
          2   -1    0    0    0  501  0.00000000000E+00 -0.00000000000E+00 -0.28313344289E+03  0.28313344290E+03  0.25500000000E-02 0.  1.
          2    1    1    2    0  502  0.15852904796E+02 -0.20105953611E+02 -0.10618487620E+03  0.10922816441E+03  0.25500000000E-02 0. -1.
         -2    1    1    2  502    0 -0.15852904796E+02  0.20105953611E+02 -0.17449268243E+03  0.17636116406E+03  0.25500000000E-02 0. -1.
<mgrwt>
<rscale>  0 0.52738720E+02</rscale>
<asrwt>0</asrwt>
<pdfrwt beam="2">  1        2 0.43558966E-01 0.52738720E+02</pdfrwt>
<pdfrwt beam="1">  1       -2 0.37782867E-03 0.52738720E+02</pdfrwt>
<totfact> 0.72558864E+05</totfact>
</mgrwt>
</event>
<event>
 4    1  0.2196664E-002  0.5018045E+02  0.7818608E-02  0.1444371E+00
         -2   -1    0    0  501    0 -0.00000000000E+00  0.00000000000E+00  0.28042889466E+01  0.28042901060E+01  0.25500000000E-02 0.  1.
          2   -1    0    0    0  501  0.00000000000E+00 -0.00000000000E+00 -0.22448446491E+03  0.22448446492E+03  0.25500000000E-02 0.  1.
          2    1    1    2    0  502 -0.12889638874E+02  0.21204859429E+02 -0.94056385471E+02  0.97274829776E+02  0.25500000000E-02 0. -1.
         -2    1    1    2  502    0  0.12889638874E+02 -0.21204859429E+02 -0.12762379049E+03  0.13001392525E+03  0.25500000000E-02 0. -1.
<mgrwt>
<rscale>  0 0.50180452E+02</rscale>
<asrwt>0</asrwt>
<pdfrwt beam="2">  1        2 0.34536057E-01 0.50180452E+02</pdfrwt>
<pdfrwt beam="1">  1       -2 0.43142934E-03 0.50180452E+02</pdfrwt>
<totfact> 0.75842600E+05</totfact>
</mgrwt>
</event>
<event>
 4    1  0.2196664E-002  0.5289117E+02  0.7818608E-02  0.1430343E+00
         -2   -1    0    0  501    0 -0.00000000000E+00  0.00000000000E+00  0.68192223292E+01  0.68192228060E+01  0.25500000000E-02 0.  1.
          2   -1    0    0    0  501  0.00000000000E+00 -0.00000000000E+00 -0.10255846680E+03  0.10255846684E+03  0.25500000000E-02 0.  1.
          2    1    1    2    0  502  0.42270543769E+01  0.25940057250E+02 -0.41800032780E+02  0.49376080300E+02  0.25500000000E-02 0. -1.
         -2    1    1    2  502    0 -0.42270543769E+01 -0.25940057250E+02 -0.53939211696E+02  0.60001609343E+02  0.25500000000E-02 0. -1.
<mgrwt>
<rscale>  0 0.52891172E+02</rscale>
<asrwt>0</asrwt>
<pdfrwt beam="2">  1        2 0.15778225E-01 0.52891172E+02</pdfrwt>
<pdfrwt beam="1">  1       -2 0.10491112E-02 0.52891172E+02</pdfrwt>
<totfact> 0.52249989E+05</totfact>
</mgrwt>
</event>
<event>
 4    1  0.2196664E-002  0.5016738E+02  0.7818608E-02  0.1444441E+00
         -2   -1    0    0  501    0 -0.00000000000E+00  0.00000000000E+00  0.58227733254E+00  0.58228291619E+00  0.25500000000E-02 0.  1.
          2   -1    0    0    0  501  0.00000000000E+00 -0.00000000000E+00 -0.10805650551E+04  0.10805650552E+04  0.25500000000E-02 0.  1.
          2    1    1    2    0  502  0.22210507770E+02 -0.10200823752E+02 -0.41840954136E+03  0.41912278365E+03  0.25500000000E-02 0. -1.
         -2    1    1    2  502    0 -0.22210507770E+02  0.10200823752E+02 -0.66157323645E+03  0.66202455442E+03  0.25500000000E-02 0. -1.
<mgrwt>
<rscale>  0 0.50167382E+02</rscale>
<asrwt>0</asrwt>
<pdfrwt beam="2">  1        2 0.16623917E+00 0.50167382E+02</pdfrwt>
<pdfrwt beam="1">  1       -2 0.89582423E-04 0.50167382E+02</pdfrwt>
<totfact> 0.11496287E+06</totfact>
</mgrwt>
</event>
<event>
 4    1  0.2196664E-002  0.4884075E+02  0.7818608E-02  0.1451696E+00
          2   -1    0    0    0  501  0.00000000000E+00  0.00000000000E+00  0.83457416621E+01  0.83457420516E+01  0.25500000000E-02 0.  1.
         -2   -1    0    0  501    0 -0.00000000000E+00 -0.00000000000E+00 -0.71456162181E+02  0.71456162227E+02  0.25500000000E-02 0.  1.
          2    1    1    2    0  502 -0.11257457866E+01 -0.21759513934E+02 -0.49573652678E+02  0.54150630620E+02  0.25500000000E-02 0.  1.
         -2    1    1    2  502    0  0.11257457866E+01  0.21759513934E+02 -0.13536767841E+02  0.25651273658E+02  0.25500000000E-02 0.  1.
<mgrwt>
<rscale>  0 0.48840749E+02</rscale>
<asrwt>0</asrwt>
<pdfrwt beam="1">  1        2 0.12839603E-02 0.48840749E+02</pdfrwt>
<pdfrwt beam="2">  1       -2 0.10993255E-01 0.48840749E+02</pdfrwt>
<totfact> 0.40334386E+05</totfact>
</mgrwt>
</event>
<event>
 4    1  0.2196664E-002  0.1162587E+03  0.7818608E-02  0.1249400E+00
          2   -1    0    0    0  501  0.00000000000E+00  0.00000000000E+00  0.19148014885E+02  0.19148015055E+02  0.25500000000E-02 0. -1.
         -2   -1    0    0  501    0 -0.00000000000E+00 -0.00000000000E+00 -0.17646846036E+03  0.17646846038E+03  0.25500000000E-02 0. -1.
          2    1    1    2    0  502  0.48546383233E+02  0.17840063870E+02 -0.34015842051E+02  0.61903931384E+02  0.25500000000E-02 0.  1.
         -2    1    1    2  502    0 -0.48546383233E+02 -0.17840063870E+02 -0.12330460342E+03  0.13371254405E+03  0.25500000000E-02 0.  1.
<mgrwt>
<rscale>  0 0.11625869E+03</rscale>
<asrwt>0</asrwt>
<pdfrwt beam="1">  1        2 0.29458486E-02 0.11625869E+03</pdfrwt>
<pdfrwt beam="2">  1       -2 0.27148993E-01 0.11625869E+03</pdfrwt>
<totfact> 0.35341000E+04</totfact>
</mgrwt>
</event>
<event>
 4    1  0.2196664E-002  0.6572352E+02  0.7818608E-02  0.1375270E+00
         -2   -1    0    0  501    0 -0.00000000000E+00  0.00000000000E+00  0.27969025733E+03  0.27969025734E+03  0.25500000000E-02 0. -1.
          2   -1    0    0    0  501  0.00000000000E+00 -0.00000000000E+00 -0.38610398581E+01  0.38610407001E+01  0.25500000000E-02 0. -1.
          2    1    1    2    0  502  0.28067443046E+02  0.14137695308E+02  0.96479411050E+02  0.10146887479E+03  0.25500000000E-02 0. -1.
         -2    1    1    2  502    0 -0.28067443046E+02 -0.14137695308E+02  0.17934980642E+03  0.18208242325E+03  0.25500000000E-02 0. -1.
<mgrwt>
<rscale>  0 0.65723523E+02</rscale>
<asrwt>0</asrwt>
<pdfrwt beam="2">  1        2 0.59400596E-03 0.65723523E+02</pdfrwt>
<pdfrwt beam="1">  1       -2 0.43029288E-01 0.65723523E+02</pdfrwt>
<totfact> 0.12204394E+05</totfact>
</mgrwt>
</event>
<event>
 4    1  0.2196664E-002  0.4382798E+02  0.7818608E-02  0.1481794E+00
         -2   -1    0    0  501    0 -0.00000000000E+00  0.00000000000E+00  0.29379118031E+01  0.29379129098E+01  0.25500000000E-02 0.  1.
          2   -1    0    0    0  501  0.00000000000E+00 -0.00000000000E+00 -0.16345722278E+03  0.16345722280E+03  0.25500000000E-02 0.  1.
          2    1    1    2    0  502  0.13512367499E+02 -0.16926139406E+02 -0.92933948658E+02  0.95424300313E+02  0.25500000000E-02 0.  1.
         -2    1    1    2  502    0 -0.13512367499E+02  0.16926139406E+02 -0.67585362319E+02  0.70970835397E+02  0.25500000000E-02 0.  1.
<mgrwt>
<rscale>  0 0.43827982E+02</rscale>
<asrwt>0</asrwt>
<pdfrwt beam="2">  1        2 0.25147258E-01 0.43827982E+02</pdfrwt>
<pdfrwt beam="1">  1       -2 0.45198664E-03 0.43827982E+02</pdfrwt>
<totfact> 0.95753632E+05</totfact>
</mgrwt>
</event>
<event>
 4    1  0.2196664E-002  0.6891615E+02  0.7818608E-02  0.1363818E+00
         -2   -1    0    0  501    0 -0.00000000000E+00  0.00000000000E+00  0.37362097780E+01  0.37362106482E+01  0.25500000000E-02 0.  1.
          2   -1    0    0    0  501  0.00000000000E+00 -0.00000000000E+00 -0.31779764972E+03  0.31779764973E+03  0.25500000000E-02 0.  1.
          2    1    1    2    0  502  0.18008817034E+02 -0.27575791538E+02 -0.20429308957E+03  0.20693092621E+03  0.25500000000E-02 0. -1.
         -2    1    1    2  502    0 -0.18008817034E+02  0.27575791538E+02 -0.10976835037E+03  0.11460293417E+03  0.25500000000E-02 0. -1.
<mgrwt>
<rscale>  0 0.68916147E+02</rscale>
<asrwt>0</asrwt>
<pdfrwt beam="2">  1        2 0.48891925E-01 0.68916147E+02</pdfrwt>
<pdfrwt beam="1">  1       -2 0.57480182E-03 0.68916147E+02</pdfrwt>
<totfact> 0.38255662E+05</totfact>
</mgrwt>
</event>
<event>
 4    1  0.2196664E-002  0.4180829E+02  0.7818608E-02  0.1495311E+00
         -2   -1    0    0  501    0 -0.00000000000E+00  0.00000000000E+00  0.82734062264E+02  0.82734062304E+02  0.25500000000E-02 0.  1.
          2   -1    0    0    0  501  0.00000000000E+00 -0.00000000000E+00 -0.52817824340E+01  0.52817830495E+01  0.25500000000E-02 0.  1.
          2    1    1    2    0  502 -0.34490704281E+01 -0.20582527669E+02  0.41258373286E+02  0.46236240167E+02  0.25500000000E-02 0.  1.
         -2    1    1    2  502    0  0.34490704281E+01  0.20582527669E+02  0.36193906545E+02  0.41779605186E+02  0.25500000000E-02 0.  1.
<mgrwt>
<rscale>  0 0.41808293E+02</rscale>
<asrwt>0</asrwt>
<pdfrwt beam="2">  1        2 0.81258196E-03 0.41808293E+02</pdfrwt>
<pdfrwt beam="1">  1       -2 0.12728317E-01 0.41808293E+02</pdfrwt>
<totfact> 0.56893819E+05</totfact>
</mgrwt>
</event>
<event>
 4    1  0.2196664E-002  0.7375583E+02  0.7818608E-02  0.1347768E+00
          2   -1    0    0    0  501  0.00000000000E+00  0.00000000000E+00  0.54696160465E+03  0.54696160466E+03  0.25500000000E-02 0.  1.
         -2   -1    0    0  501    0 -0.00000000000E+00 -0.00000000000E+00 -0.24864271798E+01  0.24864284874E+01  0.25500000000E-02 0.  1.
          2    1    1    2    0  502 -0.17465103549E+02  0.27992704504E+02  0.14952120247E+03  0.15311829199E+03  0.25500000000E-02 0. -1.
         -2    1    1    2  502    0  0.17465103549E+02 -0.27992704504E+02  0.39495397500E+03  0.39632974116E+03  0.25500000000E-02 0. -1.
<mgrwt>
<rscale>  0 0.73755829E+02</rscale>
<asrwt>0</asrwt>
<pdfrwt beam="1">  1        2 0.84148054E-01 0.73755829E+02</pdfrwt>
<pdfrwt beam="2">  1       -2 0.38252684E-03 0.73755829E+02</pdfrwt>
<totfact> 0.38595244E+05</totfact>
</mgrwt>
</event>
<event>
 4    1  0.2196664E-002  0.4320652E+02  0.7818608E-02  0.1485859E+00
         -2   -1    0    0  501    0 -0.00000000000E+00  0.00000000000E+00  0.49272603419E+02  0.49272603485E+02  0.25500000000E-02 0. -1.
          2   -1    0    0    0  501  0.00000000000E+00 -0.00000000000E+00 -0.94718117601E+01  0.94718121034E+01  0.25500000000E-02 0. -1.
          2    1    1    2    0  502 -0.14552749676E+02 -0.15682842322E+02  0.23971715116E+02  0.32130627111E+02  0.25500000000E-02 0. -1.
         -2    1    1    2  502    0  0.14552749676E+02  0.15682842322E+02  0.15829076542E+02  0.26613788477E+02  0.25500000000E-02 0. -1.
<mgrwt>
<rscale>  0 0.43206520E+02</rscale>
<asrwt>0</asrwt>
<pdfrwt beam="2">  1        2 0.14572019E-02 0.43206520E+02</pdfrwt>
<pdfrwt beam="1">  1       -2 0.75804004E-02 0.43206520E+02</pdfrwt>
<totfact> 0.57952837E+05</totfact>
</mgrwt>
</event>
<event>
 4    1  0.2196664E-002  0.8012157E+02  0.7818608E-02  0.1328707E+00
          2   -1    0    0    0  501  0.00000000000E+00  0.00000000000E+00  0.10950796041E+04  0.10950796041E+04  0.25500000000E-02 0.  1.
         -2   -1    0    0  501    0 -0.00000000000E+00 -0.00000000000E+00 -0.14655239616E+01  0.14655261801E+01  0.25500000000E-02 0.  1.
          2    1    1    2    0  502 -0.31348729477E+02 -0.24886929068E+02  0.52405145951E+03  0.52557780994E+03  0.25500000000E-02 0.  1.
         -2    1    1    2  502    0  0.31348729477E+02  0.24886929068E+02  0.56956262061E+03  0.57096732033E+03  0.25500000000E-02 0.  1.
<mgrwt>
<rscale>  0 0.80121573E+02</rscale>
<asrwt>0</asrwt>
<pdfrwt beam="1">  1        2 0.16847411E+00 0.80121573E+02</pdfrwt>
<pdfrwt beam="2">  1       -2 0.22546496E-03 0.80121573E+02</pdfrwt>
<totfact> 0.35088304E+05</totfact>
</mgrwt>
</event>
<event>
 4    1  0.2196664E-002  0.4333514E+02  0.7818608E-02  0.1485011E+00
         -2   -1    0    0  501    0 -0.00000000000E+00  0.00000000000E+00  0.42242889890E+00  0.42243659539E+00  0.25500000000E-02 0.  1.
          2   -1    0    0    0  501  0.00000000000E+00 -0.00000000000E+00 -0.11113806241E+04  0.11113806241E+04  0.25500000000E-02 0.  1.
          2    1    1    2    0  502 -0.19467812096E+02 -0.64875264466E+01 -0.37699081111E+03  0.37754887812E+03  0.25500000000E-02 0. -1.
         -2    1    1    2  502    0  0.19467812096E+02  0.64875264466E+01 -0.73396738408E+03  0.73425418256E+03  0.25500000000E-02 0. -1.
<mgrwt>
<rscale>  0 0.43335139E+02</rscale>
<asrwt>0</asrwt>
<pdfrwt beam="2">  1        2 0.17097929E+00 0.43335139E+02</pdfrwt>
<pdfrwt beam="1">  1       -2 0.64990543E-04 0.43335139E+02</pdfrwt>
<totfact> 0.16442669E+06</totfact>
</mgrwt>
</event>
<event>
 4    1  0.2196664E-002  0.1741803E+03  0.7818608E-02  0.1173557E+00
          2   -1    0    0    0  501  0.00000000000E+00  0.00000000000E+00  0.71777255075E+03  0.71777255075E+03  0.25500000000E-02 0.  1.
         -2   -1    0    0  501    0 -0.00000000000E+00 -0.00000000000E+00 -0.10566982435E+02  0.10566982742E+02  0.25500000000E-02 0.  1.
          2    1    1    2    0  502 -0.50876846978E+02 -0.16738543992E+02  0.66442403237E+02  0.85341814885E+02  0.25500000000E-02 0.  1.
         -2    1    1    2  502    0  0.50876846978E+02  0.16738543992E+02  0.64076316508E+03  0.64299771861E+03  0.25500000000E-02 0.  1.
<mgrwt>
<rscale>  0 0.17418025E+03</rscale>
<asrwt>0</asrwt>
<pdfrwt beam="1">  1        2 0.11042656E+00 0.17418025E+03</pdfrwt>
<pdfrwt beam="2">  1       -2 0.16256894E-02 0.17418025E+03</pdfrwt>
<totfact> 0.40879707E+04</totfact>
</mgrwt>
</event>
<event>
 4    1  0.2196664E-002  0.6360742E+02  0.7818608E-02  0.1383288E+00
         -2   -1    0    0  501    0 -0.00000000000E+00  0.00000000000E+00  0.15028266258E+01  0.15028287892E+01  0.25500000000E-02 0. -1.
          2   -1    0    0    0  501  0.00000000000E+00 -0.00000000000E+00 -0.67304849323E+03  0.67304849324E+03  0.25500000000E-02 0. -1.
          2    1    1    2    0  502  0.16750695191E+01 -0.30135856560E+02 -0.44208689639E+03  0.44311601153E+03  0.25500000000E-02 0.  1.
         -2    1    1    2  502    0 -0.16750695191E+01  0.30135856560E+02 -0.22945877021E+03  0.23143531049E+03  0.25500000000E-02 0.  1.
<mgrwt>
<rscale>  0 0.63607419E+02</rscale>
<asrwt>0</asrwt>
<pdfrwt beam="2">  1        2 0.10354568E+00 0.63607419E+02</pdfrwt>
<pdfrwt beam="1">  1       -2 0.23120480E-03 0.63607419E+02</pdfrwt>
<totfact> 0.59680415E+05</totfact>
</mgrwt>
</event>
<event>
 4    1  0.2196664E-002  0.7045541E+02  0.7818608E-02  0.1358551E+00
         -2   -1    0    0  501    0 -0.00000000000E+00  0.00000000000E+00  0.25296647773E+02  0.25296647901E+02  0.25500000000E-02 0.  1.
          2   -1    0    0    0  501  0.00000000000E+00 -0.00000000000E+00 -0.49057534301E+02  0.49057534367E+02  0.25500000000E-02 0.  1.
          2    1    1    2    0  502 -0.13737045554E+02 -0.30441962996E+02 -0.54471595864E-01  0.33397941632E+02  0.25500000000E-02 0.  1.
         -2    1    1    2  502    0  0.13737045554E+02  0.30441962996E+02 -0.23706414932E+02  0.40956240636E+02  0.25500000000E-02 0.  1.
<mgrwt>
<rscale>  0 0.70455409E+02</rscale>
<asrwt>0</asrwt>
<pdfrwt beam="2">  1        2 0.75473130E-02 0.70455409E+02</pdfrwt>
<pdfrwt beam="1">  1       -2 0.38917920E-02 0.70455409E+02</pdfrwt>
<totfact> 0.20625658E+05</totfact>
</mgrwt>
</event>
<event>
 4    1  0.2196664E-002  0.8493083E+02  0.7818608E-02  0.1315614E+00
          2   -1    0    0    0  501  0.00000000000E+00  0.00000000000E+00  0.15790228402E+04  0.15790228402E+04  0.25500000000E-02 0. -1.
         -2   -1    0    0  501    0 -0.00000000000E+00 -0.00000000000E+00 -0.11420412656E+01  0.11420441125E+01  0.25500000000E-02 0. -1.
          2    1    1    2    0  502  0.38302024120E+02  0.82633478150E+01  0.48436762622E+03  0.48594992057E+03  0.25500000000E-02 0.  1.
         -2    1    1    2  502    0 -0.38302024120E+02 -0.82633478150E+01  0.10935131727E+04  0.10942149637E+04  0.25500000000E-02 0.  1.
<mgrwt>
<rscale>  0 0.84930831E+02</rscale>
<asrwt>0</asrwt>
<pdfrwt beam="1">  1        2 0.24292685E+00 0.84930831E+02</pdfrwt>
<pdfrwt beam="2">  1       -2 0.17569869E-03 0.84930831E+02</pdfrwt>
<totfact> 0.27831174E+05</totfact>
</mgrwt>
</event>
<event>
 4    1  0.2196664E-002  0.8297692E+02  0.7818608E-02  0.1320810E+00
         -2   -1    0    0  501    0 -0.00000000000E+00  0.00000000000E+00  0.11936699730E+01  0.11936726967E+01  0.25500000000E-02 0. -1.
          2   -1    0    0    0  501  0.00000000000E+00 -0.00000000000E+00 -0.14420153163E+04  0.14420153163E+04  0.25500000000E-02 0. -1.
          2    1    1    2    0  502 -0.25549020925E+02 -0.25712352261E+01 -0.15362422374E+03  0.15575546811E+03  0.25500000000E-02 0.  1.
         -2    1    1    2  502    0  0.25549020925E+02  0.25712352261E+01 -0.12871974226E+04  0.12874535209E+04  0.25500000000E-02 0.  1.
<mgrwt>
<rscale>  0 0.82976921E+02</rscale>
<asrwt>0</asrwt>
<pdfrwt beam="2">  1        2 0.22184712E+00 0.82976921E+02</pdfrwt>
<pdfrwt beam="1">  1       -2 0.18364290E-03 0.82976921E+02</pdfrwt>
<totfact> 0.30632546E+05</totfact>
</mgrwt>
</event>
<event>
 4    1  0.2196664E-002  0.4479784E+02  0.7818608E-02  0.1475608E+00
          2   -1    0    0    0  501  0.00000000000E+00  0.00000000000E+00  0.28311514901E+01  0.28311526385E+01  0.25500000000E-02 0. -1.
         -2   -1    0    0  501    0 -0.00000000000E+00 -0.00000000000E+00 -0.17721109516E+03  0.17721109518E+03  0.25500000000E-02 0. -1.
          2    1    1    2    0  502  0.44575521336E+01  0.19803737995E+02 -0.12524408403E+03  0.12687843947E+03  0.25500000000E-02 0. -1.
         -2    1    1    2  502    0 -0.44575521336E+01 -0.19803737995E+02 -0.49135859638E+02  0.53163808351E+02  0.25500000000E-02 0. -1.
<mgrwt>
<rscale>  0 0.44797837E+02</rscale>
<asrwt>0</asrwt>
<pdfrwt beam="1">  1        2 0.43556200E-03 0.44797837E+02</pdfrwt>
<pdfrwt beam="2">  1       -2 0.27263237E-01 0.44797837E+02</pdfrwt>
<totfact> 0.38674040E+05</totfact>
</mgrwt>
</event>
<event>
 4    1  0.2196664E-002  0.7894642E+02  0.7818608E-02  0.1332068E+00
         -2   -1    0    0  501    0 -0.00000000000E+00  0.00000000000E+00  0.64230138095E+00  0.64230644280E+00  0.25500000000E-02 0. -1.
          2   -1    0    0    0  501  0.00000000000E+00 -0.00000000000E+00 -0.24258522121E+04  0.24258522121E+04  0.25500000000E-02 0. -1.
          2    1    1    2    0  502 -0.28551422182E+02 -0.21641245841E+02 -0.70327083385E+03  0.70418278378E+03  0.25500000000E-02 0. -1.
         -2    1    1    2  502    0  0.28551422182E+02  0.21641245841E+02 -0.17219390768E+04  0.17223117347E+04  0.25500000000E-02 0. -1.
<mgrwt>
<rscale>  0 0.78946422E+02</rscale>
<asrwt>0</asrwt>
<pdfrwt beam="2">  1        2 0.37320070E+00 0.78946422E+02</pdfrwt>
<pdfrwt beam="1">  1       -2 0.98817929E-04 0.78946422E+02</pdfrwt>
<totfact> 0.22777543E+05</totfact>
</mgrwt>
</event>
<event>
 4    1  0.2196664E-002  0.5928484E+02  0.7818608E-02  0.1400858E+00
         -2   -1    0    0  501    0 -0.00000000000E+00  0.00000000000E+00  0.22053216260E+01  0.22053231003E+01  0.25500000000E-02 0. -1.
          2   -1    0    0    0  501  0.00000000000E+00 -0.00000000000E+00 -0.39843290423E+03  0.39843290423E+03  0.25500000000E-02 0. -1.
          2    1    1    2    0  502  0.19324079030E+02  0.22467932205E+02 -0.19360582840E+03  0.19586077914E+03  0.25500000000E-02 0. -1.
         -2    1    1    2  502    0 -0.19324079030E+02 -0.22467932205E+02 -0.20262175420E+03  0.20477744820E+03  0.25500000000E-02 0. -1.
<mgrwt>
<rscale>  0 0.59284838E+02</rscale>
<asrwt>0</asrwt>
<pdfrwt beam="2">  1        2 0.61297313E-01 0.59284838E+02</pdfrwt>
<pdfrwt beam="1">  1       -2 0.33928068E-03 0.59284838E+02</pdfrwt>
<totfact> 0.60873504E+05</totfact>
</mgrwt>
</event>
<event>
 4    1  0.2196664E-002  0.5664494E+02  0.7818608E-02  0.1412476E+00
         -2   -1    0    0  501    0 -0.00000000000E+00  0.00000000000E+00  0.96402396611E+00  0.96402733869E+00  0.25500000000E-02 0. -1.
          2   -1    0    0    0  501  0.00000000000E+00 -0.00000000000E+00 -0.83209632355E+03  0.83209632356E+03  0.25500000000E-02 0. -1.
          2    1    1    2    0  502  0.10656746434E+02  0.26070118054E+02 -0.37158130456E+03  0.37264712961E+03  0.25500000000E-02 0.  1.
         -2    1    1    2  502    0 -0.10656746434E+02 -0.26070118054E+02 -0.45955099503E+03  0.46041322129E+03  0.25500000000E-02 0.  1.
<mgrwt>
<rscale>  0 0.56644936E+02</rscale>
<asrwt>0</asrwt>
<pdfrwt beam="2">  1        2 0.12801424E+00 0.56644936E+02</pdfrwt>
<pdfrwt beam="1">  1       -2 0.14831231E-03 0.56644936E+02</pdfrwt>
<totfact> 0.83373934E+05</totfact>
</mgrwt>
</event>
<event>
 4    1  0.2196664E-002  0.5064890E+02  0.7818608E-02  0.1441873E+00
          2   -1    0    0    0  501  0.00000000000E+00  0.00000000000E+00  0.15166178961E+03  0.15166178963E+03  0.25500000000E-02 0.  1.
         -2   -1    0    0  501    0 -0.00000000000E+00 -0.00000000000E+00 -0.42286695610E+01  0.42286703299E+01  0.25500000000E-02 0.  1.
          2    1    1    2    0  502 -0.13468163067E+02 -0.17273230297E+02  0.34593549228E+02  0.40944713407E+02  0.25500000000E-02 0.  1.
         -2    1    1    2  502    0  0.13468163067E+02  0.17273230297E+02  0.11283957082E+03  0.11494574655E+03  0.25500000000E-02 0.  1.
<mgrwt>
<rscale>  0 0.50648896E+02</rscale>
<asrwt>0</asrwt>
<pdfrwt beam="1">  1        2 0.23332586E-01 0.50648896E+02</pdfrwt>
<pdfrwt beam="2">  1       -2 0.65056452E-03 0.50648896E+02</pdfrwt>
<totfact> 0.65234381E+05</totfact>
</mgrwt>
</event>
<event>
 4    1  0.2196664E-002  0.4263132E+02  0.7818608E-02  0.1489695E+00
          2   -1    0    0    0  501  0.00000000000E+00  0.00000000000E+00  0.23501875086E+04  0.23501875086E+04  0.25500000000E-02 0.  1.
         -2   -1    0    0  501    0 -0.00000000000E+00 -0.00000000000E+00 -0.19331974885E+00  0.19333656611E+00  0.25500000000E-02 0.  1.
          2    1    1    2    0  502 -0.19797418514E+02  0.67895964637E+01  0.13977293141E+04  0.13978860011E+04  0.25500000000E-02 0.  1.
         -2    1    1    2  502    0  0.19797418514E+02 -0.67895964637E+01  0.95226487470E+03  0.95249484408E+03  0.25500000000E-02 0.  1.
<mgrwt>
<rscale>  0 0.42631323E+02</rscale>
<asrwt>0</asrwt>
<pdfrwt beam="1">  1        2 0.36158377E+00 0.42631323E+02</pdfrwt>
<pdfrwt beam="2">  1       -2 0.29741439E-04 0.42631323E+02</pdfrwt>
<totfact> 0.11427104E+06</totfact>
</mgrwt>
</event>
<event>
 4    1  0.2196664E-002  0.1287600E+03  0.7818608E-02  0.1229307E+00
         -2   -1    0    0  501    0 -0.00000000000E+00  0.00000000000E+00  0.10620595177E+02  0.10620595484E+02  0.25500000000E-02 0.  1.
          2   -1    0    0    0  501  0.00000000000E+00 -0.00000000000E+00 -0.39025909536E+03  0.39025909537E+03  0.25500000000E-02 0.  1.
          2    1    1    2    0  502  0.63395763413E+02  0.95309005006E+01 -0.17142046569E+03  0.18301594725E+03  0.25500000000E-02 0. -1.
         -2    1    1    2  502    0 -0.63395763413E+02 -0.95309005006E+01 -0.20821803450E+03  0.21786374361E+03  0.25500000000E-02 0. -1.
<mgrwt>
<rscale>  0 0.12875999E+03</rscale>
<asrwt>0</asrwt>
<pdfrwt beam="2">  1        2 0.60039850E-01 0.12875999E+03</pdfrwt>
<pdfrwt beam="1">  1       -2 0.16339380E-02 0.12875999E+03</pdfrwt>
<totfact> 0.77737137E+04</totfact>
</mgrwt>
</event>
<event>
 4    1  0.2196664E-002  0.8400353E+02  0.7818608E-02  0.1318059E+00
         -2   -1    0    0  501    0 -0.00000000000E+00  0.00000000000E+00  0.20793036361E+01  0.20793051997E+01  0.25500000000E-02 0.  1.
          2   -1    0    0    0  501  0.00000000000E+00 -0.00000000000E+00 -0.84843189231E+03  0.84843189232E+03  0.25500000000E-02 0.  1.
          2    1    1    2    0  502 -0.12673904993E+02 -0.39940899654E+02 -0.39410437023E+03  0.39632582300E+03  0.25500000000E-02 0.  1.
         -2    1    1    2  502    0  0.12673904993E+02  0.39940899654E+02 -0.45224821845E+03  0.45418537452E+03  0.25500000000E-02 0.  1.
<mgrwt>
<rscale>  0 0.84003528E+02</rscale>
<asrwt>0</asrwt>
<pdfrwt beam="2">  1        2 0.13052771E+00 0.84003528E+02</pdfrwt>
<pdfrwt beam="1">  1       -2 0.31989367E-03 0.84003528E+02</pdfrwt>
<totfact> 0.30506768E+05</totfact>
</mgrwt>
</event>
<event>
 4    1  0.2196664E-002  0.5696823E+02  0.7818608E-02  0.1411014E+00
          2   -1    0    0    0  501  0.00000000000E+00  0.00000000000E+00  0.76857876152E+03  0.76857876152E+03  0.25500000000E-02 0. -1.
         -2   -1    0    0  501    0 -0.00000000000E+00 -0.00000000000E+00 -0.10556413348E+01  0.10556444146E+01  0.25500000000E-02 0. -1.
          2    1    1    2    0  502 -0.23989665483E+02  0.12109142577E+02  0.25615974317E+03  0.25756542743E+03  0.25500000000E-02 0.  1.
         -2    1    1    2  502    0  0.23989665483E+02 -0.12109142577E+02  0.51136337702E+03  0.51206897850E+03  0.25500000000E-02 0.  1.
<mgrwt>
<rscale>  0 0.56968226E+02</rscale>
<asrwt>0</asrwt>
<pdfrwt beam="1">  1        2 0.11824241E+00 0.56968226E+02</pdfrwt>
<pdfrwt beam="2">  1       -2 0.16240725E-03 0.56968226E+02</pdfrwt>
<totfact> 0.81093137E+05</totfact>
</mgrwt>
</event>
<event>
 4    1  0.2196664E-002  0.4886593E+02  0.7818608E-02  0.1451556E+00
          2   -1    0    0    0  501  0.00000000000E+00  0.00000000000E+00  0.88642024292E+03  0.88642024293E+03  0.25500000000E-02 0.  1.
         -2   -1    0    0  501    0 -0.00000000000E+00 -0.00000000000E+00 -0.67345899517E+00  0.67346382284E+00  0.25500000000E-02 0.  1.
          2    1    1    2    0  502  0.49848793810E+01  0.21257927594E+02  0.24382712016E+03  0.24480280440E+03  0.25500000000E-02 0. -1.
         -2    1    1    2  502    0 -0.49848793810E+01 -0.21257927594E+02  0.64191966377E+03  0.64229090235E+03  0.25500000000E-02 0. -1.
<mgrwt>
<rscale>  0 0.48865932E+02</rscale>
<asrwt>0</asrwt>
<pdfrwt beam="1">  1        2 0.13637234E+00 0.48865932E+02</pdfrwt>
<pdfrwt beam="2">  1       -2 0.10360945E-03 0.48865932E+02</pdfrwt>
<totfact> 0.12131670E+06</totfact>
</mgrwt>
</event>
<event>
 4    1  0.2196664E-002  0.5088124E+02  0.7818608E-02  0.1440646E+00
          2   -1    0    0    0  501  0.00000000000E+00  0.00000000000E+00  0.95891971547E+03  0.95891971548E+03  0.25500000000E-02 0. -1.
         -2   -1    0    0  501    0 -0.00000000000E+00 -0.00000000000E+00 -0.67495003492E+00  0.67495485193E+00  0.25500000000E-02 0. -1.
          2    1    1    2    0  502  0.25156054656E+02 -0.39688368766E+00  0.40795282753E+03  0.40872789738E+03  0.25500000000E-02 0.  1.
         -2    1    1    2  502    0 -0.25156054656E+02  0.39688368766E+00  0.55029193791E+03  0.55086677295E+03  0.25500000000E-02 0.  1.
<mgrwt>
<rscale>  0 0.50881242E+02</rscale>
<asrwt>0</asrwt>
<pdfrwt beam="1">  1        2 0.14752552E+00 0.50881242E+02</pdfrwt>
<pdfrwt beam="2">  1       -2 0.10383925E-03 0.50881242E+02</pdfrwt>
<totfact> 0.11062340E+06</totfact>
</mgrwt>
</event>
<event>
 4    1  0.2196664E-002  0.4796746E+02  0.7818608E-02  0.1456623E+00
          2   -1    0    0    0  501  0.00000000000E+00  0.00000000000E+00  0.65648243888E+03  0.65648243888E+03  0.25500000000E-02 0.  1.
         -2   -1    0    0  501    0 -0.00000000000E+00 -0.00000000000E+00 -0.87621247041E+00  0.87621618097E+00  0.25500000000E-02 0.  1.
          2    1    1    2    0  502 -0.12933180754E+02 -0.17571568330E+02  0.46429105322E+03  0.46480340928E+03  0.25500000000E-02 0.  1.
         -2    1    1    2  502    0  0.12933180754E+02  0.17571568330E+02  0.19131517319E+03  0.19255524578E+03  0.25500000000E-02 0.  1.
<mgrwt>
<rscale>  0 0.47967461E+02</rscale>
<asrwt>0</asrwt>
<pdfrwt beam="1">  1        2 0.10099766E+00 0.47967461E+02</pdfrwt>
<pdfrwt beam="2">  1       -2 0.13480172E-03 0.47967461E+02</pdfrwt>
<totfact> 0.12006511E+06</totfact>
</mgrwt>
</event>
<event>
 4    1  0.2196664E-002  0.1127043E+03  0.7818608E-02  0.1255642E+00
          2   -1    0    0    0  501  0.00000000000E+00  0.00000000000E+00  0.27682175318E+03  0.27682175320E+03  0.25500000000E-02 0.  1.
         -2   -1    0    0  501    0 -0.00000000000E+00 -0.00000000000E+00 -0.11471512909E+02  0.11471513193E+02  0.25500000000E-02 0.  1.
          2    1    1    2    0  502  0.30154907426E+02  0.21117223933E+02  0.24181075359E+03  0.24459700765E+03  0.25500000000E-02 0. -1.
         -2    1    1    2  502    0 -0.30154907426E+02 -0.21117223933E+02  0.23539486679E+02  0.43696258743E+02  0.25500000000E-02 0. -1.
<mgrwt>
<rscale>  0 0.11270429E+03</rscale>
<asrwt>0</asrwt>
<pdfrwt beam="1">  1        2 0.42587961E-01 0.11270429E+03</pdfrwt>
<pdfrwt beam="2">  1       -2 0.17648482E-02 0.11270429E+03</pdfrwt>
<totfact> 0.98251470E+04</totfact>
</mgrwt>
</event>
<event>
 4    1  0.2196664E-002  0.1027748E+03  0.7818608E-02  0.1274567E+00
          2   -1    0    0    0  501  0.00000000000E+00  0.00000000000E+00  0.90672917956E+02  0.90672917992E+02  0.25500000000E-02 0. -1.
         -2   -1    0    0  501    0 -0.00000000000E+00 -0.00000000000E+00 -0.29122974803E+02  0.29122974915E+02  0.25500000000E-02 0. -1.
          2    1    1    2    0  502  0.33871801854E+02  0.36553627374E+02  0.45389319076E+02  0.67406653438E+02  0.25500000000E-02 0.  1.
         -2    1    1    2  502    0 -0.33871801854E+02 -0.36553627374E+02  0.16160624076E+02  0.52389239468E+02  0.25500000000E-02 0.  1.
<mgrwt>
<rscale>  0 0.10277480E+03</rscale>
<asrwt>0</asrwt>
<pdfrwt beam="1">  1        2 0.13949680E-01 0.10277480E+03</pdfrwt>
<pdfrwt beam="2">  1       -2 0.44804577E-02 0.10277480E+03</pdfrwt>
<totfact> 0.85273331E+04</totfact>
</mgrwt>
</event>
<event>
 4    1  0.2196664E-002  0.1290439E+03  0.7818608E-02  0.1228881E+00
         -2   -1    0    0  501    0 -0.00000000000E+00  0.00000000000E+00  0.16312171104E+02  0.16312171304E+02  0.25500000000E-02 0. -1.
          2   -1    0    0    0  501  0.00000000000E+00 -0.00000000000E+00 -0.25521322135E+03  0.25521322136E+03  0.25500000000E-02 0. -1.
          2    1    1    2    0  502  0.23316746534E+02  0.45275206177E+02 -0.36089530939E+02  0.62417699519E+02  0.25500000000E-02 0. -1.
         -2    1    1    2  502    0 -0.23316746534E+02 -0.45275206177E+02 -0.20281151930E+03  0.20910769314E+03  0.25500000000E-02 0. -1.
<mgrwt>
<rscale>  0 0.12904390E+03</rscale>
<asrwt>0</asrwt>
<pdfrwt beam="2">  1        2 0.39263570E-01 0.12904390E+03</pdfrwt>
<pdfrwt beam="1">  1       -2 0.25095650E-02 0.12904390E+03</pdfrwt>
<totfact> 0.65443921E+04</totfact>
</mgrwt>
</event>
<event>
 4    1  0.2196664E-002  0.5531663E+02  0.7818608E-02  0.1418607E+00
          2   -1    0    0    0  501  0.00000000000E+00  0.00000000000E+00  0.42970461886E+03  0.42970461887E+03  0.25500000000E-02 0.  1.
         -2   -1    0    0  501    0 -0.00000000000E+00 -0.00000000000E+00 -0.17802509819E+01  0.17802528081E+01  0.25500000000E-02 0.  1.
          2    1    1    2    0  502  0.42809462667E+01 -0.27318931697E+02  0.21845617571E+03  0.22019934433E+03  0.25500000000E-02 0. -1.
         -2    1    1    2  502    0 -0.42809462667E+01  0.27318931697E+02  0.20946819217E+03  0.21128552735E+03  0.25500000000E-02 0. -1.
<mgrwt>
<rscale>  0 0.55316633E+02</rscale>
<asrwt>0</asrwt>
<pdfrwt beam="1">  1        2 0.66108389E-01 0.55316633E+02</pdfrwt>
<pdfrwt beam="2">  1       -2 0.27388496E-03 0.55316633E+02</pdfrwt>
<totfact> 0.74365277E+05</totfact>
</mgrwt>
</event>
<event>
 4    1  0.2196664E-002  0.5443465E+02  0.7818608E-02  0.1422792E+00
         -2   -1    0    0  501    0 -0.00000000000E+00  0.00000000000E+00  0.56751326397E+00  0.56751899288E+00  0.25500000000E-02 0.  1.
          2   -1    0    0    0  501  0.00000000000E+00 -0.00000000000E+00 -0.13053068315E+04  0.13053068315E+04  0.25500000000E-02 0.  1.
          2    1    1    2    0  502  0.19883482547E+02  0.13113524048E+02 -0.96832978087E+03  0.96862267262E+03  0.25500000000E-02 0. -1.
         -2    1    1    2  502    0 -0.19883482547E+02 -0.13113524048E+02 -0.33640953742E+03  0.33725167793E+03  0.25500000000E-02 0. -1.
<mgrwt>
<rscale>  0 0.54434646E+02</rscale>
<asrwt>0</asrwt>
<pdfrwt beam="2">  1        2 0.20081403E+00 0.54434646E+02</pdfrwt>
<pdfrwt beam="1">  1       -2 0.87311219E-04 0.54434646E+02</pdfrwt>
<totfact> 0.92164268E+05</totfact>
</mgrwt>
</event>
<event>
 4    1  0.2196664E-002  0.1059244E+03  0.7818608E-02  0.1268309E+00
          2   -1    0    0    0  501  0.00000000000E+00  0.00000000000E+00  0.15476984917E+04  0.15476984917E+04  0.25500000000E-02 0. -1.
         -2   -1    0    0  501    0 -0.00000000000E+00 -0.00000000000E+00 -0.18123632862E+01  0.18123650801E+01  0.25500000000E-02 0. -1.
          2    1    1    2    0  502  0.92829325280E+01 -0.27884938453E+02  0.14174677013E+04  0.14177723466E+04  0.25500000000E-02 0. -1.
         -2    1    1    2  502    0 -0.92829325280E+01  0.27884938453E+02  0.12841842713E+03  0.13173851017E+03  0.25500000000E-02 0. -1.
<mgrwt>
<rscale>  0 0.10592438E+03</rscale>
<asrwt>0</asrwt>
<pdfrwt beam="1">  1        2 0.23810732E+00 0.10592438E+03</pdfrwt>
<pdfrwt beam="2">  1       -2 0.27882542E-03 0.10592438E+03</pdfrwt>
<totfact> 0.15651129E+05</totfact>
</mgrwt>
</event>
<event>
 4    1  0.2196664E-002  0.4719633E+02  0.7818608E-02  0.1461078E+00
          2   -1    0    0    0  501  0.00000000000E+00  0.00000000000E+00  0.60547195194E+02  0.60547195247E+02  0.25500000000E-02 0. -1.
         -2   -1    0    0  501    0 -0.00000000000E+00 -0.00000000000E+00 -0.91973457619E+01  0.91973461154E+01  0.25500000000E-02 0. -1.
          2    1    1    2    0  502 -0.68670345944E+01  0.19402768658E+02  0.86166384763E+01  0.22313002058E+02  0.25500000000E-02 0. -1.
         -2    1    1    2  502    0  0.68670345944E+01 -0.19402768658E+02  0.42733210955E+02  0.47431539304E+02  0.25500000000E-02 0. -1.
<mgrwt>
<rscale>  0 0.47196335E+02</rscale>
<asrwt>0</asrwt>
<pdfrwt beam="1">  1        2 0.93149533E-02 0.47196335E+02</pdfrwt>
<pdfrwt beam="2">  1       -2 0.14149763E-02 0.47196335E+02</pdfrwt>
<totfact> 0.61723852E+05</totfact>
</mgrwt>
</event>
<event>
 4    1  0.2196664E-002  0.4161565E+02  0.7818608E-02  0.1496648E+00
          2   -1    0    0    0  501  0.00000000000E+00  0.00000000000E+00  0.45447743008E+01  0.45447750162E+01  0.25500000000E-02 0. -1.
         -2   -1    0    0  501    0 -0.00000000000E+00 -0.00000000000E+00 -0.95266698838E+02  0.95266698872E+02  0.25500000000E-02 0. -1.
          2    1    1    2    0  502  0.19799599189E+02  0.50566928871E+01 -0.35957657509E+02  0.41358764622E+02  0.25500000000E-02 0. -1.
         -2    1    1    2  502    0 -0.19799599189E+02 -0.50566928871E+01 -0.54764267028E+02  0.58452709267E+02  0.25500000000E-02 0. -1.
<mgrwt>
<rscale>  0 0.41615655E+02</rscale>
<asrwt>0</asrwt>
<pdfrwt beam="1">  1        2 0.69919617E-03 0.41615655E+02</pdfrwt>
<pdfrwt beam="2">  1       -2 0.14656414E-01 0.41615655E+02</pdfrwt>
<totfact> 0.55708540E+05</totfact>
</mgrwt>
</event>
<event>
 4    1  0.2196664E-002  0.4853153E+02  0.7818608E-02  0.1453427E+00
          2   -1    0    0    0  501  0.00000000000E+00  0.00000000000E+00  0.18390636670E+04  0.18390636670E+04  0.25500000000E-02 0.  1.
         -2   -1    0    0  501    0 -0.00000000000E+00 -0.00000000000E+00 -0.32017274038E+00  0.32018289490E+00  0.25500000000E-02 0.  1.
          2    1    1    2    0  502  0.52329005188E+01  0.22732051152E+02  0.66598005577E+03  0.66638844835E+03  0.25500000000E-02 0. -1.
         -2    1    1    2  502    0 -0.52329005188E+01 -0.22732051152E+02  0.11727634385E+04  0.11729954016E+04  0.25500000000E-02 0. -1.
<mgrwt>
<rscale>  0 0.48531532E+02</rscale>
<asrwt>0</asrwt>
<pdfrwt beam="1">  1        2 0.28292948E+00 0.48531532E+02</pdfrwt>
<pdfrwt beam="2">  1       -2 0.49258717E-04 0.48531532E+02</pdfrwt>
<totfact> 0.10604494E+06</totfact>
</mgrwt>
</event>
<event>
 4    1  0.2196664E-002  0.4070228E+02  0.7818608E-02  0.1503106E+00
          2   -1    0    0    0  501  0.00000000000E+00  0.00000000000E+00  0.20796567937E+04  0.20796567937E+04  0.25500000000E-02 0.  1.
         -2   -1    0    0  501    0 -0.00000000000E+00 -0.00000000000E+00 -0.19914437283E+00  0.19916069825E+00  0.25500000000E-02 0.  1.
          2    1    1    2    0  502  0.54516061335E+01  0.19344332122E+02  0.87616552382E+03  0.87639599972E+03  0.25500000000E-02 0. -1.
         -2    1    1    2  502    0 -0.54516061335E+01 -0.19344332122E+02  0.12032921256E+04  0.12034599547E+04  0.25500000000E-02 0. -1.
<mgrwt>
<rscale>  0 0.40702281E+02</rscale>
<asrwt>0</asrwt>
<pdfrwt beam="1">  1        2 0.31993900E+00 0.40702281E+02</pdfrwt>
<pdfrwt beam="2">  1       -2 0.30639637E-04 0.40702281E+02</pdfrwt>
<totfact> 0.14757832E+06</totfact>
</mgrwt>
</event>
<event>
 4    1  0.2196664E-002  0.6133501E+02  0.7818608E-02  0.1392313E+00
          2   -1    0    0    0  501  0.00000000000E+00  0.00000000000E+00  0.28950680482E+03  0.28950680483E+03  0.25500000000E-02 0.  1.
         -2   -1    0    0  501    0 -0.00000000000E+00 -0.00000000000E+00 -0.32486133988E+01  0.32486143996E+01  0.25500000000E-02 0.  1.
          2    1    1    2    0  502 -0.27035911815E+02 -0.10973865801E+02  0.98067412347E+02  0.10231609663E+03  0.25500000000E-02 0. -1.
         -2    1    1    2  502    0  0.27035911815E+02  0.10973865801E+02  0.18819077908E+03  0.19043932261E+03  0.25500000000E-02 0. -1.
<mgrwt>
<rscale>  0 0.61335009E+02</rscale>
<asrwt>0</asrwt>
<pdfrwt beam="1">  1        2 0.44539523E-01 0.61335009E+02</pdfrwt>
<pdfrwt beam="2">  1       -2 0.49978659E-03 0.61335009E+02</pdfrwt>
<totfact> 0.49910397E+05</totfact>
</mgrwt>
</event>
<event>
 4    1  0.2196664E-002  0.4842205E+02  0.7818608E-02  0.1454043E+00
          2   -1    0    0    0  501  0.00000000000E+00  0.00000000000E+00  0.11561934154E+04  0.11561934154E+04  0.25500000000E-02 0. -1.
         -2   -1    0    0  501    0 -0.00000000000E+00 -0.00000000000E+00 -0.50698269875E+00  0.50698911165E+00  0.25500000000E-02 0. -1.
          2    1    1    2    0  502  0.52560328301E+01 -0.23349670575E+02  0.49059268745E+03  0.49117615779E+03  0.25500000000E-02 0.  1.
         -2    1    1    2  502    0 -0.52560328301E+01  0.23349670575E+02  0.66509374527E+03  0.66552424674E+03  0.25500000000E-02 0.  1.
<mgrwt>
<rscale>  0 0.48422052E+02</rscale>
<asrwt>0</asrwt>
<pdfrwt beam="1">  1        2 0.17787442E+00 0.48422052E+02</pdfrwt>
<pdfrwt beam="2">  1       -2 0.77998487E-04 0.48422052E+02</pdfrwt>
<totfact> 0.12510494E+06</totfact>
</mgrwt>
</event>
<event>
 4    1  0.2196664E-002  0.6498336E+02  0.7818608E-02  0.1378034E+00
         -2   -1    0    0  501    0 -0.00000000000E+00  0.00000000000E+00  0.34826707815E+01  0.34826717151E+01  0.25500000000E-02 0. -1.
          2   -1    0    0    0  501  0.00000000000E+00 -0.00000000000E+00 -0.30313207469E+03  0.30313207470E+03  0.25500000000E-02 0. -1.
          2    1    1    2    0  502 -0.17075506046E+02  0.25355994283E+02 -0.97877747603E+02  0.10254049364E+03  0.25500000000E-02 0.  1.
         -2    1    1    2  502    0  0.17075506046E+02 -0.25355994283E+02 -0.20177165631E+03  0.20407425278E+03  0.25500000000E-02 0.  1.
<mgrwt>
<rscale>  0 0.64983363E+02</rscale>
<asrwt>0</asrwt>
<pdfrwt beam="2">  1        2 0.46635683E-01 0.64983363E+02</pdfrwt>
<pdfrwt beam="1">  1       -2 0.53579582E-03 0.64983363E+02</pdfrwt>
<totfact> 0.43759521E+05</totfact>
</mgrwt>
</event>
<event>
 4    1  0.2196664E-002  0.8763268E+02  0.7818608E-02  0.1308688E+00
         -2   -1    0    0  501    0 -0.00000000000E+00  0.00000000000E+00  0.22640314375E+01  0.22640328735E+01  0.25500000000E-02 0.  1.
          2   -1    0    0    0  501  0.00000000000E+00 -0.00000000000E+00 -0.84798773026E+03  0.84798773026E+03  0.25500000000E-02 0.  1.
          2    1    1    2    0  502  0.25444462444E+02 -0.35265443505E+02 -0.37079365557E+03  0.37333497987E+03  0.25500000000E-02 0.  1.
         -2    1    1    2  502    0 -0.25444462444E+02  0.35265443505E+02 -0.47493004325E+03  0.47691678327E+03  0.25500000000E-02 0.  1.
<mgrwt>
<rscale>  0 0.87632676E+02</rscale>
<asrwt>0</asrwt>
<pdfrwt beam="2">  1        2 0.13045940E+00 0.87632676E+02</pdfrwt>
<pdfrwt beam="1">  1       -2 0.34831331E-03 0.87632676E+02</pdfrwt>
<totfact> 0.27306676E+05</totfact>
</mgrwt>
</event>
<event>
 4    1  0.2196664E-002  0.8260972E+02  0.7818608E-02  0.1321804E+00
         -2   -1    0    0  501    0 -0.00000000000E+00  0.00000000000E+00  0.20928794799E+03  0.20928794801E+03  0.25500000000E-02 0.  1.
          2   -1    0    0    0  501  0.00000000000E+00 -0.00000000000E+00 -0.81518855944E+01  0.81518859932E+01  0.25500000000E-02 0.  1.
          2    1    1    2    0  502 -0.37684873874E+02  0.16113114512E+00  0.56061165664E+02  0.67550203436E+02  0.25500000000E-02 0. -1.
         -2    1    1    2  502    0  0.37684873874E+02 -0.16113114512E+00  0.14507489673E+03  0.14988963057E+03  0.25500000000E-02 0. -1.
<mgrwt>
<rscale>  0 0.82609720E+02</rscale>
<asrwt>0</asrwt>
<pdfrwt beam="2">  1        2 0.12541362E-02 0.82609720E+02</pdfrwt>
<pdfrwt beam="1">  1       -2 0.32198147E-01 0.82609720E+02</pdfrwt>
<totfact> 0.78572138E+04</totfact>
</mgrwt>
</event>
<event>
 4    1  0.2196664E-002  0.4905749E+02  0.7818608E-02  0.1450492E+00
         -2   -1    0    0  501    0 -0.00000000000E+00  0.00000000000E+00  0.15563912771E+01  0.15563933661E+01  0.25500000000E-02 0. -1.
          2   -1    0    0    0  501  0.00000000000E+00 -0.00000000000E+00 -0.38657299336E+03  0.38657299337E+03  0.25500000000E-02 0. -1.
          2    1    1    2    0  502  0.22144893503E+02 -0.42377162224E+01 -0.11608549714E+03  0.11825479779E+03  0.25500000000E-02 0.  1.
         -2    1    1    2  502    0 -0.22144893503E+02  0.42377162224E+01 -0.26893110494E+03  0.26987458894E+03  0.25500000000E-02 0.  1.
<mgrwt>
<rscale>  0 0.49057486E+02</rscale>
<asrwt>0</asrwt>
<pdfrwt beam="2">  1        2 0.59472692E-01 0.49057486E+02</pdfrwt>
<pdfrwt beam="1">  1       -2 0.23944528E-03 0.49057486E+02</pdfrwt>
<totfact> 0.96797715E+05</totfact>
</mgrwt>
</event>
<event>
 4    1  0.2196664E-002  0.4120338E+02  0.7818608E-02  0.1499538E+00
         -2   -1    0    0  501    0 -0.00000000000E+00  0.00000000000E+00  0.10111047620E+01  0.10111079775E+01  0.25500000000E-02 0. -1.
          2   -1    0    0    0  501  0.00000000000E+00 -0.00000000000E+00 -0.41976749489E+03  0.41976749490E+03  0.25500000000E-02 0. -1.
          2    1    1    2    0  502  0.28420785781E+01  0.19821657720E+02 -0.15992096003E+03  0.16116975209E+03  0.25500000000E-02 0.  1.
         -2    1    1    2  502    0 -0.28420785781E+01 -0.19821657720E+02 -0.25883543009E+03  0.25960885078E+03  0.25500000000E-02 0.  1.
<mgrwt>
<rscale>  0 0.41203378E+02</rscale>
<asrwt>0</asrwt>
<pdfrwt beam="2">  1        2 0.64579476E-01 0.41203378E+02</pdfrwt>
<pdfrwt beam="1">  1       -2 0.15555516E-03 0.41203378E+02</pdfrwt>
<totfact> 0.15250490E+06</totfact>
</mgrwt>
</event>
<event>
 4    1  0.2196664E-002  0.7200897E+02  0.7818608E-02  0.1353392E+00
         -2   -1    0    0  501    0 -0.00000000000E+00  0.00000000000E+00  0.63922337133E+02  0.63922337183E+02  0.25500000000E-02 0.  1.
          2   -1    0    0    0  501  0.00000000000E+00 -0.00000000000E+00 -0.20279656686E+02  0.20279656847E+02  0.25500000000E-02 0.  1.
          2    1    1    2    0  502  0.23941157736E+02 -0.26789649552E+02  0.19089342965E+02  0.40684977303E+02  0.25500000000E-02 0.  1.
         -2    1    1    2  502    0 -0.23941157736E+02  0.26789649552E+02  0.24553337481E+02  0.43517016727E+02  0.25500000000E-02 0.  1.
<mgrwt>
<rscale>  0 0.72008973E+02</rscale>
<asrwt>0</asrwt>
<pdfrwt beam="2">  1        2 0.31199473E-02 0.72008973E+02</pdfrwt>
<pdfrwt beam="1">  1       -2 0.98342054E-02 0.72008973E+02</pdfrwt>
<totfact> 0.16042989E+05</totfact>
</mgrwt>
</event>
<event>
 4    1  0.2196664E-002  0.8286950E+02  0.7818608E-02  0.1321100E+00
         -2   -1    0    0  501    0 -0.00000000000E+00  0.00000000000E+00  0.12208096835E+01  0.12208123467E+01  0.25500000000E-02 0.  1.
          2   -1    0    0    0  501  0.00000000000E+00 -0.00000000000E+00 -0.14063098806E+04  0.14063098806E+04  0.25500000000E-02 0.  1.
          2    1    1    2    0  502 -0.26353404709E+02 -0.13493030589E+01 -0.15995294310E+03  0.16211497948E+03  0.25500000000E-02 0. -1.
         -2    1    1    2  502    0  0.26353404709E+02  0.13493030589E+01 -0.12451361278E+04  0.12454157135E+04  0.25500000000E-02 0. -1.
<mgrwt>
<rscale>  0 0.82869502E+02</rscale>
<asrwt>0</asrwt>
<pdfrwt beam="2">  1        2 0.21635407E+00 0.82869502E+02</pdfrwt>
<pdfrwt beam="1">  1       -2 0.18781820E-03 0.82869502E+02</pdfrwt>
<totfact> 0.30971836E+05</totfact>
</mgrwt>
</event>
<event>
 4    1  0.2196664E-002  0.1122685E+03  0.7818608E-02  0.1256426E+00
          2   -1    0    0    0  501  0.00000000000E+00  0.00000000000E+00  0.10849008085E+04  0.10849008085E+04  0.25500000000E-02 0. -1.
         -2   -1    0    0  501    0 -0.00000000000E+00 -0.00000000000E+00 -0.29044629999E+01  0.29044641193E+01  0.25500000000E-02 0. -1.
          2    1    1    2    0  502  0.55619387438E+02  0.46765339436E+01  0.48313044784E+03  0.48634392755E+03  0.25500000000E-02 0.  1.
         -2    1    1    2  502    0 -0.55619387438E+02 -0.46765339436E+01  0.59886589763E+03  0.60146134504E+03  0.25500000000E-02 0.  1.
<mgrwt>
<rscale>  0 0.11226852E+03</rscale>
<asrwt>0</asrwt>
<pdfrwt beam="1">  1        2 0.16690790E+00 0.11226852E+03</pdfrwt>
<pdfrwt beam="2">  1       -2 0.44684034E-03 0.11226852E+03</pdfrwt>
<totfact> 0.14390108E+05</totfact>
</mgrwt>
</event>
<event>
 4    1  0.2196664E-002  0.4559129E+02  0.7818608E-02  0.1470684E+00
          2   -1    0    0    0  501  0.00000000000E+00  0.00000000000E+00  0.14191608955E+03  0.14191608958E+03  0.25500000000E-02 0.  1.
         -2   -1    0    0  501    0 -0.00000000000E+00 -0.00000000000E+00 -0.36616106486E+01  0.36616115365E+01  0.25500000000E-02 0.  1.
          2    1    1    2    0  502  0.19068085789E+02  0.71385517013E+01  0.36393539715E+02  0.41701805183E+02  0.25500000000E-02 0. -1.
         -2    1    1    2  502    0 -0.19068085789E+02 -0.71385517013E+01  0.10186093919E+03  0.10387589593E+03  0.25500000000E-02 0. -1.
<mgrwt>
<rscale>  0 0.45591294E+02</rscale>
<asrwt>0</asrwt>
<pdfrwt beam="1">  1        2 0.21833248E-01 0.45591294E+02</pdfrwt>
<pdfrwt beam="2">  1       -2 0.56332470E-03 0.45591294E+02</pdfrwt>
<totfact> 0.83199141E+05</totfact>
</mgrwt>
</event>
<event>
 4    1  0.2196664E-002  0.4928937E+02  0.7818608E-02  0.1449213E+00
         -2   -1    0    0  501    0 -0.00000000000E+00  0.00000000000E+00  0.36132716784E+01  0.36132725782E+01  0.25500000000E-02 0. -1.
          2   -1    0    0    0  501  0.00000000000E+00 -0.00000000000E+00 -0.16809152637E+03  0.16809152639E+03  0.25500000000E-02 0. -1.
          2    1    1    2    0  502 -0.22499463818E+02  0.16465863641E+01 -0.11679947984E+03  0.11895820954E+03  0.25500000000E-02 0. -1.
         -2    1    1    2  502    0  0.22499463818E+02 -0.16465863641E+01 -0.47678774850E+02  0.52746589430E+02  0.25500000000E-02 0. -1.
<mgrwt>
<rscale>  0 0.49289367E+02</rscale>
<asrwt>0</asrwt>
<pdfrwt beam="2">  1        2 0.25860229E-01 0.49289367E+02</pdfrwt>
<pdfrwt beam="1">  1       -2 0.55588815E-03 0.49289367E+02</pdfrwt>
<totfact> 0.72119687E+05</totfact>
</mgrwt>
</event>
<event>
 4    1  0.2196664E-002  0.9294507E+02  0.7818608E-02  0.1295873E+00
          2   -1    0    0    0  501  0.00000000000E+00  0.00000000000E+00  0.25475078628E+02  0.25475078756E+02  0.25500000000E-02 0. -1.
         -2   -1    0    0  501    0 -0.00000000000E+00 -0.00000000000E+00 -0.84776841282E+02  0.84776841320E+02  0.25500000000E-02 0. -1.
          2    1    1    2    0  502  0.42769954693E+02  0.72801799707E+01 -0.49408467095E+02  0.65753073480E+02  0.25500000000E-02 0.  1.
         -2    1    1    2  502    0 -0.42769954693E+02 -0.72801799707E+01 -0.98932955588E+01  0.44498846596E+02  0.25500000000E-02 0.  1.
<mgrwt>
<rscale>  0 0.92945074E+02</rscale>
<asrwt>0</asrwt>
<pdfrwt beam="1">  1        2 0.39192429E-02 0.92945074E+02</pdfrwt>
<pdfrwt beam="2">  1       -2 0.13042591E-01 0.92945074E+02</pdfrwt>
<totfact> 0.79840346E+04</totfact>
</mgrwt>
</event>
<event>
 4    1  0.2196664E-002  0.6589786E+02  0.7818608E-02  0.1374626E+00
         -2   -1    0    0  501    0 -0.00000000000E+00  0.00000000000E+00  0.19615433211E+03  0.19615433213E+03  0.25500000000E-02 0.  1.
          2   -1    0    0    0  501  0.00000000000E+00 -0.00000000000E+00 -0.55345811144E+01  0.55345817018E+01  0.25500000000E-02 0.  1.
          2    1    1    2    0  502  0.21646288146E+02  0.24484090811E+02  0.10814979710E+03  0.11297969336E+03  0.25500000000E-02 0. -1.
         -2    1    1    2  502    0 -0.21646288146E+02 -0.24484090811E+02  0.82469953902E+02  0.88709220471E+02  0.25500000000E-02 0. -1.
<mgrwt>
<rscale>  0 0.65897864E+02</rscale>
<asrwt>0</asrwt>
<pdfrwt beam="2">  1        2 0.85147406E-03 0.65897864E+02</pdfrwt>
<pdfrwt beam="1">  1       -2 0.30177590E-01 0.65897864E+02</pdfrwt>
<totfact> 0.14308477E+05</totfact>
</mgrwt>
</event>
<event>
 4    1  0.2196664E-002  0.7601319E+02  0.7818608E-02  0.1340762E+00
          2   -1    0    0    0  501  0.00000000000E+00  0.00000000000E+00  0.40291981211E+03  0.40291981211E+03  0.25500000000E-02 0.  1.
         -2   -1    0    0  501    0 -0.00000000000E+00 -0.00000000000E+00 -0.35850835741E+01  0.35850844809E+01  0.25500000000E-02 0.  1.
          2    1    1    2    0  502  0.31362389373E+02 -0.17818310033E+02  0.13562518113E+03  0.14033987816E+03  0.25500000000E-02 0. -1.
         -2    1    1    2  502    0 -0.31362389373E+02  0.17818310033E+02  0.26370954740E+03  0.26616501843E+03  0.25500000000E-02 0. -1.
<mgrwt>
<rscale>  0 0.76013193E+02</rscale>
<asrwt>0</asrwt>
<pdfrwt beam="1">  1        2 0.61987656E-01 0.76013193E+02</pdfrwt>
<pdfrwt beam="2">  1       -2 0.55155145E-03 0.76013193E+02</pdfrwt>
<totfact> 0.32284149E+05</totfact>
</mgrwt>
</event>
<event>
 4    1  0.2196664E-002  0.7228004E+02  0.7818608E-02  0.1352507E+00
          2   -1    0    0    0  501  0.00000000000E+00  0.00000000000E+00  0.20754029305E+04  0.20754029305E+04  0.25500000000E-02 0.  1.
         -2   -1    0    0  501    0 -0.00000000000E+00 -0.00000000000E+00 -0.62932157760E+00  0.62932674386E+00  0.25500000000E-02 0.  1.
          2    1    1    2    0  502 -0.26802205583E+02 -0.18613461860E+02  0.14835339960E+04  0.14838928318E+04  0.25500000000E-02 0.  1.
         -2    1    1    2  502    0  0.26802205583E+02  0.18613461860E+02  0.59123961292E+03  0.59213942537E+03  0.25500000000E-02 0.  1.
<mgrwt>
<rscale>  0 0.72280045E+02</rscale>
<asrwt>0</asrwt>
<pdfrwt beam="1">  1        2 0.31930465E+00 0.72280045E+02</pdfrwt>
<pdfrwt beam="2">  1       -2 0.96815495E-04 0.72280045E+02</pdfrwt>
<totfact> 0.34843716E+05</totfact>
</mgrwt>
</event>
<event>
 4    1  0.2196664E-002  0.7162616E+02  0.7818608E-02  0.1354649E+00
          2   -1    0    0    0  501  0.00000000000E+00  0.00000000000E+00  0.44457878894E+03  0.44457878895E+03  0.25500000000E-02 0.  1.
         -2   -1    0    0  501    0 -0.00000000000E+00 -0.00000000000E+00 -0.28849245930E+01  0.28849257199E+01  0.25500000000E-02 0.  1.
          2    1    1    2    0  502  0.28313623530E+02 -0.42281562318E+01  0.35527639851E+03  0.35642791407E+03  0.25500000000E-02 0. -1.
         -2    1    1    2  502    0 -0.28313623530E+02  0.42281562318E+01  0.86417465841E+02  0.91035800603E+02  0.25500000000E-02 0. -1.
<mgrwt>
<rscale>  0 0.71626155E+02</rscale>
<asrwt>0</asrwt>
<pdfrwt beam="1">  1        2 0.68396778E-01 0.71626155E+02</pdfrwt>
<pdfrwt beam="2">  1       -2 0.44383438E-03 0.71626155E+02</pdfrwt>
<totfact> 0.38957702E+05</totfact>
</mgrwt>
</event>
<event>
 4    1  0.2196664E-002  0.6612169E+02  0.7818608E-02  0.1373801E+00
         -2   -1    0    0  501    0 -0.00000000000E+00  0.00000000000E+00  0.51848758867E+03  0.51848758867E+03  0.25500000000E-02 0. -1.
          2   -1    0    0    0  501  0.00000000000E+00 -0.00000000000E+00 -0.21080910666E+01  0.21080926089E+01  0.25500000000E-02 0. -1.
          2    1    1    2    0  502 -0.97867875170E+01  0.30043233532E+02  0.33478456851E+03  0.33627233667E+03  0.25500000000E-02 0. -1.
         -2    1    1    2  502    0  0.97867875170E+01 -0.30043233532E+02  0.18159492909E+03  0.18432334461E+03  0.25500000000E-02 0. -1.
<mgrwt>
<rscale>  0 0.66121690E+02</rscale>
<asrwt>0</asrwt>
<pdfrwt beam="2">  1        2 0.32432172E-03 0.66121690E+02</pdfrwt>
<pdfrwt beam="1">  1       -2 0.79767348E-01 0.66121690E+02</pdfrwt>
<totfact> 0.80307218E+04</totfact>
</mgrwt>
</event>
<event>
 4    1  0.2196664E-002  0.4591951E+02  0.7818608E-02  0.1468682E+00
          2   -1    0    0    0  501  0.00000000000E+00  0.00000000000E+00  0.21822604869E+01  0.21822619768E+01  0.25500000000E-02 0. -1.
         -2   -1    0    0  501    0 -0.00000000000E+00 -0.00000000000E+00 -0.24156151174E+03  0.24156151176E+03  0.25500000000E-02 0. -1.
          2    1    1    2    0  502 -0.21415597809E+02 -0.73827924229E+01 -0.99816702702E+02  0.10235481229E+03  0.25500000000E-02 0.  1.
         -2    1    1    2  502    0  0.21415597809E+02  0.73827924229E+01 -0.13956254856E+03  0.14138896145E+03  0.25500000000E-02 0.  1.
<mgrwt>
<rscale>  0 0.45919509E+02</rscale>
<asrwt>0</asrwt>
<pdfrwt beam="1">  1        2 0.33573269E-03 0.45919509E+02</pdfrwt>
<pdfrwt beam="2">  1       -2 0.37163289E-01 0.45919509E+02</pdfrwt>
<totfact> 0.31951496E+05</totfact>
</mgrwt>
</event>
<event>
 4    1  0.2196664E-002  0.5308751E+02  0.7818608E-02  0.1429366E+00
         -2   -1    0    0  501    0 -0.00000000000E+00  0.00000000000E+00  0.23618645652E+00  0.23620022172E+00  0.25500000000E-02 0. -1.
          2   -1    0    0    0  501  0.00000000000E+00 -0.00000000000E+00 -0.29830264028E+04  0.29830264028E+04  0.25500000000E-02 0. -1.
          2    1    1    2    0  502 -0.24981933667E+02 -0.78831775774E+01 -0.12508070810E+04  0.12510813704E+04  0.25500000000E-02 0.  1.
         -2    1    1    2  502    0  0.24981933667E+02  0.78831775774E+01 -0.17319831353E+04  0.17321812326E+04  0.25500000000E-02 0.  1.
<mgrwt>
<rscale>  0 0.53087512E+02</rscale>
<asrwt>0</asrwt>
<pdfrwt beam="2">  1        2 0.45889697E+00 0.53087512E+02</pdfrwt>
<pdfrwt beam="1">  1       -2 0.36339826E-04 0.53087512E+02</pdfrwt>
<totfact> 0.42375058E+05</totfact>
</mgrwt>
</event>
<event>
 4    1  0.2196664E-002  0.4484021E+02  0.7818608E-02  0.1475342E+00
         -2   -1    0    0  501    0 -0.00000000000E+00  0.00000000000E+00  0.88068356519E+01  0.88068360211E+01  0.25500000000E-02 0. -1.
          2   -1    0    0    0  501  0.00000000000E+00 -0.00000000000E+00 -0.57076248576E+02  0.57076248633E+02  0.25500000000E-02 0. -1.
          2    1    1    2    0  502  0.11678366288E+02  0.18568363344E+02 -0.17323050829E+02  0.27950965153E+02  0.25500000000E-02 0.  1.
         -2    1    1    2  502    0 -0.11678366288E+02 -0.18568363344E+02 -0.30946362095E+02  0.37932119501E+02  0.25500000000E-02 0.  1.
<mgrwt>
<rscale>  0 0.44840212E+02</rscale>
<asrwt>0</asrwt>
<pdfrwt beam="2">  1        2 0.87809611E-02 0.44840212E+02</pdfrwt>
<pdfrwt beam="1">  1       -2 0.13548979E-02 0.44840212E+02</pdfrwt>
<totfact> 0.69450005E+05</totfact>
</mgrwt>
</event>
<event>
 4    1  0.2196664E-002  0.4850236E+02  0.7818608E-02  0.1453591E+00
         -2   -1    0    0  501    0 -0.00000000000E+00  0.00000000000E+00  0.17128470761E+02  0.17128470951E+02  0.25500000000E-02 0.  1.
          2   -1    0    0    0  501  0.00000000000E+00 -0.00000000000E+00 -0.34335800787E+02  0.34335800882E+02  0.25500000000E-02 0.  1.
          2    1    1    2    0  502  0.23226483368E+02  0.46723726101E+01 -0.31086918442E+01  0.23894864865E+02  0.25500000000E-02 0.  1.
         -2    1    1    2  502    0 -0.23226483368E+02 -0.46723726101E+01 -0.14098638182E+02  0.27569406967E+02  0.25500000000E-02 0.  1.
<mgrwt>
<rscale>  0 0.48502361E+02</rscale>
<asrwt>0</asrwt>
<pdfrwt beam="2">  1        2 0.52824309E-02 0.48502361E+02</pdfrwt>
<pdfrwt beam="1">  1       -2 0.26351494E-02 0.48502361E+02</pdfrwt>
<totfact> 0.51936522E+05</totfact>
</mgrwt>
</event>
<event>
 4    1  0.2196664E-002  0.5594880E+02  0.7818608E-02  0.1415664E+00
          2   -1    0    0    0  501  0.00000000000E+00  0.00000000000E+00  0.75632752898E+02  0.75632752941E+02  0.25500000000E-02 0. -1.
         -2   -1    0    0  501    0 -0.00000000000E+00 -0.00000000000E+00 -0.10346935005E+02  0.10346935319E+02  0.25500000000E-02 0. -1.
          2    1    1    2    0  502  0.11669457317E+02 -0.20633363402E+02  0.55470611328E+02  0.60323301028E+02  0.25500000000E-02 0.  1.
         -2    1    1    2  502    0 -0.11669457317E+02  0.20633363402E+02  0.98152065647E+01  0.25656387231E+02  0.25500000000E-02 0.  1.
<mgrwt>
<rscale>  0 0.55948805E+02</rscale>
<asrwt>0</asrwt>
<pdfrwt beam="1">  1        2 0.11635808E-01 0.55948805E+02</pdfrwt>
<pdfrwt beam="2">  1       -2 0.15918362E-02 0.55948805E+02</pdfrwt>
<totfact> 0.41901668E+05</totfact>
</mgrwt>
</event>
<event>
 4    1  0.2196664E-002  0.7047293E+02  0.7818608E-02  0.1358492E+00
         -2   -1    0    0  501    0 -0.00000000000E+00  0.00000000000E+00  0.92319242147E+00  0.92319594321E+00  0.25500000000E-02 0.  1.
          2   -1    0    0    0  501  0.00000000000E+00 -0.00000000000E+00 -0.13449051014E+04  0.13449051014E+04  0.25500000000E-02 0.  1.
          2    1    1    2    0  502 -0.10545964709E+02 -0.28499625418E+02 -0.10126279652E+04  0.10130838277E+04  0.25500000000E-02 0.  1.
         -2    1    1    2  502    0  0.10545964709E+02  0.28499625418E+02 -0.33135394378E+03  0.33274446966E+03  0.25500000000E-02 0.  1.
<mgrwt>
<rscale>  0 0.70472933E+02</rscale>
<asrwt>0</asrwt>
<pdfrwt beam="2">  1        2 0.20690691E+00 0.70472933E+02</pdfrwt>
<pdfrwt beam="1">  1       -2 0.14203095E-03 0.70472933E+02</pdfrwt>
<totfact> 0.47650764E+05</totfact>
</mgrwt>
</event>
<event>
 4    1  0.2196664E-002  0.4050050E+02  0.7818608E-02  0.1504560E+00
         -2   -1    0    0  501    0 -0.00000000000E+00  0.00000000000E+00  0.10785488621E+01  0.10785518766E+01  0.25500000000E-02 0.  1.
          2   -1    0    0    0  501  0.00000000000E+00 -0.00000000000E+00 -0.38020719371E+03  0.38020719372E+03  0.25500000000E-02 0.  1.
          2    1    1    2    0  502  0.11640009693E+02  0.16517767924E+02 -0.20200452982E+03  0.20301270049E+03  0.25500000000E-02 0.  1.
         -2    1    1    2  502    0 -0.11640009693E+02 -0.16517767924E+02 -0.17712411502E+03  0.17827304511E+03  0.25500000000E-02 0.  1.
<mgrwt>
<rscale>  0 0.40500499E+02</rscale>
<asrwt>0</asrwt>
<pdfrwt beam="2">  1        2 0.58493308E-01 0.40500499E+02</pdfrwt>
<pdfrwt beam="1">  1       -2 0.16593113E-03 0.40500499E+02</pdfrwt>
<totfact> 0.15383715E+06</totfact>
</mgrwt>
</event>
<event>
 4    1  0.2196664E-002  0.6868443E+02  0.7818608E-02  0.1364625E+00
         -2   -1    0    0  501    0 -0.00000000000E+00  0.00000000000E+00  0.24769564080E+01  0.24769577206E+01  0.25500000000E-02 0. -1.
          2   -1    0    0    0  501  0.00000000000E+00 -0.00000000000E+00 -0.47614383729E+03  0.47614383729E+03  0.25500000000E-02 0. -1.
          2    1    1    2    0  502 -0.27936780743E+02  0.14106105840E+02 -0.13829965912E+03  0.14179647971E+03  0.25500000000E-02 0.  1.
         -2    1    1    2  502    0  0.27936780743E+02 -0.14106105840E+02 -0.33536722176E+03  0.33682431530E+03  0.25500000000E-02 0.  1.
<mgrwt>
<rscale>  0 0.68684433E+02</rscale>
<asrwt>0</asrwt>
<pdfrwt beam="2">  1        2 0.73252826E-01 0.68684433E+02</pdfrwt>
<pdfrwt beam="1">  1       -2 0.38107070E-03 0.68684433E+02</pdfrwt>
<totfact> 0.44398114E+05</totfact>
</mgrwt>
</event>
<event>
 4    1  0.2196664E-002  0.7543941E+02  0.7818608E-02  0.1342516E+00
         -2   -1    0    0  501    0 -0.00000000000E+00  0.00000000000E+00  0.15866558225E+02  0.15866558430E+02  0.25500000000E-02 0.  1.
          2   -1    0    0    0  501  0.00000000000E+00 -0.00000000000E+00 -0.89671384089E+02  0.89671384125E+02  0.25500000000E-02 0.  1.
          2    1    1    2    0  502 -0.18123124037E+02  0.32716470972E+02 -0.30054407277E+02  0.47980021895E+02  0.25500000000E-02 0.  1.
         -2    1    1    2  502    0  0.18123124037E+02 -0.32716470972E+02 -0.43750418586E+02  0.57557920660E+02  0.25500000000E-02 0.  1.
<mgrwt>
<rscale>  0 0.75439413E+02</rscale>
<asrwt>0</asrwt>
<pdfrwt beam="2">  1        2 0.13795597E-01 0.75439413E+02</pdfrwt>
<pdfrwt beam="1">  1       -2 0.24410090E-02 0.75439413E+02</pdfrwt>
<totfact> 0.19899228E+05</totfact>
</mgrwt>
</event>
<event>
 4    1  0.2196664E-002  0.4320110E+02  0.7818608E-02  0.1485895E+00
         -2   -1    0    0  501    0 -0.00000000000E+00  0.00000000000E+00  0.69455895163E+01  0.69455899844E+01  0.25500000000E-02 0.  1.
          2   -1    0    0    0  501  0.00000000000E+00 -0.00000000000E+00 -0.67176993973E+02  0.67176994021E+02  0.25500000000E-02 0.  1.
          2    1    1    2    0  502  0.21508801079E+02 -0.19887938240E+01 -0.30121880453E+02  0.37066312378E+02  0.25500000000E-02 0.  1.
         -2    1    1    2  502    0 -0.21508801079E+02  0.19887938240E+01 -0.30109524003E+02  0.37056271628E+02  0.25500000000E-02 0.  1.
<mgrwt>
<rscale>  0 0.43201104E+02</rscale>
<asrwt>0</asrwt>
<pdfrwt beam="2">  1        2 0.10334922E-01 0.43201104E+02</pdfrwt>
<pdfrwt beam="1">  1       -2 0.10685523E-02 0.43201104E+02</pdfrwt>
<totfact> 0.78813761E+05</totfact>
</mgrwt>
</event>
<event>
 4    1  0.2196664E-002  0.4290402E+02  0.7818608E-02  0.1487867E+00
         -2   -1    0    0  501    0 -0.00000000000E+00  0.00000000000E+00  0.11791404229E+01  0.11791431802E+01  0.25500000000E-02 0.  1.
          2   -1    0    0    0  501  0.00000000000E+00 -0.00000000000E+00 -0.39027431262E+03  0.39027431263E+03  0.25500000000E-02 0.  1.
          2    1    1    2    0  502 -0.31066989763E+01 -0.21194858636E+02 -0.20501087954E+03  0.20612698597E+03  0.25500000000E-02 0. -1.
         -2    1    1    2  502    0  0.31066989763E+01  0.21194858636E+02 -0.18408429266E+03  0.18532646983E+03  0.25500000000E-02 0. -1.
<mgrwt>
<rscale>  0 0.42904021E+02</rscale>
<asrwt>0</asrwt>
<pdfrwt beam="2">  1        2 0.60042099E-01 0.42904021E+02</pdfrwt>
<pdfrwt beam="1">  1       -2 0.18140674E-03 0.42904021E+02</pdfrwt>
<totfact> 0.13494627E+06</totfact>
</mgrwt>
</event>
<event>
 4    1  0.2196664E-002  0.8509545E+02  0.7818608E-02  0.1315183E+00
         -2   -1    0    0  501    0 -0.00000000000E+00  0.00000000000E+00  0.15198457704E+01  0.15198479096E+01  0.25500000000E-02 0.  1.
          2   -1    0    0    0  501  0.00000000000E+00 -0.00000000000E+00 -0.11911127852E+04  0.11911127852E+04  0.25500000000E-02 0.  1.
          2    1    1    2    0  502  0.40046715881E+02  0.60732741752E+00 -0.39354206026E+03  0.39557484943E+03  0.25500000000E-02 0. -1.
         -2    1    1    2  502    0 -0.40046715881E+02 -0.60732741752E+00 -0.79605087915E+03  0.79705778366E+03  0.25500000000E-02 0. -1.
<mgrwt>
<rscale>  0 0.85095452E+02</rscale>
<asrwt>0</asrwt>
<pdfrwt beam="2">  1        2 0.18324737E+00 0.85095452E+02</pdfrwt>
<pdfrwt beam="1">  1       -2 0.23382354E-03 0.85095452E+02</pdfrwt>
<totfact> 0.29830266E+05</totfact>
</mgrwt>
</event>
<event>
 4    1  0.2196664E-002  0.5325329E+02  0.7818608E-02  0.1428544E+00
         -2   -1    0    0  501    0 -0.00000000000E+00  0.00000000000E+00  0.29007607121E+02  0.29007607233E+02  0.25500000000E-02 0. -1.
          2   -1    0    0    0  501  0.00000000000E+00 -0.00000000000E+00 -0.24441111684E+02  0.24441111817E+02  0.25500000000E-02 0. -1.
          2    1    1    2    0  502  0.22564483798E+02  0.10897912661E+02  0.11319495021E+02  0.27496388917E+02  0.25500000000E-02 0. -1.
         -2    1    1    2  502    0 -0.22564483798E+02 -0.10897912661E+02 -0.67529995840E+01  0.25952330133E+02  0.25500000000E-02 0. -1.
<mgrwt>
<rscale>  0 0.53253288E+02</rscale>
<asrwt>0</asrwt>
<pdfrwt beam="2">  1        2 0.37601711E-02 0.53253288E+02</pdfrwt>
<pdfrwt beam="1">  1       -2 0.44627088E-02 0.53253288E+02</pdfrwt>
<totfact> 0.38433673E+05</totfact>
</mgrwt>
</event>
<event>
 4    1  0.2196664E-002  0.7660319E+02  0.7818608E-02  0.1338977E+00
          2   -1    0    0    0  501  0.00000000000E+00  0.00000000000E+00  0.45491894479E+02  0.45491894551E+02  0.25500000000E-02 0.  1.
         -2   -1    0    0  501    0 -0.00000000000E+00 -0.00000000000E+00 -0.32247774196E+02  0.32247774297E+02  0.25500000000E-02 0.  1.
          2    1    1    2    0  502  0.25018676343E+02 -0.18438446575E+02 -0.16095349783E+02  0.34999582415E+02  0.25500000000E-02 0. -1.
         -2    1    1    2  502    0 -0.25018676343E+02  0.18438446575E+02  0.29339470066E+02  0.42740086433E+02  0.25500000000E-02 0. -1.
<mgrwt>
<rscale>  0 0.76603194E+02</rscale>
<asrwt>0</asrwt>
<pdfrwt beam="1">  1        2 0.69987530E-02 0.76603194E+02</pdfrwt>
<pdfrwt beam="2">  1       -2 0.49611960E-02 0.76603194E+02</pdfrwt>
<totfact> 0.16116519E+05</totfact>
</mgrwt>
</event>
<event>
 4    1  0.2196664E-002  0.4661450E+02  0.7818608E-02  0.1464507E+00
         -2   -1    0    0  501    0 -0.00000000000E+00  0.00000000000E+00  0.54519161271E+00  0.54519757618E+00  0.25500000000E-02 0. -1.
          2   -1    0    0    0  501  0.00000000000E+00 -0.00000000000E+00 -0.99639282254E+03  0.99639282255E+03  0.25500000000E-02 0. -1.
          2    1    1    2    0  502 -0.22075341119E+02 -0.66826855030E+01 -0.42619326228E+03  0.42681691132E+03  0.25500000000E-02 0.  1.
         -2    1    1    2  502    0  0.22075341119E+02  0.66826855030E+01 -0.56965436865E+03  0.57012110880E+03  0.25500000000E-02 0.  1.
<mgrwt>
<rscale>  0 0.46614503E+02</rscale>
<asrwt>0</asrwt>
<pdfrwt beam="2">  1        2 0.15328975E+00 0.46614503E+02</pdfrwt>
<pdfrwt beam="1">  1       -2 0.83876889E-04 0.46614503E+02</pdfrwt>
<totfact> 0.13753019E+06</totfact>
</mgrwt>
</event>
<event>
 4    1  0.2196664E-002  0.5488937E+02  0.7818608E-02  0.1420623E+00
          2   -1    0    0    0  501  0.00000000000E+00  0.00000000000E+00  0.16492148401E+01  0.16492168115E+01  0.25500000000E-02 0. -1.
         -2   -1    0    0  501    0 -0.00000000000E+00 -0.00000000000E+00 -0.45670837799E+03  0.45670837800E+03  0.25500000000E-02 0. -1.
          2    1    1    2    0  502  0.23594208061E+02 -0.10191029906E+02 -0.30791524549E+03  0.30898599023E+03  0.25500000000E-02 0. -1.
         -2    1    1    2  502    0 -0.23594208061E+02  0.10191029906E+02 -0.14714391766E+03  0.14937160458E+03  0.25500000000E-02 0. -1.
<mgrwt>
<rscale>  0 0.54889368E+02</rscale>
<asrwt>0</asrwt>
<pdfrwt beam="1">  1        2 0.25372588E-03 0.54889368E+02</pdfrwt>
<pdfrwt beam="2">  1       -2 0.70262727E-01 0.54889368E+02</pdfrwt>
<totfact> 0.14098963E+05</totfact>
</mgrwt>
</event>
<event>
 4    1  0.2196664E-002  0.4999851E+02  0.7818608E-02  0.1445350E+00
         -2   -1    0    0  501    0 -0.00000000000E+00  0.00000000000E+00  0.61597453600E+00  0.61597981420E+00  0.25500000000E-02 0.  1.
          2   -1    0    0    0  501  0.00000000000E+00 -0.00000000000E+00 -0.10145873356E+04  0.10145873356E+04  0.25500000000E-02 0.  1.
          2    1    1    2    0  502  0.95504284104E+01  0.22796976177E+02 -0.43087746004E+03  0.43158579493E+03  0.25500000000E-02 0. -1.
         -2    1    1    2  502    0 -0.95504284104E+01 -0.22796976177E+02 -0.58309390106E+03  0.58361752052E+03  0.25500000000E-02 0. -1.
<mgrwt>
<rscale>  0 0.49998506E+02</rscale>
<asrwt>0</asrwt>
<pdfrwt beam="2">  1        2 0.15608902E+00 0.49998506E+02</pdfrwt>
<pdfrwt beam="1">  1       -2 0.94766532E-04 0.49998506E+02</pdfrwt>
<totfact> 0.11585093E+06</totfact>
</mgrwt>
</event>
<event>
 4    1  0.2196664E-002  0.5052053E+02  0.7818608E-02  0.1442554E+00
          2   -1    0    0    0  501  0.00000000000E+00  0.00000000000E+00  0.12724564884E+03  0.12724564886E+03  0.25500000000E-02 0. -1.
         -2   -1    0    0  501    0 -0.00000000000E+00 -0.00000000000E+00 -0.50145601210E+01  0.50145607694E+01  0.25500000000E-02 0. -1.
          2    1    1    2    0  502  0.18936662073E+02  0.16289187309E+02  0.70962029062E+02  0.75229943299E+02  0.25500000000E-02 0.  1.
         -2    1    1    2  502    0 -0.18936662073E+02 -0.16289187309E+02  0.51269059652E+02  0.57030266331E+02  0.25500000000E-02 0.  1.
<mgrwt>
<rscale>  0 0.50520531E+02</rscale>
<asrwt>0</asrwt>
<pdfrwt beam="1">  1        2 0.19576253E-01 0.50520531E+02</pdfrwt>
<pdfrwt beam="2">  1       -2 0.77147086E-03 0.50520531E+02</pdfrwt>
<totfact> 0.62308715E+05</totfact>
</mgrwt>
</event>
<event>
 4    1  0.2196664E-002  0.9358594E+02  0.7818608E-02  0.1294393E+00
         -2   -1    0    0  501    0 -0.00000000000E+00  0.00000000000E+00  0.49713858646E+01  0.49713865186E+01  0.25500000000E-02 0.  1.
          2   -1    0    0    0  501  0.00000000000E+00 -0.00000000000E+00 -0.44043690121E+03  0.44043690122E+03  0.25500000000E-02 0.  1.
          2    1    1    2    0  502  0.45452469345E+02 -0.38103495135E+01 -0.16801264579E+03  0.17409392547E+03  0.25500000000E-02 0. -1.
         -2    1    1    2  502    0 -0.45452469345E+02  0.38103495135E+01 -0.26745286956E+03  0.27131436227E+03  0.25500000000E-02 0. -1.
<mgrwt>
<rscale>  0 0.93585938E+02</rscale>
<asrwt>0</asrwt>
<pdfrwt beam="2">  1        2 0.67759492E-01 0.93585938E+02</pdfrwt>
<pdfrwt beam="1">  1       -2 0.76482899E-03 0.93585938E+02</pdfrwt>
<totfact> 0.19268717E+05</totfact>
</mgrwt>
</event>
<event>
 4    1  0.2196664E-002  0.6624538E+02  0.7818608E-02  0.1373347E+00
          2   -1    0    0    0  501  0.00000000000E+00  0.00000000000E+00  0.77747676393E+03  0.77747676393E+03  0.25500000000E-02 0. -1.
         -2   -1    0    0  501    0 -0.00000000000E+00 -0.00000000000E+00 -0.14111181252E+01  0.14111204292E+01  0.25500000000E-02 0. -1.
          2    1    1    2    0  502 -0.32298455703E+02 -0.49832742594E+01  0.32461882404E+03  0.32625971892E+03  0.25500000000E-02 0. -1.
         -2    1    1    2  502    0  0.32298455703E+02  0.49832742594E+01  0.45144682177E+03  0.45262816544E+03  0.25500000000E-02 0. -1.
<mgrwt>
<rscale>  0 0.66245376E+02</rscale>
<asrwt>0</asrwt>
<pdfrwt beam="1">  1        2 0.11961179E+00 0.66245376E+02</pdfrwt>
<pdfrwt beam="2">  1       -2 0.21709532E-03 0.66245376E+02</pdfrwt>
<totfact> 0.55504523E+05</totfact>
</mgrwt>
</event>
<event>
 4    1  0.2196664E-002  0.6472624E+02  0.7818608E-02  0.1379004E+00
          2   -1    0    0    0  501  0.00000000000E+00  0.00000000000E+00  0.12166398289E+02  0.12166398557E+02  0.25500000000E-02 0.  1.
         -2   -1    0    0  501    0 -0.00000000000E+00 -0.00000000000E+00 -0.86087230387E+02  0.86087230425E+02  0.25500000000E-02 0.  1.
          2    1    1    2    0  502  0.21991648488E+01 -0.30572531453E+02 -0.52725251358E+02  0.60987442500E+02  0.25500000000E-02 0. -1.
         -2    1    1    2  502    0 -0.21991648488E+01  0.30572531453E+02 -0.21195580740E+02  0.37266186482E+02  0.25500000000E-02 0. -1.
<mgrwt>
<rscale>  0 0.64726240E+02</rscale>
<asrwt>0</asrwt>
<pdfrwt beam="1">  1        2 0.18717537E-02 0.64726240E+02</pdfrwt>
<pdfrwt beam="2">  1       -2 0.13244189E-01 0.64726240E+02</pdfrwt>
<totfact> 0.19436580E+05</totfact>
</mgrwt>
</event>
<event>
 4    1  0.2196664E-002  0.7232077E+02  0.7818608E-02  0.1352374E+00
         -2   -1    0    0  501    0 -0.00000000000E+00  0.00000000000E+00  0.10124921259E+02  0.10124921580E+02  0.25500000000E-02 0. -1.
          2   -1    0    0    0  501  0.00000000000E+00 -0.00000000000E+00 -0.12914405445E+03  0.12914405448E+03  0.25500000000E-02 0. -1.
          2    1    1    2    0  502 -0.34422120679E+01  0.34920577496E+02 -0.76328194023E+02  0.84007670875E+02  0.25500000000E-02 0.  1.
         -2    1    1    2  502    0  0.34422120679E+01 -0.34920577496E+02 -0.42690939171E+02  0.55261305182E+02  0.25500000000E-02 0.  1.
<mgrwt>
<rscale>  0 0.72320769E+02</rscale>
<asrwt>0</asrwt>
<pdfrwt beam="2">  1        2 0.19868315E-01 0.72320769E+02</pdfrwt>
<pdfrwt beam="1">  1       -2 0.15576803E-02 0.72320769E+02</pdfrwt>
<totfact> 0.24769858E+05</totfact>
</mgrwt>
</event>
<event>
 4    1  0.2196664E-002  0.5790642E+02  0.7818608E-02  0.1406834E+00
         -2   -1    0    0  501    0 -0.00000000000E+00  0.00000000000E+00  0.33518616009E+00  0.33519585979E+00  0.25500000000E-02 0.  1.
          2   -1    0    0    0  501  0.00000000000E+00 -0.00000000000E+00 -0.25009272112E+04  0.25009272112E+04  0.25500000000E-02 0.  1.
          2    1    1    2    0  502  0.17913454835E+02  0.22746296826E+02 -0.12481662650E+04  0.12485020269E+04  0.25500000000E-02 0.  1.
         -2    1    1    2  502    0 -0.17913454835E+02 -0.22746296826E+02 -0.12524257600E+04  0.12527603802E+04  0.25500000000E-02 0.  1.
<mgrwt>
<rscale>  0 0.57906418E+02</rscale>
<asrwt>0</asrwt>
<pdfrwt beam="2">  1        2 0.38474309E+00 0.57906418E+02</pdfrwt>
<pdfrwt beam="1">  1       -2 0.51569851E-04 0.57906418E+02</pdfrwt>
<totfact> 0.48352868E+05</totfact>
</mgrwt>
</event>
<event>
 4    1  0.2196664E-002  0.8635660E+02  0.7818608E-02  0.1311923E+00
          2   -1    0    0    0  501  0.00000000000E+00  0.00000000000E+00  0.53208735085E+03  0.53208735086E+03  0.25500000000E-02 0. -1.
         -2   -1    0    0  501    0 -0.00000000000E+00 -0.00000000000E+00 -0.35038705631E+01  0.35038714910E+01  0.25500000000E-02 0. -1.
          2    1    1    2    0  502 -0.67432228251E+01  0.42646812128E+02  0.26193976241E+03  0.26547440701E+03  0.25500000000E-02 0.  1.
         -2    1    1    2  502    0  0.67432228251E+01 -0.42646812128E+02  0.26664371788E+03  0.27011681534E+03  0.25500000000E-02 0.  1.
<mgrwt>
<rscale>  0 0.86356597E+02</rscale>
<asrwt>0</asrwt>
<pdfrwt beam="1">  1        2 0.81859606E-01 0.86356597E+02</pdfrwt>
<pdfrwt beam="2">  1       -2 0.53905699E-03 0.86356597E+02</pdfrwt>
<totfact> 0.25365477E+05</totfact>
</mgrwt>
</event>
<event>
 4    1  0.2196664E-002  0.4345375E+02  0.7818608E-02  0.1484232E+00
          2   -1    0    0    0  501  0.00000000000E+00  0.00000000000E+00  0.97921077585E+03  0.97921077585E+03  0.25500000000E-02 0. -1.
         -2   -1    0    0  501    0 -0.00000000000E+00 -0.00000000000E+00 -0.48207577140E+00  0.48208251563E+00  0.25500000000E-02 0. -1.
          2    1    1    2    0  502  0.21387856828E+02  0.29014713455E+01  0.43323459655E+03  0.43377191542E+03  0.25500000000E-02 0.  1.
         -2    1    1    2  502    0 -0.21387856828E+02 -0.29014713455E+01  0.54549410353E+03  0.54592094295E+03  0.25500000000E-02 0.  1.
<mgrwt>
<rscale>  0 0.43453750E+02</rscale>
<asrwt>0</asrwt>
<pdfrwt beam="1">  1        2 0.15064843E+00 0.43453750E+02</pdfrwt>
<pdfrwt beam="2">  1       -2 0.74165719E-04 0.43453750E+02</pdfrwt>
<totfact> 0.16304570E+06</totfact>
</mgrwt>
</event>
<event>
 4    1  0.2196664E-002  0.5027337E+02  0.7818608E-02  0.1443873E+00
         -2   -1    0    0  501    0 -0.00000000000E+00  0.00000000000E+00  0.71755621473E+02  0.71755621518E+02  0.25500000000E-02 0. -1.
          2   -1    0    0    0  501  0.00000000000E+00 -0.00000000000E+00 -0.88056211654E+01  0.88056215346E+01  0.25500000000E-02 0. -1.
          2    1    1    2    0  502 -0.25007317214E+02  0.23665934248E+01  0.32983488563E+02  0.41459343977E+02  0.25500000000E-02 0.  1.
         -2    1    1    2  502    0  0.25007317214E+02 -0.23665934248E+01  0.29966511744E+02  0.39101899076E+02  0.25500000000E-02 0.  1.
<mgrwt>
<rscale>  0 0.50273366E+02</rscale>
<asrwt>0</asrwt>
<pdfrwt beam="2">  1        2 0.13547110E-02 0.50273366E+02</pdfrwt>
<pdfrwt beam="1">  1       -2 0.11039326E-01 0.50273366E+02</pdfrwt>
<totfact> 0.37575607E+05</totfact>
</mgrwt>
</event>
<event>
 4    1  0.2196664E-002  0.4193814E+02  0.7818608E-02  0.1494415E+00
          2   -1    0    0    0  501  0.00000000000E+00  0.00000000000E+00  0.34209948079E+03  0.34209948080E+03  0.25500000000E-02 0.  1.
         -2   -1    0    0  501    0 -0.00000000000E+00 -0.00000000000E+00 -0.12853031700E+01  0.12853056995E+01  0.25500000000E-02 0.  1.
          2    1    1    2    0  502 -0.10311590893E+02 -0.17166975521E+02  0.22132233132E+03  0.22222647975E+03  0.25500000000E-02 0.  1.
         -2    1    1    2  502    0  0.10311590893E+02  0.17166975521E+02  0.11949184630E+03  0.12115830675E+03  0.25500000000E-02 0.  1.
<mgrwt>
<rscale>  0 0.41938144E+02</rscale>
<asrwt>0</asrwt>
<pdfrwt beam="1">  1        2 0.52630716E-01 0.41938144E+02</pdfrwt>
<pdfrwt beam="2">  1       -2 0.19773904E-03 0.41938144E+02</pdfrwt>
<totfact> 0.13641731E+06</totfact>
</mgrwt>
</event>
<event>
 4    1  0.2196664E-002  0.7713688E+02  0.7818608E-02  0.1337379E+00
         -2   -1    0    0  501    0 -0.00000000000E+00  0.00000000000E+00  0.74944855239E+02  0.74944855283E+02  0.25500000000E-02 0.  1.
          2   -1    0    0    0  501  0.00000000000E+00 -0.00000000000E+00 -0.19848251894E+02  0.19848252058E+02  0.25500000000E-02 0.  1.
          2    1    1    2    0  502  0.26902215064E+02  0.15595214191E+02  0.55587160239E+02  0.63693581081E+02  0.25500000000E-02 0. -1.
         -2    1    1    2  502    0 -0.26902215064E+02 -0.15595214191E+02 -0.49055689412E+00  0.31099526259E+02  0.25500000000E-02 0. -1.
<mgrwt>
<rscale>  0 0.77136875E+02</rscale>
<asrwt>0</asrwt>
<pdfrwt beam="2">  1        2 0.30535772E-02 0.77136875E+02</pdfrwt>
<pdfrwt beam="1">  1       -2 0.11529978E-01 0.77136875E+02</pdfrwt>
<totfact> 0.13053774E+05</totfact>
</mgrwt>
</event>
<event>
 4    1  0.2196664E-002  0.5469136E+02  0.7818608E-02  0.1421564E+00
         -2   -1    0    0  501    0 -0.00000000000E+00  0.00000000000E+00  0.42758366367E+01  0.42758373971E+01  0.25500000000E-02 0.  1.
          2   -1    0    0    0  501  0.00000000000E+00 -0.00000000000E+00 -0.17488650153E+03  0.17488650155E+03  0.25500000000E-02 0.  1.
          2    1    1    2    0  502 -0.19763034565E+02 -0.18086690609E+02 -0.67338611877E+02  0.72472026110E+02  0.25500000000E-02 0. -1.
         -2    1    1    2  502    0  0.19763034565E+02  0.18086690609E+02 -0.10327205302E+03  0.10669031284E+03  0.25500000000E-02 0. -1.
<mgrwt>
<rscale>  0 0.54691359E+02</rscale>
<asrwt>0</asrwt>
<pdfrwt beam="2">  1        2 0.26905610E-01 0.54691359E+02</pdfrwt>
<pdfrwt beam="1">  1       -2 0.65782121E-03 0.54691359E+02</pdfrwt>
<totfact> 0.56192072E+05</totfact>
</mgrwt>
</event>
<event>
 4    1  0.2196664E-002  0.5166566E+02  0.7818608E-02  0.1436559E+00
         -2   -1    0    0  501    0 -0.00000000000E+00  0.00000000000E+00  0.74798974164E+00  0.74799408828E+00  0.25500000000E-02 0.  1.
          2   -1    0    0    0  501  0.00000000000E+00 -0.00000000000E+00 -0.89216894034E+03  0.89216894034E+03  0.25500000000E-02 0.  1.
          2    1    1    2    0  502  0.12492179126E+02 -0.22583640710E+02 -0.42631246947E+03  0.42709296061E+03  0.25500000000E-02 0. -1.
         -2    1    1    2  502    0 -0.12492179126E+02  0.22583640710E+02 -0.46510848112E+03  0.46582397382E+03  0.25500000000E-02 0. -1.
<mgrwt>
<rscale>  0 0.51665662E+02</rscale>
<asrwt>0</asrwt>
<pdfrwt beam="2">  1        2 0.13725591E+00 0.51665662E+02</pdfrwt>
<pdfrwt beam="1">  1       -2 0.11507639E-03 0.51665662E+02</pdfrwt>
<totfact> 0.10580360E+06</totfact>
</mgrwt>
</event>
<event>
 4    1  0.2196664E-002  0.4952617E+02  0.7818608E-02  0.1447914E+00
         -2   -1    0    0  501    0 -0.00000000000E+00  0.00000000000E+00  0.37622862717E+00  0.37623726876E+00  0.25500000000E-02 0. -1.
          2   -1    0    0    0  501  0.00000000000E+00 -0.00000000000E+00 -0.16298687248E+04  0.16298687248E+04  0.25500000000E-02 0. -1.
          2    1    1    2    0  502 -0.24308570569E+02  0.34229721010E+01 -0.70764266480E+03  0.70806833314E+03  0.25500000000E-02 0.  1.
         -2    1    1    2  502    0  0.24308570569E+02 -0.34229721010E+01 -0.92184983142E+03  0.92217662898E+03  0.25500000000E-02 0.  1.
<mgrwt>
<rscale>  0 0.49526168E+02</rscale>
<asrwt>0</asrwt>
<pdfrwt beam="2">  1        2 0.25074338E+00 0.49526168E+02</pdfrwt>
<pdfrwt beam="1">  1       -2 0.57883297E-04 0.49526168E+02</pdfrwt>
<totfact> 0.10834025E+06</totfact>
</mgrwt>
</event>
<event>
 4    1  0.2196664E-002  0.7748643E+02  0.7818608E-02  0.1336340E+00
          2   -1    0    0    0  501  0.00000000000E+00  0.00000000000E+00  0.93362261964E+03  0.93362261964E+03  0.25500000000E-02 0. -1.
         -2   -1    0    0  501    0 -0.00000000000E+00 -0.00000000000E+00 -0.16077541910E+01  0.16077562132E+01  0.25500000000E-02 0. -1.
          2    1    1    2    0  502 -0.21158730292E+02  0.44744442769E+01  0.85398913402E+03  0.85426292998E+03  0.25500000000E-02 0. -1.
         -2    1    1    2  502    0  0.21158730292E+02 -0.44744442769E+01  0.78025731428E+02  0.80967445869E+02  0.25500000000E-02 0. -1.
<mgrwt>
<rscale>  0 0.77486428E+02</rscale>
<asrwt>0</asrwt>
<pdfrwt beam="1">  1        2 0.14363478E+00 0.77486428E+02</pdfrwt>
<pdfrwt beam="2">  1       -2 0.24734603E-03 0.77486428E+02</pdfrwt>
<totfact> 0.38063764E+05</totfact>
</mgrwt>
</event>
<event>
 4    1  0.2196664E-002  0.5018327E+02  0.7818608E-02  0.1444356E+00
         -2   -1    0    0  501    0 -0.00000000000E+00  0.00000000000E+00  0.56584759281E+03  0.56584759282E+03  0.25500000000E-02 0.  1.
          2   -1    0    0    0  501  0.00000000000E+00 -0.00000000000E+00 -0.11126480118E+01  0.11126509339E+01  0.25500000000E-02 0.  1.
          2    1    1    2    0  502 -0.51779172649E+01 -0.21200085573E+02  0.14246830110E+03  0.14413004989E+03  0.25500000000E-02 0.  1.
         -2    1    1    2  502    0  0.51779172649E+01  0.21200085573E+02  0.42226664370E+03  0.42283019386E+03  0.25500000000E-02 0.  1.
<mgrwt>
<rscale>  0 0.50183265E+02</rscale>
<asrwt>0</asrwt>
<pdfrwt beam="2">  1        2 0.17117642E-03 0.50183265E+02</pdfrwt>
<pdfrwt beam="1">  1       -2 0.87053691E-01 0.50183265E+02</pdfrwt>
<totfact> 0.14871461E+05</totfact>
</mgrwt>
</event>
<event>
 4    1  0.2196664E-002  0.4169784E+02  0.7818608E-02  0.1496076E+00
         -2   -1    0    0  501    0 -0.00000000000E+00  0.00000000000E+00  0.19714256114E+01  0.19714272606E+01  0.25500000000E-02 0.  1.
          2   -1    0    0    0  501  0.00000000000E+00 -0.00000000000E+00 -0.22048878816E+03  0.22048878817E+03  0.25500000000E-02 0.  1.
          2    1    1    2    0  502 -0.17255975981E+02  0.11431823826E+02 -0.95950828479E+02  0.98158121393E+02  0.25500000000E-02 0. -1.
         -2    1    1    2  502    0  0.17255975981E+02 -0.11431823826E+02 -0.12256653407E+03  0.12430209404E+03  0.25500000000E-02 0. -1.
<mgrwt>
<rscale>  0 0.41697838E+02</rscale>
<asrwt>0</asrwt>
<pdfrwt beam="2">  1        2 0.33921333E-01 0.41697838E+02</pdfrwt>
<pdfrwt beam="1">  1       -2 0.30329655E-03 0.41697838E+02</pdfrwt>
<totfact> 0.11915069E+06</totfact>
</mgrwt>
</event>
<event>
 4    1  0.2196664E-002  0.7274380E+02  0.7818608E-02  0.1351004E+00
          2   -1    0    0    0  501  0.00000000000E+00  0.00000000000E+00  0.15858571996E+02  0.15858572201E+02  0.25500000000E-02 0. -1.
         -2   -1    0    0  501    0 -0.00000000000E+00 -0.00000000000E+00 -0.83419554929E+02  0.83419554968E+02  0.25500000000E-02 0. -1.
          2    1    1    2    0  502  0.22279382173E+02 -0.17541414558E+02 -0.64867258310E+02  0.70794302750E+02  0.25500000000E-02 0.  1.
         -2    1    1    2  502    0 -0.22279382173E+02  0.17541414558E+02 -0.26937246223E+01  0.28483824419E+02  0.25500000000E-02 0.  1.
<mgrwt>
<rscale>  0 0.72743798E+02</rscale>
<asrwt>0</asrwt>
<pdfrwt beam="1">  1        2 0.24397804E-02 0.72743798E+02</pdfrwt>
<pdfrwt beam="2">  1       -2 0.12833777E-01 0.72743798E+02</pdfrwt>
<totfact> 0.14684319E+05</totfact>
</mgrwt>
</event>
<event>
 4    1  0.2196664E-002  0.6318185E+02  0.7818608E-02  0.1384944E+00
         -2   -1    0    0  501    0 -0.00000000000E+00  0.00000000000E+00  0.16773910725E+01  0.16773930108E+01  0.25500000000E-02 0.  1.
          2   -1    0    0    0  501  0.00000000000E+00 -0.00000000000E+00 -0.59496328432E+03  0.59496328432E+03  0.25500000000E-02 0.  1.
          2    1    1    2    0  502 -0.10286357374E+02  0.28325030115E+02 -0.38616464951E+03  0.38733867999E+03  0.25500000000E-02 0. -1.
         -2    1    1    2  502    0  0.10286357374E+02 -0.28325030115E+02 -0.20712124374E+03  0.20930199734E+03  0.25500000000E-02 0. -1.
<mgrwt>
<rscale>  0 0.63181854E+02</rscale>
<asrwt>0</asrwt>
<pdfrwt beam="2">  1        2 0.91532645E-01 0.63181854E+02</pdfrwt>
<pdfrwt beam="1">  1       -2 0.25806079E-03 0.63181854E+02</pdfrwt>
<totfact> 0.58794683E+05</totfact>
</mgrwt>
</event>
<event>
 4    1  0.2196664E-002  0.4250997E+02  0.7818608E-02  0.1490513E+00
          2   -1    0    0    0  501  0.00000000000E+00  0.00000000000E+00  0.13077004329E+04  0.13077004329E+04  0.25500000000E-02 0.  1.
         -2   -1    0    0  501    0 -0.00000000000E+00 -0.00000000000E+00 -0.34546766173E+00  0.34547707276E+00  0.25500000000E-02 0.  1.
          2    1    1    2    0  502 -0.15080601322E+02 -0.14776772447E+02  0.57832583849E+03  0.57871111361E+03  0.25500000000E-02 0. -1.
         -2    1    1    2  502    0  0.15080601322E+02  0.14776772447E+02  0.72902912676E+03  0.72933479638E+03  0.25500000000E-02 0. -1.
<mgrwt>
<rscale>  0 0.42509969E+02</rscale>
<asrwt>0</asrwt>
<pdfrwt beam="1">  1        2 0.20118600E+00 0.42509969E+02</pdfrwt>
<pdfrwt beam="2">  1       -2 0.53149248E-04 0.42509969E+02</pdfrwt>
<totfact> 0.16934545E+06</totfact>
</mgrwt>
</event>
<event>
 4    1  0.2196664E-002  0.9213057E+02  0.7818608E-02  0.1297773E+00
         -2   -1    0    0  501    0 -0.00000000000E+00  0.00000000000E+00  0.35992545835E+01  0.35992554868E+01  0.25500000000E-02 0. -1.
          2   -1    0    0    0  501  0.00000000000E+00 -0.00000000000E+00 -0.58956940144E+03  0.58956940144E+03  0.25500000000E-02 0. -1.
          2    1    1    2    0  502  0.35351593127E+02  0.97400015194E+01 -0.47249930576E+03  0.47392003198E+03  0.25500000000E-02 0. -1.
         -2    1    1    2  502    0 -0.35351593127E+02 -0.97400015194E+01 -0.11347084110E+03  0.11924862495E+03  0.25500000000E-02 0. -1.
<mgrwt>
<rscale>  0 0.92130573E+02</rscale>
<asrwt>0</asrwt>
<pdfrwt beam="2">  1        2 0.90702908E-01 0.92130573E+02</pdfrwt>
<pdfrwt beam="1">  1       -2 0.55373201E-03 0.92130573E+02</pdfrwt>
<totfact> 0.22055767E+05</totfact>
</mgrwt>
</event>
<event>
 4    1  0.2196664E-002  0.4687704E+02  0.7818608E-02  0.1462953E+00
          2   -1    0    0    0  501  0.00000000000E+00  0.00000000000E+00  0.42842371449E+01  0.42842379038E+01  0.25500000000E-02 0.  1.
         -2   -1    0    0  501    0 -0.00000000000E+00 -0.00000000000E+00 -0.12822915445E+03  0.12822915448E+03  0.25500000000E-02 0.  1.
          2    1    1    2    0  502 -0.18884128137E+02  0.91737897646E+01 -0.91430604364E+02  0.93810042826E+02  0.25500000000E-02 0. -1.
         -2    1    1    2  502    0  0.18884128137E+02 -0.91737897646E+01 -0.32514312946E+02  0.38703349558E+02  0.25500000000E-02 0. -1.
<mgrwt>
<rscale>  0 0.46877037E+02</rscale>
<asrwt>0</asrwt>
<pdfrwt beam="1">  1        2 0.65911357E-03 0.46877037E+02</pdfrwt>
<pdfrwt beam="2">  1       -2 0.19727559E-01 0.46877037E+02</pdfrwt>
<totfact> 0.38588052E+05</totfact>
</mgrwt>
</event>
<event>
 4    1  0.2196664E-002  0.6029422E+02  0.7818608E-02  0.1396601E+00
         -2   -1    0    0  501    0 -0.00000000000E+00  0.00000000000E+00  0.27330420481E+02  0.27330420600E+02  0.25500000000E-02 0.  1.
          2   -1    0    0    0  501  0.00000000000E+00 -0.00000000000E+00 -0.33254091571E+02  0.33254091669E+02  0.25500000000E-02 0.  1.
          2    1    1    2    0  502  0.12302890632E+02 -0.19063314961E+02  0.16985118075E+02  0.28341936027E+02  0.25500000000E-02 0.  1.
         -2    1    1    2  502    0 -0.12302890632E+02  0.19063314961E+02 -0.22908789165E+02  0.32242576242E+02  0.25500000000E-02 0.  1.
<mgrwt>
<rscale>  0 0.60294222E+02</rscale>
<asrwt>0</asrwt>
<pdfrwt beam="2">  1        2 0.51160141E-02 0.60294222E+02</pdfrwt>
<pdfrwt beam="1">  1       -2 0.42046801E-02 0.60294222E+02</pdfrwt>
<totfact> 0.29064497E+05</totfact>
</mgrwt>
</event>
<event>
 4    1  0.2196664E-002  0.5966204E+02  0.7818608E-02  0.1399255E+00
          2   -1    0    0    0  501  0.00000000000E+00  0.00000000000E+00  0.76168803981E+03  0.76168803982E+03  0.25500000000E-02 0.  1.
         -2   -1    0    0  501    0 -0.00000000000E+00 -0.00000000000E+00 -0.11683113692E+01  0.11683141520E+01  0.25500000000E-02 0.  1.
          2    1    1    2    0  502 -0.26743229881E+02 -0.13176044631E+02  0.36696361551E+03  0.36817265462E+03  0.25500000000E-02 0. -1.
         -2    1    1    2  502    0  0.26743229881E+02  0.13176044631E+02  0.39355611293E+03  0.39468369934E+03  0.25500000000E-02 0. -1.
<mgrwt>
<rscale>  0 0.59662044E+02</rscale>
<asrwt>0</asrwt>
<pdfrwt beam="1">  1        2 0.11718316E+00 0.59662044E+02</pdfrwt>
<pdfrwt beam="2">  1       -2 0.17973983E-03 0.59662044E+02</pdfrwt>
<totfact> 0.72082324E+05</totfact>
</mgrwt>
</event>
<event>
 4    1  0.2196664E-002  0.8607880E+02  0.7818608E-02  0.1312635E+00
          2   -1    0    0    0  501  0.00000000000E+00  0.00000000000E+00  0.42617035602E+01  0.42617043231E+01  0.25500000000E-02 0.  1.
         -2   -1    0    0  501    0 -0.00000000000E+00 -0.00000000000E+00 -0.43465949906E+03  0.43465949906E+03  0.25500000000E-02 0.  1.
          2    1    1    2    0  502  0.42115461101E+01 -0.37217950065E+02 -0.10709430173E+03  0.11345528810E+03  0.25500000000E-02 0.  1.
         -2    1    1    2  502    0 -0.42115461101E+01  0.37217950065E+02 -0.32330349376E+03  0.32546591529E+03  0.25500000000E-02 0.  1.
<mgrwt>
<rscale>  0 0.86078804E+02</rscale>
<asrwt>0</asrwt>
<pdfrwt beam="1">  1        2 0.65564710E-03 0.86078804E+02</pdfrwt>
<pdfrwt beam="2">  1       -2 0.66870657E-01 0.86078804E+02</pdfrwt>
<totfact> 0.46750586E+04</totfact>
</mgrwt>
</event>
<event>
 4    1  0.2196664E-002  0.4956039E+02  0.7818608E-02  0.1447727E+00
          2   -1    0    0    0  501  0.00000000000E+00  0.00000000000E+00  0.10232478950E+03  0.10232478953E+03  0.25500000000E-02 0.  1.
         -2   -1    0    0  501    0 -0.00000000000E+00 -0.00000000000E+00 -0.60010688874E+01  0.60010694292E+01  0.25500000000E-02 0.  1.
          2    1    1    2    0  502 -0.52559445617E+01 -0.21976137119E+02  0.25927173251E+02  0.34391770457E+02  0.25500000000E-02 0.  1.
         -2    1    1    2  502    0  0.52559445617E+01  0.21976137119E+02  0.70396547363E+02  0.73934088504E+02  0.25500000000E-02 0.  1.
<mgrwt>
<rscale>  0 0.49560393E+02</rscale>
<asrwt>0</asrwt>
<pdfrwt beam="1">  1        2 0.15742275E-01 0.49560393E+02</pdfrwt>
<pdfrwt beam="2">  1       -2 0.92324146E-03 0.49560393E+02</pdfrwt>
<totfact> 0.61595205E+05</totfact>
</mgrwt>
</event>
<event>
 4    1  0.2196664E-002  0.5985620E+02  0.7818608E-02  0.1398436E+00
         -2   -1    0    0  501    0 -0.00000000000E+00  0.00000000000E+00  0.47939821091E+00  0.47940499281E+00  0.25500000000E-02 0.  1.
          2   -1    0    0    0  501  0.00000000000E+00 -0.00000000000E+00 -0.18683525797E+04  0.18683525797E+04  0.25500000000E-02 0.  1.
          2    1    1    2    0  502 -0.18118033901E+01 -0.22305598811E+02 -0.15543590902E+04  0.15545201844E+04  0.25500000000E-02 0. -1.
         -2    1    1    2  502    0  0.18118033901E+01  0.22305598811E+02 -0.31351409128E+03  0.31431180030E+03  0.25500000000E-02 0. -1.
<mgrwt>
<rscale>  0 0.59856202E+02</rscale>
<asrwt>0</asrwt>
<pdfrwt beam="2">  1        2 0.28743303E+00 0.59856202E+02</pdfrwt>
<pdfrwt beam="1">  1       -2 0.73755588E-04 0.59856202E+02</pdfrwt>
<totfact> 0.61957346E+05</totfact>
</mgrwt>
</event>
<event>
 4    1  0.2196664E-002  0.4251478E+02  0.7818608E-02  0.1490481E+00
          2   -1    0    0    0  501  0.00000000000E+00  0.00000000000E+00  0.51943121673E+00  0.51943747594E+00  0.25500000000E-02 0. -1.
         -2   -1    0    0  501    0 -0.00000000000E+00 -0.00000000000E+00 -0.86994003238E+03  0.86994003238E+03  0.25500000000E-02 0. -1.
          2    1    1    2    0  502  0.12144087254E+02 -0.17431166212E+02 -0.44992639487E+03  0.45042766924E+03  0.25500000000E-02 0. -1.
         -2    1    1    2  502    0 -0.12144087254E+02  0.17431166212E+02 -0.41949420629E+03  0.42003180062E+03  0.25500000000E-02 0. -1.
<mgrwt>
<rscale>  0 0.42514785E+02</rscale>
<asrwt>0</asrwt>
<pdfrwt beam="1">  1        2 0.79913673E-04 0.42514785E+02</pdfrwt>
<pdfrwt beam="2">  1       -2 0.13383576E+00 0.42514785E+02</pdfrwt>
<totfact> 0.14788453E+05</totfact>
</mgrwt>
</event>
<event>
 4    1  0.2196664E-002  0.4996259E+02  0.7818608E-02  0.1445543E+00
         -2   -1    0    0  501    0 -0.00000000000E+00  0.00000000000E+00  0.41005122855E+00  0.41005915736E+00  0.25500000000E-02 0. -1.
          2   -1    0    0    0  501  0.00000000000E+00 -0.00000000000E+00 -0.15219052105E+04  0.15219052105E+04  0.25500000000E-02 0. -1.
          2    1    1    2    0  502 -0.20127495316E+02  0.95419778058E+01 -0.41616410228E+03  0.41675979346E+03  0.25500000000E-02 0. -1.
         -2    1    1    2  502    0  0.20127495316E+02 -0.95419778058E+01 -0.11053310570E+04  0.11055554762E+04  0.25500000000E-02 0. -1.
<mgrwt>
<rscale>  0 0.49962592E+02</rscale>
<asrwt>0</asrwt>
<pdfrwt beam="2">  1        2 0.23413474E+00 0.49962592E+02</pdfrwt>
<pdfrwt beam="1">  1       -2 0.63086633E-04 0.49962592E+02</pdfrwt>
<totfact> 0.10920985E+06</totfact>
</mgrwt>
</event>
<event>
 4    1  0.2196664E-002  0.9411229E+02  0.7818608E-02  0.1293188E+00
          2   -1    0    0    0  501  0.00000000000E+00  0.00000000000E+00  0.38134380031E+03  0.38134380032E+03  0.25500000000E-02 0. -1.
         -2   -1    0    0  501    0 -0.00000000000E+00 -0.00000000000E+00 -0.58065211618E+01  0.58065217217E+01  0.25500000000E-02 0. -1.
          2    1    1    2    0  502  0.31860047461E+02 -0.44630452267E+00  0.45323929950E+02  0.55403253015E+02  0.25500000000E-02 0.  1.
         -2    1    1    2  502    0 -0.31860047461E+02  0.44630452267E+00  0.33021334920E+03  0.33174706903E+03  0.25500000000E-02 0.  1.
<mgrwt>
<rscale>  0 0.94112294E+02</rscale>
<asrwt>0</asrwt>
<pdfrwt beam="1">  1        2 0.58668292E-01 0.94112294E+02</pdfrwt>
<pdfrwt beam="2">  1       -2 0.89331076E-03 0.94112294E+02</pdfrwt>
<totfact> 0.18034662E+05</totfact>
</mgrwt>
</event>
<event>
 4    1  0.2196664E-002  0.5501647E+02  0.7818608E-02  0.1420021E+00
          2   -1    0    0    0  501  0.00000000000E+00  0.00000000000E+00  0.83713597541E+01  0.83713601425E+01  0.25500000000E-02 0.  1.
         -2   -1    0    0  501    0 -0.00000000000E+00 -0.00000000000E+00 -0.90391871760E+02  0.90391871796E+02  0.25500000000E-02 0.  1.
          2    1    1    2    0  502 -0.73936411678E+01 -0.22443405373E+02 -0.66291437786E+02  0.70377035350E+02  0.25500000000E-02 0. -1.
         -2    1    1    2  502    0  0.73936411678E+01  0.22443405373E+02 -0.15729074220E+02  0.28386196588E+02  0.25500000000E-02 0. -1.
<mgrwt>
<rscale>  0 0.55016467E+02</rscale>
<asrwt>0</asrwt>
<pdfrwt beam="1">  1        2 0.12879016E-02 0.55016467E+02</pdfrwt>
<pdfrwt beam="2">  1       -2 0.13906441E-01 0.55016467E+02</pdfrwt>
<totfact> 0.28642838E+05</totfact>
</mgrwt>
</event>
<event>
 4    1  0.2196664E-002  0.5030350E+02  0.7818608E-02  0.1443711E+00
          2   -1    0    0    0  501  0.00000000000E+00  0.00000000000E+00  0.32905042986E+00  0.32906031042E+00  0.25500000000E-02 0.  1.
         -2   -1    0    0  501    0 -0.00000000000E+00 -0.00000000000E+00 -0.19225047859E+04  0.19225047859E+04  0.25500000000E-02 0.  1.
          2    1    1    2    0  502  0.21346037648E+02  0.45999696208E+01 -0.48397210469E+03  0.48446445810E+03  0.25500000000E-02 0. -1.
         -2    1    1    2  502    0 -0.21346037648E+02 -0.45999696208E+01 -0.14382036307E+04  0.14383693881E+04  0.25500000000E-02 0. -1.
<mgrwt>
<rscale>  0 0.50303500E+02</rscale>
<asrwt>0</asrwt>
<pdfrwt beam="1">  1        2 0.50625442E-04 0.50303500E+02</pdfrwt>
<pdfrwt beam="2">  1       -2 0.29576098E+00 0.50303500E+02</pdfrwt>
<totfact> 0.29322323E+04</totfact>
</mgrwt>
</event>
<event>
 4    1  0.2196664E-002  0.6423440E+02  0.7818608E-02  0.1380875E+00
         -2   -1    0    0  501    0 -0.00000000000E+00  0.00000000000E+00  0.14084142872E+02  0.14084143102E+02  0.25500000000E-02 0. -1.
          2   -1    0    0    0  501  0.00000000000E+00 -0.00000000000E+00 -0.73239426336E+02  0.73239426380E+02  0.25500000000E-02 0. -1.
          2    1    1    2    0  502  0.10618268032E+02  0.30278891551E+02 -0.27676517427E+02  0.42373913118E+02  0.25500000000E-02 0. -1.
         -2    1    1    2  502    0 -0.10618268032E+02 -0.30278891551E+02 -0.31478766037E+02  0.44949656365E+02  0.25500000000E-02 0. -1.
<mgrwt>
<rscale>  0 0.64234401E+02</rscale>
<asrwt>0</asrwt>
<pdfrwt beam="2">  1        2 0.11267604E-01 0.64234401E+02</pdfrwt>
<pdfrwt beam="1">  1       -2 0.21667913E-02 0.64234401E+02</pdfrwt>
<totfact> 0.28980987E+05</totfact>
</mgrwt>
</event>
<event>
 4    1  0.2196664E-002  0.5123058E+02  0.7818608E-02  0.1438815E+00
          2   -1    0    0    0  501  0.00000000000E+00  0.00000000000E+00  0.32466712112E+00  0.32467713506E+00  0.25500000000E-02 0.  1.
         -2   -1    0    0  501    0 -0.00000000000E+00 -0.00000000000E+00 -0.20209406518E+04  0.20209406518E+04  0.25500000000E-02 0.  1.
          2    1    1    2    0  502  0.19194602044E+02  0.16439289146E+02 -0.11751689064E+04  0.11754406160E+04  0.25500000000E-02 0.  1.
         -2    1    1    2  502    0 -0.19194602044E+02 -0.16439289146E+02 -0.84544707829E+03  0.84582471303E+03  0.25500000000E-02 0.  1.
<mgrwt>
<rscale>  0 0.51230581E+02</rscale>
<asrwt>0</asrwt>
<pdfrwt beam="1">  1        2 0.49951176E-04 0.51230581E+02</pdfrwt>
<pdfrwt beam="2">  1       -2 0.31090388E+00 0.51230581E+02</pdfrwt>
<totfact> 0.24702280E+04</totfact>
</mgrwt>
</event>
<event>
 4    1  0.2196664E-002  0.6673937E+02  0.7818608E-02  0.1371546E+00
         -2   -1    0    0  501    0 -0.00000000000E+00  0.00000000000E+00  0.11054669978E+04  0.11054669978E+04  0.25500000000E-02 0. -1.
          2   -1    0    0    0  501  0.00000000000E+00 -0.00000000000E+00 -0.10072974214E+01  0.10073006491E+01  0.25500000000E-02 0. -1.
          2    1    1    2    0  502 -0.18608874375E+02 -0.18155890503E+02  0.89904853870E+03  0.89942437231E+03  0.25500000000E-02 0. -1.
         -2    1    1    2  502    0  0.18608874375E+02  0.18155890503E+02  0.20541116166E+03  0.20704992612E+03  0.25500000000E-02 0. -1.
<mgrwt>
<rscale>  0 0.66739369E+02</rscale>
<asrwt>0</asrwt>
<pdfrwt beam="2">  1        2 0.15496990E-03 0.66739369E+02</pdfrwt>
<pdfrwt beam="1">  1       -2 0.17007094E+00 0.66739369E+02</pdfrwt>
<totfact> 0.36845356E+04</totfact>
</mgrwt>
</event>
<event>
 4    1  0.2196664E-002  0.4297467E+02  0.7818608E-02  0.1487396E+00
          2   -1    0    0    0  501  0.00000000000E+00  0.00000000000E+00  0.11254074171E+04  0.11254074171E+04  0.25500000000E-02 0.  1.
         -2   -1    0    0  501    0 -0.00000000000E+00 -0.00000000000E+00 -0.41025244620E+00  0.41026037112E+00  0.25500000000E-02 0.  1.
          2    1    1    2    0  502 -0.20762914777E+02  0.53242599242E+01  0.60187494001E+03  0.60225649834E+03  0.25500000000E-02 0.  1.
         -2    1    1    2  502    0  0.20762914777E+02 -0.53242599242E+01  0.52312222463E+03  0.52356117912E+03  0.25500000000E-02 0.  1.
<mgrwt>
<rscale>  0 0.42974672E+02</rscale>
<asrwt>0</asrwt>
<pdfrwt beam="1">  1        2 0.17313638E+00 0.42974672E+02</pdfrwt>
<pdfrwt beam="2">  1       -2 0.63117544E-04 0.42974672E+02</pdfrwt>
<totfact> 0.16771119E+06</totfact>
</mgrwt>
</event>
<event>
 4    1  0.2196664E-002  0.5958895E+02  0.7818608E-02  0.1399565E+00
         -2   -1    0    0  501    0 -0.00000000000E+00  0.00000000000E+00  0.91469693907E+03  0.91469693908E+03  0.25500000000E-02 0.  1.
          2   -1    0    0    0  501  0.00000000000E+00 -0.00000000000E+00 -0.97049527839E+00  0.97049862848E+00  0.25500000000E-02 0.  1.
          2    1    1    2    0  502 -0.16486769805E+02  0.24633284086E+02  0.41051289310E+03  0.41158164156E+03  0.25500000000E-02 0. -1.
         -2    1    1    2  502    0  0.16486769805E+02 -0.24633284086E+02  0.50321355070E+03  0.50408579614E+03  0.25500000000E-02 0. -1.
<mgrwt>
<rscale>  0 0.59588945E+02</rscale>
<asrwt>0</asrwt>
<pdfrwt beam="2">  1        2 0.14930651E-03 0.59588945E+02</pdfrwt>
<pdfrwt beam="1">  1       -2 0.14072328E+00 0.59588945E+02</pdfrwt>
<totfact> 0.61200307E+04</totfact>
</mgrwt>
</event>
<event>
 4    1  0.2196664E-002  0.4432894E+02  0.7818608E-02  0.1478575E+00
         -2   -1    0    0  501    0 -0.00000000000E+00  0.00000000000E+00  0.15075002742E+02  0.15075002957E+02  0.25500000000E-02 0. -1.
          2   -1    0    0    0  501  0.00000000000E+00 -0.00000000000E+00 -0.32587974244E+02  0.32587974344E+02  0.25500000000E-02 0. -1.
          2    1    1    2    0  502  0.17496569721E+02  0.13604526160E+02 -0.85143410394E+01  0.23742516587E+02  0.25500000000E-02 0. -1.
         -2    1    1    2  502    0 -0.17496569721E+02 -0.13604526160E+02 -0.89986304630E+01  0.23920460714E+02  0.25500000000E-02 0. -1.
<mgrwt>
<rscale>  0 0.44328944E+02</rscale>
<asrwt>0</asrwt>
<pdfrwt beam="2">  1        2 0.50135345E-02 0.44328944E+02</pdfrwt>
<pdfrwt beam="1">  1       -2 0.23192312E-02 0.44328944E+02</pdfrwt>
<totfact> 0.64935746E+05</totfact>
</mgrwt>
</event>
<event>
 4    1  0.2196664E-002  0.4791063E+02  0.7818608E-02  0.1456948E+00
          2   -1    0    0    0  501  0.00000000000E+00  0.00000000000E+00  0.20793710221E+02  0.20793710378E+02  0.25500000000E-02 0.  1.
         -2   -1    0    0  501    0 -0.00000000000E+00 -0.00000000000E+00 -0.27597629824E+02  0.27597629942E+02  0.25500000000E-02 0.  1.
          2    1    1    2    0  502 -0.95300959059E+01 -0.21466984485E+02 -0.81612399517E+01  0.24864834504E+02  0.25500000000E-02 0.  1.
         -2    1    1    2  502    0  0.95300959059E+01  0.21466984485E+02  0.13573203487E+01  0.23526505816E+02  0.25500000000E-02 0.  1.
<mgrwt>
<rscale>  0 0.47910630E+02</rscale>
<asrwt>0</asrwt>
<pdfrwt beam="1">  1        2 0.31990324E-02 0.47910630E+02</pdfrwt>
<pdfrwt beam="2">  1       -2 0.42457892E-02 0.47910630E+02</pdfrwt>
<totfact> 0.49608740E+05</totfact>
</mgrwt>
</event>
<event>
 4    1  0.2196664E-002  0.7539045E+02  0.7818608E-02  0.1342666E+00
          2   -1    0    0    0  501  0.00000000000E+00  0.00000000000E+00  0.12254231301E+02  0.12254231566E+02  0.25500000000E-02 0.  1.
         -2   -1    0    0  501    0 -0.00000000000E+00 -0.00000000000E+00 -0.11595423402E+03  0.11595423404E+03  0.25500000000E-02 0.  1.
          2    1    1    2    0  502  0.45610682592E+01  0.35601850746E+02 -0.32264744916E+02  0.48262914243E+02  0.25500000000E-02 0.  1.
         -2    1    1    2  502    0 -0.45610682592E+01 -0.35601850746E+02 -0.71435257798E+02  0.79945551367E+02  0.25500000000E-02 0.  1.
<mgrwt>
<rscale>  0 0.75390451E+02</rscale>
<asrwt>0</asrwt>
<pdfrwt beam="1">  1        2 0.18852665E-02 0.75390451E+02</pdfrwt>
<pdfrwt beam="2">  1       -2 0.17839112E-01 0.75390451E+02</pdfrwt>
<totfact> 0.12274998E+05</totfact>
</mgrwt>
</event>
<event>
 4    1  0.2196664E-002  0.4793838E+02  0.7818608E-02  0.1456789E+00
         -2   -1    0    0  501    0 -0.00000000000E+00  0.00000000000E+00  0.41070670024E+00  0.41071461639E+00  0.25500000000E-02 0.  1.
          2   -1    0    0    0  501  0.00000000000E+00 -0.00000000000E+00 -0.13988486788E+04  0.13988486788E+04  0.25500000000E-02 0.  1.
          2    1    1    2    0  502 -0.20816324720E+01  0.22828817293E+02 -0.49482722355E+03  0.49535792036E+03  0.25500000000E-02 0.  1.
         -2    1    1    2  502    0  0.20816324720E+01 -0.22828817293E+02 -0.90361074853E+03  0.90390147303E+03  0.25500000000E-02 0.  1.
<mgrwt>
<rscale>  0 0.47938380E+02</rscale>
<asrwt>0</asrwt>
<pdfrwt beam="2">  1        2 0.21520368E+00 0.47938380E+02</pdfrwt>
<pdfrwt beam="1">  1       -2 0.63187375E-04 0.47938380E+02</pdfrwt>
<totfact> 0.12431348E+06</totfact>
</mgrwt>
</event>
<event>
 4    1  0.2196664E-002  0.1212595E+03  0.7818608E-02  0.1241034E+00
         -2   -1    0    0  501    0 -0.00000000000E+00  0.00000000000E+00  0.42236654672E+01  0.42236662369E+01  0.25500000000E-02 0.  1.
          2   -1    0    0    0  501  0.00000000000E+00 -0.00000000000E+00 -0.87032616620E+03  0.87032616620E+03  0.25500000000E-02 0.  1.
          2    1    1    2    0  502  0.39706294562E+02  0.58907341887E+00 -0.76348020662E+03  0.76451223846E+03  0.25500000000E-02 0. -1.
         -2    1    1    2  502    0 -0.39706294562E+02 -0.58907341887E+00 -0.10262229411E+03  0.11003759398E+03  0.25500000000E-02 0. -1.
<mgrwt>
<rscale>  0 0.12125951E+03</rscale>
<asrwt>0</asrwt>
<pdfrwt beam="2">  1        2 0.13389619E+00 0.12125951E+03</pdfrwt>
<pdfrwt beam="1">  1       -2 0.64979544E-03 0.12125951E+03</pdfrwt>
<totfact> 0.11527677E+05</totfact>
</mgrwt>
</event>
<event>
 4    1  0.2196664E-002  0.6268080E+02  0.7818608E-02  0.1386914E+00
         -2   -1    0    0  501    0 -0.00000000000E+00  0.00000000000E+00  0.88793552690E+00  0.88793918848E+00  0.25500000000E-02 0.  1.
          2   -1    0    0    0  501  0.00000000000E+00 -0.00000000000E+00 -0.11061825537E+04  0.11061825537E+04  0.25500000000E-02 0.  1.
          2    1    1    2    0  502 -0.38434259007E+01  0.29529849904E+02 -0.72519087410E+03  0.72580203075E+03  0.25500000000E-02 0.  1.
         -2    1    1    2  502    0  0.38434259007E+01 -0.29529849904E+02 -0.38010374410E+03  0.38126846217E+03  0.25500000000E-02 0.  1.
<mgrwt>
<rscale>  0 0.62680805E+02</rscale>
<asrwt>0</asrwt>
<pdfrwt beam="2">  1        2 0.17018083E+00 0.62680805E+02</pdfrwt>
<pdfrwt beam="1">  1       -2 0.13660663E-03 0.62680805E+02</pdfrwt>
<totfact> 0.65840221E+05</totfact>
</mgrwt>
</event>
<event>
 4    1  0.2196664E-002  0.4736729E+02  0.7818608E-02  0.1460082E+00
          2   -1    0    0    0  501  0.00000000000E+00  0.00000000000E+00  0.28716332047E+03  0.28716332048E+03  0.25500000000E-02 0.  1.
         -2   -1    0    0  501    0 -0.00000000000E+00 -0.00000000000E+00 -0.19532955113E+01  0.19532971757E+01  0.25500000000E-02 0.  1.
          2    1    1    2    0  502 -0.16776632574E+02 -0.14717281496E+02  0.19099841237E+03  0.19229780890E+03  0.25500000000E-02 0.  1.
         -2    1    1    2  502    0  0.16776632574E+02  0.14717281496E+02  0.94211612591E+02  0.96818808755E+02  0.25500000000E-02 0.  1.
<mgrwt>
<rscale>  0 0.47367291E+02</rscale>
<asrwt>0</asrwt>
<pdfrwt beam="1">  1        2 0.44178927E-01 0.47367291E+02</pdfrwt>
<pdfrwt beam="2">  1       -2 0.30050744E-03 0.47367291E+02</pdfrwt>
<totfact> 0.95285793E+05</totfact>
</mgrwt>
</event>
<event>
 4    1  0.2196664E-002  0.4139422E+02  0.7818608E-02  0.1498195E+00
          2   -1    0    0    0  501  0.00000000000E+00  0.00000000000E+00  0.13568750917E+01  0.13568774878E+01  0.25500000000E-02 0.  1.
         -2   -1    0    0  501    0 -0.00000000000E+00 -0.00000000000E+00 -0.31570329055E+03  0.31570329056E+03  0.25500000000E-02 0.  1.
          2    1    1    2    0  502  0.19914170811E+02 -0.46519794212E+01 -0.13276442432E+03  0.13433021806E+03  0.25500000000E-02 0. -1.
         -2    1    1    2  502    0 -0.19914170811E+02  0.46519794212E+01 -0.18158199113E+03  0.18272994998E+03  0.25500000000E-02 0. -1.
<mgrwt>
<rscale>  0 0.41394218E+02</rscale>
<asrwt>0</asrwt>
<pdfrwt beam="1">  1        2 0.20875045E-03 0.41394218E+02</pdfrwt>
<pdfrwt beam="2">  1       -2 0.48569679E-01 0.41394218E+02</pdfrwt>
<totfact> 0.35738053E+05</totfact>
</mgrwt>
</event>
<event>
 4    1  0.2196664E-002  0.4901446E+02  0.7818608E-02  0.1450731E+00
          2   -1    0    0    0  501  0.00000000000E+00  0.00000000000E+00  0.24646470941E+02  0.24646471073E+02  0.25500000000E-02 0.  1.
         -2   -1    0    0  501    0 -0.00000000000E+00 -0.00000000000E+00 -0.24368773985E+02  0.24368774119E+02  0.25500000000E-02 0.  1.
          2    1    1    2    0  502  0.12125747236E+02  0.20437281378E+02 -0.58519123858E+01  0.24473681808E+02  0.25500000000E-02 0.  1.
         -2    1    1    2  502    0 -0.12125747236E+02 -0.20437281378E+02  0.61296093419E+01  0.24541563384E+02  0.25500000000E-02 0.  1.
<mgrwt>
<rscale>  0 0.49014459E+02</rscale>
<asrwt>0</asrwt>
<pdfrwt beam="1">  1        2 0.37917648E-02 0.49014459E+02</pdfrwt>
<pdfrwt beam="2">  1       -2 0.37490422E-02 0.49014459E+02</pdfrwt>
<totfact> 0.47948781E+05</totfact>
</mgrwt>
</event>
<event>
 4    1  0.2196664E-002  0.7293758E+02  0.7818608E-02  0.1350379E+00
         -2   -1    0    0  501    0 -0.00000000000E+00  0.00000000000E+00  0.47051609853E+02  0.47051609923E+02  0.25500000000E-02 0. -1.
          2   -1    0    0    0  501  0.00000000000E+00 -0.00000000000E+00 -0.28266251555E+02  0.28266251670E+02  0.25500000000E-02 0. -1.
          2    1    1    2    0  502 -0.19535067159E+02  0.29195090995E+02 -0.72505522136E+00  0.35135422278E+02  0.25500000000E-02 0. -1.
         -2    1    1    2  502    0  0.19535067159E+02 -0.29195090995E+02  0.19510413519E+02  0.40182439315E+02  0.25500000000E-02 0. -1.
<mgrwt>
<rscale>  0 0.72937580E+02</rscale>
<asrwt>0</asrwt>
<pdfrwt beam="2">  1        2 0.43486541E-02 0.72937580E+02</pdfrwt>
<pdfrwt beam="1">  1       -2 0.72387092E-02 0.72937580E+02</pdfrwt>
<totfact> 0.16642265E+05</totfact>
</mgrwt>
</event>
<event>
 4    1  0.2196664E-002  0.1710006E+03  0.7818608E-02  0.1176808E+00
          2   -1    0    0    0  501  0.00000000000E+00  0.00000000000E+00  0.11860777076E+04  0.11860777076E+04  0.25500000000E-02 0. -1.
         -2   -1    0    0  501    0 -0.00000000000E+00 -0.00000000000E+00 -0.61634225161E+01  0.61634230436E+01  0.25500000000E-02 0. -1.
          2    1    1    2    0  502 -0.40285611417E+02 -0.23092260741E+02  0.10905027112E+04  0.10914908823E+04  0.25500000000E-02 0. -1.
         -2    1    1    2  502    0  0.40285611417E+02  0.23092260741E+02  0.89411573950E+02  0.10075024842E+03  0.25500000000E-02 0. -1.
<mgrwt>
<rscale>  0 0.17100057E+03</rscale>
<asrwt>0</asrwt>
<pdfrwt beam="1">  1        2 0.18247350E+00 0.17100057E+03</pdfrwt>
<pdfrwt beam="2">  1       -2 0.94821887E-03 0.17100057E+03</pdfrwt>
<totfact> 0.45212368E+04</totfact>
</mgrwt>
</event>
<event>
 4    1  0.2196664E-002  0.7260808E+02  0.7818608E-02  0.1351442E+00
          2   -1    0    0    0  501  0.00000000000E+00  0.00000000000E+00  0.70934725180E+02  0.70934725226E+02  0.25500000000E-02 0. -1.
         -2   -1    0    0  501    0 -0.00000000000E+00 -0.00000000000E+00 -0.18580226936E+02  0.18580227111E+02  0.25500000000E-02 0. -1.
          2    1    1    2    0  502 -0.56980087205E+01 -0.30264190017E+02  0.49878625003E+02  0.58619670244E+02  0.25500000000E-02 0. -1.
         -2    1    1    2  502    0  0.56980087205E+01  0.30264190017E+02  0.24758732409E+01  0.30895282093E+02  0.25500000000E-02 0. -1.
<mgrwt>
<rscale>  0 0.72608079E+02</rscale>
<asrwt>0</asrwt>
<pdfrwt beam="1">  1        2 0.10913034E-01 0.72608079E+02</pdfrwt>
<pdfrwt beam="2">  1       -2 0.28584965E-02 0.72608079E+02</pdfrwt>
<totfact> 0.20735900E+05</totfact>
</mgrwt>
</event>
<event>
 4    1  0.2196664E-002  0.4101432E+02  0.7818608E-02  0.1500877E+00
          2   -1    0    0    0  501  0.00000000000E+00  0.00000000000E+00  0.15547487309E+02  0.15547487518E+02  0.25500000000E-02 0.  1.
         -2   -1    0    0  501    0 -0.00000000000E+00 -0.00000000000E+00 -0.27048979093E+02  0.27048979213E+02  0.25500000000E-02 0.  1.
          2    1    1    2    0  502  0.15145969179E+02  0.13824846944E+02 -0.58856978962E+01  0.21334671819E+02  0.25500000000E-02 0.  1.
         -2    1    1    2  502    0 -0.15145969179E+02 -0.13824846944E+02 -0.56157938879E+01  0.21261794913E+02  0.25500000000E-02 0.  1.
<mgrwt>
<rscale>  0 0.41014323E+02</rscale>
<asrwt>0</asrwt>
<pdfrwt beam="1">  1        2 0.23919212E-02 0.41014323E+02</pdfrwt>
<pdfrwt beam="2">  1       -2 0.41613814E-02 0.41014323E+02</pdfrwt>
<totfact> 0.71502427E+05</totfact>
</mgrwt>
</event>
<event>
 4    1  0.2196664E-002  0.6565110E+02  0.7818608E-02  0.1375539E+00
          2   -1    0    0    0  501  0.00000000000E+00  0.00000000000E+00  0.70996068801E+03  0.70996068801E+03  0.25500000000E-02 0. -1.
         -2   -1    0    0  501    0 -0.00000000000E+00 -0.00000000000E+00 -0.15177121470E+01  0.15177142892E+01  0.25500000000E-02 0. -1.
          2    1    1    2    0  502  0.15447768881E+02 -0.17521177191E+02  0.10428409105E+03  0.10686812839E+03  0.25500000000E-02 0. -1.
         -2    1    1    2  502    0 -0.15447768881E+02  0.17521177191E+02  0.60415888481E+03  0.60461027391E+03  0.25500000000E-02 0. -1.
<mgrwt>
<rscale>  0 0.65651100E+02</rscale>
<asrwt>0</asrwt>
<pdfrwt beam="1">  1        2 0.10922456E+00 0.65651100E+02</pdfrwt>
<pdfrwt beam="2">  1       -2 0.23349468E-03 0.65651100E+02</pdfrwt>
<totfact> 0.55751986E+05</totfact>
</mgrwt>
</event>
<event>
 4    1  0.2196664E-002  0.4844688E+02  0.7818608E-02  0.1453903E+00
         -2   -1    0    0  501    0 -0.00000000000E+00  0.00000000000E+00  0.91840247039E+03  0.91840247040E+03  0.25500000000E-02 0.  1.
          2   -1    0    0    0  501  0.00000000000E+00 -0.00000000000E+00 -0.63890579781E+00  0.63891088657E+00  0.25500000000E-02 0.  1.
          2    1    1    2    0  502  0.21193019659E+02  0.28408956999E+01  0.67480787055E+03  0.67514655960E+03  0.25500000000E-02 0.  1.
         -2    1    1    2  502    0 -0.21193019659E+02 -0.28408956999E+01  0.24295569404E+03  0.24389482169E+03  0.25500000000E-02 0.  1.
<mgrwt>
<rscale>  0 0.48446878E+02</rscale>
<asrwt>0</asrwt>
<pdfrwt beam="2">  1        2 0.98294445E-04 0.48446878E+02</pdfrwt>
<pdfrwt beam="1">  1       -2 0.14129146E+00 0.48446878E+02</pdfrwt>
<totfact> 0.10159438E+05</totfact>
</mgrwt>
</event>
<event>
 4    1  0.2196664E-002  0.4296993E+02  0.7818608E-02  0.1487428E+00
         -2   -1    0    0  501    0 -0.00000000000E+00  0.00000000000E+00  0.34854284170E+01  0.34854293498E+01  0.25500000000E-02 0.  1.
          2   -1    0    0    0  501  0.00000000000E+00 -0.00000000000E+00 -0.13243811314E+03  0.13243811316E+03  0.25500000000E-02 0.  1.
          2    1    1    2    0  502  0.21326855988E+02 -0.24293699709E+01 -0.67421705373E+02  0.70756080916E+02  0.25500000000E-02 0. -1.
         -2    1    1    2  502    0 -0.21326855988E+02  0.24293699709E+01 -0.61530979346E+02  0.65167461594E+02  0.25500000000E-02 0. -1.
<mgrwt>
<rscale>  0 0.42969926E+02</rscale>
<asrwt>0</asrwt>
<pdfrwt beam="2">  1        2 0.20375091E-01 0.42969926E+02</pdfrwt>
<pdfrwt beam="1">  1       -2 0.53621993E-03 0.42969926E+02</pdfrwt>
<totfact> 0.94443946E+05</totfact>
</mgrwt>
</event>
<event>
 4    1  0.2196664E-002  0.1222433E+03  0.7818608E-02  0.1239442E+00
          2   -1    0    0    0  501  0.00000000000E+00  0.00000000000E+00  0.28555986689E+03  0.28555986690E+03  0.25500000000E-02 0. -1.
         -2   -1    0    0  501    0 -0.00000000000E+00 -0.00000000000E+00 -0.13082565290E+02  0.13082565539E+02  0.25500000000E-02 0. -1.
          2    1    1    2    0  502  0.59713751462E+02 -0.58027108486E+01  0.10770111055E+03  0.12328395187E+03  0.25500000000E-02 0. -1.
         -2    1    1    2  502    0 -0.59713751462E+02  0.58027108486E+01  0.16477619105E+03  0.17535848058E+03  0.25500000000E-02 0. -1.
<mgrwt>
<rscale>  0 0.12224329E+03</rscale>
<asrwt>0</asrwt>
<pdfrwt beam="1">  1        2 0.43932287E-01 0.12224329E+03</pdfrwt>
<pdfrwt beam="2">  1       -2 0.20127024E-02 0.12224329E+03</pdfrwt>
<totfact> 0.79518582E+04</totfact>
</mgrwt>
</event>
<event>
 4    1  0.2196664E-002  0.4288860E+02  0.7818608E-02  0.1487970E+00
         -2   -1    0    0  501    0 -0.00000000000E+00  0.00000000000E+00  0.27888585090E+02  0.27888585206E+02  0.25500000000E-02 0.  1.
          2   -1    0    0    0  501  0.00000000000E+00 -0.00000000000E+00 -0.16489114356E+02  0.16489114553E+02  0.25500000000E-02 0.  1.
          2    1    1    2    0  502 -0.18862479105E+02 -0.99700470006E+01  0.34653354791E+01  0.21614890971E+02  0.25500000000E-02 0. -1.
         -2    1    1    2  502    0  0.18862479105E+02  0.99700470006E+01  0.79341352549E+01  0.22762808788E+02  0.25500000000E-02 0. -1.
<mgrwt>
<rscale>  0 0.42888603E+02</rscale>
<asrwt>0</asrwt>
<pdfrwt beam="2">  1        2 0.25367869E-02 0.42888603E+02</pdfrwt>
<pdfrwt beam="1">  1       -2 0.42905516E-02 0.42888603E+02</pdfrwt>
<totfact> 0.64168859E+05</totfact>
</mgrwt>
</event>
<event>
 4    1  0.2196664E-002  0.2368543E+03  0.7818608E-02  0.1121906E+00
          2   -1    0    0    0  501  0.00000000000E+00  0.00000000000E+00  0.28439020902E+03  0.28439020903E+03  0.25500000000E-02 0.  1.
         -2   -1    0    0  501    0 -0.00000000000E+00 -0.00000000000E+00 -0.49316005381E+02  0.49316005447E+02  0.25500000000E-02 0.  1.
          2    1    1    2    0  502 -0.85280558634E+02  0.70023203142E+02  0.56954552402E+02  0.12417666329E+03  0.25500000000E-02 0.  1.
         -2    1    1    2  502    0  0.85280558634E+02 -0.70023203142E+02  0.17811965124E+03  0.20952955119E+03  0.25500000000E-02 0.  1.
<mgrwt>
<rscale>  0 0.23685429E+03</rscale>
<asrwt>0</asrwt>
<pdfrwt beam="1">  1        2 0.43752339E-01 0.23685429E+03</pdfrwt>
<pdfrwt beam="2">  1       -2 0.75870780E-02 0.23685429E+03</pdfrwt>
<totfact> 0.11693067E+04</totfact>
</mgrwt>
</event>
<event>
 4    1  0.2196664E-002  0.4686458E+02  0.7818608E-02  0.1463026E+00
          2   -1    0    0    0  501  0.00000000000E+00  0.00000000000E+00  0.18542114914E+04  0.18542114914E+04  0.25500000000E-02 0.  1.
         -2   -1    0    0  501    0 -0.00000000000E+00 -0.00000000000E+00 -0.29611619663E+00  0.29612717607E+00  0.25500000000E-02 0.  1.
          2    1    1    2    0  502  0.20912175653E+02  0.90476917520E+01  0.71060396254E+03  0.71096917754E+03  0.25500000000E-02 0. -1.
         -2    1    1    2  502    0 -0.20912175653E+02 -0.90476917520E+01  0.11433114126E+04  0.11435384410E+04  0.25500000000E-02 0. -1.
<mgrwt>
<rscale>  0 0.46864581E+02</rscale>
<asrwt>0</asrwt>
<pdfrwt beam="1">  1        2 0.28526346E+00 0.46864581E+02</pdfrwt>
<pdfrwt beam="2">  1       -2 0.45557158E-04 0.46864581E+02</pdfrwt>
<totfact> 0.11495856E+06</totfact>
</mgrwt>
</event>
<event>
 4    1  0.2196664E-002  0.7221168E+02  0.7818608E-02  0.1352730E+00
          2   -1    0    0    0  501  0.00000000000E+00  0.00000000000E+00  0.48684559737E+02  0.48684559804E+02  0.25500000000E-02 0. -1.
         -2   -1    0    0  501    0 -0.00000000000E+00 -0.00000000000E+00 -0.26777106863E+02  0.26777106984E+02  0.25500000000E-02 0. -1.
          2    1    1    2    0  502 -0.40937187390E+01  0.26030370298E+02 -0.14841065150E+02  0.30242287154E+02  0.25500000000E-02 0. -1.
         -2    1    1    2  502    0  0.40937187390E+01 -0.26030370298E+02  0.36748518025E+02  0.45219379634E+02  0.25500000000E-02 0. -1.
<mgrwt>
<rscale>  0 0.72211680E+02</rscale>
<asrwt>0</asrwt>
<pdfrwt beam="1">  1        2 0.74899322E-02 0.72211680E+02</pdfrwt>
<pdfrwt beam="2">  1       -2 0.41195550E-02 0.72211680E+02</pdfrwt>
<totfact> 0.19253792E+05</totfact>
</mgrwt>
</event>
<event>
 4    1  0.2196664E-002  0.9568509E+02  0.7818608E-02  0.1289641E+00
         -2   -1    0    0  501    0 -0.00000000000E+00  0.00000000000E+00  0.18923815613E+01  0.18923832794E+01  0.25500000000E-02 0. -1.
          2   -1    0    0    0  501  0.00000000000E+00 -0.00000000000E+00 -0.12095384091E+04  0.12095384091E+04  0.25500000000E-02 0. -1.
          2    1    1    2    0  502 -0.28564929897E+02 -0.38312262084E+02 -0.63248347436E+03  0.63428631547E+03  0.25500000000E-02 0. -1.
         -2    1    1    2  502    0  0.28564929897E+02  0.38312262084E+02 -0.57516255322E+03  0.57714447696E+03  0.25500000000E-02 0. -1.
<mgrwt>
<rscale>  0 0.95685092E+02</rscale>
<asrwt>0</asrwt>
<pdfrwt beam="2">  1        2 0.18608221E+00 0.95685092E+02</pdfrwt>
<pdfrwt beam="1">  1       -2 0.29113672E-03 0.95685092E+02</pdfrwt>
<totfact> 0.21875041E+05</totfact>
</mgrwt>
</event>
<event>
 4    1  0.2196664E-002  0.7146486E+02  0.7818608E-02  0.1355181E+00
         -2   -1    0    0  501    0 -0.00000000000E+00  0.00000000000E+00  0.29215047287E+02  0.29215047398E+02  0.25500000000E-02 0. -1.
          2   -1    0    0    0  501  0.00000000000E+00 -0.00000000000E+00 -0.43703728712E+02  0.43703728786E+02  0.25500000000E-02 0. -1.
          2    1    1    2    0  502 -0.28566839766E+02 -0.15724420255E+02 -0.22152714925E+02  0.39421624924E+02  0.25500000000E-02 0. -1.
         -2    1    1    2  502    0  0.28566839766E+02  0.15724420255E+02  0.76640334997E+01  0.33497151261E+02  0.25500000000E-02 0. -1.
<mgrwt>
<rscale>  0 0.71464859E+02</rscale>
<asrwt>0</asrwt>
<pdfrwt beam="2">  1        2 0.67236506E-02 0.71464859E+02</pdfrwt>
<pdfrwt beam="1">  1       -2 0.44946227E-02 0.71464859E+02</pdfrwt>
<totfact> 0.19342694E+05</totfact>
</mgrwt>
</event>
<event>
 4    1  0.2196664E-002  0.5845248E+02  0.7818608E-02  0.1404443E+00
         -2   -1    0    0  501    0 -0.00000000000E+00  0.00000000000E+00  0.68485393935E+00  0.68485868670E+00  0.25500000000E-02 0. -1.
          2   -1    0    0    0  501  0.00000000000E+00 -0.00000000000E+00 -0.12472296518E+04  0.12472296518E+04  0.25500000000E-02 0. -1.
          2    1    1    2    0  502 -0.21614291910E+02 -0.16642006649E+02 -0.39932016306E+03  0.40025082964E+03  0.25500000000E-02 0.  1.
         -2    1    1    2  502    0  0.21614291910E+02  0.16642006649E+02 -0.84722463480E+03  0.84766368084E+03  0.25500000000E-02 0.  1.
<mgrwt>
<rscale>  0 0.58452480E+02</rscale>
<asrwt>0</asrwt>
<pdfrwt beam="2">  1        2 0.19187967E+00 0.58452480E+02</pdfrwt>
<pdfrwt beam="1">  1       -2 0.10536351E-03 0.58452480E+02</pdfrwt>
<totfact> 0.77702953E+05</totfact>
</mgrwt>
</event>
<event>
 4    1  0.2196664E-002  0.6464578E+02  0.7818608E-02  0.1379309E+00
         -2   -1    0    0  501    0 -0.00000000000E+00  0.00000000000E+00  0.17481415998E+02  0.17481416184E+02  0.25500000000E-02 0. -1.
          2   -1    0    0    0  501  0.00000000000E+00 -0.00000000000E+00 -0.59764561191E+02  0.59764561245E+02  0.25500000000E-02 0. -1.
          2    1    1    2    0  502 -0.29585228332E+02 -0.53610446431E+00 -0.55987185263E+01  0.30115092547E+02  0.25500000000E-02 0.  1.
         -2    1    1    2  502    0  0.29585228332E+02  0.53610446431E+00 -0.36684426667E+02  0.47130884883E+02  0.25500000000E-02 0.  1.
<mgrwt>
<rscale>  0 0.64645778E+02</rscale>
<asrwt>0</asrwt>
<pdfrwt beam="2">  1        2 0.91945478E-02 0.64645778E+02</pdfrwt>
<pdfrwt beam="1">  1       -2 0.26894487E-02 0.64645778E+02</pdfrwt>
<totfact> 0.27171094E+05</totfact>
</mgrwt>
</event>
<event>
 4    1  0.2196664E-002  0.6280586E+02  0.7818608E-02  0.1386420E+00
          2   -1    0    0    0  501  0.00000000000E+00  0.00000000000E+00  0.53520072425E+03  0.53520072425E+03  0.25500000000E-02 0.  1.
         -2   -1    0    0  501    0 -0.00000000000E+00 -0.00000000000E+00 -0.18425676849E+01  0.18425694494E+01  0.25500000000E-02 0.  1.
          2    1    1    2    0  502 -0.28346523255E+01  0.31183733315E+02  0.24629368891E+03  0.24827613997E+03  0.25500000000E-02 0.  1.
         -2    1    1    2  502    0  0.28346523255E+01 -0.31183733315E+02  0.28706446766E+03  0.28876715373E+03  0.25500000000E-02 0.  1.
<mgrwt>
<rscale>  0 0.62805861E+02</rscale>
<asrwt>0</asrwt>
<pdfrwt beam="1">  1        2 0.82338575E-01 0.62805861E+02</pdfrwt>
<pdfrwt beam="2">  1       -2 0.28347208E-03 0.62805861E+02</pdfrwt>
<totfact> 0.57886430E+05</totfact>
</mgrwt>
</event>
<event>
 4    1  0.2196664E-002  0.4715115E+02  0.7818608E-02  0.1461343E+00
         -2   -1    0    0  501    0 -0.00000000000E+00  0.00000000000E+00  0.50494159054E+00  0.50494802937E+00  0.25500000000E-02 0.  1.
          2   -1    0    0    0  501  0.00000000000E+00 -0.00000000000E+00 -0.11007294767E+04  0.11007294768E+04  0.25500000000E-02 0.  1.
          2    1    1    2    0  502  0.15984178770E+02 -0.14062145524E+02 -0.31357633527E+03  0.31429819592E+03  0.25500000000E-02 0. -1.
         -2    1    1    2  502    0 -0.15984178770E+02  0.14062145524E+02 -0.78664819988E+03  0.78693622886E+03  0.25500000000E-02 0. -1.
<mgrwt>
<rscale>  0 0.47151146E+02</rscale>
<asrwt>0</asrwt>
<pdfrwt beam="2">  1        2 0.16934108E+00 0.47151146E+02</pdfrwt>
<pdfrwt beam="1">  1       -2 0.77684698E-04 0.47151146E+02</pdfrwt>
<totfact> 0.13386809E+06</totfact>
</mgrwt>
</event>
<event>
 4    1  0.2196664E-002  0.6914716E+02  0.7818608E-02  0.1363017E+00
          2   -1    0    0    0  501  0.00000000000E+00  0.00000000000E+00  0.22754267513E+04  0.22754267513E+04  0.25500000000E-02 0. -1.
         -2   -1    0    0  501    0 -0.00000000000E+00 -0.00000000000E+00 -0.52531927278E+00  0.52532546184E+00  0.25500000000E-02 0. -1.
          2    1    1    2    0  502 -0.18475319186E+02 -0.21298035680E+02  0.17960628272E+04  0.17962841153E+04  0.25500000000E-02 0. -1.
         -2    1    1    2  502    0  0.18475319186E+02  0.21298035680E+02  0.47883860478E+03  0.47966796138E+03  0.25500000000E-02 0. -1.
<mgrwt>
<rscale>  0 0.69147164E+02</rscale>
<asrwt>0</asrwt>
<pdfrwt beam="1">  1        2 0.35006480E+00 0.69147164E+02</pdfrwt>
<pdfrwt beam="2">  1       -2 0.80819023E-04 0.69147164E+02</pdfrwt>
<totfact> 0.35158511E+05</totfact>
</mgrwt>
</event>
<event>
 4    1  0.2196664E-002  0.5034461E+02  0.7818608E-02  0.1443492E+00
          2   -1    0    0    0  501  0.00000000000E+00  0.00000000000E+00  0.57464872411E+03  0.57464872411E+03  0.25500000000E-02 0. -1.
         -2   -1    0    0  501    0 -0.00000000000E+00 -0.00000000000E+00 -0.11026632962E+01  0.11026662448E+01  0.25500000000E-02 0. -1.
          2    1    1    2    0  502 -0.14130224702E+02 -0.18218136845E+02  0.40231899468E+03  0.40297907792E+03  0.25500000000E-02 0. -1.
         -2    1    1    2  502    0  0.14130224702E+02  0.18218136845E+02  0.17122706613E+03  0.17277231243E+03  0.25500000000E-02 0. -1.
<mgrwt>
<rscale>  0 0.50344609E+02</rscale>
<asrwt>0</asrwt>
<pdfrwt beam="1">  1        2 0.88407566E-01 0.50344609E+02</pdfrwt>
<pdfrwt beam="2">  1       -2 0.16964060E-03 0.50344609E+02</pdfrwt>
<totfact> 0.10289747E+06</totfact>
</mgrwt>
</event>
<event>
 4    1  0.2196664E-002  0.9484781E+02  0.7818608E-02  0.1291519E+00
         -2   -1    0    0  501    0 -0.00000000000E+00  0.00000000000E+00  0.21241528053E+01  0.21241543359E+01  0.25500000000E-02 0. -1.
          2   -1    0    0    0  501  0.00000000000E+00 -0.00000000000E+00 -0.10587873135E+04  0.10587873135E+04  0.25500000000E-02 0. -1.
          2    1    1    2    0  502  0.16144802967E+02 -0.42380188950E+02 -0.37322430207E+03  0.37596956625E+03  0.25500000000E-02 0.  1.
         -2    1    1    2  502    0 -0.16144802967E+02  0.42380188950E+02 -0.68343885866E+03  0.68494190164E+03  0.25500000000E-02 0.  1.
<mgrwt>
<rscale>  0 0.94847812E+02</rscale>
<asrwt>0</asrwt>
<pdfrwt beam="2">  1        2 0.16288993E+00 0.94847812E+02</pdfrwt>
<pdfrwt beam="1">  1       -2 0.32679370E-03 0.94847812E+02</pdfrwt>
<totfact> 0.22557874E+05</totfact>
</mgrwt>
</event>
<event>
 4    1  0.2196664E-002  0.9381566E+02  0.7818608E-02  0.1293866E+00
         -2   -1    0    0  501    0 -0.00000000000E+00  0.00000000000E+00  0.91696348993E+00  0.91696703559E+00  0.25500000000E-02 0.  1.
          2   -1    0    0    0  501  0.00000000000E+00 -0.00000000000E+00 -0.23995943845E+04  0.23995943845E+04  0.25500000000E-02 0.  1.
          2    1    1    2    0  502  0.28678637285E+02  0.36551480452E+02 -0.10337699111E+04  0.10348133668E+04  0.25500000000E-02 0. -1.
         -2    1    1    2  502    0 -0.28678637285E+02 -0.36551480452E+02 -0.13649075099E+04  0.13656979847E+04  0.25500000000E-02 0. -1.
<mgrwt>
<rscale>  0 0.93815664E+02</rscale>
<asrwt>0</asrwt>
<pdfrwt beam="2">  1        2 0.36916334E+00 0.93815664E+02</pdfrwt>
<pdfrwt beam="1">  1       -2 0.14107350E-03 0.93815664E+02</pdfrwt>
<totfact> 0.14683897E+05</totfact>
</mgrwt>
</event>
<event>
 4    1  0.2196664E-002  0.9271430E+02  0.7818608E-02  0.1296409E+00
         -2   -1    0    0  501    0 -0.00000000000E+00  0.00000000000E+00  0.82625806672E+00  0.82626200162E+00  0.25500000000E-02 0.  1.
          2   -1    0    0    0  501  0.00000000000E+00 -0.00000000000E+00 -0.26008583458E+04  0.26008583458E+04  0.25500000000E-02 0.  1.
          2    1    1    2    0  502  0.36786371492E+01  0.45607139488E+02 -0.10910737163E+04  0.10920326909E+04  0.25500000000E-02 0.  1.
         -2    1    1    2  502    0 -0.36786371492E+01 -0.45607139488E+02 -0.15089583715E+04  0.15096519170E+04  0.25500000000E-02 0.  1.
<mgrwt>
<rscale>  0 0.92714299E+02</rscale>
<asrwt>0</asrwt>
<pdfrwt beam="2">  1        2 0.40012550E+00 0.92714299E+02</pdfrwt>
<pdfrwt beam="1">  1       -2 0.12711901E-03 0.92714299E+02</pdfrwt>
<totfact> 0.13272577E+05</totfact>
</mgrwt>
</event>
<event>
 4    1  0.2196664E-002  0.4108316E+02  0.7818608E-02  0.1500389E+00
         -2   -1    0    0  501    0 -0.00000000000E+00  0.00000000000E+00  0.73866529111E+03  0.73866529112E+03  0.25500000000E-02 0. -1.
          2   -1    0    0    0  501  0.00000000000E+00 -0.00000000000E+00 -0.57123897410E+00  0.57124466564E+00  0.25500000000E-02 0. -1.
          2    1    1    2    0  502  0.14135471611E+02 -0.14265688968E+02  0.29137135577E+03  0.29206264467E+03  0.25500000000E-02 0.  1.
         -2    1    1    2  502    0 -0.14135471611E+02  0.14265688968E+02  0.44672269637E+03  0.44717389112E+03  0.25500000000E-02 0.  1.
<mgrwt>
<rscale>  0 0.41083160E+02</rscale>
<asrwt>0</asrwt>
<pdfrwt beam="2">  1        2 0.87883067E-04 0.41083160E+02</pdfrwt>
<pdfrwt beam="1">  1       -2 0.11364119E+00 0.41083160E+02</pdfrwt>
<totfact> 0.18975229E+05</totfact>
</mgrwt>
</event>
<event>
 4    1  0.2196664E-002  0.4618216E+02  0.7818608E-02  0.1467094E+00
         -2   -1    0    0  501    0 -0.00000000000E+00  0.00000000000E+00  0.17839879086E+01  0.17839897311E+01  0.25500000000E-02 0.  1.
          2   -1    0    0    0  501  0.00000000000E+00 -0.00000000000E+00 -0.29887963493E+03  0.29887963495E+03  0.25500000000E-02 0.  1.
          2    1    1    2    0  502  0.17686962024E+02 -0.14581447332E+02 -0.16667277719E+03  0.16824167705E+03  0.25500000000E-02 0. -1.
         -2    1    1    2  502    0 -0.17686962024E+02  0.14581447332E+02 -0.13042286983E+03  0.13242194763E+03  0.25500000000E-02 0. -1.
<mgrwt>
<rscale>  0 0.46182158E+02</rscale>
<asrwt>0</asrwt>
<pdfrwt beam="2">  1        2 0.45981443E-01 0.46182158E+02</pdfrwt>
<pdfrwt beam="1">  1       -2 0.27446006E-03 0.46182158E+02</pdfrwt>
<totfact> 0.10285597E+06</totfact>
</mgrwt>
</event>
<event>
 4    1  0.2196664E-002  0.5880486E+02  0.7818608E-02  0.1402917E+00
          2   -1    0    0    0  501  0.00000000000E+00  0.00000000000E+00  0.12755837721E+04  0.12755837721E+04  0.25500000000E-02 0.  1.
         -2   -1    0    0  501    0 -0.00000000000E+00 -0.00000000000E+00 -0.67772883724E+00  0.67773363449E+00  0.25500000000E-02 0.  1.
          2    1    1    2    0  502 -0.18019326893E+02  0.11170976690E+02  0.10795921015E+04  0.10798002558E+04  0.25500000000E-02 0.  1.
         -2    1    1    2  502    0  0.18019326893E+02 -0.11170976690E+02  0.19531394180E+03  0.19646124995E+03  0.25500000000E-02 0.  1.
<mgrwt>
<rscale>  0 0.58804863E+02</rscale>
<asrwt>0</asrwt>
<pdfrwt beam="1">  1        2 0.19624173E+00 0.58804863E+02</pdfrwt>
<pdfrwt beam="2">  1       -2 0.10426737E-03 0.58804863E+02</pdfrwt>
<totfact> 0.76268883E+05</totfact>
</mgrwt>
</event>
<event>
 4    1  0.2196664E-002  0.5251220E+02  0.7818608E-02  0.1432244E+00
         -2   -1    0    0  501    0 -0.00000000000E+00  0.00000000000E+00  0.36425103139E+01  0.36425112064E+01  0.25500000000E-02 0.  1.
          2   -1    0    0    0  501  0.00000000000E+00 -0.00000000000E+00 -0.18926032715E+03  0.18926032717E+03  0.25500000000E-02 0.  1.
          2    1    1    2    0  502 -0.19163528312E+01 -0.20018475592E+02 -0.15482133713E+03  0.15612193379E+03  0.25500000000E-02 0. -1.
         -2    1    1    2  502    0  0.19163528312E+01  0.20018475592E+02 -0.30796479709E+02  0.36780904586E+02  0.25500000000E-02 0. -1.
<mgrwt>
<rscale>  0 0.52512200E+02</rscale>
<asrwt>0</asrwt>
<pdfrwt beam="2">  1        2 0.29116966E-01 0.52512200E+02</pdfrwt>
<pdfrwt beam="1">  1       -2 0.56038642E-03 0.52512200E+02</pdfrwt>
<totfact> 0.63911016E+05</totfact>
</mgrwt>
</event>
<event>
 4    1  0.2196664E-002  0.4521655E+02  0.7818608E-02  0.1472994E+00
         -2   -1    0    0  501    0 -0.00000000000E+00  0.00000000000E+00  0.71620778720E+00  0.71621232672E+00  0.25500000000E-02 0. -1.
          2   -1    0    0    0  501  0.00000000000E+00 -0.00000000000E+00 -0.71366496298E+03  0.71366496298E+03  0.25500000000E-02 0. -1.
          2    1    1    2    0  502 -0.79388042647E+01 -0.19575766784E+02 -0.22919711790E+03  0.23016853416E+03  0.25500000000E-02 0. -1.
         -2    1    1    2  502    0  0.79388042647E+01  0.19575766784E+02 -0.48375163729E+03  0.48421264115E+03  0.25500000000E-02 0. -1.
<mgrwt>
<rscale>  0 0.45216547E+02</rscale>
<asrwt>0</asrwt>
<pdfrwt beam="2">  1        2 0.10979404E+00 0.45216547E+02</pdfrwt>
<pdfrwt beam="1">  1       -2 0.11018673E-03 0.45216547E+02</pdfrwt>
<totfact> 0.14142278E+06</totfact>
</mgrwt>
</event>
<event>
 4    1  0.2196664E-002  0.4219600E+02  0.7818608E-02  0.1492646E+00
         -2   -1    0    0  501    0 -0.00000000000E+00  0.00000000000E+00  0.23824620189E+01  0.23824633835E+01  0.25500000000E-02 0. -1.
          2   -1    0    0    0  501  0.00000000000E+00 -0.00000000000E+00 -0.18683424175E+03  0.18683424177E+03  0.25500000000E-02 0. -1.
          2    1    1    2    0  502  0.19560067367E+02  0.73764148652E+01 -0.79449462507E+02  0.82153665961E+02  0.25500000000E-02 0. -1.
         -2    1    1    2  502    0 -0.19560067367E+02 -0.73764148652E+01 -0.10500231722E+03  0.10706303919E+03  0.25500000000E-02 0. -1.
<mgrwt>
<rscale>  0 0.42196001E+02</rscale>
<asrwt>0</asrwt>
<pdfrwt beam="2">  1        2 0.28743718E-01 0.42196001E+02</pdfrwt>
<pdfrwt beam="1">  1       -2 0.36653287E-03 0.42196001E+02</pdfrwt>
<totfact> 0.10964389E+06</totfact>
</mgrwt>
</event>
<event>
 4    1  0.2196664E-002  0.7699181E+02  0.7818608E-02  0.1337812E+00
         -2   -1    0    0  501    0 -0.00000000000E+00  0.00000000000E+00  0.51308865289E+02  0.51308865352E+02  0.25500000000E-02 0. -1.
          2   -1    0    0    0  501  0.00000000000E+00 -0.00000000000E+00 -0.28882626076E+02  0.28882626189E+02  0.25500000000E-02 0. -1.
          2    1    1    2    0  502  0.35755316320E+02  0.64243643792E+01  0.24478982521E+02  0.43805658248E+02  0.25500000000E-02 0. -1.
         -2    1    1    2  502    0 -0.35755316320E+02 -0.64243643792E+01 -0.20527433082E+01  0.36385833293E+02  0.25500000000E-02 0. -1.
<mgrwt>
<rscale>  0 0.76991812E+02</rscale>
<asrwt>0</asrwt>
<pdfrwt beam="2">  1        2 0.44434809E-02 0.76991812E+02</pdfrwt>
<pdfrwt beam="1">  1       -2 0.78936716E-02 0.76991812E+02</pdfrwt>
<totfact> 0.14338966E+05</totfact>
</mgrwt>
</event>
<event>
 4    1  0.2196664E-002  0.6995917E+02  0.7818608E-02  0.1360232E+00
          2   -1    0    0    0  501  0.00000000000E+00  0.00000000000E+00  0.10395962022E+04  0.10395962022E+04  0.25500000000E-02 0. -1.
         -2   -1    0    0  501    0 -0.00000000000E+00 -0.00000000000E+00 -0.11769664420E+01  0.11769692044E+01  0.25500000000E-02 0. -1.
          2    1    1    2    0  502  0.25796046217E+01 -0.25583240009E+02  0.16640049626E+03  0.16837541890E+03  0.25500000000E-02 0. -1.
         -2    1    1    2  502    0 -0.25796046217E+01  0.25583240009E+02  0.87201873954E+03  0.87239775254E+03  0.25500000000E-02 0. -1.
<mgrwt>
<rscale>  0 0.69959168E+02</rscale>
<asrwt>0</asrwt>
<pdfrwt beam="1">  1        2 0.15993701E+00 0.69959168E+02</pdfrwt>
<pdfrwt beam="2">  1       -2 0.18107295E-03 0.69959168E+02</pdfrwt>
<totfact> 0.49806141E+05</totfact>
</mgrwt>
</event>
<event>
 4    1  0.2196664E-002  0.4471394E+02  0.7818608E-02  0.1476135E+00
          2   -1    0    0    0  501  0.00000000000E+00  0.00000000000E+00  0.84701022192E+00  0.84701406041E+00  0.25500000000E-02 0. -1.
         -2   -1    0    0  501    0 -0.00000000000E+00 -0.00000000000E+00 -0.59011443246E+03  0.59011443247E+03  0.25500000000E-02 0. -1.
          2    1    1    2    0  502 -0.20605457199E+02 -0.27148397350E+01 -0.40352258354E+03  0.40405745960E+03  0.25500000000E-02 0. -1.
         -2    1    1    2  502    0  0.20605457199E+02  0.27148397350E+01 -0.18574483870E+03  0.18690398693E+03  0.25500000000E-02 0. -1.
<mgrwt>
<rscale>  0 0.44713939E+02</rscale>
<asrwt>0</asrwt>
<pdfrwt beam="1">  1        2 0.13031003E-03 0.44713939E+02</pdfrwt>
<pdfrwt beam="2">  1       -2 0.90786508E-01 0.44713939E+02</pdfrwt>
<totfact> 0.19016532E+05</totfact>
</mgrwt>
</event>
<event>
 4    1  0.2196664E-002  0.1102991E+03  0.7818608E-02  0.1260017E+00
         -2   -1    0    0  501    0 -0.00000000000E+00  0.00000000000E+00  0.12078168979E+01  0.12078195897E+01  0.25500000000E-02 0. -1.
          2   -1    0    0    0  501  0.00000000000E+00 -0.00000000000E+00 -0.25181525573E+04  0.25181525573E+04  0.25500000000E-02 0. -1.
          2    1    1    2    0  502  0.28395467442E+02  0.43382201712E+02 -0.82923285945E+03  0.83085224510E+03  0.25500000000E-02 0. -1.
         -2    1    1    2  502    0 -0.28395467442E+02 -0.43382201712E+02 -0.16877118809E+04  0.16885081317E+04  0.25500000000E-02 0. -1.
<mgrwt>
<rscale>  0 0.11029906E+03</rscale>
<asrwt>0</asrwt>
<pdfrwt beam="2">  1        2 0.38740388E+00 0.11029906E+03</pdfrwt>
<pdfrwt beam="1">  1       -2 0.18582021E-03 0.11029906E+03</pdfrwt>
<totfact> 0.88141724E+04</totfact>
</mgrwt>
</event>
<event>
 4    1  0.2196664E-002  0.4083899E+02  0.7818608E-02  0.1502127E+00
         -2   -1    0    0  501    0 -0.00000000000E+00  0.00000000000E+00  0.16275761141E+01  0.16275781117E+01  0.25500000000E-02 0. -1.
          2   -1    0    0    0  501  0.00000000000E+00 -0.00000000000E+00 -0.25618192909E+03  0.25618192911E+03  0.25500000000E-02 0. -1.
          2    1    1    2    0  502  0.12470970100E+02 -0.16134221299E+02 -0.12060332342E+03  0.12231516594E+03  0.25500000000E-02 0. -1.
         -2    1    1    2  502    0 -0.12470970100E+02  0.16134221299E+02 -0.13395102956E+03  0.13549434128E+03  0.25500000000E-02 0. -1.
<mgrwt>
<rscale>  0 0.40838994E+02</rscale>
<asrwt>0</asrwt>
<pdfrwt beam="2">  1        2 0.39412573E-01 0.40838994E+02</pdfrwt>
<pdfrwt beam="1">  1       -2 0.25039668E-03 0.40838994E+02</pdfrwt>
<totfact> 0.13181322E+06</totfact>
</mgrwt>
</event>
<event>
 4    1  0.2196664E-002  0.8606268E+02  0.7818608E-02  0.1312677E+00
          2   -1    0    0    0  501  0.00000000000E+00  0.00000000000E+00  0.99468218051E+01  0.99468221320E+01  0.25500000000E-02 0.  1.
         -2   -1    0    0  501    0 -0.00000000000E+00 -0.00000000000E+00 -0.18615956234E+03  0.18615956236E+03  0.25500000000E-02 0.  1.
          2    1    1    2    0  502  0.37049138433E+02 -0.21779451088E+02 -0.93053117849E+02  0.10249812631E+03  0.25500000000E-02 0. -1.
         -2    1    1    2  502    0 -0.37049138433E+02  0.21779451088E+02 -0.83159622686E+02  0.93608258183E+02  0.25500000000E-02 0. -1.
<mgrwt>
<rscale>  0 0.86062675E+02</rscale>
<asrwt>0</asrwt>
<pdfrwt beam="1">  1        2 0.15302804E-02 0.86062675E+02</pdfrwt>
<pdfrwt beam="2">  1       -2 0.28639930E-01 0.86062675E+02</pdfrwt>
<totfact> 0.74406695E+04</totfact>
</mgrwt>
</event>
<event>
 4    1  0.2196664E-002  0.8698624E+02  0.7818608E-02  0.1310319E+00
          2   -1    0    0    0  501  0.00000000000E+00  0.00000000000E+00  0.11268824090E+04  0.11268824090E+04  0.25500000000E-02 0. -1.
         -2   -1    0    0  501    0 -0.00000000000E+00 -0.00000000000E+00 -0.16786582195E+01  0.16786601563E+01  0.25500000000E-02 0. -1.
          2    1    1    2    0  502 -0.34198499532E+00  0.39774604670E+02  0.33434933632E+03  0.33670701632E+03  0.25500000000E-02 0.  1.
         -2    1    1    2  502    0  0.34198499532E+00 -0.39774604670E+02  0.79085441444E+03  0.79185405283E+03  0.25500000000E-02 0.  1.
<mgrwt>
<rscale>  0 0.86986241E+02</rscale>
<asrwt>0</asrwt>
<pdfrwt beam="1">  1        2 0.17336653E+00 0.86986241E+02</pdfrwt>
<pdfrwt beam="2">  1       -2 0.25825525E-03 0.86986241E+02</pdfrwt>
<totfact> 0.28282176E+05</totfact>
</mgrwt>
</event>
<event>
 4    1  0.2196664E-002  0.4451365E+02  0.7818608E-02  0.1477401E+00
         -2   -1    0    0  501    0 -0.00000000000E+00  0.00000000000E+00  0.43426648838E+02  0.43426648913E+02  0.25500000000E-02 0. -1.
          2   -1    0    0    0  501  0.00000000000E+00 -0.00000000000E+00 -0.11406965652E+02  0.11406965937E+02  0.25500000000E-02 0. -1.
          2    1    1    2    0  502  0.19021099748E+02 -0.11556562646E+02  0.16132526778E+02  0.27488448530E+02  0.25500000000E-02 0.  1.
         -2    1    1    2  502    0 -0.19021099748E+02  0.11556562646E+02  0.15887156407E+02  0.27345166320E+02  0.25500000000E-02 0.  1.
<mgrwt>
<rscale>  0 0.44513652E+02</rscale>
<asrwt>0</asrwt>
<pdfrwt beam="2">  1        2 0.17549178E-02 0.44513652E+02</pdfrwt>
<pdfrwt beam="1">  1       -2 0.66810229E-02 0.44513652E+02</pdfrwt>
<totfact> 0.55085979E+05</totfact>
</mgrwt>
</event>
<event>
 4    1  0.2196664E-002  0.7059766E+02  0.7818608E-02  0.1358072E+00
          2   -1    0    0    0  501  0.00000000000E+00  0.00000000000E+00  0.19812260015E+04  0.19812260015E+04  0.25500000000E-02 0.  1.
         -2   -1    0    0  501    0 -0.00000000000E+00 -0.00000000000E+00 -0.62890471498E+00  0.62890988466E+00  0.25500000000E-02 0.  1.
          2    1    1    2    0  502 -0.61375495121E+01  0.23810282823E+02  0.17012645914E+04  0.17014422732E+04  0.25500000000E-02 0.  1.
         -2    1    1    2  502    0  0.61375495121E+01 -0.23810282823E+02  0.27933250541E+03  0.28041263821E+03  0.25500000000E-02 0.  1.
<mgrwt>
<rscale>  0 0.70597663E+02</rscale>
<asrwt>0</asrwt>
<pdfrwt beam="1">  1        2 0.30479744E+00 0.70597663E+02</pdfrwt>
<pdfrwt beam="2">  1       -2 0.96757052E-04 0.70597663E+02</pdfrwt>
<totfact> 0.38714649E+05</totfact>
</mgrwt>
</event>
<event>
 4    1  0.2196664E-002  0.4092346E+02  0.7818608E-02  0.1501524E+00
          2   -1    0    0    0  501  0.00000000000E+00  0.00000000000E+00  0.12116521089E+02  0.12116521358E+02  0.25500000000E-02 0. -1.
         -2   -1    0    0  501    0 -0.00000000000E+00 -0.00000000000E+00 -0.34554669850E+02  0.34554669944E+02  0.25500000000E-02 0. -1.
          2    1    1    2    0  502  0.75799899263E+01  0.18823608183E+02 -0.82238078062E+01  0.21895558765E+02  0.25500000000E-02 0.  1.
         -2    1    1    2  502    0 -0.75799899263E+01 -0.18823608183E+02 -0.14214340954E+02  0.24775632536E+02  0.25500000000E-02 0.  1.
<mgrwt>
<rscale>  0 0.40923460E+02</rscale>
<asrwt>0</asrwt>
<pdfrwt beam="1">  1        2 0.18640802E-02 0.40923460E+02</pdfrwt>
<pdfrwt beam="2">  1       -2 0.53161030E-02 0.40923460E+02</pdfrwt>
<totfact> 0.69510675E+05</totfact>
</mgrwt>
</event>
<event>
 4    1  0.2196664E-002  0.1005986E+03  0.7818608E-02  0.1279042E+00
          2   -1    0    0    0  501  0.00000000000E+00  0.00000000000E+00  0.48621825696E+03  0.48621825697E+03  0.25500000000E-02 0.  1.
         -2   -1    0    0  501    0 -0.00000000000E+00 -0.00000000000E+00 -0.52034658067E+01  0.52034664315E+01  0.25500000000E-02 0.  1.
          2    1    1    2    0  502 -0.33748237768E+02 -0.33875295462E+01  0.59064838477E+02  0.68110748489E+02  0.25500000000E-02 0. -1.
         -2    1    1    2  502    0  0.33748237768E+02  0.33875295462E+01  0.42194995268E+03  0.42331097491E+03  0.25500000000E-02 0. -1.
<mgrwt>
<rscale>  0 0.10059861E+03</rscale>
<asrwt>0</asrwt>
<pdfrwt beam="1">  1        2 0.74802821E-01 0.10059861E+03</pdfrwt>
<pdfrwt beam="2">  1       -2 0.80053311E-03 0.10059861E+03</pdfrwt>
<totfact> 0.16435365E+05</totfact>
</mgrwt>
</event>
<event>
 4    1  0.2196664E-002  0.5116801E+02  0.7818608E-02  0.1439142E+00
          2   -1    0    0    0  501  0.00000000000E+00  0.00000000000E+00  0.58090514466E+02  0.58090514522E+02  0.25500000000E-02 0. -1.
         -2   -1    0    0  501    0 -0.00000000000E+00 -0.00000000000E+00 -0.11267608616E+02  0.11267608905E+02  0.25500000000E-02 0. -1.
          2    1    1    2    0  502  0.13986269655E+01  0.23235952024E+02  0.37799893081E+02  0.44392539320E+02  0.25500000000E-02 0.  1.
         -2    1    1    2  502    0 -0.13986269655E+01 -0.23235952024E+02  0.90230127682E+01  0.24965584106E+02  0.25500000000E-02 0.  1.
<mgrwt>
<rscale>  0 0.51168005E+02</rscale>
<asrwt>0</asrwt>
<pdfrwt beam="1">  1        2 0.89370024E-02 0.51168005E+02</pdfrwt>
<pdfrwt beam="2">  1       -2 0.17334783E-02 0.51168005E+02</pdfrwt>
<totfact> 0.49792409E+05</totfact>
</mgrwt>
</event>
<event>
 4    1  0.2196664E-002  0.6950136E+02  0.7818608E-02  0.1361797E+00
         -2   -1    0    0  501    0 -0.00000000000E+00  0.00000000000E+00  0.15892662134E+01  0.15892682592E+01  0.25500000000E-02 0. -1.
          2   -1    0    0    0  501  0.00000000000E+00 -0.00000000000E+00 -0.75985317410E+03  0.75985317410E+03  0.25500000000E-02 0. -1.
          2    1    1    2    0  502  0.12605811968E+02  0.24287854663E+02 -0.61380168646E+03  0.61441135788E+03  0.25500000000E-02 0. -1.
         -2    1    1    2  502    0 -0.12605811968E+02 -0.24287854663E+02 -0.14446222142E+03  0.14703108448E+03  0.25500000000E-02 0. -1.
<mgrwt>
<rscale>  0 0.69501360E+02</rscale>
<asrwt>0</asrwt>
<pdfrwt beam="2">  1        2 0.11690020E+00 0.69501360E+02</pdfrwt>
<pdfrwt beam="1">  1       -2 0.24450326E-03 0.69501360E+02</pdfrwt>
<totfact> 0.48885926E+05</totfact>
</mgrwt>
</event>
<event>
 4    1  0.2196664E-002  0.4456156E+02  0.7818608E-02  0.1477097E+00
          2   -1    0    0    0  501  0.00000000000E+00  0.00000000000E+00  0.11776005012E+03  0.11776005014E+03  0.25500000000E-02 0. -1.
         -2   -1    0    0  501    0 -0.00000000000E+00 -0.00000000000E+00 -0.42156325945E+01  0.42156333658E+01  0.25500000000E-02 0. -1.
          2    1    1    2    0  502  0.20920270977E+02 -0.41214950271E+01  0.74466869810E+02  0.77459403333E+02  0.25500000000E-02 0. -1.
         -2    1    1    2  502    0 -0.20920270977E+02  0.41214950271E+01  0.39077547711E+02  0.44516280175E+02  0.25500000000E-02 0. -1.
<mgrwt>
<rscale>  0 0.44561560E+02</rscale>
<asrwt>0</asrwt>
<pdfrwt beam="1">  1        2 0.18116930E-01 0.44561560E+02</pdfrwt>
<pdfrwt beam="2">  1       -2 0.64855897E-03 0.44561560E+02</pdfrwt>
<totfact> 0.83501772E+05</totfact>
</mgrwt>
</event>
<event>
 4    1  0.2196664E-002  0.7121331E+02  0.7818608E-02  0.1356015E+00
         -2   -1    0    0  501    0 -0.00000000000E+00  0.00000000000E+00  0.15011491058E+01  0.15011512717E+01  0.25500000000E-02 0.  1.
          2   -1    0    0    0  501  0.00000000000E+00 -0.00000000000E+00 -0.84457507781E+03  0.84457507781E+03  0.25500000000E-02 0.  1.
          2    1    1    2    0  502 -0.35322222610E+02  0.18137617322E+01 -0.47035692710E+03  0.47168483972E+03  0.25500000000E-02 0. -1.
         -2    1    1    2  502    0  0.35322222610E+02 -0.18137617322E+01 -0.37271700160E+03  0.37439138937E+03  0.25500000000E-02 0. -1.
<mgrwt>
<rscale>  0 0.71213315E+02</rscale>
<asrwt>0</asrwt>
<pdfrwt beam="2">  1        2 0.12993425E+00 0.71213315E+02</pdfrwt>
<pdfrwt beam="1">  1       -2 0.23094686E-03 0.71213315E+02</pdfrwt>
<totfact> 0.46766567E+05</totfact>
</mgrwt>
</event>
<event>
 4    1  0.2196664E-002  0.4166688E+02  0.7818608E-02  0.1496291E+00
          2   -1    0    0    0  501  0.00000000000E+00  0.00000000000E+00  0.22217481587E+03  0.22217481589E+03  0.25500000000E-02 0. -1.
         -2   -1    0    0  501    0 -0.00000000000E+00 -0.00000000000E+00 -0.19535609798E+01  0.19535626441E+01  0.25500000000E-02 0. -1.
          2    1    1    2    0  502 -0.12436468107E+02 -0.16524327731E+02  0.96595294925E+02  0.98784463121E+02  0.25500000000E-02 0. -1.
         -2    1    1    2  502    0  0.12436468107E+02  0.16524327731E+02  0.12362595997E+03  0.12534391541E+03  0.25500000000E-02 0. -1.
<mgrwt>
<rscale>  0 0.41666881E+02</rscale>
<asrwt>0</asrwt>
<pdfrwt beam="1">  1        2 0.34180708E-01 0.41666881E+02</pdfrwt>
<pdfrwt beam="2">  1       -2 0.30054826E-03 0.41666881E+02</pdfrwt>
<totfact> 0.11966924E+06</totfact>
</mgrwt>
</event>
<event>
 4    1  0.2196664E-002  0.6152117E+02  0.7818608E-02  0.1391557E+00
         -2   -1    0    0  501    0 -0.00000000000E+00  0.00000000000E+00  0.17137202079E+02  0.17137202269E+02  0.25500000000E-02 0.  1.
          2   -1    0    0    0  501  0.00000000000E+00 -0.00000000000E+00 -0.55214007395E+02  0.55214007454E+02  0.25500000000E-02 0.  1.
          2    1    1    2    0  502  0.22515239658E+02 -0.10032192726E+02  0.26030122097E+01  0.24786217678E+02  0.25500000000E-02 0.  1.
         -2    1    1    2  502    0 -0.22515239658E+02  0.10032192726E+02 -0.40679817526E+02  0.47564992045E+02  0.25500000000E-02 0.  1.
<mgrwt>
<rscale>  0 0.61521171E+02</rscale>
<asrwt>0</asrwt>
<pdfrwt beam="2">  1        2 0.84944626E-02 0.61521171E+02</pdfrwt>
<pdfrwt beam="1">  1       -2 0.26364927E-02 0.61521171E+02</pdfrwt>
<totfact> 0.30457387E+05</totfact>
</mgrwt>
</event>
<event>
 4    1  0.2196664E-002  0.4771430E+02  0.7818608E-02  0.1458075E+00
          2   -1    0    0    0  501  0.00000000000E+00  0.00000000000E+00  0.70042757460E+03  0.70042757461E+03  0.25500000000E-02 0.  1.
         -2   -1    0    0  501    0 -0.00000000000E+00 -0.00000000000E+00 -0.81259237964E+00  0.81259638071E+00  0.25500000000E-02 0.  1.
          2    1    1    2    0  502 -0.16311258858E+02 -0.14272234605E+02  0.49633951988E+03  0.49681251277E+03  0.25500000000E-02 0.  1.
         -2    1    1    2  502    0  0.16311258858E+02  0.14272234605E+02  0.20327546234E+03  0.20442765821E+03  0.25500000000E-02 0.  1.
<mgrwt>
<rscale>  0 0.47714296E+02</rscale>
<asrwt>0</asrwt>
<pdfrwt beam="1">  1        2 0.10775823E+00 0.47714296E+02</pdfrwt>
<pdfrwt beam="2">  1       -2 0.12501435E-03 0.47714296E+02</pdfrwt>
<totfact> 0.12348685E+06</totfact>
</mgrwt>
</event>
<event>
 4    1  0.2196664E-002  0.6833309E+02  0.7818608E-02  0.1365855E+00
         -2   -1    0    0  501    0 -0.00000000000E+00  0.00000000000E+00  0.16855760571E+02  0.16855760764E+02  0.25500000000E-02 0.  1.
          2   -1    0    0    0  501  0.00000000000E+00 -0.00000000000E+00 -0.69255421153E+02  0.69255421200E+02  0.25500000000E-02 0.  1.
          2    1    1    2    0  502 -0.31934542167E+02  0.42522151636E+01 -0.11861770334E+02  0.34330713933E+02  0.25500000000E-02 0.  1.
         -2    1    1    2  502    0  0.31934542167E+02 -0.42522151636E+01 -0.40537890248E+02  0.51780468031E+02  0.25500000000E-02 0.  1.
<mgrwt>
<rscale>  0 0.68333090E+02</rscale>
<asrwt>0</asrwt>
<pdfrwt beam="2">  1        2 0.10654680E-01 0.68333090E+02</pdfrwt>
<pdfrwt beam="1">  1       -2 0.25931940E-02 0.68333090E+02</pdfrwt>
<totfact> 0.24256376E+05</totfact>
</mgrwt>
</event>
<event>
 4    1  0.2196664E-002  0.4576423E+02  0.7818608E-02  0.1469626E+00
          2   -1    0    0    0  501  0.00000000000E+00  0.00000000000E+00  0.86522072288E+00  0.86522448058E+00  0.25500000000E-02 0. -1.
         -2   -1    0    0  501    0 -0.00000000000E+00 -0.00000000000E+00 -0.60515199201E+03  0.60515199201E+03  0.25500000000E-02 0. -1.
          2    1    1    2    0  502 -0.10391737135E+02 -0.20338660897E+02 -0.28369040022E+03  0.28460831420E+03  0.25500000000E-02 0.  1.
         -2    1    1    2  502    0  0.10391737135E+02  0.20338660897E+02 -0.32059637107E+03  0.32140890230E+03  0.25500000000E-02 0.  1.
<mgrwt>
<rscale>  0 0.45764230E+02</rscale>
<asrwt>0</asrwt>
<pdfrwt beam="1">  1        2 0.13311165E-03 0.45764230E+02</pdfrwt>
<pdfrwt beam="2">  1       -2 0.93099968E-01 0.45764230E+02</pdfrwt>
<totfact> 0.17588912E+05</totfact>
</mgrwt>
</event>
<event>
 4    1  0.2196664E-002  0.4147057E+02  0.7818608E-02  0.1497660E+00
         -2   -1    0    0  501    0 -0.00000000000E+00  0.00000000000E+00  0.11209124646E+03  0.11209124649E+03  0.25500000000E-02 0. -1.
          2   -1    0    0    0  501  0.00000000000E+00 -0.00000000000E+00 -0.38357315683E+01  0.38357324159E+01  0.25500000000E-02 0. -1.
          2    1    1    2    0  502 -0.82244075817E+01  0.18270862284E+02  0.69047644153E+02  0.71896053148E+02  0.25500000000E-02 0.  1.
         -2    1    1    2  502    0  0.82244075817E+01 -0.18270862284E+02  0.39207870739E+02  0.44030925758E+02  0.25500000000E-02 0.  1.
<mgrwt>
<rscale>  0 0.41470567E+02</rscale>
<asrwt>0</asrwt>
<pdfrwt beam="2">  1        2 0.59011267E-03 0.41470567E+02</pdfrwt>
<pdfrwt beam="1">  1       -2 0.17244806E-01 0.41470567E+02</pdfrwt>
<totfact> 0.53916799E+05</totfact>
</mgrwt>
</event>
<event>
 4    1  0.2196664E-002  0.5333619E+02  0.7818608E-02  0.1428135E+00
         -2   -1    0    0  501    0 -0.00000000000E+00  0.00000000000E+00  0.95663810936E+02  0.95663810970E+02  0.25500000000E-02 0.  1.
          2   -1    0    0    0  501  0.00000000000E+00 -0.00000000000E+00 -0.74342341494E+01  0.74342345867E+01  0.25500000000E-02 0.  1.
          2    1    1    2    0  502  0.89306314773E+00 -0.21995838260E+02  0.15018855461E+02  0.26649211779E+02  0.25500000000E-02 0. -1.
         -2    1    1    2  502    0 -0.89306314773E+00  0.21995838260E+02  0.73210721325E+02  0.76448833778E+02  0.25500000000E-02 0. -1.
<mgrwt>
<rscale>  0 0.53336186E+02</rscale>
<asrwt>0</asrwt>
<pdfrwt beam="2">  1        2 0.11437284E-02 0.53336186E+02</pdfrwt>
<pdfrwt beam="1">  1       -2 0.14717509E-01 0.53336186E+02</pdfrwt>
<totfact> 0.30479285E+05</totfact>
</mgrwt>
</event>
<event>
 4    1  0.2196664E-002  0.4680543E+02  0.7818608E-02  0.1463376E+00
          2   -1    0    0    0  501  0.00000000000E+00  0.00000000000E+00  0.10796219912E+01  0.10796250026E+01  0.25500000000E-02 0. -1.
         -2   -1    0    0  501    0 -0.00000000000E+00 -0.00000000000E+00 -0.50729439920E+03  0.50729439921E+03  0.25500000000E-02 0. -1.
          2    1    1    2    0  502 -0.20929546899E+02 -0.47603122554E+01 -0.35440471124E+03  0.35505408864E+03  0.25500000000E-02 0. -1.
         -2    1    1    2  502    0  0.20929546899E+02  0.47603122554E+01 -0.15181006597E+03  0.15331993556E+03  0.25500000000E-02 0. -1.
<mgrwt>
<rscale>  0 0.46805425E+02</rscale>
<asrwt>0</asrwt>
<pdfrwt beam="1">  1        2 0.16609633E-03 0.46805425E+02</pdfrwt>
<pdfrwt beam="2">  1       -2 0.78045102E-01 0.46805425E+02</pdfrwt>
<totfact> 0.19265255E+05</totfact>
</mgrwt>
</event>
<event>
 4    1  0.2196664E-002  0.4330563E+02  0.7818608E-02  0.1485205E+00
          2   -1    0    0    0  501  0.00000000000E+00  0.00000000000E+00  0.70531276837E+03  0.70531276838E+03  0.25500000000E-02 0. -1.
         -2   -1    0    0  501    0 -0.00000000000E+00 -0.00000000000E+00 -0.66473001719E+00  0.66473490825E+00  0.25500000000E-02 0. -1.
          2    1    1    2    0  502  0.21197328533E+02  0.16452642756E+01  0.28548363858E+03  0.28627424183E+03  0.25500000000E-02 0. -1.
         -2    1    1    2  502    0 -0.21197328533E+02 -0.16452642756E+01  0.41916439977E+03  0.41970326145E+03  0.25500000000E-02 0. -1.
<mgrwt>
<rscale>  0 0.43305625E+02</rscale>
<asrwt>0</asrwt>
<pdfrwt beam="1">  1        2 0.10850993E+00 0.43305625E+02</pdfrwt>
<pdfrwt beam="2">  1       -2 0.10226628E-03 0.43305625E+02</pdfrwt>
<totfact> 0.15667689E+06</totfact>
</mgrwt>
</event>
<event>
 4    1  0.2196664E-002  0.5352195E+02  0.7818608E-02  0.1427221E+00
         -2   -1    0    0  501    0 -0.00000000000E+00  0.00000000000E+00  0.89024569098E+01  0.89024572751E+01  0.25500000000E-02 0.  1.
          2   -1    0    0    0  501  0.00000000000E+00 -0.00000000000E+00 -0.80444068943E+02  0.80444068983E+02  0.25500000000E-02 0.  1.
          2    1    1    2    0  502  0.22241949240E+02  0.12083644084E+02 -0.50269235528E+02  0.56282455592E+02  0.25500000000E-02 0.  1.
         -2    1    1    2  502    0 -0.22241949240E+02 -0.12083644084E+02 -0.21272376505E+02  0.33064070667E+02  0.25500000000E-02 0.  1.
<mgrwt>
<rscale>  0 0.53521953E+02</rscale>
<asrwt>0</asrwt>
<pdfrwt beam="2">  1        2 0.12376010E-01 0.53521953E+02</pdfrwt>
<pdfrwt beam="1">  1       -2 0.13696088E-02 0.53521953E+02</pdfrwt>
<totfact> 0.47671859E+05</totfact>
</mgrwt>
</event>
<event>
 4    1  0.2196664E-002  0.2236260E+03  0.7818608E-02  0.1131208E+00
         -2   -1    0    0  501    0 -0.00000000000E+00  0.00000000000E+00  0.13576102904E+03  0.13576102907E+03  0.25500000000E-02 0.  1.
          2   -1    0    0    0  501  0.00000000000E+00 -0.00000000000E+00 -0.92089370453E+02  0.92089370488E+02  0.25500000000E-02 0.  1.
          2    1    1    2    0  502 -0.13374416785E+02 -0.75346163368E+02 -0.61228605639E+02  0.98004395379E+02  0.25500000000E-02 0.  1.
         -2    1    1    2  502    0  0.13374416785E+02  0.75346163368E+02  0.10490026423E+03  0.12984600418E+03  0.25500000000E-02 0.  1.
<mgrwt>
<rscale>  0 0.22362601E+03</rscale>
<asrwt>0</asrwt>
<pdfrwt beam="2">  1        2 0.14167596E-01 0.22362601E+03</pdfrwt>
<pdfrwt beam="1">  1       -2 0.20886312E-01 0.22362601E+03</pdfrwt>
<totfact> 0.79617006E+03</totfact>
</mgrwt>
</event>
<event>
 4    1  0.2196664E-002  0.4809149E+02  0.7818608E-02  0.1455916E+00
         -2   -1    0    0  501    0 -0.00000000000E+00  0.00000000000E+00  0.38113694629E+03  0.38113694630E+03  0.25500000000E-02 0. -1.
          2   -1    0    0    0  501  0.00000000000E+00 -0.00000000000E+00 -0.15170330190E+01  0.15170351621E+01  0.25500000000E-02 0. -1.
          2    1    1    2    0  502  0.19907042434E+02 -0.10364126568E+02  0.25848416728E+03  0.25945668271E+03  0.25500000000E-02 0.  1.
         -2    1    1    2  502    0 -0.19907042434E+02  0.10364126568E+02  0.12113574599E+03  0.12319729875E+03  0.25500000000E-02 0.  1.
<mgrwt>
<rscale>  0 0.48091485E+02</rscale>
<asrwt>0</asrwt>
<pdfrwt beam="2">  1        2 0.23338967E-03 0.48091485E+02</pdfrwt>
<pdfrwt beam="1">  1       -2 0.58636501E-01 0.48091485E+02</pdfrwt>
<totfact> 0.22129408E+05</totfact>
</mgrwt>
</event>
<event>
 4    1  0.2196664E-002  0.5136902E+02  0.7818608E-02  0.1438094E+00
         -2   -1    0    0  501    0 -0.00000000000E+00  0.00000000000E+00  0.71430156491E+01  0.71430161043E+01  0.25500000000E-02 0. -1.
          2   -1    0    0    0  501  0.00000000000E+00 -0.00000000000E+00 -0.92355109771E+02  0.92355109806E+02  0.25500000000E-02 0. -1.
          2    1    1    2    0  502  0.22037025099E+02  0.51945987911E+01 -0.19115670941E+02  0.29631456492E+02  0.25500000000E-02 0.  1.
         -2    1    1    2  502    0 -0.22037025099E+02 -0.51945987911E+01 -0.66096423181E+02  0.69866669418E+02  0.25500000000E-02 0.  1.
<mgrwt>
<rscale>  0 0.51369019E+02</rscale>
<asrwt>0</asrwt>
<pdfrwt beam="2">  1        2 0.14208478E-01 0.51369019E+02</pdfrwt>
<pdfrwt beam="1">  1       -2 0.10989256E-02 0.51369019E+02</pdfrwt>
<totfact> 0.54779888E+05</totfact>
</mgrwt>
</event>
<event>
 4    1  0.2196664E-002  0.5238357E+02  0.7818608E-02  0.1432893E+00
         -2   -1    0    0  501    0 -0.00000000000E+00  0.00000000000E+00  0.12753430428E+02  0.12753430683E+02  0.25500000000E-02 0. -1.
          2   -1    0    0    0  501  0.00000000000E+00 -0.00000000000E+00 -0.53790200360E+02  0.53790200420E+02  0.25500000000E-02 0. -1.
          2    1    1    2    0  502 -0.93570839580E+01  0.20448346424E+02 -0.34601935602E+01  0.22752205116E+02  0.25500000000E-02 0.  1.
         -2    1    1    2  502    0  0.93570839580E+01 -0.20448346424E+02 -0.37576576371E+02  0.43791425987E+02  0.25500000000E-02 0.  1.
<mgrwt>
<rscale>  0 0.52383570E+02</rscale>
<asrwt>0</asrwt>
<pdfrwt beam="2">  1        2 0.82754153E-02 0.52383570E+02</pdfrwt>
<pdfrwt beam="1">  1       -2 0.19620663E-02 0.52383570E+02</pdfrwt>
<totfact> 0.46145554E+05</totfact>
</mgrwt>
</event>
<event>
 4    1  0.2196664E-002  0.4469036E+02  0.7818608E-02  0.1476284E+00
          2   -1    0    0    0  501  0.00000000000E+00  0.00000000000E+00  0.47703793294E+03  0.47703793294E+03  0.25500000000E-02 0.  1.
         -2   -1    0    0  501    0 -0.00000000000E+00 -0.00000000000E+00 -0.10466805073E+01  0.10466836135E+01  0.25500000000E-02 0.  1.
          2    1    1    2    0  502 -0.16127233634E+02 -0.15441266725E+02  0.24748384309E+03  0.24848897960E+03  0.25500000000E-02 0.  1.
         -2    1    1    2  502    0  0.16127233634E+02  0.15441266725E+02  0.22850740934E+03  0.22959563696E+03  0.25500000000E-02 0.  1.
<mgrwt>
<rscale>  0 0.44690359E+02</rscale>
<asrwt>0</asrwt>
<pdfrwt beam="1">  1        2 0.73390537E-01 0.44690359E+02</pdfrwt>
<pdfrwt beam="2">  1       -2 0.16102782E-03 0.44690359E+02</pdfrwt>
<totfact> 0.13043509E+06</totfact>
</mgrwt>
</event>
<event>
 4    1  0.2196664E-002  0.1016681E+03  0.7818608E-02  0.1276827E+00
          2   -1    0    0    0  501  0.00000000000E+00  0.00000000000E+00  0.75083855567E+03  0.75083855567E+03  0.25500000000E-02 0.  1.
         -2   -1    0    0  501    0 -0.00000000000E+00 -0.00000000000E+00 -0.34416158861E+01  0.34416168307E+01  0.25500000000E-02 0.  1.
          2    1    1    2    0  502 -0.15249708812E+02  0.43706564605E+02  0.52954808064E+03  0.53156748125E+03  0.25500000000E-02 0.  1.
         -2    1    1    2  502    0  0.15249708812E+02 -0.43706564605E+02  0.21784885914E+03  0.22271269125E+03  0.25500000000E-02 0.  1.
<mgrwt>
<rscale>  0 0.10166805E+03</rscale>
<asrwt>0</asrwt>
<pdfrwt beam="1">  1        2 0.11551379E+00 0.10166805E+03</pdfrwt>
<pdfrwt beam="2">  1       -2 0.52947869E-03 0.10166805E+03</pdfrwt>
<totfact> 0.18041944E+05</totfact>
</mgrwt>
</event>
<event>
 4    1  0.2196664E-002  0.4597098E+02  0.7818608E-02  0.1468369E+00
          2   -1    0    0    0  501  0.00000000000E+00  0.00000000000E+00  0.16412516727E+04  0.16412516727E+04  0.25500000000E-02 0.  1.
         -2   -1    0    0  501    0 -0.00000000000E+00 -0.00000000000E+00 -0.32190340768E+00  0.32191350760E+00  0.25500000000E-02 0.  1.
          2    1    1    2    0  502 -0.89141981657E+01  0.20385508855E+02  0.10265300119E+04  0.10267711026E+04  0.25500000000E-02 0. -1.
         -2    1    1    2  502    0  0.89141981657E+01 -0.20385508855E+02  0.61439975742E+03  0.61480248359E+03  0.25500000000E-02 0. -1.
<mgrwt>
<rscale>  0 0.45970982E+02</rscale>
<asrwt>0</asrwt>
<pdfrwt beam="1">  1        2 0.25249742E+00 0.45970982E+02</pdfrwt>
<pdfrwt beam="2">  1       -2 0.49524935E-04 0.45970982E+02</pdfrwt>
<totfact> 0.12978283E+06</totfact>
</mgrwt>
</event>
<event>
 4    1  0.2196664E-002  0.6122564E+02  0.7818608E-02  0.1392759E+00
          2   -1    0    0    0  501  0.00000000000E+00  0.00000000000E+00  0.57923979611E+01  0.57923985224E+01  0.25500000000E-02 0.  1.
         -2   -1    0    0  501    0 -0.00000000000E+00 -0.00000000000E+00 -0.16178874876E+03  0.16178874878E+03  0.25500000000E-02 0.  1.
          2    1    1    2    0  502 -0.30194298033E+02  0.46303322972E+01 -0.72517635366E+02  0.78688900465E+02  0.25500000000E-02 0. -1.
         -2    1    1    2  502    0  0.30194298033E+02 -0.46303322972E+01 -0.83478715431E+02  0.88892246835E+02  0.25500000000E-02 0. -1.
<mgrwt>
<rscale>  0 0.61225644E+02</rscale>
<asrwt>0</asrwt>
<pdfrwt beam="1">  1        2 0.89113832E-03 0.61225644E+02</pdfrwt>
<pdfrwt beam="2">  1       -2 0.24890573E-01 0.61225644E+02</pdfrwt>
<totfact> 0.18521761E+05</totfact>
</mgrwt>
</event>
<event>
 4    1  0.2196664E-002  0.4877259E+02  0.7818608E-02  0.1452077E+00
          2   -1    0    0    0  501  0.00000000000E+00  0.00000000000E+00  0.34097728573E+03  0.34097728574E+03  0.25500000000E-02 0. -1.
         -2   -1    0    0  501    0 -0.00000000000E+00 -0.00000000000E+00 -0.17440781865E+01  0.17440800506E+01  0.25500000000E-02 0. -1.
          2    1    1    2    0  502 -0.22041575654E+02  0.58048332584E+01  0.10869505607E+03  0.11105918407E+03  0.25500000000E-02 0.  1.
         -2    1    1    2  502    0  0.22041575654E+02 -0.58048332584E+01  0.23053815148E+03  0.23166218172E+03  0.25500000000E-02 0.  1.
<mgrwt>
<rscale>  0 0.48772589E+02</rscale>
<asrwt>0</asrwt>
<pdfrwt beam="1">  1        2 0.52458085E-01 0.48772589E+02</pdfrwt>
<pdfrwt beam="2">  1       -2 0.26831966E-03 0.48772589E+02</pdfrwt>
<totfact> 0.94071025E+05</totfact>
</mgrwt>
</event>
<event>
 4    1  0.2196664E-002  0.5134508E+02  0.7818608E-02  0.1438219E+00
         -2   -1    0    0  501    0 -0.00000000000E+00  0.00000000000E+00  0.23981256510E+01  0.23981270068E+01  0.25500000000E-02 0.  1.
          2   -1    0    0    0  501  0.00000000000E+00 -0.00000000000E+00 -0.27483093728E+03  0.27483093729E+03  0.25500000000E-02 0.  1.
          2    1    1    2    0  502 -0.16370042574E+01 -0.23570694562E+02 -0.82001673665E+02  0.85337751995E+02  0.25500000000E-02 0. -1.
         -2    1    1    2  502    0  0.16370042574E+01  0.23570694562E+02 -0.19043113797E+03  0.19189131231E+03  0.25500000000E-02 0. -1.
<mgrwt>
<rscale>  0 0.51345080E+02</rscale>
<asrwt>0</asrwt>
<pdfrwt beam="2">  1        2 0.42281658E-01 0.51345080E+02</pdfrwt>
<pdfrwt beam="1">  1       -2 0.36894273E-03 0.51345080E+02</pdfrwt>
<totfact> 0.76788429E+05</totfact>
</mgrwt>
</event>
<event>
 4    1  0.2196664E-002  0.4384262E+02  0.7818608E-02  0.1481699E+00
         -2   -1    0    0  501    0 -0.00000000000E+00  0.00000000000E+00  0.65093972082E+00  0.65094471551E+00  0.25500000000E-02 0. -1.
          2   -1    0    0    0  501  0.00000000000E+00 -0.00000000000E+00 -0.73822801591E+03  0.73822801591E+03  0.25500000000E-02 0. -1.
          2    1    1    2    0  502 -0.18578483703E+02 -0.99751216318E+01 -0.46973871821E+03  0.47021178898E+03  0.25500000000E-02 0.  1.
         -2    1    1    2  502    0  0.18578483703E+02  0.99751216318E+01 -0.26783835798E+03  0.26866717165E+03  0.25500000000E-02 0.  1.
<mgrwt>
<rscale>  0 0.43842618E+02</rscale>
<asrwt>0</asrwt>
<pdfrwt beam="2">  1        2 0.11357287E+00 0.43842618E+02</pdfrwt>
<pdfrwt beam="1">  1       -2 0.10014555E-03 0.43842618E+02</pdfrwt>
<totfact> 0.15352817E+06</totfact>
</mgrwt>
</event>
<event>
 4    1  0.2196664E-002  0.4103134E+02  0.7818608E-02  0.1500756E+00
          2   -1    0    0    0  501  0.00000000000E+00  0.00000000000E+00  0.41600832338E+03  0.41600832339E+03  0.25500000000E-02 0. -1.
         -2   -1    0    0  501    0 -0.00000000000E+00 -0.00000000000E+00 -0.10117395938E+01  0.10117428073E+01  0.25500000000E-02 0. -1.
          2    1    1    2    0  502 -0.95893577536E+01  0.18067882982E+02  0.19146521028E+03  0.19255474788E+03  0.25500000000E-02 0. -1.
         -2    1    1    2  502    0  0.95893577536E+01 -0.18067882982E+02  0.22353137350E+03  0.22446531831E+03  0.25500000000E-02 0. -1.
<mgrwt>
<rscale>  0 0.41031342E+02</rscale>
<asrwt>0</asrwt>
<pdfrwt beam="1">  1        2 0.64001196E-01 0.41031342E+02</pdfrwt>
<pdfrwt beam="2">  1       -2 0.15565270E-03 0.41031342E+02</pdfrwt>
<totfact> 0.15360147E+06</totfact>
</mgrwt>
</event>
<event>
 4    1  0.2196664E-002  0.5169755E+02  0.7818608E-02  0.1436395E+00
          2   -1    0    0    0  501  0.00000000000E+00  0.00000000000E+00  0.15558651577E+02  0.15558651786E+02  0.25500000000E-02 0.  1.
         -2   -1    0    0  501    0 -0.00000000000E+00 -0.00000000000E+00 -0.42944544191E+02  0.42944544267E+02  0.25500000000E-02 0.  1.
          2    1    1    2    0  502 -0.91062675567E+01 -0.22717919661E+02 -0.23102016894E+02  0.33656071868E+02  0.25500000000E-02 0.  1.
         -2    1    1    2  502    0  0.91062675567E+01  0.22717919661E+02 -0.42838757209E+01  0.24847124184E+02  0.25500000000E-02 0.  1.
<mgrwt>
<rscale>  0 0.51697552E+02</rscale>
<asrwt>0</asrwt>
<pdfrwt beam="1">  1        2 0.23936387E-02 0.51697552E+02</pdfrwt>
<pdfrwt beam="2">  1       -2 0.66068529E-02 0.51697552E+02</pdfrwt>
<totfact> 0.38637220E+05</totfact>
</mgrwt>
</event>
<event>
 4    1  0.2196664E-002  0.4849165E+02  0.7818608E-02  0.1453651E+00
         -2   -1    0    0  501    0 -0.00000000000E+00  0.00000000000E+00  0.19362849901E+01  0.19362866693E+01  0.25500000000E-02 0. -1.
          2   -1    0    0    0  501  0.00000000000E+00 -0.00000000000E+00 -0.30360185318E+03  0.30360185319E+03  0.25500000000E-02 0. -1.
          2    1    1    2    0  502 -0.17424341825E+02  0.13533826145E+02 -0.87482594867E+02  0.90221818588E+02  0.25500000000E-02 0. -1.
         -2    1    1    2  502    0  0.17424341825E+02 -0.13533826145E+02 -0.21418297332E+03  0.21531632127E+03  0.25500000000E-02 0. -1.
<mgrwt>
<rscale>  0 0.48491648E+02</rscale>
<asrwt>0</asrwt>
<pdfrwt beam="2">  1        2 0.46707940E-01 0.48491648E+02</pdfrwt>
<pdfrwt beam="1">  1       -2 0.29789037E-03 0.48491648E+02</pdfrwt>
<totfact> 0.91663126E+05</totfact>
</mgrwt>
</event>
<event>
 4    1  0.2196664E-002  0.6640598E+02  0.7818608E-02  0.1372759E+00
         -2   -1    0    0  501    0 -0.00000000000E+00  0.00000000000E+00  0.14948179155E+01  0.14948200905E+01  0.25500000000E-02 0.  1.
          2   -1    0    0    0  501  0.00000000000E+00 -0.00000000000E+00 -0.73750636612E+03  0.73750636613E+03  0.25500000000E-02 0.  1.
          2    1    1    2    0  502 -0.25512426405E+02  0.17847409055E+02 -0.23965338544E+03  0.24166745555E+03  0.25500000000E-02 0. -1.
         -2    1    1    2  502    0  0.25512426405E+02 -0.17847409055E+02 -0.49635816277E+03  0.49733373067E+03  0.25500000000E-02 0. -1.
<mgrwt>
<rscale>  0 0.66405980E+02</rscale>
<asrwt>0</asrwt>
<pdfrwt beam="2">  1        2 0.11346223E+00 0.66405980E+02</pdfrwt>
<pdfrwt beam="1">  1       -2 0.22997274E-03 0.66405980E+02</pdfrwt>
<totfact> 0.54594919E+05</totfact>
</mgrwt>
</event>
<event>
 4    1  0.2196664E-002  0.5127038E+02  0.7818608E-02  0.1438607E+00
         -2   -1    0    0  501    0 -0.00000000000E+00  0.00000000000E+00  0.12732358143E+01  0.12732383678E+01  0.25500000000E-02 0. -1.
          2   -1    0    0    0  501  0.00000000000E+00 -0.00000000000E+00 -0.51613564897E+03  0.51613564897E+03  0.25500000000E-02 0. -1.
          2    1    1    2    0  502 -0.19473159659E+01 -0.25367623076E+02 -0.28911150186E+03  0.29022882155E+03  0.25500000000E-02 0.  1.
         -2    1    1    2  502    0  0.19473159659E+01  0.25367623076E+02 -0.22575091129E+03  0.22718006580E+03  0.25500000000E-02 0.  1.
<mgrwt>
<rscale>  0 0.51270383E+02</rscale>
<asrwt>0</asrwt>
<pdfrwt beam="2">  1        2 0.79405318E-01 0.51270383E+02</pdfrwt>
<pdfrwt beam="1">  1       -2 0.19588304E-03 0.51270383E+02</pdfrwt>
<totfact> 0.95307477E+05</totfact>
</mgrwt>
</event>
<event>
 4    1  0.2196664E-002  0.5192161E+02  0.7818608E-02  0.1435244E+00
          2   -1    0    0    0  501  0.00000000000E+00  0.00000000000E+00  0.99371991861E+02  0.99371991894E+02  0.25500000000E-02 0.  1.
         -2   -1    0    0  501    0 -0.00000000000E+00 -0.00000000000E+00 -0.67822253231E+01  0.67822258025E+01  0.25500000000E-02 0.  1.
          2    1    1    2    0  502 -0.24579515303E+02  0.69080378559E+01  0.36685753441E+02  0.44695839533E+02  0.25500000000E-02 0.  1.
         -2    1    1    2  502    0  0.24579515303E+02 -0.69080378559E+01  0.55904013097E+02  0.61458378163E+02  0.25500000000E-02 0.  1.
<mgrwt>
<rscale>  0 0.51921605E+02</rscale>
<asrwt>0</asrwt>
<pdfrwt beam="1">  1        2 0.15287997E-01 0.51921605E+02</pdfrwt>
<pdfrwt beam="2">  1       -2 0.10434194E-02 0.51921605E+02</pdfrwt>
<totfact> 0.54321005E+05</totfact>
</mgrwt>
</event>
<event>
 4    1  0.2196664E-002  0.4155110E+02  0.7818608E-02  0.1497098E+00
          2   -1    0    0    0  501  0.00000000000E+00  0.00000000000E+00  0.29725664515E+03  0.29725664516E+03  0.25500000000E-02 0.  1.
         -2   -1    0    0  501    0 -0.00000000000E+00 -0.00000000000E+00 -0.14520217724E+01  0.14520240116E+01  0.25500000000E-02 0.  1.
          2    1    1    2    0  502 -0.13526322110E+01 -0.20107098215E+02  0.18420360506E+03  0.18530270677E+03  0.25500000000E-02 0.  1.
         -2    1    1    2  502    0  0.13526322110E+01  0.20107098215E+02  0.11160101832E+03  0.11340596240E+03  0.25500000000E-02 0.  1.
<mgrwt>
<rscale>  0 0.41551099E+02</rscale>
<asrwt>0</asrwt>
<pdfrwt beam="1">  1        2 0.45731810E-01 0.41551099E+02</pdfrwt>
<pdfrwt beam="2">  1       -2 0.22338805E-03 0.41551099E+02</pdfrwt>
<totfact> 0.13298222E+06</totfact>
</mgrwt>
</event>
<event>
 4    1  0.2196664E-002  0.4694825E+02  0.7818608E-02  0.1462533E+00
          2   -1    0    0    0  501  0.00000000000E+00  0.00000000000E+00  0.61826428176E+03  0.61826428176E+03  0.25500000000E-02 0.  1.
         -2   -1    0    0  501    0 -0.00000000000E+00 -0.00000000000E+00 -0.89125878785E+00  0.89126243578E+00  0.25500000000E-02 0.  1.
          2    1    1    2    0  502  0.10210764141E+02  0.18943871780E+02  0.18503877366E+03  0.18628601060E+03  0.25500000000E-02 0. -1.
         -2    1    1    2  502    0 -0.10210764141E+02 -0.18943871780E+02  0.43233424931E+03  0.43286953360E+03  0.25500000000E-02 0. -1.
<mgrwt>
<rscale>  0 0.46948253E+02</rscale>
<asrwt>0</asrwt>
<pdfrwt beam="1">  1        2 0.95117728E-01 0.46948253E+02</pdfrwt>
<pdfrwt beam="2">  1       -2 0.13711681E-03 0.46948253E+02</pdfrwt>
<totfact> 0.12465984E+06</totfact>
</mgrwt>
</event>
<event>
 4    1  0.2196664E-002  0.4613922E+02  0.7818608E-02  0.1467352E+00
         -2   -1    0    0  501    0 -0.00000000000E+00  0.00000000000E+00  0.16877342897E+01  0.16877362161E+01  0.25500000000E-02 0.  1.
          2   -1    0    0    0  501  0.00000000000E+00 -0.00000000000E+00 -0.31533795807E+03  0.31533795808E+03  0.25500000000E-02 0.  1.
          2    1    1    2    0  502 -0.19109046854E+02  0.96101440724E+01 -0.97440469744E+02  0.99760491634E+02  0.25500000000E-02 0. -1.
         -2    1    1    2  502    0  0.19109046854E+02 -0.96101440724E+01 -0.21620975404E+03  0.21726520266E+03  0.25500000000E-02 0. -1.
<mgrwt>
<rscale>  0 0.46139224E+02</rscale>
<asrwt>0</asrwt>
<pdfrwt beam="2">  1        2 0.48513486E-01 0.46139224E+02</pdfrwt>
<pdfrwt beam="1">  1       -2 0.25965183E-03 0.46139224E+02</pdfrwt>
<totfact> 0.10502200E+06</totfact>
</mgrwt>
</event>
<event>
 4    1  0.2196664E-002  0.5458043E+02  0.7818608E-02  0.1422094E+00
          2   -1    0    0    0  501  0.00000000000E+00  0.00000000000E+00  0.12318295541E+03  0.12318295543E+03  0.25500000000E-02 0.  1.
         -2   -1    0    0  501    0 -0.00000000000E+00 -0.00000000000E+00 -0.60459315357E+01  0.60459320735E+01  0.25500000000E-02 0.  1.
          2    1    1    2    0  502 -0.13418380426E+02 -0.22694156373E+02  0.75256541846E+02  0.79740985471E+02  0.25500000000E-02 0. -1.
         -2    1    1    2  502    0  0.13418380426E+02  0.22694156373E+02  0.41880482024E+02  0.49487902034E+02  0.25500000000E-02 0. -1.
<mgrwt>
<rscale>  0 0.54580427E+02</rscale>
<asrwt>0</asrwt>
<pdfrwt beam="1">  1        2 0.18951223E-01 0.54580427E+02</pdfrwt>
<pdfrwt beam="2">  1       -2 0.93014338E-03 0.54580427E+02</pdfrwt>
<totfact> 0.50728953E+05</totfact>
</mgrwt>
</event>
<event>
 4    1  0.2196664E-002  0.4969344E+02  0.7818608E-02  0.1447002E+00
          2   -1    0    0    0  501  0.00000000000E+00  0.00000000000E+00  0.31577549720E+02  0.31577549823E+02  0.25500000000E-02 0.  1.
         -2   -1    0    0  501    0 -0.00000000000E+00 -0.00000000000E+00 -0.19550580697E+02  0.19550580864E+02  0.25500000000E-02 0.  1.
          2    1    1    2    0  502 -0.22360659916E+02  0.54764230639E+00  0.17145297284E+02  0.28182623182E+02  0.25500000000E-02 0.  1.
         -2    1    1    2  502    0  0.22360659916E+02 -0.54764230639E+00 -0.51183282607E+01  0.22945507505E+02  0.25500000000E-02 0.  1.
<mgrwt>
<rscale>  0 0.49693438E+02</rscale>
<asrwt>0</asrwt>
<pdfrwt beam="1">  1        2 0.48580846E-02 0.49693438E+02</pdfrwt>
<pdfrwt beam="2">  1       -2 0.30077817E-02 0.49693438E+02</pdfrwt>
<totfact> 0.48101901E+05</totfact>
</mgrwt>
</event>
<event>
 4    1  0.2196664E-002  0.4486117E+02  0.7818608E-02  0.1475210E+00
         -2   -1    0    0  501    0 -0.00000000000E+00  0.00000000000E+00  0.35476578527E+01  0.35476587692E+01  0.25500000000E-02 0. -1.
          2   -1    0    0    0  501  0.00000000000E+00 -0.00000000000E+00 -0.14182062650E+03  0.14182062652E+03  0.25500000000E-02 0. -1.
          2    1    1    2    0  502 -0.21041037028E+02 -0.69332060418E+01 -0.57755084222E+02  0.61858260122E+02  0.25500000000E-02 0. -1.
         -2    1    1    2  502    0  0.21041037028E+02  0.69332060418E+01 -0.80517884426E+02  0.83510025172E+02  0.25500000000E-02 0. -1.
<mgrwt>
<rscale>  0 0.44861169E+02</rscale>
<asrwt>0</asrwt>
<pdfrwt beam="2">  1        2 0.21818554E-01 0.44861169E+02</pdfrwt>
<pdfrwt beam="1">  1       -2 0.54579370E-03 0.44861169E+02</pdfrwt>
<totfact> 0.86588697E+05</totfact>
</mgrwt>
</event>
<event>
 4    1  0.2196664E-002  0.5542264E+02  0.7818608E-02  0.1418111E+00
          2   -1    0    0    0  501  0.00000000000E+00  0.00000000000E+00  0.13674433553E+04  0.13674433554E+04  0.25500000000E-02 0. -1.
         -2   -1    0    0  501    0 -0.00000000000E+00 -0.00000000000E+00 -0.56156862679E+00  0.56157441634E+00  0.25500000000E-02 0. -1.
          2    1    1    2    0  502  0.86158441719E+01 -0.26299672774E+02  0.64843184574E+03  0.64902215997E+03  0.25500000000E-02 0.  1.
         -2    1    1    2  502    0 -0.86158441719E+01  0.26299672774E+02  0.71844994098E+03  0.71898276980E+03  0.25500000000E-02 0.  1.
<mgrwt>
<rscale>  0 0.55422640E+02</rscale>
<asrwt>0</asrwt>
<pdfrwt beam="1">  1        2 0.21037641E+00 0.55422640E+02</pdfrwt>
<pdfrwt beam="2">  1       -2 0.86395411E-04 0.55422640E+02</pdfrwt>
<totfact> 0.87226756E+05</totfact>
</mgrwt>
</event>
<event>
 4    1  0.2196664E-002  0.4866847E+02  0.7818608E-02  0.1452659E+00
         -2   -1    0    0  501    0 -0.00000000000E+00  0.00000000000E+00  0.85352650583E+00  0.85353031502E+00  0.25500000000E-02 0.  1.
          2   -1    0    0    0  501  0.00000000000E+00 -0.00000000000E+00 -0.69377300529E+03  0.69377300530E+03  0.25500000000E-02 0.  1.
          2    1    1    2    0  502  0.19974689213E+02 -0.13825889273E+02 -0.36670243913E+03  0.36750622076E+03  0.25500000000E-02 0.  1.
         -2    1    1    2  502    0 -0.19974689213E+02  0.13825889273E+02 -0.32621703966E+03  0.32712031486E+03  0.25500000000E-02 0.  1.
<mgrwt>
<rscale>  0 0.48668469E+02</rscale>
<asrwt>0</asrwt>
<pdfrwt beam="2">  1        2 0.10673386E+00 0.48668469E+02</pdfrwt>
<pdfrwt beam="1">  1       -2 0.13131262E-03 0.48668469E+02</pdfrwt>
<totfact> 0.11737069E+06</totfact>
</mgrwt>
</event>
<event>
 4    1  0.2196664E-002  0.1745184E+03  0.7818608E-02  0.1173216E+00
         -2   -1    0    0  501    0 -0.00000000000E+00  0.00000000000E+00  0.24942625343E+01  0.24942638378E+01  0.25500000000E-02 0. -1.
          2   -1    0    0    0  501  0.00000000000E+00 -0.00000000000E+00 -0.30526707432E+04  0.30526707432E+04  0.25500000000E-02 0. -1.
          2    1    1    2    0  502 -0.27235106504E+02  0.78868155952E+02 -0.10780002456E+04  0.10812245218E+04  0.25500000000E-02 0. -1.
         -2    1    1    2  502    0  0.27235106504E+02 -0.78868155952E+02 -0.19721762351E+04  0.19739404852E+04  0.25500000000E-02 0. -1.
<mgrwt>
<rscale>  0 0.17451836E+03</rscale>
<asrwt>0</asrwt>
<pdfrwt beam="2">  1        2 0.46963866E+00 0.17451836E+03</pdfrwt>
<pdfrwt beam="1">  1       -2 0.38373524E-03 0.17451836E+03</pdfrwt>
<totfact> 0.16368598E+04</totfact>
</mgrwt>
</event>
<event>
 4    1  0.2196664E-002  0.5227518E+02  0.7818608E-02  0.1433442E+00
         -2   -1    0    0  501    0 -0.00000000000E+00  0.00000000000E+00  0.16950871654E+01  0.16950890835E+01  0.25500000000E-02 0.  1.
          2   -1    0    0    0  501  0.00000000000E+00 -0.00000000000E+00 -0.40303137332E+03  0.40303137333E+03  0.25500000000E-02 0.  1.
          2    1    1    2    0  502 -0.80531084578E+01 -0.24167229203E+02 -0.24598907256E+03  0.24730453159E+03  0.25500000000E-02 0. -1.
         -2    1    1    2  502    0  0.80531084578E+01  0.24167229203E+02 -0.15534721360E+03  0.15742193082E+03  0.25500000000E-02 0. -1.
<mgrwt>
<rscale>  0 0.52275183E+02</rscale>
<asrwt>0</asrwt>
<pdfrwt beam="2">  1        2 0.62004751E-01 0.52275183E+02</pdfrwt>
<pdfrwt beam="1">  1       -2 0.26078311E-03 0.52275183E+02</pdfrwt>
<totfact> 0.83842097E+05</totfact>
</mgrwt>
</event>
<event>
 4    1  0.2196664E-002  0.4599638E+02  0.7818608E-02  0.1468216E+00
          2   -1    0    0    0  501  0.00000000000E+00  0.00000000000E+00  0.55603182591E+01  0.55603188439E+01  0.25500000000E-02 0.  1.
         -2   -1    0    0  501    0 -0.00000000000E+00 -0.00000000000E+00 -0.95123475603E+02  0.95123475637E+02  0.25500000000E-02 0.  1.
          2    1    1    2    0  502  0.79905003180E+01 -0.21194382432E+02 -0.36062277735E+02  0.42585652795E+02  0.25500000000E-02 0. -1.
         -2    1    1    2  502    0 -0.79905003180E+01  0.21194382432E+02 -0.53500879609E+02  0.58098141687E+02  0.25500000000E-02 0. -1.
<mgrwt>
<rscale>  0 0.45996384E+02</rscale>
<asrwt>0</asrwt>
<pdfrwt beam="1">  1        2 0.85543369E-03 0.45996384E+02</pdfrwt>
<pdfrwt beam="2">  1       -2 0.14634380E-01 0.45996384E+02</pdfrwt>
<totfact> 0.43773286E+05</totfact>
</mgrwt>
</event>
<event>
 4    1  0.2196664E-002  0.5022491E+02  0.7818608E-02  0.1444132E+00
          2   -1    0    0    0  501  0.00000000000E+00  0.00000000000E+00  0.99552641204E+03  0.99552641204E+03  0.25500000000E-02 0. -1.
         -2   -1    0    0  501    0 -0.00000000000E+00 -0.00000000000E+00 -0.63346659716E+00  0.63347172961E+00  0.25500000000E-02 0. -1.
          2    1    1    2    0  502 -0.22854752234E+02 -0.76203127009E+01  0.35688185744E+03  0.35769409982E+03  0.25500000000E-02 0.  1.
         -2    1    1    2  502    0  0.22854752234E+02  0.76203127009E+01  0.63801108800E+03  0.63846578396E+03  0.25500000000E-02 0.  1.
<mgrwt>
<rscale>  0 0.50224906E+02</rscale>
<asrwt>0</asrwt>
<pdfrwt beam="1">  1        2 0.15315830E+00 0.50224906E+02</pdfrwt>
<pdfrwt beam="2">  1       -2 0.97456548E-04 0.50224906E+02</pdfrwt>
<totfact> 0.11448022E+06</totfact>
</mgrwt>
</event>
<event>
 4    1  0.2196664E-002  0.6087999E+02  0.7818608E-02  0.1394176E+00
          2   -1    0    0    0  501  0.00000000000E+00  0.00000000000E+00  0.22732355492E+03  0.22732355493E+03  0.25500000000E-02 0. -1.
         -2   -1    0    0  501    0 -0.00000000000E+00 -0.00000000000E+00 -0.40760983810E+01  0.40760991787E+01  0.25500000000E-02 0. -1.
          2    1    1    2    0  502 -0.14888463587E+02  0.26410046391E+02  0.12198870753E+03  0.12569964865E+03  0.25500000000E-02 0.  1.
         -2    1    1    2  502    0  0.14888463587E+02 -0.26410046391E+02  0.10125874900E+03  0.10570000546E+03  0.25500000000E-02 0.  1.
<mgrwt>
<rscale>  0 0.60879989E+02</rscale>
<asrwt>0</asrwt>
<pdfrwt beam="1">  1        2 0.34972846E-01 0.60879989E+02</pdfrwt>
<pdfrwt beam="2">  1       -2 0.62709227E-03 0.60879989E+02</pdfrwt>
<totfact> 0.46711766E+05</totfact>
</mgrwt>
</event>
<event>
 4    1  0.2196664E-002  0.4647397E+02  0.7818608E-02  0.1465344E+00
          2   -1    0    0    0  501  0.00000000000E+00  0.00000000000E+00  0.13452778049E+03  0.13452778052E+03  0.25500000000E-02 0.  1.
         -2   -1    0    0  501    0 -0.00000000000E+00 -0.00000000000E+00 -0.40137238980E+01  0.40137247080E+01  0.25500000000E-02 0.  1.
          2    1    1    2    0  502 -0.22306028731E+02 -0.60436547090E+01  0.58032816161E+02  0.62465129777E+02  0.25500000000E-02 0.  1.
         -2    1    1    2  502    0  0.22306028731E+02  0.60436547090E+01  0.72481240432E+02  0.76076375446E+02  0.25500000000E-02 0.  1.
<mgrwt>
<rscale>  0 0.46473968E+02</rscale>
<asrwt>0</asrwt>
<pdfrwt beam="1">  1        2 0.20696581E-01 0.46473968E+02</pdfrwt>
<pdfrwt beam="2">  1       -2 0.61749607E-03 0.46473968E+02</pdfrwt>
<totfact> 0.78081739E+05</totfact>
</mgrwt>
</event>
<event>
 4    1  0.2196664E-002  0.6406799E+02  0.7818608E-02  0.1381512E+00
         -2   -1    0    0  501    0 -0.00000000000E+00  0.00000000000E+00  0.39704507306E+02  0.39704507388E+02  0.25500000000E-02 0. -1.
          2   -1    0    0    0  501  0.00000000000E+00 -0.00000000000E+00 -0.25845348119E+02  0.25845348245E+02  0.25500000000E-02 0. -1.
          2    1    1    2    0  502  0.24394859382E+01  0.29504279940E+02  0.19448739172E+02  0.35421844790E+02  0.25500000000E-02 0.  1.
         -2    1    1    2  502    0 -0.24394859382E+01 -0.29504279940E+02 -0.55895799853E+01  0.30128010843E+02  0.25500000000E-02 0.  1.
<mgrwt>
<rscale>  0 0.64067990E+02</rscale>
<asrwt>0</asrwt>
<pdfrwt beam="2">  1        2 0.39762075E-02 0.64067990E+02</pdfrwt>
<pdfrwt beam="1">  1       -2 0.61083857E-02 0.64067990E+02</pdfrwt>
<totfact> 0.23482878E+05</totfact>
</mgrwt>
</event>
<event>
 4    1  0.2196664E-002  0.1095056E+03  0.7818608E-02  0.1261488E+00
         -2   -1    0    0  501    0 -0.00000000000E+00  0.00000000000E+00  0.28917943477E+02  0.28917943590E+02  0.25500000000E-02 0. -1.
          2   -1    0    0    0  501  0.00000000000E+00 -0.00000000000E+00 -0.10366807521E+03  0.10366807524E+03  0.25500000000E-02 0. -1.
          2    1    1    2    0  502 -0.45830411450E+02 -0.29105008821E+02 -0.45965507464E+02  0.71136179508E+02  0.25500000000E-02 0.  1.
         -2    1    1    2  502    0  0.45830411450E+02  0.29105008821E+02 -0.28784624271E+02  0.61449839325E+02  0.25500000000E-02 0.  1.
<mgrwt>
<rscale>  0 0.10950557E+03</rscale>
<asrwt>0</asrwt>
<pdfrwt beam="2">  1        2 0.15948934E-01 0.10950557E+03</pdfrwt>
<pdfrwt beam="1">  1       -2 0.44489144E-02 0.10950557E+03</pdfrwt>
<totfact> 0.74426427E+04</totfact>
</mgrwt>
</event>
<event>
 4    1  0.2196664E-002  0.7002804E+02  0.7818608E-02  0.1359998E+00
         -2   -1    0    0  501    0 -0.00000000000E+00  0.00000000000E+00  0.34676885615E+01  0.34676894990E+01  0.25500000000E-02 0.  1.
          2   -1    0    0    0  501  0.00000000000E+00 -0.00000000000E+00 -0.35354428740E+03  0.35354428740E+03  0.25500000000E-02 0.  1.
          2    1    1    2    0  502  0.18024367631E+02  0.15925782873E+02 -0.45313884016E+02  0.51301622584E+02  0.25500000000E-02 0.  1.
         -2    1    1    2  502    0 -0.18024367631E+02 -0.15925782873E+02 -0.30476271482E+03  0.30571035432E+03  0.25500000000E-02 0.  1.
<mgrwt>
<rscale>  0 0.70028042E+02</rscale>
<asrwt>0</asrwt>
<pdfrwt beam="2">  1        2 0.54391401E-01 0.70028042E+02</pdfrwt>
<pdfrwt beam="1">  1       -2 0.53349090E-03 0.70028042E+02</pdfrwt>
<totfact> 0.38130720E+05</totfact>
</mgrwt>
</event>
<event>
 4    1  0.2196664E-002  0.8712083E+02  0.7818608E-02  0.1309978E+00
          2   -1    0    0    0  501  0.00000000000E+00  0.00000000000E+00  0.41999026493E+02  0.41999026571E+02  0.25500000000E-02 0. -1.
         -2   -1    0    0  501    0 -0.00000000000E+00 -0.00000000000E+00 -0.45179849179E+02  0.45179849251E+02  0.25500000000E-02 0. -1.
          2    1    1    2    0  502  0.31485437151E+02 -0.30028385377E+02  0.52594502202E+00  0.43512220187E+02  0.25500000000E-02 0.  1.
         -2    1    1    2  502    0 -0.31485437151E+02  0.30028385377E+02 -0.37067677077E+01  0.43666655634E+02  0.25500000000E-02 0.  1.
<mgrwt>
<rscale>  0 0.87120828E+02</rscale>
<asrwt>0</asrwt>
<pdfrwt beam="1">  1        2 0.64613887E-02 0.87120828E+02</pdfrwt>
<pdfrwt beam="2">  1       -2 0.69507460E-02 0.87120828E+02</pdfrwt>
<totfact> 0.11007792E+05</totfact>
</mgrwt>
</event>
<event>
 4    1  0.2196664E-002  0.8204671E+02  0.7818608E-02  0.1323341E+00
         -2   -1    0    0  501    0 -0.00000000000E+00  0.00000000000E+00  0.82974681673E+02  0.82974681713E+02  0.25500000000E-02 0.  1.
          2   -1    0    0    0  501  0.00000000000E+00 -0.00000000000E+00 -0.20282278823E+02  0.20282278984E+02  0.25500000000E-02 0.  1.
          2    1    1    2    0  502  0.22386405874E+02  0.33596818412E+02  0.22182500780E+02  0.46064744900E+02  0.25500000000E-02 0.  1.
         -2    1    1    2  502    0 -0.22386405874E+02 -0.33596818412E+02  0.40509902070E+02  0.57192215796E+02  0.25500000000E-02 0.  1.
<mgrwt>
<rscale>  0 0.82046710E+02</rscale>
<asrwt>0</asrwt>
<pdfrwt beam="2">  1        2 0.31203506E-02 0.82046710E+02</pdfrwt>
<pdfrwt beam="1">  1       -2 0.12765336E-01 0.82046710E+02</pdfrwt>
<totfact> 0.10923594E+05</totfact>
</mgrwt>
</event>
<event>
 4    1  0.2196664E-002  0.8394580E+02  0.7818608E-02  0.1318213E+00
         -2   -1    0    0  501    0 -0.00000000000E+00  0.00000000000E+00  0.17454022295E+01  0.17454040922E+01  0.25500000000E-02 0.  1.
          2   -1    0    0    0  501  0.00000000000E+00 -0.00000000000E+00 -0.10093510344E+04  0.10093510345E+04  0.25500000000E-02 0.  1.
          2    1    1    2    0  502  0.13707251659E+02 -0.39489649110E+02 -0.45809133291E+03  0.45999455478E+03  0.25500000000E-02 0. -1.
         -2    1    1    2  502    0 -0.13707251659E+02  0.39489649110E+02 -0.54951429931E+03  0.55110188376E+03  0.25500000000E-02 0. -1.
<mgrwt>
<rscale>  0 0.83945804E+02</rscale>
<asrwt>0</asrwt>
<pdfrwt beam="2">  1        2 0.15528431E+00 0.83945804E+02</pdfrwt>
<pdfrwt beam="1">  1       -2 0.26852437E-03 0.83945804E+02</pdfrwt>
<totfact> 0.31061347E+05</totfact>
</mgrwt>
</event>
<event>
 4    1  0.2196664E-002  0.7051689E+02  0.7818608E-02  0.1358344E+00
          2   -1    0    0    0  501  0.00000000000E+00  0.00000000000E+00  0.22385035161E+01  0.22385049685E+01  0.25500000000E-02 0. -1.
         -2   -1    0    0  501    0 -0.00000000000E+00 -0.00000000000E+00 -0.55535203031E+03  0.55535203032E+03  0.25500000000E-02 0. -1.
          2    1    1    2    0  502 -0.10677112064E+02 -0.18366635786E+02 -0.54053420128E+02  0.58078449240E+02  0.25500000000E-02 0. -1.
         -2    1    1    2  502    0  0.10677112064E+02  0.18366635786E+02 -0.49906010667E+03  0.49951208605E+03  0.25500000000E-02 0. -1.
<mgrwt>
<rscale>  0 0.70516888E+02</rscale>
<asrwt>0</asrwt>
<pdfrwt beam="1">  1        2 0.34438571E-03 0.70516888E+02</pdfrwt>
<pdfrwt beam="2">  1       -2 0.85438664E-01 0.70516888E+02</pdfrwt>
<totfact> 0.64544153E+04</totfact>
</mgrwt>
</event>
<event>
 4    1  0.2196664E-002  0.4335629E+02  0.7818608E-02  0.1484872E+00
         -2   -1    0    0  501    0 -0.00000000000E+00  0.00000000000E+00  0.68689698423E+00  0.68690171746E+00  0.25500000000E-02 0. -1.
          2   -1    0    0    0  501  0.00000000000E+00 -0.00000000000E+00 -0.68414963855E+03  0.68414963856E+03  0.25500000000E-02 0. -1.
          2    1    1    2    0  502 -0.13275273816E+02 -0.14997423033E+02 -0.47273578998E+03  0.47315989129E+03  0.25500000000E-02 0. -1.
         -2    1    1    2  502    0  0.13275273816E+02  0.14997423033E+02 -0.21072695158E+03  0.21167664898E+03  0.25500000000E-02 0. -1.
<mgrwt>
<rscale>  0 0.43356289E+02</rscale>
<asrwt>0</asrwt>
<pdfrwt beam="2">  1        2 0.10525325E+00 0.43356289E+02</pdfrwt>
<pdfrwt beam="1">  1       -2 0.10567737E-03 0.43356289E+02</pdfrwt>
<totfact> 0.15516974E+06</totfact>
</mgrwt>
</event>
<event>
 4    1  0.2196664E-002  0.4688135E+02  0.7818608E-02  0.1462927E+00
          2   -1    0    0    0  501  0.00000000000E+00  0.00000000000E+00  0.24001193834E+04  0.24001193834E+04  0.25500000000E-02 0.  1.
         -2   -1    0    0  501    0 -0.00000000000E+00 -0.00000000000E+00 -0.22892536977E+00  0.22893957155E+00  0.25500000000E-02 0.  1.
          2    1    1    2    0  502 -0.20773991428E+02 -0.10510651562E+02  0.13395334107E+04  0.13397357168E+04  0.25500000000E-02 0. -1.
         -2    1    1    2  502    0  0.20773991428E+02  0.10510651562E+02  0.10603570474E+04  0.10606126062E+04  0.25500000000E-02 0. -1.
<mgrwt>
<rscale>  0 0.46881351E+02</rscale>
<asrwt>0</asrwt>
<pdfrwt beam="1">  1        2 0.36923377E+00 0.46881351E+02</pdfrwt>
<pdfrwt beam="2">  1       -2 0.35221846E-04 0.46881351E+02</pdfrwt>
<totfact> 0.87671943E+05</totfact>
</mgrwt>
</event>
<event>
 4    1  0.2196664E-002  0.9798683E+02  0.7818608E-02  0.1284587E+00
         -2   -1    0    0  501    0 -0.00000000000E+00  0.00000000000E+00  0.26252173062E+01  0.26252185447E+01  0.25500000000E-02 0.  1.
          2   -1    0    0    0  501  0.00000000000E+00 -0.00000000000E+00 -0.91434500801E+03  0.91434500802E+03  0.25500000000E-02 0.  1.
          2    1    1    2    0  502 -0.45141703783E+02 -0.83605161777E+01 -0.29576169724E+03  0.29930361376E+03  0.25500000000E-02 0.  1.
         -2    1    1    2  502    0  0.45141703783E+02  0.83605161777E+01 -0.61595809347E+03  0.61766661280E+03  0.25500000000E-02 0.  1.
<mgrwt>
<rscale>  0 0.97986834E+02</rscale>
<asrwt>0</asrwt>
<pdfrwt beam="2">  1        2 0.14066821E+00 0.97986834E+02</pdfrwt>
<pdfrwt beam="1">  1       -2 0.40388041E-03 0.97986834E+02</pdfrwt>
<totfact> 0.20530427E+05</totfact>
</mgrwt>
</event>
<event>
 4    1  0.2196664E-002  0.4329186E+02  0.7818608E-02  0.1485296E+00
         -2   -1    0    0  501    0 -0.00000000000E+00  0.00000000000E+00  0.55780403452E+00  0.55780986315E+00  0.25500000000E-02 0. -1.
          2   -1    0    0    0  501  0.00000000000E+00 -0.00000000000E+00 -0.83997936670E+03  0.83997936670E+03  0.25500000000E-02 0. -1.
          2    1    1    2    0  502  0.27922013314E+01  0.20276285480E+02 -0.55648007201E+03  0.55685635014E+03  0.25500000000E-02 0.  1.
         -2    1    1    2  502    0 -0.27922013314E+01 -0.20276285480E+02 -0.28294149065E+03  0.28368082642E+03  0.25500000000E-02 0.  1.
<mgrwt>
<rscale>  0 0.43291862E+02</rscale>
<asrwt>0</asrwt>
<pdfrwt beam="2">  1        2 0.12922658E+00 0.43291862E+02</pdfrwt>
<pdfrwt beam="1">  1       -2 0.85817126E-04 0.43291862E+02</pdfrwt>
<totfact> 0.16192229E+06</totfact>
</mgrwt>
</event>
<event>
 4    1  0.2196664E-002  0.1687480E+03  0.7818608E-02  0.1179160E+00
         -2   -1    0    0  501    0 -0.00000000000E+00  0.00000000000E+00  0.77277178515E+02  0.77277178557E+02  0.25500000000E-02 0.  1.
          2   -1    0    0    0  501  0.00000000000E+00 -0.00000000000E+00 -0.92122530800E+02  0.92122530836E+02  0.25500000000E-02 0.  1.
          2    1    1    2    0  502  0.17332906332E+02  0.81316177725E+02  0.69931087484E+01  0.83436526642E+02  0.25500000000E-02 0.  1.
         -2    1    1    2  502    0 -0.17332906332E+02 -0.81316177725E+02 -0.21838461034E+02  0.85963182750E+02  0.25500000000E-02 0.  1.
<mgrwt>
<rscale>  0 0.16874797E+03</rscale>
<asrwt>0</asrwt>
<pdfrwt beam="2">  1        2 0.14172697E-01 0.16874797E+03</pdfrwt>
<pdfrwt beam="1">  1       -2 0.11888797E-01 0.16874797E+03</pdfrwt>
<totfact> 0.19816340E+04</totfact>
</mgrwt>
</event>
<event>
 4    1  0.2196664E-002  0.4876857E+02  0.7818608E-02  0.1452099E+00
          2   -1    0    0    0  501  0.00000000000E+00  0.00000000000E+00  0.18907561025E+03  0.18907561026E+03  0.25500000000E-02 0. -1.
         -2   -1    0    0  501    0 -0.00000000000E+00 -0.00000000000E+00 -0.31447381350E+01  0.31447391689E+01  0.25500000000E-02 0. -1.
          2    1    1    2    0  502 -0.15699743978E+02 -0.18588415166E+02  0.86631737489E+02  0.89983715672E+02  0.25500000000E-02 0.  1.
         -2    1    1    2  502    0  0.15699743978E+02  0.18588415166E+02  0.99299134622E+02  0.10223663376E+03  0.25500000000E-02 0.  1.
<mgrwt>
<rscale>  0 0.48768571E+02</rscale>
<asrwt>0</asrwt>
<pdfrwt beam="1">  1        2 0.29088556E-01 0.48768571E+02</pdfrwt>
<pdfrwt beam="2">  1       -2 0.48380594E-03 0.48768571E+02</pdfrwt>
<totfact> 0.76916489E+05</totfact>
</mgrwt>
</event>
<event>
 4    1  0.2196664E-002  0.5057312E+02  0.7818608E-02  0.1442275E+00
         -2   -1    0    0  501    0 -0.00000000000E+00  0.00000000000E+00  0.30657068857E+02  0.30657068963E+02  0.25500000000E-02 0. -1.
          2   -1    0    0    0  501  0.00000000000E+00 -0.00000000000E+00 -0.20856861205E+02  0.20856861361E+02  0.25500000000E-02 0. -1.
          2    1    1    2    0  502  0.22461417463E+02 -0.11540767235E+02  0.62304036755E+01  0.26010046507E+02  0.25500000000E-02 0. -1.
         -2    1    1    2  502    0 -0.22461417463E+02  0.11540767235E+02  0.35698039768E+01  0.25503883817E+02  0.25500000000E-02 0. -1.
<mgrwt>
<rscale>  0 0.50573125E+02</rscale>
<asrwt>0</asrwt>
<pdfrwt beam="2">  1        2 0.32087479E-02 0.50573125E+02</pdfrwt>
<pdfrwt beam="1">  1       -2 0.47164721E-02 0.50573125E+02</pdfrwt>
<totfact> 0.43000072E+05</totfact>
</mgrwt>
</event>
<event>
 4    1  0.2196664E-002  0.6251801E+02  0.7818608E-02  0.1387559E+00
         -2   -1    0    0  501    0 -0.00000000000E+00  0.00000000000E+00  0.86616821428E+01  0.86616825181E+01  0.25500000000E-02 0.  1.
          2   -1    0    0    0  501  0.00000000000E+00 -0.00000000000E+00 -0.11281009857E+03  0.11281009859E+03  0.25500000000E-02 0.  1.
          2    1    1    2    0  502  0.28415237934E+02  0.48337969090E+01 -0.75578261006E+02  0.80887977368E+02  0.25500000000E-02 0.  1.
         -2    1    1    2  502    0 -0.28415237934E+02 -0.48337969090E+01 -0.28570155417E+02  0.40583803745E+02  0.25500000000E-02 0.  1.
<mgrwt>
<rscale>  0 0.62518005E+02</rscale>
<asrwt>0</asrwt>
<pdfrwt beam="2">  1        2 0.17355399E-01 0.62518005E+02</pdfrwt>
<pdfrwt beam="1">  1       -2 0.13325666E-02 0.62518005E+02</pdfrwt>
<totfact> 0.34866940E+05</totfact>
</mgrwt>
</event>
<event>
 4    1  0.2196664E-002  0.4738967E+02  0.7818608E-02  0.1459952E+00
          2   -1    0    0    0  501  0.00000000000E+00  0.00000000000E+00  0.71913916046E+01  0.71913920567E+01  0.25500000000E-02 0. -1.
         -2   -1    0    0  501    0 -0.00000000000E+00 -0.00000000000E+00 -0.78071830121E+02  0.78071830163E+02  0.25500000000E-02 0. -1.
          2    1    1    2    0  502 -0.23628112451E+02  0.10384867260E+01 -0.32846029520E+02  0.40475027046E+02  0.25500000000E-02 0.  1.
         -2    1    1    2  502    0  0.23628112451E+02 -0.10384867260E+01 -0.38034408997E+02  0.44788195173E+02  0.25500000000E-02 0.  1.
<mgrwt>
<rscale>  0 0.47389667E+02</rscale>
<asrwt>0</asrwt>
<pdfrwt beam="1">  1        2 0.11063680E-02 0.47389667E+02</pdfrwt>
<pdfrwt beam="2">  1       -2 0.12011050E-01 0.47389667E+02</pdfrwt>
<totfact> 0.42591166E+05</totfact>
</mgrwt>
</event>
<event>
 4    1  0.2196664E-002  0.5251452E+02  0.7818608E-02  0.1432232E+00
          2   -1    0    0    0  501  0.00000000000E+00  0.00000000000E+00  0.11304155472E+04  0.11304155472E+04  0.25500000000E-02 0.  1.
         -2   -1    0    0  501    0 -0.00000000000E+00 -0.00000000000E+00 -0.60990012352E+00  0.60990545429E+00  0.25500000000E-02 0.  1.
          2    1    1    2    0  502  0.75525217815E+01 -0.20723467297E+02  0.87171868838E+03  0.87199769172E+03  0.25500000000E-02 0. -1.
         -2    1    1    2  502    0 -0.75525217815E+01  0.20723467297E+02  0.25808695870E+03  0.25902776094E+03  0.25500000000E-02 0. -1.
<mgrwt>
<rscale>  0 0.52514516E+02</rscale>
<asrwt>0</asrwt>
<pdfrwt beam="1">  1        2 0.17391019E+00 0.52514516E+02</pdfrwt>
<pdfrwt beam="2">  1       -2 0.93831142E-04 0.52514516E+02</pdfrwt>
<totfact> 0.10250616E+06</totfact>
</mgrwt>
</event>
<event>
 4    1  0.2196664E-002  0.4804094E+02  0.7818608E-02  0.1456204E+00
          2   -1    0    0    0  501  0.00000000000E+00  0.00000000000E+00  0.49474627694E+02  0.49474627759E+02  0.25500000000E-02 0.  1.
         -2   -1    0    0  501    0 -0.00000000000E+00 -0.00000000000E+00 -0.11662197407E+02  0.11662197686E+02  0.25500000000E-02 0.  1.
          2    1    1    2    0  502 -0.16921109300E+02  0.16992231485E+02  0.20670960214E+02  0.31659887451E+02  0.25500000000E-02 0.  1.
         -2    1    1    2  502    0  0.16921109300E+02 -0.16992231485E+02  0.17141470072E+02  0.29476937994E+02  0.25500000000E-02 0.  1.
<mgrwt>
<rscale>  0 0.48040936E+02</rscale>
<asrwt>0</asrwt>
<pdfrwt beam="1">  1        2 0.76114810E-02 0.48040936E+02</pdfrwt>
<pdfrwt beam="2">  1       -2 0.17941843E-02 0.48040936E+02</pdfrwt>
<totfact> 0.56723723E+05</totfact>
</mgrwt>
</event>
<event>
 4    1  0.2196664E-002  0.5919398E+02  0.7818608E-02  0.1401246E+00
         -2   -1    0    0  501    0 -0.00000000000E+00  0.00000000000E+00  0.11730485843E+02  0.11730486120E+02  0.25500000000E-02 0. -1.
          2   -1    0    0    0  501  0.00000000000E+00 -0.00000000000E+00 -0.74675666337E+02  0.74675666380E+02  0.25500000000E-02 0. -1.
          2    1    1    2    0  502 -0.14356591507E+02 -0.14402068080E+02 -0.81978868628E-01  0.20335634038E+02  0.25500000000E-02 0. -1.
         -2    1    1    2  502    0  0.14356591507E+02  0.14402068080E+02 -0.62863201625E+02  0.66070518462E+02  0.25500000000E-02 0. -1.
<mgrwt>
<rscale>  0 0.59193981E+02</rscale>
<asrwt>0</asrwt>
<pdfrwt beam="2">  1        2 0.11488564E-01 0.59193981E+02</pdfrwt>
<pdfrwt beam="1">  1       -2 0.18046902E-02 0.59193981E+02</pdfrwt>
<totfact> 0.36082814E+05</totfact>
</mgrwt>
</event>
<event>
 4    1  0.2196664E-002  0.7542290E+02  0.7818608E-02  0.1342566E+00
          2   -1    0    0    0  501  0.00000000000E+00  0.00000000000E+00  0.11316079936E+03  0.11316079939E+03  0.25500000000E-02 0. -1.
         -2   -1    0    0  501    0 -0.00000000000E+00 -0.00000000000E+00 -0.12567544264E+02  0.12567544522E+02  0.25500000000E-02 0. -1.
          2    1    1    2    0  502 -0.75965529474E+01  0.25306824882E+02  0.54425041858E+01  0.26977098817E+02  0.25500000000E-02 0.  1.
         -2    1    1    2  502    0  0.75965529474E+01 -0.25306824882E+02  0.95150750912E+02  0.98751245095E+02  0.25500000000E-02 0.  1.
<mgrwt>
<rscale>  0 0.75422898E+02</rscale>
<asrwt>0</asrwt>
<pdfrwt beam="1">  1        2 0.17409353E-01 0.75422898E+02</pdfrwt>
<pdfrwt beam="2">  1       -2 0.19334684E-02 0.75422898E+02</pdfrwt>
<totfact> 0.21286052E+05</totfact>
</mgrwt>
</event>
<event>
 4    1  0.2196664E-002  0.5874440E+02  0.7818608E-02  0.1403178E+00
         -2   -1    0    0  501    0 -0.00000000000E+00  0.00000000000E+00  0.40518595962E+00  0.40519398364E+00  0.25500000000E-02 0.  1.
          2   -1    0    0    0  501  0.00000000000E+00 -0.00000000000E+00 -0.21291889007E+04  0.21291889007E+04  0.25500000000E-02 0.  1.
          2    1    1    2    0  502 -0.24194618173E+02 -0.14064231584E+02 -0.13877126549E+04  0.13879948107E+04  0.25500000000E-02 0.  1.
         -2    1    1    2  502    0  0.24194618173E+02  0.14064231584E+02 -0.74107105984E+03  0.74159928391E+03  0.25500000000E-02 0.  1.
<mgrwt>
<rscale>  0 0.58744395E+02</rscale>
<asrwt>0</asrwt>
<pdfrwt beam="2">  1        2 0.32755857E+00 0.58744395E+02</pdfrwt>
<pdfrwt beam="1">  1       -2 0.62338624E-04 0.58744395E+02</pdfrwt>
<totfact> 0.57705892E+05</totfact>
</mgrwt>
</event>
<event>
 4    1  0.2196664E-002  0.7334729E+02  0.7818608E-02  0.1349067E+00
          2   -1    0    0    0  501  0.00000000000E+00  0.00000000000E+00  0.56656317890E+03  0.56656317890E+03  0.25500000000E-02 0.  1.
         -2   -1    0    0  501    0 -0.00000000000E+00 -0.00000000000E+00 -0.23738849478E+01  0.23738863174E+01  0.25500000000E-02 0.  1.
          2    1    1    2    0  502 -0.21365617141E+02  0.89820161292E+01  0.61634855067E+02  0.65848474358E+02  0.25500000000E-02 0. -1.
         -2    1    1    2  502    0  0.21365617141E+02 -0.89820161292E+01  0.50255443888E+03  0.50308859086E+03  0.25500000000E-02 0. -1.
<mgrwt>
<rscale>  0 0.73347289E+02</rscale>
<asrwt>0</asrwt>
<pdfrwt beam="1">  1        2 0.87163626E-01 0.73347289E+02</pdfrwt>
<pdfrwt beam="2">  1       -2 0.36521292E-03 0.73347289E+02</pdfrwt>
<totfact> 0.39565346E+05</totfact>
</mgrwt>
</event>
<event>
 4    1  0.2196664E-002  0.5322336E+02  0.7818608E-02  0.1428692E+00
          2   -1    0    0    0  501  0.00000000000E+00  0.00000000000E+00  0.94094561026E+01  0.94094564481E+01  0.25500000000E-02 0. -1.
         -2   -1    0    0  501    0 -0.00000000000E+00 -0.00000000000E+00 -0.75262751791E+02  0.75262751834E+02  0.25500000000E-02 0. -1.
          2    1    1    2    0  502  0.25768099948E+02 -0.66422874066E+01 -0.33337244498E+02  0.42655443194E+02  0.25500000000E-02 0. -1.
         -2    1    1    2  502    0 -0.25768099948E+02  0.66422874066E+01 -0.32516051191E+02  0.42016765088E+02  0.25500000000E-02 0. -1.
<mgrwt>
<rscale>  0 0.53223362E+02</rscale>
<asrwt>0</asrwt>
<pdfrwt beam="1">  1        2 0.14476087E-02 0.53223362E+02</pdfrwt>
<pdfrwt beam="2">  1       -2 0.11578885E-01 0.53223362E+02</pdfrwt>
<totfact> 0.32385261E+05</totfact>
</mgrwt>
</event>
<event>
 4    1  0.2196664E-002  0.6287208E+02  0.7818608E-02  0.1386159E+00
          2   -1    0    0    0  501  0.00000000000E+00  0.00000000000E+00  0.81225416160E+03  0.81225416161E+03  0.25500000000E-02 0.  1.
         -2   -1    0    0  501    0 -0.00000000000E+00 -0.00000000000E+00 -0.12166433866E+01  0.12166460590E+01  0.25500000000E-02 0.  1.
          2    1    1    2    0  502 -0.47563039115E+01  0.20488464234E+02  0.70779978223E+03  0.70811223074E+03  0.25500000000E-02 0. -1.
         -2    1    1    2  502    0  0.47563039115E+01 -0.20488464234E+02  0.10323773599E+03  0.10535857693E+03  0.25500000000E-02 0. -1.
<mgrwt>
<rscale>  0 0.62872084E+02</rscale>
<asrwt>0</asrwt>
<pdfrwt beam="1">  1        2 0.12496209E+00 0.62872084E+02</pdfrwt>
<pdfrwt beam="2">  1       -2 0.18717625E-03 0.62872084E+02</pdfrwt>
<totfact> 0.63871259E+05</totfact>
</mgrwt>
</event>
<event>
 4    1  0.2196664E-002  0.6631981E+02  0.7818608E-02  0.1373075E+00
         -2   -1    0    0  501    0 -0.00000000000E+00  0.00000000000E+00  0.89362933311E+01  0.89362936949E+01  0.25500000000E-02 0.  1.
          2   -1    0    0    0  501  0.00000000000E+00 -0.00000000000E+00 -0.12304646916E+03  0.12304646919E+03  0.25500000000E-02 0.  1.
          2    1    1    2    0  502 -0.18249771040E+02  0.13710424973E+02 -0.10492296607E+03  0.10737717966E+03  0.25500000000E-02 0.  1.
         -2    1    1    2  502    0  0.18249771040E+02 -0.13710424973E+02 -0.91872097548E+01  0.24605583219E+02  0.25500000000E-02 0.  1.
<mgrwt>
<rscale>  0 0.66319812E+02</rscale>
<asrwt>0</asrwt>
<pdfrwt beam="2">  1        2 0.18930225E-01 0.66319812E+02</pdfrwt>
<pdfrwt beam="1">  1       -2 0.13748145E-02 0.66319812E+02</pdfrwt>
<totfact> 0.30653154E+05</totfact>
</mgrwt>
</event>
<event>
 4    1  0.2196664E-002  0.5698344E+02  0.7818608E-02  0.1410945E+00
         -2   -1    0    0  501    0 -0.00000000000E+00  0.00000000000E+00  0.11406736486E+02  0.11406736771E+02  0.25500000000E-02 0.  1.
          2   -1    0    0    0  501  0.00000000000E+00 -0.00000000000E+00 -0.71166539468E+02  0.71166539514E+02  0.25500000000E-02 0.  1.
          2    1    1    2    0  502  0.20929209821E+02 -0.19022468087E+02 -0.24882828814E+02  0.37670164482E+02  0.25500000000E-02 0.  1.
         -2    1    1    2  502    0 -0.20929209821E+02  0.19022468087E+02 -0.34876974169E+02  0.44903111802E+02  0.25500000000E-02 0.  1.
<mgrwt>
<rscale>  0 0.56983435E+02</rscale>
<asrwt>0</asrwt>
<pdfrwt beam="2">  1        2 0.10948698E-01 0.56983435E+02</pdfrwt>
<pdfrwt beam="1">  1       -2 0.17548826E-02 0.56983435E+02</pdfrwt>
<totfact> 0.39393780E+05</totfact>
</mgrwt>
</event>
<event>
 4    1  0.2196664E-002  0.5525351E+02  0.7818608E-02  0.1418904E+00
          2   -1    0    0    0  501  0.00000000000E+00  0.00000000000E+00  0.33421610155E+03  0.33421610156E+03  0.25500000000E-02 0.  1.
         -2   -1    0    0  501    0 -0.00000000000E+00 -0.00000000000E+00 -0.22836642060E+01  0.22836656297E+01  0.25500000000E-02 0.  1.
          2    1    1    2    0  502  0.98693936326E+01  0.21024274349E+02  0.25707644073E+03  0.25812346159E+03  0.25500000000E-02 0.  1.
         -2    1    1    2  502    0 -0.98693936326E+01 -0.21024274349E+02  0.74855996621E+02  0.78376305598E+02  0.25500000000E-02 0.  1.
<mgrwt>
<rscale>  0 0.55253510E+02</rscale>
<asrwt>0</asrwt>
<pdfrwt beam="1">  1        2 0.51417831E-01 0.55253510E+02</pdfrwt>
<pdfrwt beam="2">  1       -2 0.35133328E-03 0.55253510E+02</pdfrwt>
<totfact> 0.68411088E+05</totfact>
</mgrwt>
</event>
<event>
 4    1  0.2196664E-002  0.5957460E+02  0.7818608E-02  0.1399626E+00
          2   -1    0    0    0  501  0.00000000000E+00  0.00000000000E+00  0.16486972710E+02  0.16486972907E+02  0.25500000000E-02 0.  1.
         -2   -1    0    0  501    0 -0.00000000000E+00 -0.00000000000E+00 -0.53817230125E+02  0.53817230185E+02  0.25500000000E-02 0.  1.
          2    1    1    2    0  502  0.71234704064E+00 -0.29524942088E+02 -0.14086453703E+02  0.32720908118E+02  0.25500000000E-02 0.  1.
         -2    1    1    2  502    0 -0.71234704064E+00  0.29524942088E+02 -0.23243803712E+02  0.37583294974E+02  0.25500000000E-02 0.  1.
<mgrwt>
<rscale>  0 0.59574599E+02</rscale>
<asrwt>0</asrwt>
<pdfrwt beam="1">  1        2 0.25364574E-02 0.59574599E+02</pdfrwt>
<pdfrwt beam="2">  1       -2 0.82795738E-02 0.59574599E+02</pdfrwt>
<totfact> 0.26367269E+05</totfact>
</mgrwt>
</event>
<event>
 4    1  0.2196664E-002  0.1232968E+03  0.7818608E-02  0.1237755E+00
         -2   -1    0    0  501    0 -0.00000000000E+00  0.00000000000E+00  0.33888671872E+01  0.33888681466E+01  0.25500000000E-02 0. -1.
          2   -1    0    0    0  501  0.00000000000E+00 -0.00000000000E+00 -0.11214736666E+04  0.11214736666E+04  0.25500000000E-02 0. -1.
          2    1    1    2    0  502 -0.53506267860E+02  0.26651899483E+01 -0.83733793877E+03  0.83904996731E+03  0.25500000000E-02 0. -1.
         -2    1    1    2  502    0  0.53506267860E+02 -0.26651899483E+01 -0.28074686069E+03  0.28581256748E+03  0.25500000000E-02 0. -1.
<mgrwt>
<rscale>  0 0.12329681E+03</rscale>
<asrwt>0</asrwt>
<pdfrwt beam="2">  1        2 0.17253411E+00 0.12329681E+03</pdfrwt>
<pdfrwt beam="1">  1       -2 0.52136515E-03 0.12329681E+03</pdfrwt>
<totfact> 0.11163429E+05</totfact>
</mgrwt>
</event>
<event>
 4    1  0.2196664E-002  0.6170755E+02  0.7818608E-02  0.1390802E+00
         -2   -1    0    0  501    0 -0.00000000000E+00  0.00000000000E+00  0.21867073332E+01  0.21867088200E+01  0.25500000000E-02 0. -1.
          2   -1    0    0    0  501  0.00000000000E+00 -0.00000000000E+00 -0.43533724438E+03  0.43533724438E+03  0.25500000000E-02 0. -1.
          2    1    1    2    0  502 -0.16920526434E+02 -0.18432601370E+02 -0.34457213661E+03  0.34547940943E+03  0.25500000000E-02 0.  1.
         -2    1    1    2  502    0  0.16920526434E+02  0.18432601370E+02 -0.88578400431E+02  0.92044543768E+02  0.25500000000E-02 0.  1.
<mgrwt>
<rscale>  0 0.61707551E+02</rscale>
<asrwt>0</asrwt>
<pdfrwt beam="2">  1        2 0.66974892E-01 0.61707551E+02</pdfrwt>
<pdfrwt beam="1">  1       -2 0.33641697E-03 0.61707551E+02</pdfrwt>
<totfact> 0.56673523E+05</totfact>
</mgrwt>
</event>
<event>
 4    1  0.2196664E-002  0.4191676E+02  0.7818608E-02  0.1494562E+00
         -2   -1    0    0  501    0 -0.00000000000E+00  0.00000000000E+00  0.20718014273E+00  0.20719583500E+00  0.25500000000E-02 0.  1.
          2   -1    0    0    0  501  0.00000000000E+00 -0.00000000000E+00 -0.21200732169E+04  0.21200732169E+04  0.25500000000E-02 0.  1.
          2    1    1    2    0  502  0.77993569507E+01 -0.19380008760E+02 -0.11451621091E+04  0.11453526404E+04  0.25500000000E-02 0. -1.
         -2    1    1    2  502    0 -0.77993569507E+01  0.19380008760E+02 -0.97470392764E+03  0.97492777234E+03  0.25500000000E-02 0. -1.
<mgrwt>
<rscale>  0 0.41916761E+02</rscale>
<asrwt>0</asrwt>
<pdfrwt beam="2">  1        2 0.32614774E+00 0.41916761E+02</pdfrwt>
<pdfrwt beam="1">  1       -2 0.31876773E-04 0.41916761E+02</pdfrwt>
<totfact> 0.13465556E+06</totfact>
</mgrwt>
</event>
<event>
 4    1  0.2196664E-002  0.7965800E+02  0.7818608E-02  0.1330025E+00
         -2   -1    0    0  501    0 -0.00000000000E+00  0.00000000000E+00  0.43548456238E+03  0.43548456239E+03  0.25500000000E-02 0. -1.
          2   -1    0    0    0  501  0.00000000000E+00 -0.00000000000E+00 -0.36427218265E+01  0.36427227190E+01  0.25500000000E-02 0. -1.
          2    1    1    2    0  502  0.36467706565E+02  0.12319084504E+02  0.15951486350E+03  0.16409340374E+03  0.25500000000E-02 0.  1.
         -2    1    1    2  502    0 -0.36467706565E+02 -0.12319084504E+02  0.27232697705E+03  0.27503388137E+03  0.25500000000E-02 0.  1.
<mgrwt>
<rscale>  0 0.79658002E+02</rscale>
<asrwt>0</asrwt>
<pdfrwt beam="2">  1        2 0.56041897E-03 0.79658002E+02</pdfrwt>
<pdfrwt beam="1">  1       -2 0.66997607E-01 0.79658002E+02</pdfrwt>
<totfact> 0.56983498E+04</totfact>
</mgrwt>
</event>
<event>
 4    1  0.2196664E-002  0.4699096E+02  0.7818608E-02  0.1462282E+00
         -2   -1    0    0  501    0 -0.00000000000E+00  0.00000000000E+00  0.57321507650E+00  0.57322074843E+00  0.25500000000E-02 0.  1.
          2   -1    0    0    0  501  0.00000000000E+00 -0.00000000000E+00 -0.96305008526E+03  0.96305008527E+03  0.25500000000E-02 0.  1.
          2    1    1    2    0  502 -0.20906247999E+02  0.21543149748E+01 -0.26584597351E+03  0.26667544679E+03  0.25500000000E-02 0. -1.
         -2    1    1    2  502    0  0.20906247999E+02 -0.21543149748E+01 -0.69663089667E+03  0.69694785923E+03  0.25500000000E-02 0. -1.
<mgrwt>
<rscale>  0 0.46990959E+02</rscale>
<asrwt>0</asrwt>
<pdfrwt beam="2">  1        2 0.14816026E+00 0.46990959E+02</pdfrwt>
<pdfrwt beam="1">  1       -2 0.88188142E-04 0.46990959E+02</pdfrwt>
<totfact> 0.13458481E+06</totfact>
</mgrwt>
</event>
<event>
 4    1  0.2196664E-002  0.6982382E+02  0.7818608E-02  0.1360693E+00
         -2   -1    0    0  501    0 -0.00000000000E+00  0.00000000000E+00  0.10143748355E+01  0.10143780407E+01  0.25500000000E-02 0.  1.
          2   -1    0    0    0  501  0.00000000000E+00 -0.00000000000E+00 -0.12015673473E+04  0.12015673473E+04  0.25500000000E-02 0.  1.
          2    1    1    2    0  502 -0.27467975650E+02  0.77478474989E+01 -0.94659449142E+03  0.94702463010E+03  0.25500000000E-02 0.  1.
         -2    1    1    2  502    0  0.27467975650E+02 -0.77478474989E+01 -0.25395848105E+03  0.25555709525E+03  0.25500000000E-02 0.  1.
<mgrwt>
<rscale>  0 0.69823824E+02</rscale>
<asrwt>0</asrwt>
<pdfrwt beam="2">  1        2 0.18485538E+00 0.69823824E+02</pdfrwt>
<pdfrwt beam="1">  1       -2 0.15605888E-03 0.69823824E+02</pdfrwt>
<totfact> 0.49727955E+05</totfact>
</mgrwt>
</event>
<event>
 4    1  0.2196664E-002  0.4470246E+02  0.7818608E-02  0.1476208E+00
          2   -1    0    0    0  501  0.00000000000E+00  0.00000000000E+00  0.81716883078E+02  0.81716883118E+02  0.25500000000E-02 0.  1.
         -2   -1    0    0  501    0 -0.00000000000E+00 -0.00000000000E+00 -0.61135168124E+01  0.61135173442E+01  0.25500000000E-02 0.  1.
          2    1    1    2    0  502  0.23822094289E+01 -0.22223845699E+02  0.37688511992E+02  0.43817783856E+02  0.25500000000E-02 0.  1.
         -2    1    1    2  502    0 -0.23822094289E+01  0.22223845699E+02  0.37914854274E+02  0.44012616606E+02  0.25500000000E-02 0.  1.
<mgrwt>
<rscale>  0 0.44702464E+02</rscale>
<asrwt>0</asrwt>
<pdfrwt beam="1">  1        2 0.12571829E-01 0.44702464E+02</pdfrwt>
<pdfrwt beam="2">  1       -2 0.94054102E-03 0.44702464E+02</pdfrwt>
<totfact> 0.75537826E+05</totfact>
</mgrwt>
</event>
<event>
 4    1  0.2196664E-002  0.5774612E+02  0.7818608E-02  0.1407541E+00
          2   -1    0    0    0  501  0.00000000000E+00  0.00000000000E+00  0.16444500978E+04  0.16444500978E+04  0.25500000000E-02 0. -1.
         -2   -1    0    0  501    0 -0.00000000000E+00 -0.00000000000E+00 -0.50694649946E+00  0.50695291282E+00  0.25500000000E-02 0. -1.
          2    1    1    2    0  502 -0.14185392717E+02  0.21247033590E+02  0.12052029831E+04  0.12054737211E+04  0.25500000000E-02 0.  1.
         -2    1    1    2  502    0  0.14185392717E+02 -0.21247033590E+02  0.43874016821E+03  0.43948332961E+03  0.25500000000E-02 0.  1.
<mgrwt>
<rscale>  0 0.57746117E+02</rscale>
<asrwt>0</asrwt>
<pdfrwt beam="1">  1        2 0.25299064E+00 0.57746117E+02</pdfrwt>
<pdfrwt beam="2">  1       -2 0.77992780E-04 0.57746117E+02</pdfrwt>
<totfact> 0.73494591E+05</totfact>
</mgrwt>
</event>
<event>
 4    1  0.2196664E-002  0.4436734E+02  0.7818608E-02  0.1478330E+00
          2   -1    0    0    0  501  0.00000000000E+00  0.00000000000E+00  0.20751666814E+04  0.20751666814E+04  0.25500000000E-02 0.  1.
         -2   -1    0    0  501    0 -0.00000000000E+00 -0.00000000000E+00 -0.23713800141E+00  0.23715171139E+00  0.25500000000E-02 0.  1.
          2    1    1    2    0  502 -0.21153624177E+02 -0.25423691449E+01  0.74844173489E+03  0.74874492986E+03  0.25500000000E-02 0.  1.
         -2    1    1    2  502    0  0.21153624177E+02  0.25423691449E+01  0.13264878085E+04  0.13266589032E+04  0.25500000000E-02 0.  1.
<mgrwt>
<rscale>  0 0.44367335E+02</rscale>
<asrwt>0</asrwt>
<pdfrwt beam="1">  1        2 0.31925719E+00 0.44367335E+02</pdfrwt>
<pdfrwt beam="2">  1       -2 0.36483735E-04 0.44367335E+02</pdfrwt>
<totfact> 0.11961408E+06</totfact>
</mgrwt>
</event>
<event>
 4    1  0.2196664E-002  0.4728205E+02  0.7818608E-02  0.1460578E+00
         -2   -1    0    0  501    0 -0.00000000000E+00  0.00000000000E+00  0.17469682126E+01  0.17469700737E+01  0.25500000000E-02 0.  1.
          2   -1    0    0    0  501  0.00000000000E+00 -0.00000000000E+00 -0.31992435952E+03  0.31992435953E+03  0.25500000000E-02 0.  1.
          2    1    1    2    0  502 -0.11923485793E+02 -0.19175249878E+02 -0.20672999634E+03  0.20795949393E+03  0.25500000000E-02 0. -1.
         -2    1    1    2  502    0  0.11923485793E+02  0.19175249878E+02 -0.11144739497E+03  0.11371183568E+03  0.25500000000E-02 0. -1.
<mgrwt>
<rscale>  0 0.47282047E+02</rscale>
<asrwt>0</asrwt>
<pdfrwt beam="2">  1        2 0.49219086E-01 0.47282047E+02</pdfrwt>
<pdfrwt beam="1">  1       -2 0.26876474E-03 0.47282047E+02</pdfrwt>
<totfact> 0.99365727E+05</totfact>
</mgrwt>
</event>
<event>
 4    1  0.2196664E-002  0.5107574E+02  0.7818608E-02  0.1439624E+00
          2   -1    0    0    0  501  0.00000000000E+00  0.00000000000E+00  0.64144835573E+02  0.64144835623E+02  0.25500000000E-02 0.  1.
         -2   -1    0    0  501    0 -0.00000000000E+00 -0.00000000000E+00 -0.10167347680E+02  0.10167348000E+02  0.25500000000E-02 0.  1.
          2    1    1    2    0  502  0.22851684320E+02 -0.10915137525E+02  0.31779709509E+02  0.40636063373E+02  0.25500000000E-02 0.  1.
         -2    1    1    2  502    0 -0.22851684320E+02  0.10915137525E+02  0.22197778384E+02  0.33676120251E+02  0.25500000000E-02 0.  1.
<mgrwt>
<rscale>  0 0.51075742E+02</rscale>
<asrwt>0</asrwt>
<pdfrwt beam="1">  1        2 0.98684365E-02 0.51075742E+02</pdfrwt>
<pdfrwt beam="2">  1       -2 0.15642073E-02 0.51075742E+02</pdfrwt>
<totfact> 0.51070519E+05</totfact>
</mgrwt>
</event>
<event>
 4    1  0.2196664E-002  0.4267997E+02  0.7818608E-02  0.1489368E+00
          2   -1    0    0    0  501  0.00000000000E+00  0.00000000000E+00  0.12735295078E+03  0.12735295081E+03  0.25500000000E-02 0. -1.
         -2   -1    0    0  501    0 -0.00000000000E+00 -0.00000000000E+00 -0.35758491057E+01  0.35758500149E+01  0.25500000000E-02 0. -1.
          2    1    1    2    0  502  0.28043489271E+00  0.20089689008E+02  0.39826624035E+02  0.44607558067E+02  0.25500000000E-02 0.  1.
         -2    1    1    2  502    0 -0.28043489271E+00 -0.20089689008E+02  0.83950477644E+02  0.86321242758E+02  0.25500000000E-02 0.  1.
<mgrwt>
<rscale>  0 0.42679972E+02</rscale>
<asrwt>0</asrwt>
<pdfrwt beam="1">  1        2 0.19592761E-01 0.42679972E+02</pdfrwt>
<pdfrwt beam="2">  1       -2 0.55013071E-03 0.42679972E+02</pdfrwt>
<totfact> 0.94974356E+05</totfact>
</mgrwt>
</event>
<event>
 4    1  0.2196664E-002  0.5178574E+02  0.7818608E-02  0.1435941E+00
         -2   -1    0    0  501    0 -0.00000000000E+00  0.00000000000E+00  0.86928916079E+00  0.86929290090E+00  0.25500000000E-02 0.  1.
          2   -1    0    0    0  501  0.00000000000E+00 -0.00000000000E+00 -0.77124994939E+03  0.77124994940E+03  0.25500000000E-02 0.  1.
          2    1    1    2    0  502  0.11398500689E+02 -0.18407829342E+02 -0.17345600955E+03  0.17480206307E+03  0.25500000000E-02 0. -1.
         -2    1    1    2  502    0 -0.11398500689E+02  0.18407829342E+02 -0.59692465068E+03  0.59731717922E+03  0.25500000000E-02 0. -1.
<mgrwt>
<rscale>  0 0.51785738E+02</rscale>
<asrwt>0</asrwt>
<pdfrwt beam="2">  1        2 0.11865329E+00 0.51785738E+02</pdfrwt>
<pdfrwt beam="1">  1       -2 0.13373770E-03 0.51785738E+02</pdfrwt>
<totfact> 0.10291034E+06</totfact>
</mgrwt>
</event>
<event>
 4    1  0.2196664E-002  0.1089341E+03  0.7818608E-02  0.1262557E+00
         -2   -1    0    0  501    0 -0.00000000000E+00  0.00000000000E+00  0.12956600045E+03  0.12956600047E+03  0.25500000000E-02 0.  1.
          2   -1    0    0    0  501  0.00000000000E+00 -0.00000000000E+00 -0.22896911417E+02  0.22896911559E+02  0.25500000000E-02 0.  1.
          2    1    1    2    0  502 -0.51544452124E+02  0.32587653182E+01  0.29124860640E+02  0.59293402753E+02  0.25500000000E-02 0.  1.
         -2    1    1    2  502    0  0.51544452124E+02 -0.32587653182E+01  0.77544228391E+02  0.93169509279E+02  0.25500000000E-02 0.  1.
<mgrwt>
<rscale>  0 0.10893413E+03</rscale>
<asrwt>0</asrwt>
<pdfrwt beam="2">  1        2 0.35226018E-02 0.10893413E+03</pdfrwt>
<pdfrwt beam="1">  1       -2 0.19933231E-01 0.10893413E+03</pdfrwt>
<totfact> 0.46991206E+04</totfact>
</mgrwt>
</event>
<event>
 4    1  0.2196664E-002  0.4309403E+02  0.7818608E-02  0.1486603E+00
         -2   -1    0    0  501    0 -0.00000000000E+00  0.00000000000E+00  0.14836905947E+02  0.14836906166E+02  0.25500000000E-02 0. -1.
          2   -1    0    0    0  501  0.00000000000E+00 -0.00000000000E+00 -0.31291829581E+02  0.31291829685E+02  0.25500000000E-02 0. -1.
          2    1    1    2    0  502  0.14159788558E+02 -0.15372007542E+02 -0.26166096016E+01  0.21062879200E+02  0.25500000000E-02 0. -1.
         -2    1    1    2  502    0 -0.14159788558E+02  0.15372007542E+02 -0.13838314033E+02  0.25065856651E+02  0.25500000000E-02 0. -1.
<mgrwt>
<rscale>  0 0.43094034E+02</rscale>
<asrwt>0</asrwt>
<pdfrwt beam="2">  1        2 0.48141276E-02 0.43094034E+02</pdfrwt>
<pdfrwt beam="1">  1       -2 0.22826009E-02 0.43094034E+02</pdfrwt>
<totfact> 0.69369839E+05</totfact>
</mgrwt>
</event>
<event>
 4    1  0.2196664E-002  0.8459139E+02  0.7818608E-02  0.1316505E+00
          2   -1    0    0    0  501  0.00000000000E+00  0.00000000000E+00  0.96088355490E+03  0.96088355491E+03  0.25500000000E-02 0.  1.
         -2   -1    0    0  501    0 -0.00000000000E+00 -0.00000000000E+00 -0.18617501734E+01  0.18617519198E+01  0.25500000000E-02 0.  1.
          2    1    1    2    0  502  0.24184361047E+02 -0.22048291727E+02  0.78445616254E+03  0.78513851099E+03  0.25500000000E-02 0.  1.
         -2    1    1    2  502    0 -0.24184361047E+02  0.22048291727E+02  0.17456564219E+03  0.17760679583E+03  0.25500000000E-02 0.  1.
<mgrwt>
<rscale>  0 0.84591394E+02</rscale>
<asrwt>0</asrwt>
<pdfrwt beam="1">  1        2 0.14782846E+00 0.84591394E+02</pdfrwt>
<pdfrwt beam="2">  1       -2 0.28642282E-03 0.84591394E+02</pdfrwt>
<totfact> 0.30365436E+05</totfact>
</mgrwt>
</event>
<event>
 4    1  0.2196664E-002  0.7423257E+02  0.7818608E-02  0.1346264E+00
         -2   -1    0    0  501    0 -0.00000000000E+00  0.00000000000E+00  0.59599914241E+00  0.59600459751E+00  0.25500000000E-02 0.  1.
          2   -1    0    0    0  501  0.00000000000E+00 -0.00000000000E+00 -0.23114334687E+04  0.23114334687E+04  0.25500000000E-02 0.  1.
          2    1    1    2    0  502  0.79423621579E+01 -0.26547525904E+02 -0.19245148387E+04  0.19247143208E+04  0.25500000000E-02 0.  1.
         -2    1    1    2  502    0 -0.79423621579E+01  0.26547525904E+02 -0.38632263081E+03  0.38731515246E+03  0.25500000000E-02 0.  1.
<mgrwt>
<rscale>  0 0.74232572E+02</rscale>
<asrwt>0</asrwt>
<pdfrwt beam="2">  1        2 0.35559797E+00 0.74232572E+02</pdfrwt>
<pdfrwt beam="1">  1       -2 0.91694447E-04 0.74232572E+02</pdfrwt>
<totfact> 0.28654427E+05</totfact>
</mgrwt>
</event>
<event>
 4    1  0.2196664E-002  0.5202415E+02  0.7818608E-02  0.1434720E+00
          2   -1    0    0    0  501  0.00000000000E+00  0.00000000000E+00  0.45727961111E+01  0.45727968221E+01  0.25500000000E-02 0.  1.
         -2   -1    0    0  501    0 -0.00000000000E+00 -0.00000000000E+00 -0.14796808467E+03  0.14796808470E+03  0.25500000000E-02 0.  1.
          2    1    1    2    0  502  0.77434676747E+01 -0.22607215965E+02 -0.10182583131E+03  0.10459229147E+03  0.25500000000E-02 0. -1.
         -2    1    1    2  502    0 -0.77434676747E+01  0.22607215965E+02 -0.41569457251E+02  0.47948590052E+02  0.25500000000E-02 0. -1.
<mgrwt>
<rscale>  0 0.52024146E+02</rscale>
<asrwt>0</asrwt>
<pdfrwt beam="1">  1        2 0.70350726E-03 0.52024146E+02</pdfrwt>
<pdfrwt beam="2">  1       -2 0.22764317E-01 0.52024146E+02</pdfrwt>
<totfact> 0.28590645E+05</totfact>
</mgrwt>
</event>
<event>
 4    1  0.2196664E-002  0.5141084E+02  0.7818608E-02  0.1437877E+00
          2   -1    0    0    0  501  0.00000000000E+00  0.00000000000E+00  0.41343845735E+03  0.41343845736E+03  0.25500000000E-02 0. -1.
         -2   -1    0    0  501    0 -0.00000000000E+00 -0.00000000000E+00 -0.15982263175E+01  0.15982283518E+01  0.25500000000E-02 0. -1.
          2    1    1    2    0  502  0.17127267702E+02 -0.14470073119E+02  0.10443123022E+03  0.10681108634E+03  0.25500000000E-02 0.  1.
         -2    1    1    2  502    0 -0.17127267702E+02  0.14470073119E+02  0.30740900081E+03  0.30822559936E+03  0.25500000000E-02 0.  1.
<mgrwt>
<rscale>  0 0.51410841E+02</rscale>
<asrwt>0</asrwt>
<pdfrwt beam="1">  1        2 0.63605934E-01 0.51410841E+02</pdfrwt>
<pdfrwt beam="2">  1       -2 0.24588106E-03 0.51410841E+02</pdfrwt>
<totfact> 0.88152169E+05</totfact>
</mgrwt>
</event>
<event>
 4    1  0.2196664E-002  0.4042521E+02  0.7818608E-02  0.1505105E+00
         -2   -1    0    0  501    0 -0.00000000000E+00  0.00000000000E+00  0.13145087503E+03  0.13145087505E+03  0.25500000000E-02 0.  1.
          2   -1    0    0    0  501  0.00000000000E+00 -0.00000000000E+00 -0.31080004923E+01  0.31080015384E+01  0.25500000000E-02 0.  1.
          2    1    1    2    0  502 -0.14518165195E+02 -0.14008967465E+02  0.68276761433E+02  0.71195115341E+02  0.25500000000E-02 0. -1.
         -2    1    1    2  502    0  0.14518165195E+02  0.14008967465E+02  0.60066113103E+02  0.63363761251E+02  0.25500000000E-02 0. -1.
<mgrwt>
<rscale>  0 0.40425213E+02</rscale>
<asrwt>0</asrwt>
<pdfrwt beam="2">  1        2 0.47815409E-03 0.40425213E+02</pdfrwt>
<pdfrwt beam="1">  1       -2 0.20223208E-01 0.40425213E+02</pdfrwt>
<totfact> 0.54797079E+05</totfact>
</mgrwt>
</event>
<event>
 4    1  0.2196664E-002  0.4770925E+02  0.7818608E-02  0.1458104E+00
          2   -1    0    0    0  501  0.00000000000E+00  0.00000000000E+00  0.21008518396E+02  0.21008518550E+02  0.25500000000E-02 0. -1.
         -2   -1    0    0  501    0 -0.00000000000E+00 -0.00000000000E+00 -0.27086305942E+02  0.27086306062E+02  0.25500000000E-02 0. -1.
          2    1    1    2    0  502  0.19689742248E+01  0.22824548665E+02  0.36636198850E+01  0.23200409445E+02  0.25500000000E-02 0. -1.
         -2    1    1    2  502    0 -0.19689742248E+01 -0.22824548665E+02 -0.97414074310E+01  0.24894415167E+02  0.25500000000E-02 0. -1.
<mgrwt>
<rscale>  0 0.47709251E+02</rscale>
<asrwt>0</asrwt>
<pdfrwt beam="1">  1        2 0.32320798E-02 0.47709251E+02</pdfrwt>
<pdfrwt beam="2">  1       -2 0.41671240E-02 0.47709251E+02</pdfrwt>
<totfact> 0.50240644E+05</totfact>
</mgrwt>
</event>
<event>
 4    1  0.2196664E-002  0.5742463E+02  0.7818608E-02  0.1408969E+00
          2   -1    0    0    0  501  0.00000000000E+00  0.00000000000E+00  0.44972926111E+03  0.44972926111E+03  0.25500000000E-02 0. -1.
         -2   -1    0    0  501    0 -0.00000000000E+00 -0.00000000000E+00 -0.18330956066E+01  0.18330973802E+01  0.25500000000E-02 0. -1.
          2    1    1    2    0  502  0.95563100383E+01  0.21352025423E+02  0.35486288504E+03  0.35563309638E+03  0.25500000000E-02 0. -1.
         -2    1    1    2  502    0 -0.95563100383E+01 -0.21352025423E+02  0.93033280456E+02  0.95929262116E+02  0.25500000000E-02 0. -1.
<mgrwt>
<rscale>  0 0.57424634E+02</rscale>
<asrwt>0</asrwt>
<pdfrwt beam="1">  1        2 0.69189114E-01 0.57424634E+02</pdfrwt>
<pdfrwt beam="2">  1       -2 0.28201486E-03 0.57424634E+02</pdfrwt>
<totfact> 0.68720650E+05</totfact>
</mgrwt>
</event>
<event>
 4    1  0.2196664E-002  0.4941588E+02  0.7818608E-02  0.1448518E+00
         -2   -1    0    0  501    0 -0.00000000000E+00  0.00000000000E+00  0.56081971065E+03  0.56081971065E+03  0.25500000000E-02 0.  1.
          2   -1    0    0    0  501  0.00000000000E+00 -0.00000000000E+00 -0.10885518764E+01  0.10885548631E+01  0.25500000000E-02 0.  1.
          2    1    1    2    0  502  0.10500653421E+02  0.19465222382E+02  0.40511379022E+03  0.40571707092E+03  0.25500000000E-02 0.  1.
         -2    1    1    2  502    0 -0.10500653421E+02 -0.19465222382E+02  0.15461736855E+03  0.15619119460E+03  0.25500000000E-02 0.  1.
<mgrwt>
<rscale>  0 0.49415876E+02</rscale>
<asrwt>0</asrwt>
<pdfrwt beam="2">  1        2 0.16746962E-03 0.49415876E+02</pdfrwt>
<pdfrwt beam="1">  1       -2 0.86280021E-01 0.49415876E+02</pdfrwt>
<totfact> 0.15559490E+05</totfact>
</mgrwt>
</event>
<event>
 4    1  0.2196664E-002  0.4200815E+02  0.7818608E-02  0.1493933E+00
         -2   -1    0    0  501    0 -0.00000000000E+00  0.00000000000E+00  0.10349725950E+01  0.10349757364E+01  0.25500000000E-02 0.  1.
          2   -1    0    0    0  501  0.00000000000E+00 -0.00000000000E+00 -0.42626287736E+03  0.42626287737E+03  0.25500000000E-02 0.  1.
          2    1    1    2    0  502  0.12323270175E+02 -0.16490683298E+02 -0.25500167542E+03  0.25583131180E+03  0.25500000000E-02 0. -1.
         -2    1    1    2  502    0 -0.12323270175E+02  0.16490683298E+02 -0.17022622935E+03  0.17146654131E+03  0.25500000000E-02 0. -1.
<mgrwt>
<rscale>  0 0.42008145E+02</rscale>
<asrwt>0</asrwt>
<pdfrwt beam="2">  1        2 0.65578764E-01 0.42008145E+02</pdfrwt>
<pdfrwt beam="1">  1       -2 0.15922714E-03 0.42008145E+02</pdfrwt>
<totfact> 0.14625867E+06</totfact>
</mgrwt>
</event>
<event>
 4    1  0.2196664E-002  0.4456163E+02  0.7818608E-02  0.1477097E+00
         -2   -1    0    0  501    0 -0.00000000000E+00  0.00000000000E+00  0.11661679205E+01  0.11661707085E+01  0.25500000000E-02 0.  1.
          2   -1    0    0    0  501  0.00000000000E+00 -0.00000000000E+00 -0.42569690018E+03  0.42569690018E+03  0.25500000000E-02 0.  1.
          2    1    1    2    0  502 -0.12239237185E+02 -0.18588222959E+02 -0.22237444371E+03  0.22348537800E+03  0.25500000000E-02 0.  1.
         -2    1    1    2  502    0  0.12239237185E+02  0.18588222959E+02 -0.20215628855E+03  0.20337769289E+03  0.25500000000E-02 0.  1.
<mgrwt>
<rscale>  0 0.44561628E+02</rscale>
<asrwt>0</asrwt>
<pdfrwt beam="2">  1        2 0.65491707E-01 0.44561628E+02</pdfrwt>
<pdfrwt beam="1">  1       -2 0.17941100E-03 0.44561628E+02</pdfrwt>
<totfact> 0.12663463E+06</totfact>
</mgrwt>
</event>
<event>
 4    1  0.2196664E-002  0.6252145E+02  0.7818608E-02  0.1387545E+00
          2   -1    0    0    0  501  0.00000000000E+00  0.00000000000E+00  0.29953496638E+03  0.29953496639E+03  0.25500000000E-02 0. -1.
         -2   -1    0    0  501    0 -0.00000000000E+00 -0.00000000000E+00 -0.32625002132E+01  0.32625012098E+01  0.25500000000E-02 0. -1.
          2    1    1    2    0  502  0.13178444492E+02 -0.23803782991E+02  0.73586895787E+02  0.78455864803E+02  0.25500000000E-02 0. -1.
         -2    1    1    2  502    0 -0.13178444492E+02  0.23803782991E+02  0.22268557038E+03  0.22434160280E+03  0.25500000000E-02 0. -1.
<mgrwt>
<rscale>  0 0.62521454E+02</rscale>
<asrwt>0</asrwt>
<pdfrwt beam="1">  1        2 0.46082282E-01 0.62521454E+02</pdfrwt>
<pdfrwt beam="2">  1       -2 0.50192341E-03 0.62521454E+02</pdfrwt>
<totfact> 0.48107834E+05</totfact>
</mgrwt>
</event>
<event>
 4    1  0.2196664E-002  0.4403677E+02  0.7818608E-02  0.1480446E+00
         -2   -1    0    0  501    0 -0.00000000000E+00  0.00000000000E+00  0.95551569840E+02  0.95551569874E+02  0.25500000000E-02 0. -1.
          2   -1    0    0    0  501  0.00000000000E+00 -0.00000000000E+00 -0.50737962680E+01  0.50737969088E+01  0.25500000000E-02 0. -1.
          2    1    1    2    0  502  0.20365797405E+02  0.45034488122E+01  0.29119704465E+02  0.35819044513E+02  0.25500000000E-02 0.  1.
         -2    1    1    2  502    0 -0.20365797405E+02 -0.45034488122E+01  0.61358069107E+02  0.64806322271E+02  0.25500000000E-02 0.  1.
<mgrwt>
<rscale>  0 0.44036768E+02</rscale>
<asrwt>0</asrwt>
<pdfrwt beam="2">  1        2 0.78058416E-03 0.44036768E+02</pdfrwt>
<pdfrwt beam="1">  1       -2 0.14700240E-01 0.44036768E+02</pdfrwt>
<totfact> 0.48583155E+05</totfact>
</mgrwt>
</event>
<event>
 4    1  0.2196664E-002  0.4670284E+02  0.7818608E-02  0.1463983E+00
          2   -1    0    0    0  501  0.00000000000E+00  0.00000000000E+00  0.63197861546E+02  0.63197861598E+02  0.25500000000E-02 0.  1.
         -2   -1    0    0  501    0 -0.00000000000E+00 -0.00000000000E+00 -0.86282788585E+01  0.86282792354E+01  0.25500000000E-02 0.  1.
          2    1    1    2    0  502  0.22585360600E+01  0.22566876431E+02  0.18732425410E+02  0.29415449431E+02  0.25500000000E-02 0.  1.
         -2    1    1    2  502    0 -0.22585360600E+01 -0.22566876431E+02  0.35837157277E+02  0.42410691402E+02  0.25500000000E-02 0.  1.
<mgrwt>
<rscale>  0 0.46702839E+02</rscale>
<asrwt>0</asrwt>
<pdfrwt beam="1">  1        2 0.97227479E-02 0.46702839E+02</pdfrwt>
<pdfrwt beam="2">  1       -2 0.13274276E-02 0.46702839E+02</pdfrwt>
<totfact> 0.63950507E+05</totfact>
</mgrwt>
</event>
<event>
 4    1  0.2196664E-002  0.4827061E+02  0.7818608E-02  0.1454899E+00
          2   -1    0    0    0  501  0.00000000000E+00  0.00000000000E+00  0.41760839225E+03  0.41760839226E+03  0.25500000000E-02 0. -1.
         -2   -1    0    0  501    0 -0.00000000000E+00 -0.00000000000E+00 -0.13948772756E+01  0.13948796065E+01  0.25500000000E-02 0. -1.
          2    1    1    2    0  502  0.64704206576E+01 -0.21718741296E+02  0.13603264287E+03  0.13790739647E+03  0.25500000000E-02 0. -1.
         -2    1    1    2  502    0 -0.64704206576E+01  0.21718741296E+02  0.28018087210E+03  0.28109587540E+03  0.25500000000E-02 0. -1.
<mgrwt>
<rscale>  0 0.48270610E+02</rscale>
<asrwt>0</asrwt>
<pdfrwt beam="1">  1        2 0.64247439E-01 0.48270610E+02</pdfrwt>
<pdfrwt beam="2">  1       -2 0.21459671E-03 0.48270610E+02</pdfrwt>
<totfact> 0.10340033E+06</totfact>
</mgrwt>
</event>
<event>
 4    1  0.2196664E-002  0.4391057E+02  0.7818608E-02  0.1481260E+00
          2   -1    0    0    0  501  0.00000000000E+00  0.00000000000E+00  0.26318551239E+01  0.26318563592E+01  0.25500000000E-02 0. -1.
         -2   -1    0    0  501    0 -0.00000000000E+00 -0.00000000000E+00 -0.18315383574E+03  0.18315383575E+03  0.25500000000E-02 0. -1.
          2    1    1    2    0  502 -0.65323520057E+01 -0.19192339002E+02 -0.12591630657E+03  0.12753796990E+03  0.25500000000E-02 0.  1.
         -2    1    1    2  502    0  0.65323520057E+01  0.19192339002E+02 -0.54605674043E+02  0.58247722216E+02  0.25500000000E-02 0.  1.
<mgrwt>
<rscale>  0 0.43910567E+02</rscale>
<asrwt>0</asrwt>
<pdfrwt beam="1">  1        2 0.40490103E-03 0.43910567E+02</pdfrwt>
<pdfrwt beam="2">  1       -2 0.28177503E-01 0.43910567E+02</pdfrwt>
<totfact> 0.40093166E+05</totfact>
</mgrwt>
</event>
<event>
 4    1  0.2196664E-002  0.5119312E+02  0.7818608E-02  0.1439010E+00
         -2   -1    0    0  501    0 -0.00000000000E+00  0.00000000000E+00  0.55721576052E+02  0.55721576110E+02  0.25500000000E-02 0.  1.
          2   -1    0    0    0  501  0.00000000000E+00 -0.00000000000E+00 -0.11758172502E+02  0.11758172779E+02  0.25500000000E-02 0.  1.
          2    1    1    2    0  502  0.22387392562E+02 -0.76417686303E+01  0.34869314422E+02  0.42136220384E+02  0.25500000000E-02 0.  1.
         -2    1    1    2  502    0 -0.22387392562E+02  0.76417686303E+01  0.90940891277E+01  0.25343528505E+02  0.25500000000E-02 0.  1.
<mgrwt>
<rscale>  0 0.51193121E+02</rscale>
<asrwt>0</asrwt>
<pdfrwt beam="2">  1        2 0.18089496E-02 0.51193121E+02</pdfrwt>
<pdfrwt beam="1">  1       -2 0.85725503E-02 0.51193121E+02</pdfrwt>
<totfact> 0.37782832E+05</totfact>
</mgrwt>
</event>
<event>
 4    1  0.2196664E-002  0.4743149E+02  0.7818608E-02  0.1459709E+00
         -2   -1    0    0  501    0 -0.00000000000E+00  0.00000000000E+00  0.62827955690E+00  0.62828473172E+00  0.25500000000E-02 0.  1.
          2   -1    0    0    0  501  0.00000000000E+00 -0.00000000000E+00 -0.89519734405E+03  0.89519734405E+03  0.25500000000E-02 0.  1.
          2    1    1    2    0  502  0.22333786991E+02  0.79692637742E+01 -0.44049325731E+03  0.44113106549E+03  0.25500000000E-02 0. -1.
         -2    1    1    2  502    0 -0.22333786991E+02 -0.79692637742E+01 -0.45407580719E+03  0.45469456329E+03  0.25500000000E-02 0. -1.
<mgrwt>
<rscale>  0 0.47431488E+02</rscale>
<asrwt>0</asrwt>
<pdfrwt beam="2">  1        2 0.13772165E+00 0.47431488E+02</pdfrwt>
<pdfrwt beam="1">  1       -2 0.96659508E-04 0.47431488E+02</pdfrwt>
<totfact> 0.13067471E+06</totfact>
</mgrwt>
</event>
<event>
 4    1  0.2196664E-002  0.4260632E+02  0.7818608E-02  0.1489863E+00
         -2   -1    0    0  501    0 -0.00000000000E+00  0.00000000000E+00  0.39982492847E+00  0.39983306007E+00  0.25500000000E-02 0. -1.
          2   -1    0    0    0  501  0.00000000000E+00 -0.00000000000E+00 -0.11350466527E+04  0.11350466527E+04  0.25500000000E-02 0. -1.
          2    1    1    2    0  502  0.94688194349E+01 -0.18833129077E+02 -0.64937368678E+03  0.64971573044E+03  0.25500000000E-02 0. -1.
         -2    1    1    2  502    0 -0.94688194349E+01  0.18833129077E+02 -0.48527314095E+03  0.48573075528E+03  0.25500000000E-02 0. -1.
<mgrwt>
<rscale>  0 0.42606317E+02</rscale>
<asrwt>0</asrwt>
<pdfrwt beam="2">  1        2 0.17461998E+00 0.42606317E+02</pdfrwt>
<pdfrwt beam="1">  1       -2 0.61513062E-04 0.42606317E+02</pdfrwt>
<totfact> 0.17118497E+06</totfact>
</mgrwt>
</event>
<event>
 4    1  0.2196664E-002  0.4487111E+02  0.7818608E-02  0.1475148E+00
         -2   -1    0    0  501    0 -0.00000000000E+00  0.00000000000E+00  0.18814533936E+00  0.18816261909E+00  0.25500000000E-02 0. -1.
          2   -1    0    0    0  501  0.00000000000E+00 -0.00000000000E+00 -0.26752247405E+04  0.26752247405E+04  0.25500000000E-02 0. -1.
          2    1    1    2    0  502  0.76850209361E+01 -0.20983024175E+02 -0.12181603464E+04  0.12183652885E+04  0.25500000000E-02 0. -1.
         -2    1    1    2  502    0 -0.76850209361E+01  0.20983024175E+02 -0.14568762488E+04  0.14570476146E+04  0.25500000000E-02 0. -1.
<mgrwt>
<rscale>  0 0.44871112E+02</rscale>
<asrwt>0</asrwt>
<pdfrwt beam="2">  1        2 0.41154258E+00 0.44871112E+02</pdfrwt>
<pdfrwt beam="1">  1       -2 0.28948909E-04 0.44871112E+02</pdfrwt>
<totfact> 0.81864102E+05</totfact>
</mgrwt>
</event>
<event>
 4    1  0.2196664E-002  0.5312711E+02  0.7818608E-02  0.1429169E+00
          2   -1    0    0    0  501  0.00000000000E+00  0.00000000000E+00  0.36430794505E+03  0.36430794506E+03  0.25500000000E-02 0.  1.
         -2   -1    0    0  501    0 -0.00000000000E+00 -0.00000000000E+00 -0.19368838338E+01  0.19368855124E+01  0.25500000000E-02 0.  1.
          2    1    1    2    0  502  0.17940588486E+01 -0.22000444794E+02  0.79310919357E+02  0.82325331181E+02  0.25500000000E-02 0. -1.
         -2    1    1    2  502    0 -0.17940588486E+01  0.22000444794E+02  0.28306014186E+03  0.28391949939E+03  0.25500000000E-02 0. -1.
<mgrwt>
<rscale>  0 0.53127111E+02</rscale>
<asrwt>0</asrwt>
<pdfrwt beam="1">  1        2 0.56047362E-01 0.53127111E+02</pdfrwt>
<pdfrwt beam="2">  1       -2 0.29798233E-03 0.53127111E+02</pdfrwt>
<totfact> 0.77785404E+05</totfact>
</mgrwt>
</event>
<event>
 4    1  0.2196664E-002  0.5230969E+02  0.7818608E-02  0.1433267E+00
          2   -1    0    0    0  501  0.00000000000E+00  0.00000000000E+00  0.82905633029E+03  0.82905633029E+03  0.25500000000E-02 0.  1.
         -2   -1    0    0  501    0 -0.00000000000E+00 -0.00000000000E+00 -0.82512398743E+00  0.82512792774E+00  0.25500000000E-02 0.  1.
          2    1    1    2    0  502  0.25979151644E+02  0.21892957985E+01  0.44726713362E+03  0.44802633646E+03  0.25500000000E-02 0. -1.
         -2    1    1    2  502    0 -0.25979151644E+02 -0.21892957985E+01  0.38096407268E+03  0.38185512176E+03  0.25500000000E-02 0. -1.
<mgrwt>
<rscale>  0 0.52309689E+02</rscale>
<asrwt>0</asrwt>
<pdfrwt beam="1">  1        2 0.12754753E+00 0.52309689E+02</pdfrwt>
<pdfrwt beam="2">  1       -2 0.12694206E-03 0.52309689E+02</pdfrwt>
<totfact> 0.10160800E+06</totfact>
</mgrwt>
</event>
<event>
 4    1  0.2196664E-002  0.5318504E+02  0.7818608E-02  0.1428882E+00
          2   -1    0    0    0  501  0.00000000000E+00  0.00000000000E+00  0.14394858588E+03  0.14394858590E+03  0.25500000000E-02 0. -1.
         -2   -1    0    0  501    0 -0.00000000000E+00 -0.00000000000E+00 -0.49126019468E+01  0.49126026087E+01  0.25500000000E-02 0. -1.
          2    1    1    2    0  502  0.11766799711E+02 -0.23777873899E+02  0.64420185091E+02  0.69669255172E+02  0.25500000000E-02 0. -1.
         -2    1    1    2  502    0 -0.11766799711E+02  0.23777873899E+02  0.74615798838E+02  0.79191933335E+02  0.25500000000E-02 0. -1.
<mgrwt>
<rscale>  0 0.53185041E+02</rscale>
<asrwt>0</asrwt>
<pdfrwt beam="1">  1        2 0.22145935E-01 0.53185041E+02</pdfrwt>
<pdfrwt beam="2">  1       -2 0.75578502E-03 0.53185041E+02</pdfrwt>
<totfact> 0.56744276E+05</totfact>
</mgrwt>
</event>
<event>
 4    1  0.2196664E-002  0.1009259E+03  0.7818608E-02  0.1278361E+00
          2   -1    0    0    0  501  0.00000000000E+00  0.00000000000E+00  0.12239399415E+01  0.12239425979E+01  0.25500000000E-02 0.  1.
         -2   -1    0    0  501    0 -0.00000000000E+00 -0.00000000000E+00 -0.20805832689E+04  0.20805832689E+04  0.25500000000E-02 0.  1.
          2    1    1    2    0  502  0.18010456819E+01  0.45857809090E+02 -0.14725187462E+04  0.14732337358E+04  0.25500000000E-02 0.  1.
         -2    1    1    2  502    0 -0.18010456819E+01 -0.45857809090E+02 -0.60684058273E+03  0.60857347566E+03  0.25500000000E-02 0.  1.
<mgrwt>
<rscale>  0 0.10092595E+03</rscale>
<asrwt>0</asrwt>
<pdfrwt beam="1">  1        2 0.18830032E-03 0.10092595E+03</pdfrwt>
<pdfrwt beam="2">  1       -2 0.32008690E+00 0.10092595E+03</pdfrwt>
<totfact> 0.39576772E+03</totfact>
</mgrwt>
</event>
<event>
 4    1  0.2196664E-002  0.5382517E+02  0.7818608E-02  0.1425738E+00
          2   -1    0    0    0  501  0.00000000000E+00  0.00000000000E+00  0.98591365117E+03  0.98591365118E+03  0.25500000000E-02 0. -1.
         -2   -1    0    0  501    0 -0.00000000000E+00 -0.00000000000E+00 -0.73463323856E+00  0.73463766423E+00  0.25500000000E-02 0. -1.
          2    1    1    2    0  502  0.18737810807E+02  0.15745491971E+02  0.28743313921E+03  0.28847328402E+03  0.25500000000E-02 0.  1.
         -2    1    1    2  502    0 -0.18737810807E+02 -0.15745491971E+02  0.69774587873E+03  0.69817500482E+03  0.25500000000E-02 0.  1.
<mgrwt>
<rscale>  0 0.53825166E+02</rscale>
<asrwt>0</asrwt>
<pdfrwt beam="1">  1        2 0.15167994E+00 0.53825166E+02</pdfrwt>
<pdfrwt beam="2">  1       -2 0.11302016E-03 0.53825166E+02</pdfrwt>
<totfact> 0.96385145E+05</totfact>
</mgrwt>
</event>
<event>
 4    1  0.2196664E-002  0.4796534E+02  0.7818608E-02  0.1456635E+00
         -2   -1    0    0  501    0 -0.00000000000E+00  0.00000000000E+00  0.25499249107E+01  0.25499261857E+01  0.25500000000E-02 0.  1.
          2   -1    0    0    0  501  0.00000000000E+00 -0.00000000000E+00 -0.22556283249E+03  0.22556283251E+03  0.25500000000E-02 0.  1.
          2    1    1    2    0  502  0.23239753233E+02 -0.59052183690E+01 -0.10932349349E+03  0.11192222286E+03  0.25500000000E-02 0.  1.
         -2    1    1    2  502    0 -0.23239753233E+02  0.59052183690E+01 -0.11368941409E+03  0.11619053583E+03  0.25500000000E-02 0.  1.
<mgrwt>
<rscale>  0 0.47965339E+02</rscale>
<asrwt>0</asrwt>
<pdfrwt beam="2">  1        2 0.34701958E-01 0.47965339E+02</pdfrwt>
<pdfrwt beam="1">  1       -2 0.39229642E-03 0.47965339E+02</pdfrwt>
<totfact> 0.85015018E+05</totfact>
</mgrwt>
</event>
<event>
 4    1  0.2196664E-002  0.4760899E+02  0.7818608E-02  0.1458682E+00
         -2   -1    0    0  501    0 -0.00000000000E+00  0.00000000000E+00  0.15397711942E+02  0.15397712153E+02  0.25500000000E-02 0. -1.
          2   -1    0    0    0  501  0.00000000000E+00 -0.00000000000E+00 -0.36801182091E+02  0.36801182180E+02  0.25500000000E-02 0. -1.
          2    1    1    2    0  502  0.54535767533E+01  0.19380838343E+02 -0.24626362907E+02  0.31809057685E+02  0.25500000000E-02 0.  1.
         -2    1    1    2  502    0 -0.54535767533E+01 -0.19380838343E+02  0.32228927579E+01  0.20389836648E+02  0.25500000000E-02 0.  1.
<mgrwt>
<rscale>  0 0.47608991E+02</rscale>
<asrwt>0</asrwt>
<pdfrwt beam="2">  1        2 0.56617203E-02 0.47608991E+02</pdfrwt>
<pdfrwt beam="1">  1       -2 0.23688788E-02 0.47608991E+02</pdfrwt>
<totfact> 0.55117531E+05</totfact>
</mgrwt>
</event>
<event>
 4    1  0.2196664E-002  0.4894994E+02  0.7818608E-02  0.1451089E+00
          2   -1    0    0    0  501  0.00000000000E+00  0.00000000000E+00  0.25920089535E+02  0.25920089661E+02  0.25500000000E-02 0. -1.
         -2   -1    0    0  501    0 -0.00000000000E+00 -0.00000000000E+00 -0.23110418998E+02  0.23110419139E+02  0.25500000000E-02 0. -1.
          2    1    1    2    0  502 -0.18207421738E+02  0.10579680283E+02 -0.11089038465E+02  0.23799298767E+02  0.25500000000E-02 0. -1.
         -2    1    1    2  502    0  0.18207421738E+02 -0.10579680283E+02  0.13898709002E+02  0.25231210032E+02  0.25500000000E-02 0. -1.
<mgrwt>
<rscale>  0 0.48949939E+02</rscale>
<asrwt>0</asrwt>
<pdfrwt beam="1">  1        2 0.39877061E-02 0.48949939E+02</pdfrwt>
<pdfrwt beam="2">  1       -2 0.35554491E-02 0.48949939E+02</pdfrwt>
<totfact> 0.48492448E+05</totfact>
</mgrwt>
</event>
<event>
 4    1  0.2196664E-002  0.8743437E+02  0.7818608E-02  0.1309186E+00
          2   -1    0    0    0  501  0.00000000000E+00  0.00000000000E+00  0.34273855687E+03  0.34273855688E+03  0.25500000000E-02 0. -1.
         -2   -1    0    0  501    0 -0.00000000000E+00 -0.00000000000E+00 -0.55762391973E+01  0.55762397803E+01  0.25500000000E-02 0. -1.
          2    1    1    2    0  502  0.22722753138E+02  0.37319319452E+01  0.20541740738E+02  0.30857964049E+02  0.25500000000E-02 0. -1.
         -2    1    1    2  502    0 -0.22722753138E+02 -0.37319319452E+01  0.31662057694E+03  0.31745683261E+03  0.25500000000E-02 0. -1.
<mgrwt>
<rscale>  0 0.87434370E+02</rscale>
<asrwt>0</asrwt>
<pdfrwt beam="1">  1        2 0.52729008E-01 0.87434370E+02</pdfrwt>
<pdfrwt beam="2">  1       -2 0.85788301E-03 0.87434370E+02</pdfrwt>
<totfact> 0.21094876E+05</totfact>
</mgrwt>
</event>
<event>
 4    1  0.2196664E-002  0.7158047E+02  0.7818608E-02  0.1354800E+00
          2   -1    0    0    0  501  0.00000000000E+00  0.00000000000E+00  0.10065915369E+01  0.10065947669E+01  0.25500000000E-02 0. -1.
         -2   -1    0    0  501    0 -0.00000000000E+00 -0.00000000000E+00 -0.12725509660E+04  0.12725509661E+04  0.25500000000E-02 0. -1.
          2    1    1    2    0  502 -0.24505042197E+02 -0.72562596538E+01 -0.18998104122E+03  0.19169232229E+03  0.25500000000E-02 0.  1.
         -2    1    1    2  502    0  0.24505042197E+02  0.72562596538E+01 -0.10815633333E+04  0.10818652385E+04  0.25500000000E-02 0.  1.
<mgrwt>
<rscale>  0 0.71580475E+02</rscale>
<asrwt>0</asrwt>
<pdfrwt beam="1">  1        2 0.15486150E-03 0.71580475E+02</pdfrwt>
<pdfrwt beam="2">  1       -2 0.19577579E+00 0.71580475E+02</pdfrwt>
<totfact> 0.25568272E+04</totfact>
</mgrwt>
</event>
<event>
 4    1  0.2196664E-002  0.4237883E+02  0.7818608E-02  0.1491401E+00
          2   -1    0    0    0  501  0.00000000000E+00  0.00000000000E+00  0.17304026868E+02  0.17304027056E+02  0.25500000000E-02 0.  1.
         -2   -1    0    0  501    0 -0.00000000000E+00 -0.00000000000E+00 -0.25947220059E+02  0.25947220185E+02  0.25500000000E-02 0.  1.
          2    1    1    2    0  502 -0.14621108233E+02 -0.15018314276E+02 -0.74944250887E+01  0.22259671686E+02  0.25500000000E-02 0.  1.
         -2    1    1    2  502    0  0.14621108233E+02  0.15018314276E+02 -0.11487681025E+01  0.20991575555E+02  0.25500000000E-02 0.  1.
<mgrwt>
<rscale>  0 0.42378834E+02</rscale>
<asrwt>0</asrwt>
<pdfrwt beam="1">  1        2 0.26621580E-02 0.42378834E+02</pdfrwt>
<pdfrwt beam="2">  1       -2 0.39918800E-02 0.42378834E+02</pdfrwt>
<totfact> 0.66637747E+05</totfact>
</mgrwt>
</event>
<event>
 4    1  0.2196664E-002  0.8367494E+02  0.7818608E-02  0.1318935E+00
          2   -1    0    0    0  501  0.00000000000E+00  0.00000000000E+00  0.13746678134E+04  0.13746678134E+04  0.25500000000E-02 0.  1.
         -2   -1    0    0  501    0 -0.00000000000E+00 -0.00000000000E+00 -0.12733054740E+01  0.12733080273E+01  0.25500000000E-02 0.  1.
          2    1    1    2    0  502 -0.15094645973E+02  0.32475339589E+02  0.10423864418E+04  0.10430014334E+04  0.25500000000E-02 0.  1.
         -2    1    1    2  502    0  0.15094645973E+02 -0.32475339589E+02  0.33100806609E+03  0.33293968799E+03  0.25500000000E-02 0.  1.
<mgrwt>
<rscale>  0 0.83674938E+02</rscale>
<asrwt>0</asrwt>
<pdfrwt beam="1">  1        2 0.21148768E+00 0.83674938E+02</pdfrwt>
<pdfrwt beam="2">  1       -2 0.19589304E-03 0.83674938E+02</pdfrwt>
<totfact> 0.30388206E+05</totfact>
</mgrwt>
</event>
<event>
 4    1  0.2196664E-002  0.4249200E+02  0.7818608E-02  0.1490635E+00
          2   -1    0    0    0  501  0.00000000000E+00  0.00000000000E+00  0.61687914918E+03  0.61687914919E+03  0.25500000000E-02 0. -1.
         -2   -1    0    0  501    0 -0.00000000000E+00 -0.00000000000E+00 -0.73173350665E+00  0.73173794985E+00  0.25500000000E-02 0. -1.
          2    1    1    2    0  502 -0.99756561811E+01  0.18731923990E+02  0.32256346510E+03  0.32326086635E+03  0.25500000000E-02 0. -1.
         -2    1    1    2  502    0  0.99756561811E+01 -0.18731923990E+02  0.29358395058E+03  0.29435002079E+03  0.25500000000E-02 0. -1.
<mgrwt>
<rscale>  0 0.42492000E+02</rscale>
<asrwt>0</asrwt>
<pdfrwt beam="1">  1        2 0.94905114E-01 0.42492000E+02</pdfrwt>
<pdfrwt beam="2">  1       -2 0.11257398E-03 0.42492000E+02</pdfrwt>
<totfact> 0.15884486E+06</totfact>
</mgrwt>
</event>
<event>
 4    1  0.2196664E-002  0.4179912E+02  0.7818608E-02  0.1495374E+00
          2   -1    0    0    0  501  0.00000000000E+00  0.00000000000E+00  0.12465194083E+04  0.12465194083E+04  0.25500000000E-02 0.  1.
         -2   -1    0    0  501    0 -0.00000000000E+00 -0.00000000000E+00 -0.35040428251E+00  0.35041356096E+00  0.25500000000E-02 0.  1.
          2    1    1    2    0  502  0.13813967756E+02  0.15512185518E+02  0.55416537044E+03  0.55455451617E+03  0.25500000000E-02 0. -1.
         -2    1    1    2  502    0 -0.13813967756E+02 -0.15512185518E+02  0.69200363358E+03  0.69231530570E+03  0.25500000000E-02 0. -1.
<mgrwt>
<rscale>  0 0.41799116E+02</rscale>
<asrwt>0</asrwt>
<pdfrwt beam="1">  1        2 0.19177423E+00 0.41799116E+02</pdfrwt>
<pdfrwt beam="2">  1       -2 0.53908500E-04 0.41799116E+02</pdfrwt>
<totfact> 0.17778442E+06</totfact>
</mgrwt>
</event>
<event>
 4    1  0.2196664E-002  0.5612994E+02  0.7818608E-02  0.1414830E+00
         -2   -1    0    0  501    0 -0.00000000000E+00  0.00000000000E+00  0.74792375385E+00  0.74792810087E+00  0.25500000000E-02 0. -1.
          2   -1    0    0    0  501  0.00000000000E+00 -0.00000000000E+00 -0.10531021472E+04  0.10531021472E+04  0.25500000000E-02 0. -1.
          2    1    1    2    0  502  0.69674501340E+01 -0.27185900861E+02 -0.52327880275E+03  0.52403084258E+03  0.25500000000E-02 0.  1.
         -2    1    1    2  502    0 -0.69674501340E+01  0.27185900861E+02 -0.52907542072E+03  0.52981923274E+03  0.25500000000E-02 0.  1.
<mgrwt>
<rscale>  0 0.56129935E+02</rscale>
<asrwt>0</asrwt>
<pdfrwt beam="2">  1        2 0.16201453E+00 0.56129935E+02</pdfrwt>
<pdfrwt beam="1">  1       -2 0.11506637E-03 0.56129935E+02</pdfrwt>
<totfact> 0.86982743E+05</totfact>
</mgrwt>
</event>
<event>
 4    1  0.2196664E-002  0.4328427E+02  0.7818608E-02  0.1485346E+00
         -2   -1    0    0  501    0 -0.00000000000E+00  0.00000000000E+00  0.18481114663E+01  0.18481132256E+01  0.25500000000E-02 0. -1.
          2   -1    0    0    0  501  0.00000000000E+00 -0.00000000000E+00 -0.25343804218E+03  0.25343804220E+03  0.25500000000E-02 0. -1.
          2    1    1    2    0  502 -0.18409893149E+02 -0.83683200200E+01 -0.80327946007E+02  0.82834364016E+02  0.25500000000E-02 0. -1.
         -2    1    1    2  502    0  0.18409893149E+02  0.83683200200E+01 -0.17126198471E+03  0.17245179141E+03  0.25500000000E-02 0. -1.
<mgrwt>
<rscale>  0 0.43284269E+02</rscale>
<asrwt>0</asrwt>
<pdfrwt beam="2">  1        2 0.38990441E-01 0.43284269E+02</pdfrwt>
<pdfrwt beam="1">  1       -2 0.28432518E-03 0.43284269E+02</pdfrwt>
<totfact> 0.11395871E+06</totfact>
</mgrwt>
</event>
<event>
 4    1  0.2196664E-002  0.8352424E+02  0.7818608E-02  0.1319338E+00
          2   -1    0    0    0  501  0.00000000000E+00  0.00000000000E+00  0.79952362524E+03  0.79952362524E+03  0.25500000000E-02 0. -1.
         -2   -1    0    0  501    0 -0.00000000000E+00 -0.00000000000E+00 -0.21813916600E+01  0.21813931505E+01  0.25500000000E-02 0. -1.
          2    1    1    2    0  502 -0.17891897000E+02  0.36917783173E+02  0.47365727435E+03  0.47543060087E+03  0.25500000000E-02 0.  1.
         -2    1    1    2  502    0  0.17891897000E+02 -0.36917783173E+02  0.32368495923E+03  0.32627441753E+03  0.25500000000E-02 0.  1.
<mgrwt>
<rscale>  0 0.83524242E+02</rscale>
<asrwt>0</asrwt>
<pdfrwt beam="1">  1        2 0.12300366E+00 0.83524242E+02</pdfrwt>
<pdfrwt beam="2">  1       -2 0.33559877E-03 0.83524242E+02</pdfrwt>
<totfact> 0.30673275E+05</totfact>
</mgrwt>
</event>
<event>
 4    1  0.2196664E-002  0.5023017E+02  0.7818608E-02  0.1444104E+00
          2   -1    0    0    0  501  0.00000000000E+00  0.00000000000E+00  0.44960642467E+02  0.44960642539E+02  0.25500000000E-02 0. -1.
         -2   -1    0    0  501    0 -0.00000000000E+00 -0.00000000000E+00 -0.14029328001E+02  0.14029328233E+02  0.25500000000E-02 0. -1.
          2    1    1    2    0  502 -0.95760289195E+01 -0.19123822446E+02  0.30927856563E+02  0.37602569498E+02  0.25500000000E-02 0.  1.
         -2    1    1    2  502    0  0.95760289195E+01  0.19123822446E+02  0.34579032282E-02  0.21387401274E+02  0.25500000000E-02 0.  1.
<mgrwt>
<rscale>  0 0.50230175E+02</rscale>
<asrwt>0</asrwt>
<pdfrwt beam="1">  1        2 0.69170219E-02 0.50230175E+02</pdfrwt>
<pdfrwt beam="2">  1       -2 0.21583582E-02 0.50230175E+02</pdfrwt>
<totfact> 0.49702796E+05</totfact>
</mgrwt>
</event>
<event>
 4    1  0.2196664E-002  0.5524175E+02  0.7818608E-02  0.1418959E+00
         -2   -1    0    0  501    0 -0.00000000000E+00  0.00000000000E+00  0.20214028270E+01  0.20214044354E+01  0.25500000000E-02 0.  1.
          2   -1    0    0    0  501  0.00000000000E+00 -0.00000000000E+00 -0.37741736832E+03  0.37741736832E+03  0.25500000000E-02 0.  1.
          2    1    1    2    0  502 -0.77983694844E+00  0.27577021697E+02 -0.19694541057E+03  0.19886828561E+03  0.25500000000E-02 0.  1.
         -2    1    1    2  502    0  0.77983694844E+00 -0.27577021697E+02 -0.17845055492E+03  0.18057048715E+03  0.25500000000E-02 0.  1.
<mgrwt>
<rscale>  0 0.55241754E+02</rscale>
<asrwt>0</asrwt>
<pdfrwt beam="2">  1        2 0.58064155E-01 0.55241754E+02</pdfrwt>
<pdfrwt beam="1">  1       -2 0.31098547E-03 0.55241754E+02</pdfrwt>
<totfact> 0.71397839E+05</totfact>
</mgrwt>
</event>
<event>
 4    1  0.2196664E-002  0.5131395E+02  0.7818608E-02  0.1438381E+00
         -2   -1    0    0  501    0 -0.00000000000E+00  0.00000000000E+00  0.35934794482E+00  0.35935699235E+00  0.25500000000E-02 0.  1.
          2   -1    0    0    0  501  0.00000000000E+00 -0.00000000000E+00 -0.18318516387E+04  0.18318516387E+04  0.25500000000E-02 0.  1.
          2    1    1    2    0  502  0.22221955722E+02  0.12666789636E+02 -0.98731425654E+03  0.98764553563E+03  0.25500000000E-02 0.  1.
         -2    1    1    2  502    0 -0.22221955722E+02 -0.12666789636E+02 -0.84417803419E+03  0.84456546004E+03  0.25500000000E-02 0.  1.
<mgrwt>
<rscale>  0 0.51313952E+02</rscale>
<asrwt>0</asrwt>
<pdfrwt beam="2">  1        2 0.28181585E+00 0.51313952E+02</pdfrwt>
<pdfrwt beam="1">  1       -2 0.55286462E-04 0.51313952E+02</pdfrwt>
<totfact> 0.92556951E+05</totfact>
</mgrwt>
</event>
<event>
 4    1  0.2196664E-002  0.1035110E+03  0.7818608E-02  0.1273081E+00
          2   -1    0    0    0  501  0.00000000000E+00  0.00000000000E+00  0.39805567528E+02  0.39805567610E+02  0.25500000000E-02 0.  1.
         -2   -1    0    0  501    0 -0.00000000000E+00 -0.00000000000E+00 -0.67292933898E+02  0.67292933946E+02  0.25500000000E-02 0.  1.
          2    1    1    2    0  502 -0.13876746934E+02 -0.34356135227E+02  0.23643493007E+02  0.43953644914E+02  0.25500000000E-02 0.  1.
         -2    1    1    2  502    0  0.13876746934E+02  0.34356135227E+02 -0.51130859377E+02  0.63144856642E+02  0.25500000000E-02 0.  1.
<mgrwt>
<rscale>  0 0.10351103E+03</rscale>
<asrwt>0</asrwt>
<pdfrwt beam="1">  1        2 0.61239335E-02 0.10351103E+03</pdfrwt>
<pdfrwt beam="2">  1       -2 0.10352759E-01 0.10351103E+03</pdfrwt>
<totfact> 0.65591429E+04</totfact>
</mgrwt>
</event>
<event>
 4    1  0.2196664E-002  0.4428181E+02  0.7818608E-02  0.1478876E+00
          2   -1    0    0    0  501  0.00000000000E+00  0.00000000000E+00  0.74004086900E+03  0.74004086900E+03  0.25500000000E-02 0. -1.
         -2   -1    0    0  501    0 -0.00000000000E+00 -0.00000000000E+00 -0.66241984627E+00  0.66242475439E+00  0.25500000000E-02 0. -1.
          2    1    1    2    0  502 -0.53487322585E+01 -0.20143514260E+02  0.49469453837E+03  0.49513337234E+03  0.25500000000E-02 0. -1.
         -2    1    1    2  502    0  0.53487322585E+01  0.20143514260E+02  0.24468391078E+03  0.24556992142E+03  0.25500000000E-02 0. -1.
<mgrwt>
<rscale>  0 0.44281806E+02</rscale>
<asrwt>0</asrwt>
<pdfrwt beam="1">  1        2 0.11385122E+00 0.44281806E+02</pdfrwt>
<pdfrwt beam="2">  1       -2 0.10191222E-03 0.44281806E+02</pdfrwt>
<totfact> 0.14992925E+06</totfact>
</mgrwt>
</event>
<event>
 4    1  0.2196664E-002  0.1667154E+03  0.7818608E-02  0.1181317E+00
         -2   -1    0    0  501    0 -0.00000000000E+00  0.00000000000E+00  0.97464383522E+01  0.97464386858E+01  0.25500000000E-02 0.  1.
          2   -1    0    0    0  501  0.00000000000E+00 -0.00000000000E+00 -0.71292791499E+03  0.71292791499E+03  0.25500000000E-02 0.  1.
          2    1    1    2    0  502  0.68723634766E+02  0.14646740853E+02 -0.15719911259E+03  0.17218892531E+03  0.25500000000E-02 0. -1.
         -2    1    1    2  502    0 -0.68723634766E+02 -0.14646740853E+02 -0.54598236404E+03  0.55048542837E+03  0.25500000000E-02 0. -1.
<mgrwt>
<rscale>  0 0.16671542E+03</rscale>
<asrwt>0</asrwt>
<pdfrwt beam="2">  1        2 0.10968118E+00 0.16671542E+03</pdfrwt>
<pdfrwt beam="1">  1       -2 0.14994526E-02 0.16671542E+03</pdfrwt>
<totfact> 0.46157407E+04</totfact>
</mgrwt>
</event>
<event>
 4    1  0.2196664E-002  0.4779751E+02  0.7818608E-02  0.1457597E+00
          2   -1    0    0    0  501  0.00000000000E+00  0.00000000000E+00  0.20353926557E+04  0.20353926557E+04  0.25500000000E-02 0. -1.
         -2   -1    0    0  501    0 -0.00000000000E+00 -0.00000000000E+00 -0.28060363827E+00  0.28061522466E+00  0.25500000000E-02 0. -1.
          2    1    1    2    0  502  0.17150373777E+02  0.11983169734E+02  0.15094949515E+04  0.15096399373E+04  0.25500000000E-02 0. -1.
         -2    1    1    2  502    0 -0.17150373777E+02 -0.11983169734E+02  0.52561710049E+03  0.52603333356E+03  0.25500000000E-02 0. -1.
<mgrwt>
<rscale>  0 0.47797505E+02</rscale>
<asrwt>0</asrwt>
<pdfrwt beam="1">  1        2 0.31313450E+00 0.47797505E+02</pdfrwt>
<pdfrwt beam="2">  1       -2 0.43171072E-04 0.47797505E+02</pdfrwt>
<totfact> 0.10134180E+06</totfact>
</mgrwt>
</event>
<event>
 4    1  0.2196664E-002  0.7270852E+02  0.7818608E-02  0.1351118E+00
          2   -1    0    0    0  501  0.00000000000E+00  0.00000000000E+00  0.20652867643E+04  0.20652867643E+04  0.25500000000E-02 0. -1.
         -2   -1    0    0  501    0 -0.00000000000E+00 -0.00000000000E+00 -0.63992420278E+00  0.63992928344E+00  0.25500000000E-02 0. -1.
          2    1    1    2    0  502 -0.25242876049E+02  0.20670531166E+02  0.57667474783E+03  0.57759695155E+03  0.25500000000E-02 0.  1.
         -2    1    1    2  502    0  0.25242876049E+02 -0.20670531166E+02  0.14879720923E+04  0.14883297420E+04  0.25500000000E-02 0.  1.
<mgrwt>
<rscale>  0 0.72708520E+02</rscale>
<asrwt>0</asrwt>
<pdfrwt beam="1">  1        2 0.31774043E+00 0.72708520E+02</pdfrwt>
<pdfrwt beam="2">  1       -2 0.98449026E-04 0.72708520E+02</pdfrwt>
<totfact> 0.34485545E+05</totfact>
</mgrwt>
</event>
<event>
 4    1  0.2196664E-002  0.7270807E+02  0.7818608E-02  0.1351119E+00
          2   -1    0    0    0  501  0.00000000000E+00  0.00000000000E+00  0.98285071433E+02  0.98285071466E+02  0.25500000000E-02 0. -1.
         -2   -1    0    0  501    0 -0.00000000000E+00 -0.00000000000E+00 -0.13446760773E+02  0.13446761015E+02  0.25500000000E-02 0. -1.
          2    1    1    2    0  502  0.28257288485E+02 -0.20534097863E+02  0.26937731343E+02  0.44110825247E+02  0.25500000000E-02 0.  1.
         -2    1    1    2  502    0 -0.28257288485E+02  0.20534097863E+02  0.57900579317E+02  0.67621007234E+02  0.25500000000E-02 0.  1.
<mgrwt>
<rscale>  0 0.72708070E+02</rscale>
<asrwt>0</asrwt>
<pdfrwt beam="1">  1        2 0.15120781E-01 0.72708070E+02</pdfrwt>
<pdfrwt beam="2">  1       -2 0.20687324E-02 0.72708070E+02</pdfrwt>
<totfact> 0.22530098E+05</totfact>
</mgrwt>
</event>
<event>
 4    1  0.2196664E-002  0.5634135E+02  0.7818608E-02  0.1413860E+00
         -2   -1    0    0  501    0 -0.00000000000E+00  0.00000000000E+00  0.11904849894E+01  0.11904877204E+01  0.25500000000E-02 0. -1.
          2   -1    0    0    0  501  0.00000000000E+00 -0.00000000000E+00 -0.66660729233E+03  0.66660729233E+03  0.25500000000E-02 0. -1.
          2    1    1    2    0  502  0.23227180786E+02 -0.77002833773E+01 -0.49813362369E+03  0.49873430135E+03  0.25500000000E-02 0.  1.
         -2    1    1    2  502    0 -0.23227180786E+02  0.77002833773E+01 -0.16728318365E+03  0.16906347870E+03  0.25500000000E-02 0.  1.
<mgrwt>
<rscale>  0 0.56341349E+02</rscale>
<asrwt>0</asrwt>
<pdfrwt beam="2">  1        2 0.10255467E+00 0.56341349E+02</pdfrwt>
<pdfrwt beam="1">  1       -2 0.18315228E-03 0.56341349E+02</pdfrwt>
<totfact> 0.80849447E+05</totfact>
</mgrwt>
</event>
<event>
 4    1  0.2196664E-002  0.7133283E+02  0.7818608E-02  0.1355618E+00
         -2   -1    0    0  501    0 -0.00000000000E+00  0.00000000000E+00  0.75239488404E+00  0.75239920522E+00  0.25500000000E-02 0. -1.
          2   -1    0    0    0  501  0.00000000000E+00 -0.00000000000E+00 -0.16907206554E+04  0.16907206554E+04  0.25500000000E-02 0. -1.
          2    1    1    2    0  502  0.16562512083E+02  0.23563258080E+02 -0.34614968014E+03  0.34734585791E+03  0.25500000000E-02 0.  1.
         -2    1    1    2  502    0 -0.16562512083E+02 -0.23563258080E+02 -0.13438185804E+04  0.13441271967E+04  0.25500000000E-02 0.  1.
<mgrwt>
<rscale>  0 0.71332832E+02</rscale>
<asrwt>0</asrwt>
<pdfrwt beam="2">  1        2 0.26010783E+00 0.71332832E+02</pdfrwt>
<pdfrwt beam="1">  1       -2 0.11575474E-03 0.71332832E+02</pdfrwt>
<totfact> 0.42277349E+05</totfact>
</mgrwt>
</event>
<event>
 4    1  0.2196664E-002  0.6369695E+02  0.7818608E-02  0.1382941E+00
         -2   -1    0    0  501    0 -0.00000000000E+00  0.00000000000E+00  0.65378121929E+00  0.65378619226E+00  0.25500000000E-02 0. -1.
          2   -1    0    0    0  501  0.00000000000E+00 -0.00000000000E+00 -0.15514693221E+04  0.15514693221E+04  0.25500000000E-02 0. -1.
          2    1    1    2    0  502  0.23529331184E+02  0.44108455947E+01 -0.12872606470E+04  0.12874832264E+04  0.25500000000E-02 0.  1.
         -2    1    1    2  502    0 -0.23529331184E+02 -0.44108455947E+01 -0.26355489385E+03  0.26463988185E+03  0.25500000000E-02 0.  1.
<mgrwt>
<rscale>  0 0.63696950E+02</rscale>
<asrwt>0</asrwt>
<pdfrwt beam="2">  1        2 0.23868464E+00 0.63696950E+02</pdfrwt>
<pdfrwt beam="1">  1       -2 0.10058335E-03 0.63696950E+02</pdfrwt>
<totfact> 0.58911418E+05</totfact>
</mgrwt>
</event>
<event>
 4    1  0.2196664E-002  0.6874992E+02  0.7818608E-02  0.1364396E+00
         -2   -1    0    0  501    0 -0.00000000000E+00  0.00000000000E+00  0.77118077653E+01  0.77118081869E+01  0.25500000000E-02 0.  1.
          2   -1    0    0    0  501  0.00000000000E+00 -0.00000000000E+00 -0.15322447335E+03  0.15322447337E+03  0.25500000000E-02 0.  1.
          2    1    1    2    0  502  0.25946652654E+02  0.21733725740E+02 -0.58700418915E+02  0.67759300512E+02  0.25500000000E-02 0. -1.
         -2    1    1    2  502    0 -0.25946652654E+02 -0.21733725740E+02 -0.86812246665E+02  0.93176981041E+02  0.25500000000E-02 0. -1.
<mgrwt>
<rscale>  0 0.68749915E+02</rscale>
<asrwt>0</asrwt>
<pdfrwt beam="2">  1        2 0.23572994E-01 0.68749915E+02</pdfrwt>
<pdfrwt beam="1">  1       -2 0.11864321E-02 0.68749915E+02</pdfrwt>
<totfact> 0.29867509E+05</totfact>
</mgrwt>
</event>
<event>
 4    1  0.2196664E-002  0.6358399E+02  0.7818608E-02  0.1383379E+00
          2   -1    0    0    0  501  0.00000000000E+00  0.00000000000E+00  0.15982275203E+04  0.15982275203E+04  0.25500000000E-02 0.  1.
         -2   -1    0    0  501    0 -0.00000000000E+00 -0.00000000000E+00 -0.63240477050E+00  0.63240991157E+00  0.25500000000E-02 0.  1.
          2    1    1    2    0  502 -0.16123788858E+02  0.27288384673E+02  0.73670102572E+03  0.73738255594E+03  0.25500000000E-02 0.  1.
         -2    1    1    2  502    0  0.16123788858E+02 -0.27288384673E+02  0.86089408976E+03  0.86147737423E+03  0.25500000000E-02 0.  1.
<mgrwt>
<rscale>  0 0.63583986E+02</rscale>
<asrwt>0</asrwt>
<pdfrwt beam="1">  1        2 0.24588040E+00 0.63583986E+02</pdfrwt>
<pdfrwt beam="2">  1       -2 0.97293738E-04 0.63583986E+02</pdfrwt>
<totfact> 0.58403328E+05</totfact>
</mgrwt>
</event>
<event>
 4    1  0.2196664E-002  0.4467781E+02  0.7818608E-02  0.1476363E+00
          2   -1    0    0    0  501  0.00000000000E+00  0.00000000000E+00  0.36213792824E+01  0.36213801802E+01  0.25500000000E-02 0. -1.
         -2   -1    0    0  501    0 -0.00000000000E+00 -0.00000000000E+00 -0.13780013425E+03  0.13780013427E+03  0.25500000000E-02 0. -1.
          2    1    1    2    0  502  0.21711603899E+02 -0.41562427890E+01 -0.77276987662E+02  0.80376619278E+02  0.25500000000E-02 0.  1.
         -2    1    1    2  502    0 -0.21711603899E+02  0.41562427890E+01 -0.56901767306E+02  0.61044895176E+02  0.25500000000E-02 0.  1.
<mgrwt>
<rscale>  0 0.44677807E+02</rscale>
<asrwt>0</asrwt>
<pdfrwt beam="1">  1        2 0.55713545E-03 0.44677807E+02</pdfrwt>
<pdfrwt beam="2">  1       -2 0.21200017E-01 0.44677807E+02</pdfrwt>
<totfact> 0.42428436E+05</totfact>
</mgrwt>
</event>
<event>
 4    1  0.2196664E-002  0.7189417E+02  0.7818608E-02  0.1353768E+00
          2   -1    0    0    0  501  0.00000000000E+00  0.00000000000E+00  0.76095402167E+02  0.76095402210E+02  0.25500000000E-02 0.  1.
         -2   -1    0    0  501    0 -0.00000000000E+00 -0.00000000000E+00 -0.16981223936E+02  0.16981224127E+02  0.25500000000E-02 0.  1.
          2    1    1    2    0  502 -0.20988052099E+02  0.11737073935E+02 -0.50349786665E+01  0.24568440164E+02  0.25500000000E-02 0. -1.
         -2    1    1    2  502    0  0.20988052099E+02 -0.11737073935E+02  0.64149156898E+02  0.68508186173E+02  0.25500000000E-02 0. -1.
<mgrwt>
<rscale>  0 0.71894174E+02</rscale>
<asrwt>0</asrwt>
<pdfrwt beam="1">  1        2 0.11706985E-01 0.71894174E+02</pdfrwt>
<pdfrwt beam="2">  1       -2 0.26124959E-02 0.71894174E+02</pdfrwt>
<totfact> 0.21675830E+05</totfact>
</mgrwt>
</event>
<event>
 4    1  0.2196664E-002  0.6571877E+02  0.7818608E-02  0.1375288E+00
          2   -1    0    0    0  501  0.00000000000E+00  0.00000000000E+00  0.26040723593E+04  0.26040723593E+04  0.25500000000E-02 0. -1.
         -2   -1    0    0  501    0 -0.00000000000E+00 -0.00000000000E+00 -0.41463092314E+00  0.41463876438E+00  0.25500000000E-02 0. -1.
          2    1    1    2    0  502 -0.26338412750E+02 -0.17480751094E+02  0.16572940859E+04  0.16575955404E+04  0.25500000000E-02 0.  1.
         -2    1    1    2  502    0  0.26338412750E+02  0.17480751094E+02  0.94636364254E+03  0.94689145765E+03  0.25500000000E-02 0.  1.
<mgrwt>
<rscale>  0 0.65718769E+02</rscale>
<asrwt>0</asrwt>
<pdfrwt beam="1">  1        2 0.40064093E+00 0.65718769E+02</pdfrwt>
<pdfrwt beam="2">  1       -2 0.63787681E-04 0.65718769E+02</pdfrwt>
<totfact> 0.32633778E+05</totfact>
</mgrwt>
</event>
<event>
 4    1  0.2196664E-002  0.9909555E+02  0.7818608E-02  0.1282209E+00
          2   -1    0    0    0  501  0.00000000000E+00  0.00000000000E+00  0.42655696033E+03  0.42655696034E+03  0.25500000000E-02 0.  1.
         -2   -1    0    0  501    0 -0.00000000000E+00 -0.00000000000E+00 -0.57553433175E+01  0.57553438824E+01  0.25500000000E-02 0.  1.
          2    1    1    2    0  502 -0.26345300769E+01 -0.36835263119E+02  0.66290007564E+02  0.75882425285E+02  0.25500000000E-02 0.  1.
         -2    1    1    2  502    0  0.26345300769E+01  0.36835263119E+02  0.35451160945E+03  0.35642987894E+03  0.25500000000E-02 0.  1.
<mgrwt>
<rscale>  0 0.99095547E+02</rscale>
<asrwt>0</asrwt>
<pdfrwt beam="1">  1        2 0.65624149E-01 0.99095547E+02</pdfrwt>
<pdfrwt beam="2">  1       -2 0.88543746E-03 0.99095547E+02</pdfrwt>
<totfact> 0.16357061E+05</totfact>
</mgrwt>
</event>
<event>
 4    1  0.2196664E-002  0.1079049E+03  0.7818608E-02  0.1264500E+00
         -2   -1    0    0  501    0 -0.00000000000E+00  0.00000000000E+00  0.23596956137E+01  0.23596969915E+01  0.25500000000E-02 0.  1.
          2   -1    0    0    0  501  0.00000000000E+00 -0.00000000000E+00 -0.12335765555E+04  0.12335765555E+04  0.25500000000E-02 0.  1.
          2    1    1    2    0  502  0.12007602506E+01 -0.53910468869E+02 -0.59548872518E+03  0.59792524809E+03  0.25500000000E-02 0.  1.
         -2    1    1    2  502    0 -0.12007602506E+01  0.53910468869E+02 -0.63572813471E+03  0.63801100441E+03  0.25500000000E-02 0.  1.
<mgrwt>
<rscale>  0 0.10790488E+03</rscale>
<asrwt>0</asrwt>
<pdfrwt beam="2">  1        2 0.18978049E+00 0.10790488E+03</pdfrwt>
<pdfrwt beam="1">  1       -2 0.36303119E-03 0.10790488E+03</pdfrwt>
<totfact> 0.15847761E+05</totfact>
</mgrwt>
</event>
<event>
 4    1  0.2196664E-002  0.4120913E+02  0.7818608E-02  0.1499497E+00
          2   -1    0    0    0  501  0.00000000000E+00  0.00000000000E+00  0.94683161045E+02  0.94683161080E+02  0.25500000000E-02 0.  1.
         -2   -1    0    0  501    0 -0.00000000000E+00 -0.00000000000E+00 -0.44838816281E+01  0.44838823532E+01  0.25500000000E-02 0.  1.
          2    1    1    2    0  502 -0.19340948612E+02  0.61995866995E+01  0.53449981750E+02  0.57178734894E+02  0.25500000000E-02 0.  1.
         -2    1    1    2  502    0  0.19340948612E+02 -0.61995866995E+01  0.36749297667E+02  0.41988308539E+02  0.25500000000E-02 0.  1.
<mgrwt>
<rscale>  0 0.41209131E+02</rscale>
<asrwt>0</asrwt>
<pdfrwt beam="1">  1        2 0.14566641E-01 0.41209131E+02</pdfrwt>
<pdfrwt beam="2">  1       -2 0.68982798E-03 0.41209131E+02</pdfrwt>
<totfact> 0.95786789E+05</totfact>
</mgrwt>
</event>
<event>
 4    1  0.2196664E-002  0.5999788E+02  0.7818608E-02  0.1397841E+00
         -2   -1    0    0  501    0 -0.00000000000E+00  0.00000000000E+00  0.20405473191E+01  0.20405489125E+01  0.25500000000E-02 0.  1.
          2   -1    0    0    0  501  0.00000000000E+00 -0.00000000000E+00 -0.44102681060E+03  0.44102681061E+03  0.25500000000E-02 0.  1.
          2    1    1    2    0  502  0.16502621362E+02  0.18633944204E+02 -0.34314602711E+03  0.34404760764E+03  0.25500000000E-02 0.  1.
         -2    1    1    2  502    0 -0.16502621362E+02 -0.18633944204E+02 -0.95840236169E+02  0.99019751887E+02  0.25500000000E-02 0.  1.
<mgrwt>
<rscale>  0 0.59997881E+02</rscale>
<asrwt>0</asrwt>
<pdfrwt beam="2">  1        2 0.67850203E-01 0.59997881E+02</pdfrwt>
<pdfrwt beam="1">  1       -2 0.31393083E-03 0.59997881E+02</pdfrwt>
<totfact> 0.61123215E+05</totfact>
</mgrwt>
</event>
<event>
 4    1  0.2196664E-002  0.4844163E+02  0.7818608E-02  0.1453933E+00
         -2   -1    0    0  501    0 -0.00000000000E+00  0.00000000000E+00  0.16912167762E+01  0.16912186986E+01  0.25500000000E-02 0. -1.
          2   -1    0    0    0  501  0.00000000000E+00 -0.00000000000E+00 -0.34687895712E+03  0.34687895713E+03  0.25500000000E-02 0. -1.
          2    1    1    2    0  502  0.71590094031E+01  0.18843540004E+02 -0.26921905523E+03  0.26997264699E+03  0.25500000000E-02 0.  1.
         -2    1    1    2  502    0 -0.71590094031E+01 -0.18843540004E+02 -0.75968685112E+02  0.78597528839E+02  0.25500000000E-02 0.  1.
<mgrwt>
<rscale>  0 0.48441629E+02</rscale>
<asrwt>0</asrwt>
<pdfrwt beam="2">  1        2 0.53365937E-01 0.48441629E+02</pdfrwt>
<pdfrwt beam="1">  1       -2 0.26018762E-03 0.48441629E+02</pdfrwt>
<totfact> 0.96237843E+05</totfact>
</mgrwt>
</event>
<event>
 4    1  0.2196664E-002  0.6299448E+02  0.7818608E-02  0.1385678E+00
         -2   -1    0    0  501    0 -0.00000000000E+00  0.00000000000E+00  0.18756492021E+01  0.18756509355E+01  0.25500000000E-02 0.  1.
          2   -1    0    0    0  501  0.00000000000E+00 -0.00000000000E+00 -0.52892388169E+03  0.52892388170E+03  0.25500000000E-02 0.  1.
          2    1    1    2    0  502  0.13896725738E+02  0.19404279357E+02 -0.43670739766E+03  0.43735911586E+03  0.25500000000E-02 0.  1.
         -2    1    1    2  502    0 -0.13896725738E+02 -0.19404279357E+02 -0.90340834826E+02  0.93440416776E+02  0.25500000000E-02 0.  1.
<mgrwt>
<rscale>  0 0.62994480E+02</rscale>
<asrwt>0</asrwt>
<pdfrwt beam="2">  1        2 0.81372786E-01 0.62994480E+02</pdfrwt>
<pdfrwt beam="1">  1       -2 0.28856197E-03 0.62994480E+02</pdfrwt>
<totfact> 0.57242239E+05</totfact>
</mgrwt>
</event>
<event>
 4    1  0.2196664E-002  0.5158694E+02  0.7818608E-02  0.1436965E+00
          2   -1    0    0    0  501  0.00000000000E+00  0.00000000000E+00  0.37447385757E+03  0.37447385758E+03  0.25500000000E-02 0.  1.
         -2   -1    0    0  501    0 -0.00000000000E+00 -0.00000000000E+00 -0.17766334283E+01  0.17766352583E+01  0.25500000000E-02 0.  1.
          2    1    1    2    0  502 -0.56916210863E+01 -0.24102212933E+02  0.23893884820E+03  0.24021882609E+03  0.25500000000E-02 0. -1.
         -2    1    1    2  502    0  0.56916210863E+01  0.24102212933E+02  0.13375837594E+03  0.13603166675E+03  0.25500000000E-02 0. -1.
<mgrwt>
<rscale>  0 0.51586941E+02</rscale>
<asrwt>0</asrwt>
<pdfrwt beam="1">  1        2 0.57611293E-01 0.51586941E+02</pdfrwt>
<pdfrwt beam="2">  1       -2 0.27332869E-03 0.51586941E+02</pdfrwt>
<totfact> 0.84511043E+05</totfact>
</mgrwt>
</event>
<event>
 4    1  0.2196664E-002  0.4183013E+02  0.7818608E-02  0.1495160E+00
         -2   -1    0    0  501    0 -0.00000000000E+00  0.00000000000E+00  0.24744334618E+00  0.24745648520E+00  0.25500000000E-02 0.  1.
          2   -1    0    0    0  501  0.00000000000E+00 -0.00000000000E+00 -0.17677919842E+04  0.17677919842E+04  0.25500000000E-02 0.  1.
          2    1    1    2    0  502  0.19997923156E+02  0.17766946175E+01 -0.63599028078E+03  0.63630708846E+03  0.25500000000E-02 0.  1.
         -2    1    1    2  502    0 -0.19997923156E+02 -0.17766946175E+01 -0.11315542601E+04  0.11317323522E+04  0.25500000000E-02 0.  1.
<mgrwt>
<rscale>  0 0.41830132E+02</rscale>
<asrwt>0</asrwt>
<pdfrwt beam="2">  1        2 0.27195789E+00 0.41830132E+02</pdfrwt>
<pdfrwt beam="1">  1       -2 0.38070634E-04 0.41830132E+02</pdfrwt>
<totfact> 0.15694202E+06</totfact>
</mgrwt>
</event>
<event>
 4    1  0.2196664E-002  0.5610577E+02  0.7818608E-02  0.1414941E+00
         -2   -1    0    0  501    0 -0.00000000000E+00  0.00000000000E+00  0.18848212540E+01  0.18848229790E+01  0.25500000000E-02 0.  1.
          2   -1    0    0    0  501  0.00000000000E+00 -0.00000000000E+00 -0.41752710416E+03  0.41752710417E+03  0.25500000000E-02 0.  1.
          2    1    1    2    0  502  0.24713535910E+02  0.10965656757E+02 -0.15190058835E+03  0.15428802038E+03  0.25500000000E-02 0. -1.
         -2    1    1    2  502    0 -0.24713535910E+02 -0.10965656757E+02 -0.26374169456E+03  0.26512390677E+03  0.25500000000E-02 0. -1.
<mgrwt>
<rscale>  0 0.56105769E+02</rscale>
<asrwt>0</asrwt>
<pdfrwt beam="2">  1        2 0.64234866E-01 0.56105769E+02</pdfrwt>
<pdfrwt beam="1">  1       -2 0.28997297E-03 0.56105769E+02</pdfrwt>
<totfact> 0.71077425E+05</totfact>
</mgrwt>
</event>
<event>
 4    1  0.2196664E-002  0.7217465E+02  0.7818608E-02  0.1352850E+00
         -2   -1    0    0  501    0 -0.00000000000E+00  0.00000000000E+00  0.18625000324E+01  0.18625017780E+01  0.25500000000E-02 0. -1.
          2   -1    0    0    0  501  0.00000000000E+00 -0.00000000000E+00 -0.69921855726E+03  0.69921855727E+03  0.25500000000E-02 0. -1.
          2    1    1    2    0  502  0.35697574806E+02  0.14227435757E+01 -0.29919151112E+03  0.30131694506E+03  0.25500000000E-02 0.  1.
         -2    1    1    2  502    0 -0.35697574806E+02 -0.14227435757E+01 -0.39816454611E+03  0.39976411399E+03  0.25500000000E-02 0.  1.
<mgrwt>
<rscale>  0 0.72174655E+02</rscale>
<asrwt>0</asrwt>
<pdfrwt beam="2">  1        2 0.10757188E+00 0.72174655E+02</pdfrwt>
<pdfrwt beam="1">  1       -2 0.28653916E-03 0.72174655E+02</pdfrwt>
<totfact> 0.43592210E+05</totfact>
</mgrwt>
</event>
<event>
 4    1  0.2196664E-002  0.7604173E+02  0.7818608E-02  0.1340675E+00
          2   -1    0    0    0  501  0.00000000000E+00  0.00000000000E+00  0.80191349917E+03  0.80191349918E+03  0.25500000000E-02 0. -1.
         -2   -1    0    0  501    0 -0.00000000000E+00 -0.00000000000E+00 -0.18026702837E+01  0.18026720873E+01  0.25500000000E-02 0. -1.
          2    1    1    2    0  502  0.14837850647E+02  0.34832679815E+02  0.43683476973E+03  0.43847245460E+03  0.25500000000E-02 0.  1.
         -2    1    1    2  502    0 -0.14837850647E+02 -0.34832679815E+02  0.36327605916E+03  0.36524371666E+03  0.25500000000E-02 0.  1.
<mgrwt>
<rscale>  0 0.76041735E+02</rscale>
<asrwt>0</asrwt>
<pdfrwt beam="1">  1        2 0.12337125E+00 0.76041735E+02</pdfrwt>
<pdfrwt beam="2">  1       -2 0.27733417E-03 0.76041735E+02</pdfrwt>
<totfact> 0.39168291E+05</totfact>
</mgrwt>
</event>
<event>
 4    1  0.2196664E-002  0.5286405E+02  0.7818608E-02  0.1430479E+00
          2   -1    0    0    0  501  0.00000000000E+00  0.00000000000E+00  0.17972347963E+03  0.17972347965E+03  0.25500000000E-02 0. -1.
         -2   -1    0    0  501    0 -0.00000000000E+00 -0.00000000000E+00 -0.38873714926E+01  0.38873723290E+01  0.25500000000E-02 0. -1.
          2    1    1    2    0  502 -0.31760635347E+01 -0.23212154510E+02  0.13042271383E+03  0.13251028559E+03  0.25500000000E-02 0. -1.
         -2    1    1    2  502    0  0.31760635347E+01  0.23212154510E+02  0.45413394308E+02  0.51100566392E+02  0.25500000000E-02 0. -1.
<mgrwt>
<rscale>  0 0.52864052E+02</rscale>
<asrwt>0</asrwt>
<pdfrwt beam="1">  1        2 0.27649767E-01 0.52864052E+02</pdfrwt>
<pdfrwt beam="2">  1       -2 0.59805721E-03 0.52864052E+02</pdfrwt>
<totfact> 0.61786454E+05</totfact>
</mgrwt>
</event>
<event>
 4    1  0.2196664E-002  0.4724230E+02  0.7818608E-02  0.1460810E+00
          2   -1    0    0    0  501  0.00000000000E+00  0.00000000000E+00  0.21241879083E+02  0.21241879236E+02  0.25500000000E-02 0. -1.
         -2   -1    0    0  501    0 -0.00000000000E+00 -0.00000000000E+00 -0.26266921167E+02  0.26266921291E+02  0.25500000000E-02 0. -1.
          2    1    1    2    0  502 -0.22926815443E+02  0.56675104482E+01 -0.29613822512E+01  0.23801876656E+02  0.25500000000E-02 0.  1.
         -2    1    1    2  502    0  0.22926815443E+02 -0.56675104482E+01 -0.20636598332E+01  0.23706923871E+02  0.25500000000E-02 0.  1.
<mgrwt>
<rscale>  0 0.47242302E+02</rscale>
<asrwt>0</asrwt>
<pdfrwt beam="1">  1        2 0.32679814E-02 0.47242302E+02</pdfrwt>
<pdfrwt beam="2">  1       -2 0.40410648E-02 0.47242302E+02</pdfrwt>
<totfact> 0.51643858E+05</totfact>
</mgrwt>
</event>
<event>
 4    1  0.2196664E-002  0.4276952E+02  0.7818608E-02  0.1488767E+00
         -2   -1    0    0  501    0 -0.00000000000E+00  0.00000000000E+00  0.20782884313E+01  0.20782899957E+01  0.25500000000E-02 0.  1.
          2   -1    0    0    0  501  0.00000000000E+00 -0.00000000000E+00 -0.22004057551E+03  0.22004057553E+03  0.25500000000E-02 0.  1.
          2    1    1    2    0  502  0.14937878856E+02  0.15105269608E+02 -0.12170077288E+03  0.12354103578E+03  0.25500000000E-02 0.  1.
         -2    1    1    2  502    0 -0.14937878856E+02 -0.15105269608E+02 -0.96261514200E+02  0.98577829745E+02  0.25500000000E-02 0.  1.
<mgrwt>
<rscale>  0 0.42769520E+02</rscale>
<asrwt>0</asrwt>
<pdfrwt beam="2">  1        2 0.33852378E-01 0.42769520E+02</pdfrwt>
<pdfrwt beam="1">  1       -2 0.31973698E-03 0.42769520E+02</pdfrwt>
<totfact> 0.11190417E+06</totfact>
</mgrwt>
</event>
<event>
 4    1  0.2196664E-002  0.4316358E+02  0.7818608E-02  0.1486143E+00
         -2   -1    0    0  501    0 -0.00000000000E+00  0.00000000000E+00  0.39894759407E+01  0.39894767557E+01  0.25500000000E-02 0. -1.
          2   -1    0    0    0  501  0.00000000000E+00 -0.00000000000E+00 -0.11675059723E+03  0.11675059725E+03  0.25500000000E-02 0. -1.
          2    1    1    2    0  502 -0.12690643977E+01  0.20357687803E+02 -0.36654815753E+02  0.41947842633E+02  0.25500000000E-02 0. -1.
         -2    1    1    2  502    0  0.12690643977E+01 -0.20357687803E+02 -0.76106305532E+02  0.78792231377E+02  0.25500000000E-02 0. -1.
<mgrwt>
<rscale>  0 0.43163584E+02</rscale>
<asrwt>0</asrwt>
<pdfrwt beam="2">  1        2 0.17961628E-01 0.43163584E+02</pdfrwt>
<pdfrwt beam="1">  1       -2 0.61376568E-03 0.43163584E+02</pdfrwt>
<totfact> 0.90170189E+05</totfact>
</mgrwt>
</event>
<event>
 4    1  0.2196664E-002  0.9897972E+02  0.7818608E-02  0.1282456E+00
          2   -1    0    0    0  501  0.00000000000E+00  0.00000000000E+00  0.17305562161E+03  0.17305562163E+03  0.25500000000E-02 0.  1.
         -2   -1    0    0  501    0 -0.00000000000E+00 -0.00000000000E+00 -0.14152942620E+02  0.14152942849E+02  0.25500000000E-02 0.  1.
          2    1    1    2    0  502  0.26265098619E+02  0.37320814513E+02  0.43239987938E+02  0.62868077470E+02  0.25500000000E-02 0. -1.
         -2    1    1    2  502    0 -0.26265098619E+02 -0.37320814513E+02  0.11566269105E+03  0.12434048701E+03  0.25500000000E-02 0. -1.
<mgrwt>
<rscale>  0 0.98979721E+02</rscale>
<asrwt>0</asrwt>
<pdfrwt beam="1">  1        2 0.26623942E-01 0.98979721E+02</pdfrwt>
<pdfrwt beam="2">  1       -2 0.21773758E-02 0.98979721E+02</pdfrwt>
<totfact> 0.11750492E+05</totfact>
</mgrwt>
</event>
<event>
 4    1  0.2196664E-002  0.4280096E+02  0.7818608E-02  0.1488556E+00
          2   -1    0    0    0  501  0.00000000000E+00  0.00000000000E+00  0.54994602334E+01  0.54994608246E+01  0.25500000000E-02 0.  1.
         -2   -1    0    0  501    0 -0.00000000000E+00 -0.00000000000E+00 -0.83277363486E+02  0.83277363525E+02  0.25500000000E-02 0.  1.
          2    1    1    2    0  502  0.14976956209E+01 -0.20505297208E+02 -0.26570661208E+02  0.33596284754E+02  0.25500000000E-02 0. -1.
         -2    1    1    2  502    0 -0.14976956209E+01  0.20505297208E+02 -0.51207242044E+02  0.55180539595E+02  0.25500000000E-02 0. -1.
<mgrwt>
<rscale>  0 0.42800962E+02</rscale>
<asrwt>0</asrwt>
<pdfrwt beam="1">  1        2 0.84607091E-03 0.42800962E+02</pdfrwt>
<pdfrwt beam="2">  1       -2 0.12811901E-01 0.42800962E+02</pdfrwt>
<totfact> 0.53703624E+05</totfact>
</mgrwt>
</event>
<event>
 4    1  0.2196664E-002  0.4233741E+02  0.7818608E-02  0.1491683E+00
         -2   -1    0    0  501    0 -0.00000000000E+00  0.00000000000E+00  0.12064974792E+02  0.12064975061E+02  0.25500000000E-02 0.  1.
          2   -1    0    0    0  501  0.00000000000E+00 -0.00000000000E+00 -0.37141725469E+02  0.37141725556E+02  0.25500000000E-02 0.  1.
          2    1    1    2    0  502  0.19116720536E+02 -0.65901704351E+01 -0.52583180288E+01  0.20893282782E+02  0.25500000000E-02 0. -1.
         -2    1    1    2  502    0 -0.19116720536E+02  0.65901704351E+01 -0.19818432648E+02  0.28313417836E+02  0.25500000000E-02 0. -1.
<mgrwt>
<rscale>  0 0.42337406E+02</rscale>
<asrwt>0</asrwt>
<pdfrwt beam="2">  1        2 0.57141116E-02 0.42337406E+02</pdfrwt>
<pdfrwt beam="1">  1       -2 0.18561500E-02 0.42337406E+02</pdfrwt>
<totfact> 0.74486882E+05</totfact>
</mgrwt>
</event>
<event>
 4    1  0.2196664E-002  0.4602800E+02  0.7818608E-02  0.1468024E+00
         -2   -1    0    0  501    0 -0.00000000000E+00  0.00000000000E+00  0.32630550016E+00  0.32631546383E+00  0.25500000000E-02 0. -1.
          2   -1    0    0    0  501  0.00000000000E+00 -0.00000000000E+00 -0.16231296953E+04  0.16231296953E+04  0.25500000000E-02 0. -1.
          2    1    1    2    0  502  0.13205145552E+02 -0.17653952218E+02 -0.57848898787E+03  0.57890892806E+03  0.25500000000E-02 0. -1.
         -2    1    1    2  502    0 -0.13205145552E+02  0.17653952218E+02 -0.10443144020E+04  0.10445470827E+04  0.25500000000E-02 0. -1.
<mgrwt>
<rscale>  0 0.46028002E+02</rscale>
<asrwt>0</asrwt>
<pdfrwt beam="2">  1        2 0.24970580E+00 0.46028002E+02</pdfrwt>
<pdfrwt beam="1">  1       -2 0.50202912E-04 0.46028002E+02</pdfrwt>
<totfact> 0.13008856E+06</totfact>
</mgrwt>
</event>
<event>
 4    1  0.2196664E-002  0.4399929E+02  0.7818608E-02  0.1480687E+00
         -2   -1    0    0  501    0 -0.00000000000E+00  0.00000000000E+00  0.21155948663E+03  0.21155948664E+03  0.25500000000E-02 0. -1.
          2   -1    0    0    0  501  0.00000000000E+00 -0.00000000000E+00 -0.22876980378E+01  0.22876994590E+01  0.25500000000E-02 0. -1.
          2    1    1    2    0  502  0.10991504184E+02 -0.18411085235E+02  0.80725112199E+02  0.83524397452E+02  0.25500000000E-02 0. -1.
         -2    1    1    2  502    0 -0.10991504184E+02  0.18411085235E+02  0.12854667639E+03  0.13032278865E+03  0.25500000000E-02 0. -1.
<mgrwt>
<rscale>  0 0.43999290E+02</rscale>
<asrwt>0</asrwt>
<pdfrwt beam="2">  1        2 0.35195372E-03 0.43999290E+02</pdfrwt>
<pdfrwt beam="1">  1       -2 0.32547608E-01 0.43999290E+02</pdfrwt>
<totfact> 0.37628009E+05</totfact>
</mgrwt>
</event>
<event>
 4    1  0.2196664E-002  0.7298933E+02  0.7818608E-02  0.1350213E+00
          2   -1    0    0    0  501  0.00000000000E+00  0.00000000000E+00  0.12828397058E+03  0.12828397061E+03  0.25500000000E-02 0.  1.
         -2   -1    0    0  501    0 -0.00000000000E+00 -0.00000000000E+00 -0.10382126893E+02  0.10382127206E+02  0.25500000000E-02 0.  1.
          2    1    1    2    0  502 -0.27844478379E+02 -0.17176236545E+02  0.28227797530E+02  0.43210492221E+02  0.25500000000E-02 0. -1.
         -2    1    1    2  502    0  0.27844478379E+02  0.17176236545E+02  0.89674046158E+02  0.95455605591E+02  0.25500000000E-02 0. -1.
<mgrwt>
<rscale>  0 0.72989328E+02</rscale>
<asrwt>0</asrwt>
<pdfrwt beam="1">  1        2 0.19735995E-01 0.72989328E+02</pdfrwt>
<pdfrwt beam="2">  1       -2 0.15972504E-02 0.72989328E+02</pdfrwt>
<totfact> 0.24124607E+05</totfact>
</mgrwt>
</event>
<event>
 4    1  0.2196664E-002  0.5296380E+02  0.7818608E-02  0.1429981E+00
          2   -1    0    0    0  501  0.00000000000E+00  0.00000000000E+00  0.23037820893E+03  0.23037820894E+03  0.25500000000E-02 0. -1.
         -2   -1    0    0  501    0 -0.00000000000E+00 -0.00000000000E+00 -0.30440854643E+01  0.30440865323E+01  0.25500000000E-02 0. -1.
          2    1    1    2    0  502  0.13948127920E+02  0.16798944890E+02  0.47627159932E+02  0.52393713283E+02  0.25500000000E-02 0.  1.
         -2    1    1    2  502    0 -0.13948127920E+02 -0.16798944890E+02  0.17970696353E+03  0.18102858219E+03  0.25500000000E-02 0.  1.
<mgrwt>
<rscale>  0 0.52963802E+02</rscale>
<asrwt>0</asrwt>
<pdfrwt beam="1">  1        2 0.35442812E-01 0.52963802E+02</pdfrwt>
<pdfrwt beam="2">  1       -2 0.46832078E-03 0.52963802E+02</pdfrwt>
<totfact> 0.66826095E+05</totfact>
</mgrwt>
</event>
<event>
 4    1  0.2196664E-002  0.5340852E+02  0.7818608E-02  0.1427779E+00
          2   -1    0    0    0  501  0.00000000000E+00  0.00000000000E+00  0.16454004378E+03  0.16454004380E+03  0.25500000000E-02 0. -1.
         -2   -1    0    0  501    0 -0.00000000000E+00 -0.00000000000E+00 -0.43340060312E+01  0.43340067814E+01  0.25500000000E-02 0. -1.
          2    1    1    2    0  502  0.25541056958E+02 -0.71505468466E+01  0.70284885584E+02  0.75122839794E+02  0.25500000000E-02 0.  1.
         -2    1    1    2  502    0 -0.25541056958E+02  0.71505468466E+01  0.89921152161E+02  0.93751210783E+02  0.25500000000E-02 0.  1.
<mgrwt>
<rscale>  0 0.53408524E+02</rscale>
<asrwt>0</asrwt>
<pdfrwt beam="1">  1        2 0.25313851E-01 0.53408524E+02</pdfrwt>
<pdfrwt beam="2">  1       -2 0.66677026E-03 0.53408524E+02</pdfrwt>
<totfact> 0.58523567E+05</totfact>
</mgrwt>
</event>
<event>
 4    1  0.2196664E-002  0.5313384E+02  0.7818608E-02  0.1429136E+00
         -2   -1    0    0  501    0 -0.00000000000E+00  0.00000000000E+00  0.43701045850E+02  0.43701045925E+02  0.25500000000E-02 0.  1.
          2   -1    0    0    0  501  0.00000000000E+00 -0.00000000000E+00 -0.16150673818E+02  0.16150674019E+02  0.25500000000E-02 0.  1.
          2    1    1    2    0  502  0.19560125499E+02  0.12655811800E+02 -0.60761595245E+00  0.23305305952E+02  0.25500000000E-02 0.  1.
         -2    1    1    2  502    0 -0.19560125499E+02 -0.12655811800E+02  0.28157987985E+02  0.36546413992E+02  0.25500000000E-02 0.  1.
<mgrwt>
<rscale>  0 0.53133844E+02</rscale>
<asrwt>0</asrwt>
<pdfrwt beam="2">  1        2 0.24847191E-02 0.53133844E+02</pdfrwt>
<pdfrwt beam="1">  1       -2 0.67232378E-02 0.53133844E+02</pdfrwt>
<totfact> 0.36076658E+05</totfact>
</mgrwt>
</event>
<event>
 4    1  0.2196664E-002  0.5010245E+02  0.7818608E-02  0.1444790E+00
          2   -1    0    0    0  501  0.00000000000E+00  0.00000000000E+00  0.56255102526E+01  0.56255108306E+01  0.25500000000E-02 0.  1.
         -2   -1    0    0  501    0 -0.00000000000E+00 -0.00000000000E+00 -0.11155676603E+03  0.11155676605E+03  0.25500000000E-02 0.  1.
          2    1    1    2    0  502 -0.87838305202E+01  0.22705817241E+02 -0.66773570588E+02  0.71073339240E+02  0.25500000000E-02 0.  1.
         -2    1    1    2  502    0  0.87838305202E+01 -0.22705817241E+02 -0.39157685185E+02  0.46108937645E+02  0.25500000000E-02 0.  1.
<mgrwt>
<rscale>  0 0.50102446E+02</rscale>
<asrwt>0</asrwt>
<pdfrwt beam="1">  1        2 0.86546325E-03 0.50102446E+02</pdfrwt>
<pdfrwt beam="2">  1       -2 0.17162578E-01 0.50102446E+02</pdfrwt>
<totfact> 0.34130738E+05</totfact>
</mgrwt>
</event>
<event>
 4    1  0.2196664E-002  0.4757972E+02  0.7818608E-02  0.1458851E+00
         -2   -1    0    0  501    0 -0.00000000000E+00  0.00000000000E+00  0.15704939892E+01  0.15704960594E+01  0.25500000000E-02 0. -1.
          2   -1    0    0    0  501  0.00000000000E+00 -0.00000000000E+00 -0.36036886495E+03  0.36036886495E+03  0.25500000000E-02 0. -1.
          2    1    1    2    0  502 -0.10781974085E+02  0.17206373790E+02 -0.27369149854E+03  0.27444370396E+03  0.25500000000E-02 0.  1.
         -2    1    1    2  502    0  0.10781974085E+02 -0.17206373790E+02 -0.85106872418E+02  0.87495657055E+02  0.25500000000E-02 0.  1.
<mgrwt>
<rscale>  0 0.47579723E+02</rscale>
<asrwt>0</asrwt>
<pdfrwt beam="2">  1        2 0.55441298E-01 0.47579723E+02</pdfrwt>
<pdfrwt beam="1">  1       -2 0.24161491E-03 0.47579723E+02</pdfrwt>
<totfact> 0.10192936E+06</totfact>
</mgrwt>
</event>
<event>
 4    1  0.2196664E-002  0.1181498E+03  0.7818608E-02  0.1246181E+00
         -2   -1    0    0  501    0 -0.00000000000E+00  0.00000000000E+00  0.16795439601E+01  0.16795458959E+01  0.25500000000E-02 0.  1.
          2   -1    0    0    0  501  0.00000000000E+00 -0.00000000000E+00 -0.20778497490E+04  0.20778497490E+04  0.25500000000E-02 0.  1.
          2    1    1    2    0  502  0.19566363315E+02  0.55422378966E+02 -0.11427459483E+04  0.11442564333E+04  0.25500000000E-02 0.  1.
         -2    1    1    2  502    0 -0.19566363315E+02 -0.55422378966E+02 -0.93342425672E+03  0.93527286163E+03  0.25500000000E-02 0.  1.
<mgrwt>
<rscale>  0 0.11814977E+03</rscale>
<asrwt>0</asrwt>
<pdfrwt beam="2">  1        2 0.31966714E+00 0.11814977E+03</pdfrwt>
<pdfrwt beam="1">  1       -2 0.25839319E-03 0.11814977E+03</pdfrwt>
<totfact> 0.94732705E+04</totfact>
</mgrwt>
</event>
<event>
 4    1  0.2196664E-002  0.6286489E+02  0.7818608E-02  0.1386188E+00
          2   -1    0    0    0  501  0.00000000000E+00  0.00000000000E+00  0.90020189922E+03  0.90020189922E+03  0.25500000000E-02 0.  1.
         -2   -1    0    0  501    0 -0.00000000000E+00 -0.00000000000E+00 -0.10975283544E+01  0.10975313167E+01  0.25500000000E-02 0.  1.
          2    1    1    2    0  502 -0.22699141899E+02 -0.10531696219E+02  0.17683423829E+03  0.17859595602E+03  0.25500000000E-02 0. -1.
         -2    1    1    2  502    0  0.22699141899E+02  0.10531696219E+02  0.72227013257E+03  0.72270347452E+03  0.25500000000E-02 0. -1.
<mgrwt>
<rscale>  0 0.62864885E+02</rscale>
<asrwt>0</asrwt>
<pdfrwt beam="1">  1        2 0.13849287E+00 0.62864885E+02</pdfrwt>
<pdfrwt beam="2">  1       -2 0.16885041E-03 0.62864885E+02</pdfrwt>
<totfact> 0.64797330E+05</totfact>
</mgrwt>
</event>
<event>
 4    1  0.2196664E-002  0.9692779E+02  0.7818608E-02  0.1286892E+00
         -2   -1    0    0  501    0 -0.00000000000E+00  0.00000000000E+00  0.18159127641E+01  0.18159145545E+01  0.25500000000E-02 0. -1.
          2   -1    0    0    0  501  0.00000000000E+00 -0.00000000000E+00 -0.12934256401E+04  0.12934256401E+04  0.25500000000E-02 0. -1.
          2    1    1    2    0  502 -0.18884822139E+02 -0.17837085306E+02 -0.11925360339E+04  0.11928189260E+04  0.25500000000E-02 0. -1.
         -2    1    1    2  502    0  0.18884822139E+02  0.17837085306E+02 -0.99073693500E+02  0.10242262870E+03  0.25500000000E-02 0. -1.
<mgrwt>
<rscale>  0 0.96927794E+02</rscale>
<asrwt>0</asrwt>
<pdfrwt beam="2">  1        2 0.19898782E+00 0.96927794E+02</pdfrwt>
<pdfrwt beam="1">  1       -2 0.27937236E-03 0.96927794E+02</pdfrwt>
<totfact> 0.20925101E+05</totfact>
</mgrwt>
</event>
<event>
 4    1  0.2196664E-002  0.4961710E+02  0.7818608E-02  0.1447418E+00
         -2   -1    0    0  501    0 -0.00000000000E+00  0.00000000000E+00  0.61442053681E+01  0.61442058972E+01  0.25500000000E-02 0.  1.
          2   -1    0    0    0  501  0.00000000000E+00 -0.00000000000E+00 -0.10016985130E+03  0.10016985133E+03  0.25500000000E-02 0.  1.
          2    1    1    2    0  502 -0.58402321033E+00  0.24265921503E+02 -0.57998812296E+02  0.62873191932E+02  0.25500000000E-02 0.  1.
         -2    1    1    2  502    0  0.58402321033E+00 -0.24265921503E+02 -0.36026833638E+02  0.43440865300E+02  0.25500000000E-02 0.  1.
<mgrwt>
<rscale>  0 0.49617101E+02</rscale>
<asrwt>0</asrwt>
<pdfrwt beam="2">  1        2 0.15410745E-01 0.49617101E+02</pdfrwt>
<pdfrwt beam="1">  1       -2 0.94526248E-03 0.49617101E+02</pdfrwt>
<totfact> 0.61077062E+05</totfact>
</mgrwt>
</event>
<event>
 4    1  0.2196664E-002  0.6084062E+02  0.7818608E-02  0.1394338E+00
          2   -1    0    0    0  501  0.00000000000E+00  0.00000000000E+00  0.23889391463E+04  0.23889391463E+04  0.25500000000E-02 0. -1.
         -2   -1    0    0  501    0 -0.00000000000E+00 -0.00000000000E+00 -0.38736237610E+00  0.38737076931E+00  0.25500000000E-02 0. -1.
          2    1    1    2    0  502 -0.17352557256E+02 -0.22330898416E+02  0.75412410541E+03  0.75465419010E+03  0.25500000000E-02 0.  1.
         -2    1    1    2  502    0  0.17352557256E+02  0.22330898416E+02  0.16344276785E+04  0.16346723270E+04  0.25500000000E-02 0.  1.
<mgrwt>
<rscale>  0 0.60840617E+02</rscale>
<asrwt>0</asrwt>
<pdfrwt beam="1">  1        2 0.36752895E+00 0.60840617E+02</pdfrwt>
<pdfrwt beam="2">  1       -2 0.59594883E-04 0.60840617E+02</pdfrwt>
<totfact> 0.45698120E+05</totfact>
</mgrwt>
</event>
<event>
 4    1  0.2196664E-002  0.4213278E+02  0.7818608E-02  0.1493078E+00
          2   -1    0    0    0  501  0.00000000000E+00  0.00000000000E+00  0.41781306028E+00  0.41782084180E+00  0.25500000000E-02 0.  1.
         -2   -1    0    0  501    0 -0.00000000000E+00 -0.00000000000E+00 -0.10621704597E+04  0.10621704597E+04  0.25500000000E-02 0.  1.
          2    1    1    2    0  502  0.20689039011E+02  0.32256663880E+01 -0.58921883497E+03  0.58959077057E+03  0.25500000000E-02 0.  1.
         -2    1    1    2  502    0 -0.20689039011E+02 -0.32256663880E+01 -0.47253381167E+03  0.47299750997E+03  0.25500000000E-02 0.  1.
<mgrwt>
<rscale>  0 0.42132782E+02</rscale>
<asrwt>0</asrwt>
<pdfrwt beam="1">  1        2 0.64280382E-04 0.42132782E+02</pdfrwt>
<pdfrwt beam="2">  1       -2 0.16340868E+00 0.42132782E+02</pdfrwt>
<totfact> 0.12044021E+05</totfact>
</mgrwt>
</event>
<event>
 4    1  0.2196664E-002  0.2473561E+03  0.7818608E-02  0.1114987E+00
         -2   -1    0    0  501    0 -0.00000000000E+00  0.00000000000E+00  0.10314383216E+02  0.10314383531E+02  0.25500000000E-02 0. -1.
          2   -1    0    0    0  501  0.00000000000E+00 -0.00000000000E+00 -0.14830023399E+04  0.14830023399E+04  0.25500000000E-02 0. -1.
          2    1    1    2    0  502  0.35857036736E+02 -0.11819877007E+03 -0.69836369554E+03  0.70920274082E+03  0.25500000000E-02 0. -1.
         -2    1    1    2  502    0 -0.35857036736E+02  0.11819877007E+03 -0.77432426111E+03  0.78411398258E+03  0.25500000000E-02 0. -1.
<mgrwt>
<rscale>  0 0.24735606E+03</rscale>
<asrwt>0</asrwt>
<pdfrwt beam="2">  1        2 0.22815404E+00 0.24735606E+03</pdfrwt>
<pdfrwt beam="1">  1       -2 0.15868294E-02 0.24735606E+03</pdfrwt>
<totfact> 0.15079716E+04</totfact>
</mgrwt>
</event>
<event>
 4    1  0.2196664E-002  0.5704340E+02  0.7818608E-02  0.1410675E+00
          2   -1    0    0    0  501  0.00000000000E+00  0.00000000000E+00  0.90063019492E+03  0.90063019492E+03  0.25500000000E-02 0.  1.
         -2   -1    0    0  501    0 -0.00000000000E+00 -0.00000000000E+00 -0.90324046159E+00  0.90324406113E+00  0.25500000000E-02 0.  1.
          2    1    1    2    0  502 -0.16351280747E+02 -0.12077685931E+02  0.76605005042E+03  0.76631972090E+03  0.25500000000E-02 0.  1.
         -2    1    1    2  502    0  0.16351280747E+02  0.12077685931E+02  0.13367690403E+03  0.13521371808E+03  0.25500000000E-02 0.  1.
<mgrwt>
<rscale>  0 0.57043396E+02</rscale>
<asrwt>0</asrwt>
<pdfrwt beam="1">  1        2 0.13855886E+00 0.57043396E+02</pdfrwt>
<pdfrwt beam="2">  1       -2 0.13895998E-03 0.57043396E+02</pdfrwt>
<totfact> 0.82771194E+05</totfact>
</mgrwt>
</event>
<event>
 4    1  0.2196664E-002  0.1248187E+03  0.7818608E-02  0.1235353E+00
         -2   -1    0    0  501    0 -0.00000000000E+00  0.00000000000E+00  0.14878180145E+02  0.14878180364E+02  0.25500000000E-02 0. -1.
          2   -1    0    0    0  501  0.00000000000E+00 -0.00000000000E+00 -0.26178779857E+03  0.26178779858E+03  0.25500000000E-02 0. -1.
          2    1    1    2    0  502 -0.21658535158E+02  0.35175002795E+02 -0.22714906437E+03  0.23087457724E+03  0.25500000000E-02 0.  1.
         -2    1    1    2  502    0  0.21658535158E+02 -0.35175002795E+02 -0.19760554054E+02  0.45791401702E+02  0.25500000000E-02 0.  1.
<mgrwt>
<rscale>  0 0.12481869E+03</rscale>
<asrwt>0</asrwt>
<pdfrwt beam="2">  1        2 0.40275043E-01 0.12481869E+03</pdfrwt>
<pdfrwt beam="1">  1       -2 0.22889510E-02 0.12481869E+03</pdfrwt>
<totfact> 0.72528930E+04</totfact>
</mgrwt>
</event>
<event>
 4    1  0.2196664E-002  0.6101298E+02  0.7818608E-02  0.1393629E+00
         -2   -1    0    0  501    0 -0.00000000000E+00  0.00000000000E+00  0.14512428264E+02  0.14512428488E+02  0.25500000000E-02 0.  1.
          2   -1    0    0    0  501  0.00000000000E+00 -0.00000000000E+00 -0.64127506269E+02  0.64127506320E+02  0.25500000000E-02 0.  1.
          2    1    1    2    0  502 -0.22883261617E+02  0.17610994085E+02 -0.37492294302E+02  0.47322963912E+02  0.25500000000E-02 0.  1.
         -2    1    1    2  502    0  0.22883261617E+02 -0.17610994085E+02 -0.12122783703E+02  0.31316970896E+02  0.25500000000E-02 0.  1.
<mgrwt>
<rscale>  0 0.61012977E+02</rscale>
<asrwt>0</asrwt>
<pdfrwt beam="2">  1        2 0.98657701E-02 0.61012977E+02</pdfrwt>
<pdfrwt beam="1">  1       -2 0.22326813E-02 0.61012977E+02</pdfrwt>
<totfact> 0.32175137E+05</totfact>
</mgrwt>
</event>
<event>
 4    1  0.2196664E-002  0.4392447E+02  0.7818608E-02  0.1481170E+00
          2   -1    0    0    0  501  0.00000000000E+00  0.00000000000E+00  0.17038689971E+01  0.17038709052E+01  0.25500000000E-02 0. -1.
         -2   -1    0    0  501    0 -0.00000000000E+00 -0.00000000000E+00 -0.28308482168E+03  0.28308482169E+03  0.25500000000E-02 0. -1.
          2    1    1    2    0  502 -0.19505970428E-01  0.20888596185E+02 -0.96713746190E+02  0.98943835279E+02  0.25500000000E-02 0. -1.
         -2    1    1    2  502    0  0.19505970428E-01 -0.20888596185E+02 -0.18466720649E+03  0.18584485732E+03  0.25500000000E-02 0. -1.
<mgrwt>
<rscale>  0 0.43924468E+02</rscale>
<asrwt>0</asrwt>
<pdfrwt beam="1">  1        2 0.26213406E-03 0.43924468E+02</pdfrwt>
<pdfrwt beam="2">  1       -2 0.43551474E-01 0.43924468E+02</pdfrwt>
<totfact> 0.32882137E+05</totfact>
</mgrwt>
</event>
<event>
 4    1  0.2196664E-002  0.4536916E+02  0.7818608E-02  0.1472050E+00
          2   -1    0    0    0  501  0.00000000000E+00  0.00000000000E+00  0.66948328383E+03  0.66948328383E+03  0.25500000000E-02 0. -1.
         -2   -1    0    0  501    0 -0.00000000000E+00 -0.00000000000E+00 -0.76863581888E+00  0.76864004876E+00  0.25500000000E-02 0. -1.
          2    1    1    2    0  502 -0.21454899671E+02 -0.54843492929E+01  0.40703146946E+03  0.40763342349E+03  0.25500000000E-02 0. -1.
         -2    1    1    2  502    0  0.21454899671E+02  0.54843492929E+01  0.26168317855E+03  0.26261850039E+03  0.25500000000E-02 0. -1.
<mgrwt>
<rscale>  0 0.45369164E+02</rscale>
<asrwt>0</asrwt>
<pdfrwt beam="1">  1        2 0.10299726E+00 0.45369164E+02</pdfrwt>
<pdfrwt beam="2">  1       -2 0.11825218E-03 0.45369164E+02</pdfrwt>
<totfact> 0.13825275E+06</totfact>
</mgrwt>
</event>
<event>
 4    1  0.2196664E-002  0.5923506E+02  0.7818608E-02  0.1401070E+00
         -2   -1    0    0  501    0 -0.00000000000E+00  0.00000000000E+00  0.92629152361E+00  0.92629503357E+00  0.25500000000E-02 0. -1.
          2   -1    0    0    0  501  0.00000000000E+00 -0.00000000000E+00 -0.94699837241E+03  0.94699837242E+03  0.25500000000E-02 0. -1.
          2    1    1    2    0  502 -0.20433600672E+02  0.13355202981E+02 -0.74143663992E+03  0.74183838166E+03  0.25500000000E-02 0. -1.
         -2    1    1    2  502    0  0.20433600672E+02 -0.13355202981E+02 -0.20463544097E+03  0.20608628579E+03  0.25500000000E-02 0. -1.
<mgrwt>
<rscale>  0 0.59235065E+02</rscale>
<asrwt>0</asrwt>
<pdfrwt beam="2">  1        2 0.14569128E+00 0.59235065E+02</pdfrwt>
<pdfrwt beam="1">  1       -2 0.14250742E-03 0.59235065E+02</pdfrwt>
<totfact> 0.75652327E+05</totfact>
</mgrwt>
</event>
<event>
 4    1  0.2196664E-002  0.4931915E+02  0.7818608E-02  0.1449049E+00
         -2   -1    0    0  501    0 -0.00000000000E+00  0.00000000000E+00  0.15258577571E+04  0.15258577571E+04  0.25500000000E-02 0.  1.
          2   -1    0    0    0  501  0.00000000000E+00 -0.00000000000E+00 -0.39852240563E+00  0.39853056380E+00  0.25500000000E-02 0.  1.
          2    1    1    2    0  502 -0.28771612696E+01 -0.22512307859E+02  0.10611873868E+04  0.10614300504E+04  0.25500000000E-02 0. -1.
         -2    1    1    2  502    0  0.28771612696E+01  0.22512307859E+02  0.46427184795E+03  0.46482623728E+03  0.25500000000E-02 0. -1.
<mgrwt>
<rscale>  0 0.49319154E+02</rscale>
<asrwt>0</asrwt>
<pdfrwt beam="2">  1        2 0.61311699E-04 0.49319154E+02</pdfrwt>
<pdfrwt beam="1">  1       -2 0.23474761E+00 0.49319154E+02</pdfrwt>
<totfact> 0.49096855E+04</totfact>
</mgrwt>
</event>
<event>
 4    1  0.2196664E-002  0.8535194E+02  0.7818608E-02  0.1314515E+00
          2   -1    0    0    0  501  0.00000000000E+00  0.00000000000E+00  0.56139772459E+02  0.56139772517E+02  0.25500000000E-02 0. -1.
         -2   -1    0    0  501    0 -0.00000000000E+00 -0.00000000000E+00 -0.32441145566E+02  0.32441145667E+02  0.25500000000E-02 0. -1.
          2    1    1    2    0  502  0.24647968627E+02 -0.32534924442E+02  0.24778328469E+02  0.47749442238E+02  0.25500000000E-02 0.  1.
         -2    1    1    2  502    0 -0.24647968627E+02  0.32534924442E+02 -0.10797015768E+01  0.40831475945E+02  0.25500000000E-02 0.  1.
<mgrwt>
<rscale>  0 0.85351943E+02</rscale>
<asrwt>0</asrwt>
<pdfrwt beam="1">  1        2 0.86368881E-02 0.85351943E+02</pdfrwt>
<pdfrwt beam="2">  1       -2 0.49909454E-02 0.85351943E+02</pdfrwt>
<totfact> 0.12546375E+05</totfact>
</mgrwt>
</event>
<event>
 4    1  0.2196664E-002  0.6618836E+02  0.7818608E-02  0.1373556E+00
         -2   -1    0    0  501    0 -0.00000000000E+00  0.00000000000E+00  0.20756724513E+03  0.20756724514E+03  0.25500000000E-02 0. -1.
          2   -1    0    0    0  501  0.00000000000E+00 -0.00000000000E+00 -0.52764819745E+01  0.52764825907E+01  0.25500000000E-02 0. -1.
          2    1    1    2    0  502 -0.19315743650E+02  0.24262924557E+02  0.13829189333E+03  0.14172662145E+03  0.25500000000E-02 0.  1.
         -2    1    1    2  502    0  0.19315743650E+02 -0.24262924557E+02  0.63998869821E+02  0.71117106280E+02  0.25500000000E-02 0.  1.
<mgrwt>
<rscale>  0 0.66188364E+02</rscale>
<asrwt>0</asrwt>
<pdfrwt beam="2">  1        2 0.81176661E-03 0.66188364E+02</pdfrwt>
<pdfrwt beam="1">  1       -2 0.31933418E-01 0.66188364E+02</pdfrwt>
<totfact> 0.13818722E+05</totfact>
</mgrwt>
</event>
<event>
 4    1  0.2196664E-002  0.4409550E+02  0.7818608E-02  0.1480068E+00
          2   -1    0    0    0  501  0.00000000000E+00  0.00000000000E+00  0.23348075001E+03  0.23348075003E+03  0.25500000000E-02 0. -1.
         -2   -1    0    0  501    0 -0.00000000000E+00 -0.00000000000E+00 -0.20819840697E+01  0.20819856313E+01  0.25500000000E-02 0. -1.
          2    1    1    2    0  502  0.19922272345E+02  0.91390674294E+01  0.10296332020E+03  0.10527043651E+03  0.25500000000E-02 0. -1.
         -2    1    1    2  502    0 -0.19922272345E+02 -0.91390674294E+01  0.12843544574E+03  0.13029229915E+03  0.25500000000E-02 0. -1.
<mgrwt>
<rscale>  0 0.44095505E+02</rscale>
<asrwt>0</asrwt>
<pdfrwt beam="1">  1        2 0.35920113E-01 0.44095505E+02</pdfrwt>
<pdfrwt beam="2">  1       -2 0.32030539E-03 0.44095505E+02</pdfrwt>
<totfact> 0.10590092E+06</totfact>
</mgrwt>
</event>
<event>
 4    1  0.2196664E-002  0.6670753E+02  0.7818608E-02  0.1371661E+00
         -2   -1    0    0  501    0 -0.00000000000E+00  0.00000000000E+00  0.40925921402E+01  0.40925929346E+01  0.25500000000E-02 0. -1.
          2   -1    0    0    0  501  0.00000000000E+00 -0.00000000000E+00 -0.27182616753E+03  0.27182616754E+03  0.25500000000E-02 0. -1.
          2    1    1    2    0  502 -0.33803569422E+01 -0.19789832057E+02 -0.23698945917E+02  0.31059689470E+02  0.25500000000E-02 0.  1.
         -2    1    1    2  502    0  0.33803569422E+01  0.19789832057E+02 -0.24403462947E+03  0.24485907101E+03  0.25500000000E-02 0.  1.
<mgrwt>
<rscale>  0 0.66707533E+02</rscale>
<asrwt>0</asrwt>
<pdfrwt beam="2">  1        2 0.41819396E-01 0.66707533E+02</pdfrwt>
<pdfrwt beam="1">  1       -2 0.62962984E-03 0.66707533E+02</pdfrwt>
<totfact> 0.39339528E+05</totfact>
</mgrwt>
</event>
<event>
 4    1  0.2196664E-002  0.5411167E+02  0.7818608E-02  0.1424347E+00
         -2   -1    0    0  501    0 -0.00000000000E+00  0.00000000000E+00  0.44908806272E+01  0.44908813511E+01  0.25500000000E-02 0. -1.
          2   -1    0    0    0  501  0.00000000000E+00 -0.00000000000E+00 -0.16300099631E+03  0.16300099633E+03  0.25500000000E-02 0. -1.
          2    1    1    2    0  502  0.16516316990E+02  0.21317713207E+02 -0.72484587819E+02  0.77338535679E+02  0.25500000000E-02 0. -1.
         -2    1    1    2  502    0 -0.16516316990E+02 -0.21317713207E+02 -0.86025527866E+02  0.90153342004E+02  0.25500000000E-02 0. -1.
<mgrwt>
<rscale>  0 0.54111665E+02</rscale>
<asrwt>0</asrwt>
<pdfrwt beam="2">  1        2 0.25077072E-01 0.54111665E+02</pdfrwt>
<pdfrwt beam="1">  1       -2 0.69090489E-03 0.54111665E+02</pdfrwt>
<totfact> 0.56446275E+05</totfact>
</mgrwt>
</event>
<event>
 4    1  0.2196664E-002  0.6656013E+02  0.7818608E-02  0.1372197E+00
         -2   -1    0    0  501    0 -0.00000000000E+00  0.00000000000E+00  0.16496426675E+02  0.16496426873E+02  0.25500000000E-02 0. -1.
          2   -1    0    0    0  501  0.00000000000E+00 -0.00000000000E+00 -0.67139550635E+02  0.67139550683E+02  0.25500000000E-02 0. -1.
          2    1    1    2    0  502 -0.24723360023E+02 -0.16834892705E+02 -0.69869619651E+01  0.30716050971E+02  0.25500000000E-02 0.  1.
         -2    1    1    2  502    0  0.24723360023E+02  0.16834892705E+02 -0.43656161994E+02  0.52919926585E+02  0.25500000000E-02 0.  1.
<mgrwt>
<rscale>  0 0.66560129E+02</rscale>
<asrwt>0</asrwt>
<pdfrwt beam="2">  1        2 0.10329162E-01 0.66560129E+02</pdfrwt>
<pdfrwt beam="1">  1       -2 0.25379118E-02 0.66560129E+02</pdfrwt>
<totfact> 0.25825322E+05</totfact>
</mgrwt>
</event>
<event>
 4    1  0.2196664E-002  0.6102728E+02  0.7818608E-02  0.1393571E+00
          2   -1    0    0    0  501  0.00000000000E+00  0.00000000000E+00  0.16883861082E+03  0.16883861084E+03  0.25500000000E-02 0.  1.
         -2   -1    0    0  501    0 -0.00000000000E+00 -0.00000000000E+00 -0.55146274371E+01  0.55146280267E+01  0.25500000000E-02 0.  1.
          2    1    1    2    0  502  0.12713447545E+02 -0.18509098651E+02  0.14068897652E+03  0.14246966906E+03  0.25500000000E-02 0. -1.
         -2    1    1    2  502    0 -0.12713447545E+02  0.18509098651E+02  0.22635006861E+02  0.31883569804E+02  0.25500000000E-02 0. -1.
<mgrwt>
<rscale>  0 0.61027276E+02</rscale>
<asrwt>0</asrwt>
<pdfrwt beam="1">  1        2 0.25975167E-01 0.61027276E+02</pdfrwt>
<pdfrwt beam="2">  1       -2 0.84840438E-03 0.61027276E+02</pdfrwt>
<totfact> 0.41986996E+05</totfact>
</mgrwt>
</event>
<event>
 4    1  0.2196664E-002  0.7892908E+02  0.7818608E-02  0.1332118E+00
         -2   -1    0    0  501    0 -0.00000000000E+00  0.00000000000E+00  0.53217656681E+01  0.53217662790E+01  0.25500000000E-02 0.  1.
          2   -1    0    0    0  501  0.00000000000E+00 -0.00000000000E+00 -0.29265656266E+03  0.29265656267E+03  0.25500000000E-02 0.  1.
          2    1    1    2    0  502  0.33512077568E+02 -0.81357994278E+01 -0.71225627304E+02  0.79134951612E+02  0.25500000000E-02 0.  1.
         -2    1    1    2  502    0 -0.33512077568E+02  0.81357994278E+01 -0.21610916968E+03  0.21884337733E+03  0.25500000000E-02 0.  1.
<mgrwt>
<rscale>  0 0.78929076E+02</rscale>
<asrwt>0</asrwt>
<pdfrwt beam="2">  1        2 0.45024074E-01 0.78929076E+02</pdfrwt>
<pdfrwt beam="1">  1       -2 0.81873346E-03 0.78929076E+02</pdfrwt>
<totfact> 0.26078772E+05</totfact>
</mgrwt>
</event>
<event>
 4    1  0.2196664E-002  0.1174034E+03  0.7818608E-02  0.1247443E+00
          2   -1    0    0    0  501  0.00000000000E+00  0.00000000000E+00  0.72492270723E+02  0.72492270768E+02  0.25500000000E-02 0. -1.
         -2   -1    0    0  501    0 -0.00000000000E+00 -0.00000000000E+00 -0.47534559872E+02  0.47534559941E+02  0.25500000000E-02 0. -1.
          2    1    1    2    0  502 -0.16553217781E+02 -0.20439100858E+02 -0.41173570642E+02  0.48857228623E+02  0.25500000000E-02 0.  1.
         -2    1    1    2  502    0  0.16553217781E+02  0.20439100858E+02  0.66131281492E+02  0.71169602086E+02  0.25500000000E-02 0.  1.
<mgrwt>
<rscale>  0 0.11740338E+03</rscale>
<asrwt>0</asrwt>
<pdfrwt beam="1">  1        2 0.11152657E-01 0.11740338E+03</pdfrwt>
<pdfrwt beam="2">  1       -2 0.73130092E-02 0.11740338E+03</pdfrwt>
<totfact> 0.54230624E+04</totfact>
</mgrwt>
</event>
<event>
 4    1  0.2196664E-002  0.9010190E+02  0.7818608E-02  0.1302605E+00
         -2   -1    0    0  501    0 -0.00000000000E+00  0.00000000000E+00  0.10893615275E+03  0.10893615278E+03  0.25500000000E-02 0.  1.
          2   -1    0    0    0  501  0.00000000000E+00 -0.00000000000E+00 -0.18630987678E+02  0.18630987852E+02  0.25500000000E-02 0.  1.
          2    1    1    2    0  502 -0.39189448895E+02 -0.21199013047E+02  0.54584156314E+02  0.70460209948E+02  0.25500000000E-02 0. -1.
         -2    1    1    2  502    0  0.39189448895E+02  0.21199013047E+02  0.35721008754E+02  0.57106930680E+02  0.25500000000E-02 0. -1.
<mgrwt>
<rscale>  0 0.90101901E+02</rscale>
<asrwt>0</asrwt>
<pdfrwt beam="2">  1        2 0.28663059E-02 0.90101901E+02</pdfrwt>
<pdfrwt beam="1">  1       -2 0.16759408E-01 0.90101901E+02</pdfrwt>
<totfact> 0.80095837E+04</totfact>
</mgrwt>
</event>
<event>
 4    1  0.2196664E-002  0.1233616E+03  0.7818608E-02  0.1237652E+00
         -2   -1    0    0  501    0 -0.00000000000E+00  0.00000000000E+00  0.39583362593E+01  0.39583370806E+01  0.25500000000E-02 0. -1.
          2   -1    0    0    0  501  0.00000000000E+00 -0.00000000000E+00 -0.96114115092E+03  0.96114115092E+03  0.25500000000E-02 0. -1.
          2    1    1    2    0  502  0.55289459548E+01  0.59510356741E+02 -0.35930961538E+03  0.36424641592E+03  0.25500000000E-02 0.  1.
         -2    1    1    2  502    0 -0.55289459548E+01 -0.59510356741E+02 -0.59787319928E+03  0.60085307208E+03  0.25500000000E-02 0.  1.
<mgrwt>
<rscale>  0 0.12336159E+03</rscale>
<asrwt>0</asrwt>
<pdfrwt beam="2">  1        2 0.14786768E+00 0.12336159E+03</pdfrwt>
<pdfrwt beam="1">  1       -2 0.60897564E-03 0.12336159E+03</pdfrwt>
<totfact> 0.11119372E+05</totfact>
</mgrwt>
</event>
<event>
 4    1  0.2196664E-002  0.3229943E+03  0.7818608E-02  0.1074279E+00
          2   -1    0    0    0  501  0.00000000000E+00  0.00000000000E+00  0.23846107811E+03  0.23846107813E+03  0.25500000000E-02 0.  1.
         -2   -1    0    0  501    0 -0.00000000000E+00 -0.00000000000E+00 -0.10937352839E+03  0.10937352842E+03  0.25500000000E-02 0.  1.
          2    1    1    2    0  502  0.28465617574E+02  0.12713776515E+03  0.16731374651E+03  0.21205705008E+03  0.25500000000E-02 0. -1.
         -2    1    1    2  502    0 -0.28465617574E+02 -0.12713776515E+03 -0.38226196788E+02  0.13577755646E+03  0.25500000000E-02 0. -1.
<mgrwt>
<rscale>  0 0.32299430E+03</rscale>
<asrwt>0</asrwt>
<pdfrwt beam="1">  1        2 0.36686319E-01 0.32299430E+03</pdfrwt>
<pdfrwt beam="2">  1       -2 0.16826697E-01 0.32299430E+03</pdfrwt>
<totfact> 0.39683706E+03</totfact>
</mgrwt>
</event>
<event>
 4    1  0.2196664E-002  0.4492431E+02  0.7818608E-02  0.1474815E+00
          2   -1    0    0    0  501  0.00000000000E+00  0.00000000000E+00  0.11835758993E+02  0.11835759268E+02  0.25500000000E-02 0.  1.
         -2   -1    0    0  501    0 -0.00000000000E+00 -0.00000000000E+00 -0.42629159108E+02  0.42629159184E+02  0.25500000000E-02 0.  1.
          2    1    1    2    0  502 -0.29863583312E+01 -0.22226112363E+02 -0.13848825323E+02  0.26357321112E+02  0.25500000000E-02 0.  1.
         -2    1    1    2  502    0  0.29863583312E+01  0.22226112363E+02 -0.16944574791E+02  0.28107597340E+02  0.25500000000E-02 0.  1.
<mgrwt>
<rscale>  0 0.44924312E+02</rscale>
<asrwt>0</asrwt>
<pdfrwt beam="1">  1        2 0.18208861E-02 0.44924312E+02</pdfrwt>
<pdfrwt beam="2">  1       -2 0.65583321E-02 0.44924312E+02</pdfrwt>
<totfact> 0.54053412E+05</totfact>
</mgrwt>
</event>
<event>
 4    1  0.2196664E-002  0.5567844E+02  0.7818608E-02  0.1416917E+00
         -2   -1    0    0  501    0 -0.00000000000E+00  0.00000000000E+00  0.44487026991E+03  0.44487026992E+03  0.25500000000E-02 0.  1.
          2   -1    0    0    0  501  0.00000000000E+00 -0.00000000000E+00 -0.17421295214E+01  0.17421313876E+01  0.25500000000E-02 0.  1.
          2    1    1    2    0  502  0.14119147896E+02 -0.22947418407E+02  0.27776326150E+03  0.27906695217E+03  0.25500000000E-02 0. -1.
         -2    1    1    2  502    0 -0.14119147896E+02  0.22947418407E+02  0.16536487889E+03  0.16754544913E+03  0.25500000000E-02 0. -1.
<mgrwt>
<rscale>  0 0.55678436E+02</rscale>
<asrwt>0</asrwt>
<pdfrwt beam="2">  1        2 0.26801974E-03 0.55678436E+02</pdfrwt>
<pdfrwt beam="1">  1       -2 0.68441664E-01 0.55678436E+02</pdfrwt>
<totfact> 0.13869862E+05</totfact>
</mgrwt>
</event>
<event>
 4    1  0.2196664E-002  0.6481248E+02  0.7818608E-02  0.1378678E+00
          2   -1    0    0    0  501  0.00000000000E+00  0.00000000000E+00  0.31059481137E+03  0.31059481138E+03  0.25500000000E-02 0. -1.
         -2   -1    0    0  501    0 -0.00000000000E+00 -0.00000000000E+00 -0.33811389123E+01  0.33811398739E+01  0.25500000000E-02 0. -1.
          2    1    1    2    0  502 -0.23134201105E+02 -0.59066519560E+01  0.25975112167E+03  0.26084617117E+03  0.25500000000E-02 0.  1.
         -2    1    1    2  502    0  0.23134201105E+02  0.59066519560E+01  0.47462550780E+02  0.53129780078E+02  0.25500000000E-02 0.  1.
<mgrwt>
<rscale>  0 0.64812479E+02</rscale>
<asrwt>0</asrwt>
<pdfrwt beam="1">  1        2 0.47783807E-01 0.64812479E+02</pdfrwt>
<pdfrwt beam="2">  1       -2 0.52017541E-03 0.64812479E+02</pdfrwt>
<totfact> 0.44441028E+05</totfact>
</mgrwt>
</event>
<event>
 4    1  0.2196664E-002  0.1065943E+03  0.7818608E-02  0.1267010E+00
         -2   -1    0    0  501    0 -0.00000000000E+00  0.00000000000E+00  0.39506708924E+03  0.39506708925E+03  0.25500000000E-02 0. -1.
          2   -1    0    0    0  501  0.00000000000E+00 -0.00000000000E+00 -0.71901310621E+01  0.71901315142E+01  0.25500000000E-02 0. -1.
          2    1    1    2    0  502 -0.35885635262E+02 -0.15973338978E+02  0.57997586548E+02  0.70047458399E+02  0.25500000000E-02 0. -1.
         -2    1    1    2  502    0  0.35885635262E+02  0.15973338978E+02  0.32987937163E+03  0.33220976237E+03  0.25500000000E-02 0. -1.
<mgrwt>
<rscale>  0 0.10659426E+03</rscale>
<asrwt>0</asrwt>
<pdfrwt beam="2">  1        2 0.11061742E-02 0.10659426E+03</pdfrwt>
<pdfrwt beam="1">  1       -2 0.60779544E-01 0.10659426E+03</pdfrwt>
<totfact> 0.28698310E+04</totfact>
</mgrwt>
</event>
<event>
 4    1  0.2196664E-002  0.5117093E+02  0.7818608E-02  0.1439126E+00
         -2   -1    0    0  501    0 -0.00000000000E+00  0.00000000000E+00  0.45199133099E+02  0.45199133171E+02  0.25500000000E-02 0. -1.
          2   -1    0    0    0  501  0.00000000000E+00 -0.00000000000E+00 -0.14482935164E+02  0.14482935389E+02  0.25500000000E-02 0. -1.
          2    1    1    2    0  502  0.48695439682E+01  0.24959266044E+02  0.12071890393E+02  0.28149741812E+02  0.25500000000E-02 0.  1.
         -2    1    1    2  502    0 -0.48695439682E+01 -0.24959266044E+02  0.18644307542E+02  0.31532326748E+02  0.25500000000E-02 0.  1.
<mgrwt>
<rscale>  0 0.51170934E+02</rscale>
<asrwt>0</asrwt>
<pdfrwt beam="2">  1        2 0.22281439E-02 0.51170934E+02</pdfrwt>
<pdfrwt beam="1">  1       -2 0.69537128E-02 0.51170934E+02</pdfrwt>
<totfact> 0.39250237E+05</totfact>
</mgrwt>
</event>
<event>
 4    1  0.2196664E-002  0.6449309E+02  0.7818608E-02  0.1379888E+00
          2   -1    0    0    0  501  0.00000000000E+00  0.00000000000E+00  0.53547907723E+03  0.53547907723E+03  0.25500000000E-02 0. -1.
         -2   -1    0    0  501    0 -0.00000000000E+00 -0.00000000000E+00 -0.19418860255E+01  0.19418876998E+01  0.25500000000E-02 0. -1.
          2    1    1    2    0  502  0.28260683408E+02 -0.13380123623E+02  0.33245983403E+03  0.33392699080E+03  0.25500000000E-02 0. -1.
         -2    1    1    2  502    0 -0.28260683408E+02  0.13380123623E+02  0.20107735717E+03  0.20349397414E+03  0.25500000000E-02 0. -1.
<mgrwt>
<rscale>  0 0.64493094E+02</rscale>
<asrwt>0</asrwt>
<pdfrwt beam="1">  1        2 0.82381454E-01 0.64493094E+02</pdfrwt>
<pdfrwt beam="2">  1       -2 0.29875162E-03 0.64493094E+02</pdfrwt>
<totfact> 0.54118770E+05</totfact>
</mgrwt>
</event>
<event>
 4    1  0.2196664E-002  0.4922323E+02  0.7818608E-02  0.1449577E+00
          2   -1    0    0    0  501  0.00000000000E+00  0.00000000000E+00  0.31613159674E+02  0.31613159777E+02  0.25500000000E-02 0.  1.
         -2   -1    0    0  501    0 -0.00000000000E+00 -0.00000000000E+00 -0.19160740011E+02  0.19160740181E+02  0.25500000000E-02 0.  1.
          2    1    1    2    0  502 -0.74133888964E+01  0.21067368068E+02 -0.44407068306E+01  0.22770863310E+02  0.25500000000E-02 0. -1.
         -2    1    1    2  502    0  0.74133888964E+01 -0.21067368068E+02  0.16893126494E+02  0.28003036648E+02  0.25500000000E-02 0. -1.
<mgrwt>
<rscale>  0 0.49223228E+02</rscale>
<asrwt>0</asrwt>
<pdfrwt beam="1">  1        2 0.48635630E-02 0.49223228E+02</pdfrwt>
<pdfrwt beam="2">  1       -2 0.29478062E-02 0.49223228E+02</pdfrwt>
<totfact> 0.49317610E+05</totfact>
</mgrwt>
</event>
<event>
 4    1  0.2196664E-002  0.4434152E+02  0.7818608E-02  0.1478495E+00
         -2   -1    0    0  501    0 -0.00000000000E+00  0.00000000000E+00  0.14351716982E+03  0.14351716985E+03  0.25500000000E-02 0. -1.
          2   -1    0    0    0  501  0.00000000000E+00 -0.00000000000E+00 -0.34249742465E+01  0.34249751958E+01  0.25500000000E-02 0. -1.
          2    1    1    2    0  502 -0.13666625450E+02 -0.16926403076E+02  0.55884225591E+02  0.59969379259E+02  0.25500000000E-02 0.  1.
         -2    1    1    2  502    0  0.13666625450E+02  0.16926403076E+02  0.84207969987E+02  0.86972765784E+02  0.25500000000E-02 0.  1.
<mgrwt>
<rscale>  0 0.44341524E+02</rscale>
<asrwt>0</asrwt>
<pdfrwt beam="2">  1        2 0.52691926E-03 0.44341524E+02</pdfrwt>
<pdfrwt beam="1">  1       -2 0.22079562E-01 0.44341524E+02</pdfrwt>
<totfact> 0.42660670E+05</totfact>
</mgrwt>
</event>
<event>
 4    1  0.2196664E-002  0.4827985E+02  0.7818608E-02  0.1454847E+00
         -2   -1    0    0  501    0 -0.00000000000E+00  0.00000000000E+00  0.38649713118E+00  0.38650554318E+00  0.25500000000E-02 0.  1.
          2   -1    0    0    0  501  0.00000000000E+00 -0.00000000000E+00 -0.15077204480E+04  0.15077204480E+04  0.25500000000E-02 0.  1.
          2    1    1    2    0  502  0.23963212127E+02 -0.27966303235E+01 -0.72792193060E+03  0.72832162794E+03  0.25500000000E-02 0.  1.
         -2    1    1    2  502    0 -0.23963212127E+02  0.27966303235E+01 -0.77941202025E+03  0.77978532558E+03  0.25500000000E-02 0.  1.
<mgrwt>
<rscale>  0 0.48279850E+02</rscale>
<asrwt>0</asrwt>
<pdfrwt beam="2">  1        2 0.23195228E+00 0.48279850E+02</pdfrwt>
<pdfrwt beam="1">  1       -2 0.59462951E-04 0.48279850E+02</pdfrwt>
<totfact> 0.11929016E+06</totfact>
</mgrwt>
</event>
<event>
 4    1  0.2196664E-002  0.5131105E+02  0.7818608E-02  0.1438396E+00
         -2   -1    0    0  501    0 -0.00000000000E+00  0.00000000000E+00  0.24582445260E+01  0.24582458486E+01  0.25500000000E-02 0.  1.
          2   -1    0    0    0  501  0.00000000000E+00 -0.00000000000E+00 -0.26775440748E+03  0.26775440749E+03  0.25500000000E-02 0.  1.
          2    1    1    2    0  502  0.11353160828E+02  0.23003100216E+02 -0.13481362328E+03  0.13723246667E+03  0.25500000000E-02 0.  1.
         -2    1    1    2  502    0 -0.11353160828E+02 -0.23003100216E+02 -0.13048253968E+03  0.13298018667E+03  0.25500000000E-02 0.  1.
<mgrwt>
<rscale>  0 0.51311051E+02</rscale>
<asrwt>0</asrwt>
<pdfrwt beam="2">  1        2 0.41192963E-01 0.51311051E+02</pdfrwt>
<pdfrwt beam="1">  1       -2 0.37819178E-03 0.51311051E+02</pdfrwt>
<totfact> 0.76218374E+05</totfact>
</mgrwt>
</event>
<event>
 4    1  0.2196664E-002  0.7076834E+02  0.7818608E-02  0.1357500E+00
          2   -1    0    0    0  501  0.00000000000E+00  0.00000000000E+00  0.76181177501E+02  0.76181177544E+02  0.25500000000E-02 0.  1.
         -2   -1    0    0  501    0 -0.00000000000E+00 -0.00000000000E+00 -0.16435022627E+02  0.16435022824E+02  0.25500000000E-02 0.  1.
          2    1    1    2    0  502  0.35301194545E+02  0.23254444191E+01  0.28988015822E+02  0.45737152249E+02  0.25500000000E-02 0.  1.
         -2    1    1    2  502    0 -0.35301194545E+02 -0.23254444191E+01  0.30758139053E+02  0.46879048119E+02  0.25500000000E-02 0.  1.
<mgrwt>
<rscale>  0 0.70768337E+02</rscale>
<asrwt>0</asrwt>
<pdfrwt beam="1">  1        2 0.11720181E-01 0.70768337E+02</pdfrwt>
<pdfrwt beam="2">  1       -2 0.25284651E-02 0.70768337E+02</pdfrwt>
<totfact> 0.22618385E+05</totfact>
</mgrwt>
</event>
<event>
 4    1  0.2196664E-002  0.8601331E+02  0.7818608E-02  0.1312804E+00
          2   -1    0    0    0  501  0.00000000000E+00  0.00000000000E+00  0.79945662933E+03  0.79945662934E+03  0.25500000000E-02 0.  1.
         -2   -1    0    0  501    0 -0.00000000000E+00 -0.00000000000E+00 -0.23135360584E+01  0.23135374638E+01  0.25500000000E-02 0.  1.
          2    1    1    2    0  502  0.11399617463E+02  0.23087717349E+02  0.77477357759E+02  0.81643952272E+02  0.25500000000E-02 0. -1.
         -2    1    1    2  502    0 -0.11399617463E+02 -0.23087717349E+02  0.71966573551E+03  0.72012621453E+03  0.25500000000E-02 0. -1.
<mgrwt>
<rscale>  0 0.86013308E+02</rscale>
<asrwt>0</asrwt>
<pdfrwt beam="1">  1        2 0.12299336E+00 0.86013308E+02</pdfrwt>
<pdfrwt beam="2">  1       -2 0.35592863E-03 0.86013308E+02</pdfrwt>
<totfact> 0.28404945E+05</totfact>
</mgrwt>
</event>
<event>
 4    1  0.2196664E-002  0.5421570E+02  0.7818608E-02  0.1423845E+00
          2   -1    0    0    0  501  0.00000000000E+00  0.00000000000E+00  0.17126689818E+01  0.17126708802E+01  0.25500000000E-02 0. -1.
         -2   -1    0    0  501    0 -0.00000000000E+00 -0.00000000000E+00 -0.42905851186E+03  0.42905851187E+03  0.25500000000E-02 0. -1.
          2    1    1    2    0  502  0.12973297935E+02 -0.21983081583E+02 -0.28617899160E+03  0.28731511894E+03  0.25500000000E-02 0. -1.
         -2    1    1    2  502    0 -0.12973297935E+02  0.21983081583E+02 -0.14116685128E+03  0.14345606380E+03  0.25500000000E-02 0. -1.
<mgrwt>
<rscale>  0 0.54215703E+02</rscale>
<asrwt>0</asrwt>
<pdfrwt beam="1">  1        2 0.26348802E-03 0.54215703E+02</pdfrwt>
<pdfrwt beam="2">  1       -2 0.66008916E-01 0.54215703E+02</pdfrwt>
<totfact> 0.15203742E+05</totfact>
</mgrwt>
</event>
<event>
 4    1  0.2196664E-002  0.4197751E+02  0.7818608E-02  0.1494144E+00
          2   -1    0    0    0  501  0.00000000000E+00  0.00000000000E+00  0.82564894520E+03  0.82564894520E+03  0.25500000000E-02 0. -1.
         -2   -1    0    0  501    0 -0.00000000000E+00 -0.00000000000E+00 -0.53355042193E+00  0.53355651551E+00  0.25500000000E-02 0. -1.
          2    1    1    2    0  502  0.20065569998E+02 -0.57769547800E+01  0.37067921733E+03  0.37126686153E+03  0.25500000000E-02 0.  1.
         -2    1    1    2  502    0 -0.20065569998E+02  0.57769547800E+01  0.45443617745E+03  0.45491564019E+03  0.25500000000E-02 0.  1.
<mgrwt>
<rscale>  0 0.41977511E+02</rscale>
<asrwt>0</asrwt>
<pdfrwt beam="1">  1        2 0.12702337E+00 0.41977511E+02</pdfrwt>
<pdfrwt beam="2">  1       -2 0.82084857E-04 0.41977511E+02</pdfrwt>
<totfact> 0.17402399E+06</totfact>
</mgrwt>
</event>
<event>
 4    1  0.2196664E-002  0.1184756E+03  0.7818608E-02  0.1245633E+00
          2   -1    0    0    0  501  0.00000000000E+00  0.00000000000E+00  0.79417276132E+03  0.79417276132E+03  0.25500000000E-02 0. -1.
         -2   -1    0    0  501    0 -0.00000000000E+00 -0.00000000000E+00 -0.44185822667E+01  0.44185830025E+01  0.25500000000E-02 0. -1.
          2    1    1    2    0  502 -0.35642527313E+02 -0.42851432235E+02  0.53010594534E+03  0.53302809334E+03  0.25500000000E-02 0.  1.
         -2    1    1    2  502    0  0.35642527313E+02  0.42851432235E+02  0.25964823371E+03  0.26556325099E+03  0.25500000000E-02 0.  1.
<mgrwt>
<rscale>  0 0.11847562E+03</rscale>
<asrwt>0</asrwt>
<pdfrwt beam="1">  1        2 0.12218038E+00 0.11847562E+03</pdfrwt>
<pdfrwt beam="2">  1       -2 0.67978221E-03 0.11847562E+03</pdfrwt>
<totfact> 0.12096255E+05</totfact>
</mgrwt>
</event>
<event>
 4    1  0.2196664E-002  0.4871152E+02  0.7818608E-02  0.1452418E+00
          2   -1    0    0    0  501  0.00000000000E+00  0.00000000000E+00  0.38626257194E+02  0.38626257279E+02  0.25500000000E-02 0.  1.
         -2   -1    0    0  501    0 -0.00000000000E+00 -0.00000000000E+00 -0.15357510704E+02  0.15357510916E+02  0.25500000000E-02 0.  1.
          2    1    1    2    0  502  0.22809679073E+02 -0.66792890931E+01  0.17530844449E+02  0.29533453503E+02  0.25500000000E-02 0. -1.
         -2    1    1    2  502    0 -0.22809679073E+02  0.66792890931E+01  0.57379020408E+01  0.24450314692E+02  0.25500000000E-02 0. -1.
<mgrwt>
<rscale>  0 0.48711525E+02</rscale>
<asrwt>0</asrwt>
<pdfrwt beam="1">  1        2 0.59425011E-02 0.48711525E+02</pdfrwt>
<pdfrwt beam="2">  1       -2 0.23626940E-02 0.48711525E+02</pdfrwt>
<totfact> 0.52381088E+05</totfact>
</mgrwt>
</event>
<event>
 4    1  0.2196664E-002  0.6120968E+02  0.7818608E-02  0.1392824E+00
          2   -1    0    0    0  501  0.00000000000E+00  0.00000000000E+00  0.14766588973E+03  0.14766588975E+03  0.25500000000E-02 0. -1.
         -2   -1    0    0  501    0 -0.00000000000E+00 -0.00000000000E+00 -0.63430779655E+01  0.63430784781E+01  0.25500000000E-02 0. -1.
          2    1    1    2    0  502 -0.25001133951E+02  0.14779438507E+02  0.94947561451E+02  0.99290120019E+02  0.25500000000E-02 0. -1.
         -2    1    1    2  502    0  0.25001133951E+02 -0.14779438507E+02  0.46375250312E+02  0.54718848210E+02  0.25500000000E-02 0. -1.
<mgrwt>
<rscale>  0 0.61209682E+02</rscale>
<asrwt>0</asrwt>
<pdfrwt beam="1">  1        2 0.22717827E-01 0.61209682E+02</pdfrwt>
<pdfrwt beam="2">  1       -2 0.97585827E-03 0.61209682E+02</pdfrwt>
<totfact> 0.39921795E+05</totfact>
</mgrwt>
</event>
<event>
 4    1  0.2196664E-002  0.6398114E+02  0.7818608E-02  0.1381846E+00
         -2   -1    0    0  501    0 -0.00000000000E+00  0.00000000000E+00  0.10851373702E+03  0.10851373705E+03  0.25500000000E-02 0. -1.
          2   -1    0    0    0  501  0.00000000000E+00 -0.00000000000E+00 -0.94310324762E+01  0.94310328210E+01  0.25500000000E-02 0. -1.
          2    1    1    2    0  502  0.27237553913E+02  0.15568064158E+02  0.38007365808E+02  0.49282946614E+02  0.25500000000E-02 0.  1.
         -2    1    1    2  502    0 -0.27237553913E+02 -0.15568064158E+02  0.61075338731E+02  0.68661823252E+02  0.25500000000E-02 0.  1.
<mgrwt>
<rscale>  0 0.63981141E+02</rscale>
<asrwt>0</asrwt>
<pdfrwt beam="2">  1        2 0.14509281E-02 0.63981141E+02</pdfrwt>
<pdfrwt beam="1">  1       -2 0.16694421E-01 0.63981141E+02</pdfrwt>
<totfact> 0.18828692E+05</totfact>
</mgrwt>
</event>
<event>
 4    1  0.2196664E-002  0.7700898E+02  0.7818608E-02  0.1337760E+00
          2   -1    0    0    0  501  0.00000000000E+00  0.00000000000E+00  0.66721648719E+03  0.66721648720E+03  0.25500000000E-02 0.  1.
         -2   -1    0    0  501    0 -0.00000000000E+00 -0.00000000000E+00 -0.22220603466E+01  0.22220618098E+01  0.25500000000E-02 0.  1.
          2    1    1    2    0  502 -0.30689429950E+02 -0.22008973473E+02  0.26723618603E+03  0.26989148774E+03  0.25500000000E-02 0.  1.
         -2    1    1    2  502    0  0.30689429950E+02  0.22008973473E+02  0.39775824081E+03  0.39954706126E+03  0.25500000000E-02 0.  1.
<mgrwt>
<rscale>  0 0.77008981E+02</rscale>
<asrwt>0</asrwt>
<pdfrwt beam="1">  1        2 0.10264871E+00 0.77008981E+02</pdfrwt>
<pdfrwt beam="2">  1       -2 0.34185549E-03 0.77008981E+02</pdfrwt>
<totfact> 0.36460830E+05</totfact>
</mgrwt>
</event>
<event>
 4    1  0.2196664E-002  0.8696223E+02  0.7818608E-02  0.1310379E+00
         -2   -1    0    0  501    0 -0.00000000000E+00  0.00000000000E+00  0.70136845452E+00  0.70137309009E+00  0.25500000000E-02 0. -1.
          2   -1    0    0    0  501  0.00000000000E+00 -0.00000000000E+00 -0.26955893352E+04  0.26955893352E+04  0.25500000000E-02 0. -1.
          2    1    1    2    0  502 -0.11003061231E+00  0.32612702869E+02 -0.45580174191E+03  0.45696698834E+03  0.25500000000E-02 0. -1.
         -2    1    1    2  502    0  0.11003061231E+00 -0.32612702869E+02 -0.22390862248E+04  0.22393237199E+04  0.25500000000E-02 0. -1.
<mgrwt>
<rscale>  0 0.86962235E+02</rscale>
<asrwt>0</asrwt>
<pdfrwt beam="2">  1        2 0.41469776E+00 0.86962235E+02</pdfrwt>
<pdfrwt beam="1">  1       -2 0.10790535E-03 0.86962235E+02</pdfrwt>
<totfact> 0.14706758E+05</totfact>
</mgrwt>
</event>
<event>
 4    1  0.2196664E-002  0.5196920E+02  0.7818608E-02  0.1435001E+00
          2   -1    0    0    0  501  0.00000000000E+00  0.00000000000E+00  0.13120218458E+02  0.13120218705E+02  0.25500000000E-02 0. -1.
         -2   -1    0    0  501    0 -0.00000000000E+00 -0.00000000000E+00 -0.51462505909E+02  0.51462505972E+02  0.25500000000E-02 0. -1.
          2    1    1    2    0  502  0.23806937765E+02  0.26913390140E+01 -0.31671719166E+02  0.39712861807E+02  0.25500000000E-02 0.  1.
         -2    1    1    2  502    0 -0.23806937765E+02 -0.26913390140E+01 -0.66705682851E+01  0.24869862870E+02  0.25500000000E-02 0.  1.
<mgrwt>
<rscale>  0 0.51969196E+02</rscale>
<asrwt>0</asrwt>
<pdfrwt beam="1">  1        2 0.20184952E-02 0.51969196E+02</pdfrwt>
<pdfrwt beam="2">  1       -2 0.79173086E-02 0.51969196E+02</pdfrwt>
<totfact> 0.36970202E+05</totfact>
</mgrwt>
</event>
<event>
 4    1  0.2196664E-002  0.6514084E+02  0.7818608E-02  0.1377443E+00
          2   -1    0    0    0  501  0.00000000000E+00  0.00000000000E+00  0.56022232298E+03  0.56022232299E+03  0.25500000000E-02 0. -1.
         -2   -1    0    0  501    0 -0.00000000000E+00 -0.00000000000E+00 -0.18935905781E+01  0.18935922951E+01  0.25500000000E-02 0. -1.
          2    1    1    2    0  502  0.24465209237E+02 -0.19175904522E+02  0.19524732120E+03  0.19770629281E+03  0.25500000000E-02 0.  1.
         -2    1    1    2  502    0 -0.24465209237E+02  0.19175904522E+02  0.36308141121E+03  0.36440962247E+03  0.25500000000E-02 0.  1.
<mgrwt>
<rscale>  0 0.65140838E+02</rscale>
<asrwt>0</asrwt>
<pdfrwt beam="1">  1        2 0.86188048E-01 0.65140838E+02</pdfrwt>
<pdfrwt beam="2">  1       -2 0.29132176E-03 0.65140838E+02</pdfrwt>
<totfact> 0.53472424E+05</totfact>
</mgrwt>
</event>
<event>
 4    1  0.2196664E-002  0.5690314E+02  0.7818608E-02  0.1411307E+00
          2   -1    0    0    0  501  0.00000000000E+00  0.00000000000E+00  0.24158327568E+03  0.24158327569E+03  0.25500000000E-02 0. -1.
         -2   -1    0    0  501    0 -0.00000000000E+00 -0.00000000000E+00 -0.33507771107E+01  0.33507780810E+01  0.25500000000E-02 0. -1.
          2    1    1    2    0  502 -0.14584152666E+02  0.17918367389E+02  0.19059091533E+03  0.19198609953E+03  0.25500000000E-02 0.  1.
         -2    1    1    2  502    0  0.14584152666E+02 -0.17918367389E+02  0.47641583234E+02  0.52947954242E+02  0.25500000000E-02 0.  1.
<mgrwt>
<rscale>  0 0.56903140E+02</rscale>
<asrwt>0</asrwt>
<pdfrwt beam="1">  1        2 0.37166658E-01 0.56903140E+02</pdfrwt>
<pdfrwt beam="2">  1       -2 0.51550424E-03 0.56903140E+02</pdfrwt>
<totfact> 0.56666737E+05</totfact>
</mgrwt>
</event>
<event>
 4    1  0.2196664E-002  0.1125685E+03  0.7818608E-02  0.1255886E+00
          2   -1    0    0    0  501  0.00000000000E+00  0.00000000000E+00  0.28384602517E+03  0.28384602518E+03  0.25500000000E-02 0. -1.
         -2   -1    0    0  501    0 -0.00000000000E+00 -0.00000000000E+00 -0.11160693123E+02  0.11160693415E+02  0.25500000000E-02 0. -1.
          2    1    1    2    0  502 -0.16041953505E+02 -0.19382230948E+02  0.26828847862E+03  0.26946562474E+03  0.25500000000E-02 0. -1.
         -2    1    1    2  502    0  0.16041953505E+02  0.19382230948E+02  0.43968534229E+01  0.25541093855E+02  0.25500000000E-02 0. -1.
<mgrwt>
<rscale>  0 0.11256853E+03</rscale>
<asrwt>0</asrwt>
<pdfrwt beam="1">  1        2 0.43668614E-01 0.11256853E+03</pdfrwt>
<pdfrwt beam="2">  1       -2 0.17170300E-02 0.11256853E+03</pdfrwt>
<totfact> 0.99535344E+04</totfact>
</mgrwt>
</event>
<event>
 4    1  0.2196664E-002  0.7184748E+02  0.7818608E-02  0.1353921E+00
         -2   -1    0    0  501    0 -0.00000000000E+00  0.00000000000E+00  0.70344044952E+01  0.70344049574E+01  0.25500000000E-02 0.  1.
          2   -1    0    0    0  501  0.00000000000E+00 -0.00000000000E+00 -0.18345760371E+03  0.18345760373E+03  0.25500000000E-02 0.  1.
          2    1    1    2    0  502  0.31668425590E+02  0.16392999753E+02 -0.76686534033E+02  0.84572123828E+02  0.25500000000E-02 0.  1.
         -2    1    1    2  502    0 -0.31668425590E+02 -0.16392999753E+02 -0.99736665187E+02  0.10591988486E+03  0.25500000000E-02 0.  1.
<mgrwt>
<rscale>  0 0.71847478E+02</rscale>
<asrwt>0</asrwt>
<pdfrwt beam="2">  1        2 0.28224243E-01 0.71847478E+02</pdfrwt>
<pdfrwt beam="1">  1       -2 0.10822163E-02 0.71847478E+02</pdfrwt>
<totfact> 0.28252571E+05</totfact>
</mgrwt>
</event>
<event>
 4    1  0.2196664E-002  0.1223548E+03  0.7818608E-02  0.1239262E+00
         -2   -1    0    0  501    0 -0.00000000000E+00  0.00000000000E+00  0.89092761026E+01  0.89092764675E+01  0.25500000000E-02 0.  1.
          2   -1    0    0    0  501  0.00000000000E+00 -0.00000000000E+00 -0.42008742368E+03  0.42008742369E+03  0.25500000000E-02 0.  1.
          2    1    1    2    0  502 -0.13374632020E+02 -0.36006279150E+02 -0.38637153578E+02  0.54480845836E+02  0.25500000000E-02 0.  1.
         -2    1    1    2  502    0  0.13374632020E+02  0.36006279150E+02 -0.37254099400E+03  0.37451585432E+03  0.25500000000E-02 0.  1.
<mgrwt>
<rscale>  0 0.12235481E+03</rscale>
<asrwt>0</asrwt>
<pdfrwt beam="2">  1        2 0.64628819E-01 0.12235481E+03</pdfrwt>
<pdfrwt beam="1">  1       -2 0.13706582E-02 0.12235481E+03</pdfrwt>
<totfact> 0.91924957E+04</totfact>
</mgrwt>
</event>
<event>
 4    1  0.2196664E-002  0.4518902E+02  0.7818608E-02  0.1473165E+00
          2   -1    0    0    0  501  0.00000000000E+00  0.00000000000E+00  0.64242889193E+03  0.64242889193E+03  0.25500000000E-02 0. -1.
         -2   -1    0    0  501    0 -0.00000000000E+00 -0.00000000000E+00 -0.79465679822E+00  0.79466088960E+00  0.25500000000E-02 0. -1.
          2    1    1    2    0  502 -0.19143570030E+02 -0.73231907854E+01  0.18547634910E+03  0.18660541653E+03  0.25500000000E-02 0. -1.
         -2    1    1    2  502    0  0.19143570030E+02  0.73231907854E+01  0.45615788603E+03  0.45661813629E+03  0.25500000000E-02 0. -1.
<mgrwt>
<rscale>  0 0.45189017E+02</rscale>
<asrwt>0</asrwt>
<pdfrwt beam="1">  1        2 0.98834718E-01 0.45189017E+02</pdfrwt>
<pdfrwt beam="2">  1       -2 0.12225582E-03 0.45189017E+02</pdfrwt>
<totfact> 0.13820683E+06</totfact>
</mgrwt>
</event>
<event>
 4    1  0.2196664E-002  0.6141996E+02  0.7818608E-02  0.1391968E+00
          2   -1    0    0    0  501  0.00000000000E+00  0.00000000000E+00  0.23397172776E+03  0.23397172778E+03  0.25500000000E-02 0.  1.
         -2   -1    0    0  501    0 -0.00000000000E+00 -0.00000000000E+00 -0.40308404629E+01  0.40308412695E+01  0.25500000000E-02 0.  1.
          2    1    1    2    0  502  0.28944341444E+02 -0.28011620985E+01  0.15322938800E+03  0.15596431247E+03  0.25500000000E-02 0. -1.
         -2    1    1    2  502    0 -0.28944341444E+02  0.28011620985E+01  0.76711499294E+02  0.82038256571E+02  0.25500000000E-02 0. -1.
<mgrwt>
<rscale>  0 0.61419958E+02</rscale>
<asrwt>0</asrwt>
<pdfrwt beam="1">  1        2 0.35995650E-01 0.61419958E+02</pdfrwt>
<pdfrwt beam="2">  1       -2 0.62012937E-03 0.61419958E+02</pdfrwt>
<totfact> 0.46128793E+05</totfact>
</mgrwt>
</event>
<event>
 4    1  0.2196664E-002  0.5729594E+02  0.7818608E-02  0.1409543E+00
          2   -1    0    0    0  501  0.00000000000E+00  0.00000000000E+00  0.20444048343E+03  0.20444048345E+03  0.25500000000E-02 0. -1.
         -2   -1    0    0  501    0 -0.00000000000E+00 -0.00000000000E+00 -0.40144016770E+01  0.40144024869E+01  0.25500000000E-02 0. -1.
          2    1    1    2    0  502  0.23884756898E+02 -0.10134402400E+02  0.56024307574E+02  0.61740673545E+02  0.25500000000E-02 0.  1.
         -2    1    1    2  502    0 -0.23884756898E+02  0.10134402400E+02  0.14440177418E+03  0.14671421239E+03  0.25500000000E-02 0.  1.
<mgrwt>
<rscale>  0 0.57295944E+02</rscale>
<asrwt>0</asrwt>
<pdfrwt beam="1">  1        2 0.31452384E-01 0.57295944E+02</pdfrwt>
<pdfrwt beam="2">  1       -2 0.61760029E-03 0.57295944E+02</pdfrwt>
<totfact> 0.52582660E+05</totfact>
</mgrwt>
</event>
<event>
 4    1  0.2196664E-002  0.7294905E+02  0.7818608E-02  0.1350342E+00
          2   -1    0    0    0  501  0.00000000000E+00  0.00000000000E+00  0.24786639760E+02  0.24786639891E+02  0.25500000000E-02 0.  1.
         -2   -1    0    0  501    0 -0.00000000000E+00 -0.00000000000E+00 -0.53673707452E+02  0.53673707512E+02  0.25500000000E-02 0.  1.
          2    1    1    2    0  502  0.11501818835E+02 -0.28618060246E+02 -0.35385175786E+02  0.46940343849E+02  0.25500000000E-02 0.  1.
         -2    1    1    2  502    0 -0.11501818835E+02  0.28618060246E+02  0.64981080945E+01  0.31520003555E+02  0.25500000000E-02 0.  1.
<mgrwt>
<rscale>  0 0.72949047E+02</rscale>
<asrwt>0</asrwt>
<pdfrwt beam="1">  1        2 0.38133292E-02 0.72949047E+02</pdfrwt>
<pdfrwt beam="2">  1       -2 0.82574935E-02 0.72949047E+02</pdfrwt>
<totfact> 0.16165131E+05</totfact>
</mgrwt>
</event>
<event>
 4    1  0.2196664E-002  0.4150504E+02  0.7818608E-02  0.1497419E+00
         -2   -1    0    0  501    0 -0.00000000000E+00  0.00000000000E+00  0.51622473836E+01  0.51622480134E+01  0.25500000000E-02 0. -1.
          2   -1    0    0    0  501  0.00000000000E+00 -0.00000000000E+00 -0.83426258682E+02  0.83426258721E+02  0.25500000000E-02 0. -1.
          2    1    1    2    0  502 -0.10962916337E+02 -0.16766559933E+02 -0.27565990417E+02  0.34076192581E+02  0.25500000000E-02 0. -1.
         -2    1    1    2  502    0  0.10962916337E+02  0.16766559933E+02 -0.50698020881E+02  0.54512314154E+02  0.25500000000E-02 0. -1.
<mgrwt>
<rscale>  0 0.41505037E+02</rscale>
<asrwt>0</asrwt>
<pdfrwt beam="2">  1        2 0.12834808E-01 0.41505037E+02</pdfrwt>
<pdfrwt beam="1">  1       -2 0.79419202E-03 0.41505037E+02</pdfrwt>
<totfact> 0.91312412E+05</totfact>
</mgrwt>
</event>
<event>
 4    1  0.2196664E-002  0.5201458E+02  0.7818608E-02  0.1434769E+00
         -2   -1    0    0  501    0 -0.00000000000E+00  0.00000000000E+00  0.39397037299E+02  0.39397037381E+02  0.25500000000E-02 0. -1.
          2   -1    0    0    0  501  0.00000000000E+00 -0.00000000000E+00 -0.17168276343E+02  0.17168276532E+02  0.25500000000E-02 0. -1.
          2    1    1    2    0  502  0.21643469188E+02  0.13711537883E+02  0.15969652110E+02  0.30190657903E+02  0.25500000000E-02 0.  1.
         -2    1    1    2  502    0 -0.21643469188E+02 -0.13711537883E+02  0.62591088458E+01  0.26374656010E+02  0.25500000000E-02 0.  1.
<mgrwt>
<rscale>  0 0.52014584E+02</rscale>
<asrwt>0</asrwt>
<pdfrwt beam="2">  1        2 0.26412733E-02 0.52014584E+02</pdfrwt>
<pdfrwt beam="1">  1       -2 0.60610827E-02 0.52014584E+02</pdfrwt>
<totfact> 0.38633617E+05</totfact>
</mgrwt>
</event>
<event>
 4    1  0.2196664E-002  0.4210487E+02  0.7818608E-02  0.1493269E+00
         -2   -1    0    0  501    0 -0.00000000000E+00  0.00000000000E+00  0.26273560627E+03  0.26273560628E+03  0.25500000000E-02 0. -1.
          2   -1    0    0    0  501  0.00000000000E+00 -0.00000000000E+00 -0.16868851955E+01  0.16868871229E+01  0.25500000000E-02 0. -1.
          2    1    1    2    0  502  0.18264239575E+02 -0.84085677525E+01  0.16970257372E+03  0.17088958421E+03  0.25500000000E-02 0. -1.
         -2    1    1    2  502    0 -0.18264239575E+02  0.84085677525E+01  0.91346147357E+02  0.93532909194E+02  0.25500000000E-02 0. -1.
<mgrwt>
<rscale>  0 0.42104872E+02</rscale>
<asrwt>0</asrwt>
<pdfrwt beam="2">  1        2 0.25952088E-03 0.42104872E+02</pdfrwt>
<pdfrwt beam="1">  1       -2 0.40420873E-01 0.42104872E+02</pdfrwt>
<totfact> 0.37855626E+05</totfact>
</mgrwt>
</event>
<event>
 4    1  0.2196664E-002  0.4628236E+02  0.7818608E-02  0.1466491E+00
          2   -1    0    0    0  501  0.00000000000E+00  0.00000000000E+00  0.49832872134E+01  0.49832878659E+01  0.25500000000E-02 0. -1.
         -2   -1    0    0  501    0 -0.00000000000E+00 -0.00000000000E+00 -0.10746203252E+03  0.10746203255E+03  0.25500000000E-02 0. -1.
          2    1    1    2    0  502  0.44865828402E+01 -0.22463932661E+02 -0.43271148388E+02  0.48960698376E+02  0.25500000000E-02 0. -1.
         -2    1    1    2  502    0 -0.44865828402E+01  0.22463932661E+02 -0.59207596923E+02  0.63484622044E+02  0.25500000000E-02 0. -1.
<mgrwt>
<rscale>  0 0.46282360E+02</rscale>
<asrwt>0</asrwt>
<pdfrwt beam="1">  1        2 0.76665970E-03 0.46282360E+02</pdfrwt>
<pdfrwt beam="2">  1       -2 0.16532619E-01 0.46282360E+02</pdfrwt>
<totfact> 0.41817032E+05</totfact>
</mgrwt>
</event>
<event>
 4    1  0.2196664E-002  0.4904718E+02  0.7818608E-02  0.1450550E+00
          2   -1    0    0    0  501  0.00000000000E+00  0.00000000000E+00  0.18589704999E+03  0.18589705000E+03  0.25500000000E-02 0.  1.
         -2   -1    0    0  501    0 -0.00000000000E+00 -0.00000000000E+00 -0.32351584621E+01  0.32351594671E+01  0.25500000000E-02 0.  1.
          2    1    1    2    0  502 -0.96396506272E+01 -0.20667815891E+02  0.56556233547E+02  0.60981054742E+02  0.25500000000E-02 0. -1.
         -2    1    1    2  502    0  0.96396506272E+01  0.20667815891E+02  0.12610565798E+03  0.12815115473E+03  0.25500000000E-02 0. -1.
<mgrwt>
<rscale>  0 0.49047182E+02</rscale>
<asrwt>0</asrwt>
<pdfrwt beam="1">  1        2 0.28599559E-01 0.49047182E+02</pdfrwt>
<pdfrwt beam="2">  1       -2 0.49771655E-03 0.49047182E+02</pdfrwt>
<totfact> 0.75411107E+05</totfact>
</mgrwt>
</event>
<event>
 4    1  0.2196664E-002  0.5836569E+02  0.7818608E-02  0.1404821E+00
          2   -1    0    0    0  501  0.00000000000E+00  0.00000000000E+00  0.15081974788E+03  0.15081974790E+03  0.25500000000E-02 0. -1.
         -2   -1    0    0  501    0 -0.00000000000E+00 -0.00000000000E+00 -0.56467303629E+01  0.56467309386E+01  0.25500000000E-02 0. -1.
          2    1    1    2    0  502  0.37245628106E+01 -0.26585420025E+02  0.10326745551E+03  0.10669969213E+03  0.25500000000E-02 0.  1.
         -2    1    1    2  502    0 -0.37245628106E+01  0.26585420025E+02  0.41905562004E+02  0.49766786710E+02  0.25500000000E-02 0.  1.
<mgrwt>
<rscale>  0 0.58365692E+02</rscale>
<asrwt>0</asrwt>
<pdfrwt beam="1">  1        2 0.23203042E-01 0.58365692E+02</pdfrwt>
<pdfrwt beam="2">  1       -2 0.86872766E-03 0.58365692E+02</pdfrwt>
<totfact> 0.45414949E+05</totfact>
</mgrwt>
</event>
<event>
 4    1  0.2196664E-002  0.1039312E+03  0.7818608E-02  0.1272240E+00
          2   -1    0    0    0  501  0.00000000000E+00  0.00000000000E+00  0.39331449573E+02  0.39331449656E+02  0.25500000000E-02 0.  1.
         -2   -1    0    0  501    0 -0.00000000000E+00 -0.00000000000E+00 -0.68658127460E+02  0.68658127507E+02  0.25500000000E-02 0.  1.
          2    1    1    2    0  502 -0.50994171823E+02 -0.90111527408E+01 -0.19170612420E+02  0.55218826687E+02  0.25500000000E-02 0. -1.
         -2    1    1    2  502    0  0.50994171823E+02  0.90111527408E+01 -0.10156065467E+02  0.52770750477E+02  0.25500000000E-02 0. -1.
<mgrwt>
<rscale>  0 0.10393120E+03</rscale>
<asrwt>0</asrwt>
<pdfrwt beam="1">  1        2 0.60509922E-02 0.10393120E+03</pdfrwt>
<pdfrwt beam="2">  1       -2 0.10562789E-01 0.10393120E+03</pdfrwt>
<totfact> 0.64576918E+04</totfact>
</mgrwt>
</event>
<event>
 4    1  0.2196664E-002  0.4154943E+02  0.7818608E-02  0.1497109E+00
         -2   -1    0    0  501    0 -0.00000000000E+00  0.00000000000E+00  0.23890258048E+01  0.23890271658E+01  0.25500000000E-02 0. -1.
          2   -1    0    0    0  501  0.00000000000E+00 -0.00000000000E+00 -0.18065466073E+03  0.18065466075E+03  0.25500000000E-02 0. -1.
          2    1    1    2    0  502 -0.11285074506E+02  0.17441433972E+02 -0.89923841428E+02  0.92292219549E+02  0.25500000000E-02 0.  1.
         -2    1    1    2  502    0  0.11285074506E+02 -0.17441433972E+02 -0.88341793499E+02  0.90751468367E+02  0.25500000000E-02 0.  1.
<mgrwt>
<rscale>  0 0.41549429E+02</rscale>
<asrwt>0</asrwt>
<pdfrwt beam="2">  1        2 0.27793014E-01 0.41549429E+02</pdfrwt>
<pdfrwt beam="1">  1       -2 0.36754268E-03 0.41549429E+02</pdfrwt>
<totfact> 0.11265514E+06</totfact>
</mgrwt>
</event>
<event>
 4    1  0.2196664E-002  0.4332781E+02  0.7818608E-02  0.1485059E+00
          2   -1    0    0    0  501  0.00000000000E+00  0.00000000000E+00  0.72780009854E+03  0.72780009854E+03  0.25500000000E-02 0.  1.
         -2   -1    0    0  501    0 -0.00000000000E+00 -0.00000000000E+00 -0.64485140408E+00  0.64485644592E+00  0.25500000000E-02 0.  1.
          2    1    1    2    0  502  0.19577654899E+02 -0.58500586937E+01  0.48460011793E+03  0.48503070218E+03  0.25500000000E-02 0. -1.
         -2    1    1    2  502    0 -0.19577654899E+02  0.58500586937E+01  0.24255512921E+03  0.24341425281E+03  0.25500000000E-02 0. -1.
<mgrwt>
<rscale>  0 0.43327809E+02</rscale>
<asrwt>0</asrwt>
<pdfrwt beam="1">  1        2 0.11196975E+00 0.43327809E+02</pdfrwt>
<pdfrwt beam="2">  1       -2 0.99207850E-04 0.43327809E+02</pdfrwt>
<totfact> 0.15753221E+06</totfact>
</mgrwt>
</event>
<event>
 4    1  0.2196664E-002  0.5136279E+02  0.7818608E-02  0.1438127E+00
          2   -1    0    0    0  501  0.00000000000E+00  0.00000000000E+00  0.22690049617E+04  0.22690049617E+04  0.25500000000E-02 0.  1.
         -2   -1    0    0  501    0 -0.00000000000E+00 -0.00000000000E+00 -0.29066542808E+00  0.29067661340E+00  0.25500000000E-02 0.  1.
          2    1    1    2    0  502 -0.21795949019E+02 -0.13545676760E+02  0.10905028819E+04  0.10908047874E+04  0.25500000000E-02 0. -1.
         -2    1    1    2  502    0  0.21795949019E+02  0.13545676760E+02  0.11782114144E+04  0.11784908509E+04  0.25500000000E-02 0. -1.
<mgrwt>
<rscale>  0 0.51362788E+02</rscale>
<asrwt>0</asrwt>
<pdfrwt beam="1">  1        2 0.34907363E+00 0.51362788E+02</pdfrwt>
<pdfrwt beam="2">  1       -2 0.44719139E-04 0.51362788E+02</pdfrwt>
<totfact> 0.75199731E+05</totfact>
</mgrwt>
</event>
<event>
 4    1  0.2196664E-002  0.5151179E+02  0.7818608E-02  0.1437354E+00
          2   -1    0    0    0  501  0.00000000000E+00  0.00000000000E+00  0.41347687172E+02  0.41347687251E+02  0.25500000000E-02 0. -1.
         -2   -1    0    0  501    0 -0.00000000000E+00 -0.00000000000E+00 -0.16043610029E+02  0.16043610232E+02  0.25500000000E-02 0. -1.
          2    1    1    2    0  502  0.15498417831E+02  0.20446209052E+02  0.15172493476E+02  0.29806928467E+02  0.25500000000E-02 0. -1.
         -2    1    1    2  502    0 -0.15498417831E+02 -0.20446209052E+02  0.10131583667E+02  0.27584369015E+02  0.25500000000E-02 0. -1.
<mgrwt>
<rscale>  0 0.51511792E+02</rscale>
<asrwt>0</asrwt>
<pdfrwt beam="1">  1        2 0.63611826E-02 0.51511792E+02</pdfrwt>
<pdfrwt beam="2">  1       -2 0.24682477E-02 0.51511792E+02</pdfrwt>
<totfact> 0.45864357E+05</totfact>
</mgrwt>
</event>
<event>
 4    1  0.2196664E-002  0.5775920E+02  0.7818608E-02  0.1407483E+00
         -2   -1    0    0  501    0 -0.00000000000E+00  0.00000000000E+00  0.74728621982E+01  0.74728626333E+01  0.25500000000E-02 0.  1.
          2   -1    0    0    0  501  0.00000000000E+00 -0.00000000000E+00 -0.11160802575E+03  0.11160802578E+03  0.25500000000E-02 0.  1.
          2    1    1    2    0  502 -0.21078147071E+02  0.91641418068E+01 -0.16016992995E+02  0.28014529268E+02  0.25500000000E-02 0.  1.
         -2    1    1    2  502    0  0.21078147071E+02 -0.91641418068E+01 -0.88118170553E+02  0.91066359141E+02  0.25500000000E-02 0.  1.
<mgrwt>
<rscale>  0 0.57759204E+02</rscale>
<asrwt>0</asrwt>
<pdfrwt beam="2">  1        2 0.17170464E-01 0.57759204E+02</pdfrwt>
<pdfrwt beam="1">  1       -2 0.11496712E-02 0.57759204E+02</pdfrwt>
<totfact> 0.42663831E+05</totfact>
</mgrwt>
</event>
<event>
 4    1  0.2196664E-002  0.5730617E+02  0.7818608E-02  0.1409497E+00
          2   -1    0    0    0  501  0.00000000000E+00  0.00000000000E+00  0.13245759591E+03  0.13245759593E+03  0.25500000000E-02 0. -1.
         -2   -1    0    0  501    0 -0.00000000000E+00 -0.00000000000E+00 -0.61982044412E+01  0.61982049657E+01  0.25500000000E-02 0. -1.
          2    1    1    2    0  502  0.98564395447E+01  0.18327701973E+02  0.11078616504E+03  0.11272368176E+03  0.25500000000E-02 0.  1.
         -2    1    1    2  502    0 -0.98564395447E+01 -0.18327701973E+02  0.15473226426E+02  0.25932119131E+02  0.25500000000E-02 0.  1.
<mgrwt>
<rscale>  0 0.57306171E+02</rscale>
<asrwt>0</asrwt>
<pdfrwt beam="1">  1        2 0.20378090E-01 0.57306171E+02</pdfrwt>
<pdfrwt beam="2">  1       -2 0.95357003E-03 0.57306171E+02</pdfrwt>
<totfact> 0.45746837E+05</totfact>
</mgrwt>
</event>
<event>
 4    1  0.2196664E-002  0.5053680E+02  0.7818608E-02  0.1442468E+00
          2   -1    0    0    0  501  0.00000000000E+00  0.00000000000E+00  0.61968780494E+02  0.61968780546E+02  0.25500000000E-02 0. -1.
         -2   -1    0    0  501    0 -0.00000000000E+00 -0.00000000000E+00 -0.10303448245E+02  0.10303448560E+02  0.25500000000E-02 0. -1.
          2    1    1    2    0  502 -0.20972572214E+02 -0.66915358225E+00  0.45965766458E+02  0.50528687341E+02  0.25500000000E-02 0. -1.
         -2    1    1    2  502    0  0.20972572214E+02  0.66915358225E+00  0.56995657907E+01  0.21743541766E+02  0.25500000000E-02 0. -1.
<mgrwt>
<rscale>  0 0.50536804E+02</rscale>
<asrwt>0</asrwt>
<pdfrwt beam="1">  1        2 0.95336586E-02 0.50536804E+02</pdfrwt>
<pdfrwt beam="2">  1       -2 0.15851459E-02 0.50536804E+02</pdfrwt>
<totfact> 0.52095444E+05</totfact>
</mgrwt>
</event>
<event>
 4    1  0.2196664E-002  0.6026662E+02  0.7818608E-02  0.1396716E+00
         -2   -1    0    0  501    0 -0.00000000000E+00  0.00000000000E+00  0.32533573291E+02  0.32533573391E+02  0.25500000000E-02 0.  1.
          2   -1    0    0    0  501  0.00000000000E+00 -0.00000000000E+00 -0.27910128673E+02  0.27910128790E+02  0.25500000000E-02 0.  1.
          2    1    1    2    0  502  0.71162799243E+00  0.24302419633E+02 -0.15542333421E+02  0.28856163105E+02  0.25500000000E-02 0. -1.
         -2    1    1    2  502    0 -0.71162799243E+00 -0.24302419633E+02  0.20165778039E+02  0.31587539076E+02  0.25500000000E-02 0. -1.
<mgrwt>
<rscale>  0 0.60266615E+02</rscale>
<asrwt>0</asrwt>
<pdfrwt beam="2">  1        2 0.42938660E-02 0.60266615E+02</pdfrwt>
<pdfrwt beam="1">  1       -2 0.50051652E-02 0.60266615E+02</pdfrwt>
<totfact> 0.28175137E+05</totfact>
</mgrwt>
</event>
<event>
 4    1  0.2196664E-002  0.4802540E+02  0.7818608E-02  0.1456293E+00
          2   -1    0    0    0  501  0.00000000000E+00  0.00000000000E+00  0.44414305452E+03  0.44414305452E+03  0.25500000000E-02 0. -1.
         -2   -1    0    0  501    0 -0.00000000000E+00 -0.00000000000E+00 -0.12982508311E+01  0.12982533354E+01  0.25500000000E-02 0. -1.
          2    1    1    2    0  502 -0.20628466198E+02  0.12096287152E+02  0.24164952700E+03  0.24282987396E+03  0.25500000000E-02 0. -1.
         -2    1    1    2  502    0  0.20628466198E+02 -0.12096287152E+02  0.20119527668E+03  0.20261143390E+03  0.25500000000E-02 0. -1.
<mgrwt>
<rscale>  0 0.48025395E+02</rscale>
<asrwt>0</asrwt>
<pdfrwt beam="1">  1        2 0.68329795E-01 0.48025395E+02</pdfrwt>
<pdfrwt beam="2">  1       -2 0.19973081E-03 0.48025395E+02</pdfrwt>
<totfact> 0.10685309E+06</totfact>
</mgrwt>
</event>
<event>
 4    1  0.2196664E-002  0.6688932E+02  0.7818608E-02  0.1371002E+00
         -2   -1    0    0  501    0 -0.00000000000E+00  0.00000000000E+00  0.58972450077E+01  0.58972455590E+01  0.25500000000E-02 0. -1.
          2   -1    0    0    0  501  0.00000000000E+00 -0.00000000000E+00 -0.18967249125E+03  0.18967249127E+03  0.25500000000E-02 0. -1.
          2    1    1    2    0  502  0.32522079918E+02 -0.65619308109E+01 -0.79551974256E+02  0.86193162332E+02  0.25500000000E-02 0. -1.
         -2    1    1    2  502    0 -0.32522079918E+02  0.65619308109E+01 -0.10422327199E+03  0.10937657450E+03  0.25500000000E-02 0. -1.
<mgrwt>
<rscale>  0 0.66889318E+02</rscale>
<asrwt>0</asrwt>
<pdfrwt beam="2">  1        2 0.29180379E-01 0.66889318E+02</pdfrwt>
<pdfrwt beam="1">  1       -2 0.90726865E-03 0.66889318E+02</pdfrwt>
<totfact> 0.34433336E+05</totfact>
</mgrwt>
</event>
<event>
 4    1  0.2196664E-002  0.4831420E+02  0.7818608E-02  0.1454652E+00
         -2   -1    0    0  501    0 -0.00000000000E+00  0.00000000000E+00  0.35525757392E+00  0.35526672562E+00  0.25500000000E-02 0.  1.
          2   -1    0    0    0  501  0.00000000000E+00 -0.00000000000E+00 -0.16426333799E+04  0.16426333799E+04  0.25500000000E-02 0.  1.
          2    1    1    2    0  502 -0.73748861643E+01  0.21960214458E+02 -0.10540898670E+04  0.10543443876E+04  0.25500000000E-02 0.  1.
         -2    1    1    2  502    0  0.73748861643E+01 -0.21960214458E+02 -0.58818825535E+03  0.58864425904E+03  0.25500000000E-02 0.  1.
<mgrwt>
<rscale>  0 0.48314200E+02</rscale>
<asrwt>0</asrwt>
<pdfrwt beam="2">  1        2 0.25270675E+00 0.48314200E+02</pdfrwt>
<pdfrwt beam="1">  1       -2 0.54657031E-04 0.48314200E+02</pdfrwt>
<totfact> 0.11475574E+06</totfact>
</mgrwt>
</event>
<event>
 4    1  0.2196664E-002  0.5656561E+02  0.7818608E-02  0.1412837E+00
          2   -1    0    0    0  501  0.00000000000E+00  0.00000000000E+00  0.76713333806E+00  0.76713757623E+00  0.25500000000E-02 0.  1.
         -2   -1    0    0  501    0 -0.00000000000E+00 -0.00000000000E+00 -0.10427324827E+04  0.10427324827E+04  0.25500000000E-02 0.  1.
          2    1    1    2    0  502  0.19898734948E+02 -0.80606008326E+01 -0.86063101360E+03  0.86089875973E+03  0.25500000000E-02 0.  1.
         -2    1    1    2  502    0 -0.19898734948E+02  0.80606008326E+01 -0.18133433571E+03  0.18260086050E+03  0.25500000000E-02 0.  1.
<mgrwt>
<rscale>  0 0.56565610E+02</rscale>
<asrwt>0</asrwt>
<pdfrwt beam="1">  1        2 0.11802167E-03 0.56565610E+02</pdfrwt>
<pdfrwt beam="2">  1       -2 0.16041925E+00 0.56565610E+02</pdfrwt>
<totfact> 0.59929251E+04</totfact>
</mgrwt>
</event>
<event>
 4    1  0.2196664E-002  0.7477615E+02  0.7818608E-02  0.1344566E+00
          2   -1    0    0    0  501  0.00000000000E+00  0.00000000000E+00  0.73846999289E+02  0.73846999333E+02  0.25500000000E-02 0. -1.
         -2   -1    0    0  501    0 -0.00000000000E+00 -0.00000000000E+00 -0.18929248298E+02  0.18929248470E+02  0.25500000000E-02 0. -1.
          2    1    1    2    0  502 -0.13894065548E+02  0.25845439569E+02  0.56206017097E+02  0.63404638382E+02  0.25500000000E-02 0.  1.
         -2    1    1    2  502    0  0.13894065548E+02 -0.25845439569E+02 -0.12882661061E+01  0.29371609421E+02  0.25500000000E-02 0.  1.
<mgrwt>
<rscale>  0 0.74776151E+02</rscale>
<asrwt>0</asrwt>
<pdfrwt beam="1">  1        2 0.11361077E-01 0.74776151E+02</pdfrwt>
<pdfrwt beam="2">  1       -2 0.29121921E-02 0.74776151E+02</pdfrwt>
<totfact> 0.19351465E+05</totfact>
</mgrwt>
</event>
<event>
 4    1  0.2196664E-002  0.5543974E+02  0.7818608E-02  0.1418031E+00
          2   -1    0    0    0  501  0.00000000000E+00  0.00000000000E+00  0.96403514193E+03  0.96403514193E+03  0.25500000000E-02 0. -1.
         -2   -1    0    0  501    0 -0.00000000000E+00 -0.00000000000E+00 -0.79705528633E+00  0.79705936539E+00  0.25500000000E-02 0. -1.
          2    1    1    2    0  502  0.77191195573E+01  0.21988948587E+02  0.22040047362E+03  0.22162912138E+03  0.25500000000E-02 0.  1.
         -2    1    1    2  502    0 -0.77191195573E+01 -0.21988948587E+02  0.74283761303E+03  0.74320307992E+03  0.25500000000E-02 0.  1.
<mgrwt>
<rscale>  0 0.55439743E+02</rscale>
<asrwt>0</asrwt>
<pdfrwt beam="1">  1        2 0.14831329E+00 0.55439743E+02</pdfrwt>
<pdfrwt beam="2">  1       -2 0.12262404E-03 0.55439743E+02</pdfrwt>
<totfact> 0.89422068E+05</totfact>
</mgrwt>
</event>
<event>
 4    1  0.2196664E-002  0.5011201E+02  0.7818608E-02  0.1444738E+00
         -2   -1    0    0  501    0 -0.00000000000E+00  0.00000000000E+00  0.15537072241E+01  0.15537093167E+01  0.25500000000E-02 0. -1.
          2   -1    0    0    0  501  0.00000000000E+00 -0.00000000000E+00 -0.40406776058E+03  0.40406776059E+03  0.25500000000E-02 0. -1.
          2    1    1    2    0  502 -0.59478255162E+01 -0.20593108327E+02 -0.96233515147E+02  0.98591795718E+02  0.25500000000E-02 0. -1.
         -2    1    1    2  502    0  0.59478255162E+01  0.20593108327E+02 -0.30628053821E+03  0.30702967419E+03  0.25500000000E-02 0. -1.
<mgrwt>
<rscale>  0 0.50112012E+02</rscale>
<asrwt>0</asrwt>
<pdfrwt beam="2">  1        2 0.62164187E-01 0.50112012E+02</pdfrwt>
<pdfrwt beam="1">  1       -2 0.23903236E-03 0.50112012E+02</pdfrwt>
<totfact> 0.93215690E+05</totfact>
</mgrwt>
</event>
<event>
 4    1  0.2196664E-002  0.5580088E+02  0.7818608E-02  0.1416349E+00
          2   -1    0    0    0  501  0.00000000000E+00  0.00000000000E+00  0.16241279090E+04  0.16241279090E+04  0.25500000000E-02 0. -1.
         -2   -1    0    0  501    0 -0.00000000000E+00 -0.00000000000E+00 -0.47929043407E+00  0.47929721749E+00  0.25500000000E-02 0. -1.
          2    1    1    2    0  502  0.59539094789E+01  0.26445686789E+02  0.61955684109E+03  0.62014958094E+03  0.25500000000E-02 0.  1.
         -2    1    1    2  502    0 -0.59539094789E+01 -0.26445686789E+02  0.10040917775E+04  0.10044576253E+04  0.25500000000E-02 0.  1.
<mgrwt>
<rscale>  0 0.55800877E+02</rscale>
<asrwt>0</asrwt>
<pdfrwt beam="1">  1        2 0.24986898E+00 0.55800877E+02</pdfrwt>
<pdfrwt beam="2">  1       -2 0.73736584E-04 0.55800877E+02</pdfrwt>
<totfact> 0.80603231E+05</totfact>
</mgrwt>
</event>
<event>
 4    1  0.2196664E-002  0.4900748E+02  0.7818608E-02  0.1450770E+00
          2   -1    0    0    0  501  0.00000000000E+00  0.00000000000E+00  0.15082176944E+04  0.15082176944E+04  0.25500000000E-02 0. -1.
         -2   -1    0    0  501    0 -0.00000000000E+00 -0.00000000000E+00 -0.39810370586E+00  0.39811187262E+00  0.25500000000E-02 0. -1.
          2    1    1    2    0  502  0.30375920521E+01  0.22029799737E+02  0.43713375754E+03  0.43769905304E+03  0.25500000000E-02 0.  1.
         -2    1    1    2  502    0 -0.30375920521E+01 -0.22029799737E+02  0.10706858332E+04  0.10709167532E+04  0.25500000000E-02 0.  1.
<mgrwt>
<rscale>  0 0.49007478E+02</rscale>
<asrwt>0</asrwt>
<pdfrwt beam="1">  1        2 0.23203282E+00 0.49007478E+02</pdfrwt>
<pdfrwt beam="2">  1       -2 0.61247530E-04 0.49007478E+02</pdfrwt>
<totfact> 0.11494586E+06</totfact>
</mgrwt>
</event>
<event>
 4    1  0.2196664E-002  0.6512618E+02  0.7818608E-02  0.1377497E+00
         -2   -1    0    0  501    0 -0.00000000000E+00  0.00000000000E+00  0.14795831800E+01  0.14795853774E+01  0.25500000000E-02 0.  1.
          2   -1    0    0    0  501  0.00000000000E+00 -0.00000000000E+00 -0.71665736632E+03  0.71665736633E+03  0.25500000000E-02 0.  1.
          2    1    1    2    0  502  0.99149058134E+01  0.26265915155E+02 -0.17567877345E+03  0.17790793997E+03  0.25500000000E-02 0.  1.
         -2    1    1    2  502    0 -0.99149058134E+01 -0.26265915155E+02 -0.53949900969E+03  0.54022901173E+03  0.25500000000E-02 0.  1.
<mgrwt>
<rscale>  0 0.65126184E+02</rscale>
<asrwt>0</asrwt>
<pdfrwt beam="2">  1        2 0.11025470E+00 0.65126184E+02</pdfrwt>
<pdfrwt beam="1">  1       -2 0.22762892E-03 0.65126184E+02</pdfrwt>
<totfact> 0.57020949E+05</totfact>
</mgrwt>
</event>
<event>
 4    1  0.2196664E-002  0.5344991E+02  0.7818608E-02  0.1427575E+00
          2   -1    0    0    0  501  0.00000000000E+00  0.00000000000E+00  0.19588531480E+04  0.19588531480E+04  0.25500000000E-02 0.  1.
         -2   -1    0    0  501    0 -0.00000000000E+00 -0.00000000000E+00 -0.36460851531E+00  0.36461743230E+00  0.25500000000E-02 0.  1.
          2    1    1    2    0  502  0.18997769019E+02  0.18747976731E+02  0.92977454829E+03  0.93015757403E+03  0.25500000000E-02 0.  1.
         -2    1    1    2  502    0 -0.18997769019E+02 -0.18747976731E+02  0.10287139912E+04  0.10290601914E+04  0.25500000000E-02 0.  1.
<mgrwt>
<rscale>  0 0.53449912E+02</rscale>
<asrwt>0</asrwt>
<pdfrwt beam="1">  1        2 0.30136308E+00 0.53449912E+02</pdfrwt>
<pdfrwt beam="2">  1       -2 0.56094108E-04 0.53449912E+02</pdfrwt>
<totfact> 0.79337165E+05</totfact>
</mgrwt>
</event>
<event>
 4    1  0.2196664E-002  0.4574025E+02  0.7818608E-02  0.1469773E+00
         -2   -1    0    0  501    0 -0.00000000000E+00  0.00000000000E+00  0.23499602260E+03  0.23499602261E+03  0.25500000000E-02 0. -1.
          2   -1    0    0    0  501  0.00000000000E+00 -0.00000000000E+00 -0.22257497288E+01  0.22257511895E+01  0.25500000000E-02 0. -1.
          2    1    1    2    0  502  0.22484247378E+02  0.39171322893E+01  0.10876783915E+03  0.11113652931E+03  0.25500000000E-02 0.  1.
         -2    1    1    2  502    0 -0.22484247378E+02 -0.39171322893E+01  0.12400243372E+03  0.12608524450E+03  0.25500000000E-02 0.  1.
<mgrwt>
<rscale>  0 0.45740245E+02</rscale>
<asrwt>0</asrwt>
<pdfrwt beam="2">  1        2 0.34242300E-03 0.45740245E+02</pdfrwt>
<pdfrwt beam="1">  1       -2 0.36153250E-01 0.45740245E+02</pdfrwt>
<totfact> 0.32675248E+05</totfact>
</mgrwt>
</event>
<event>
 4    1  0.2196664E-002  0.4202045E+02  0.7818608E-02  0.1493848E+00
         -2   -1    0    0  501    0 -0.00000000000E+00  0.00000000000E+00  0.25028849061E+01  0.25028862051E+01  0.25500000000E-02 0. -1.
          2   -1    0    0    0  501  0.00000000000E+00 -0.00000000000E+00 -0.17636825520E+03  0.17636825522E+03  0.25500000000E-02 0. -1.
          2    1    1    2    0  502  0.83141085205E+01 -0.18909095341E+02 -0.70583569955E+02  0.73543991197E+02  0.25500000000E-02 0.  1.
         -2    1    1    2  502    0 -0.83141085205E+01  0.18909095341E+02 -0.10328180034E+03  0.10532715023E+03  0.25500000000E-02 0.  1.
<mgrwt>
<rscale>  0 0.42020450E+02</rscale>
<asrwt>0</asrwt>
<pdfrwt beam="2">  1        2 0.27133568E-01 0.42020450E+02</pdfrwt>
<pdfrwt beam="1">  1       -2 0.38505945E-03 0.42020450E+02</pdfrwt>
<totfact> 0.10875723E+06</totfact>
</mgrwt>
</event>
<event>
 4    1  0.2196664E-002  0.4454515E+02  0.7818608E-02  0.1477201E+00
         -2   -1    0    0  501    0 -0.00000000000E+00  0.00000000000E+00  0.31300137673E+03  0.31300137674E+03  0.25500000000E-02 0. -1.
          2   -1    0    0    0  501  0.00000000000E+00 -0.00000000000E+00 -0.15848722542E+01  0.15848743056E+01  0.25500000000E-02 0. -1.
          2    1    1    2    0  502  0.16490244146E+02 -0.12430045303E+02  0.21463981386E+03  0.21563089731E+03  0.25500000000E-02 0. -1.
         -2    1    1    2  502    0 -0.16490244146E+02  0.12430045303E+02  0.96776690616E+02  0.98955353728E+02  0.25500000000E-02 0. -1.
<mgrwt>
<rscale>  0 0.44545147E+02</rscale>
<asrwt>0</asrwt>
<pdfrwt beam="2">  1        2 0.24382664E-03 0.44545147E+02</pdfrwt>
<pdfrwt beam="1">  1       -2 0.48154061E-01 0.44545147E+02</pdfrwt>
<totfact> 0.30075443E+05</totfact>
</mgrwt>
</event>
<event>
 4    1  0.2196664E-002  0.5722132E+02  0.7818608E-02  0.1409877E+00
         -2   -1    0    0  501    0 -0.00000000000E+00  0.00000000000E+00  0.37318081050E+01  0.37318089762E+01  0.25500000000E-02 0.  1.
          2   -1    0    0    0  501  0.00000000000E+00 -0.00000000000E+00 -0.21934936750E+03  0.21934936751E+03  0.25500000000E-02 0.  1.
          2    1    1    2    0  502 -0.22942099985E+02  0.91264600456E+01 -0.51456255273E+02  0.57073447748E+02  0.25500000000E-02 0.  1.
         -2    1    1    2  502    0  0.22942099985E+02 -0.91264600456E+01 -0.16416130412E+03  0.16600772874E+03  0.25500000000E-02 0.  1.
<mgrwt>
<rscale>  0 0.57221319E+02</rscale>
<asrwt>0</asrwt>
<pdfrwt beam="2">  1        2 0.33746047E-01 0.57221319E+02</pdfrwt>
<pdfrwt beam="1">  1       -2 0.57412456E-03 0.57221319E+02</pdfrwt>
<totfact> 0.54038507E+05</totfact>
</mgrwt>
</event>
<event>
 4    1  0.2196664E-002  0.8788503E+02  0.7818608E-02  0.1308056E+00
         -2   -1    0    0  501    0 -0.00000000000E+00  0.00000000000E+00  0.12086953047E+01  0.12086979946E+01  0.25500000000E-02 0. -1.
          2   -1    0    0    0  501  0.00000000000E+00 -0.00000000000E+00 -0.15975428134E+04  0.15975428134E+04  0.25500000000E-02 0. -1.
          2    1    1    2    0  502 -0.17130317345E+02  0.32807337685E+02 -0.36722845814E+03  0.36908875579E+03  0.25500000000E-02 0.  1.
         -2    1    1    2  502    0  0.17130317345E+02 -0.32807337685E+02 -0.12291056599E+04  0.12296627556E+04  0.25500000000E-02 0.  1.
<mgrwt>
<rscale>  0 0.87885031E+02</rscale>
<asrwt>0</asrwt>
<pdfrwt beam="2">  1        2 0.24577413E+00 0.87885031E+02</pdfrwt>
<pdfrwt beam="1">  1       -2 0.18595461E-03 0.87885031E+02</pdfrwt>
<totfact> 0.25306319E+05</totfact>
</mgrwt>
</event>
<event>
 4    1  0.2196664E-002  0.6545814E+02  0.7818608E-02  0.1376256E+00
         -2   -1    0    0  501    0 -0.00000000000E+00  0.00000000000E+00  0.15777809805E+01  0.15777830411E+01  0.25500000000E-02 0. -1.
          2   -1    0    0    0  501  0.00000000000E+00 -0.00000000000E+00 -0.67892274086E+03  0.67892274087E+03  0.25500000000E-02 0. -1.
          2    1    1    2    0  502 -0.11174784812E+01  0.26585316640E+02 -0.53678701679E+03  0.53744611750E+03  0.25500000000E-02 0. -1.
         -2    1    1    2  502    0  0.11174784812E+01 -0.26585316640E+02 -0.14055794309E+03  0.14305440640E+03  0.25500000000E-02 0. -1.
<mgrwt>
<rscale>  0 0.65458142E+02</rscale>
<asrwt>0</asrwt>
<pdfrwt beam="2">  1        2 0.10444942E+00 0.65458142E+02</pdfrwt>
<pdfrwt beam="1">  1       -2 0.24273624E-03 0.65458142E+02</pdfrwt>
<totfact> 0.55597174E+05</totfact>
</mgrwt>
</event>
<event>
 4    1  0.2196664E-002  0.5797320E+02  0.7818608E-02  0.1406540E+00
         -2   -1    0    0  501    0 -0.00000000000E+00  0.00000000000E+00  0.15027013126E+01  0.15027034762E+01  0.25500000000E-02 0. -1.
          2   -1    0    0    0  501  0.00000000000E+00 -0.00000000000E+00 -0.55914124808E+03  0.55914124809E+03  0.25500000000E-02 0. -1.
          2    1    1    2    0  502  0.26467863915E+02  0.97948294292E+01 -0.34277527915E+03  0.34393513707E+03  0.25500000000E-02 0. -1.
         -2    1    1    2  502    0 -0.26467863915E+02 -0.97948294292E+01 -0.21486326762E+03  0.21670881450E+03  0.25500000000E-02 0. -1.
<mgrwt>
<rscale>  0 0.57973197E+02</rscale>
<asrwt>0</asrwt>
<pdfrwt beam="2">  1        2 0.86021565E-01 0.57973197E+02</pdfrwt>
<pdfrwt beam="1">  1       -2 0.23118543E-03 0.57973197E+02</pdfrwt>
<totfact> 0.71799832E+05</totfact>
</mgrwt>
</event>
<event>
 4    1  0.2196664E-002  0.4369349E+02  0.7818608E-02  0.1482667E+00
         -2   -1    0    0  501    0 -0.00000000000E+00  0.00000000000E+00  0.47330513314E+01  0.47330520183E+01  0.25500000000E-02 0.  1.
          2   -1    0    0    0  501  0.00000000000E+00 -0.00000000000E+00 -0.10083985897E+03  0.10083985900E+03  0.25500000000E-02 0.  1.
          2    1    1    2    0  502  0.15353784631E+02  0.13637890094E+02 -0.66061835138E+02  0.69180176474E+02  0.25500000000E-02 0. -1.
         -2    1    1    2  502    0 -0.15353784631E+02 -0.13637890094E+02 -0.30044972503E+02  0.36392734549E+02  0.25500000000E-02 0. -1.
<mgrwt>
<rscale>  0 0.43693490E+02</rscale>
<asrwt>0</asrwt>
<pdfrwt beam="2">  1        2 0.15513823E-01 0.43693490E+02</pdfrwt>
<pdfrwt beam="1">  1       -2 0.72816188E-03 0.43693490E+02</pdfrwt>
<totfact> 0.84169016E+05</totfact>
</mgrwt>
</event>
<event>
 4    1  0.2196664E-002  0.4828288E+02  0.7818608E-02  0.1454830E+00
         -2   -1    0    0  501    0 -0.00000000000E+00  0.00000000000E+00  0.19927156852E+00  0.19928788353E+00  0.25500000000E-02 0. -1.
          2   -1    0    0    0  501  0.00000000000E+00 -0.00000000000E+00 -0.29245776998E+04  0.29245776998E+04  0.25500000000E-02 0. -1.
          2    1    1    2    0  502  0.17570980139E+02  0.16547484798E+02 -0.14318744394E+04  0.14320778501E+04  0.25500000000E-02 0. -1.
         -2    1    1    2  502    0 -0.17570980139E+02 -0.16547484798E+02 -0.14925039888E+04  0.14926991376E+04  0.25500000000E-02 0. -1.
<mgrwt>
<rscale>  0 0.48282877E+02</rscale>
<asrwt>0</asrwt>
<pdfrwt beam="2">  1        2 0.44990066E+00 0.48282877E+02</pdfrwt>
<pdfrwt beam="1">  1       -2 0.30660762E-04 0.48282877E+02</pdfrwt>
<totfact> 0.56534414E+05</totfact>
</mgrwt>
</event>
<event>
 4    1  0.2196664E-002  0.5291558E+02  0.7818608E-02  0.1430221E+00
          2   -1    0    0    0  501  0.00000000000E+00  0.00000000000E+00  0.31760119002E+04  0.31760119002E+04  0.25500000000E-02 0. -1.
         -2   -1    0    0  501    0 -0.00000000000E+00 -0.00000000000E+00 -0.22039943905E+00  0.22041419018E+00  0.25500000000E-02 0. -1.
          2    1    1    2    0  502  0.42915194711E+01  0.25734755258E+02  0.13240615586E+04  0.13243185816E+04  0.25500000000E-02 0.  1.
         -2    1    1    2  502    0 -0.42915194711E+01 -0.25734755258E+02  0.18517299422E+04  0.18519137328E+04  0.25500000000E-02 0.  1.
<mgrwt>
<rscale>  0 0.52915581E+02</rscale>
<asrwt>0</asrwt>
<pdfrwt beam="1">  1        2 0.48864347E+00 0.52915581E+02</pdfrwt>
<pdfrwt beam="2">  1       -2 0.33906919E-04 0.52915581E+02</pdfrwt>
<totfact> 0.36153071E+05</totfact>
</mgrwt>
</event>
<event>
 4    1  0.2196664E-002  0.6615803E+02  0.7818608E-02  0.1373668E+00
         -2   -1    0    0  501    0 -0.00000000000E+00  0.00000000000E+00  0.39487814423E+00  0.39488637770E+00  0.25500000000E-02 0. -1.
          2   -1    0    0    0  501  0.00000000000E+00 -0.00000000000E+00 -0.27710062113E+04  0.27710062113E+04  0.25500000000E-02 0. -1.
          2    1    1    2    0  502  0.28712638978E+02 -0.14906803355E+02 -0.10963126667E+04  0.10967899031E+04  0.25500000000E-02 0. -1.
         -2    1    1    2  502    0 -0.28712638978E+02  0.14906803355E+02 -0.16742986665E+04  0.16746111946E+04  0.25500000000E-02 0. -1.
<mgrwt>
<rscale>  0 0.66158029E+02</rscale>
<asrwt>0</asrwt>
<pdfrwt beam="2">  1        2 0.42629308E+00 0.66158029E+02</pdfrwt>
<pdfrwt beam="1">  1       -2 0.60753336E-04 0.66158029E+02</pdfrwt>
<totfact> 0.28456795E+05</totfact>
</mgrwt>
</event>
<event>
 4    1  0.2196664E-002  0.5646115E+02  0.7818608E-02  0.1413313E+00
         -2   -1    0    0  501    0 -0.00000000000E+00  0.00000000000E+00  0.42481247819E+02  0.42481247896E+02  0.25500000000E-02 0. -1.
          2   -1    0    0    0  501  0.00000000000E+00 -0.00000000000E+00 -0.18760403564E+02  0.18760403737E+02  0.25500000000E-02 0. -1.
          2    1    1    2    0  502 -0.23638108283E+02  0.12504313968E+02  0.20474759600E+01  0.26819958898E+02  0.25500000000E-02 0.  1.
         -2    1    1    2  502    0  0.23638108283E+02 -0.12504313968E+02  0.21673368295E+02  0.34421692735E+02  0.25500000000E-02 0.  1.
<mgrwt>
<rscale>  0 0.56461150E+02</rscale>
<asrwt>0</asrwt>
<pdfrwt beam="2">  1        2 0.28862160E-02 0.56461150E+02</pdfrwt>
<pdfrwt beam="1">  1       -2 0.65355766E-02 0.56461150E+02</pdfrwt>
<totfact> 0.31351490E+05</totfact>
</mgrwt>
</event>
<event>
 4    1  0.2196664E-002  0.4012931E+02  0.7818608E-02  0.1507262E+00
         -2   -1    0    0  501    0 -0.00000000000E+00  0.00000000000E+00  0.29400030029E+00  0.29401135875E+00  0.25500000000E-02 0.  1.
          2   -1    0    0    0  501  0.00000000000E+00 -0.00000000000E+00 -0.13693276624E+04  0.13693276625E+04  0.25500000000E-02 0.  1.
          2    1    1    2    0  502 -0.10414002209E+02 -0.17116771877E+02 -0.64783692868E+03  0.64814668208E+03  0.25500000000E-02 0.  1.
         -2    1    1    2  502    0  0.10414002209E+02  0.17116771877E+02 -0.72119673347E+03  0.72147499173E+03  0.25500000000E-02 0.  1.
<mgrwt>
<rscale>  0 0.40129307E+02</rscale>
<asrwt>0</asrwt>
<pdfrwt beam="2">  1        2 0.21066069E+00 0.40129307E+02</pdfrwt>
<pdfrwt beam="1">  1       -2 0.45232763E-04 0.40129307E+02</pdfrwt>
<totfact> 0.19288070E+06</totfact>
</mgrwt>
</event>
<event>
 4    1  0.2196664E-002  0.4112764E+02  0.7818608E-02  0.1500073E+00
         -2   -1    0    0  501    0 -0.00000000000E+00  0.00000000000E+00  0.61188187748E+00  0.61188719099E+00  0.25500000000E-02 0. -1.
          2   -1    0    0    0  501  0.00000000000E+00 -0.00000000000E+00 -0.69109547431E+03  0.69109547431E+03  0.25500000000E-02 0. -1.
          2    1    1    2    0  502 -0.19316190238E+02 -0.55964056171E+01 -0.41745524341E+03  0.41793936787E+03  0.25500000000E-02 0. -1.
         -2    1    1    2  502    0  0.19316190238E+02  0.55964056171E+01 -0.27302834902E+03  0.27376799363E+03  0.25500000000E-02 0. -1.
<mgrwt>
<rscale>  0 0.41127637E+02</rscale>
<asrwt>0</asrwt>
<pdfrwt beam="2">  1        2 0.10632176E+00 0.41127637E+02</pdfrwt>
<pdfrwt beam="1">  1       -2 0.94136635E-04 0.41127637E+02</pdfrwt>
<totfact> 0.17669855E+06</totfact>
</mgrwt>
</event>
<event>
 4    1  0.2196664E-002  0.5444708E+02  0.7818608E-02  0.1422732E+00
          2   -1    0    0    0  501  0.00000000000E+00  0.00000000000E+00  0.63087348416E+03  0.63087348417E+03  0.25500000000E-02 0. -1.
         -2   -1    0    0  501    0 -0.00000000000E+00 -0.00000000000E+00 -0.11747526870E+01  0.11747554546E+01  0.25500000000E-02 0. -1.
          2    1    1    2    0  502 -0.24198575453E+02  0.68924042867E+01  0.19418535736E+03  0.19580865484E+03  0.25500000000E-02 0.  1.
         -2    1    1    2  502    0  0.24198575453E+02 -0.68924042867E+01  0.43551337412E+03  0.43623958478E+03  0.25500000000E-02 0.  1.
<mgrwt>
<rscale>  0 0.54447082E+02</rscale>
<asrwt>0</asrwt>
<pdfrwt beam="1">  1        2 0.97057290E-01 0.54447082E+02</pdfrwt>
<pdfrwt beam="2">  1       -2 0.18073171E-03 0.54447082E+02</pdfrwt>
<totfact> 0.86861714E+05</totfact>
</mgrwt>
</event>
<event>
 4    1  0.2196664E-002  0.4571482E+02  0.7818608E-02  0.1469928E+00
          2   -1    0    0    0  501  0.00000000000E+00  0.00000000000E+00  0.72613108170E+03  0.72613108170E+03  0.25500000000E-02 0.  1.
         -2   -1    0    0  501    0 -0.00000000000E+00 -0.00000000000E+00 -0.71951149586E+00  0.71951601454E+00  0.25500000000E-02 0.  1.
          2    1    1    2    0  502 -0.18164272095E+02 -0.12481632184E+02  0.45906535713E+03  0.45959409705E+03  0.25500000000E-02 0.  1.
         -2    1    1    2  502    0  0.18164272095E+02  0.12481632184E+02  0.26634621307E+03  0.26725650066E+03  0.25500000000E-02 0.  1.
<mgrwt>
<rscale>  0 0.45714825E+02</rscale>
<asrwt>0</asrwt>
<pdfrwt beam="1">  1        2 0.11171284E+00 0.45714825E+02</pdfrwt>
<pdfrwt beam="2">  1       -2 0.11069406E-03 0.45714825E+02</pdfrwt>
<totfact> 0.13819806E+06</totfact>
</mgrwt>
</event>
<event>
 4    1  0.2196664E-002  0.4343951E+02  0.7818608E-02  0.1484325E+00
         -2   -1    0    0  501    0 -0.00000000000E+00  0.00000000000E+00  0.24679721152E+01  0.24679734326E+01  0.25500000000E-02 0. -1.
          2   -1    0    0    0  501  0.00000000000E+00 -0.00000000000E+00 -0.19114791792E+03  0.19114791793E+03  0.25500000000E-02 0. -1.
          2    1    1    2    0  502  0.21156435368E+02  0.32955614128E+01 -0.78089826824E+02  0.80972072608E+02  0.25500000000E-02 0. -1.
         -2    1    1    2  502    0 -0.21156435368E+02 -0.32955614128E+01 -0.11059011898E+03  0.11264381876E+03  0.25500000000E-02 0. -1.
<mgrwt>
<rscale>  0 0.43439515E+02</rscale>
<asrwt>0</asrwt>
<pdfrwt beam="2">  1        2 0.29407360E-01 0.43439515E+02</pdfrwt>
<pdfrwt beam="1">  1       -2 0.37968827E-03 0.43439515E+02</pdfrwt>
<totfact> 0.10284696E+06</totfact>
</mgrwt>
</event>
<event>
 4    1  0.2196664E-002  0.7178386E+02  0.7818608E-02  0.1354130E+00
         -2   -1    0    0  501    0 -0.00000000000E+00  0.00000000000E+00  0.11982770394E+01  0.11982797527E+01  0.25500000000E-02 0.  1.
          2   -1    0    0    0  501  0.00000000000E+00 -0.00000000000E+00 -0.10750678040E+04  0.10750678040E+04  0.25500000000E-02 0.  1.
          2    1    1    2    0  502  0.15844737102E+02  0.22438498863E+02 -0.19056750913E+03  0.19253705479E+03  0.25500000000E-02 0. -1.
         -2    1    1    2  502    0 -0.15844737102E+02 -0.22438498863E+02 -0.88330201781E+03  0.88372902894E+03  0.25500000000E-02 0. -1.
<mgrwt>
<rscale>  0 0.71783857E+02</rscale>
<asrwt>0</asrwt>
<pdfrwt beam="2">  1        2 0.16539428E+00 0.71783857E+02</pdfrwt>
<pdfrwt beam="1">  1       -2 0.18435138E-03 0.71783857E+02</pdfrwt>
<totfact> 0.46624622E+05</totfact>
</mgrwt>
</event>
<event>
 4    1  0.2196664E-002  0.5304965E+02  0.7818608E-02  0.1429554E+00
         -2   -1    0    0  501    0 -0.00000000000E+00  0.00000000000E+00  0.32425192586E+01  0.32425202613E+01  0.25500000000E-02 0. -1.
          2   -1    0    0    0  501  0.00000000000E+00 -0.00000000000E+00 -0.21698139500E+03  0.21698139501E+03  0.25500000000E-02 0. -1.
          2    1    1    2    0  502  0.21067820294E+02 -0.11530140943E+02 -0.60129418446E+02  0.64748314042E+02  0.25500000000E-02 0. -1.
         -2    1    1    2  502    0 -0.21067820294E+02  0.11530140943E+02 -0.15360945730E+03  0.15547560123E+03  0.25500000000E-02 0. -1.
<mgrwt>
<rscale>  0 0.53049655E+02</rscale>
<asrwt>0</asrwt>
<pdfrwt beam="2">  1        2 0.33381742E-01 0.53049655E+02</pdfrwt>
<pdfrwt beam="1">  1       -2 0.49884936E-03 0.53049655E+02</pdfrwt>
<totfact> 0.65208007E+05</totfact>
</mgrwt>
</event>
<event>
 4    1  0.2196664E-002  0.5158981E+02  0.7818608E-02  0.1436950E+00
          2   -1    0    0    0  501  0.00000000000E+00  0.00000000000E+00  0.67354988510E+03  0.67354988510E+03  0.25500000000E-02 0.  1.
         -2   -1    0    0  501    0 -0.00000000000E+00 -0.00000000000E+00 -0.98786447440E+00  0.98786776558E+00  0.25500000000E-02 0.  1.
          2    1    1    2    0  502  0.18439508296E+02 -0.17035363960E+02  0.25875373494E+03  0.25996867974E+03  0.25500000000E-02 0. -1.
         -2    1    1    2  502    0 -0.18439508296E+02  0.17035363960E+02  0.41380828568E+03  0.41456907313E+03  0.25500000000E-02 0. -1.
<mgrwt>
<rscale>  0 0.51589810E+02</rscale>
<asrwt>0</asrwt>
<pdfrwt beam="1">  1        2 0.10362343E+00 0.51589810E+02</pdfrwt>
<pdfrwt beam="2">  1       -2 0.15197887E-03 0.51589810E+02</pdfrwt>
<totfact> 0.10094288E+06</totfact>
</mgrwt>
</event>
<event>
 4    1  0.2196664E-002  0.5696272E+02  0.7818608E-02  0.1411039E+00
         -2   -1    0    0  501    0 -0.00000000000E+00  0.00000000000E+00  0.43129708337E+00  0.43130462161E+00  0.25500000000E-02 0. -1.
          2   -1    0    0    0  501  0.00000000000E+00 -0.00000000000E+00 -0.18807932948E+04  0.18807932948E+04  0.25500000000E-02 0. -1.
          2    1    1    2    0  502 -0.16100856585E+02 -0.21034701900E+02 -0.12857542558E+04  0.12860271003E+04  0.25500000000E-02 0. -1.
         -2    1    1    2  502    0  0.16100856585E+02  0.21034701900E+02 -0.59460774189E+03  0.59519749914E+03  0.25500000000E-02 0. -1.
<mgrwt>
<rscale>  0 0.56962716E+02</rscale>
<asrwt>0</asrwt>
<pdfrwt beam="2">  1        2 0.28934625E+00 0.56962716E+02</pdfrwt>
<pdfrwt beam="1">  1       -2 0.66355483E-04 0.56962716E+02</pdfrwt>
<totfact> 0.69872944E+05</totfact>
</mgrwt>
</event>
<event>
 4    1  0.2196664E-002  0.6072770E+02  0.7818608E-02  0.1394803E+00
         -2   -1    0    0  501    0 -0.00000000000E+00  0.00000000000E+00  0.43870314621E+00  0.43871055719E+00  0.25500000000E-02 0.  1.
          2   -1    0    0    0  501  0.00000000000E+00 -0.00000000000E+00 -0.21015476631E+04  0.21015476631E+04  0.25500000000E-02 0.  1.
          2    1    1    2    0  502 -0.48842687424E+01  0.28759920009E+02 -0.75895042857E+03  0.75951085714E+03  0.25500000000E-02 0. -1.
         -2    1    1    2  502    0  0.48842687424E+01 -0.28759920009E+02 -0.13421585314E+04  0.13424755166E+04  0.25500000000E-02 0. -1.
<mgrwt>
<rscale>  0 0.60727699E+02</rscale>
<asrwt>0</asrwt>
<pdfrwt beam="2">  1        2 0.32330697E+00 0.60727699E+02</pdfrwt>
<pdfrwt beam="1">  1       -2 0.67495045E-04 0.60727699E+02</pdfrwt>
<totfact> 0.53772119E+05</totfact>
</mgrwt>
</event>
<event>
 4    1  0.2196664E-002  0.1153425E+03  0.7818608E-02  0.1250984E+00
         -2   -1    0    0  501    0 -0.00000000000E+00  0.00000000000E+00  0.14008733520E+01  0.14008756729E+01  0.25500000000E-02 0.  1.
          2   -1    0    0    0  501  0.00000000000E+00 -0.00000000000E+00 -0.23742139203E+04  0.23742139203E+04  0.25500000000E-02 0.  1.
          2    1    1    2    0  502  0.13715087157E+02 -0.40935101735E+02 -0.39883803750E+03  0.40116775335E+03  0.25500000000E-02 0.  1.
         -2    1    1    2  502    0 -0.13715087157E+02  0.40935101735E+02 -0.19739750094E+04  0.19744470426E+04  0.25500000000E-02 0.  1.
<mgrwt>
<rscale>  0 0.11534255E+03</rscale>
<asrwt>0</asrwt>
<pdfrwt beam="2">  1        2 0.36526046E+00 0.11534255E+03</pdfrwt>
<pdfrwt beam="1">  1       -2 0.21552106E-03 0.11534255E+03</pdfrwt>
<totfact> 0.85671824E+04</totfact>
</mgrwt>
</event>
<event>
 4    1  0.2196664E-002  0.4165288E+02  0.7818608E-02  0.1496389E+00
          2   -1    0    0    0  501  0.00000000000E+00  0.00000000000E+00  0.19780076359E+02  0.19780076524E+02  0.25500000000E-02 0. -1.
         -2   -1    0    0  501    0 -0.00000000000E+00 -0.00000000000E+00 -0.21928158735E+02  0.21928158884E+02  0.25500000000E-02 0. -1.
          2    1    1    2    0  502  0.20266615319E+02  0.47935409597E+01 -0.90974150133E+00  0.20845655843E+02  0.25500000000E-02 0.  1.
         -2    1    1    2  502    0 -0.20266615319E+02 -0.47935409597E+01 -0.12383408749E+01  0.20862579564E+02  0.25500000000E-02 0.  1.
<mgrwt>
<rscale>  0 0.41652883E+02</rscale>
<asrwt>0</asrwt>
<pdfrwt beam="1">  1        2 0.30430887E-02 0.41652883E+02</pdfrwt>
<pdfrwt beam="2">  1       -2 0.33735629E-02 0.41652883E+02</pdfrwt>
<totfact> 0.70954188E+05</totfact>
</mgrwt>
</event>
<event>
 4    1  0.2196664E-002  0.6353275E+02  0.7818608E-02  0.1383577E+00
         -2   -1    0    0  501    0 -0.00000000000E+00  0.00000000000E+00  0.44216478673E+02  0.44216478747E+02  0.25500000000E-02 0.  1.
          2   -1    0    0    0  501  0.00000000000E+00 -0.00000000000E+00 -0.22821863113E+02  0.22821863256E+02  0.25500000000E-02 0.  1.
          2    1    1    2    0  502 -0.11332265645E+02  0.29058142661E+02  0.17055270592E+02  0.35548251167E+02  0.25500000000E-02 0.  1.
         -2    1    1    2  502    0  0.11332265645E+02 -0.29058142661E+02  0.43393449684E+01  0.31490090836E+02  0.25500000000E-02 0.  1.
<mgrwt>
<rscale>  0 0.63532745E+02</rscale>
<asrwt>0</asrwt>
<pdfrwt beam="2">  1        2 0.35110559E-02 0.63532745E+02</pdfrwt>
<pdfrwt beam="1">  1       -2 0.68025352E-02 0.63532745E+02</pdfrwt>
<totfact> 0.23463655E+05</totfact>
</mgrwt>
</event>
<event>
 4    1  0.2196664E-002  0.5781169E+02  0.7818608E-02  0.1407251E+00
          2   -1    0    0    0  501  0.00000000000E+00  0.00000000000E+00  0.10367617937E+04  0.10367617937E+04  0.25500000000E-02 0. -1.
         -2   -1    0    0  501    0 -0.00000000000E+00 -0.00000000000E+00 -0.80591867941E+00  0.80592271362E+00  0.25500000000E-02 0. -1.
          2    1    1    2    0  502  0.24938046287E+02  0.14278423607E+02  0.46188486904E+03  0.46277792924E+03  0.25500000000E-02 0.  1.
         -2    1    1    2  502    0 -0.24938046287E+02 -0.14278423607E+02  0.57407100600E+03  0.57478978720E+03  0.25500000000E-02 0.  1.
<mgrwt>
<rscale>  0 0.57811687E+02</rscale>
<asrwt>0</asrwt>
<pdfrwt beam="1">  1        2 0.15950215E+00 0.57811687E+02</pdfrwt>
<pdfrwt beam="2">  1       -2 0.12398754E-03 0.57811687E+02</pdfrwt>
<totfact> 0.80770055E+05</totfact>
</mgrwt>
</event>
<event>
 4    1  0.2196664E-002  0.4896097E+02  0.7818608E-02  0.1451028E+00
         -2   -1    0    0  501    0 -0.00000000000E+00  0.00000000000E+00  0.19613297953E+02  0.19613298119E+02  0.25500000000E-02 0. -1.
          2   -1    0    0    0  501  0.00000000000E+00 -0.00000000000E+00 -0.30555500847E+02  0.30555500954E+02  0.25500000000E-02 0. -1.
          2    1    1    2    0  502  0.66144736273E+00 -0.22696776570E+02 -0.14846290805E+02  0.27129200808E+02  0.25500000000E-02 0.  1.
         -2    1    1    2  502    0 -0.66144736273E+00  0.22696776570E+02  0.39040879106E+01  0.23039598265E+02  0.25500000000E-02 0.  1.
<mgrwt>
<rscale>  0 0.48960970E+02</rscale>
<asrwt>0</asrwt>
<pdfrwt beam="2">  1        2 0.47008463E-02 0.48960970E+02</pdfrwt>
<pdfrwt beam="1">  1       -2 0.30174305E-02 0.48960970E+02</pdfrwt>
<totfact> 0.49735794E+05</totfact>
</mgrwt>
</event>
<event>
 4    1  0.2196664E-002  0.5627572E+02  0.7818608E-02  0.1414160E+00
          2   -1    0    0    0  501  0.00000000000E+00  0.00000000000E+00  0.63625193605E+01  0.63625198715E+01  0.25500000000E-02 0.  1.
         -2   -1    0    0  501    0 -0.00000000000E+00 -0.00000000000E+00 -0.12443797610E+03  0.12443797613E+03  0.25500000000E-02 0.  1.
          2    1    1    2    0  502  0.20812720989E+02 -0.13668211669E+02 -0.28577276225E+02  0.37903167258E+02  0.25500000000E-02 0.  1.
         -2    1    1    2  502    0 -0.20812720989E+02  0.13668211669E+02 -0.89498180519E+02  0.92897328744E+02  0.25500000000E-02 0.  1.
<mgrwt>
<rscale>  0 0.56275717E+02</rscale>
<asrwt>0</asrwt>
<pdfrwt beam="1">  1        2 0.97884926E-03 0.56275717E+02</pdfrwt>
<pdfrwt beam="2">  1       -2 0.19144302E-01 0.56275717E+02</pdfrwt>
<totfact> 0.24871112E+05</totfact>
</mgrwt>
</event>
<event>
 4    1  0.2196664E-002  0.4143515E+02  0.7818608E-02  0.1497908E+00
         -2   -1    0    0  501    0 -0.00000000000E+00  0.00000000000E+00  0.17106920983E+03  0.17106920985E+03  0.25500000000E-02 0.  1.
          2   -1    0    0    0  501  0.00000000000E+00 -0.00000000000E+00 -0.25090302407E+01  0.25090315365E+01  0.25500000000E-02 0.  1.
          2    1    1    2    0  502 -0.20010734796E+02 -0.49411464812E+01  0.93040825149E+02  0.95296587486E+02  0.25500000000E-02 0. -1.
         -2    1    1    2  502    0  0.20010734796E+02  0.49411464812E+01  0.75519354444E+02  0.78281653902E+02  0.25500000000E-02 0. -1.
<mgrwt>
<rscale>  0 0.41435151E+02</rscale>
<asrwt>0</asrwt>
<pdfrwt beam="2">  1        2 0.38600450E-03 0.41435151E+02</pdfrwt>
<pdfrwt beam="1">  1       -2 0.26318357E-01 0.41435151E+02</pdfrwt>
<totfact> 0.47324892E+05</totfact>
</mgrwt>
</event>
<event>
 4    1  0.2196664E-002  0.7443808E+02  0.7818608E-02  0.1345620E+00
          2   -1    0    0    0  501  0.00000000000E+00  0.00000000000E+00  0.12876156576E+04  0.12876156576E+04  0.25500000000E-02 0.  1.
         -2   -1    0    0  501    0 -0.00000000000E+00 -0.00000000000E+00 -0.10758295210E+01  0.10758325431E+01  0.25500000000E-02 0.  1.
          2    1    1    2    0  502  0.43663773103E+01  0.34631829721E+02  0.41966143109E+03  0.42111060974E+03  0.25500000000E-02 0.  1.
         -2    1    1    2  502    0 -0.43663773103E+01 -0.34631829721E+02  0.86687839694E+03  0.86758088036E+03  0.25500000000E-02 0.  1.
<mgrwt>
<rscale>  0 0.74438079E+02</rscale>
<asrwt>0</asrwt>
<pdfrwt beam="1">  1        2 0.19809371E+00 0.74438079E+02</pdfrwt>
<pdfrwt beam="2">  1       -2 0.16551331E-03 0.74438079E+02</pdfrwt>
<totfact> 0.41762740E+05</totfact>
</mgrwt>
</event>
<event>
 4    1  0.2196664E-002  0.4143967E+02  0.7818608E-02  0.1497877E+00
         -2   -1    0    0  501    0 -0.00000000000E+00  0.00000000000E+00  0.33517864815E+03  0.33517864816E+03  0.25500000000E-02 0. -1.
          2   -1    0    0    0  501  0.00000000000E+00 -0.00000000000E+00 -0.12808429438E+01  0.12808454821E+01  0.25500000000E-02 0. -1.
          2    1    1    2    0  502  0.17602376491E+02  0.10686746251E+02  0.14832510887E+03  0.14974774833E+03  0.25500000000E-02 0.  1.
         -2    1    1    2  502    0 -0.17602376491E+02 -0.10686746251E+02  0.18557269634E+03  0.18671174531E+03  0.25500000000E-02 0.  1.
<mgrwt>
<rscale>  0 0.41439674E+02</rscale>
<asrwt>0</asrwt>
<pdfrwt beam="2">  1        2 0.19705331E-03 0.41439674E+02</pdfrwt>
<pdfrwt beam="1">  1       -2 0.51565853E-01 0.41439674E+02</pdfrwt>
<totfact> 0.34416592E+05</totfact>
</mgrwt>
</event>
<event>
 4    1  0.2196664E-002  0.6502125E+02  0.7818608E-02  0.1377892E+00
          2   -1    0    0    0  501  0.00000000000E+00  0.00000000000E+00  0.30998869356E+03  0.30998869357E+03  0.25500000000E-02 0. -1.
         -2   -1    0    0  501    0 -0.00000000000E+00 -0.00000000000E+00 -0.34096105893E+01  0.34096115428E+01  0.25500000000E-02 0. -1.
          2    1    1    2    0  502 -0.22870061373E+02 -0.17894438106E+02  0.22374808433E+03  0.22562459057E+03  0.25500000000E-02 0.  1.
         -2    1    1    2  502    0  0.22870061373E+02  0.17894438106E+02  0.82830998646E+02  0.87773714548E+02  0.25500000000E-02 0.  1.
<mgrwt>
<rscale>  0 0.65021254E+02</rscale>
<asrwt>0</asrwt>
<pdfrwt beam="1">  1        2 0.47690581E-01 0.65021254E+02</pdfrwt>
<pdfrwt beam="2">  1       -2 0.52455542E-03 0.65021254E+02</pdfrwt>
<totfact> 0.44044868E+05</totfact>
</mgrwt>
</event>
<event>
 4    1  0.2196664E-002  0.4600917E+02  0.7818608E-02  0.1468138E+00
          2   -1    0    0    0  501  0.00000000000E+00  0.00000000000E+00  0.40653198977E+02  0.40653199057E+02  0.25500000000E-02 0. -1.
         -2   -1    0    0  501    0 -0.00000000000E+00 -0.00000000000E+00 -0.13017692482E+02  0.13017692732E+02  0.25500000000E-02 0. -1.
          2    1    1    2    0  502 -0.22458306577E+02  0.23826747378E+01  0.18923643521E+02  0.29464503455E+02  0.25500000000E-02 0.  1.
         -2    1    1    2  502    0  0.22458306577E+02 -0.23826747378E+01  0.87118629736E+01  0.24206388334E+02  0.25500000000E-02 0.  1.
<mgrwt>
<rscale>  0 0.46009167E+02</rscale>
<asrwt>0</asrwt>
<pdfrwt beam="1">  1        2 0.62543382E-02 0.46009167E+02</pdfrwt>
<pdfrwt beam="2">  1       -2 0.20027220E-02 0.46009167E+02</pdfrwt>
<totfact> 0.61181635E+05</totfact>
</mgrwt>
</event>
<event>
 4    1  0.2196664E-002  0.6319244E+02  0.7818608E-02  0.1384903E+00
          2   -1    0    0    0  501  0.00000000000E+00  0.00000000000E+00  0.16485737321E+04  0.16485737321E+04  0.25500000000E-02 0.  1.
         -2   -1    0    0  501    0 -0.00000000000E+00 -0.00000000000E+00 -0.60556394133E+00  0.60556931027E+00  0.25500000000E-02 0.  1.
          2    1    1    2    0  502  0.16102705152E+02  0.19674275067E+02  0.13135840390E+04  0.13138300505E+04  0.25500000000E-02 0. -1.
         -2    1    1    2  502    0 -0.16102705152E+02 -0.19674275067E+02  0.33438412921E+03  0.33534925091E+03  0.25500000000E-02 0. -1.
<mgrwt>
<rscale>  0 0.63192444E+02</rscale>
<asrwt>0</asrwt>
<pdfrwt beam="1">  1        2 0.25362615E+00 0.63192444E+02</pdfrwt>
<pdfrwt beam="2">  1       -2 0.93164309E-04 0.63192444E+02</pdfrwt>
<totfact> 0.58428233E+05</totfact>
</mgrwt>
</event>
<event>
 4    1  0.2196664E-002  0.6039858E+02  0.7818608E-02  0.1396167E+00
         -2   -1    0    0  501    0 -0.00000000000E+00  0.00000000000E+00  0.72151640551E+02  0.72151640596E+02  0.25500000000E-02 0.  1.
          2   -1    0    0    0  501  0.00000000000E+00 -0.00000000000E+00 -0.12640005834E+02  0.12640006091E+02  0.25500000000E-02 0.  1.
          2    1    1    2    0  502 -0.13917551591E+01  0.27721230323E+02  0.46460879499E+02  0.54120392860E+02  0.25500000000E-02 0. -1.
         -2    1    1    2  502    0  0.13917551591E+01 -0.27721230323E+02  0.13050755219E+02  0.30671253827E+02  0.25500000000E-02 0. -1.
<mgrwt>
<rscale>  0 0.60398582E+02</rscale>
<asrwt>0</asrwt>
<pdfrwt beam="2">  1        2 0.19446163E-02 0.60398582E+02</pdfrwt>
<pdfrwt beam="1">  1       -2 0.11100252E-01 0.60398582E+02</pdfrwt>
<totfact> 0.24001744E+05</totfact>
</mgrwt>
</event>
<event>
 4    1  0.2196664E-002  0.4889913E+02  0.7818608E-02  0.1451371E+00
          2   -1    0    0    0  501  0.00000000000E+00  0.00000000000E+00  0.28218480932E+03  0.28218480933E+03  0.25500000000E-02 0.  1.
         -2   -1    0    0  501    0 -0.00000000000E+00 -0.00000000000E+00 -0.21184023336E+01  0.21184038684E+01  0.25500000000E-02 0.  1.
          2    1    1    2    0  502  0.16561196041E+02 -0.17333101084E+02  0.16795987496E+03  0.16966210304E+03  0.25500000000E-02 0.  1.
         -2    1    1    2  502    0 -0.16561196041E+02  0.17333101084E+02  0.11210653203E+03  0.11464111016E+03  0.25500000000E-02 0.  1.
<mgrwt>
<rscale>  0 0.48899128E+02</rscale>
<asrwt>0</asrwt>
<pdfrwt beam="1">  1        2 0.43413049E-01 0.48899128E+02</pdfrwt>
<pdfrwt beam="2">  1       -2 0.32590816E-03 0.48899128E+02</pdfrwt>
<totfact> 0.87522035E+05</totfact>
</mgrwt>
</event>
<event>
 4    1  0.2196664E-002  0.5177948E+02  0.7818608E-02  0.1435973E+00
         -2   -1    0    0  501    0 -0.00000000000E+00  0.00000000000E+00  0.81290916430E+00  0.81291316382E+00  0.25500000000E-02 0. -1.
          2   -1    0    0    0  501  0.00000000000E+00 -0.00000000000E+00 -0.82454102676E+03  0.82454102676E+03  0.25500000000E-02 0. -1.
          2    1    1    2    0  502  0.57702094699E+01  0.23807664717E+02 -0.27833240085E+03  0.27940834917E+03  0.25500000000E-02 0. -1.
         -2    1    1    2  502    0 -0.57702094699E+01 -0.23807664717E+02 -0.54539571674E+03  0.54594559075E+03  0.25500000000E-02 0. -1.
<mgrwt>
<rscale>  0 0.51779479E+02</rscale>
<asrwt>0</asrwt>
<pdfrwt beam="2">  1        2 0.12685180E+00 0.51779479E+02</pdfrwt>
<pdfrwt beam="1">  1       -2 0.12506392E-03 0.51779479E+02</pdfrwt>
<totfact> 0.10411813E+06</totfact>
</mgrwt>
</event>
<event>
 4    1  0.2196664E-002  0.6934856E+02  0.7818608E-02  0.1362322E+00
         -2   -1    0    0  501    0 -0.00000000000E+00  0.00000000000E+00  0.31741386350E+02  0.31741386453E+02  0.25500000000E-02 0.  1.
          2   -1    0    0    0  501  0.00000000000E+00 -0.00000000000E+00 -0.37878175904E+02  0.37878175989E+02  0.25500000000E-02 0.  1.
          2    1    1    2    0  502 -0.17027767968E+02 -0.15888399687E+02  0.22720893788E+02  0.32536520214E+02  0.25500000000E-02 0. -1.
         -2    1    1    2  502    0  0.17027767968E+02  0.15888399687E+02 -0.28857683341E+02  0.37083042228E+02  0.25500000000E-02 0. -1.
<mgrwt>
<rscale>  0 0.69348564E+02</rscale>
<asrwt>0</asrwt>
<pdfrwt beam="2">  1        2 0.58274117E-02 0.69348564E+02</pdfrwt>
<pdfrwt beam="1">  1       -2 0.48832902E-02 0.69348564E+02</pdfrwt>
<totfact> 0.20375265E+05</totfact>
</mgrwt>
</event>
<event>
 4    1  0.2196664E-002  0.4637884E+02  0.7818608E-02  0.1465913E+00
         -2   -1    0    0  501    0 -0.00000000000E+00  0.00000000000E+00  0.11792393037E+02  0.11792393312E+02  0.25500000000E-02 0.  1.
          2   -1    0    0    0  501  0.00000000000E+00 -0.00000000000E+00 -0.45601356932E+02  0.45601357003E+02  0.25500000000E-02 0.  1.
          2    1    1    2    0  502  0.53744120408E+01  0.22337611611E+02 -0.20797380260E+02  0.30990066625E+02  0.25500000000E-02 0.  1.
         -2    1    1    2  502    0 -0.53744120408E+01 -0.22337611611E+02 -0.13011583636E+02  0.26403683691E+02  0.25500000000E-02 0.  1.
<mgrwt>
<rscale>  0 0.46378837E+02</rscale>
<asrwt>0</asrwt>
<pdfrwt beam="2">  1        2 0.70155933E-02 0.46378837E+02</pdfrwt>
<pdfrwt beam="1">  1       -2 0.18142144E-02 0.46378837E+02</pdfrwt>
<totfact> 0.61148447E+05</totfact>
</mgrwt>
</event>
<event>
 4    1  0.2196664E-002  0.5052272E+02  0.7818608E-02  0.1442542E+00
          2   -1    0    0    0  501  0.00000000000E+00  0.00000000000E+00  0.31499922856E+03  0.31499922857E+03  0.25500000000E-02 0. -1.
         -2   -1    0    0  501    0 -0.00000000000E+00 -0.00000000000E+00 -0.20258340791E+01  0.20258356840E+01  0.25500000000E-02 0. -1.
          2    1    1    2    0  502 -0.10318328228E+02  0.22230633760E+02  0.11807761900E+03  0.12059433275E+03  0.25500000000E-02 0.  1.
         -2    1    1    2  502    0  0.10318328228E+02 -0.22230633760E+02  0.19489577548E+03  0.19643073151E+03  0.25500000000E-02 0.  1.
<mgrwt>
<rscale>  0 0.50522725E+02</rscale>
<asrwt>0</asrwt>
<pdfrwt beam="1">  1        2 0.48461377E-01 0.50522725E+02</pdfrwt>
<pdfrwt beam="2">  1       -2 0.31166718E-03 0.50522725E+02</pdfrwt>
<totfact> 0.83846798E+05</totfact>
</mgrwt>
</event>
<event>
 4    1  0.2196664E-002  0.7773784E+02  0.7818608E-02  0.1335596E+00
         -2   -1    0    0  501    0 -0.00000000000E+00  0.00000000000E+00  0.12640472418E+03  0.12640472420E+03  0.25500000000E-02 0. -1.
          2   -1    0    0    0  501  0.00000000000E+00 -0.00000000000E+00 -0.11952029989E+02  0.11952030261E+02  0.25500000000E-02 0. -1.
          2    1    1    2    0  502  0.37326346593E+01 -0.37138306775E+02  0.76527527333E+02  0.85144869709E+02  0.25500000000E-02 0. -1.
         -2    1    1    2  502    0 -0.37326346593E+01  0.37138306775E+02  0.37925166855E+02  0.53211884754E+02  0.25500000000E-02 0. -1.
<mgrwt>
<rscale>  0 0.77737843E+02</rscale>
<asrwt>0</asrwt>
<pdfrwt beam="2">  1        2 0.18387738E-02 0.77737843E+02</pdfrwt>
<pdfrwt beam="1">  1       -2 0.19446881E-01 0.77737843E+02</pdfrwt>
<totfact> 0.11067702E+05</totfact>
</mgrwt>
</event>
<event>
 4    1  0.2196664E-002  0.6206267E+02  0.7818608E-02  0.1389374E+00
         -2   -1    0    0  501    0 -0.00000000000E+00  0.00000000000E+00  0.75514191143E+01  0.75514195448E+01  0.25500000000E-02 0.  1.
          2   -1    0    0    0  501  0.00000000000E+00 -0.00000000000E+00 -0.12751826250E+03  0.12751826253E+03  0.25500000000E-02 0.  1.
          2    1    1    2    0  502  0.88653090101E+01 -0.28271860663E+02 -0.39912384644E+02  0.49708050290E+02  0.25500000000E-02 0.  1.
         -2    1    1    2  502    0 -0.88653090101E+01  0.28271860663E+02 -0.80054458744E+02  0.85361631782E+02  0.25500000000E-02 0.  1.
<mgrwt>
<rscale>  0 0.62062674E+02</rscale>
<asrwt>0</asrwt>
<pdfrwt beam="2">  1        2 0.19618193E-01 0.62062674E+02</pdfrwt>
<pdfrwt beam="1">  1       -2 0.11617569E-02 0.62062674E+02</pdfrwt>
<totfact> 0.36828894E+05</totfact>
</mgrwt>
</event>
<event>
 4    1  0.2196664E-002  0.4521692E+02  0.7818608E-02  0.1472992E+00
         -2   -1    0    0  501    0 -0.00000000000E+00  0.00000000000E+00  0.13202379365E+01  0.13202403991E+01  0.25500000000E-02 0.  1.
          2   -1    0    0    0  501  0.00000000000E+00 -0.00000000000E+00 -0.38715899482E+03  0.38715899483E+03  0.25500000000E-02 0.  1.
          2    1    1    2    0  502 -0.18495174413E+02 -0.97072491062E+01 -0.26724432432E+03  0.26805937971E+03  0.25500000000E-02 0. -1.
         -2    1    1    2  502    0  0.18495174413E+02  0.97072491062E+01 -0.11859443257E+03  0.12041985553E+03  0.25500000000E-02 0. -1.
<mgrwt>
<rscale>  0 0.45216920E+02</rscale>
<asrwt>0</asrwt>
<pdfrwt beam="2">  1        2 0.59562832E-01 0.45216920E+02</pdfrwt>
<pdfrwt beam="1">  1       -2 0.20311403E-03 0.45216920E+02</pdfrwt>
<totfact> 0.11838511E+06</totfact>
</mgrwt>
</event>
<event>
 4    1  0.2196664E-002  0.4406972E+02  0.7818608E-02  0.1480234E+00
         -2   -1    0    0  501    0 -0.00000000000E+00  0.00000000000E+00  0.11543538067E+01  0.11543566232E+01  0.25500000000E-02 0. -1.
          2   -1    0    0    0  501  0.00000000000E+00 -0.00000000000E+00 -0.42061155182E+03  0.42061155183E+03  0.25500000000E-02 0. -1.
          2    1    1    2    0  502  0.35343370855E+01 -0.20932295759E+02 -0.15320425785E+03  0.15466802247E+03  0.25500000000E-02 0. -1.
         -2    1    1    2  502    0 -0.35343370855E+01  0.20932295759E+02 -0.26625294016E+03  0.26709788598E+03  0.25500000000E-02 0. -1.
<mgrwt>
<rscale>  0 0.44069724E+02</rscale>
<asrwt>0</asrwt>
<pdfrwt beam="2">  1        2 0.64709347E-01 0.44069724E+02</pdfrwt>
<pdfrwt beam="1">  1       -2 0.17759345E-03 0.44069724E+02</pdfrwt>
<totfact> 0.12960042E+06</totfact>
</mgrwt>
</event>
<event>
 4    1  0.2196664E-002  0.4877278E+02  0.7818608E-02  0.1452075E+00
         -2   -1    0    0  501    0 -0.00000000000E+00  0.00000000000E+00  0.87039289293E+02  0.87039289330E+02  0.25500000000E-02 0. -1.
          2   -1    0    0    0  501  0.00000000000E+00 -0.00000000000E+00 -0.68325013319E+01  0.68325018078E+01  0.25500000000E-02 0. -1.
          2    1    1    2    0  502  0.14756711660E+02 -0.19014293861E+02  0.32552341989E+02  0.40484057178E+02  0.25500000000E-02 0. -1.
         -2    1    1    2  502    0 -0.14756711660E+02  0.19014293861E+02  0.47654445972E+02  0.53387733961E+02  0.25500000000E-02 0. -1.
<mgrwt>
<rscale>  0 0.48772783E+02</rscale>
<asrwt>0</asrwt>
<pdfrwt beam="2">  1        2 0.10511542E-02 0.48772783E+02</pdfrwt>
<pdfrwt beam="1">  1       -2 0.13390659E-01 0.48772783E+02</pdfrwt>
<totfact> 0.38775067E+05</totfact>
</mgrwt>
</event>
<event>
 4    1  0.2196664E-002  0.4895770E+02  0.7818608E-02  0.1451046E+00
         -2   -1    0    0  501    0 -0.00000000000E+00  0.00000000000E+00  0.15402717549E+02  0.15402717760E+02  0.25500000000E-02 0.  1.
          2   -1    0    0    0  501  0.00000000000E+00 -0.00000000000E+00 -0.38903144455E+02  0.38903144539E+02  0.25500000000E-02 0.  1.
          2    1    1    2    0  502 -0.24069171592E+02 -0.13108023635E+01 -0.70218137124E+01  0.25106754037E+02  0.25500000000E-02 0. -1.
         -2    1    1    2  502    0  0.24069171592E+02  0.13108023635E+01 -0.16478613194E+02  0.29199108262E+02  0.25500000000E-02 0. -1.
<mgrwt>
<rscale>  0 0.48957702E+02</rscale>
<asrwt>0</asrwt>
<pdfrwt beam="2">  1        2 0.59850991E-02 0.48957702E+02</pdfrwt>
<pdfrwt beam="1">  1       -2 0.23696489E-02 0.48957702E+02</pdfrwt>
<totfact> 0.51766682E+05</totfact>
</mgrwt>
</event>
<event>
 4    1  0.2196664E-002  0.5812115E+02  0.7818608E-02  0.1405890E+00
         -2   -1    0    0  501    0 -0.00000000000E+00  0.00000000000E+00  0.31340289596E+01  0.31340299970E+01  0.25500000000E-02 0. -1.
          2   -1    0    0    0  501  0.00000000000E+00 -0.00000000000E+00 -0.26946679937E+03  0.26946679938E+03  0.25500000000E-02 0. -1.
          2    1    1    2    0  502  0.55927271956E+01 -0.23945143103E+02 -0.20580700437E+03  0.20727076863E+03  0.25500000000E-02 0. -1.
         -2    1    1    2  502    0 -0.55927271956E+01  0.23945143103E+02 -0.60525766041E+02  0.65330060746E+02  0.25500000000E-02 0. -1.
<mgrwt>
<rscale>  0 0.58121146E+02</rscale>
<asrwt>0</asrwt>
<pdfrwt beam="2">  1        2 0.41456412E-01 0.58121146E+02</pdfrwt>
<pdfrwt beam="1">  1       -2 0.48215860E-03 0.58121146E+02</pdfrwt>
<totfact> 0.55797757E+05</totfact>
</mgrwt>
</event>
<event>
 4    1  0.2196664E-002  0.6951843E+02  0.7818608E-02  0.1361738E+00
         -2   -1    0    0  501    0 -0.00000000000E+00  0.00000000000E+00  0.31986448261E+01  0.31986458425E+01  0.25500000000E-02 0.  1.
          2   -1    0    0    0  501  0.00000000000E+00 -0.00000000000E+00 -0.37772335444E+03  0.37772335445E+03  0.25500000000E-02 0.  1.
          2    1    1    2    0  502  0.30620731996E+02  0.12852723927E+02 -0.13101295712E+03  0.13515626763E+03  0.25500000000E-02 0.  1.
         -2    1    1    2  502    0 -0.30620731996E+02 -0.12852723927E+02 -0.24351175250E+03  0.24576573266E+03  0.25500000000E-02 0.  1.
<mgrwt>
<rscale>  0 0.69518431E+02</rscale>
<asrwt>0</asrwt>
<pdfrwt beam="2">  1        2 0.58111250E-01 0.69518431E+02</pdfrwt>
<pdfrwt beam="1">  1       -2 0.49209958E-03 0.69518431E+02</pdfrwt>
<totfact> 0.39775529E+05</totfact>
</mgrwt>
</event>
<event>
 4    1  0.2196664E-002  0.5200410E+02  0.7818608E-02  0.1434822E+00
         -2   -1    0    0  501    0 -0.00000000000E+00  0.00000000000E+00  0.32256828719E+00  0.32257836630E+00  0.25500000000E-02 0.  1.
          2   -1    0    0    0  501  0.00000000000E+00 -0.00000000000E+00 -0.20959782544E+04  0.20959782544E+04  0.25500000000E-02 0.  1.
          2    1    1    2    0  502 -0.24259915061E+02  0.14506795351E+01 -0.14204719025E+04  0.14206797928E+04  0.25500000000E-02 0. -1.
         -2    1    1    2  502    0  0.24259915061E+02 -0.14506795351E+01 -0.67518378364E+03  0.67562103997E+03  0.25500000000E-02 0. -1.
<mgrwt>
<rscale>  0 0.52004103E+02</rscale>
<asrwt>0</asrwt>
<pdfrwt beam="2">  1        2 0.32244729E+00 0.52004103E+02</pdfrwt>
<pdfrwt beam="1">  1       -2 0.49628344E-04 0.52004103E+02</pdfrwt>
<totfact> 0.79760893E+05</totfact>
</mgrwt>
</event>
<event>
 4    1  0.2196664E-002  0.5053786E+02  0.7818608E-02  0.1442462E+00
          2   -1    0    0    0  501  0.00000000000E+00  0.00000000000E+00  0.17029661061E+02  0.17029661252E+02  0.25500000000E-02 0. -1.
         -2   -1    0    0  501    0 -0.00000000000E+00 -0.00000000000E+00 -0.37494506380E+02  0.37494506467E+02  0.25500000000E-02 0. -1.
          2    1    1    2    0  502 -0.26191571555E+01  0.24353529357E+02 -0.35325694322E+01  0.24747392381E+02  0.25500000000E-02 0. -1.
         -2    1    1    2  502    0  0.26191571555E+01 -0.24353529357E+02 -0.16932275886E+02  0.29776775338E+02  0.25500000000E-02 0. -1.
<mgrwt>
<rscale>  0 0.50537857E+02</rscale>
<asrwt>0</asrwt>
<pdfrwt beam="1">  1        2 0.26199479E-02 0.50537857E+02</pdfrwt>
<pdfrwt beam="2">  1       -2 0.57683856E-02 0.50537857E+02</pdfrwt>
<totfact> 0.41706802E+05</totfact>
</mgrwt>
</event>
<event>
 4    1  0.2196664E-002  0.5680241E+02  0.7818608E-02  0.1411762E+00
         -2   -1    0    0  501    0 -0.00000000000E+00  0.00000000000E+00  0.93378303334E+01  0.93378306815E+01  0.25500000000E-02 0.  1.
          2   -1    0    0    0  501  0.00000000000E+00 -0.00000000000E+00 -0.86382865676E+02  0.86382865714E+02  0.25500000000E-02 0.  1.
          2    1    1    2    0  502 -0.14179710910E+02  0.14758209610E+02 -0.71705876017E+02  0.74569441558E+02  0.25500000000E-02 0. -1.
         -2    1    1    2  502    0  0.14179710910E+02 -0.14758209610E+02 -0.53391593258E+01  0.21151254837E+02  0.25500000000E-02 0. -1.
<mgrwt>
<rscale>  0 0.56802414E+02</rscale>
<asrwt>0</asrwt>
<pdfrwt beam="2">  1        2 0.13289671E-01 0.56802414E+02</pdfrwt>
<pdfrwt beam="1">  1       -2 0.14365894E-02 0.56802414E+02</pdfrwt>
<totfact> 0.41615834E+05</totfact>
</mgrwt>
</event>
<event>
 4    1  0.2196664E-002  0.6201947E+02  0.7818608E-02  0.1389547E+00
          2   -1    0    0    0  501  0.00000000000E+00  0.00000000000E+00  0.59255225436E+01  0.59255230923E+01  0.25500000000E-02 0. -1.
         -2   -1    0    0  501    0 -0.00000000000E+00 -0.00000000000E+00 -0.16228164952E+03  0.16228164954E+03  0.25500000000E-02 0. -1.
          2    1    1    2    0  502 -0.48728074787E+01 -0.28129908793E+02 -0.11101294456E+03  0.11462508402E+03  0.25500000000E-02 0. -1.
         -2    1    1    2  502    0  0.48728074787E+01  0.28129908793E+02 -0.45343182422E+02  0.53582088613E+02  0.25500000000E-02 0. -1.
<mgrwt>
<rscale>  0 0.62019469E+02</rscale>
<asrwt>0</asrwt>
<pdfrwt beam="1">  1        2 0.91161902E-03 0.62019469E+02</pdfrwt>
<pdfrwt beam="2">  1       -2 0.24966404E-01 0.62019469E+02</pdfrwt>
<totfact> 0.17917163E+05</totfact>
</mgrwt>
</event>
<event>
 4    1  0.2196664E-002  0.7151279E+02  0.7818608E-02  0.1355023E+00
         -2   -1    0    0  501    0 -0.00000000000E+00  0.00000000000E+00  0.10092665264E+01  0.10092697477E+01  0.25500000000E-02 0.  1.
          2   -1    0    0    0  501  0.00000000000E+00 -0.00000000000E+00 -0.12667790110E+04  0.12667790110E+04  0.25500000000E-02 0.  1.
          2    1    1    2    0  502 -0.21094556028E+02 -0.28590085234E+02 -0.70412114196E+03  0.70501698975E+03  0.25500000000E-02 0.  1.
         -2    1    1    2  502    0  0.21094556028E+02  0.28590085234E+02 -0.56164860254E+03  0.56277129103E+03  0.25500000000E-02 0.  1.
<mgrwt>
<rscale>  0 0.71512788E+02</rscale>
<asrwt>0</asrwt>
<pdfrwt beam="2">  1        2 0.19488781E+00 0.71512788E+02</pdfrwt>
<pdfrwt beam="1">  1       -2 0.15527303E-03 0.71512788E+02</pdfrwt>
<totfact> 0.46434898E+05</totfact>
</mgrwt>
</event>
<event>
 4    1  0.2196664E-002  0.4121548E+02  0.7818608E-02  0.1499453E+00
          2   -1    0    0    0  501  0.00000000000E+00  0.00000000000E+00  0.18574743670E+04  0.18574743670E+04  0.25500000000E-02 0. -1.
         -2   -1    0    0  501    0 -0.00000000000E+00 -0.00000000000E+00 -0.22862531515E+00  0.22863953557E+00  0.25500000000E-02 0. -1.
          2    1    1    2    0  502  0.86521141854E+01 -0.18647910108E+02  0.99355349956E+03  0.99376614962E+03  0.25500000000E-02 0. -1.
         -2    1    1    2  502    0 -0.86521141854E+01  0.18647910108E+02  0.86369224211E+03  0.86393685690E+03  0.25500000000E-02 0. -1.
<mgrwt>
<rscale>  0 0.41215476E+02</rscale>
<asrwt>0</asrwt>
<pdfrwt beam="1">  1        2 0.28576264E+00 0.41215476E+02</pdfrwt>
<pdfrwt beam="2">  1       -2 0.35174546E-04 0.41215476E+02</pdfrwt>
<totfact> 0.15743446E+06</totfact>
</mgrwt>
</event>
<event>
 4    1  0.2196664E-002  0.4726482E+02  0.7818608E-02  0.1460679E+00
         -2   -1    0    0  501    0 -0.00000000000E+00  0.00000000000E+00  0.68379470750E+00  0.68379946220E+00  0.25500000000E-02 0. -1.
          2   -1    0    0    0  501  0.00000000000E+00 -0.00000000000E+00 -0.81674945774E+03  0.81674945775E+03  0.25500000000E-02 0. -1.
          2    1    1    2    0  502  0.15513736632E+01 -0.23489936538E+02 -0.37214043069E+03  0.37288427701E+03  0.25500000000E-02 0. -1.
         -2    1    1    2  502    0 -0.15513736632E+01  0.23489936538E+02 -0.44392523235E+03  0.44454898020E+03  0.25500000000E-02 0. -1.
<mgrwt>
<rscale>  0 0.47264824E+02</rscale>
<asrwt>0</asrwt>
<pdfrwt beam="2">  1        2 0.12565298E+00 0.47264824E+02</pdfrwt>
<pdfrwt beam="1">  1       -2 0.10520021E-03 0.47264824E+02</pdfrwt>
<totfact> 0.13017284E+06</totfact>
</mgrwt>
</event>
<event>
 4    1  0.2196664E-002  0.4188591E+02  0.7818608E-02  0.1494775E+00
         -2   -1    0    0  501    0 -0.00000000000E+00  0.00000000000E+00  0.27395015182E+00  0.27396201959E+00  0.25500000000E-02 0. -1.
          2   -1    0    0    0  501  0.00000000000E+00 -0.00000000000E+00 -0.16010137274E+04  0.16010137274E+04  0.25500000000E-02 0. -1.
          2    1    1    2    0  502 -0.20089273820E+02 -0.47919181480E+01 -0.66757422396E+03  0.66789361870E+03  0.25500000000E-02 0. -1.
         -2    1    1    2  502    0  0.20089273820E+02  0.47919181480E+01 -0.93316555326E+03  0.93339407069E+03  0.25500000000E-02 0. -1.
<mgrwt>
<rscale>  0 0.41885914E+02</rscale>
<asrwt>0</asrwt>
<pdfrwt beam="2">  1        2 0.24630231E+00 0.41885914E+02</pdfrwt>
<pdfrwt beam="1">  1       -2 0.42148372E-04 0.41885914E+02</pdfrwt>
<totfact> 0.16490393E+06</totfact>
</mgrwt>
</event>
<event>
 4    1  0.2196664E-002  0.6361182E+02  0.7818608E-02  0.1383271E+00
          2   -1    0    0    0  501  0.00000000000E+00  0.00000000000E+00  0.32298705028E+02  0.32298705129E+02  0.25500000000E-02 0. -1.
         -2   -1    0    0  501    0 -0.00000000000E+00 -0.00000000000E+00 -0.31320637649E+02  0.31320637753E+02  0.25500000000E-02 0. -1.
          2    1    1    2    0  502  0.19136558979E+02  0.18150483186E+02 -0.17288559079E+02  0.31536363312E+02  0.25500000000E-02 0.  1.
         -2    1    1    2  502    0 -0.19136558979E+02 -0.18150483186E+02  0.18266626457E+02  0.32082979570E+02  0.25500000000E-02 0.  1.
<mgrwt>
<rscale>  0 0.63611824E+02</rscale>
<asrwt>0</asrwt>
<pdfrwt beam="1">  1        2 0.49690315E-02 0.63611824E+02</pdfrwt>
<pdfrwt beam="2">  1       -2 0.48185597E-02 0.63611824E+02</pdfrwt>
<totfact> 0.24998747E+05</totfact>
</mgrwt>
</event>
<event>
 4    1  0.2196664E-002  0.8842369E+02  0.7818608E-02  0.1306714E+00
         -2   -1    0    0  501    0 -0.00000000000E+00  0.00000000000E+00  0.52019392755E+02  0.52019392818E+02  0.25500000000E-02 0.  1.
          2   -1    0    0    0  501  0.00000000000E+00 -0.00000000000E+00 -0.37576121769E+02  0.37576121856E+02  0.25500000000E-02 0.  1.
          2    1    1    2    0  502 -0.20009503435E+02 -0.24056514945E+02  0.38870018491E+02  0.49899644117E+02  0.25500000000E-02 0.  1.
         -2    1    1    2  502    0  0.20009503435E+02  0.24056514945E+02 -0.24426747506E+02  0.39695870556E+02  0.25500000000E-02 0.  1.
<mgrwt>
<rscale>  0 0.88423686E+02</rscale>
<asrwt>0</asrwt>
<pdfrwt beam="2">  1        2 0.57809419E-02 0.88423686E+02</pdfrwt>
<pdfrwt beam="1">  1       -2 0.80029834E-02 0.88423686E+02</pdfrwt>
<totfact> 0.10257837E+05</totfact>
</mgrwt>
</event>
<event>
 4    1  0.2196664E-002  0.9223443E+02  0.7818608E-02  0.1297529E+00
          2   -1    0    0    0  501  0.00000000000E+00  0.00000000000E+00  0.11941731077E+03  0.11941731080E+03  0.25500000000E-02 0.  1.
         -2   -1    0    0  501    0 -0.00000000000E+00 -0.00000000000E+00 -0.17809792542E+02  0.17809792725E+02  0.25500000000E-02 0.  1.
          2    1    1    2    0  502 -0.25901857310E+02  0.28288783947E+02  0.88899658552E+02  0.96821024610E+02  0.25500000000E-02 0. -1.
         -2    1    1    2  502    0  0.25901857310E+02 -0.28288783947E+02  0.12707859680E+02  0.40406078917E+02  0.25500000000E-02 0. -1.
<mgrwt>
<rscale>  0 0.92234431E+02</rscale>
<asrwt>0</asrwt>
<pdfrwt beam="1">  1        2 0.18371894E-01 0.92234431E+02</pdfrwt>
<pdfrwt beam="2">  1       -2 0.27399681E-02 0.92234431E+02</pdfrwt>
<totfact> 0.12563025E+05</totfact>
</mgrwt>
</event>
<event>
 4    1  0.2196664E-002  0.6617485E+02  0.7818608E-02  0.1373606E+00
          2   -1    0    0    0  501  0.00000000000E+00  0.00000000000E+00  0.16670438899E+04  0.16670438899E+04  0.25500000000E-02 0. -1.
         -2   -1    0    0  501    0 -0.00000000000E+00 -0.00000000000E+00 -0.65671547824E+00  0.65672042900E+00  0.25500000000E-02 0. -1.
          2    1    1    2    0  502  0.24124896837E+02  0.21186094203E+02  0.10346733029E+04  0.10351713409E+04  0.25500000000E-02 0.  1.
         -2    1    1    2  502    0 -0.24124896837E+02 -0.21186094203E+02  0.63171387154E+03  0.63252926947E+03  0.25500000000E-02 0.  1.
<mgrwt>
<rscale>  0 0.66174849E+02</rscale>
<asrwt>0</asrwt>
<pdfrwt beam="1">  1        2 0.25646971E+00 0.66174849E+02</pdfrwt>
<pdfrwt beam="2">  1       -2 0.10103297E-03 0.66174849E+02</pdfrwt>
<totfact> 0.51650125E+05</totfact>
</mgrwt>
</event>
<event>
 4    1  0.2196664E-002  0.4846122E+02  0.7818608E-02  0.1453822E+00
          2   -1    0    0    0  501  0.00000000000E+00  0.00000000000E+00  0.23914320236E+03  0.23914320237E+03  0.25500000000E-02 0. -1.
         -2   -1    0    0  501    0 -0.00000000000E+00 -0.00000000000E+00 -0.24551077932E+01  0.24551091174E+01  0.25500000000E-02 0. -1.
          2    1    1    2    0  502  0.20630558940E+02 -0.66194831915E+01  0.64261137916E+02  0.67815421348E+02  0.25500000000E-02 0.  1.
         -2    1    1    2  502    0 -0.20630558940E+02  0.66194831915E+01  0.17242695665E+03  0.17378289014E+03  0.25500000000E-02 0.  1.
<mgrwt>
<rscale>  0 0.48461222E+02</rscale>
<asrwt>0</asrwt>
<pdfrwt beam="1">  1        2 0.36791271E-01 0.48461222E+02</pdfrwt>
<pdfrwt beam="2">  1       -2 0.37770890E-03 0.48461222E+02</pdfrwt>
<totfact> 0.84529927E+05</totfact>
</mgrwt>
</event>
<event>
 4    1  0.2196664E-002  0.6931979E+02  0.7818608E-02  0.1362422E+00
         -2   -1    0    0  501    0 -0.00000000000E+00  0.00000000000E+00  0.62085424152E+00  0.62085947823E+00  0.25500000000E-02 0.  1.
          2   -1    0    0    0  501  0.00000000000E+00 -0.00000000000E+00 -0.19349197131E+04  0.19349197131E+04  0.25500000000E-02 0.  1.
          2    1    1    2    0  502 -0.14676667772E+02  0.31141522081E+02 -0.10792175392E+04  0.10797665007E+04  0.25500000000E-02 0.  1.
         -2    1    1    2  502    0  0.14676667772E+02 -0.31141522081E+02 -0.85508131967E+03  0.85577407196E+03  0.25500000000E-02 0.  1.
<mgrwt>
<rscale>  0 0.69319786E+02</rscale>
<asrwt>0</asrwt>
<pdfrwt beam="2">  1        2 0.29767513E+00 0.69319786E+02</pdfrwt>
<pdfrwt beam="1">  1       -2 0.95517989E-04 0.69319786E+02</pdfrwt>
<totfact> 0.41422330E+05</totfact>
</mgrwt>
</event>
<event>
 4    1  0.2196664E-002  0.1311096E+03  0.7818608E-02  0.1225819E+00
         -2   -1    0    0  501    0 -0.00000000000E+00  0.00000000000E+00  0.18947102078E+02  0.18947102249E+02  0.25500000000E-02 0.  1.
          2   -1    0    0    0  501  0.00000000000E+00 -0.00000000000E+00 -0.22681194470E+03  0.22681194471E+03  0.25500000000E-02 0.  1.
          2    1    1    2    0  502  0.60113729651E+02  0.22222610799E+01 -0.55094663172E+02  0.81572181860E+02  0.25500000000E-02 0. -1.
         -2    1    1    2  502    0 -0.60113729651E+02 -0.22222610799E+01 -0.15277017945E+03  0.16418686510E+03  0.25500000000E-02 0. -1.
<mgrwt>
<rscale>  0 0.13110956E+03</rscale>
<asrwt>0</asrwt>
<pdfrwt beam="2">  1        2 0.34894143E-01 0.13110956E+03</pdfrwt>
<pdfrwt beam="1">  1       -2 0.29149390E-02 0.13110956E+03</pdfrwt>
<totfact> 0.59736733E+04</totfact>
</mgrwt>
</event>
<event>
 4    1  0.2196664E-002  0.1084722E+03  0.7818608E-02  0.1263426E+00
         -2   -1    0    0  501    0 -0.00000000000E+00  0.00000000000E+00  0.89015682002E+02  0.89015682038E+02  0.25500000000E-02 0. -1.
          2   -1    0    0    0  501  0.00000000000E+00 -0.00000000000E+00 -0.33045370284E+02  0.33045370382E+02  0.25500000000E-02 0. -1.
          2    1    1    2    0  502 -0.13257954693E+02  0.49645863995E+02  0.47510244015E+02  0.69983629995E+02  0.25500000000E-02 0.  1.
         -2    1    1    2  502    0  0.13257954693E+02 -0.49645863995E+02  0.84600677029E+01  0.52077422425E+02  0.25500000000E-02 0.  1.
<mgrwt>
<rscale>  0 0.10847223E+03</rscale>
<asrwt>0</asrwt>
<pdfrwt beam="2">  1        2 0.50839032E-02 0.10847223E+03</pdfrwt>
<pdfrwt beam="1">  1       -2 0.13694720E-01 0.10847223E+03</pdfrwt>
<totfact> 0.53818148E+04</totfact>
</mgrwt>
</event>
<event>
 4    1  0.2196664E-002  0.4952892E+02  0.7818608E-02  0.1447899E+00
          2   -1    0    0    0  501  0.00000000000E+00  0.00000000000E+00  0.63697433244E+02  0.63697433296E+02  0.25500000000E-02 0.  1.
         -2   -1    0    0  501    0 -0.00000000000E+00 -0.00000000000E+00 -0.96279930188E+01  0.96279933565E+01  0.25500000000E-02 0.  1.
          2    1    1    2    0  502  0.23474026684E+02 -0.61154726598E+01  0.34414692095E+02  0.42104631255E+02  0.25500000000E-02 0.  1.
         -2    1    1    2  502    0 -0.23474026684E+02  0.61154726598E+01  0.19654748131E+02  0.31220795397E+02  0.25500000000E-02 0.  1.
<mgrwt>
<rscale>  0 0.49528919E+02</rscale>
<asrwt>0</asrwt>
<pdfrwt beam="1">  1        2 0.97996052E-02 0.49528919E+02</pdfrwt>
<pdfrwt beam="2">  1       -2 0.14812297E-02 0.49528919E+02</pdfrwt>
<totfact> 0.55167033E+05</totfact>
</mgrwt>
</event>
<event>
 4    1  0.2196664E-002  0.4986507E+02  0.7818608E-02  0.1446071E+00
          2   -1    0    0    0  501  0.00000000000E+00  0.00000000000E+00  0.25818010523E+01  0.25818023116E+01  0.25500000000E-02 0. -1.
         -2   -1    0    0  501    0 -0.00000000000E+00 -0.00000000000E+00 -0.24077425839E+03  0.24077425841E+03  0.25500000000E-02 0. -1.
          2    1    1    2    0  502  0.49814927990E+01  0.19541137483E+02 -0.19064869171E+03  0.19171227134E+03  0.25500000000E-02 0. -1.
         -2    1    1    2  502    0 -0.49814927990E+01 -0.19541137483E+02 -0.47543765633E+02  0.51643789382E+02  0.25500000000E-02 0. -1.
<mgrwt>
<rscale>  0 0.49865073E+02</rscale>
<asrwt>0</asrwt>
<pdfrwt beam="1">  1        2 0.39720045E-03 0.49865073E+02</pdfrwt>
<pdfrwt beam="2">  1       -2 0.37042176E-01 0.49865073E+02</pdfrwt>
<totfact> 0.26154038E+05</totfact>
</mgrwt>
</event>
<event>
 4    1  0.2196664E-002  0.5555167E+02  0.7818608E-02  0.1417508E+00
          2   -1    0    0    0  501  0.00000000000E+00  0.00000000000E+00  0.22944233508E+04  0.22944233508E+04  0.25500000000E-02 0. -1.
         -2   -1    0    0  501    0 -0.00000000000E+00 -0.00000000000E+00 -0.33624396468E+00  0.33625363386E+00  0.25500000000E-02 0. -1.
          2    1    1    2    0  502 -0.20050534816E+02 -0.18537810295E+02  0.13569574468E+04  0.13572321786E+04  0.25500000000E-02 0. -1.
         -2    1    1    2  502    0  0.20050534816E+02  0.18537810295E+02  0.93712966007E+03  0.93752742581E+03  0.25500000000E-02 0. -1.
<mgrwt>
<rscale>  0 0.55551673E+02</rscale>
<asrwt>0</asrwt>
<pdfrwt beam="1">  1        2 0.35300048E+00 0.55551673E+02</pdfrwt>
<pdfrwt beam="2">  1       -2 0.51728786E-04 0.55551673E+02</pdfrwt>
<totfact> 0.60854887E+05</totfact>
</mgrwt>
</event>
<event>
 4    1  0.2196664E-002  0.1331905E+03  0.7818608E-02  0.1222797E+00
         -2   -1    0    0  501    0 -0.00000000000E+00  0.00000000000E+00  0.11660344419E+02  0.11660344698E+02  0.25500000000E-02 0. -1.
          2   -1    0    0    0  501  0.00000000000E+00 -0.00000000000E+00 -0.38034296640E+03  0.38034296641E+03  0.25500000000E-02 0. -1.
          2    1    1    2    0  502  0.52486872279E+01  0.62677231064E+02 -0.11993037072E+03  0.13542258984E+03  0.25500000000E-02 0.  1.
         -2    1    1    2  502    0 -0.52486872279E+01 -0.62677231064E+02 -0.24875225126E+03  0.25658072127E+03  0.25500000000E-02 0.  1.
<mgrwt>
<rscale>  0 0.13319054E+03</rscale>
<asrwt>0</asrwt>
<pdfrwt beam="2">  1        2 0.58514293E-01 0.13319054E+03</pdfrwt>
<pdfrwt beam="1">  1       -2 0.17938995E-02 0.13319054E+03</pdfrwt>
<totfact> 0.70106774E+04</totfact>
</mgrwt>
</event>
<event>
 4    1  0.2196664E-002  0.4927168E+02  0.7818608E-02  0.1449310E+00
         -2   -1    0    0  501    0 -0.00000000000E+00  0.00000000000E+00  0.11954694150E+01  0.11954721346E+01  0.25500000000E-02 0.  1.
          2   -1    0    0    0  501  0.00000000000E+00 -0.00000000000E+00 -0.50768666519E+03  0.50768666519E+03  0.25500000000E-02 0.  1.
          2    1    1    2    0  502 -0.20034032259E+02  0.13119981827E+02 -0.19353157640E+03  0.19500760867E+03  0.25500000000E-02 0. -1.
         -2    1    1    2  502    0  0.20034032259E+02 -0.13119981827E+02 -0.31295961938E+03  0.31387452866E+03  0.25500000000E-02 0. -1.
<mgrwt>
<rscale>  0 0.49271678E+02</rscale>
<asrwt>0</asrwt>
<pdfrwt beam="2">  1        2 0.78105469E-01 0.49271678E+02</pdfrwt>
<pdfrwt beam="1">  1       -2 0.18391899E-03 0.49271678E+02</pdfrwt>
<totfact> 0.10463893E+06</totfact>
</mgrwt>
</event>
<event>
 4    1  0.2196664E-002  0.4979007E+02  0.7818608E-02  0.1446477E+00
          2   -1    0    0    0  501  0.00000000000E+00  0.00000000000E+00  0.15284926667E+03  0.15284926669E+03  0.25500000000E-02 0.  1.
         -2   -1    0    0  501    0 -0.00000000000E+00 -0.00000000000E+00 -0.40547315849E+01  0.40547323868E+01  0.25500000000E-02 0.  1.
          2    1    1    2    0  502 -0.24168682870E+02  0.49620897240E+01  0.63938313208E+02  0.68533608313E+02  0.25500000000E-02 0. -1.
         -2    1    1    2  502    0  0.24168682870E+02 -0.49620897240E+01  0.84856221875E+02  0.88370390762E+02  0.25500000000E-02 0. -1.
<mgrwt>
<rscale>  0 0.49790072E+02</rscale>
<asrwt>0</asrwt>
<pdfrwt beam="1">  1        2 0.23515269E-01 0.49790072E+02</pdfrwt>
<pdfrwt beam="2">  1       -2 0.62380499E-03 0.49790072E+02</pdfrwt>
<totfact> 0.68263587E+05</totfact>
</mgrwt>
</event>
<event>
 4    1  0.2196664E-002  0.1376932E+03  0.7818608E-02  0.1216467E+00
          2   -1    0    0    0  501  0.00000000000E+00  0.00000000000E+00  0.69886803891E+03  0.69886803892E+03  0.25500000000E-02 0. -1.
         -2   -1    0    0  501    0 -0.00000000000E+00 -0.00000000000E+00 -0.67821865934E+01  0.67821870728E+01  0.25500000000E-02 0. -1.
          2    1    1    2    0  502 -0.18958205354E+02  0.52485534880E+02  0.55267531086E+03  0.55548550311E+03  0.25500000000E-02 0. -1.
         -2    1    1    2  502    0  0.18958205354E+02 -0.52485534880E+02  0.13941054146E+03  0.15016472288E+03  0.25500000000E-02 0. -1.
<mgrwt>
<rscale>  0 0.13769319E+03</rscale>
<asrwt>0</asrwt>
<pdfrwt beam="1">  1        2 0.10751814E+00 0.13769319E+03</pdfrwt>
<pdfrwt beam="2">  1       -2 0.10434135E-02 0.13769319E+03</pdfrwt>
<totfact> 0.78108725E+04</totfact>
</mgrwt>
</event>
<event>
 4    1  0.2196664E-002  0.7688859E+02  0.7818608E-02  0.1338120E+00
         -2   -1    0    0  501    0 -0.00000000000E+00  0.00000000000E+00  0.12698410927E+03  0.12698410930E+03  0.25500000000E-02 0.  1.
          2   -1    0    0    0  501  0.00000000000E+00 -0.00000000000E+00 -0.11638967822E+02  0.11638968101E+02  0.25500000000E-02 0.  1.
          2    1    1    2    0  502  0.27352883714E+02 -0.92131398625E+01  0.11887867484E+02  0.31215118026E+02  0.25500000000E-02 0.  1.
         -2    1    1    2  502    0 -0.27352883714E+02  0.92131398625E+01  0.10345727397E+03  0.10740795937E+03  0.25500000000E-02 0.  1.
<mgrwt>
<rscale>  0 0.76888594E+02</rscale>
<asrwt>0</asrwt>
<pdfrwt beam="2">  1        2 0.17906105E-02 0.76888594E+02</pdfrwt>
<pdfrwt beam="1">  1       -2 0.19536017E-01 0.76888594E+02</pdfrwt>
<totfact> 0.11360636E+05</totfact>
</mgrwt>
</event>
<event>
 4    1  0.2196664E-002  0.7185556E+02  0.7818608E-02  0.1353894E+00
         -2   -1    0    0  501    0 -0.00000000000E+00  0.00000000000E+00  0.47132684013E+00  0.47133373815E+00  0.25500000000E-02 0. -1.
          2   -1    0    0    0  501  0.00000000000E+00 -0.00000000000E+00 -0.27386426382E+04  0.27386426382E+04  0.25500000000E-02 0. -1.
          2    1    1    2    0  502 -0.23617657791E+01  0.34306729754E+02 -0.17657425501E+04  0.17660773717E+04  0.25500000000E-02 0. -1.
         -2    1    1    2  502    0  0.23617657791E+01 -0.34306729754E+02 -0.97242876127E+03  0.97303660023E+03  0.25500000000E-02 0. -1.
<mgrwt>
<rscale>  0 0.71855556E+02</rscale>
<asrwt>0</asrwt>
<pdfrwt beam="2">  1        2 0.42131690E+00 0.71855556E+02</pdfrwt>
<pdfrwt beam="1">  1       -2 0.72514545E-04 0.71855556E+02</pdfrwt>
<totfact> 0.23523385E+05</totfact>
</mgrwt>
</event>
<event>
 4    1  0.2196664E-002  0.4074801E+02  0.7818608E-02  0.1502778E+00
          2   -1    0    0    0  501  0.00000000000E+00  0.00000000000E+00  0.95607223653E+03  0.95607223653E+03  0.25500000000E-02 0. -1.
         -2   -1    0    0  501    0 -0.00000000000E+00 -0.00000000000E+00 -0.43416850760E+00  0.43417599598E+00  0.25500000000E-02 0. -1.
          2    1    1    2    0  502  0.40924609215E+01 -0.19770253965E+02  0.54205661739E+03  0.54243247289E+03  0.25500000000E-02 0.  1.
         -2    1    1    2  502    0 -0.40924609215E+01  0.19770253965E+02  0.41358145063E+03  0.41407393964E+03  0.25500000000E-02 0.  1.
<mgrwt>
<rscale>  0 0.40748008E+02</rscale>
<asrwt>0</asrwt>
<pdfrwt beam="1">  1        2 0.14708728E+00 0.40748008E+02</pdfrwt>
<pdfrwt beam="2">  1       -2 0.66796076E-04 0.40748008E+02</pdfrwt>
<totfact> 0.19018165E+06</totfact>
</mgrwt>
</event>
<event>
 4    1  0.2196664E-002  0.5191778E+02  0.7818608E-02  0.1435264E+00
         -2   -1    0    0  501    0 -0.00000000000E+00  0.00000000000E+00  0.26915031437E+02  0.26915031558E+02  0.25500000000E-02 0.  1.
          2   -1    0    0    0  501  0.00000000000E+00 -0.00000000000E+00 -0.25036711001E+02  0.25036711131E+02  0.25500000000E-02 0.  1.
          2    1    1    2    0  502  0.23811047748E+02  0.87066630376E+01 -0.46404978188E+01  0.25774138252E+02  0.25500000000E-02 0. -1.
         -2    1    1    2  502    0 -0.23811047748E+02 -0.87066630376E+01  0.65188182547E+01  0.26177604437E+02  0.25500000000E-02 0. -1.
<mgrwt>
<rscale>  0 0.51917776E+02</rscale>
<asrwt>0</asrwt>
<pdfrwt beam="2">  1        2 0.38518017E-02 0.51917776E+02</pdfrwt>
<pdfrwt beam="1">  1       -2 0.41407741E-02 0.51917776E+02</pdfrwt>
<totfact> 0.41290574E+05</totfact>
</mgrwt>
</event>
<event>
 4    1  0.2196664E-002  0.4946583E+02  0.7818608E-02  0.1448244E+00
         -2   -1    0    0  501    0 -0.00000000000E+00  0.00000000000E+00  0.99494251308E+00  0.99494578085E+00  0.25500000000E-02 0. -1.
          2   -1    0    0    0  501  0.00000000000E+00 -0.00000000000E+00 -0.61482556360E+03  0.61482556361E+03  0.25500000000E-02 0. -1.
          2    1    1    2    0  502  0.86573786371E+01 -0.21595706695E+02 -0.41136605614E+03  0.41202349072E+03  0.25500000000E-02 0. -1.
         -2    1    1    2  502    0 -0.86573786371E+01  0.21595706695E+02 -0.20246456495E+03  0.20379701867E+03  0.25500000000E-02 0. -1.
<mgrwt>
<rscale>  0 0.49465831E+02</rscale>
<asrwt>0</asrwt>
<pdfrwt beam="2">  1        2 0.94588245E-01 0.49465831E+02</pdfrwt>
<pdfrwt beam="1">  1       -2 0.15306882E-03 0.49465831E+02</pdfrwt>
<totfact> 0.10947223E+06</totfact>
</mgrwt>
</event>
<event>
 4    1  0.2196664E-002  0.5077782E+02  0.7818608E-02  0.1441191E+00
          2   -1    0    0    0  501  0.00000000000E+00  0.00000000000E+00  0.10259685658E+02  0.10259685975E+02  0.25500000000E-02 0. -1.
         -2   -1    0    0  501    0 -0.00000000000E+00 -0.00000000000E+00 -0.62828105550E+02  0.62828105602E+02  0.25500000000E-02 0. -1.
          2    1    1    2    0  502  0.20072193798E+02 -0.88704338313E+01 -0.44661861884E+02  0.49762028432E+02  0.25500000000E-02 0.  1.
         -2    1    1    2  502    0 -0.20072193798E+02  0.88704338313E+01 -0.79065580077E+01  0.23325763144E+02  0.25500000000E-02 0.  1.
<mgrwt>
<rscale>  0 0.50777815E+02</rscale>
<asrwt>0</asrwt>
<pdfrwt beam="1">  1        2 0.15784132E-02 0.50777815E+02</pdfrwt>
<pdfrwt beam="2">  1       -2 0.96658622E-02 0.50777815E+02</pdfrwt>
<totfact> 0.37667987E+05</totfact>
</mgrwt>
</event>
<event>
 4    1  0.2196664E-002  0.1274707E+03  0.7818608E-02  0.1231258E+00
          2   -1    0    0    0  501  0.00000000000E+00  0.00000000000E+00  0.32751694272E+03  0.32751694273E+03  0.25500000000E-02 0. -1.
         -2   -1    0    0  501    0 -0.00000000000E+00 -0.00000000000E+00 -0.12402998479E+02  0.12402998741E+02  0.25500000000E-02 0. -1.
          2    1    1    2    0  502  0.38025923928E+02 -0.28624231382E+02  0.27059519144E+03  0.27474911310E+03  0.25500000000E-02 0.  1.
         -2    1    1    2  502    0 -0.38025923928E+02  0.28624231382E+02  0.44518752798E+02  0.65170828366E+02  0.25500000000E-02 0.  1.
<mgrwt>
<rscale>  0 0.12747066E+03</rscale>
<asrwt>0</asrwt>
<pdfrwt beam="1">  1        2 0.50387233E-01 0.12747066E+03</pdfrwt>
<pdfrwt beam="2">  1       -2 0.19081532E-02 0.12747066E+03</pdfrwt>
<totfact> 0.74725702E+04</totfact>
</mgrwt>
</event>
<event>
 4    1  0.2196664E-002  0.5213017E+02  0.7818608E-02  0.1434179E+00
         -2   -1    0    0  501    0 -0.00000000000E+00  0.00000000000E+00  0.11599297978E+01  0.11599326008E+01  0.25500000000E-02 0.  1.
          2   -1    0    0    0  501  0.00000000000E+00 -0.00000000000E+00 -0.58571458809E+03  0.58571458810E+03  0.25500000000E-02 0.  1.
          2    1    1    2    0  502 -0.42716468667E+01  0.24795768378E+02 -0.36889001072E+03  0.36974709886E+03  0.25500000000E-02 0. -1.
         -2    1    1    2  502    0  0.42716468667E+01 -0.24795768378E+02 -0.21566464758E+03  0.21712742184E+03  0.25500000000E-02 0. -1.
<mgrwt>
<rscale>  0 0.52130169E+02</rscale>
<asrwt>0</asrwt>
<pdfrwt beam="2">  1        2 0.90109701E-01 0.52130169E+02</pdfrwt>
<pdfrwt beam="1">  1       -2 0.17845142E-03 0.52130169E+02</pdfrwt>
<totfact> 0.94885717E+05</totfact>
</mgrwt>
</event>
<event>
 4    1  0.2196664E-002  0.4546078E+02  0.7818608E-02  0.1471485E+00
          2   -1    0    0    0  501  0.00000000000E+00  0.00000000000E+00  0.57766352523E+02  0.57766352580E+02  0.25500000000E-02 0.  1.
         -2   -1    0    0  501    0 -0.00000000000E+00 -0.00000000000E+00 -0.89441465621E+01  0.89441469257E+01  0.25500000000E-02 0.  1.
          2    1    1    2    0  502 -0.16424652484E+02 -0.15589514262E+02  0.21524863866E+02  0.31242950166E+02  0.25500000000E-02 0. -1.
         -2    1    1    2  502    0  0.16424652484E+02  0.15589514262E+02  0.27297342095E+02  0.35467549339E+02  0.25500000000E-02 0. -1.
<mgrwt>
<rscale>  0 0.45460785E+02</rscale>
<asrwt>0</asrwt>
<pdfrwt beam="1">  1        2 0.88871313E-02 0.45460785E+02</pdfrwt>
<pdfrwt beam="2">  1       -2 0.13760226E-02 0.45460785E+02</pdfrwt>
<totfact> 0.67236743E+05</totfact>
</mgrwt>
</event>
<event>
 4    1  0.2196664E-002  0.5429380E+02  0.7818608E-02  0.1423468E+00
         -2   -1    0    0  501    0 -0.00000000000E+00  0.00000000000E+00  0.86324145165E+00  0.86324521797E+00  0.25500000000E-02 0. -1.
          2   -1    0    0    0  501  0.00000000000E+00 -0.00000000000E+00 -0.85370399107E+03  0.85370399107E+03  0.25500000000E-02 0. -1.
          2    1    1    2    0  502 -0.12730377182E+02 -0.23925396076E+02 -0.45114318451E+03  0.45195648023E+03  0.25500000000E-02 0. -1.
         -2    1    1    2  502    0  0.12730377182E+02  0.23925396076E+02 -0.40169756511E+03  0.40261075607E+03  0.25500000000E-02 0. -1.
<mgrwt>
<rscale>  0 0.54293804E+02</rscale>
<asrwt>0</asrwt>
<pdfrwt beam="2">  1        2 0.13133840E+00 0.54293804E+02</pdfrwt>
<pdfrwt beam="1">  1       -2 0.13280735E-03 0.54293804E+02</pdfrwt>
<totfact> 0.93024410E+05</totfact>
</mgrwt>
</event>
<event>
 4    1  0.2196664E-002  0.4335853E+02  0.7818608E-02  0.1484857E+00
         -2   -1    0    0  501    0 -0.00000000000E+00  0.00000000000E+00  0.22158859188E+01  0.22158873860E+01  0.25500000000E-02 0. -1.
          2   -1    0    0    0  501  0.00000000000E+00 -0.00000000000E+00 -0.21210041353E+03  0.21210041355E+03  0.25500000000E-02 0. -1.
          2    1    1    2    0  502  0.19967683156E+02  0.54036538656E+01 -0.13700732679E+03  0.13856015100E+03  0.25500000000E-02 0.  1.
         -2    1    1    2  502    0 -0.19967683156E+02 -0.54036538656E+01 -0.72877200822E+02  0.75756149928E+02  0.25500000000E-02 0.  1.
<mgrwt>
<rscale>  0 0.43358528E+02</rscale>
<asrwt>0</asrwt>
<pdfrwt beam="2">  1        2 0.32630817E-01 0.43358528E+02</pdfrwt>
<pdfrwt beam="1">  1       -2 0.34090581E-03 0.43358528E+02</pdfrwt>
<totfact> 0.10689838E+06</totfact>
</mgrwt>
</event>
<event>
 4    1  0.2196664E-002  0.7849672E+02  0.7818608E-02  0.1333372E+00
          2   -1    0    0    0  501  0.00000000000E+00  0.00000000000E+00  0.16185574564E+04  0.16185574564E+04  0.25500000000E-02 0. -1.
         -2   -1    0    0  501    0 -0.00000000000E+00 -0.00000000000E+00 -0.95173091880E+00  0.95173433493E+00  0.25500000000E-02 0. -1.
          2    1    1    2    0  502  0.26079729069E+02 -0.26937028843E+02  0.10482338988E+04  0.10489042199E+04  0.25500000000E-02 0.  1.
         -2    1    1    2  502    0 -0.26079729069E+02  0.26937028843E+02  0.56937182661E+03  0.57060497082E+03  0.25500000000E-02 0.  1.
<mgrwt>
<rscale>  0 0.78496725E+02</rscale>
<asrwt>0</asrwt>
<pdfrwt beam="1">  1        2 0.24900660E+00 0.78496725E+02</pdfrwt>
<pdfrwt beam="2">  1       -2 0.14642172E-03 0.78496725E+02</pdfrwt>
<totfact> 0.33779757E+05</totfact>
</mgrwt>
</event>
<event>
 4    1  0.2196664E-002  0.6633430E+02  0.7818608E-02  0.1373022E+00
         -2   -1    0    0  501    0 -0.00000000000E+00  0.00000000000E+00  0.47159294654E+01  0.47159301548E+01  0.25500000000E-02 0.  1.
          2   -1    0    0    0  501  0.00000000000E+00 -0.00000000000E+00 -0.23326466158E+03  0.23326466159E+03  0.25500000000E-02 0.  1.
          2    1    1    2    0  502  0.22762511052E+02 -0.24095519234E+02 -0.11013102567E+03  0.11501116806E+03  0.25500000000E-02 0.  1.
         -2    1    1    2  502    0 -0.22762511052E+02  0.24095519234E+02 -0.11841770644E+03  0.12296942368E+03  0.25500000000E-02 0.  1.
<mgrwt>
<rscale>  0 0.66334298E+02</rscale>
<asrwt>0</asrwt>
<pdfrwt beam="2">  1        2 0.35886862E-01 0.66334298E+02</pdfrwt>
<pdfrwt beam="1">  1       -2 0.72552785E-03 0.66334298E+02</pdfrwt>
<totfact> 0.37800878E+05</totfact>
</mgrwt>
</event>
<event>
 4    1  0.2196664E-002  0.5056530E+02  0.7818608E-02  0.1442316E+00
         -2   -1    0    0  501    0 -0.00000000000E+00  0.00000000000E+00  0.65972400012E+00  0.65972892830E+00  0.25500000000E-02 0. -1.
          2   -1    0    0    0  501  0.00000000000E+00 -0.00000000000E+00 -0.96890535524E+03  0.96890535524E+03  0.25500000000E-02 0. -1.
          2    1    1    2    0  502 -0.16008333193E+01  0.23069804346E+02 -0.28817283951E+03  0.28909922860E+03  0.25500000000E-02 0.  1.
         -2    1    1    2  502    0  0.16008333193E+01 -0.23069804346E+02 -0.68007279172E+03  0.68046585556E+03  0.25500000000E-02 0.  1.
<mgrwt>
<rscale>  0 0.50565305E+02</rscale>
<asrwt>0</asrwt>
<pdfrwt beam="2">  1        2 0.14906122E+00 0.50565305E+02</pdfrwt>
<pdfrwt beam="1">  1       -2 0.10149715E-03 0.50565305E+02</pdfrwt>
<totfact> 0.11241833E+06</totfact>
</mgrwt>
</event>
<event>
 4    1  0.2196664E-002  0.4176766E+02  0.7818608E-02  0.1495592E+00
          2   -1    0    0    0  501  0.00000000000E+00  0.00000000000E+00  0.14888933754E+02  0.14888933973E+02  0.25500000000E-02 0. -1.
         -2   -1    0    0  501    0 -0.00000000000E+00 -0.00000000000E+00 -0.29292512470E+02  0.29292512581E+02  0.25500000000E-02 0. -1.
          2    1    1    2    0  502  0.59093494549E+01 -0.19880839445E+02 -0.97855051332E+01  0.22933039599E+02  0.25500000000E-02 0. -1.
         -2    1    1    2  502    0 -0.59093494549E+01  0.19880839445E+02 -0.46180735828E+01  0.21248406955E+02  0.25500000000E-02 0. -1.
<mgrwt>
<rscale>  0 0.41767657E+02</rscale>
<asrwt>0</asrwt>
<pdfrwt beam="1">  1        2 0.22906052E-02 0.41767657E+02</pdfrwt>
<pdfrwt beam="2">  1       -2 0.45065404E-02 0.41767657E+02</pdfrwt>
<totfact> 0.67797621E+05</totfact>
</mgrwt>
</event>
<event>
 4    1  0.2196664E-002  0.4973779E+02  0.7818608E-02  0.1446761E+00
          2   -1    0    0    0  501  0.00000000000E+00  0.00000000000E+00  0.17279245832E+04  0.17279245832E+04  0.25500000000E-02 0.  1.
         -2   -1    0    0  501    0 -0.00000000000E+00 -0.00000000000E+00 -0.35791732534E+00  0.35792640903E+00  0.25500000000E-02 0.  1.
          2    1    1    2    0  502 -0.22232785419E+02 -0.10865093450E+02  0.94970960907E+03  0.95003194082E+03  0.25500000000E-02 0. -1.
         -2    1    1    2  502    0  0.22232785419E+02  0.10865093450E+02  0.77785705679E+03  0.77825056878E+03  0.25500000000E-02 0. -1.
<mgrwt>
<rscale>  0 0.49737792E+02</rscale>
<asrwt>0</asrwt>
<pdfrwt beam="1">  1        2 0.26583170E+00 0.49737792E+02</pdfrwt>
<pdfrwt beam="2">  1       -2 0.55065493E-04 0.49737792E+02</pdfrwt>
<totfact> 0.10388371E+06</totfact>
</mgrwt>
</event>
<event>
 4    1  0.2196664E-002  0.7554146E+02  0.7818608E-02  0.1342202E+00
         -2   -1    0    0  501    0 -0.00000000000E+00  0.00000000000E+00  0.58915378293E+01  0.58915383812E+01  0.25500000000E-02 0.  1.
          2   -1    0    0    0  501  0.00000000000E+00 -0.00000000000E+00 -0.24214866555E+03  0.24214866556E+03  0.25500000000E-02 0.  1.
          2    1    1    2    0  502 -0.28870077056E+02 -0.18292648380E+02 -0.17092305448E+03  0.17430660599E+03  0.25500000000E-02 0. -1.
         -2    1    1    2  502    0  0.28870077056E+02  0.18292648380E+02 -0.65334073241E+02  0.73733597950E+02  0.25500000000E-02 0. -1.
<mgrwt>
<rscale>  0 0.75541461E+02</rscale>
<asrwt>0</asrwt>
<pdfrwt beam="2">  1        2 0.37253633E-01 0.75541461E+02</pdfrwt>
<pdfrwt beam="1">  1       -2 0.90639067E-03 0.75541461E+02</pdfrwt>
<totfact> 0.27313883E+05</totfact>
</mgrwt>
</event>
<event>
 4    1  0.2196664E-002  0.4069416E+02  0.7818608E-02  0.1503164E+00
         -2   -1    0    0  501    0 -0.00000000000E+00  0.00000000000E+00  0.14760487683E+01  0.14760509710E+01  0.25500000000E-02 0.  1.
          2   -1    0    0    0  501  0.00000000000E+00 -0.00000000000E+00 -0.28048083131E+03  0.28048083132E+03  0.25500000000E-02 0.  1.
          2    1    1    2    0  502 -0.19828226279E+02  0.28837981894E+01 -0.11497755832E+03  0.11671038417E+03  0.25500000000E-02 0. -1.
         -2    1    1    2  502    0  0.19828226279E+02 -0.28837981894E+01 -0.16402722422E+03  0.16524649812E+03  0.25500000000E-02 0. -1.
<mgrwt>
<rscale>  0 0.40694162E+02</rscale>
<asrwt>0</asrwt>
<pdfrwt beam="2">  1        2 0.43150855E-01 0.40694162E+02</pdfrwt>
<pdfrwt beam="1">  1       -2 0.22708482E-03 0.40694162E+02</pdfrwt>
<totfact> 0.13713099E+06</totfact>
</mgrwt>
</event>
<event>
 4    1  0.2196664E-002  0.5601201E+02  0.7818608E-02  0.1415373E+00
          2   -1    0    0    0  501  0.00000000000E+00  0.00000000000E+00  0.18502582035E+02  0.18502582211E+02  0.25500000000E-02 0. -1.
         -2   -1    0    0  501    0 -0.00000000000E+00 -0.00000000000E+00 -0.42390643733E+02  0.42390643809E+02  0.25500000000E-02 0. -1.
          2    1    1    2    0  502 -0.21473224071E+02  0.16607850779E+02 -0.44579991221E+01  0.27509885899E+02  0.25500000000E-02 0.  1.
         -2    1    1    2  502    0  0.21473224071E+02 -0.16607850779E+02 -0.19430062575E+02  0.33383340122E+02  0.25500000000E-02 0.  1.
<mgrwt>
<rscale>  0 0.56012012E+02</rscale>
<asrwt>0</asrwt>
<pdfrwt beam="1">  1        2 0.28465511E-02 0.56012012E+02</pdfrwt>
<pdfrwt beam="2">  1       -2 0.65216375E-02 0.56012012E+02</pdfrwt>
<totfact> 0.31968145E+05</totfact>
</mgrwt>
</event>
<event>
 4    1  0.2196664E-002  0.5905962E+02  0.7818608E-02  0.1401821E+00
          2   -1    0    0    0  501  0.00000000000E+00  0.00000000000E+00  0.79837084778E+03  0.79837084778E+03  0.25500000000E-02 0. -1.
         -2   -1    0    0  501    0 -0.00000000000E+00 -0.00000000000E+00 -0.10922348304E+01  0.10922378071E+01  0.25500000000E-02 0. -1.
          2    1    1    2    0  502  0.86382220822E+01 -0.19311456776E+02  0.67752442307E+03  0.67785462682E+03  0.25500000000E-02 0. -1.
         -2    1    1    2  502    0 -0.86382220822E+01  0.19311456776E+02  0.11975418988E+03  0.12160845877E+03  0.25500000000E-02 0. -1.
<mgrwt>
<rscale>  0 0.59059619E+02</rscale>
<asrwt>0</asrwt>
<pdfrwt beam="1">  1        2 0.12282582E+00 0.59059619E+02</pdfrwt>
<pdfrwt beam="2">  1       -2 0.16803699E-03 0.59059619E+02</pdfrwt>
<totfact> 0.74582649E+05</totfact>
</mgrwt>
</event>
<event>
 4    1  0.2196664E-002  0.4263644E+02  0.7818608E-02  0.1489660E+00
         -2   -1    0    0  501    0 -0.00000000000E+00  0.00000000000E+00  0.23492214796E+00  0.23493598725E+00  0.25500000000E-02 0. -1.
          2   -1    0    0    0  501  0.00000000000E+00 -0.00000000000E+00 -0.19344834914E+04  0.19344834914E+04  0.25500000000E-02 0. -1.
          2    1    1    2    0  502  0.11187552485E+02  0.17699989708E+02 -0.11487202634E+04  0.11489110908E+04  0.25500000000E-02 0. -1.
         -2    1    1    2  502    0 -0.11187552485E+02 -0.17699989708E+02 -0.78552830581E+03  0.78580733656E+03  0.25500000000E-02 0. -1.
<mgrwt>
<rscale>  0 0.42636435E+02</rscale>
<asrwt>0</asrwt>
<pdfrwt beam="2">  1        2 0.29760009E+00 0.42636435E+02</pdfrwt>
<pdfrwt beam="1">  1       -2 0.36144483E-04 0.42636435E+02</pdfrwt>
<totfact> 0.14045840E+06</totfact>
</mgrwt>
</event>
<event>
 4    1  0.2196664E-002  0.5546003E+02  0.7818608E-02  0.1417936E+00
         -2   -1    0    0  501    0 -0.00000000000E+00  0.00000000000E+00  0.21894057225E+02  0.21894057373E+02  0.25500000000E-02 0.  1.
          2   -1    0    0    0  501  0.00000000000E+00 -0.00000000000E+00 -0.35121568469E+02  0.35121568562E+02  0.25500000000E-02 0.  1.
          2    1    1    2    0  502  0.46286696743E+01 -0.27187606020E+02 -0.36407334434E+01  0.27818077765E+02  0.25500000000E-02 0. -1.
         -2    1    1    2  502    0 -0.46286696743E+01  0.27187606020E+02 -0.95867778014E+01  0.29197548170E+02  0.25500000000E-02 0. -1.
<mgrwt>
<rscale>  0 0.55460027E+02</rscale>
<asrwt>0</asrwt>
<pdfrwt beam="2">  1        2 0.54033183E-02 0.55460027E+02</pdfrwt>
<pdfrwt beam="1">  1       -2 0.33683165E-02 0.55460027E+02</pdfrwt>
<totfact> 0.36696935E+05</totfact>
</mgrwt>
</event>
<event>
 4    1  0.2196664E-002  0.4068947E+02  0.7818608E-02  0.1503198E+00
          2   -1    0    0    0  501  0.00000000000E+00  0.00000000000E+00  0.23948784825E+02  0.23948784960E+02  0.25500000000E-02 0. -1.
         -2   -1    0    0  501    0 -0.00000000000E+00 -0.00000000000E+00 -0.17283056316E+02  0.17283056504E+02  0.25500000000E-02 0. -1.
          2    1    1    2    0  502 -0.12370207556E+01 -0.20298317924E+02  0.39377007240E+01  0.20713701369E+02  0.25500000000E-02 0. -1.
         -2    1    1    2  502    0  0.12370207556E+01  0.20298317924E+02  0.27280277849E+01  0.20518140096E+02  0.25500000000E-02 0. -1.
<mgrwt>
<rscale>  0 0.40689468E+02</rscale>
<asrwt>0</asrwt>
<pdfrwt beam="1">  1        2 0.36844285E-02 0.40689468E+02</pdfrwt>
<pdfrwt beam="2">  1       -2 0.26589318E-02 0.40689468E+02</pdfrwt>
<totfact> 0.77294444E+05</totfact>
</mgrwt>
</event>
<event>
 4    1  0.2196664E-002  0.1147740E+03  0.7818608E-02  0.1251976E+00
         -2   -1    0    0  501    0 -0.00000000000E+00  0.00000000000E+00  0.14798182288E+03  0.14798182290E+03  0.25500000000E-02 0.  1.
          2   -1    0    0    0  501  0.00000000000E+00 -0.00000000000E+00 -0.22254556258E+02  0.22254556404E+02  0.25500000000E-02 0.  1.
          2    1    1    2    0  502  0.19433119260E+02  0.33398460942E+02 -0.67428308104E-01  0.38640754012E+02  0.25500000000E-02 0. -1.
         -2    1    1    2  502    0 -0.19433119260E+02 -0.33398460942E+02  0.12579469493E+03  0.13159562530E+03  0.25500000000E-02 0. -1.
<mgrwt>
<rscale>  0 0.11477404E+03</rscale>
<asrwt>0</asrwt>
<pdfrwt beam="2">  1        2 0.34237780E-02 0.11477404E+03</pdfrwt>
<pdfrwt beam="1">  1       -2 0.22766433E-01 0.11477404E+03</pdfrwt>
<totfact> 0.39207906E+04</totfact>
</mgrwt>
</event>
<event>
 4    1  0.2196664E-002  0.4248927E+02  0.7818608E-02  0.1490653E+00
          2   -1    0    0    0  501  0.00000000000E+00  0.00000000000E+00  0.50763315573E+03  0.50763315574E+03  0.25500000000E-02 0. -1.
         -2   -1    0    0  501    0 -0.00000000000E+00 -0.00000000000E+00 -0.88909399047E+00  0.88909764727E+00  0.25500000000E-02 0. -1.
          2    1    1    2    0  502  0.20575512005E+01 -0.20898969924E+02  0.21489814814E+03  0.21592177875E+03  0.25500000000E-02 0.  1.
         -2    1    1    2  502    0 -0.20575512005E+01  0.20898969924E+02  0.29184591360E+03  0.29260047463E+03  0.25500000000E-02 0.  1.
<mgrwt>
<rscale>  0 0.42489270E+02</rscale>
<asrwt>0</asrwt>
<pdfrwt beam="1">  1        2 0.78097506E-01 0.42489270E+02</pdfrwt>
<pdfrwt beam="2">  1       -2 0.13678380E-03 0.42489270E+02</pdfrwt>
<totfact> 0.15033786E+06</totfact>
</mgrwt>
</event>
<event>
 4    1  0.2196664E-002  0.4739343E+02  0.7818608E-02  0.1459930E+00
         -2   -1    0    0  501    0 -0.00000000000E+00  0.00000000000E+00  0.27980295884E+02  0.27980296000E+02  0.25500000000E-02 0. -1.
          2   -1    0    0    0  501  0.00000000000E+00 -0.00000000000E+00 -0.20068918868E+02  0.20068919030E+02  0.25500000000E-02 0. -1.
          2    1    1    2    0  502  0.14148638346E+02 -0.14915125517E+02  0.15903892663E+02  0.25991897671E+02  0.25500000000E-02 0.  1.
         -2    1    1    2  502    0 -0.14148638346E+02  0.14915125517E+02 -0.79925156467E+01  0.22057317359E+02  0.25500000000E-02 0.  1.
<mgrwt>
<rscale>  0 0.47393430E+02</rscale>
<asrwt>0</asrwt>
<pdfrwt beam="2">  1        2 0.30875260E-02 0.47393430E+02</pdfrwt>
<pdfrwt beam="1">  1       -2 0.43046609E-02 0.47393430E+02</pdfrwt>
<totfact> 0.50778348E+05</totfact>
</mgrwt>
</event>
<event>
 4    1  0.2196664E-002  0.7009634E+02  0.7818608E-02  0.1359766E+00
         -2   -1    0    0  501    0 -0.00000000000E+00  0.00000000000E+00  0.31844707494E+01  0.31844717704E+01  0.25500000000E-02 0. -1.
          2   -1    0    0    0  501  0.00000000000E+00 -0.00000000000E+00 -0.38573888111E+03  0.38573888112E+03  0.25500000000E-02 0. -1.
          2    1    1    2    0  502  0.23008220042E+02  0.26017023700E+02 -0.21736693370E+03  0.22012416402E+03  0.25500000000E-02 0.  1.
         -2    1    1    2  502    0 -0.23008220042E+02 -0.26017023700E+02 -0.16518747666E+03  0.16879918887E+03  0.25500000000E-02 0.  1.
<mgrwt>
<rscale>  0 0.70096345E+02</rscale>
<asrwt>0</asrwt>
<pdfrwt beam="2">  1        2 0.59344406E-01 0.70096345E+02</pdfrwt>
<pdfrwt beam="1">  1       -2 0.48991896E-03 0.70096345E+02</pdfrwt>
<totfact> 0.39223871E+05</totfact>
</mgrwt>
</event>
<event>
 4    1  0.2196664E-002  0.1087918E+03  0.7818608E-02  0.1262824E+00
          2   -1    0    0    0  501  0.00000000000E+00  0.00000000000E+00  0.27577718498E+02  0.27577718616E+02  0.25500000000E-02 0. -1.
         -2   -1    0    0  501    0 -0.00000000000E+00 -0.00000000000E+00 -0.10729370237E+03  0.10729370240E+03  0.25500000000E-02 0. -1.
          2    1    1    2    0  502 -0.33981257427E+02 -0.35123238164E+02 -0.69470123809E+02  0.84938011656E+02  0.25500000000E-02 0. -1.
         -2    1    1    2  502    0  0.33981257427E+02  0.35123238164E+02 -0.10245860061E+02  0.49933409360E+02  0.25500000000E-02 0. -1.
<mgrwt>
<rscale>  0 0.10879183E+03</rscale>
<asrwt>0</asrwt>
<pdfrwt beam="1">  1        2 0.42427260E-02 0.10879183E+03</pdfrwt>
<pdfrwt beam="2">  1       -2 0.16506723E-01 0.10879183E+03</pdfrwt>
<totfact> 0.50306685E+04</totfact>
</mgrwt>
</event>
<event>
 4    1  0.2196664E-002  0.4553436E+02  0.7818608E-02  0.1471033E+00
          2   -1    0    0    0  501  0.00000000000E+00  0.00000000000E+00  0.71566789710E+02  0.71566789755E+02  0.25500000000E-02 0.  1.
         -2   -1    0    0  501    0 -0.00000000000E+00 -0.00000000000E+00 -0.72428082349E+01  0.72428086838E+01  0.25500000000E-02 0.  1.
          2    1    1    2    0  502 -0.23058423006E+01  0.21495172377E+02  0.44520381526E+02  0.49491653053E+02  0.25500000000E-02 0. -1.
         -2    1    1    2  502    0  0.23058423006E+01 -0.21495172377E+02  0.19803599949E+02  0.29317945386E+02  0.25500000000E-02 0. -1.
<mgrwt>
<rscale>  0 0.45534363E+02</rscale>
<asrwt>0</asrwt>
<pdfrwt beam="1">  1        2 0.11010275E-01 0.45534363E+02</pdfrwt>
<pdfrwt beam="2">  1       -2 0.11142782E-02 0.45534363E+02</pdfrwt>
<totfact> 0.70000575E+05</totfact>
</mgrwt>
</event>
<event>
 4    1  0.2196664E-002  0.5887020E+02  0.7818608E-02  0.1402635E+00
         -2   -1    0    0  501    0 -0.00000000000E+00  0.00000000000E+00  0.22925534335E+02  0.22925534477E+02  0.25500000000E-02 0. -1.
          2   -1    0    0    0  501  0.00000000000E+00 -0.00000000000E+00 -0.37793014896E+02  0.37793014982E+02  0.25500000000E-02 0. -1.
          2    1    1    2    0  502 -0.25734175284E+02  0.13366676379E+02 -0.22244962882E+01  0.29083744690E+02  0.25500000000E-02 0.  1.
         -2    1    1    2  502    0  0.25734175284E+02 -0.13366676379E+02 -0.12642984273E+02  0.31634804769E+02  0.25500000000E-02 0.  1.
<mgrwt>
<rscale>  0 0.58870198E+02</rscale>
<asrwt>0</asrwt>
<pdfrwt beam="2">  1        2 0.58143100E-02 0.58870198E+02</pdfrwt>
<pdfrwt beam="1">  1       -2 0.35270053E-02 0.58870198E+02</pdfrwt>
<totfact> 0.31735917E+05</totfact>
</mgrwt>
</event>
<event>
 4    1  0.2196664E-002  0.5611871E+02  0.7818608E-02  0.1414881E+00
         -2   -1    0    0  501    0 -0.00000000000E+00  0.00000000000E+00  0.12090935584E+02  0.12090935853E+02  0.25500000000E-02 0.  1.
          2   -1    0    0    0  501  0.00000000000E+00 -0.00000000000E+00 -0.65117168459E+02  0.65117168509E+02  0.25500000000E-02 0.  1.
          2    1    1    2    0  502 -0.28058833714E+02  0.13879258227E+00 -0.26651261294E+02  0.38698929544E+02  0.25500000000E-02 0.  1.
         -2    1    1    2  502    0  0.28058833714E+02 -0.13879258227E+00 -0.26374971581E+02  0.38509174818E+02  0.25500000000E-02 0.  1.
<mgrwt>
<rscale>  0 0.56118714E+02</rscale>
<asrwt>0</asrwt>
<pdfrwt beam="2">  1        2 0.10018026E-01 0.56118714E+02</pdfrwt>
<pdfrwt beam="1">  1       -2 0.18601440E-02 0.56118714E+02</pdfrwt>
<totfact> 0.40175982E+05</totfact>
</mgrwt>
</event>
<event>
 4    1  0.2196664E-002  0.4298845E+02  0.7818608E-02  0.1487305E+00
          2   -1    0    0    0  501  0.00000000000E+00  0.00000000000E+00  0.44268760229E+03  0.44268760230E+03  0.25500000000E-02 0. -1.
         -2   -1    0    0  501    0 -0.00000000000E+00 -0.00000000000E+00 -0.10436275000E+01  0.10436306154E+01  0.25500000000E-02 0. -1.
          2    1    1    2    0  502 -0.88455089552E+01  0.19363929883E+02  0.19020718864E+03  0.19139482601E+03  0.25500000000E-02 0.  1.
         -2    1    1    2  502    0  0.88455089552E+01 -0.19363929883E+02  0.25143678616E+03  0.25233640690E+03  0.25500000000E-02 0.  1.
<mgrwt>
<rscale>  0 0.42988447E+02</rscale>
<asrwt>0</asrwt>
<pdfrwt beam="1">  1        2 0.68105714E-01 0.42988447E+02</pdfrwt>
<pdfrwt beam="2">  1       -2 0.16055848E-03 0.42988447E+02</pdfrwt>
<totfact> 0.14000217E+06</totfact>
</mgrwt>
</event>
<event>
 4    1  0.2196664E-002  0.4828443E+02  0.7818608E-02  0.1454821E+00
          2   -1    0    0    0  501  0.00000000000E+00  0.00000000000E+00  0.46574318168E+02  0.46574318238E+02  0.25500000000E-02 0. -1.
         -2   -1    0    0  501    0 -0.00000000000E+00 -0.00000000000E+00 -0.12514331657E+02  0.12514331917E+02  0.25500000000E-02 0. -1.
          2    1    1    2    0  502 -0.19980985825E+02  0.11813998820E+02  0.25150842251E+02  0.34225359532E+02  0.25500000000E-02 0. -1.
         -2    1    1    2  502    0  0.19980985825E+02 -0.11813998820E+02  0.89091442599E+01  0.24863290623E+02  0.25500000000E-02 0. -1.
<mgrwt>
<rscale>  0 0.48284427E+02</rscale>
<asrwt>0</asrwt>
<pdfrwt beam="1">  1        2 0.71652799E-02 0.48284427E+02</pdfrwt>
<pdfrwt beam="2">  1       -2 0.19252818E-02 0.48284427E+02</pdfrwt>
<totfact> 0.55374617E+05</totfact>
</mgrwt>
</event>
<event>
 4    1  0.2196664E-002  0.4977854E+02  0.7818608E-02  0.1446540E+00
         -2   -1    0    0  501    0 -0.00000000000E+00  0.00000000000E+00  0.32552376808E+02  0.32552376908E+02  0.25500000000E-02 0. -1.
          2   -1    0    0    0  501  0.00000000000E+00 -0.00000000000E+00 -0.19030121580E+02  0.19030121751E+02  0.25500000000E-02 0. -1.
          2    1    1    2    0  502 -0.11983747390E+02  0.17956719783E+02 -0.60741019940E+01  0.22426517973E+02  0.25500000000E-02 0. -1.
         -2    1    1    2  502    0  0.11983747390E+02 -0.17956719783E+02  0.19596357222E+02  0.29155980686E+02  0.25500000000E-02 0. -1.
<mgrwt>
<rscale>  0 0.49778537E+02</rscale>
<asrwt>0</asrwt>
<pdfrwt beam="2">  1        2 0.29277111E-02 0.49778537E+02</pdfrwt>
<pdfrwt beam="1">  1       -2 0.50080579E-02 0.49778537E+02</pdfrwt>
<totfact> 0.44211919E+05</totfact>
</mgrwt>
</event>
<event>
 4    1  0.2196664E-002  0.4601244E+02  0.7818608E-02  0.1468118E+00
         -2   -1    0    0  501    0 -0.00000000000E+00  0.00000000000E+00  0.13940608195E+04  0.13940608195E+04  0.25500000000E-02 0.  1.
          2   -1    0    0    0  501  0.00000000000E+00 -0.00000000000E+00 -0.37966798936E+00  0.37967655267E+00  0.25500000000E-02 0.  1.
          2    1    1    2    0  502 -0.87187277020E+01  0.19920511919E+02  0.92452357485E+03  0.92477926202E+03  0.25500000000E-02 0.  1.
         -2    1    1    2  502    0  0.87187277020E+01 -0.19920511919E+02  0.46915757663E+03  0.46966123400E+03  0.25500000000E-02 0.  1.
<mgrwt>
<rscale>  0 0.46012444E+02</rscale>
<asrwt>0</asrwt>
<pdfrwt beam="2">  1        2 0.58412715E-04 0.46012444E+02</pdfrwt>
<pdfrwt beam="1">  1       -2 0.21446503E+00 0.46012444E+02</pdfrwt>
<totfact> 0.67343226E+04</totfact>
</mgrwt>
</event>
<event>
 4    1  0.2196664E-002  0.5934743E+02  0.7818608E-02  0.1400591E+00
          2   -1    0    0    0  501  0.00000000000E+00  0.00000000000E+00  0.16838798770E+04  0.16838798770E+04  0.25500000000E-02 0. -1.
         -2   -1    0    0  501    0 -0.00000000000E+00 -0.00000000000E+00 -0.52291391297E+00  0.52292013050E+00  0.25500000000E-02 0. -1.
          2    1    1    2    0  502 -0.26385389287E+02  0.31656081462E+01  0.12164073314E+04  0.12166975819E+04  0.25500000000E-02 0. -1.
         -2    1    1    2  502    0  0.26385389287E+02 -0.31656081462E+01  0.46694963172E+03  0.46770521530E+03  0.25500000000E-02 0. -1.
<mgrwt>
<rscale>  0 0.59347433E+02</rscale>
<asrwt>0</asrwt>
<pdfrwt beam="1">  1        2 0.25905886E+00 0.59347433E+02</pdfrwt>
<pdfrwt beam="2">  1       -2 0.80448644E-04 0.59347433E+02</pdfrwt>
<totfact> 0.67735798E+05</totfact>
</mgrwt>
</event>
<event>
 4    1  0.2196664E-002  0.6624576E+02  0.7818608E-02  0.1373346E+00
         -2   -1    0    0  501    0 -0.00000000000E+00  0.00000000000E+00  0.80978999759E+01  0.80979003774E+01  0.25500000000E-02 0.  1.
          2   -1    0    0    0  501  0.00000000000E+00 -0.00000000000E+00 -0.13548268100E+03  0.13548268103E+03  0.25500000000E-02 0.  1.
          2    1    1    2    0  502 -0.25824169320E+02  0.35875749043E+01 -0.10797126417E+03  0.11107453492E+03  0.25500000000E-02 0.  1.
         -2    1    1    2  502    0  0.25824169320E+02 -0.35875749043E+01 -0.19413516857E+02  0.32506046484E+02  0.25500000000E-02 0.  1.
<mgrwt>
<rscale>  0 0.66245762E+02</rscale>
<asrwt>0</asrwt>
<pdfrwt beam="2">  1        2 0.20843488E-01 0.66245762E+02</pdfrwt>
<pdfrwt beam="1">  1       -2 0.12458309E-02 0.66245762E+02</pdfrwt>
<totfact> 0.31655290E+05</totfact>
</mgrwt>
</event>
<event>
 4    1  0.2196664E-002  0.4616934E+02  0.7818608E-02  0.1467171E+00
         -2   -1    0    0  501    0 -0.00000000000E+00  0.00000000000E+00  0.24359183985E+00  0.24360518660E+00  0.25500000000E-02 0. -1.
          2   -1    0    0    0  501  0.00000000000E+00 -0.00000000000E+00 -0.21876241132E+04  0.21876241132E+04  0.25500000000E-02 0. -1.
          2    1    1    2    0  502 -0.16669315860E+02  0.15953026821E+02 -0.10589700263E+04  0.10592213564E+04  0.25500000000E-02 0. -1.
         -2    1    1    2  502    0  0.16669315860E+02 -0.15953026821E+02 -0.11284104950E+04  0.11286463620E+04  0.25500000000E-02 0. -1.
<mgrwt>
<rscale>  0 0.46169340E+02</rscale>
<asrwt>0</asrwt>
<pdfrwt beam="2">  1        2 0.33654182E+00 0.46169340E+02</pdfrwt>
<pdfrwt beam="1">  1       -2 0.37478446E-04 0.46169340E+02</pdfrwt>
<totfact> 0.10252380E+06</totfact>
</mgrwt>
</event>
<event>
 4    1  0.2196664E-002  0.5121964E+02  0.7818608E-02  0.1438872E+00
          2   -1    0    0    0  501  0.00000000000E+00  0.00000000000E+00  0.58069847614E+02  0.58069847670E+02  0.25500000000E-02 0. -1.
         -2   -1    0    0  501    0 -0.00000000000E+00 -0.00000000000E+00 -0.11294379361E+02  0.11294379649E+02  0.25500000000E-02 0. -1.
          2    1    1    2    0  502  0.21997002029E+02 -0.47335348713E+01  0.39951079043E+02  0.45851534040E+02  0.25500000000E-02 0. -1.
         -2    1    1    2  502    0 -0.21997002029E+02  0.47335348713E+01  0.68243892104E+01  0.23512693279E+02  0.25500000000E-02 0. -1.
<mgrwt>
<rscale>  0 0.51219641E+02</rscale>
<asrwt>0</asrwt>
<pdfrwt beam="1">  1        2 0.89338227E-02 0.51219641E+02</pdfrwt>
<pdfrwt beam="2">  1       -2 0.17375969E-02 0.51219641E+02</pdfrwt>
<totfact> 0.49659923E+05</totfact>
</mgrwt>
</event>
<event>
 4    1  0.2196664E-002  0.4384472E+02  0.7818608E-02  0.1481685E+00
          2   -1    0    0    0  501  0.00000000000E+00  0.00000000000E+00  0.10361490104E+03  0.10361490108E+03  0.25500000000E-02 0.  1.
         -2   -1    0    0  501    0 -0.00000000000E+00 -0.00000000000E+00 -0.46382308715E+01  0.46382315725E+01  0.25500000000E-02 0.  1.
          2    1    1    2    0  502 -0.15440199302E+02 -0.14747682512E+02  0.61758099707E+02  0.65344906304E+02  0.25500000000E-02 0. -1.
         -2    1    1    2  502    0  0.15440199302E+02  0.14747682512E+02  0.37218570465E+02  0.42908226343E+02  0.25500000000E-02 0. -1.
<mgrwt>
<rscale>  0 0.43844720E+02</rscale>
<asrwt>0</asrwt>
<pdfrwt beam="1">  1        2 0.15940755E-01 0.43844720E+02</pdfrwt>
<pdfrwt beam="2">  1       -2 0.71357400E-03 0.43844720E+02</pdfrwt>
<totfact> 0.84031698E+05</totfact>
</mgrwt>
</event>
<event>
 4    1  0.2196664E-002  0.4527975E+02  0.7818608E-02  0.1472603E+00
         -2   -1    0    0  501    0 -0.00000000000E+00  0.00000000000E+00  0.39569558662E+00  0.39570380308E+00  0.25500000000E-02 0.  1.
          2   -1    0    0    0  501  0.00000000000E+00 -0.00000000000E+00 -0.12953358457E+04  0.12953358457E+04  0.25500000000E-02 0.  1.
          2    1    1    2    0  502 -0.99429058831E+01 -0.18910005918E+02 -0.86183204527E+03  0.86209681821E+03  0.25500000000E-02 0.  1.
         -2    1    1    2  502    0  0.99429058831E+01  0.18910005918E+02 -0.43310810486E+03  0.43363473131E+03  0.25500000000E-02 0.  1.
<mgrwt>
<rscale>  0 0.45279753E+02</rscale>
<asrwt>0</asrwt>
<pdfrwt beam="2">  1        2 0.19927904E+00 0.45279753E+02</pdfrwt>
<pdfrwt beam="1">  1       -2 0.60877913E-04 0.45279753E+02</pdfrwt>
<totfact> 0.14545824E+06</totfact>
</mgrwt>
</event>
<event>
 4    1  0.2196664E-002  0.1418839E+03  0.7818608E-02  0.1210816E+00
         -2   -1    0    0  501    0 -0.00000000000E+00  0.00000000000E+00  0.14918861600E+02  0.14918861818E+02  0.25500000000E-02 0. -1.
          2   -1    0    0    0  501  0.00000000000E+00 -0.00000000000E+00 -0.33734191783E+03  0.33734191784E+03  0.25500000000E-02 0. -1.
          2    1    1    2    0  502 -0.56929851660E+02  0.33110808489E+02 -0.22668359666E+03  0.23605674456E+03  0.25500000000E-02 0.  1.
         -2    1    1    2  502    0  0.56929851660E+02 -0.33110808489E+02 -0.95739459572E+02  0.11620403510E+03  0.25500000000E-02 0.  1.
<mgrwt>
<rscale>  0 0.14188386E+03</rscale>
<asrwt>0</asrwt>
<pdfrwt beam="2">  1        2 0.51898751E-01 0.14188386E+03</pdfrwt>
<pdfrwt beam="1">  1       -2 0.22952097E-02 0.14188386E+03</pdfrwt>
<totfact> 0.56095994E+04</totfact>
</mgrwt>
</event>
<event>
 4    1  0.2196664E-002  0.6351629E+02  0.7818608E-02  0.1383641E+00
         -2   -1    0    0  501    0 -0.00000000000E+00  0.00000000000E+00  0.88259463149E+01  0.88259466833E+01  0.25500000000E-02 0. -1.
          2   -1    0    0    0  501  0.00000000000E+00 -0.00000000000E+00 -0.11427441695E+03  0.11427441698E+03  0.25500000000E-02 0. -1.
          2    1    1    2    0  502  0.26637919912E+02 -0.92666497420E+01 -0.81018394861E+02  0.85787119587E+02  0.25500000000E-02 0. -1.
         -2    1    1    2  502    0 -0.26637919912E+02  0.92666497420E+01 -0.24430075778E+02  0.37313244079E+02  0.25500000000E-02 0. -1.
<mgrwt>
<rscale>  0 0.63516294E+02</rscale>
<asrwt>0</asrwt>
<pdfrwt beam="2">  1        2 0.17580678E-01 0.63516294E+02</pdfrwt>
<pdfrwt beam="1">  1       -2 0.13578380E-02 0.63516294E+02</pdfrwt>
<totfact> 0.33580312E+05</totfact>
</mgrwt>
</event>
<event>
 4    1  0.2196664E-002  0.6523227E+02  0.7818608E-02  0.1377100E+00
          2   -1    0    0    0  501  0.00000000000E+00  0.00000000000E+00  0.78614816496E+02  0.78614816538E+02  0.25500000000E-02 0. -1.
         -2   -1    0    0  501    0 -0.00000000000E+00 -0.00000000000E+00 -0.13531956033E+02  0.13531956273E+02  0.25500000000E-02 0. -1.
          2    1    1    2    0  502  0.28607692217E+02 -0.12370788370E+02  0.46118208270E+02  0.55662605036E+02  0.25500000000E-02 0. -1.
         -2    1    1    2  502    0 -0.28607692217E+02  0.12370788370E+02  0.18964652193E+02  0.36484167775E+02  0.25500000000E-02 0. -1.
<mgrwt>
<rscale>  0 0.65232270E+02</rscale>
<asrwt>0</asrwt>
<pdfrwt beam="1">  1        2 0.12094587E-01 0.65232270E+02</pdfrwt>
<pdfrwt beam="2">  1       -2 0.20818395E-02 0.65232270E+02</pdfrwt>
<totfact> 0.28313800E+05</totfact>
</mgrwt>
</event>
<event>
 4    1  0.2196664E-002  0.4189502E+02  0.7818608E-02  0.1494712E+00
          2   -1    0    0    0  501  0.00000000000E+00  0.00000000000E+00  0.37170784574E+03  0.37170784575E+03  0.25500000000E-02 0. -1.
         -2   -1    0    0  501    0 -0.00000000000E+00 -0.00000000000E+00 -0.11804908621E+01  0.11804936163E+01  0.25500000000E-02 0. -1.
          2    1    1    2    0  502 -0.63749964369E+01 -0.19942886669E+02  0.17936700633E+03  0.18058483401E+03  0.25500000000E-02 0. -1.
         -2    1    1    2  502    0  0.63749964369E+01  0.19942886669E+02  0.19116034855E+03  0.19230350536E+03  0.25500000000E-02 0. -1.
<mgrwt>
<rscale>  0 0.41895023E+02</rscale>
<asrwt>0</asrwt>
<pdfrwt beam="1">  1        2 0.57185852E-01 0.41895023E+02</pdfrwt>
<pdfrwt beam="2">  1       -2 0.18161410E-03 0.41895023E+02</pdfrwt>
<totfact> 0.14065195E+06</totfact>
</mgrwt>
</event>
<event>
 4    1  0.2196664E-002  0.7358509E+02  0.7818608E-02  0.1348309E+00
         -2   -1    0    0  501    0 -0.00000000000E+00  0.00000000000E+00  0.39732381613E+03  0.39732381614E+03  0.25500000000E-02 0. -1.
          2   -1    0    0    0  501  0.00000000000E+00 -0.00000000000E+00 -0.34070220259E+01  0.34070229802E+01  0.25500000000E-02 0. -1.
          2    1    1    2    0  502  0.27163997166E+02  0.11439435917E+02  0.31688359414E+03  0.31825140326E+03  0.25500000000E-02 0. -1.
         -2    1    1    2  502    0 -0.27163997166E+02 -0.11439435917E+02  0.77033199968E+02  0.82479435861E+02  0.25500000000E-02 0. -1.
<mgrwt>
<rscale>  0 0.73585085E+02</rscale>
<asrwt>0</asrwt>
<pdfrwt beam="2">  1        2 0.52415719E-03 0.73585085E+02</pdfrwt>
<pdfrwt beam="1">  1       -2 0.61126754E-01 0.73585085E+02</pdfrwt>
<totfact> 0.74346100E+04</totfact>
</mgrwt>
</event>
<event>
 4    1  0.2196664E-002  0.5778101E+02  0.7818608E-02  0.1407387E+00
         -2   -1    0    0  501    0 -0.00000000000E+00  0.00000000000E+00  0.19008076918E+01  0.19008094022E+01  0.25500000000E-02 0.  1.
          2   -1    0    0    0  501  0.00000000000E+00 -0.00000000000E+00 -0.43910856905E+03  0.43910856906E+03  0.25500000000E-02 0.  1.
          2    1    1    2    0  502  0.22390704916E+02  0.17674782984E+02 -0.18369464125E+03  0.18589637665E+03  0.25500000000E-02 0.  1.
         -2    1    1    2  502    0 -0.22390704916E+02 -0.17674782984E+02 -0.25351312011E+03  0.25511300181E+03  0.25500000000E-02 0.  1.
<mgrwt>
<rscale>  0 0.57781012E+02</rscale>
<asrwt>0</asrwt>
<pdfrwt beam="2">  1        2 0.67555084E-01 0.57781012E+02</pdfrwt>
<pdfrwt beam="1">  1       -2 0.29243243E-03 0.57781012E+02</pdfrwt>
<totfact> 0.67125367E+05</totfact>
</mgrwt>
</event>
<event>
 4    1  0.2196664E-002  0.5459675E+02  0.7818608E-02  0.1422016E+00
         -2   -1    0    0  501    0 -0.00000000000E+00  0.00000000000E+00  0.45679517532E+02  0.45679517603E+02  0.25500000000E-02 0.  1.
          2   -1    0    0    0  501  0.00000000000E+00 -0.00000000000E+00 -0.16313686555E+02  0.16313686754E+02  0.25500000000E-02 0.  1.
          2    1    1    2    0  502  0.22651829114E+02  0.15228082131E+02  0.14173233972E+02  0.30755168921E+02  0.25500000000E-02 0. -1.
         -2    1    1    2  502    0 -0.22651829114E+02 -0.15228082131E+02  0.15192597005E+02  0.31238035436E+02  0.25500000000E-02 0. -1.
<mgrwt>
<rscale>  0 0.54596752E+02</rscale>
<asrwt>0</asrwt>
<pdfrwt beam="2">  1        2 0.25097980E-02 0.54596752E+02</pdfrwt>
<pdfrwt beam="1">  1       -2 0.70276181E-02 0.54596752E+02</pdfrwt>
<totfact> 0.33541305E+05</totfact>
</mgrwt>
</event>
<event>
 4    1  0.2196664E-002  0.6634218E+02  0.7818608E-02  0.1372993E+00
          2   -1    0    0    0  501  0.00000000000E+00  0.00000000000E+00  0.11830821877E+04  0.11830821877E+04  0.25500000000E-02 0.  1.
         -2   -1    0    0  501    0 -0.00000000000E+00 -0.00000000000E+00 -0.93004452782E+00  0.93004802361E+00  0.25500000000E-02 0.  1.
          2    1    1    2    0  502 -0.16254608290E+02 -0.28887909715E+02  0.61363379031E+03  0.61452839824E+03  0.25500000000E-02 0. -1.
         -2    1    1    2  502    0  0.16254608290E+02  0.28887909715E+02  0.56851835288E+03  0.56948383751E+03  0.25500000000E-02 0. -1.
<mgrwt>
<rscale>  0 0.66342179E+02</rscale>
<asrwt>0</asrwt>
<pdfrwt beam="1">  1        2 0.18201258E+00 0.66342179E+02</pdfrwt>
<pdfrwt beam="2">  1       -2 0.14308409E-03 0.66342179E+02</pdfrwt>
<totfact> 0.56758657E+05</totfact>
</mgrwt>
</event>
<event>
 4    1  0.2196664E-002  0.5687548E+02  0.7818608E-02  0.1411432E+00
         -2   -1    0    0  501    0 -0.00000000000E+00  0.00000000000E+00  0.73073234615E+03  0.73073234615E+03  0.25500000000E-02 0. -1.
          2   -1    0    0    0  501  0.00000000000E+00 -0.00000000000E+00 -0.11067034969E+01  0.11067064347E+01  0.25500000000E-02 0. -1.
          2    1    1    2    0  502 -0.16424760208E+02 -0.22887875109E+02  0.31484899328E+03  0.31610681130E+03  0.25500000000E-02 0. -1.
         -2    1    1    2  502    0  0.16424760208E+02  0.22887875109E+02  0.41477664937E+03  0.41573224129E+03  0.25500000000E-02 0. -1.
<mgrwt>
<rscale>  0 0.56875482E+02</rscale>
<asrwt>0</asrwt>
<pdfrwt beam="2">  1        2 0.17026212E-03 0.56875482E+02</pdfrwt>
<pdfrwt beam="1">  1       -2 0.11242048E+00 0.56875482E+02</pdfrwt>
<totfact> 0.86667967E+04</totfact>
</mgrwt>
</event>
<event>
 4    1  0.2196664E-002  0.4699352E+02  0.7818608E-02  0.1462267E+00
          2   -1    0    0    0  501  0.00000000000E+00  0.00000000000E+00  0.14040988635E+02  0.14040988866E+02  0.25500000000E-02 0. -1.
         -2   -1    0    0  501    0 -0.00000000000E+00 -0.00000000000E+00 -0.39320438214E+02  0.39320438296E+02  0.25500000000E-02 0. -1.
          2    1    1    2    0  502  0.14220151903E+02  0.14940699717E+02  0.13966711870E+00  0.20626602764E+02  0.25500000000E-02 0. -1.
         -2    1    1    2  502    0 -0.14220151903E+02 -0.14940699717E+02 -0.25419116697E+02  0.32734824398E+02  0.25500000000E-02 0. -1.
<mgrwt>
<rscale>  0 0.46993524E+02</rscale>
<asrwt>0</asrwt>
<pdfrwt beam="1">  1        2 0.21601521E-02 0.46993524E+02</pdfrwt>
<pdfrwt beam="2">  1       -2 0.60492982E-02 0.46993524E+02</pdfrwt>
<totfact> 0.49187928E+05</totfact>
</mgrwt>
</event>
<event>
 4    1  0.2196664E-002  0.4464490E+02  0.7818608E-02  0.1476571E+00
         -2   -1    0    0  501    0 -0.00000000000E+00  0.00000000000E+00  0.14129353265E+01  0.14129376276E+01  0.25500000000E-02 0. -1.
          2   -1    0    0    0  501  0.00000000000E+00 -0.00000000000E+00 -0.35266399415E+03  0.35266399416E+03  0.25500000000E-02 0. -1.
          2    1    1    2    0  502 -0.19475410491E+02  0.10533597694E+02 -0.15313244880E+03  0.15472490161E+03  0.25500000000E-02 0.  1.
         -2    1    1    2  502    0  0.19475410491E+02 -0.10533597694E+02 -0.19811861002E+03  0.19935203018E+03  0.25500000000E-02 0.  1.
<mgrwt>
<rscale>  0 0.44644902E+02</rscale>
<asrwt>0</asrwt>
<pdfrwt beam="2">  1        2 0.54255929E-01 0.44644902E+02</pdfrwt>
<pdfrwt beam="1">  1       -2 0.21737512E-03 0.44644902E+02</pdfrwt>
<totfact> 0.11832939E+06</totfact>
</mgrwt>
</event>
<event>
 4    1  0.2196664E-002  0.5439560E+02  0.7818608E-02  0.1422979E+00
         -2   -1    0    0  501    0 -0.00000000000E+00  0.00000000000E+00  0.15245072253E+03  0.15245072255E+03  0.25500000000E-02 0. -1.
          2   -1    0    0    0  501  0.00000000000E+00 -0.00000000000E+00 -0.48521928972E+01  0.48521935673E+01  0.25500000000E-02 0. -1.
          2    1    1    2    0  502  0.20535098458E+02 -0.17738637847E+02  0.68489922320E+02  0.73669661376E+02  0.25500000000E-02 0. -1.
         -2    1    1    2  502    0 -0.20535098458E+02  0.17738637847E+02  0.79108607309E+02  0.83633254739E+02  0.25500000000E-02 0. -1.
<mgrwt>
<rscale>  0 0.54395602E+02</rscale>
<asrwt>0</asrwt>
<pdfrwt beam="2">  1        2 0.74649129E-03 0.54395602E+02</pdfrwt>
<pdfrwt beam="1">  1       -2 0.23453957E-01 0.54395602E+02</pdfrwt>
<totfact> 0.25358572E+05</totfact>
</mgrwt>
</event>
<event>
 4    1  0.2196664E-002  0.6872387E+02  0.7818608E-02  0.1364487E+00
          2   -1    0    0    0  501  0.00000000000E+00  0.00000000000E+00  0.44437430706E+01  0.44437438023E+01  0.25500000000E-02 0.  1.
         -2   -1    0    0  501    0 -0.00000000000E+00 -0.00000000000E+00 -0.26570897519E+03  0.26570897520E+03  0.25500000000E-02 0.  1.
          2    1    1    2    0  502 -0.34056984026E+02 -0.28130380359E+01 -0.14477935057E+03  0.14875769459E+03  0.25500000000E-02 0. -1.
         -2    1    1    2  502    0  0.34056984026E+02  0.28130380359E+01 -0.11648588155E+03  0.12139502441E+03  0.25500000000E-02 0. -1.
<mgrwt>
<rscale>  0 0.68723868E+02</rscale>
<asrwt>0</asrwt>
<pdfrwt beam="1">  1        2 0.68365305E-03 0.68723868E+02</pdfrwt>
<pdfrwt beam="2">  1       -2 0.40878291E-01 0.68723868E+02</pdfrwt>
<totfact> 0.11197696E+05</totfact>
</mgrwt>
</event>
<event>
 4    1  0.2196664E-002  0.5362223E+02  0.7818608E-02  0.1426729E+00
          2   -1    0    0    0  501  0.00000000000E+00  0.00000000000E+00  0.19605618352E+03  0.19605618354E+03  0.25500000000E-02 0.  1.
         -2   -1    0    0  501    0 -0.00000000000E+00 -0.00000000000E+00 -0.36664780078E+01  0.36664788945E+01  0.25500000000E-02 0.  1.
          2    1    1    2    0  502  0.23354325050E+02  0.50136830008E+01  0.50840875066E+02  0.56172556464E+02  0.25500000000E-02 0. -1.
         -2    1    1    2  502    0 -0.23354325050E+02 -0.50136830008E+01  0.14154883045E+03  0.14355010597E+03  0.25500000000E-02 0. -1.
<mgrwt>
<rscale>  0 0.53622226E+02</rscale>
<asrwt>0</asrwt>
<pdfrwt beam="1">  1        2 0.30162495E-01 0.53622226E+02</pdfrwt>
<pdfrwt beam="2">  1       -2 0.56407351E-03 0.53622226E+02</pdfrwt>
<totfact> 0.61336130E+05</totfact>
</mgrwt>
</event>
<event>
 4    1  0.2196664E-002  0.4092866E+02  0.7818608E-02  0.1501487E+00
         -2   -1    0    0  501    0 -0.00000000000E+00  0.00000000000E+00  0.58091865361E+01  0.58091870958E+01  0.25500000000E-02 0. -1.
          2   -1    0    0    0  501  0.00000000000E+00 -0.00000000000E+00 -0.72090791318E+02  0.72090791363E+02  0.25500000000E-02 0. -1.
          2    1    1    2    0  502  0.19378509285E+02  0.65360778588E+01 -0.31739655856E+02  0.37757816360E+02  0.25500000000E-02 0.  1.
         -2    1    1    2  502    0 -0.19378509285E+02 -0.65360778588E+01 -0.34541948926E+02  0.40142162099E+02  0.25500000000E-02 0.  1.
<mgrwt>
<rscale>  0 0.40928664E+02</rscale>
<asrwt>0</asrwt>
<pdfrwt beam="2">  1        2 0.11090890E-01 0.40928664E+02</pdfrwt>
<pdfrwt beam="1">  1       -2 0.89372110E-03 0.40928664E+02</pdfrwt>
<totfact> 0.91513195E+05</totfact>
</mgrwt>
</event>
<event>
 4    1  0.2196664E-002  0.5727260E+02  0.7818608E-02  0.1409647E+00
          2   -1    0    0    0  501  0.00000000000E+00  0.00000000000E+00  0.66979660910E+02  0.66979660959E+02  0.25500000000E-02 0.  1.
         -2   -1    0    0  501    0 -0.00000000000E+00 -0.00000000000E+00 -0.12243085732E+02  0.12243085997E+02  0.25500000000E-02 0.  1.
          2    1    1    2    0  502  0.23529284388E+02  0.58635066676E+01  0.48438788761E+02  0.54169402778E+02  0.25500000000E-02 0. -1.
         -2    1    1    2  502    0 -0.23529284388E+02 -0.58635066676E+01  0.62977864176E+01  0.25053344178E+02  0.25500000000E-02 0. -1.
<mgrwt>
<rscale>  0 0.57272602E+02</rscale>
<asrwt>0</asrwt>
<pdfrwt beam="1">  1        2 0.10304563E-01 0.57272602E+02</pdfrwt>
<pdfrwt beam="2">  1       -2 0.18835517E-02 0.57272602E+02</pdfrwt>
<totfact> 0.38344431E+05</totfact>
</mgrwt>
</event>
<event>
 4    1  0.2196664E-002  0.6822878E+02  0.7818608E-02  0.1366222E+00
         -2   -1    0    0  501    0 -0.00000000000E+00  0.00000000000E+00  0.57434065169E+03  0.57434065169E+03  0.25500000000E-02 0. -1.
          2   -1    0    0    0  501  0.00000000000E+00 -0.00000000000E+00 -0.20263084260E+01  0.20263100305E+01  0.25500000000E-02 0. -1.
          2    1    1    2    0  502  0.32979474739E+02  0.79658595402E+01  0.31625123677E+03  0.31806594511E+03  0.25500000000E-02 0.  1.
         -2    1    1    2  502    0 -0.32979474739E+02 -0.79658595402E+01  0.25606310649E+03  0.25830101661E+03  0.25500000000E-02 0.  1.
<mgrwt>
<rscale>  0 0.68228785E+02</rscale>
<asrwt>0</asrwt>
<pdfrwt beam="2">  1        2 0.31173992E-03 0.68228785E+02</pdfrwt>
<pdfrwt beam="1">  1       -2 0.88360090E-01 0.68228785E+02</pdfrwt>
<totfact> 0.68242939E+04</totfact>
</mgrwt>
</event>
<event>
 4    1  0.2196664E-002  0.4110178E+02  0.7818608E-02  0.1500257E+00
         -2   -1    0    0  501    0 -0.00000000000E+00  0.00000000000E+00  0.20717682706E+01  0.20717698399E+01  0.25500000000E-02 0. -1.
          2   -1    0    0    0  501  0.00000000000E+00 -0.00000000000E+00 -0.20385431916E+03  0.20385431918E+03  0.25500000000E-02 0. -1.
          2    1    1    2    0  502  0.84148662489E+01  0.18726098791E+02 -0.96238798462E+02  0.98404182258E+02  0.25500000000E-02 0.  1.
         -2    1    1    2  502    0 -0.84148662489E+01 -0.18726098791E+02 -0.10554375243E+03  0.10752190676E+03  0.25500000000E-02 0.  1.
<mgrwt>
<rscale>  0 0.41101780E+02</rscale>
<asrwt>0</asrwt>
<pdfrwt beam="2">  1        2 0.31362187E-01 0.41101780E+02</pdfrwt>
<pdfrwt beam="1">  1       -2 0.31873386E-03 0.41101780E+02</pdfrwt>
<totfact> 0.12026718E+06</totfact>
</mgrwt>
</event>
<event>
 4    1  0.2196664E-002  0.4612488E+02  0.7818608E-02  0.1467439E+00
          2   -1    0    0    0  501  0.00000000000E+00  0.00000000000E+00  0.14312097139E+03  0.14312097141E+03  0.25500000000E-02 0.  1.
         -2   -1    0    0  501    0 -0.00000000000E+00 -0.00000000000E+00 -0.37162696353E+01  0.37162705102E+01  0.25500000000E-02 0.  1.
          2    1    1    2    0  502  0.44752714913E+00  0.23054208997E+02  0.68354172213E+02  0.72138683786E+02  0.25500000000E-02 0. -1.
         -2    1    1    2  502    0 -0.44752714913E+00 -0.23054208997E+02  0.71050529541E+02  0.74698558136E+02  0.25500000000E-02 0. -1.
<mgrwt>
<rscale>  0 0.46124882E+02</rscale>
<asrwt>0</asrwt>
<pdfrwt beam="1">  1        2 0.22018609E-01 0.46124882E+02</pdfrwt>
<pdfrwt beam="2">  1       -2 0.57173391E-03 0.46124882E+02</pdfrwt>
<totfact> 0.81026325E+05</totfact>
</mgrwt>
</event>
<event>
 4    1  0.2196664E-002  0.5382112E+02  0.7818608E-02  0.1425758E+00
         -2   -1    0    0  501    0 -0.00000000000E+00  0.00000000000E+00  0.48713281858E+02  0.48713281925E+02  0.25500000000E-02 0.  1.
          2   -1    0    0    0  501  0.00000000000E+00 -0.00000000000E+00 -0.14866133264E+02  0.14866133482E+02  0.25500000000E-02 0.  1.
          2    1    1    2    0  502 -0.19890690868E+02  0.83230177352E+01  0.35944714895E+02  0.41915805405E+02  0.25500000000E-02 0. -1.
         -2    1    1    2  502    0  0.19890690868E+02 -0.83230177352E+01 -0.20975663009E+01  0.21663610002E+02  0.25500000000E-02 0. -1.
<mgrwt>
<rscale>  0 0.53821117E+02</rscale>
<asrwt>0</asrwt>
<pdfrwt beam="2">  1        2 0.22870975E-02 0.53821117E+02</pdfrwt>
<pdfrwt beam="1">  1       -2 0.74943510E-02 0.53821117E+02</pdfrwt>
<totfact> 0.34318108E+05</totfact>
</mgrwt>
</event>
<event>
 4    1  0.2196664E-002  0.5311477E+02  0.7818608E-02  0.1429231E+00
         -2   -1    0    0  501    0 -0.00000000000E+00  0.00000000000E+00  0.11080267487E+01  0.11080296829E+01  0.25500000000E-02 0.  1.
          2   -1    0    0    0  501  0.00000000000E+00 -0.00000000000E+00 -0.63653140976E+03  0.63653140976E+03  0.25500000000E-02 0.  1.
          2    1    1    2    0  502  0.23031030176E+02 -0.92228630963E+01 -0.43147719627E+03  0.43218984308E+03  0.25500000000E-02 0.  1.
         -2    1    1    2  502    0 -0.23031030176E+02  0.92228630963E+01 -0.20394618674E+03  0.20544959637E+03  0.25500000000E-02 0.  1.
<mgrwt>
<rscale>  0 0.53114773E+02</rscale>
<asrwt>0</asrwt>
<pdfrwt beam="2">  1        2 0.97927617E-01 0.53114773E+02</pdfrwt>
<pdfrwt beam="1">  1       -2 0.17046639E-03 0.53114773E+02</pdfrwt>
<totfact> 0.92603706E+05</totfact>
</mgrwt>
</event>
<event>
 4    1  0.2196664E-002  0.5567190E+02  0.7818608E-02  0.1416948E+00
          2   -1    0    0    0  501  0.00000000000E+00  0.00000000000E+00  0.13890710574E+01  0.13890733980E+01  0.25500000000E-02 0.  1.
         -2   -1    0    0  501    0 -0.00000000000E+00 -0.00000000000E+00 -0.55781129541E+03  0.55781129541E+03  0.25500000000E-02 0.  1.
          2    1    1    2    0  502 -0.21727971255E+02  0.15238386857E+01 -0.10411422545E+03  0.10636822254E+03  0.25500000000E-02 0.  1.
         -2    1    1    2  502    0  0.21727971255E+02 -0.15238386857E+01 -0.45230799890E+03  0.45283214626E+03  0.25500000000E-02 0.  1.
<mgrwt>
<rscale>  0 0.55671902E+02</rscale>
<asrwt>0</asrwt>
<pdfrwt beam="1">  1        2 0.21370387E-03 0.55671902E+02</pdfrwt>
<pdfrwt beam="2">  1       -2 0.85816944E-01 0.55671902E+02</pdfrwt>
<totfact> 0.11646898E+05</totfact>
</mgrwt>
</event>
<event>
 4    1  0.2196664E-002  0.8095543E+02  0.7818608E-02  0.1326362E+00
         -2   -1    0    0  501    0 -0.00000000000E+00  0.00000000000E+00  0.19190986733E+02  0.19190986902E+02  0.25500000000E-02 0. -1.
          2   -1    0    0    0  501  0.00000000000E+00 -0.00000000000E+00 -0.85375768688E+02  0.85375768726E+02  0.25500000000E-02 0. -1.
          2    1    1    2    0  502 -0.16204233298E+02 -0.29933442660E+02 -0.61386995286E+02  0.70192245746E+02  0.25500000000E-02 0. -1.
         -2    1    1    2  502    0  0.16204233298E+02  0.29933442660E+02 -0.47977866698E+01  0.34374509882E+02  0.25500000000E-02 0. -1.
<mgrwt>
<rscale>  0 0.80955426E+02</rscale>
<asrwt>0</asrwt>
<pdfrwt beam="2">  1        2 0.13134733E-01 0.80955426E+02</pdfrwt>
<pdfrwt beam="1">  1       -2 0.29524596E-02 0.80955426E+02</pdfrwt>
<totfact> 0.16219091E+05</totfact>
</mgrwt>
</event>
<event>
 4    1  0.2196664E-002  0.5742318E+02  0.7818608E-02  0.1408975E+00
         -2   -1    0    0  501    0 -0.00000000000E+00  0.00000000000E+00  0.57069893903E+00  0.57070463597E+00  0.25500000000E-02 0.  1.
          2   -1    0    0    0  501  0.00000000000E+00 -0.00000000000E+00 -0.14444590454E+04  0.14444590454E+04  0.25500000000E-02 0.  1.
          2    1    1    2    0  502  0.86170500717E+01 -0.21881411944E+02 -0.11364388433E+04  0.11366821430E+04  0.25500000000E-02 0.  1.
         -2    1    1    2  502    0 -0.86170500717E+01  0.21881411944E+02 -0.30744950320E+03  0.30834760704E+03  0.25500000000E-02 0.  1.
<mgrwt>
<rscale>  0 0.57423179E+02</rscale>
<asrwt>0</asrwt>
<pdfrwt beam="2">  1        2 0.22222154E+00 0.57423179E+02</pdfrwt>
<pdfrwt beam="1">  1       -2 0.87801431E-04 0.57423179E+02</pdfrwt>
<totfact> 0.78595409E+05</totfact>
</mgrwt>
</event>
<event>
 4    1  0.2196664E-002  0.5337359E+02  0.7818608E-02  0.1427951E+00
          2   -1    0    0    0  501  0.00000000000E+00  0.00000000000E+00  0.15651868042E+04  0.15651868042E+04  0.25500000000E-02 0.  1.
         -2   -1    0    0  501    0 -0.00000000000E+00 -0.00000000000E+00 -0.45501234385E+00  0.45501948921E+00  0.25500000000E-02 0.  1.
          2    1    1    2    0  502 -0.29295451090E+01  0.23036393751E+02  0.39662318244E+03  0.39730241193E+03  0.25500000000E-02 0.  1.
         -2    1    1    2  502    0  0.29295451090E+01 -0.23036393751E+02  0.11681086094E+04  0.11683394118E+04  0.25500000000E-02 0.  1.
<mgrwt>
<rscale>  0 0.53373586E+02</rscale>
<asrwt>0</asrwt>
<pdfrwt beam="1">  1        2 0.24079405E+00 0.53373586E+02</pdfrwt>
<pdfrwt beam="2">  1       -2 0.70003589E-04 0.53373586E+02</pdfrwt>
<totfact> 0.91623292E+05</totfact>
</mgrwt>
</event>
<event>
 4    1  0.2196664E-002  0.4550830E+02  0.7818608E-02  0.1471193E+00
          2   -1    0    0    0  501  0.00000000000E+00  0.00000000000E+00  0.88289783513E+01  0.88289787195E+01  0.25500000000E-02 0. -1.
         -2   -1    0    0  501    0 -0.00000000000E+00 -0.00000000000E+00 -0.58642277664E+02  0.58642277720E+02  0.25500000000E-02 0. -1.
          2    1    1    2    0  502 -0.13237653883E+02  0.17305643094E+02 -0.34632264818E+02  0.40915944766E+02  0.25500000000E-02 0.  1.
         -2    1    1    2  502    0  0.13237653883E+02 -0.17305643094E+02 -0.15181034495E+02  0.26555311673E+02  0.25500000000E-02 0.  1.
<mgrwt>
<rscale>  0 0.45508303E+02</rscale>
<asrwt>0</asrwt>
<pdfrwt beam="1">  1        2 0.13583044E-02 0.45508303E+02</pdfrwt>
<pdfrwt beam="2">  1       -2 0.90218887E-02 0.45508303E+02</pdfrwt>
<totfact> 0.49678079E+05</totfact>
</mgrwt>
</event>
<event>
 4    1  0.2196664E-002  0.6152706E+02  0.7818608E-02  0.1391533E+00
          2   -1    0    0    0  501  0.00000000000E+00  0.00000000000E+00  0.49684924519E+02  0.49684924585E+02  0.25500000000E-02 0.  1.
         -2   -1    0    0  501    0 -0.00000000000E+00 -0.00000000000E+00 -0.19047928425E+02  0.19047928596E+02  0.25500000000E-02 0.  1.
          2    1    1    2    0  502  0.24670620072E+02  0.18266788983E+02  0.13062086464E+02  0.33360653228E+02  0.25500000000E-02 0.  1.
         -2    1    1    2  502    0 -0.24670620072E+02 -0.18266788983E+02  0.17574909630E+02  0.35372199953E+02  0.25500000000E-02 0.  1.
<mgrwt>
<rscale>  0 0.61527064E+02</rscale>
<asrwt>0</asrwt>
<pdfrwt beam="1">  1        2 0.76438343E-02 0.61527064E+02</pdfrwt>
<pdfrwt beam="2">  1       -2 0.29304506E-02 0.61527064E+02</pdfrwt>
<totfact> 0.29779963E+05</totfact>
</mgrwt>
</event>
<event>
 4    1  0.2196664E-002  0.5114277E+02  0.7818608E-02  0.1439273E+00
          2   -1    0    0    0  501  0.00000000000E+00  0.00000000000E+00  0.15759221097E+04  0.15759221097E+04  0.25500000000E-02 0.  1.
         -2   -1    0    0  501    0 -0.00000000000E+00 -0.00000000000E+00 -0.41492505549E+00  0.41493289116E+00  0.25500000000E-02 0.  1.
          2    1    1    2    0  502 -0.23084624696E+02 -0.50306677073E+01  0.10892582866E+04  0.10895144894E+04  0.25500000000E-02 0. -1.
         -2    1    1    2  502    0  0.23084624696E+02  0.50306677073E+01  0.48624889799E+03  0.48682255322E+03  0.25500000000E-02 0. -1.
<mgrwt>
<rscale>  0 0.51142771E+02</rscale>
<asrwt>0</asrwt>
<pdfrwt beam="1">  1        2 0.24244771E+00 0.51142771E+02</pdfrwt>
<pdfrwt beam="2">  1       -2 0.63835712E-04 0.51142771E+02</pdfrwt>
<totfact> 0.10159701E+06</totfact>
</mgrwt>
</event>
<event>
 4    1  0.2196664E-002  0.1027102E+03  0.7818608E-02  0.1274698E+00
          2   -1    0    0    0  501  0.00000000000E+00  0.00000000000E+00  0.92347148578E+03  0.92347148578E+03  0.25500000000E-02 0. -1.
         -2   -1    0    0  501    0 -0.00000000000E+00 -0.00000000000E+00 -0.28559035048E+01  0.28559046432E+01  0.25500000000E-02 0. -1.
          2    1    1    2    0  502  0.17731570374E+02 -0.12681072003E+02  0.87967226547E+03  0.87994233494E+03  0.25500000000E-02 0. -1.
         -2    1    1    2  502    0 -0.17731570374E+02  0.12681072003E+02  0.40943316808E+02  0.46385055490E+02  0.25500000000E-02 0. -1.
<mgrwt>
<rscale>  0 0.10271019E+03</rscale>
<asrwt>0</asrwt>
<pdfrwt beam="1">  1        2 0.14207266E+00 0.10271019E+03</pdfrwt>
<pdfrwt beam="2">  1       -2 0.43936947E-03 0.10271019E+03</pdfrwt>
<totfact> 0.18133255E+05</totfact>
</mgrwt>
</event>
<event>
 4    1  0.2196664E-002  0.5129518E+02  0.7818608E-02  0.1438478E+00
          2   -1    0    0    0  501  0.00000000000E+00  0.00000000000E+00  0.74799583005E+03  0.74799583005E+03  0.25500000000E-02 0. -1.
         -2   -1    0    0  501    0 -0.00000000000E+00 -0.00000000000E+00 -0.87941326254E+00  0.87941695960E+00  0.25500000000E-02 0. -1.
          2    1    1    2    0  502 -0.40095589916E+01  0.21001452706E+02  0.16675146805E+03  0.16811659550E+03  0.25500000000E-02 0.  1.
         -2    1    1    2  502    0  0.40095589916E+01 -0.21001452706E+02  0.58036494874E+03  0.58075865152E+03  0.25500000000E-02 0.  1.
<mgrwt>
<rscale>  0 0.51295179E+02</rscale>
<asrwt>0</asrwt>
<pdfrwt beam="1">  1        2 0.11507658E+00 0.51295179E+02</pdfrwt>
<pdfrwt beam="2">  1       -2 0.13529428E-03 0.51295179E+02</pdfrwt>
<totfact> 0.10474926E+06</totfact>
</mgrwt>
</event>
<event>
 4    1  0.2196664E-002  0.7753723E+02  0.7818608E-02  0.1336189E+00
         -2   -1    0    0  501    0 -0.00000000000E+00  0.00000000000E+00  0.24048983981E+03  0.24048983982E+03  0.25500000000E-02 0.  1.
          2   -1    0    0    0  501  0.00000000000E+00 -0.00000000000E+00 -0.62497668373E+01  0.62497673575E+01  0.25500000000E-02 0.  1.
          2    1    1    2    0  502 -0.12157886273E+02 -0.29664534765E+02  0.18648974195E+03  0.18922532251E+03  0.25500000000E-02 0. -1.
         -2    1    1    2  502    0  0.12157886273E+02  0.29664534765E+02  0.47750331019E+02  0.57514284663E+02  0.25500000000E-02 0. -1.
<mgrwt>
<rscale>  0 0.77537230E+02</rscale>
<asrwt>0</asrwt>
<pdfrwt beam="2">  1        2 0.96150255E-03 0.77537230E+02</pdfrwt>
<pdfrwt beam="1">  1       -2 0.36998440E-01 0.77537230E+02</pdfrwt>
<totfact> 0.86625488E+04</totfact>
</mgrwt>
</event>
<event>
 4    1  0.2196664E-002  0.1119369E+03  0.7818608E-02  0.1257024E+00
         -2   -1    0    0  501    0 -0.00000000000E+00  0.00000000000E+00  0.75412497715E+02  0.75412497758E+02  0.25500000000E-02 0.  1.
          2   -1    0    0    0  501  0.00000000000E+00 -0.00000000000E+00 -0.41537792502E+02  0.41537792581E+02  0.25500000000E-02 0.  1.
          2    1    1    2    0  502  0.54278071328E+02 -0.11296323784E+02  0.89290228950E+01  0.56155528797E+02  0.25500000000E-02 0.  1.
         -2    1    1    2  502    0 -0.54278071328E+02  0.11296323784E+02  0.24945682318E+02  0.60794761542E+02  0.25500000000E-02 0.  1.
<mgrwt>
<rscale>  0 0.11193692E+03</rscale>
<asrwt>0</asrwt>
<pdfrwt beam="2">  1        2 0.63904297E-02 0.11193692E+03</pdfrwt>
<pdfrwt beam="1">  1       -2 0.11601923E-01 0.11193692E+03</pdfrwt>
<totfact> 0.52498841E+04</totfact>
</mgrwt>
</event>
<event>
 4    1  0.2196664E-002  0.4116589E+02  0.7818608E-02  0.1499803E+00
          2   -1    0    0    0  501  0.00000000000E+00  0.00000000000E+00  0.49595109123E+01  0.49595115678E+01  0.25500000000E-02 0. -1.
         -2   -1    0    0  501    0 -0.00000000000E+00 -0.00000000000E+00 -0.85423272335E+02  0.85423272373E+02  0.25500000000E-02 0. -1.
          2    1    1    2    0  502  0.32800345539E+01 -0.20039809615E+02 -0.47614066942E+02  0.51763423123E+02  0.25500000000E-02 0.  1.
         -2    1    1    2  502    0 -0.32800345539E+01  0.20039809615E+02 -0.32849694481E+02  0.38619360819E+02  0.25500000000E-02 0.  1.
<mgrwt>
<rscale>  0 0.41165893E+02</rscale>
<asrwt>0</asrwt>
<pdfrwt beam="1">  1        2 0.76300179E-03 0.41165893E+02</pdfrwt>
<pdfrwt beam="2">  1       -2 0.13142041E-01 0.41165893E+02</pdfrwt>
<totfact> 0.58631185E+05</totfact>
</mgrwt>
</event>
<event>
 4    1  0.2196664E-002  0.5300469E+02  0.7818608E-02  0.1429778E+00
          2   -1    0    0    0  501  0.00000000000E+00  0.00000000000E+00  0.45801466565E+02  0.45801466636E+02  0.25500000000E-02 0. -1.
         -2   -1    0    0  501    0 -0.00000000000E+00 -0.00000000000E+00 -0.15335189921E+02  0.15335190133E+02  0.25500000000E-02 0. -1.
          2    1    1    2    0  502  0.22404572516E+02  0.36844226413E+01  0.30998929846E+02  0.38424907260E+02  0.25500000000E-02 0. -1.
         -2    1    1    2  502    0 -0.22404572516E+02 -0.36844226413E+01 -0.53265320218E+00  0.22711749509E+02  0.25500000000E-02 0. -1.
<mgrwt>
<rscale>  0 0.53004686E+02</rscale>
<asrwt>0</asrwt>
<pdfrwt beam="1">  1        2 0.70463794E-02 0.53004686E+02</pdfrwt>
<pdfrwt beam="2">  1       -2 0.23592600E-02 0.53004686E+02</pdfrwt>
<totfact> 0.43383014E+05</totfact>
</mgrwt>
</event>
<event>
 4    1  0.2196664E-002  0.7162171E+02  0.7818608E-02  0.1354664E+00
         -2   -1    0    0  501    0 -0.00000000000E+00  0.00000000000E+00  0.20166550824E+01  0.20166566946E+01  0.25500000000E-02 0. -1.
          2   -1    0    0    0  501  0.00000000000E+00 -0.00000000000E+00 -0.63591277471E+03  0.63591277472E+03  0.25500000000E-02 0. -1.
          2    1    1    2    0  502 -0.18066824190E+02 -0.28272237229E+02 -0.20545561793E+03  0.20817718530E+03  0.25500000000E-02 0. -1.
         -2    1    1    2  502    0  0.18066824190E+02  0.28272237229E+02 -0.42844050170E+03  0.42975224611E+03  0.25500000000E-02 0. -1.
<mgrwt>
<rscale>  0 0.71621707E+02</rscale>
<asrwt>0</asrwt>
<pdfrwt beam="2">  1        2 0.97832575E-01 0.71621707E+02</pdfrwt>
<pdfrwt beam="1">  1       -2 0.31025526E-03 0.71621707E+02</pdfrwt>
<totfact> 0.43440221E+05</totfact>
</mgrwt>
</event>
<event>
 4    1  0.2196664E-002  0.1008068E+03  0.7818608E-02  0.1278609E+00
         -2   -1    0    0  501    0 -0.00000000000E+00  0.00000000000E+00  0.13745908954E+01  0.13745932607E+01  0.25500000000E-02 0. -1.
          2   -1    0    0    0  501  0.00000000000E+00 -0.00000000000E+00 -0.18481855631E+04  0.18481855631E+04  0.25500000000E-02 0. -1.
          2    1    1    2    0  502 -0.48329681077E+02  0.43340955425E+01 -0.67320560642E+03  0.67495209532E+03  0.25500000000E-02 0. -1.
         -2    1    1    2  502    0  0.48329681077E+02 -0.43340955425E+01 -0.11736053658E+04  0.11746080610E+04  0.25500000000E-02 0. -1.
<mgrwt>
<rscale>  0 0.10080677E+03</rscale>
<asrwt>0</asrwt>
<pdfrwt beam="2">  1        2 0.28433425E+00 0.10080677E+03</pdfrwt>
<pdfrwt beam="1">  1       -2 0.21147718E-03 0.10080677E+03</pdfrwt>
<totfact> 0.16112323E+05</totfact>
</mgrwt>
</event>
<event>
 4    1  0.2196664E-002  0.7920305E+02  0.7818608E-02  0.1331328E+00
         -2   -1    0    0  501    0 -0.00000000000E+00  0.00000000000E+00  0.16070186608E+02  0.16070186810E+02  0.25500000000E-02 0.  1.
          2   -1    0    0    0  501  0.00000000000E+00 -0.00000000000E+00 -0.97589448663E+02  0.97589448696E+02  0.25500000000E-02 0.  1.
          2    1    1    2    0  502  0.18869698402E+02  0.84750545305E+01 -0.89220455787E+02  0.91587017663E+02  0.25500000000E-02 0.  1.
         -2    1    1    2  502    0 -0.18869698402E+02 -0.84750545305E+01  0.77011937320E+01  0.22072617843E+02  0.25500000000E-02 0.  1.
<mgrwt>
<rscale>  0 0.79203047E+02</rscale>
<asrwt>0</asrwt>
<pdfrwt beam="2">  1        2 0.15013761E-01 0.79203047E+02</pdfrwt>
<pdfrwt beam="1">  1       -2 0.24723365E-02 0.79203047E+02</pdfrwt>
<totfact> 0.17873924E+05</totfact>
</mgrwt>
</event>
<event>
 4    1  0.2196664E-002  0.7694952E+02  0.7818608E-02  0.1337938E+00
         -2   -1    0    0  501    0 -0.00000000000E+00  0.00000000000E+00  0.36570978402E+02  0.36570978491E+02  0.25500000000E-02 0.  1.
          2   -1    0    0    0  501  0.00000000000E+00 -0.00000000000E+00 -0.40477648263E+02  0.40477648343E+02  0.25500000000E-02 0.  1.
          2    1    1    2    0  502  0.11686729647E+02  0.29837933315E+02  0.19367875110E+02  0.37443243811E+02  0.25500000000E-02 0.  1.
         -2    1    1    2  502    0 -0.11686729647E+02 -0.29837933315E+02 -0.23274544970E+02  0.39605383023E+02  0.25500000000E-02 0.  1.
<mgrwt>
<rscale>  0 0.76949521E+02</rscale>
<asrwt>0</asrwt>
<pdfrwt beam="2">  1        2 0.62273305E-02 0.76949521E+02</pdfrwt>
<pdfrwt beam="1">  1       -2 0.56263044E-02 0.76949521E+02</pdfrwt>
<totfact> 0.15497340E+05</totfact>
</mgrwt>
</event>
<event>
 4    1  0.2196664E-002  0.4286309E+02  0.7818608E-02  0.1488141E+00
          2   -1    0    0    0  501  0.00000000000E+00  0.00000000000E+00  0.50094555318E+03  0.50094555319E+03  0.25500000000E-02 0. -1.
         -2   -1    0    0  501    0 -0.00000000000E+00 -0.00000000000E+00 -0.91688669511E+00  0.91689024107E+00  0.25500000000E-02 0. -1.
          2    1    1    2    0  502 -0.19897912407E+02  0.78739474557E+01  0.26379474727E+03  0.26466128289E+03  0.25500000000E-02 0. -1.
         -2    1    1    2  502    0  0.19897912407E+02 -0.78739474557E+01  0.23623391921E+03  0.23720116054E+03  0.25500000000E-02 0. -1.
<mgrwt>
<rscale>  0 0.42863094E+02</rscale>
<asrwt>0</asrwt>
<pdfrwt beam="1">  1        2 0.77068532E-01 0.42863094E+02</pdfrwt>
<pdfrwt beam="2">  1       -2 0.14105979E-03 0.42863094E+02</pdfrwt>
<totfact> 0.14658606E+06</totfact>
</mgrwt>
</event>
<event>
 4    1  0.2196664E-002  0.4462633E+02  0.7818608E-02  0.1476688E+00
         -2   -1    0    0  501    0 -0.00000000000E+00  0.00000000000E+00  0.78341617861E+00  0.78342032870E+00  0.25500000000E-02 0.  1.
          2   -1    0    0    0  501  0.00000000000E+00 -0.00000000000E+00 -0.63551931323E+03  0.63551931323E+03  0.25500000000E-02 0.  1.
          2    1    1    2    0  502  0.20711808131E+02 -0.23463591985E+01 -0.43089342317E+03  0.43139729546E+03  0.25500000000E-02 0. -1.
         -2    1    1    2  502    0 -0.20711808131E+02  0.23463591985E+01 -0.20384247388E+03  0.20490543810E+03  0.25500000000E-02 0. -1.
<mgrwt>
<rscale>  0 0.44626335E+02</rscale>
<asrwt>0</asrwt>
<pdfrwt beam="2">  1        2 0.97771790E-01 0.44626335E+02</pdfrwt>
<pdfrwt beam="1">  1       -2 0.12052639E-03 0.44626335E+02</pdfrwt>
<totfact> 0.14210574E+06</totfact>
</mgrwt>
</event>
<event>
 4    1  0.2196664E-002  0.4425814E+02  0.7818608E-02  0.1479027E+00
         -2   -1    0    0  501    0 -0.00000000000E+00  0.00000000000E+00  0.97139925399E+00  0.97140260096E+00  0.25500000000E-02 0. -1.
          2   -1    0    0    0  501  0.00000000000E+00 -0.00000000000E+00 -0.50411286919E+03  0.50411286920E+03  0.25500000000E-02 0. -1.
          2    1    1    2    0  502 -0.18427429080E+02  0.12252567187E+02 -0.25171521094E+03  0.25268605614E+03  0.25500000000E-02 0. -1.
         -2    1    1    2  502    0  0.18427429080E+02 -0.12252567187E+02 -0.25142625900E+03  0.25239821566E+03  0.25500000000E-02 0. -1.
<mgrwt>
<rscale>  0 0.44258139E+02</rscale>
<asrwt>0</asrwt>
<pdfrwt beam="2">  1        2 0.77555617E-01 0.44258139E+02</pdfrwt>
<pdfrwt beam="1">  1       -2 0.14944670E-03 0.44258139E+02</pdfrwt>
<totfact> 0.13586341E+06</totfact>
</mgrwt>
</event>
<event>
 4    1  0.2196664E-002  0.9259761E+02  0.7818608E-02  0.1296680E+00
          2   -1    0    0    0  501  0.00000000000E+00  0.00000000000E+00  0.37739373627E+03  0.37739373627E+03  0.25500000000E-02 0. -1.
         -2   -1    0    0  501    0 -0.00000000000E+00 -0.00000000000E+00 -0.56799549608E+01  0.56799555332E+01  0.25500000000E-02 0. -1.
          2    1    1    2    0  502  0.29598597737E+02 -0.12390133263E+02  0.47779484888E+02  0.57554075207E+02  0.25500000000E-02 0. -1.
         -2    1    1    2  502    0 -0.29598597737E+02  0.12390133263E+02  0.32393429642E+03  0.32551961660E+03  0.25500000000E-02 0. -1.
<mgrwt>
<rscale>  0 0.92597614E+02</rscale>
<asrwt>0</asrwt>
<pdfrwt beam="1">  1        2 0.58060577E-01 0.92597614E+02</pdfrwt>
<pdfrwt beam="2">  1       -2 0.87383924E-03 0.92597614E+02</pdfrwt>
<totfact> 0.18760458E+05</totfact>
</mgrwt>
</event>
<event>
 4    1  0.2196664E-002  0.5588725E+02  0.7818608E-02  0.1415949E+00
         -2   -1    0    0  501    0 -0.00000000000E+00  0.00000000000E+00  0.50947361263E+02  0.50947361326E+02  0.25500000000E-02 0. -1.
          2   -1    0    0    0  501  0.00000000000E+00 -0.00000000000E+00 -0.15326529683E+02  0.15326529895E+02  0.25500000000E-02 0. -1.
          2    1    1    2    0  502  0.32822352772E+01  0.26462835677E+02  0.27717161074E+02  0.38461614176E+02  0.25500000000E-02 0.  1.
         -2    1    1    2  502    0 -0.32822352772E+01 -0.26462835677E+02  0.79036705055E+01  0.27812277045E+02  0.25500000000E-02 0.  1.
<mgrwt>
<rscale>  0 0.55887253E+02</rscale>
<asrwt>0</asrwt>
<pdfrwt beam="2">  1        2 0.23579277E-02 0.55887253E+02</pdfrwt>
<pdfrwt beam="1">  1       -2 0.78380556E-02 0.55887253E+02</pdfrwt>
<totfact> 0.31086528E+05</totfact>
</mgrwt>
</event>
<event>
 4    1  0.2196664E-002  0.8455982E+02  0.7818608E-02  0.1316588E+00
         -2   -1    0    0  501    0 -0.00000000000E+00  0.00000000000E+00  0.23217062829E+01  0.23217076833E+01  0.25500000000E-02 0.  1.
          2   -1    0    0    0  501  0.00000000000E+00 -0.00000000000E+00 -0.76994683705E+03  0.76994683706E+03  0.25500000000E-02 0.  1.
          2    1    1    2    0  502 -0.34341524432E+02 -0.19036858059E+02 -0.52701098230E+03  0.52847168111E+03  0.25500000000E-02 0.  1.
         -2    1    1    2  502    0  0.34341524432E+02  0.19036858059E+02 -0.24061414847E+03  0.24379686363E+03  0.25500000000E-02 0.  1.
<mgrwt>
<rscale>  0 0.84559824E+02</rscale>
<asrwt>0</asrwt>
<pdfrwt beam="2">  1        2 0.11845316E+00 0.84559824E+02</pdfrwt>
<pdfrwt beam="1">  1       -2 0.35718630E-03 0.84559824E+02</pdfrwt>
<totfact> 0.29496138E+05</totfact>
</mgrwt>
</event>
<event>
 4    1  0.2196664E-002  0.8212945E+02  0.7818608E-02  0.1323115E+00
          2   -1    0    0    0  501  0.00000000000E+00  0.00000000000E+00  0.14771233432E+03  0.14771233435E+03  0.25500000000E-02 0. -1.
         -2   -1    0    0  501    0 -0.00000000000E+00 -0.00000000000E+00 -0.11416187430E+02  0.11416187715E+02  0.25500000000E-02 0. -1.
          2    1    1    2    0  502 -0.25731001881E+02  0.19982915753E+02  0.11658292324E+03  0.12104949144E+03  0.25500000000E-02 0. -1.
         -2    1    1    2  502    0  0.25731001881E+02 -0.19982915753E+02  0.19713223654E+02  0.38079030622E+02  0.25500000000E-02 0. -1.
<mgrwt>
<rscale>  0 0.82129452E+02</rscale>
<asrwt>0</asrwt>
<pdfrwt beam="1">  1        2 0.22724973E-01 0.82129452E+02</pdfrwt>
<pdfrwt beam="2">  1       -2 0.17563366E-02 0.82129452E+02</pdfrwt>
<totfact> 0.18433585E+05</totfact>
</mgrwt>
</event>
<event>
 4    1  0.2196664E-002  0.4840387E+02  0.7818608E-02  0.1454146E+00
         -2   -1    0    0  501    0 -0.00000000000E+00  0.00000000000E+00  0.50137370287E+00  0.50138018751E+00  0.25500000000E-02 0. -1.
          2   -1    0    0    0  501  0.00000000000E+00 -0.00000000000E+00 -0.11682500010E+04  0.11682500010E+04  0.25500000000E-02 0. -1.
          2    1    1    2    0  502 -0.48655309747E+01  0.21412466371E+02 -0.82960066215E+03  0.82989121320E+03  0.25500000000E-02 0.  1.
         -2    1    1    2  502    0  0.48655309747E+01 -0.21412466371E+02 -0.33814796516E+03  0.33886016799E+03  0.25500000000E-02 0.  1.
<mgrwt>
<rscale>  0 0.48403868E+02</rscale>
<asrwt>0</asrwt>
<pdfrwt beam="2">  1        2 0.17972859E+00 0.48403868E+02</pdfrwt>
<pdfrwt beam="1">  1       -2 0.77135850E-04 0.48403868E+02</pdfrwt>
<totfact> 0.12512498E+06</totfact>
</mgrwt>
</event>
<event>
 4    1  0.2196664E-002  0.8818815E+02  0.7818608E-02  0.1307300E+00
          2   -1    0    0    0  501  0.00000000000E+00  0.00000000000E+00  0.15942981845E+03  0.15942981847E+03  0.25500000000E-02 0. -1.
         -2   -1    0    0  501    0 -0.00000000000E+00 -0.00000000000E+00 -0.12195254814E+02  0.12195255081E+02  0.25500000000E-02 0. -1.
          2    1    1    2    0  502  0.26950695956E+02  0.29766505536E+02  0.10907213804E+03  0.11622872351E+03  0.25500000000E-02 0.  1.
         -2    1    1    2  502    0 -0.26950695956E+02 -0.29766505536E+02  0.38162425587E+02  0.55396350038E+02  0.25500000000E-02 0.  1.
<mgrwt>
<rscale>  0 0.88188146E+02</rscale>
<asrwt>0</asrwt>
<pdfrwt beam="1">  1        2 0.24527661E-01 0.88188146E+02</pdfrwt>
<pdfrwt beam="2">  1       -2 0.18761933E-02 0.88188146E+02</pdfrwt>
<totfact> 0.15620933E+05</totfact>
</mgrwt>
</event>
<event>
 4    1  0.2196664E-002  0.1168973E+03  0.7818608E-02  0.1248305E+00
          2   -1    0    0    0  501  0.00000000000E+00  0.00000000000E+00  0.73950291755E+03  0.73950291756E+03  0.25500000000E-02 0. -1.
         -2   -1    0    0  501    0 -0.00000000000E+00 -0.00000000000E+00 -0.46196474060E+01  0.46196481098E+01  0.25500000000E-02 0. -1.
          2    1    1    2    0  502  0.21859703373E+02 -0.47237297624E+02  0.19817932111E+03  0.20490059112E+03  0.25500000000E-02 0.  1.
         -2    1    1    2  502    0 -0.21859703373E+02  0.47237297624E+02  0.53670394904E+03  0.53922197455E+03  0.25500000000E-02 0.  1.
<mgrwt>
<rscale>  0 0.11689727E+03</rscale>
<asrwt>0</asrwt>
<pdfrwt beam="1">  1        2 0.11376965E+00 0.11689727E+03</pdfrwt>
<pdfrwt beam="2">  1       -2 0.71071523E-03 0.11689727E+03</pdfrwt>
<totfact> 0.12364659E+05</totfact>
</mgrwt>
</event>
<event>
 4    1  0.2196664E-002  0.2158154E+03  0.7818608E-02  0.1137042E+00
          2   -1    0    0    0  501  0.00000000000E+00  0.00000000000E+00  0.80913862151E+03  0.80913862152E+03  0.25500000000E-02 0.  1.
         -2   -1    0    0  501    0 -0.00000000000E+00 -0.00000000000E+00 -0.14390703759E+02  0.14390703985E+02  0.25500000000E-02 0.  1.
          2    1    1    2    0  502 -0.34003760100E+02 -0.24323209025E+02  0.77697799648E+03  0.77810197353E+03  0.25500000000E-02 0. -1.
         -2    1    1    2  502    0  0.34003760100E+02  0.24323209025E+02  0.17769921275E+02  0.45427351968E+02  0.25500000000E-02 0. -1.
<mgrwt>
<rscale>  0 0.21581542E+03</rscale>
<asrwt>0</asrwt>
<pdfrwt beam="1">  1        2 0.12448291E+00 0.21581542E+03</pdfrwt>
<pdfrwt beam="2">  1       -2 0.22139537E-02 0.21581542E+03</pdfrwt>
<totfact> 0.22815271E+04</totfact>
</mgrwt>
</event>
<event>
 4    1  0.2196664E-002  0.4773093E+02  0.7818608E-02  0.1457979E+00
          2   -1    0    0    0  501  0.00000000000E+00  0.00000000000E+00  0.15193825323E+03  0.15193825325E+03  0.25500000000E-02 0.  1.
         -2   -1    0    0  501    0 -0.00000000000E+00 -0.00000000000E+00 -0.37486296384E+01  0.37486305057E+01  0.25500000000E-02 0.  1.
          2    1    1    2    0  502 -0.16605493888E+02 -0.15101606904E+02  0.10054513034E+03  0.10302001845E+03  0.25500000000E-02 0.  1.
         -2    1    1    2  502    0  0.16605493888E+02  0.15101606904E+02  0.47644493251E+02  0.52666865314E+02  0.25500000000E-02 0.  1.
<mgrwt>
<rscale>  0 0.47730925E+02</rscale>
<asrwt>0</asrwt>
<pdfrwt beam="1">  1        2 0.23375114E-01 0.47730925E+02</pdfrwt>
<pdfrwt beam="2">  1       -2 0.57671237E-03 0.47730925E+02</pdfrwt>
<totfact> 0.75744418E+05</totfact>
</mgrwt>
</event>
<event>
 4    1  0.2196664E-002  0.2543109E+03  0.7818608E-02  0.1110610E+00
          2   -1    0    0    0  501  0.00000000000E+00  0.00000000000E+00  0.19796843382E+03  0.19796843383E+03  0.25500000000E-02 0.  1.
         -2   -1    0    0  501    0 -0.00000000000E+00 -0.00000000000E+00 -0.81672175299E+02  0.81672175338E+02  0.25500000000E-02 0.  1.
          2    1    1    2    0  502 -0.41396664324E+02  0.10037500247E+03 -0.14622608878E+02  0.10955658645E+03  0.25500000000E-02 0.  1.
         -2    1    1    2  502    0  0.41396664324E+02 -0.10037500247E+03  0.13091886740E+03  0.17008402272E+03  0.25500000000E-02 0.  1.
<mgrwt>
<rscale>  0 0.25431093E+03</rscale>
<asrwt>0</asrwt>
<pdfrwt beam="1">  1        2 0.30456682E-01 0.25431093E+03</pdfrwt>
<pdfrwt beam="2">  1       -2 0.12564950E-01 0.25431093E+03</pdfrwt>
<totfact> 0.78066495E+03</totfact>
</mgrwt>
</event>
<event>
 4    1  0.2196664E-002  0.6908973E+02  0.7818608E-02  0.1363216E+00
         -2   -1    0    0  501    0 -0.00000000000E+00  0.00000000000E+00  0.92507602597E+00  0.92507954054E+00  0.25500000000E-02 0. -1.
          2   -1    0    0    0  501  0.00000000000E+00 -0.00000000000E+00 -0.12899971276E+04  0.12899971276E+04  0.25500000000E-02 0. -1.
          2    1    1    2    0  502  0.97334608368E+01  0.21396878289E+02 -0.11175145240E+04  0.11177617268E+04  0.25500000000E-02 0. -1.
         -2    1    1    2  502    0 -0.97334608368E+01 -0.21396878289E+02 -0.17155752756E+03  0.17316048028E+03  0.25500000000E-02 0. -1.
<mgrwt>
<rscale>  0 0.69089730E+02</rscale>
<asrwt>0</asrwt>
<pdfrwt beam="2">  1        2 0.19845966E+00 0.69089730E+02</pdfrwt>
<pdfrwt beam="1">  1       -2 0.14232069E-03 0.69089730E+02</pdfrwt>
<totfact> 0.50566986E+05</totfact>
</mgrwt>
</event>
<event>
 4    1  0.2196664E-002  0.6020419E+02  0.7818608E-02  0.1396977E+00
          2   -1    0    0    0  501  0.00000000000E+00  0.00000000000E+00  0.89462259478E+03  0.89462259478E+03  0.25500000000E-02 0. -1.
         -2   -1    0    0  501    0 -0.00000000000E+00 -0.00000000000E+00 -0.10128680300E+01  0.10128712400E+01  0.25500000000E-02 0. -1.
          2    1    1    2    0  502 -0.19262275971E+02 -0.16272346232E+02  0.20221589524E+03  0.20378197375E+03  0.25500000000E-02 0.  1.
         -2    1    1    2  502    0  0.19262275971E+02  0.16272346232E+02  0.69139383151E+03  0.69185349228E+03  0.25500000000E-02 0.  1.
<mgrwt>
<rscale>  0 0.60204188E+02</rscale>
<asrwt>0</asrwt>
<pdfrwt beam="1">  1        2 0.13763464E+00 0.60204188E+02</pdfrwt>
<pdfrwt beam="2">  1       -2 0.15582565E-03 0.60204188E+02</pdfrwt>
<totfact> 0.72228972E+05</totfact>
</mgrwt>
</event>
<event>
 4    1  0.2196664E-002  0.6552744E+02  0.7818608E-02  0.1375998E+00
          2   -1    0    0    0  501  0.00000000000E+00  0.00000000000E+00  0.13257357727E+04  0.13257357727E+04  0.25500000000E-02 0.  1.
         -2   -1    0    0  501    0 -0.00000000000E+00 -0.00000000000E+00 -0.80970793008E+00  0.80971194541E+00  0.25500000000E-02 0.  1.
          2    1    1    2    0  502  0.25498128154E+02 -0.19079246806E+02  0.50658431371E+03  0.50758431723E+03  0.25500000000E-02 0.  1.
         -2    1    1    2  502    0 -0.25498128154E+02  0.19079246806E+02  0.81834175104E+03  0.81896116740E+03  0.25500000000E-02 0.  1.
<mgrwt>
<rscale>  0 0.65527443E+02</rscale>
<asrwt>0</asrwt>
<pdfrwt beam="1">  1        2 0.20395606E+00 0.65527443E+02</pdfrwt>
<pdfrwt beam="2">  1       -2 0.12457277E-03 0.65527443E+02</pdfrwt>
<totfact> 0.57569645E+05</totfact>
</mgrwt>
</event>
<event>
 4    1  0.2196664E-002  0.4706627E+02  0.7818608E-02  0.1461840E+00
          2   -1    0    0    0  501  0.00000000000E+00  0.00000000000E+00  0.12879427365E+03  0.12879427367E+03  0.25500000000E-02 0. -1.
         -2   -1    0    0  501    0 -0.00000000000E+00 -0.00000000000E+00 -0.42999460363E+01  0.42999467924E+01  0.25500000000E-02 0. -1.
          2    1    1    2    0  502  0.11865176197E+02  0.18037813872E+02  0.35770796395E+02  0.41781515251E+02  0.25500000000E-02 0. -1.
         -2    1    1    2  502    0 -0.11865176197E+02 -0.18037813872E+02  0.88723531215E+02  0.91312705213E+02  0.25500000000E-02 0. -1.
<mgrwt>
<rscale>  0 0.47066272E+02</rscale>
<asrwt>0</asrwt>
<pdfrwt beam="1">  1        2 0.19814503E-01 0.47066272E+02</pdfrwt>
<pdfrwt beam="2">  1       -2 0.66153025E-03 0.47066272E+02</pdfrwt>
<totfact> 0.74703477E+05</totfact>
</mgrwt>
</event>
<event>
 4    1  0.2196664E-002  0.1127314E+03  0.7818608E-02  0.1255594E+00
          2   -1    0    0    0  501  0.00000000000E+00  0.00000000000E+00  0.39295661026E+03  0.39295661027E+03  0.25500000000E-02 0.  1.
         -2   -1    0    0  501    0 -0.00000000000E+00 -0.00000000000E+00 -0.80850952250E+01  0.80850956271E+01  0.25500000000E-02 0.  1.
          2    1    1    2    0  502  0.47006617917E+01 -0.51882283862E+02  0.26900251164E+03  0.27400039941E+03  0.25500000000E-02 0. -1.
         -2    1    1    2  502    0 -0.47006617917E+01  0.51882283862E+02  0.11586900339E+03  0.12704130649E+03  0.25500000000E-02 0. -1.
<mgrwt>
<rscale>  0 0.11273139E+03</rscale>
<asrwt>0</asrwt>
<pdfrwt beam="1">  1        2 0.60454875E-01 0.11273139E+03</pdfrwt>
<pdfrwt beam="2">  1       -2 0.12438606E-02 0.11273139E+03</pdfrwt>
<totfact> 0.11216304E+05</totfact>
</mgrwt>
</event>
<event>
 4    1  0.2196664E-002  0.5714569E+02  0.7818608E-02  0.1410216E+00
          2   -1    0    0    0  501  0.00000000000E+00  0.00000000000E+00  0.35290792788E+03  0.35290792789E+03  0.25500000000E-02 0.  1.
         -2   -1    0    0  501    0 -0.00000000000E+00 -0.00000000000E+00 -0.23133721067E+01  0.23133735121E+01  0.25500000000E-02 0.  1.
          2    1    1    2    0  502 -0.18735396933E+02 -0.11605852489E+02  0.62257730859E+02  0.66043440010E+02  0.25500000000E-02 0.  1.
         -2    1    1    2  502    0  0.18735396933E+02  0.11605852489E+02  0.28833682491E+03  0.28917786139E+03  0.25500000000E-02 0.  1.
<mgrwt>
<rscale>  0 0.57145695E+02</rscale>
<asrwt>0</asrwt>
<pdfrwt beam="1">  1        2 0.54293483E-01 0.57145695E+02</pdfrwt>
<pdfrwt beam="2">  1       -2 0.35590380E-03 0.57145695E+02</pdfrwt>
<totfact> 0.64049725E+05</totfact>
</mgrwt>
</event>
<event>
 4    1  0.2196664E-002  0.4873178E+02  0.7818608E-02  0.1452304E+00
         -2   -1    0    0  501    0 -0.00000000000E+00  0.00000000000E+00  0.22921534937E+01  0.22921549122E+01  0.25500000000E-02 0. -1.
          2   -1    0    0    0  501  0.00000000000E+00 -0.00000000000E+00 -0.25901251199E+03  0.25901251200E+03  0.25500000000E-02 0. -1.
          2    1    1    2    0  502 -0.15108740560E+02 -0.15697383166E+02 -0.18685740220E+03  0.18812328576E+03  0.25500000000E-02 0.  1.
         -2    1    1    2  502    0  0.15108740560E+02  0.15697383166E+02 -0.69862956289E+02  0.73181381153E+02  0.25500000000E-02 0.  1.
<mgrwt>
<rscale>  0 0.48731781E+02</rscale>
<asrwt>0</asrwt>
<pdfrwt beam="2">  1        2 0.39848056E-01 0.48731781E+02</pdfrwt>
<pdfrwt beam="1">  1       -2 0.35263931E-03 0.48731781E+02</pdfrwt>
<totfact> 0.85681927E+05</totfact>
</mgrwt>
</event>
<event>
 4    1  0.2196664E-002  0.5543128E+02  0.7818608E-02  0.1418070E+00
          2   -1    0    0    0  501  0.00000000000E+00  0.00000000000E+00  0.73962276197E+03  0.73962276198E+03  0.25500000000E-02 0. -1.
         -2   -1    0    0  501    0 -0.00000000000E+00 -0.00000000000E+00 -0.10385773985E+01  0.10385805290E+01  0.25500000000E-02 0. -1.
          2    1    1    2    0  502 -0.17029554547E+02  0.15286241393E+02  0.57821593033E+03  0.57866858996E+03  0.25500000000E-02 0.  1.
         -2    1    1    2  502    0  0.17029554547E+02 -0.15286241393E+02  0.16036825424E+03  0.16199275255E+03  0.25500000000E-02 0.  1.
<mgrwt>
<rscale>  0 0.55431278E+02</rscale>
<asrwt>0</asrwt>
<pdfrwt beam="1">  1        2 0.11378842E+00 0.55431278E+02</pdfrwt>
<pdfrwt beam="2">  1       -2 0.15978096E-03 0.55431278E+02</pdfrwt>
<totfact> 0.86185805E+05</totfact>
</mgrwt>
</event>
<event>
 4    1  0.2196664E-002  0.6707698E+02  0.7818608E-02  0.1370325E+00
          2   -1    0    0    0  501  0.00000000000E+00  0.00000000000E+00  0.41511455195E+03  0.41511455196E+03  0.25500000000E-02 0. -1.
         -2   -1    0    0  501    0 -0.00000000000E+00 -0.00000000000E+00 -0.27096857701E+01  0.27096869700E+01  0.25500000000E-02 0. -1.
          2    1    1    2    0  502 -0.26524735512E+02 -0.14745421097E+02  0.29513608553E+03  0.29669226149E+03  0.25500000000E-02 0.  1.
         -2    1    1    2  502    0  0.26524735512E+02  0.14745421097E+02  0.11726878065E+03  0.12113197745E+03  0.25500000000E-02 0.  1.
<mgrwt>
<rscale>  0 0.67076978E+02</rscale>
<asrwt>0</asrwt>
<pdfrwt beam="1">  1        2 0.63863707E-01 0.67076978E+02</pdfrwt>
<pdfrwt beam="2">  1       -2 0.41687529E-03 0.67076978E+02</pdfrwt>
<totfact> 0.45064576E+05</totfact>
</mgrwt>
</event>
<event>
 4    1  0.2196664E-002  0.4351030E+02  0.7818608E-02  0.1483862E+00
         -2   -1    0    0  501    0 -0.00000000000E+00  0.00000000000E+00  0.26342423004E+00  0.26343657201E+00  0.25500000000E-02 0. -1.
          2   -1    0    0    0  501  0.00000000000E+00 -0.00000000000E+00 -0.17966283641E+04  0.17966283641E+04  0.25500000000E-02 0. -1.
          2    1    1    2    0  502 -0.20694378758E+02 -0.48774505541E+01 -0.10885110273E+04  0.10887186521E+04  0.25500000000E-02 0.  1.
         -2    1    1    2  502    0  0.20694378758E+02  0.48774505541E+01 -0.70785391255E+03  0.70817314857E+03  0.25500000000E-02 0.  1.
<mgrwt>
<rscale>  0 0.43510299E+02</rscale>
<asrwt>0</asrwt>
<pdfrwt beam="2">  1        2 0.27639455E+00 0.43510299E+02</pdfrwt>
<pdfrwt beam="1">  1       -2 0.40529193E-04 0.43510299E+02</pdfrwt>
<totfact> 0.14104791E+06</totfact>
</mgrwt>
</event>
<event>
 4    1  0.2196664E-002  0.5862112E+02  0.7818608E-02  0.1403711E+00
         -2   -1    0    0  501    0 -0.00000000000E+00  0.00000000000E+00  0.21566980343E+02  0.21566980494E+02  0.25500000000E-02 0. -1.
          2   -1    0    0    0  501  0.00000000000E+00 -0.00000000000E+00 -0.39834460173E+02  0.39834460255E+02  0.25500000000E-02 0. -1.
          2    1    1    2    0  502  0.19990338599E+02  0.21152300980E+02 -0.12773542387E+02  0.31783594285E+02  0.25500000000E-02 0.  1.
         -2    1    1    2  502    0 -0.19990338599E+02 -0.21152300980E+02 -0.54939374431E+01  0.29617846464E+02  0.25500000000E-02 0.  1.
<mgrwt>
<rscale>  0 0.58621123E+02</rscale>
<asrwt>0</asrwt>
<pdfrwt beam="2">  1        2 0.61283785E-02 0.58621123E+02</pdfrwt>
<pdfrwt beam="1">  1       -2 0.33179970E-02 0.58621123E+02</pdfrwt>
<totfact> 0.32416314E+05</totfact>
</mgrwt>
</event>
<event>
 4    1  0.2196664E-002  0.6897577E+02  0.7818608E-02  0.1363611E+00
          2   -1    0    0    0  501  0.00000000000E+00  0.00000000000E+00  0.58648545591E+01  0.58648551135E+01  0.25500000000E-02 0.  1.
         -2   -1    0    0  501    0 -0.00000000000E+00 -0.00000000000E+00 -0.20280368751E+03  0.20280368753E+03  0.25500000000E-02 0.  1.
          2    1    1    2    0  502 -0.24072590838E+02 -0.14121116359E+02 -0.37174160440E+02  0.46484554077E+02  0.25500000000E-02 0. -1.
         -2    1    1    2  502    0  0.24072590838E+02  0.14121116359E+02 -0.15976467251E+03  0.16218398856E+03  0.25500000000E-02 0. -1.
<mgrwt>
<rscale>  0 0.68975769E+02</rscale>
<asrwt>0</asrwt>
<pdfrwt beam="1">  1        2 0.90228552E-03 0.68975769E+02</pdfrwt>
<pdfrwt beam="2">  1       -2 0.31200562E-01 0.68975769E+02</pdfrwt>
<totfact> 0.12579430E+05</totfact>
</mgrwt>
</event>
<event>
 4    1  0.2196664E-002  0.4879937E+02  0.7818608E-02  0.1451927E+00
          2   -1    0    0    0  501  0.00000000000E+00  0.00000000000E+00  0.13561276734E+04  0.13561276734E+04  0.25500000000E-02 0.  1.
         -2   -1    0    0  501    0 -0.00000000000E+00 -0.00000000000E+00 -0.43899962634E+00  0.43900703232E+00  0.25500000000E-02 0.  1.
          2    1    1    2    0  502  0.22112550253E+02  0.49101031370E+01  0.42570000894E+03  0.42630220690E+03  0.25500000000E-02 0. -1.
         -2    1    1    2  502    0 -0.22112550253E+02 -0.49101031370E+01  0.92998866478E+03  0.93026447348E+03  0.25500000000E-02 0. -1.
<mgrwt>
<rscale>  0 0.48799367E+02</rscale>
<asrwt>0</asrwt>
<pdfrwt beam="1">  1        2 0.20863153E+00 0.48799367E+02</pdfrwt>
<pdfrwt beam="2">  1       -2 0.67540107E-04 0.48799367E+02</pdfrwt>
<totfact> 0.11989980E+06</totfact>
</mgrwt>
</event>
<event>
 4    1  0.2196664E-002  0.6971940E+02  0.7818608E-02  0.1361050E+00
          2   -1    0    0    0  501  0.00000000000E+00  0.00000000000E+00  0.68336812946E+00  0.68337288713E+00  0.25500000000E-02 0.  1.
         -2   -1    0    0  501    0 -0.00000000000E+00 -0.00000000000E+00 -0.17782429250E+04  0.17782429250E+04  0.25500000000E-02 0.  1.
          2    1    1    2    0  502 -0.30128568523E+02 -0.99329943045E+01 -0.52007951625E+03  0.52104615750E+03  0.25500000000E-02 0.  1.
         -2    1    1    2  502    0  0.30128568523E+02  0.99329943045E+01 -0.12574800406E+04  0.12578801404E+04  0.25500000000E-02 0.  1.
<mgrwt>
<rscale>  0 0.69719403E+02</rscale>
<asrwt>0</asrwt>
<pdfrwt beam="1">  1        2 0.10513535E-03 0.69719403E+02</pdfrwt>
<pdfrwt beam="2">  1       -2 0.27357213E+00 0.69719403E+02</pdfrwt>
<totfact> 0.15352197E+04</totfact>
</mgrwt>
</event>
<event>
 4    1  0.2196664E-002  0.4254314E+02  0.7818608E-02  0.1490289E+00
         -2   -1    0    0  501    0 -0.00000000000E+00  0.00000000000E+00  0.42379805762E+01  0.42379813434E+01  0.25500000000E-02 0.  1.
          2   -1    0    0    0  501  0.00000000000E+00 -0.00000000000E+00 -0.10676775532E+03  0.10676775535E+03  0.25500000000E-02 0.  1.
          2    1    1    2    0  502 -0.55529368005E+01 -0.20533810079E+02 -0.51042756056E+02  0.55297698106E+02  0.25500000000E-02 0.  1.
         -2    1    1    2  502    0  0.55529368005E+01  0.20533810079E+02 -0.51487018688E+02  0.55708038588E+02  0.25500000000E-02 0.  1.
<mgrwt>
<rscale>  0 0.42543141E+02</rscale>
<asrwt>0</asrwt>
<pdfrwt beam="2">  1        2 0.16425807E-01 0.42543141E+02</pdfrwt>
<pdfrwt beam="1">  1       -2 0.65199715E-03 0.42543141E+02</pdfrwt>
<totfact> 0.91266054E+05</totfact>
</mgrwt>
</event>
<event>
 4    1  0.2196664E-002  0.1484236E+03  0.7818608E-02  0.1202424E+00
          2   -1    0    0    0  501  0.00000000000E+00  0.00000000000E+00  0.49033452385E+03  0.49033452386E+03  0.25500000000E-02 0. -1.
         -2   -1    0    0  501    0 -0.00000000000E+00 -0.00000000000E+00 -0.11231910529E+02  0.11231910819E+02  0.25500000000E-02 0. -1.
          2    1    1    2    0  502  0.73571596248E+02 -0.96633818893E+01  0.23579916115E+03  0.24719912041E+03  0.25500000000E-02 0.  1.
         -2    1    1    2  502    0 -0.73571596248E+02  0.96633818893E+01  0.24330345217E+03  0.25436731427E+03  0.25500000000E-02 0.  1.
<mgrwt>
<rscale>  0 0.14842363E+03</rscale>
<asrwt>0</asrwt>
<pdfrwt beam="1">  1        2 0.75436071E-01 0.14842363E+03</pdfrwt>
<pdfrwt beam="2">  1       -2 0.17279865E-02 0.14842363E+03</pdfrwt>
<totfact> 0.56979603E+04</totfact>
</mgrwt>
</event>
<event>
 4    1  0.2196664E-002  0.1447520E+03  0.7818608E-02  0.1207074E+00
         -2   -1    0    0  501    0 -0.00000000000E+00  0.00000000000E+00  0.91860217197E+01  0.91860220736E+01  0.25500000000E-02 0. -1.
          2   -1    0    0    0  501  0.00000000000E+00 -0.00000000000E+00 -0.57024544523E+03  0.57024544524E+03  0.25500000000E-02 0. -1.
          2    1    1    2    0  502 -0.54282896065E+02  0.91769588764E+01 -0.46860063838E+03  0.47182349207E+03  0.25500000000E-02 0.  1.
         -2    1    1    2  502    0  0.54282896065E+02 -0.91769588764E+01 -0.92458785137E+02  0.10760797524E+03  0.25500000000E-02 0.  1.
<mgrwt>
<rscale>  0 0.14475202E+03</rscale>
<asrwt>0</asrwt>
<pdfrwt beam="2">  1        2 0.87730041E-01 0.14475202E+03</pdfrwt>
<pdfrwt beam="1">  1       -2 0.14132346E-02 0.14475202E+03</pdfrwt>
<totfact> 0.64248894E+04</totfact>
</mgrwt>
</event>
<event>
 4    1  0.2196664E-002  0.4311757E+02  0.7818608E-02  0.1486447E+00
          2   -1    0    0    0  501  0.00000000000E+00  0.00000000000E+00  0.49855665657E+01  0.49855672178E+01  0.25500000000E-02 0. -1.
         -2   -1    0    0  501    0 -0.00000000000E+00 -0.00000000000E+00 -0.93225362374E+02  0.93225362409E+02  0.25500000000E-02 0. -1.
          2    1    1    2    0  502  0.20188035504E+02 -0.41738196960E+01 -0.29749546473E+02  0.36194102699E+02  0.25500000000E-02 0.  1.
         -2    1    1    2  502    0 -0.20188035504E+02  0.41738196960E+01 -0.58490249336E+02  0.62016826928E+02  0.25500000000E-02 0.  1.
<mgrwt>
<rscale>  0 0.43117573E+02</rscale>
<asrwt>0</asrwt>
<pdfrwt beam="1">  1        2 0.76701036E-03 0.43117573E+02</pdfrwt>
<pdfrwt beam="2">  1       -2 0.14342362E-01 0.43117573E+02</pdfrwt>
<totfact> 0.51422018E+05</totfact>
</mgrwt>
</event>
<event>
 4    1  0.2196664E-002  0.6111526E+02  0.7818608E-02  0.1393210E+00
          2   -1    0    0    0  501  0.00000000000E+00  0.00000000000E+00  0.49495349821E+03  0.49495349822E+03  0.25500000000E-02 0.  1.
         -2   -1    0    0  501    0 -0.00000000000E+00 -0.00000000000E+00 -0.18865776407E+01  0.18865793641E+01  0.25500000000E-02 0.  1.
          2    1    1    2    0  502 -0.25883959329E+02 -0.11400616155E+02  0.34057500458E+03  0.34174740255E+03  0.25500000000E-02 0. -1.
         -2    1    1    2  502    0  0.25883959329E+02  0.11400616155E+02  0.15249191599E+03  0.15509267503E+03  0.25500000000E-02 0. -1.
<mgrwt>
<rscale>  0 0.61115256E+02</rscale>
<asrwt>0</asrwt>
<pdfrwt beam="1">  1        2 0.76146624E-01 0.61115256E+02</pdfrwt>
<pdfrwt beam="2">  1       -2 0.29024311E-03 0.61115256E+02</pdfrwt>
<totfact> 0.60556911E+05</totfact>
</mgrwt>
</event>
<event>
 4    1  0.2196664E-002  0.5440212E+02  0.7818608E-02  0.1422948E+00
          2   -1    0    0    0  501  0.00000000000E+00  0.00000000000E+00  0.91346111328E+02  0.91346111364E+02  0.25500000000E-02 0. -1.
         -2   -1    0    0  501    0 -0.00000000000E+00 -0.00000000000E+00 -0.80999358491E+01  0.80999362505E+01  0.25500000000E-02 0. -1.
          2    1    1    2    0  502 -0.18017598956E+01  0.25428003768E+02  0.24274791680E+02  0.35200784536E+02  0.25500000000E-02 0.  1.
         -2    1    1    2  502    0  0.18017598956E+01 -0.25428003768E+02  0.58971383799E+02  0.64245263079E+02  0.25500000000E-02 0.  1.
<mgrwt>
<rscale>  0 0.54402120E+02</rscale>
<asrwt>0</asrwt>
<pdfrwt beam="1">  1        2 0.14053248E-01 0.54402120E+02</pdfrwt>
<pdfrwt beam="2">  1       -2 0.12461440E-02 0.54402120E+02</pdfrwt>
<totfact> 0.47173089E+05</totfact>
</mgrwt>
</event>
<event>
 4    1  0.2196664E-002  0.5161538E+02  0.7818608E-02  0.1436818E+00
         -2   -1    0    0  501    0 -0.00000000000E+00  0.00000000000E+00  0.15131173400E+01  0.15131194887E+01  0.25500000000E-02 0.  1.
          2   -1    0    0    0  501  0.00000000000E+00 -0.00000000000E+00 -0.44017505538E+03  0.44017505539E+03  0.25500000000E-02 0.  1.
          2    1    1    2    0  502 -0.23810281049E+02  0.40408962203E+01 -0.14147430698E+03  0.14352086214E+03  0.25500000000E-02 0. -1.
         -2    1    1    2  502    0  0.23810281049E+02 -0.40408962203E+01 -0.29718763105E+03  0.29816731274E+03  0.25500000000E-02 0. -1.
<mgrwt>
<rscale>  0 0.51615385E+02</rscale>
<asrwt>0</asrwt>
<pdfrwt beam="2">  1        2 0.67719137E-01 0.51615385E+02</pdfrwt>
<pdfrwt beam="1">  1       -2 0.23278780E-03 0.51615385E+02</pdfrwt>
<totfact> 0.89122057E+05</totfact>
</mgrwt>
</event>
<event>
 4    1  0.2196664E-002  0.4287514E+02  0.7818608E-02  0.1488060E+00
         -2   -1    0    0  501    0 -0.00000000000E+00  0.00000000000E+00  0.61114961437E+03  0.61114961437E+03  0.25500000000E-02 0. -1.
          2   -1    0    0    0  501  0.00000000000E+00 -0.00000000000E+00 -0.75197313960E+00  0.75197746321E+00  0.25500000000E-02 0. -1.
          2    1    1    2    0  502 -0.61967088706E+00  0.21174576298E+02  0.35214979559E+03  0.35278637334E+03  0.25500000000E-02 0.  1.
         -2    1    1    2  502    0  0.61967088706E+00 -0.21174576298E+02  0.25824784564E+03  0.25911521850E+03  0.25500000000E-02 0.  1.
<mgrwt>
<rscale>  0 0.42875141E+02</rscale>
<asrwt>0</asrwt>
<pdfrwt beam="2">  1        2 0.11568894E-03 0.42875141E+02</pdfrwt>
<pdfrwt beam="1">  1       -2 0.94022669E-01 0.42875141E+02</pdfrwt>
<totfact> 0.20417214E+05</totfact>
</mgrwt>
</event>
<event>
 4    1  0.2196664E-002  0.4069122E+02  0.7818608E-02  0.1503186E+00
          2   -1    0    0    0  501  0.00000000000E+00  0.00000000000E+00  0.11170844661E+01  0.11170873766E+01  0.25500000000E-02 0. -1.
         -2   -1    0    0  501    0 -0.00000000000E+00 -0.00000000000E+00 -0.37055688335E+03  0.37055688336E+03  0.25500000000E-02 0. -1.
          2    1    1    2    0  502  0.90281604507E+01  0.18231896794E+02 -0.18303239529E+03  0.18415962499E+03  0.25500000000E-02 0.  1.
         -2    1    1    2  502    0 -0.90281604507E+01 -0.18231896794E+02 -0.18640740360E+03  0.18751434575E+03  0.25500000000E-02 0.  1.
<mgrwt>
<rscale>  0 0.40691222E+02</rscale>
<asrwt>0</asrwt>
<pdfrwt beam="1">  1        2 0.17185967E-03 0.40691222E+02</pdfrwt>
<pdfrwt beam="2">  1       -2 0.57008653E-01 0.40691222E+02</pdfrwt>
<totfact> 0.33792202E+05</totfact>
</mgrwt>
</event>
<event>
 4    1  0.2196664E-002  0.1004503E+03  0.7818608E-02  0.1279352E+00
         -2   -1    0    0  501    0 -0.00000000000E+00  0.00000000000E+00  0.49335970618E+01  0.49335977208E+01  0.25500000000E-02 0.  1.
          2   -1    0    0    0  501  0.00000000000E+00 -0.00000000000E+00 -0.51130390263E+03  0.51130390263E+03  0.25500000000E-02 0.  1.
          2    1    1    2    0  502  0.10560400109E+02  0.45036811197E+02 -0.15264371978E+03  0.15949903325E+03  0.25500000000E-02 0.  1.
         -2    1    1    2  502    0 -0.10560400109E+02 -0.45036811197E+02 -0.35372658579E+03  0.35673846711E+03  0.25500000000E-02 0.  1.
<mgrwt>
<rscale>  0 0.10045034E+03</rscale>
<asrwt>0</asrwt>
<pdfrwt beam="2">  1        2 0.78662097E-01 0.10045034E+03</pdfrwt>
<pdfrwt beam="1">  1       -2 0.75901539E-03 0.10045034E+03</pdfrwt>
<totfact> 0.16775627E+05</totfact>
</mgrwt>
</event>
<event>
 4    1  0.2196664E-002  0.4209678E+02  0.7818608E-02  0.1493325E+00
         -2   -1    0    0  501    0 -0.00000000000E+00  0.00000000000E+00  0.43308065706E+00  0.43308816425E+00  0.25500000000E-02 0. -1.
          2   -1    0    0    0  501  0.00000000000E+00 -0.00000000000E+00 -0.10229756806E+04  0.10229756806E+04  0.25500000000E-02 0. -1.
          2    1    1    2    0  502  0.19673460670E+02  0.66284488136E+01 -0.59567383627E+03  0.59603548603E+03  0.25500000000E-02 0. -1.
         -2    1    1    2  502    0 -0.19673460670E+02 -0.66284488136E+01 -0.42686876369E+03  0.42737328276E+03  0.25500000000E-02 0. -1.
<mgrwt>
<rscale>  0 0.42096785E+02</rscale>
<asrwt>0</asrwt>
<pdfrwt beam="2">  1        2 0.15737894E+00 0.42096785E+02</pdfrwt>
<pdfrwt beam="1">  1       -2 0.66629190E-04 0.42096785E+02</pdfrwt>
<totfact> 0.17642040E+06</totfact>
</mgrwt>
</event>
<event>
 4    1  0.2196664E-002  0.1346336E+03  0.7818608E-02  0.1220738E+00
         -2   -1    0    0  501    0 -0.00000000000E+00  0.00000000000E+00  0.16129277834E+02  0.16129278036E+02  0.25500000000E-02 0.  1.
          2   -1    0    0    0  501  0.00000000000E+00 -0.00000000000E+00 -0.28095199364E+03  0.28095199365E+03  0.25500000000E-02 0.  1.
          2    1    1    2    0  502 -0.58297717707E+02  0.30698062550E+02 -0.16287172856E+03  0.17569346859E+03  0.25500000000E-02 0. -1.
         -2    1    1    2  502    0  0.58297717707E+02 -0.30698062550E+02 -0.10195098725E+03  0.12138780310E+03  0.25500000000E-02 0. -1.
<mgrwt>
<rscale>  0 0.13463362E+03</rscale>
<asrwt>0</asrwt>
<pdfrwt beam="2">  1        2 0.43223380E-01 0.13463362E+03</pdfrwt>
<pdfrwt beam="1">  1       -2 0.24814276E-02 0.13463362E+03</pdfrwt>
<totfact> 0.60401121E+04</totfact>
</mgrwt>
</event>
<event>
 4    1  0.2196664E-002  0.4426048E+02  0.7818608E-02  0.1479012E+00
         -2   -1    0    0  501    0 -0.00000000000E+00  0.00000000000E+00  0.34518734163E+00  0.34519676030E+00  0.25500000000E-02 0. -1.
          2   -1    0    0    0  501  0.00000000000E+00 -0.00000000000E+00 -0.14187681838E+04  0.14187681838E+04  0.25500000000E-02 0. -1.
          2    1    1    2    0  502 -0.42766384756E+01  0.21410911176E+02 -0.82495205207E+03  0.82524093753E+03  0.25500000000E-02 0.  1.
         -2    1    1    2  502    0  0.42766384756E+01 -0.21410911176E+02 -0.59347094439E+03  0.59387244304E+03  0.25500000000E-02 0.  1.
<mgrwt>
<rscale>  0 0.44260479E+02</rscale>
<asrwt>0</asrwt>
<pdfrwt beam="2">  1        2 0.21826736E+00 0.44260479E+02</pdfrwt>
<pdfrwt beam="1">  1       -2 0.53107605E-04 0.44260479E+02</pdfrwt>
<totfact> 0.15061087E+06</totfact>
</mgrwt>
</event>
<event>
 4    1  0.2196664E-002  0.5173540E+02  0.7818608E-02  0.1436200E+00
         -2   -1    0    0  501    0 -0.00000000000E+00  0.00000000000E+00  0.92127338821E+00  0.92127691728E+00  0.25500000000E-02 0.  1.
          2   -1    0    0    0  501  0.00000000000E+00 -0.00000000000E+00 -0.72631701969E+03  0.72631701970E+03  0.25500000000E-02 0.  1.
          2    1    1    2    0  502  0.34610267909E+01 -0.21690373265E+02 -0.55476179160E+03  0.55519644850E+03  0.25500000000E-02 0.  1.
         -2    1    1    2  502    0 -0.34610267909E+01  0.21690373265E+02 -0.17063395470E+03  0.17204184812E+03  0.25500000000E-02 0.  1.
<mgrwt>
<rscale>  0 0.51735397E+02</rscale>
<asrwt>0</asrwt>
<pdfrwt beam="2">  1        2 0.11174062E+00 0.51735397E+02</pdfrwt>
<pdfrwt beam="1">  1       -2 0.14173522E-03 0.51735397E+02</pdfrwt>
<totfact> 0.10194273E+06</totfact>
</mgrwt>
</event>
<event>
 4    1  0.2196664E-002  0.5321891E+02  0.7818608E-02  0.1428715E+00
         -2   -1    0    0  501    0 -0.00000000000E+00  0.00000000000E+00  0.48628255985E+00  0.48628924573E+00  0.25500000000E-02 0. -1.
          2   -1    0    0    0  501  0.00000000000E+00 -0.00000000000E+00 -0.14560631809E+04  0.14560631809E+04  0.25500000000E-02 0. -1.
          2    1    1    2    0  502  0.61530994765E+00  0.20005141620E+02 -0.24787070294E+03  0.24867744104E+03  0.25500000000E-02 0.  1.
         -2    1    1    2  502    0 -0.61530994765E+00 -0.20005141620E+02 -0.12077061953E+04  0.12078720291E+04  0.25500000000E-02 0.  1.
<mgrwt>
<rscale>  0 0.53218906E+02</rscale>
<asrwt>0</asrwt>
<pdfrwt beam="2">  1        2 0.22400623E+00 0.53218906E+02</pdfrwt>
<pdfrwt beam="1">  1       -2 0.74814382E-04 0.53218906E+02</pdfrwt>
<totfact> 0.94818013E+05</totfact>
</mgrwt>
</event>
<event>
 4    1  0.2196664E-002  0.6813337E+02  0.7818608E-02  0.1366558E+00
          2   -1    0    0    0  501  0.00000000000E+00  0.00000000000E+00  0.22146094449E+02  0.22146094596E+02  0.25500000000E-02 0.  1.
         -2   -1    0    0  501    0 -0.00000000000E+00 -0.00000000000E+00 -0.52403774459E+02  0.52403774521E+02  0.25500000000E-02 0.  1.
          2    1    1    2    0  502 -0.27294777716E+02 -0.86596926766E+01  0.50628886347E+01  0.29079683899E+02  0.25500000000E-02 0. -1.
         -2    1    1    2  502    0  0.27294777716E+02  0.86596926766E+01 -0.35320568644E+02  0.45470185217E+02  0.25500000000E-02 0. -1.
<mgrwt>
<rscale>  0 0.68133368E+02</rscale>
<asrwt>0</asrwt>
<pdfrwt beam="1">  1        2 0.34070915E-02 0.68133368E+02</pdfrwt>
<pdfrwt beam="2">  1       -2 0.80621191E-02 0.68133368E+02</pdfrwt>
<totfact> 0.19161574E+05</totfact>
</mgrwt>
</event>
<event>
 4    1  0.2196664E-002  0.7139709E+02  0.7818608E-02  0.1355406E+00
         -2   -1    0    0  501    0 -0.00000000000E+00  0.00000000000E+00  0.33346860737E+02  0.33346860834E+02  0.25500000000E-02 0.  1.
          2   -1    0    0    0  501  0.00000000000E+00 -0.00000000000E+00 -0.38216079615E+02  0.38216079700E+02  0.25500000000E-02 0.  1.
          2    1    1    2    0  502  0.31518497072E+02  0.15863940545E+02 -0.78606875226E+01  0.36150666413E+02  0.25500000000E-02 0.  1.
         -2    1    1    2  502    0 -0.31518497072E+02 -0.15863940545E+02  0.29914686440E+01  0.35412274121E+02  0.25500000000E-02 0.  1.
<mgrwt>
<rscale>  0 0.71397095E+02</rscale>
<asrwt>0</asrwt>
<pdfrwt beam="2">  1        2 0.58793969E-02 0.71397095E+02</pdfrwt>
<pdfrwt beam="1">  1       -2 0.51302863E-02 0.71397095E+02</pdfrwt>
<totfact> 0.18840391E+05</totfact>
</mgrwt>
</event>
<event>
 4    1  0.2196664E-002  0.5387069E+02  0.7818608E-02  0.1425516E+00
          2   -1    0    0    0  501  0.00000000000E+00  0.00000000000E+00  0.12919284436E+04  0.12919284436E+04  0.25500000000E-02 0.  1.
         -2   -1    0    0  501    0 -0.00000000000E+00 -0.00000000000E+00 -0.56157070472E+00  0.56157649425E+00  0.25500000000E-02 0.  1.
          2    1    1    2    0  502 -0.19660508561E+01  0.19998472448E+02  0.21534910243E+03  0.21628462770E+03  0.25500000000E-02 0. -1.
         -2    1    1    2  502    0  0.19660508561E+01 -0.19998472448E+02  0.10760177704E+04  0.10762053923E+04  0.25500000000E-02 0. -1.
<mgrwt>
<rscale>  0 0.53870694E+02</rscale>
<asrwt>0</asrwt>
<pdfrwt beam="1">  1        2 0.19875936E+00 0.53870694E+02</pdfrwt>
<pdfrwt beam="2">  1       -2 0.86395444E-04 0.53870694E+02</pdfrwt>
<totfact> 0.94768660E+05</totfact>
</mgrwt>
</event>
<event>
 4    1  0.2196664E-002  0.4355849E+02  0.7818608E-02  0.1483547E+00
         -2   -1    0    0  501    0 -0.00000000000E+00  0.00000000000E+00  0.63872607294E+01  0.63872612384E+01  0.25500000000E-02 0.  1.
          2   -1    0    0    0  501  0.00000000000E+00 -0.00000000000E+00 -0.74262747749E+02  0.74262747792E+02  0.25500000000E-02 0.  1.
          2    1    1    2    0  502 -0.22055542921E+01  0.21558075555E+02 -0.29914988382E+02  0.36939431882E+02  0.25500000000E-02 0. -1.
         -2    1    1    2  502    0  0.22055542921E+01 -0.21558075555E+02 -0.37960498637E+02  0.43710577149E+02  0.25500000000E-02 0. -1.
<mgrwt>
<rscale>  0 0.43558492E+02</rscale>
<asrwt>0</asrwt>
<pdfrwt beam="2">  1        2 0.11425038E-01 0.43558492E+02</pdfrwt>
<pdfrwt beam="1">  1       -2 0.98265559E-03 0.43558492E+02</pdfrwt>
<totfact> 0.78882114E+05</totfact>
</mgrwt>
</event>
<event>
 4    1  0.2196664E-002  0.4245810E+02  0.7818608E-02  0.1490864E+00
         -2   -1    0    0  501    0 -0.00000000000E+00  0.00000000000E+00  0.21542817901E+02  0.21542818052E+02  0.25500000000E-02 0. -1.
          2   -1    0    0    0  501  0.00000000000E+00 -0.00000000000E+00 -0.20919851874E+02  0.20919852029E+02  0.25500000000E-02 0. -1.
          2    1    1    2    0  502  0.19420320252E+02 -0.49512620026E+01  0.73128597364E+01  0.21334051611E+02  0.25500000000E-02 0.  1.
         -2    1    1    2  502    0 -0.19420320252E+02  0.49512620026E+01 -0.66898937095E+01  0.21128618470E+02  0.25500000000E-02 0.  1.
<mgrwt>
<rscale>  0 0.42458100E+02</rscale>
<asrwt>0</asrwt>
<pdfrwt beam="2">  1        2 0.32184388E-02 0.42458100E+02</pdfrwt>
<pdfrwt beam="1">  1       -2 0.33142797E-02 0.42458100E+02</pdfrwt>
<totfact> 0.68057026E+05</totfact>
</mgrwt>
</event>
<event>
 4    1  0.2196664E-002  0.7334593E+02  0.7818608E-02  0.1349071E+00
          2   -1    0    0    0  501  0.00000000000E+00  0.00000000000E+00  0.43696757715E+02  0.43696757789E+02  0.25500000000E-02 0. -1.
         -2   -1    0    0  501    0 -0.00000000000E+00 -0.00000000000E+00 -0.30778172952E+02  0.30778173057E+02  0.25500000000E-02 0. -1.
          2    1    1    2    0  502  0.24699303882E+02  0.16643952631E+02 -0.15267019957E+02  0.33468771658E+02  0.25500000000E-02 0.  1.
         -2    1    1    2  502    0 -0.24699303882E+02 -0.16643952631E+02  0.28185604721E+02  0.41006159189E+02  0.25500000000E-02 0.  1.
<mgrwt>
<rscale>  0 0.73345930E+02</rscale>
<asrwt>0</asrwt>
<pdfrwt beam="1">  1        2 0.67225781E-02 0.73345930E+02</pdfrwt>
<pdfrwt beam="2">  1       -2 0.47351035E-02 0.73345930E+02</pdfrwt>
<totfact> 0.18009028E+05</totfact>
</mgrwt>
</event>
<event>
 4    1  0.2196664E-002  0.5469139E+02  0.7818608E-02  0.1421564E+00
          2   -1    0    0    0  501  0.00000000000E+00  0.00000000000E+00  0.28233638392E+04  0.28233638392E+04  0.25500000000E-02 0.  1.
         -2   -1    0    0  501    0 -0.00000000000E+00 -0.00000000000E+00 -0.26485060791E+00  0.26486288342E+00  0.25500000000E-02 0.  1.
          2    1    1    2    0  502 -0.22349289783E+02  0.15422878551E+02  0.15782941810E+04  0.15785277564E+04  0.25500000000E-02 0. -1.
         -2    1    1    2  502    0  0.22349289783E+02 -0.15422878551E+02  0.12448048075E+04  0.12451009456E+04  0.25500000000E-02 0. -1.
<mgrwt>
<rscale>  0 0.54691387E+02</rscale>
<asrwt>0</asrwt>
<pdfrwt beam="1">  1        2 0.43437914E+00 0.54691387E+02</pdfrwt>
<pdfrwt beam="2">  1       -2 0.40745740E-04 0.54691387E+02</pdfrwt>
<totfact> 0.44580525E+05</totfact>
</mgrwt>
</event>
<event>
 4    1  0.2196664E-002  0.5767525E+02  0.7818608E-02  0.1407855E+00
          2   -1    0    0    0  501  0.00000000000E+00  0.00000000000E+00  0.20594578544E+01  0.20594594331E+01  0.25500000000E-02 0.  1.
         -2   -1    0    0  501    0 -0.00000000000E+00 -0.00000000000E+00 -0.40379956891E+03  0.40379956891E+03  0.25500000000E-02 0.  1.
          2    1    1    2    0  502  0.14239279163E+02 -0.21477606036E+02 -0.10977895439E+03  0.11276286386E+03  0.25500000000E-02 0. -1.
         -2    1    1    2  502    0 -0.14239279163E+02  0.21477606036E+02 -0.29196115666E+03  0.29309616449E+03  0.25500000000E-02 0. -1.
<mgrwt>
<rscale>  0 0.57675247E+02</rscale>
<asrwt>0</asrwt>
<pdfrwt beam="1">  1        2 0.31684011E-03 0.57675247E+02</pdfrwt>
<pdfrwt beam="2">  1       -2 0.62122948E-01 0.57675247E+02</pdfrwt>
<totfact> 0.13592796E+05</totfact>
</mgrwt>
</event>
<event>
 4    1  0.2196664E-002  0.4813916E+02  0.7818608E-02  0.1455645E+00
          2   -1    0    0    0  501  0.00000000000E+00  0.00000000000E+00  0.16781377489E+03  0.16781377491E+03  0.25500000000E-02 0.  1.
         -2   -1    0    0  501    0 -0.00000000000E+00 -0.00000000000E+00 -0.34523072777E+01  0.34523082194E+01  0.25500000000E-02 0.  1.
          2    1    1    2    0  502 -0.10783449199E+02  0.18701652483E+02  0.12005178289E+03  0.12197731413E+03  0.25500000000E-02 0. -1.
         -2    1    1    2  502    0  0.10783449199E+02 -0.18701652483E+02  0.44309684728E+02  0.49288768999E+02  0.25500000000E-02 0. -1.
<mgrwt>
<rscale>  0 0.48139165E+02</rscale>
<asrwt>0</asrwt>
<pdfrwt beam="1">  1        2 0.25817496E-01 0.48139165E+02</pdfrwt>
<pdfrwt beam="2">  1       -2 0.53112443E-03 0.48139165E+02</pdfrwt>
<totfact> 0.76467797E+05</totfact>
</mgrwt>
</event>
<event>
 4    1  0.2196664E-002  0.4734057E+02  0.7818608E-02  0.1460237E+00
         -2   -1    0    0  501    0 -0.00000000000E+00  0.00000000000E+00  0.23731026183E+00  0.23732396185E+00  0.25500000000E-02 0. -1.
          2   -1    0    0    0  501  0.00000000000E+00 -0.00000000000E+00 -0.23609020643E+04  0.23609020643E+04  0.25500000000E-02 0. -1.
          2    1    1    2    0  502 -0.15885982165E+02 -0.16976791401E+02 -0.14017406022E+04  0.14019334120E+04  0.25500000000E-02 0. -1.
         -2    1    1    2  502    0  0.15885982165E+02  0.16976791401E+02 -0.95892415182E+03  0.95920597622E+03  0.25500000000E-02 0. -1.
<mgrwt>
<rscale>  0 0.47340573E+02</rscale>
<asrwt>0</asrwt>
<pdfrwt beam="2">  1        2 0.36319690E+00 0.47340573E+02</pdfrwt>
<pdfrwt beam="1">  1       -2 0.36512216E-04 0.47340573E+02</pdfrwt>
<totfact> 0.87567781E+05</totfact>
</mgrwt>
</event>
<event>
 4    1  0.2196664E-002  0.4783420E+02  0.7818608E-02  0.1457386E+00
         -2   -1    0    0  501    0 -0.00000000000E+00  0.00000000000E+00  0.64265978700E+00  0.64266484603E+00  0.25500000000E-02 0. -1.
          2   -1    0    0    0  501  0.00000000000E+00 -0.00000000000E+00 -0.89009075493E+03  0.89009075493E+03  0.25500000000E-02 0. -1.
          2    1    1    2    0  502  0.23014776638E+02 -0.85555995239E+00 -0.32459760746E+03  0.32541361173E+03  0.25500000000E-02 0.  1.
         -2    1    1    2  502    0 -0.23014776638E+02  0.85555995239E+00 -0.56485048768E+03  0.56531980805E+03  0.25500000000E-02 0.  1.
<mgrwt>
<rscale>  0 0.47834205E+02</rscale>
<asrwt>0</asrwt>
<pdfrwt beam="2">  1        2 0.13693605E+00 0.47834205E+02</pdfrwt>
<pdfrwt beam="1">  1       -2 0.98871838E-04 0.47834205E+02</pdfrwt>
<totfact> 0.12790963E+06</totfact>
</mgrwt>
</event>
<event>
 4    1  0.2196664E-002  0.5496275E+02  0.7818608E-02  0.1420275E+00
          2   -1    0    0    0  501  0.00000000000E+00  0.00000000000E+00  0.50820162034E+01  0.50820168431E+01  0.25500000000E-02 0.  1.
         -2   -1    0    0  501    0 -0.00000000000E+00 -0.00000000000E+00 -0.14860753760E+03  0.14860753762E+03  0.25500000000E-02 0.  1.
          2    1    1    2    0  502 -0.20927667786E+02  0.16781501296E+02 -0.55069387626E+02  0.61255395883E+02  0.25500000000E-02 0.  1.
         -2    1    1    2  502    0  0.20927667786E+02 -0.16781501296E+02 -0.88456133769E+02  0.92434158581E+02  0.25500000000E-02 0.  1.
<mgrwt>
<rscale>  0 0.54962750E+02</rscale>
<asrwt>0</asrwt>
<pdfrwt beam="1">  1        2 0.78184881E-03 0.54962750E+02</pdfrwt>
<pdfrwt beam="2">  1       -2 0.22862695E-01 0.54962750E+02</pdfrwt>
<totfact> 0.24930464E+05</totfact>
</mgrwt>
</event>
<event>
 4    1  0.2196664E-002  0.4142585E+02  0.7818608E-02  0.1497973E+00
         -2   -1    0    0  501    0 -0.00000000000E+00  0.00000000000E+00  0.52041567481E+01  0.52041573728E+01  0.25500000000E-02 0.  1.
          2   -1    0    0    0  501  0.00000000000E+00 -0.00000000000E+00 -0.82438961349E+02  0.82438961388E+02  0.25500000000E-02 0.  1.
          2    1    1    2    0  502 -0.14725545370E+02 -0.14489418629E+02 -0.35450713613E+02  0.41030940043E+02  0.25500000000E-02 0. -1.
         -2    1    1    2  502    0  0.14725545370E+02  0.14489418629E+02 -0.41784090988E+02  0.46612178718E+02  0.25500000000E-02 0. -1.
<mgrwt>
<rscale>  0 0.41425852E+02</rscale>
<asrwt>0</asrwt>
<pdfrwt beam="2">  1        2 0.12682916E-01 0.41425852E+02</pdfrwt>
<pdfrwt beam="1">  1       -2 0.80063961E-03 0.41425852E+02</pdfrwt>
<totfact> 0.91494389E+05</totfact>
</mgrwt>
</event>
<event>
 4    1  0.2196664E-002  0.6423987E+02  0.7818608E-02  0.1380854E+00
         -2   -1    0    0  501    0 -0.00000000000E+00  0.00000000000E+00  0.68617781634E+00  0.68618255453E+00  0.25500000000E-02 0. -1.
          2   -1    0    0    0  501  0.00000000000E+00 -0.00000000000E+00 -0.15035265818E+04  0.15035265818E+04  0.25500000000E-02 0. -1.
          2    1    1    2    0  502 -0.12949089931E+02  0.20983970829E+02 -0.12333965842E+04  0.12336430358E+04  0.25500000000E-02 0. -1.
         -2    1    1    2  502    0  0.12949089931E+02 -0.20983970829E+02 -0.26944381980E+03  0.27056972853E+03  0.25500000000E-02 0. -1.
<mgrwt>
<rscale>  0 0.64239868E+02</rscale>
<asrwt>0</asrwt>
<pdfrwt beam="2">  1        2 0.23130915E+00 0.64239868E+02</pdfrwt>
<pdfrwt beam="1">  1       -2 0.10556739E-03 0.64239868E+02</pdfrwt>
<totfact> 0.58377420E+05</totfact>
</mgrwt>
</event>
<event>
 4    1  0.2196664E-002  0.4733802E+02  0.7818608E-02  0.1460252E+00
          2   -1    0    0    0  501  0.00000000000E+00  0.00000000000E+00  0.18841629675E+03  0.18841629677E+03  0.25500000000E-02 0. -1.
         -2   -1    0    0  501    0 -0.00000000000E+00 -0.00000000000E+00 -0.29733195632E+01  0.29733206567E+01  0.25500000000E-02 0. -1.
          2    1    1    2    0  502  0.17363528499E+02 -0.15121689110E+02  0.11488988481E+03  0.11717441377E+03  0.25500000000E-02 0. -1.
         -2    1    1    2  502    0 -0.17363528499E+02  0.15121689110E+02  0.70553092379E+02  0.74215203659E+02  0.25500000000E-02 0. -1.
<mgrwt>
<rscale>  0 0.47338017E+02</rscale>
<asrwt>0</asrwt>
<pdfrwt beam="1">  1        2 0.28987112E-01 0.47338017E+02</pdfrwt>
<pdfrwt beam="2">  1       -2 0.45743403E-03 0.47338017E+02</pdfrwt>
<totfact> 0.82748400E+05</totfact>
</mgrwt>
</event>
<event>
 4    1  0.2196664E-002  0.5389346E+02  0.7818608E-02  0.1425405E+00
         -2   -1    0    0  501    0 -0.00000000000E+00  0.00000000000E+00  0.64366829132E+00  0.64367334243E+00  0.25500000000E-02 0. -1.
          2   -1    0    0    0  501  0.00000000000E+00 -0.00000000000E+00 -0.11281017016E+04  0.11281017016E+04  0.25500000000E-02 0. -1.
          2    1    1    2    0  502  0.23433115502E+02  0.13451360298E+01 -0.28650283159E+03  0.28746268072E+03  0.25500000000E-02 0.  1.
         -2    1    1    2  502    0 -0.23433115502E+02 -0.13451360298E+01 -0.84095520170E+03  0.84128269420E+03  0.25500000000E-02 0.  1.
<mgrwt>
<rscale>  0 0.53893456E+02</rscale>
<asrwt>0</asrwt>
<pdfrwt beam="2">  1        2 0.17355253E+00 0.53893456E+02</pdfrwt>
<pdfrwt beam="1">  1       -2 0.99027182E-04 0.53893456E+02</pdfrwt>
<totfact> 0.96122816E+05</totfact>
</mgrwt>
</event>
<event>
 4    1  0.2196664E-002  0.4839293E+02  0.7818608E-02  0.1454208E+00
          2   -1    0    0    0  501  0.00000000000E+00  0.00000000000E+00  0.28861861156E+04  0.28861861156E+04  0.25500000000E-02 0. -1.
         -2   -1    0    0  501    0 -0.00000000000E+00 -0.00000000000E+00 -0.20284405748E+00  0.20286008517E+00  0.25500000000E-02 0. -1.
          2    1    1    2    0  502 -0.23994777133E+02 -0.23234473187E+01  0.13190064780E+04  0.13192267572E+04  0.25500000000E-02 0. -1.
         -2    1    1    2  502    0  0.23994777133E+02  0.23234473187E+01  0.15669767935E+04  0.15671622185E+04  0.25500000000E-02 0. -1.
<mgrwt>
<rscale>  0 0.48392927E+02</rscale>
<asrwt>0</asrwt>
<pdfrwt beam="1">  1        2 0.44405641E+00 0.48392927E+02</pdfrwt>
<pdfrwt beam="2">  1       -2 0.31206059E-04 0.48392927E+02</pdfrwt>
<totfact> 0.57920921E+05</totfact>
</mgrwt>
</event>
<event>
 4    1  0.2196664E-002  0.5770005E+02  0.7818608E-02  0.1407745E+00
         -2   -1    0    0  501    0 -0.00000000000E+00  0.00000000000E+00  0.13883439544E+01  0.13883462962E+01  0.25500000000E-02 0. -1.
          2   -1    0    0    0  501  0.00000000000E+00 -0.00000000000E+00 -0.59950799139E+03  0.59950799140E+03  0.25500000000E-02 0. -1.
          2    1    1    2    0  502  0.12098417005E+01 -0.22147968858E+02 -0.49117958371E+03  0.49168015997E+03  0.25500000000E-02 0.  1.
         -2    1    1    2  502    0 -0.12098417005E+01  0.22147968858E+02 -0.10694006373E+03  0.10921617773E+03  0.25500000000E-02 0.  1.
<mgrwt>
<rscale>  0 0.57700052E+02</rscale>
<asrwt>0</asrwt>
<pdfrwt beam="2">  1        2 0.92231792E-01 0.57700052E+02</pdfrwt>
<pdfrwt beam="1">  1       -2 0.21359204E-03 0.57700052E+02</pdfrwt>
<totfact> 0.74102572E+05</totfact>
</mgrwt>
</event>
<event>
 4    1  0.2196664E-002  0.5815414E+02  0.7818608E-02  0.1405745E+00
          2   -1    0    0    0  501  0.00000000000E+00  0.00000000000E+00  0.49170688220E+03  0.49170688221E+03  0.25500000000E-02 0. -1.
         -2   -1    0    0  501    0 -0.00000000000E+00 -0.00000000000E+00 -0.17194704013E+01  0.17194722922E+01  0.25500000000E-02 0. -1.
          2    1    1    2    0  502  0.90784727808E+01 -0.18872021431E+02  0.73839440665E+02  0.76751774345E+02  0.25500000000E-02 0. -1.
         -2    1    1    2  502    0 -0.90784727808E+01  0.18872021431E+02  0.41614797113E+03  0.41667458015E+03  0.25500000000E-02 0. -1.
<mgrwt>
<rscale>  0 0.58154137E+02</rscale>
<asrwt>0</asrwt>
<pdfrwt beam="1">  1        2 0.75647310E-01 0.58154137E+02</pdfrwt>
<pdfrwt beam="2">  1       -2 0.26453371E-03 0.58154137E+02</pdfrwt>
<totfact> 0.68512170E+05</totfact>
</mgrwt>
</event>
<event>
 4    1  0.2196664E-002  0.4820060E+02  0.7818608E-02  0.1455296E+00
          2   -1    0    0    0  501  0.00000000000E+00  0.00000000000E+00  0.51020089924E+02  0.51020089988E+02  0.25500000000E-02 0. -1.
         -2   -1    0    0  501    0 -0.00000000000E+00 -0.00000000000E+00 -0.11384228232E+02  0.11384228518E+02  0.25500000000E-02 0. -1.
          2    1    1    2    0  502 -0.19893527320E+02  0.63141941699E+01  0.35418837787E+02  0.41111014996E+02  0.25500000000E-02 0.  1.
         -2    1    1    2  502    0  0.19893527320E+02 -0.63141941699E+01  0.42170239046E+01  0.21293303510E+02  0.25500000000E-02 0.  1.
<mgrwt>
<rscale>  0 0.48200596E+02</rscale>
<asrwt>0</asrwt>
<pdfrwt beam="1">  1        2 0.78492448E-02 0.48200596E+02</pdfrwt>
<pdfrwt beam="2">  1       -2 0.17514197E-02 0.48200596E+02</pdfrwt>
<totfact> 0.56570095E+05</totfact>
</mgrwt>
</event>
<event>
 4    1  0.2196664E-002  0.4226064E+02  0.7818608E-02  0.1492205E+00
          2   -1    0    0    0  501  0.00000000000E+00  0.00000000000E+00  0.21593303706E+04  0.21593303706E+04  0.25500000000E-02 0. -1.
         -2   -1    0    0  501    0 -0.00000000000E+00 -0.00000000000E+00 -0.20676472801E+00  0.20678045180E+00  0.25500000000E-02 0. -1.
          2    1    1    2    0  502  0.74139394821E+01  0.18945016199E+02  0.13713725843E+04  0.13715234760E+04  0.25500000000E-02 0. -1.
         -2    1    1    2  502    0 -0.74139394821E+01 -0.18945016199E+02  0.78775102157E+03  0.78801367509E+03  0.25500000000E-02 0. -1.
<mgrwt>
<rscale>  0 0.42260636E+02</rscale>
<asrwt>0</asrwt>
<pdfrwt beam="1">  1        2 0.33220392E+00 0.42260636E+02</pdfrwt>
<pdfrwt beam="2">  1       -2 0.31811240E-04 0.42260636E+02</pdfrwt>
<totfact> 0.12942070E+06</totfact>
</mgrwt>
</event>
<event>
 4    1  0.2196664E-002  0.6119310E+02  0.7818608E-02  0.1392892E+00
          2   -1    0    0    0  501  0.00000000000E+00  0.00000000000E+00  0.65205073138E+02  0.65205073188E+02  0.25500000000E-02 0.  1.
         -2   -1    0    0  501    0 -0.00000000000E+00 -0.00000000000E+00 -0.14356995980E+02  0.14356996206E+02  0.25500000000E-02 0.  1.
          2    1    1    2    0  502  0.16257540295E+01  0.26942440244E+02  0.44157954912E+02  0.51753870879E+02  0.25500000000E-02 0. -1.
         -2    1    1    2  502    0 -0.16257540295E+01 -0.26942440244E+02  0.66901222463E+01  0.27808198515E+02  0.25500000000E-02 0. -1.
<mgrwt>
<rscale>  0 0.61193104E+02</rscale>
<asrwt>0</asrwt>
<pdfrwt beam="1">  1        2 0.10031550E-01 0.61193104E+02</pdfrwt>
<pdfrwt beam="2">  1       -2 0.22087686E-02 0.61193104E+02</pdfrwt>
<totfact> 0.32047757E+05</totfact>
</mgrwt>
</event>
<event>
 4    1  0.2196664E-002  0.6889442E+02  0.7818608E-02  0.1363893E+00
         -2   -1    0    0  501    0 -0.00000000000E+00  0.00000000000E+00  0.10266240765E+01  0.10266272434E+01  0.25500000000E-02 0.  1.
          2   -1    0    0    0  501  0.00000000000E+00 -0.00000000000E+00 -0.11558353848E+04  0.11558353848E+04  0.25500000000E-02 0.  1.
          2    1    1    2    0  502  0.32342274885E+02 -0.10066057171E+02 -0.47218789832E+03  0.47340126698E+03  0.25500000000E-02 0.  1.
         -2    1    1    2  502    0 -0.32342274885E+02  0.10066057171E+02 -0.68262086236E+03  0.68346074502E+03  0.25500000000E-02 0.  1.
<mgrwt>
<rscale>  0 0.68894420E+02</rscale>
<asrwt>0</asrwt>
<pdfrwt beam="2">  1        2 0.17781979E+00 0.68894420E+02</pdfrwt>
<pdfrwt beam="1">  1       -2 0.15794333E-03 0.68894420E+02</pdfrwt>
<totfact> 0.51645827E+05</totfact>
</mgrwt>
</event>
<event>
 4    1  0.2196664E-002  0.7296616E+02  0.7818608E-02  0.1350287E+00
         -2   -1    0    0  501    0 -0.00000000000E+00  0.00000000000E+00  0.64942804242E+00  0.64943304873E+00  0.25500000000E-02 0.  1.
          2   -1    0    0    0  501  0.00000000000E+00 -0.00000000000E+00 -0.20495112444E+04  0.20495112444E+04  0.25500000000E-02 0.  1.
          2    1    1    2    0  502 -0.25341291082E+02  0.20998391904E+02 -0.14668217752E+04  0.14671909330E+04  0.25500000000E-02 0.  1.
         -2    1    1    2  502    0  0.25341291082E+02 -0.20998391904E+02 -0.58204004116E+03  0.58296974451E+03  0.25500000000E-02 0.  1.
<mgrwt>
<rscale>  0 0.72966162E+02</rscale>
<asrwt>0</asrwt>
<pdfrwt beam="2">  1        2 0.31530424E+00 0.72966162E+02</pdfrwt>
<pdfrwt beam="1">  1       -2 0.99914033E-04 0.72966162E+02</pdfrwt>
<totfact> 0.34433861E+05</totfact>
</mgrwt>
</event>
<event>
 4    1  0.2196664E-002  0.4073975E+02  0.7818608E-02  0.1502837E+00
         -2   -1    0    0  501    0 -0.00000000000E+00  0.00000000000E+00  0.11171954342E+01  0.11171983443E+01  0.25500000000E-02 0.  1.
          2   -1    0    0    0  501  0.00000000000E+00 -0.00000000000E+00 -0.37140432232E+03  0.37140432233E+03  0.25500000000E-02 0.  1.
          2    1    1    2    0  502  0.16941003567E+02 -0.11309732795E+02 -0.18656286490E+03  0.18767154879E+03  0.25500000000E-02 0. -1.
         -2    1    1    2  502    0 -0.16941003567E+02  0.11309732795E+02 -0.18372426199E+03  0.18484997189E+03  0.25500000000E-02 0. -1.
<mgrwt>
<rscale>  0 0.40739748E+02</rscale>
<asrwt>0</asrwt>
<pdfrwt beam="2">  1        2 0.57139028E-01 0.40739748E+02</pdfrwt>
<pdfrwt beam="1">  1       -2 0.17187674E-03 0.40739748E+02</pdfrwt>
<totfact> 0.15047061E+06</totfact>
</mgrwt>
</event>
<event>
 4    1  0.2196664E-002  0.5250925E+02  0.7818608E-02  0.1432259E+00
         -2   -1    0    0  501    0 -0.00000000000E+00  0.00000000000E+00  0.94019380478E+00  0.94019726284E+00  0.25500000000E-02 0.  1.
          2   -1    0    0    0  501  0.00000000000E+00 -0.00000000000E+00 -0.73315100972E+03  0.73315100972E+03  0.25500000000E-02 0.  1.
          2    1    1    2    0  502 -0.23740718218E+02 -0.32902036999E+01 -0.21627666291E+03  0.21760064814E+03  0.25500000000E-02 0. -1.
         -2    1    1    2  502    0  0.23740718218E+02  0.32902036999E+01 -0.51593415300E+03  0.51649055885E+03  0.25500000000E-02 0. -1.
<mgrwt>
<rscale>  0 0.52509249E+02</rscale>
<asrwt>0</asrwt>
<pdfrwt beam="2">  1        2 0.11279201E+00 0.52509249E+02</pdfrwt>
<pdfrwt beam="1">  1       -2 0.14464605E-03 0.52509249E+02</pdfrwt>
<totfact> 0.98449613E+05</totfact>
</mgrwt>
</event>
<event>
 4    1  0.2196664E-002  0.5659738E+02  0.7818608E-02  0.1412692E+00
          2   -1    0    0    0  501  0.00000000000E+00  0.00000000000E+00  0.12067345383E+04  0.12067345383E+04  0.25500000000E-02 0.  1.
         -2   -1    0    0  501    0 -0.00000000000E+00 -0.00000000000E+00 -0.66361976673E+00  0.66362466598E+00  0.25500000000E-02 0.  1.
          2    1    1    2    0  502  0.10594847042E+02 -0.25781379677E+02  0.70729638307E+03  0.70784539543E+03  0.25500000000E-02 0.  1.
         -2    1    1    2  502    0 -0.10594847042E+02  0.25781379677E+02  0.49877453548E+03  0.49955276756E+03  0.25500000000E-02 0.  1.
<mgrwt>
<rscale>  0 0.56597380E+02</rscale>
<asrwt>0</asrwt>
<pdfrwt beam="1">  1        2 0.18565221E+00 0.56597380E+02</pdfrwt>
<pdfrwt beam="2">  1       -2 0.10209532E-03 0.56597380E+02</pdfrwt>
<totfact> 0.84608536E+05</totfact>
</mgrwt>
</event>
<event>
 4    1  0.2196664E-002  0.5633749E+02  0.7818608E-02  0.1413878E+00
         -2   -1    0    0  501    0 -0.00000000000E+00  0.00000000000E+00  0.22556616880E+01  0.22556631294E+01  0.25500000000E-02 0.  1.
          2   -1    0    0    0  501  0.00000000000E+00 -0.00000000000E+00 -0.35177174373E+03  0.35177174374E+03  0.25500000000E-02 0.  1.
          2    1    1    2    0  502 -0.15106673385E+02  0.23020017549E+02 -0.13739807543E+03  0.14012981099E+03  0.25500000000E-02 0.  1.
         -2    1    1    2  502    0  0.15106673385E+02 -0.23020017549E+02 -0.21211800661E+03  0.21389759588E+03  0.25500000000E-02 0.  1.
<mgrwt>
<rscale>  0 0.56337494E+02</rscale>
<asrwt>0</asrwt>
<pdfrwt beam="2">  1        2 0.54118686E-01 0.56337494E+02</pdfrwt>
<pdfrwt beam="1">  1       -2 0.34702527E-03 0.56337494E+02</pdfrwt>
<totfact> 0.66318417E+05</totfact>
</mgrwt>
</event>
<event>
 4    1  0.2196664E-002  0.6401187E+02  0.7818608E-02  0.1381727E+00
         -2   -1    0    0  501    0 -0.00000000000E+00  0.00000000000E+00  0.10318677575E+02  0.10318677891E+02  0.25500000000E-02 0.  1.
          2   -1    0    0    0  501  0.00000000000E+00 -0.00000000000E+00 -0.99274323196E+02  0.99274323228E+02  0.25500000000E-02 0.  1.
          2    1    1    2    0  502 -0.12328735891E+02 -0.24721135677E+02 -0.16805324095E+02  0.32334984185E+02  0.25500000000E-02 0. -1.
         -2    1    1    2  502    0  0.12328735891E+02  0.24721135677E+02 -0.72150321526E+02  0.77258016934E+02  0.25500000000E-02 0. -1.
<mgrwt>
<rscale>  0 0.64011866E+02</rscale>
<asrwt>0</asrwt>
<pdfrwt beam="2">  1        2 0.15272972E-01 0.64011866E+02</pdfrwt>
<pdfrwt beam="1">  1       -2 0.15874889E-02 0.64011866E+02</pdfrwt>
<totfact> 0.31631325E+05</totfact>
</mgrwt>
</event>
<event>
 4    1  0.2196664E-002  0.8246679E+02  0.7818608E-02  0.1322193E+00
         -2   -1    0    0  501    0 -0.00000000000E+00  0.00000000000E+00  0.32442117086E+01  0.32442127108E+01  0.25500000000E-02 0.  1.
          2   -1    0    0    0  501  0.00000000000E+00 -0.00000000000E+00 -0.52406956166E+03  0.52406956167E+03  0.25500000000E-02 0.  1.
          2    1    1    2    0  502 -0.11317645189E+02  0.36150132775E+02 -0.36455696521E+03  0.36651971581E+03  0.25500000000E-02 0. -1.
         -2    1    1    2  502    0  0.11317645189E+02 -0.36150132775E+02 -0.15626838474E+03  0.16079405856E+03  0.25500000000E-02 0. -1.
<mgrwt>
<rscale>  0 0.82466790E+02</rscale>
<asrwt>0</asrwt>
<pdfrwt beam="2">  1        2 0.80626019E-01 0.82466790E+02</pdfrwt>
<pdfrwt beam="1">  1       -2 0.49910999E-03 0.82466790E+02</pdfrwt>
<totfact> 0.28490363E+05</totfact>
</mgrwt>
</event>
<event>
 4    1  0.2196664E-002  0.1509877E+03  0.7818608E-02  0.1199265E+00
          2   -1    0    0    0  501  0.00000000000E+00  0.00000000000E+00  0.70410452294E+03  0.70410452294E+03  0.25500000000E-02 0. -1.
         -2   -1    0    0  501    0 -0.00000000000E+00 -0.00000000000E+00 -0.80944299299E+01  0.80944303316E+01  0.25500000000E-02 0. -1.
          2    1    1    2    0  502 -0.71333975660E+02 -0.53904291515E+01  0.23423678398E+03  0.24491725906E+03  0.25500000000E-02 0. -1.
         -2    1    1    2  502    0  0.71333975660E+02  0.53904291515E+01  0.46177330903E+03  0.46728169422E+03  0.25500000000E-02 0. -1.
<mgrwt>
<rscale>  0 0.15098775E+03</rscale>
<asrwt>0</asrwt>
<pdfrwt beam="1">  1        2 0.10832380E+00 0.15098775E+03</pdfrwt>
<pdfrwt beam="2">  1       -2 0.12452967E-02 0.15098775E+03</pdfrwt>
<totfact> 0.60663836E+04</totfact>
</mgrwt>
</event>
<event>
 4    1  0.2196664E-002  0.4301787E+02  0.7818608E-02  0.1487109E+00
         -2   -1    0    0  501    0 -0.00000000000E+00  0.00000000000E+00  0.49710419615E+00  0.49711073649E+00  0.25500000000E-02 0. -1.
          2   -1    0    0    0  501  0.00000000000E+00 -0.00000000000E+00 -0.93065247248E+03  0.93065247248E+03  0.25500000000E-02 0. -1.
          2    1    1    2    0  502  0.20279465740E+02  0.45087571101E+00 -0.31023297437E+03  0.31089541394E+03  0.25500000000E-02 0.  1.
         -2    1    1    2  502    0 -0.20279465740E+02 -0.45087571101E+00 -0.61992239392E+03  0.62025416928E+03  0.25500000000E-02 0.  1.
<mgrwt>
<rscale>  0 0.43017871E+02</rscale>
<asrwt>0</asrwt>
<pdfrwt beam="2">  1        2 0.14317591E+00 0.43017871E+02</pdfrwt>
<pdfrwt beam="1">  1       -2 0.76478817E-04 0.43017871E+02</pdfrwt>
<totfact> 0.16644580E+06</totfact>
</mgrwt>
</event>
<event>
 4    1  0.2196664E-002  0.9844718E+02  0.7818608E-02  0.1283596E+00
         -2   -1    0    0  501    0 -0.00000000000E+00  0.00000000000E+00  0.37844697516E+01  0.37844706107E+01  0.25500000000E-02 0.  1.
          2   -1    0    0    0  501  0.00000000000E+00 -0.00000000000E+00 -0.64023806335E+03  0.64023806336E+03  0.25500000000E-02 0.  1.
          2    1    1    2    0  502 -0.16642592538E+02  0.23440811196E+02 -0.57961392085E+03  0.58032641226E+03  0.25500000000E-02 0.  1.
         -2    1    1    2  502    0  0.16642592538E+02 -0.23440811196E+02 -0.56839672755E+02  0.63696121714E+02  0.25500000000E-02 0.  1.
<mgrwt>
<rscale>  0 0.98447181E+02</rscale>
<asrwt>0</asrwt>
<pdfrwt beam="2">  1        2 0.98498078E-01 0.98447181E+02</pdfrwt>
<pdfrwt beam="1">  1       -2 0.58222669E-03 0.98447181E+02</pdfrwt>
<totfact> 0.18925808E+05</totfact>
</mgrwt>
</event>
<event>
 4    1  0.2196664E-002  0.5045486E+02  0.7818608E-02  0.1442903E+00
         -2   -1    0    0  501    0 -0.00000000000E+00  0.00000000000E+00  0.86429808989E+00  0.86430185160E+00  0.25500000000E-02 0.  1.
          2   -1    0    0    0  501  0.00000000000E+00 -0.00000000000E+00 -0.73634532170E+03  0.73634532170E+03  0.25500000000E-02 0.  1.
          2    1    1    2    0  502 -0.26267793558E+01 -0.23214855430E+02 -0.50681168325E+03  0.50734989087E+03  0.25500000000E-02 0.  1.
         -2    1    1    2  502    0  0.26267793558E+01  0.23214855430E+02 -0.22866934035E+03  0.22985973268E+03  0.25500000000E-02 0.  1.
<mgrwt>
<rscale>  0 0.50454861E+02</rscale>
<asrwt>0</asrwt>
<pdfrwt beam="2">  1        2 0.11328339E+00 0.50454861E+02</pdfrwt>
<pdfrwt beam="1">  1       -2 0.13296982E-03 0.50454861E+02</pdfrwt>
<totfact> 0.10877310E+06</totfact>
</mgrwt>
</event>
<event>
 4    1  0.2196664E-002  0.5413907E+02  0.7818608E-02  0.1424215E+00
          2   -1    0    0    0  501  0.00000000000E+00  0.00000000000E+00  0.14180611911E+04  0.14180611912E+04  0.25500000000E-02 0.  1.
         -2   -1    0    0  501    0 -0.00000000000E+00 -0.00000000000E+00 -0.51673030744E+00  0.51673659937E+00  0.25500000000E-02 0.  1.
          2    1    1    2    0  502 -0.16068622301E+02 -0.19863469545E+02  0.94313670709E+03  0.94348270059E+03  0.25500000000E-02 0.  1.
         -2    1    1    2  502    0  0.16068622301E+02  0.19863469545E+02  0.47440775376E+03  0.47509522717E+03  0.25500000000E-02 0.  1.
<mgrwt>
<rscale>  0 0.54139068E+02</rscale>
<asrwt>0</asrwt>
<pdfrwt beam="1">  1        2 0.21815955E+00 0.54139068E+02</pdfrwt>
<pdfrwt beam="2">  1       -2 0.79498806E-04 0.54139068E+02</pdfrwt>
<totfact> 0.91590908E+05</totfact>
</mgrwt>
</event>
<event>
 4    1  0.2196664E-002  0.1441199E+03  0.7818608E-02  0.1207890E+00
         -2   -1    0    0  501    0 -0.00000000000E+00  0.00000000000E+00  0.62718046892E+01  0.62718052076E+01  0.25500000000E-02 0. -1.
          2   -1    0    0    0  501  0.00000000000E+00 -0.00000000000E+00 -0.82793365359E+03  0.82793365359E+03  0.25500000000E-02 0. -1.
          2    1    1    2    0  502 -0.31428717439E+02 -0.21969078550E+02 -0.57687755631E+02  0.69269631502E+02  0.25500000000E-02 0. -1.
         -2    1    1    2  502    0  0.31428717439E+02  0.21969078550E+02 -0.76397409327E+03  0.76493582729E+03  0.25500000000E-02 0. -1.
<mgrwt>
<rscale>  0 0.14411993E+03</rscale>
<asrwt>0</asrwt>
<pdfrwt beam="2">  1        2 0.12737432E+00 0.14411993E+03</pdfrwt>
<pdfrwt beam="1">  1       -2 0.96489373E-03 0.14411993E+03</pdfrwt>
<totfact> 0.71368627E+04</totfact>
</mgrwt>
</event>
<event>
 4    1  0.2196664E-002  0.5435914E+02  0.7818608E-02  0.1423154E+00
          2   -1    0    0    0  501  0.00000000000E+00  0.00000000000E+00  0.43296646229E+03  0.43296646230E+03  0.25500000000E-02 0.  1.
         -2   -1    0    0  501    0 -0.00000000000E+00 -0.00000000000E+00 -0.17062028471E+01  0.17062047526E+01  0.25500000000E-02 0.  1.
          2    1    1    2    0  502  0.78532490700E+01  0.19160363607E+02  0.74855062963E+02  0.77666424614E+02  0.25500000000E-02 0.  1.
         -2    1    1    2  502    0 -0.78532490700E+01 -0.19160363607E+02  0.35640519648E+03  0.35700624244E+03  0.25500000000E-02 0.  1.
<mgrwt>
<rscale>  0 0.54359140E+02</rscale>
<asrwt>0</asrwt>
<pdfrwt beam="1">  1        2 0.66610218E-01 0.54359140E+02</pdfrwt>
<pdfrwt beam="2">  1       -2 0.26249292E-03 0.54359140E+02</pdfrwt>
<totfact> 0.77888163E+05</totfact>
</mgrwt>
</event>
<event>
 4    1  0.2196664E-002  0.4906573E+02  0.7818608E-02  0.1450447E+00
          2   -1    0    0    0  501  0.00000000000E+00  0.00000000000E+00  0.62249878742E+03  0.62249878743E+03  0.25500000000E-02 0.  1.
         -2   -1    0    0  501    0 -0.00000000000E+00 -0.00000000000E+00 -0.96684580417E+00  0.96684916690E+00  0.25500000000E-02 0.  1.
          2    1    1    2    0  502  0.13672727190E+02 -0.16956919325E+02  0.16735371281E+03  0.16876535717E+03  0.25500000000E-02 0.  1.
         -2    1    1    2  502    0 -0.13672727190E+02  0.16956919325E+02  0.45417822880E+03  0.45470027942E+03  0.25500000000E-02 0.  1.
<mgrwt>
<rscale>  0 0.49065727E+02</rscale>
<asrwt>0</asrwt>
<pdfrwt beam="1">  1        2 0.95768954E-01 0.49065727E+02</pdfrwt>
<pdfrwt beam="2">  1       -2 0.14874591E-03 0.49065727E+02</pdfrwt>
<totfact> 0.11205018E+06</totfact>
</mgrwt>
</event>
<event>
 4    1  0.2196664E-002  0.5042029E+02  0.7818608E-02  0.1443088E+00
          2   -1    0    0    0  501  0.00000000000E+00  0.00000000000E+00  0.17029018797E+03  0.17029018799E+03  0.25500000000E-02 0.  1.
         -2   -1    0    0  501    0 -0.00000000000E+00 -0.00000000000E+00 -0.37321671862E+01  0.37321680573E+01  0.25500000000E-02 0.  1.
          2    1    1    2    0  502  0.22853838175E+02  0.81150612080E+01  0.10704117595E+03  0.10975411378E+03  0.25500000000E-02 0.  1.
         -2    1    1    2  502    0 -0.22853838175E+02 -0.81150612080E+01  0.59516844839E+02  0.64268242266E+02  0.25500000000E-02 0.  1.
<mgrwt>
<rscale>  0 0.50420295E+02</rscale>
<asrwt>0</asrwt>
<pdfrwt beam="1">  1        2 0.26198486E-01 0.50420295E+02</pdfrwt>
<pdfrwt beam="2">  1       -2 0.57417973E-03 0.50420295E+02</pdfrwt>
<totfact> 0.68412156E+05</totfact>
</mgrwt>
</event>
<event>
 4    1  0.2196664E-002  0.8843911E+02  0.7818608E-02  0.1306676E+00
         -2   -1    0    0  501    0 -0.00000000000E+00  0.00000000000E+00  0.31979921001E+01  0.31979931167E+01  0.25500000000E-02 0.  1.
          2   -1    0    0    0  501  0.00000000000E+00 -0.00000000000E+00 -0.61143641973E+03  0.61143641974E+03  0.25500000000E-02 0.  1.
          2    1    1    2    0  502  0.58603998646E+00 -0.39141045106E+02 -0.16118214097E+03  0.16586755991E+03  0.25500000000E-02 0.  1.
         -2    1    1    2  502    0 -0.58603998646E+00  0.39141045106E+02 -0.44705628666E+03  0.44876685295E+03  0.25500000000E-02 0.  1.
<mgrwt>
<rscale>  0 0.88439112E+02</rscale>
<asrwt>0</asrwt>
<pdfrwt beam="2">  1        2 0.94067049E-01 0.88439112E+02</pdfrwt>
<pdfrwt beam="1">  1       -2 0.49199935E-03 0.88439112E+02</pdfrwt>
<totfact> 0.24822815E+05</totfact>
</mgrwt>
</event>
<event>
 4    1  0.2196664E-002  0.1165893E+03  0.7818608E-02  0.1248832E+00
          2   -1    0    0    0  501  0.00000000000E+00  0.00000000000E+00  0.11587523534E+04  0.11587523534E+04  0.25500000000E-02 0. -1.
         -2   -1    0    0  501    0 -0.00000000000E+00 -0.00000000000E+00 -0.29326929344E+01  0.29326940430E+01  0.25500000000E-02 0. -1.
          2    1    1    2    0  502 -0.25733120990E+02  0.30632664686E+02  0.15544575113E+03  0.16051148001E+03  0.25500000000E-02 0. -1.
         -2    1    1    2  502    0  0.25733120990E+02 -0.30632664686E+02  0.10003739093E+04  0.10011735674E+04  0.25500000000E-02 0. -1.
<mgrwt>
<rscale>  0 0.11658929E+03</rscale>
<asrwt>0</asrwt>
<pdfrwt beam="1">  1        2 0.17826988E+00 0.11658929E+03</pdfrwt>
<pdfrwt beam="2">  1       -2 0.45118288E-03 0.11658929E+03</pdfrwt>
<totfact> 0.12959436E+05</totfact>
</mgrwt>
</event>
<event>
 4    1  0.2196664E-002  0.9135248E+02  0.7818608E-02  0.1299609E+00
          2   -1    0    0    0  501  0.00000000000E+00  0.00000000000E+00  0.63763792692E+03  0.63763792693E+03  0.25500000000E-02 0.  1.
         -2   -1    0    0  501    0 -0.00000000000E+00 -0.00000000000E+00 -0.32719489278E+01  0.32719499215E+01  0.25500000000E-02 0.  1.
          2    1    1    2    0  502 -0.29379005617E+02 -0.17967526073E+02  0.52769891835E+03  0.52882143149E+03  0.25500000000E-02 0.  1.
         -2    1    1    2  502    0  0.29379005617E+02  0.17967526073E+02  0.10666705964E+03  0.11208844536E+03  0.25500000000E-02 0.  1.
<mgrwt>
<rscale>  0 0.91352483E+02</rscale>
<asrwt>0</asrwt>
<pdfrwt beam="1">  1        2 0.98098137E-01 0.91352483E+02</pdfrwt>
<pdfrwt beam="2">  1       -2 0.50337686E-03 0.91352483E+02</pdfrwt>
<totfact> 0.23051166E+05</totfact>
</mgrwt>
</event>
<event>
 4    1  0.2196664E-002  0.7763987E+02  0.7818608E-02  0.1335886E+00
         -2   -1    0    0  501    0 -0.00000000000E+00  0.00000000000E+00  0.45249369732E+01  0.45249376917E+01  0.25500000000E-02 0.  1.
          2   -1    0    0    0  501  0.00000000000E+00 -0.00000000000E+00 -0.33304052304E+03  0.33304052305E+03  0.25500000000E-02 0.  1.
          2    1    1    2    0  502 -0.92798888367E+01  0.35035600430E+02 -0.22471896432E+03  0.22762298339E+03  0.25500000000E-02 0.  1.
         -2    1    1    2  502    0  0.92798888367E+01 -0.35035600430E+02 -0.10379662174E+03  0.10994247735E+03  0.25500000000E-02 0.  1.
<mgrwt>
<rscale>  0 0.77639874E+02</rscale>
<asrwt>0</asrwt>
<pdfrwt beam="2">  1        2 0.51236984E-01 0.77639874E+02</pdfrwt>
<pdfrwt beam="1">  1       -2 0.69614447E-03 0.77639874E+02</pdfrwt>
<totfact> 0.28542037E+05</totfact>
</mgrwt>
</event>
<event>
 4    1  0.2196664E-002  0.4713479E+02  0.7818608E-02  0.1461438E+00
         -2   -1    0    0  501    0 -0.00000000000E+00  0.00000000000E+00  0.25134663774E+00  0.25135957273E+00  0.25500000000E-02 0.  1.
          2   -1    0    0    0  501  0.00000000000E+00 -0.00000000000E+00 -0.22097284215E+04  0.22097284215E+04  0.25500000000E-02 0.  1.
          2    1    1    2    0  502  0.22315331568E+02  0.74716648219E+01 -0.11644574898E+04  0.11646952586E+04  0.25500000000E-02 0. -1.
         -2    1    1    2  502    0 -0.22315331568E+02 -0.74716648219E+01 -0.10450195850E+04  0.10452845225E+04  0.25500000000E-02 0. -1.
<mgrwt>
<rscale>  0 0.47134790E+02</rscale>
<asrwt>0</asrwt>
<pdfrwt beam="2">  1        2 0.33994266E+00 0.47134790E+02</pdfrwt>
<pdfrwt beam="1">  1       -2 0.38671478E-04 0.47134790E+02</pdfrwt>
<totfact> 0.96266022E+05</totfact>
</mgrwt>
</event>
<event>
 4    1  0.2196664E-002  0.5397311E+02  0.7818608E-02  0.1425018E+00
         -2   -1    0    0  501    0 -0.00000000000E+00  0.00000000000E+00  0.69766769032E+01  0.69766773693E+01  0.25500000000E-02 0.  1.
          2   -1    0    0    0  501  0.00000000000E+00 -0.00000000000E+00 -0.10438695288E+03  0.10438695291E+03  0.25500000000E-02 0.  1.
          2    1    1    2    0  502 -0.17878134400E+02 -0.11503253752E+02 -0.14406780628E+02  0.25680885325E+02  0.25500000000E-02 0.  1.
         -2    1    1    2  502    0  0.17878134400E+02  0.11503253752E+02 -0.83003495352E+02  0.85682744958E+02  0.25500000000E-02 0.  1.
<mgrwt>
<rscale>  0 0.53973107E+02</rscale>
<asrwt>0</asrwt>
<pdfrwt beam="2">  1        2 0.16059530E-01 0.53973107E+02</pdfrwt>
<pdfrwt beam="1">  1       -2 0.10733350E-02 0.53973107E+02</pdfrwt>
<totfact> 0.49850062E+05</totfact>
</mgrwt>
</event>
<event>
 4    1  0.2196664E-002  0.5472745E+02  0.7818608E-02  0.1421392E+00
         -2   -1    0    0  501    0 -0.00000000000E+00  0.00000000000E+00  0.24028757306E+03  0.24028757307E+03  0.25500000000E-02 0.  1.
          2   -1    0    0    0  501  0.00000000000E+00 -0.00000000000E+00 -0.31161551840E+01  0.31161562273E+01  0.25500000000E-02 0.  1.
          2    1    1    2    0  502 -0.11699813470E+01  0.26462562290E+02  0.88050215134E+02  0.91948227014E+02  0.25500000000E-02 0.  1.
         -2    1    1    2  502    0  0.11699813470E+01 -0.26462562290E+02  0.14912120274E+03  0.15145550228E+03  0.25500000000E-02 0.  1.
<mgrwt>
<rscale>  0 0.54727452E+02</rscale>
<asrwt>0</asrwt>
<pdfrwt beam="2">  1        2 0.47940826E-03 0.54727452E+02</pdfrwt>
<pdfrwt beam="1">  1       -2 0.36967343E-01 0.54727452E+02</pdfrwt>
<totfact> 0.20805749E+05</totfact>
</mgrwt>
</event>
<event>
 4    1  0.2196664E-002  0.8517678E+02  0.7818608E-02  0.1314971E+00
         -2   -1    0    0  501    0 -0.00000000000E+00  0.00000000000E+00  0.44611371101E+01  0.44611378388E+01  0.25500000000E-02 0.  1.
          2   -1    0    0    0  501  0.00000000000E+00 -0.00000000000E+00 -0.40657141140E+03  0.40657141140E+03  0.25500000000E-02 0.  1.
          2    1    1    2    0  502  0.42216647407E+02  0.52647337832E+00 -0.17407964779E+03  0.17912634165E+03  0.25500000000E-02 0.  1.
         -2    1    1    2  502    0 -0.42216647407E+02 -0.52647337832E+00 -0.22803062650E+03  0.23190620759E+03  0.25500000000E-02 0.  1.
<mgrwt>
<rscale>  0 0.85176780E+02</rscale>
<asrwt>0</asrwt>
<pdfrwt beam="2">  1        2 0.62549419E-01 0.85176780E+02</pdfrwt>
<pdfrwt beam="1">  1       -2 0.68632916E-03 0.85176780E+02</pdfrwt>
<totfact> 0.24037712E+05</totfact>
</mgrwt>
</event>
<event>
 4    1  0.2196664E-002  0.5124621E+02  0.7818608E-02  0.1438733E+00
          2   -1    0    0    0  501  0.00000000000E+00  0.00000000000E+00  0.91875680940E+01  0.91875684479E+01  0.25500000000E-02 0.  1.
         -2   -1    0    0  501    0 -0.00000000000E+00 -0.00000000000E+00 -0.71459997988E+02  0.71459998033E+02  0.25500000000E-02 0.  1.
          2    1    1    2    0  502 -0.13205419474E+02 -0.17197102720E+02 -0.52623221737E+02  0.56915085153E+02  0.25500000000E-02 0.  1.
         -2    1    1    2  502    0  0.13205419474E+02  0.17197102720E+02 -0.96492081566E+01  0.23732481328E+02  0.25500000000E-02 0.  1.
<mgrwt>
<rscale>  0 0.51246214E+02</rscale>
<asrwt>0</asrwt>
<pdfrwt beam="1">  1        2 0.14134721E-02 0.51246214E+02</pdfrwt>
<pdfrwt beam="2">  1       -2 0.10993846E-01 0.51246214E+02</pdfrwt>
<totfact> 0.35900807E+05</totfact>
</mgrwt>
</event>
<event>
 4    1  0.2196664E-002  0.5204144E+02  0.7818608E-02  0.1434632E+00
          2   -1    0    0    0  501  0.00000000000E+00  0.00000000000E+00  0.30419804937E+03  0.30419804938E+03  0.25500000000E-02 0. -1.
         -2   -1    0    0  501    0 -0.00000000000E+00 -0.00000000000E+00 -0.22257789793E+01  0.22257804401E+01  0.25500000000E-02 0. -1.
          2    1    1    2    0  502 -0.83646796897E+01 -0.23934512966E+02  0.11652753741E+03  0.11925391297E+03  0.25500000000E-02 0.  1.
         -2    1    1    2  502    0  0.83646796897E+01  0.23934512966E+02  0.18544473297E+03  0.18716991684E+03  0.25500000000E-02 0.  1.
<mgrwt>
<rscale>  0 0.52041439E+02</rscale>
<asrwt>0</asrwt>
<pdfrwt beam="1">  1        2 0.46799703E-01 0.52041439E+02</pdfrwt>
<pdfrwt beam="2">  1       -2 0.34242762E-03 0.52041439E+02</pdfrwt>
<totfact> 0.76929808E+05</totfact>
</mgrwt>
</event>
<event>
 4    1  0.2196664E-002  0.4499026E+02  0.7818608E-02  0.1474402E+00
          2   -1    0    0    0  501  0.00000000000E+00  0.00000000000E+00  0.35308629918E+02  0.35308630010E+02  0.25500000000E-02 0.  1.
         -2   -1    0    0  501    0 -0.00000000000E+00 -0.00000000000E+00 -0.14331648246E+02  0.14331648473E+02  0.25500000000E-02 0.  1.
          2    1    1    2    0  502  0.14530223579E+02  0.17045581226E+02  0.81868283964E+01  0.23847503062E+02  0.25500000000E-02 0.  1.
         -2    1    1    2  502    0 -0.14530223579E+02 -0.17045581226E+02  0.12790153276E+02  0.25792775421E+02  0.25500000000E-02 0.  1.
<mgrwt>
<rscale>  0 0.44990260E+02</rscale>
<asrwt>0</asrwt>
<pdfrwt beam="1">  1        2 0.54320969E-02 0.44990260E+02</pdfrwt>
<pdfrwt beam="2">  1       -2 0.22048690E-02 0.44990260E+02</pdfrwt>
<totfact> 0.63309028E+05</totfact>
</mgrwt>
</event>
<event>
 4    1  0.2196664E-002  0.1067911E+03  0.7818608E-02  0.1266630E+00
         -2   -1    0    0  501    0 -0.00000000000E+00  0.00000000000E+00  0.43981629793E+03  0.43981629794E+03  0.25500000000E-02 0. -1.
          2   -1    0    0    0  501  0.00000000000E+00 -0.00000000000E+00 -0.64824407256E+01  0.64824412272E+01  0.25500000000E-02 0. -1.
          2    1    1    2    0  502 -0.43980045315E+02 -0.27625499291E+02  0.26847364904E+03  0.27345111598E+03  0.25500000000E-02 0.  1.
         -2    1    1    2  502    0  0.43980045315E+02  0.27625499291E+02  0.16486020816E+03  0.17284762318E+03  0.25500000000E-02 0.  1.
<mgrwt>
<rscale>  0 0.10679107E+03</rscale>
<asrwt>0</asrwt>
<pdfrwt beam="2">  1        2 0.99729833E-03 0.10679107E+03</pdfrwt>
<pdfrwt beam="1">  1       -2 0.67664065E-01 0.10679107E+03</pdfrwt>
<totfact> 0.26495052E+04</totfact>
</mgrwt>
</event>
<event>
 4    1  0.2196664E-002  0.7824054E+02  0.7818608E-02  0.1334120E+00
          2   -1    0    0    0  501  0.00000000000E+00  0.00000000000E+00  0.79879001830E+03  0.79879001831E+03  0.25500000000E-02 0.  1.
         -2   -1    0    0  501    0 -0.00000000000E+00 -0.00000000000E+00 -0.19158912148E+01  0.19158929118E+01  0.25500000000E-02 0.  1.
          2    1    1    2    0  502  0.23572054144E+02  0.28452257809E+02  0.52998260036E+03  0.53126898027E+03  0.25500000000E-02 0. -1.
         -2    1    1    2  502    0 -0.23572054144E+02 -0.28452257809E+02  0.26689152673E+03  0.26943693095E+03  0.25500000000E-02 0. -1.
<mgrwt>
<rscale>  0 0.78240538E+02</rscale>
<asrwt>0</asrwt>
<pdfrwt beam="1">  1        2 0.12289085E+00 0.78240538E+02</pdfrwt>
<pdfrwt beam="2">  1       -2 0.29475245E-03 0.78240538E+02</pdfrwt>
<totfact> 0.36355611E+05</totfact>
</mgrwt>
</event>
<event>
 4    1  0.2196664E-002  0.5315265E+02  0.7818608E-02  0.1429043E+00
          2   -1    0    0    0  501  0.00000000000E+00  0.00000000000E+00  0.90010885988E+01  0.90010889600E+01  0.25500000000E-02 0. -1.
         -2   -1    0    0  501    0 -0.00000000000E+00 -0.00000000000E+00 -0.78468404595E+02  0.78468404636E+02  0.25500000000E-02 0. -1.
          2    1    1    2    0  502 -0.42932108457E+01  0.26190838978E+02 -0.37007584524E+02  0.45540674397E+02  0.25500000000E-02 0.  1.
         -2    1    1    2  502    0  0.42932108457E+01 -0.26190838978E+02 -0.32459731472E+02  0.41928819199E+02  0.25500000000E-02 0.  1.
<mgrwt>
<rscale>  0 0.53152651E+02</rscale>
<asrwt>0</asrwt>
<pdfrwt beam="1">  1        2 0.13847829E-02 0.53152651E+02</pdfrwt>
<pdfrwt beam="2">  1       -2 0.12072062E-01 0.53152651E+02</pdfrwt>
<totfact> 0.32196333E+05</totfact>
</mgrwt>
</event>
<event>
 4    1  0.2196664E-002  0.5686161E+02  0.7818608E-02  0.1411495E+00
          2   -1    0    0    0  501  0.00000000000E+00  0.00000000000E+00  0.97314666766E+02  0.97314666800E+02  0.25500000000E-02 0.  1.
         -2   -1    0    0  501    0 -0.00000000000E+00 -0.00000000000E+00 -0.83061551267E+01  0.83061555181E+01  0.25500000000E-02 0.  1.
          2    1    1    2    0  502 -0.11610865478E+01 -0.28213038576E+02  0.38347226077E+02  0.47621774662E+02  0.25500000000E-02 0.  1.
         -2    1    1    2  502    0  0.11610865478E+01  0.28213038576E+02  0.50661285562E+02  0.57999047656E+02  0.25500000000E-02 0.  1.
<mgrwt>
<rscale>  0 0.56861612E+02</rscale>
<asrwt>0</asrwt>
<pdfrwt beam="1">  1        2 0.14971487E-01 0.56861612E+02</pdfrwt>
<pdfrwt beam="2">  1       -2 0.12778700E-02 0.56861612E+02</pdfrwt>
<totfact> 0.42796766E+05</totfact>
</mgrwt>
</event>
<event>
 4    1  0.2196664E-002  0.4848281E+02  0.7818608E-02  0.1453701E+00
          2   -1    0    0    0  501  0.00000000000E+00  0.00000000000E+00  0.55998887389E+03  0.55998887389E+03  0.25500000000E-02 0.  1.
         -2   -1    0    0  501    0 -0.00000000000E+00 -0.00000000000E+00 -0.10493865936E+01  0.10493896919E+01  0.25500000000E-02 0.  1.
          2    1    1    2    0  502 -0.65528883299E+01 -0.22814884935E+02  0.22255956160E+03  0.22382184385E+03  0.25500000000E-02 0. -1.
         -2    1    1    2  502    0  0.65528883299E+01  0.22814884935E+02  0.33637992570E+03  0.33721641974E+03  0.25500000000E-02 0. -1.
<mgrwt>
<rscale>  0 0.48482809E+02</rscale>
<asrwt>0</asrwt>
<pdfrwt beam="1">  1        2 0.86152330E-01 0.48482809E+02</pdfrwt>
<pdfrwt beam="2">  1       -2 0.16144396E-03 0.48482809E+02</pdfrwt>
<totfact> 0.11210113E+06</totfact>
</mgrwt>
</event>
<event>
 4    1  0.2196664E-002  0.5301727E+02  0.7818608E-02  0.1429715E+00
         -2   -1    0    0  501    0 -0.00000000000E+00  0.00000000000E+00  0.14789802151E+02  0.14789802371E+02  0.25500000000E-02 0. -1.
          2   -1    0    0    0  501  0.00000000000E+00 -0.00000000000E+00 -0.47512991819E+02  0.47512991888E+02  0.25500000000E-02 0. -1.
          2    1    1    2    0  502  0.84625283542E+01 -0.24033594981E+02 -0.77678086483E+01  0.26637697565E+02  0.25500000000E-02 0.  1.
         -2    1    1    2  502    0 -0.84625283542E+01  0.24033594981E+02 -0.24955381019E+02  0.35665096694E+02  0.25500000000E-02 0.  1.
<mgrwt>
<rscale>  0 0.53017271E+02</rscale>
<asrwt>0</asrwt>
<pdfrwt beam="2">  1        2 0.73096910E-02 0.53017271E+02</pdfrwt>
<pdfrwt beam="1">  1       -2 0.22753542E-02 0.53017271E+02</pdfrwt>
<totfact> 0.43658487E+05</totfact>
</mgrwt>
</event>
<event>
 4    1  0.2196664E-002  0.4640139E+02  0.7818608E-02  0.1465778E+00
         -2   -1    0    0  501    0 -0.00000000000E+00  0.00000000000E+00  0.26666477099E+02  0.26666477221E+02  0.25500000000E-02 0.  1.
          2   -1    0    0    0  501  0.00000000000E+00 -0.00000000000E+00 -0.20185356232E+02  0.20185356393E+02  0.25500000000E-02 0.  1.
          2    1    1    2    0  502  0.17206594450E+02  0.12941867894E+02 -0.54870451400E+01  0.22218607248E+02  0.25500000000E-02 0. -1.
         -2    1    1    2  502    0 -0.17206594450E+02 -0.12941867894E+02  0.11968166007E+02  0.24633226367E+02  0.25500000000E-02 0. -1.
<mgrwt>
<rscale>  0 0.46401394E+02</rscale>
<asrwt>0</asrwt>
<pdfrwt beam="2">  1        2 0.31054395E-02 0.46401394E+02</pdfrwt>
<pdfrwt beam="1">  1       -2 0.41025349E-02 0.46401394E+02</pdfrwt>
<totfact> 0.53732859E+05</totfact>
</mgrwt>
</event>
<event>
 4    1  0.2196664E-002  0.4330051E+02  0.7818608E-02  0.1485239E+00
          2   -1    0    0    0  501  0.00000000000E+00  0.00000000000E+00  0.62675142246E+03  0.62675142246E+03  0.25500000000E-02 0. -1.
         -2   -1    0    0  501    0 -0.00000000000E+00 -0.00000000000E+00 -0.74787578667E+00  0.74788013397E+00  0.25500000000E-02 0. -1.
          2    1    1    2    0  502  0.18412622090E+02 -0.11322641111E+02  0.33079014709E+03  0.33149562331E+03  0.25500000000E-02 0. -1.
         -2    1    1    2  502    0 -0.18412622090E+02  0.11322641111E+02  0.29521339958E+03  0.29600367929E+03  0.25500000000E-02 0. -1.
<mgrwt>
<rscale>  0 0.43300512E+02</rscale>
<asrwt>0</asrwt>
<pdfrwt beam="1">  1        2 0.96422974E-01 0.43300512E+02</pdfrwt>
<pdfrwt beam="2">  1       -2 0.11505853E-03 0.43300512E+02</pdfrwt>
<totfact> 0.15237420E+06</totfact>
</mgrwt>
</event>
<event>
 4    1  0.2196664E-002  0.4942137E+02  0.7818608E-02  0.1448488E+00
          2   -1    0    0    0  501  0.00000000000E+00  0.00000000000E+00  0.49776421380E+03  0.49776421381E+03  0.25500000000E-02 0. -1.
         -2   -1    0    0  501    0 -0.00000000000E+00 -0.00000000000E+00 -0.12267198790E+01  0.12267225294E+01  0.25500000000E-02 0. -1.
          2    1    1    2    0  502 -0.13824712711E+02 -0.18301769194E+02  0.15543406972E+03  0.15711724117E+03  0.25500000000E-02 0. -1.
         -2    1    1    2  502    0  0.13824712711E+02  0.18301769194E+02  0.34110342420E+03  0.34187369517E+03  0.25500000000E-02 0. -1.
<mgrwt>
<rscale>  0 0.49421369E+02</rscale>
<asrwt>0</asrwt>
<pdfrwt beam="1">  1        2 0.76579313E-01 0.49421369E+02</pdfrwt>
<pdfrwt beam="2">  1       -2 0.18872584E-03 0.49421369E+02</pdfrwt>
<totfact> 0.10322952E+06</totfact>
</mgrwt>
</event>
<event>
 4    1  0.2196664E-002  0.5483446E+02  0.7818608E-02  0.1420883E+00
         -2   -1    0    0  501    0 -0.00000000000E+00  0.00000000000E+00  0.12601364077E+01  0.12601389877E+01  0.25500000000E-02 0. -1.
          2   -1    0    0    0  501  0.00000000000E+00 -0.00000000000E+00 -0.59652573052E+03  0.59652573052E+03  0.25500000000E-02 0. -1.
          2    1    1    2    0  502 -0.13816298245E+01  0.26955759767E+02 -0.24514313222E+03  0.24662456725E+03  0.25500000000E-02 0. -1.
         -2    1    1    2  502    0  0.13816298245E+01 -0.26955759767E+02 -0.35012246189E+03  0.35116130227E+03  0.25500000000E-02 0. -1.
<mgrwt>
<rscale>  0 0.54834462E+02</rscale>
<asrwt>0</asrwt>
<pdfrwt beam="2">  1        2 0.91772964E-01 0.54834462E+02</pdfrwt>
<pdfrwt beam="1">  1       -2 0.19386781E-03 0.54834462E+02</pdfrwt>
<totfact> 0.84076606E+05</totfact>
</mgrwt>
</event>
<event>
 4    1  0.2196664E-002  0.5614226E+02  0.7818608E-02  0.1414773E+00
          2   -1    0    0    0  501  0.00000000000E+00  0.00000000000E+00  0.41660039687E+03  0.41660039687E+03  0.25500000000E-02 0. -1.
         -2   -1    0    0  501    0 -0.00000000000E+00 -0.00000000000E+00 -0.18914721059E+01  0.18914738248E+01  0.25500000000E-02 0. -1.
          2    1    1    2    0  502  0.26310008581E+02 -0.97769489337E+01  0.21054412424E+03  0.21240676435E+03  0.25500000000E-02 0. -1.
         -2    1    1    2  502    0 -0.26310008581E+02  0.97769489337E+01  0.20416480052E+03  0.20608510635E+03  0.25500000000E-02 0. -1.
<mgrwt>
<rscale>  0 0.56142262E+02</rscale>
<asrwt>0</asrwt>
<pdfrwt beam="1">  1        2 0.64092385E-01 0.56142262E+02</pdfrwt>
<pdfrwt beam="2">  1       -2 0.29099577E-03 0.56142262E+02</pdfrwt>
<totfact> 0.70908196E+05</totfact>
</mgrwt>
</event>
<event>
 4    1  0.2196664E-002  0.4436843E+02  0.7818608E-02  0.1478323E+00
          2   -1    0    0    0  501  0.00000000000E+00  0.00000000000E+00  0.21613137316E+04  0.21613137316E+04  0.25500000000E-02 0.  1.
         -2   -1    0    0  501    0 -0.00000000000E+00 -0.00000000000E+00 -0.22769670912E+00  0.22771098754E+00  0.25500000000E-02 0.  1.
          2    1    1    2    0  502  0.20326635512E+02 -0.87913022221E+01  0.11436952480E+04  0.11439096465E+04  0.25500000000E-02 0.  1.
         -2    1    1    2  502    0 -0.20326635512E+02  0.87913022221E+01  0.10173907869E+04  0.10176317961E+04  0.25500000000E-02 0.  1.
<mgrwt>
<rscale>  0 0.44368433E+02</rscale>
<asrwt>0</asrwt>
<pdfrwt beam="1">  1        2 0.33248855E+00 0.44368433E+02</pdfrwt>
<pdfrwt beam="2">  1       -2 0.35033601E-04 0.44368433E+02</pdfrwt>
<totfact> 0.11467358E+06</totfact>
</mgrwt>
</event>
<event>
 4    1  0.2196664E-002  0.4543567E+02  0.7818608E-02  0.1471640E+00
          2   -1    0    0    0  501  0.00000000000E+00  0.00000000000E+00  0.94066743989E+02  0.94066744024E+02  0.25500000000E-02 0.  1.
         -2   -1    0    0  501    0 -0.00000000000E+00 -0.00000000000E+00 -0.54865287018E+01  0.54865292944E+01  0.25500000000E-02 0.  1.
          2    1    1    2    0  502 -0.22102399045E+02 -0.48786619091E+01  0.40028731814E+02  0.45984962354E+02  0.25500000000E-02 0. -1.
         -2    1    1    2  502    0  0.22102399045E+02  0.48786619091E+01  0.48551483474E+02  0.53568310964E+02  0.25500000000E-02 0. -1.
<mgrwt>
<rscale>  0 0.45435665E+02</rscale>
<asrwt>0</asrwt>
<pdfrwt beam="1">  1        2 0.14471807E-01 0.45435665E+02</pdfrwt>
<pdfrwt beam="2">  1       -2 0.84408137E-03 0.45435665E+02</pdfrwt>
<totfact> 0.75015662E+05</totfact>
</mgrwt>
</event>
<event>
 4    1  0.2196664E-002  0.6063076E+02  0.7818608E-02  0.1395204E+00
         -2   -1    0    0  501    0 -0.00000000000E+00  0.00000000000E+00  0.84308431818E+00  0.84308817454E+00  0.25500000000E-02 0.  1.
          2   -1    0    0    0  501  0.00000000000E+00 -0.00000000000E+00 -0.10900690406E+04  0.10900690406E+04  0.25500000000E-02 0.  1.
          2    1    1    2    0  502  0.16348566721E+02  0.23389075481E+02 -0.72871789835E+03  0.72927642212E+03  0.25500000000E-02 0.  1.
         -2    1    1    2  502    0 -0.16348566721E+02 -0.23389075481E+02 -0.36050805797E+03  0.36163570669E+03  0.25500000000E-02 0.  1.
<mgrwt>
<rscale>  0 0.60630758E+02</rscale>
<asrwt>0</asrwt>
<pdfrwt beam="2">  1        2 0.16770180E+00 0.60630758E+02</pdfrwt>
<pdfrwt beam="1">  1       -2 0.12970645E-03 0.60630758E+02</pdfrwt>
<totfact> 0.71642870E+05</totfact>
</mgrwt>
</event>
<event>
 4    1  0.2196664E-002  0.7001266E+02  0.7818608E-02  0.1360050E+00
         -2   -1    0    0  501    0 -0.00000000000E+00  0.00000000000E+00  0.47686523726E+00  0.47687205518E+00  0.25500000000E-02 0.  1.
          2   -1    0    0    0  501  0.00000000000E+00 -0.00000000000E+00 -0.25697705619E+04  0.25697705619E+04  0.25500000000E-02 0.  1.
          2    1    1    2    0  502  0.18545822456E+02  0.24313519053E+02 -0.65910265458E+03  0.65981164284E+03  0.25500000000E-02 0.  1.
         -2    1    1    2  502    0 -0.18545822456E+02 -0.24313519053E+02 -0.19101910421E+04  0.19104357911E+04  0.25500000000E-02 0.  1.
<mgrwt>
<rscale>  0 0.70012656E+02</rscale>
<asrwt>0</asrwt>
<pdfrwt beam="2">  1        2 0.39533823E+00 0.70012656E+02</pdfrwt>
<pdfrwt beam="1">  1       -2 0.73366465E-04 0.70012656E+02</pdfrwt>
<totfact> 0.28364773E+05</totfact>
</mgrwt>
</event>
<event>
 4    1  0.2196664E-002  0.1033690E+03  0.7818608E-02  0.1273367E+00
          2   -1    0    0    0  501  0.00000000000E+00  0.00000000000E+00  0.21394814235E+03  0.21394814237E+03  0.25500000000E-02 0. -1.
         -2   -1    0    0  501    0 -0.00000000000E+00 -0.00000000000E+00 -0.12485689246E+02  0.12485689506E+02  0.25500000000E-02 0. -1.
          2    1    1    2    0  502  0.24967893594E+02 -0.12566832141E+02  0.19596218270E+03  0.19794569467E+03  0.25500000000E-02 0.  1.
         -2    1    1    2  502    0 -0.24967893594E+02  0.12566832141E+02  0.55002704037E+01  0.28488137208E+02  0.25500000000E-02 0.  1.
<mgrwt>
<rscale>  0 0.10336905E+03</rscale>
<asrwt>0</asrwt>
<pdfrwt beam="1">  1        2 0.32915098E-01 0.10336905E+03</pdfrwt>
<pdfrwt beam="2">  1       -2 0.19208754E-02 0.10336905E+03</pdfrwt>
<totfact> 0.11282286E+05</totfact>
</mgrwt>
</event>
<event>
 4    1  0.2196664E-002  0.5491475E+02  0.7818608E-02  0.1420502E+00
          2   -1    0    0    0  501  0.00000000000E+00  0.00000000000E+00  0.58688564150E+03  0.58688564151E+03  0.25500000000E-02 0. -1.
         -2   -1    0    0  501    0 -0.00000000000E+00 -0.00000000000E+00 -0.12845885771E+01  0.12845911080E+01  0.25500000000E-02 0. -1.
          2    1    1    2    0  502  0.24895675275E+02 -0.69956513718E+01  0.19395285979E+03  0.19566922500E+03  0.25500000000E-02 0.  1.
         -2    1    1    2  502    0 -0.24895675275E+02  0.69956513718E+01  0.39164819314E+03  0.39250100761E+03  0.25500000000E-02 0.  1.
<mgrwt>
<rscale>  0 0.54914746E+02</rscale>
<asrwt>0</asrwt>
<pdfrwt beam="1">  1        2 0.90290209E-01 0.54914746E+02</pdfrwt>
<pdfrwt beam="2">  1       -2 0.19762897E-03 0.54914746E+02</pdfrwt>
<totfact> 0.83394253E+05</totfact>
</mgrwt>
</event>
<event>
 4    1  0.2196664E-002  0.6893895E+02  0.7818608E-02  0.1363739E+00
          2   -1    0    0    0  501  0.00000000000E+00  0.00000000000E+00  0.51981807930E+03  0.51981807931E+03  0.25500000000E-02 0. -1.
         -2   -1    0    0  501    0 -0.00000000000E+00 -0.00000000000E+00 -0.22856925799E+01  0.22856940023E+01  0.25500000000E-02 0. -1.
          2    1    1    2    0  502  0.31035045247E+02  0.10942220730E+02  0.18107363518E+03  0.18403958158E+03  0.25500000000E-02 0. -1.
         -2    1    1    2  502    0 -0.31035045247E+02 -0.10942220730E+02  0.33645875155E+03  0.33806419172E+03  0.25500000000E-02 0. -1.
<mgrwt>
<rscale>  0 0.68938950E+02</rscale>
<asrwt>0</asrwt>
<pdfrwt beam="1">  1        2 0.79972046E-01 0.68938950E+02</pdfrwt>
<pdfrwt beam="2">  1       -2 0.35164497E-03 0.68938950E+02</pdfrwt>
<totfact> 0.45221537E+05</totfact>
</mgrwt>
</event>
<event>
 4    1  0.2196664E-002  0.5046396E+02  0.7818608E-02  0.1442855E+00
         -2   -1    0    0  501    0 -0.00000000000E+00  0.00000000000E+00  0.50209780992E+00  0.50210428521E+00  0.25500000000E-02 0. -1.
          2   -1    0    0    0  501  0.00000000000E+00 -0.00000000000E+00 -0.12679777017E+04  0.12679777017E+04  0.25500000000E-02 0. -1.
          2    1    1    2    0  502 -0.15421408055E+01 -0.21213583506E+02 -0.29253225781E+03  0.29330447693E+03  0.25500000000E-02 0.  1.
         -2    1    1    2  502    0  0.15421408055E+01  0.21213583506E+02 -0.97494334610E+03  0.97517532907E+03  0.25500000000E-02 0.  1.
<mgrwt>
<rscale>  0 0.50463965E+02</rscale>
<asrwt>0</asrwt>
<pdfrwt beam="2">  1        2 0.19507093E+00 0.50463965E+02</pdfrwt>
<pdfrwt beam="1">  1       -2 0.77247330E-04 0.50463965E+02</pdfrwt>
<totfact> 0.11181012E+06</totfact>
</mgrwt>
</event>
<event>
 4    1  0.2196664E-002  0.5334153E+02  0.7818608E-02  0.1428109E+00
          2   -1    0    0    0  501  0.00000000000E+00  0.00000000000E+00  0.59893024422E+01  0.59893029851E+01  0.25500000000E-02 0.  1.
         -2   -1    0    0  501    0 -0.00000000000E+00 -0.00000000000E+00 -0.11876671041E+03  0.11876671044E+03  0.25500000000E-02 0.  1.
          2    1    1    2    0  502  0.98324267445E+01  0.23796802402E+02 -0.72654045913E+02  0.77081611388E+02  0.25500000000E-02 0.  1.
         -2    1    1    2  502    0 -0.98324267445E+01 -0.23796802402E+02 -0.40123362060E+02  0.47674402039E+02  0.25500000000E-02 0.  1.
<mgrwt>
<rscale>  0 0.53341533E+02</rscale>
<asrwt>0</asrwt>
<pdfrwt beam="1">  1        2 0.92143128E-03 0.53341533E+02</pdfrwt>
<pdfrwt beam="2">  1       -2 0.18271800E-01 0.53341533E+02</pdfrwt>
<totfact> 0.28767459E+05</totfact>
</mgrwt>
</event>
<event>
 4    1  0.2196664E-002  0.9102161E+02  0.7818608E-02  0.1300396E+00
         -2   -1    0    0  501    0 -0.00000000000E+00  0.00000000000E+00  0.28490364013E+03  0.28490364014E+03  0.25500000000E-02 0.  1.
          2   -1    0    0    0  501  0.00000000000E+00 -0.00000000000E+00 -0.72699436707E+01  0.72699441179E+01  0.25500000000E-02 0.  1.
          2    1    1    2    0  502  0.35196016353E+02  0.69798323526E+01  0.22868107071E+03  0.23147896176E+03  0.25500000000E-02 0. -1.
         -2    1    1    2  502    0 -0.35196016353E+02 -0.69798323526E+01  0.48952625746E+02  0.60694622503E+02  0.25500000000E-02 0. -1.
<mgrwt>
<rscale>  0 0.91021612E+02</rscale>
<asrwt>0</asrwt>
<pdfrwt beam="2">  1        2 0.11184528E-02 0.91021612E+02</pdfrwt>
<pdfrwt beam="1">  1       -2 0.43831333E-01 0.91021612E+02</pdfrwt>
<totfact> 0.52709089E+04</totfact>
</mgrwt>
</event>
<event>
 4    1  0.2196664E-002  0.7450699E+02  0.7818608E-02  0.1345405E+00
         -2   -1    0    0  501    0 -0.00000000000E+00  0.00000000000E+00  0.33951131550E+01  0.33951141127E+01  0.25500000000E-02 0. -1.
          2   -1    0    0    0  501  0.00000000000E+00 -0.00000000000E+00 -0.40877065572E+03  0.40877065573E+03  0.25500000000E-02 0. -1.
          2    1    1    2    0  502 -0.26839748831E+02  0.10493310892E+02 -0.33328545052E+03  0.33452903197E+03  0.25500000000E-02 0.  1.
         -2    1    1    2  502    0  0.26839748831E+02 -0.10493310892E+02 -0.72090092040E+02  0.77636737874E+02  0.25500000000E-02 0.  1.
<mgrwt>
<rscale>  0 0.74506988E+02</rscale>
<asrwt>0</asrwt>
<pdfrwt beam="2">  1        2 0.62887754E-01 0.74506988E+02</pdfrwt>
<pdfrwt beam="1">  1       -2 0.52232550E-03 0.74506988E+02</pdfrwt>
<totfact> 0.34179704E+05</totfact>
</mgrwt>
</event>
<event>
 4    1  0.2196664E-002  0.7492439E+02  0.7818608E-02  0.1344105E+00
          2   -1    0    0    0  501  0.00000000000E+00  0.00000000000E+00  0.78324173306E+02  0.78324173348E+02  0.25500000000E-02 0. -1.
         -2   -1    0    0  501    0 -0.00000000000E+00 -0.00000000000E+00 -0.17918045046E+02  0.17918045227E+02  0.25500000000E-02 0. -1.
          2    1    1    2    0  502 -0.48328757165E+00  0.37458568389E+02  0.29952147311E+02  0.47963622128E+02  0.25500000000E-02 0. -1.
         -2    1    1    2  502    0  0.48328757165E+00 -0.37458568389E+02  0.30453980950E+02  0.48278596447E+02  0.25500000000E-02 0. -1.
<mgrwt>
<rscale>  0 0.74924391E+02</rscale>
<asrwt>0</asrwt>
<pdfrwt beam="1">  1        2 0.12049873E-01 0.74924391E+02</pdfrwt>
<pdfrwt beam="2">  1       -2 0.27566223E-02 0.74924391E+02</pdfrwt>
<totfact> 0.19544807E+05</totfact>
</mgrwt>
</event>
<event>
 4    1  0.2196664E-002  0.6005266E+02  0.7818608E-02  0.1397611E+00
          2   -1    0    0    0  501  0.00000000000E+00  0.00000000000E+00  0.62265211785E+03  0.62265211786E+03  0.25500000000E-02 0. -1.
         -2   -1    0    0  501    0 -0.00000000000E+00 -0.00000000000E+00 -0.14479670944E+01  0.14479693398E+01  0.25500000000E-02 0. -1.
          2    1    1    2    0  502 -0.29410624443E+02 -0.37078013992E+01  0.26092629605E+03  0.26260476880E+03  0.25500000000E-02 0. -1.
         -2    1    1    2  502    0  0.29410624443E+02  0.37078013992E+01  0.36027785471E+03  0.36149531840E+03  0.25500000000E-02 0. -1.
<mgrwt>
<rscale>  0 0.60052660E+02</rscale>
<asrwt>0</asrwt>
<pdfrwt beam="1">  1        2 0.95792641E-01 0.60052660E+02</pdfrwt>
<pdfrwt beam="2">  1       -2 0.22276432E-03 0.60052660E+02</pdfrwt>
<totfact> 0.67692006E+05</totfact>
</mgrwt>
</event>
<event>
 4    1  0.2196664E-002  0.5070941E+02  0.7818608E-02  0.1441552E+00
          2   -1    0    0    0  501  0.00000000000E+00  0.00000000000E+00  0.12034522429E+01  0.12034549445E+01  0.25500000000E-02 0. -1.
         -2   -1    0    0  501    0 -0.00000000000E+00 -0.00000000000E+00 -0.53418020222E+03  0.53418020223E+03  0.25500000000E-02 0. -1.
          2    1    1    2    0  502 -0.37419929548E+01  0.25062817767E+02 -0.25756878112E+03  0.25881233425E+03  0.25500000000E-02 0. -1.
         -2    1    1    2  502    0  0.37419929548E+01 -0.25062817767E+02 -0.27540796886E+03  0.27657132292E+03  0.25500000000E-02 0. -1.
<mgrwt>
<rscale>  0 0.50709411E+02</rscale>
<asrwt>0</asrwt>
<pdfrwt beam="1">  1        2 0.18514713E-03 0.50709411E+02</pdfrwt>
<pdfrwt beam="2">  1       -2 0.82181381E-01 0.50709411E+02</pdfrwt>
<totfact> 0.15196840E+05</totfact>
</mgrwt>
</event>
<event>
 4    1  0.2196664E-002  0.4131937E+02  0.7818608E-02  0.1498721E+00
          2   -1    0    0    0  501  0.00000000000E+00  0.00000000000E+00  0.13332148672E+04  0.13332148672E+04  0.25500000000E-02 0.  1.
         -2   -1    0    0  501    0 -0.00000000000E+00 -0.00000000000E+00 -0.32014030979E+00  0.32015046533E+00  0.25500000000E-02 0.  1.
          2    1    1    2    0  502  0.17670181514E+02  0.10555907118E+02  0.72381949067E+03  0.72411208909E+03  0.25500000000E-02 0.  1.
         -2    1    1    2  502    0 -0.17670181514E+02 -0.10555907118E+02  0.60907523617E+03  0.60942292853E+03  0.25500000000E-02 0.  1.
<mgrwt>
<rscale>  0 0.41319370E+02</rscale>
<asrwt>0</asrwt>
<pdfrwt beam="1">  1        2 0.20511743E+00 0.41319370E+02</pdfrwt>
<pdfrwt beam="2">  1       -2 0.49251348E-04 0.41319370E+02</pdfrwt>
<totfact> 0.18075902E+06</totfact>
</mgrwt>
</event>
<event>
 4    1  0.2196664E-002  0.5397793E+02  0.7818608E-02  0.1424995E+00
          2   -1    0    0    0  501  0.00000000000E+00  0.00000000000E+00  0.12724474835E+02  0.12724475091E+02  0.25500000000E-02 0.  1.
         -2   -1    0    0  501    0 -0.00000000000E+00 -0.00000000000E+00 -0.57244343855E+02  0.57244343912E+02  0.25500000000E-02 0.  1.
          2    1    1    2    0  502 -0.16966534324E+02  0.19396879033E+02 -0.11865506201E+02  0.28370626484E+02  0.25500000000E-02 0.  1.
         -2    1    1    2  502    0  0.16966534324E+02 -0.19396879033E+02 -0.32654362820E+02  0.41598192519E+02  0.25500000000E-02 0.  1.
<mgrwt>
<rscale>  0 0.53977930E+02</rscale>
<asrwt>0</asrwt>
<pdfrwt beam="1">  1        2 0.19576116E-02 0.53977930E+02</pdfrwt>
<pdfrwt beam="2">  1       -2 0.88068220E-02 0.53977930E+02</pdfrwt>
<totfact> 0.33077821E+05</totfact>
</mgrwt>
</event>
<event>
 4    1  0.2196664E-002  0.5016046E+02  0.7818608E-02  0.1444478E+00
         -2   -1    0    0  501    0 -0.00000000000E+00  0.00000000000E+00  0.68075284769E+00  0.68075762363E+00  0.25500000000E-02 0.  1.
          2   -1    0    0    0  501  0.00000000000E+00 -0.00000000000E+00 -0.92400029400E+03  0.92400029400E+03  0.25500000000E-02 0.  1.
          2    1    1    2    0  502 -0.13593155151E+02  0.15054495356E+02 -0.73359544253E+03  0.73387579672E+03  0.25500000000E-02 0.  1.
         -2    1    1    2  502    0  0.13593155151E+02 -0.15054495356E+02 -0.18972409861E+03  0.19080525490E+03  0.25500000000E-02 0.  1.
<mgrwt>
<rscale>  0 0.50160464E+02</rscale>
<asrwt>0</asrwt>
<pdfrwt beam="2">  1        2 0.14215289E+00 0.50160464E+02</pdfrwt>
<pdfrwt beam="1">  1       -2 0.10473231E-03 0.50160464E+02</pdfrwt>
<totfact> 0.11424421E+06</totfact>
</mgrwt>
</event>
<event>
 4    1  0.2196664E-002  0.5120719E+02  0.7818608E-02  0.1438937E+00
          2   -1    0    0    0  501  0.00000000000E+00  0.00000000000E+00  0.10970079593E+04  0.10970079593E+04  0.25500000000E-02 0.  1.
         -2   -1    0    0  501    0 -0.00000000000E+00 -0.00000000000E+00 -0.59757186989E+00  0.59757731063E+00  0.25500000000E-02 0.  1.
          2    1    1    2    0  502  0.24433376022E+02  0.71043516161E+01  0.60914282763E+03  0.60967404909E+03  0.25500000000E-02 0.  1.
         -2    1    1    2  502    0 -0.24433376022E+02 -0.71043516161E+01  0.48726755980E+03  0.48793148752E+03  0.25500000000E-02 0.  1.
<mgrwt>
<rscale>  0 0.51207190E+02</rscale>
<asrwt>0</asrwt>
<pdfrwt beam="1">  1        2 0.16877152E+00 0.51207190E+02</pdfrwt>
<pdfrwt beam="2">  1       -2 0.91933975E-04 0.51207190E+02</pdfrwt>
<totfact> 0.10924199E+06</totfact>
</mgrwt>
</event>
<event>
 4    1  0.2196664E-002  0.7187915E+02  0.7818608E-02  0.1353817E+00
         -2   -1    0    0  501    0 -0.00000000000E+00  0.00000000000E+00  0.25442401714E+02  0.25442401842E+02  0.25500000000E-02 0. -1.
          2   -1    0    0    0  501  0.00000000000E+00 -0.00000000000E+00 -0.50767734111E+02  0.50767734175E+02  0.25500000000E-02 0. -1.
          2    1    1    2    0  502 -0.20493975046E+02  0.26193251672E+02 -0.27105627192E+02  0.42904597403E+02  0.25500000000E-02 0. -1.
         -2    1    1    2  502    0  0.20493975046E+02 -0.26193251672E+02  0.17802947953E+01  0.33305538614E+02  0.25500000000E-02 0. -1.
<mgrwt>
<rscale>  0 0.71879151E+02</rscale>
<asrwt>0</asrwt>
<pdfrwt beam="2">  1        2 0.78104206E-02 0.71879151E+02</pdfrwt>
<pdfrwt beam="1">  1       -2 0.39142157E-02 0.71879151E+02</pdfrwt>
<totfact> 0.19682401E+05</totfact>
</mgrwt>
</event>
<event>
 4    1  0.2196664E-002  0.9801188E+02  0.7818608E-02  0.1284533E+00
         -2   -1    0    0  501    0 -0.00000000000E+00  0.00000000000E+00  0.43230199214E+01  0.43230206735E+01  0.25500000000E-02 0. -1.
          2   -1    0    0    0  501  0.00000000000E+00 -0.00000000000E+00 -0.55553334698E+03  0.55553334699E+03  0.25500000000E-02 0. -1.
          2    1    1    2    0  502 -0.23262387208E+02 -0.26034586661E+02 -0.47204287218E+03  0.47333224224E+03  0.25500000000E-02 0. -1.
         -2    1    1    2  502    0  0.23262387208E+02  0.26034586661E+02 -0.79167454883E+02  0.86524125424E+02  0.25500000000E-02 0. -1.
<mgrwt>
<rscale>  0 0.98011876E+02</rscale>
<asrwt>0</asrwt>
<pdfrwt beam="2">  1        2 0.85466612E-01 0.98011876E+02</pdfrwt>
<pdfrwt beam="1">  1       -2 0.66508049E-03 0.98011876E+02</pdfrwt>
<totfact> 0.18386853E+05</totfact>
</mgrwt>
</event>
<event>
 4    1  0.2196664E-002  0.4324906E+02  0.7818608E-02  0.1485578E+00
         -2   -1    0    0  501    0 -0.00000000000E+00  0.00000000000E+00  0.33543997676E+00  0.33544966911E+00  0.25500000000E-02 0.  1.
          2   -1    0    0    0  501  0.00000000000E+00 -0.00000000000E+00 -0.13940304325E+04  0.13940304325E+04  0.25500000000E-02 0.  1.
          2    1    1    2    0  502 -0.18994041974E+02 -0.72373599427E+01 -0.45890724492E+03  0.45935717307E+03  0.25500000000E-02 0. -1.
         -2    1    1    2  502    0  0.18994041974E+02  0.72373599427E+01 -0.93478774761E+03  0.93500870910E+03  0.25500000000E-02 0. -1.
<mgrwt>
<rscale>  0 0.43249060E+02</rscale>
<asrwt>0</asrwt>
<pdfrwt beam="2">  1        2 0.21446158E+00 0.43249060E+02</pdfrwt>
<pdfrwt beam="1">  1       -2 0.51608012E-04 0.43249060E+02</pdfrwt>
<totfact> 0.16010233E+06</totfact>
</mgrwt>
</event>
<event>
 4    1  0.2196664E-002  0.4174700E+02  0.7818608E-02  0.1495735E+00
         -2   -1    0    0  501    0 -0.00000000000E+00  0.00000000000E+00  0.61689504200E+01  0.61689509470E+01  0.25500000000E-02 0. -1.
          2   -1    0    0    0  501  0.00000000000E+00 -0.00000000000E+00 -0.70628378948E+02  0.70628378994E+02  0.25500000000E-02 0. -1.
          2    1    1    2    0  502  0.20482510998E+02 -0.38222863896E+01 -0.29932176006E+02  0.36470238511E+02  0.25500000000E-02 0.  1.
         -2    1    1    2  502    0 -0.20482510998E+02  0.38222863896E+01 -0.34527252522E+02  0.40327091431E+02  0.25500000000E-02 0.  1.
<mgrwt>
<rscale>  0 0.41746999E+02</rscale>
<asrwt>0</asrwt>
<pdfrwt beam="2">  1        2 0.10865904E-01 0.41746999E+02</pdfrwt>
<pdfrwt beam="1">  1       -2 0.94906939E-03 0.41746999E+02</pdfrwt>
<totfact> 0.86746671E+05</totfact>
</mgrwt>
</event>
<event>
 4    1  0.2196664E-002  0.1614835E+03  0.7818608E-02  0.1187032E+00
         -2   -1    0    0  501    0 -0.00000000000E+00  0.00000000000E+00  0.15279724465E+02  0.15279724678E+02  0.25500000000E-02 0.  1.
          2   -1    0    0    0  501  0.00000000000E+00 -0.00000000000E+00 -0.42665876616E+03  0.42665876617E+03  0.25500000000E-02 0.  1.
          2    1    1    2    0  502  0.50323974321E+02  0.32703780839E+02 -0.57875374834E+02  0.83376247765E+02  0.25500000000E-02 0. -1.
         -2    1    1    2  502    0 -0.50323974321E+02 -0.32703780839E+02 -0.35350366687E+03  0.35856224309E+03  0.25500000000E-02 0. -1.
<mgrwt>
<rscale>  0 0.16148348E+03</rscale>
<asrwt>0</asrwt>
<pdfrwt beam="2">  1        2 0.65639801E-01 0.16148348E+03</pdfrwt>
<pdfrwt beam="1">  1       -2 0.23507272E-02 0.16148348E+03</pdfrwt>
<totfact> 0.42727283E+04</totfact>
</mgrwt>
</event>
<event>
 4    1  0.2196664E-002  0.1092885E+03  0.7818608E-02  0.1261893E+00
         -2   -1    0    0  501    0 -0.00000000000E+00  0.00000000000E+00  0.10160277458E+02  0.10160277778E+02  0.25500000000E-02 0. -1.
          2   -1    0    0    0  501  0.00000000000E+00 -0.00000000000E+00 -0.29388876813E+03  0.29388876815E+03  0.25500000000E-02 0. -1.
          2    1    1    2    0  502  0.11219775294E+02  0.41022001120E+02 -0.46405968214E+02  0.62946023115E+02  0.25500000000E-02 0.  1.
         -2    1    1    2  502    0 -0.11219775294E+02 -0.41022001120E+02 -0.23732252246E+03  0.24110302281E+03  0.25500000000E-02 0.  1.
<mgrwt>
<rscale>  0 0.10928845E+03</rscale>
<asrwt>0</asrwt>
<pdfrwt beam="2">  1        2 0.45213650E-01 0.10928845E+03</pdfrwt>
<pdfrwt beam="1">  1       -2 0.15631199E-02 0.10928845E+03</pdfrwt>
<totfact> 0.10936577E+05</totfact>
</mgrwt>
</event>
<event>
 4    1  0.2196664E-002  0.4151415E+02  0.7818608E-02  0.1497356E+00
         -2   -1    0    0  501    0 -0.00000000000E+00  0.00000000000E+00  0.56225394049E+03  0.56225394049E+03  0.25500000000E-02 0.  1.
          2   -1    0    0    0  501  0.00000000000E+00 -0.00000000000E+00 -0.76629961604E+00  0.76630385882E+00  0.25500000000E-02 0.  1.
          2    1    1    2    0  502 -0.17277333181E+02 -0.11039433024E+02  0.23683760528E+03  0.23772342461E+03  0.25500000000E-02 0. -1.
         -2    1    1    2  502    0  0.17277333181E+02  0.11039433024E+02  0.32465003559E+03  0.32529681975E+03  0.25500000000E-02 0. -1.
<mgrwt>
<rscale>  0 0.41514151E+02</rscale>
<asrwt>0</asrwt>
<pdfrwt beam="2">  1        2 0.11789284E-03 0.41514151E+02</pdfrwt>
<pdfrwt beam="1">  1       -2 0.86500412E-01 0.41514151E+02</pdfrwt>
<totfact> 0.23694844E+05</totfact>
</mgrwt>
</event>
<event>
 4    1  0.2196664E-002  0.7307466E+02  0.7818608E-02  0.1349939E+00
          2   -1    0    0    0  501  0.00000000000E+00  0.00000000000E+00  0.64209087450E+01  0.64209092513E+01  0.25500000000E-02 0. -1.
         -2   -1    0    0  501    0 -0.00000000000E+00 -0.00000000000E+00 -0.20791083852E+03  0.20791083853E+03  0.25500000000E-02 0. -1.
          2    1    1    2    0  502 -0.33515749628E+02  0.29518690242E+01 -0.14253014809E+03  0.14644747224E+03  0.25500000000E-02 0.  1.
         -2    1    1    2  502    0  0.33515749628E+02 -0.29518690242E+01 -0.58959781678E+02  0.67884275542E+02  0.25500000000E-02 0.  1.
<mgrwt>
<rscale>  0 0.73074663E+02</rscale>
<asrwt>0</asrwt>
<pdfrwt beam="1">  1        2 0.98783231E-03 0.73074663E+02</pdfrwt>
<pdfrwt beam="2">  1       -2 0.31986278E-01 0.73074663E+02</pdfrwt>
<totfact> 0.10758609E+05</totfact>
</mgrwt>
</event>
<event>
 4    1  0.2196664E-002  0.5658066E+02  0.7818608E-02  0.1412768E+00
          2   -1    0    0    0  501  0.00000000000E+00  0.00000000000E+00  0.10402641846E+04  0.10402641846E+04  0.25500000000E-02 0. -1.
         -2   -1    0    0  501    0 -0.00000000000E+00 -0.00000000000E+00 -0.76936282141E+00  0.76936704730E+00  0.25500000000E-02 0. -1.
          2    1    1    2    0  502  0.78892882654E+01 -0.22607708161E+02  0.24254093548E+03  0.24372003349E+03  0.25500000000E-02 0.  1.
         -2    1    1    2  502    0 -0.78892882654E+01  0.22607708161E+02  0.79695388631E+03  0.79731351817E+03  0.25500000000E-02 0.  1.
<mgrwt>
<rscale>  0 0.56580661E+02</rscale>
<asrwt>0</asrwt>
<pdfrwt beam="1">  1        2 0.16004090E+00 0.56580661E+02</pdfrwt>
<pdfrwt beam="2">  1       -2 0.11836365E-03 0.56580661E+02</pdfrwt>
<totfact> 0.85249866E+05</totfact>
</mgrwt>
</event>
<event>
 4    1  0.2196664E-002  0.5813428E+02  0.7818608E-02  0.1405832E+00
         -2   -1    0    0  501    0 -0.00000000000E+00  0.00000000000E+00  0.12363182216E+01  0.12363208514E+01  0.25500000000E-02 0. -1.
          2   -1    0    0    0  501  0.00000000000E+00 -0.00000000000E+00 -0.68339832735E+03  0.68339832736E+03  0.25500000000E-02 0. -1.
          2    1    1    2    0  502  0.11935369060E+02  0.22098558568E+02 -0.51340043695E+03  0.51401440446E+03  0.25500000000E-02 0.  1.
         -2    1    1    2  502    0 -0.11935369060E+02 -0.22098558568E+02 -0.16876157218E+03  0.17062024374E+03  0.25500000000E-02 0.  1.
<mgrwt>
<rscale>  0 0.58134283E+02</rscale>
<asrwt>0</asrwt>
<pdfrwt beam="2">  1        2 0.10513790E+00 0.58134283E+02</pdfrwt>
<pdfrwt beam="1">  1       -2 0.19020355E-03 0.58134283E+02</pdfrwt>
<totfact> 0.75181684E+05</totfact>
</mgrwt>
</event>
<event>
 4    1  0.2196664E-002  0.4574684E+02  0.7818608E-02  0.1469732E+00
          2   -1    0    0    0  501  0.00000000000E+00  0.00000000000E+00  0.96105295258E+02  0.96105295292E+02  0.25500000000E-02 0.  1.
         -2   -1    0    0  501    0 -0.00000000000E+00 -0.00000000000E+00 -0.54439602028E+01  0.54439608000E+01  0.25500000000E-02 0.  1.
          2    1    1    2    0  502  0.18702363011E+02  0.10083473341E+02  0.26529185203E+02  0.33989005441E+02  0.25500000000E-02 0.  1.
         -2    1    1    2  502    0 -0.18702363011E+02 -0.10083473341E+02  0.64132149852E+02  0.67560250651E+02  0.25500000000E-02 0.  1.
<mgrwt>
<rscale>  0 0.45746844E+02</rscale>
<asrwt>0</asrwt>
<pdfrwt beam="1">  1        2 0.14785429E-01 0.45746844E+02</pdfrwt>
<pdfrwt beam="2">  1       -2 0.83753246E-03 0.45746844E+02</pdfrwt>
<totfact> 0.74140520E+05</totfact>
</mgrwt>
</event>
<event>
 4    1  0.2196664E-002  0.7522210E+02  0.7818608E-02  0.1343185E+00
          2   -1    0    0    0  501  0.00000000000E+00  0.00000000000E+00  0.80724367993E+02  0.80724368033E+02  0.25500000000E-02 0. -1.
         -2   -1    0    0  501    0 -0.00000000000E+00 -0.00000000000E+00 -0.17523718692E+02  0.17523718878E+02  0.25500000000E-02 0. -1.
          2    1    1    2    0  502 -0.20585620560E+02 -0.29642170751E+02  0.45433039962E+02  0.58022299053E+02  0.25500000000E-02 0.  1.
         -2    1    1    2  502    0  0.20585620560E+02  0.29642170751E+02  0.17767609339E+02  0.40225787858E+02  0.25500000000E-02 0.  1.
<mgrwt>
<rscale>  0 0.75222101E+02</rscale>
<asrwt>0</asrwt>
<pdfrwt beam="1">  1        2 0.12419133E-01 0.75222101E+02</pdfrwt>
<pdfrwt beam="2">  1       -2 0.26959568E-02 0.75222101E+02</pdfrwt>
<totfact> 0.19491762E+05</totfact>
</mgrwt>
</event>
<event>
 4    1  0.2196664E-002  0.1030855E+03  0.7818608E-02  0.1273938E+00
          2   -1    0    0    0  501  0.00000000000E+00  0.00000000000E+00  0.19110586951E+04  0.19110586951E+04  0.25500000000E-02 0.  1.
         -2   -1    0    0  501    0 -0.00000000000E+00 -0.00000000000E+00 -0.13901471251E+01  0.13901494639E+01  0.25500000000E-02 0.  1.
          2    1    1    2    0  502 -0.38220470914E+02 -0.13759644336E+02  0.36625623256E+03  0.36850204899E+03  0.25500000000E-02 0.  1.
         -2    1    1    2  502    0  0.38220470914E+02  0.13759644336E+02  0.15434123154E+04  0.15439467956E+04  0.25500000000E-02 0.  1.
<mgrwt>
<rscale>  0 0.10308550E+03</rscale>
<asrwt>0</asrwt>
<pdfrwt beam="1">  1        2 0.29400851E+00 0.10308550E+03</pdfrwt>
<pdfrwt beam="2">  1       -2 0.21386935E-03 0.10308550E+03</pdfrwt>
<totfact> 0.14783153E+05</totfact>
</mgrwt>
</event>
<event>
 4    1  0.2196664E-002  0.1409024E+03  0.7818608E-02  0.1212120E+00
          2   -1    0    0    0  501  0.00000000000E+00  0.00000000000E+00  0.17598259767E+04  0.17598259767E+04  0.25500000000E-02 0. -1.
         -2   -1    0    0  501    0 -0.00000000000E+00 -0.00000000000E+00 -0.28203759444E+01  0.28203770972E+01  0.25500000000E-02 0. -1.
          2    1    1    2    0  502  0.59770529211E+02  0.29784951250E+02  0.11592646507E+04  0.11611865439E+04  0.25500000000E-02 0. -1.
         -2    1    1    2  502    0 -0.59770529211E+02 -0.29784951250E+02  0.59774095008E+03  0.60145980987E+03  0.25500000000E-02 0. -1.
<mgrwt>
<rscale>  0 0.14090240E+03</rscale>
<asrwt>0</asrwt>
<pdfrwt beam="1">  1        2 0.27074283E+00 0.14090240E+03</pdfrwt>
<pdfrwt beam="2">  1       -2 0.43390348E-03 0.14090240E+03</pdfrwt>
<totfact> 0.67395797E+04</totfact>
</mgrwt>
</event>
<event>
 4    1  0.2196664E-002  0.6811299E+02  0.7818608E-02  0.1366630E+00
          2   -1    0    0    0  501  0.00000000000E+00  0.00000000000E+00  0.41626852125E+02  0.41626852204E+02  0.25500000000E-02 0. -1.
         -2   -1    0    0  501    0 -0.00000000000E+00 -0.00000000000E+00 -0.27862901944E+02  0.27862902061E+02  0.25500000000E-02 0. -1.
          2    1    1    2    0  502  0.14750142075E+02 -0.30371828827E+02  0.23388509335E+01  0.33845013041E+02  0.25500000000E-02 0.  1.
         -2    1    1    2  502    0 -0.14750142075E+02  0.30371828827E+02  0.11425099248E+02  0.35644741223E+02  0.25500000000E-02 0.  1.
<mgrwt>
<rscale>  0 0.68112992E+02</rscale>
<asrwt>0</asrwt>
<pdfrwt beam="1">  1        2 0.64041311E-02 0.68112992E+02</pdfrwt>
<pdfrwt beam="2">  1       -2 0.42866003E-02 0.68112992E+02</pdfrwt>
<totfact> 0.21829628E+05</totfact>
</mgrwt>
</event>
<event>
 4    1  0.2196664E-002  0.5345581E+02  0.7818608E-02  0.1427546E+00
         -2   -1    0    0  501    0 -0.00000000000E+00  0.00000000000E+00  0.36153928341E+01  0.36153937334E+01  0.25500000000E-02 0. -1.
          2   -1    0    0    0  501  0.00000000000E+00 -0.00000000000E+00 -0.19759423264E+03  0.19759423266E+03  0.25500000000E-02 0. -1.
          2    1    1    2    0  502 -0.68826080752E+00 -0.20252130819E+02 -0.16259155389E+03  0.16384943060E+03  0.25500000000E-02 0.  1.
         -2    1    1    2  502    0  0.68826080752E+00  0.20252130819E+02 -0.31387285917E+02  0.37360195789E+02  0.25500000000E-02 0.  1.
<mgrwt>
<rscale>  0 0.53455808E+02</rscale>
<asrwt>0</asrwt>
<pdfrwt beam="2">  1        2 0.30399104E-01 0.53455808E+02</pdfrwt>
<pdfrwt beam="1">  1       -2 0.55621450E-03 0.53455808E+02</pdfrwt>
<totfact> 0.61981035E+05</totfact>
</mgrwt>
</event>
<event>
 4    1  0.2196664E-002  0.1323939E+03  0.7818608E-02  0.1223946E+00
          2   -1    0    0    0  501  0.00000000000E+00  0.00000000000E+00  0.28658492345E+02  0.28658492459E+02  0.25500000000E-02 0.  1.
         -2   -1    0    0  501    0 -0.00000000000E+00 -0.00000000000E+00 -0.15290529322E+03  0.15290529324E+03  0.25500000000E-02 0.  1.
          2    1    1    2    0  502 -0.63752082834E+02 -0.16543888486E+02 -0.71220889436E+02  0.97007439975E+02  0.25500000000E-02 0.  1.
         -2    1    1    2  502    0  0.63752082834E+02  0.16543888486E+02 -0.53025911436E+02  0.84556345723E+02  0.25500000000E-02 0.  1.
<mgrwt>
<rscale>  0 0.13239388E+03</rscale>
<asrwt>0</asrwt>
<pdfrwt beam="1">  1        2 0.44089989E-02 0.13239388E+03</pdfrwt>
<pdfrwt beam="2">  1       -2 0.23523891E-01 0.13239388E+03</pdfrwt>
<totfact> 0.26997152E+04</totfact>
</mgrwt>
</event>
<event>
 4    1  0.2196664E-002  0.4473894E+02  0.7818608E-02  0.1475978E+00
         -2   -1    0    0  501    0 -0.00000000000E+00  0.00000000000E+00  0.12115798313E+01  0.12115825148E+01  0.25500000000E-02 0. -1.
          2   -1    0    0    0  501  0.00000000000E+00 -0.00000000000E+00 -0.41300843893E+03  0.41300843894E+03  0.25500000000E-02 0. -1.
          2    1    1    2    0  502  0.15705268401E+02 -0.13919469851E+02 -0.27760696629E+03  0.27839905681E+03  0.25500000000E-02 0.  1.
         -2    1    1    2  502    0 -0.15705268401E+02  0.13919469851E+02 -0.13418989282E+03  0.13582096464E+03  0.25500000000E-02 0.  1.
<mgrwt>
<rscale>  0 0.44738943E+02</rscale>
<asrwt>0</asrwt>
<pdfrwt beam="2">  1        2 0.63539648E-01 0.44738943E+02</pdfrwt>
<pdfrwt beam="1">  1       -2 0.18639743E-03 0.44738943E+02</pdfrwt>
<totfact> 0.12416434E+06</totfact>
</mgrwt>
</event>
<event>
 4    1  0.2196664E-002  0.6469082E+02  0.7818608E-02  0.1379138E+00
          2   -1    0    0    0  501  0.00000000000E+00  0.00000000000E+00  0.43270763900E+02  0.43270763975E+02  0.25500000000E-02 0. -1.
         -2   -1    0    0  501    0 -0.00000000000E+00 -0.00000000000E+00 -0.24178580170E+02  0.24178580304E+02  0.25500000000E-02 0. -1.
          2    1    1    2    0  502 -0.19850551776E+02 -0.63336090801E+01 -0.16248841232E+02  0.26423168956E+02  0.25500000000E-02 0. -1.
         -2    1    1    2  502    0  0.19850551776E+02  0.63336090801E+01  0.35341024963E+02  0.41026175324E+02  0.25500000000E-02 0. -1.
<mgrwt>
<rscale>  0 0.64690823E+02</rscale>
<asrwt>0</asrwt>
<pdfrwt beam="1">  1        2 0.66570406E-02 0.64690823E+02</pdfrwt>
<pdfrwt beam="2">  1       -2 0.37197816E-02 0.64690823E+02</pdfrwt>
<totfact> 0.25307525E+05</totfact>
</mgrwt>
</event>
<event>
 4    1  0.2196664E-002  0.1072233E+03  0.7818608E-02  0.1265800E+00
          2   -1    0    0    0  501  0.00000000000E+00  0.00000000000E+00  0.99190995608E+02  0.99190995641E+02  0.25500000000E-02 0.  1.
         -2   -1    0    0  501    0 -0.00000000000E+00 -0.00000000000E+00 -0.28976517190E+02  0.28976517302E+02  0.25500000000E-02 0.  1.
          2    1    1    2    0  502 -0.45141794221E+02  0.28889617204E+02  0.33495522871E+02  0.63200804002E+02  0.25500000000E-02 0.  1.
         -2    1    1    2  502    0  0.45141794221E+02 -0.28889617204E+02  0.36718955547E+02  0.64966708941E+02  0.25500000000E-02 0.  1.
<mgrwt>
<rscale>  0 0.10722331E+03</rscale>
<asrwt>0</asrwt>
<pdfrwt beam="1">  1        2 0.15260153E-01 0.10722331E+03</pdfrwt>
<pdfrwt beam="2">  1       -2 0.44579258E-02 0.10722331E+03</pdfrwt>
<totfact> 0.77857575E+04</totfact>
</mgrwt>
</event>
<event>
 4    1  0.2196664E-002  0.7290779E+02  0.7818608E-02  0.1350475E+00
          2   -1    0    0    0  501  0.00000000000E+00  0.00000000000E+00  0.53326587878E+03  0.53326587879E+03  0.25500000000E-02 0. -1.
         -2   -1    0    0  501    0 -0.00000000000E+00 -0.00000000000E+00 -0.24919767573E+01  0.24919780620E+01  0.25500000000E-02 0. -1.
          2    1    1    2    0  502 -0.24468960277E+02  0.19346573132E+02  0.40401088682E+03  0.40521329764E+03  0.25500000000E-02 0.  1.
         -2    1    1    2  502    0  0.24468960277E+02 -0.19346573132E+02  0.12676301520E+03  0.13054455921E+03  0.25500000000E-02 0.  1.
<mgrwt>
<rscale>  0 0.72907792E+02</rscale>
<asrwt>0</asrwt>
<pdfrwt beam="1">  1        2 0.82040879E-01 0.72907792E+02</pdfrwt>
<pdfrwt beam="2">  1       -2 0.38338126E-03 0.72907792E+02</pdfrwt>
<totfact> 0.39460532E+05</totfact>
</mgrwt>
</event>
<event>
 4    1  0.2196664E-002  0.5689900E+02  0.7818608E-02  0.1411326E+00
         -2   -1    0    0  501    0 -0.00000000000E+00  0.00000000000E+00  0.27447866896E+01  0.27447878741E+01  0.25500000000E-02 0. -1.
          2   -1    0    0    0  501  0.00000000000E+00 -0.00000000000E+00 -0.29487680736E+03  0.29487680737E+03  0.25500000000E-02 0. -1.
          2    1    1    2    0  502  0.80130010374E+01  0.18974874804E+02 -0.43416270537E+02  0.48054413047E+02  0.25500000000E-02 0.  1.
         -2    1    1    2  502    0 -0.80130010374E+01 -0.18974874804E+02 -0.24871575014E+03  0.24956718220E+03  0.25500000000E-02 0.  1.
<mgrwt>
<rscale>  0 0.56899002E+02</rscale>
<asrwt>0</asrwt>
<pdfrwt beam="2">  1        2 0.45365638E-01 0.56899002E+02</pdfrwt>
<pdfrwt beam="1">  1       -2 0.42227520E-03 0.56899002E+02</pdfrwt>
<totfact> 0.60790770E+05</totfact>
</mgrwt>
</event>
<event>
 4    1  0.2196664E-002  0.5526252E+02  0.7818608E-02  0.1418861E+00
         -2   -1    0    0  501    0 -0.00000000000E+00  0.00000000000E+00  0.26939237656E+03  0.26939237657E+03  0.25500000000E-02 0. -1.
          2   -1    0    0    0  501  0.00000000000E+00 -0.00000000000E+00 -0.28341056651E+01  0.28341068123E+01  0.25500000000E-02 0. -1.
          2    1    1    2    0  502 -0.93841380836E+00  0.23780276163E+02  0.20243800485E+03  0.20383210731E+03  0.25500000000E-02 0.  1.
         -2    1    1    2  502    0  0.93841380836E+00 -0.23780276163E+02  0.64120266039E+02  0.68394376072E+02  0.25500000000E-02 0.  1.
<mgrwt>
<rscale>  0 0.55262523E+02</rscale>
<asrwt>0</asrwt>
<pdfrwt beam="2">  1        2 0.43601626E-03 0.55262523E+02</pdfrwt>
<pdfrwt beam="1">  1       -2 0.41444990E-01 0.55262523E+02</pdfrwt>
<totfact> 0.19201036E+05</totfact>
</mgrwt>
</event>
<event>
 4    1  0.2196664E-002  0.9653024E+02  0.7818608E-02  0.1287766E+00
          2   -1    0    0    0  501  0.00000000000E+00  0.00000000000E+00  0.50260145989E+03  0.50260145990E+03  0.25500000000E-02 0. -1.
         -2   -1    0    0  501    0 -0.00000000000E+00 -0.00000000000E+00 -0.46349281532E+01  0.46349288547E+01  0.25500000000E-02 0. -1.
          2    1    1    2    0  502 -0.38288008467E+02 -0.19648261011E+02  0.13415946544E+03  0.14089282425E+03  0.25500000000E-02 0.  1.
         -2    1    1    2  502    0  0.38288008467E+02  0.19648261011E+02  0.36380706630E+03  0.36634356450E+03  0.25500000000E-02 0.  1.
<mgrwt>
<rscale>  0 0.96530241E+02</rscale>
<asrwt>0</asrwt>
<pdfrwt beam="1">  1        2 0.77323320E-01 0.96530241E+02</pdfrwt>
<pdfrwt beam="2">  1       -2 0.71306576E-03 0.96530241E+02</pdfrwt>
<totfact> 0.18551433E+05</totfact>
</mgrwt>
</event>
<event>
 4    1  0.2196664E-002  0.4215704E+02  0.7818608E-02  0.1492912E+00
          2   -1    0    0    0  501  0.00000000000E+00  0.00000000000E+00  0.17938568645E+04  0.17938568645E+04  0.25500000000E-02 0. -1.
         -2   -1    0    0  501    0 -0.00000000000E+00 -0.00000000000E+00 -0.24767434638E+00  0.24768747315E+00  0.25500000000E-02 0. -1.
          2    1    1    2    0  502  0.29672800130E+01  0.20848667139E+02  0.85797614162E+03  0.85823454327E+03  0.25500000000E-02 0. -1.
         -2    1    1    2  502    0 -0.29672800130E+01 -0.20848667139E+02  0.93563304853E+03  0.93587000870E+03  0.25500000000E-02 0. -1.
<mgrwt>
<rscale>  0 0.42157045E+02</rscale>
<asrwt>0</asrwt>
<pdfrwt beam="1">  1        2 0.27595975E+00 0.42157045E+02</pdfrwt>
<pdfrwt beam="2">  1       -2 0.38107272E-04 0.42157045E+02</pdfrwt>
<totfact> 0.15255804E+06</totfact>
</mgrwt>
</event>
<event>
 4    1  0.2196664E-002  0.5423164E+02  0.7818608E-02  0.1423768E+00
         -2   -1    0    0  501    0 -0.00000000000E+00  0.00000000000E+00  0.26593842167E+01  0.26593854392E+01  0.25500000000E-02 0.  1.
          2   -1    0    0    0  501  0.00000000000E+00 -0.00000000000E+00 -0.27648035206E+03  0.27648035208E+03  0.25500000000E-02 0.  1.
          2    1    1    2    0  502 -0.20394595831E+02  0.43446302241E+01 -0.47691616696E+02  0.52050990966E+02  0.25500000000E-02 0. -1.
         -2    1    1    2  502    0  0.20394595831E+02 -0.43446302241E+01 -0.22612935115E+03  0.22708874655E+03  0.25500000000E-02 0. -1.
<mgrwt>
<rscale>  0 0.54231639E+02</rscale>
<asrwt>0</asrwt>
<pdfrwt beam="2">  1        2 0.42535416E-01 0.54231639E+02</pdfrwt>
<pdfrwt beam="1">  1       -2 0.40913635E-03 0.54231639E+02</pdfrwt>
<totfact> 0.67080617E+05</totfact>
</mgrwt>
</event>
<event>
 4    1  0.2196664E-002  0.5268269E+02  0.7818608E-02  0.1431387E+00
         -2   -1    0    0  501    0 -0.00000000000E+00  0.00000000000E+00  0.44802265213E+00  0.44802990896E+00  0.25500000000E-02 0.  1.
          2   -1    0    0    0  501  0.00000000000E+00 -0.00000000000E+00 -0.15487182795E+04  0.15487182795E+04  0.25500000000E-02 0.  1.
          2    1    1    2    0  502  0.42952611352E+01 -0.25459522859E+02 -0.92758030114E+03  0.92793957327E+03  0.25500000000E-02 0.  1.
         -2    1    1    2  502    0 -0.42952611352E+01  0.25459522859E+02 -0.62068995573E+03  0.62122673616E+03  0.25500000000E-02 0.  1.
<mgrwt>
<rscale>  0 0.52682691E+02</rscale>
<asrwt>0</asrwt>
<pdfrwt beam="2">  1        2 0.23826007E+00 0.52682691E+02</pdfrwt>
<pdfrwt beam="1">  1       -2 0.68928360E-04 0.52682691E+02</pdfrwt>
<totfact> 0.95066826E+05</totfact>
</mgrwt>
</event>
<event>
 4    1  0.2196664E-002  0.1521751E+03  0.7818608E-02  0.1197825E+00
          2   -1    0    0    0  501  0.00000000000E+00  0.00000000000E+00  0.26985172731E+02  0.26985172852E+02  0.25500000000E-02 0. -1.
         -2   -1    0    0  501    0 -0.00000000000E+00 -0.00000000000E+00 -0.21453682904E+03  0.21453682906E+03  0.25500000000E-02 0. -1.
          2    1    1    2    0  502 -0.52791518702E+02 -0.41417676375E+02 -0.15071264365E+03  0.16497475360E+03  0.25500000000E-02 0. -1.
         -2    1    1    2  502    0  0.52791518702E+02  0.41417676375E+02 -0.36839012661E+02  0.76547248308E+02  0.25500000000E-02 0. -1.
<mgrwt>
<rscale>  0 0.15217508E+03</rscale>
<asrwt>0</asrwt>
<pdfrwt beam="1">  1        2 0.41515652E-02 0.15217508E+03</pdfrwt>
<pdfrwt beam="2">  1       -2 0.33005665E-01 0.15217508E+03</pdfrwt>
<totfact> 0.16242943E+04</totfact>
</mgrwt>
</event>
<event>
 4    1  0.2196664E-002  0.4638318E+02  0.7818608E-02  0.1465887E+00
          2   -1    0    0    0  501  0.00000000000E+00  0.00000000000E+00  0.70705965553E+02  0.70705965599E+02  0.25500000000E-02 0.  1.
         -2   -1    0    0  501    0 -0.00000000000E+00 -0.00000000000E+00 -0.76068512628E+01  0.76068516902E+01  0.25500000000E-02 0.  1.
          2    1    1    2    0  502 -0.15833794703E+02  0.16597876641E+02  0.25786433985E+02  0.34512878000E+02  0.25500000000E-02 0. -1.
         -2    1    1    2  502    0  0.15833794703E+02 -0.16597876641E+02  0.37312680305E+02  0.43799939289E+02  0.25500000000E-02 0. -1.
<mgrwt>
<rscale>  0 0.46383177E+02</rscale>
<asrwt>0</asrwt>
<pdfrwt beam="1">  1        2 0.10877841E-01 0.46383177E+02</pdfrwt>
<pdfrwt beam="2">  1       -2 0.11702848E-02 0.46383177E+02</pdfrwt>
<totfact> 0.66639429E+05</totfact>
</mgrwt>
</event>
<event>
 4    1  0.2196664E-002  0.5637291E+02  0.7818608E-02  0.1413716E+00
         -2   -1    0    0  501    0 -0.00000000000E+00  0.00000000000E+00  0.48852121101E+01  0.48852127757E+01  0.25500000000E-02 0.  1.
          2   -1    0    0    0  501  0.00000000000E+00 -0.00000000000E+00 -0.16262877444E+03  0.16262877446E+03  0.25500000000E-02 0.  1.
          2    1    1    2    0  502  0.16107915857E+02  0.18509871286E+02 -0.12008898014E+03  0.12257015724E+03  0.25500000000E-02 0.  1.
         -2    1    1    2  502    0 -0.16107915857E+02 -0.18509871286E+02 -0.37654582190E+02  0.44943829996E+02  0.25500000000E-02 0.  1.
<mgrwt>
<rscale>  0 0.56372905E+02</rscale>
<asrwt>0</asrwt>
<pdfrwt beam="2">  1        2 0.25019807E-01 0.56372905E+02</pdfrwt>
<pdfrwt beam="1">  1       -2 0.75157127E-03 0.56372905E+02</pdfrwt>
<totfact> 0.50827054E+05</totfact>
</mgrwt>
</event>
<event>
 4    1  0.2196664E-002  0.9484844E+02  0.7818608E-02  0.1291518E+00
          2   -1    0    0    0  501  0.00000000000E+00  0.00000000000E+00  0.14246921009E+02  0.14246921237E+02  0.25500000000E-02 0.  1.
         -2   -1    0    0  501    0 -0.00000000000E+00 -0.00000000000E+00 -0.15786263117E+03  0.15786263119E+03  0.25500000000E-02 0.  1.
          2    1    1    2    0  502  0.16298052746E+02  0.20077551024E+02  0.32740073813E+00  0.25861975489E+02  0.25500000000E-02 0. -1.
         -2    1    1    2  502    0 -0.16298052746E+02 -0.20077551024E+02 -0.14394311090E+03  0.14624757694E+03  0.25500000000E-02 0. -1.
<mgrwt>
<rscale>  0 0.94848436E+02</rscale>
<asrwt>0</asrwt>
<pdfrwt beam="1">  1        2 0.21918341E-02 0.94848436E+02</pdfrwt>
<pdfrwt beam="2">  1       -2 0.24286557E-01 0.94848436E+02</pdfrwt>
<totfact> 0.62013130E+04</totfact>
</mgrwt>
</event>
<event>
 4    1  0.2196664E-002  0.1829336E+03  0.7818608E-02  0.1164994E+00
          2   -1    0    0    0  501  0.00000000000E+00  0.00000000000E+00  0.44060054613E+03  0.44060054614E+03  0.25500000000E-02 0.  1.
         -2   -1    0    0  501    0 -0.00000000000E+00 -0.00000000000E+00 -0.18988125628E+02  0.18988125799E+02  0.25500000000E-02 0.  1.
          2    1    1    2    0  502 -0.21115546211E+02 -0.87304495965E+02  0.25419291806E+03  0.26959595863E+03  0.25500000000E-02 0.  1.
         -2    1    1    2  502    0  0.21115546211E+02  0.87304495965E+02  0.16741950244E+03  0.18999271331E+03  0.25500000000E-02 0.  1.
<mgrwt>
<rscale>  0 0.18293363E+03</rscale>
<asrwt>0</asrwt>
<pdfrwt beam="1">  1        2 0.67784688E-01 0.18293363E+03</pdfrwt>
<pdfrwt beam="2">  1       -2 0.29212506E-02 0.18293363E+03</pdfrwt>
<totfact> 0.30326811E+04</totfact>
</mgrwt>
</event>
<event>
 4    1  0.2196664E-002  0.7754575E+02  0.7818608E-02  0.1336164E+00
         -2   -1    0    0  501    0 -0.00000000000E+00  0.00000000000E+00  0.19354042739E+02  0.19354042907E+02  0.25500000000E-02 0.  1.
          2   -1    0    0    0  501  0.00000000000E+00 -0.00000000000E+00 -0.77675541103E+02  0.77675541145E+02  0.25500000000E-02 0.  1.
          2    1    1    2    0  502 -0.35951355909E+02 -0.98785705722E+01 -0.15845033454E+02  0.40511124891E+02  0.25500000000E-02 0.  1.
         -2    1    1    2  502    0  0.35951355909E+02  0.98785705722E+01 -0.42476464909E+02  0.56518459161E+02  0.25500000000E-02 0.  1.
<mgrwt>
<rscale>  0 0.77545748E+02</rscale>
<asrwt>0</asrwt>
<pdfrwt beam="2">  1        2 0.11950083E-01 0.77545748E+02</pdfrwt>
<pdfrwt beam="1">  1       -2 0.29775451E-02 0.77545748E+02</pdfrwt>
<totfact> 0.17769177E+05</totfact>
</mgrwt>
</event>
<event>
 4    1  0.2196664E-002  0.9996174E+02  0.7818608E-02  0.1280376E+00
          2   -1    0    0    0  501  0.00000000000E+00  0.00000000000E+00  0.21011805855E+03  0.21011805856E+03  0.25500000000E-02 0. -1.
         -2   -1    0    0  501    0 -0.00000000000E+00 -0.00000000000E+00 -0.11888970820E+02  0.11888971093E+02  0.25500000000E-02 0. -1.
          2    1    1    2    0  502  0.42485835340E+02 -0.20319179763E+02  0.13628907027E+03  0.14419648384E+03  0.25500000000E-02 0.  1.
         -2    1    1    2  502    0 -0.42485835340E+02  0.20319179763E+02  0.61940017457E+02  0.77810545814E+02  0.25500000000E-02 0.  1.
<mgrwt>
<rscale>  0 0.99961743E+02</rscale>
<asrwt>0</asrwt>
<pdfrwt beam="1">  1        2 0.32325855E-01 0.99961743E+02</pdfrwt>
<pdfrwt beam="2">  1       -2 0.18290725E-02 0.99961743E+02</pdfrwt>
<totfact> 0.12278186E+05</totfact>
</mgrwt>
</event>
<event>
 4    1  0.2196664E-002  0.5760046E+02  0.7818608E-02  0.1408187E+00
         -2   -1    0    0  501    0 -0.00000000000E+00  0.00000000000E+00  0.18111192229E+03  0.18111192231E+03  0.25500000000E-02 0.  1.
          2   -1    0    0    0  501  0.00000000000E+00 -0.00000000000E+00 -0.45797819879E+01  0.45797826978E+01  0.25500000000E-02 0.  1.
          2    1    1    2    0  502 -0.15077261082E+02 -0.18404498303E+02  0.35944881304E+02  0.43105496842E+02  0.25500000000E-02 0.  1.
         -2    1    1    2  502    0  0.15077261082E+02  0.18404498303E+02  0.14058725900E+03  0.14258620816E+03  0.25500000000E-02 0.  1.
<mgrwt>
<rscale>  0 0.57600458E+02</rscale>
<asrwt>0</asrwt>
<pdfrwt beam="2">  1        2 0.70458198E-03 0.57600458E+02</pdfrwt>
<pdfrwt beam="1">  1       -2 0.27863370E-01 0.57600458E+02</pdfrwt>
<totfact> 0.20674425E+05</totfact>
</mgrwt>
</event>
<event>
 4    1  0.2196664E-002  0.5913893E+02  0.7818608E-02  0.1401481E+00
          2   -1    0    0    0  501  0.00000000000E+00  0.00000000000E+00  0.11836814245E+02  0.11836814520E+02  0.25500000000E-02 0. -1.
         -2   -1    0    0  501    0 -0.00000000000E+00 -0.00000000000E+00 -0.73867273380E+02  0.73867273424E+02  0.25500000000E-02 0. -1.
          2    1    1    2    0  502 -0.17513635009E+02 -0.10375244029E+02  0.65958433380E-01  0.20356263334E+02  0.25500000000E-02 0.  1.
         -2    1    1    2  502    0  0.17513635009E+02  0.10375244029E+02 -0.62096417569E+02  0.65347824610E+02  0.25500000000E-02 0.  1.
<mgrwt>
<rscale>  0 0.59138928E+02</rscale>
<asrwt>0</asrwt>
<pdfrwt beam="1">  1        2 0.18210484E-02 0.59138928E+02</pdfrwt>
<pdfrwt beam="2">  1       -2 0.11364196E-01 0.59138928E+02</pdfrwt>
<totfact> 0.25140032E+05</totfact>
</mgrwt>
</event>
<event>
 4    1  0.2196664E-002  0.5125605E+02  0.7818608E-02  0.1438682E+00
         -2   -1    0    0  501    0 -0.00000000000E+00  0.00000000000E+00  0.10559074054E+01  0.10559104845E+01  0.25500000000E-02 0.  1.
          2   -1    0    0    0  501  0.00000000000E+00 -0.00000000000E+00 -0.62201929735E+03  0.62201929735E+03  0.25500000000E-02 0.  1.
          2    1    1    2    0  502  0.39790336512E+00  0.23595566620E+02 -0.43197407081E+03  0.43261819998E+03  0.25500000000E-02 0.  1.
         -2    1    1    2  502    0 -0.39790336512E+00 -0.23595566620E+02 -0.18898931913E+03  0.19045700786E+03  0.25500000000E-02 0.  1.
<mgrwt>
<rscale>  0 0.51256053E+02</rscale>
<asrwt>0</asrwt>
<pdfrwt beam="2">  1        2 0.95694984E-01 0.51256053E+02</pdfrwt>
<pdfrwt beam="1">  1       -2 0.16244803E-03 0.51256053E+02</pdfrwt>
<totfact> 0.10056632E+06</totfact>
</mgrwt>
</event>
<event>
 4    1  0.2196664E-002  0.5017069E+02  0.7818608E-02  0.1444423E+00
         -2   -1    0    0  501    0 -0.00000000000E+00  0.00000000000E+00  0.33215360758E+01  0.33215370547E+01  0.25500000000E-02 0.  1.
          2   -1    0    0    0  501  0.00000000000E+00 -0.00000000000E+00 -0.18945284651E+03  0.18945284652E+03  0.25500000000E-02 0.  1.
          2    1    1    2    0  502 -0.24269321936E+02  0.63456706830E+01 -0.92743487109E+02  0.96076125709E+02  0.25500000000E-02 0.  1.
         -2    1    1    2  502    0  0.24269321936E+02 -0.63456706830E+01 -0.93387823322E+02  0.96698257870E+02  0.25500000000E-02 0.  1.
<mgrwt>
<rscale>  0 0.50170691E+02</rscale>
<asrwt>0</asrwt>
<pdfrwt beam="2">  1        2 0.29146583E-01 0.50170691E+02</pdfrwt>
<pdfrwt beam="1">  1       -2 0.51100578E-03 0.50170691E+02</pdfrwt>
<totfact> 0.71698467E+05</totfact>
</mgrwt>
</event>
<event>
 4    1  0.2196664E-002  0.6232089E+02  0.7818608E-02  0.1388342E+00
          2   -1    0    0    0  501  0.00000000000E+00  0.00000000000E+00  0.11036603496E+04  0.11036603496E+04  0.25500000000E-02 0. -1.
         -2   -1    0    0  501    0 -0.00000000000E+00 -0.00000000000E+00 -0.87977369569E+00  0.87977739123E+00  0.25500000000E-02 0. -1.
          2    1    1    2    0  502  0.29090950599E+02 -0.79364943703E+00  0.35398267700E+03  0.35517692621E+03  0.25500000000E-02 0.  1.
         -2    1    1    2  502    0 -0.29090950599E+02  0.79364943703E+00  0.74879789885E+03  0.74936320074E+03  0.25500000000E-02 0.  1.
<mgrwt>
<rscale>  0 0.62320892E+02</rscale>
<asrwt>0</asrwt>
<pdfrwt beam="1">  1        2 0.16979412E+00 0.62320892E+02</pdfrwt>
<pdfrwt beam="2">  1       -2 0.13534991E-03 0.62320892E+02</pdfrwt>
<totfact> 0.66811793E+05</totfact>
</mgrwt>
</event>
<event>
 4    1  0.2196664E-002  0.4991137E+02  0.7818608E-02  0.1445820E+00
          2   -1    0    0    0  501  0.00000000000E+00  0.00000000000E+00  0.14753394813E+03  0.14753394816E+03  0.25500000000E-02 0.  1.
         -2   -1    0    0  501    0 -0.00000000000E+00 -0.00000000000E+00 -0.42213069904E+01  0.42213077606E+01  0.25500000000E-02 0.  1.
          2    1    1    2    0  502  0.23060473636E+02  0.14095075330E+01  0.42970095965E+02  0.48787306849E+02  0.25500000000E-02 0. -1.
         -2    1    1    2  502    0 -0.23060473636E+02 -0.14095075330E+01  0.10034254518E+03  0.10296794907E+03  0.25500000000E-02 0. -1.
<mgrwt>
<rscale>  0 0.49911367E+02</rscale>
<asrwt>0</asrwt>
<pdfrwt beam="1">  1        2 0.22697530E-01 0.49911367E+02</pdfrwt>
<pdfrwt beam="2">  1       -2 0.64943193E-03 0.49911367E+02</pdfrwt>
<totfact> 0.67118413E+05</totfact>
</mgrwt>
</event>
<event>
 4    1  0.2196664E-002  0.7610719E+02  0.7818608E-02  0.1340476E+00
          2   -1    0    0    0  501  0.00000000000E+00  0.00000000000E+00  0.81770620156E+03  0.81770620156E+03  0.25500000000E-02 0. -1.
         -2   -1    0    0  501    0 -0.00000000000E+00 -0.00000000000E+00 -0.17708993764E+01  0.17709012124E+01  0.25500000000E-02 0. -1.
          2    1    1    2    0  502 -0.22423679514E+02 -0.28782560040E+02  0.52434483383E+03  0.52561274902E+03  0.25500000000E-02 0. -1.
         -2    1    1    2  502    0  0.22423679514E+02  0.28782560040E+02  0.29159046836E+03  0.29386435376E+03  0.25500000000E-02 0. -1.
<mgrwt>
<rscale>  0 0.76107192E+02</rscale>
<asrwt>0</asrwt>
<pdfrwt beam="1">  1        2 0.12580092E+00 0.76107192E+02</pdfrwt>
<pdfrwt beam="2">  1       -2 0.27244628E-03 0.76107192E+02</pdfrwt>
<totfact> 0.39208916E+05</totfact>
</mgrwt>
</event>
<event>
 4    1  0.2196664E-002  0.8223302E+02  0.7818608E-02  0.1322831E+00
         -2   -1    0    0  501    0 -0.00000000000E+00  0.00000000000E+00  0.26550236344E+02  0.26550236466E+02  0.25500000000E-02 0. -1.
          2   -1    0    0    0  501  0.00000000000E+00 -0.00000000000E+00 -0.63674288849E+02  0.63674288900E+02  0.25500000000E-02 0. -1.
          2    1    1    2    0  502 -0.25958328352E+02 -0.23569761341E+02 -0.42124588843E+02  0.54807385015E+02  0.25500000000E-02 0.  1.
         -2    1    1    2  502    0  0.25958328352E+02  0.23569761341E+02  0.50005363388E+01  0.35417140351E+02  0.25500000000E-02 0.  1.
<mgrwt>
<rscale>  0 0.82233021E+02</rscale>
<asrwt>0</asrwt>
<pdfrwt beam="2">  1        2 0.97960444E-02 0.82233021E+02</pdfrwt>
<pdfrwt beam="1">  1       -2 0.40846518E-02 0.82233021E+02</pdfrwt>
<totfact> 0.14368711E+05</totfact>
</mgrwt>
</event>
<event>
 4    1  0.2196664E-002  0.5124943E+02  0.7818608E-02  0.1438717E+00
          2   -1    0    0    0  501  0.00000000000E+00  0.00000000000E+00  0.26871215824E+01  0.26871227924E+01  0.25500000000E-02 0.  1.
         -2   -1    0    0  501    0 -0.00000000000E+00 -0.00000000000E+00 -0.24436026450E+03  0.24436026452E+03  0.25500000000E-02 0.  1.
          2    1    1    2    0  502 -0.24550184165E+02 -0.49498996520E+01 -0.94693312813E+02  0.97949152865E+02  0.25500000000E-02 0.  1.
         -2    1    1    2  502    0  0.24550184165E+02  0.49498996520E+01 -0.14697983011E+03  0.14909823445E+03  0.25500000000E-02 0.  1.
<mgrwt>
<rscale>  0 0.51249425E+02</rscale>
<asrwt>0</asrwt>
<pdfrwt beam="1">  1        2 0.41340361E-03 0.51249425E+02</pdfrwt>
<pdfrwt beam="2">  1       -2 0.37593869E-01 0.51249425E+02</pdfrwt>
<totfact> 0.24279814E+05</totfact>
</mgrwt>
</event>
<event>
 4    1  0.2196664E-002  0.6650833E+02  0.7818608E-02  0.1372386E+00
          2   -1    0    0    0  501  0.00000000000E+00  0.00000000000E+00  0.11092428912E+01  0.11092458222E+01  0.25500000000E-02 0.  1.
         -2   -1    0    0  501    0 -0.00000000000E+00 -0.00000000000E+00 -0.99693049801E+03  0.99693049802E+03  0.25500000000E-02 0.  1.
          2    1    1    2    0  502  0.20032167670E+02  0.10170188827E+02 -0.12999178692E+03  0.13191885823E+03  0.25500000000E-02 0.  1.
         -2    1    1    2  502    0 -0.20032167670E+02 -0.10170188827E+02 -0.86582946820E+03  0.86612088561E+03  0.25500000000E-02 0.  1.
<mgrwt>
<rscale>  0 0.66508331E+02</rscale>
<asrwt>0</asrwt>
<pdfrwt beam="1">  1        2 0.17065378E-03 0.66508331E+02</pdfrwt>
<pdfrwt beam="2">  1       -2 0.15337321E+00 0.66508331E+02</pdfrwt>
<totfact> 0.42122254E+04</totfact>
</mgrwt>
</event>
<event>
 4    1  0.2196664E-002  0.5819450E+02  0.7818608E-02  0.1405569E+00
         -2   -1    0    0  501    0 -0.00000000000E+00  0.00000000000E+00  0.29678328883E+01  0.29678339838E+01  0.25500000000E-02 0.  1.
          2   -1    0    0    0  501  0.00000000000E+00 -0.00000000000E+00 -0.28527545624E+03  0.28527545625E+03  0.25500000000E-02 0.  1.
          2    1    1    2    0  502  0.23942749396E+02 -0.15404520363E+02 -0.17091182980E+03  0.17326686951E+03  0.25500000000E-02 0. -1.
         -2    1    1    2  502    0 -0.23942749396E+02  0.15404520363E+02 -0.11139579355E+03  0.11497642073E+03  0.25500000000E-02 0. -1.
<mgrwt>
<rscale>  0 0.58194503E+02</rscale>
<asrwt>0</asrwt>
<pdfrwt beam="2">  1        2 0.43888510E-01 0.58194503E+02</pdfrwt>
<pdfrwt beam="1">  1       -2 0.45658999E-03 0.58194503E+02</pdfrwt>
<totfact> 0.56752833E+05</totfact>
</mgrwt>
</event>
<event>
 4    1  0.2196664E-002  0.5063343E+02  0.7818608E-02  0.1441955E+00
         -2   -1    0    0  501    0 -0.00000000000E+00  0.00000000000E+00  0.12301671199E+03  0.12301671201E+03  0.25500000000E-02 0.  1.
          2   -1    0    0    0  501  0.00000000000E+00 -0.00000000000E+00 -0.52101531973E+01  0.52101538213E+01  0.25500000000E-02 0.  1.
          2    1    1    2    0  502  0.18025357488E+02  0.13239952662E+02  0.88945292142E+02  0.91714093027E+02  0.25500000000E-02 0.  1.
         -2    1    1    2  502    0 -0.18025357488E+02 -0.13239952662E+02  0.28861266647E+02  0.36512772807E+02  0.25500000000E-02 0.  1.
<mgrwt>
<rscale>  0 0.50633426E+02</rscale>
<asrwt>0</asrwt>
<pdfrwt beam="2">  1        2 0.80156212E-03 0.50633426E+02</pdfrwt>
<pdfrwt beam="1">  1       -2 0.18925647E-01 0.50633426E+02</pdfrwt>
<totfact> 0.32361529E+05</totfact>
</mgrwt>
</event>
<event>
 4    1  0.2196664E-002  0.7463853E+02  0.7818608E-02  0.1344994E+00
         -2   -1    0    0  501    0 -0.00000000000E+00  0.00000000000E+00  0.59948907231E+01  0.59948912654E+01  0.25500000000E-02 0.  1.
          2   -1    0    0    0  501  0.00000000000E+00 -0.00000000000E+00 -0.23231907845E+03  0.23231907846E+03  0.25500000000E-02 0.  1.
          2    1    1    2    0  502  0.22931159121E+02 -0.26615711376E+02 -0.15335894270E+03  0.15733149545E+03  0.25500000000E-02 0.  1.
         -2    1    1    2  502    0 -0.22931159121E+02  0.26615711376E+02 -0.72965245028E+02  0.80982474272E+02  0.25500000000E-02 0.  1.
<mgrwt>
<rscale>  0 0.74638530E+02</rscale>
<asrwt>0</asrwt>
<pdfrwt beam="2">  1        2 0.35741390E-01 0.74638530E+02</pdfrwt>
<pdfrwt beam="1">  1       -2 0.92229110E-03 0.74638530E+02</pdfrwt>
<totfact> 0.27772590E+05</totfact>
</mgrwt>
</event>
<event>
 4    1  0.2196664E-002  0.4526063E+02  0.7818608E-02  0.1472721E+00
          2   -1    0    0    0  501  0.00000000000E+00  0.00000000000E+00  0.80875801117E+02  0.80875801157E+02  0.25500000000E-02 0. -1.
         -2   -1    0    0  501    0 -0.00000000000E+00 -0.00000000000E+00 -0.63323150950E+01  0.63323156084E+01  0.25500000000E-02 0. -1.
          2    1    1    2    0  502  0.20317345966E+02  0.98747128815E+01  0.34667660282E+02  0.41378148551E+02  0.25500000000E-02 0.  1.
         -2    1    1    2  502    0 -0.20317345966E+02 -0.98747128815E+01  0.39875825740E+02  0.45829968215E+02  0.25500000000E-02 0.  1.
<mgrwt>
<rscale>  0 0.45260627E+02</rscale>
<asrwt>0</asrwt>
<pdfrwt beam="1">  1        2 0.12442430E-01 0.45260627E+02</pdfrwt>
<pdfrwt beam="2">  1       -2 0.97420241E-03 0.45260627E+02</pdfrwt>
<totfact> 0.73048198E+05</totfact>
</mgrwt>
</event>
<event>
 4    1  0.2196664E-002  0.7751065E+02  0.7818608E-02  0.1336268E+00
         -2   -1    0    0  501    0 -0.00000000000E+00  0.00000000000E+00  0.19250469049E+03  0.19250469051E+03  0.25500000000E-02 0. -1.
          2   -1    0    0    0  501  0.00000000000E+00 -0.00000000000E+00 -0.78022774589E+01  0.78022778756E+01  0.25500000000E-02 0. -1.
          2    1    1    2    0  502 -0.24948581733E+02 -0.11301859397E+02  0.21493168329E+02  0.34815514468E+02  0.25500000000E-02 0.  1.
         -2    1    1    2  502    0  0.24948581733E+02  0.11301859397E+02  0.16320924470E+03  0.16549145392E+03  0.25500000000E-02 0.  1.
<mgrwt>
<rscale>  0 0.77510646E+02</rscale>
<asrwt>0</asrwt>
<pdfrwt beam="2">  1        2 0.12003504E-02 0.77510646E+02</pdfrwt>
<pdfrwt beam="1">  1       -2 0.29616107E-01 0.77510646E+02</pdfrwt>
<totfact> 0.95736098E+04</totfact>
</mgrwt>
</event>
<event>
 4    1  0.2196664E-002  0.6003635E+02  0.7818608E-02  0.1397679E+00
          2   -1    0    0    0  501  0.00000000000E+00  0.00000000000E+00  0.41334127298E+03  0.41334127299E+03  0.25500000000E-02 0. -1.
         -2   -1    0    0  501    0 -0.00000000000E+00 -0.00000000000E+00 -0.21800160779E+01  0.21800175692E+01  0.25500000000E-02 0. -1.
          2    1    1    2    0  502  0.24271382743E+02  0.90368627794E+01  0.31061960321E+03  0.31169745397E+03  0.25500000000E-02 0.  1.
         -2    1    1    2  502    0 -0.24271382743E+02 -0.90368627794E+01  0.10054165370E+03  0.10382383659E+03  0.25500000000E-02 0.  1.
<mgrwt>
<rscale>  0 0.60036353E+02</rscale>
<asrwt>0</asrwt>
<pdfrwt beam="1">  1        2 0.63590988E-01 0.60036353E+02</pdfrwt>
<pdfrwt beam="2">  1       -2 0.33538708E-03 0.60036353E+02</pdfrwt>
<totfact> 0.59707263E+05</totfact>
</mgrwt>
</event>
<event>
 4    1  0.2196664E-002  0.5080180E+02  0.7818608E-02  0.1441064E+00
         -2   -1    0    0  501    0 -0.00000000000E+00  0.00000000000E+00  0.13174573471E+03  0.13174573473E+03  0.25500000000E-02 0. -1.
          2   -1    0    0    0  501  0.00000000000E+00 -0.00000000000E+00 -0.48973549328E+01  0.48973555967E+01  0.25500000000E-02 0. -1.
          2    1    1    2    0  502  0.18439808901E+02 -0.93516331924E+01  0.10311260965E+03  0.10516506013E+03  0.25500000000E-02 0.  1.
         -2    1    1    2  502    0 -0.18439808901E+02  0.93516331924E+01  0.23735770126E+02  0.31478030206E+02  0.25500000000E-02 0.  1.
<mgrwt>
<rscale>  0 0.50801798E+02</rscale>
<asrwt>0</asrwt>
<pdfrwt beam="2">  1        2 0.75343927E-03 0.50801798E+02</pdfrwt>
<pdfrwt beam="1">  1       -2 0.20268575E-01 0.50801798E+02</pdfrwt>
<totfact> 0.31450085E+05</totfact>
</mgrwt>
</event>
<event>
 4    1  0.2196664E-002  0.4209621E+02  0.7818608E-02  0.1493329E+00
          2   -1    0    0    0  501  0.00000000000E+00  0.00000000000E+00  0.11040102306E+04  0.11040102306E+04  0.25500000000E-02 0. -1.
         -2   -1    0    0  501    0 -0.00000000000E+00 -0.00000000000E+00 -0.40128089880E+00  0.40128900090E+00  0.25500000000E-02 0. -1.
          2    1    1    2    0  502  0.30816592787E+01  0.20704149565E+02  0.49394212676E+03  0.49438545997E+03  0.25500000000E-02 0.  1.
         -2    1    1    2  502    0 -0.30816592787E+01 -0.20704149565E+02  0.60966682299E+03  0.61002605968E+03  0.25500000000E-02 0.  1.
<mgrwt>
<rscale>  0 0.42096209E+02</rscale>
<asrwt>0</asrwt>
<pdfrwt beam="1">  1        2 0.16984603E+00 0.42096209E+02</pdfrwt>
<pdfrwt beam="2">  1       -2 0.61736762E-04 0.42096209E+02</pdfrwt>
<totfact> 0.17644992E+06</totfact>
</mgrwt>
</event>
<event>
 4    1  0.2196664E-002  0.6380445E+02  0.7818608E-02  0.1382526E+00
          2   -1    0    0    0  501  0.00000000000E+00  0.00000000000E+00  0.17464990158E+04  0.17464990158E+04  0.25500000000E-02 0.  1.
         -2   -1    0    0  501    0 -0.00000000000E+00 -0.00000000000E+00 -0.58273560221E+00  0.58274118147E+00  0.25500000000E-02 0.  1.
          2    1    1    2    0  502  0.19398203936E+02 -0.24532177592E+02  0.70057450313E+03  0.70127223850E+03  0.25500000000E-02 0.  1.
         -2    1    1    2  502    0 -0.19398203936E+02  0.24532177592E+02  0.10453417771E+04  0.10458095185E+04  0.25500000000E-02 0.  1.
<mgrwt>
<rscale>  0 0.63804452E+02</rscale>
<asrwt>0</asrwt>
<pdfrwt beam="1">  1        2 0.26868796E+00 0.63804452E+02</pdfrwt>
<pdfrwt beam="2">  1       -2 0.89653462E-04 0.63804452E+02</pdfrwt>
<totfact> 0.55173297E+05</totfact>
</mgrwt>
</event>
<event>
 4    1  0.2196664E-002  0.5993080E+02  0.7818608E-02  0.1398122E+00
         -2   -1    0    0  501    0 -0.00000000000E+00  0.00000000000E+00  0.12160291338E+02  0.12160291606E+02  0.25500000000E-02 0. -1.
          2   -1    0    0    0  501  0.00000000000E+00 -0.00000000000E+00 -0.73840758139E+02  0.73840758183E+02  0.25500000000E-02 0. -1.
          2    1    1    2    0  502  0.17928703038E+02 -0.23989461350E+02 -0.32269840708E+02  0.44025847798E+02  0.25500000000E-02 0.  1.
         -2    1    1    2  502    0 -0.17928703038E+02  0.23989461350E+02 -0.29410626092E+02  0.41975201991E+02  0.25500000000E-02 0.  1.
<mgrwt>
<rscale>  0 0.59930798E+02</rscale>
<asrwt>0</asrwt>
<pdfrwt beam="2">  1        2 0.11360116E-01 0.59930798E+02</pdfrwt>
<pdfrwt beam="1">  1       -2 0.18708141E-02 0.59930798E+02</pdfrwt>
<totfact> 0.34842740E+05</totfact>
</mgrwt>
</event>
<event>
 4    1  0.2196664E-002  0.4212785E+02  0.7818608E-02  0.1493112E+00
         -2   -1    0    0  501    0 -0.00000000000E+00  0.00000000000E+00  0.78982241709E+00  0.78982653351E+00  0.25500000000E-02 0.  1.
          2   -1    0    0    0  501  0.00000000000E+00 -0.00000000000E+00 -0.56175633957E+03  0.56175633958E+03  0.25500000000E-02 0.  1.
          2    1    1    2    0  502 -0.81993142288E+00 -0.20971560062E+02 -0.30440873581E+03  0.30513137673E+03  0.25500000000E-02 0.  1.
         -2    1    1    2  502    0  0.81993142288E+00  0.20971560062E+02 -0.25655778134E+03  0.25741478938E+03  0.25500000000E-02 0.  1.
<mgrwt>
<rscale>  0 0.42127849E+02</rscale>
<asrwt>0</asrwt>
<pdfrwt beam="2">  1        2 0.86423733E-01 0.42127849E+02</pdfrwt>
<pdfrwt beam="1">  1       -2 0.12151191E-03 0.42127849E+02</pdfrwt>
<totfact> 0.15810723E+06</totfact>
</mgrwt>
</event>
<event>
 4    1  0.2196664E-002  0.1267192E+03  0.7818608E-02  0.1232407E+00
          2   -1    0    0    0  501  0.00000000000E+00  0.00000000000E+00  0.20575305448E+04  0.20575305449E+04  0.25500000000E-02 0.  1.
         -2   -1    0    0  501    0 -0.00000000000E+00 -0.00000000000E+00 -0.19510934006E+01  0.19510950670E+01  0.25500000000E-02 0.  1.
          2    1    1    2    0  502 -0.20058769209E+02 -0.59596296211E+02  0.11540602291E+04  0.11557720731E+04  0.25500000000E-02 0.  1.
         -2    1    1    2  502    0  0.20058769209E+02  0.59596296211E+02  0.90151922239E+03  0.90370956678E+03  0.25500000000E-02 0.  1.
<mgrwt>
<rscale>  0 0.12671915E+03</rscale>
<asrwt>0</asrwt>
<pdfrwt beam="1">  1        2 0.31654291E+00 0.12671915E+03</pdfrwt>
<pdfrwt beam="2">  1       -2 0.30016858E-03 0.12671915E+03</pdfrwt>
<totfact> 0.79117338E+04</totfact>
</mgrwt>
</event>
<event>
 4    1  0.2196664E-002  0.5293503E+02  0.7818608E-02  0.1430124E+00
          2   -1    0    0    0  501  0.00000000000E+00  0.00000000000E+00  0.57832564583E+02  0.57832564639E+02  0.25500000000E-02 0.  1.
         -2   -1    0    0  501    0 -0.00000000000E+00 -0.00000000000E+00 -0.12113058815E+02  0.12113059084E+02  0.25500000000E-02 0.  1.
          2    1    1    2    0  502 -0.60499441199E+01  0.25765734939E+02  0.22551733300E+02  0.34771476847E+02  0.25500000000E-02 0. -1.
         -2    1    1    2  502    0  0.60499441199E+01 -0.25765734939E+02  0.23167772468E+02  0.35174146875E+02  0.25500000000E-02 0. -1.
<mgrwt>
<rscale>  0 0.52935027E+02</rscale>
<asrwt>0</asrwt>
<pdfrwt beam="1">  1        2 0.88973179E-02 0.52935027E+02</pdfrwt>
<pdfrwt beam="2">  1       -2 0.18635475E-02 0.52935027E+02</pdfrwt>
<totfact> 0.45575993E+05</totfact>
</mgrwt>
</event>
<event>
 4    1  0.2196664E-002  0.5810108E+02  0.7818608E-02  0.1405978E+00
          2   -1    0    0    0  501  0.00000000000E+00  0.00000000000E+00  0.17788177918E+03  0.17788177919E+03  0.25500000000E-02 0.  1.
         -2   -1    0    0  501    0 -0.00000000000E+00 -0.00000000000E+00 -0.47443518420E+01  0.47443525273E+01  0.25500000000E-02 0.  1.
          2    1    1    2    0  502  0.17442691914E+02  0.20915889244E+02  0.54790504426E+02  0.61185956769E+02  0.25500000000E-02 0.  1.
         -2    1    1    2  502    0 -0.17442691914E+02 -0.20915889244E+02  0.11834692291E+03  0.12144017495E+03  0.25500000000E-02 0.  1.
<mgrwt>
<rscale>  0 0.58101078E+02</rscale>
<asrwt>0</asrwt>
<pdfrwt beam="1">  1        2 0.27366428E-01 0.58101078E+02</pdfrwt>
<pdfrwt beam="2">  1       -2 0.72990034E-03 0.58101078E+02</pdfrwt>
<totfact> 0.48439835E+05</totfact>
</mgrwt>
</event>
<event>
 4    1  0.2196664E-002  0.5541233E+02  0.7818608E-02  0.1418159E+00
          2   -1    0    0    0  501  0.00000000000E+00  0.00000000000E+00  0.93096588992E+03  0.93096588992E+03  0.25500000000E-02 0. -1.
         -2   -1    0    0  501    0 -0.00000000000E+00 -0.00000000000E+00 -0.82455180952E+00  0.82455575257E+00  0.25500000000E-02 0. -1.
          2    1    1    2    0  502 -0.14079248282E+02  0.17135556391E+02  0.18582116629E+03  0.18713994328E+03  0.25500000000E-02 0.  1.
         -2    1    1    2  502    0  0.14079248282E+02 -0.17135556391E+02  0.74432017182E+03  0.74465050239E+03  0.25500000000E-02 0.  1.
<mgrwt>
<rscale>  0 0.55412325E+02</rscale>
<asrwt>0</asrwt>
<pdfrwt beam="1">  1        2 0.14322583E+00 0.55412325E+02</pdfrwt>
<pdfrwt beam="2">  1       -2 0.12685416E-03 0.55412325E+02</pdfrwt>
<totfact> 0.89289247E+05</totfact>
</mgrwt>
</event>
<event>
 4    1  0.2196664E-002  0.4901789E+02  0.7818608E-02  0.1450712E+00
          2   -1    0    0    0  501  0.00000000000E+00  0.00000000000E+00  0.12967361975E+04  0.12967361975E+04  0.25500000000E-02 0.  1.
         -2   -1    0    0  501    0 -0.00000000000E+00 -0.00000000000E+00 -0.46322754061E+00  0.46323455925E+00  0.25500000000E-02 0.  1.
          2    1    1    2    0  502  0.25111255744E+01  0.21035107329E+02  0.32196877630E+03  0.32266495690E+03  0.25500000000E-02 0. -1.
         -2    1    1    2  502    0 -0.25111255744E+01 -0.21035107329E+02  0.97430419366E+03  0.97453447516E+03  0.25500000000E-02 0. -1.
<mgrwt>
<rscale>  0 0.49017894E+02</rscale>
<asrwt>0</asrwt>
<pdfrwt beam="1">  1        2 0.19949474E+00 0.49017894E+02</pdfrwt>
<pdfrwt beam="2">  1       -2 0.71267438E-04 0.49017894E+02</pdfrwt>
<totfact> 0.11968533E+06</totfact>
</mgrwt>
</event>
<event>
 4    1  0.2196664E-002  0.5670919E+02  0.7818608E-02  0.1412185E+00
         -2   -1    0    0  501    0 -0.00000000000E+00  0.00000000000E+00  0.50768148290E+00  0.50768788698E+00  0.25500000000E-02 0.  1.
          2   -1    0    0    0  501  0.00000000000E+00 -0.00000000000E+00 -0.15836269059E+04  0.15836269059E+04  0.25500000000E-02 0.  1.
          2    1    1    2    0  502 -0.16808061993E+02  0.17011982542E+02 -0.12171022551E+04  0.12173371833E+04  0.25500000000E-02 0. -1.
         -2    1    1    2  502    0  0.16808061993E+02 -0.17011982542E+02 -0.36601696924E+03  0.36679741040E+03  0.25500000000E-02 0. -1.
<mgrwt>
<rscale>  0 0.56709193E+02</rscale>
<asrwt>0</asrwt>
<pdfrwt beam="2">  1        2 0.24363095E+00 0.56709193E+02</pdfrwt>
<pdfrwt beam="1">  1       -2 0.78106604E-04 0.56709193E+02</pdfrwt>
<totfact> 0.78321600E+05</totfact>
</mgrwt>
</event>
<event>
 4    1  0.2196664E-002  0.4802956E+02  0.7818608E-02  0.1456269E+00
          2   -1    0    0    0  501  0.00000000000E+00  0.00000000000E+00  0.48817691612E+03  0.48817691613E+03  0.25500000000E-02 0.  1.
         -2   -1    0    0  501    0 -0.00000000000E+00 -0.00000000000E+00 -0.11813524534E+01  0.11813552056E+01  0.25500000000E-02 0.  1.
          2    1    1    2    0  502  0.21860003851E+02 -0.98877658327E+01  0.25409590236E+03  0.25522608660E+03  0.25500000000E-02 0.  1.
         -2    1    1    2  502    0 -0.21860003851E+02  0.98877658327E+01  0.23289966132E+03  0.23413218474E+03  0.25500000000E-02 0.  1.
<mgrwt>
<rscale>  0 0.48029561E+02</rscale>
<asrwt>0</asrwt>
<pdfrwt beam="1">  1        2 0.75104242E-01 0.48029561E+02</pdfrwt>
<pdfrwt beam="2">  1       -2 0.18174650E-03 0.48029561E+02</pdfrwt>
<totfact> 0.11010007E+06</totfact>
</mgrwt>
</event>
<event>
 4    1  0.2196664E-002  0.7089383E+02  0.7818608E-02  0.1357080E+00
          2   -1    0    0    0  501  0.00000000000E+00  0.00000000000E+00  0.12476564700E+02  0.12476564960E+02  0.25500000000E-02 0. -1.
         -2   -1    0    0  501    0 -0.00000000000E+00 -0.00000000000E+00 -0.10070750646E+03  0.10070750649E+03  0.25500000000E-02 0. -1.
          2    1    1    2    0  502 -0.27765392308E+02 -0.59595260158E+01 -0.77984881186E+02  0.82994425478E+02  0.25500000000E-02 0.  1.
         -2    1    1    2  502    0  0.27765392308E+02  0.59595260158E+01 -0.10246060577E+02  0.30189645977E+02  0.25500000000E-02 0.  1.
<mgrwt>
<rscale>  0 0.70893829E+02</rscale>
<asrwt>0</asrwt>
<pdfrwt beam="1">  1        2 0.19194716E-02 0.70893829E+02</pdfrwt>
<pdfrwt beam="2">  1       -2 0.15493462E-01 0.70893829E+02</pdfrwt>
<totfact> 0.14896714E+05</totfact>
</mgrwt>
</event>
<event>
 4    1  0.2196664E-002  0.5411568E+02  0.7818608E-02  0.1424328E+00
         -2   -1    0    0  501    0 -0.00000000000E+00  0.00000000000E+00  0.60769020209E+02  0.60769020263E+02  0.25500000000E-02 0. -1.
          2   -1    0    0    0  501  0.00000000000E+00 -0.00000000000E+00 -0.12047697259E+02  0.12047697529E+02  0.25500000000E-02 0. -1.
          2    1    1    2    0  502  0.12234757431E+02 -0.21113837602E+02  0.40089700426E+02  0.46932584784E+02  0.25500000000E-02 0.  1.
         -2    1    1    2  502    0 -0.12234757431E+02  0.21113837602E+02  0.86316225239E+01  0.25884133008E+02  0.25500000000E-02 0.  1.
<mgrwt>
<rscale>  0 0.54115682E+02</rscale>
<asrwt>0</asrwt>
<pdfrwt beam="2">  1        2 0.18534919E-02 0.54115682E+02</pdfrwt>
<pdfrwt beam="1">  1       -2 0.93490799E-02 0.54115682E+02</pdfrwt>
<totfact> 0.32497060E+05</totfact>
</mgrwt>
</event>
<event>
 4    1  0.2196664E-002  0.4421963E+02  0.7818608E-02  0.1479273E+00
         -2   -1    0    0  501    0 -0.00000000000E+00  0.00000000000E+00  0.51107281007E+00  0.51107917165E+00  0.25500000000E-02 0.  1.
          2   -1    0    0    0  501  0.00000000000E+00 -0.00000000000E+00 -0.95649964603E+03  0.95649964603E+03  0.25500000000E-02 0.  1.
          2    1    1    2    0  502 -0.15188151899E+02  0.13119236775E+02 -0.27723471307E+03  0.27796021382E+03  0.25500000000E-02 0. -1.
         -2    1    1    2  502    0  0.15188151899E+02 -0.13119236775E+02 -0.67875386015E+03  0.67905051138E+03  0.25500000000E-02 0. -1.
<mgrwt>
<rscale>  0 0.44219634E+02</rscale>
<asrwt>0</asrwt>
<pdfrwt beam="2">  1        2 0.14715236E+00 0.44219634E+02</pdfrwt>
<pdfrwt beam="1">  1       -2 0.78627841E-04 0.44219634E+02</pdfrwt>
<totfact> 0.15602999E+06</totfact>
</mgrwt>
</event>
<event>
 4    1  0.2196664E-002  0.4734402E+02  0.7818608E-02  0.1460217E+00
          2   -1    0    0    0  501  0.00000000000E+00  0.00000000000E+00  0.42589332115E+02  0.42589332191E+02  0.25500000000E-02 0.  1.
         -2   -1    0    0  501    0 -0.00000000000E+00 -0.00000000000E+00 -0.13157380113E+02  0.13157380360E+02  0.25500000000E-02 0.  1.
          2    1    1    2    0  502 -0.18213972922E+02  0.15102859939E+02  0.15564127380E+02  0.28321145025E+02  0.25500000000E-02 0. -1.
         -2    1    1    2  502    0  0.18213972922E+02 -0.15102859939E+02  0.13867824621E+02  0.27425567526E+02  0.25500000000E-02 0. -1.
<mgrwt>
<rscale>  0 0.47344019E+02</rscale>
<asrwt>0</asrwt>
<pdfrwt beam="1">  1        2 0.65522050E-02 0.47344019E+02</pdfrwt>
<pdfrwt beam="2">  1       -2 0.20242123E-02 0.47344019E+02</pdfrwt>
<totfact> 0.57318231E+05</totfact>
</mgrwt>
</event>
<event>
 4    1  0.2196664E-002  0.5538543E+02  0.7818608E-02  0.1418285E+00
          2   -1    0    0    0  501  0.00000000000E+00  0.00000000000E+00  0.43390826695E+03  0.43390826696E+03  0.25500000000E-02 0.  1.
         -2   -1    0    0  501    0 -0.00000000000E+00 -0.00000000000E+00 -0.17673918333E+01  0.17673936728E+01  0.25500000000E-02 0.  1.
          2    1    1    2    0  502 -0.23134789639E+00  0.22100461550E+02  0.84818932374E+02  0.87651213444E+02  0.25500000000E-02 0. -1.
         -2    1    1    2  502    0  0.23134789639E+00 -0.22100461550E+02  0.34732194274E+03  0.34802444718E+03  0.25500000000E-02 0. -1.
<mgrwt>
<rscale>  0 0.55385425E+02</rscale>
<asrwt>0</asrwt>
<pdfrwt beam="1">  1        2 0.66755143E-01 0.55385425E+02</pdfrwt>
<pdfrwt beam="2">  1       -2 0.27190648E-03 0.55385425E+02</pdfrwt>
<totfact> 0.74374395E+05</totfact>
</mgrwt>
</event>
<event>
 4    1  0.2196664E-002  0.7697234E+02  0.7818608E-02  0.1337870E+00
          2   -1    0    0    0  501  0.00000000000E+00  0.00000000000E+00  0.43106718319E+03  0.43106718320E+03  0.25500000000E-02 0. -1.
         -2   -1    0    0  501    0 -0.00000000000E+00 -0.00000000000E+00 -0.34360883677E+01  0.34360893139E+01  0.25500000000E-02 0. -1.
          2    1    1    2    0  502 -0.75152077466E+01  0.37650921719E+02  0.19875841756E+03  0.20243265253E+03  0.25500000000E-02 0.  1.
         -2    1    1    2  502    0  0.75152077466E+01 -0.37650921719E+02  0.22887267727E+03  0.23207061998E+03  0.25500000000E-02 0.  1.
<mgrwt>
<rscale>  0 0.76972336E+02</rscale>
<asrwt>0</asrwt>
<pdfrwt beam="1">  1        2 0.66317998E-01 0.76972336E+02</pdfrwt>
<pdfrwt beam="2">  1       -2 0.52862929E-03 0.76972336E+02</pdfrwt>
<totfact> 0.31986710E+05</totfact>
</mgrwt>
</event>
<event>
 4    1  0.2196664E-002  0.5036311E+02  0.7818608E-02  0.1443393E+00
         -2   -1    0    0  501    0 -0.00000000000E+00  0.00000000000E+00  0.48579950527E+00  0.48580619780E+00  0.25500000000E-02 0.  1.
          2   -1    0    0    0  501  0.00000000000E+00 -0.00000000000E+00 -0.13052841374E+04  0.13052841374E+04  0.25500000000E-02 0.  1.
          2    1    1    2    0  502 -0.25111112636E+02 -0.17668248207E+01 -0.63557439200E+03  0.63607271394E+03  0.25500000000E-02 0.  1.
         -2    1    1    2  502    0  0.25111112636E+02  0.17668248207E+01 -0.66922394588E+03  0.66969722965E+03  0.25500000000E-02 0.  1.
<mgrwt>
<rscale>  0 0.50363112E+02</rscale>
<asrwt>0</asrwt>
<pdfrwt beam="2">  1        2 0.20081014E+00 0.50363112E+02</pdfrwt>
<pdfrwt beam="1">  1       -2 0.74739945E-04 0.50363112E+02</pdfrwt>
<totfact> 0.11180074E+06</totfact>
</mgrwt>
</event>
<event>
 4    1  0.2196664E-002  0.4476570E+02  0.7818608E-02  0.1475810E+00
         -2   -1    0    0  501    0 -0.00000000000E+00  0.00000000000E+00  0.28268870732E+00  0.28270020825E+00  0.25500000000E-02 0. -1.
          2   -1    0    0    0  501  0.00000000000E+00 -0.00000000000E+00 -0.17722028883E+04  0.17722028883E+04  0.25500000000E-02 0. -1.
          2    1    1    2    0  502 -0.72949957059E+01  0.19989730693E+02 -0.61110984399E+03  0.61148021041E+03  0.25500000000E-02 0. -1.
         -2    1    1    2  502    0  0.72949957059E+01 -0.19989730693E+02 -0.11608103556E+04  0.11610053781E+04  0.25500000000E-02 0. -1.
<mgrwt>
<rscale>  0 0.44765698E+02</rscale>
<asrwt>0</asrwt>
<pdfrwt beam="2">  1        2 0.27263770E+00 0.44765698E+02</pdfrwt>
<pdfrwt beam="1">  1       -2 0.43492874E-04 0.44765698E+02</pdfrwt>
<totfact> 0.13270333E+06</totfact>
</mgrwt>
</event>
<event>
 4    1  0.2196664E-002  0.6573453E+02  0.7818608E-02  0.1375230E+00
         -2   -1    0    0  501    0 -0.00000000000E+00  0.00000000000E+00  0.63778335369E+02  0.63778335420E+02  0.25500000000E-02 0. -1.
          2   -1    0    0    0  501  0.00000000000E+00 -0.00000000000E+00 -0.16937679858E+02  0.16937680050E+02  0.25500000000E-02 0. -1.
          2    1    1    2    0  502  0.71813304644E+01 -0.24383897402E+02  0.49004218846E+02  0.55204704790E+02  0.25500000000E-02 0.  1.
         -2    1    1    2  502    0 -0.71813304644E+01  0.24383897402E+02 -0.21635633356E+01  0.25511310679E+02  0.25500000000E-02 0.  1.
<mgrwt>
<rscale>  0 0.65734528E+02</rscale>
<asrwt>0</asrwt>
<pdfrwt beam="2">  1        2 0.26057969E-02 0.65734528E+02</pdfrwt>
<pdfrwt beam="1">  1       -2 0.98120515E-02 0.65734528E+02</pdfrwt>
<totfact> 0.20048866E+05</totfact>
</mgrwt>
</event>
<event>
 4    1  0.2196664E-002  0.5828646E+02  0.7818608E-02  0.1405167E+00
         -2   -1    0    0  501    0 -0.00000000000E+00  0.00000000000E+00  0.29312718501E+00  0.29313827640E+00  0.25500000000E-02 0. -1.
          2   -1    0    0    0  501  0.00000000000E+00 -0.00000000000E+00 -0.28974177003E+04  0.28974177003E+04  0.25500000000E-02 0. -1.
          2    1    1    2    0  502 -0.41877917265E+01 -0.28830491961E+02 -0.14868490559E+04  0.14871344425E+04  0.25500000000E-02 0.  1.
         -2    1    1    2  502    0  0.41877917265E+01  0.28830491961E+02 -0.14102755172E+04  0.14105763961E+04  0.25500000000E-02 0.  1.
<mgrwt>
<rscale>  0 0.58286464E+02</rscale>
<asrwt>0</asrwt>
<pdfrwt beam="2">  1        2 0.44573364E+00 0.58286464E+02</pdfrwt>
<pdfrwt beam="1">  1       -2 0.45099664E-04 0.58286464E+02</pdfrwt>
<totfact> 0.35770989E+05</totfact>
</mgrwt>
</event>
<event>
 4    1  0.2196664E-002  0.1085593E+03  0.7818608E-02  0.1263261E+00
         -2   -1    0    0  501    0 -0.00000000000E+00  0.00000000000E+00  0.27456543182E+01  0.27456555023E+01  0.25500000000E-02 0.  1.
          2   -1    0    0    0  501  0.00000000000E+00 -0.00000000000E+00 -0.10730694832E+04  0.10730694832E+04  0.25500000000E-02 0.  1.
          2    1    1    2    0  502 -0.29829560227E+02  0.26130411975E+01 -0.98381471449E+03  0.98427029982E+03  0.25500000000E-02 0.  1.
         -2    1    1    2  502    0  0.29829560227E+02 -0.26130411975E+01 -0.86509114374E+02  0.91544838871E+02  0.25500000000E-02 0.  1.
<mgrwt>
<rscale>  0 0.10855926E+03</rscale>
<asrwt>0</asrwt>
<pdfrwt beam="2">  1        2 0.16508728E+00 0.10855926E+03</pdfrwt>
<pdfrwt beam="1">  1       -2 0.42240930E-03 0.10855926E+03</pdfrwt>
<totfact> 0.15749421E+05</totfact>
</mgrwt>
</event>
<event>
 4    1  0.2196664E-002  0.4226898E+02  0.7818608E-02  0.1492148E+00
          2   -1    0    0    0  501  0.00000000000E+00  0.00000000000E+00  0.63808878802E+03  0.63808878803E+03  0.25500000000E-02 0. -1.
         -2   -1    0    0  501    0 -0.00000000000E+00 -0.00000000000E+00 -0.70000471389E+00  0.70000935849E+00  0.25500000000E-02 0. -1.
          2    1    1    2    0  502 -0.84575349160E+01  0.18979338407E+02  0.37707130381E+03  0.37764336794E+03  0.25500000000E-02 0. -1.
         -2    1    1    2  502    0  0.84575349160E+01 -0.18979338407E+02  0.26031747950E+03  0.26114542945E+03  0.25500000000E-02 0. -1.
<mgrwt>
<rscale>  0 0.42268979E+02</rscale>
<asrwt>0</asrwt>
<pdfrwt beam="1">  1        2 0.98167863E-01 0.42268979E+02</pdfrwt>
<pdfrwt beam="2">  1       -2 0.10769300E-03 0.42268979E+02</pdfrwt>
<totfact> 0.16227732E+06</totfact>
</mgrwt>
</event>
<event>
 4    1  0.2196664E-002  0.4707981E+02  0.7818608E-02  0.1461760E+00
          2   -1    0    0    0  501  0.00000000000E+00  0.00000000000E+00  0.95595461688E+03  0.95595461689E+03  0.25500000000E-02 0. -1.
         -2   -1    0    0  501    0 -0.00000000000E+00 -0.00000000000E+00 -0.57965551046E+00  0.57966111937E+00  0.25500000000E-02 0. -1.
          2    1    1    2    0  502  0.17908490465E+02  0.14164517585E+02  0.59401077664E+03  0.59444945148E+03  0.25500000000E-02 0. -1.
         -2    1    1    2  502    0 -0.17908490465E+02 -0.14164517585E+02  0.36136418473E+03  0.36208482653E+03  0.25500000000E-02 0. -1.
<mgrwt>
<rscale>  0 0.47079807E+02</rscale>
<asrwt>0</asrwt>
<pdfrwt beam="1">  1        2 0.14706896E+00 0.47079807E+02</pdfrwt>
<pdfrwt beam="2">  1       -2 0.89178797E-04 0.47079807E+02</pdfrwt>
<totfact> 0.13389344E+06</totfact>
</mgrwt>
</event>
<event>
 4    1  0.2196664E-002  0.1009969E+03  0.7818608E-02  0.1278214E+00
         -2   -1    0    0  501    0 -0.00000000000E+00  0.00000000000E+00  0.27950169999E+02  0.27950170115E+02  0.25500000000E-02 0.  1.
          2   -1    0    0    0  501  0.00000000000E+00 -0.00000000000E+00 -0.91237103893E+02  0.91237103928E+02  0.25500000000E-02 0.  1.
          2    1    1    2    0  502  0.28568523519E+02  0.35714115822E+02 -0.56910852653E+02  0.73010299007E+02  0.25500000000E-02 0.  1.
         -2    1    1    2  502    0 -0.28568523519E+02 -0.35714115822E+02 -0.63760812408E+01  0.46176975036E+02  0.25500000000E-02 0.  1.
<mgrwt>
<rscale>  0 0.10099688E+03</rscale>
<asrwt>0</asrwt>
<pdfrwt beam="2">  1        2 0.14036477E-01 0.10099688E+03</pdfrwt>
<pdfrwt beam="1">  1       -2 0.43000262E-02 0.10099688E+03</pdfrwt>
<totfact> 0.89737463E+04</totfact>
</mgrwt>
</event>
<event>
 4    1  0.2196664E-002  0.5015941E+02  0.7818608E-02  0.1444484E+00
          2   -1    0    0    0  501  0.00000000000E+00  0.00000000000E+00  0.47392353877E+03  0.47392353878E+03  0.25500000000E-02 0. -1.
         -2   -1    0    0  501    0 -0.00000000000E+00 -0.00000000000E+00 -0.13271994362E+01  0.13272018859E+01  0.25500000000E-02 0. -1.
          2    1    1    2    0  502 -0.23778017353E+02 -0.57153408325E+01  0.28899411310E+03  0.29002699296E+03  0.25500000000E-02 0. -1.
         -2    1    1    2  502    0  0.23778017353E+02  0.57153408325E+01  0.18360222623E+03  0.18522374771E+03  0.25500000000E-02 0. -1.
<mgrwt>
<rscale>  0 0.50159411E+02</rscale>
<asrwt>0</asrwt>
<pdfrwt beam="1">  1        2 0.72911358E-01 0.50159411E+02</pdfrwt>
<pdfrwt beam="2">  1       -2 0.20418459E-03 0.50159411E+02</pdfrwt>
<totfact> 0.97993489E+05</totfact>
</mgrwt>
</event>
<event>
 4    1  0.2196664E-002  0.5377250E+02  0.7818608E-02  0.1425995E+00
         -2   -1    0    0  501    0 -0.00000000000E+00  0.00000000000E+00  0.41849026037E+02  0.41849026115E+02  0.25500000000E-02 0.  1.
          2   -1    0    0    0  501  0.00000000000E+00 -0.00000000000E+00 -0.17273293172E+02  0.17273293360E+02  0.25500000000E-02 0.  1.
          2    1    1    2    0  502  0.19368082075E+02 -0.16879319263E+02  0.35722697804E+01  0.25938294854E+02  0.25500000000E-02 0.  1.
         -2    1    1    2  502    0 -0.19368082075E+02  0.16879319263E+02  0.21003463085E+02  0.33184024622E+02  0.25500000000E-02 0.  1.
<mgrwt>
<rscale>  0 0.53772502E+02</rscale>
<asrwt>0</asrwt>
<pdfrwt beam="2">  1        2 0.26574298E-02 0.53772502E+02</pdfrwt>
<pdfrwt beam="1">  1       -2 0.64383116E-02 0.53772502E+02</pdfrwt>
<totfact> 0.35323270E+05</totfact>
</mgrwt>
</event>
<event>
 4    1  0.2196664E-002  0.4870440E+02  0.7818608E-02  0.1452458E+00
          2   -1    0    0    0  501  0.00000000000E+00  0.00000000000E+00  0.80158520107E+03  0.80158520107E+03  0.25500000000E-02 0.  1.
         -2   -1    0    0  501    0 -0.00000000000E+00 -0.00000000000E+00 -0.73981879920E+00  0.73982319385E+00  0.25500000000E-02 0.  1.
          2    1    1    2    0  502 -0.16561414898E+02  0.15157912891E+02  0.55582050214E+03  0.55627373962E+03  0.25500000000E-02 0. -1.
         -2    1    1    2  502    0  0.16561414898E+02 -0.15157912891E+02  0.24502488013E+03  0.24605128464E+03  0.25500000000E-02 0. -1.
<mgrwt>
<rscale>  0 0.48704397E+02</rscale>
<asrwt>0</asrwt>
<pdfrwt beam="1">  1        2 0.12332024E+00 0.48704397E+02</pdfrwt>
<pdfrwt beam="2">  1       -2 0.11381913E-03 0.48704397E+02</pdfrwt>
<totfact> 0.12055805E+06</totfact>
</mgrwt>
</event>
<event>
 4    1  0.2196664E-002  0.4514806E+02  0.7818608E-02  0.1473419E+00
         -2   -1    0    0  501    0 -0.00000000000E+00  0.00000000000E+00  0.44347225646E+00  0.44347958775E+00  0.25500000000E-02 0. -1.
          2   -1    0    0    0  501  0.00000000000E+00 -0.00000000000E+00 -0.11490744888E+04  0.11490744888E+04  0.25500000000E-02 0. -1.
          2    1    1    2    0  502  0.67404404390E+00 -0.21970419459E+02 -0.70521908500E+03  0.70556155757E+03  0.25500000000E-02 0.  1.
         -2    1    1    2  502    0 -0.67404404390E+00  0.21970419459E+02 -0.44341193156E+03  0.44395641083E+03  0.25500000000E-02 0.  1.
<mgrwt>
<rscale>  0 0.45148062E+02</rscale>
<asrwt>0</asrwt>
<pdfrwt beam="2">  1        2 0.17677831E+00 0.45148062E+02</pdfrwt>
<pdfrwt beam="1">  1       -2 0.68227985E-04 0.45148062E+02</pdfrwt>
<totfact> 0.14858227E+06</totfact>
</mgrwt>
</event>
<event>
 4    1  0.2196664E-002  0.5117146E+02  0.7818608E-02  0.1439124E+00
         -2   -1    0    0  501    0 -0.00000000000E+00  0.00000000000E+00  0.10524068413E+04  0.10524068413E+04  0.25500000000E-02 0. -1.
          2   -1    0    0    0  501  0.00000000000E+00 -0.00000000000E+00 -0.62202839385E+00  0.62203362068E+00  0.25500000000E-02 0. -1.
          2    1    1    2    0  502  0.22777571282E+02  0.96577754857E+01  0.66010943579E+03  0.66057290105E+03  0.25500000000E-02 0. -1.
         -2    1    1    2  502    0 -0.22777571282E+02 -0.96577754857E+01  0.39167537712E+03  0.39245597388E+03  0.25500000000E-02 0. -1.
<mgrwt>
<rscale>  0 0.51171464E+02</rscale>
<asrwt>0</asrwt>
<pdfrwt beam="2">  1        2 0.95697120E-04 0.51171464E+02</pdfrwt>
<pdfrwt beam="1">  1       -2 0.16190867E+00 0.51171464E+02</pdfrwt>
<totfact> 0.75921341E+04</totfact>
</mgrwt>
</event>
<event>
 4    1  0.2196664E-002  0.4070001E+02  0.7818608E-02  0.1503122E+00
          2   -1    0    0    0  501  0.00000000000E+00  0.00000000000E+00  0.92884915917E+03  0.92884915917E+03  0.25500000000E-02 0. -1.
         -2   -1    0    0  501    0 -0.00000000000E+00 -0.00000000000E+00 -0.44584130858E+00  0.44584860092E+00  0.25500000000E-02 0. -1.
          2    1    1    2    0  502 -0.17402299374E+02 -0.10451333521E+02  0.43149163988E+03  0.43196887121E+03  0.25500000000E-02 0. -1.
         -2    1    1    2  502    0  0.17402299374E+02  0.10451333521E+02  0.49691167798E+03  0.49732613656E+03  0.25500000000E-02 0. -1.
<mgrwt>
<rscale>  0 0.40700011E+02</rscale>
<asrwt>0</asrwt>
<pdfrwt beam="1">  1        2 0.14289826E+00 0.40700011E+02</pdfrwt>
<pdfrwt beam="2">  1       -2 0.68592305E-04 0.40700011E+02</pdfrwt>
<totfact> 0.19026331E+06</totfact>
</mgrwt>
</event>
<event>
 4    1  0.2196664E-002  0.4228194E+02  0.7818608E-02  0.1492060E+00
         -2   -1    0    0  501    0 -0.00000000000E+00  0.00000000000E+00  0.48897141189E+01  0.48897147838E+01  0.25500000000E-02 0.  1.
          2   -1    0    0    0  501  0.00000000000E+00 -0.00000000000E+00 -0.91404237645E+02  0.91404237680E+02  0.25500000000E-02 0.  1.
          2    1    1    2    0  502  0.22593549524E+01 -0.19927679545E+02 -0.58487689433E+02  0.61830630909E+02  0.25500000000E-02 0.  1.
         -2    1    1    2  502    0 -0.22593549524E+01  0.19927679545E+02 -0.28026834093E+02  0.34463321555E+02  0.25500000000E-02 0.  1.
<mgrwt>
<rscale>  0 0.42281941E+02</rscale>
<asrwt>0</asrwt>
<pdfrwt beam="2">  1        2 0.14062189E-01 0.42281941E+02</pdfrwt>
<pdfrwt beam="1">  1       -2 0.75226383E-03 0.42281941E+02</pdfrwt>
<totfact> 0.89118288E+05</totfact>
</mgrwt>
</event>
<event>
 4    1  0.2196664E-002  0.6907328E+02  0.7818608E-02  0.1363273E+00
          2   -1    0    0    0  501  0.00000000000E+00  0.00000000000E+00  0.13425802373E+04  0.13425802373E+04  0.25500000000E-02 0. -1.
         -2   -1    0    0  501    0 -0.00000000000E+00 -0.00000000000E+00 -0.88842154575E+00  0.88842520533E+00  0.25500000000E-02 0. -1.
          2    1    1    2    0  502 -0.16055149814E+02  0.30541149644E+02  0.64167101511E+03  0.64259802466E+03  0.25500000000E-02 0. -1.
         -2    1    1    2  502    0  0.16055149814E+02 -0.30541149644E+02  0.70002080063E+03  0.70087063783E+03  0.25500000000E-02 0. -1.
<mgrwt>
<rscale>  0 0.69073285E+02</rscale>
<asrwt>0</asrwt>
<pdfrwt beam="1">  1        2 0.20655205E+00 0.69073285E+02</pdfrwt>
<pdfrwt beam="2">  1       -2 0.13667970E-03 0.69073285E+02</pdfrwt>
<totfact> 0.50184311E+05</totfact>
</mgrwt>
</event>
<event>
 4    1  0.2196664E-002  0.5507692E+02  0.7818608E-02  0.1419736E+00
          2   -1    0    0    0  501  0.00000000000E+00  0.00000000000E+00  0.10864197088E+04  0.10864197088E+04  0.25500000000E-02 0.  1.
         -2   -1    0    0  501    0 -0.00000000000E+00 -0.00000000000E+00 -0.69803975497E+00  0.69804441264E+00  0.25500000000E-02 0.  1.
          2    1    1    2    0  502 -0.24114197690E+02  0.12490377777E+02  0.63301613360E+03  0.63359839763E+03  0.25500000000E-02 0. -1.
         -2    1    1    2  502    0  0.24114197690E+02 -0.12490377777E+02  0.45270553544E+03  0.45351935559E+03  0.25500000000E-02 0. -1.
<mgrwt>
<rscale>  0 0.55076916E+02</rscale>
<asrwt>0</asrwt>
<pdfrwt beam="1">  1        2 0.16714114E+00 0.55076916E+02</pdfrwt>
<pdfrwt beam="2">  1       -2 0.10739132E-03 0.55076916E+02</pdfrwt>
<totfact> 0.91176314E+05</totfact>
</mgrwt>
</event>
<event>
 4    1  0.2196664E-002  0.6540238E+02  0.7818608E-02  0.1376464E+00
          2   -1    0    0    0  501  0.00000000000E+00  0.00000000000E+00  0.44447983604E+03  0.44447983605E+03  0.25500000000E-02 0.  1.
         -2   -1    0    0  501    0 -0.00000000000E+00 -0.00000000000E+00 -0.24058855071E+01  0.24058868585E+01  0.25500000000E-02 0.  1.
          2    1    1    2    0  502  0.21604360692E+02 -0.16588398342E+02  0.97393334598E+02  0.10113053442E+03  0.25500000000E-02 0.  1.
         -2    1    1    2  502    0 -0.21604360692E+02  0.16588398342E+02  0.34468061594E+03  0.34575518849E+03  0.25500000000E-02 0.  1.
<mgrwt>
<rscale>  0 0.65402382E+02</rscale>
<asrwt>0</asrwt>
<pdfrwt beam="1">  1        2 0.68381630E-01 0.65402382E+02</pdfrwt>
<pdfrwt beam="2">  1       -2 0.37013571E-03 0.65402382E+02</pdfrwt>
<totfact> 0.49205908E+05</totfact>
</mgrwt>
</event>
<event>
 4    1  0.2196664E-002  0.5938354E+02  0.7818608E-02  0.1400437E+00
          2   -1    0    0    0  501  0.00000000000E+00  0.00000000000E+00  0.19357035529E+03  0.19357035531E+03  0.25500000000E-02 0.  1.
         -2   -1    0    0  501    0 -0.00000000000E+00 -0.00000000000E+00 -0.45544227799E+01  0.45544234938E+01  0.25500000000E-02 0.  1.
          2    1    1    2    0  502  0.27158548137E+02  0.47801401870E+01  0.57783037266E+02  0.64025900067E+02  0.25500000000E-02 0. -1.
         -2    1    1    2  502    0 -0.27158548137E+02 -0.47801401870E+01  0.13123289525E+03  0.13409887874E+03  0.25500000000E-02 0. -1.
<mgrwt>
<rscale>  0 0.59383543E+02</rscale>
<asrwt>0</asrwt>
<pdfrwt beam="1">  1        2 0.29780054E-01 0.59383543E+02</pdfrwt>
<pdfrwt beam="2">  1       -2 0.70068049E-03 0.59383543E+02</pdfrwt>
<totfact> 0.47117562E+05</totfact>
</mgrwt>
</event>
<event>
 4    1  0.2196664E-002  0.2936652E+03  0.7818608E-02  0.1088451E+00
          2   -1    0    0    0  501  0.00000000000E+00  0.00000000000E+00  0.21493657490E+02  0.21493657641E+02  0.25500000000E-02 0.  1.
         -2   -1    0    0  501    0 -0.00000000000E+00 -0.00000000000E+00 -0.10030780894E+04  0.10030780894E+04  0.25500000000E-02 0.  1.
          2    1    1    2    0  502  0.42582691173E+02  0.13839555717E+03 -0.40581728315E+03  0.43087618076E+03  0.25500000000E-02 0. -1.
         -2    1    1    2  502    0 -0.42582691173E+02 -0.13839555717E+03 -0.57576714873E+03  0.59369556626E+03  0.25500000000E-02 0. -1.
<mgrwt>
<rscale>  0 0.29366523E+03</rscale>
<asrwt>0</asrwt>
<pdfrwt beam="1">  1        2 0.33067173E-02 0.29366523E+03</pdfrwt>
<pdfrwt beam="2">  1       -2 0.15431967E+00 0.29366523E+03</pdfrwt>
<totfact> 0.80963279E+02</totfact>
</mgrwt>
</event>
<event>
 4    1  0.2196664E-002  0.1897264E+03  0.7818608E-02  0.1158708E+00
         -2   -1    0    0  501    0 -0.00000000000E+00  0.00000000000E+00  0.72693782458E+02  0.72693782502E+02  0.25500000000E-02 0.  1.
          2   -1    0    0    0  501  0.00000000000E+00 -0.00000000000E+00 -0.12379361012E+03  0.12379361014E+03  0.25500000000E-02 0.  1.
          2    1    1    2    0  502 -0.89858608612E+02  0.29289107853E+02 -0.17097935939E+02  0.96045618330E+02  0.25500000000E-02 0. -1.
         -2    1    1    2  502    0  0.89858608612E+02 -0.29289107853E+02 -0.34001891720E+02  0.10044177432E+03  0.25500000000E-02 0. -1.
<mgrwt>
<rscale>  0 0.18972639E+03</rscale>
<asrwt>0</asrwt>
<pdfrwt beam="2">  1        2 0.19045171E-01 0.18972639E+03</pdfrwt>
<pdfrwt beam="1">  1       -2 0.11183659E-01 0.18972639E+03</pdfrwt>
<totfact> 0.15639556E+04</totfact>
</mgrwt>
</event>
<event>
 4    1  0.2196664E-002  0.4267541E+02  0.7818608E-02  0.1489398E+00
         -2   -1    0    0  501    0 -0.00000000000E+00  0.00000000000E+00  0.18127982175E+03  0.18127982177E+03  0.25500000000E-02 0. -1.
          2   -1    0    0    0  501  0.00000000000E+00 -0.00000000000E+00 -0.25115734017E+01  0.25115746962E+01  0.25500000000E-02 0. -1.
          2    1    1    2    0  502  0.20788813634E+02  0.82563589472E+00  0.68982209137E+02  0.72051381880E+02  0.25500000000E-02 0.  1.
         -2    1    1    2  502    0 -0.20788813634E+02 -0.82563589472E+00  0.10978603921E+03  0.11174001458E+03  0.25500000000E-02 0.  1.
<mgrwt>
<rscale>  0 0.42675412E+02</rscale>
<asrwt>0</asrwt>
<pdfrwt beam="2">  1        2 0.38639603E-03 0.42675412E+02</pdfrwt>
<pdfrwt beam="1">  1       -2 0.27889202E-01 0.42675412E+02</pdfrwt>
<totfact> 0.43131900E+05</totfact>
</mgrwt>
</event>
<event>
 4    1  0.2196664E-002  0.4820578E+02  0.7818608E-02  0.1455266E+00
         -2   -1    0    0  501    0 -0.00000000000E+00  0.00000000000E+00  0.32689623576E+02  0.32689623675E+02  0.25500000000E-02 0. -1.
          2   -1    0    0    0  501  0.00000000000E+00 -0.00000000000E+00 -0.17771670931E+02  0.17771671114E+02  0.25500000000E-02 0. -1.
          2    1    1    2    0  502 -0.56729537819E+01  0.19501303403E+02  0.21045721352E+02  0.29247318386E+02  0.25500000000E-02 0. -1.
         -2    1    1    2  502    0  0.56729537819E+01 -0.19501303403E+02 -0.61277687076E+01  0.21213976404E+02  0.25500000000E-02 0. -1.
<mgrwt>
<rscale>  0 0.48205777E+02</rscale>
<asrwt>0</asrwt>
<pdfrwt beam="2">  1        2 0.27341033E-02 0.48205777E+02</pdfrwt>
<pdfrwt beam="1">  1       -2 0.50291728E-02 0.48205777E+02</pdfrwt>
<totfact> 0.47654800E+05</totfact>
</mgrwt>
</event>
<event>
 4    1  0.2196664E-002  0.4717517E+02  0.7818608E-02  0.1461202E+00
         -2   -1    0    0  501    0 -0.00000000000E+00  0.00000000000E+00  0.46296828736E+02  0.46296828806E+02  0.25500000000E-02 0. -1.
          2   -1    0    0    0  501  0.00000000000E+00 -0.00000000000E+00 -0.12017542085E+02  0.12017542355E+02  0.25500000000E-02 0. -1.
          2    1    1    2    0  502 -0.23418625891E+02  0.27703921805E+01  0.17778349715E+02  0.29532640190E+02  0.25500000000E-02 0.  1.
         -2    1    1    2  502    0  0.23418625891E+02 -0.27703921805E+01  0.16500936936E+02  0.28781730972E+02  0.25500000000E-02 0.  1.
<mgrwt>
<rscale>  0 0.47175167E+02</rscale>
<asrwt>0</asrwt>
<pdfrwt beam="2">  1        2 0.18488527E-02 0.47175167E+02</pdfrwt>
<pdfrwt beam="1">  1       -2 0.71225890E-02 0.47175167E+02</pdfrwt>
<totfact> 0.47473784E+05</totfact>
</mgrwt>
</event>
<event>
 4    1  0.2196664E-002  0.8499530E+02  0.7818608E-02  0.1315445E+00
          2   -1    0    0    0  501  0.00000000000E+00  0.00000000000E+00  0.13556134964E+03  0.13556134966E+03  0.25500000000E-02 0. -1.
         -2   -1    0    0  501    0 -0.00000000000E+00 -0.00000000000E+00 -0.13322751965E+02  0.13322752209E+02  0.25500000000E-02 0. -1.
          2    1    1    2    0  502  0.33089887518E+02  0.15145759816E+02  0.22673512417E+02  0.42876833700E+02  0.25500000000E-02 0. -1.
         -2    1    1    2  502    0 -0.33089887518E+02 -0.15145759816E+02  0.99565085254E+02  0.10600726817E+03  0.25500000000E-02 0. -1.
<mgrwt>
<rscale>  0 0.84995300E+02</rscale>
<asrwt>0</asrwt>
<pdfrwt beam="1">  1        2 0.20855592E-01 0.84995300E+02</pdfrwt>
<pdfrwt beam="2">  1       -2 0.20496542E-02 0.84995300E+02</pdfrwt>
<totfact> 0.16343548E+05</totfact>
</mgrwt>
</event>
<event>
 4    1  0.2196664E-002  0.1108015E+03  0.7818608E-02  0.1259093E+00
         -2   -1    0    0  501    0 -0.00000000000E+00  0.00000000000E+00  0.33245959220E+01  0.33245969000E+01  0.25500000000E-02 0. -1.
          2   -1    0    0    0  501  0.00000000000E+00 -0.00000000000E+00 -0.92319342061E+03  0.92319342062E+03  0.25500000000E-02 0. -1.
          2    1    1    2    0  502  0.27958508486E+02 -0.13179052470E+01 -0.85972269825E+03  0.86017819838E+03  0.25500000000E-02 0.  1.
         -2    1    1    2  502    0 -0.27958508486E+02  0.13179052470E+01 -0.60146126439E+02  0.66339819137E+02  0.25500000000E-02 0.  1.
<mgrwt>
<rscale>  0 0.11080154E+03</rscale>
<asrwt>0</asrwt>
<pdfrwt beam="2">  1        2 0.14202955E+00 0.11080154E+03</pdfrwt>
<pdfrwt beam="1">  1       -2 0.51147711E-03 0.11080154E+03</pdfrwt>
<totfact> 0.14804343E+05</totfact>
</mgrwt>
</event>
<event>
 4    1  0.2196664E-002  0.4473258E+02  0.7818608E-02  0.1476018E+00
          2   -1    0    0    0  501  0.00000000000E+00  0.00000000000E+00  0.16211415778E+04  0.16211415778E+04  0.25500000000E-02 0. -1.
         -2   -1    0    0  501    0 -0.00000000000E+00 -0.00000000000E+00 -0.30857415096E+00  0.30858468714E+00  0.25500000000E-02 0. -1.
          2    1    1    2    0  502 -0.19991081756E+02 -0.10257891288E+01  0.11720860260E+04  0.11722569462E+04  0.25500000000E-02 0.  1.
         -2    1    1    2  502    0  0.19991081756E+02  0.10257891288E+01  0.44874697769E+03  0.44919321631E+03  0.25500000000E-02 0.  1.
<mgrwt>
<rscale>  0 0.44732580E+02</rscale>
<asrwt>0</asrwt>
<pdfrwt beam="1">  1        2 0.24941541E+00 0.44732580E+02</pdfrwt>
<pdfrwt beam="2">  1       -2 0.47472042E-04 0.44732580E+02</pdfrwt>
<totfact> 0.13961087E+06</totfact>
</mgrwt>
</event>
<event>
 4    1  0.2196664E-002  0.1132503E+03  0.7818608E-02  0.1254667E+00
         -2   -1    0    0  501    0 -0.00000000000E+00  0.00000000000E+00  0.35703032707E+01  0.35703041813E+01  0.25500000000E-02 0. -1.
          2   -1    0    0    0  501  0.00000000000E+00 -0.00000000000E+00 -0.89807657862E+03  0.89807657862E+03  0.25500000000E-02 0. -1.
          2    1    1    2    0  502  0.19498097612E+02 -0.72299638828E+01 -0.86657466663E+03  0.86682414655E+03  0.25500000000E-02 0.  1.
         -2    1    1    2  502    0 -0.19498097612E+02  0.72299638828E+01 -0.27931608718E+02  0.34822736255E+02  0.25500000000E-02 0.  1.
<mgrwt>
<rscale>  0 0.11325027E+03</rscale>
<asrwt>0</asrwt>
<pdfrwt beam="2">  1        2 0.13816545E+00 0.11325027E+03</pdfrwt>
<pdfrwt beam="1">  1       -2 0.54927821E-03 0.11325027E+03</pdfrwt>
<totfact> 0.13918152E+05</totfact>
</mgrwt>
</event>
<event>
 4    1  0.2196664E-002  0.4094487E+02  0.7818608E-02  0.1501371E+00
         -2   -1    0    0  501    0 -0.00000000000E+00  0.00000000000E+00  0.85893813190E+00  0.85894191709E+00  0.25500000000E-02 0. -1.
          2   -1    0    0    0  501  0.00000000000E+00 -0.00000000000E+00 -0.48795090100E+03  0.48795090100E+03  0.25500000000E-02 0. -1.
          2    1    1    2    0  502  0.15977091112E+02 -0.12594891021E+02 -0.27082646420E+03  0.27158952932E+03  0.25500000000E-02 0. -1.
         -2    1    1    2  502    0 -0.15977091112E+02  0.12594891021E+02 -0.21626549867E+03  0.21722031360E+03  0.25500000000E-02 0. -1.
<mgrwt>
<rscale>  0 0.40944868E+02</rscale>
<asrwt>0</asrwt>
<pdfrwt beam="2">  1        2 0.75069148E-01 0.40944868E+02</pdfrwt>
<pdfrwt beam="1">  1       -2 0.13214501E-03 0.40944868E+02</pdfrwt>
<totfact> 0.16245051E+06</totfact>
</mgrwt>
</event>
<event>
 4    1  0.2196664E-002  0.9174069E+02  0.7818608E-02  0.1298690E+00
         -2   -1    0    0  501    0 -0.00000000000E+00  0.00000000000E+00  0.40898499280E+00  0.40899294228E+00  0.25500000000E-02 0.  1.
          2   -1    0    0    0  501  0.00000000000E+00 -0.00000000000E+00 -0.51446097335E+04  0.51446097335E+04  0.25500000000E-02 0.  1.
          2    1    1    2    0  502  0.44475843358E+02 -0.11203944729E+02 -0.26101206291E+04  0.26105235734E+04  0.25500000000E-02 0.  1.
         -2    1    1    2  502    0 -0.44475843358E+02  0.11203944729E+02 -0.25340801194E+04  0.25344951530E+04  0.25500000000E-02 0.  1.
<mgrwt>
<rscale>  0 0.91740692E+02</rscale>
<asrwt>0</asrwt>
<pdfrwt beam="2">  1        2 0.79142660E+00 0.91740692E+02</pdfrwt>
<pdfrwt beam="1">  1       -2 0.62925500E-04 0.91740692E+02</pdfrwt>
<totfact> 0.38825789E+03</totfact>
</mgrwt>
</event>
<event>
 4    1  0.2196664E-002  0.4469759E+02  0.7818608E-02  0.1476238E+00
          2   -1    0    0    0  501  0.00000000000E+00  0.00000000000E+00  0.35718280759E+02  0.35718280850E+02  0.25500000000E-02 0. -1.
         -2   -1    0    0  501    0 -0.00000000000E+00 -0.00000000000E+00 -0.13983557503E+02  0.13983557735E+02  0.25500000000E-02 0. -1.
          2    1    1    2    0  502  0.20188982796E+02 -0.94677932167E+01  0.92051799269E+01  0.24124043581E+02  0.25500000000E-02 0. -1.
         -2    1    1    2  502    0 -0.20188982796E+02  0.94677932167E+01  0.12529543329E+02  0.25577795004E+02  0.25500000000E-02 0. -1.
<mgrwt>
<rscale>  0 0.44697590E+02</rscale>
<asrwt>0</asrwt>
<pdfrwt beam="1">  1        2 0.54951201E-02 0.44697590E+02</pdfrwt>
<pdfrwt beam="2">  1       -2 0.21513166E-02 0.44697590E+02</pdfrwt>
<totfact> 0.64492552E+05</totfact>
</mgrwt>
</event>
<event>
 4    1  0.2196664E-002  0.5030484E+02  0.7818608E-02  0.1443704E+00
          2   -1    0    0    0  501  0.00000000000E+00  0.00000000000E+00  0.67252990229E+01  0.67252995063E+01  0.25500000000E-02 0.  1.
         -2   -1    0    0  501    0 -0.00000000000E+00 -0.00000000000E+00 -0.94069316929E+02  0.94069316963E+02  0.25500000000E-02 0.  1.
          2    1    1    2    0  502 -0.11868133139E+01 -0.22335004020E+02 -0.66725901299E+02  0.70374759972E+02  0.25500000000E-02 0. -1.
         -2    1    1    2  502    0  0.11868133139E+01  0.22335004020E+02 -0.20618116606E+02  0.30419856497E+02  0.25500000000E-02 0. -1.
<mgrwt>
<rscale>  0 0.50304843E+02</rscale>
<asrwt>0</asrwt>
<pdfrwt beam="1">  1        2 0.10346615E-02 0.50304843E+02</pdfrwt>
<pdfrwt beam="2">  1       -2 0.14472202E-01 0.50304843E+02</pdfrwt>
<totfact> 0.35309728E+05</totfact>
</mgrwt>
</event>
<event>
 4    1  0.2196664E-002  0.4791838E+02  0.7818608E-02  0.1456904E+00
          2   -1    0    0    0  501  0.00000000000E+00  0.00000000000E+00  0.61249299279E+02  0.61249299332E+02  0.25500000000E-02 0.  1.
         -2   -1    0    0  501    0 -0.00000000000E+00 -0.00000000000E+00 -0.93722325740E+01  0.93722329209E+01  0.25500000000E-02 0.  1.
          2    1    1    2    0  502 -0.57469173744E+00 -0.23951593431E+02  0.25668435783E+02  0.35112358230E+02  0.25500000000E-02 0.  1.
         -2    1    1    2  502    0  0.57469173744E+00  0.23951593431E+02  0.26208630923E+02  0.35509174023E+02  0.25500000000E-02 0.  1.
<mgrwt>
<rscale>  0 0.47918376E+02</rscale>
<asrwt>0</asrwt>
<pdfrwt beam="1">  1        2 0.94229695E-02 0.47918376E+02</pdfrwt>
<pdfrwt beam="2">  1       -2 0.14418819E-02 0.47918376E+02</pdfrwt>
<totfact> 0.59527566E+05</totfact>
</mgrwt>
</event>
<event>
 4    1  0.2196664E-002  0.5832008E+02  0.7818608E-02  0.1405020E+00
          2   -1    0    0    0  501  0.00000000000E+00  0.00000000000E+00  0.19833398226E+03  0.19833398228E+03  0.25500000000E-02 0.  1.
         -2   -1    0    0  501    0 -0.00000000000E+00 -0.00000000000E+00 -0.42872530593E+01  0.42872538177E+01  0.25500000000E-02 0.  1.
          2    1    1    2    0  502 -0.22044262355E+02  0.13312938233E+02  0.49497304006E+02  0.55795760928E+02  0.25500000000E-02 0. -1.
         -2    1    1    2  502    0  0.22044262355E+02 -0.13312938233E+02  0.14454942520E+03  0.14682547517E+03  0.25500000000E-02 0. -1.
<mgrwt>
<rscale>  0 0.58320084E+02</rscale>
<asrwt>0</asrwt>
<pdfrwt beam="1">  1        2 0.30512919E-01 0.58320084E+02</pdfrwt>
<pdfrwt beam="2">  1       -2 0.65957749E-03 0.58320084E+02</pdfrwt>
<totfact> 0.49749189E+05</totfact>
</mgrwt>
</event>
<event>
 4    1  0.2196664E-002  0.9889286E+02  0.7818608E-02  0.1282641E+00
         -2   -1    0    0  501    0 -0.00000000000E+00  0.00000000000E+00  0.94735099117E+00  0.94735442310E+00  0.25500000000E-02 0. -1.
          2   -1    0    0    0  501  0.00000000000E+00 -0.00000000000E+00 -0.25808229737E+04  0.25808229737E+04  0.25500000000E-02 0. -1.
          2    1    1    2    0  502 -0.17204928600E+02  0.39585017548E+02 -0.66013930914E+03  0.66154885735E+03  0.25500000000E-02 0.  1.
         -2    1    1    2  502    0  0.17204928600E+02 -0.39585017548E+02 -0.19197363135E+04  0.19202214707E+04  0.25500000000E-02 0.  1.
<mgrwt>
<rscale>  0 0.98892864E+02</rscale>
<asrwt>0</asrwt>
<pdfrwt beam="2">  1        2 0.39704406E+00 0.98892864E+02</pdfrwt>
<pdfrwt beam="1">  1       -2 0.14574864E-03 0.98892864E+02</pdfrwt>
<totfact> 0.11330312E+05</totfact>
</mgrwt>
</event>
<event>
 4    1  0.2196664E-002  0.4318362E+02  0.7818608E-02  0.1486010E+00
          2   -1    0    0    0  501  0.00000000000E+00  0.00000000000E+00  0.88192648836E+03  0.88192648836E+03  0.25500000000E-02 0.  1.
         -2   -1    0    0  501    0 -0.00000000000E+00 -0.00000000000E+00 -0.52861950982E+00  0.52862566024E+00  0.25500000000E-02 0.  1.
          2    1    1    2    0  502  0.20552111746E+02 -0.45949614650E+01  0.34333055022E+03  0.34397582719E+03  0.25500000000E-02 0.  1.
         -2    1    1    2  502    0 -0.20552111746E+02  0.45949614650E+01  0.53806731863E+03  0.53847928683E+03  0.25500000000E-02 0.  1.
<mgrwt>
<rscale>  0 0.43183620E+02</rscale>
<asrwt>0</asrwt>
<pdfrwt beam="1">  1        2 0.13568134E+00 0.43183620E+02</pdfrwt>
<pdfrwt beam="2">  1       -2 0.81326346E-04 0.43183620E+02</pdfrwt>
<totfact> 0.16396834E+06</totfact>
</mgrwt>
</event>
<event>
 4    1  0.2196664E-002  0.4223281E+02  0.7818608E-02  0.1492395E+00
          2   -1    0    0    0  501  0.00000000000E+00  0.00000000000E+00  0.35630399103E+01  0.35630408228E+01  0.25500000000E-02 0. -1.
         -2   -1    0    0  501    0 -0.00000000000E+00 -0.00000000000E+00 -0.12514665580E+03  0.12514665582E+03  0.25500000000E-02 0. -1.
          2    1    1    2    0  502  0.76215330235E+01  0.19671454661E+02 -0.57984205749E+02  0.61702690516E+02  0.25500000000E-02 0. -1.
         -2    1    1    2  502    0 -0.76215330235E+01 -0.19671454661E+02 -0.63599410139E+02  0.67007006131E+02  0.25500000000E-02 0. -1.
<mgrwt>
<rscale>  0 0.42232811E+02</rscale>
<asrwt>0</asrwt>
<pdfrwt beam="1">  1        2 0.54816016E-03 0.42232811E+02</pdfrwt>
<pdfrwt beam="2">  1       -2 0.19253328E-01 0.42232811E+02</pdfrwt>
<totfact> 0.50046793E+05</totfact>
</mgrwt>
</event>
<event>
 4    1  0.2196664E-002  0.6210204E+02  0.7818608E-02  0.1389216E+00
         -2   -1    0    0  501    0 -0.00000000000E+00  0.00000000000E+00  0.67468109101E+00  0.67468590993E+00  0.25500000000E-02 0. -1.
          2   -1    0    0    0  501  0.00000000000E+00 -0.00000000000E+00 -0.14290637445E+04  0.14290637445E+04  0.25500000000E-02 0. -1.
          2    1    1    2    0  502 -0.15921696199E+02  0.20853512728E+02 -0.10965303494E+04  0.10968441898E+04  0.25500000000E-02 0.  1.
         -2    1    1    2  502    0  0.15921696199E+02 -0.20853512728E+02 -0.33185871398E+03  0.33289424064E+03  0.25500000000E-02 0.  1.
<mgrwt>
<rscale>  0 0.62102036E+02</rscale>
<asrwt>0</asrwt>
<pdfrwt beam="2">  1        2 0.21985354E+00 0.62102036E+02</pdfrwt>
<pdfrwt beam="1">  1       -2 0.10379861E-03 0.62102036E+02</pdfrwt>
<totfact> 0.64713640E+05</totfact>
</mgrwt>
</event>
<event>
 4    1  0.2196664E-002  0.4754998E+02  0.7818608E-02  0.1459023E+00
         -2   -1    0    0  501    0 -0.00000000000E+00  0.00000000000E+00  0.11157437886E+03  0.11157437889E+03  0.25500000000E-02 0. -1.
          2   -1    0    0    0  501  0.00000000000E+00 -0.00000000000E+00 -0.50661271870E+01  0.50661278288E+01  0.25500000000E-02 0. -1.
          2    1    1    2    0  502 -0.13507646657E+02 -0.15763268948E+02  0.81682884922E+02  0.84279480669E+02  0.25500000000E-02 0.  1.
         -2    1    1    2  502    0  0.13507646657E+02  0.15763268948E+02  0.24825366751E+02  0.32361026049E+02  0.25500000000E-02 0.  1.
<mgrwt>
<rscale>  0 0.47549975E+02</rscale>
<asrwt>0</asrwt>
<pdfrwt beam="2">  1        2 0.77940434E-03 0.47549975E+02</pdfrwt>
<pdfrwt beam="1">  1       -2 0.17165287E-01 0.47549975E+02</pdfrwt>
<totfact> 0.38769616E+05</totfact>
</mgrwt>
</event>
<event>
 4    1  0.2196664E-002  0.8876847E+02  0.7818608E-02  0.1305862E+00
         -2   -1    0    0  501    0 -0.00000000000E+00  0.00000000000E+00  0.67512978358E+00  0.67513459930E+00  0.25500000000E-02 0.  1.
          2   -1    0    0    0  501  0.00000000000E+00 -0.00000000000E+00 -0.29178880640E+04  0.29178880640E+04  0.25500000000E-02 0.  1.
          2    1    1    2    0  502  0.19946307001E+02 -0.34298087404E+02 -0.80454470631E+03  0.80552243818E+03  0.25500000000E-02 0. -1.
         -2    1    1    2  502    0 -0.19946307001E+02  0.34298087404E+02 -0.21126682279E+04  0.21130407604E+04  0.25500000000E-02 0. -1.
<mgrwt>
<rscale>  0 0.88768467E+02</rscale>
<asrwt>0</asrwt>
<pdfrwt beam="2">  1        2 0.44889576E+00 0.88768467E+02</pdfrwt>
<pdfrwt beam="1">  1       -2 0.10386883E-03 0.88768467E+02</pdfrwt>
<totfact> 0.11723782E+05</totfact>
</mgrwt>
</event>
<event>
 4    1  0.2196664E-002  0.6996286E+02  0.7818608E-02  0.1360219E+00
          2   -1    0    0    0  501  0.00000000000E+00  0.00000000000E+00  0.41009796699E+03  0.41009796700E+03  0.25500000000E-02 0.  1.
         -2   -1    0    0  501    0 -0.00000000000E+00 -0.00000000000E+00 -0.29839213617E+01  0.29839224513E+01  0.25500000000E-02 0.  1.
          2    1    1    2    0  502  0.18607883578E+02  0.23687607713E+02  0.30857135421E+03  0.31003812143E+03  0.25500000000E-02 0. -1.
         -2    1    1    2  502    0 -0.18607883578E+02 -0.23687607713E+02  0.98542691414E+02  0.10304376802E+03  0.25500000000E-02 0. -1.
<mgrwt>
<rscale>  0 0.69962856E+02</rscale>
<asrwt>0</asrwt>
<pdfrwt beam="1">  1        2 0.63091982E-01 0.69962856E+02</pdfrwt>
<pdfrwt beam="2">  1       -2 0.45906501E-03 0.69962856E+02</pdfrwt>
<totfact> 0.40267742E+05</totfact>
</mgrwt>
</event>
<event>
 4    1  0.2196664E-002  0.1258716E+03  0.7818608E-02  0.1233713E+00
          2   -1    0    0    0  501  0.00000000000E+00  0.00000000000E+00  0.33891112301E+02  0.33891112397E+02  0.25500000000E-02 0. -1.
         -2   -1    0    0  501    0 -0.00000000000E+00 -0.00000000000E+00 -0.11687182103E+03  0.11687182106E+03  0.25500000000E-02 0. -1.
          2    1    1    2    0  502  0.45214134545E+02 -0.43470271387E+02 -0.47706391826E+02  0.78802806325E+02  0.25500000000E-02 0. -1.
         -2    1    1    2  502    0 -0.45214134545E+02  0.43470271387E+02 -0.35274316905E+02  0.71960127131E+02  0.25500000000E-02 0. -1.
<mgrwt>
<rscale>  0 0.12587162E+03</rscale>
<asrwt>0</asrwt>
<pdfrwt beam="1">  1        2 0.52140173E-02 0.12587162E+03</pdfrwt>
<pdfrwt beam="2">  1       -2 0.17980280E-01 0.12587162E+03</pdfrwt>
<totfact> 0.34004130E+04</totfact>
</mgrwt>
</event>
<event>
 4    1  0.2196664E-002  0.8783014E+02  0.7818608E-02  0.1308193E+00
         -2   -1    0    0  501    0 -0.00000000000E+00  0.00000000000E+00  0.31962054908E+01  0.31962065081E+01  0.25500000000E-02 0.  1.
          2   -1    0    0    0  501  0.00000000000E+00 -0.00000000000E+00 -0.60338209885E+03  0.60338209886E+03  0.25500000000E-02 0.  1.
          2    1    1    2    0  502 -0.33035465716E+02 -0.19369440471E+02 -0.44854011460E+03  0.45017191341E+03  0.25500000000E-02 0. -1.
         -2    1    1    2  502    0  0.33035465716E+02  0.19369440471E+02 -0.15164577877E+03  0.15640639195E+03  0.25500000000E-02 0. -1.
<mgrwt>
<rscale>  0 0.87830143E+02</rscale>
<asrwt>0</asrwt>
<pdfrwt beam="2">  1        2 0.92827925E-01 0.87830143E+02</pdfrwt>
<pdfrwt beam="1">  1       -2 0.49172448E-03 0.87830143E+02</pdfrwt>
<totfact> 0.25184854E+05</totfact>
</mgrwt>
</event>
<event>
 4    1  0.2196664E-002  0.7399972E+02  0.7818608E-02  0.1346997E+00
          2   -1    0    0    0  501  0.00000000000E+00  0.00000000000E+00  0.19766862008E+04  0.19766862008E+04  0.25500000000E-02 0.  1.
         -2   -1    0    0  501    0 -0.00000000000E+00 -0.00000000000E+00 -0.69256567918E+00  0.69257037367E+00  0.25500000000E-02 0.  1.
          2    1    1    2    0  502 -0.19830140067E+02  0.20564048336E+02  0.16163058597E+04  0.16165583029E+04  0.25500000000E-02 0.  1.
         -2    1    1    2  502    0  0.19830140067E+02 -0.20564048336E+02  0.35968777536E+03  0.36082046822E+03  0.25500000000E-02 0.  1.
<mgrwt>
<rscale>  0 0.73999721E+02</rscale>
<asrwt>0</asrwt>
<pdfrwt beam="1">  1        2 0.30410504E+00 0.73999721E+02</pdfrwt>
<pdfrwt beam="2">  1       -2 0.10654911E-03 0.73999721E+02</pdfrwt>
<totfact> 0.34348819E+05</totfact>
</mgrwt>
</event>
<event>
 4    1  0.2196664E-002  0.7195009E+02  0.7818608E-02  0.1353584E+00
          2   -1    0    0    0  501  0.00000000000E+00  0.00000000000E+00  0.84698397157E+02  0.84698397196E+02  0.25500000000E-02 0.  1.
         -2   -1    0    0  501    0 -0.00000000000E+00 -0.00000000000E+00 -0.15280143800E+02  0.15280144013E+02  0.25500000000E-02 0.  1.
          2    1    1    2    0  502  0.25974333800E+02 -0.14629063569E+02  0.67266597607E+01  0.30560161572E+02  0.25500000000E-02 0.  1.
         -2    1    1    2  502    0 -0.25974333800E+02  0.14629063569E+02  0.62691593596E+02  0.69418379637E+02  0.25500000000E-02 0.  1.
<mgrwt>
<rscale>  0 0.71950085E+02</rscale>
<asrwt>0</asrwt>
<pdfrwt beam="1">  1        2 0.13030523E-01 0.71950085E+02</pdfrwt>
<pdfrwt beam="2">  1       -2 0.23507913E-02 0.71950085E+02</pdfrwt>
<totfact> 0.22243630E+05</totfact>
</mgrwt>
</event>
<event>
 4    1  0.2196664E-002  0.5003392E+02  0.7818608E-02  0.1445159E+00
         -2   -1    0    0  501    0 -0.00000000000E+00  0.00000000000E+00  0.23001163917E+01  0.23001178052E+01  0.25500000000E-02 0. -1.
          2   -1    0    0    0  501  0.00000000000E+00 -0.00000000000E+00 -0.27209408879E+03  0.27209408880E+03  0.25500000000E-02 0. -1.
          2    1    1    2    0  502 -0.14107301325E+00 -0.25012762194E+02 -0.13250593739E+03  0.13484614056E+03  0.25500000000E-02 0.  1.
         -2    1    1    2  502    0  0.14107301325E+00  0.25012762194E+02 -0.13728803501E+03  0.13954806604E+03  0.25500000000E-02 0.  1.
<mgrwt>
<rscale>  0 0.50033919E+02</rscale>
<asrwt>0</asrwt>
<pdfrwt beam="2">  1        2 0.41860604E-01 0.50033919E+02</pdfrwt>
<pdfrwt beam="1">  1       -2 0.35386439E-03 0.50033919E+02</pdfrwt>
<totfact> 0.81623942E+05</totfact>
</mgrwt>
</event>
<event>
 4    1  0.2196664E-002  0.5760482E+02  0.7818608E-02  0.1408167E+00
          2   -1    0    0    0  501  0.00000000000E+00  0.00000000000E+00  0.77549579453E+03  0.77549579454E+03  0.25500000000E-02 0.  1.
         -2   -1    0    0  501    0 -0.00000000000E+00 -0.00000000000E+00 -0.10697385384E+01  0.10697415777E+01  0.25500000000E-02 0.  1.
          2    1    1    2    0  502 -0.13427819031E+02 -0.19792228623E+02  0.17087052952E+03  0.17253630488E+03  0.25500000000E-02 0.  1.
         -2    1    1    2  502    0  0.13427819031E+02  0.19792228623E+02  0.60355552648E+03  0.60402923123E+03  0.25500000000E-02 0.  1.
<mgrwt>
<rscale>  0 0.57604823E+02</rscale>
<asrwt>0</asrwt>
<pdfrwt beam="1">  1        2 0.11930762E+00 0.57604823E+02</pdfrwt>
<pdfrwt beam="2">  1       -2 0.16457461E-03 0.57604823E+02</pdfrwt>
<totfact> 0.78996531E+05</totfact>
</mgrwt>
</event>
<event>
 4    1  0.2196664E-002  0.5861816E+02  0.7818608E-02  0.1403724E+00
         -2   -1    0    0  501    0 -0.00000000000E+00  0.00000000000E+00  0.97985567256E+02  0.97985567289E+02  0.25500000000E-02 0.  1.
          2   -1    0    0    0  501  0.00000000000E+00 -0.00000000000E+00 -0.87668222309E+01  0.87668226018E+01  0.25500000000E-02 0.  1.
          2    1    1    2    0  502  0.20717720373E+01 -0.20551894949E+02  0.67421981383E+01  0.21728549598E+02  0.25500000000E-02 0.  1.
         -2    1    1    2  502    0 -0.20717720373E+01  0.20551894949E+02  0.82476546887E+02  0.85023840293E+02  0.25500000000E-02 0.  1.
<mgrwt>
<rscale>  0 0.58618157E+02</rscale>
<asrwt>0</asrwt>
<pdfrwt beam="2">  1        2 0.13487419E-02 0.58618157E+02</pdfrwt>
<pdfrwt beam="1">  1       -2 0.15074703E-01 0.58618157E+02</pdfrwt>
<totfact> 0.24022739E+05</totfact>
</mgrwt>
</event>
<event>
 4    1  0.2196664E-002  0.4648898E+02  0.7818608E-02  0.1465255E+00
         -2   -1    0    0  501    0 -0.00000000000E+00  0.00000000000E+00  0.26370825114E+01  0.26370837443E+01  0.25500000000E-02 0.  1.
          2   -1    0    0    0  501  0.00000000000E+00 -0.00000000000E+00 -0.20488783020E+03  0.20488783021E+03  0.25500000000E-02 0.  1.
          2    1    1    2    0  502  0.20695565071E+02  0.10095627688E+02 -0.86954059827E+02  0.89951301485E+02  0.25500000000E-02 0.  1.
         -2    1    1    2  502    0 -0.20695565071E+02 -0.10095627688E+02 -0.11529668786E+03  0.11757361247E+03  0.25500000000E-02 0.  1.
<mgrwt>
<rscale>  0 0.46488977E+02</rscale>
<asrwt>0</asrwt>
<pdfrwt beam="2">  1        2 0.31521192E-01 0.46488977E+02</pdfrwt>
<pdfrwt beam="1">  1       -2 0.40570526E-03 0.46488977E+02</pdfrwt>
<totfact> 0.88969389E+05</totfact>
</mgrwt>
</event>
<event>
 4    1  0.2196664E-002  0.7456751E+02  0.7818608E-02  0.1345216E+00
         -2   -1    0    0  501    0 -0.00000000000E+00  0.00000000000E+00  0.13142748243E+02  0.13142748490E+02  0.25500000000E-02 0. -1.
          2   -1    0    0    0  501  0.00000000000E+00 -0.00000000000E+00 -0.10576771171E+03  0.10576771174E+03  0.25500000000E-02 0. -1.
          2    1    1    2    0  502 -0.16590946622E+02 -0.18376826931E+02 -0.90766597926E+02  0.94082636992E+02  0.25500000000E-02 0. -1.
         -2    1    1    2  502    0  0.16590946622E+02  0.18376826931E+02 -0.18583655428E+01  0.24827823240E+02  0.25500000000E-02 0. -1.
<mgrwt>
<rscale>  0 0.74567511E+02</rscale>
<asrwt>0</asrwt>
<pdfrwt beam="2">  1        2 0.16271955E-01 0.74567511E+02</pdfrwt>
<pdfrwt beam="1">  1       -2 0.20219614E-02 0.74567511E+02</pdfrwt>
<totfact> 0.21510796E+05</totfact>
</mgrwt>
</event>
<event>
 4    1  0.2196664E-002  0.6596293E+02  0.7818608E-02  0.1374386E+00
          2   -1    0    0    0  501  0.00000000000E+00  0.00000000000E+00  0.79152779163E+01  0.79152783271E+01  0.25500000000E-02 0. -1.
         -2   -1    0    0  501    0 -0.00000000000E+00 -0.00000000000E+00 -0.13742752272E+03  0.13742752274E+03  0.25500000000E-02 0. -1.
          2    1    1    2    0  502 -0.20469451114E+02  0.75471980684E+01 -0.11925717116E+03  0.12123626317E+03  0.25500000000E-02 0.  1.
         -2    1    1    2  502    0  0.20469451114E+02 -0.75471980684E+01 -0.10255073640E+02  0.24106537898E+02  0.25500000000E-02 0.  1.
<mgrwt>
<rscale>  0 0.65962931E+02</rscale>
<asrwt>0</asrwt>
<pdfrwt beam="1">  1        2 0.12177352E-02 0.65962931E+02</pdfrwt>
<pdfrwt beam="2">  1       -2 0.21142694E-01 0.65962931E+02</pdfrwt>
<totfact> 0.16256300E+05</totfact>
</mgrwt>
</event>
<event>
 4    1  0.2196664E-002  0.5840401E+02  0.7818608E-02  0.1404654E+00
         -2   -1    0    0  501    0 -0.00000000000E+00  0.00000000000E+00  0.87196898195E+02  0.87196898232E+02  0.25500000000E-02 0. -1.
          2   -1    0    0    0  501  0.00000000000E+00 -0.00000000000E+00 -0.97796735244E+01  0.97796738568E+01  0.25500000000E-02 0. -1.
          2    1    1    2    0  502  0.10961668290E+02  0.25076531957E+02  0.55622867828E+02  0.61991080476E+02  0.25500000000E-02 0.  1.
         -2    1    1    2  502    0 -0.10961668290E+02 -0.25076531957E+02  0.21794356843E+02  0.34985491613E+02  0.25500000000E-02 0.  1.
<mgrwt>
<rscale>  0 0.58404014E+02</rscale>
<asrwt>0</asrwt>
<pdfrwt beam="2">  1        2 0.15045652E-02 0.58404014E+02</pdfrwt>
<pdfrwt beam="1">  1       -2 0.13414907E-01 0.58404014E+02</pdfrwt>
<totfact> 0.24952232E+05</totfact>
</mgrwt>
</event>
<event>
 4    1  0.2196664E-002  0.5416104E+02  0.7818608E-02  0.1424109E+00
         -2   -1    0    0  501    0 -0.00000000000E+00  0.00000000000E+00  0.37317414418E+01  0.37317423131E+01  0.25500000000E-02 0. -1.
          2   -1    0    0    0  501  0.00000000000E+00 -0.00000000000E+00 -0.19651802304E+03  0.19651802306E+03  0.25500000000E-02 0. -1.
          2    1    1    2    0  502  0.20117900829E+02 -0.14170625980E+02 -0.13819359170E+03  0.14036739424E+03  0.25500000000E-02 0. -1.
         -2    1    1    2  502    0 -0.20117900829E+02  0.14170625980E+02 -0.54592689907E+02  0.59882371131E+02  0.25500000000E-02 0. -1.
<mgrwt>
<rscale>  0 0.54161039E+02</rscale>
<asrwt>0</asrwt>
<pdfrwt beam="2">  1        2 0.30233534E-01 0.54161039E+02</pdfrwt>
<pdfrwt beam="1">  1       -2 0.57411429E-03 0.54161039E+02</pdfrwt>
<totfact> 0.59851781E+05</totfact>
</mgrwt>
</event>
<event>
 4    1  0.2196664E-002  0.1108689E+03  0.7818608E-02  0.1258969E+00
          2   -1    0    0    0  501  0.00000000000E+00  0.00000000000E+00  0.14327930644E+04  0.14327930644E+04  0.25500000000E-02 0. -1.
         -2   -1    0    0  501    0 -0.00000000000E+00 -0.00000000000E+00 -0.21447447310E+01  0.21447462469E+01  0.25500000000E-02 0. -1.
          2    1    1    2    0  502 -0.17250086948E+02  0.11716983902E+02  0.13800935398E+04  0.13802510757E+04  0.25500000000E-02 0.  1.
         -2    1    1    2  502    0  0.17250086948E+02 -0.11716983902E+02  0.50554779873E+02  0.54686735010E+02  0.25500000000E-02 0.  1.
<mgrwt>
<rscale>  0 0.11086887E+03</rscale>
<asrwt>0</asrwt>
<pdfrwt beam="1">  1        2 0.22042948E+00 0.11086887E+03</pdfrwt>
<pdfrwt beam="2">  1       -2 0.32996118E-03 0.11086887E+03</pdfrwt>
<totfact> 0.14252593E+05</totfact>
</mgrwt>
</event>
<event>
 4    1  0.2196664E-002  0.4800234E+02  0.7818608E-02  0.1456424E+00
         -2   -1    0    0  501    0 -0.00000000000E+00  0.00000000000E+00  0.51063246318E+03  0.51063246319E+03  0.25500000000E-02 0. -1.
          2   -1    0    0    0  501  0.00000000000E+00 -0.00000000000E+00 -0.11281211952E+01  0.11281240772E+01  0.25500000000E-02 0. -1.
          2    1    1    2    0  502  0.18808969521E+01  0.23909752225E+02  0.24496935851E+03  0.24614061152E+03  0.25500000000E-02 0. -1.
         -2    1    1    2  502    0 -0.18808969521E+01 -0.23909752225E+02  0.26453498348E+03  0.26561997575E+03  0.25500000000E-02 0. -1.
<mgrwt>
<rscale>  0 0.48002335E+02</rscale>
<asrwt>0</asrwt>
<pdfrwt beam="2">  1        2 0.17355691E-03 0.48002335E+02</pdfrwt>
<pdfrwt beam="1">  1       -2 0.78559030E-01 0.48002335E+02</pdfrwt>
<totfact> 0.18020707E+05</totfact>
</mgrwt>
</event>
<event>
 4    1  0.2196664E-002  0.4379267E+02  0.7818608E-02  0.1482023E+00
          2   -1    0    0    0  501  0.00000000000E+00  0.00000000000E+00  0.21737925055E+03  0.21737925057E+03  0.25500000000E-02 0. -1.
         -2   -1    0    0  501    0 -0.00000000000E+00 -0.00000000000E+00 -0.22055896200E+01  0.22055910941E+01  0.25500000000E-02 0. -1.
          2    1    1    2    0  502 -0.10171879574E+02  0.17898487438E+02  0.14498429024E+03  0.14643861311E+03  0.25500000000E-02 0.  1.
         -2    1    1    2  502    0  0.10171879574E+02 -0.17898487438E+02  0.70189370693E+02  0.73146228552E+02  0.25500000000E-02 0.  1.
<mgrwt>
<rscale>  0 0.43792674E+02</rscale>
<asrwt>0</asrwt>
<pdfrwt beam="1">  1        2 0.33442975E-01 0.43792674E+02</pdfrwt>
<pdfrwt beam="2">  1       -2 0.33932146E-03 0.43792674E+02</pdfrwt>
<totfact> 0.10516539E+06</totfact>
</mgrwt>
</event>
<event>
 4    1  0.2196664E-002  0.4931593E+02  0.7818608E-02  0.1449067E+00
         -2   -1    0    0  501    0 -0.00000000000E+00  0.00000000000E+00  0.22347774739E+02  0.22347774884E+02  0.25500000000E-02 0. -1.
          2   -1    0    0    0  501  0.00000000000E+00 -0.00000000000E+00 -0.27206972964E+02  0.27206973083E+02  0.25500000000E-02 0. -1.
          2    1    1    2    0  502 -0.12113231869E+02 -0.20193477554E+02  0.49207662079E+01  0.24056617980E+02  0.25500000000E-02 0.  1.
         -2    1    1    2  502    0  0.12113231869E+02  0.20193477554E+02 -0.97799644331E+01  0.25498129988E+02  0.25500000000E-02 0.  1.
<mgrwt>
<rscale>  0 0.49315933E+02</rscale>
<asrwt>0</asrwt>
<pdfrwt beam="2">  1        2 0.41856881E-02 0.49315933E+02</pdfrwt>
<pdfrwt beam="1">  1       -2 0.34381192E-02 0.49315933E+02</pdfrwt>
<totfact> 0.47916541E+05</totfact>
</mgrwt>
</event>
<event>
 4    1  0.2196664E-002  0.9209170E+02  0.7818608E-02  0.1297864E+00
          2   -1    0    0    0  501  0.00000000000E+00  0.00000000000E+00  0.12904833821E+04  0.12904833821E+04  0.25500000000E-02 0. -1.
         -2   -1    0    0  501    0 -0.00000000000E+00 -0.00000000000E+00 -0.16429648996E+01  0.16429668785E+01  0.25500000000E-02 0. -1.
          2    1    1    2    0  502  0.33489691365E+02 -0.31520306883E+02  0.67620252328E+03  0.67776466541E+03  0.25500000000E-02 0.  1.
         -2    1    1    2  502    0 -0.33489691365E+02  0.31520306883E+02  0.61263789390E+03  0.61436168355E+03  0.25500000000E-02 0.  1.
<mgrwt>
<rscale>  0 0.92091697E+02</rscale>
<asrwt>0</asrwt>
<pdfrwt beam="1">  1        2 0.19853576E+00 0.92091697E+02</pdfrwt>
<pdfrwt beam="2">  1       -2 0.25276417E-03 0.92091697E+02</pdfrwt>
<totfact> 0.23965174E+05</totfact>
</mgrwt>
</event>
<event>
 4    1  0.2196664E-002  0.4975577E+02  0.7818608E-02  0.1446663E+00
          2   -1    0    0    0  501  0.00000000000E+00  0.00000000000E+00  0.34778490820E+03  0.34778490821E+03  0.25500000000E-02 0.  1.
         -2   -1    0    0  501    0 -0.00000000000E+00 -0.00000000000E+00 -0.17795736784E+01  0.17795755053E+01  0.25500000000E-02 0.  1.
          2    1    1    2    0  502  0.17336728512E+02  0.15682178360E+02  0.23278901632E+03  0.23395986621E+03  0.25500000000E-02 0.  1.
         -2    1    1    2  502    0 -0.17336728512E+02 -0.15682178360E+02  0.11321631820E+03  0.11560461750E+03  0.25500000000E-02 0.  1.
<mgrwt>
<rscale>  0 0.49755771E+02</rscale>
<asrwt>0</asrwt>
<pdfrwt beam="1">  1        2 0.53505299E-01 0.49755771E+02</pdfrwt>
<pdfrwt beam="2">  1       -2 0.27378107E-03 0.49755771E+02</pdfrwt>
<totfact> 0.90140285E+05</totfact>
</mgrwt>
</event>
<event>
 4    1  0.2196664E-002  0.4397627E+02  0.7818608E-02  0.1480836E+00
         -2   -1    0    0  501    0 -0.00000000000E+00  0.00000000000E+00  0.95310953265E+00  0.95311294385E+00  0.25500000000E-02 0. -1.
          2   -1    0    0    0  501  0.00000000000E+00 -0.00000000000E+00 -0.50726293817E+03  0.50726293817E+03  0.25500000000E-02 0. -1.
          2    1    1    2    0  502  0.13485351043E+02 -0.17208946138E+02 -0.22611276086E+03  0.22716730211E+03  0.25500000000E-02 0.  1.
         -2    1    1    2  502    0 -0.13485351043E+02  0.17208946138E+02 -0.28019706778E+03  0.28104874901E+03  0.25500000000E-02 0.  1.
<mgrwt>
<rscale>  0 0.43976267E+02</rscale>
<asrwt>0</asrwt>
<pdfrwt beam="2">  1        2 0.78040237E-01 0.43976267E+02</pdfrwt>
<pdfrwt beam="1">  1       -2 0.14663290E-03 0.43976267E+02</pdfrwt>
<totfact> 0.13825556E+06</totfact>
</mgrwt>
</event>
<event>
 4    1  0.2196664E-002  0.6300519E+02  0.7818608E-02  0.1385636E+00
         -2   -1    0    0  501    0 -0.00000000000E+00  0.00000000000E+00  0.35041721796E+00  0.35042649607E+00  0.25500000000E-02 0. -1.
          2   -1    0    0    0  501  0.00000000000E+00 -0.00000000000E+00 -0.28320536512E+04  0.28320536512E+04  0.25500000000E-02 0. -1.
          2    1    1    2    0  502  0.29336332943E+02  0.86863199887E+01 -0.17532871514E+04  0.17535540790E+04  0.25500000000E-02 0. -1.
         -2    1    1    2  502    0 -0.29336332943E+02 -0.86863199887E+01 -0.10784160826E+04  0.10788499987E+04  0.25500000000E-02 0. -1.
<mgrwt>
<rscale>  0 0.63005190E+02</rscale>
<asrwt>0</asrwt>
<pdfrwt beam="2">  1        2 0.43568223E+00 0.63005190E+02</pdfrwt>
<pdfrwt beam="1">  1       -2 0.53913323E-04 0.63005190E+02</pdfrwt>
<totfact> 0.30811446E+05</totfact>
</mgrwt>
</event>
<event>
 4    1  0.2196664E-002  0.6775969E+02  0.7818608E-02  0.1367881E+00
          2   -1    0    0    0  501  0.00000000000E+00  0.00000000000E+00  0.70966668082E+01  0.70966672663E+01  0.25500000000E-02 0.  1.
         -2   -1    0    0  501    0 -0.00000000000E+00 -0.00000000000E+00 -0.16174409407E+03  0.16174409409E+03  0.25500000000E-02 0.  1.
          2    1    1    2    0  502 -0.18089234512E+02 -0.24139502428E+02 -0.38890173142E+02  0.49217695560E+02  0.25500000000E-02 0.  1.
         -2    1    1    2  502    0  0.18089234512E+02  0.24139502428E+02 -0.11575725411E+03  0.11962306579E+03  0.25500000000E-02 0.  1.
<mgrwt>
<rscale>  0 0.67759693E+02</rscale>
<asrwt>0</asrwt>
<pdfrwt beam="1">  1        2 0.10917951E-02 0.67759693E+02</pdfrwt>
<pdfrwt beam="2">  1       -2 0.24883704E-01 0.67759693E+02</pdfrwt>
<totfact> 0.14373484E+05</totfact>
</mgrwt>
</event>
<event>
 4    1  0.2196664E-002  0.4523909E+02  0.7818608E-02  0.1472855E+00
          2   -1    0    0    0  501  0.00000000000E+00  0.00000000000E+00  0.10676716845E+01  0.10676747297E+01  0.25500000000E-02 0. -1.
         -2   -1    0    0  501    0 -0.00000000000E+00 -0.00000000000E+00 -0.47921393189E+03  0.47921393190E+03  0.25500000000E-02 0. -1.
          2    1    1    2    0  502  0.19670006984E+02  0.10531723172E+02 -0.19960951413E+03  0.20085264376E+03  0.25500000000E-02 0. -1.
         -2    1    1    2  502    0 -0.19670006984E+02 -0.10531723172E+02 -0.27853674608E+03  0.27942896287E+03  0.25500000000E-02 0. -1.
<mgrwt>
<rscale>  0 0.45239093E+02</rscale>
<asrwt>0</asrwt>
<pdfrwt beam="1">  1        2 0.16425780E-03 0.45239093E+02</pdfrwt>
<pdfrwt beam="2">  1       -2 0.73725049E-01 0.45239093E+02</pdfrwt>
<totfact> 0.21867443E+05</totfact>
</mgrwt>
</event>
<event>
 4    1  0.2196664E-002  0.1431923E+03  0.7818608E-02  0.1209097E+00
         -2   -1    0    0  501    0 -0.00000000000E+00  0.00000000000E+00  0.38826607637E+01  0.38826616011E+01  0.25500000000E-02 0.  1.
          2   -1    0    0    0  501  0.00000000000E+00 -0.00000000000E+00 -0.13202312394E+04  0.13202312394E+04  0.25500000000E-02 0.  1.
          2    1    1    2    0  502  0.66568436643E+02  0.21813177590E+02 -0.79496861018E+03  0.79804903525E+03  0.25500000000E-02 0. -1.
         -2    1    1    2  502    0 -0.66568436643E+02 -0.21813177590E+02 -0.52137996842E+03  0.52606486573E+03  0.25500000000E-02 0. -1.
<mgrwt>
<rscale>  0 0.14319233E+03</rscale>
<asrwt>0</asrwt>
<pdfrwt beam="2">  1        2 0.20311214E+00 0.14319233E+03</pdfrwt>
<pdfrwt beam="1">  1       -2 0.59733355E-03 0.14319233E+03</pdfrwt>
<totfact> 0.72709156E+04</totfact>
</mgrwt>
</event>
<event>
 4    1  0.2196664E-002  0.5598126E+02  0.7818608E-02  0.1415515E+00
          2   -1    0    0    0  501  0.00000000000E+00  0.00000000000E+00  0.61585506566E+03  0.61585506567E+03  0.25500000000E-02 0. -1.
         -2   -1    0    0  501    0 -0.00000000000E+00 -0.00000000000E+00 -0.12721735486E+01  0.12721761043E+01  0.25500000000E-02 0. -1.
          2    1    1    2    0  502  0.50591038616E+01 -0.24237375693E+02  0.16337660261E+03  0.16524212296E+03  0.25500000000E-02 0.  1.
         -2    1    1    2  502    0 -0.50591038616E+01  0.24237375693E+02  0.45120628950E+03  0.45188511881E+03  0.25500000000E-02 0.  1.
<mgrwt>
<rscale>  0 0.55981258E+02</rscale>
<asrwt>0</asrwt>
<pdfrwt beam="1">  1        2 0.94747078E-01 0.55981258E+02</pdfrwt>
<pdfrwt beam="2">  1       -2 0.19571891E-03 0.55981258E+02</pdfrwt>
<totfact> 0.80524232E+05</totfact>
</mgrwt>
</event>
<event>
 4    1  0.2196664E-002  0.5749583E+02  0.7818608E-02  0.1408652E+00
         -2   -1    0    0  501    0 -0.00000000000E+00  0.00000000000E+00  0.71757448415E+01  0.71757452945E+01  0.25500000000E-02 0. -1.
          2   -1    0    0    0  501  0.00000000000E+00 -0.00000000000E+00 -0.11517166856E+03  0.11517166858E+03  0.25500000000E-02 0. -1.
          2    1    1    2    0  502 -0.16384560957E+02  0.22624830734E+02 -0.39549024779E+02  0.48419646539E+02  0.25500000000E-02 0.  1.
         -2    1    1    2  502    0  0.16384560957E+02 -0.22624830734E+02 -0.68446898935E+02  0.73927767339E+02  0.25500000000E-02 0.  1.
<mgrwt>
<rscale>  0 0.57495827E+02</rscale>
<asrwt>0</asrwt>
<pdfrwt beam="2">  1        2 0.17718717E-01 0.57495827E+02</pdfrwt>
<pdfrwt beam="1">  1       -2 0.11039609E-02 0.57495827E+02</pdfrwt>
<totfact> 0.43552021E+05</totfact>
</mgrwt>
</event>
<event>
 4    1  0.2196664E-002  0.6790634E+02  0.7818608E-02  0.1367361E+00
         -2   -1    0    0  501    0 -0.00000000000E+00  0.00000000000E+00  0.20458552404E+03  0.20458552405E+03  0.25500000000E-02 0.  1.
          2   -1    0    0    0  501  0.00000000000E+00 -0.00000000000E+00 -0.56348931638E+01  0.56348937408E+01  0.25500000000E-02 0.  1.
          2    1    1    2    0  502  0.22668103142E+02 -0.28831047271E+01  0.21731996870E+02  0.31534661681E+02  0.25500000000E-02 0. -1.
         -2    1    1    2  502    0 -0.22668103142E+02  0.28831047271E+01  0.17721863400E+03  0.17868575611E+03  0.25500000000E-02 0. -1.
<mgrwt>
<rscale>  0 0.67906336E+02</rscale>
<asrwt>0</asrwt>
<pdfrwt beam="2">  1        2 0.86690668E-03 0.67906336E+02</pdfrwt>
<pdfrwt beam="1">  1       -2 0.31474696E-01 0.67906336E+02</pdfrwt>
<totfact> 0.13036002E+05</totfact>
</mgrwt>
</event>
<event>
 4    1  0.2196664E-002  0.4240026E+02  0.7818608E-02  0.1491256E+00
          2   -1    0    0    0  501  0.00000000000E+00  0.00000000000E+00  0.19771297835E+04  0.19771297835E+04  0.25500000000E-02 0.  1.
         -2   -1    0    0  501    0 -0.00000000000E+00 -0.00000000000E+00 -0.22731505854E+00  0.22732936093E+00  0.25500000000E-02 0.  1.
          2    1    1    2    0  502  0.10714939834E+02 -0.18292627909E+02  0.99422662437E+03  0.99445261867E+03  0.25500000000E-02 0. -1.
         -2    1    1    2  502    0 -0.10714939834E+02  0.18292627909E+02  0.98267584411E+03  0.98290449423E+03  0.25500000000E-02 0. -1.
<mgrwt>
<rscale>  0 0.42400260E+02</rscale>
<asrwt>0</asrwt>
<pdfrwt beam="1">  1        2 0.30418717E+00 0.42400260E+02</pdfrwt>
<pdfrwt beam="2">  1       -2 0.34971112E-04 0.42400260E+02</pdfrwt>
<totfact> 0.13981605E+06</totfact>
</mgrwt>
</event>
<event>
 4    1  0.2196664E-002  0.4622402E+02  0.7818608E-02  0.1466842E+00
         -2   -1    0    0  501    0 -0.00000000000E+00  0.00000000000E+00  0.51194131125E+01  0.51194137476E+01  0.25500000000E-02 0.  1.
          2   -1    0    0    0  501  0.00000000000E+00 -0.00000000000E+00 -0.10434104593E+03  0.10434104597E+03  0.25500000000E-02 0.  1.
          2    1    1    2    0  502 -0.19273818194E+02 -0.64753915427E+01 -0.23588816433E+02  0.31142302911E+02  0.25500000000E-02 0. -1.
         -2    1    1    2  502    0  0.19273818194E+02  0.64753915427E+01 -0.75632816390E+02  0.78318156803E+02  0.25500000000E-02 0. -1.
<mgrwt>
<rscale>  0 0.46224018E+02</rscale>
<asrwt>0</asrwt>
<pdfrwt beam="2">  1        2 0.16052467E-01 0.46224018E+02</pdfrwt>
<pdfrwt beam="1">  1       -2 0.78760215E-03 0.46224018E+02</pdfrwt>
<totfact> 0.73777123E+05</totfact>
</mgrwt>
</event>
<event>
 4    1  0.2196664E-002  0.4104881E+02  0.7818608E-02  0.1500632E+00
          2   -1    0    0    0  501  0.00000000000E+00  0.00000000000E+00  0.30893683896E+03  0.30893683897E+03  0.25500000000E-02 0.  1.
         -2   -1    0    0  501    0 -0.00000000000E+00 -0.00000000000E+00 -0.13635502613E+01  0.13635526457E+01  0.25500000000E-02 0.  1.
          2    1    1    2    0  502 -0.27493784320E+01 -0.20309743442E+02  0.14548340506E+03  0.14691993028E+03  0.25500000000E-02 0.  1.
         -2    1    1    2  502    0  0.27493784320E+01  0.20309743442E+02  0.16208988364E+03  0.16338046133E+03  0.25500000000E-02 0.  1.
<mgrwt>
<rscale>  0 0.41048814E+02</rscale>
<asrwt>0</asrwt>
<pdfrwt beam="1">  1        2 0.47528835E-01 0.41048814E+02</pdfrwt>
<pdfrwt beam="2">  1       -2 0.20977675E-03 0.41048814E+02</pdfrwt>
<totfact> 0.13878956E+06</totfact>
</mgrwt>
</event>
<event>
 4    1  0.2196664E-002  0.7498568E+02  0.7818608E-02  0.1343915E+00
         -2   -1    0    0  501    0 -0.00000000000E+00  0.00000000000E+00  0.32387570593E+01  0.32387580632E+01  0.25500000000E-02 0. -1.
          2   -1    0    0    0  501  0.00000000000E+00 -0.00000000000E+00 -0.43402844276E+03  0.43402844276E+03  0.25500000000E-02 0. -1.
          2    1    1    2    0  502  0.21551469026E+02 -0.31903617496E+01 -0.39332905021E+03  0.39393195601E+03  0.25500000000E-02 0.  1.
         -2    1    1    2  502    0 -0.21551469026E+02  0.31903617496E+01 -0.37460635492E+02  0.43335244816E+02  0.25500000000E-02 0.  1.
<mgrwt>
<rscale>  0 0.74985676E+02</rscale>
<asrwt>0</asrwt>
<pdfrwt beam="2">  1        2 0.66773561E-01 0.74985676E+02</pdfrwt>
<pdfrwt beam="1">  1       -2 0.49827074E-03 0.74985676E+02</pdfrwt>
<totfact> 0.34318094E+05</totfact>
</mgrwt>
</event>
<event>
 4    1  0.2196664E-002  0.1041683E+03  0.7818608E-02  0.1271767E+00
         -2   -1    0    0  501    0 -0.00000000000E+00  0.00000000000E+00  0.15640187225E+01  0.15640208013E+01  0.25500000000E-02 0. -1.
          2   -1    0    0    0  501  0.00000000000E+00 -0.00000000000E+00 -0.17344786472E+04  0.17344786472E+04  0.25500000000E-02 0. -1.
          2    1    1    2    0  502  0.42315948029E+02  0.17205923274E+02 -0.44945525494E+03  0.45177063811E+03  0.25500000000E-02 0.  1.
         -2    1    1    2  502    0 -0.42315948029E+02 -0.17205923274E+02 -0.12834593735E+04  0.12842720299E+04  0.25500000000E-02 0.  1.
<mgrwt>
<rscale>  0 0.10416830E+03</rscale>
<asrwt>0</asrwt>
<pdfrwt beam="2">  1        2 0.26684133E+00 0.10416830E+03</pdfrwt>
<pdfrwt beam="1">  1       -2 0.24061981E-03 0.10416830E+03</pdfrwt>
<totfact> 0.15420065E+05</totfact>
</mgrwt>
</event>
<event>
 4    1  0.2196664E-002  0.7042460E+02  0.7818608E-02  0.1358655E+00
          2   -1    0    0    0  501  0.00000000000E+00  0.00000000000E+00  0.41301965633E+01  0.41301973505E+01  0.25500000000E-02 0. -1.
         -2   -1    0    0  501    0 -0.00000000000E+00 -0.00000000000E+00 -0.30020502996E+03  0.30020502997E+03  0.25500000000E-02 0. -1.
          2    1    1    2    0  502 -0.33110265176E+02  0.11380760384E+02 -0.13181359441E+03  0.13638414514E+03  0.25500000000E-02 0. -1.
         -2    1    1    2  502    0  0.33110265176E+02 -0.11380760384E+02 -0.16426123899E+03  0.16795108218E+03  0.25500000000E-02 0. -1.
<mgrwt>
<rscale>  0 0.70424595E+02</rscale>
<asrwt>0</asrwt>
<pdfrwt beam="1">  1        2 0.63541515E-03 0.70424595E+02</pdfrwt>
<pdfrwt beam="2">  1       -2 0.46185372E-01 0.70424595E+02</pdfrwt>
<totfact> 0.98641364E+04</totfact>
</mgrwt>
</event>
<event>
 4    1  0.2196664E-002  0.4512540E+02  0.7818608E-02  0.1473560E+00
         -2   -1    0    0  501    0 -0.00000000000E+00  0.00000000000E+00  0.22082111620E+00  0.22083583916E+00  0.25500000000E-02 0. -1.
          2   -1    0    0    0  501  0.00000000000E+00 -0.00000000000E+00 -0.23052975018E+04  0.23052975018E+04  0.25500000000E-02 0. -1.
          2    1    1    2    0  502  0.18177408199E+02 -0.11999434688E+02 -0.85170285234E+03  0.85198131041E+03  0.25500000000E-02 0.  1.
         -2    1    1    2  502    0 -0.18177408199E+02  0.11999434688E+02 -0.14533738283E+04  0.14535370272E+04  0.25500000000E-02 0.  1.
<mgrwt>
<rscale>  0 0.45125396E+02</rscale>
<asrwt>0</asrwt>
<pdfrwt beam="2">  1        2 0.35464188E+00 0.45125396E+02</pdfrwt>
<pdfrwt beam="1">  1       -2 0.33975458E-04 0.45125396E+02</pdfrwt>
<totfact> 0.10184566E+06</totfact>
</mgrwt>
</event>
<event>
 4    1  0.2196664E-002  0.4940394E+02  0.7818608E-02  0.1448583E+00
          2   -1    0    0    0  501  0.00000000000E+00  0.00000000000E+00  0.17798824514E+03  0.17798824516E+03  0.25500000000E-02 0. -1.
         -2   -1    0    0  501    0 -0.00000000000E+00 -0.00000000000E+00 -0.34282443864E+01  0.34282453348E+01  0.25500000000E-02 0. -1.
          2    1    1    2    0  502  0.13125781478E+02 -0.15854593165E+02  0.13743255359E+03  0.13896532321E+03  0.25500000000E-02 0. -1.
         -2    1    1    2  502    0 -0.13125781478E+02  0.15854593165E+02  0.37127447166E+02  0.42451167280E+02  0.25500000000E-02 0. -1.
<mgrwt>
<rscale>  0 0.49403939E+02</rscale>
<asrwt>0</asrwt>
<pdfrwt beam="1">  1        2 0.27382809E-01 0.49403939E+02</pdfrwt>
<pdfrwt beam="2">  1       -2 0.52742225E-03 0.49403939E+02</pdfrwt>
<totfact> 0.73020166E+05</totfact>
</mgrwt>
</event>
<event>
 4    1  0.2196664E-002  0.4934000E+02  0.7818608E-02  0.1448934E+00
          2   -1    0    0    0  501  0.00000000000E+00  0.00000000000E+00  0.77826649719E+01  0.77826653897E+01  0.25500000000E-02 0. -1.
         -2   -1    0    0  501    0 -0.00000000000E+00 -0.00000000000E+00 -0.78200579442E+02  0.78200579483E+02  0.25500000000E-02 0. -1.
          2    1    1    2    0  502  0.11495996801E+02  0.21348265839E+02 -0.27279812360E+02  0.36497870701E+02  0.25500000000E-02 0. -1.
         -2    1    1    2  502    0 -0.11495996801E+02 -0.21348265839E+02 -0.43138102110E+02  0.49485374172E+02  0.25500000000E-02 0. -1.
<mgrwt>
<rscale>  0 0.49340001E+02</rscale>
<asrwt>0</asrwt>
<pdfrwt beam="1">  1        2 0.11973332E-02 0.49340001E+02</pdfrwt>
<pdfrwt beam="2">  1       -2 0.12030858E-01 0.49340001E+02</pdfrwt>
<totfact> 0.38613141E+05</totfact>
</mgrwt>
</event>
<event>
 4    1  0.2196664E-002  0.4606104E+02  0.7818608E-02  0.1467824E+00
         -2   -1    0    0  501    0 -0.00000000000E+00  0.00000000000E+00  0.49354612039E+01  0.49354618627E+01  0.25500000000E-02 0.  1.
          2   -1    0    0    0  501  0.00000000000E+00 -0.00000000000E+00 -0.10746815265E+03  0.10746815268E+03  0.25500000000E-02 0.  1.
          2    1    1    2    0  502 -0.20689044222E+02  0.10064030267E+02 -0.48725982125E+02  0.53884530216E+02  0.25500000000E-02 0. -1.
         -2    1    1    2  502    0  0.20689044222E+02 -0.10064030267E+02 -0.53806709319E+02  0.58519084325E+02  0.25500000000E-02 0. -1.
<mgrwt>
<rscale>  0 0.46061044E+02</rscale>
<asrwt>0</asrwt>
<pdfrwt beam="2">  1        2 0.16533560E-01 0.46061044E+02</pdfrwt>
<pdfrwt beam="1">  1       -2 0.75930186E-03 0.46061044E+02</pdfrwt>
<totfact> 0.75012715E+05</totfact>
</mgrwt>
</event>
<event>
 4    1  0.2196664E-002  0.4201005E+02  0.7818608E-02  0.1493920E+00
          2   -1    0    0    0  501  0.00000000000E+00  0.00000000000E+00  0.14238642469E+04  0.14238642469E+04  0.25500000000E-02 0.  1.
         -2   -1    0    0  501    0 -0.00000000000E+00 -0.00000000000E+00 -0.30986349705E+00  0.30987398939E+00  0.25500000000E-02 0.  1.
          2    1    1    2    0  502 -0.17661859165E+02 -0.96166758602E+01  0.91739970502E+03  0.91762009595E+03  0.25500000000E-02 0.  1.
         -2    1    1    2  502    0  0.17661859165E+02  0.96166758602E+01  0.50615467835E+03  0.50655402491E+03  0.25500000000E-02 0.  1.
<mgrwt>
<rscale>  0 0.42010048E+02</rscale>
<asrwt>0</asrwt>
<pdfrwt beam="1">  1        2 0.21905500E+00 0.42010048E+02</pdfrwt>
<pdfrwt beam="2">  1       -2 0.47672341E-04 0.42010048E+02</pdfrwt>
<totfact> 0.17085854E+06</totfact>
</mgrwt>
</event>
<event>
 4    1  0.2196664E-002  0.4163954E+02  0.7818608E-02  0.1496482E+00
          2   -1    0    0    0  501  0.00000000000E+00  0.00000000000E+00  0.13748768527E+03  0.13748768529E+03  0.25500000000E-02 0.  1.
         -2   -1    0    0  501    0 -0.00000000000E+00 -0.00000000000E+00 -0.31527382693E+01  0.31527393006E+01  0.25500000000E-02 0.  1.
          2    1    1    2    0  502  0.20711241039E+02  0.18924053943E+01  0.63917186317E+02  0.67215648600E+02  0.25500000000E-02 0. -1.
         -2    1    1    2  502    0 -0.20711241039E+02 -0.18924053943E+01  0.70417760680E+02  0.73424775990E+02  0.25500000000E-02 0. -1.
<mgrwt>
<rscale>  0 0.41639537E+02</rscale>
<asrwt>0</asrwt>
<pdfrwt beam="1">  1        2 0.21151947E-01 0.41639537E+02</pdfrwt>
<pdfrwt beam="2">  1       -2 0.48503685E-03 0.41639537E+02</pdfrwt>
<totfact> 0.10315673E+06</totfact>
</mgrwt>
</event>
<event>
 4    1  0.2196664E-002  0.4545518E+02  0.7818608E-02  0.1471520E+00
          2   -1    0    0    0  501  0.00000000000E+00  0.00000000000E+00  0.35919448617E+02  0.35919448707E+02  0.25500000000E-02 0. -1.
         -2   -1    0    0  501    0 -0.00000000000E+00 -0.00000000000E+00 -0.14380604809E+02  0.14380605035E+02  0.25500000000E-02 0. -1.
          2    1    1    2    0  502 -0.14056634200E+02  0.16879639222E+02  0.43139182663E+01  0.22385733909E+02  0.25500000000E-02 0. -1.
         -2    1    1    2  502    0  0.14056634200E+02 -0.16879639222E+02  0.17224925542E+02  0.27914319833E+02  0.25500000000E-02 0. -1.
<mgrwt>
<rscale>  0 0.45455182E+02</rscale>
<asrwt>0</asrwt>
<pdfrwt beam="1">  1        2 0.55260690E-02 0.45455182E+02</pdfrwt>
<pdfrwt beam="2">  1       -2 0.22124008E-02 0.45455182E+02</pdfrwt>
<totfact> 0.61833735E+05</totfact>
</mgrwt>
</event>
<event>
 4    1  0.2196664E-002  0.4208109E+02  0.7818608E-02  0.1493432E+00
         -2   -1    0    0  501    0 -0.00000000000E+00  0.00000000000E+00  0.24775681839E+00  0.24776994079E+00  0.25500000000E-02 0.  1.
          2   -1    0    0    0  501  0.00000000000E+00 -0.00000000000E+00 -0.17868037196E+04  0.17868037196E+04  0.25500000000E-02 0.  1.
          2    1    1    2    0  502  0.17101625761E+02  0.11920802312E+02 -0.77216631496E+03  0.77244766107E+03  0.25500000000E-02 0.  1.
         -2    1    1    2  502    0 -0.17101625761E+02 -0.11920802312E+02 -0.10143896479E+04  0.10146038285E+04  0.25500000000E-02 0.  1.
<mgrwt>
<rscale>  0 0.42081090E+02</rscale>
<asrwt>0</asrwt>
<pdfrwt beam="2">  1        2 0.27488256E+00 0.42081090E+02</pdfrwt>
<pdfrwt beam="1">  1       -2 0.38118874E-04 0.42081090E+02</pdfrwt>
<totfact> 0.15362063E+06</totfact>
</mgrwt>
</event>
<event>
 4    1  0.2196664E-002  0.6999134E+02  0.7818608E-02  0.1360123E+00
          2   -1    0    0    0  501  0.00000000000E+00  0.00000000000E+00  0.66412810904E+03  0.66412810904E+03  0.25500000000E-02 0.  1.
         -2   -1    0    0  501    0 -0.00000000000E+00 -0.00000000000E+00 -0.18440663278E+01  0.18440680909E+01  0.25500000000E-02 0.  1.
          2    1    1    2    0  502 -0.22082125137E+02 -0.23337688438E+01  0.58851181787E+03  0.58893057869E+03  0.25500000000E-02 0. -1.
         -2    1    1    2  502    0  0.22082125137E+02  0.23337688438E+01  0.73772224835E+02  0.77041598446E+02  0.25500000000E-02 0. -1.
<mgrwt>
<rscale>  0 0.69991339E+02</rscale>
<asrwt>0</asrwt>
<pdfrwt beam="1">  1        2 0.10217356E+00 0.69991339E+02</pdfrwt>
<pdfrwt beam="2">  1       -2 0.28370264E-03 0.69991339E+02</pdfrwt>
<totfact> 0.46598986E+05</totfact>
</mgrwt>
</event>
<event>
 4    1  0.2196664E-002  0.4767235E+02  0.7818608E-02  0.1458316E+00
         -2   -1    0    0  501    0 -0.00000000000E+00  0.00000000000E+00  0.49976471189E+02  0.49976471254E+02  0.25500000000E-02 0. -1.
          2   -1    0    0    0  501  0.00000000000E+00 -0.00000000000E+00 -0.11368613819E+02  0.11368614105E+02  0.25500000000E-02 0. -1.
          2    1    1    2    0  502 -0.18877794303E+02 -0.13449289353E+02  0.12149851553E+02  0.26170085997E+02  0.25500000000E-02 0. -1.
         -2    1    1    2  502    0  0.18877794303E+02  0.13449289353E+02  0.26458005816E+02  0.35174999362E+02  0.25500000000E-02 0. -1.
<mgrwt>
<rscale>  0 0.47672349E+02</rscale>
<asrwt>0</asrwt>
<pdfrwt beam="2">  1        2 0.17490175E-02 0.47672349E+02</pdfrwt>
<pdfrwt beam="1">  1       -2 0.76886880E-02 0.47672349E+02</pdfrwt>
<totfact> 0.45706706E+05</totfact>
</mgrwt>
</event>
<event>
 4    1  0.2196664E-002  0.6721023E+02  0.7818608E-02  0.1369845E+00
         -2   -1    0    0  501    0 -0.00000000000E+00  0.00000000000E+00  0.56053894682E+01  0.56053900482E+01  0.25500000000E-02 0. -1.
          2   -1    0    0    0  501  0.00000000000E+00 -0.00000000000E+00 -0.20146749588E+03  0.20146749589E+03  0.25500000000E-02 0. -1.
          2    1    1    2    0  502  0.23926751081E+02  0.20953053726E+02 -0.13136833061E+03  0.13516344984E+03  0.25500000000E-02 0.  1.
         -2    1    1    2  502    0 -0.23926751081E+02 -0.20953053726E+02 -0.64493775799E+02  0.71909436105E+02  0.25500000000E-02 0.  1.
<mgrwt>
<rscale>  0 0.67210233E+02</rscale>
<asrwt>0</asrwt>
<pdfrwt beam="2">  1        2 0.30994994E-01 0.67210233E+02</pdfrwt>
<pdfrwt beam="1">  1       -2 0.86236781E-03 0.67210233E+02</pdfrwt>
<totfact> 0.34718360E+05</totfact>
</mgrwt>
</event>
<event>
 4    1  0.2196664E-002  0.4309021E+02  0.7818608E-02  0.1486629E+00
         -2   -1    0    0  501    0 -0.00000000000E+00  0.00000000000E+00  0.99085754130E+02  0.99085754163E+02  0.25500000000E-02 0.  1.
          2   -1    0    0    0  501  0.00000000000E+00 -0.00000000000E+00 -0.46847442358E+01  0.46847449298E+01  0.25500000000E-02 0.  1.
          2    1    1    2    0  502  0.19121071574E+02 -0.93346494866E+01  0.55345966691E+02  0.59295253559E+02  0.25500000000E-02 0. -1.
         -2    1    1    2  502    0 -0.19121071574E+02  0.93346494866E+01  0.39055043203E+02  0.44475245534E+02  0.25500000000E-02 0. -1.
<mgrwt>
<rscale>  0 0.43090206E+02</rscale>
<asrwt>0</asrwt>
<pdfrwt beam="2">  1        2 0.72073000E-03 0.43090206E+02</pdfrwt>
<pdfrwt beam="1">  1       -2 0.15243961E-01 0.43090206E+02</pdfrwt>
<totfact> 0.50749170E+05</totfact>
</mgrwt>
</event>
<event>
 4    1  0.2196664E-002  0.5721959E+02  0.7818608E-02  0.1409885E+00
          2   -1    0    0    0  501  0.00000000000E+00  0.00000000000E+00  0.12072740123E+04  0.12072740123E+04  0.25500000000E-02 0. -1.
         -2   -1    0    0  501    0 -0.00000000000E+00 -0.00000000000E+00 -0.67798810727E+00  0.67799290269E+00  0.25500000000E-02 0. -1.
          2    1    1    2    0  502 -0.11275972171E+02 -0.19316003008E+02  0.97991443170E+03  0.98016965317E+03  0.25500000000E-02 0.  1.
         -2    1    1    2  502    0  0.11275972171E+02  0.19316003008E+02  0.22668159252E+03  0.22778235207E+03  0.25500000000E-02 0.  1.
<mgrwt>
<rscale>  0 0.57219588E+02</rscale>
<asrwt>0</asrwt>
<pdfrwt beam="1">  1        2 0.18573244E+00 0.57219588E+02</pdfrwt>
<pdfrwt beam="2">  1       -2 0.10430737E-03 0.57219588E+02</pdfrwt>
<totfact> 0.82318008E+05</totfact>
</mgrwt>
</event>
<event>
 4    1  0.2196664E-002  0.4638381E+02  0.7818608E-02  0.1465883E+00
          2   -1    0    0    0  501  0.00000000000E+00  0.00000000000E+00  0.10067516594E+04  0.10067516594E+04  0.25500000000E-02 0.  1.
         -2   -1    0    0  501    0 -0.00000000000E+00 -0.00000000000E+00 -0.53425423852E+00  0.53426032407E+00  0.25500000000E-02 0.  1.
          2    1    1    2    0  502  0.22327699237E+02  0.50517792602E+01  0.42238419360E+03  0.42300408229E+03  0.25500000000E-02 0.  1.
         -2    1    1    2  502    0 -0.22327699237E+02 -0.50517792602E+01  0.58383321160E+03  0.58428183747E+03  0.25500000000E-02 0.  1.
<mgrwt>
<rscale>  0 0.46383808E+02</rscale>
<asrwt>0</asrwt>
<pdfrwt beam="1">  1        2 0.15488326E+00 0.46383808E+02</pdfrwt>
<pdfrwt beam="2">  1       -2 0.82194281E-04 0.46383808E+02</pdfrwt>
<totfact> 0.13927148E+06</totfact>
</mgrwt>
</event>
<event>
 4    1  0.2196664E-002  0.4176022E+02  0.7818608E-02  0.1495644E+00
         -2   -1    0    0  501    0 -0.00000000000E+00  0.00000000000E+00  0.10217321642E+01  0.10217353463E+01  0.25500000000E-02 0.  1.
          2   -1    0    0    0  501  0.00000000000E+00 -0.00000000000E+00 -0.42670515707E+03  0.42670515708E+03  0.25500000000E-02 0.  1.
          2    1    1    2    0  502 -0.18821246974E+02  0.89602777564E+01 -0.20049480791E+03  0.20157552907E+03  0.25500000000E-02 0. -1.
         -2    1    1    2  502    0  0.18821246974E+02 -0.89602777564E+01 -0.22518861700E+03  0.22615136335E+03  0.25500000000E-02 0. -1.
<mgrwt>
<rscale>  0 0.41760223E+02</rscale>
<asrwt>0</asrwt>
<pdfrwt beam="2">  1        2 0.65646805E-01 0.41760223E+02</pdfrwt>
<pdfrwt beam="1">  1       -2 0.15719015E-03 0.41760223E+02</pdfrwt>
<totfact> 0.14842252E+06</totfact>
</mgrwt>
</event>
<event>
 4    1  0.2196664E-002  0.4081454E+02  0.7818608E-02  0.1502301E+00
         -2   -1    0    0  501    0 -0.00000000000E+00  0.00000000000E+00  0.61728254870E+02  0.61728254923E+02  0.25500000000E-02 0.  1.
          2   -1    0    0    0  501  0.00000000000E+00 -0.00000000000E+00 -0.67466125982E+01  0.67466130801E+01  0.25500000000E-02 0.  1.
          2    1    1    2    0  502 -0.91664827768E+01 -0.18120684386E+02  0.24104915641E+02  0.31518733694E+02  0.25500000000E-02 0.  1.
         -2    1    1    2  502    0  0.91664827768E+01  0.18120684386E+02  0.30876726631E+02  0.36956134309E+02  0.25500000000E-02 0.  1.
<mgrwt>
<rscale>  0 0.40814539E+02</rscale>
<asrwt>0</asrwt>
<pdfrwt beam="2">  1        2 0.10379404E-02 0.40814539E+02</pdfrwt>
<pdfrwt beam="1">  1       -2 0.94966547E-02 0.40814539E+02</pdfrwt>
<totfact> 0.63853762E+05</totfact>
</mgrwt>
</event>
<event>
 4    1  0.2196664E-002  0.4943087E+02  0.7818608E-02  0.1448436E+00
          2   -1    0    0    0  501  0.00000000000E+00  0.00000000000E+00  0.18507076333E+04  0.18507076333E+04  0.25500000000E-02 0. -1.
         -2   -1    0    0  501    0 -0.00000000000E+00 -0.00000000000E+00 -0.33005944158E+00  0.33006929193E+00  0.25500000000E-02 0. -1.
          2    1    1    2    0  502  0.14576242072E+02 -0.19932372997E+02  0.88615913849E+03  0.88650312186E+03  0.25500000000E-02 0. -1.
         -2    1    1    2  502    0 -0.14576242072E+02  0.19932372997E+02  0.96421843534E+03  0.96453458071E+03  0.25500000000E-02 0. -1.
<mgrwt>
<rscale>  0 0.49430867E+02</rscale>
<asrwt>0</asrwt>
<pdfrwt beam="1">  1        2 0.28471922E+00 0.49430867E+02</pdfrwt>
<pdfrwt beam="2">  1       -2 0.50780031E-04 0.49430867E+02</pdfrwt>
<totfact> 0.10085798E+06</totfact>
</mgrwt>
</event>
<event>
 4    1  0.2196664E-002  0.4777103E+02  0.7818608E-02  0.1457749E+00
         -2   -1    0    0  501    0 -0.00000000000E+00  0.00000000000E+00  0.84826782087E+02  0.84826782125E+02  0.25500000000E-02 0.  1.
          2   -1    0    0    0  501  0.00000000000E+00 -0.00000000000E+00 -0.67256810179E+01  0.67256815013E+01  0.25500000000E-02 0.  1.
          2    1    1    2    0  502 -0.20278034492E+02  0.10650418152E+02  0.26068178593E+02  0.34701297257E+02  0.25500000000E-02 0. -1.
         -2    1    1    2  502    0  0.20278034492E+02 -0.10650418152E+02  0.52032922475E+02  0.56851166369E+02  0.25500000000E-02 0. -1.
<mgrwt>
<rscale>  0 0.47771033E+02</rscale>
<asrwt>0</asrwt>
<pdfrwt beam="2">  1        2 0.10347202E-02 0.47771033E+02</pdfrwt>
<pdfrwt beam="1">  1       -2 0.13050274E-01 0.47771033E+02</pdfrwt>
<totfact> 0.41017978E+05</totfact>
</mgrwt>
</event>
<event>
 4    1  0.2196664E-002  0.7186466E+02  0.7818608E-02  0.1353865E+00
         -2   -1    0    0  501    0 -0.00000000000E+00  0.00000000000E+00  0.28178821433E+01  0.28178832971E+01  0.25500000000E-02 0. -1.
          2   -1    0    0    0  501  0.00000000000E+00 -0.00000000000E+00 -0.45819231613E+03  0.45819231614E+03  0.25500000000E-02 0. -1.
          2    1    1    2    0  502 -0.23432465905E+02  0.19668256514E+02 -0.10678377960E+03  0.11107968475E+03  0.25500000000E-02 0. -1.
         -2    1    1    2  502    0  0.23432465905E+02 -0.19668256514E+02 -0.34859065439E+03  0.34993051468E+03  0.25500000000E-02 0. -1.
<mgrwt>
<rscale>  0 0.71864656E+02</rscale>
<asrwt>0</asrwt>
<pdfrwt beam="2">  1        2 0.70491066E-01 0.71864656E+02</pdfrwt>
<pdfrwt beam="1">  1       -2 0.43352078E-03 0.71864656E+02</pdfrwt>
<totfact> 0.39016345E+05</totfact>
</mgrwt>
</event>
<event>
 4    1  0.2196664E-002  0.7358387E+02  0.7818608E-02  0.1348313E+00
         -2   -1    0    0  501    0 -0.00000000000E+00  0.00000000000E+00  0.33392012265E+03  0.33392012266E+03  0.25500000000E-02 0. -1.
          2   -1    0    0    0  501  0.00000000000E+00 -0.00000000000E+00 -0.40538027329E+01  0.40538035350E+01  0.25500000000E-02 0. -1.
          2    1    1    2    0  502  0.19397373173E+02  0.11618066482E+02  0.31623369265E+02  0.38875121157E+02  0.25500000000E-02 0.  1.
         -2    1    1    2  502    0 -0.19397373173E+02 -0.11618066482E+02  0.29824295066E+03  0.29909880504E+03  0.25500000000E-02 0.  1.
<mgrwt>
<rscale>  0 0.73583869E+02</rscale>
<asrwt>0</asrwt>
<pdfrwt beam="2">  1        2 0.62366197E-03 0.73583869E+02</pdfrwt>
<pdfrwt beam="1">  1       -2 0.51372331E-01 0.73583869E+02</pdfrwt>
<totfact> 0.82996589E+04</totfact>
</mgrwt>
</event>
<event>
 4    1  0.2196664E-002  0.4212727E+02  0.7818608E-02  0.1493116E+00
          2   -1    0    0    0  501  0.00000000000E+00  0.00000000000E+00  0.10076699928E+04  0.10076699928E+04  0.25500000000E-02 0. -1.
         -2   -1    0    0  501    0 -0.00000000000E+00 -0.00000000000E+00 -0.44029590669E+00  0.44030329086E+00  0.25500000000E-02 0. -1.
          2    1    1    2    0  502  0.14152220251E+02 -0.15589389064E+02  0.51801872626E+03  0.51844644386E+03  0.25500000000E-02 0. -1.
         -2    1    1    2  502    0 -0.14152220251E+02  0.15589389064E+02  0.48921097064E+03  0.48966385224E+03  0.25500000000E-02 0. -1.
<mgrwt>
<rscale>  0 0.42127269E+02</rscale>
<asrwt>0</asrwt>
<pdfrwt beam="1">  1        2 0.15502582E+00 0.42127269E+02</pdfrwt>
<pdfrwt beam="2">  1       -2 0.67738546E-04 0.42127269E+02</pdfrwt>
<totfact> 0.17601908E+06</totfact>
</mgrwt>
</event>
<event>
 4    1  0.2196664E-002  0.5098407E+02  0.7818608E-02  0.1440105E+00
         -2   -1    0    0  501    0 -0.00000000000E+00  0.00000000000E+00  0.64501236047E+00  0.64501740105E+00  0.25500000000E-02 0. -1.
          2   -1    0    0    0  501  0.00000000000E+00 -0.00000000000E+00 -0.10074867093E+04  0.10074867093E+04  0.25500000000E-02 0. -1.
          2    1    1    2    0  502 -0.83854002024E+01  0.18647293104E+02 -0.20236543490E+03  0.20339568758E+03  0.25500000000E-02 0.  1.
         -2    1    1    2  502    0  0.83854002024E+01 -0.18647293104E+02 -0.80447626199E+03  0.80473603908E+03  0.25500000000E-02 0.  1.
<mgrwt>
<rscale>  0 0.50984073E+02</rscale>
<asrwt>0</asrwt>
<pdfrwt beam="2">  1        2 0.15499670E+00 0.50984073E+02</pdfrwt>
<pdfrwt beam="1">  1       -2 0.99233865E-04 0.50984073E+02</pdfrwt>
<totfact> 0.11036786E+06</totfact>
</mgrwt>
</event>
<event>
 4    1  0.2196664E-002  0.8364748E+02  0.7818608E-02  0.1319008E+00
         -2   -1    0    0  501    0 -0.00000000000E+00  0.00000000000E+00  0.20062474527E+01  0.20062490732E+01  0.25500000000E-02 0. -1.
          2   -1    0    0    0  501  0.00000000000E+00 -0.00000000000E+00 -0.87188861885E+03  0.87188861886E+03  0.25500000000E-02 0. -1.
          2    1    1    2    0  502  0.26280514077E+02 -0.26744850166E+02 -0.24137659342E+03  0.24427159534E+03  0.25500000000E-02 0.  1.
         -2    1    1    2  502    0 -0.26280514077E+02  0.26744850166E+02 -0.62850577798E+03  0.62962327259E+03  0.25500000000E-02 0.  1.
<mgrwt>
<rscale>  0 0.83647475E+02</rscale>
<asrwt>0</asrwt>
<pdfrwt beam="2">  1        2 0.13413641E+00 0.83647475E+02</pdfrwt>
<pdfrwt beam="1">  1       -2 0.30865427E-03 0.83647475E+02</pdfrwt>
<totfact> 0.30962939E+05</totfact>
</mgrwt>
</event>
<event>
 4    1  0.2196664E-002  0.4117494E+02  0.7818608E-02  0.1499739E+00
         -2   -1    0    0  501    0 -0.00000000000E+00  0.00000000000E+00  0.19753716138E+01  0.19753732597E+01  0.25500000000E-02 0. -1.
          2   -1    0    0    0  501  0.00000000000E+00 -0.00000000000E+00 -0.21456406737E+03  0.21456406739E+03  0.25500000000E-02 0. -1.
          2    1    1    2    0  502 -0.20292230772E+02 -0.65157921511E-01 -0.88027278662E+02  0.90335932333E+02  0.25500000000E-02 0.  1.
         -2    1    1    2  502    0  0.20292230772E+02  0.65157921511E-01 -0.12456141710E+03  0.12620350832E+03  0.25500000000E-02 0.  1.
<mgrwt>
<rscale>  0 0.41174941E+02</rscale>
<asrwt>0</asrwt>
<pdfrwt beam="2">  1        2 0.33009838E-01 0.41174941E+02</pdfrwt>
<pdfrwt beam="1">  1       -2 0.30390362E-03 0.41174941E+02</pdfrwt>
<totfact> 0.12177529E+06</totfact>
</mgrwt>
</event>
<event>
 4    1  0.2196664E-002  0.5700041E+02  0.7818608E-02  0.1410869E+00
          2   -1    0    0    0  501  0.00000000000E+00  0.00000000000E+00  0.10247573231E+03  0.10247573234E+03  0.25500000000E-02 0.  1.
         -2   -1    0    0  501    0 -0.00000000000E+00 -0.00000000000E+00 -0.79263810932E+01  0.79263815033E+01  0.25500000000E-02 0.  1.
          2    1    1    2    0  502 -0.54036318840E+01  0.27217481682E+02  0.59867454387E+02  0.65985624555E+02  0.25500000000E-02 0.  1.
         -2    1    1    2  502    0  0.54036318840E+01 -0.27217481682E+02  0.34681896832E+02  0.44416489292E+02  0.25500000000E-02 0.  1.
<mgrwt>
<rscale>  0 0.57000412E+02</rscale>
<asrwt>0</asrwt>
<pdfrwt beam="1">  1        2 0.15765497E-01 0.57000412E+02</pdfrwt>
<pdfrwt beam="2">  1       -2 0.12194433E-02 0.57000412E+02</pdfrwt>
<totfact> 0.43119010E+05</totfact>
</mgrwt>
</event>
<event>
 4    1  0.2196664E-002  0.8347311E+02  0.7818608E-02  0.1319474E+00
          2   -1    0    0    0  501  0.00000000000E+00  0.00000000000E+00  0.36307491578E+03  0.36307491579E+03  0.25500000000E-02 0.  1.
         -2   -1    0    0  501    0 -0.00000000000E+00 -0.00000000000E+00 -0.47977424188E+01  0.47977430965E+01  0.25500000000E-02 0.  1.
          2    1    1    2    0  502 -0.26847781367E+02 -0.19760829102E+02  0.68465035868E+02  0.76149555967E+02  0.25500000000E-02 0. -1.
         -2    1    1    2  502    0  0.26847781367E+02  0.19760829102E+02  0.28981213749E+03  0.29172310292E+03  0.25500000000E-02 0. -1.
<mgrwt>
<rscale>  0 0.83473111E+02</rscale>
<asrwt>0</asrwt>
<pdfrwt beam="1">  1        2 0.55857690E-01 0.83473111E+02</pdfrwt>
<pdfrwt beam="2">  1       -2 0.73811414E-03 0.83473111E+02</pdfrwt>
<totfact> 0.24346180E+05</totfact>
</mgrwt>
</event>
<event>
 4    1  0.2196664E-002  0.4060402E+02  0.7818608E-02  0.1503813E+00
          2   -1    0    0    0  501  0.00000000000E+00  0.00000000000E+00  0.45936462040E+02  0.45936462111E+02  0.25500000000E-02 0. -1.
         -2   -1    0    0  501    0 -0.00000000000E+00 -0.00000000000E+00 -0.89726441527E+01  0.89726445151E+01  0.25500000000E-02 0. -1.
          2    1    1    2    0  502  0.17497370316E+02  0.10295952343E+02  0.18369331453E+02  0.27378768181E+02  0.25500000000E-02 0.  1.
         -2    1    1    2  502    0 -0.17497370316E+02 -0.10295952343E+02  0.18594486435E+02  0.27530338445E+02  0.25500000000E-02 0.  1.
<mgrwt>
<rscale>  0 0.40604017E+02</rscale>
<asrwt>0</asrwt>
<pdfrwt beam="1">  1        2 0.70671480E-02 0.40604017E+02</pdfrwt>
<pdfrwt beam="2">  1       -2 0.13804068E-02 0.40604017E+02</pdfrwt>
<totfact> 0.85652250E+05</totfact>
</mgrwt>
</event>
<event>
 4    1  0.2196664E-002  0.5550343E+02  0.7818608E-02  0.1417733E+00
         -2   -1    0    0  501    0 -0.00000000000E+00  0.00000000000E+00  0.76984458813E+00  0.76984881137E+00  0.25500000000E-02 0. -1.
          2   -1    0    0    0  501  0.00000000000E+00 -0.00000000000E+00 -0.10004039465E+04  0.10004039465E+04  0.25500000000E-02 0. -1.
          2    1    1    2    0  502  0.10994481191E+02 -0.25475218303E+02 -0.50956943623E+03  0.51032428485E+03  0.25500000000E-02 0.  1.
         -2    1    1    2  502    0 -0.10994481191E+02  0.25475218303E+02 -0.49006466567E+03  0.49084951045E+03  0.25500000000E-02 0.  1.
<mgrwt>
<rscale>  0 0.55503430E+02</rscale>
<asrwt>0</asrwt>
<pdfrwt beam="2">  1        2 0.15390726E+00 0.55503430E+02</pdfrwt>
<pdfrwt beam="1">  1       -2 0.11843875E-03 0.55503430E+02</pdfrwt>
<totfact> 0.89346786E+05</totfact>
</mgrwt>
</event>
<event>
 4    1  0.2196664E-002  0.1095358E+03  0.7818608E-02  0.1261432E+00
         -2   -1    0    0  501    0 -0.00000000000E+00  0.00000000000E+00  0.13892169508E+02  0.13892169742E+02  0.25500000000E-02 0.  1.
          2   -1    0    0    0  501  0.00000000000E+00 -0.00000000000E+00 -0.21591462047E+03  0.21591462049E+03  0.25500000000E-02 0.  1.
          2    1    1    2    0  502 -0.98869973984E+01  0.42885846927E+02 -0.16940024508E+03  0.17502397442E+03  0.25500000000E-02 0. -1.
         -2    1    1    2  502    0  0.98869973984E+01 -0.42885846927E+02 -0.32622205887E+02  0.54782815806E+02  0.25500000000E-02 0. -1.
<mgrwt>
<rscale>  0 0.10953579E+03</rscale>
<asrwt>0</asrwt>
<pdfrwt beam="2">  1        2 0.33217631E-01 0.10953579E+03</pdfrwt>
<pdfrwt beam="1">  1       -2 0.21372570E-02 0.10953579E+03</pdfrwt>
<totfact> 0.96601955E+04</totfact>
</mgrwt>
</event>
<event>
 4    1  0.2196664E-002  0.1030519E+03  0.7818608E-02  0.1274006E+00
          2   -1    0    0    0  501  0.00000000000E+00  0.00000000000E+00  0.94763934902E+03  0.94763934903E+03  0.25500000000E-02 0.  1.
         -2   -1    0    0  501    0 -0.00000000000E+00 -0.00000000000E+00 -0.28016201232E+01  0.28016212837E+01  0.25500000000E-02 0.  1.
          2    1    1    2    0  502  0.54260107685E+01  0.51108848056E+02  0.43869511567E+03  0.44169555178E+03  0.25500000000E-02 0. -1.
         -2    1    1    2  502    0 -0.54260107685E+01 -0.51108848056E+02  0.50614261323E+03  0.50874541853E+03  0.25500000000E-02 0. -1.
<mgrwt>
<rscale>  0 0.10305195E+03</rscale>
<asrwt>0</asrwt>
<pdfrwt beam="1">  1        2 0.14579073E+00 0.10305195E+03</pdfrwt>
<pdfrwt beam="2">  1       -2 0.43101838E-03 0.10305195E+03</pdfrwt>
<totfact> 0.18015153E+05</totfact>
</mgrwt>
</event>
<event>
 4    1  0.2196664E-002  0.5344871E+02  0.7818608E-02  0.1427581E+00
          2   -1    0    0    0  501  0.00000000000E+00  0.00000000000E+00  0.55684290618E+03  0.55684290619E+03  0.25500000000E-02 0.  1.
         -2   -1    0    0  501    0 -0.00000000000E+00 -0.00000000000E+00 -0.12825709792E+01  0.12825735142E+01  0.25500000000E-02 0.  1.
          2    1    1    2    0  502 -0.11664511748E+00 -0.25420423196E+02  0.36387643302E+03  0.36476330687E+03  0.25500000000E-02 0. -1.
         -2    1    1    2  502    0  0.11664511748E+00  0.25420423196E+02  0.19168390218E+03  0.19336217284E+03  0.25500000000E-02 0. -1.
<mgrwt>
<rscale>  0 0.53448714E+02</rscale>
<asrwt>0</asrwt>
<pdfrwt beam="1">  1        2 0.85668475E-01 0.53448714E+02</pdfrwt>
<pdfrwt beam="2">  1       -2 0.19731804E-03 0.53448714E+02</pdfrwt>
<totfact> 0.87898254E+05</totfact>
</mgrwt>
</event>
<event>
 4    1  0.2196664E-002  0.6560595E+02  0.7818608E-02  0.1375707E+00
         -2   -1    0    0  501    0 -0.00000000000E+00  0.00000000000E+00  0.28364810975E+01  0.28364822438E+01  0.25500000000E-02 0. -1.
          2   -1    0    0    0  501  0.00000000000E+00 -0.00000000000E+00 -0.37935563731E+03  0.37935563732E+03  0.25500000000E-02 0. -1.
          2    1    1    2    0  502  0.16614699792E+02 -0.28278146188E+02 -0.18489530393E+03  0.18778172228E+03  0.25500000000E-02 0. -1.
         -2    1    1    2  502    0 -0.16614699792E+02  0.28278146188E+02 -0.19162385228E+03  0.19441039728E+03  0.25500000000E-02 0. -1.
<mgrwt>
<rscale>  0 0.65605954E+02</rscale>
<asrwt>0</asrwt>
<pdfrwt beam="2">  1        2 0.58362366E-01 0.65605954E+02</pdfrwt>
<pdfrwt beam="1">  1       -2 0.43638210E-03 0.65605954E+02</pdfrwt>
<totfact> 0.46233817E+05</totfact>
</mgrwt>
</event>
<event>
 4    1  0.2196664E-002  0.5188993E+02  0.7818608E-02  0.1435406E+00
         -2   -1    0    0  501    0 -0.00000000000E+00  0.00000000000E+00  0.51172597355E+00  0.51173232701E+00  0.25500000000E-02 0. -1.
          2   -1    0    0    0  501  0.00000000000E+00 -0.00000000000E+00 -0.13154248033E+04  0.13154248033E+04  0.25500000000E-02 0. -1.
          2    1    1    2    0  502  0.18585107126E+02 -0.18085363045E+02 -0.63693752282E+03  0.63746521046E+03  0.25500000000E-02 0.  1.
         -2    1    1    2  502    0 -0.18585107126E+02  0.18085363045E+02 -0.67797555453E+03  0.67847132520E+03  0.25500000000E-02 0.  1.
<mgrwt>
<rscale>  0 0.51889930E+02</rscale>
<asrwt>0</asrwt>
<pdfrwt beam="2">  1        2 0.20237034E+00 0.51889930E+02</pdfrwt>
<pdfrwt beam="1">  1       -2 0.78728615E-04 0.51889930E+02</pdfrwt>
<totfact> 0.10366254E+06</totfact>
</mgrwt>
</event>
<event>
 4    1  0.2196664E-002  0.5083627E+02  0.7818608E-02  0.1440882E+00
         -2   -1    0    0  501    0 -0.00000000000E+00  0.00000000000E+00  0.24428368067E+01  0.24428381377E+01  0.25500000000E-02 0. -1.
          2   -1    0    0    0  501  0.00000000000E+00 -0.00000000000E+00 -0.26447992330E+03  0.26447992331E+03  0.25500000000E-02 0. -1.
          2    1    1    2    0  502  0.24942194324E+02 -0.43767638751E+01 -0.14253689445E+03  0.14476890345E+03  0.25500000000E-02 0. -1.
         -2    1    1    2  502    0 -0.24942194324E+02  0.43767638751E+01 -0.11950019204E+03  0.12215385800E+03  0.25500000000E-02 0. -1.
<mgrwt>
<rscale>  0 0.50836265E+02</rscale>
<asrwt>0</asrwt>
<pdfrwt beam="2">  1        2 0.40689197E-01 0.50836265E+02</pdfrwt>
<pdfrwt beam="1">  1       -2 0.37582136E-03 0.50836265E+02</pdfrwt>
<totfact> 0.77675702E+05</totfact>
</mgrwt>
</event>
<event>
 4    1  0.2196664E-002  0.8234965E+02  0.7818608E-02  0.1322513E+00
          2   -1    0    0    0  501  0.00000000000E+00  0.00000000000E+00  0.46401288363E+03  0.46401288364E+03  0.25500000000E-02 0. -1.
         -2   -1    0    0  501    0 -0.00000000000E+00 -0.00000000000E+00 -0.36537045321E+01  0.36537054220E+01  0.25500000000E-02 0. -1.
          2    1    1    2    0  502  0.23505924703E+02 -0.28735500071E+02  0.12904989826E+03  0.13428378051E+03  0.25500000000E-02 0. -1.
         -2    1    1    2  502    0 -0.23505924703E+02  0.28735500071E+02  0.33130928084E+03  0.33338280855E+03  0.25500000000E-02 0. -1.
<mgrwt>
<rscale>  0 0.82349649E+02</rscale>
<asrwt>0</asrwt>
<pdfrwt beam="1">  1        2 0.71386636E-01 0.82349649E+02</pdfrwt>
<pdfrwt beam="2">  1       -2 0.56210815E-03 0.82349649E+02</pdfrwt>
<totfact> 0.27490291E+05</totfact>
</mgrwt>
</event>
<event>
 4    1  0.2196664E-002  0.1214119E+03  0.7818608E-02  0.1240786E+00
         -2   -1    0    0  501    0 -0.00000000000E+00  0.00000000000E+00  0.19623817217E+02  0.19623817383E+02  0.25500000000E-02 0. -1.
          2   -1    0    0    0  501  0.00000000000E+00 -0.00000000000E+00 -0.18779275680E+03  0.18779275682E+03  0.25500000000E-02 0. -1.
          2    1    1    2    0  502 -0.25779635051E+02 -0.53720777777E+02 -0.10391182568E+03  0.11978388486E+03  0.25500000000E-02 0.  1.
         -2    1    1    2  502    0  0.25779635051E+02  0.53720777777E+02 -0.64257113904E+02  0.87632689347E+02  0.25500000000E-02 0.  1.
<mgrwt>
<rscale>  0 0.12141187E+03</rscale>
<asrwt>0</asrwt>
<pdfrwt beam="2">  1        2 0.28891192E-01 0.12141187E+03</pdfrwt>
<pdfrwt beam="1">  1       -2 0.30190489E-02 0.12141187E+03</pdfrwt>
<totfact> 0.68839215E+04</totfact>
</mgrwt>
</event>
<event>
 4    1  0.2196664E-002  0.6702486E+02  0.7818608E-02  0.1370513E+00
          2   -1    0    0    0  501  0.00000000000E+00  0.00000000000E+00  0.70640239551E+03  0.70640239552E+03  0.25500000000E-02 0.  1.
         -2   -1    0    0  501    0 -0.00000000000E+00 -0.00000000000E+00 -0.15898617755E+01  0.15898638204E+01  0.25500000000E-02 0.  1.
          2    1    1    2    0  502  0.16444887705E+02 -0.29147959760E+02  0.37083884011E+03  0.37234591878E+03  0.25500000000E-02 0.  1.
         -2    1    1    2  502    0 -0.16444887705E+02  0.29147959760E+02  0.33397369363E+03  0.33564634056E+03  0.25500000000E-02 0.  1.
<mgrwt>
<rscale>  0 0.67024858E+02</rscale>
<asrwt>0</asrwt>
<pdfrwt beam="1">  1        2 0.10867725E+00 0.67024858E+02</pdfrwt>
<pdfrwt beam="2">  1       -2 0.24459436E-03 0.67024858E+02</pdfrwt>
<totfact> 0.52824499E+05</totfact>
</mgrwt>
</event>
<event>
 4    1  0.2196664E-002  0.5124090E+02  0.7818608E-02  0.1438761E+00
          2   -1    0    0    0  501  0.00000000000E+00  0.00000000000E+00  0.12509905508E+02  0.12509905768E+02  0.25500000000E-02 0.  1.
         -2   -1    0    0  501    0 -0.00000000000E+00 -0.00000000000E+00 -0.52471017829E+02  0.52471017891E+02  0.25500000000E-02 0.  1.
          2    1    1    2    0  502  0.16894108403E+02 -0.17209684898E+02 -0.90110361060E+01  0.25744570908E+02  0.25500000000E-02 0. -1.
         -2    1    1    2  502    0 -0.16894108403E+02  0.17209684898E+02 -0.30950076214E+02  0.39236352751E+02  0.25500000000E-02 0. -1.
<mgrwt>
<rscale>  0 0.51240901E+02</rscale>
<asrwt>0</asrwt>
<pdfrwt beam="1">  1        2 0.19246009E-02 0.51240901E+02</pdfrwt>
<pdfrwt beam="2">  1       -2 0.80724642E-02 0.51240901E+02</pdfrwt>
<totfact> 0.38112825E+05</totfact>
</mgrwt>
</event>
<event>
 4    1  0.2196664E-002  0.4415262E+02  0.7818608E-02  0.1479702E+00
         -2   -1    0    0  501    0 -0.00000000000E+00  0.00000000000E+00  0.60271900306E+02  0.60271900360E+02  0.25500000000E-02 0.  1.
          2   -1    0    0    0  501  0.00000000000E+00 -0.00000000000E+00 -0.80860793623E+01  0.80860797644E+01  0.25500000000E-02 0.  1.
          2    1    1    2    0  502  0.82903427814E+01  0.20441939595E+02  0.24742581428E+02  0.33148122421E+02  0.25500000000E-02 0. -1.
         -2    1    1    2  502    0 -0.82903427814E+01 -0.20441939595E+02  0.27443239516E+02  0.35209857703E+02  0.25500000000E-02 0. -1.
<mgrwt>
<rscale>  0 0.44152616E+02</rscale>
<asrwt>0</asrwt>
<pdfrwt beam="2">  1        2 0.12440123E-02 0.44152616E+02</pdfrwt>
<pdfrwt beam="1">  1       -2 0.92725999E-02 0.44152616E+02</pdfrwt>
<totfact> 0.53150847E+05</totfact>
</mgrwt>
</event>
<event>
 4    1  0.2196664E-002  0.5075500E+02  0.7818608E-02  0.1441311E+00
          2   -1    0    0    0  501  0.00000000000E+00  0.00000000000E+00  0.11142316917E+04  0.11142316917E+04  0.25500000000E-02 0.  1.
         -2   -1    0    0  501    0 -0.00000000000E+00 -0.00000000000E+00 -0.57798966782E+00  0.57799529289E+00  0.25500000000E-02 0.  1.
          2    1    1    2    0  502 -0.20914107787E+02 -0.14366858884E+02  0.56691613180E+03  0.56748366235E+03  0.25500000000E-02 0. -1.
         -2    1    1    2  502    0  0.20914107787E+02  0.14366858884E+02  0.54673757019E+03  0.54732602460E+03  0.25500000000E-02 0. -1.
<mgrwt>
<rscale>  0 0.50755001E+02</rscale>
<asrwt>0</asrwt>
<pdfrwt beam="1">  1        2 0.17141978E+00 0.50755001E+02</pdfrwt>
<pdfrwt beam="2">  1       -2 0.88922168E-04 0.50755001E+02</pdfrwt>
<totfact> 0.11161068E+06</totfact>
</mgrwt>
</event>
<event>
 4    1  0.2196664E-002  0.5685320E+02  0.7818608E-02  0.1411533E+00
         -2   -1    0    0  501    0 -0.00000000000E+00  0.00000000000E+00  0.78571226636E+02  0.78571226678E+02  0.25500000000E-02 0. -1.
          2   -1    0    0    0  501  0.00000000000E+00 -0.00000000000E+00 -0.10284575198E+02  0.10284575514E+02  0.25500000000E-02 0. -1.
          2    1    1    2    0  502 -0.16349586832E+02  0.22366284929E+02  0.44091026783E+02  0.52072817673E+02  0.25500000000E-02 0.  1.
         -2    1    1    2  502    0  0.16349586832E+02 -0.22366284929E+02  0.24195624655E+02  0.36782984518E+02  0.25500000000E-02 0.  1.
<mgrwt>
<rscale>  0 0.56853204E+02</rscale>
<asrwt>0</asrwt>
<pdfrwt beam="2">  1        2 0.15822423E-02 0.56853204E+02</pdfrwt>
<pdfrwt beam="1">  1       -2 0.12087881E-01 0.56853204E+02</pdfrwt>
<totfact> 0.27306121E+05</totfact>
</mgrwt>
</event>
<event>
 4    1  0.2196664E-002  0.5851099E+02  0.7818608E-02  0.1404189E+00
         -2   -1    0    0  501    0 -0.00000000000E+00  0.00000000000E+00  0.31268955056E+01  0.31268965454E+01  0.25500000000E-02 0. -1.
          2   -1    0    0    0  501  0.00000000000E+00 -0.00000000000E+00 -0.27371682585E+03  0.27371682586E+03  0.25500000000E-02 0. -1.
          2    1    1    2    0  502  0.18121084402E+02 -0.13789124802E+02 -0.22220115237E+03  0.22336487142E+03  0.25500000000E-02 0. -1.
         -2    1    1    2  502    0 -0.18121084402E+02  0.13789124802E+02 -0.48388777970E+02  0.53478850985E+02  0.25500000000E-02 0. -1.
<mgrwt>
<rscale>  0 0.58510992E+02</rscale>
<asrwt>0</asrwt>
<pdfrwt beam="2">  1        2 0.42110262E-01 0.58510992E+02</pdfrwt>
<pdfrwt beam="1">  1       -2 0.48106114E-03 0.58510992E+02</pdfrwt>
<totfact> 0.55163140E+05</totfact>
</mgrwt>
</event>
<event>
 4    1  0.2196664E-002  0.4228314E+02  0.7818608E-02  0.1492052E+00
         -2   -1    0    0  501    0 -0.00000000000E+00  0.00000000000E+00  0.84650325395E+00  0.84650709474E+00  0.25500000000E-02 0. -1.
          2   -1    0    0    0  501  0.00000000000E+00 -0.00000000000E+00 -0.52801318360E+03  0.52801318361E+03  0.25500000000E-02 0. -1.
          2    1    1    2    0  502  0.19581526883E+02  0.51576322519E+01 -0.33959045518E+03  0.34019364283E+03  0.25500000000E-02 0.  1.
         -2    1    1    2  502    0 -0.19581526883E+02 -0.51576322519E+01 -0.18757622516E+03  0.18866604787E+03  0.25500000000E-02 0.  1.
<mgrwt>
<rscale>  0 0.42283136E+02</rscale>
<asrwt>0</asrwt>
<pdfrwt beam="2">  1        2 0.81232535E-01 0.42283136E+02</pdfrwt>
<pdfrwt beam="1">  1       -2 0.13023199E-03 0.42283136E+02</pdfrwt>
<totfact> 0.15391860E+06</totfact>
</mgrwt>
</event>
<event>
 4    1  0.2196664E-002  0.5013430E+02  0.7818608E-02  0.1444619E+00
         -2   -1    0    0  501    0 -0.00000000000E+00  0.00000000000E+00  0.62335919798E+01  0.62335925014E+01  0.25500000000E-02 0. -1.
          2   -1    0    0    0  501  0.00000000000E+00 -0.00000000000E+00 -0.10080253420E+03  0.10080253423E+03  0.25500000000E-02 0. -1.
          2    1    1    2    0  502  0.15498393828E+02  0.17915988924E+02 -0.64783433782E+02  0.68978809568E+02  0.25500000000E-02 0.  1.
         -2    1    1    2  502    0 -0.15498393828E+02 -0.17915988924E+02 -0.29785508436E+02  0.38057317164E+02  0.25500000000E-02 0.  1.
<mgrwt>
<rscale>  0 0.50134296E+02</rscale>
<asrwt>0</asrwt>
<pdfrwt beam="2">  1        2 0.15508081E-01 0.50134296E+02</pdfrwt>
<pdfrwt beam="1">  1       -2 0.95901427E-03 0.50134296E+02</pdfrwt>
<totfact> 0.59593132E+05</totfact>
</mgrwt>
</event>
<event>
 4    1  0.2196664E-002  0.4408711E+02  0.7818608E-02  0.1480122E+00
          2   -1    0    0    0  501  0.00000000000E+00  0.00000000000E+00  0.85188911696E+03  0.85188911696E+03  0.25500000000E-02 0. -1.
         -2   -1    0    0  501    0 -0.00000000000E+00 -0.00000000000E+00 -0.57039798345E+00  0.57040368339E+00  0.25500000000E-02 0. -1.
          2    1    1    2    0  502  0.20083711314E+02 -0.16088484411E+01  0.59857634991E+03  0.59891534505E+03  0.25500000000E-02 0. -1.
         -2    1    1    2  502    0 -0.20083711314E+02  0.16088484411E+01  0.25274236906E+03  0.25354417560E+03  0.25500000000E-02 0. -1.
<mgrwt>
<rscale>  0 0.44087108E+02</rscale>
<asrwt>0</asrwt>
<pdfrwt beam="1">  1        2 0.13106073E+00 0.44087108E+02</pdfrwt>
<pdfrwt beam="2">  1       -2 0.87753396E-04 0.44087108E+02</pdfrwt>
<totfact> 0.15523623E+06</totfact>
</mgrwt>
</event>
<event>
 4    1  0.2196664E-002  0.6462969E+02  0.7818608E-02  0.1379370E+00
          2   -1    0    0    0  501  0.00000000000E+00  0.00000000000E+00  0.21921554095E+04  0.21921554095E+04  0.25500000000E-02 0.  1.
         -2   -1    0    0  501    0 -0.00000000000E+00 -0.00000000000E+00 -0.47635381683E+00  0.47636064206E+00  0.25500000000E-02 0.  1.
          2    1    1    2    0  502  0.22542877084E+02 -0.17086396386E+02  0.16259151722E+04  0.16261612077E+04  0.25500000000E-02 0.  1.
         -2    1    1    2  502    0 -0.22542877084E+02  0.17086396386E+02  0.56576388347E+03  0.56647056243E+03  0.25500000000E-02 0.  1.
<mgrwt>
<rscale>  0 0.64629686E+02</rscale>
<asrwt>0</asrwt>
<pdfrwt beam="1">  1        2 0.33725670E+00 0.64629686E+02</pdfrwt>
<pdfrwt beam="2">  1       -2 0.73285287E-04 0.64629686E+02</pdfrwt>
<totfact> 0.43781108E+05</totfact>
</mgrwt>
</event>
<event>
 4    1  0.2196664E-002  0.9049221E+02  0.7818608E-02  0.1301664E+00
         -2   -1    0    0  501    0 -0.00000000000E+00  0.00000000000E+00  0.77172325324E+03  0.77172325325E+03  0.25500000000E-02 0.  1.
          2   -1    0    0    0  501  0.00000000000E+00 -0.00000000000E+00 -0.26527769780E+01  0.26527782036E+01  0.25500000000E-02 0.  1.
          2    1    1    2    0  502 -0.17503681342E+02 -0.27651606301E+02  0.65190638190E+03  0.65272729449E+03  0.25500000000E-02 0. -1.
         -2    1    1    2  502    0  0.17503681342E+02  0.27651606301E+02  0.11716409436E+03  0.12164873697E+03  0.25500000000E-02 0. -1.
<mgrwt>
<rscale>  0 0.90492213E+02</rscale>
<asrwt>0</asrwt>
<pdfrwt beam="2">  1        2 0.40811983E-03 0.90492213E+02</pdfrwt>
<pdfrwt beam="1">  1       -2 0.11872660E+00 0.90492213E+02</pdfrwt>
<totfact> 0.25220496E+04</totfact>
</mgrwt>
</event>
<event>
 4    1  0.2196664E-002  0.4099733E+02  0.7818608E-02  0.1500998E+00
          2   -1    0    0    0  501  0.00000000000E+00  0.00000000000E+00  0.25293512009E+04  0.25293512009E+04  0.25500000000E-02 0. -1.
         -2   -1    0    0  501    0 -0.00000000000E+00 -0.00000000000E+00 -0.16611792045E+00  0.16613749124E+00  0.25500000000E-02 0. -1.
          2    1    1    2    0  502  0.72873196601E+00 -0.20443167868E+02  0.13460066535E+04  0.13461620874E+04  0.25500000000E-02 0.  1.
         -2    1    1    2  502    0 -0.72873196601E+00  0.20443167868E+02  0.11831784294E+04  0.11833552510E+04  0.25500000000E-02 0.  1.
<mgrwt>
<rscale>  0 0.40997332E+02</rscale>
<asrwt>0</asrwt>
<pdfrwt beam="1">  1        2 0.38913572E+00 0.40997332E+02</pdfrwt>
<pdfrwt beam="2">  1       -2 0.25557795E-04 0.40997332E+02</pdfrwt>
<totfact> 0.11293974E+06</totfact>
</mgrwt>
</event>
<event>
 4    1  0.2196664E-002  0.4319243E+02  0.7818608E-02  0.1485952E+00
          2   -1    0    0    0  501  0.00000000000E+00  0.00000000000E+00  0.14897884704E+04  0.14897884704E+04  0.25500000000E-02 0.  1.
         -2   -1    0    0  501    0 -0.00000000000E+00 -0.00000000000E+00 -0.31305709431E+00  0.31306747962E+00  0.25500000000E-02 0.  1.
          2    1    1    2    0  502 -0.17978795002E+02 -0.11895967833E+02  0.70048374952E+03  0.70081540684E+03  0.25500000000E-02 0. -1.
         -2    1    1    2  502    0  0.17978795002E+02  0.11895967833E+02  0.78899166374E+03  0.78928613100E+03  0.25500000000E-02 0. -1.
<mgrwt>
<rscale>  0 0.43192434E+02</rscale>
<asrwt>0</asrwt>
<pdfrwt beam="1">  1        2 0.22919963E+00 0.43192434E+02</pdfrwt>
<pdfrwt beam="2">  1       -2 0.48163135E-04 0.43192434E+02</pdfrwt>
<totfact> 0.15742507E+06</totfact>
</mgrwt>
</event>
<event>
 4    1  0.2196664E-002  0.4343797E+02  0.7818608E-02  0.1484335E+00
          2   -1    0    0    0  501  0.00000000000E+00  0.00000000000E+00  0.17046105554E+02  0.17046105744E+02  0.25500000000E-02 0. -1.
         -2   -1    0    0  501    0 -0.00000000000E+00 -0.00000000000E+00 -0.27672851999E+02  0.27672852116E+02  0.25500000000E-02 0. -1.
          2    1    1    2    0  502  0.20542520679E+02  0.44296828888E+01  0.33449464041E+00  0.21017353295E+02  0.25500000000E-02 0.  1.
         -2    1    1    2  502    0 -0.20542520679E+02 -0.44296828888E+01 -0.10961241086E+02  0.23701604566E+02  0.25500000000E-02 0.  1.
<mgrwt>
<rscale>  0 0.43437972E+02</rscale>
<asrwt>0</asrwt>
<pdfrwt beam="1">  1        2 0.26224778E-02 0.43437972E+02</pdfrwt>
<pdfrwt beam="2">  1       -2 0.42573619E-02 0.43437972E+02</pdfrwt>
<totfact> 0.62355603E+05</totfact>
</mgrwt>
</event>
<event>
 4    1  0.2196664E-002  0.6029795E+02  0.7818608E-02  0.1396586E+00
         -2   -1    0    0  501    0 -0.00000000000E+00  0.00000000000E+00  0.30708282106E+02  0.30708282212E+02  0.25500000000E-02 0. -1.
          2   -1    0    0    0  501  0.00000000000E+00 -0.00000000000E+00 -0.29599852836E+02  0.29599852946E+02  0.25500000000E-02 0. -1.
          2    1    1    2    0  502 -0.16795679263E+02  0.20039501391E+02  0.15566219858E+02  0.30429979708E+02  0.25500000000E-02 0.  1.
         -2    1    1    2  502    0  0.16795679263E+02 -0.20039501391E+02 -0.14457790588E+02  0.29878155450E+02  0.25500000000E-02 0.  1.
<mgrwt>
<rscale>  0 0.60297948E+02</rscale>
<asrwt>0</asrwt>
<pdfrwt beam="2">  1        2 0.45538235E-02 0.60297948E+02</pdfrwt>
<pdfrwt beam="1">  1       -2 0.47243511E-02 0.60297948E+02</pdfrwt>
<totfact> 0.28440683E+05</totfact>
</mgrwt>
</event>
<event>
 4    1  0.2196664E-002  0.1137249E+03  0.7818608E-02  0.1253823E+00
          2   -1    0    0    0  501  0.00000000000E+00  0.00000000000E+00  0.30133662971E+02  0.30133663078E+02  0.25500000000E-02 0. -1.
         -2   -1    0    0  501    0 -0.00000000000E+00 -0.00000000000E+00 -0.10729983708E+03  0.10729983711E+03  0.25500000000E-02 0. -1.
          2    1    1    2    0  502  0.45987983949E+02  0.48266284258E+01 -0.78575089570E+02  0.91171463283E+02  0.25500000000E-02 0.  1.
         -2    1    1    2  502    0 -0.45987983949E+02 -0.48266284258E+01  0.14089154587E+01  0.46262036908E+02  0.25500000000E-02 0.  1.
<mgrwt>
<rscale>  0 0.11372488E+03</rscale>
<asrwt>0</asrwt>
<pdfrwt beam="1">  1        2 0.46359482E-02 0.11372488E+03</pdfrwt>
<pdfrwt beam="2">  1       -2 0.16507667E-01 0.11372488E+03</pdfrwt>
<totfact> 0.45062448E+04</totfact>
</mgrwt>
</event>
<event>
 4    1  0.2196664E-002  0.7961208E+02  0.7818608E-02  0.1330156E+00
         -2   -1    0    0  501    0 -0.00000000000E+00  0.00000000000E+00  0.30530857846E+01  0.30530868495E+01  0.25500000000E-02 0.  1.
          2   -1    0    0    0  501  0.00000000000E+00 -0.00000000000E+00 -0.51898988109E+03  0.51898988110E+03  0.25500000000E-02 0.  1.
          2    1    1    2    0  502  0.76741270980E+01 -0.30980276893E+02 -0.41395178836E+03  0.41518038594E+03  0.25500000000E-02 0.  1.
         -2    1    1    2  502    0 -0.76741270980E+01  0.30980276893E+02 -0.10198500695E+03  0.10686258200E+03  0.25500000000E-02 0.  1.
<mgrwt>
<rscale>  0 0.79612082E+02</rscale>
<asrwt>0</asrwt>
<pdfrwt beam="2">  1        2 0.79844527E-01 0.79612082E+02</pdfrwt>
<pdfrwt beam="1">  1       -2 0.46970600E-03 0.79612082E+02</pdfrwt>
<totfact> 0.31142411E+05</totfact>
</mgrwt>
</event>
<event>
 4    1  0.2196664E-002  0.5259265E+02  0.7818608E-02  0.1431839E+00
          2   -1    0    0    0  501  0.00000000000E+00  0.00000000000E+00  0.23507067697E+03  0.23507067698E+03  0.25500000000E-02 0. -1.
         -2   -1    0    0  501    0 -0.00000000000E+00 -0.00000000000E+00 -0.29416541542E+01  0.29416552595E+01  0.25500000000E-02 0. -1.
          2    1    1    2    0  502 -0.14091047126E+02  0.21416313671E+02  0.89567373060E+02  0.93163997466E+02  0.25500000000E-02 0. -1.
         -2    1    1    2  502    0  0.14091047126E+02 -0.21416313671E+02  0.14256164975E+03  0.14484833477E+03  0.25500000000E-02 0. -1.
<mgrwt>
<rscale>  0 0.52592652E+02</rscale>
<asrwt>0</asrwt>
<pdfrwt beam="1">  1        2 0.36164728E-01 0.52592652E+02</pdfrwt>
<pdfrwt beam="2">  1       -2 0.45256216E-03 0.52592652E+02</pdfrwt>
<totfact> 0.68490950E+05</totfact>
</mgrwt>
</event>
<event>
 4    1  0.2196664E-002  0.5283697E+02  0.7818608E-02  0.1430614E+00
         -2   -1    0    0  501    0 -0.00000000000E+00  0.00000000000E+00  0.19537760013E+02  0.19537760179E+02  0.25500000000E-02 0. -1.
          2   -1    0    0    0  501  0.00000000000E+00 -0.00000000000E+00 -0.35722432830E+02  0.35722432921E+02  0.25500000000E-02 0. -1.
          2    1    1    2    0  502 -0.18753536946E+02  0.15610112452E+02 -0.18684270797E+02  0.30732275225E+02  0.25500000000E-02 0. -1.
         -2    1    1    2  502    0  0.18753536946E+02 -0.15610112452E+02  0.24995979799E+01  0.24527917876E+02  0.25500000000E-02 0. -1.
<mgrwt>
<rscale>  0 0.52836969E+02</rscale>
<asrwt>0</asrwt>
<pdfrwt beam="2">  1        2 0.54957589E-02 0.52836969E+02</pdfrwt>
<pdfrwt beam="1">  1       -2 0.30058093E-02 0.52836969E+02</pdfrwt>
<totfact> 0.41826620E+05</totfact>
</mgrwt>
</event>
<event>
 4    1  0.2196664E-002  0.7331264E+02  0.7818608E-02  0.1349177E+00
          2   -1    0    0    0  501  0.00000000000E+00  0.00000000000E+00  0.22571537931E+03  0.22571537932E+03  0.25500000000E-02 0. -1.
         -2   -1    0    0  501    0 -0.00000000000E+00 -0.00000000000E+00 -0.59530087302E+01  0.59530092763E+01  0.25500000000E-02 0. -1.
          2    1    1    2    0  502 -0.28286622415E+02  0.21994391263E+02  0.85444828984E+02  0.92653683473E+02  0.25500000000E-02 0.  1.
         -2    1    1    2  502    0  0.28286622415E+02 -0.21994391263E+02  0.13431754159E+03  0.13901470512E+03  0.25500000000E-02 0.  1.
<mgrwt>
<rscale>  0 0.73312637E+02</rscale>
<asrwt>0</asrwt>
<pdfrwt beam="1">  1        2 0.34725433E-01 0.73312637E+02</pdfrwt>
<pdfrwt beam="2">  1       -2 0.91584780E-03 0.73312637E+02</pdfrwt>
<totfact> 0.28808649E+05</totfact>
</mgrwt>
</event>
<event>
 4    1  0.2196664E-002  0.4534683E+02  0.7818608E-02  0.1472188E+00
          2   -1    0    0    0  501  0.00000000000E+00  0.00000000000E+00  0.10449131127E+03  0.10449131130E+03  0.25500000000E-02 0. -1.
         -2   -1    0    0  501    0 -0.00000000000E+00 -0.00000000000E+00 -0.49198697846E+01  0.49198704454E+01  0.25500000000E-02 0. -1.
          2    1    1    2    0  502 -0.21133451363E+02  0.25115056205E+01  0.68653664492E+02  0.71876672722E+02  0.25500000000E-02 0.  1.
         -2    1    1    2  502    0  0.21133451363E+02 -0.25115056205E+01  0.30917776996E+02  0.37534509026E+02  0.25500000000E-02 0.  1.
<mgrwt>
<rscale>  0 0.45346827E+02</rscale>
<asrwt>0</asrwt>
<pdfrwt beam="1">  1        2 0.16075586E-01 0.45346827E+02</pdfrwt>
<pdfrwt beam="2">  1       -2 0.75690312E-03 0.45346827E+02</pdfrwt>
<totfact> 0.77429109E+05</totfact>
</mgrwt>
</event>
<event>
 4    1  0.2196664E-002  0.6069738E+02  0.7818608E-02  0.1394928E+00
          2   -1    0    0    0  501  0.00000000000E+00  0.00000000000E+00  0.15259191617E+03  0.15259191619E+03  0.25500000000E-02 0. -1.
         -2   -1    0    0  501    0 -0.00000000000E+00 -0.00000000000E+00 -0.60359873999E+01  0.60359879386E+01  0.25500000000E-02 0. -1.
          2    1    1    2    0  502  0.48691594922E+01  0.25338059765E+02  0.31519024485E+02  0.40732970648E+02  0.25500000000E-02 0.  1.
         -2    1    1    2  502    0 -0.48691594922E+01 -0.25338059765E+02  0.11503690428E+03  0.11789493348E+03  0.25500000000E-02 0.  1.
<mgrwt>
<rscale>  0 0.60697378E+02</rscale>
<asrwt>0</asrwt>
<pdfrwt beam="1">  1        2 0.23475681E-01 0.60697378E+02</pdfrwt>
<pdfrwt beam="2">  1       -2 0.92861343E-03 0.60697378E+02</pdfrwt>
<totfact> 0.41218513E+05</totfact>
</mgrwt>
</event>
<event>
 4    1  0.2196664E-002  0.9721327E+02  0.7818608E-02  0.1286268E+00
         -2   -1    0    0  501    0 -0.00000000000E+00  0.00000000000E+00  0.13369383478E+02  0.13369383721E+02  0.25500000000E-02 0. -1.
          2   -1    0    0    0  501  0.00000000000E+00 -0.00000000000E+00 -0.17671757042E+03  0.17671757044E+03  0.25500000000E-02 0. -1.
          2    1    1    2    0  502  0.46745913761E+02  0.10393531127E+02 -0.97963433726E+02  0.10904146136E+03  0.25500000000E-02 0. -1.
         -2    1    1    2  502    0 -0.46745913761E+02 -0.10393531127E+02 -0.65384753216E+02  0.81045492794E+02  0.25500000000E-02 0. -1.
<mgrwt>
<rscale>  0 0.97213271E+02</rscale>
<asrwt>0</asrwt>
<pdfrwt beam="2">  1        2 0.27187317E-01 0.97213271E+02</pdfrwt>
<pdfrwt beam="1">  1       -2 0.20568284E-02 0.97213271E+02</pdfrwt>
<totfact> 0.12434980E+05</totfact>
</mgrwt>
</event>
<event>
 4    1  0.2196664E-002  0.6256088E+02  0.7818608E-02  0.1387389E+00
         -2   -1    0    0  501    0 -0.00000000000E+00  0.00000000000E+00  0.72851744631E+00  0.72852190913E+00  0.25500000000E-02 0. -1.
          2   -1    0    0    0  501  0.00000000000E+00 -0.00000000000E+00 -0.13430878171E+04  0.13430878171E+04  0.25500000000E-02 0. -1.
          2    1    1    2    0  502 -0.19234385084E+02  0.75302820808E+01 -0.16660247706E+03  0.16787808697E+03  0.25500000000E-02 0.  1.
         -2    1    1    2  502    0  0.19234385084E+02 -0.75302820808E+01 -0.11757568226E+04  0.11759382520E+04  0.25500000000E-02 0.  1.
<mgrwt>
<rscale>  0 0.62560879E+02</rscale>
<asrwt>0</asrwt>
<pdfrwt beam="2">  1        2 0.20662691E+00 0.62560879E+02</pdfrwt>
<pdfrwt beam="1">  1       -2 0.11208103E-03 0.62560879E+02</pdfrwt>
<totfact> 0.64568458E+05</totfact>
</mgrwt>
</event>
<event>
 4    1  0.2196664E-002  0.5989184E+02  0.7818608E-02  0.1398286E+00
          2   -1    0    0    0  501  0.00000000000E+00  0.00000000000E+00  0.16031684840E+04  0.16031684840E+04  0.25500000000E-02 0.  1.
         -2   -1    0    0  501    0 -0.00000000000E+00 -0.00000000000E+00 -0.55936325766E+00  0.55936907004E+00  0.25500000000E-02 0.  1.
          2    1    1    2    0  502 -0.21844617495E+02 -0.10165883671E+02  0.12774740618E+04  0.12777012605E+04  0.25500000000E-02 0.  1.
         -2    1    1    2  502    0  0.21844617495E+02  0.10165883671E+02  0.32513505889E+03  0.32602659252E+03  0.25500000000E-02 0.  1.
<mgrwt>
<rscale>  0 0.59891843E+02</rscale>
<asrwt>0</asrwt>
<pdfrwt beam="1">  1        2 0.24663948E+00 0.59891843E+02</pdfrwt>
<pdfrwt beam="2">  1       -2 0.86056971E-04 0.59891843E+02</pdfrwt>
<totfact> 0.67869339E+05</totfact>
</mgrwt>
</event>
<event>
 4    1  0.2196664E-002  0.5054989E+02  0.7818608E-02  0.1442398E+00
         -2   -1    0    0  501    0 -0.00000000000E+00  0.00000000000E+00  0.11455873266E+01  0.11455901647E+01  0.25500000000E-02 0. -1.
          2   -1    0    0    0  501  0.00000000000E+00 -0.00000000000E+00 -0.55763722179E+03  0.55763722180E+03  0.25500000000E-02 0. -1.
          2    1    1    2    0  502  0.16627686426E+02  0.14747722203E+02 -0.41128468233E+03  0.41188477174E+03  0.25500000000E-02 0. -1.
         -2    1    1    2  502    0 -0.16627686426E+02 -0.14747722203E+02 -0.14520695213E+03  0.14689804022E+03  0.25500000000E-02 0. -1.
<mgrwt>
<rscale>  0 0.50549893E+02</rscale>
<asrwt>0</asrwt>
<pdfrwt beam="2">  1        2 0.85790126E-01 0.50549893E+02</pdfrwt>
<pdfrwt beam="1">  1       -2 0.17624487E-03 0.50549893E+02</pdfrwt>
<totfact> 0.10099738E+06</totfact>
</mgrwt>
</event>
<event>
 4    1  0.2196664E-002  0.7012897E+02  0.7818608E-02  0.1359655E+00
         -2   -1    0    0  501    0 -0.00000000000E+00  0.00000000000E+00  0.34917155386E+01  0.34917164698E+01  0.25500000000E-02 0.  1.
          2   -1    0    0    0  501  0.00000000000E+00 -0.00000000000E+00 -0.35212436389E+03  0.35212436390E+03  0.25500000000E-02 0.  1.
          2    1    1    2    0  502 -0.13490900597E+02  0.32203449146E+02 -0.19071006832E+03  0.19387985120E+03  0.25500000000E-02 0.  1.
         -2    1    1    2  502    0  0.13490900597E+02 -0.32203449146E+02 -0.15792258002E+03  0.16173622916E+03  0.25500000000E-02 0.  1.
<mgrwt>
<rscale>  0 0.70128975E+02</rscale>
<asrwt>0</asrwt>
<pdfrwt beam="2">  1        2 0.54172951E-01 0.70128975E+02</pdfrwt>
<pdfrwt beam="1">  1       -2 0.53718736E-03 0.70128975E+02</pdfrwt>
<totfact> 0.37934828E+05</totfact>
</mgrwt>
</event>
<event>
 4    1  0.2196664E-002  0.5709093E+02  0.7818608E-02  0.1410462E+00
          2   -1    0    0    0  501  0.00000000000E+00  0.00000000000E+00  0.19722746974E+01  0.19722763459E+01  0.25500000000E-02 0.  1.
         -2   -1    0    0  501    0 -0.00000000000E+00 -0.00000000000E+00 -0.41314897389E+03  0.41314897389E+03  0.25500000000E-02 0.  1.
          2    1    1    2    0  502 -0.23296782188E+02  0.78333476849E+00 -0.32539604140E+03  0.32622988434E+03  0.25500000000E-02 0. -1.
         -2    1    1    2  502    0  0.23296782188E+02 -0.78333476849E+00 -0.85780657788E+02  0.88891365896E+02  0.25500000000E-02 0. -1.
<mgrwt>
<rscale>  0 0.57090931E+02</rscale>
<asrwt>0</asrwt>
<pdfrwt beam="1">  1        2 0.30342733E-03 0.57090931E+02</pdfrwt>
<pdfrwt beam="2">  1       -2 0.63561312E-01 0.57090931E+02</pdfrwt>
<totfact> 0.13726796E+05</totfact>
</mgrwt>
</event>
<event>
 4    1  0.2196664E-002  0.7431873E+02  0.7818608E-02  0.1345994E+00
          2   -1    0    0    0  501  0.00000000000E+00  0.00000000000E+00  0.14450838268E+04  0.14450838268E+04  0.25500000000E-02 0. -1.
         -2   -1    0    0  501    0 -0.00000000000E+00 -0.00000000000E+00 -0.95552659612E+00  0.95552999869E+00  0.25500000000E-02 0. -1.
          2    1    1    2    0  502 -0.54415617591E+01 -0.30160277167E+02  0.31319963242E+03  0.31469550786E+03  0.25500000000E-02 0. -1.
         -2    1    1    2  502    0  0.54415617591E+01  0.30160277167E+02  0.11309286678E+04  0.11313438490E+04  0.25500000000E-02 0. -1.
<mgrwt>
<rscale>  0 0.74318732E+02</rscale>
<asrwt>0</asrwt>
<pdfrwt beam="1">  1        2 0.22231952E+00 0.74318732E+02</pdfrwt>
<pdfrwt beam="2">  1       -2 0.14700506E-03 0.74318732E+02</pdfrwt>
<totfact> 0.40745949E+05</totfact>
</mgrwt>
</event>
<event>
 4    1  0.2196664E-002  0.9516746E+02  0.7818608E-02  0.1290799E+00
         -2   -1    0    0  501    0 -0.00000000000E+00  0.00000000000E+00  0.67042384623E+01  0.67042389472E+01  0.25500000000E-02 0.  1.
          2   -1    0    0    0  501  0.00000000000E+00 -0.00000000000E+00 -0.33772832857E+03  0.33772832858E+03  0.25500000000E-02 0.  1.
          2    1    1    2    0  502  0.36377830497E+02  0.24405142712E+02 -0.98263180138E+02  0.10758536201E+03  0.25500000000E-02 0. -1.
         -2    1    1    2  502    0 -0.36377830497E+02 -0.24405142712E+02 -0.23276090997E+03  0.23684720551E+03  0.25500000000E-02 0. -1.
<mgrwt>
<rscale>  0 0.95167459E+02</rscale>
<asrwt>0</asrwt>
<pdfrwt beam="2">  1        2 0.51958191E-01 0.95167459E+02</pdfrwt>
<pdfrwt beam="1">  1       -2 0.10314216E-02 0.95167459E+02</pdfrwt>
<totfact> 0.16743321E+05</totfact>
</mgrwt>
</event>
<event>
 4    1  0.2196664E-002  0.4263860E+02  0.7818608E-02  0.1489646E+00
         -2   -1    0    0  501    0 -0.00000000000E+00  0.00000000000E+00  0.38461892930E+01  0.38461901383E+01  0.25500000000E-02 0. -1.
          2   -1    0    0    0  501  0.00000000000E+00 -0.00000000000E+00 -0.11817214369E+03  0.11817214372E+03  0.25500000000E-02 0. -1.
          2    1    1    2    0  502  0.20697132728E+02 -0.43149934601E+01 -0.49314433073E+02  0.53655417131E+02  0.25500000000E-02 0. -1.
         -2    1    1    2  502    0 -0.20697132728E+02  0.43149934601E+01 -0.65011521324E+02  0.68362916724E+02  0.25500000000E-02 0. -1.
<mgrwt>
<rscale>  0 0.42638597E+02</rscale>
<asrwt>0</asrwt>
<pdfrwt beam="2">  1        2 0.18180327E-01 0.42638597E+02</pdfrwt>
<pdfrwt beam="1">  1       -2 0.59172158E-03 0.42638597E+02</pdfrwt>
<totfact> 0.93248948E+05</totfact>
</mgrwt>
</event>
<event>
 4    1  0.2196664E-002  0.5412357E+02  0.7818608E-02  0.1424290E+00
          2   -1    0    0    0  501  0.00000000000E+00  0.00000000000E+00  0.17691858020E+03  0.17691858022E+03  0.25500000000E-02 0. -1.
         -2   -1    0    0  501    0 -0.00000000000E+00 -0.00000000000E+00 -0.41394188790E+01  0.41394196645E+01  0.25500000000E-02 0. -1.
          2    1    1    2    0  502 -0.40131732538E+01 -0.25149111631E+02  0.11700507903E+03  0.11974461116E+03  0.25500000000E-02 0. -1.
         -2    1    1    2  502    0  0.40131732538E+01  0.25149111631E+02  0.55774082291E+02  0.61313388728E+02  0.25500000000E-02 0. -1.
<mgrwt>
<rscale>  0 0.54123569E+02</rscale>
<asrwt>0</asrwt>
<pdfrwt beam="1">  1        2 0.27218242E-01 0.54123569E+02</pdfrwt>
<pdfrwt beam="2">  1       -2 0.63683375E-03 0.54123569E+02</pdfrwt>
<totfact> 0.57915302E+05</totfact>
</mgrwt>
</event>
<event>
 4    1  0.2196664E-002  0.5206444E+02  0.7818608E-02  0.1434514E+00
         -2   -1    0    0  501    0 -0.00000000000E+00  0.00000000000E+00  0.16123157513E+01  0.16123177678E+01  0.25500000000E-02 0. -1.
          2   -1    0    0    0  501  0.00000000000E+00 -0.00000000000E+00 -0.42031224677E+03  0.42031224678E+03  0.25500000000E-02 0. -1.
          2    1    1    2    0  502 -0.17877666932E+02 -0.18446803048E+02 -0.24352202833E+03  0.24487317903E+03  0.25500000000E-02 0. -1.
         -2    1    1    2  502    0  0.17877666932E+02  0.18446803048E+02 -0.17517790269E+03  0.17705138552E+03  0.25500000000E-02 0. -1.
<mgrwt>
<rscale>  0 0.52064440E+02</rscale>
<asrwt>0</asrwt>
<pdfrwt beam="2">  1        2 0.64663335E-01 0.52064440E+02</pdfrwt>
<pdfrwt beam="1">  1       -2 0.24804907E-03 0.52064440E+02</pdfrwt>
<totfact> 0.85895696E+05</totfact>
</mgrwt>
</event>
<event>
 4    1  0.2196664E-002  0.7034416E+02  0.7818608E-02  0.1358927E+00
         -2   -1    0    0  501    0 -0.00000000000E+00  0.00000000000E+00  0.85194859995E+00  0.85195241620E+00  0.25500000000E-02 0.  1.
          2   -1    0    0    0  501  0.00000000000E+00 -0.00000000000E+00 -0.14520506171E+04  0.14520506171E+04  0.25500000000E-02 0.  1.
          2    1    1    2    0  502  0.29548447241E+02 -0.13385528223E+02 -0.44482965703E+03  0.44601088202E+03  0.25500000000E-02 0.  1.
         -2    1    1    2  502    0 -0.29548447241E+02  0.13385528223E+02 -0.10063690115E+04  0.10068916875E+04  0.25500000000E-02 0.  1.
<mgrwt>
<rscale>  0 0.70344161E+02</rscale>
<asrwt>0</asrwt>
<pdfrwt beam="2">  1        2 0.22339042E+00 0.70344161E+02</pdfrwt>
<pdfrwt beam="1">  1       -2 0.13107047E-03 0.70344161E+02</pdfrwt>
<totfact> 0.46865501E+05</totfact>
</mgrwt>
</event>
<event>
 4    1  0.2196664E-002  0.6019815E+02  0.7818608E-02  0.1397002E+00
         -2   -1    0    0  501    0 -0.00000000000E+00  0.00000000000E+00  0.41107152627E+00  0.41107943540E+00  0.25500000000E-02 0.  1.
          2   -1    0    0    0  501  0.00000000000E+00 -0.00000000000E+00 -0.22038639945E+04  0.22038639945E+04  0.25500000000E-02 0.  1.
          2    1    1    2    0  502 -0.22727480991E+02 -0.95864292619E+01 -0.47013232638E+03  0.47077897397E+03  0.25500000000E-02 0. -1.
         -2    1    1    2  502    0  0.22727480991E+02  0.95864292619E+01 -0.17333205966E+04  0.17334961000E+04  0.25500000000E-02 0. -1.
<mgrwt>
<rscale>  0 0.60198155E+02</rscale>
<asrwt>0</asrwt>
<pdfrwt beam="2">  1        2 0.33904654E+00 0.60198155E+02</pdfrwt>
<pdfrwt beam="1">  1       -2 0.63244147E-04 0.60198155E+02</pdfrwt>
<totfact> 0.52165172E+05</totfact>
</mgrwt>
</event>
<event>
 4    1  0.2196664E-002  0.4530802E+02  0.7818608E-02  0.1472428E+00
         -2   -1    0    0  501    0 -0.00000000000E+00  0.00000000000E+00  0.59895086480E+01  0.59895091908E+01  0.25500000000E-02 0.  1.
          2   -1    0    0    0  501  0.00000000000E+00 -0.00000000000E+00 -0.85683858298E+02  0.85683858336E+02  0.25500000000E-02 0.  1.
          2    1    1    2    0  502  0.21595479977E+02  0.67518758066E+01 -0.37583525293E+02  0.43868826771E+02  0.25500000000E-02 0.  1.
         -2    1    1    2  502    0 -0.21595479977E+02 -0.67518758066E+01 -0.42110824357E+02  0.47804540756E+02  0.25500000000E-02 0.  1.
<mgrwt>
<rscale>  0 0.45308023E+02</rscale>
<asrwt>0</asrwt>
<pdfrwt beam="2">  1        2 0.13182131E-01 0.45308023E+02</pdfrwt>
<pdfrwt beam="1">  1       -2 0.92146297E-03 0.45308023E+02</pdfrwt>
<totfact> 0.73849768E+05</totfact>
</mgrwt>
</event>
<event>
 4    1  0.2196664E-002  0.4339857E+02  0.7818608E-02  0.1484594E+00
          2   -1    0    0    0  501  0.00000000000E+00  0.00000000000E+00  0.10649751186E+03  0.10649751189E+03  0.25500000000E-02 0. -1.
         -2   -1    0    0  501    0 -0.00000000000E+00 -0.00000000000E+00 -0.44213131161E+01  0.44213138515E+01  0.25500000000E-02 0. -1.
          2    1    1    2    0  502 -0.57012537134E+01 -0.19813689958E+02  0.33746660005E+02  0.39546474832E+02  0.25500000000E-02 0.  1.
         -2    1    1    2  502    0  0.57012537134E+01  0.19813689958E+02  0.68329538737E+02  0.71372350908E+02  0.25500000000E-02 0.  1.
<mgrwt>
<rscale>  0 0.43398566E+02</rscale>
<asrwt>0</asrwt>
<pdfrwt beam="1">  1        2 0.16384229E-01 0.43398566E+02</pdfrwt>
<pdfrwt beam="2">  1       -2 0.68020221E-03 0.43398566E+02</pdfrwt>
<totfact> 0.86812943E+05</totfact>
</mgrwt>
</event>
<event>
 4    1  0.2196664E-002  0.5443885E+02  0.7818608E-02  0.1422771E+00
         -2   -1    0    0  501    0 -0.00000000000E+00  0.00000000000E+00  0.52346450704E+00  0.52347071802E+00  0.25500000000E-02 0. -1.
          2   -1    0    0    0  501  0.00000000000E+00 -0.00000000000E+00 -0.14153639493E+04  0.14153639493E+04  0.25500000000E-02 0. -1.
          2    1    1    2    0  502  0.24877787614E+02  0.95306773639E+01 -0.56223853382E+03  0.56286935166E+03  0.25500000000E-02 0. -1.
         -2    1    1    2  502    0 -0.24877787614E+02 -0.95306773639E+01 -0.85260195098E+03  0.85301806836E+03  0.25500000000E-02 0. -1.
<mgrwt>
<rscale>  0 0.54438853E+02</rscale>
<asrwt>0</asrwt>
<pdfrwt beam="2">  1        2 0.21774524E+00 0.54438853E+02</pdfrwt>
<pdfrwt beam="1">  1       -2 0.80534612E-04 0.54438853E+02</pdfrwt>
<totfact> 0.90386928E+05</totfact>
</mgrwt>
</event>
<event>
 4    1  0.2196664E-002  0.6187952E+02  0.7818608E-02  0.1390109E+00
         -2   -1    0    0  501    0 -0.00000000000E+00  0.00000000000E+00  0.14544493478E+03  0.14544493480E+03  0.25500000000E-02 0. -1.
          2   -1    0    0    0  501  0.00000000000E+00 -0.00000000000E+00 -0.65816570033E+01  0.65816574973E+01  0.25500000000E-02 0. -1.
          2    1    1    2    0  502 -0.24555118729E+02 -0.14324738125E+02  0.39430633023E+02  0.48609945539E+02  0.25500000000E-02 0.  1.
         -2    1    1    2  502    0  0.24555118729E+02  0.14324738125E+02  0.99432644755E+02  0.10341664676E+03  0.25500000000E-02 0.  1.
<mgrwt>
<rscale>  0 0.61879519E+02</rscale>
<asrwt>0</asrwt>
<pdfrwt beam="2">  1        2 0.10125627E-02 0.61879519E+02</pdfrwt>
<pdfrwt beam="1">  1       -2 0.22376143E-01 0.61879519E+02</pdfrwt>
<totfact> 0.18714367E+05</totfact>
</mgrwt>
</event>
<event>
 4    1  0.2196664E-002  0.8498201E+02  0.7818608E-02  0.1315480E+00
          2   -1    0    0    0  501  0.00000000000E+00  0.00000000000E+00  0.27488891672E+04  0.27488891672E+04  0.25500000000E-02 0.  1.
         -2   -1    0    0  501    0 -0.00000000000E+00 -0.00000000000E+00 -0.65680297931E+00  0.65680792940E+00  0.25500000000E-02 0.  1.
          2    1    1    2    0  502  0.27831217050E+02  0.17013001778E+02  0.22551240227E+04  0.22553599217E+04  0.25500000000E-02 0. -1.
         -2    1    1    2  502    0 -0.27831217050E+02 -0.17013001778E+02  0.49310834156E+03  0.49418605341E+03  0.25500000000E-02 0. -1.
<mgrwt>
<rscale>  0 0.84982008E+02</rscale>
<asrwt>0</asrwt>
<pdfrwt beam="1">  1        2 0.42291053E+00 0.84982008E+02</pdfrwt>
<pdfrwt beam="2">  1       -2 0.10104592E-03 0.84982008E+02</pdfrwt>
<totfact> 0.15026390E+05</totfact>
</mgrwt>
</event>
<event>
 4    1  0.2196664E-002  0.4776463E+02  0.7818608E-02  0.1457785E+00
          2   -1    0    0    0  501  0.00000000000E+00  0.00000000000E+00  0.51545713879E+02  0.51545713942E+02  0.25500000000E-02 0.  1.
         -2   -1    0    0  501    0 -0.00000000000E+00 -0.00000000000E+00 -0.11065226825E+02  0.11065227119E+02  0.25500000000E-02 0.  1.
          2    1    1    2    0  502 -0.20126509967E+02  0.10278233509E+02  0.10116610490E+02  0.24760135335E+02  0.25500000000E-02 0.  1.
         -2    1    1    2  502    0  0.20126509967E+02 -0.10278233509E+02  0.30363876564E+02  0.37850805725E+02  0.25500000000E-02 0.  1.
<mgrwt>
<rscale>  0 0.47764632E+02</rscale>
<asrwt>0</asrwt>
<pdfrwt beam="1">  1        2 0.79301099E-02 0.47764632E+02</pdfrwt>
<pdfrwt beam="2">  1       -2 0.17023426E-02 0.47764632E+02</pdfrwt>
<totfact> 0.58011165E+05</totfact>
</mgrwt>
</event>
<event>
 4    1  0.2196664E-002  0.5150482E+02  0.7818608E-02  0.1437390E+00
         -2   -1    0    0  501    0 -0.00000000000E+00  0.00000000000E+00  0.86089172039E+00  0.86089549699E+00  0.25500000000E-02 0.  1.
          2   -1    0    0    0  501  0.00000000000E+00 -0.00000000000E+00 -0.77034691685E+03  0.77034691685E+03  0.25500000000E-02 0.  1.
          2    1    1    2    0  502 -0.22353721502E+02  0.79377905245E+01 -0.23464203277E+03  0.23583803962E+03  0.25500000000E-02 0. -1.
         -2    1    1    2  502    0  0.22353721502E+02 -0.79377905245E+01 -0.53484399236E+03  0.53536977273E+03  0.25500000000E-02 0. -1.
<mgrwt>
<rscale>  0 0.51504825E+02</rscale>
<asrwt>0</asrwt>
<pdfrwt beam="2">  1        2 0.11851436E+00 0.51504825E+02</pdfrwt>
<pdfrwt beam="1">  1       -2 0.13244579E-03 0.51504825E+02</pdfrwt>
<totfact> 0.10428379E+06</totfact>
</mgrwt>
</event>
<event>
 4    1  0.2196664E-002  0.7528667E+02  0.7818608E-02  0.1342986E+00
          2   -1    0    0    0  501  0.00000000000E+00  0.00000000000E+00  0.34034182280E+02  0.34034182376E+02  0.25500000000E-02 0.  1.
         -2   -1    0    0  501    0 -0.00000000000E+00 -0.00000000000E+00 -0.41635214980E+02  0.41635215059E+02  0.25500000000E-02 0.  1.
          2    1    1    2    0  502  0.24213563802E+02 -0.22178044736E+02 -0.22302197164E+02  0.39693202758E+02  0.25500000000E-02 0.  1.
         -2    1    1    2  502    0 -0.24213563802E+02  0.22178044736E+02  0.14701164464E+02  0.35976194677E+02  0.25500000000E-02 0.  1.
<mgrwt>
<rscale>  0 0.75286666E+02</rscale>
<asrwt>0</asrwt>
<pdfrwt beam="1">  1        2 0.52360280E-02 0.75286666E+02</pdfrwt>
<pdfrwt beam="2">  1       -2 0.64054177E-02 0.75286666E+02</pdfrwt>
<totfact> 0.15850416E+05</totfact>
</mgrwt>
</event>
<event>
 4    1  0.2196664E-002  0.6313996E+02  0.7818608E-02  0.1385108E+00
         -2   -1    0    0  501    0 -0.00000000000E+00  0.00000000000E+00  0.37152603537E+02  0.37152603625E+02  0.25500000000E-02 0.  1.
          2   -1    0    0    0  501  0.00000000000E+00 -0.00000000000E+00 -0.26826208204E+02  0.26826208325E+02  0.25500000000E-02 0.  1.
          2    1    1    2    0  502  0.17073335333E+01  0.30776079355E+02 -0.17525367901E+01  0.30873183184E+02  0.25500000000E-02 0. -1.
         -2    1    1    2  502    0 -0.17073335333E+01 -0.30776079355E+02  0.12078932123E+02  0.33105628766E+02  0.25500000000E-02 0. -1.
<mgrwt>
<rscale>  0 0.63139955E+02</rscale>
<asrwt>0</asrwt>
<pdfrwt beam="2">  1        2 0.41271090E-02 0.63139955E+02</pdfrwt>
<pdfrwt beam="1">  1       -2 0.57157852E-02 0.63139955E+02</pdfrwt>
<totfact> 0.24623720E+05</totfact>
</mgrwt>
</event>
<event>
 4    1  0.2196664E-002  0.9605226E+02  0.7818608E-02  0.1288824E+00
         -2   -1    0    0  501    0 -0.00000000000E+00  0.00000000000E+00  0.15785749948E+02  0.15785750154E+02  0.25500000000E-02 0.  1.
          2   -1    0    0    0  501  0.00000000000E+00 -0.00000000000E+00 -0.14611336110E+03  0.14611336112E+03  0.25500000000E-02 0.  1.
          2    1    1    2    0  502  0.12574733891E+02 -0.41451334738E+02 -0.30204892906E+02  0.52807884317E+02  0.25500000000E-02 0.  1.
         -2    1    1    2  502    0 -0.12574733891E+02  0.41451334738E+02 -0.10012271825E+03  0.10909122696E+03  0.25500000000E-02 0.  1.
<mgrwt>
<rscale>  0 0.96052257E+02</rscale>
<asrwt>0</asrwt>
<pdfrwt beam="2">  1        2 0.22478978E-01 0.96052257E+02</pdfrwt>
<pdfrwt beam="1">  1       -2 0.24285770E-02 0.96052257E+02</pdfrwt>
<totfact> 0.12021638E+05</totfact>
</mgrwt>
</event>
<event>
 4    1  0.2196664E-002  0.5070569E+02  0.7818608E-02  0.1441572E+00
          2   -1    0    0    0  501  0.00000000000E+00  0.00000000000E+00  0.68619732356E+03  0.68619732357E+03  0.25500000000E-02 0. -1.
         -2   -1    0    0  501    0 -0.00000000000E+00 -0.00000000000E+00 -0.93670676411E+00  0.93671023504E+00  0.25500000000E-02 0. -1.
          2    1    1    2    0  502 -0.82399965514E+01 -0.20505910046E+02  0.51100467768E+03  0.51148232668E+03  0.25500000000E-02 0.  1.
         -2    1    1    2  502    0  0.82399965514E+01  0.20505910046E+02  0.17425593912E+03  0.17565170712E+03  0.25500000000E-02 0.  1.
<mgrwt>
<rscale>  0 0.50705695E+02</rscale>
<asrwt>0</asrwt>
<pdfrwt beam="1">  1        2 0.10556860E+00 0.50705695E+02</pdfrwt>
<pdfrwt beam="2">  1       -2 0.14410930E-03 0.50705695E+02</pdfrwt>
<totfact> 0.10581441E+06</totfact>
</mgrwt>
</event>
<event>
 4    1  0.2196664E-002  0.6858100E+02  0.7818608E-02  0.1364986E+00
         -2   -1    0    0  501    0 -0.00000000000E+00  0.00000000000E+00  0.48236869287E+00  0.48237543300E+00  0.25500000000E-02 0. -1.
          2   -1    0    0    0  501  0.00000000000E+00 -0.00000000000E+00 -0.24376168690E+04  0.24376168690E+04  0.25500000000E-02 0. -1.
          2    1    1    2    0  502 -0.32733340689E+02 -0.13263403256E+01 -0.15786788794E+04  0.15790187570E+04  0.25500000000E-02 0. -1.
         -2    1    1    2  502    0  0.32733340689E+02  0.13263403256E+01 -0.85845562089E+03  0.85908048739E+03  0.25500000000E-02 0. -1.
<mgrwt>
<rscale>  0 0.68580997E+02</rscale>
<asrwt>0</asrwt>
<pdfrwt beam="2">  1        2 0.37500812E+00 0.68580997E+02</pdfrwt>
<pdfrwt beam="1">  1       -2 0.74213038E-04 0.68580997E+02</pdfrwt>
<totfact> 0.32609556E+05</totfact>
</mgrwt>
</event>
<event>
 4    1  0.2196664E-002  0.4782974E+02  0.7818608E-02  0.1457412E+00
         -2   -1    0    0  501    0 -0.00000000000E+00  0.00000000000E+00  0.16847576206E+03  0.16847576208E+03  0.25500000000E-02 0. -1.
          2   -1    0    0    0  501  0.00000000000E+00 -0.00000000000E+00 -0.33946783914E+01  0.33946793492E+01  0.25500000000E-02 0. -1.
          2    1    1    2    0  502 -0.67414720444E+01  0.21617056573E+02  0.11018307669E+03  0.11248579899E+03  0.25500000000E-02 0. -1.
         -2    1    1    2  502    0  0.67414720444E+01 -0.21617056573E+02  0.54898006981E+02  0.59384642435E+02  0.25500000000E-02 0. -1.
<mgrwt>
<rscale>  0 0.47829744E+02</rscale>
<asrwt>0</asrwt>
<pdfrwt beam="2">  1        2 0.52225835E-03 0.47829744E+02</pdfrwt>
<pdfrwt beam="1">  1       -2 0.25919345E-01 0.47829744E+02</pdfrwt>
<totfact> 0.33587641E+05</totfact>
</mgrwt>
</event>
<event>
 4    1  0.2196664E-002  0.5069191E+02  0.7818608E-02  0.1441645E+00
          2   -1    0    0    0  501  0.00000000000E+00  0.00000000000E+00  0.62473303289E+03  0.62473303290E+03  0.25500000000E-02 0. -1.
         -2   -1    0    0  501    0 -0.00000000000E+00 -0.00000000000E+00 -0.10283055183E+01  0.10283086800E+01  0.25500000000E-02 0. -1.
          2    1    1    2    0  502  0.13766217975E+02 -0.20629504057E+02  0.37638917324E+03  0.37720537500E+03  0.25500000000E-02 0. -1.
         -2    1    1    2  502    0 -0.13766217975E+02  0.20629504057E+02  0.24731555414E+03  0.24855596657E+03  0.25500000000E-02 0. -1.
<mgrwt>
<rscale>  0 0.50691909E+02</rscale>
<asrwt>0</asrwt>
<pdfrwt beam="1">  1        2 0.96112786E-01 0.50691909E+02</pdfrwt>
<pdfrwt beam="2">  1       -2 0.15820107E-03 0.50691909E+02</pdfrwt>
<totfact> 0.10347759E+06</totfact>
</mgrwt>
</event>
<event>
 4    1  0.2196664E-002  0.5465149E+02  0.7818608E-02  0.1421754E+00
          2   -1    0    0    0  501  0.00000000000E+00  0.00000000000E+00  0.46939840398E+02  0.46939840467E+02  0.25500000000E-02 0.  1.
         -2   -1    0    0  501    0 -0.00000000000E+00 -0.00000000000E+00 -0.15907516424E+02  0.15907516628E+02  0.25500000000E-02 0.  1.
          2    1    1    2    0  502  0.15848501914E+01 -0.23500948963E+02 -0.41366726851E+00  0.23557960001E+02  0.25500000000E-02 0.  1.
         -2    1    1    2  502    0 -0.15848501914E+01  0.23500948963E+02  0.31445991243E+02  0.39289397094E+02  0.25500000000E-02 0.  1.
<mgrwt>
<rscale>  0 0.54651488E+02</rscale>
<asrwt>0</asrwt>
<pdfrwt beam="1">  1        2 0.72215138E-02 0.54651488E+02</pdfrwt>
<pdfrwt beam="2">  1       -2 0.24473103E-02 0.54651488E+02</pdfrwt>
<totfact> 0.40239564E+05</totfact>
</mgrwt>
</event>
<event>
 4    1  0.2196664E-002  0.5586948E+02  0.7818608E-02  0.1416031E+00
         -2   -1    0    0  501    0 -0.00000000000E+00  0.00000000000E+00  0.30208125771E+02  0.30208125878E+02  0.25500000000E-02 0.  1.
          2   -1    0    0    0  501  0.00000000000E+00 -0.00000000000E+00 -0.25832446582E+02  0.25832446708E+02  0.25500000000E-02 0.  1.
          2    1    1    2    0  502  0.12373883172E+02 -0.22676728055E+02 -0.84749916978E+01  0.27187726474E+02  0.25500000000E-02 0. -1.
         -2    1    1    2  502    0 -0.12373883172E+02  0.22676728055E+02  0.12850670887E+02  0.28852846112E+02  0.25500000000E-02 0. -1.
<mgrwt>
<rscale>  0 0.55869484E+02</rscale>
<asrwt>0</asrwt>
<pdfrwt beam="2">  1        2 0.39742226E-02 0.55869484E+02</pdfrwt>
<pdfrwt beam="1">  1       -2 0.46474040E-02 0.55869484E+02</pdfrwt>
<totfact> 0.34109555E+05</totfact>
</mgrwt>
</event>
<event>
 4    1  0.2196664E-002  0.1087492E+03  0.7818608E-02  0.1262904E+00
         -2   -1    0    0  501    0 -0.00000000000E+00  0.00000000000E+00  0.71228944655E+02  0.71228944701E+02  0.25500000000E-02 0. -1.
          2   -1    0    0    0  501  0.00000000000E+00 -0.00000000000E+00 -0.41508345027E+02  0.41508345106E+02  0.25500000000E-02 0. -1.
          2    1    1    2    0  502  0.43516661004E+02  0.11080501595E+01  0.48638461038E+02  0.65273482048E+02  0.25500000000E-02 0. -1.
         -2    1    1    2  502    0 -0.43516661004E+02 -0.11080501595E+01 -0.18917861410E+02  0.47463807758E+02  0.25500000000E-02 0. -1.
<mgrwt>
<rscale>  0 0.10874917E+03</rscale>
<asrwt>0</asrwt>
<pdfrwt beam="2">  1        2 0.63858993E-02 0.10874917E+03</pdfrwt>
<pdfrwt beam="1">  1       -2 0.10958299E-01 0.10874917E+03</pdfrwt>
<totfact> 0.57277466E+04</totfact>
</mgrwt>
</event>
<event>
 4    1  0.2196664E-002  0.4572674E+02  0.7818608E-02  0.1469855E+00
         -2   -1    0    0  501    0 -0.00000000000E+00  0.00000000000E+00  0.81574556498E+02  0.81574556538E+02  0.25500000000E-02 0. -1.
          2   -1    0    0    0  501  0.00000000000E+00 -0.00000000000E+00 -0.64080475626E+01  0.64080480700E+01  0.25500000000E-02 0. -1.
          2    1    1    2    0  502  0.22197974741E+02  0.17283340707E+01  0.27586022074E+02  0.35450329217E+02  0.25500000000E-02 0.  1.
         -2    1    1    2  502    0 -0.22197974741E+02 -0.17283340707E+01  0.47580486862E+02  0.52532275391E+02  0.25500000000E-02 0.  1.
<mgrwt>
<rscale>  0 0.45726739E+02</rscale>
<asrwt>0</asrwt>
<pdfrwt beam="2">  1        2 0.98585364E-03 0.45726739E+02</pdfrwt>
<pdfrwt beam="1">  1       -2 0.12549930E-01 0.45726739E+02</pdfrwt>
<totfact> 0.45995780E+05</totfact>
</mgrwt>
</event>
<event>
 4    1  0.2196664E-002  0.1644650E+03  0.7818608E-02  0.1183746E+00
          2   -1    0    0    0  501  0.00000000000E+00  0.00000000000E+00  0.20738482972E+03  0.20738482973E+03  0.25500000000E-02 0. -1.
         -2   -1    0    0  501    0 -0.00000000000E+00 -0.00000000000E+00 -0.32606933667E+02  0.32606933767E+02  0.25500000000E-02 0. -1.
          2    1    1    2    0  502 -0.38028015723E+02 -0.67980034028E+02  0.12585192486E+03  0.14800716876E+03  0.25500000000E-02 0. -1.
         -2    1    1    2  502    0  0.38028015723E+02  0.67980034028E+02  0.48925971189E+02  0.91984594741E+02  0.25500000000E-02 0. -1.
<mgrwt>
<rscale>  0 0.16446499E+03</rscale>
<asrwt>0</asrwt>
<pdfrwt beam="1">  1        2 0.31905358E-01 0.16446499E+03</pdfrwt>
<pdfrwt beam="2">  1       -2 0.50164514E-02 0.16446499E+03</pdfrwt>
<totfact> 0.30094918E+04</totfact>
</mgrwt>
</event>
<event>
 4    1  0.2196664E-002  0.8297013E+02  0.7818608E-02  0.1320828E+00
         -2   -1    0    0  501    0 -0.00000000000E+00  0.00000000000E+00  0.12726639638E+01  0.12726665185E+01  0.25500000000E-02 0. -1.
          2   -1    0    0    0  501  0.00000000000E+00 -0.00000000000E+00 -0.13522886347E+04  0.13522886347E+04  0.25500000000E-02 0. -1.
          2    1    1    2    0  502 -0.24136921594E+02  0.33664383490E+02 -0.63856141620E+03  0.63990355834E+03  0.25500000000E-02 0.  1.
         -2    1    1    2  502    0  0.24136921594E+02 -0.33664383490E+02 -0.71245455458E+03  0.71365774293E+03  0.25500000000E-02 0.  1.
<mgrwt>
<rscale>  0 0.82970133E+02</rscale>
<asrwt>0</asrwt>
<pdfrwt beam="2">  1        2 0.20804326E+00 0.82970133E+02</pdfrwt>
<pdfrwt beam="1">  1       -2 0.19579573E-03 0.82970133E+02</pdfrwt>
<totfact> 0.31194054E+05</totfact>
</mgrwt>
</event>
<event>
 4    1  0.2196664E-002  0.5122830E+02  0.7818608E-02  0.1438827E+00
         -2   -1    0    0  501    0 -0.00000000000E+00  0.00000000000E+00  0.21454504494E+02  0.21454504646E+02  0.25500000000E-02 0. -1.
          2   -1    0    0    0  501  0.00000000000E+00 -0.00000000000E+00 -0.30580274247E+02  0.30580274353E+02  0.25500000000E-02 0. -1.
          2    1    1    2    0  502  0.16288270738E+02  0.17517051036E+02 -0.13868430753E+02  0.27649380078E+02  0.25500000000E-02 0.  1.
         -2    1    1    2  502    0 -0.16288270738E+02 -0.17517051036E+02  0.47426610010E+01  0.24385398921E+02  0.25500000000E-02 0.  1.
<mgrwt>
<rscale>  0 0.51228298E+02</rscale>
<asrwt>0</asrwt>
<pdfrwt beam="2">  1        2 0.47046576E-02 0.51228298E+02</pdfrwt>
<pdfrwt beam="1">  1       -2 0.33006930E-02 0.51228298E+02</pdfrwt>
<totfact> 0.44189850E+05</totfact>
</mgrwt>
</event>
<event>
 4    1  0.2196664E-002  0.7706247E+02  0.7818608E-02  0.1337601E+00
         -2   -1    0    0  501    0 -0.00000000000E+00  0.00000000000E+00  0.31188443568E+01  0.31188453993E+01  0.25500000000E-02 0. -1.
          2   -1    0    0    0  501  0.00000000000E+00 -0.00000000000E+00 -0.47602755311E+03  0.47602755311E+03  0.25500000000E-02 0. -1.
          2    1    1    2    0  502  0.25524660710E+02 -0.66761830452E+00 -0.41587405277E+03  0.41665715137E+03  0.25500000000E-02 0.  1.
         -2    1    1    2  502    0 -0.25524660710E+02  0.66761830452E+00 -0.57034655981E+02  0.62489247138E+02  0.25500000000E-02 0.  1.
<mgrwt>
<rscale>  0 0.77062471E+02</rscale>
<asrwt>0</asrwt>
<pdfrwt beam="2">  1        2 0.73234950E-01 0.77062471E+02</pdfrwt>
<pdfrwt beam="1">  1       -2 0.47982267E-03 0.77062471E+02</pdfrwt>
<totfact> 0.32970246E+05</totfact>
</mgrwt>
</event>
<event>
 4    1  0.2196664E-002  0.5084683E+02  0.7818608E-02  0.1440827E+00
         -2   -1    0    0  501    0 -0.00000000000E+00  0.00000000000E+00  0.59009638808E+01  0.59009644318E+01  0.25500000000E-02 0. -1.
          2   -1    0    0    0  501  0.00000000000E+00 -0.00000000000E+00 -0.10953294810E+03  0.10953294813E+03  0.25500000000E-02 0. -1.
          2    1    1    2    0  502  0.21837457316E+02 -0.12927601080E+02 -0.55298100458E+02  0.60843054923E+02  0.25500000000E-02 0.  1.
         -2    1    1    2  502    0 -0.21837457316E+02  0.12927601080E+02 -0.48333883762E+02  0.54590857639E+02  0.25500000000E-02 0.  1.
<mgrwt>
<rscale>  0 0.50846829E+02</rscale>
<asrwt>0</asrwt>
<pdfrwt beam="2">  1        2 0.16851221E-01 0.50846829E+02</pdfrwt>
<pdfrwt beam="1">  1       -2 0.90784073E-03 0.50846829E+02</pdfrwt>
<totfact> 0.58786695E+05</totfact>
</mgrwt>
</event>
<event>
 4    1  0.2196664E-002  0.1872484E+03  0.7818608E-02  0.1160967E+00
          2   -1    0    0    0  501  0.00000000000E+00  0.00000000000E+00  0.10600630480E+04  0.10600630480E+04  0.25500000000E-02 0. -1.
         -2   -1    0    0  501    0 -0.00000000000E+00 -0.00000000000E+00 -0.82688407148E+01  0.82688411080E+01  0.25500000000E-02 0. -1.
          2    1    1    2    0  502  0.92863717278E+02 -0.11709770370E+02  0.51352279025E+03  0.52198318442E+03  0.25500000000E-02 0.  1.
         -2    1    1    2  502    0 -0.92863717278E+02  0.11709770370E+02  0.53827141699E+03  0.54634870464E+03  0.25500000000E-02 0.  1.
<mgrwt>
<rscale>  0 0.18724842E+03</rscale>
<asrwt>0</asrwt>
<pdfrwt beam="1">  1        2 0.16308660E+00 0.18724842E+03</pdfrwt>
<pdfrwt beam="2">  1       -2 0.12721295E-02 0.18724842E+03</pdfrwt>
<totfact> 0.35211304E+04</totfact>
</mgrwt>
</event>
<event>
 4    1  0.2196664E-002  0.9361452E+02  0.7818608E-02  0.1294327E+00
          2   -1    0    0    0  501  0.00000000000E+00  0.00000000000E+00  0.14573472826E+04  0.14573472826E+04  0.25500000000E-02 0.  1.
         -2   -1    0    0  501    0 -0.00000000000E+00 -0.00000000000E+00 -0.15033601507E+01  0.15033623133E+01  0.25500000000E-02 0.  1.
          2    1    1    2    0  502  0.18975394222E+02 -0.21360421885E+02  0.15015377640E+03  0.15284793026E+03  0.25500000000E-02 0. -1.
         -2    1    1    2  502    0 -0.18975394222E+02  0.21360421885E+02  0.13056901461E+04  0.13060027147E+04  0.25500000000E-02 0. -1.
<mgrwt>
<rscale>  0 0.93614516E+02</rscale>
<asrwt>0</asrwt>
<pdfrwt beam="1">  1        2 0.22420808E+00 0.93614516E+02</pdfrwt>
<pdfrwt beam="2">  1       -2 0.23128551E-03 0.93614516E+02</pdfrwt>
<totfact> 0.22238620E+05</totfact>
</mgrwt>
</event>
<event>
 4    1  0.2196664E-002  0.5389444E+02  0.7818608E-02  0.1425401E+00
         -2   -1    0    0  501    0 -0.00000000000E+00  0.00000000000E+00  0.74469196813E+01  0.74469201179E+01  0.25500000000E-02 0. -1.
          2   -1    0    0    0  501  0.00000000000E+00 -0.00000000000E+00 -0.97510480150E+02  0.97510480183E+02  0.25500000000E-02 0. -1.
          2    1    1    2    0  502 -0.26099354171E+02 -0.66401546497E+01 -0.43199933277E+02  0.50906798991E+02  0.25500000000E-02 0.  1.
         -2    1    1    2  502    0  0.26099354171E+02  0.66401546497E+01 -0.46863627191E+02  0.54050601310E+02  0.25500000000E-02 0.  1.
<mgrwt>
<rscale>  0 0.53894443E+02</rscale>
<asrwt>0</asrwt>
<pdfrwt beam="2">  1        2 0.15001612E-01 0.53894443E+02</pdfrwt>
<pdfrwt beam="1">  1       -2 0.11456800E-02 0.53894443E+02</pdfrwt>
<totfact> 0.49141265E+05</totfact>
</mgrwt>
</event>
<event>
 4    1  0.2196664E-002  0.7602432E+02  0.7818608E-02  0.1340728E+00
         -2   -1    0    0  501    0 -0.00000000000E+00  0.00000000000E+00  0.71216828808E+01  0.71216833374E+01  0.25500000000E-02 0. -1.
          2   -1    0    0    0  501  0.00000000000E+00 -0.00000000000E+00 -0.20289086855E+03  0.20289086856E+03  0.25500000000E-02 0. -1.
          2    1    1    2    0  502 -0.37907036158E+01 -0.33439358846E+02 -0.14670747225E+03  0.15051791446E+03  0.25500000000E-02 0.  1.
         -2    1    1    2  502    0  0.37907036158E+01  0.33439358846E+02 -0.49061713418E+02  0.59494637439E+02  0.25500000000E-02 0.  1.
<mgrwt>
<rscale>  0 0.76024324E+02</rscale>
<asrwt>0</asrwt>
<pdfrwt beam="2">  1        2 0.31213975E-01 0.76024324E+02</pdfrwt>
<pdfrwt beam="1">  1       -2 0.10956437E-02 0.76024324E+02</pdfrwt>
<totfact> 0.25222228E+05</totfact>
</mgrwt>
</event>
<event>
 4    1  0.2196664E-002  0.1100856E+03  0.7818608E-02  0.1260411E+00
         -2   -1    0    0  501    0 -0.00000000000E+00  0.00000000000E+00  0.57583618050E+02  0.57583618107E+02  0.25500000000E-02 0. -1.
          2   -1    0    0    0  501  0.00000000000E+00 -0.00000000000E+00 -0.52614074803E+02  0.52614074865E+02  0.25500000000E-02 0. -1.
          2    1    1    2    0  502  0.24185684003E+02  0.21020160208E+02  0.47284280319E+02  0.57119152809E+02  0.25500000000E-02 0.  1.
         -2    1    1    2  502    0 -0.24185684003E+02 -0.21020160208E+02 -0.42314737071E+02  0.53078540162E+02  0.25500000000E-02 0.  1.
<mgrwt>
<rscale>  0 0.11008558E+03</rscale>
<asrwt>0</asrwt>
<pdfrwt beam="2">  1        2 0.80944731E-02 0.11008558E+03</pdfrwt>
<pdfrwt beam="1">  1       -2 0.88590181E-02 0.11008558E+03</pdfrwt>
<totfact> 0.59320217E+04</totfact>
</mgrwt>
</event>
<event>
 4    1  0.2196664E-002  0.4576149E+02  0.7818608E-02  0.1469643E+00
         -2   -1    0    0  501    0 -0.00000000000E+00  0.00000000000E+00  0.57701427444E+02  0.57701427500E+02  0.25500000000E-02 0.  1.
          2   -1    0    0    0  501  0.00000000000E+00 -0.00000000000E+00 -0.90730604028E+01  0.90730607612E+01  0.25500000000E-02 0.  1.
          2    1    1    2    0  502 -0.18301640496E+01  0.21623479729E+02  0.13730899175E+02  0.25679991719E+02  0.25500000000E-02 0.  1.
         -2    1    1    2  502    0  0.18301640496E+01 -0.21623479729E+02  0.34897467866E+02  0.41094496542E+02  0.25500000000E-02 0.  1.
<mgrwt>
<rscale>  0 0.45761493E+02</rscale>
<asrwt>0</asrwt>
<pdfrwt beam="2">  1        2 0.13958555E-02 0.45761493E+02</pdfrwt>
<pdfrwt beam="1">  1       -2 0.88771427E-02 0.45761493E+02</pdfrwt>
<totfact> 0.49164294E+05</totfact>
</mgrwt>
</event>
<event>
 4    1  0.2196664E-002  0.5931353E+02  0.7818608E-02  0.1400735E+00
          2   -1    0    0    0  501  0.00000000000E+00  0.00000000000E+00  0.97848652513E+01  0.97848655836E+01  0.25500000000E-02 0. -1.
         -2   -1    0    0  501    0 -0.00000000000E+00 -0.00000000000E+00 -0.89886125241E+02  0.89886125277E+02  0.25500000000E-02 0. -1.
          2    1    1    2    0  502  0.13935980735E+02 -0.23306735719E+02 -0.60082639078E+02  0.65934353823E+02  0.25500000000E-02 0. -1.
         -2    1    1    2  502    0 -0.13935980735E+02  0.23306735719E+02 -0.20018620911E+02  0.33736637038E+02  0.25500000000E-02 0. -1.
<mgrwt>
<rscale>  0 0.59313528E+02</rscale>
<asrwt>0</asrwt>
<pdfrwt beam="1">  1        2 0.15053640E-02 0.59313528E+02</pdfrwt>
<pdfrwt beam="2">  1       -2 0.13828634E-01 0.59313528E+02</pdfrwt>
<totfact> 0.23846248E+05</totfact>
</mgrwt>
</event>
<event>
 4    1  0.2196664E-002  0.6427059E+02  0.7818608E-02  0.1380736E+00
          2   -1    0    0    0  501  0.00000000000E+00  0.00000000000E+00  0.98598454337E+00  0.98598784083E+00  0.25500000000E-02 0. -1.
         -2   -1    0    0  501    0 -0.00000000000E+00 -0.00000000000E+00 -0.10473546810E+04  0.10473546810E+04  0.25500000000E-02 0. -1.
          2    1    1    2    0  502  0.28139294383E+02  0.12829307034E+02 -0.66563233276E+03  0.66635036837E+03  0.25500000000E-02 0.  1.
         -2    1    1    2  502    0 -0.28139294383E+02 -0.12829307034E+02 -0.38073636373E+03  0.38199030051E+03  0.25500000000E-02 0.  1.
<mgrwt>
<rscale>  0 0.64270592E+02</rscale>
<asrwt>0</asrwt>
<pdfrwt beam="1">  1        2 0.15169102E-03 0.64270592E+02</pdfrwt>
<pdfrwt beam="2">  1       -2 0.16113060E+00 0.64270592E+02</pdfrwt>
<totfact> 0.43307596E+04</totfact>
</mgrwt>
</event>
<event>
 4    1  0.2196664E-002  0.1134356E+03  0.7818608E-02  0.1254337E+00
         -2   -1    0    0  501    0 -0.00000000000E+00  0.00000000000E+00  0.38386036741E+03  0.38386036742E+03  0.25500000000E-02 0. -1.
          2   -1    0    0    0  501  0.00000000000E+00 -0.00000000000E+00 -0.83804139161E+01  0.83804143040E+01  0.25500000000E-02 0. -1.
          2    1    1    2    0  502  0.43869094683E+02 -0.33807981888E+02  0.14547070332E+03  0.15565732439E+03  0.25500000000E-02 0.  1.
         -2    1    1    2  502    0 -0.43869094683E+02  0.33807981888E+02  0.23000925018E+03  0.23658345733E+03  0.25500000000E-02 0.  1.
<mgrwt>
<rscale>  0 0.11343560E+03</rscale>
<asrwt>0</asrwt>
<pdfrwt beam="2">  1        2 0.12892947E-02 0.11343560E+03</pdfrwt>
<pdfrwt beam="1">  1       -2 0.59055430E-01 0.11343560E+03</pdfrwt>
<totfact> 0.24876659E+04</totfact>
</mgrwt>
</event>
<event>
 4    1  0.2196664E-002  0.4997876E+02  0.7818608E-02  0.1445456E+00
          2   -1    0    0    0  501  0.00000000000E+00  0.00000000000E+00  0.54203850988E+02  0.54203851048E+02  0.25500000000E-02 0.  1.
         -2   -1    0    0  501    0 -0.00000000000E+00 -0.00000000000E+00 -0.11520753556E+02  0.11520753838E+02  0.25500000000E-02 0.  1.
          2    1    1    2    0  502 -0.64726545636E+01 -0.20630595682E+02  0.48665056393E+01  0.22163023687E+02  0.25500000000E-02 0. -1.
         -2    1    1    2  502    0  0.64726545636E+01  0.20630595682E+02  0.37816591793E+02  0.43561581200E+02  0.25500000000E-02 0. -1.
<mgrwt>
<rscale>  0 0.49978764E+02</rscale>
<asrwt>0</asrwt>
<pdfrwt beam="1">  1        2 0.83390539E-02 0.49978764E+02</pdfrwt>
<pdfrwt beam="2">  1       -2 0.17724237E-02 0.49978764E+02</pdfrwt>
<totfact> 0.52162355E+05</totfact>
</mgrwt>
</event>
<event>
 4    1  0.2196664E-002  0.4587249E+02  0.7818608E-02  0.1468967E+00
         -2   -1    0    0  501    0 -0.00000000000E+00  0.00000000000E+00  0.13745478685E+01  0.13745502338E+01  0.25500000000E-02 0. -1.
          2   -1    0    0    0  501  0.00000000000E+00 -0.00000000000E+00 -0.38272290125E+03  0.38272290126E+03  0.25500000000E-02 0. -1.
          2    1    1    2    0  502  0.19510365341E+02  0.51769476366E+01 -0.28186711018E+03  0.28258896467E+03  0.25500000000E-02 0. -1.
         -2    1    1    2  502    0 -0.19510365341E+02 -0.51769476366E+01 -0.99481243201E+02  0.10150848683E+03  0.25500000000E-02 0. -1.
<mgrwt>
<rscale>  0 0.45872493E+02</rscale>
<asrwt>0</asrwt>
<pdfrwt beam="2">  1        2 0.58880362E-01 0.45872493E+02</pdfrwt>
<pdfrwt beam="1">  1       -2 0.21146939E-03 0.45872493E+02</pdfrwt>
<totfact> 0.11383316E+06</totfact>
</mgrwt>
</event>
<event>
 4    1  0.2196664E-002  0.4713537E+02  0.7818608E-02  0.1461435E+00
         -2   -1    0    0  501    0 -0.00000000000E+00  0.00000000000E+00  0.39216109596E+00  0.39216938647E+00  0.25500000000E-02 0. -1.
          2   -1    0    0    0  501  0.00000000000E+00 -0.00000000000E+00 -0.14163307612E+04  0.14163307612E+04  0.25500000000E-02 0. -1.
          2    1    1    2    0  502 -0.21891892932E+02 -0.63483398107E+01 -0.88800556529E+03  0.88829805831E+03  0.25500000000E-02 0. -1.
         -2    1    1    2  502    0  0.21891892932E+02  0.63483398107E+01 -0.52793303483E+03  0.52842487230E+03  0.25500000000E-02 0. -1.
<mgrwt>
<rscale>  0 0.47135367E+02</rscale>
<asrwt>0</asrwt>
<pdfrwt beam="2">  1        2 0.21789295E+00 0.47135367E+02</pdfrwt>
<pdfrwt beam="1">  1       -2 0.60334248E-04 0.47135367E+02</pdfrwt>
<totfact> 0.12914955E+06</totfact>
</mgrwt>
</event>
<event>
 4    1  0.2196664E-002  0.4483458E+02  0.7818608E-02  0.1475377E+00
          2   -1    0    0    0  501  0.00000000000E+00  0.00000000000E+00  0.18566847459E+04  0.18566847459E+04  0.25500000000E-02 0. -1.
         -2   -1    0    0  501    0 -0.00000000000E+00 -0.00000000000E+00 -0.27065648741E+00  0.27066849961E+00  0.25500000000E-02 0. -1.
          2    1    1    2    0  502 -0.21453207083E+02 -0.64973635794E+01  0.91655894931E+03  0.91683300736E+03  0.25500000000E-02 0.  1.
         -2    1    1    2  502    0  0.21453207083E+02  0.64973635794E+01  0.93985514010E+03  0.94012240704E+03  0.25500000000E-02 0.  1.
<mgrwt>
<rscale>  0 0.44834582E+02</rscale>
<asrwt>0</asrwt>
<pdfrwt beam="1">  1        2 0.28562813E+00 0.44834582E+02</pdfrwt>
<pdfrwt beam="2">  1       -2 0.41642669E-04 0.44834582E+02</pdfrwt>
<totfact> 0.12810796E+06</totfact>
</mgrwt>
</event>
<event>
 4    1  0.2196664E-002  0.9681003E+02  0.7818608E-02  0.1287151E+00
          2   -1    0    0    0  501  0.00000000000E+00  0.00000000000E+00  0.44540424566E+03  0.44540424566E+03  0.25500000000E-02 0. -1.
         -2   -1    0    0  501    0 -0.00000000000E+00 -0.00000000000E+00 -0.52604918765E+01  0.52604924945E+01  0.25500000000E-02 0. -1.
          2    1    1    2    0  502 -0.30166130715E+02 -0.25844520983E+02  0.91307599557E+02  0.99574155535E+02  0.25500000000E-02 0. -1.
         -2    1    1    2  502    0  0.30166130715E+02  0.25844520983E+02  0.34883615422E+03  0.35109058262E+03  0.25500000000E-02 0. -1.
<mgrwt>
<rscale>  0 0.96810032E+02</rscale>
<asrwt>0</asrwt>
<pdfrwt beam="1">  1        2 0.68523714E-01 0.96810032E+02</pdfrwt>
<pdfrwt beam="2">  1       -2 0.80930668E-03 0.96810032E+02</pdfrwt>
<totfact> 0.17674913E+05</totfact>
</mgrwt>
</event>
<event>
 4    1  0.2196664E-002  0.6030977E+02  0.7818608E-02  0.1396536E+00
         -2   -1    0    0  501    0 -0.00000000000E+00  0.00000000000E+00  0.63483069670E+00  0.63483581813E+00  0.25500000000E-02 0. -1.
          2   -1    0    0    0  501  0.00000000000E+00 -0.00000000000E+00 -0.14323714846E+04  0.14323714846E+04  0.25500000000E-02 0. -1.
          2    1    1    2    0  502  0.22932396797E+02  0.11972090970E+02 -0.34769813595E+03  0.34865917389E+03  0.25500000000E-02 0. -1.
         -2    1    1    2  502    0 -0.22932396797E+02 -0.11972090970E+02 -0.10840385180E+04  0.10843471466E+04  0.25500000000E-02 0. -1.
<mgrwt>
<rscale>  0 0.60309769E+02</rscale>
<asrwt>0</asrwt>
<pdfrwt beam="2">  1        2 0.22036226E+00 0.60309769E+02</pdfrwt>
<pdfrwt beam="1">  1       -2 0.97667802E-04 0.60309769E+02</pdfrwt>
<totfact> 0.69641853E+05</totfact>
</mgrwt>
</event>
<event>
 4    1  0.2196664E-002  0.6871184E+02  0.7818608E-02  0.1364529E+00
          2   -1    0    0    0  501  0.00000000000E+00  0.00000000000E+00  0.79054455035E+03  0.79054455036E+03  0.25500000000E-02 0. -1.
         -2   -1    0    0  501    0 -0.00000000000E+00 -0.00000000000E+00 -0.14930572104E+01  0.14930593880E+01  0.25500000000E-02 0. -1.
          2    1    1    2    0  502  0.25832855938E+02  0.15117738541E+02  0.58893397834E+03  0.58969408452E+03  0.25500000000E-02 0.  1.
         -2    1    1    2  502    0 -0.25832855938E+02 -0.15117738541E+02  0.20011751480E+03  0.20234352523E+03  0.25500000000E-02 0.  1.
<mgrwt>
<rscale>  0 0.68711836E+02</rscale>
<asrwt>0</asrwt>
<pdfrwt beam="1">  1        2 0.12162184E+00 0.68711836E+02</pdfrwt>
<pdfrwt beam="2">  1       -2 0.22970203E-03 0.68711836E+02</pdfrwt>
<totfact> 0.50710337E+05</totfact>
</mgrwt>
</event>
<event>
 4    1  0.2196664E-002  0.4498689E+02  0.7818608E-02  0.1474424E+00
          2   -1    0    0    0  501  0.00000000000E+00  0.00000000000E+00  0.31114576894E+03  0.31114576895E+03  0.25500000000E-02 0.  1.
         -2   -1    0    0  501    0 -0.00000000000E+00 -0.00000000000E+00 -0.16261017743E+01  0.16261037737E+01  0.25500000000E-02 0.  1.
          2    1    1    2    0  502 -0.97275462516E+00  0.21696799151E+02  0.19545291064E+03  0.19665588633E+03  0.25500000000E-02 0.  1.
         -2    1    1    2  502    0  0.97275462516E+00 -0.21696799151E+02  0.11406675653E+03  0.11611598639E+03  0.25500000000E-02 0.  1.
<mgrwt>
<rscale>  0 0.44986887E+02</rscale>
<asrwt>0</asrwt>
<pdfrwt beam="1">  1        2 0.47868637E-01 0.44986887E+02</pdfrwt>
<pdfrwt beam="2">  1       -2 0.25016936E-03 0.44986887E+02</pdfrwt>
<totfact> 0.11124797E+06</totfact>
</mgrwt>
</event>
<event>
 4    1  0.2196664E-002  0.4437336E+02  0.7818608E-02  0.1478292E+00
         -2   -1    0    0  501    0 -0.00000000000E+00  0.00000000000E+00  0.31027242052E+00  0.31028289904E+00  0.25500000000E-02 0. -1.
          2   -1    0    0    0  501  0.00000000000E+00 -0.00000000000E+00 -0.15864782672E+04  0.15864782672E+04  0.25500000000E-02 0. -1.
          2    1    1    2    0  502  0.10321177497E+02 -0.17836944265E+02 -0.49914367822E+03  0.49956890896E+03  0.25500000000E-02 0. -1.
         -2    1    1    2  502    0 -0.10321177497E+02  0.17836944265E+02 -0.10870243166E+04  0.10872196411E+04  0.25500000000E-02 0. -1.
<mgrwt>
<rscale>  0 0.44373360E+02</rscale>
<asrwt>0</asrwt>
<pdfrwt beam="2">  1        2 0.24406708E+00 0.44373360E+02</pdfrwt>
<pdfrwt beam="1">  1       -2 0.47736295E-04 0.44373360E+02</pdfrwt>
<totfact> 0.14380986E+06</totfact>
</mgrwt>
</event>
<event>
 4    1  0.2196664E-002  0.5201583E+02  0.7818608E-02  0.1434762E+00
         -2   -1    0    0  501    0 -0.00000000000E+00  0.00000000000E+00  0.15372686416E+02  0.15372686628E+02  0.25500000000E-02 0.  1.
          2   -1    0    0    0  501  0.00000000000E+00 -0.00000000000E+00 -0.44000874929E+02  0.44000875003E+02  0.25500000000E-02 0.  1.
          2    1    1    2    0  502 -0.63889482070E+01 -0.21853807965E+02  0.33916829331E-01  0.22768591055E+02  0.25500000000E-02 0. -1.
         -2    1    1    2  502    0  0.63889482070E+01  0.21853807965E+02 -0.28662105342E+02  0.36604970576E+02  0.25500000000E-02 0. -1.
<mgrwt>
<rscale>  0 0.52015831E+02</rscale>
<asrwt>0</asrwt>
<pdfrwt beam="2">  1        2 0.67693653E-02 0.52015831E+02</pdfrwt>
<pdfrwt beam="1">  1       -2 0.23650287E-02 0.52015831E+02</pdfrwt>
<totfact> 0.45225330E+05</totfact>
</mgrwt>
</event>
<event>
 4    1  0.2196664E-002  0.6526796E+02  0.7818608E-02  0.1376966E+00
          2   -1    0    0    0  501  0.00000000000E+00  0.00000000000E+00  0.14310973814E+03  0.14310973816E+03  0.25500000000E-02 0. -1.
         -2   -1    0    0  501    0 -0.00000000000E+00 -0.00000000000E+00 -0.74416773279E+01  0.74416777648E+01  0.25500000000E-02 0. -1.
          2    1    1    2    0  502  0.17356035771E+02  0.26903760231E+02  0.82410307312E+02  0.88410989419E+02  0.25500000000E-02 0.  1.
         -2    1    1    2  502    0 -0.17356035771E+02 -0.26903760231E+02  0.53257753497E+02  0.62140426506E+02  0.25500000000E-02 0.  1.
<mgrwt>
<rscale>  0 0.65267956E+02</rscale>
<asrwt>0</asrwt>
<pdfrwt beam="1">  1        2 0.22016881E-01 0.65267956E+02</pdfrwt>
<pdfrwt beam="2">  1       -2 0.11448736E-02 0.65267956E+02</pdfrwt>
<totfact> 0.33472155E+05</totfact>
</mgrwt>
</event>
<event>
 4    1  0.2196664E-002  0.6415223E+02  0.7818608E-02  0.1381189E+00
          2   -1    0    0    0  501  0.00000000000E+00  0.00000000000E+00  0.23504034632E+01  0.23504048465E+01  0.25500000000E-02 0.  1.
         -2   -1    0    0  501    0 -0.00000000000E+00 -0.00000000000E+00 -0.43774479128E+03  0.43774479129E+03  0.25500000000E-02 0.  1.
          2    1    1    2    0  502  0.20293249524E+02 -0.24232485410E+02 -0.18021790229E+03  0.18296863567E+03  0.25500000000E-02 0.  1.
         -2    1    1    2  502    0 -0.20293249524E+02  0.24232485410E+02 -0.25517648553E+03  0.25712656047E+03  0.25500000000E-02 0.  1.
<mgrwt>
<rscale>  0 0.64152231E+02</rscale>
<asrwt>0</asrwt>
<pdfrwt beam="1">  1        2 0.36160099E-03 0.64152231E+02</pdfrwt>
<pdfrwt beam="2">  1       -2 0.67345288E-01 0.64152231E+02</pdfrwt>
<totfact> 0.98436527E+04</totfact>
</mgrwt>
</event>
<event>
 4    1  0.2196664E-002  0.4295928E+02  0.7818608E-02  0.1487499E+00
          2   -1    0    0    0  501  0.00000000000E+00  0.00000000000E+00  0.47008234392E+03  0.47008234393E+03  0.25500000000E-02 0. -1.
         -2   -1    0    0  501    0 -0.00000000000E+00 -0.00000000000E+00 -0.98147535365E+00  0.98147866626E+00  0.25500000000E-02 0. -1.
          2    1    1    2    0  502  0.20769839746E+02  0.37386557141E+01  0.27842723345E+03  0.27922587295E+03  0.25500000000E-02 0.  1.
         -2    1    1    2  502    0 -0.20769839746E+02 -0.37386557141E+01  0.19067363512E+03  0.19183794965E+03  0.25500000000E-02 0.  1.
<mgrwt>
<rscale>  0 0.42959284E+02</rscale>
<asrwt>0</asrwt>
<pdfrwt beam="1">  1        2 0.72320478E-01 0.42959284E+02</pdfrwt>
<pdfrwt beam="2">  1       -2 0.15099622E-03 0.42959284E+02</pdfrwt>
<totfact> 0.14294610E+06</totfact>
</mgrwt>
</event>
<event>
 4    1  0.2196664E-002  0.4364472E+02  0.7818608E-02  0.1482984E+00
          2   -1    0    0    0  501  0.00000000000E+00  0.00000000000E+00  0.61134728028E+03  0.61134728029E+03  0.25500000000E-02 0. -1.
         -2   -1    0    0  501    0 -0.00000000000E+00 -0.00000000000E+00 -0.77895853947E+00  0.77896271330E+00  0.25500000000E-02 0. -1.
          2    1    1    2    0  502  0.19981668706E+02  0.35047751346E+01  0.19250116087E+03  0.19356716529E+03  0.25500000000E-02 0. -1.
         -2    1    1    2  502    0 -0.19981668706E+02 -0.35047751346E+01  0.41806716087E+03  0.41855907771E+03  0.25500000000E-02 0. -1.
<mgrwt>
<rscale>  0 0.43644723E+02</rscale>
<asrwt>0</asrwt>
<pdfrwt beam="1">  1        2 0.94053872E-01 0.43644723E+02</pdfrwt>
<pdfrwt beam="2">  1       -2 0.11983953E-03 0.43644723E+02</pdfrwt>
<totfact> 0.14851144E+06</totfact>
</mgrwt>
</event>
<event>
 4    1  0.2196664E-002  0.5101413E+02  0.7818608E-02  0.1439947E+00
         -2   -1    0    0  501    0 -0.00000000000E+00  0.00000000000E+00  0.95878235265E+01  0.95878238656E+01  0.25500000000E-02 0. -1.
          2   -1    0    0    0  501  0.00000000000E+00 -0.00000000000E+00 -0.67857979520E+02  0.67857979568E+02  0.25500000000E-02 0. -1.
          2    1    1    2    0  502 -0.14787240034E+02  0.15181154134E+02 -0.75862404114E+01  0.22509574823E+02  0.25500000000E-02 0. -1.
         -2    1    1    2  502    0  0.14787240034E+02 -0.15181154134E+02 -0.50683915582E+02  0.54936228610E+02  0.25500000000E-02 0. -1.
<mgrwt>
<rscale>  0 0.51014129E+02</rscale>
<asrwt>0</asrwt>
<pdfrwt beam="2">  1        2 0.10439689E-01 0.51014129E+02</pdfrwt>
<pdfrwt beam="1">  1       -2 0.14750498E-02 0.51014129E+02</pdfrwt>
<totfact> 0.51855822E+05</totfact>
</mgrwt>
</event>
<event>
 4    1  0.2196664E-002  0.4421201E+02  0.7818608E-02  0.1479322E+00
         -2   -1    0    0  501    0 -0.00000000000E+00  0.00000000000E+00  0.90786463241E+00  0.90786821361E+00  0.25500000000E-02 0. -1.
          2   -1    0    0    0  501  0.00000000000E+00 -0.00000000000E+00 -0.53826801522E+03  0.53826801522E+03  0.25500000000E-02 0. -1.
          2    1    1    2    0  502 -0.18120614201E+02  0.12441964017E+02 -0.29732285668E+03  0.29813426545E+03  0.25500000000E-02 0.  1.
         -2    1    1    2  502    0  0.18120614201E+02 -0.12441964017E+02 -0.24003729391E+03  0.24104161799E+03  0.25500000000E-02 0.  1.
<mgrwt>
<rscale>  0 0.44212010E+02</rscale>
<asrwt>0</asrwt>
<pdfrwt beam="2">  1        2 0.82810209E-01 0.44212010E+02</pdfrwt>
<pdfrwt beam="1">  1       -2 0.13967219E-03 0.44212010E+02</pdfrwt>
<totfact> 0.13889926E+06</totfact>
</mgrwt>
</event>
<event>
 4    1  0.2196664E-002  0.5188851E+02  0.7818608E-02  0.1435414E+00
         -2   -1    0    0  501    0 -0.00000000000E+00  0.00000000000E+00  0.15731753644E+01  0.15731774311E+01  0.25500000000E-02 0.  1.
          2   -1    0    0    0  501  0.00000000000E+00 -0.00000000000E+00 -0.42786320582E+03  0.42786320583E+03  0.25500000000E-02 0.  1.
          2    1    1    2    0  502 -0.21841293683E+02  0.59013053968E+01 -0.31823460930E+03  0.31903782546E+03  0.25500000000E-02 0.  1.
         -2    1    1    2  502    0  0.21841293683E+02 -0.59013053968E+01 -0.10805542116E+03  0.11039855779E+03  0.25500000000E-02 0.  1.
<mgrwt>
<rscale>  0 0.51888507E+02</rscale>
<asrwt>0</asrwt>
<pdfrwt beam="2">  1        2 0.65825016E-01 0.51888507E+02</pdfrwt>
<pdfrwt beam="1">  1       -2 0.24202748E-03 0.51888507E+02</pdfrwt>
<totfact> 0.87138576E+05</totfact>
</mgrwt>
</event>
<event>
 4    1  0.2196664E-002  0.6212851E+02  0.7818608E-02  0.1389110E+00
          2   -1    0    0    0  501  0.00000000000E+00  0.00000000000E+00  0.18187206371E+04  0.18187206371E+04  0.25500000000E-02 0. -1.
         -2   -1    0    0  501    0 -0.00000000000E+00 -0.00000000000E+00 -0.53058305820E+00  0.53058918586E+00  0.25500000000E-02 0. -1.
          2    1    1    2    0  502 -0.60279660989E+01 -0.22418140999E+02  0.15135257792E+04  0.15137037999E+04  0.25500000000E-02 0.  1.
         -2    1    1    2  502    0  0.60279660989E+01  0.22418140999E+02  0.30466427483E+03  0.30554742641E+03  0.25500000000E-02 0.  1.
<mgrwt>
<rscale>  0 0.62128510E+02</rscale>
<asrwt>0</asrwt>
<pdfrwt beam="1">  1        2 0.27980353E+00 0.62128510E+02</pdfrwt>
<pdfrwt beam="2">  1       -2 0.81628531E-04 0.62128510E+02</pdfrwt>
<totfact> 0.57476479E+05</totfact>
</mgrwt>
</event>
<event>
 4    1  0.2196664E-002  0.4210086E+02  0.7818608E-02  0.1493297E+00
         -2   -1    0    0  501    0 -0.00000000000E+00  0.00000000000E+00  0.67300538762E+02  0.67300538810E+02  0.25500000000E-02 0. -1.
          2   -1    0    0    0  501  0.00000000000E+00 -0.00000000000E+00 -0.65842068519E+01  0.65842073457E+01  0.25500000000E-02 0. -1.
          2    1    1    2    0  502  0.58385452014E+01 -0.20212783967E+02  0.29148097616E+02  0.35947974169E+02  0.25500000000E-02 0. -1.
         -2    1    1    2  502    0 -0.58385452014E+01  0.20212783967E+02  0.31568234294E+02  0.37936771986E+02  0.25500000000E-02 0. -1.
<mgrwt>
<rscale>  0 0.42100864E+02</rscale>
<asrwt>0</asrwt>
<pdfrwt beam="2">  1        2 0.10129549E-02 0.42100864E+02</pdfrwt>
<pdfrwt beam="1">  1       -2 0.10353929E-01 0.42100864E+02</pdfrwt>
<totfact> 0.58353303E+05</totfact>
</mgrwt>
</event>
<event>
 4    1  0.2196664E-002  0.4512141E+02  0.7818608E-02  0.1473585E+00
         -2   -1    0    0  501    0 -0.00000000000E+00  0.00000000000E+00  0.26981264102E+02  0.26981264223E+02  0.25500000000E-02 0.  1.
          2   -1    0    0    0  501  0.00000000000E+00 -0.00000000000E+00 -0.18864399828E+02  0.18864400001E+02  0.25500000000E-02 0.  1.
          2    1    1    2    0  502 -0.19297820216E+02  0.11612643476E+02  0.27235710044E+01  0.22686498168E+02  0.25500000000E-02 0.  1.
         -2    1    1    2  502    0  0.19297820216E+02 -0.11612643476E+02  0.53932932698E+01  0.23159166056E+02  0.25500000000E-02 0.  1.
<mgrwt>
<rscale>  0 0.45121408E+02</rscale>
<asrwt>0</asrwt>
<pdfrwt beam="2">  1        2 0.29022154E-02 0.45121408E+02</pdfrwt>
<pdfrwt beam="1">  1       -2 0.41509637E-02 0.45121408E+02</pdfrwt>
<totfact> 0.57260843E+05</totfact>
</mgrwt>
</event>
<event>
 4    1  0.2196664E-002  0.5913265E+02  0.7818608E-02  0.1401508E+00
          2   -1    0    0    0  501  0.00000000000E+00  0.00000000000E+00  0.71257686723E+01  0.71257691285E+01  0.25500000000E-02 0.  1.
         -2   -1    0    0  501    0 -0.00000000000E+00 -0.00000000000E+00 -0.12267694555E+03  0.12267694558E+03  0.25500000000E-02 0.  1.
          2    1    1    2    0  502  0.12424841661E+02 -0.24663065645E+02 -0.80957045317E+02  0.85537633181E+02  0.25500000000E-02 0.  1.
         -2    1    1    2  502    0 -0.12424841661E+02  0.24663065645E+02 -0.34594131560E+02  0.44265081523E+02  0.25500000000E-02 0.  1.
<mgrwt>
<rscale>  0 0.59132650E+02</rscale>
<asrwt>0</asrwt>
<pdfrwt beam="1">  1        2 0.10962722E-02 0.59132650E+02</pdfrwt>
<pdfrwt beam="2">  1       -2 0.18873375E-01 0.59132650E+02</pdfrwt>
<totfact> 0.22098618E+05</totfact>
</mgrwt>
</event>
<event>
 4    1  0.2196664E-002  0.4969343E+02  0.7818608E-02  0.1447002E+00
         -2   -1    0    0  501    0 -0.00000000000E+00  0.00000000000E+00  0.39094549055E+00  0.39095380683E+00  0.25500000000E-02 0.  1.
          2   -1    0    0    0  501  0.00000000000E+00 -0.00000000000E+00 -0.15791273227E+04  0.15791273227E+04  0.25500000000E-02 0.  1.
          2    1    1    2    0  502 -0.14727770433E+02  0.18634403621E+02 -0.10212285880E+04  0.10215047613E+04  0.25500000000E-02 0. -1.
         -2    1    1    2  502    0  0.14727770433E+02 -0.18634403621E+02 -0.55750778920E+03  0.55801351529E+03  0.25500000000E-02 0. -1.
<mgrwt>
<rscale>  0 0.49693431E+02</rscale>
<asrwt>0</asrwt>
<pdfrwt beam="2">  1        2 0.24293756E+00 0.49693431E+02</pdfrwt>
<pdfrwt beam="1">  1       -2 0.60147364E-04 0.49693431E+02</pdfrwt>
<totfact> 0.10902092E+06</totfact>
</mgrwt>
</event>
<event>
 4    1  0.2196664E-002  0.4012055E+02  0.7818608E-02  0.1507326E+00
         -2   -1    0    0  501    0 -0.00000000000E+00  0.00000000000E+00  0.30666917635E+01  0.30666928237E+01  0.25500000000E-02 0.  1.
          2   -1    0    0    0  501  0.00000000000E+00 -0.00000000000E+00 -0.13122103756E+03  0.13122103758E+03  0.25500000000E-02 0.  1.
          2    1    1    2    0  502  0.18811730663E+02 -0.68353251495E+01 -0.68582309546E+02  0.71443236696E+02  0.25500000000E-02 0.  1.
         -2    1    1    2  502    0 -0.18811730663E+02  0.68353251495E+01 -0.59572036250E+02  0.62844493712E+02  0.25500000000E-02 0.  1.
<mgrwt>
<rscale>  0 0.40120546E+02</rscale>
<asrwt>0</asrwt>
<pdfrwt beam="2">  1        2 0.20187848E-01 0.40120546E+02</pdfrwt>
<pdfrwt beam="1">  1       -2 0.47179892E-03 0.40120546E+02</pdfrwt>
<totfact> 0.11150492E+06</totfact>
</mgrwt>
</event>
<event>
 4    1  0.2196664E-002  0.4788414E+02  0.7818608E-02  0.1457100E+00
         -2   -1    0    0  501    0 -0.00000000000E+00  0.00000000000E+00  0.15361521025E+01  0.15361542190E+01  0.25500000000E-02 0.  1.
          2   -1    0    0    0  501  0.00000000000E+00 -0.00000000000E+00 -0.37315472325E+03  0.37315472326E+03  0.25500000000E-02 0.  1.
          2    1    1    2    0  502  0.20359481318E+02 -0.12577960045E+02 -0.18022528866E+03  0.18180722823E+03  0.25500000000E-02 0. -1.
         -2    1    1    2  502    0 -0.20359481318E+02  0.12577960045E+02 -0.19139328249E+03  0.19288364925E+03  0.25500000000E-02 0. -1.
<mgrwt>
<rscale>  0 0.47884144E+02</rscale>
<asrwt>0</asrwt>
<pdfrwt beam="2">  1        2 0.57408347E-01 0.47884144E+02</pdfrwt>
<pdfrwt beam="1">  1       -2 0.23633155E-03 0.47884144E+02</pdfrwt>
<totfact> 0.10153681E+06</totfact>
</mgrwt>
</event>
<event>
 4    1  0.2196664E-002  0.4765479E+02  0.7818608E-02  0.1458418E+00
         -2   -1    0    0  501    0 -0.00000000000E+00  0.00000000000E+00  0.65713989365E+03  0.65713989365E+03  0.25500000000E-02 0.  1.
          2   -1    0    0    0  501  0.00000000000E+00 -0.00000000000E+00 -0.86396148159E+00  0.86396524477E+00  0.25500000000E-02 0.  1.
          2    1    1    2    0  502 -0.21686764771E+02 -0.18158251339E+01  0.19417336639E+03  0.19538912254E+03  0.25500000000E-02 0. -1.
         -2    1    1    2  502    0  0.21686764771E+02  0.18158251339E+01  0.46210256578E+03  0.46261473635E+03  0.25500000000E-02 0. -1.
<mgrwt>
<rscale>  0 0.47654792E+02</rscale>
<asrwt>0</asrwt>
<pdfrwt beam="2">  1        2 0.13291714E-03 0.47654792E+02</pdfrwt>
<pdfrwt beam="1">  1       -2 0.10109868E+00 0.47654792E+02</pdfrwt>
<totfact> 0.14808499E+05</totfact>
</mgrwt>
</event>
<event>
 4    1  0.2196664E-002  0.5168227E+02  0.7818608E-02  0.1436473E+00
         -2   -1    0    0  501    0 -0.00000000000E+00  0.00000000000E+00  0.64330832537E+00  0.64331337931E+00  0.25500000000E-02 0. -1.
          2   -1    0    0    0  501  0.00000000000E+00 -0.00000000000E+00 -0.10380118567E+04  0.10380118567E+04  0.25500000000E-02 0. -1.
          2    1    1    2    0  502  0.24048068444E+01  0.25216682949E+02 -0.62135599262E+03  0.62187212010E+03  0.25500000000E-02 0.  1.
         -2    1    1    2  502    0 -0.24048068444E+01 -0.25216682949E+02 -0.41601255573E+03  0.41678304995E+03  0.25500000000E-02 0.  1.
<mgrwt>
<rscale>  0 0.51682271E+02</rscale>
<asrwt>0</asrwt>
<pdfrwt beam="2">  1        2 0.15969279E+00 0.51682271E+02</pdfrwt>
<pdfrwt beam="1">  1       -2 0.98971731E-04 0.51682271E+02</pdfrwt>
<totfact> 0.10679868E+06</totfact>
</mgrwt>
</event>
<event>
 4    1  0.2196664E-002  0.5773724E+02  0.7818608E-02  0.1407580E+00
          2   -1    0    0    0  501  0.00000000000E+00  0.00000000000E+00  0.92975523682E+00  0.92975873370E+00  0.25500000000E-02 0. -1.
         -2   -1    0    0  501    0 -0.00000000000E+00 -0.00000000000E+00 -0.89636031691E+03  0.89636031691E+03  0.25500000000E-02 0. -1.
          2    1    1    2    0  502  0.44710961683E+01  0.23521153953E+02 -0.69838314580E+03  0.69879342708E+03  0.25500000000E-02 0.  1.
         -2    1    1    2  502    0 -0.44710961683E+01 -0.23521153953E+02 -0.19704741587E+03  0.19849664857E+03  0.25500000000E-02 0.  1.
<mgrwt>
<rscale>  0 0.57737242E+02</rscale>
<asrwt>0</asrwt>
<pdfrwt beam="1">  1        2 0.14304025E-03 0.57737242E+02</pdfrwt>
<pdfrwt beam="2">  1       -2 0.13790090E+00 0.57737242E+02</pdfrwt>
<totfact> 0.67704976E+04</totfact>
</mgrwt>
</event>
<event>
 4    1  0.2196664E-002  0.5488168E+02  0.7818608E-02  0.1420659E+00
          2   -1    0    0    0  501  0.00000000000E+00  0.00000000000E+00  0.40372188962E+03  0.40372188962E+03  0.25500000000E-02 0. -1.
         -2   -1    0    0  501    0 -0.00000000000E+00 -0.00000000000E+00 -0.18651438012E+01  0.18651455444E+01  0.25500000000E-02 0. -1.
          2    1    1    2    0  502  0.26877788192E+02  0.52760145238E+01  0.21317896866E+03  0.21493144143E+03  0.25500000000E-02 0.  1.
         -2    1    1    2  502    0 -0.26877788192E+02 -0.52760145238E+01  0.18867777715E+03  0.19065559374E+03  0.25500000000E-02 0.  1.
<mgrwt>
<rscale>  0 0.54881681E+02</rscale>
<asrwt>0</asrwt>
<pdfrwt beam="1">  1        2 0.62111133E-01 0.54881681E+02</pdfrwt>
<pdfrwt beam="2">  1       -2 0.28694500E-03 0.54881681E+02</pdfrwt>
<totfact> 0.74276061E+05</totfact>
</mgrwt>
</event>
<event>
 4    1  0.2196664E-002  0.4721725E+02  0.7818608E-02  0.1460956E+00
         -2   -1    0    0  501    0 -0.00000000000E+00  0.00000000000E+00  0.41441163412E+00  0.41441947951E+00  0.25500000000E-02 0. -1.
          2   -1    0    0    0  501  0.00000000000E+00 -0.00000000000E+00 -0.13449473992E+04  0.13449473992E+04  0.25500000000E-02 0. -1.
          2    1    1    2    0  502  0.72001840210E+01  0.21341912323E+02 -0.47069526729E+03  0.47123386394E+03  0.25500000000E-02 0. -1.
         -2    1    1    2  502    0 -0.72001840210E+01 -0.21341912323E+02 -0.87383772023E+03  0.87412795469E+03  0.25500000000E-02 0. -1.
<mgrwt>
<rscale>  0 0.47217248E+02</rscale>
<asrwt>0</asrwt>
<pdfrwt beam="2">  1        2 0.20691149E+00 0.47217248E+02</pdfrwt>
<pdfrwt beam="1">  1       -2 0.63757316E-04 0.47217248E+02</pdfrwt>
<totfact> 0.13028232E+06</totfact>
</mgrwt>
</event>
<event>
 4    1  0.2196664E-002  0.1008358E+03  0.7818608E-02  0.1278548E+00
         -2   -1    0    0  501    0 -0.00000000000E+00  0.00000000000E+00  0.15467746972E+03  0.15467746974E+03  0.25500000000E-02 0.  1.
          2   -1    0    0    0  501  0.00000000000E+00 -0.00000000000E+00 -0.16433952719E+02  0.16433952916E+02  0.25500000000E-02 0.  1.
          2    1    1    2    0  502 -0.26765603687E+02 -0.82848218624E+01 -0.20063477265E+01  0.28090234099E+02  0.25500000000E-02 0. -1.
         -2    1    1    2  502    0  0.26765603687E+02  0.82848218624E+01  0.14024986472E+03  0.14302118855E+03  0.25500000000E-02 0. -1.
<mgrwt>
<rscale>  0 0.10083575E+03</rscale>
<asrwt>0</asrwt>
<pdfrwt beam="2">  1        2 0.25283005E-02 0.10083575E+03</pdfrwt>
<pdfrwt beam="1">  1       -2 0.23796534E-01 0.10083575E+03</pdfrwt>
<totfact> 0.53502900E+04</totfact>
</mgrwt>
</event>
<event>
 4    1  0.2196664E-002  0.4929532E+02  0.7818608E-02  0.1449180E+00
          2   -1    0    0    0  501  0.00000000000E+00  0.00000000000E+00  0.97281868563E+01  0.97281871905E+01  0.25500000000E-02 0. -1.
         -2   -1    0    0  501    0 -0.00000000000E+00 -0.00000000000E+00 -0.62448129305E+02  0.62448129357E+02  0.25500000000E-02 0. -1.
          2    1    1    2    0  502 -0.13258499004E+02 -0.16254350193E+02 -0.74096580540E+01  0.22246229681E+02  0.25500000000E-02 0. -1.
         -2    1    1    2  502    0  0.13258499004E+02  0.16254350193E+02 -0.45310284395E+02  0.49930086866E+02  0.25500000000E-02 0. -1.
<mgrwt>
<rscale>  0 0.49295318E+02</rscale>
<asrwt>0</asrwt>
<pdfrwt beam="1">  1        2 0.14966442E-02 0.49295318E+02</pdfrwt>
<pdfrwt beam="2">  1       -2 0.96074043E-02 0.49295318E+02</pdfrwt>
<totfact> 0.40508334E+05</totfact>
</mgrwt>
</event>
<event>
 4    1  0.2196664E-002  0.4159085E+02  0.7818608E-02  0.1496820E+00
          2   -1    0    0    0  501  0.00000000000E+00  0.00000000000E+00  0.12196371208E+03  0.12196371211E+03  0.25500000000E-02 0.  1.
         -2   -1    0    0  501    0 -0.00000000000E+00 -0.00000000000E+00 -0.35457235629E+01  0.35457244798E+01  0.25500000000E-02 0.  1.
          2    1    1    2    0  502  0.18365138652E+02 -0.80761333974E+01  0.42694767252E+02  0.47173566810E+02  0.25500000000E-02 0.  1.
         -2    1    1    2  502    0 -0.18365138652E+02  0.80761333974E+01  0.75723221264E+02  0.78335869776E+02  0.25500000000E-02 0.  1.
<mgrwt>
<rscale>  0 0.41590848E+02</rscale>
<asrwt>0</asrwt>
<pdfrwt beam="1">  1        2 0.18763646E-01 0.41590848E+02</pdfrwt>
<pdfrwt beam="2">  1       -2 0.54549606E-03 0.41590848E+02</pdfrwt>
<totfact> 0.10001037E+06</totfact>
</mgrwt>
</event>
<event>
 4    1  0.2196664E-002  0.6898069E+02  0.7818608E-02  0.1363594E+00
          2   -1    0    0    0  501  0.00000000000E+00  0.00000000000E+00  0.13107719358E+04  0.13107719358E+04  0.25500000000E-02 0. -1.
         -2   -1    0    0  501    0 -0.00000000000E+00 -0.00000000000E+00 -0.90754263450E+00  0.90754621696E+00  0.25500000000E-02 0. -1.
          2    1    1    2    0  502 -0.20910774181E+02 -0.24890631901E+02  0.43582022793E+03  0.43703097729E+03  0.25500000000E-02 0. -1.
         -2    1    1    2  502    0  0.20910774181E+02  0.24890631901E+02  0.87404416520E+03  0.87464850469E+03  0.25500000000E-02 0. -1.
<mgrwt>
<rscale>  0 0.68980686E+02</rscale>
<asrwt>0</asrwt>
<pdfrwt beam="1">  1        2 0.20165776E+00 0.68980686E+02</pdfrwt>
<pdfrwt beam="2">  1       -2 0.13962185E-03 0.68980686E+02</pdfrwt>
<totfact> 0.50616453E+05</totfact>
</mgrwt>
</event>
<event>
 4    1  0.2196664E-002  0.4388446E+02  0.7818608E-02  0.1481428E+00
          2   -1    0    0    0  501  0.00000000000E+00  0.00000000000E+00  0.34211300874E+03  0.34211300875E+03  0.25500000000E-02 0.  1.
         -2   -1    0    0  501    0 -0.00000000000E+00 -0.00000000000E+00 -0.14073157000E+01  0.14073180103E+01  0.25500000000E-02 0.  1.
          2    1    1    2    0  502  0.21681037408E+02 -0.21986979943E+01  0.15030419527E+03  0.15187578075E+03  0.25500000000E-02 0. -1.
         -2    1    1    2  502    0 -0.21681037408E+02  0.21986979943E+01  0.19040149777E+03  0.19164454601E+03  0.25500000000E-02 0. -1.
<mgrwt>
<rscale>  0 0.43884458E+02</rscale>
<asrwt>0</asrwt>
<pdfrwt beam="1">  1        2 0.52632711E-01 0.43884458E+02</pdfrwt>
<pdfrwt beam="2">  1       -2 0.21651053E-03 0.43884458E+02</pdfrwt>
<totfact> 0.12213860E+06</totfact>
</mgrwt>
</event>
<event>
 4    1  0.2196664E-002  0.6528089E+02  0.7818608E-02  0.1376918E+00
         -2   -1    0    0  501    0 -0.00000000000E+00  0.00000000000E+00  0.10961341707E+01  0.10961371368E+01  0.25500000000E-02 0.  1.
          2   -1    0    0    0  501  0.00000000000E+00 -0.00000000000E+00 -0.97195868925E+03  0.97195868925E+03  0.25500000000E-02 0.  1.
          2    1    1    2    0  502  0.18048802545E+02 -0.18774393838E+02 -0.19214124517E+03  0.19389815688E+03  0.25500000000E-02 0. -1.
         -2    1    1    2  502    0 -0.18048802545E+02  0.18774393838E+02 -0.77872130991E+03  0.77915666951E+03  0.25500000000E-02 0. -1.
<mgrwt>
<rscale>  0 0.65280888E+02</rscale>
<asrwt>0</asrwt>
<pdfrwt beam="2">  1        2 0.14953142E+00 0.65280888E+02</pdfrwt>
<pdfrwt beam="1">  1       -2 0.16863703E-03 0.65280888E+02</pdfrwt>
<totfact> 0.59274804E+05</totfact>
</mgrwt>
</event>
<event>
 4    1  0.2196664E-002  0.9543621E+02  0.7818608E-02  0.1290197E+00
          2   -1    0    0    0  501  0.00000000000E+00  0.00000000000E+00  0.22849217000E+03  0.22849217001E+03  0.25500000000E-02 0.  1.
         -2   -1    0    0  501    0 -0.00000000000E+00 -0.00000000000E+00 -0.99654072066E+01  0.99654075328E+01  0.25500000000E-02 0.  1.
          2    1    1    2    0  502 -0.36451349083E+02 -0.30622416750E+02  0.11739222731E+03  0.12667820766E+03  0.25500000000E-02 0.  1.
         -2    1    1    2  502    0  0.36451349083E+02  0.30622416750E+02  0.10113453548E+03  0.11177936988E+03  0.25500000000E-02 0.  1.
<mgrwt>
<rscale>  0 0.95436210E+02</rscale>
<asrwt>0</asrwt>
<pdfrwt beam="1">  1        2 0.35152643E-01 0.95436210E+02</pdfrwt>
<pdfrwt beam="2">  1       -2 0.15331395E-02 0.95436210E+02</pdfrwt>
<totfact> 0.14359669E+05</totfact>
</mgrwt>
</event>
<event>
 4    1  0.2196664E-002  0.7114216E+02  0.7818608E-02  0.1356252E+00
         -2   -1    0    0  501    0 -0.00000000000E+00  0.00000000000E+00  0.53122696311E+03  0.53122696312E+03  0.25500000000E-02 0. -1.
          2   -1    0    0    0  501  0.00000000000E+00 -0.00000000000E+00 -0.23818473296E+01  0.23818486946E+01  0.25500000000E-02 0. -1.
          2    1    1    2    0  502 -0.55939159511E+01  0.30254775885E+02  0.39831580946E+03  0.39950234972E+03  0.25500000000E-02 0. -1.
         -2    1    1    2  502    0  0.55939159511E+01 -0.30254775885E+02  0.13052930632E+03  0.13410646209E+03  0.25500000000E-02 0. -1.
<mgrwt>
<rscale>  0 0.71142164E+02</rscale>
<asrwt>0</asrwt>
<pdfrwt beam="2">  1        2 0.36643828E-03 0.71142164E+02</pdfrwt>
<pdfrwt beam="1">  1       -2 0.81727198E-01 0.71142164E+02</pdfrwt>
<totfact> 0.65432782E+04</totfact>
</mgrwt>
</event>
<event>
 4    1  0.2196664E-002  0.4166294E+02  0.7818608E-02  0.1496319E+00
         -2   -1    0    0  501    0 -0.00000000000E+00  0.00000000000E+00  0.29112137240E+00  0.29113254021E+00  0.25500000000E-02 0.  1.
          2   -1    0    0    0  501  0.00000000000E+00 -0.00000000000E+00 -0.14905875968E+04  0.14905875968E+04  0.25500000000E-02 0.  1.
          2    1    1    2    0  502 -0.19964803167E+02 -0.30801073783E+01 -0.56314090091E+03  0.56350310976E+03  0.25500000000E-02 0.  1.
         -2    1    1    2  502    0  0.19964803167E+02  0.30801073783E+01 -0.92715557456E+03  0.92737561962E+03  0.25500000000E-02 0.  1.
<mgrwt>
<rscale>  0 0.41662944E+02</rscale>
<asrwt>0</asrwt>
<pdfrwt beam="2">  1        2 0.22931506E+00 0.41662944E+02</pdfrwt>
<pdfrwt beam="1">  1       -2 0.44789956E-04 0.41662944E+02</pdfrwt>
<totfact> 0.17185495E+06</totfact>
</mgrwt>
</event>
<event>
 4    1  0.2196664E-002  0.4281989E+02  0.7818608E-02  0.1488429E+00
         -2   -1    0    0  501    0 -0.00000000000E+00  0.00000000000E+00  0.85283367095E+00  0.85283748324E+00  0.25500000000E-02 0. -1.
          2   -1    0    0    0  501  0.00000000000E+00 -0.00000000000E+00 -0.53748438906E+03  0.53748438906E+03  0.25500000000E-02 0. -1.
          2    1    1    2    0  502 -0.18056686035E+01  0.20367477977E+02 -0.18851374095E+03  0.18961942182E+03  0.25500000000E-02 0.  1.
         -2    1    1    2  502    0  0.18056686035E+01 -0.20367477977E+02 -0.34811781444E+03  0.34871780473E+03  0.25500000000E-02 0.  1.
<mgrwt>
<rscale>  0 0.42819893E+02</rscale>
<asrwt>0</asrwt>
<pdfrwt beam="2">  1        2 0.82689636E-01 0.42819893E+02</pdfrwt>
<pdfrwt beam="1">  1       -2 0.13120590E-03 0.42819893E+02</pdfrwt>
<totfact> 0.15006429E+06</totfact>
</mgrwt>
</event>
<event>
 4    1  0.2196664E-002  0.5476299E+02  0.7818608E-02  0.1421223E+00
          2   -1    0    0    0  501  0.00000000000E+00  0.00000000000E+00  0.19784934369E+02  0.19784934533E+02  0.25500000000E-02 0. -1.
         -2   -1    0    0  501    0 -0.00000000000E+00 -0.00000000000E+00 -0.37894804630E+02  0.37894804715E+02  0.25500000000E-02 0. -1.
          2    1    1    2    0  502 -0.29222720033E+01  0.24357353495E+02  0.37553332573E+01  0.24817793562E+02  0.25500000000E-02 0.  1.
         -2    1    1    2  502    0  0.29222720033E+01 -0.24357353495E+02 -0.21865203518E+02  0.32861945686E+02  0.25500000000E-02 0.  1.
<mgrwt>
<rscale>  0 0.54762989E+02</rscale>
<asrwt>0</asrwt>
<pdfrwt beam="1">  1        2 0.30438361E-02 0.54762989E+02</pdfrwt>
<pdfrwt beam="2">  1       -2 0.58299700E-02 0.54762989E+02</pdfrwt>
<totfact> 0.34400433E+05</totfact>
</mgrwt>
</event>
<event>
 4    1  0.2196664E-002  0.7157798E+02  0.7818608E-02  0.1354808E+00
          2   -1    0    0    0  501  0.00000000000E+00  0.00000000000E+00  0.13762759805E+04  0.13762759805E+04  0.25500000000E-02 0. -1.
         -2   -1    0    0  501    0 -0.00000000000E+00 -0.00000000000E+00 -0.93066321235E+00  0.93066670582E+00  0.25500000000E-02 0. -1.
          2    1    1    2    0  502  0.64569448404E+01  0.25966466515E+02  0.23036724639E+03  0.23191597128E+03  0.25500000000E-02 0. -1.
         -2    1    1    2  502    0 -0.64569448404E+01 -0.25966466515E+02  0.11449780709E+04  0.11452906760E+04  0.25500000000E-02 0. -1.
<mgrwt>
<rscale>  0 0.71577981E+02</rscale>
<asrwt>0</asrwt>
<pdfrwt beam="1">  1        2 0.21173420E+00 0.71577981E+02</pdfrwt>
<pdfrwt beam="2">  1       -2 0.14317961E-03 0.71577981E+02</pdfrwt>
<totfact> 0.45526906E+05</totfact>
</mgrwt>
</event>
<event>
 4    1  0.2196664E-002  0.7214017E+02  0.7818608E-02  0.1352963E+00
          2   -1    0    0    0  501  0.00000000000E+00  0.00000000000E+00  0.11483649673E+02  0.11483649956E+02  0.25500000000E-02 0.  1.
         -2   -1    0    0  501    0 -0.00000000000E+00 -0.00000000000E+00 -0.11329595462E+03  0.11329595465E+03  0.25500000000E-02 0.  1.
          2    1    1    2    0  502 -0.27881699339E+02 -0.19979265801E+02 -0.31607137419E+02  0.46643020510E+02  0.25500000000E-02 0. -1.
         -2    1    1    2  502    0  0.27881699339E+02  0.19979265801E+02 -0.70205167528E+02  0.78136584096E+02  0.25500000000E-02 0. -1.
<mgrwt>
<rscale>  0 0.72140171E+02</rscale>
<asrwt>0</asrwt>
<pdfrwt beam="1">  1        2 0.17667154E-02 0.72140171E+02</pdfrwt>
<pdfrwt beam="2">  1       -2 0.17430146E-01 0.72140171E+02</pdfrwt>
<totfact> 0.13796499E+05</totfact>
</mgrwt>
</event>
<event>
 4    1  0.2196664E-002  0.1032765E+03  0.7818608E-02  0.1273553E+00
          2   -1    0    0    0  501  0.00000000000E+00  0.00000000000E+00  0.72136581849E+02  0.72136581894E+02  0.25500000000E-02 0.  1.
         -2   -1    0    0  501    0 -0.00000000000E+00 -0.00000000000E+00 -0.36964697608E+02  0.36964697696E+02  0.25500000000E-02 0.  1.
          2    1    1    2    0  502 -0.85852664645E+01  0.36179054785E+02 -0.20266164215E+02  0.42347942381E+02  0.25500000000E-02 0.  1.
         -2    1    1    2  502    0  0.85852664645E+01 -0.36179054785E+02  0.55438048456E+02  0.66753337209E+02  0.25500000000E-02 0.  1.
<mgrwt>
<rscale>  0 0.10327646E+03</rscale>
<asrwt>0</asrwt>
<pdfrwt beam="1">  1        2 0.11097936E-01 0.10327646E+03</pdfrwt>
<pdfrwt beam="2">  1       -2 0.56868765E-02 0.10327646E+03</pdfrwt>
<totfact> 0.78446711E+04</totfact>
</mgrwt>
</event>
<event>
 4    1  0.2196664E-002  0.1034887E+03  0.7818608E-02  0.1273126E+00
         -2   -1    0    0  501    0 -0.00000000000E+00  0.00000000000E+00  0.12766232042E+02  0.12766232296E+02  0.25500000000E-02 0. -1.
          2   -1    0    0    0  501  0.00000000000E+00 -0.00000000000E+00 -0.20973140428E+03  0.20973140429E+03  0.25500000000E-02 0. -1.
          2    1    1    2    0  502 -0.27131533703E+02  0.35304198509E+02 -0.15516082496E+03  0.16142301002E+03  0.25500000000E-02 0.  1.
         -2    1    1    2  502    0  0.27131533703E+02 -0.35304198509E+02 -0.41804347272E+02  0.61074626571E+02  0.25500000000E-02 0.  1.
<mgrwt>
<rscale>  0 0.10348874E+03</rscale>
<asrwt>0</asrwt>
<pdfrwt beam="2">  1        2 0.32266367E-01 0.10348874E+03</pdfrwt>
<pdfrwt beam="1">  1       -2 0.19640359E-02 0.10348874E+03</pdfrwt>
<totfact> 0.11163399E+05</totfact>
</mgrwt>
</event>
<event>
 4    1  0.2196664E-002  0.4021845E+02  0.7818608E-02  0.1506610E+00
          2   -1    0    0    0  501  0.00000000000E+00  0.00000000000E+00  0.13309605098E+04  0.13309605098E+04  0.25500000000E-02 0.  1.
         -2   -1    0    0  501    0 -0.00000000000E+00 -0.00000000000E+00 -0.30382097937E+00  0.30383168038E+00  0.25500000000E-02 0.  1.
          2    1    1    2    0  502 -0.19179134920E+02  0.57709229947E+01  0.72489215516E+03  0.72516879372E+03  0.25500000000E-02 0. -1.
         -2    1    1    2  502    0  0.19179134920E+02 -0.57709229947E+01  0.60576453366E+03  0.60609554776E+03  0.25500000000E-02 0. -1.
<mgrwt>
<rscale>  0 0.40218446E+02</rscale>
<asrwt>0</asrwt>
<pdfrwt beam="1">  1        2 0.20476123E+00 0.40218446E+02</pdfrwt>
<pdfrwt beam="2">  1       -2 0.46742953E-04 0.40218446E+02</pdfrwt>
<totfact> 0.19304264E+06</totfact>
</mgrwt>
</event>
<event>
 4    1  0.2196664E-002  0.4860621E+02  0.7818608E-02  0.1453008E+00
         -2   -1    0    0  501    0 -0.00000000000E+00  0.00000000000E+00  0.77300295967E+00  0.77300716566E+00  0.25500000000E-02 0.  1.
          2   -1    0    0    0  501  0.00000000000E+00 -0.00000000000E+00 -0.76408402820E+03  0.76408402821E+03  0.25500000000E-02 0.  1.
          2    1    1    2    0  502 -0.13555086744E+02  0.19845118737E+02 -0.43854796446E+03  0.43920597247E+03  0.25500000000E-02 0. -1.
         -2    1    1    2  502    0  0.13555086744E+02 -0.19845118737E+02 -0.32476306079E+03  0.32565106291E+03  0.25500000000E-02 0. -1.
<mgrwt>
<rscale>  0 0.48606206E+02</rscale>
<asrwt>0</asrwt>
<pdfrwt beam="2">  1        2 0.11755079E+00 0.48606206E+02</pdfrwt>
<pdfrwt beam="1">  1       -2 0.11892447E-03 0.48606206E+02</pdfrwt>
<totfact> 0.12012650E+06</totfact>
</mgrwt>
</event>
<event>
 4    1  0.2196664E-002  0.5435952E+02  0.7818608E-02  0.1423152E+00
          2   -1    0    0    0  501  0.00000000000E+00  0.00000000000E+00  0.14158601959E+04  0.14158601959E+04  0.25500000000E-02 0.  1.
         -2   -1    0    0  501    0 -0.00000000000E+00 -0.00000000000E+00 -0.52175701949E+00  0.52176325080E+00  0.25500000000E-02 0.  1.
          2    1    1    2    0  502 -0.40542149176E+01 -0.25951352871E+02  0.52559508676E+03  0.52625099012E+03  0.25500000000E-02 0. -1.
         -2    1    1    2  502    0  0.40542149176E+01  0.25951352871E+02  0.88974335216E+03  0.89013096907E+03  0.25500000000E-02 0. -1.
<mgrwt>
<rscale>  0 0.54359522E+02</rscale>
<asrwt>0</asrwt>
<pdfrwt beam="1">  1        2 0.21782463E+00 0.54359522E+02</pdfrwt>
<pdfrwt beam="2">  1       -2 0.80270796E-04 0.54359522E+02</pdfrwt>
<totfact> 0.90707041E+05</totfact>
</mgrwt>
</event>
<event>
 4    1  0.2196664E-002  0.4177132E+02  0.7818608E-02  0.1495567E+00
         -2   -1    0    0  501    0 -0.00000000000E+00  0.00000000000E+00  0.11369089445E+01  0.11369118042E+01  0.25500000000E-02 0.  1.
          2   -1    0    0    0  501  0.00000000000E+00 -0.00000000000E+00 -0.38368082350E+03  0.38368082351E+03  0.25500000000E-02 0.  1.
          2    1    1    2    0  502  0.16644758739E+02  0.12153737747E+02 -0.22244417705E+03  0.22339689623E+03  0.25500000000E-02 0. -1.
         -2    1    1    2  502    0 -0.16644758739E+02 -0.12153737747E+02 -0.16009973750E+03  0.16142083908E+03  0.25500000000E-02 0. -1.
<mgrwt>
<rscale>  0 0.41771316E+02</rscale>
<asrwt>0</asrwt>
<pdfrwt beam="2">  1        2 0.59027716E-01 0.41771316E+02</pdfrwt>
<pdfrwt beam="1">  1       -2 0.17490960E-03 0.41771316E+02</pdfrwt>
<totfact> 0.14318769E+06</totfact>
</mgrwt>
</event>
<event>
 4    1  0.2196664E-002  0.9496365E+02  0.7818608E-02  0.1291258E+00
          2   -1    0    0    0  501  0.00000000000E+00  0.00000000000E+00  0.20460567256E+04  0.20460567256E+04  0.25500000000E-02 0. -1.
         -2   -1    0    0  501    0 -0.00000000000E+00 -0.00000000000E+00 -0.11018857018E+01  0.11018886525E+01  0.25500000000E-02 0. -1.
          2    1    1    2    0  502 -0.11547997659E+02  0.34471807087E+02  0.36405777053E+03  0.36586844907E+03  0.25500000000E-02 0. -1.
         -2    1    1    2  502    0  0.11547997659E+02 -0.34471807087E+02  0.16808970694E+04  0.16812901652E+04  0.25500000000E-02 0. -1.
<mgrwt>
<rscale>  0 0.94963649E+02</rscale>
<asrwt>0</asrwt>
<pdfrwt beam="1">  1        2 0.31477158E+00 0.94963649E+02</pdfrwt>
<pdfrwt beam="2">  1       -2 0.16952454E-03 0.94963649E+02</pdfrwt>
<totfact> 0.17287962E+05</totfact>
</mgrwt>
</event>
<event>
 4    1  0.2196664E-002  0.5178786E+02  0.7818608E-02  0.1435930E+00
          2   -1    0    0    0  501  0.00000000000E+00  0.00000000000E+00  0.11842552699E+03  0.11842552702E+03  0.25500000000E-02 0. -1.
         -2   -1    0    0  501    0 -0.00000000000E+00 -0.00000000000E+00 -0.56617489840E+01  0.56617495582E+01  0.25500000000E-02 0. -1.
          2    1    1    2    0  502  0.91677696231E+01  0.23524244218E+02  0.42605520426E+02  0.49524422694E+02  0.25500000000E-02 0. -1.
         -2    1    1    2  502    0 -0.91677696231E+01 -0.23524244218E+02  0.70158257581E+02  0.74562853883E+02  0.25500000000E-02 0. -1.
<mgrwt>
<rscale>  0 0.51787861E+02</rscale>
<asrwt>0</asrwt>
<pdfrwt beam="1">  1        2 0.18219312E-01 0.51787861E+02</pdfrwt>
<pdfrwt beam="2">  1       -2 0.87103835E-03 0.51787861E+02</pdfrwt>
<totfact> 0.57340337E+05</totfact>
</mgrwt>
</event>
<event>
 4    1  0.2196664E-002  0.5045262E+02  0.7818608E-02  0.1442915E+00
         -2   -1    0    0  501    0 -0.00000000000E+00  0.00000000000E+00  0.62120793389E+00  0.62121316762E+00  0.25500000000E-02 0. -1.
          2   -1    0    0    0  501  0.00000000000E+00 -0.00000000000E+00 -0.10243979221E+04  0.10243979221E+04  0.25500000000E-02 0. -1.
          2    1    1    2    0  502 -0.57756234083E+01 -0.22830446130E+02 -0.32816220855E+03  0.32900611275E+03  0.25500000000E-02 0. -1.
         -2    1    1    2  502    0  0.57756234083E+01  0.22830446130E+02 -0.69561450558E+03  0.69601302249E+03  0.25500000000E-02 0. -1.
<mgrwt>
<rscale>  0 0.50452623E+02</rscale>
<asrwt>0</asrwt>
<pdfrwt beam="2">  1        2 0.15759833E+00 0.50452623E+02</pdfrwt>
<pdfrwt beam="1">  1       -2 0.95571674E-04 0.50452623E+02</pdfrwt>
<totfact> 0.11332477E+06</totfact>
</mgrwt>
</event>
<event>
 4    1  0.2196664E-002  0.6129086E+02  0.7818608E-02  0.1392493E+00
         -2   -1    0    0  501    0 -0.00000000000E+00  0.00000000000E+00  0.11987221247E+02  0.11987221518E+02  0.25500000000E-02 0.  1.
          2   -1    0    0    0  501  0.00000000000E+00 -0.00000000000E+00 -0.78345281345E+02  0.78345281386E+02  0.25500000000E-02 0.  1.
          2    1    1    2    0  502  0.19125879334E+02  0.14206600410E+02 -0.61586778598E+02  0.66034521730E+02  0.25500000000E-02 0.  1.
         -2    1    1    2  502    0 -0.19125879334E+02 -0.14206600410E+02 -0.47712814994E+01  0.24297981174E+02  0.25500000000E-02 0.  1.
<mgrwt>
<rscale>  0 0.61290855E+02</rscale>
<asrwt>0</asrwt>
<pdfrwt beam="2">  1        2 0.12053120E-01 0.61290855E+02</pdfrwt>
<pdfrwt beam="1">  1       -2 0.18441880E-02 0.61290855E+02</pdfrwt>
<totfact> 0.33330789E+05</totfact>
</mgrwt>
</event>
<event>
 4    1  0.2196664E-002  0.6279755E+02  0.7818608E-02  0.1386453E+00
          2   -1    0    0    0  501  0.00000000000E+00  0.00000000000E+00  0.76148355798E+02  0.76148355840E+02  0.25500000000E-02 0.  1.
         -2   -1    0    0  501    0 -0.00000000000E+00 -0.00000000000E+00 -0.12946870746E+02  0.12946870997E+02  0.25500000000E-02 0.  1.
          2    1    1    2    0  502 -0.12590865053E+02  0.23399849562E+02  0.55332816232E+02  0.61382435606E+02  0.25500000000E-02 0.  1.
         -2    1    1    2  502    0  0.12590865053E+02 -0.23399849562E+02  0.78686688199E+01  0.27712791231E+02  0.25500000000E-02 0.  1.
<mgrwt>
<rscale>  0 0.62797546E+02</rscale>
<asrwt>0</asrwt>
<pdfrwt beam="1">  1        2 0.11715132E-01 0.62797546E+02</pdfrwt>
<pdfrwt beam="2">  1       -2 0.19918263E-02 0.62797546E+02</pdfrwt>
<totfact> 0.31056847E+05</totfact>
</mgrwt>
</event>
<event>
 4    1  0.2196664E-002  0.2058904E+03  0.7818608E-02  0.1144862E+00
          2   -1    0    0    0  501  0.00000000000E+00  0.00000000000E+00  0.22980363075E+03  0.22980363077E+03  0.25500000000E-02 0. -1.
         -2   -1    0    0  501    0 -0.00000000000E+00 -0.00000000000E+00 -0.46116375499E+02  0.46116375569E+02  0.25500000000E-02 0. -1.
          2    1    1    2    0  502  0.87749802748E+02  0.52616152553E+02  0.10707774560E+03  0.14810175894E+03  0.25500000000E-02 0.  1.
         -2    1    1    2  502    0 -0.87749802748E+02 -0.52616152553E+02  0.76609509656E+02  0.12781824740E+03  0.25500000000E-02 0.  1.
<mgrwt>
<rscale>  0 0.20589036E+03</rscale>
<asrwt>0</asrwt>
<pdfrwt beam="1">  1        2 0.35354405E-01 0.20589036E+03</pdfrwt>
<pdfrwt beam="2">  1       -2 0.70948270E-02 0.20589036E+03</pdfrwt>
<totfact> 0.16173689E+04</totfact>
</mgrwt>
</event>
<event>
 4    1  0.2196664E-002  0.4164496E+02  0.7818608E-02  0.1496444E+00
         -2   -1    0    0  501    0 -0.00000000000E+00  0.00000000000E+00  0.33645096650E+00  0.33646062973E+00  0.25500000000E-02 0. -1.
          2   -1    0    0    0  501  0.00000000000E+00 -0.00000000000E+00 -0.12886558855E+04  0.12886558855E+04  0.25500000000E-02 0. -1.
          2    1    1    2    0  502  0.12738709344E+02  0.16251207403E+02 -0.72720834996E+03  0.72750145066E+03  0.25500000000E-02 0.  1.
         -2    1    1    2  502    0 -0.12738709344E+02 -0.16251207403E+02 -0.56111108454E+03  0.56149089544E+03  0.25500000000E-02 0.  1.
<mgrwt>
<rscale>  0 0.41644964E+02</rscale>
<asrwt>0</asrwt>
<pdfrwt beam="2">  1        2 0.19825080E+00 0.41644964E+02</pdfrwt>
<pdfrwt beam="1">  1       -2 0.51763462E-04 0.41644964E+02</pdfrwt>
<totfact> 0.17848267E+06</totfact>
</mgrwt>
</event>
<event>
 4    1  0.2196664E-002  0.6611539E+02  0.7818608E-02  0.1373824E+00
         -2   -1    0    0  501    0 -0.00000000000E+00  0.00000000000E+00  0.87889674964E+02  0.87889675001E+02  0.25500000000E-02 0.  1.
          2   -1    0    0    0  501  0.00000000000E+00 -0.00000000000E+00 -0.12433898760E+02  0.12433899021E+02  0.25500000000E-02 0.  1.
          2    1    1    2    0  502  0.26252180972E+02  0.18508202653E+01  0.68083830105E+02  0.72993222081E+02  0.25500000000E-02 0.  1.
         -2    1    1    2  502    0 -0.26252180972E+02 -0.18508202653E+01  0.73719460991E+01  0.27330351942E+02  0.25500000000E-02 0.  1.
<mgrwt>
<rscale>  0 0.66115394E+02</rscale>
<asrwt>0</asrwt>
<pdfrwt beam="2">  1        2 0.19129076E-02 0.66115394E+02</pdfrwt>
<pdfrwt beam="1">  1       -2 0.13521488E-01 0.66115394E+02</pdfrwt>
<totfact> 0.18349448E+05</totfact>
</mgrwt>
</event>
<event>
 4    1  0.2196664E-002  0.4837495E+02  0.7818608E-02  0.1454309E+00
          2   -1    0    0    0  501  0.00000000000E+00  0.00000000000E+00  0.66939694357E+03  0.66939694358E+03  0.25500000000E-02 0.  1.
         -2   -1    0    0  501    0 -0.00000000000E+00 -0.00000000000E+00 -0.87396983160E+00  0.87397355168E+00  0.25500000000E-02 0.  1.
          2    1    1    2    0  502 -0.11055923156E+02  0.18420075396E+02  0.48824198002E+03  0.48871439888E+03  0.25500000000E-02 0. -1.
         -2    1    1    2  502    0  0.11055923156E+02 -0.18420075396E+02  0.18028099372E+03  0.18155651825E+03  0.25500000000E-02 0. -1.
<mgrwt>
<rscale>  0 0.48374951E+02</rscale>
<asrwt>0</asrwt>
<pdfrwt beam="1">  1        2 0.10298440E+00 0.48374951E+02</pdfrwt>
<pdfrwt beam="2">  1       -2 0.13445685E-03 0.48374951E+02</pdfrwt>
<totfact> 0.11814715E+06</totfact>
</mgrwt>
</event>
<event>
 4    1  0.2196664E-002  0.8957414E+02  0.7818608E-02  0.1303886E+00
         -2   -1    0    0  501    0 -0.00000000000E+00  0.00000000000E+00  0.27689077675E+02  0.27689077793E+02  0.25500000000E-02 0. -1.
          2   -1    0    0    0  501  0.00000000000E+00 -0.00000000000E+00 -0.72443057674E+02  0.72443057718E+02  0.25500000000E-02 0. -1.
          2    1    1    2    0  502 -0.38120848317E+02 -0.14281898826E+02 -0.43251817293E+02  0.59396055560E+02  0.25500000000E-02 0. -1.
         -2    1    1    2  502    0  0.38120848317E+02  0.14281898826E+02 -0.15021627050E+01  0.40736079951E+02  0.25500000000E-02 0. -1.
<mgrwt>
<rscale>  0 0.89574136E+02</rscale>
<asrwt>0</asrwt>
<pdfrwt beam="2">  1        2 0.11145086E-01 0.89574136E+02</pdfrwt>
<pdfrwt beam="1">  1       -2 0.42598581E-02 0.89574136E+02</pdfrwt>
<totfact> 0.11733773E+05</totfact>
</mgrwt>
</event>
<event>
 4    1  0.2196664E-002  0.9187015E+02  0.7818608E-02  0.1298385E+00
         -2   -1    0    0  501    0 -0.00000000000E+00  0.00000000000E+00  0.74436909839E+01  0.74436914207E+01  0.25500000000E-02 0.  1.
          2   -1    0    0    0  501  0.00000000000E+00 -0.00000000000E+00 -0.28346572562E+03  0.28346572563E+03  0.25500000000E-02 0.  1.
          2    1    1    2    0  502 -0.16302991687E+02 -0.24138731694E+02 -0.25048141230E+03  0.25216939509E+03  0.25500000000E-02 0. -1.
         -2    1    1    2  502    0  0.16302991687E+02  0.24138731694E+02 -0.25540622333E+02  0.38740021959E+02  0.25500000000E-02 0. -1.
<mgrwt>
<rscale>  0 0.91870155E+02</rscale>
<asrwt>0</asrwt>
<pdfrwt beam="2">  1        2 0.43610103E-01 0.91870155E+02</pdfrwt>
<pdfrwt beam="1">  1       -2 0.11451835E-02 0.91870155E+02</pdfrwt>
<totfact> 0.17237535E+05</totfact>
</mgrwt>
</event>
<event>
 4    1  0.2196664E-002  0.5068329E+02  0.7818608E-02  0.1441691E+00
          2   -1    0    0    0  501  0.00000000000E+00  0.00000000000E+00  0.37812772392E+02  0.37812772478E+02  0.25500000000E-02 0.  1.
         -2   -1    0    0  501    0 -0.00000000000E+00 -0.00000000000E+00 -0.16983655163E+02  0.16983655354E+02  0.25500000000E-02 0.  1.
          2    1    1    2    0  502  0.14983955227E+02 -0.16603916751E+02 -0.24684255961E+01  0.22501157684E+02  0.25500000000E-02 0.  1.
         -2    1    1    2  502    0 -0.14983955227E+02  0.16603916751E+02  0.23297542825E+02  0.32295270147E+02  0.25500000000E-02 0.  1.
<mgrwt>
<rscale>  0 0.50683295E+02</rscale>
<asrwt>0</asrwt>
<pdfrwt beam="1">  1        2 0.58173496E-02 0.50683295E+02</pdfrwt>
<pdfrwt beam="2">  1       -2 0.26128701E-02 0.50683295E+02</pdfrwt>
<totfact> 0.47092455E+05</totfact>
</mgrwt>
</event>
<event>
 4    1  0.2196664E-002  0.7940139E+02  0.7818608E-02  0.1330759E+00
         -2   -1    0    0  501    0 -0.00000000000E+00  0.00000000000E+00  0.10890393559E+01  0.10890423413E+01  0.25500000000E-02 0.  1.
          2   -1    0    0    0  501  0.00000000000E+00 -0.00000000000E+00 -0.14472784663E+04  0.14472784663E+04  0.25500000000E-02 0.  1.
          2    1    1    2    0  502  0.20323727156E+01  0.39251758394E+02 -0.62101911685E+03  0.62226166086E+03  0.25500000000E-02 0. -1.
         -2    1    1    2  502    0 -0.20323727156E+01 -0.39251758394E+02 -0.82517031009E+03  0.82610584778E+03  0.25500000000E-02 0. -1.
<mgrwt>
<rscale>  0 0.79401395E+02</rscale>
<asrwt>0</asrwt>
<pdfrwt beam="2">  1        2 0.22265669E+00 0.79401395E+02</pdfrwt>
<pdfrwt beam="1">  1       -2 0.16754590E-03 0.79401395E+02</pdfrwt>
<totfact> 0.34314890E+05</totfact>
</mgrwt>
</event>
<event>
 4    1  0.2196664E-002  0.9708483E+02  0.7818608E-02  0.1286548E+00
         -2   -1    0    0  501    0 -0.00000000000E+00  0.00000000000E+00  0.14064760929E+01  0.14064784045E+01  0.25500000000E-02 0.  1.
          2   -1    0    0    0  501  0.00000000000E+00 -0.00000000000E+00 -0.16753673552E+04  0.16753673552E+04  0.25500000000E-02 0.  1.
          2    1    1    2    0  502 -0.46352108027E+02  0.20344769677E+01 -0.59047399730E+03  0.59229401356E+03  0.25500000000E-02 0. -1.
         -2    1    1    2  502    0  0.46352108027E+02 -0.20344769677E+01 -0.10834868818E+04  0.10844798200E+04  0.25500000000E-02 0. -1.
<mgrwt>
<rscale>  0 0.97084830E+02</rscale>
<asrwt>0</asrwt>
<pdfrwt beam="2">  1        2 0.25774723E+00 0.97084830E+02</pdfrwt>
<pdfrwt beam="1">  1       -2 0.21638246E-03 0.97084830E+02</pdfrwt>
<totfact> 0.18985824E+05</totfact>
</mgrwt>
</event>
<event>
 4    1  0.2196664E-002  0.4705852E+02  0.7818608E-02  0.1461885E+00
          2   -1    0    0    0  501  0.00000000000E+00  0.00000000000E+00  0.42978259155E+03  0.42978259156E+03  0.25500000000E-02 0.  1.
         -2   -1    0    0  501    0 -0.00000000000E+00 -0.00000000000E+00 -0.12881527415E+01  0.12881552655E+01  0.25500000000E-02 0.  1.
          2    1    1    2    0  502 -0.14001974113E+02  0.18706376665E+02  0.23957072783E+03  0.24070753509E+03  0.25500000000E-02 0. -1.
         -2    1    1    2  502    0  0.14001974113E+02 -0.18706376665E+02  0.18892371097E+03  0.19036321173E+03  0.25500000000E-02 0. -1.
<mgrwt>
<rscale>  0 0.47058524E+02</rscale>
<asrwt>0</asrwt>
<pdfrwt beam="1">  1        2 0.66120307E-01 0.47058524E+02</pdfrwt>
<pdfrwt beam="2">  1       -2 0.19817782E-03 0.47058524E+02</pdfrwt>
<totfact> 0.11113902E+06</totfact>
</mgrwt>
</event>
<event>
 4    1  0.2196664E-002  0.4111854E+02  0.7818608E-02  0.1500138E+00
         -2   -1    0    0  501    0 -0.00000000000E+00  0.00000000000E+00  0.28390127472E+01  0.28390138924E+01  0.25500000000E-02 0.  1.
          2   -1    0    0    0  501  0.00000000000E+00 -0.00000000000E+00 -0.14888397080E+03  0.14888397083E+03  0.25500000000E-02 0.  1.
          2    1    1    2    0  502  0.13324988073E+02 -0.15650707230E+02 -0.71441287703E+02  0.74339474972E+02  0.25500000000E-02 0. -1.
         -2    1    1    2  502    0 -0.13324988073E+02  0.15650707230E+02 -0.74603670354E+02  0.77383509747E+02  0.25500000000E-02 0. -1.
<mgrwt>
<rscale>  0 0.41118540E+02</rscale>
<asrwt>0</asrwt>
<pdfrwt beam="2">  1        2 0.22905220E-01 0.41118540E+02</pdfrwt>
<pdfrwt beam="1">  1       -2 0.43677140E-03 0.41118540E+02</pdfrwt>
<totfact> 0.10890779E+06</totfact>
</mgrwt>
</event>
<event>
 4    1  0.2196664E-002  0.4794451E+02  0.7818608E-02  0.1456754E+00
         -2   -1    0    0  501    0 -0.00000000000E+00  0.00000000000E+00  0.30681515709E+00  0.30682575368E+00  0.25500000000E-02 0. -1.
          2   -1    0    0    0  501  0.00000000000E+00 -0.00000000000E+00 -0.18729817527E+04  0.18729817527E+04  0.25500000000E-02 0. -1.
          2    1    1    2    0  502 -0.22566846069E+02  0.16190248635E+01 -0.12459331144E+04  0.12461385193E+04  0.25500000000E-02 0. -1.
         -2    1    1    2  502    0  0.22566846069E+02 -0.16190248635E+01 -0.62674182315E+03  0.62715005913E+03  0.25500000000E-02 0. -1.
<mgrwt>
<rscale>  0 0.47944514E+02</rscale>
<asrwt>0</asrwt>
<pdfrwt beam="2">  1        2 0.28814188E+00 0.47944514E+02</pdfrwt>
<pdfrwt beam="1">  1       -2 0.47204647E-04 0.47944514E+02</pdfrwt>
<totfact> 0.10785349E+06</totfact>
</mgrwt>
</event>
<event>
 4    1  0.2196664E-002  0.8009283E+02  0.7818608E-02  0.1328788E+00
          2   -1    0    0    0  501  0.00000000000E+00  0.00000000000E+00  0.15852468451E+04  0.15852468451E+04  0.25500000000E-02 0.  1.
         -2   -1    0    0  501    0 -0.00000000000E+00 -0.00000000000E+00 -0.10116487242E+01  0.10116519381E+01  0.25500000000E-02 0.  1.
          2    1    1    2    0  502  0.16852437115E+02  0.11987216004E+02  0.14713012071E+04  0.14714465467E+04  0.25500000000E-02 0. -1.
         -2    1    1    2  502    0 -0.16852437115E+02 -0.11987216004E+02  0.11293398925E+03  0.11481195025E+03  0.25500000000E-02 0. -1.
<mgrwt>
<rscale>  0 0.80092834E+02</rscale>
<asrwt>0</asrwt>
<pdfrwt beam="1">  1        2 0.24388677E+00 0.80092834E+02</pdfrwt>
<pdfrwt beam="2">  1       -2 0.15563683E-03 0.80092834E+02</pdfrwt>
<totfact> 0.32376745E+05</totfact>
</mgrwt>
</event>
<event>
 4    1  0.2196664E-002  0.5609433E+02  0.7818608E-02  0.1414994E+00
         -2   -1    0    0  501    0 -0.00000000000E+00  0.00000000000E+00  0.30525812184E+01  0.30525822834E+01  0.25500000000E-02 0. -1.
          2   -1    0    0    0  501  0.00000000000E+00 -0.00000000000E+00 -0.25769770985E+03  0.25769770987E+03  0.25500000000E-02 0. -1.
          2    1    1    2    0  502 -0.10177653956E+02  0.22983606186E+02 -0.69485141953E+02  0.73891919396E+02  0.25500000000E-02 0. -1.
         -2    1    1    2  502    0  0.10177653956E+02 -0.22983606186E+02 -0.18515998668E+03  0.18685837275E+03  0.25500000000E-02 0. -1.
<mgrwt>
<rscale>  0 0.56094325E+02</rscale>
<asrwt>0</asrwt>
<pdfrwt beam="2">  1        2 0.39645785E-01 0.56094325E+02</pdfrwt>
<pdfrwt beam="1">  1       -2 0.46962816E-03 0.56094325E+02</pdfrwt>
<totfact> 0.60096310E+05</totfact>
</mgrwt>
</event>
<event>
 4    1  0.2196664E-002  0.4950154E+02  0.7818608E-02  0.1448049E+00
          2   -1    0    0    0  501  0.00000000000E+00  0.00000000000E+00  0.25954849970E+03  0.25954849971E+03  0.25500000000E-02 0. -1.
         -2   -1    0    0  501    0 -0.00000000000E+00 -0.00000000000E+00 -0.23602544679E+01  0.23602558454E+01  0.25500000000E-02 0. -1.
          2    1    1    2    0  502  0.18397311711E+02  0.14628382794E+02  0.16962862489E+03  0.17124929504E+03  0.25500000000E-02 0.  1.
         -2    1    1    2  502    0 -0.18397311711E+02 -0.14628382794E+02  0.87559620338E+02  0.90659460519E+02  0.25500000000E-02 0.  1.
<mgrwt>
<rscale>  0 0.49501543E+02</rscale>
<asrwt>0</asrwt>
<pdfrwt beam="1">  1        2 0.39930550E-01 0.49501543E+02</pdfrwt>
<pdfrwt beam="2">  1       -2 0.36311607E-03 0.49501543E+02</pdfrwt>
<totfact> 0.82463838E+05</totfact>
</mgrwt>
</event>
<event>
 4    1  0.2196664E-002  0.6382893E+02  0.7818608E-02  0.1382432E+00
          2   -1    0    0    0  501  0.00000000000E+00  0.00000000000E+00  0.55515219263E+03  0.55515219264E+03  0.25500000000E-02 0.  1.
         -2   -1    0    0  501    0 -0.00000000000E+00 -0.00000000000E+00 -0.18346908128E+01  0.18346925849E+01  0.25500000000E-02 0.  1.
          2    1    1    2    0  502 -0.36623082121E+01  0.30598875904E+02  0.34905472449E+03  0.35041247752E+03  0.25500000000E-02 0.  1.
         -2    1    1    2  502    0  0.36623082121E+01 -0.30598875904E+02  0.20426277733E+03  0.20657440770E+03  0.25500000000E-02 0.  1.
<mgrwt>
<rscale>  0 0.63828931E+02</rscale>
<asrwt>0</asrwt>
<pdfrwt beam="1">  1        2 0.85408007E-01 0.63828931E+02</pdfrwt>
<pdfrwt beam="2">  1       -2 0.28226034E-03 0.63828931E+02</pdfrwt>
<totfact> 0.56166451E+05</totfact>
</mgrwt>
</event>
<event>
 4    1  0.2196664E-002  0.8864019E+02  0.7818608E-02  0.1306178E+00
         -2   -1    0    0  501    0 -0.00000000000E+00  0.00000000000E+00  0.24465855581E+01  0.24465868870E+01  0.25500000000E-02 0.  1.
          2   -1    0    0    0  501  0.00000000000E+00 -0.00000000000E+00 -0.80286182930E+03  0.80286182930E+03  0.25500000000E-02 0.  1.
          2    1    1    2    0  502  0.90482320761E+01 -0.39960147831E+02 -0.24667501823E+03  0.25005449115E+03  0.25500000000E-02 0.  1.
         -2    1    1    2  502    0 -0.90482320761E+01  0.39960147831E+02 -0.55374022551E+03  0.55525392504E+03  0.25500000000E-02 0.  1.
<mgrwt>
<rscale>  0 0.88640187E+02</rscale>
<asrwt>0</asrwt>
<pdfrwt beam="2">  1        2 0.12351699E+00 0.88640187E+02</pdfrwt>
<pdfrwt beam="1">  1       -2 0.37639852E-03 0.88640187E+02</pdfrwt>
<totfact> 0.26268710E+05</totfact>
</mgrwt>
</event>
<event>
 4    1  0.2196664E-002  0.6780298E+02  0.7818608E-02  0.1367728E+00
          2   -1    0    0    0  501  0.00000000000E+00  0.00000000000E+00  0.34834752785E+02  0.34834752879E+02  0.25500000000E-02 0. -1.
         -2   -1    0    0  501    0 -0.00000000000E+00 -0.00000000000E+00 -0.32993230946E+02  0.32993231045E+02  0.25500000000E-02 0. -1.
          2    1    1    2    0  502 -0.65481278344E+01 -0.30802931171E+02  0.13479772073E+02  0.34254967647E+02  0.25500000000E-02 0.  1.
         -2    1    1    2  502    0  0.65481278344E+01  0.30802931171E+02 -0.11638250234E+02  0.33573016276E+02  0.25500000000E-02 0.  1.
<mgrwt>
<rscale>  0 0.67802981E+02</rscale>
<asrwt>0</asrwt>
<pdfrwt beam="1">  1        2 0.53591927E-02 0.67802981E+02</pdfrwt>
<pdfrwt beam="2">  1       -2 0.50758817E-02 0.67802981E+02</pdfrwt>
<totfact> 0.21306384E+05</totfact>
</mgrwt>
</event>
<event>
 4    1  0.2196664E-002  0.8989713E+02  0.7818608E-02  0.1303101E+00
          2   -1    0    0    0  501  0.00000000000E+00  0.00000000000E+00  0.80676518506E+03  0.80676518506E+03  0.25500000000E-02 0.  1.
         -2   -1    0    0  501    0 -0.00000000000E+00 -0.00000000000E+00 -0.25042885720E+01  0.25042898703E+01  0.25500000000E-02 0.  1.
          2    1    1    2    0  502 -0.24441650166E+02  0.35192592995E+02  0.52439456785E+03  0.52614216298E+03  0.25500000000E-02 0.  1.
         -2    1    1    2  502    0  0.24441650166E+02 -0.35192592995E+02  0.27986632863E+03  0.28312731195E+03  0.25500000000E-02 0.  1.
<mgrwt>
<rscale>  0 0.89897127E+02</rscale>
<asrwt>0</asrwt>
<pdfrwt beam="1">  1        2 0.12411786E+00 0.89897127E+02</pdfrwt>
<pdfrwt beam="2">  1       -2 0.38527484E-03 0.89897127E+02</pdfrwt>
<totfact> 0.25335180E+05</totfact>
</mgrwt>
</event>
<event>
 4    1  0.2196664E-002  0.4085708E+02  0.7818608E-02  0.1501997E+00
         -2   -1    0    0  501    0 -0.00000000000E+00  0.00000000000E+00  0.14813859711E+03  0.14813859713E+03  0.25500000000E-02 0.  1.
          2   -1    0    0    0  501  0.00000000000E+00 -0.00000000000E+00 -0.28171270156E+01  0.28171281697E+01  0.25500000000E-02 0.  1.
          2    1    1    2    0  502  0.64693635335E+01 -0.19355157411E+02  0.76068192415E+02  0.78758140447E+02  0.25500000000E-02 0.  1.
         -2    1    1    2  502    0 -0.64693635335E+01  0.19355157411E+02  0.69253277677E+02  0.72197584852E+02  0.25500000000E-02 0.  1.
<mgrwt>
<rscale>  0 0.40857084E+02</rscale>
<asrwt>0</asrwt>
<pdfrwt beam="2">  1        2 0.43340418E-03 0.40857084E+02</pdfrwt>
<pdfrwt beam="1">  1       -2 0.22790557E-01 0.40857084E+02</pdfrwt>
<totfact> 0.51450203E+05</totfact>
</mgrwt>
</event>
<event>
 4    1  0.2196664E-002  0.5001031E+02  0.7818608E-02  0.1445286E+00
         -2   -1    0    0  501    0 -0.00000000000E+00  0.00000000000E+00  0.10779303843E+03  0.10779303846E+03  0.25500000000E-02 0. -1.
          2   -1    0    0    0  501  0.00000000000E+00 -0.00000000000E+00 -0.58005387140E+01  0.58005392746E+01  0.25500000000E-02 0. -1.
          2    1    1    2    0  502 -0.10346316514E+02  0.18534783746E+02  0.20976474074E+02  0.29842870924E+02  0.25500000000E-02 0.  1.
         -2    1    1    2  502    0  0.10346316514E+02 -0.18534783746E+02  0.81016025646E+02  0.83750706814E+02  0.25500000000E-02 0.  1.
<mgrwt>
<rscale>  0 0.50010308E+02</rscale>
<asrwt>0</asrwt>
<pdfrwt beam="2">  1        2 0.89239064E-03 0.50010308E+02</pdfrwt>
<pdfrwt beam="1">  1       -2 0.16583544E-01 0.50010308E+02</pdfrwt>
<totfact> 0.34601597E+05</totfact>
</mgrwt>
</event>
<event>
 4    1  0.2196664E-002  0.1172080E+03  0.7818608E-02  0.1247775E+00
          2   -1    0    0    0  501  0.00000000000E+00  0.00000000000E+00  0.24332908689E+04  0.24332908689E+04  0.25500000000E-02 0.  1.
         -2   -1    0    0  501    0 -0.00000000000E+00 -0.00000000000E+00 -0.14114334448E+01  0.14114357483E+01  0.25500000000E-02 0.  1.
          2    1    1    2    0  502 -0.11135057954E+02 -0.54936980058E+02  0.15711247037E+04  0.15721243258E+04  0.25500000000E-02 0.  1.
         -2    1    1    2  502    0  0.11135057954E+02  0.54936980058E+02  0.86075473178E+03  0.86257797884E+03  0.25500000000E-02 0.  1.
<mgrwt>
<rscale>  0 0.11720804E+03</rscale>
<asrwt>0</asrwt>
<pdfrwt beam="1">  1        2 0.37435262E+00 0.11720804E+03</pdfrwt>
<pdfrwt beam="2">  1       -2 0.21714368E-03 0.11720804E+03</pdfrwt>
<totfact> 0.79042786E+04</totfact>
</mgrwt>
</event>
<event>
 4    1  0.2196664E-002  0.4718018E+02  0.7818608E-02  0.1461173E+00
         -2   -1    0    0  501    0 -0.00000000000E+00  0.00000000000E+00  0.18720077870E+01  0.18720095237E+01  0.25500000000E-02 0.  1.
          2   -1    0    0    0  501  0.00000000000E+00 -0.00000000000E+00 -0.29727022483E+03  0.29727022484E+03  0.25500000000E-02 0.  1.
          2    1    1    2    0  502  0.17138353857E+01  0.23368199789E+02 -0.16504272471E+03  0.16669766339E+03  0.25500000000E-02 0. -1.
         -2    1    1    2  502    0 -0.17138353857E+01 -0.23368199789E+02 -0.13035549233E+03  0.13244457098E+03  0.25500000000E-02 0. -1.
<mgrwt>
<rscale>  0 0.47180184E+02</rscale>
<asrwt>0</asrwt>
<pdfrwt beam="2">  1        2 0.45733843E-01 0.47180184E+02</pdfrwt>
<pdfrwt beam="1">  1       -2 0.28800157E-03 0.47180184E+02</pdfrwt>
<totfact> 0.97385420E+05</totfact>
</mgrwt>
</event>
<event>
 4    1  0.2196664E-002  0.4571613E+02  0.7818608E-02  0.1469920E+00
          2   -1    0    0    0  501  0.00000000000E+00  0.00000000000E+00  0.79555064928E+03  0.79555064929E+03  0.25500000000E-02 0. -1.
         -2   -1    0    0  501    0 -0.00000000000E+00 -0.00000000000E+00 -0.65676426629E+00  0.65676921667E+00  0.25500000000E-02 0. -1.
          2    1    1    2    0  502  0.12810766914E+02 -0.15776862415E+02  0.57966712961E+03  0.58002328082E+03  0.25500000000E-02 0. -1.
         -2    1    1    2  502    0 -0.12810766914E+02  0.15776862415E+02  0.21522675540E+03  0.21618413768E+03  0.25500000000E-02 0. -1.
<mgrwt>
<rscale>  0 0.45716133E+02</rscale>
<asrwt>0</asrwt>
<pdfrwt beam="1">  1        2 0.12239233E+00 0.45716133E+02</pdfrwt>
<pdfrwt beam="2">  1       -2 0.10104111E-03 0.45716133E+02</pdfrwt>
<totfact> 0.14061158E+06</totfact>
</mgrwt>
</event>
<event>
 4    1  0.2196664E-002  0.7255579E+02  0.7818608E-02  0.1351611E+00
         -2   -1    0    0  501    0 -0.00000000000E+00  0.00000000000E+00  0.96980877820E+00  0.96981213066E+00  0.25500000000E-02 0.  1.
          2   -1    0    0    0  501  0.00000000000E+00 -0.00000000000E+00 -0.13570543619E+04  0.13570543619E+04  0.25500000000E-02 0.  1.
          2    1    1    2    0  502 -0.67573545119E+01  0.34588744994E+02 -0.51698674422E+03  0.51818658495E+03  0.25500000000E-02 0.  1.
         -2    1    1    2  502    0  0.67573545119E+01 -0.34588744994E+02 -0.83909780886E+03  0.83983758904E+03  0.25500000000E-02 0.  1.
<mgrwt>
<rscale>  0 0.72555786E+02</rscale>
<asrwt>0</asrwt>
<pdfrwt beam="2">  1        2 0.20877608E+00 0.72555786E+02</pdfrwt>
<pdfrwt beam="1">  1       -2 0.14920269E-03 0.72555786E+02</pdfrwt>
<totfact> 0.44120504E+05</totfact>
</mgrwt>
</event>
<event>
 4    1  0.2196664E-002  0.5377221E+02  0.7818608E-02  0.1425996E+00
         -2   -1    0    0  501    0 -0.00000000000E+00  0.00000000000E+00  0.79466089005E+01  0.79466093096E+01  0.25500000000E-02 0.  1.
          2   -1    0    0    0  501  0.00000000000E+00 -0.00000000000E+00 -0.90964920418E+02  0.90964920454E+02  0.25500000000E-02 0.  1.
          2    1    1    2    0  502  0.20105633156E+02 -0.17142893009E+02 -0.32358467037E+02  0.41775419338E+02  0.25500000000E-02 0.  1.
         -2    1    1    2  502    0 -0.20105633156E+02  0.17142893009E+02 -0.50659844480E+02  0.57136110426E+02  0.25500000000E-02 0.  1.
<mgrwt>
<rscale>  0 0.53772211E+02</rscale>
<asrwt>0</asrwt>
<pdfrwt beam="2">  1        2 0.13994602E-01 0.53772211E+02</pdfrwt>
<pdfrwt beam="1">  1       -2 0.12225553E-02 0.53772211E+02</pdfrwt>
<totfact> 0.48552459E+05</totfact>
</mgrwt>
</event>
<event>
 4    1  0.2196664E-002  0.1048221E+03  0.7818608E-02  0.1270471E+00
          2   -1    0    0    0  501  0.00000000000E+00  0.00000000000E+00  0.56335469685E+03  0.56335469686E+03  0.25500000000E-02 0. -1.
         -2   -1    0    0  501    0 -0.00000000000E+00 -0.00000000000E+00 -0.48760019045E+01  0.48760025713E+01  0.25500000000E-02 0. -1.
          2    1    1    2    0  502 -0.46477668906E+02 -0.85651337213E+01  0.40206604028E+03  0.40483408450E+03  0.25500000000E-02 0. -1.
         -2    1    1    2  502    0  0.46477668906E+02  0.85651337213E+01  0.15641265467E+03  0.16339661493E+03  0.25500000000E-02 0. -1.
<mgrwt>
<rscale>  0 0.10482211E+03</rscale>
<asrwt>0</asrwt>
<pdfrwt beam="1">  1        2 0.86669851E-01 0.10482211E+03</pdfrwt>
<pdfrwt beam="2">  1       -2 0.75015507E-03 0.10482211E+03</pdfrwt>
<totfact> 0.15431296E+05</totfact>
</mgrwt>
</event>
<event>
 4    1  0.2196664E-002  0.8120537E+02  0.7818608E-02  0.1325665E+00
         -2   -1    0    0  501    0 -0.00000000000E+00  0.00000000000E+00  0.12948799747E+01  0.12948824855E+01  0.25500000000E-02 0. -1.
          2   -1    0    0    0  501  0.00000000000E+00 -0.00000000000E+00 -0.12731499367E+04  0.12731499367E+04  0.25500000000E-02 0. -1.
          2    1    1    2    0  502 -0.35462898679E+01 -0.21782517326E+02 -0.11708001120E+04  0.11710080941E+04  0.25500000000E-02 0. -1.
         -2    1    1    2  502    0  0.35462898679E+01  0.21782517326E+02 -0.10105494480E+03  0.10343672515E+03  0.25500000000E-02 0. -1.
<mgrwt>
<rscale>  0 0.81205368E+02</rscale>
<asrwt>0</asrwt>
<pdfrwt beam="2">  1        2 0.19586822E+00 0.81205368E+02</pdfrwt>
<pdfrwt beam="1">  1       -2 0.19921352E-03 0.81205368E+02</pdfrwt>
<totfact> 0.33399992E+05</totfact>
</mgrwt>
</event>
<event>
 4    1  0.2196664E-002  0.4310055E+02  0.7818608E-02  0.1486560E+00
         -2   -1    0    0  501    0 -0.00000000000E+00  0.00000000000E+00  0.57558085590E+03  0.57558085591E+03  0.25500000000E-02 0.  1.
          2   -1    0    0    0  501  0.00000000000E+00 -0.00000000000E+00 -0.80686002592E+00  0.80686405542E+00  0.25500000000E-02 0.  1.
          2    1    1    2    0  502 -0.20863952987E+02 -0.42163955457E+01  0.33240452651E+03  0.33308535209E+03  0.25500000000E-02 0. -1.
         -2    1    1    2  502    0  0.20863952987E+02  0.42163955457E+01  0.24236946937E+03  0.24330236788E+03  0.25500000000E-02 0. -1.
<mgrwt>
<rscale>  0 0.43100550E+02</rscale>
<asrwt>0</asrwt>
<pdfrwt beam="2">  1        2 0.12413214E-03 0.43100550E+02</pdfrwt>
<pdfrwt beam="1">  1       -2 0.88551248E-01 0.43100550E+02</pdfrwt>
<totfact> 0.21228489E+05</totfact>
</mgrwt>
</event>
<event>
 4    1  0.2196664E-002  0.7475605E+02  0.7818608E-02  0.1344628E+00
         -2   -1    0    0  501    0 -0.00000000000E+00  0.00000000000E+00  0.29383929126E+02  0.29383929236E+02  0.25500000000E-02 0. -1.
          2   -1    0    0    0  501  0.00000000000E+00 -0.00000000000E+00 -0.47546962776E+02  0.47546962844E+02  0.25500000000E-02 0. -1.
          2    1    1    2    0  502 -0.13730629622E+02 -0.34100523266E+02 -0.21215705295E+01  0.36822234382E+02  0.25500000000E-02 0.  1.
         -2    1    1    2  502    0  0.13730629622E+02  0.34100523266E+02 -0.16041463121E+02  0.40108657699E+02  0.25500000000E-02 0.  1.
<mgrwt>
<rscale>  0 0.74756046E+02</rscale>
<asrwt>0</asrwt>
<pdfrwt beam="2">  1        2 0.73149174E-02 0.74756046E+02</pdfrwt>
<pdfrwt beam="1">  1       -2 0.45206045E-02 0.74756046E+02</pdfrwt>
<totfact> 0.17416477E+05</totfact>
</mgrwt>
</event>
<event>
 4    1  0.2196664E-002  0.6016510E+02  0.7818608E-02  0.1397140E+00
          2   -1    0    0    0  501  0.00000000000E+00  0.00000000000E+00  0.91244257579E+01  0.91244261142E+01  0.25500000000E-02 0.  1.
         -2   -1    0    0  501    0 -0.00000000000E+00 -0.00000000000E+00 -0.99179918807E+02  0.99179918839E+02  0.25500000000E-02 0.  1.
          2    1    1    2    0  502 -0.23491311689E+02 -0.18492234837E+02 -0.39015417188E+02  0.49152896751E+02  0.25500000000E-02 0.  1.
         -2    1    1    2  502    0  0.23491311689E+02  0.18492234837E+02 -0.51040075861E+02  0.59151448203E+02  0.25500000000E-02 0.  1.
<mgrwt>
<rscale>  0 0.60165100E+02</rscale>
<asrwt>0</asrwt>
<pdfrwt beam="1">  1        2 0.14037579E-02 0.60165100E+02</pdfrwt>
<pdfrwt beam="2">  1       -2 0.15258448E-01 0.60165100E+02</pdfrwt>
<totfact> 0.22458800E+05</totfact>
</mgrwt>
</event>
<event>
 4    1  0.2196664E-002  0.6482860E+02  0.7818608E-02  0.1378617E+00
          2   -1    0    0    0  501  0.00000000000E+00  0.00000000000E+00  0.97044387872E+01  0.97044391223E+01  0.25500000000E-02 0.  1.
         -2   -1    0    0  501    0 -0.00000000000E+00 -0.00000000000E+00 -0.10826868307E+03  0.10826868310E+03  0.25500000000E-02 0.  1.
          2    1    1    2    0  502 -0.10839225177E+02  0.24042059744E+02 -0.83577775852E+02  0.87639911354E+02  0.25500000000E-02 0.  1.
         -2    1    1    2  502    0  0.10839225177E+02 -0.24042059744E+02 -0.14986468435E+02  0.30333210873E+02  0.25500000000E-02 0.  1.
<mgrwt>
<rscale>  0 0.64828600E+02</rscale>
<asrwt>0</asrwt>
<pdfrwt beam="1">  1        2 0.14929907E-02 0.64828600E+02</pdfrwt>
<pdfrwt beam="2">  1       -2 0.16656720E-01 0.64828600E+02</pdfrwt>
<totfact> 0.18234895E+05</totfact>
</mgrwt>
</event>
<event>
 4    1  0.2196664E-002  0.7184666E+02  0.7818608E-02  0.1353924E+00
         -2   -1    0    0  501    0 -0.00000000000E+00  0.00000000000E+00  0.21812181024E+01  0.21812195930E+01  0.25500000000E-02 0.  1.
          2   -1    0    0    0  501  0.00000000000E+00 -0.00000000000E+00 -0.59163502914E+03  0.59163502915E+03  0.25500000000E-02 0.  1.
          2    1    1    2    0  502  0.41572148933E+00  0.31506402955E+02 -0.15213161207E+03  0.15536039923E+03  0.25500000000E-02 0.  1.
         -2    1    1    2  502    0 -0.41572148933E+00 -0.31506402955E+02 -0.43732219897E+03  0.43845584951E+03  0.25500000000E-02 0.  1.
<mgrwt>
<rscale>  0 0.71846656E+02</rscale>
<asrwt>0</asrwt>
<pdfrwt beam="2">  1        2 0.91020646E-01 0.71846656E+02</pdfrwt>
<pdfrwt beam="1">  1       -2 0.33557260E-03 0.71846656E+02</pdfrwt>
<totfact> 0.42254820E+05</totfact>
</mgrwt>
</event>
<event>
 4    1  0.2196664E-002  0.1173903E+03  0.7818608E-02  0.1247465E+00
          2   -1    0    0    0  501  0.00000000000E+00  0.00000000000E+00  0.36331334786E+03  0.36331334787E+03  0.25500000000E-02 0. -1.
         -2   -1    0    0  501    0 -0.00000000000E+00 -0.00000000000E+00 -0.94825091433E+01  0.94825094861E+01  0.25500000000E-02 0. -1.
          2    1    1    2    0  502 -0.36859502172E+02 -0.44996849477E+02  0.15195380348E+03  0.16270617002E+03  0.25500000000E-02 0. -1.
         -2    1    1    2  502    0  0.36859502172E+02  0.44996849477E+02  0.20187703524E+03  0.21008968734E+03  0.25500000000E-02 0. -1.
<mgrwt>
<rscale>  0 0.11739033E+03</rscale>
<asrwt>0</asrwt>
<pdfrwt beam="1">  1        2 0.55894356E-01 0.11739033E+03</pdfrwt>
<pdfrwt beam="2">  1       -2 0.14588477E-02 0.11739033E+03</pdfrwt>
<totfact> 0.97535392E+04</totfact>
</mgrwt>
</event>
<event>
 4    1  0.2196664E-002  0.4443708E+02  0.7818608E-02  0.1477887E+00
          2   -1    0    0    0  501  0.00000000000E+00  0.00000000000E+00  0.13633112904E+01  0.13633136752E+01  0.25500000000E-02 0.  1.
         -2   -1    0    0  501    0 -0.00000000000E+00 -0.00000000000E+00 -0.36210584135E+03  0.36210584136E+03  0.25500000000E-02 0.  1.
          2    1    1    2    0  502 -0.16373948106E+02 -0.15010438174E+02 -0.18441142775E+03  0.18574443228E+03  0.25500000000E-02 0. -1.
         -2    1    1    2  502    0  0.16373948106E+02  0.15010438174E+02 -0.17633110231E+03  0.17772472276E+03  0.25500000000E-02 0. -1.
<mgrwt>
<rscale>  0 0.44437075E+02</rscale>
<asrwt>0</asrwt>
<pdfrwt beam="1">  1        2 0.20974067E-03 0.44437075E+02</pdfrwt>
<pdfrwt beam="2">  1       -2 0.55708515E-01 0.44437075E+02</pdfrwt>
<totfact> 0.27724891E+05</totfact>
</mgrwt>
</event>
<event>
 4    1  0.2196664E-002  0.2215691E+03  0.7818608E-02  0.1132719E+00
          2   -1    0    0    0  501  0.00000000000E+00  0.00000000000E+00  0.74801106816E+03  0.74801106816E+03  0.25500000000E-02 0.  1.
         -2   -1    0    0  501    0 -0.00000000000E+00 -0.00000000000E+00 -0.16407801654E+02  0.16407801852E+02  0.25500000000E-02 0.  1.
          2    1    1    2    0  502  0.48944841669E+02 -0.64867758962E+02  0.10602157046E+03  0.13358142493E+03  0.25500000000E-02 0. -1.
         -2    1    1    2  502    0 -0.48944841669E+02  0.64867758962E+02  0.62558169604E+03  0.63083744508E+03  0.25500000000E-02 0. -1.
<mgrwt>
<rscale>  0 0.22156911E+03</rscale>
<asrwt>0</asrwt>
<pdfrwt beam="1">  1        2 0.11507865E+00 0.22156911E+03</pdfrwt>
<pdfrwt beam="2">  1       -2 0.25242767E-02 0.22156911E+03</pdfrwt>
<totfact> 0.20785595E+04</totfact>
</mgrwt>
</event>
<event>
 4    1  0.2196664E-002  0.1007580E+03  0.7818608E-02  0.1278710E+00
          2   -1    0    0    0  501  0.00000000000E+00  0.00000000000E+00  0.17044110668E+02  0.17044110859E+02  0.25500000000E-02 0.  1.
         -2   -1    0    0  501    0 -0.00000000000E+00 -0.00000000000E+00 -0.14891021473E+03  0.14891021475E+03  0.25500000000E-02 0.  1.
          2    1    1    2    0  502 -0.11616867045E+02 -0.22952001550E+02  0.54113435899E+01  0.26287423249E+02  0.25500000000E-02 0. -1.
         -2    1    1    2  502    0  0.11616867045E+02  0.22952001550E+02 -0.13727744765E+03  0.13966690236E+03  0.25500000000E-02 0. -1.
<mgrwt>
<rscale>  0 0.10075797E+03</rscale>
<asrwt>0</asrwt>
<pdfrwt beam="1">  1        2 0.26221710E-02 0.10075797E+03</pdfrwt>
<pdfrwt beam="2">  1       -2 0.22909263E-01 0.10075797E+03</pdfrwt>
<totfact> 0.54379353E+04</totfact>
</mgrwt>
</event>
<event>
 4    1  0.2196664E-002  0.6613066E+02  0.7818608E-02  0.1373768E+00
         -2   -1    0    0  501    0 -0.00000000000E+00  0.00000000000E+00  0.17161978627E+01  0.17161997572E+01  0.25500000000E-02 0. -1.
          2   -1    0    0    0  501  0.00000000000E+00 -0.00000000000E+00 -0.63705674776E+03  0.63705674776E+03  0.25500000000E-02 0. -1.
          2    1    1    2    0  502 -0.17880156989E+01  0.23053168616E+02 -0.54597847451E+03  0.54646787666E+03  0.25500000000E-02 0.  1.
         -2    1    1    2  502    0  0.17880156989E+01 -0.23053168616E+02 -0.89362075385E+02  0.92305070863E+02  0.25500000000E-02 0.  1.
<mgrwt>
<rscale>  0 0.66130660E+02</rscale>
<asrwt>0</asrwt>
<pdfrwt beam="2">  1        2 0.98008542E-01 0.66130660E+02</pdfrwt>
<pdfrwt beam="1">  1       -2 0.26403110E-03 0.66130660E+02</pdfrwt>
<totfact> 0.53317163E+05</totfact>
</mgrwt>
</event>
<event>
 4    1  0.2196664E-002  0.7291837E+02  0.7818608E-02  0.1350441E+00
          2   -1    0    0    0  501  0.00000000000E+00  0.00000000000E+00  0.78872876247E+03  0.78872876247E+03  0.25500000000E-02 0. -1.
         -2   -1    0    0  501    0 -0.00000000000E+00 -0.00000000000E+00 -0.16853341722E+01  0.16853361013E+01  0.25500000000E-02 0. -1.
          2    1    1    2    0  502 -0.20092210379E+02 -0.30412388766E+02  0.38470225773E+03  0.38642520288E+03  0.25500000000E-02 0.  1.
         -2    1    1    2  502    0  0.20092210379E+02  0.30412388766E+02  0.40234117056E+03  0.40398889569E+03  0.25500000000E-02 0.  1.
<mgrwt>
<rscale>  0 0.72918374E+02</rscale>
<asrwt>0</asrwt>
<pdfrwt beam="1">  1        2 0.12134318E+00 0.72918374E+02</pdfrwt>
<pdfrwt beam="2">  1       -2 0.25928170E-03 0.72918374E+02</pdfrwt>
<totfact> 0.43518924E+05</totfact>
</mgrwt>
</event>
<event>
 4    1  0.2196664E-002  0.4127662E+03  0.7818608E-02  0.1039447E+00
          2   -1    0    0    0  501  0.00000000000E+00  0.00000000000E+00  0.71351661990E+02  0.71351662035E+02  0.25500000000E-02 0.  1.
         -2   -1    0    0  501    0 -0.00000000000E+00 -0.00000000000E+00 -0.59695859270E+03  0.59695859270E+03  0.25500000000E-02 0.  1.
          2    1    1    2    0  502 -0.12846957604E+02  0.13884973238E+03 -0.16456839845E+02  0.14041054122E+03  0.25500000000E-02 0.  1.
         -2    1    1    2  502    0  0.12846957604E+02 -0.13884973238E+03 -0.50915009086E+03  0.52789971352E+03  0.25500000000E-02 0.  1.
<mgrwt>
<rscale>  0 0.41276622E+03</rscale>
<asrwt>0</asrwt>
<pdfrwt beam="1">  1        2 0.10977179E-01 0.41276622E+03</pdfrwt>
<pdfrwt beam="2">  1       -2 0.91839780E-01 0.41276622E+03</pdfrwt>
<totfact> 0.59913099E+02</totfact>
</mgrwt>
</event>
<event>
 4    1  0.2196664E-002  0.6294589E+02  0.7818608E-02  0.1385869E+00
         -2   -1    0    0  501    0 -0.00000000000E+00  0.00000000000E+00  0.32537524711E+02  0.32537524811E+02  0.25500000000E-02 0. -1.
          2   -1    0    0    0  501  0.00000000000E+00 -0.00000000000E+00 -0.30443200925E+02  0.30443201032E+02  0.25500000000E-02 0. -1.
          2    1    1    2    0  502 -0.31025853233E+02  0.51956330103E+01  0.20214723468E+01  0.31522762065E+02  0.25500000000E-02 0.  1.
         -2    1    1    2  502    0  0.31025853233E+02 -0.51956330103E+01  0.72851439174E-01  0.31457963778E+02  0.25500000000E-02 0.  1.
<mgrwt>
<rscale>  0 0.62945895E+02</rscale>
<asrwt>0</asrwt>
<pdfrwt beam="2">  1        2 0.46835694E-02 0.62945895E+02</pdfrwt>
<pdfrwt beam="1">  1       -2 0.50057730E-02 0.62945895E+02</pdfrwt>
<totfact> 0.25437615E+05</totfact>
</mgrwt>
</event>
<event>
 4    1  0.2196664E-002  0.5544365E+02  0.7818608E-02  0.1418012E+00
         -2   -1    0    0  501    0 -0.00000000000E+00  0.00000000000E+00  0.34410306407E+01  0.34410315855E+01  0.25500000000E-02 0. -1.
          2   -1    0    0    0  501  0.00000000000E+00 -0.00000000000E+00 -0.22333410309E+03  0.22333410310E+03  0.25500000000E-02 0. -1.
          2    1    1    2    0  502 -0.20493732519E+02  0.16693917352E+02 -0.14412341776E+03  0.14652726538E+03  0.25500000000E-02 0.  1.
         -2    1    1    2  502    0  0.20493732519E+02 -0.16693917352E+02 -0.75769654690E+02  0.80247869301E+02  0.25500000000E-02 0.  1.
<mgrwt>
<rscale>  0 0.55443651E+02</rscale>
<asrwt>0</asrwt>
<pdfrwt beam="2">  1        2 0.34359082E-01 0.55443651E+02</pdfrwt>
<pdfrwt beam="1">  1       -2 0.52938958E-03 0.55443651E+02</pdfrwt>
<totfact> 0.58905027E+05</totfact>
</mgrwt>
</event>
<event>
 4    1  0.2196664E-002  0.4154329E+02  0.7818608E-02  0.1497152E+00
          2   -1    0    0    0  501  0.00000000000E+00  0.00000000000E+00  0.11321814243E+04  0.11321814243E+04  0.25500000000E-02 0. -1.
         -2   -1    0    0  501    0 -0.00000000000E+00 -0.00000000000E+00 -0.38108417446E+00  0.38109270594E+00  0.25500000000E-02 0. -1.
          2    1    1    2    0  502 -0.19478569717E+02  0.51742464013E+01  0.70295555155E+03  0.70324440628E+03  0.25500000000E-02 0.  1.
         -2    1    1    2  502    0  0.19478569717E+02 -0.51742464013E+01  0.42884478860E+03  0.42931811076E+03  0.25500000000E-02 0.  1.
<mgrwt>
<rscale>  0 0.41543291E+02</rscale>
<asrwt>0</asrwt>
<pdfrwt beam="1">  1        2 0.17417930E+00 0.41543291E+02</pdfrwt>
<pdfrwt beam="2">  1       -2 0.58629819E-04 0.41543291E+02</pdfrwt>
<totfact> 0.18202014E+06</totfact>
</mgrwt>
</event>
<event>
 4    1  0.2196664E-002  0.4141667E+02  0.7818608E-02  0.1498038E+00
          2   -1    0    0    0  501  0.00000000000E+00  0.00000000000E+00  0.94634284941E+03  0.94634284941E+03  0.25500000000E-02 0. -1.
         -2   -1    0    0  501    0 -0.00000000000E+00 -0.00000000000E+00 -0.45314626133E+00  0.45315343611E+00  0.25500000000E-02 0. -1.
          2    1    1    2    0  502 -0.10445751837E+02 -0.17706447955E+02  0.41600909210E+03  0.41651674246E+03  0.25500000000E-02 0.  1.
         -2    1    1    2  502    0  0.10445751837E+02  0.17706447955E+02  0.52988061104E+03  0.53027926039E+03  0.25500000000E-02 0.  1.
<mgrwt>
<rscale>  0 0.41416669E+02</rscale>
<asrwt>0</asrwt>
<pdfrwt beam="1">  1        2 0.14559181E+00 0.41416669E+02</pdfrwt>
<pdfrwt beam="2">  1       -2 0.69715074E-04 0.41416669E+02</pdfrwt>
<totfact> 0.18271339E+06</totfact>
</mgrwt>
</event>
<event>
 4    1  0.2196664E-002  0.6527935E+02  0.7818608E-02  0.1376924E+00
         -2   -1    0    0  501    0 -0.00000000000E+00  0.00000000000E+00  0.60357839670E+01  0.60357845056E+01  0.25500000000E-02 0. -1.
          2   -1    0    0    0  501  0.00000000000E+00 -0.00000000000E+00 -0.17650539636E+03  0.17650539638E+03  0.25500000000E-02 0. -1.
          2    1    1    2    0  502  0.61639211951E+01  0.26910544957E+02 -0.13392407270E+03  0.13674000369E+03  0.25500000000E-02 0.  1.
         -2    1    1    2  502    0 -0.61639211951E+01 -0.26910544957E+02 -0.36545539696E+02  0.45801177196E+02  0.25500000000E-02 0.  1.
<mgrwt>
<rscale>  0 0.65279353E+02</rscale>
<asrwt>0</asrwt>
<pdfrwt beam="2">  1        2 0.27154672E-01 0.65279353E+02</pdfrwt>
<pdfrwt beam="1">  1       -2 0.92858233E-03 0.65279353E+02</pdfrwt>
<totfact> 0.35801801E+05</totfact>
</mgrwt>
</event>
<event>
 4    1  0.2196664E-002  0.5128877E+02  0.7818608E-02  0.1438512E+00
          2   -1    0    0    0  501  0.00000000000E+00  0.00000000000E+00  0.37519237573E+02  0.37519237660E+02  0.25500000000E-02 0.  1.
         -2   -1    0    0  501    0 -0.00000000000E+00 -0.00000000000E+00 -0.17527927490E+02  0.17527927675E+02  0.25500000000E-02 0.  1.
          2    1    1    2    0  502  0.29367074870E+01 -0.23465595393E+02 -0.64963220720E+00  0.23657566370E+02  0.25500000000E-02 0. -1.
         -2    1    1    2  502    0 -0.29367074870E+01  0.23465595393E+02  0.20640942291E+02  0.31389598965E+02  0.25500000000E-02 0. -1.
<mgrwt>
<rscale>  0 0.51288770E+02</rscale>
<asrwt>0</asrwt>
<pdfrwt beam="1">  1        2 0.57721904E-02 0.51288770E+02</pdfrwt>
<pdfrwt beam="2">  1       -2 0.26966043E-02 0.51288770E+02</pdfrwt>
<totfact> 0.45598326E+05</totfact>
</mgrwt>
</event>
<event>
 4    1  0.2196664E-002  0.1422575E+03  0.7818608E-02  0.1210323E+00
         -2   -1    0    0  501    0 -0.00000000000E+00  0.00000000000E+00  0.78439112090E+02  0.78439112132E+02  0.25500000000E-02 0.  1.
          2   -1    0    0    0  501  0.00000000000E+00 -0.00000000000E+00 -0.64499699585E+02  0.64499699635E+02  0.25500000000E-02 0.  1.
          2    1    1    2    0  502  0.47481361958E+02 -0.43554673852E+02  0.37243889046E+02  0.74421748337E+02  0.25500000000E-02 0. -1.
         -2    1    1    2  502    0 -0.47481361958E+02  0.43554673852E+02 -0.23304476540E+02  0.68517063430E+02  0.25500000000E-02 0. -1.
<mgrwt>
<rscale>  0 0.14225750E+03</rscale>
<asrwt>0</asrwt>
<pdfrwt beam="2">  1        2 0.99230307E-02 0.14225750E+03</pdfrwt>
<pdfrwt beam="1">  1       -2 0.12067556E-01 0.14225750E+03</pdfrwt>
<totfact> 0.29255091E+04</totfact>
</mgrwt>
</event>
<event>
 4    1  0.2196664E-002  0.5710037E+02  0.7818608E-02  0.1410419E+00
          2   -1    0    0    0  501  0.00000000000E+00  0.00000000000E+00  0.48240773789E+03  0.48240773789E+03  0.25500000000E-02 0.  1.
         -2   -1    0    0  501    0 -0.00000000000E+00 -0.00000000000E+00 -0.16896758318E+01  0.16896777560E+01  0.25500000000E-02 0.  1.
          2    1    1    2    0  502 -0.92125478239E+01  0.26746344365E+02  0.27305731526E+03  0.27451873415E+03  0.25500000000E-02 0. -1.
         -2    1    1    2  502    0  0.92125478239E+01 -0.26746344365E+02  0.20766074679E+03  0.20957868150E+03  0.25500000000E-02 0. -1.
<mgrwt>
<rscale>  0 0.57100373E+02</rscale>
<asrwt>0</asrwt>
<pdfrwt beam="1">  1        2 0.74216629E-01 0.57100373E+02</pdfrwt>
<pdfrwt beam="2">  1       -2 0.25995009E-03 0.57100373E+02</pdfrwt>
<totfact> 0.71307543E+05</totfact>
</mgrwt>
</event>
<event>
 4    1  0.2196664E-002  0.1336989E+03  0.7818608E-02  0.1222068E+00
          2   -1    0    0    0  501  0.00000000000E+00  0.00000000000E+00  0.13016413574E+04  0.13016413574E+04  0.25500000000E-02 0. -1.
         -2   -1    0    0  501    0 -0.00000000000E+00 -0.00000000000E+00 -0.34332409201E+01  0.34332418671E+01  0.25500000000E-02 0. -1.
          2    1    1    2    0  502  0.34106141625E+02 -0.26066143180E+02  0.14887439919E+03  0.15493953485E+03  0.25500000000E-02 0.  1.
         -2    1    1    2  502    0 -0.34106141625E+02  0.26066143180E+02  0.11493337172E+04  0.11501350644E+04  0.25500000000E-02 0.  1.
<mgrwt>
<rscale>  0 0.13369890E+03</rscale>
<asrwt>0</asrwt>
<pdfrwt beam="1">  1        2 0.20025258E+00 0.13369890E+03</pdfrwt>
<pdfrwt beam="2">  1       -2 0.52819081E-03 0.13369890E+03</pdfrwt>
<totfact> 0.87991281E+04</totfact>
</mgrwt>
</event>
<event>
 4    1  0.2196664E-002  0.5286476E+02  0.7818608E-02  0.1430475E+00
         -2   -1    0    0  501    0 -0.00000000000E+00  0.00000000000E+00  0.25365143447E+00  0.25366425193E+00  0.25500000000E-02 0. -1.
          2   -1    0    0    0  501  0.00000000000E+00 -0.00000000000E+00 -0.27543821890E+04  0.27543821890E+04  0.25500000000E-02 0. -1.
          2    1    1    2    0  502  0.16846661944E+02 -0.20338060546E+02 -0.14347108933E+04  0.14349539344E+04  0.25500000000E-02 0. -1.
         -2    1    1    2  502    0 -0.16846661944E+02  0.20338060546E+02 -0.13194176443E+04  0.13196819188E+04  0.25500000000E-02 0. -1.
<mgrwt>
<rscale>  0 0.52864758E+02</rscale>
<asrwt>0</asrwt>
<pdfrwt beam="2">  1        2 0.42372716E+00 0.52864758E+02</pdfrwt>
<pdfrwt beam="1">  1       -2 0.39026489E-04 0.52864758E+02</pdfrwt>
<totfact> 0.51181523E+05</totfact>
</mgrwt>
</event>
<event>
 4    1  0.2196664E-002  0.4086888E+02  0.7818608E-02  0.1501913E+00
         -2   -1    0    0  501    0 -0.00000000000E+00  0.00000000000E+00  0.52052046558E+01  0.52052052805E+01  0.25500000000E-02 0. -1.
          2   -1    0    0    0  501  0.00000000000E+00 -0.00000000000E+00 -0.80220913278E+02  0.80220913318E+02  0.25500000000E-02 0. -1.
          2    1    1    2    0  502  0.12359254343E+02  0.15998264075E+02 -0.43733382668E+02  0.48179916848E+02  0.25500000000E-02 0. -1.
         -2    1    1    2  502    0 -0.12359254343E+02 -0.15998264075E+02 -0.31282325953E+02  0.37246201751E+02  0.25500000000E-02 0. -1.
<mgrwt>
<rscale>  0 0.40868878E+02</rscale>
<asrwt>0</asrwt>
<pdfrwt beam="2">  1        2 0.12341678E-01 0.40868878E+02</pdfrwt>
<pdfrwt beam="1">  1       -2 0.80080082E-03 0.40868878E+02</pdfrwt>
<totfact> 0.94025833E+05</totfact>
</mgrwt>
</event>
<event>
 4    1  0.2196664E-002  0.4404348E+02  0.7818608E-02  0.1480403E+00
          2   -1    0    0    0  501  0.00000000000E+00  0.00000000000E+00  0.33495863167E+02  0.33495863264E+02  0.25500000000E-02 0.  1.
         -2   -1    0    0  501    0 -0.00000000000E+00 -0.00000000000E+00 -0.14478113741E+02  0.14478113965E+02  0.25500000000E-02 0.  1.
          2    1    1    2    0  502  0.21129611395E+02 -0.26745321852E+01  0.34107453894E+01  0.21569580216E+02  0.25500000000E-02 0.  1.
         -2    1    1    2  502    0 -0.21129611395E+02  0.26745321852E+01  0.15607004037E+02  0.26404397013E+02  0.25500000000E-02 0.  1.
<mgrwt>
<rscale>  0 0.44043475E+02</rscale>
<asrwt>0</asrwt>
<pdfrwt beam="1">  1        2 0.51532097E-02 0.44043475E+02</pdfrwt>
<pdfrwt beam="2">  1       -2 0.22274022E-02 0.44043475E+02</pdfrwt>
<totfact> 0.66297365E+05</totfact>
</mgrwt>
</event>
<event>
 4    1  0.2196664E-002  0.9251462E+02  0.7818608E-02  0.1296874E+00
         -2   -1    0    0  501    0 -0.00000000000E+00  0.00000000000E+00  0.19739411544E+01  0.19739428015E+01  0.25500000000E-02 0. -1.
          2   -1    0    0    0  501  0.00000000000E+00 -0.00000000000E+00 -0.10839927879E+04  0.10839927879E+04  0.25500000000E-02 0. -1.
          2    1    1    2    0  502  0.37564820581E+02  0.19071268056E+02 -0.31677673056E+03  0.31956583991E+03  0.25500000000E-02 0.  1.
         -2    1    1    2  502    0 -0.37564820581E+02 -0.19071268056E+02 -0.76524211622E+03  0.76640089082E+03  0.25500000000E-02 0.  1.
<mgrwt>
<rscale>  0 0.92514623E+02</rscale>
<asrwt>0</asrwt>
<pdfrwt beam="2">  1        2 0.16676765E+00 0.92514623E+02</pdfrwt>
<pdfrwt beam="1">  1       -2 0.30368425E-03 0.92514623E+02</pdfrwt>
<totfact> 0.24085831E+05</totfact>
</mgrwt>
</event>
<event>
 4    1  0.2196664E-002  0.4392249E+02  0.7818608E-02  0.1481183E+00
         -2   -1    0    0  501    0 -0.00000000000E+00  0.00000000000E+00  0.79527262915E+01  0.79527267003E+01  0.25500000000E-02 0.  1.
          2   -1    0    0    0  501  0.00000000000E+00 -0.00000000000E+00 -0.60645402142E+02  0.60645402196E+02  0.25500000000E-02 0.  1.
          2    1    1    2    0  502  0.87729523984E+01  0.19882876378E+02 -0.21406795969E+02  0.30504825635E+02  0.25500000000E-02 0. -1.
         -2    1    1    2  502    0 -0.87729523984E+01 -0.19882876378E+02 -0.31285879882E+02  0.38093303261E+02  0.25500000000E-02 0. -1.
<mgrwt>
<rscale>  0 0.43922491E+02</rscale>
<asrwt>0</asrwt>
<pdfrwt beam="2">  1        2 0.93300616E-02 0.43922491E+02</pdfrwt>
<pdfrwt beam="1">  1       -2 0.12234964E-02 0.43922491E+02</pdfrwt>
<totfact> 0.74044144E+05</totfact>
</mgrwt>
</event>
<event>
 4    1  0.2196664E-002  0.3548262E+03  0.7818608E-02  0.1060651E+00
          2   -1    0    0    0  501  0.00000000000E+00  0.00000000000E+00  0.12183545085E+04  0.12183545085E+04  0.25500000000E-02 0. -1.
         -2   -1    0    0  501    0 -0.00000000000E+00 -0.00000000000E+00 -0.25834355590E+02  0.25834355716E+02  0.25500000000E-02 0. -1.
          2    1    1    2    0  502 -0.14456212704E+03  0.10242411917E+03  0.62887121462E+03  0.65335129398E+03  0.25500000000E-02 0. -1.
         -2    1    1    2  502    0  0.14456212704E+03 -0.10242411917E+03  0.56364893829E+03  0.59083757024E+03  0.25500000000E-02 0. -1.
<mgrwt>
<rscale>  0 0.35482618E+03</rscale>
<asrwt>0</asrwt>
<pdfrwt beam="1">  1        2 0.18743920E+00 0.35482618E+03</pdfrwt>
<pdfrwt beam="2">  1       -2 0.39745154E-02 0.35482618E+03</pdfrwt>
<totfact> 0.54337150E+03</totfact>
</mgrwt>
</event>
<event>
 4    1  0.2196664E-002  0.4520731E+02  0.7818608E-02  0.1473052E+00
          2   -1    0    0    0  501  0.00000000000E+00  0.00000000000E+00  0.60860842917E+01  0.60860848260E+01  0.25500000000E-02 0. -1.
         -2   -1    0    0  501    0 -0.00000000000E+00 -0.00000000000E+00 -0.83949723465E+02  0.83949723504E+02  0.25500000000E-02 0. -1.
          2    1    1    2    0  502 -0.14417399640E+02 -0.16915297886E+02 -0.30735532433E+02  0.37929693848E+02  0.25500000000E-02 0.  1.
         -2    1    1    2  502    0  0.14417399640E+02  0.16915297886E+02 -0.47128106741E+02  0.52106114482E+02  0.25500000000E-02 0.  1.
<mgrwt>
<rscale>  0 0.45207306E+02</rscale>
<asrwt>0</asrwt>
<pdfrwt beam="1">  1        2 0.93632077E-03 0.45207306E+02</pdfrwt>
<pdfrwt beam="2">  1       -2 0.12915341E-01 0.45207306E+02</pdfrwt>
<totfact> 0.46985668E+05</totfact>
</mgrwt>
</event>
<event>
 4    1  0.2196664E-002  0.4906437E+02  0.7818608E-02  0.1450454E+00
         -2   -1    0    0  501    0 -0.00000000000E+00  0.00000000000E+00  0.41153112050E+00  0.41153902080E+00  0.25500000000E-02 0.  1.
          2   -1    0    0    0  501  0.00000000000E+00 -0.00000000000E+00 -0.14623978894E+04  0.14623978894E+04  0.25500000000E-02 0.  1.
          2    1    1    2    0  502 -0.18378608819E+02  0.12842170049E+02 -0.43414690576E+03  0.43472546553E+03  0.25500000000E-02 0.  1.
         -2    1    1    2  502    0  0.18378608819E+02 -0.12842170049E+02 -0.10278394525E+04  0.10280839629E+04  0.25500000000E-02 0.  1.
<mgrwt>
<rscale>  0 0.49064367E+02</rscale>
<asrwt>0</asrwt>
<pdfrwt beam="2">  1        2 0.22498013E+00 0.49064367E+02</pdfrwt>
<pdfrwt beam="1">  1       -2 0.63314259E-04 0.49064367E+02</pdfrwt>
<totfact> 0.11585214E+06</totfact>
</mgrwt>
</event>
<event>
 4    1  0.2196664E-002  0.6152503E+02  0.7818608E-02  0.1391541E+00
         -2   -1    0    0  501    0 -0.00000000000E+00  0.00000000000E+00  0.20812120157E+01  0.20812135779E+01  0.25500000000E-02 0. -1.
          2   -1    0    0    0  501  0.00000000000E+00 -0.00000000000E+00 -0.45470228076E+03  0.45470228077E+03  0.25500000000E-02 0. -1.
          2    1    1    2    0  502 -0.22332437478E+02 -0.15180063980E+02 -0.11690265292E+03  0.11998084169E+03  0.25500000000E-02 0. -1.
         -2    1    1    2  502    0  0.22332437478E+02  0.15180063980E+02 -0.33571841582E+03  0.33680265266E+03  0.25500000000E-02 0. -1.
<mgrwt>
<rscale>  0 0.61525026E+02</rscale>
<asrwt>0</asrwt>
<pdfrwt beam="2">  1        2 0.69954118E-01 0.61525026E+02</pdfrwt>
<pdfrwt beam="1">  1       -2 0.32018695E-03 0.61525026E+02</pdfrwt>
<totfact> 0.57932650E+05</totfact>
</mgrwt>
</event>
<event>
 4    1  0.2196664E-002  0.4918181E+02  0.7818608E-02  0.1449805E+00
          2   -1    0    0    0  501  0.00000000000E+00  0.00000000000E+00  0.10612142781E+03  0.10612142784E+03  0.25500000000E-02 0. -1.
         -2   -1    0    0  501    0 -0.00000000000E+00 -0.00000000000E+00 -0.56983077062E+01  0.56983082768E+01  0.25500000000E-02 0. -1.
          2    1    1    2    0  502 -0.11821419826E+02  0.19815854126E+02  0.30879474221E+02  0.38548099514E+02  0.25500000000E-02 0. -1.
         -2    1    1    2  502    0  0.11821419826E+02 -0.19815854126E+02  0.69543645880E+02  0.73271636602E+02  0.25500000000E-02 0. -1.
<mgrwt>
<rscale>  0 0.49181809E+02</rscale>
<asrwt>0</asrwt>
<pdfrwt beam="1">  1        2 0.16326372E-01 0.49181809E+02</pdfrwt>
<pdfrwt beam="2">  1       -2 0.87666284E-03 0.49181809E+02</pdfrwt>
<totfact> 0.63406780E+05</totfact>
</mgrwt>
</event>
<event>
 4    1  0.2196664E-002  0.4661635E+02  0.7818608E-02  0.1464496E+00
         -2   -1    0    0  501    0 -0.00000000000E+00  0.00000000000E+00  0.27652199956E+01  0.27652211714E+01  0.25500000000E-02 0.  1.
          2   -1    0    0    0  501  0.00000000000E+00 -0.00000000000E+00 -0.19646574269E+03  0.19646574270E+03  0.25500000000E-02 0.  1.
          2    1    1    2    0  502  0.20023407824E+02  0.15281168403E+01 -0.14741888920E+03  0.14878037808E+03  0.25500000000E-02 0. -1.
         -2    1    1    2  502    0 -0.20023407824E+02 -0.15281168403E+01 -0.46281633492E+02  0.50450585796E+02  0.25500000000E-02 0. -1.
<mgrwt>
<rscale>  0 0.46616354E+02</rscale>
<asrwt>0</asrwt>
<pdfrwt beam="2">  1        2 0.30225488E-01 0.46616354E+02</pdfrwt>
<pdfrwt beam="1">  1       -2 0.42541871E-03 0.46616354E+02</pdfrwt>
<totfact> 0.87153023E+05</totfact>
</mgrwt>
</event>
<event>
 4    1  0.2196664E-002  0.6025565E+02  0.7818608E-02  0.1396762E+00
         -2   -1    0    0  501    0 -0.00000000000E+00  0.00000000000E+00  0.33629555926E+01  0.33629565594E+01  0.25500000000E-02 0.  1.
          2   -1    0    0    0  501  0.00000000000E+00 -0.00000000000E+00 -0.26990711547E+03  0.26990711548E+03  0.25500000000E-02 0.  1.
          2    1    1    2    0  502 -0.24133385413E+02  0.94034891531E+01 -0.63477496706E+02  0.68558285380E+02  0.25500000000E-02 0. -1.
         -2    1    1    2  502    0  0.24133385413E+02 -0.94034891531E+01 -0.20306666317E+03  0.20471178666E+03  0.25500000000E-02 0. -1.
<mgrwt>
<rscale>  0 0.60255648E+02</rscale>
<asrwt>0</asrwt>
<pdfrwt beam="2">  1        2 0.41524155E-01 0.60255648E+02</pdfrwt>
<pdfrwt beam="1">  1       -2 0.51737807E-03 0.60255648E+02</pdfrwt>
<totfact> 0.50936485E+05</totfact>
</mgrwt>
</event>
<event>
 4    1  0.2196664E-002  0.9250086E+02  0.7818608E-02  0.1296906E+00
          2   -1    0    0    0  501  0.00000000000E+00  0.00000000000E+00  0.10020070699E+04  0.10020070699E+04  0.25500000000E-02 0.  1.
         -2   -1    0    0  501    0 -0.00000000000E+00 -0.00000000000E+00 -0.21348169258E+01  0.21348184488E+01  0.25500000000E-02 0.  1.
          2    1    1    2    0  502 -0.34742699527E+02 -0.65693795814E+01  0.82358450094E+03  0.82434315798E+03  0.25500000000E-02 0.  1.
         -2    1    1    2  502    0  0.34742699527E+02  0.65693795814E+01  0.17628775203E+03  0.17979873036E+03  0.25500000000E-02 0.  1.
<mgrwt>
<rscale>  0 0.92500863E+02</rscale>
<asrwt>0</asrwt>
<pdfrwt beam="1">  1        2 0.15415527E+00 0.92500863E+02</pdfrwt>
<pdfrwt beam="2">  1       -2 0.32843277E-03 0.92500863E+02</pdfrwt>
<totfact> 0.24071511E+05</totfact>
</mgrwt>
</event>
<event>
 4    1  0.2196664E-002  0.4815916E+02  0.7818608E-02  0.1455531E+00
          2   -1    0    0    0  501  0.00000000000E+00  0.00000000000E+00  0.85299671684E+03  0.85299671684E+03  0.25500000000E-02 0.  1.
         -2   -1    0    0  501    0 -0.00000000000E+00 -0.00000000000E+00 -0.67974942049E+00  0.67975420349E+00  0.25500000000E-02 0.  1.
          2    1    1    2    0  502 -0.68237336987E+01  0.22874267097E+02  0.37001770667E+03  0.37078686424E+03  0.25500000000E-02 0. -1.
         -2    1    1    2  502    0  0.68237336987E+01 -0.22874267097E+02  0.48229926075E+03  0.48288960680E+03  0.25500000000E-02 0. -1.
<mgrwt>
<rscale>  0 0.48159156E+02</rscale>
<asrwt>0</asrwt>
<pdfrwt beam="1">  1        2 0.13123044E+00 0.48159156E+02</pdfrwt>
<pdfrwt beam="2">  1       -2 0.10457706E-03 0.48159156E+02</pdfrwt>
<totfact> 0.12512590E+06</totfact>
</mgrwt>
</event>
<event>
 4    1  0.2196664E-002  0.4421909E+02  0.7818608E-02  0.1479276E+00
         -2   -1    0    0  501    0 -0.00000000000E+00  0.00000000000E+00  0.65545270167E+00  0.65545766197E+00  0.25500000000E-02 0.  1.
          2   -1    0    0    0  501  0.00000000000E+00 -0.00000000000E+00 -0.74579003998E+03  0.74579003998E+03  0.25500000000E-02 0.  1.
          2    1    1    2    0  502  0.43141153461E+01  0.20139063923E+02 -0.50828415357E+03  0.50870126230E+03  0.25500000000E-02 0. -1.
         -2    1    1    2  502    0 -0.43141153461E+01 -0.20139063923E+02 -0.23685043370E+03  0.23774423534E+03  0.25500000000E-02 0. -1.
<mgrwt>
<rscale>  0 0.44219089E+02</rscale>
<asrwt>0</asrwt>
<pdfrwt beam="2">  1        2 0.11473625E+00 0.44219089E+02</pdfrwt>
<pdfrwt beam="1">  1       -2 0.10083986E-03 0.44219089E+02</pdfrwt>
<totfact> 0.15067920E+06</totfact>
</mgrwt>
</event>
<event>
 4    1  0.2196664E-002  0.4690855E+02  0.7818608E-02  0.1462767E+00
          2   -1    0    0    0  501  0.00000000000E+00  0.00000000000E+00  0.41243420525E+03  0.41243420525E+03  0.25500000000E-02 0.  1.
         -2   -1    0    0  501    0 -0.00000000000E+00 -0.00000000000E+00 -0.13337947266E+01  0.13337971642E+01  0.25500000000E-02 0.  1.
          2    1    1    2    0  502  0.48816677825E+01 -0.22608735815E+02  0.23984626048E+03  0.24095894731E+03  0.25500000000E-02 0.  1.
         -2    1    1    2  502    0 -0.48816677825E+01  0.22608735815E+02  0.17125415004E+03  0.17280905511E+03  0.25500000000E-02 0.  1.
<mgrwt>
<rscale>  0 0.46908552E+02</rscale>
<asrwt>0</asrwt>
<pdfrwt beam="1">  1        2 0.63451391E-01 0.46908552E+02</pdfrwt>
<pdfrwt beam="2">  1       -2 0.20519946E-03 0.46908552E+02</pdfrwt>
<totfact> 0.11049714E+06</totfact>
</mgrwt>
</event>
<event>
 4    1  0.2196664E-002  0.6025467E+02  0.7818608E-02  0.1396766E+00
          2   -1    0    0    0  501  0.00000000000E+00  0.00000000000E+00  0.19856591043E+03  0.19856591045E+03  0.25500000000E-02 0.  1.
         -2   -1    0    0  501    0 -0.00000000000E+00 -0.00000000000E+00 -0.45710571304E+01  0.45710578417E+01  0.25500000000E-02 0.  1.
          2    1    1    2    0  502  0.37447610400E+01  0.27158763785E+02  0.54885161380E+02  0.61351468049E+02  0.25500000000E-02 0.  1.
         -2    1    1    2  502    0 -0.37447610400E+01 -0.27158763785E+02  0.13910969192E+03  0.14178550024E+03  0.25500000000E-02 0.  1.
<mgrwt>
<rscale>  0 0.60254666E+02</rscale>
<asrwt>0</asrwt>
<pdfrwt beam="1">  1        2 0.30548597E-01 0.60254666E+02</pdfrwt>
<pdfrwt beam="2">  1       -2 0.70323971E-03 0.60254666E+02</pdfrwt>
<totfact> 0.45786375E+05</totfact>
</mgrwt>
</event>
<event>
 4    1  0.2196664E-002  0.4262636E+02  0.7818608E-02  0.1489728E+00
         -2   -1    0    0  501    0 -0.00000000000E+00  0.00000000000E+00  0.12713877984E+01  0.12713903557E+01  0.25500000000E-02 0.  1.
          2   -1    0    0    0  501  0.00000000000E+00 -0.00000000000E+00 -0.35728770091E+03  0.35728770092E+03  0.25500000000E-02 0.  1.
          2    1    1    2    0  502 -0.52654817970E+01 -0.20652231721E+02 -0.17891815278E+03  0.18018308848E+03  0.25500000000E-02 0. -1.
         -2    1    1    2  502    0  0.52654817970E+01  0.20652231721E+02 -0.17709816033E+03  0.17837600279E+03  0.25500000000E-02 0. -1.
<mgrwt>
<rscale>  0 0.42626362E+02</rscale>
<asrwt>0</asrwt>
<pdfrwt beam="2">  1        2 0.54967259E-01 0.42626362E+02</pdfrwt>
<pdfrwt beam="1">  1       -2 0.19559860E-03 0.42626362E+02</pdfrwt>
<totfact> 0.13307035E+06</totfact>
</mgrwt>
</event>
<event>
 4    1  0.2196664E-002  0.7565092E+02  0.7818608E-02  0.1341867E+00
         -2   -1    0    0  501    0 -0.00000000000E+00  0.00000000000E+00  0.37292322677E+01  0.37292331395E+01  0.25500000000E-02 0. -1.
          2   -1    0    0    0  501  0.00000000000E+00 -0.00000000000E+00 -0.38366210601E+03  0.38366210602E+03  0.25500000000E-02 0. -1.
          2    1    1    2    0  502  0.51295587282E+01 -0.25560903148E+02 -0.33030680442E+03  0.33133405680E+03  0.25500000000E-02 0. -1.
         -2    1    1    2  502    0 -0.51295587282E+01  0.25560903148E+02 -0.49626069320E+02  0.56057282357E+02  0.25500000000E-02 0. -1.
<mgrwt>
<rscale>  0 0.75650916E+02</rscale>
<asrwt>0</asrwt>
<pdfrwt beam="2">  1        2 0.59024908E-01 0.75650916E+02</pdfrwt>
<pdfrwt beam="1">  1       -2 0.57372841E-03 0.75650916E+02</pdfrwt>
<totfact> 0.32129204E+05</totfact>
</mgrwt>
</event>
<event>
 4    1  0.2196664E-002  0.4221839E+02  0.7818608E-02  0.1492493E+00
          2   -1    0    0    0  501  0.00000000000E+00  0.00000000000E+00  0.14227666862E+04  0.14227666862E+04  0.25500000000E-02 0. -1.
         -2   -1    0    0  501    0 -0.00000000000E+00 -0.00000000000E+00 -0.31318603881E+00  0.31319641984E+00  0.25500000000E-02 0. -1.
          2    1    1    2    0  502  0.19571756445E+02 -0.75601715871E+01  0.78947046729E+03  0.78974921878E+03  0.25500000000E-02 0. -1.
         -2    1    1    2  502    0 -0.19571756445E+02  0.75601715871E+01  0.63298303287E+03  0.63333066383E+03  0.25500000000E-02 0. -1.
<mgrwt>
<rscale>  0 0.42218387E+02</rscale>
<asrwt>0</asrwt>
<pdfrwt beam="1">  1        2 0.21888540E+00 0.42218387E+02</pdfrwt>
<pdfrwt beam="2">  1       -2 0.48183660E-04 0.42218387E+02</pdfrwt>
<totfact> 0.16885069E+06</totfact>
</mgrwt>
</event>
<event>
 4    1  0.2196664E-002  0.5745394E+02  0.7818608E-02  0.1408838E+00
          2   -1    0    0    0  501  0.00000000000E+00  0.00000000000E+00  0.57434142710E+02  0.57434142767E+02  0.25500000000E-02 0.  1.
         -2   -1    0    0  501    0 -0.00000000000E+00 -0.00000000000E+00 -0.14368438282E+02  0.14368438508E+02  0.25500000000E-02 0.  1.
          2    1    1    2    0  502  0.25293408294E+02 -0.33222121610E+00  0.45174449963E+01  0.25695801016E+02  0.25500000000E-02 0. -1.
         -2    1    1    2  502    0 -0.25293408294E+02  0.33222121610E+00  0.38548259432E+02  0.46106780258E+02  0.25500000000E-02 0. -1.
<mgrwt>
<rscale>  0 0.57453945E+02</rscale>
<asrwt>0</asrwt>
<pdfrwt beam="1">  1        2 0.88360218E-02 0.57453945E+02</pdfrwt>
<pdfrwt beam="2">  1       -2 0.22105290E-02 0.57453945E+02</pdfrwt>
<totfact> 0.36772231E+05</totfact>
</mgrwt>
</event>
<event>
 4    1  0.2196664E-002  0.5891245E+02  0.7818608E-02  0.1402453E+00
          2   -1    0    0    0  501  0.00000000000E+00  0.00000000000E+00  0.10710803521E+03  0.10710803524E+03  0.25500000000E-02 0.  1.
         -2   -1    0    0  501    0 -0.00000000000E+00 -0.00000000000E+00 -0.81008776190E+01  0.81008780203E+01  0.25500000000E-02 0.  1.
          2    1    1    2    0  502 -0.14679437248E+02 -0.25399446256E+02  0.54696542948E+02  0.62067137560E+02  0.25500000000E-02 0. -1.
         -2    1    1    2  502    0  0.14679437248E+02  0.25399446256E+02  0.44310614645E+02  0.53141775702E+02  0.25500000000E-02 0. -1.
<mgrwt>
<rscale>  0 0.58912447E+02</rscale>
<asrwt>0</asrwt>
<pdfrwt beam="1">  1        2 0.16478159E-01 0.58912447E+02</pdfrwt>
<pdfrwt beam="2">  1       -2 0.12462890E-02 0.58912447E+02</pdfrwt>
<totfact> 0.40081504E+05</totfact>
</mgrwt>
</event>
<event>
 4    1  0.2196664E-002  0.5690976E+02  0.7818608E-02  0.1411277E+00
          2   -1    0    0    0  501  0.00000000000E+00  0.00000000000E+00  0.12785397860E+03  0.12785397862E+03  0.25500000000E-02 0. -1.
         -2   -1    0    0  501    0 -0.00000000000E+00 -0.00000000000E+00 -0.63328511346E+01  0.63328516480E+01  0.25500000000E-02 0. -1.
          2    1    1    2    0  502 -0.11023977312E+02  0.22763432998E+02  0.30019432296E+02  0.39253895087E+02  0.25500000000E-02 0.  1.
         -2    1    1    2  502    0  0.11023977312E+02 -0.22763432998E+02  0.91501695169E+02  0.94932935185E+02  0.25500000000E-02 0.  1.
<mgrwt>
<rscale>  0 0.56909762E+02</rscale>
<asrwt>0</asrwt>
<pdfrwt beam="1">  1        2 0.19669843E-01 0.56909762E+02</pdfrwt>
<pdfrwt beam="2">  1       -2 0.97428485E-03 0.56909762E+02</pdfrwt>
<totfact> 0.46082254E+05</totfact>
</mgrwt>
</event>
<event>
 4    1  0.2196664E-002  0.5327926E+02  0.7818608E-02  0.1428416E+00
         -2   -1    0    0  501    0 -0.00000000000E+00  0.00000000000E+00  0.88048263665E+01  0.88048267357E+01  0.25500000000E-02 0. -1.
          2   -1    0    0    0  501  0.00000000000E+00 -0.00000000000E+00 -0.80600098183E+02  0.80600098223E+02  0.25500000000E-02 0. -1.
          2    1    1    2    0  502 -0.23592714945E+02 -0.11883260659E+02 -0.41672105542E+02  0.49339562921E+02  0.25500000000E-02 0. -1.
         -2    1    1    2  502    0  0.23592714945E+02  0.11883260659E+02 -0.30123166274E+02  0.40065362038E+02  0.25500000000E-02 0. -1.
<mgrwt>
<rscale>  0 0.53279260E+02</rscale>
<asrwt>0</asrwt>
<pdfrwt beam="2">  1        2 0.12400015E-01 0.53279260E+02</pdfrwt>
<pdfrwt beam="1">  1       -2 0.13545888E-02 0.53279260E+02</pdfrwt>
<totfact> 0.48254056E+05</totfact>
</mgrwt>
</event>
<event>
 4    1  0.2196664E-002  0.4566784E+02  0.7818608E-02  0.1470215E+00
          2   -1    0    0    0  501  0.00000000000E+00  0.00000000000E+00  0.35987060246E+03  0.35987060246E+03  0.25500000000E-02 0. -1.
         -2   -1    0    0  501    0 -0.00000000000E+00 -0.00000000000E+00 -0.14488191567E+01  0.14488214008E+01  0.25500000000E-02 0. -1.
          2    1    1    2    0  502 -0.18307468988E+02 -0.13491925715E+02  0.16301110572E+03  0.16458984195E+03  0.25500000000E-02 0. -1.
         -2    1    1    2  502    0  0.18307468988E+02  0.13491925715E+02  0.19541067758E+03  0.19672958191E+03  0.25500000000E-02 0. -1.
<mgrwt>
<rscale>  0 0.45667837E+02</rscale>
<asrwt>0</asrwt>
<pdfrwt beam="1">  1        2 0.55364717E-01 0.45667837E+02</pdfrwt>
<pdfrwt beam="2">  1       -2 0.22289539E-03 0.45667837E+02</pdfrwt>
<totfact> 0.11270737E+06</totfact>
</mgrwt>
</event>
<event>
 4    1  0.2196664E-002  0.5331757E+02  0.7818608E-02  0.1428227E+00
         -2   -1    0    0  501    0 -0.00000000000E+00  0.00000000000E+00  0.34131182356E+01  0.34131191882E+01  0.25500000000E-02 0.  1.
          2   -1    0    0    0  501  0.00000000000E+00 -0.00000000000E+00 -0.20822327177E+03  0.20822327178E+03  0.25500000000E-02 0.  1.
          2    1    1    2    0  502 -0.22157810231E+02  0.11965975984E+02 -0.13713129245E+03  0.13942433257E+03  0.25500000000E-02 0.  1.
         -2    1    1    2  502    0  0.22157810231E+02 -0.11965975984E+02 -0.67678861078E+02  0.72212058404E+02  0.25500000000E-02 0.  1.
<mgrwt>
<rscale>  0 0.53317567E+02</rscale>
<asrwt>0</asrwt>
<pdfrwt beam="2">  1        2 0.32034340E-01 0.53317567E+02</pdfrwt>
<pdfrwt beam="1">  1       -2 0.52509535E-03 0.53317567E+02</pdfrwt>
<totfact> 0.63493710E+05</totfact>
</mgrwt>
</event>
<event>
 4    1  0.2196664E-002  0.1694963E+03  0.7818608E-02  0.1178374E+00
          2   -1    0    0    0  501  0.00000000000E+00  0.00000000000E+00  0.22878239557E+04  0.22878239557E+04  0.25500000000E-02 0.  1.
         -2   -1    0    0  501    0 -0.00000000000E+00 -0.00000000000E+00 -0.31393348129E+01  0.31393358485E+01  0.25500000000E-02 0.  1.
          2    1    1    2    0  502  0.61575365456E+02  0.54508867735E+02  0.86550400862E+03  0.86940205385E+03  0.25500000000E-02 0. -1.
         -2    1    1    2  502    0 -0.61575365456E+02 -0.54508867735E+02  0.14191806122E+04  0.14215612377E+04  0.25500000000E-02 0. -1.
<mgrwt>
<rscale>  0 0.16949627E+03</rscale>
<asrwt>0</asrwt>
<pdfrwt beam="1">  1        2 0.35197432E+00 0.16949627E+03</pdfrwt>
<pdfrwt beam="2">  1       -2 0.48297274E-03 0.16949627E+03</pdfrwt>
<totfact> 0.31270985E+04</totfact>
</mgrwt>
</event>
<event>
 4    1  0.2196664E-002  0.4367478E+02  0.7818608E-02  0.1482788E+00
         -2   -1    0    0  501    0 -0.00000000000E+00  0.00000000000E+00  0.82284862063E+00  0.82285257183E+00  0.25500000000E-02 0.  1.
          2   -1    0    0    0  501  0.00000000000E+00 -0.00000000000E+00 -0.57953600305E+03  0.57953600306E+03  0.25500000000E-02 0.  1.
          2    1    1    2    0  502 -0.17869500679E+02  0.12551966811E+02 -0.28902649021E+03  0.28985027683E+03  0.25500000000E-02 0.  1.
         -2    1    1    2  502    0  0.17869500679E+02 -0.12551966811E+02 -0.28968666422E+03  0.29050857880E+03  0.25500000000E-02 0.  1.
<mgrwt>
<rscale>  0 0.43674778E+02</rscale>
<asrwt>0</asrwt>
<pdfrwt beam="2">  1        2 0.89159059E-01 0.43674778E+02</pdfrwt>
<pdfrwt beam="1">  1       -2 0.12659286E-03 0.43674778E+02</pdfrwt>
<totfact> 0.14613881E+06</totfact>
</mgrwt>
</event>
<event>
 4    1  0.2196664E-002  0.5618122E+02  0.7818608E-02  0.1414594E+00
         -2   -1    0    0  501    0 -0.00000000000E+00  0.00000000000E+00  0.17658064430E+02  0.17658064614E+02  0.25500000000E-02 0.  1.
          2   -1    0    0    0  501  0.00000000000E+00 -0.00000000000E+00 -0.44686803391E+02  0.44686803464E+02  0.25500000000E-02 0.  1.
          2    1    1    2    0  502 -0.26418168199E+02  0.79412451983E+01 -0.76319150279E+01  0.28622178809E+02  0.25500000000E-02 0.  1.
         -2    1    1    2  502    0  0.26418168199E+02 -0.79412451983E+01 -0.19396823933E+02  0.33722689269E+02  0.25500000000E-02 0.  1.
<mgrwt>
<rscale>  0 0.56181223E+02</rscale>
<asrwt>0</asrwt>
<pdfrwt beam="2">  1        2 0.68748928E-02 0.56181223E+02</pdfrwt>
<pdfrwt beam="1">  1       -2 0.27166253E-02 0.56181223E+02</pdfrwt>
<totfact> 0.37076891E+05</totfact>
</mgrwt>
</event>
<event>
 4    1  0.2196664E-002  0.5533132E+02  0.7818608E-02  0.1418539E+00
          2   -1    0    0    0  501  0.00000000000E+00  0.00000000000E+00  0.64240837655E+03  0.64240837656E+03  0.25500000000E-02 0. -1.
         -2   -1    0    0  501    0 -0.00000000000E+00 -0.00000000000E+00 -0.11914350557E+01  0.11914377845E+01  0.25500000000E-02 0. -1.
          2    1    1    2    0  502  0.22215885199E+02  0.11721212344E+02  0.18573219867E+03  0.18742300286E+03  0.25500000000E-02 0. -1.
         -2    1    1    2  502    0 -0.22215885199E+02 -0.11721212344E+02  0.45548474283E+03  0.45617681148E+03  0.25500000000E-02 0. -1.
<mgrwt>
<rscale>  0 0.55331320E+02</rscale>
<asrwt>0</asrwt>
<pdfrwt beam="1">  1        2 0.98832262E-01 0.55331320E+02</pdfrwt>
<pdfrwt beam="2">  1       -2 0.18329753E-03 0.55331320E+02</pdfrwt>
<totfact> 0.83823318E+05</totfact>
</mgrwt>
</event>
<event>
 4    1  0.2196664E-002  0.9937140E+02  0.7818608E-02  0.1281623E+00
         -2   -1    0    0  501    0 -0.00000000000E+00  0.00000000000E+00  0.17103874475E+01  0.17103893484E+01  0.25500000000E-02 0. -1.
          2   -1    0    0    0  501  0.00000000000E+00 -0.00000000000E+00 -0.14433381260E+04  0.14433381260E+04  0.25500000000E-02 0. -1.
          2    1    1    2    0  502  0.43302411560E+02  0.16509243026E+02 -0.46026837503E+03  0.46259553717E+03  0.25500000000E-02 0.  1.
         -2    1    1    2  502    0 -0.43302411560E+02 -0.16509243026E+02 -0.98135936352E+03  0.98245297818E+03  0.25500000000E-02 0.  1.
<mgrwt>
<rscale>  0 0.99371400E+02</rscale>
<asrwt>0</asrwt>
<pdfrwt beam="2">  1        2 0.22205105E+00 0.99371400E+02</pdfrwt>
<pdfrwt beam="1">  1       -2 0.26313783E-03 0.99371400E+02</pdfrwt>
<totfact> 0.19048032E+05</totfact>
</mgrwt>
</event>
<event>
 4    1  0.2196664E-002  0.6553811E+02  0.7818608E-02  0.1375959E+00
         -2   -1    0    0  501    0 -0.00000000000E+00  0.00000000000E+00  0.64280129673E+00  0.64280635465E+00  0.25500000000E-02 0.  1.
          2   -1    0    0    0  501  0.00000000000E+00 -0.00000000000E+00 -0.16705112268E+04  0.16705112268E+04  0.25500000000E-02 0.  1.
          2    1    1    2    0  502 -0.18218199219E+02 -0.27235193172E+02 -0.84489103883E+03  0.84552618294E+03  0.25500000000E-02 0.  1.
         -2    1    1    2  502    0  0.18218199219E+02  0.27235193172E+02 -0.82497738671E+03  0.82562785026E+03  0.25500000000E-02 0.  1.
<mgrwt>
<rscale>  0 0.65538111E+02</rscale>
<asrwt>0</asrwt>
<pdfrwt beam="2">  1        2 0.25699825E+00 0.65538111E+02</pdfrwt>
<pdfrwt beam="1">  1       -2 0.98894234E-04 0.65538111E+02</pdfrwt>
<totfact> 0.52881351E+05</totfact>
</mgrwt>
</event>
<event>
 4    1  0.2196664E-002  0.4320825E+02  0.7818608E-02  0.1485847E+00
         -2   -1    0    0  501    0 -0.00000000000E+00  0.00000000000E+00  0.63186584095E+00  0.63187098640E+00  0.25500000000E-02 0.  1.
          2   -1    0    0    0  501  0.00000000000E+00 -0.00000000000E+00 -0.73866357305E+03  0.73866357305E+03  0.25500000000E-02 0.  1.
          2    1    1    2    0  502 -0.20947389857E+02 -0.40532780463E+00 -0.27883313815E+03  0.27961916310E+03  0.25500000000E-02 0.  1.
         -2    1    1    2  502    0  0.20947389857E+02  0.40532780463E+00 -0.45919856905E+03  0.45967628094E+03  0.25500000000E-02 0.  1.
<mgrwt>
<rscale>  0 0.43208248E+02</rscale>
<asrwt>0</asrwt>
<pdfrwt beam="2">  1        2 0.11363986E+00 0.43208248E+02</pdfrwt>
<pdfrwt beam="1">  1       -2 0.97211116E-04 0.43208248E+02</pdfrwt>
<totfact> 0.15907150E+06</totfact>
</mgrwt>
</event>
<event>
 4    1  0.2196664E-002  0.4373148E+02  0.7818608E-02  0.1482420E+00
         -2   -1    0    0  501    0 -0.00000000000E+00  0.00000000000E+00  0.37535336552E+00  0.37536202726E+00  0.25500000000E-02 0.  1.
          2   -1    0    0    0  501  0.00000000000E+00 -0.00000000000E+00 -0.12737465955E+04  0.12737465955E+04  0.25500000000E-02 0.  1.
          2    1    1    2    0  502  0.21749022805E+02 -0.22493151477E+01 -0.63154155725E+03  0.63191994584E+03  0.25500000000E-02 0. -1.
         -2    1    1    2  502    0 -0.21749022805E+02  0.22493151477E+01 -0.64182968490E+03  0.64220201171E+03  0.25500000000E-02 0. -1.
<mgrwt>
<rscale>  0 0.43731480E+02</rscale>
<asrwt>0</asrwt>
<pdfrwt beam="2">  1        2 0.19595755E+00 0.43731480E+02</pdfrwt>
<pdfrwt beam="1">  1       -2 0.57748358E-04 0.43731480E+02</pdfrwt>
<totfact> 0.15878846E+06</totfact>
</mgrwt>
</event>
<event>
 4    1  0.2196664E-002  0.1689626E+03  0.7818608E-02  0.1178934E+00
         -2   -1    0    0  501    0 -0.00000000000E+00  0.00000000000E+00  0.15959017377E+03  0.15959017379E+03  0.25500000000E-02 0. -1.
          2   -1    0    0    0  501  0.00000000000E+00 -0.00000000000E+00 -0.44721352184E+02  0.44721352257E+02  0.25500000000E-02 0. -1.
          2    1    1    2    0  502 -0.57222493898E+02  0.59956660563E+02  0.77225383612E+02  0.11328272081E+03  0.25500000000E-02 0. -1.
         -2    1    1    2  502    0  0.57222493898E+02 -0.59956660563E+02  0.37643437974E+02  0.91028805237E+02  0.25500000000E-02 0. -1.
<mgrwt>
<rscale>  0 0.16896258E+03</rscale>
<asrwt>0</asrwt>
<pdfrwt beam="2">  1        2 0.68802080E-02 0.16896258E+03</pdfrwt>
<pdfrwt beam="1">  1       -2 0.24552335E-01 0.16896258E+03</pdfrwt>
<totfact> 0.14411355E+04</totfact>
</mgrwt>
</event>
<event>
 4    1  0.2196664E-002  0.4060985E+02  0.7818608E-02  0.1503771E+00
         -2   -1    0    0  501    0 -0.00000000000E+00  0.00000000000E+00  0.14190766699E+01  0.14190789610E+01  0.25500000000E-02 0. -1.
          2   -1    0    0    0  501  0.00000000000E+00 -0.00000000000E+00 -0.29053373530E+03  0.29053373531E+03  0.25500000000E-02 0. -1.
          2    1    1    2    0  502  0.94635817664E+01 -0.17795468251E+02 -0.16224323611E+03  0.16349038424E+03  0.25500000000E-02 0. -1.
         -2    1    1    2  502    0 -0.94635817664E+01  0.17795468251E+02 -0.12687142253E+03  0.12846243003E+03  0.25500000000E-02 0. -1.
<mgrwt>
<rscale>  0 0.40609850E+02</rscale>
<asrwt>0</asrwt>
<pdfrwt beam="2">  1        2 0.44697451E-01 0.40609850E+02</pdfrwt>
<pdfrwt beam="1">  1       -2 0.21831990E-03 0.40609850E+02</pdfrwt>
<totfact> 0.13949339E+06</totfact>
</mgrwt>
</event>
<event>
 4    1  0.2196664E-002  0.2284008E+03  0.7818608E-02  0.1127770E+00
          2   -1    0    0    0  501  0.00000000000E+00  0.00000000000E+00  0.34715123045E+03  0.34715123046E+03  0.25500000000E-02 0. -1.
         -2   -1    0    0  501    0 -0.00000000000E+00 -0.00000000000E+00 -0.37567863550E+02  0.37567863637E+02  0.25500000000E-02 0. -1.
          2    1    1    2    0  502 -0.92533210258E+02  0.36987737323E+02  0.24874520511E+03  0.26796392441E+03  0.25500000000E-02 0. -1.
         -2    1    1    2  502    0  0.92533210258E+02 -0.36987737323E+02  0.60838161795E+02  0.11675516969E+03  0.25500000000E-02 0. -1.
<mgrwt>
<rscale>  0 0.22840079E+03</rscale>
<asrwt>0</asrwt>
<pdfrwt beam="1">  1        2 0.53407882E-01 0.22840079E+03</pdfrwt>
<pdfrwt beam="2">  1       -2 0.57796713E-02 0.22840079E+03</pdfrwt>
<totfact> 0.14323742E+04</totfact>
</mgrwt>
</event>
<event>
 4    1  0.2196664E-002  0.4773174E+02  0.7818608E-02  0.1457974E+00
         -2   -1    0    0  501    0 -0.00000000000E+00  0.00000000000E+00  0.64439554930E+00  0.64440059471E+00  0.25500000000E-02 0. -1.
          2   -1    0    0    0  501  0.00000000000E+00 -0.00000000000E+00 -0.88389434983E+03  0.88389434984E+03  0.25500000000E-02 0. -1.
          2    1    1    2    0  502 -0.79127764892E+01 -0.18992961975E+02 -0.21752825894E+03  0.21849917180E+03  0.25500000000E-02 0.  1.
         -2    1    1    2  502    0  0.79127764892E+01  0.18992961975E+02 -0.66572169535E+03  0.66603957863E+03  0.25500000000E-02 0.  1.
<mgrwt>
<rscale>  0 0.47731743E+02</rscale>
<asrwt>0</asrwt>
<pdfrwt beam="2">  1        2 0.13598278E+00 0.47731743E+02</pdfrwt>
<pdfrwt beam="1">  1       -2 0.99138872E-04 0.47731743E+02</pdfrwt>
<totfact> 0.12847953E+06</totfact>
</mgrwt>
</event>
<event>
 4    1  0.2196664E-002  0.4672663E+02  0.7818608E-02  0.1463842E+00
         -2   -1    0    0  501    0 -0.00000000000E+00  0.00000000000E+00  0.97299319929E+00  0.97299654077E+00  0.25500000000E-02 0.  1.
          2   -1    0    0    0  501  0.00000000000E+00 -0.00000000000E+00 -0.56099418662E+03  0.56099418663E+03  0.25500000000E-02 0.  1.
          2    1    1    2    0  502 -0.15898032765E+02 -0.14232209449E+02 -0.16557274417E+03  0.16694201643E+03  0.25500000000E-02 0.  1.
         -2    1    1    2  502    0  0.15898032765E+02  0.14232209449E+02 -0.39444844925E+03  0.39502516674E+03  0.25500000000E-02 0.  1.
<mgrwt>
<rscale>  0 0.46726629E+02</rscale>
<asrwt>0</asrwt>
<pdfrwt beam="2">  1        2 0.86306540E-01 0.46726629E+02</pdfrwt>
<pdfrwt beam="1">  1       -2 0.14969197E-03 0.46726629E+02</pdfrwt>
<totfact> 0.12280236E+06</totfact>
</mgrwt>
</event>
<event>
 4    1  0.2196664E-002  0.4972801E+02  0.7818608E-02  0.1446814E+00
          2   -1    0    0    0  501  0.00000000000E+00  0.00000000000E+00  0.33168452104E+01  0.33168461906E+01  0.25500000000E-02 0. -1.
         -2   -1    0    0  501    0 -0.00000000000E+00 -0.00000000000E+00 -0.18638754450E+03  0.18638754452E+03  0.25500000000E-02 0. -1.
          2    1    1    2    0  502  0.74524417867E+01  0.23657859636E+02 -0.84943828261E+02  0.88491170052E+02  0.25500000000E-02 0.  1.
         -2    1    1    2  502    0 -0.74524417867E+01 -0.23657859636E+02 -0.98126871034E+02  0.10121322066E+03  0.25500000000E-02 0.  1.
<mgrwt>
<rscale>  0 0.49728009E+02</rscale>
<asrwt>0</asrwt>
<pdfrwt beam="1">  1        2 0.51028410E-03 0.49728009E+02</pdfrwt>
<pdfrwt beam="2">  1       -2 0.28674999E-01 0.49728009E+02</pdfrwt>
<totfact> 0.29394616E+05</totfact>
</mgrwt>
</event>
<event>
 4    1  0.2196664E-002  0.4487811E+02  0.7818608E-02  0.1475104E+00
          2   -1    0    0    0  501  0.00000000000E+00  0.00000000000E+00  0.19165652227E+03  0.19165652228E+03  0.25500000000E-02 0. -1.
         -2   -1    0    0  501    0 -0.00000000000E+00 -0.00000000000E+00 -0.26271530143E+01  0.26271542519E+01  0.25500000000E-02 0. -1.
          2    1    1    2    0  502 -0.13493573180E+02  0.17916164600E+02  0.97404704822E+02  0.99953699277E+02  0.25500000000E-02 0. -1.
         -2    1    1    2  502    0  0.13493573180E+02 -0.17916164600E+02  0.91624664429E+02  0.94329977257E+02  0.25500000000E-02 0. -1.
<mgrwt>
<rscale>  0 0.44878107E+02</rscale>
<asrwt>0</asrwt>
<pdfrwt beam="1">  1        2 0.29485622E-01 0.44878107E+02</pdfrwt>
<pdfrwt beam="2">  1       -2 0.40417743E-03 0.44878107E+02</pdfrwt>
<totfact> 0.94984864E+05</totfact>
</mgrwt>
</event>
<event>
 4    1  0.2196664E-002  0.4280621E+02  0.7818608E-02  0.1488521E+00
         -2   -1    0    0  501    0 -0.00000000000E+00  0.00000000000E+00  0.14997635775E+01  0.14997657453E+01  0.25500000000E-02 0.  1.
          2   -1    0    0    0  501  0.00000000000E+00 -0.00000000000E+00 -0.30544321622E+03  0.30544321623E+03  0.25500000000E-02 0.  1.
          2    1    1    2    0  502 -0.15318693127E+02  0.14791413168E+02 -0.16742528897E+03  0.16877403727E+03  0.25500000000E-02 0.  1.
         -2    1    1    2  502    0  0.15318693127E+02 -0.14791413168E+02 -0.13651816367E+03  0.13816894471E+03  0.25500000000E-02 0.  1.
<mgrwt>
<rscale>  0 0.42806212E+02</rscale>
<asrwt>0</asrwt>
<pdfrwt beam="2">  1        2 0.46991215E-01 0.42806212E+02</pdfrwt>
<pdfrwt beam="1">  1       -2 0.23073327E-03 0.42806212E+02</pdfrwt>
<totfact> 0.12484321E+06</totfact>
</mgrwt>
</event>
<event>
 4    1  0.2196664E-002  0.8467971E+02  0.7818608E-02  0.1316272E+00
         -2   -1    0    0  501    0 -0.00000000000E+00  0.00000000000E+00  0.20656795077E+01  0.20656810817E+01  0.25500000000E-02 0.  1.
          2   -1    0    0    0  501  0.00000000000E+00 -0.00000000000E+00 -0.86783186504E+03  0.86783186504E+03  0.25500000000E-02 0.  1.
          2    1    1    2    0  502  0.12751914480E+02  0.18058880588E+02 -0.61932832248E+02  0.65760247929E+02  0.25500000000E-02 0. -1.
         -2    1    1    2  502    0 -0.12751914480E+02 -0.18058880588E+02 -0.80383335328E+03  0.80413729819E+03  0.25500000000E-02 0. -1.
<mgrwt>
<rscale>  0 0.84679707E+02</rscale>
<asrwt>0</asrwt>
<pdfrwt beam="2">  1        2 0.13351230E+00 0.84679707E+02</pdfrwt>
<pdfrwt beam="1">  1       -2 0.31779766E-03 0.84679707E+02</pdfrwt>
<totfact> 0.29968061E+05</totfact>
</mgrwt>
</event>
<event>
 4    1  0.2196664E-002  0.6321198E+02  0.7818608E-02  0.1384826E+00
         -2   -1    0    0  501    0 -0.00000000000E+00  0.00000000000E+00  0.13809492224E+02  0.13809492460E+02  0.25500000000E-02 0. -1.
          2   -1    0    0    0  501  0.00000000000E+00 -0.00000000000E+00 -0.72337108853E+02  0.72337108898E+02  0.25500000000E-02 0. -1.
          2    1    1    2    0  502 -0.17197854500E+01  0.26352901521E+02 -0.52927715951E+02  0.59150453954E+02  0.25500000000E-02 0. -1.
         -2    1    1    2  502    0  0.17197854500E+01 -0.26352901521E+02 -0.55999006776E+01  0.26996147404E+02  0.25500000000E-02 0. -1.
<mgrwt>
<rscale>  0 0.63211985E+02</rscale>
<asrwt>0</asrwt>
<pdfrwt beam="2">  1        2 0.11128786E-01 0.63211985E+02</pdfrwt>
<pdfrwt beam="1">  1       -2 0.21245373E-02 0.63211985E+02</pdfrwt>
<totfact> 0.30145463E+05</totfact>
</mgrwt>
</event>
<event>
 4    1  0.2196664E-002  0.6155674E+02  0.7818608E-02  0.1391413E+00
          2   -1    0    0    0  501  0.00000000000E+00  0.00000000000E+00  0.40765119167E+03  0.40765119168E+03  0.25500000000E-02 0.  1.
         -2   -1    0    0  501    0 -0.00000000000E+00 -0.00000000000E+00 -0.23238196777E+01  0.23238210768E+01  0.25500000000E-02 0.  1.
          2    1    1    2    0  502  0.15380150914E+02  0.25156694167E+02  0.14388091747E+03  0.14687112283E+03  0.25500000000E-02 0. -1.
         -2    1    1    2  502    0 -0.15380150914E+02 -0.25156694167E+02  0.26144645452E+03  0.26310388992E+03  0.25500000000E-02 0. -1.
<mgrwt>
<rscale>  0 0.61556743E+02</rscale>
<asrwt>0</asrwt>
<pdfrwt beam="1">  1        2 0.62715556E-01 0.61556743E+02</pdfrwt>
<pdfrwt beam="2">  1       -2 0.35751090E-03 0.61556743E+02</pdfrwt>
<totfact> 0.55771604E+05</totfact>
</mgrwt>
</event>
<event>
 4    1  0.2196664E-002  0.4514669E+02  0.7818608E-02  0.1473428E+00
          2   -1    0    0    0  501  0.00000000000E+00  0.00000000000E+00  0.20480027565E+01  0.20480043440E+01  0.25500000000E-02 0.  1.
         -2   -1    0    0  501    0 -0.00000000000E+00 -0.00000000000E+00 -0.24880619276E+03  0.24880619277E+03  0.25500000000E-02 0.  1.
          2    1    1    2    0  502  0.21641030279E+02  0.18605893825E+01 -0.15752285132E+03  0.15901334749E+03  0.25500000000E-02 0. -1.
         -2    1    1    2  502    0 -0.21641030279E+02 -0.18605893825E+01 -0.89235338680E+02  0.91840849627E+02  0.25500000000E-02 0. -1.
<mgrwt>
<rscale>  0 0.45146693E+02</rscale>
<asrwt>0</asrwt>
<pdfrwt beam="1">  1        2 0.31507767E-03 0.45146693E+02</pdfrwt>
<pdfrwt beam="2">  1       -2 0.38277852E-01 0.45146693E+02</pdfrwt>
<totfact> 0.32834473E+05</totfact>
</mgrwt>
</event>
<event>
 4    1  0.2196664E-002  0.7608873E+02  0.7818608E-02  0.1340532E+00
          2   -1    0    0    0  501  0.00000000000E+00  0.00000000000E+00  0.58630624224E+03  0.58630624225E+03  0.25500000000E-02 0. -1.
         -2   -1    0    0  501    0 -0.00000000000E+00 -0.00000000000E+00 -0.24686303996E+01  0.24686317167E+01  0.25500000000E-02 0. -1.
          2    1    1    2    0  502  0.37483735226E+02  0.64776211192E+01  0.28712490138E+03  0.28963373246E+03  0.25500000000E-02 0. -1.
         -2    1    1    2  502    0 -0.37483735226E+02 -0.64776211192E+01  0.29671271046E+03  0.29914114150E+03  0.25500000000E-02 0. -1.
<mgrwt>
<rscale>  0 0.76088732E+02</rscale>
<asrwt>0</asrwt>
<pdfrwt beam="1">  1        2 0.90200906E-01 0.76088732E+02</pdfrwt>
<pdfrwt beam="2">  1       -2 0.37978962E-03 0.76088732E+02</pdfrwt>
<totfact> 0.36340139E+05</totfact>
</mgrwt>
</event>
<event>
 4    1  0.2196664E-002  0.1930152E+03  0.7818608E-02  0.1155770E+00
          2   -1    0    0    0  501  0.00000000000E+00  0.00000000000E+00  0.11812186541E+04  0.11812186541E+04  0.25500000000E-02 0.  1.
         -2   -1    0    0  501    0 -0.00000000000E+00 -0.00000000000E+00 -0.78848392639E+01  0.78848396762E+01  0.25500000000E-02 0.  1.
          2    1    1    2    0  502  0.71870117591E+02  0.19244087218E+02  0.20799496505E+03  0.22090168444E+03  0.25500000000E-02 0.  1.
         -2    1    1    2  502    0 -0.71870117591E+02 -0.19244087218E+02  0.96533884983E+03  0.96820180938E+03  0.25500000000E-02 0.  1.
<mgrwt>
<rscale>  0 0.19301523E+03</rscale>
<asrwt>0</asrwt>
<pdfrwt beam="1">  1        2 0.18172587E+00 0.19301523E+03</pdfrwt>
<pdfrwt beam="2">  1       -2 0.12130527E-02 0.19301523E+03</pdfrwt>
<totfact> 0.32186804E+04</totfact>
</mgrwt>
</event>
<event>
 4    1  0.2196664E-002  0.6788264E+02  0.7818608E-02  0.1367445E+00
         -2   -1    0    0  501    0 -0.00000000000E+00  0.00000000000E+00  0.62887477807E+00  0.62887994800E+00  0.25500000000E-02 0.  1.
          2   -1    0    0    0  501  0.00000000000E+00 -0.00000000000E+00 -0.18318569406E+04  0.18318569406E+04  0.25500000000E-02 0.  1.
          2    1    1    2    0  502  0.20322185295E+02  0.87116259311E+01 -0.16107681732E+04  0.16109199208E+04  0.25500000000E-02 0.  1.
         -2    1    1    2  502    0 -0.20322185295E+02 -0.87116259311E+01 -0.22045989267E+03  0.22156589974E+03  0.25500000000E-02 0.  1.
<mgrwt>
<rscale>  0 0.67882645E+02</rscale>
<asrwt>0</asrwt>
<pdfrwt beam="2">  1        2 0.28181987E+00 0.67882645E+02</pdfrwt>
<pdfrwt beam="1">  1       -2 0.96751830E-04 0.67882645E+02</pdfrwt>
<totfact> 0.45616328E+05</totfact>
</mgrwt>
</event>
<event>
 4    1  0.2196664E-002  0.4452725E+02  0.7818608E-02  0.1477315E+00
         -2   -1    0    0  501    0 -0.00000000000E+00  0.00000000000E+00  0.38093843353E+01  0.38093851888E+01  0.25500000000E-02 0. -1.
          2   -1    0    0    0  501  0.00000000000E+00 -0.00000000000E+00 -0.13011785227E+03  0.13011785229E+03  0.25500000000E-02 0. -1.
          2    1    1    2    0  502 -0.15579205893E+02 -0.13533346721E+02 -0.38024441590E+02  0.43263394394E+02  0.25500000000E-02 0. -1.
         -2    1    1    2  502    0  0.15579205893E+02  0.13533346721E+02 -0.88284026341E+02  0.90663843087E+02  0.25500000000E-02 0. -1.
<mgrwt>
<rscale>  0 0.44527249E+02</rscale>
<asrwt>0</asrwt>
<pdfrwt beam="2">  1        2 0.20018128E-01 0.44527249E+02</pdfrwt>
<pdfrwt beam="1">  1       -2 0.58605930E-03 0.44527249E+02</pdfrwt>
<totfact> 0.86030960E+05</totfact>
</mgrwt>
</event>
<event>
 4    1  0.2196664E-002  0.5205861E+02  0.7818608E-02  0.1434544E+00
         -2   -1    0    0  501    0 -0.00000000000E+00  0.00000000000E+00  0.83579035700E+01  0.83579039590E+01  0.25500000000E-02 0.  1.
          2   -1    0    0    0  501  0.00000000000E+00 -0.00000000000E+00 -0.81063947370E+02  0.81063947410E+02  0.25500000000E-02 0.  1.
          2    1    1    2    0  502  0.15725507716E+02  0.18415934840E+02 -0.52746757153E+02  0.58040146844E+02  0.25500000000E-02 0.  1.
         -2    1    1    2  502    0 -0.15725507716E+02 -0.18415934840E+02 -0.19959286647E+02  0.31381704525E+02  0.25500000000E-02 0.  1.
<mgrwt>
<rscale>  0 0.52058608E+02</rscale>
<asrwt>0</asrwt>
<pdfrwt beam="2">  1        2 0.12471376E-01 0.52058608E+02</pdfrwt>
<pdfrwt beam="1">  1       -2 0.12858314E-02 0.52058608E+02</pdfrwt>
<totfact> 0.51278946E+05</totfact>
</mgrwt>
</event>
<event>
 4    1  0.2196664E-002  0.5281708E+02  0.7818608E-02  0.1430713E+00
          2   -1    0    0    0  501  0.00000000000E+00  0.00000000000E+00  0.92953307226E+03  0.92953307227E+03  0.25500000000E-02 0. -1.
         -2   -1    0    0  501    0 -0.00000000000E+00 -0.00000000000E+00 -0.75027887261E+00  0.75028320598E+00  0.25500000000E-02 0. -1.
          2    1    1    2    0  502  0.66524466200E+01 -0.24873058809E+02  0.56782654676E+03  0.56840998523E+03  0.25500000000E-02 0.  1.
         -2    1    1    2  502    0 -0.66524466200E+01  0.24873058809E+02  0.36095624663E+03  0.36187337024E+03  0.25500000000E-02 0.  1.
<mgrwt>
<rscale>  0 0.52817082E+02</rscale>
<asrwt>0</asrwt>
<pdfrwt beam="1">  1        2 0.14300457E+00 0.52817082E+02</pdfrwt>
<pdfrwt beam="2">  1       -2 0.11542827E-03 0.52817082E+02</pdfrwt>
<totfact> 0.10059751E+06</totfact>
</mgrwt>
</event>
<event>
 4    1  0.2196664E-002  0.4666031E+02  0.7818608E-02  0.1464235E+00
         -2   -1    0    0  501    0 -0.00000000000E+00  0.00000000000E+00  0.61863338732E+00  0.61863864283E+00  0.25500000000E-02 0.  1.
          2   -1    0    0    0  501  0.00000000000E+00 -0.00000000000E+00 -0.87983242567E+03  0.87983242567E+03  0.25500000000E-02 0.  1.
          2    1    1    2    0  502 -0.23203081598E+02 -0.58554763228E+00 -0.48414087626E+03  0.48469692998E+03  0.25500000000E-02 0.  1.
         -2    1    1    2  502    0  0.23203081598E+02  0.58554763228E+00 -0.39507291602E+03  0.39575413433E+03  0.25500000000E-02 0.  1.
<mgrwt>
<rscale>  0 0.46660306E+02</rscale>
<asrwt>0</asrwt>
<pdfrwt beam="2">  1        2 0.13535783E+00 0.46660306E+02</pdfrwt>
<pdfrwt beam="1">  1       -2 0.95175475E-04 0.46660306E+02</pdfrwt>
<totfact> 0.13575346E+06</totfact>
</mgrwt>
</event>
<event>
 4    1  0.2196664E-002  0.5420831E+02  0.7818608E-02  0.1423880E+00
         -2   -1    0    0  501    0 -0.00000000000E+00  0.00000000000E+00  0.80734646340E+00  0.80735049047E+00  0.25500000000E-02 0.  1.
          2   -1    0    0    0  501  0.00000000000E+00 -0.00000000000E+00 -0.90993578267E+03  0.90993578267E+03  0.25500000000E-02 0.  1.
          2    1    1    2    0  502  0.94642310808E+01  0.23309036482E+02 -0.28509049086E+03  0.28619830684E+03  0.25500000000E-02 0. -1.
         -2    1    1    2  502    0 -0.94642310808E+01 -0.23309036482E+02 -0.62403794534E+03  0.62454482632E+03  0.25500000000E-02 0. -1.
<mgrwt>
<rscale>  0 0.54208312E+02</rscale>
<asrwt>0</asrwt>
<pdfrwt beam="2">  1        2 0.13998930E+00 0.54208312E+02</pdfrwt>
<pdfrwt beam="1">  1       -2 0.12420819E-03 0.54208312E+02</pdfrwt>
<totfact> 0.94109103E+05</totfact>
</mgrwt>
</event>
<event>
 4    1  0.2196664E-002  0.4397808E+02  0.7818608E-02  0.1480824E+00
         -2   -1    0    0  501    0 -0.00000000000E+00  0.00000000000E+00  0.34833732661E+03  0.34833732662E+03  0.25500000000E-02 0. -1.
          2   -1    0    0    0  501  0.00000000000E+00 -0.00000000000E+00 -0.13880723417E+01  0.13880746840E+01  0.25500000000E-02 0. -1.
          2    1    1    2    0  502  0.18788919747E+01 -0.21830901829E+02  0.15881287346E+03  0.16031733310E+03  0.25500000000E-02 0. -1.
         -2    1    1    2  502    0 -0.18788919747E+01  0.21830901829E+02  0.18813638081E+03  0.18940806820E+03  0.25500000000E-02 0. -1.
<mgrwt>
<rscale>  0 0.43978077E+02</rscale>
<asrwt>0</asrwt>
<pdfrwt beam="2">  1        2 0.21354966E-03 0.43978077E+02</pdfrwt>
<pdfrwt beam="1">  1       -2 0.53590386E-01 0.43978077E+02</pdfrwt>
<totfact> 0.29125413E+05</totfact>
</mgrwt>
</event>
<event>
 4    1  0.2196664E-002  0.1515443E+03  0.7818608E-02  0.1198588E+00
         -2   -1    0    0  501    0 -0.00000000000E+00  0.00000000000E+00  0.40761582806E+01  0.40761590782E+01  0.25500000000E-02 0.  1.
          2   -1    0    0    0  501  0.00000000000E+00 -0.00000000000E+00 -0.14085360829E+04  0.14085360829E+04  0.25500000000E-02 0.  1.
          2    1    1    2    0  502 -0.38421645119E+02 -0.11451306494E+02 -0.10289184601E+03  0.11042684101E+03  0.25500000000E-02 0. -1.
         -2    1    1    2  502    0  0.38421645119E+02  0.11451306494E+02 -0.13015680786E+04  0.13021854010E+04  0.25500000000E-02 0. -1.
<mgrwt>
<rscale>  0 0.15154427E+03</rscale>
<asrwt>0</asrwt>
<pdfrwt beam="2">  1        2 0.21669747E+00 0.15154427E+03</pdfrwt>
<pdfrwt beam="1">  1       -2 0.62710246E-03 0.15154427E+03</pdfrwt>
<totfact> 0.61183566E+04</totfact>
</mgrwt>
</event>
<event>
 4    1  0.2196664E-002  0.8745195E+02  0.7818608E-02  0.1309142E+00
          2   -1    0    0    0  501  0.00000000000E+00  0.00000000000E+00  0.13192896956E+03  0.13192896958E+03  0.25500000000E-02 0. -1.
         -2   -1    0    0  501    0 -0.00000000000E+00 -0.00000000000E+00 -0.14492351966E+02  0.14492352190E+02  0.25500000000E-02 0. -1.
          2    1    1    2    0  502  0.48961279179E+01  0.36411661394E+02  0.19019957741E+02  0.41370762055E+02  0.25500000000E-02 0. -1.
         -2    1    1    2  502    0 -0.48961279179E+01 -0.36411661394E+02  0.98416659853E+02  0.10505055972E+03  0.25500000000E-02 0. -1.
<mgrwt>
<rscale>  0 0.87451954E+02</rscale>
<asrwt>0</asrwt>
<pdfrwt beam="1">  1        2 0.20296765E-01 0.87451954E+02</pdfrwt>
<pdfrwt beam="2">  1       -2 0.22295926E-02 0.87451954E+02</pdfrwt>
<totfact> 0.14999033E+05</totfact>
</mgrwt>
</event>
<event>
 4    1  0.2196664E-002  0.1052757E+03  0.7818608E-02  0.1269577E+00
          2   -1    0    0    0  501  0.00000000000E+00  0.00000000000E+00  0.33290368773E+03  0.33290368774E+03  0.25500000000E-02 0. -1.
         -2   -1    0    0  501    0 -0.00000000000E+00 -0.00000000000E+00 -0.83229517110E+01  0.83229521016E+01  0.25500000000E-02 0. -1.
          2    1    1    2    0  502  0.34103024979E+02  0.13420108974E+02  0.28475822634E+03  0.28710688447E+03  0.25500000000E-02 0. -1.
         -2    1    1    2  502    0 -0.34103024979E+02 -0.13420108974E+02  0.39822509686E+02  0.54119755375E+02  0.25500000000E-02 0. -1.
<mgrwt>
<rscale>  0 0.10527566E+03</rscale>
<asrwt>0</asrwt>
<pdfrwt beam="1">  1        2 0.51215950E-01 0.10527566E+03</pdfrwt>
<pdfrwt beam="2">  1       -2 0.12804542E-02 0.10527566E+03</pdfrwt>
<totfact> 0.12692830E+05</totfact>
</mgrwt>
</event>
<event>
 4    1  0.2196664E-002  0.4977414E+02  0.7818608E-02  0.1446564E+00
          2   -1    0    0    0  501  0.00000000000E+00  0.00000000000E+00  0.59577956319E+03  0.59577956320E+03  0.25500000000E-02 0. -1.
         -2   -1    0    0  501    0 -0.00000000000E+00 -0.00000000000E+00 -0.10395881512E+01  0.10395912787E+01  0.25500000000E-02 0. -1.
          2    1    1    2    0  502  0.11410648091E+01 -0.23343099149E+02  0.39993227009E+03  0.40061455662E+03  0.25500000000E-02 0. -1.
         -2    1    1    2  502    0 -0.11410648091E+01  0.23343099149E+02  0.19480770495E+03  0.19620459786E+03  0.25500000000E-02 0. -1.
<mgrwt>
<rscale>  0 0.49774142E+02</rscale>
<asrwt>0</asrwt>
<pdfrwt beam="1">  1        2 0.91658611E-01 0.49774142E+02</pdfrwt>
<pdfrwt beam="2">  1       -2 0.15993650E-03 0.49774142E+02</pdfrwt>
<totfact> 0.10690082E+06</totfact>
</mgrwt>
</event>
<event>
 4    1  0.2196664E-002  0.4126738E+02  0.7818608E-02  0.1499087E+00
          2   -1    0    0    0  501  0.00000000000E+00  0.00000000000E+00  0.13699761318E+03  0.13699761321E+03  0.25500000000E-02 0. -1.
         -2   -1    0    0  501    0 -0.00000000000E+00 -0.00000000000E+00 -0.31077117031E+01  0.31077127492E+01  0.25500000000E-02 0. -1.
          2    1    1    2    0  502  0.13304303103E+02 -0.15770415465E+02  0.67612572665E+02  0.70690667516E+02  0.25500000000E-02 0. -1.
         -2    1    1    2  502    0 -0.13304303103E+02  0.15770415465E+02  0.66277328816E+02  0.69414658441E+02  0.25500000000E-02 0. -1.
<mgrwt>
<rscale>  0 0.41267380E+02</rscale>
<asrwt>0</asrwt>
<pdfrwt beam="1">  1        2 0.21076556E-01 0.41267380E+02</pdfrwt>
<pdfrwt beam="2">  1       -2 0.47810958E-03 0.41267380E+02</pdfrwt>
<totfact> 0.10534841E+06</totfact>
</mgrwt>
</event>
<event>
 4    1  0.2196664E-002  0.5035599E+02  0.7818608E-02  0.1443431E+00
         -2   -1    0    0  501    0 -0.00000000000E+00  0.00000000000E+00  0.39093945315E+01  0.39093953632E+01  0.25500000000E-02 0.  1.
          2   -1    0    0    0  501  0.00000000000E+00 -0.00000000000E+00 -0.16215591028E+03  0.16215591030E+03  0.25500000000E-02 0.  1.
          2    1    1    2    0  502  0.20043070693E+02 -0.47747190758E+01 -0.12684598814E+03  0.12850847185E+03  0.25500000000E-02 0. -1.
         -2    1    1    2  502    0 -0.20043070693E+02  0.47747190758E+01 -0.31400527611E+02  0.37556833809E+02  0.25500000000E-02 0. -1.
<mgrwt>
<rscale>  0 0.50355993E+02</rscale>
<asrwt>0</asrwt>
<pdfrwt beam="2">  1        2 0.24947058E-01 0.50355993E+02</pdfrwt>
<pdfrwt beam="1">  1       -2 0.60144550E-03 0.50355993E+02</pdfrwt>
<totfact> 0.67580181E+05</totfact>
</mgrwt>
</event>
<event>
 4    1  0.2196664E-002  0.4717771E+02  0.7818608E-02  0.1461187E+00
         -2   -1    0    0  501    0 -0.00000000000E+00  0.00000000000E+00  0.24001289112E+02  0.24001289247E+02  0.25500000000E-02 0. -1.
          2   -1    0    0    0  501  0.00000000000E+00 -0.00000000000E+00 -0.23183505749E+02  0.23183505890E+02  0.25500000000E-02 0. -1.
          2    1    1    2    0  502  0.80516820491E+01 -0.21997986100E+02 -0.23651593937E+01  0.23544319097E+02  0.25500000000E-02 0.  1.
         -2    1    1    2  502    0 -0.80516820491E+01  0.21997986100E+02  0.31829427559E+01  0.23640476040E+02  0.25500000000E-02 0.  1.
<mgrwt>
<rscale>  0 0.47177708E+02</rscale>
<asrwt>0</asrwt>
<pdfrwt beam="2">  1        2 0.35666932E-02 0.47177708E+02</pdfrwt>
<pdfrwt beam="1">  1       -2 0.36925060E-02 0.47177708E+02</pdfrwt>
<totfact> 0.52511074E+05</totfact>
</mgrwt>
</event>
<event>
 4    1  0.2196664E-002  0.6230141E+02  0.7818608E-02  0.1388420E+00
          2   -1    0    0    0  501  0.00000000000E+00  0.00000000000E+00  0.10702108342E+03  0.10702108345E+03  0.25500000000E-02 0. -1.
         -2   -1    0    0  501    0 -0.00000000000E+00 -0.00000000000E+00 -0.90670580744E+01  0.90670584330E+01  0.25500000000E-02 0. -1.
          2    1    1    2    0  502  0.17991184627E+02 -0.16589126920E+02  0.84890730010E+02  0.88347710238E+02  0.25500000000E-02 0.  1.
         -2    1    1    2  502    0 -0.17991184627E+02  0.16589126920E+02  0.13063295333E+02  0.27740431642E+02  0.25500000000E-02 0.  1.
<mgrwt>
<rscale>  0 0.62301409E+02</rscale>
<asrwt>0</asrwt>
<pdfrwt beam="1">  1        2 0.16464782E-01 0.62301409E+02</pdfrwt>
<pdfrwt beam="2">  1       -2 0.13949320E-02 0.62301409E+02</pdfrwt>
<totfact> 0.34663545E+05</totfact>
</mgrwt>
</event>
<event>
 4    1  0.2196664E-002  0.4292763E+02  0.7818608E-02  0.1487710E+00
          2   -1    0    0    0  501  0.00000000000E+00  0.00000000000E+00  0.16385742957E+04  0.16385742957E+04  0.25500000000E-02 0.  1.
         -2   -1    0    0  501    0 -0.00000000000E+00 -0.00000000000E+00 -0.28115042382E+00  0.28116198767E+00  0.25500000000E-02 0.  1.
          2    1    1    2    0  502 -0.52032364251E+01 -0.19914336889E+02  0.58679576060E+03  0.58715663936E+03  0.25500000000E-02 0. -1.
         -2    1    1    2  502    0  0.52032364251E+01  0.19914336889E+02  0.10514973847E+04  0.10516988183E+04  0.25500000000E-02 0. -1.
<mgrwt>
<rscale>  0 0.42927629E+02</rscale>
<asrwt>0</asrwt>
<pdfrwt beam="1">  1        2 0.25208852E+00 0.42927629E+02</pdfrwt>
<pdfrwt beam="2">  1       -2 0.43254772E-04 0.42927629E+02</pdfrwt>
<totfact> 0.15361333E+06</totfact>
</mgrwt>
</event>
<event>
 4    1  0.2196664E-002  0.9066217E+02  0.7818608E-02  0.1301256E+00
          2   -1    0    0    0  501  0.00000000000E+00  0.00000000000E+00  0.61942862216E+03  0.61942862217E+03  0.25500000000E-02 0.  1.
         -2   -1    0    0  501    0 -0.00000000000E+00 -0.00000000000E+00 -0.33174234733E+01  0.33174244533E+01  0.25500000000E-02 0.  1.
          2    1    1    2    0  502 -0.36171557197E+01  0.27582759774E+02  0.55390092222E+03  0.55459906608E+03  0.25500000000E-02 0.  1.
         -2    1    1    2  502    0  0.36171557197E+01 -0.27582759774E+02  0.62210276471E+02  0.68146980545E+02  0.25500000000E-02 0.  1.
<mgrwt>
<rscale>  0 0.90662172E+02</rscale>
<asrwt>0</asrwt>
<pdfrwt beam="1">  1        2 0.95296595E-01 0.90662172E+02</pdfrwt>
<pdfrwt beam="2">  1       -2 0.51037354E-03 0.90662172E+02</pdfrwt>
<totfact> 0.23334343E+05</totfact>
</mgrwt>
</event>
<event>
 4    1  0.2196664E-002  0.5333643E+02  0.7818608E-02  0.1428134E+00
         -2   -1    0    0  501    0 -0.00000000000E+00  0.00000000000E+00  0.14839251601E+02  0.14839251821E+02  0.25500000000E-02 0. -1.
          2   -1    0    0    0  501  0.00000000000E+00 -0.00000000000E+00 -0.47926520817E+02  0.47926520885E+02  0.25500000000E-02 0. -1.
          2    1    1    2    0  502 -0.42605092741E+01  0.24210603051E+02 -0.43771713561E+01  0.24969278623E+02  0.25500000000E-02 0.  1.
         -2    1    1    2  502    0  0.42605092741E+01 -0.24210603051E+02 -0.28710097860E+02  0.37796494083E+02  0.25500000000E-02 0.  1.
<mgrwt>
<rscale>  0 0.53336431E+02</rscale>
<asrwt>0</asrwt>
<pdfrwt beam="2">  1        2 0.73733108E-02 0.53336431E+02</pdfrwt>
<pdfrwt beam="1">  1       -2 0.22829618E-02 0.53336431E+02</pdfrwt>
<totfact> 0.43052717E+05</totfact>
</mgrwt>
</event>
<event>
 4    1  0.2196664E-002  0.8386457E+02  0.7818608E-02  0.1318429E+00
          2   -1    0    0    0  501  0.00000000000E+00  0.00000000000E+00  0.85570605054E+03  0.85570605054E+03  0.25500000000E-02 0.  1.
         -2   -1    0    0  501    0 -0.00000000000E+00 -0.00000000000E+00 -0.20548130062E+01  0.20548145885E+01  0.25500000000E-02 0.  1.
          2    1    1    2    0  502 -0.24682422698E+02 -0.15285143637E+02  0.11736375222E+03  0.12090123220E+03  0.25500000000E-02 0.  1.
         -2    1    1    2  502    0  0.24682422698E+02  0.15285143637E+02  0.73628748531E+03  0.73685963293E+03  0.25500000000E-02 0.  1.
<mgrwt>
<rscale>  0 0.83864572E+02</rscale>
<asrwt>0</asrwt>
<pdfrwt beam="1">  1        2 0.13164750E+00 0.83864572E+02</pdfrwt>
<pdfrwt beam="2">  1       -2 0.31612420E-03 0.83864572E+02</pdfrwt>
<totfact> 0.30676332E+05</totfact>
</mgrwt>
</event>
<event>
 4    1  0.2196664E-002  0.4864323E+02  0.7818608E-02  0.1452800E+00
          2   -1    0    0    0  501  0.00000000000E+00  0.00000000000E+00  0.45462448512E+03  0.45462448513E+03  0.25500000000E-02 0.  1.
         -2   -1    0    0  501    0 -0.00000000000E+00 -0.00000000000E+00 -0.13011624317E+01  0.13011649305E+01  0.25500000000E-02 0.  1.
          2    1    1    2    0  502  0.23210147225E+02  0.53414198562E+01  0.18045896436E+03  0.18202384329E+03  0.25500000000E-02 0.  1.
         -2    1    1    2  502    0 -0.23210147225E+02 -0.53414198562E+01  0.27286435833E+03  0.27390180678E+03  0.25500000000E-02 0.  1.
<mgrwt>
<rscale>  0 0.48643227E+02</rscale>
<asrwt>0</asrwt>
<pdfrwt beam="1">  1        2 0.69942101E-01 0.48643227E+02</pdfrwt>
<pdfrwt beam="2">  1       -2 0.20017939E-03 0.48643227E+02</pdfrwt>
<totfact> 0.10432191E+06</totfact>
</mgrwt>
</event>
