<event>
 4    1  0.3883670E-002  0.5788330E+02  0.7818608E-02  0.1406935E+00
          1   -1    0    0    0  501  0.00000000000E+00  0.00000000000E+00  0.27054964837E+02  0.27054965307E+02  0.50400000000E-02 0.  1.
         -1   -1    0    0  501    0 -0.00000000000E+00 -0.00000000000E+00 -0.30959903598E+02  0.30959904008E+02  0.50400000000E-02 0.  1.
          2    1    1    2    0  502 -0.22871863944E+01 -0.25558634474E+02 -0.15367364739E+02  0.29910381531E+02  0.25500000000E-02 0. -1.
         -2    1    1    2  502    0  0.22871863944E+01  0.25558634474E+02  0.11462425978E+02  0.28104487784E+02  0.25500000000E-02 0. -1.
<mgrwt>
<rscale>  0 0.57883301E+02</rscale>
<asrwt>0</asrwt>
<pdfrwt beam="1">  1        1 0.41623023E-02 0.57883301E+02</pdfrwt>
<pdfrwt beam="2">  1       -1 0.47630622E-02 0.57883301E+02</pdfrwt>
<totfact> 0.29983978E+05</totfact>
</mgrwt>
</event>
<event>
 4    1  0.3883670E-002  0.5516410E+02  0.7818608E-02  0.1419324E+00
         -1   -1    0    0  501    0 -0.00000000000E+00  0.00000000000E+00  0.12103774780E+01  0.12103879712E+01  0.50400000000E-02 0.  1.
          1   -1    0    0    0  501  0.00000000000E+00 -0.00000000000E+00 -0.62853627050E+03  0.62853627052E+03  0.50400000000E-02 0.  1.
          2    1    1    2    0  502 -0.15767761284E+01 -0.27360258042E+02 -0.27810929866E+03  0.27945635071E+03  0.25500000000E-02 0.  1.
         -2    1    1    2  502    0  0.15767761284E+01  0.27360258042E+02 -0.34921659436E+03  0.35029030778E+03  0.25500000000E-02 0.  1.
<mgrwt>
<rscale>  0 0.55164099E+02</rscale>
<asrwt>0</asrwt>
<pdfrwt beam="2">  1        1 0.96697628E-01 0.55164099E+02</pdfrwt>
<pdfrwt beam="1">  1       -1 0.18621323E-03 0.55164099E+02</pdfrwt>
<totfact> 0.51862584E+05</totfact>
</mgrwt>
</event>
<event>
 4    1  0.3883670E-002  0.4828356E+02  0.7818608E-02  0.1454826E+00
         -1   -1    0    0  501    0 -0.00000000000E+00  0.00000000000E+00  0.96833643439E+00  0.96834955041E+00  0.50400000000E-02 0.  1.
          1   -1    0    0    0  501  0.00000000000E+00 -0.00000000000E+00 -0.60187923516E+03  0.60187923518E+03  0.50400000000E-02 0.  1.
          2    1    1    2    0  502  0.22542325955E+02 -0.75096444647E+01 -0.24708155072E+03  0.24822136075E+03  0.25500000000E-02 0. -1.
         -2    1    1    2  502    0 -0.22542325955E+02  0.75096444647E+01 -0.35382934801E+03  0.35462622399E+03  0.25500000000E-02 0. -1.
<mgrwt>
<rscale>  0 0.48283560E+02</rscale>
<asrwt>0</asrwt>
<pdfrwt beam="2">  1        1 0.92596507E-01 0.48283560E+02</pdfrwt>
<pdfrwt beam="1">  1       -1 0.14897633E-03 0.48283560E+02</pdfrwt>
<totfact> 0.72128892E+05</totfact>
</mgrwt>
</event>
<event>
 4    1  0.3883670E-002  0.7054291E+02  0.7818608E-02  0.1358257E+00
         -1   -1    0    0  501    0 -0.00000000000E+00  0.00000000000E+00  0.51700003194E+01  0.51700027760E+01  0.50400000000E-02 0. -1.
          1   -1    0    0    0  501  0.00000000000E+00 -0.00000000000E+00 -0.24063349828E+03  0.24063349834E+03  0.50400000000E-02 0. -1.
          2    1    1    2    0  502  0.25309688097E+02 -0.19073538834E+02 -0.63785095370E+02  0.71224424133E+02  0.25500000000E-02 0. -1.
         -2    1    1    2  502    0 -0.25309688097E+02  0.19073538834E+02 -0.17167840259E+03  0.17457907698E+03  0.25500000000E-02 0. -1.
<mgrwt>
<rscale>  0 0.70542911E+02</rscale>
<asrwt>0</asrwt>
<pdfrwt beam="2">  1        1 0.37020530E-01 0.70542911E+02</pdfrwt>
<pdfrwt beam="1">  1       -1 0.79538504E-03 0.70542911E+02</pdfrwt>
<totfact> 0.24139492E+05</totfact>
</mgrwt>
</event>
<event>
 4    1  0.3883670E-002  0.1305877E+03  0.7818608E-02  0.1226586E+00
         -1   -1    0    0  501    0 -0.00000000000E+00  0.00000000000E+00  0.22465024736E+03  0.22465024741E+03  0.50400000000E-02 0. -1.
          1   -1    0    0    0  501  0.00000000000E+00 -0.00000000000E+00 -0.18977444658E+02  0.18977445328E+02  0.50400000000E-02 0. -1.
          2    1    1    2    0  502  0.31537925253E+02  0.55946607219E+02  0.12480203578E+03  0.14035744273E+03  0.25500000000E-02 0.  1.
         -2    1    1    2  502    0 -0.31537925253E+02 -0.55946607219E+02  0.80870766915E+02  0.10327025001E+03  0.25500000000E-02 0.  1.
<mgrwt>
<rscale>  0 0.13058771E+03</rscale>
<asrwt>0</asrwt>
<pdfrwt beam="2">  1        1 0.29196069E-02 0.13058771E+03</pdfrwt>
<pdfrwt beam="1">  1       -1 0.34561577E-01 0.13058771E+03</pdfrwt>
<totfact> 0.26027294E+04</totfact>
</mgrwt>
</event>
<event>
 4    1  0.3883670E-002  0.1139792E+03  0.7818608E-02  0.1253374E+00
          1   -1    0    0    0  501  0.00000000000E+00  0.00000000000E+00  0.89692899275E+03  0.89692899276E+03  0.50400000000E-02 0. -1.
         -1   -1    0    0  501    0 -0.00000000000E+00 -0.00000000000E+00 -0.36210378068E+01  0.36210413143E+01  0.50400000000E-02 0. -1.
          2    1    1    2    0  502  0.25709479109E+02  0.43910038657E+02  0.24386639169E+03  0.24911821654E+03  0.25500000000E-02 0. -1.
         -2    1    1    2  502    0 -0.25709479109E+02 -0.43910038657E+02  0.64944156325E+03  0.65143181753E+03  0.25500000000E-02 0. -1.
<mgrwt>
<rscale>  0 0.11397922E+03</rscale>
<asrwt>0</asrwt>
<pdfrwt beam="1">  1        1 0.13798932E+00 0.11397922E+03</pdfrwt>
<pdfrwt beam="2">  1       -1 0.55708203E-03 0.11397922E+03</pdfrwt>
<totfact> 0.76708629E+04</totfact>
</mgrwt>
</event>
<event>
 4    1  0.3883670E-002  0.4066416E+02  0.7818608E-02  0.1503380E+00
          1   -1    0    0    0  501  0.00000000000E+00  0.00000000000E+00  0.49260018176E+02  0.49260018434E+02  0.50400000000E-02 0.  1.
         -1   -1    0    0  501    0 -0.00000000000E+00 -0.00000000000E+00 -0.83920671218E+01  0.83920686352E+01  0.50400000000E-02 0.  1.
          2    1    1    2    0  502 -0.29621395823E+01 -0.20093651641E+02  0.19115902068E+02  0.27891698147E+02  0.25500000000E-02 0.  1.
         -2    1    1    2  502    0  0.29621395823E+01  0.20093651641E+02  0.21752048986E+02  0.29760388922E+02  0.25500000000E-02 0.  1.
<mgrwt>
<rscale>  0 0.40664158E+02</rscale>
<asrwt>0</asrwt>
<pdfrwt beam="1">  1        1 0.75784645E-02 0.40664158E+02</pdfrwt>
<pdfrwt beam="2">  1       -1 0.12910874E-02 0.40664158E+02</pdfrwt>
<totfact> 0.78339251E+05</totfact>
</mgrwt>
</event>
<event>
 4    1  0.3883670E-002  0.4439264E+02  0.7818608E-02  0.1478169E+00
          1   -1    0    0    0  501  0.00000000000E+00  0.00000000000E+00  0.18882841122E+02  0.18882841795E+02  0.50400000000E-02 0. -1.
         -1   -1    0    0  501    0 -0.00000000000E+00 -0.00000000000E+00 -0.26091237567E+02  0.26091238054E+02  0.50400000000E-02 0. -1.
          2    1    1    2    0  502  0.11816382186E+02 -0.17829632337E+02 -0.96109386768E+01  0.23449793730E+02  0.25500000000E-02 0.  1.
         -2    1    1    2  502    0 -0.11816382186E+02  0.17829632337E+02  0.24025422319E+01  0.21524286119E+02  0.25500000000E-02 0.  1.
<mgrwt>
<rscale>  0 0.44392644E+02</rscale>
<asrwt>0</asrwt>
<pdfrwt beam="1">  1        1 0.29050526E-02 0.44392644E+02</pdfrwt>
<pdfrwt beam="2">  1       -1 0.40140367E-02 0.44392644E+02</pdfrwt>
<totfact> 0.58081421E+05</totfact>
</mgrwt>
</event>
<event>
 4    1  0.3883670E-002  0.4366880E+02  0.7818608E-02  0.1482827E+00
         -1   -1    0    0  501    0 -0.00000000000E+00  0.00000000000E+00  0.48609618691E+02  0.48609618952E+02  0.50400000000E-02 0. -1.
          1   -1    0    0    0  501  0.00000000000E+00 -0.00000000000E+00 -0.98075460331E+01  0.98075473282E+01  0.50400000000E-02 0. -1.
          2    1    1    2    0  502  0.19297836842E+02 -0.97977587731E+01  0.15538132600E+02  0.26642750514E+02  0.25500000000E-02 0. -1.
         -2    1    1    2  502    0 -0.19297836842E+02  0.97977587731E+01  0.23263940058E+02  0.31774415766E+02  0.25500000000E-02 0. -1.
<mgrwt>
<rscale>  0 0.43668804E+02</rscale>
<asrwt>0</asrwt>
<pdfrwt beam="2">  1        1 0.15088534E-02 0.43668804E+02</pdfrwt>
<pdfrwt beam="1">  1       -1 0.74784029E-02 0.43668804E+02</pdfrwt>
<totfact> 0.57068958E+05</totfact>
</mgrwt>
</event>
<event>
 4    1  0.3883670E-002  0.4619883E+02  0.7818608E-02  0.1466993E+00
          1   -1    0    0    0  501  0.00000000000E+00  0.00000000000E+00  0.13076630796E+03  0.13076630806E+03  0.50400000000E-02 0. -1.
         -1   -1    0    0  501    0 -0.00000000000E+00 -0.00000000000E+00 -0.40804291243E+01  0.40804322369E+01  0.50400000000E-02 0. -1.
          2    1    1    2    0  502  0.23069988184E+02 -0.93517411408E+00  0.65373483617E+02  0.69331026764E+02  0.25500000000E-02 0. -1.
         -2    1    1    2  502    0 -0.23069988184E+02  0.93517411408E+00  0.61312395220E+02  0.65515713532E+02  0.25500000000E-02 0. -1.
<mgrwt>
<rscale>  0 0.46198825E+02</rscale>
<asrwt>0</asrwt>
<pdfrwt beam="1">  1        1 0.20117894E-01 0.46198825E+02</pdfrwt>
<pdfrwt beam="2">  1       -1 0.62775858E-03 0.46198825E+02</pdfrwt>
<totfact> 0.63935868E+05</totfact>
</mgrwt>
</event>
<event>
 4    1  0.3883670E-002  0.5411843E+02  0.7818608E-02  0.1424314E+00
         -1   -1    0    0  501    0 -0.00000000000E+00  0.00000000000E+00  0.47483619365E+01  0.47483646113E+01  0.50400000000E-02 0. -1.
          1   -1    0    0    0  501  0.00000000000E+00 -0.00000000000E+00 -0.15420071385E+03  0.15420071394E+03  0.50400000000E-02 0. -1.
          2    1    1    2    0  502 -0.23496918808E+02  0.11093121914E+01 -0.35445781873E+02  0.42541029914E+02  0.25500000000E-02 0.  1.
         -2    1    1    2  502    0  0.23496918808E+02 -0.11093121914E+01 -0.11400657004E+03  0.11640804863E+03  0.25500000000E-02 0.  1.
<mgrwt>
<rscale>  0 0.54118426E+02</rscale>
<asrwt>0</asrwt>
<pdfrwt beam="2">  1        1 0.23723183E-01 0.54118426E+02</pdfrwt>
<pdfrwt beam="1">  1       -1 0.73051755E-03 0.54118426E+02</pdfrwt>
<totfact> 0.44075892E+05</totfact>
</mgrwt>
</event>
<event>
 4    1  0.3883670E-002  0.4576304E+02  0.7818608E-02  0.1469634E+00
         -1   -1    0    0  501    0 -0.00000000000E+00  0.00000000000E+00  0.46961469410E+00  0.46964173847E+00  0.50400000000E-02 0. -1.
          1   -1    0    0    0  501  0.00000000000E+00 -0.00000000000E+00 -0.11148477971E+04  0.11148477971E+04  0.50400000000E-02 0. -1.
          2    1    1    2    0  502 -0.17861702965E+02 -0.13918953878E+02 -0.47714681516E+03  0.47768385040E+03  0.25500000000E-02 0. -1.
         -2    1    1    2  502    0  0.17861702965E+02  0.13918953878E+02 -0.63723136722E+03  0.63763358842E+03  0.25500000000E-02 0. -1.
<mgrwt>
<rscale>  0 0.45763042E+02</rscale>
<asrwt>0</asrwt>
<pdfrwt beam="2">  1        1 0.17151293E+00 0.45763042E+02</pdfrwt>
<pdfrwt beam="1">  1       -1 0.72251388E-04 0.45763042E+02</pdfrwt>
<totfact> 0.76327147E+05</totfact>
</mgrwt>
</event>
<event>
 4    1  0.3883670E-002  0.5074781E+02  0.7818608E-02  0.1441349E+00
         -1   -1    0    0  501    0 -0.00000000000E+00  0.00000000000E+00  0.28258722724E+00  0.28263216837E+00  0.50400000000E-02 0.  1.
          1   -1    0    0    0  501  0.00000000000E+00 -0.00000000000E+00 -0.22781778871E+04  0.22781778871E+04  0.50400000000E-02 0.  1.
          2    1    1    2    0  502 -0.12789168184E+02  0.18679193300E+02 -0.62436413156E+03  0.62477439438E+03  0.25500000000E-02 0.  1.
         -2    1    1    2  502    0  0.12789168184E+02 -0.18679193300E+02 -0.16535311683E+04  0.16536861249E+04  0.25500000000E-02 0.  1.
<mgrwt>
<rscale>  0 0.50747815E+02</rscale>
<asrwt>0</asrwt>
<pdfrwt beam="2">  1        1 0.35047420E+00 0.50747815E+02</pdfrwt>
<pdfrwt beam="1">  1       -1 0.43480240E-04 0.50747815E+02</pdfrwt>
<totfact> 0.29124789E+05</totfact>
</mgrwt>
</event>
<event>
 4    1  0.3883670E-002  0.8903499E+02  0.7818608E-02  0.1305206E+00
          1   -1    0    0    0  501  0.00000000000E+00  0.00000000000E+00  0.55557016849E+02  0.55557017077E+02  0.50400000000E-02 0. -1.
         -1   -1    0    0  501    0 -0.00000000000E+00 -0.00000000000E+00 -0.35671590139E+02  0.35671590495E+02  0.50400000000E-02 0. -1.
          2    1    1    2    0  502 -0.25955210432E+02  0.35791383282E+02  0.46075977614E+01  0.44451389510E+02  0.25500000000E-02 0. -1.
         -2    1    1    2  502    0  0.25955210432E+02 -0.35791383282E+02  0.15277828948E+02  0.46777218062E+02  0.25500000000E-02 0. -1.
<mgrwt>
<rscale>  0 0.89034986E+02</rscale>
<asrwt>0</asrwt>
<pdfrwt beam="1">  1        1 0.85472334E-02 0.89034986E+02</pdfrwt>
<pdfrwt beam="2">  1       -1 0.54879370E-02 0.89034986E+02</pdfrwt>
<totfact> 0.10175502E+05</totfact>
</mgrwt>
</event>
<event>
 4    1  0.3883670E-002  0.9980359E+02  0.7818608E-02  0.1280710E+00
         -1   -1    0    0  501    0 -0.00000000000E+00  0.00000000000E+00  0.52084906362E+02  0.52084906605E+02  0.50400000000E-02 0.  1.
          1   -1    0    0    0  501  0.00000000000E+00 -0.00000000000E+00 -0.47810187652E+02  0.47810187917E+02  0.50400000000E-02 0.  1.
          2    1    1    2    0  502 -0.27124754035E+01  0.40495132061E+02 -0.26923307873E+02  0.48703980913E+02  0.25500000000E-02 0.  1.
         -2    1    1    2  502    0  0.27124754035E+01 -0.40495132061E+02  0.31198026583E+02  0.51191113610E+02  0.25500000000E-02 0.  1.
<mgrwt>
<rscale>  0 0.99803591E+02</rscale>
<asrwt>0</asrwt>
<pdfrwt beam="2">  1        1 0.73554136E-02 0.99803591E+02</pdfrwt>
<pdfrwt beam="1">  1       -1 0.80130625E-02 0.99803591E+02</pdfrwt>
<totfact> 0.72153190E+04</totfact>
</mgrwt>
</event>
<event>
 4    1  0.3883670E-002  0.4376319E+02  0.7818608E-02  0.1482214E+00
         -1   -1    0    0  501    0 -0.00000000000E+00  0.00000000000E+00  0.65038815628E+01  0.65038835156E+01  0.50400000000E-02 0.  1.
          1   -1    0    0    0  501  0.00000000000E+00 -0.00000000000E+00 -0.73618219605E+02  0.73618219778E+02  0.50400000000E-02 0.  1.
          2    1    1    2    0  502  0.64242269448E+01 -0.20675708333E+02 -0.27753571819E+02  0.35199664233E+02  0.25500000000E-02 0. -1.
         -2    1    1    2  502    0 -0.64242269448E+01  0.20675708333E+02 -0.39360766223E+02  0.44922439060E+02  0.25500000000E-02 0. -1.
<mgrwt>
<rscale>  0 0.43763193E+02</rscale>
<asrwt>0</asrwt>
<pdfrwt beam="2">  1        1 0.11325880E-01 0.43763193E+02</pdfrwt>
<pdfrwt beam="1">  1       -1 0.10005974E-02 0.43763193E+02</pdfrwt>
<totfact> 0.67933240E+05</totfact>
</mgrwt>
</event>
<event>
 4    1  0.3883670E-002  0.7145713E+02  0.7818608E-02  0.1355207E+00
         -1   -1    0    0  501    0 -0.00000000000E+00  0.00000000000E+00  0.50288188179E+01  0.50288213435E+01  0.50400000000E-02 0.  1.
          1   -1    0    0    0  501  0.00000000000E+00 -0.00000000000E+00 -0.25384292910E+03  0.25384292915E+03  0.50400000000E-02 0.  1.
          2    1    1    2    0  502 -0.33807671902E+02  0.34187822226E+01 -0.16440262115E+03  0.16787754049E+03  0.25500000000E-02 0. -1.
         -2    1    1    2  502    0  0.33807671902E+02 -0.34187822226E+01 -0.84411489125E+02  0.90994210003E+02  0.25500000000E-02 0. -1.
<mgrwt>
<rscale>  0 0.71457132E+02</rscale>
<asrwt>0</asrwt>
<pdfrwt beam="2">  1        1 0.39052749E-01 0.71457132E+02</pdfrwt>
<pdfrwt beam="1">  1       -1 0.77366483E-03 0.71457132E+02</pdfrwt>
<totfact> 0.23577847E+05</totfact>
</mgrwt>
</event>
<event>
 4    1  0.3883670E-002  0.6524602E+02  0.7818608E-02  0.1377048E+00
         -1   -1    0    0  501    0 -0.00000000000E+00  0.00000000000E+00  0.94435544801E+01  0.94435558251E+01  0.50400000000E-02 0.  1.
          1   -1    0    0    0  501  0.00000000000E+00 -0.00000000000E+00 -0.11269705379E+03  0.11269705390E+03  0.50400000000E-02 0.  1.
          2    1    1    2    0  502  0.40992221282E+01  0.24903269021E+02 -0.12930883508E+02  0.28358141420E+02  0.25500000000E-02 0.  1.
         -2    1    1    2  502    0 -0.40992221282E+01 -0.24903269021E+02 -0.90322615800E+02  0.93782468305E+02  0.25500000000E-02 0.  1.
<mgrwt>
<rscale>  0 0.65246022E+02</rscale>
<asrwt>0</asrwt>
<pdfrwt beam="2">  1        1 0.17338007E-01 0.65246022E+02</pdfrwt>
<pdfrwt beam="1">  1       -1 0.14528547E-02 0.65246022E+02</pdfrwt>
<totfact> 0.25952814E+05</totfact>
</mgrwt>
</event>
<event>
 4    1  0.3883670E-002  0.6365564E+02  0.7818608E-02  0.1383101E+00
          1   -1    0    0    0  501  0.00000000000E+00  0.00000000000E+00  0.80486031874E+03  0.80486031876E+03  0.50400000000E-02 0.  1.
         -1   -1    0    0  501    0 -0.00000000000E+00 -0.00000000000E+00 -0.12586109467E+01  0.12586210377E+01  0.50400000000E-02 0.  1.
          2    1    1    2    0  502  0.44472780656E+01 -0.28324707377E+02  0.22681061415E+03  0.22861566444E+03  0.25500000000E-02 0. -1.
         -2    1    1    2  502    0 -0.44472780656E+01  0.28324707377E+02  0.57679109364E+03  0.57750327535E+03  0.25500000000E-02 0. -1.
<mgrwt>
<rscale>  0 0.63655639E+02</rscale>
<asrwt>0</asrwt>
<pdfrwt beam="1">  1        1 0.12382469E+00 0.63655639E+02</pdfrwt>
<pdfrwt beam="2">  1       -1 0.19363320E-03 0.63655639E+02</pdfrwt>
<totfact> 0.35900878E+05</totfact>
</mgrwt>
</event>
<event>
 4    1  0.3883670E-002  0.4991701E+02  0.7818608E-02  0.1445790E+00
         -1   -1    0    0  501    0 -0.00000000000E+00  0.00000000000E+00  0.71969664613E+01  0.71969682260E+01  0.50400000000E-02 0. -1.
          1   -1    0    0    0  501  0.00000000000E+00 -0.00000000000E+00 -0.86554075981E+02  0.86554076128E+02  0.50400000000E-02 0. -1.
          2    1    1    2    0  502 -0.21109392293E+02  0.98361016565E+01 -0.56537033438E+02  0.61145658025E+02  0.25500000000E-02 0.  1.
         -2    1    1    2  502    0  0.21109392293E+02 -0.98361016565E+01 -0.22820076082E+02  0.32605386329E+02  0.25500000000E-02 0.  1.
<mgrwt>
<rscale>  0 0.49917006E+02</rscale>
<asrwt>0</asrwt>
<pdfrwt beam="2">  1        1 0.13316011E-01 0.49917006E+02</pdfrwt>
<pdfrwt beam="1">  1       -1 0.11072258E-02 0.49917006E+02</pdfrwt>
<totfact> 0.49764183E+05</totfact>
</mgrwt>
</event>
<event>
 4    1  0.3883670E-002  0.4137966E+02  0.7818608E-02  0.1498297E+00
          1   -1    0    0    0  501  0.00000000000E+00  0.00000000000E+00  0.50908761762E+02  0.50908762012E+02  0.50400000000E-02 0. -1.
         -1   -1    0    0  501    0 -0.00000000000E+00 -0.00000000000E+00 -0.84085513031E+01  0.84085528136E+01  0.50400000000E-02 0. -1.
          2    1    1    2    0  502  0.18546551257E+02  0.91700176270E+01  0.21146794877E+02  0.29584636669E+02  0.25500000000E-02 0.  1.
         -2    1    1    2  502    0 -0.18546551257E+02 -0.91700176270E+01  0.21353415582E+02  0.29732678156E+02  0.25500000000E-02 0.  1.
<mgrwt>
<rscale>  0 0.41379656E+02</rscale>
<asrwt>0</asrwt>
<pdfrwt beam="1">  1        1 0.78321173E-02 0.41379656E+02</pdfrwt>
<pdfrwt beam="2">  1       -1 0.12936234E-02 0.41379656E+02</pdfrwt>
<totfact> 0.75242924E+05</totfact>
</mgrwt>
</event>
<event>
 4    1  0.3883670E-002  0.8894046E+02  0.7818608E-02  0.1305438E+00
          1   -1    0    0    0  501  0.00000000000E+00  0.00000000000E+00  0.87150802872E+02  0.87150803017E+02  0.50400000000E-02 0. -1.
         -1   -1    0    0  501    0 -0.00000000000E+00 -0.00000000000E+00 -0.22691718834E+02  0.22691719393E+02  0.50400000000E-02 0. -1.
          2    1    1    2    0  502  0.43478008824E+02  0.86208938589E+01  0.36672922376E+02  0.57528778054E+02  0.25500000000E-02 0. -1.
         -2    1    1    2  502    0 -0.43478008824E+02 -0.86208938589E+01  0.27786161662E+02  0.52313744357E+02  0.25500000000E-02 0. -1.
<mgrwt>
<rscale>  0 0.88940464E+02</rscale>
<asrwt>0</asrwt>
<pdfrwt beam="1">  1        1 0.13407816E-01 0.88940464E+02</pdfrwt>
<pdfrwt beam="2">  1       -1 0.34910337E-02 0.88940464E+02</pdfrwt>
<totfact> 0.10929349E+05</totfact>
</mgrwt>
</event>
<event>
 4    1  0.3883670E-002  0.8337432E+02  0.7818608E-02  0.1319739E+00
          1   -1    0    0    0  501  0.00000000000E+00  0.00000000000E+00  0.20538864526E+03  0.20538864532E+03  0.50400000000E-02 0. -1.
         -1   -1    0    0  501    0 -0.00000000000E+00 -0.00000000000E+00 -0.84611255520E+01  0.84611270530E+01  0.50400000000E-02 0. -1.
          2    1    1    2    0  502  0.33686821735E+02  0.18830037582E+02  0.58034725310E+02  0.69695061677E+02  0.25500000000E-02 0.  1.
         -2    1    1    2  502    0 -0.33686821735E+02 -0.18830037582E+02  0.13889279440E+03  0.14415471070E+03  0.25500000000E-02 0.  1.
<mgrwt>
<rscale>  0 0.83374319E+02</rscale>
<asrwt>0</asrwt>
<pdfrwt beam="1">  1        1 0.31598253E-01 0.83374319E+02</pdfrwt>
<pdfrwt beam="2">  1       -1 0.13017117E-02 0.83374319E+02</pdfrwt>
<totfact> 0.15107563E+05</totfact>
</mgrwt>
</event>
<event>
 4    1  0.3883670E-002  0.8138975E+02  0.7818608E-02  0.1325153E+00
         -1   -1    0    0  501    0 -0.00000000000E+00  0.00000000000E+00  0.89265955694E+00  0.89267378487E+00  0.50400000000E-02 0. -1.
          1   -1    0    0    0  501  0.00000000000E+00 -0.00000000000E+00 -0.18551974637E+04  0.18551974637E+04  0.50400000000E-02 0. -1.
          2    1    1    2    0  502  0.18416625021E+02  0.35944293006E+02 -0.81333605795E+03  0.81433820213E+03  0.25500000000E-02 0. -1.
         -2    1    1    2  502    0 -0.18416625021E+02 -0.35944293006E+02 -0.10409687461E+04  0.10417519353E+04  0.25500000000E-02 0. -1.
<mgrwt>
<rscale>  0 0.81389753E+02</rscale>
<asrwt>0</asrwt>
<pdfrwt beam="2">  1        1 0.28541191E+00 0.81389753E+02</pdfrwt>
<pdfrwt beam="1">  1       -1 0.13733482E-03 0.81389753E+02</pdfrwt>
<totfact> 0.11952986E+05</totfact>
</mgrwt>
</event>
<event>
 4    1  0.3883670E-002  0.5526753E+02  0.7818608E-02  0.1418838E+00
          1   -1    0    0    0  501  0.00000000000E+00  0.00000000000E+00  0.15490044546E+03  0.15490044554E+03  0.50400000000E-02 0. -1.
         -1   -1    0    0  501    0 -0.00000000000E+00 -0.00000000000E+00 -0.49297770935E+01  0.49297796698E+01  0.50400000000E-02 0. -1.
          2    1    1    2    0  502  0.22915558387E+02 -0.14356071950E+01  0.30517051613E+02  0.38189975516E+02  0.25500000000E-02 0. -1.
         -2    1    1    2  502    0 -0.22915558387E+02  0.14356071950E+01  0.11945361675E+03  0.12164024970E+03  0.25500000000E-02 0. -1.
<mgrwt>
<rscale>  0 0.55267527E+02</rscale>
<asrwt>0</asrwt>
<pdfrwt beam="1">  1        1 0.23830834E-01 0.55267527E+02</pdfrwt>
<pdfrwt beam="2">  1       -1 0.75842757E-03 0.55267527E+02</pdfrwt>
<totfact> 0.41817026E+05</totfact>
</mgrwt>
</event>
<event>
 4    1  0.3883670E-002  0.4290045E+02  0.7818608E-02  0.1487891E+00
          1   -1    0    0    0  501  0.00000000000E+00  0.00000000000E+00  0.50526727755E+02  0.50526728006E+02  0.50400000000E-02 0.  1.
         -1   -1    0    0  501    0 -0.00000000000E+00 -0.00000000000E+00 -0.91063118059E+01  0.91063132006E+01  0.50400000000E-02 0.  1.
          2    1    1    2    0  502  0.21192318156E+02 -0.44827652855E+00  0.25277662365E+02  0.32989021231E+02  0.25500000000E-02 0. -1.
         -2    1    1    2  502    0 -0.21192318156E+02  0.44827652855E+00  0.16142753584E+02  0.26644019976E+02  0.25500000000E-02 0. -1.
<mgrwt>
<rscale>  0 0.42900452E+02</rscale>
<asrwt>0</asrwt>
<pdfrwt beam="1">  1        1 0.77733430E-02 0.42900452E+02</pdfrwt>
<pdfrwt beam="2">  1       -1 0.14009711E-02 0.42900452E+02</pdfrwt>
<totfact> 0.68728104E+05</totfact>
</mgrwt>
</event>
<event>
 4    1  0.3883670E-002  0.9379639E+02  0.7818608E-02  0.1293910E+00
          1   -1    0    0    0  501  0.00000000000E+00  0.00000000000E+00  0.83806971902E+02  0.83806972054E+02  0.50400000000E-02 0.  1.
         -1   -1    0    0  501    0 -0.00000000000E+00 -0.00000000000E+00 -0.26244127402E+02  0.26244127886E+02  0.50400000000E-02 0.  1.
          2    1    1    2    0  502 -0.28118479725E+02  0.35807093358E+02  0.41985273481E+02  0.61931898345E+02  0.25500000000E-02 0. -1.
         -2    1    1    2  502    0  0.28118479725E+02 -0.35807093358E+02  0.15577571019E+02  0.48119201595E+02  0.25500000000E-02 0. -1.
<mgrwt>
<rscale>  0 0.93796394E+02</rscale>
<asrwt>0</asrwt>
<pdfrwt beam="1">  1        1 0.12893381E-01 0.93796394E+02</pdfrwt>
<pdfrwt beam="2">  1       -1 0.40375580E-02 0.93796394E+02</pdfrwt>
<totfact> 0.93888481E+04</totfact>
</mgrwt>
</event>
<event>
 4    1  0.3883670E-002  0.4534259E+02  0.7818608E-02  0.1472214E+00
          1   -1    0    0    0  501  0.00000000000E+00  0.00000000000E+00  0.69895155298E+03  0.69895155300E+03  0.50400000000E-02 0. -1.
         -1   -1    0    0  501    0 -0.00000000000E+00 -0.00000000000E+00 -0.73536078227E+00  0.73537805359E+00  0.50400000000E-02 0. -1.
          2    1    1    2    0  502 -0.76753049446E+01 -0.20961733301E+02  0.41021812404E+03  0.41082504046E+03  0.25500000000E-02 0.  1.
         -2    1    1    2  502    0  0.76753049446E+01  0.20961733301E+02  0.28799806815E+03  0.28886189059E+03  0.25500000000E-02 0.  1.
<mgrwt>
<rscale>  0 0.45342590E+02</rscale>
<asrwt>0</asrwt>
<pdfrwt beam="1">  1        1 0.10753084E+00 0.45342590E+02</pdfrwt>
<pdfrwt beam="2">  1       -1 0.11313393E-03 0.45342590E+02</pdfrwt>
<totfact> 0.84445296E+05</totfact>
</mgrwt>
</event>
<event>
 4    1  0.3883670E-002  0.5478083E+02  0.7818608E-02  0.1421138E+00
         -1   -1    0    0  501    0 -0.00000000000E+00  0.00000000000E+00  0.93977078428E+02  0.93977078563E+02  0.50400000000E-02 0. -1.
          1   -1    0    0    0  501  0.00000000000E+00 -0.00000000000E+00 -0.79831663229E+01  0.79831679138E+01  0.50400000000E-02 0. -1.
          2    1    1    2    0  502  0.16712457217E+02 -0.17003421463E+02  0.68093490939E+02  0.72146698347E+02  0.25500000000E-02 0. -1.
         -2    1    1    2  502    0 -0.16712457217E+02  0.17003421463E+02  0.17900421167E+02  0.29813548130E+02  0.25500000000E-02 0. -1.
<mgrwt>
<rscale>  0 0.54780826E+02</rscale>
<asrwt>0</asrwt>
<pdfrwt beam="2">  1        1 0.12281796E-02 0.54780826E+02</pdfrwt>
<pdfrwt beam="1">  1       -1 0.14458012E-01 0.54780826E+02</pdfrwt>
<totfact> 0.29971683E+05</totfact>
</mgrwt>
</event>
<event>
 4    1  0.3883670E-002  0.4023177E+02  0.7818608E-02  0.1506513E+00
         -1   -1    0    0  501    0 -0.00000000000E+00  0.00000000000E+00  0.32652546187E+02  0.32652546576E+02  0.50400000000E-02 0.  1.
          1   -1    0    0    0  501  0.00000000000E+00 -0.00000000000E+00 -0.12392565575E+02  0.12392566600E+02  0.50400000000E-02 0.  1.
          2    1    1    2    0  502  0.19875982386E+02  0.28961700645E+01  0.89002356077E+01  0.21969448723E+02  0.25500000000E-02 0. -1.
         -2    1    1    2  502    0 -0.19875982386E+02 -0.28961700645E+01  0.11359745005E+02  0.23075664452E+02  0.25500000000E-02 0. -1.
<mgrwt>
<rscale>  0 0.40231771E+02</rscale>
<asrwt>0</asrwt>
<pdfrwt beam="2">  1        1 0.19065487E-02 0.40231771E+02</pdfrwt>
<pdfrwt beam="1">  1       -1 0.50234686E-02 0.40231771E+02</pdfrwt>
<totfact> 0.72217228E+05</totfact>
</mgrwt>
</event>
<event>
 4    1  0.3883670E-002  0.4955623E+02  0.7818608E-02  0.1447750E+00
          1   -1    0    0    0  501  0.00000000000E+00  0.00000000000E+00  0.26815944871E+01  0.26815992234E+01  0.50400000000E-02 0.  1.
         -1   -1    0    0  501    0 -0.00000000000E+00 -0.00000000000E+00 -0.22895124188E+03  0.22895124194E+03  0.50400000000E-02 0.  1.
          2    1    1    2    0  502  0.16208512608E+02 -0.16942022265E+02 -0.75681284331E+02  0.79230075122E+02  0.25500000000E-02 0. -1.
         -2    1    1    2  502    0 -0.16208512608E+02  0.16942022265E+02 -0.15058836306E+03  0.15240276604E+03  0.25500000000E-02 0. -1.
<mgrwt>
<rscale>  0 0.49556228E+02</rscale>
<asrwt>0</asrwt>
<pdfrwt beam="1">  1        1 0.41255355E-03 0.49556228E+02</pdfrwt>
<pdfrwt beam="2">  1       -1 0.35223253E-01 0.49556228E+02</pdfrwt>
<totfact> 0.31499162E+05</totfact>
</mgrwt>
</event>
<event>
 4    1  0.3883670E-002  0.6097075E+02  0.7818608E-02  0.1393803E+00
          1   -1    0    0    0  501  0.00000000000E+00  0.00000000000E+00  0.74847429129E+01  0.74847446098E+01  0.50400000000E-02 0. -1.
         -1   -1    0    0  501    0 -0.00000000000E+00 -0.00000000000E+00 -0.12416699488E+03  0.12416699498E+03  0.50400000000E-02 0. -1.
          2    1    1    2    0  502  0.25136658175E+02  0.16983949133E+02 -0.64837606655E+02  0.71583666821E+02  0.25500000000E-02 0.  1.
         -2    1    1    2  502    0 -0.25136658175E+02 -0.16983949133E+02 -0.51844645314E+02  0.60068072772E+02  0.25500000000E-02 0.  1.
<mgrwt>
<rscale>  0 0.60970752E+02</rscale>
<asrwt>0</asrwt>
<pdfrwt beam="1">  1        1 0.11514991E-02 0.60970752E+02</pdfrwt>
<pdfrwt beam="2">  1       -1 0.19102613E-01 0.60970752E+02</pdfrwt>
<totfact> 0.21813772E+05</totfact>
</mgrwt>
</event>
<event>
 4    1  0.3883670E-002  0.6571297E+02  0.7818608E-02  0.1375309E+00
          1   -1    0    0    0  501  0.00000000000E+00  0.00000000000E+00  0.19836902325E+02  0.19836902965E+02  0.50400000000E-02 0. -1.
         -1   -1    0    0  501    0 -0.00000000000E+00 -0.00000000000E+00 -0.54421234561E+02  0.54421234794E+02  0.50400000000E-02 0. -1.
          2    1    1    2    0  502 -0.28510114250E+02 -0.59980808774E+01 -0.12655689520E+00  0.29134508953E+02  0.25500000000E-02 0.  1.
         -2    1    1    2  502    0  0.28510114250E+02  0.59980808774E+01 -0.34457775340E+02  0.45123628807E+02  0.25500000000E-02 0.  1.
<mgrwt>
<rscale>  0 0.65712974E+02</rscale>
<asrwt>0</asrwt>
<pdfrwt beam="1">  1        1 0.30518312E-02 0.65712974E+02</pdfrwt>
<pdfrwt beam="2">  1       -1 0.83724976E-02 0.65712974E+02</pdfrwt>
<totfact> 0.20533552E+05</totfact>
</mgrwt>
</event>
<event>
 4    1  0.3883670E-002  0.1993504E+03  0.7818608E-02  0.1150288E+00
         -1   -1    0    0  501    0 -0.00000000000E+00  0.00000000000E+00  0.18458348293E+02  0.18458348981E+02  0.50400000000E-02 0.  1.
          1   -1    0    0    0  501  0.00000000000E+00 -0.00000000000E+00 -0.53824690362E+03  0.53824690365E+03  0.50400000000E-02 0.  1.
          2    1    1    2    0  502 -0.91401290702E+02 -0.27215024471E+01 -0.37067084918E+03  0.38178329056E+03  0.25500000000E-02 0. -1.
         -2    1    1    2  502    0  0.91401290702E+02  0.27215024471E+01 -0.14911770615E+03  0.17492196206E+03  0.25500000000E-02 0. -1.
<mgrwt>
<rscale>  0 0.19935044E+03</rscale>
<asrwt>0</asrwt>
<pdfrwt beam="2">  1        1 0.82807204E-01 0.19935044E+03</pdfrwt>
<pdfrwt beam="1">  1       -1 0.28397464E-02 0.19935044E+03</pdfrwt>
<totfact> 0.16288875E+04</totfact>
</mgrwt>
</event>
<event>
 4    1  0.3883670E-002  0.4662226E+02  0.7818608E-02  0.1464461E+00
          1   -1    0    0    0  501  0.00000000000E+00  0.00000000000E+00  0.13642598635E+03  0.13642598645E+03  0.50400000000E-02 0. -1.
         -1   -1    0    0  501    0 -0.00000000000E+00 -0.00000000000E+00 -0.39831749960E+01  0.39831781847E+01  0.50400000000E-02 0. -1.
          2    1    1    2    0  502 -0.29645392888E+00 -0.20222317602E+02  0.31309988239E+02  0.37273923648E+02  0.25500000000E-02 0.  1.
         -2    1    1    2  502    0  0.29645392888E+00  0.20222317602E+02  0.10113282312E+03  0.10313524098E+03  0.25500000000E-02 0.  1.
<mgrwt>
<rscale>  0 0.46622261E+02</rscale>
<asrwt>0</asrwt>
<pdfrwt beam="1">  1        1 0.20988615E-01 0.46622261E+02</pdfrwt>
<pdfrwt beam="2">  1       -1 0.61279637E-03 0.46622261E+02</pdfrwt>
<totfact> 0.62896730E+05</totfact>
</mgrwt>
</event>
<event>
 4    1  0.3883670E-002  0.4541307E+02  0.7818608E-02  0.1471779E+00
         -1   -1    0    0  501    0 -0.00000000000E+00  0.00000000000E+00  0.39216429244E+00  0.39219667753E+00  0.50400000000E-02 0.  1.
          1   -1    0    0    0  501  0.00000000000E+00 -0.00000000000E+00 -0.13146670226E+04  0.13146670226E+04  0.50400000000E-02 0.  1.
          2    1    1    2    0  502  0.10155699499E+02 -0.18585571082E+02 -0.42006389194E+03  0.42059747385E+03  0.25500000000E-02 0. -1.
         -2    1    1    2  502    0 -0.10155699499E+02  0.18585571082E+02 -0.89421096634E+03  0.89446174542E+03  0.25500000000E-02 0. -1.
<mgrwt>
<rscale>  0 0.45413071E+02</rscale>
<asrwt>0</asrwt>
<pdfrwt beam="2">  1        1 0.20225294E+00 0.45413071E+02</pdfrwt>
<pdfrwt beam="1">  1       -1 0.60336512E-04 0.45413071E+02</pdfrwt>
<totfact> 0.71966156E+05</totfact>
</mgrwt>
</event>
<event>
 4    1  0.3883670E-002  0.7359266E+02  0.7818608E-02  0.1348285E+00
         -1   -1    0    0  501    0 -0.00000000000E+00  0.00000000000E+00  0.40054795332E+01  0.40054827041E+01  0.50400000000E-02 0.  1.
          1   -1    0    0    0  501  0.00000000000E+00 -0.00000000000E+00 -0.33802932301E+03  0.33802932305E+03  0.50400000000E-02 0.  1.
          2    1    1    2    0  502 -0.36625538934E+02  0.22723090570E+01 -0.17963494820E+03  0.18334477934E+03  0.25500000000E-02 0. -1.
         -2    1    1    2  502    0  0.36625538934E+02 -0.22723090570E+01 -0.15438889528E+03  0.15869002642E+03  0.25500000000E-02 0. -1.
<mgrwt>
<rscale>  0 0.73592665E+02</rscale>
<asrwt>0</asrwt>
<pdfrwt beam="2">  1        1 0.52004489E-01 0.73592665E+02</pdfrwt>
<pdfrwt beam="1">  1       -1 0.61622813E-03 0.73592665E+02</pdfrwt>
<totfact> 0.23018687E+05</totfact>
</mgrwt>
</event>
<event>
 4    1  0.3883670E-002  0.1492980E+03  0.7818608E-02  0.1201338E+00
          1   -1    0    0    0  501  0.00000000000E+00  0.00000000000E+00  0.52262215697E+03  0.52262215699E+03  0.50400000000E-02 0. -1.
         -1   -1    0    0  501    0 -0.00000000000E+00 -0.00000000000E+00 -0.10662523667E+02  0.10662524858E+02  0.50400000000E-02 0. -1.
          2    1    1    2    0  502  0.66008086416E+02  0.41662652107E+01  0.37961496952E+03  0.38533355723E+03  0.25500000000E-02 0.  1.
         -2    1    1    2  502    0 -0.66008086416E+02 -0.41662652107E+01  0.13234466378E+03  0.14795112462E+03  0.25500000000E-02 0.  1.
<mgrwt>
<rscale>  0 0.14929798E+03</rscale>
<asrwt>0</asrwt>
<pdfrwt beam="1">  1        1 0.80403404E-01 0.14929798E+03</pdfrwt>
<pdfrwt beam="2">  1       -1 0.16403884E-02 0.14929798E+03</pdfrwt>
<totfact> 0.36699675E+04</totfact>
</mgrwt>
</event>
<event>
 4    1  0.3883670E-002  0.5082414E+02  0.7818608E-02  0.1440946E+00
          1   -1    0    0    0  501  0.00000000000E+00  0.00000000000E+00  0.17782316155E+04  0.17782316155E+04  0.50400000000E-02 0. -1.
         -1   -1    0    0  501    0 -0.00000000000E+00 -0.00000000000E+00 -0.36313729734E+00  0.36317227086E+00  0.50400000000E-02 0. -1.
          2    1    1    2    0  502 -0.21177631495E+02 -0.91258167708E+01  0.12625806013E+04  0.12627911733E+04  0.25500000000E-02 0.  1.
         -2    1    1    2  502    0  0.21177631495E+02  0.91258167708E+01  0.51528787687E+03  0.51580361444E+03  0.25500000000E-02 0.  1.
<mgrwt>
<rscale>  0 0.50824141E+02</rscale>
<asrwt>0</asrwt>
<pdfrwt beam="1">  1        1 0.27357810E+00 0.50824141E+02</pdfrwt>
<pdfrwt beam="2">  1       -1 0.55869151E-04 0.50824141E+02</pdfrwt>
<totfact> 0.42135357E+05</totfact>
</mgrwt>
</event>
<event>
 4    1  0.3883670E-002  0.4236067E+02  0.7818608E-02  0.1491525E+00
          1   -1    0    0    0  501  0.00000000000E+00  0.00000000000E+00  0.24810354650E+04  0.24810354650E+04  0.50400000000E-02 0. -1.
         -1   -1    0    0  501    0 -0.00000000000E+00 -0.00000000000E+00 -0.18077914809E+00  0.18084939034E+00  0.50400000000E-02 0. -1.
          2    1    1    2    0  502  0.11884224253E+02 -0.17179764888E+02  0.10356080529E+04  0.10358187189E+04  0.25500000000E-02 0.  1.
         -2    1    1    2  502    0 -0.11884224253E+02  0.17179764888E+02  0.14452466329E+04  0.14453975954E+04  0.25500000000E-02 0.  1.
<mgrwt>
<rscale>  0 0.42360672E+02</rscale>
<asrwt>0</asrwt>
<pdfrwt beam="1">  1        1 0.38169798E+00 0.42360672E+02</pdfrwt>
<pdfrwt beam="2">  1       -1 0.27817565E-04 0.42360672E+02</pdfrwt>
<totfact> 0.38415699E+05</totfact>
</mgrwt>
</event>
<event>
 4    1  0.3883670E-002  0.6119191E+02  0.7818608E-02  0.1392897E+00
          1   -1    0    0    0  501  0.00000000000E+00  0.00000000000E+00  0.36091654700E+03  0.36091654704E+03  0.50400000000E-02 0. -1.
         -1   -1    0    0  501    0 -0.00000000000E+00 -0.00000000000E+00 -0.25937064915E+01  0.25937113883E+01  0.50400000000E-02 0. -1.
          2    1    1    2    0  502  0.22225177019E+02 -0.53879524053E+01  0.58418174499E+02  0.62734931601E+02  0.25500000000E-02 0.  1.
         -2    1    1    2  502    0 -0.22225177019E+02  0.53879524053E+01  0.29990466601E+03  0.30077532682E+03  0.25500000000E-02 0.  1.
<mgrwt>
<rscale>  0 0.61191911E+02</rscale>
<asrwt>0</asrwt>
<pdfrwt beam="1">  1        1 0.55525600E-01 0.61191911E+02</pdfrwt>
<pdfrwt beam="2">  1       -1 0.39903232E-03 0.61191911E+02</pdfrwt>
<totfact> 0.37435504E+05</totfact>
</mgrwt>
</event>
<event>
 4    1  0.3883670E-002  0.4487139E+02  0.7818608E-02  0.1475146E+00
          1   -1    0    0    0  501  0.00000000000E+00  0.00000000000E+00  0.30714057976E+03  0.30714057980E+03  0.50400000000E-02 0.  1.
         -1   -1    0    0  501    0 -0.00000000000E+00 -0.00000000000E+00 -0.16388560091E+01  0.16388637589E+01  0.50400000000E-02 0.  1.
          2    1    1    2    0  502 -0.16736135245E+02  0.14149146709E+02  0.11970292507E+03  0.12169259161E+03  0.25500000000E-02 0.  1.
         -2    1    1    2  502    0  0.16736135245E+02 -0.14149146709E+02  0.18579879868E+03  0.18708685195E+03  0.25500000000E-02 0.  1.
<mgrwt>
<rscale>  0 0.44871389E+02</rscale>
<asrwt>0</asrwt>
<pdfrwt beam="1">  1        1 0.47252445E-01 0.44871389E+02</pdfrwt>
<pdfrwt beam="2">  1       -1 0.25213204E-03 0.44871389E+02</pdfrwt>
<totfact> 0.79237469E+05</totfact>
</mgrwt>
</event>
<event>
 4    1  0.3883670E-002  0.4605175E+02  0.7818608E-02  0.1467881E+00
         -1   -1    0    0  501    0 -0.00000000000E+00  0.00000000000E+00  0.20588458800E+02  0.20588459417E+02  0.50400000000E-02 0. -1.
          1   -1    0    0    0  501  0.00000000000E+00 -0.00000000000E+00 -0.25751850428E+02  0.25751850921E+02  0.50400000000E-02 0. -1.
          2    1    1    2    0  502 -0.16172604386E+02  0.13535724301E+02 -0.11882008989E+02  0.24206427020E+02  0.25500000000E-02 0.  1.
         -2    1    1    2  502    0  0.16172604386E+02 -0.13535724301E+02  0.67186173617E+01  0.22133883318E+02  0.25500000000E-02 0.  1.
<mgrwt>
<rscale>  0 0.46051751E+02</rscale>
<asrwt>0</asrwt>
<pdfrwt beam="2">  1        1 0.39618232E-02 0.46051751E+02</pdfrwt>
<pdfrwt beam="1">  1       -1 0.31674553E-02 0.46051751E+02</pdfrwt>
<totfact> 0.54229101E+05</totfact>
</mgrwt>
</event>
<event>
 4    1  0.3883670E-002  0.1060737E+03  0.7818608E-02  0.1268019E+00
         -1   -1    0    0  501    0 -0.00000000000E+00  0.00000000000E+00  0.31805815943E+03  0.31805815947E+03  0.50400000000E-02 0.  1.
          1   -1    0    0    0  501  0.00000000000E+00 -0.00000000000E+00 -0.88439960693E+01  0.88439975054E+01  0.50400000000E-02 0.  1.
          2    1    1    2    0  502 -0.47591550662E+02 -0.56082185353E+01  0.22464679474E+03  0.22970108882E+03  0.25500000000E-02 0. -1.
         -2    1    1    2  502    0  0.47591550662E+02  0.56082185353E+01  0.84567368621E+02  0.97201068160E+02  0.25500000000E-02 0. -1.
<mgrwt>
<rscale>  0 0.10607366E+03</rscale>
<asrwt>0</asrwt>
<pdfrwt beam="2">  1        1 0.13606150E-02 0.10607366E+03</pdfrwt>
<pdfrwt beam="1">  1       -1 0.48932022E-01 0.10607366E+03</pdfrwt>
<totfact> 0.39744205E+04</totfact>
</mgrwt>
</event>
<event>
 4    1  0.3883670E-002  0.9238724E+02  0.7818608E-02  0.1297172E+00
         -1   -1    0    0  501    0 -0.00000000000E+00  0.00000000000E+00  0.54499229089E+01  0.54499252394E+01  0.50400000000E-02 0. -1.
          1   -1    0    0    0  501  0.00000000000E+00 -0.00000000000E+00 -0.39153763492E+03  0.39153763495E+03  0.50400000000E-02 0. -1.
          2    1    1    2    0  502 -0.44735948693E+01  0.44380542907E+02 -0.14144326212E+03  0.14830995261E+03  0.25500000000E-02 0. -1.
         -2    1    1    2  502    0  0.44735948693E+01 -0.44380542907E+02 -0.24464444990E+03  0.24867760758E+03  0.25500000000E-02 0. -1.
<mgrwt>
<rscale>  0 0.92387237E+02</rscale>
<asrwt>0</asrwt>
<pdfrwt beam="2">  1        1 0.60236537E-01 0.92387237E+02</pdfrwt>
<pdfrwt beam="1">  1       -1 0.83845017E-03 0.92387237E+02</pdfrwt>
<totfact> 0.12978373E+05</totfact>
</mgrwt>
</event>
<event>
 4    1  0.3883670E-002  0.5500612E+02  0.7818608E-02  0.1420070E+00
          1   -1    0    0    0  501  0.00000000000E+00  0.00000000000E+00  0.27107170021E+01  0.27107216875E+01  0.50400000000E-02 0. -1.
         -1   -1    0    0  501    0 -0.00000000000E+00 -0.00000000000E+00 -0.27904709422E+03  0.27904709427E+03  0.50400000000E-02 0. -1.
          2    1    1    2    0  502 -0.23518340280E+02  0.14031040910E+02 -0.12517336461E+03  0.12813412369E+03  0.25500000000E-02 0. -1.
         -2    1    1    2  502    0  0.23518340280E+02 -0.14031040910E+02 -0.15116301261E+03  0.15362369227E+03  0.25500000000E-02 0. -1.
<mgrwt>
<rscale>  0 0.55006122E+02</rscale>
<asrwt>0</asrwt>
<pdfrwt beam="1">  1        1 0.41703397E-03 0.55006122E+02</pdfrwt>
<pdfrwt beam="2">  1       -1 0.42930300E-01 0.55006122E+02</pdfrwt>
<totfact> 0.22727689E+05</totfact>
</mgrwt>
</event>
<event>
 4    1  0.3883670E-002  0.7893129E+02  0.7818608E-02  0.1332112E+00
         -1   -1    0    0  501    0 -0.00000000000E+00  0.00000000000E+00  0.41223638993E+01  0.41223669802E+01  0.50400000000E-02 0. -1.
          1   -1    0    0    0  501  0.00000000000E+00 -0.00000000000E+00 -0.37782603362E+03  0.37782603365E+03  0.50400000000E-02 0. -1.
          2    1    1    2    0  502  0.34527041889E+02  0.19111925489E+02 -0.18875493385E+03  0.19283621905E+03  0.25500000000E-02 0. -1.
         -2    1    1    2  502    0 -0.34527041889E+02 -0.19111925489E+02 -0.18494873587E+03  0.18911218158E+03  0.25500000000E-02 0. -1.
<mgrwt>
<rscale>  0 0.78931286E+02</rscale>
<asrwt>0</asrwt>
<pdfrwt beam="2">  1        1 0.58127055E-01 0.78931286E+02</pdfrwt>
<pdfrwt beam="1">  1       -1 0.63421037E-03 0.78931286E+02</pdfrwt>
<totfact> 0.19543277E+05</totfact>
</mgrwt>
</event>
<event>
 4    1  0.3883670E-002  0.8867080E+02  0.7818608E-02  0.1306103E+00
         -1   -1    0    0  501    0 -0.00000000000E+00  0.00000000000E+00  0.66896927696E+01  0.66896946681E+01  0.50400000000E-02 0.  1.
          1   -1    0    0    0  501  0.00000000000E+00 -0.00000000000E+00 -0.29382926113E+03  0.29382926118E+03  0.50400000000E-02 0.  1.
          2    1    1    2    0  502  0.11750425683E+02  0.38777473944E+02 -0.82577941425E+02  0.91983049556E+02  0.25500000000E-02 0.  1.
         -2    1    1    2  502    0 -0.11750425683E+02 -0.38777473944E+02 -0.20456162694E+03  0.20853590629E+03  0.25500000000E-02 0.  1.
<mgrwt>
<rscale>  0 0.88670802E+02</rscale>
<asrwt>0</asrwt>
<pdfrwt beam="2">  1        1 0.45204492E-01 0.88670802E+02</pdfrwt>
<pdfrwt beam="1">  1       -1 0.10291839E-02 0.88670802E+02</pdfrwt>
<totfact> 0.13743397E+05</totfact>
</mgrwt>
</event>
<event>
 4    1  0.3883670E-002  0.5890367E+02  0.7818608E-02  0.1402491E+00
         -1   -1    0    0  501    0 -0.00000000000E+00  0.00000000000E+00  0.32135125826E+02  0.32135126221E+02  0.50400000000E-02 0. -1.
          1   -1    0    0    0  501  0.00000000000E+00 -0.00000000000E+00 -0.26992596650E+02  0.26992597121E+02  0.50400000000E-02 0. -1.
          2    1    1    2    0  502  0.76171279045E+01  0.28277858851E+02  0.57060539207E+01  0.29836504429E+02  0.25500000000E-02 0. -1.
         -2    1    1    2  502    0 -0.76171279045E+01 -0.28277858851E+02 -0.56352474547E+00  0.29291218912E+02  0.25500000000E-02 0. -1.
<mgrwt>
<rscale>  0 0.58903668E+02</rscale>
<asrwt>0</asrwt>
<pdfrwt beam="2">  1        1 0.41527072E-02 0.58903668E+02</pdfrwt>
<pdfrwt beam="1">  1       -1 0.49438656E-02 0.58903668E+02</pdfrwt>
<totfact> 0.28614295E+05</totfact>
</mgrwt>
</event>
<event>
 4    1  0.3883670E-002  0.7799939E+02  0.7818608E-02  0.1334827E+00
          1   -1    0    0    0  501  0.00000000000E+00  0.00000000000E+00  0.11650249259E+04  0.11650249260E+04  0.50400000000E-02 0. -1.
         -1   -1    0    0  501    0 -0.00000000000E+00 -0.00000000000E+00 -0.13055262879E+01  0.13055360164E+01  0.50400000000E-02 0. -1.
          2    1    1    2    0  502  0.27570510610E+02  0.23811297419E+02  0.79005961372E+03  0.79089904803E+03  0.25500000000E-02 0.  1.
         -2    1    1    2  502    0 -0.27570510610E+02 -0.23811297419E+02  0.37365978594E+03  0.37543141394E+03  0.25500000000E-02 0.  1.
<mgrwt>
<rscale>  0 0.77999393E+02</rscale>
<asrwt>0</asrwt>
<pdfrwt beam="1">  1        1 0.17923540E+00 0.77999393E+02</pdfrwt>
<pdfrwt beam="2">  1       -1 0.20085005E-03 0.77999393E+02</pdfrwt>
<totfact> 0.19433953E+05</totfact>
</mgrwt>
</event>
<event>
 4    1  0.3883670E-002  0.4468357E+02  0.7818608E-02  0.1476327E+00
         -1   -1    0    0  501    0 -0.00000000000E+00  0.00000000000E+00  0.18527791501E+01  0.18527860051E+01  0.50400000000E-02 0. -1.
          1   -1    0    0    0  501  0.00000000000E+00 -0.00000000000E+00 -0.26940843839E+03  0.26940843844E+03  0.50400000000E-02 0. -1.
          2    1    1    2    0  502  0.20090404599E+02 -0.57598024372E+01 -0.18171557154E+03  0.18291350039E+03  0.25500000000E-02 0. -1.
         -2    1    1    2  502    0 -0.20090404599E+02  0.57598024372E+01 -0.85840087705E+02  0.88347724050E+02  0.25500000000E-02 0. -1.
<mgrwt>
<rscale>  0 0.44683566E+02</rscale>
<asrwt>0</asrwt>
<pdfrwt beam="2">  1        1 0.41447422E-01 0.44683566E+02</pdfrwt>
<pdfrwt beam="1">  1       -1 0.28504369E-03 0.44683566E+02</pdfrwt>
<totfact> 0.78263603E+05</totfact>
</mgrwt>
</event>
<event>
 4    1  0.3883670E-002  0.4507890E+02  0.7818608E-02  0.1473850E+00
          1   -1    0    0    0  501  0.00000000000E+00  0.00000000000E+00  0.78091375000E+03  0.78091375001E+03  0.50400000000E-02 0. -1.
         -1   -1    0    0  501    0 -0.00000000000E+00 -0.00000000000E+00 -0.65054463598E+00  0.65056415902E+00  0.50400000000E-02 0. -1.
          2    1    1    2    0  502  0.21383529574E+02  0.41271034915E+00  0.51346248626E+03  0.51390772564E+03  0.25500000000E-02 0.  1.
         -2    1    1    2  502    0 -0.21383529574E+02 -0.41271034915E+00  0.26680071910E+03  0.26765658854E+03  0.25500000000E-02 0.  1.
<mgrwt>
<rscale>  0 0.45078904E+02</rscale>
<asrwt>0</asrwt>
<pdfrwt beam="1">  1        1 0.12014081E+00 0.45078904E+02</pdfrwt>
<pdfrwt beam="2">  1       -1 0.10008510E-03 0.45078904E+02</pdfrwt>
<totfact> 0.85262197E+05</totfact>
</mgrwt>
</event>
<event>
 4    1  0.3883670E-002  0.4441542E+02  0.7818608E-02  0.1478024E+00
         -1   -1    0    0  501    0 -0.00000000000E+00  0.00000000000E+00  0.11379787043E+04  0.11379787044E+04  0.50400000000E-02 0. -1.
          1   -1    0    0    0  501  0.00000000000E+00 -0.00000000000E+00 -0.43336989277E+00  0.43339919885E+00  0.50400000000E-02 0. -1.
          2    1    1    2    0  502  0.67983552597E+00 -0.22004388535E+02  0.49392704949E+03  0.49441742032E+03  0.25500000000E-02 0. -1.
         -2    1    1    2  502    0 -0.67983552597E+00  0.22004388535E+02  0.64361828497E+03  0.64399468324E+03  0.25500000000E-02 0. -1.
<mgrwt>
<rscale>  0 0.44415421E+02</rscale>
<asrwt>0</asrwt>
<pdfrwt beam="2">  1        1 0.66675503E-04 0.44415421E+02</pdfrwt>
<pdfrwt beam="1">  1       -1 0.17507114E+00 0.44415421E+02</pdfrwt>
<totfact> 0.13506640E+05</totfact>
</mgrwt>
</event>
<event>
 4    1  0.3883670E-002  0.4576619E+02  0.7818608E-02  0.1469614E+00
         -1   -1    0    0  501    0 -0.00000000000E+00  0.00000000000E+00  0.24221753329E+03  0.24221753334E+03  0.50400000000E-02 0. -1.
          1   -1    0    0    0  501  0.00000000000E+00 -0.00000000000E+00 -0.21618389494E+01  0.21618448244E+01  0.50400000000E-02 0. -1.
          2    1    1    2    0  502 -0.21553735991E+02  0.74600769876E+01  0.12990236310E+03  0.13188950008E+03  0.25500000000E-02 0. -1.
         -2    1    1    2  502    0  0.21553735991E+02 -0.74600769876E+01  0.11015333123E+03  0.11248987809E+03  0.25500000000E-02 0. -1.
<mgrwt>
<rscale>  0 0.45766189E+02</rscale>
<asrwt>0</asrwt>
<pdfrwt beam="2">  1        1 0.33259109E-03 0.45766189E+02</pdfrwt>
<pdfrwt beam="1">  1       -1 0.37264233E-01 0.45766189E+02</pdfrwt>
<totfact> 0.37647510E+05</totfact>
</mgrwt>
</event>
<event>
 4    1  0.3883670E-002  0.7371192E+02  0.7818608E-02  0.1347907E+00
         -1   -1    0    0  501    0 -0.00000000000E+00  0.00000000000E+00  0.20627014473E+03  0.20627014479E+03  0.50400000000E-02 0.  1.
          1   -1    0    0    0  501  0.00000000000E+00 -0.00000000000E+00 -0.65853518638E+01  0.65853537924E+01  0.50400000000E-02 0.  1.
          2    1    1    2    0  502 -0.22689680103E+02 -0.87300619867E+00  0.16011569369E+02  0.27784061675E+02  0.25500000000E-02 0.  1.
         -2    1    1    2  502    0  0.22689680103E+02  0.87300619867E+00  0.18367322350E+03  0.18507143691E+03  0.25500000000E-02 0.  1.
<mgrwt>
<rscale>  0 0.73711917E+02</rscale>
<asrwt>0</asrwt>
<pdfrwt beam="2">  1        1 0.10131312E-02 0.73711917E+02</pdfrwt>
<pdfrwt beam="1">  1       -1 0.31733869E-01 0.73711917E+02</pdfrwt>
<totfact> 0.11928183E+05</totfact>
</mgrwt>
</event>
<event>
 4    1  0.3883670E-002  0.1168293E+03  0.7818608E-02  0.1248421E+00
          1   -1    0    0    0  501  0.00000000000E+00  0.00000000000E+00  0.21077598284E+02  0.21077598886E+02  0.50400000000E-02 0.  1.
         -1   -1    0    0  501    0 -0.00000000000E+00 -0.00000000000E+00 -0.16189086457E+03  0.16189086465E+03  0.50400000000E-02 0.  1.
          2    1    1    2    0  502  0.17413320943E+01 -0.35729122594E+02  0.19179864530E+01  0.35822913300E+02  0.25500000000E-02 0. -1.
         -2    1    1    2  502    0 -0.17413320943E+01  0.35729122594E+02 -0.14273125274E+03  0.14714555024E+03  0.25500000000E-02 0. -1.
<mgrwt>
<rscale>  0 0.11682929E+03</rscale>
<asrwt>0</asrwt>
<pdfrwt beam="1">  1        1 0.32427076E-02 0.11682929E+03</pdfrwt>
<pdfrwt beam="2">  1       -1 0.24906286E-01 0.11682929E+03</pdfrwt>
<totfact> 0.38409546E+04</totfact>
</mgrwt>
</event>
<event>
 4    1  0.3883670E-002  0.4866790E+02  0.7818608E-02  0.1452662E+00
          1   -1    0    0    0  501  0.00000000000E+00  0.00000000000E+00  0.21061070516E+04  0.21061070516E+04  0.50400000000E-02 0.  1.
         -1   -1    0    0  501    0 -0.00000000000E+00 -0.00000000000E+00 -0.28113174475E+00  0.28117691852E+00  0.50400000000E-02 0.  1.
          2    1    1    2    0  502  0.21653443112E+02  0.10661470884E+02  0.11870317026E+04  0.11872770534E+04  0.25500000000E-02 0. -1.
         -2    1    1    2  502    0 -0.21653443112E+02 -0.10661470884E+02  0.91879421726E+03  0.91911117512E+03  0.25500000000E-02 0. -1.
<mgrwt>
<rscale>  0 0.48667900E+02</rscale>
<asrwt>0</asrwt>
<pdfrwt beam="1">  1        1 0.32400058E+00 0.48667900E+02</pdfrwt>
<pdfrwt beam="2">  1       -1 0.43256635E-04 0.48667900E+02</pdfrwt>
<totfact> 0.37176162E+05</totfact>
</mgrwt>
</event>
<event>
 4    1  0.3883670E-002  0.4863258E+02  0.7818608E-02  0.1452860E+00
         -1   -1    0    0  501    0 -0.00000000000E+00  0.00000000000E+00  0.24874610100E+01  0.24874661160E+01  0.50400000000E-02 0. -1.
          1   -1    0    0    0  501  0.00000000000E+00 -0.00000000000E+00 -0.23770473631E+03  0.23770473636E+03  0.50400000000E-02 0. -1.
          2    1    1    2    0  502 -0.14451682775E+02 -0.19242524534E+02 -0.13482838635E+03  0.13695918976E+03  0.25500000000E-02 0.  1.
         -2    1    1    2  502    0  0.14451682775E+02  0.19242524534E+02 -0.10038888894E+03  0.10323301272E+03  0.25500000000E-02 0.  1.
<mgrwt>
<rscale>  0 0.48632577E+02</rscale>
<asrwt>0</asrwt>
<pdfrwt beam="2">  1        1 0.36569942E-01 0.48632577E+02</pdfrwt>
<pdfrwt beam="1">  1       -1 0.38268690E-03 0.48632577E+02</pdfrwt>
<totfact> 0.62078343E+05</totfact>
</mgrwt>
</event>
<event>
 4    1  0.3883670E-002  0.1308565E+03  0.7818608E-02  0.1226190E+00
          1   -1    0    0    0  501  0.00000000000E+00  0.00000000000E+00  0.15787453111E+04  0.15787453111E+04  0.50400000000E-02 0.  1.
         -1   -1    0    0  501    0 -0.00000000000E+00 -0.00000000000E+00 -0.27115525865E+01  0.27115572704E+01  0.50400000000E-02 0.  1.
          2    1    1    2    0  502 -0.16579822301E+02 -0.57997573906E+02  0.10942926679E+04  0.10959539461E+04  0.25500000000E-02 0.  1.
         -2    1    1    2  502    0  0.16579822301E+02  0.57997573906E+02  0.48174109061E+03  0.48550292221E+03  0.25500000000E-02 0.  1.
<mgrwt>
<rscale>  0 0.13085648E+03</rscale>
<asrwt>0</asrwt>
<pdfrwt beam="1">  1        1 0.24288361E+00 0.13085648E+03</pdfrwt>
<pdfrwt beam="2">  1       -1 0.41716278E-03 0.13085648E+03</pdfrwt>
<totfact> 0.39950772E+04</totfact>
</mgrwt>
</event>
<event>
 4    1  0.3883670E-002  0.4938177E+02  0.7818608E-02  0.1448705E+00
          1   -1    0    0    0  501  0.00000000000E+00  0.00000000000E+00  0.13479499450E+03  0.13479499459E+03  0.50400000000E-02 0. -1.
         -1   -1    0    0  501    0 -0.00000000000E+00 -0.00000000000E+00 -0.45227160296E+01  0.45227188378E+01  0.50400000000E-02 0. -1.
          2    1    1    2    0  502  0.22916157935E+02 -0.45103988436E+01  0.42540561315E+02  0.48530334387E+02  0.25500000000E-02 0. -1.
         -2    1    1    2  502    0 -0.22916157935E+02  0.45103988436E+01  0.87731717156E+02  0.90787379045E+02  0.25500000000E-02 0. -1.
<mgrwt>
<rscale>  0 0.49381765E+02</rscale>
<asrwt>0</asrwt>
<pdfrwt beam="1">  1        1 0.20737690E-01 0.49381765E+02</pdfrwt>
<pdfrwt beam="2">  1       -1 0.69580276E-03 0.49381765E+02</pdfrwt>
<totfact> 0.54370537E+05</totfact>
</mgrwt>
</event>
<event>
 4    1  0.3883670E-002  0.5326220E+02  0.7818608E-02  0.1428500E+00
         -1   -1    0    0  501    0 -0.00000000000E+00  0.00000000000E+00  0.25895592430E+03  0.25895592435E+03  0.50400000000E-02 0. -1.
          1   -1    0    0    0  501  0.00000000000E+00 -0.00000000000E+00 -0.27387473952E+01  0.27387520326E+01  0.50400000000E-02 0. -1.
          2    1    1    2    0  502 -0.20103340774E+02 -0.15097046497E+02  0.17126494088E+03  0.17310039025E+03  0.25500000000E-02 0. -1.
         -2    1    1    2  502    0  0.20103340774E+02  0.15097046497E+02  0.84952236018E+02  0.88594286126E+02  0.25500000000E-02 0. -1.
<mgrwt>
<rscale>  0 0.53262200E+02</rscale>
<asrwt>0</asrwt>
<pdfrwt beam="2">  1        1 0.42134600E-03 0.53262200E+02</pdfrwt>
<pdfrwt beam="1">  1       -1 0.39839384E-01 0.53262200E+02</pdfrwt>
<totfact> 0.25295314E+05</totfact>
</mgrwt>
</event>
<event>
 4    1  0.3883670E-002  0.4044057E+02  0.7818608E-02  0.1504994E+00
         -1   -1    0    0  501    0 -0.00000000000E+00  0.00000000000E+00  0.11670192147E+01  0.11670300978E+01  0.50400000000E-02 0. -1.
          1   -1    0    0    0  501  0.00000000000E+00 -0.00000000000E+00 -0.35034392491E+03  0.35034392494E+03  0.50400000000E-02 0. -1.
          2    1    1    2    0  502  0.78173766460E+01 -0.18491417409E+02 -0.15362620594E+03  0.15493242093E+03  0.25500000000E-02 0.  1.
         -2    1    1    2  502    0 -0.78173766460E+01  0.18491417409E+02 -0.19555069975E+03  0.19657853412E+03  0.25500000000E-02 0.  1.
<mgrwt>
<rscale>  0 0.40440574E+02</rscale>
<asrwt>0</asrwt>
<pdfrwt beam="2">  1        1 0.53898982E-01 0.40440574E+02</pdfrwt>
<pdfrwt beam="1">  1       -1 0.17954254E-03 0.40440574E+02</pdfrwt>
<totfact> 0.10439101E+06</totfact>
</mgrwt>
</event>
<event>
 4    1  0.3883670E-002  0.5243025E+02  0.7818608E-02  0.1432658E+00
          1   -1    0    0    0  501  0.00000000000E+00  0.00000000000E+00  0.26845896995E+01  0.26845944305E+01  0.50400000000E-02 0. -1.
         -1   -1    0    0  501    0 -0.00000000000E+00 -0.00000000000E+00 -0.25599146706E+03  0.25599146711E+03  0.50400000000E-02 0. -1.
          2    1    1    2    0  502 -0.87592498444E+01 -0.21130992285E+02 -0.63473063653E+02  0.67469052971E+02  0.25500000000E-02 0. -1.
         -2    1    1    2  502    0  0.87592498444E+01  0.21130992285E+02 -0.18983381371E+03  0.19120700857E+03  0.25500000000E-02 0. -1.
<mgrwt>
<rscale>  0 0.52430246E+02</rscale>
<asrwt>0</asrwt>
<pdfrwt beam="1">  1        1 0.41301437E-03 0.52430246E+02</pdfrwt>
<pdfrwt beam="2">  1       -1 0.39383284E-01 0.52430246E+02</pdfrwt>
<totfact> 0.26412049E+05</totfact>
</mgrwt>
</event>
<event>
 4    1  0.3883670E-002  0.5060835E+02  0.7818608E-02  0.1442088E+00
         -1   -1    0    0  501    0 -0.00000000000E+00  0.00000000000E+00  0.33035727806E+00  0.33039572147E+00  0.50400000000E-02 0. -1.
          1   -1    0    0    0  501  0.00000000000E+00 -0.00000000000E+00 -0.19380959869E+04  0.19380959869E+04  0.50400000000E-02 0. -1.
          2    1    1    2    0  502  0.12366474309E+02  0.21153156178E+02 -0.72689203637E+03  0.72730490047E+03  0.25500000000E-02 0.  1.
         -2    1    1    2  502    0 -0.12366474309E+02 -0.21153156178E+02 -0.12108735933E+04  0.12111214822E+04  0.25500000000E-02 0.  1.
<mgrwt>
<rscale>  0 0.50608354E+02</rscale>
<asrwt>0</asrwt>
<pdfrwt beam="2">  1        1 0.29815951E+00 0.50608354E+02</pdfrwt>
<pdfrwt beam="1">  1       -1 0.50828706E-04 0.50608354E+02</pdfrwt>
<totfact> 0.38184454E+05</totfact>
</mgrwt>
</event>
<event>
 4    1  0.3883670E-002  0.4741731E+02  0.7818608E-02  0.1459791E+00
          1   -1    0    0    0  501  0.00000000000E+00  0.00000000000E+00  0.23695326514E+02  0.23695327050E+02  0.50400000000E-02 0.  1.
         -1   -1    0    0  501    0 -0.00000000000E+00 -0.00000000000E+00 -0.23721988712E+02  0.23721989248E+02  0.50400000000E-02 0.  1.
          2    1    1    2    0  502 -0.12442183348E+02  0.19979924581E+02 -0.28584983723E+01  0.23710257953E+02  0.25500000000E-02 0.  1.
         -2    1    1    2  502    0  0.12442183348E+02 -0.19979924581E+02  0.28318361737E+01  0.23707058345E+02  0.25500000000E-02 0.  1.
<mgrwt>
<rscale>  0 0.47417309E+02</rscale>
<asrwt>0</asrwt>
<pdfrwt beam="1">  1        1 0.36454349E-02 0.47417309E+02</pdfrwt>
<pdfrwt beam="2">  1       -1 0.36495368E-02 0.47417309E+02</pdfrwt>
<totfact> 0.49945851E+05</totfact>
</mgrwt>
</event>
<event>
 4    1  0.3883670E-002  0.4860608E+02  0.7818608E-02  0.1453008E+00
         -1   -1    0    0  501    0 -0.00000000000E+00  0.00000000000E+00  0.93184934578E+00  0.93186297535E+00  0.50400000000E-02 0.  1.
          1   -1    0    0    0  501  0.00000000000E+00 -0.00000000000E+00 -0.63382928056E+03  0.63382928058E+03  0.50400000000E-02 0.  1.
          2    1    1    2    0  502 -0.98176513769E+01  0.20084465068E+02 -0.19196293204E+03  0.19326028898E+03  0.25500000000E-02 0.  1.
         -2    1    1    2  502    0  0.98176513769E+01 -0.20084465068E+02 -0.44093449917E+03  0.44150085457E+03  0.25500000000E-02 0.  1.
<mgrwt>
<rscale>  0 0.48606079E+02</rscale>
<asrwt>0</asrwt>
<pdfrwt beam="2">  1        1 0.97511854E-01 0.48606079E+02</pdfrwt>
<pdfrwt beam="1">  1       -1 0.14336299E-03 0.48606079E+02</pdfrwt>
<totfact> 0.71102668E+05</totfact>
</mgrwt>
</event>
<event>
 4    1  0.3883670E-002  0.9226754E+02  0.7818608E-02  0.1297452E+00
          1   -1    0    0    0  501  0.00000000000E+00  0.00000000000E+00  0.14720155846E+03  0.14720155855E+03  0.50400000000E-02 0. -1.
         -1   -1    0    0  501    0 -0.00000000000E+00 -0.00000000000E+00 -0.14458573682E+02  0.14458574561E+02  0.50400000000E-02 0. -1.
          2    1    1    2    0  502  0.46961550019E+01 -0.23762304555E+02  0.13516432334E+03  0.13731749816E+03  0.25500000000E-02 0. -1.
         -2    1    1    2  502    0 -0.46961550019E+01  0.23762304555E+02 -0.24213385590E+01  0.24342634954E+02  0.25500000000E-02 0. -1.
<mgrwt>
<rscale>  0 0.92267538E+02</rscale>
<asrwt>0</asrwt>
<pdfrwt beam="1">  1        1 0.22646393E-01 0.92267538E+02</pdfrwt>
<pdfrwt beam="2">  1       -1 0.22243961E-02 0.92267538E+02</pdfrwt>
<totfact> 0.10821108E+05</totfact>
</mgrwt>
</event>
<event>
 4    1  0.3883670E-002  0.4537271E+02  0.7818608E-02  0.1472028E+00
         -1   -1    0    0  501    0 -0.00000000000E+00  0.00000000000E+00  0.73525165185E+01  0.73525182459E+01  0.50400000000E-02 0.  1.
          1   -1    0    0    0  501  0.00000000000E+00 -0.00000000000E+00 -0.69999250970E+02  0.69999251151E+02  0.50400000000E-02 0.  1.
          2    1    1    2    0  502  0.13248966044E+02  0.17081354890E+02 -0.19590752580E+02  0.29173710413E+02  0.25500000000E-02 0.  1.
         -2    1    1    2  502    0 -0.13248966044E+02 -0.17081354890E+02 -0.43055981871E+02  0.48178058984E+02  0.25500000000E-02 0.  1.
<mgrwt>
<rscale>  0 0.45372711E+02</rscale>
<asrwt>0</asrwt>
<pdfrwt beam="2">  1        1 0.10769115E-01 0.45372711E+02</pdfrwt>
<pdfrwt beam="1">  1       -1 0.11311566E-02 0.45372711E+02</pdfrwt>
<totfact> 0.61722737E+05</totfact>
</mgrwt>
</event>
<event>
 4    1  0.3883670E-002  0.4708182E+02  0.7818608E-02  0.1461749E+00
         -1   -1    0    0  501    0 -0.00000000000E+00  0.00000000000E+00  0.13843372847E+03  0.13843372856E+03  0.50400000000E-02 0.  1.
          1   -1    0    0    0  501  0.00000000000E+00 -0.00000000000E+00 -0.40031726885E+01  0.40031758612E+01  0.50400000000E-02 0.  1.
          2    1    1    2    0  502 -0.16130668317E+02  0.16371204193E+02  0.51801184642E+02  0.56670781924E+02  0.25500000000E-02 0. -1.
         -2    1    1    2  502    0  0.16130668317E+02 -0.16371204193E+02  0.82629371138E+02  0.85766122498E+02  0.25500000000E-02 0. -1.
<mgrwt>
<rscale>  0 0.47081816E+02</rscale>
<asrwt>0</asrwt>
<pdfrwt beam="2">  1        1 0.61587299E-03 0.47081816E+02</pdfrwt>
<pdfrwt beam="1">  1       -1 0.21297496E-01 0.47081816E+02</pdfrwt>
<totfact> 0.40636636E+05</totfact>
</mgrwt>
</event>
<event>
 4    1  0.3883670E-002  0.6985026E+02  0.7818608E-02  0.1360603E+00
          1   -1    0    0    0  501  0.00000000000E+00  0.00000000000E+00  0.15283546648E+03  0.15283546657E+03  0.50400000000E-02 0.  1.
         -1   -1    0    0  501    0 -0.00000000000E+00 -0.00000000000E+00 -0.79808996197E+01  0.79809012111E+01  0.50400000000E-02 0.  1.
          2    1    1    2    0  502  0.31893443208E+02 -0.14219954660E+02  0.71034791935E+02  0.79153903896E+02  0.25500000000E-02 0. -1.
         -2    1    1    2  502    0 -0.31893443208E+02  0.14219954660E+02  0.73819774929E+02  0.81662463882E+02  0.25500000000E-02 0. -1.
<mgrwt>
<rscale>  0 0.69850258E+02</rscale>
<asrwt>0</asrwt>
<pdfrwt beam="1">  1        1 0.23513145E-01 0.69850258E+02</pdfrwt>
<pdfrwt beam="2">  1       -1 0.12278310E-02 0.69850258E+02</pdfrwt>
<totfact> 0.22819964E+05</totfact>
</mgrwt>
</event>
<event>
 4    1  0.3883670E-002  0.7281444E+02  0.7818608E-02  0.1350776E+00
         -1   -1    0    0  501    0 -0.00000000000E+00  0.00000000000E+00  0.87528957396E+01  0.87528971906E+01  0.50400000000E-02 0. -1.
          1   -1    0    0    0  501  0.00000000000E+00 -0.00000000000E+00 -0.15143394626E+03  0.15143394634E+03  0.50400000000E-02 0. -1.
          2    1    1    2    0  502 -0.29970353679E+02 -0.18553129584E+02 -0.51292762030E+02  0.62236550034E+02  0.25500000000E-02 0.  1.
         -2    1    1    2  502    0  0.29970353679E+02  0.18553129584E+02 -0.91388288492E+02  0.97950293501E+02  0.25500000000E-02 0.  1.
<mgrwt>
<rscale>  0 0.72814440E+02</rscale>
<asrwt>0</asrwt>
<pdfrwt beam="2">  1        1 0.23297528E-01 0.72814440E+02</pdfrwt>
<pdfrwt beam="1">  1       -1 0.13465996E-02 0.72814440E+02</pdfrwt>
<totfact> 0.20434788E+05</totfact>
</mgrwt>
</event>
<event>
 4    1  0.3883670E-002  0.8711525E+02  0.7818608E-02  0.1309992E+00
         -1   -1    0    0  501    0 -0.00000000000E+00  0.00000000000E+00  0.69067695406E+02  0.69067695590E+02  0.50400000000E-02 0.  1.
          1   -1    0    0    0  501  0.00000000000E+00 -0.00000000000E+00 -0.27469669434E+02  0.27469669896E+02  0.50400000000E-02 0.  1.
          2    1    1    2    0  502  0.40527483090E+02 -0.14670952321E+02  0.27768347010E+02  0.51271774202E+02  0.25500000000E-02 0.  1.
         -2    1    1    2  502    0 -0.40527483090E+02  0.14670952321E+02  0.13829678963E+02  0.45265591284E+02  0.25500000000E-02 0.  1.
<mgrwt>
<rscale>  0 0.87115252E+02</rscale>
<asrwt>0</asrwt>
<pdfrwt beam="2">  1        1 0.42261031E-02 0.87115252E+02</pdfrwt>
<pdfrwt beam="1">  1       -1 0.10625799E-01 0.87115252E+02</pdfrwt>
<totfact> 0.97391393E+04</totfact>
</mgrwt>
</event>
<event>
 4    1  0.3883670E-002  0.5420333E+02  0.7818608E-02  0.1423904E+00
         -1   -1    0    0  501    0 -0.00000000000E+00  0.00000000000E+00  0.55625590210E+00  0.55627873429E+00  0.50400000000E-02 0. -1.
          1   -1    0    0    0  501  0.00000000000E+00 -0.00000000000E+00 -0.13204089677E+04  0.13204089677E+04  0.50400000000E-02 0. -1.
          2    1    1    2    0  502 -0.18422220867E+02 -0.12778140822E+02 -0.10310005464E+04  0.10312442900E+04  0.25500000000E-02 0.  1.
         -2    1    1    2  502    0  0.18422220867E+02  0.12778140822E+02 -0.28885216539E+03  0.28972095637E+03  0.25500000000E-02 0.  1.
<mgrwt>
<rscale>  0 0.54203335E+02</rscale>
<asrwt>0</asrwt>
<pdfrwt beam="2">  1        1 0.20313733E+00 0.54203335E+02</pdfrwt>
<pdfrwt beam="1">  1       -1 0.85580645E-04 0.54203335E+02</pdfrwt>
<totfact> 0.46231741E+05</totfact>
</mgrwt>
</event>
<event>
 4    1  0.3883670E-002  0.1545373E+03  0.7818608E-02  0.1195006E+00
         -1   -1    0    0  501    0 -0.00000000000E+00  0.00000000000E+00  0.67686611587E+03  0.67686611589E+03  0.50400000000E-02 0. -1.
          1   -1    0    0    0  501  0.00000000000E+00 -0.00000000000E+00 -0.88207142406E+01  0.88207156805E+01  0.50400000000E-02 0. -1.
          2    1    1    2    0  502 -0.68738409610E+02 -0.34579243633E+02  0.36531872918E+03  0.37333425632E+03  0.25500000000E-02 0.  1.
         -2    1    1    2  502    0  0.68738409610E+02  0.34579243633E+02  0.30272667245E+03  0.31235257525E+03  0.25500000000E-02 0.  1.
<mgrwt>
<rscale>  0 0.15453728E+03</rscale>
<asrwt>0</asrwt>
<pdfrwt beam="2">  1        1 0.13570327E-02 0.15453728E+03</pdfrwt>
<pdfrwt beam="1">  1       -1 0.10413327E+00 0.15453728E+03</pdfrwt>
<totfact> 0.92277487E+03</totfact>
</mgrwt>
</event>
<event>
 4    1  0.3883670E-002  0.4420095E+02  0.7818608E-02  0.1479392E+00
          1   -1    0    0    0  501  0.00000000000E+00  0.00000000000E+00  0.16992002360E+02  0.16992003108E+02  0.50400000000E-02 0.  1.
         -1   -1    0    0  501    0 -0.00000000000E+00 -0.00000000000E+00 -0.28744751364E+02  0.28744751806E+02  0.50400000000E-02 0.  1.
          2    1    1    2    0  502  0.41849007394E+01  0.20533838804E+02  0.13874377086E+01  0.21001831352E+02  0.25500000000E-02 0. -1.
         -2    1    1    2  502    0 -0.41849007394E+01 -0.20533838804E+02 -0.13140186712E+02  0.24734923561E+02  0.25500000000E-02 0. -1.
<mgrwt>
<rscale>  0 0.44200946E+02</rscale>
<asrwt>0</asrwt>
<pdfrwt beam="1">  1        1 0.26141543E-02 0.44200946E+02</pdfrwt>
<pdfrwt beam="2">  1       -1 0.44222695E-02 0.44200946E+02</pdfrwt>
<totfact> 0.58214618E+05</totfact>
</mgrwt>
</event>
<event>
 4    1  0.3883670E-002  0.4260971E+02  0.7818608E-02  0.1489840E+00
          1   -1    0    0    0  501  0.00000000000E+00  0.00000000000E+00  0.19198469294E+01  0.19198535449E+01  0.50400000000E-02 0.  1.
         -1   -1    0    0  501    0 -0.00000000000E+00 -0.00000000000E+00 -0.23642307487E+03  0.23642307492E+03  0.50400000000E-02 0.  1.
          2    1    1    2    0  502 -0.10820185526E+02  0.17183822137E+02 -0.15330199760E+03  0.15464107680E+03  0.25500000000E-02 0. -1.
         -2    1    1    2  502    0  0.10820185526E+02 -0.17183822137E+02 -0.81201230343E+02  0.83701851674E+02  0.25500000000E-02 0. -1.
<mgrwt>
<rscale>  0 0.42609713E+02</rscale>
<asrwt>0</asrwt>
<pdfrwt beam="1">  1        1 0.29536177E-03 0.42609713E+02</pdfrwt>
<pdfrwt beam="2">  1       -1 0.36372758E-01 0.42609713E+02</pdfrwt>
<totfact> 0.45185883E+05</totfact>
</mgrwt>
</event>
<event>
 4    1  0.3883670E-002  0.4269334E+02  0.7818608E-02  0.1489278E+00
          1   -1    0    0    0  501  0.00000000000E+00  0.00000000000E+00  0.55670005085E+02  0.55670005313E+02  0.50400000000E-02 0. -1.
         -1   -1    0    0  501    0 -0.00000000000E+00 -0.00000000000E+00 -0.81853806935E+01  0.81853822451E+01  0.50400000000E-02 0. -1.
          2    1    1    2    0  502 -0.17029726678E+02 -0.12292137782E+02  0.18032827276E+02  0.27681963587E+02  0.25500000000E-02 0.  1.
         -2    1    1    2  502    0  0.17029726678E+02  0.12292137782E+02  0.29451797116E+02  0.36173423971E+02  0.25500000000E-02 0.  1.
<mgrwt>
<rscale>  0 0.42693336E+02</rscale>
<asrwt>0</asrwt>
<pdfrwt beam="1">  1        1 0.85646166E-02 0.42693336E+02</pdfrwt>
<pdfrwt beam="2">  1       -1 0.12592894E-02 0.42693336E+02</pdfrwt>
<totfact> 0.70200213E+05</totfact>
</mgrwt>
</event>
<event>
 4    1  0.3883670E-002  0.1265885E+03  0.7818608E-02  0.1232607E+00
          1   -1    0    0    0  501  0.00000000000E+00  0.00000000000E+00  0.59806656083E+02  0.59806656296E+02  0.50400000000E-02 0. -1.
         -1   -1    0    0  501    0 -0.00000000000E+00 -0.00000000000E+00 -0.66985206699E+02  0.66985206889E+02  0.50400000000E-02 0. -1.
          2    1    1    2    0  502 -0.18771110711E+01  0.40967979622E+02  0.44698783608E+02  0.60662015816E+02  0.25500000000E-02 0. -1.
         -2    1    1    2  502    0  0.18771110711E+01 -0.40967979622E+02 -0.51877334224E+02  0.66129847368E+02  0.25500000000E-02 0. -1.
<mgrwt>
<rscale>  0 0.12658849E+03</rscale>
<asrwt>0</asrwt>
<pdfrwt beam="1">  1        1 0.92010240E-02 0.12658849E+03</pdfrwt>
<pdfrwt beam="2">  1       -1 0.10305416E-01 0.12658849E+03</pdfrwt>
<totfact> 0.37806915E+04</totfact>
</mgrwt>
</event>
<event>
 4    1  0.3883670E-002  0.6223079E+02  0.7818608E-02  0.1388702E+00
          1   -1    0    0    0  501  0.00000000000E+00  0.00000000000E+00  0.15499791325E+03  0.15499791333E+03  0.50400000000E-02 0. -1.
         -1   -1    0    0  501    0 -0.00000000000E+00 -0.00000000000E+00 -0.62463278187E+01  0.62463298520E+01  0.50400000000E-02 0. -1.
          2    1    1    2    0  502  0.27528882362E+02  0.12712325100E+02  0.56289213482E+02  0.63936829250E+02  0.25500000000E-02 0.  1.
         -2    1    1    2  502    0 -0.27528882362E+02 -0.12712325100E+02  0.92462371947E+02  0.97307413932E+02  0.25500000000E-02 0.  1.
<mgrwt>
<rscale>  0 0.62230795E+02</rscale>
<asrwt>0</asrwt>
<pdfrwt beam="1">  1        1 0.23845835E-01 0.62230795E+02</pdfrwt>
<pdfrwt beam="2">  1       -1 0.96097359E-03 0.62230795E+02</pdfrwt>
<totfact> 0.30871264E+05</totfact>
</mgrwt>
</event>
<event>
 4    1  0.3883670E-002  0.7027184E+02  0.7818608E-02  0.1359171E+00
          1   -1    0    0    0  501  0.00000000000E+00  0.00000000000E+00  0.53039875690E+03  0.53039875692E+03  0.50400000000E-02 0. -1.
         -1   -1    0    0  501    0 -0.00000000000E+00 -0.00000000000E+00 -0.23275536986E+01  0.23275591553E+01  0.50400000000E-02 0. -1.
          2    1    1    2    0  502  0.14120864865E+02  0.31527892756E+02  0.21541928372E+03  0.21817166326E+03  0.25500000000E-02 0. -1.
         -2    1    1    2  502    0 -0.14120864865E+02 -0.31527892756E+02  0.31265191948E+03  0.31455465281E+03  0.25500000000E-02 0. -1.
<mgrwt>
<rscale>  0 0.70271845E+02</rscale>
<asrwt>0</asrwt>
<pdfrwt beam="1">  1        1 0.81599897E-01 0.70271845E+02</pdfrwt>
<pdfrwt beam="2">  1       -1 0.35808522E-03 0.70271845E+02</pdfrwt>
<totfact> 0.27690731E+05</totfact>
</mgrwt>
</event>
<event>
 4    1  0.3883670E-002  0.5434884E+02  0.7818608E-02  0.1423204E+00
         -1   -1    0    0  501    0 -0.00000000000E+00  0.00000000000E+00  0.11785367994E+01  0.11785475761E+01  0.50400000000E-02 0.  1.
          1   -1    0    0    0  501  0.00000000000E+00 -0.00000000000E+00 -0.62657839162E+03  0.62657839164E+03  0.50400000000E-02 0.  1.
          2    1    1    2    0  502  0.96451529513E+01 -0.20409197457E+02 -0.13795294456E+03  0.13978762189E+03  0.25500000000E-02 0.  1.
         -2    1    1    2  502    0 -0.96451529513E+01  0.20409197457E+02 -0.48744691027E+03  0.48796931733E+03  0.25500000000E-02 0.  1.
<mgrwt>
<rscale>  0 0.54348839E+02</rscale>
<asrwt>0</asrwt>
<pdfrwt beam="2">  1        1 0.96396410E-01 0.54348839E+02</pdfrwt>
<pdfrwt beam="1">  1       -1 0.18131468E-03 0.54348839E+02</pdfrwt>
<totfact> 0.53828983E+05</totfact>
</mgrwt>
</event>
<event>
 4    1  0.3883670E-002  0.4185840E+02  0.7818608E-02  0.1494965E+00
          1   -1    0    0    0  501  0.00000000000E+00  0.00000000000E+00  0.69863906775E+03  0.69863906777E+03  0.50400000000E-02 0. -1.
         -1   -1    0    0  501    0 -0.00000000000E+00 -0.00000000000E+00 -0.62696812425E+00  0.62698838142E+00  0.50400000000E-02 0. -1.
          2    1    1    2    0  502 -0.19393177584E+02 -0.58157031750E+01  0.26042938955E+03  0.26121520762E+03  0.25500000000E-02 0. -1.
         -2    1    1    2  502    0  0.19393177584E+02  0.58157031750E+01  0.43758271007E+03  0.43805084853E+03  0.25500000000E-02 0. -1.
<mgrwt>
<rscale>  0 0.41858405E+02</rscale>
<asrwt>0</asrwt>
<pdfrwt beam="1">  1        1 0.10748324E+00 0.41858405E+02</pdfrwt>
<pdfrwt beam="2">  1       -1 0.96457925E-04 0.41858405E+02</pdfrwt>
<totfact> 0.10263001E+06</totfact>
</mgrwt>
</event>
<event>
 4    1  0.3883670E-002  0.4399641E+02  0.7818608E-02  0.1480706E+00
          1   -1    0    0    0  501  0.00000000000E+00  0.00000000000E+00  0.19030754789E+02  0.19030755456E+02  0.50400000000E-02 0.  1.
         -1   -1    0    0  501    0 -0.00000000000E+00 -0.00000000000E+00 -0.25428361911E+02  0.25428362411E+02  0.50400000000E-02 0.  1.
          2    1    1    2    0  502 -0.11466629011E+02  0.18290544843E+02 -0.74733417220E+01  0.22844659212E+02  0.25500000000E-02 0. -1.
         -2    1    1    2  502    0  0.11466629011E+02 -0.18290544843E+02  0.10757345997E+01  0.21614458655E+02  0.25500000000E-02 0. -1.
<mgrwt>
<rscale>  0 0.43996406E+02</rscale>
<asrwt>0</asrwt>
<pdfrwt beam="1">  1        1 0.29278085E-02 0.43996406E+02</pdfrwt>
<pdfrwt beam="2">  1       -1 0.39120558E-02 0.43996406E+02</pdfrwt>
<totfact> 0.59476126E+05</totfact>
</mgrwt>
</event>
<event>
 4    1  0.3883670E-002  0.7807884E+02  0.7818608E-02  0.1334594E+00
         -1   -1    0    0  501    0 -0.00000000000E+00  0.00000000000E+00  0.35040904922E+02  0.35040905284E+02  0.50400000000E-02 0. -1.
          1   -1    0    0    0  501  0.00000000000E+00 -0.00000000000E+00 -0.43494199544E+02  0.43494199836E+02  0.50400000000E-02 0. -1.
          2    1    1    2    0  502 -0.12160393732E+02  0.35482604705E+02  0.66618473952E+01  0.38095546059E+02  0.25500000000E-02 0.  1.
         -2    1    1    2  502    0  0.12160393732E+02 -0.35482604705E+02 -0.15115142018E+02  0.40439559061E+02  0.25500000000E-02 0.  1.
<mgrwt>
<rscale>  0 0.78078835E+02</rscale>
<asrwt>0</asrwt>
<pdfrwt beam="2">  1        1 0.66914154E-02 0.78078835E+02</pdfrwt>
<pdfrwt beam="1">  1       -1 0.53909085E-02 0.78078835E+02</pdfrwt>
<totfact> 0.14122984E+05</totfact>
</mgrwt>
</event>
<event>
 4    1  0.3883670E-002  0.1040312E+03  0.7818608E-02  0.1272040E+00
          1   -1    0    0    0  501  0.00000000000E+00  0.00000000000E+00  0.15225850887E+04  0.15225850887E+04  0.50400000000E-02 0. -1.
         -1   -1    0    0  501    0 -0.00000000000E+00 -0.00000000000E+00 -0.17769895261E+01  0.17769966735E+01  0.50400000000E-02 0. -1.
          2    1    1    2    0  502 -0.17502654707E+02  0.18230923108E+02  0.14265749518E+04  0.14267987954E+04  0.25500000000E-02 0.  1.
         -2    1    1    2  502    0  0.17502654707E+02 -0.18230923108E+02  0.94233147360E+02  0.97563289956E+02  0.25500000000E-02 0.  1.
<mgrwt>
<rscale>  0 0.10403121E+03</rscale>
<asrwt>0</asrwt>
<pdfrwt beam="1">  1        1 0.23424438E+00 0.10403121E+03</pdfrwt>
<pdfrwt beam="2">  1       -1 0.27338294E-03 0.10403121E+03</pdfrwt>
<totfact> 0.76803754E+04</totfact>
</mgrwt>
</event>
<event>
 4    1  0.3883670E-002  0.4820914E+02  0.7818608E-02  0.1455247E+00
         -1   -1    0    0  501    0 -0.00000000000E+00  0.00000000000E+00  0.14454736645E+01  0.14454824510E+01  0.50400000000E-02 0.  1.
          1   -1    0    0    0  501  0.00000000000E+00 -0.00000000000E+00 -0.40196412390E+03  0.40196412393E+03  0.50400000000E-02 0.  1.
          2    1    1    2    0  502  0.43762051721E+01  0.20180999625E+02 -0.30430656998E+03  0.30500641379E+03  0.25500000000E-02 0.  1.
         -2    1    1    2  502    0 -0.43762051721E+01 -0.20180999625E+02 -0.96212080261E+02  0.98403192591E+02  0.25500000000E-02 0.  1.
<mgrwt>
<rscale>  0 0.48209142E+02</rscale>
<asrwt>0</asrwt>
<pdfrwt beam="2">  1        1 0.61840546E-01 0.48209142E+02</pdfrwt>
<pdfrwt beam="1">  1       -1 0.22238156E-03 0.48209142E+02</pdfrwt>
<totfact> 0.69325837E+05</totfact>
</mgrwt>
</event>
<event>
 4    1  0.3883670E-002  0.7012916E+02  0.7818608E-02  0.1359654E+00
         -1   -1    0    0  501    0 -0.00000000000E+00  0.00000000000E+00  0.12947322634E+02  0.12947323615E+02  0.50400000000E-02 0. -1.
          1   -1    0    0    0  501  0.00000000000E+00 -0.00000000000E+00 -0.94963638214E+02  0.94963638348E+02  0.50400000000E-02 0. -1.
          2    1    1    2    0  502 -0.30342259745E+01  0.20701124915E+02 -0.84306339828E+02  0.86863698066E+02  0.25500000000E-02 0. -1.
         -2    1    1    2  502    0  0.30342259745E+01 -0.20701124915E+02  0.22900242470E+01  0.21047263897E+02  0.25500000000E-02 0. -1.
<mgrwt>
<rscale>  0 0.70129164E+02</rscale>
<asrwt>0</asrwt>
<pdfrwt beam="2">  1        1 0.14609790E-01 0.70129164E+02</pdfrwt>
<pdfrwt beam="1">  1       -1 0.19918959E-02 0.70129164E+02</pdfrwt>
<totfact> 0.20939899E+05</totfact>
</mgrwt>
</event>
<event>
 4    1  0.3883670E-002  0.4717260E+02  0.7818608E-02  0.1461217E+00
         -1   -1    0    0  501    0 -0.00000000000E+00  0.00000000000E+00  0.45765394625E+00  0.45768169738E+00  0.50400000000E-02 0.  1.
          1   -1    0    0    0  501  0.00000000000E+00 -0.00000000000E+00 -0.12155399168E+04  0.12155399168E+04  0.50400000000E-02 0.  1.
          2    1    1    2    0  502  0.18249006708E+02  0.14204720050E+02 -0.72710373646E+03  0.72747140418E+03  0.25500000000E-02 0.  1.
         -2    1    1    2  502    0 -0.18249006708E+02 -0.14204720050E+02 -0.48797852641E+03  0.48852619434E+03  0.25500000000E-02 0.  1.
<mgrwt>
<rscale>  0 0.47172599E+02</rscale>
<asrwt>0</asrwt>
<pdfrwt beam="2">  1        1 0.18700356E+00 0.47172599E+02</pdfrwt>
<pdfrwt beam="1">  1       -1 0.70411408E-04 0.47172599E+02</pdfrwt>
<totfact> 0.68291435E+05</totfact>
</mgrwt>
</event>
<event>
 4    1  0.3883670E-002  0.4297974E+02  0.7818608E-02  0.1487363E+00
          1   -1    0    0    0  501  0.00000000000E+00  0.00000000000E+00  0.58165101455E+03  0.58165101457E+03  0.50400000000E-02 0.  1.
         -1   -1    0    0  501    0 -0.00000000000E+00 -0.00000000000E+00 -0.79396394961E+00  0.79397994615E+00  0.50400000000E-02 0.  1.
          2    1    1    2    0  502  0.18994215470E+02  0.79353194873E+01  0.20681925050E+03  0.20784116989E+03  0.25500000000E-02 0.  1.
         -2    1    1    2  502    0 -0.18994215470E+02 -0.79353194873E+01  0.37403780010E+03  0.37460382463E+03  0.25500000000E-02 0.  1.
<mgrwt>
<rscale>  0 0.42979744E+02</rscale>
<asrwt>0</asrwt>
<pdfrwt beam="1">  1        1 0.89485245E-01 0.42979744E+02</pdfrwt>
<pdfrwt beam="2">  1       -1 0.12214889E-03 0.42979744E+02</pdfrwt>
<totfact> 0.95769016E+05</totfact>
</mgrwt>
</event>
<event>
 4    1  0.3883670E-002  0.5022349E+02  0.7818608E-02  0.1444140E+00
         -1   -1    0    0  501    0 -0.00000000000E+00  0.00000000000E+00  0.16944114615E+01  0.16944189572E+01  0.50400000000E-02 0.  1.
          1   -1    0    0    0  501  0.00000000000E+00 -0.00000000000E+00 -0.37216363437E+03  0.37216363441E+03  0.50400000000E-02 0.  1.
          2    1    1    2    0  502 -0.19476500561E+02  0.15050261010E+02 -0.22227145210E+03  0.22363014747E+03  0.25500000000E-02 0. -1.
         -2    1    1    2  502    0  0.19476500561E+02 -0.15050261010E+02 -0.14819777081E+03  0.15022790589E+03  0.25500000000E-02 0. -1.
<mgrwt>
<rscale>  0 0.50223490E+02</rscale>
<asrwt>0</asrwt>
<pdfrwt beam="2">  1        1 0.57255879E-01 0.50223490E+02</pdfrwt>
<pdfrwt beam="1">  1       -1 0.26067956E-03 0.50223490E+02</pdfrwt>
<totfact> 0.61883144E+05</totfact>
</mgrwt>
</event>
<event>
 4    1  0.3883670E-002  0.5473753E+02  0.7818608E-02  0.1421344E+00
         -1   -1    0    0  501    0 -0.00000000000E+00  0.00000000000E+00  0.73705089527E+00  0.73706812699E+00  0.50400000000E-02 0. -1.
          1   -1    0    0    0  501  0.00000000000E+00 -0.00000000000E+00 -0.10162671618E+04  0.10162671618E+04  0.50400000000E-02 0. -1.
          2    1    1    2    0  502  0.21452963439E+02 -0.16994139317E+02 -0.51032420936E+03  0.51105755945E+03  0.25500000000E-02 0. -1.
         -2    1    1    2  502    0 -0.21452963439E+02  0.16994139317E+02 -0.50520590155E+03  0.50594667049E+03  0.25500000000E-02 0. -1.
<mgrwt>
<rscale>  0 0.54737533E+02</rscale>
<asrwt>0</asrwt>
<pdfrwt beam="2">  1        1 0.15634767E+00 0.54737533E+02</pdfrwt>
<pdfrwt beam="1">  1       -1 0.11339459E-03 0.54737533E+02</pdfrwt>
<totfact> 0.50417885E+05</totfact>
</mgrwt>
</event>
<event>
 4    1  0.3883670E-002  0.8299849E+02  0.7818608E-02  0.1320751E+00
          1   -1    0    0    0  501  0.00000000000E+00  0.00000000000E+00  0.13487355582E+03  0.13487355592E+03  0.50400000000E-02 0.  1.
         -1   -1    0    0  501    0 -0.00000000000E+00 -0.00000000000E+00 -0.12768902819E+02  0.12768903813E+02  0.50400000000E-02 0.  1.
          2    1    1    2    0  502 -0.30168147281E+02 -0.28489566572E+02  0.59906533726E+02  0.72873625568E+02  0.25500000000E-02 0.  1.
         -2    1    1    2  502    0  0.30168147281E+02  0.28489566572E+02  0.62198119279E+02  0.74768834163E+02  0.25500000000E-02 0.  1.
<mgrwt>
<rscale>  0 0.82998492E+02</rscale>
<asrwt>0</asrwt>
<pdfrwt beam="1">  1        1 0.20749777E-01 0.82998492E+02</pdfrwt>
<pdfrwt beam="2">  1       -1 0.19644467E-02 0.82998492E+02</pdfrwt>
<totfact> 0.14159110E+05</totfact>
</mgrwt>
</event>
<event>
 4    1  0.3883670E-002  0.5535956E+02  0.7818608E-02  0.1418406E+00
         -1   -1    0    0  501    0 -0.00000000000E+00  0.00000000000E+00  0.84380943604E+00  0.84382448764E+00  0.50400000000E-02 0.  1.
          1   -1    0    0    0  501  0.00000000000E+00 -0.00000000000E+00 -0.90798166392E+03  0.90798166394E+03  0.50400000000E-02 0.  1.
          2    1    1    2    0  502 -0.62286688468E+01 -0.26919472562E+02 -0.48062433264E+03  0.48141790936E+03  0.25500000000E-02 0.  1.
         -2    1    1    2  502    0  0.62286688468E+01  0.26919472562E+02 -0.42651352184E+03  0.42740757906E+03  0.25500000000E-02 0.  1.
<mgrwt>
<rscale>  0 0.55359564E+02</rscale>
<asrwt>0</asrwt>
<pdfrwt beam="2">  1        1 0.13968871E+00 0.55359564E+02</pdfrwt>
<pdfrwt beam="1">  1       -1 0.12981872E-03 0.55359564E+02</pdfrwt>
<totfact> 0.50281638E+05</totfact>
</mgrwt>
</event>
<event>
 4    1  0.3883670E-002  0.9788472E+02  0.7818608E-02  0.1284808E+00
         -1   -1    0    0  501    0 -0.00000000000E+00  0.00000000000E+00  0.18871701166E+02  0.18871701839E+02  0.50400000000E-02 0.  1.
          1   -1    0    0    0  501  0.00000000000E+00 -0.00000000000E+00 -0.12692838353E+03  0.12692838363E+03  0.50400000000E-02 0.  1.
          2    1    1    2    0  502  0.31437737583E+02  0.15718265257E+02 -0.32984108646E+01  0.35302616444E+02  0.25500000000E-02 0. -1.
         -2    1    1    2  502    0 -0.31437737583E+02 -0.15718265257E+02 -0.10475827150E+03  0.11049746903E+03  0.25500000000E-02 0. -1.
<mgrwt>
<rscale>  0 0.97884720E+02</rscale>
<asrwt>0</asrwt>
<pdfrwt beam="2">  1        1 0.19527443E-01 0.97884720E+02</pdfrwt>
<pdfrwt beam="1">  1       -1 0.29033388E-02 0.97884720E+02</pdfrwt>
<totfact> 0.89686524E+04</totfact>
</mgrwt>
</event>
<event>
 4    1  0.3883670E-002  0.8336610E+02  0.7818608E-02  0.1319762E+00
         -1   -1    0    0  501    0 -0.00000000000E+00  0.00000000000E+00  0.14229004534E+03  0.14229004543E+03  0.50400000000E-02 0. -1.
          1   -1    0    0    0  501  0.00000000000E+00 -0.00000000000E+00 -0.12210807934E+02  0.12210808974E+02  0.50400000000E-02 0. -1.
          2    1    1    2    0  502 -0.39055405745E+02  0.50706463899E+01  0.90344910107E+02  0.98555765744E+02  0.25500000000E-02 0. -1.
         -2    1    1    2  502    0  0.39055405745E+02 -0.50706463899E+01  0.39734327300E+02  0.55945088661E+02  0.25500000000E-02 0. -1.
<mgrwt>
<rscale>  0 0.83366096E+02</rscale>
<asrwt>0</asrwt>
<pdfrwt beam="2">  1        1 0.18785861E-02 0.83366096E+02</pdfrwt>
<pdfrwt beam="1">  1       -1 0.21890775E-01 0.83366096E+02</pdfrwt>
<totfact> 0.95429381E+04</totfact>
</mgrwt>
</event>
<event>
 4    1  0.3883670E-002  0.7092387E+02  0.7818608E-02  0.1356979E+00
          1   -1    0    0    0  501  0.00000000000E+00  0.00000000000E+00  0.39215429690E+03  0.39215429694E+03  0.50400000000E-02 0.  1.
         -1   -1    0    0  501    0 -0.00000000000E+00 -0.00000000000E+00 -0.32067686362E+01  0.32067725968E+01  0.50400000000E-02 0.  1.
          2    1    1    2    0  502 -0.34256984847E+02 -0.19463074805E+01  0.14454599690E+03  0.14856269502E+03  0.25500000000E-02 0.  1.
         -2    1    1    2  502    0  0.34256984847E+02  0.19463074805E+01  0.24440153136E+03  0.24679837451E+03  0.25500000000E-02 0.  1.
<mgrwt>
<rscale>  0 0.70923872E+02</rscale>
<asrwt>0</asrwt>
<pdfrwt beam="1">  1        1 0.60331403E-01 0.70923872E+02</pdfrwt>
<pdfrwt beam="2">  1       -1 0.49334955E-03 0.70923872E+02</pdfrwt>
<totfact> 0.25975223E+05</totfact>
</mgrwt>
</event>
<event>
 4    1  0.3883670E-002  0.5157139E+02  0.7818608E-02  0.1437046E+00
          1   -1    0    0    0  501  0.00000000000E+00  0.00000000000E+00  0.26432645843E+01  0.26432693892E+01  0.50400000000E-02 0. -1.
         -1   -1    0    0  501    0 -0.00000000000E+00 -0.00000000000E+00 -0.25154554787E+03  0.25154554793E+03  0.50400000000E-02 0. -1.
          2    1    1    2    0  502  0.23538603004E+02  0.91706316783E+01 -0.14993667025E+03  0.15204989776E+03  0.25500000000E-02 0. -1.
         -2    1    1    2  502    0 -0.23538603004E+02 -0.91706316783E+01 -0.98965613045E+02  0.10213891956E+03  0.25500000000E-02 0. -1.
<mgrwt>
<rscale>  0 0.51571390E+02</rscale>
<asrwt>0</asrwt>
<pdfrwt beam="1">  1        1 0.40665666E-03 0.51571390E+02</pdfrwt>
<pdfrwt beam="2">  1       -1 0.38699297E-01 0.51571390E+02</pdfrwt>
<totfact> 0.27683499E+05</totfact>
</mgrwt>
</event>
<event>
 4    1  0.3883670E-002  0.4879961E+02  0.7818608E-02  0.1451926E+00
          1   -1    0    0    0  501  0.00000000000E+00  0.00000000000E+00  0.23598821581E+01  0.23598875400E+01  0.50400000000E-02 0.  1.
         -1   -1    0    0  501    0 -0.00000000000E+00 -0.00000000000E+00 -0.25227940943E+03  0.25227940948E+03  0.50400000000E-02 0.  1.
          2    1    1    2    0  502  0.16297510579E+01 -0.21840532513E+02 -0.18108373816E+03  0.18240335847E+03  0.25500000000E-02 0.  1.
         -2    1    1    2  502    0 -0.16297510579E+01  0.21840532513E+02 -0.68835789111E+02  0.72235938548E+02  0.25500000000E-02 0.  1.
<mgrwt>
<rscale>  0 0.48799605E+02</rscale>
<asrwt>0</asrwt>
<pdfrwt beam="1">  1        1 0.36305941E-03 0.48799605E+02</pdfrwt>
<pdfrwt beam="2">  1       -1 0.38812196E-01 0.48799605E+02</pdfrwt>
<totfact> 0.31714398E+05</totfact>
</mgrwt>
</event>
<event>
 4    1  0.3883670E-002  0.5890403E+02  0.7818608E-02  0.1402489E+00
         -1   -1    0    0  501    0 -0.00000000000E+00  0.00000000000E+00  0.17625540880E+01  0.17625612939E+01  0.50400000000E-02 0.  1.
          1   -1    0    0    0  501  0.00000000000E+00 -0.00000000000E+00 -0.49213781829E+03  0.49213781832E+03  0.50400000000E-02 0.  1.
          2    1    1    2    0  502  0.19678409401E+02 -0.13068302409E+02 -0.97700149738E+02  0.10051536992E+03  0.25500000000E-02 0. -1.
         -2    1    1    2  502    0 -0.19678409401E+02  0.13068302409E+02 -0.39267511446E+03  0.39338500969E+03  0.25500000000E-02 0. -1.
<mgrwt>
<rscale>  0 0.58904034E+02</rscale>
<asrwt>0</asrwt>
<pdfrwt beam="2">  1        1 0.75713401E-01 0.58904034E+02</pdfrwt>
<pdfrwt beam="1">  1       -1 0.27116312E-03 0.58904034E+02</pdfrwt>
<totfact> 0.43126197E+05</totfact>
</mgrwt>
</event>
<event>
 4    1  0.3883670E-002  0.8221693E+02  0.7818608E-02  0.1322875E+00
         -1   -1    0    0  501    0 -0.00000000000E+00  0.00000000000E+00  0.53157933279E+02  0.53157933518E+02  0.50400000000E-02 0. -1.
          1   -1    0    0    0  501  0.00000000000E+00 -0.00000000000E+00 -0.31790287900E+02  0.31790288300E+02  0.50400000000E-02 0. -1.
          2    1    1    2    0  502  0.39730436945E+02  0.55361517802E+01  0.19968412991E+02  0.44809531578E+02  0.25500000000E-02 0. -1.
         -2    1    1    2  502    0 -0.39730436945E+02 -0.55361517802E+01  0.13992323878E+01  0.40138690239E+02  0.25500000000E-02 0. -1.
<mgrwt>
<rscale>  0 0.82216933E+02</rscale>
<asrwt>0</asrwt>
<pdfrwt beam="2">  1        1 0.48908136E-02 0.82216933E+02</pdfrwt>
<pdfrwt beam="1">  1       -1 0.81781435E-02 0.82216933E+02</pdfrwt>
<totfact> 0.11726784E+05</totfact>
</mgrwt>
</event>
<event>
 4    1  0.3883670E-002  0.4043475E+02  0.7818608E-02  0.1505036E+00
         -1   -1    0    0  501    0 -0.00000000000E+00  0.00000000000E+00  0.51599192649E+02  0.51599192895E+02  0.50400000000E-02 0. -1.
          1   -1    0    0    0  501  0.00000000000E+00 -0.00000000000E+00 -0.79214853566E+01  0.79214869599E+01  0.50400000000E-02 0. -1.
          2    1    1    2    0  502  0.19923804084E+02 -0.19387671925E+01  0.26008981945E+02  0.32820480431E+02  0.25500000000E-02 0. -1.
         -2    1    1    2  502    0 -0.19923804084E+02  0.19387671925E+01  0.17668725347E+02  0.26700199424E+02  0.25500000000E-02 0. -1.
<mgrwt>
<rscale>  0 0.40434753E+02</rscale>
<asrwt>0</asrwt>
<pdfrwt beam="2">  1        1 0.12186902E-02 0.40434753E+02</pdfrwt>
<pdfrwt beam="1">  1       -1 0.79383374E-02 0.40434753E+02</pdfrwt>
<totfact> 0.68314055E+05</totfact>
</mgrwt>
</event>
<event>
 4    1  0.3883670E-002  0.4807743E+02  0.7818608E-02  0.1455996E+00
         -1   -1    0    0  501    0 -0.00000000000E+00  0.00000000000E+00  0.24091401855E+02  0.24091402382E+02  0.50400000000E-02 0.  1.
          1   -1    0    0    0  501  0.00000000000E+00 -0.00000000000E+00 -0.23986147103E+02  0.23986147632E+02  0.50400000000E-02 0.  1.
          2    1    1    2    0  502  0.45193818862E+00 -0.20809128704E+02 -0.11973865687E+02  0.24012445763E+02  0.25500000000E-02 0. -1.
         -2    1    1    2  502    0 -0.45193818862E+00  0.20809128704E+02  0.12079120439E+02  0.24065104251E+02  0.25500000000E-02 0. -1.
<mgrwt>
<rscale>  0 0.48077435E+02</rscale>
<asrwt>0</asrwt>
<pdfrwt beam="2">  1        1 0.36901766E-02 0.48077435E+02</pdfrwt>
<pdfrwt beam="1">  1       -1 0.37063696E-02 0.48077435E+02</pdfrwt>
<totfact> 0.48242701E+05</totfact>
</mgrwt>
</event>
<event>
 4    1  0.3883670E-002  0.5417207E+02  0.7818608E-02  0.1424055E+00
          1   -1    0    0    0  501  0.00000000000E+00  0.00000000000E+00  0.13457856963E+03  0.13457856972E+03  0.50400000000E-02 0.  1.
         -1   -1    0    0  501    0 -0.00000000000E+00 -0.00000000000E+00 -0.54514848192E+01  0.54514871490E+01  0.50400000000E-02 0.  1.
          2    1    1    2    0  502  0.20230521178E+02 -0.12191228674E+02  0.30294859013E+02  0.38414561468E+02  0.25500000000E-02 0.  1.
         -2    1    1    2  502    0 -0.20230521178E+02  0.12191228674E+02  0.98832225798E+02  0.10161549540E+03  0.25500000000E-02 0.  1.
<mgrwt>
<rscale>  0 0.54172067E+02</rscale>
<asrwt>0</asrwt>
<pdfrwt beam="1">  1        1 0.20704395E-01 0.54172067E+02</pdfrwt>
<pdfrwt beam="2">  1       -1 0.83869020E-03 0.54172067E+02</pdfrwt>
<totfact> 0.43024747E+05</totfact>
</mgrwt>
</event>
<event>
 4    1  0.3883670E-002  0.6919012E+02  0.7818608E-02  0.1362869E+00
          1   -1    0    0    0  501  0.00000000000E+00  0.00000000000E+00  0.11537273544E+03  0.11537273555E+03  0.50400000000E-02 0. -1.
         -1   -1    0    0  501    0 -0.00000000000E+00 -0.00000000000E+00 -0.10373492876E+02  0.10373494100E+02  0.50400000000E-02 0. -1.
          2    1    1    2    0  502 -0.21163511467E+02 -0.27220211442E+02  0.57634929437E+02  0.67161143724E+02  0.25500000000E-02 0. -1.
         -2    1    1    2  502    0  0.21163511467E+02  0.27220211442E+02  0.47364313132E+02  0.58585085931E+02  0.25500000000E-02 0. -1.
<mgrwt>
<rscale>  0 0.69190125E+02</rscale>
<asrwt>0</asrwt>
<pdfrwt beam="1">  1        1 0.17749653E-01 0.69190125E+02</pdfrwt>
<pdfrwt beam="2">  1       -1 0.15959220E-02 0.69190125E+02</pdfrwt>
<totfact> 0.22341486E+05</totfact>
</mgrwt>
</event>
<event>
 4    1  0.3883670E-002  0.5005033E+02  0.7818608E-02  0.1445070E+00
          1   -1    0    0    0  501  0.00000000000E+00  0.00000000000E+00  0.30608476321E+03  0.30608476325E+03  0.50400000000E-02 0. -1.
         -1   -1    0    0  501    0 -0.00000000000E+00 -0.00000000000E+00 -0.20460277934E+01  0.20460340009E+01  0.50400000000E-02 0. -1.
          2    1    1    2    0  502 -0.59319706716E+01  0.22063656287E+02  0.89155824360E+02  0.92036700444E+02  0.25500000000E-02 0.  1.
         -2    1    1    2  502    0  0.59319706716E+01 -0.22063656287E+02  0.21488291105E+03  0.21609409680E+03  0.25500000000E-02 0.  1.
<mgrwt>
<rscale>  0 0.50050330E+02</rscale>
<asrwt>0</asrwt>
<pdfrwt beam="1">  1        1 0.47089968E-01 0.50050330E+02</pdfrwt>
<pdfrwt beam="2">  1       -1 0.31477396E-03 0.50050330E+02</pdfrwt>
<totfact> 0.60418926E+05</totfact>
</mgrwt>
</event>
<event>
 4    1  0.3883670E-002  0.6100764E+02  0.7818608E-02  0.1393651E+00
         -1   -1    0    0  501    0 -0.00000000000E+00  0.00000000000E+00  0.80727457232E+02  0.80727457390E+02  0.50400000000E-02 0.  1.
          1   -1    0    0    0  501  0.00000000000E+00 -0.00000000000E+00 -0.11526227524E+02  0.11526228626E+02  0.50400000000E-02 0.  1.
          2    1    1    2    0  502 -0.11834656917E+02  0.19743287878E+02  0.43336158635E+01  0.23422996255E+02  0.25500000000E-02 0. -1.
         -2    1    1    2  502    0  0.11834656917E+02 -0.19743287878E+02  0.64867613844E+02  0.68830689761E+02  0.25500000000E-02 0. -1.
<mgrwt>
<rscale>  0 0.61007642E+02</rscale>
<asrwt>0</asrwt>
<pdfrwt beam="2">  1        1 0.17732660E-02 0.61007642E+02</pdfrwt>
<pdfrwt beam="1">  1       -1 0.12419608E-01 0.61007642E+02</pdfrwt>
<totfact> 0.23441829E+05</totfact>
</mgrwt>
</event>
<event>
 4    1  0.3883670E-002  0.4552928E+02  0.7818608E-02  0.1471064E+00
         -1   -1    0    0  501    0 -0.00000000000E+00  0.00000000000E+00  0.78974670308E+01  0.78974686390E+01  0.50400000000E-02 0. -1.
          1   -1    0    0    0  501  0.00000000000E+00 -0.00000000000E+00 -0.65619615960E+02  0.65619616154E+02  0.50400000000E-02 0. -1.
          2    1    1    2    0  502  0.95531124443E+01 -0.20109441286E+02 -0.36533502123E+02  0.42782570868E+02  0.25500000000E-02 0.  1.
         -2    1    1    2  502    0 -0.95531124443E+01  0.20109441286E+02 -0.21188646807E+02  0.30734513925E+02  0.25500000000E-02 0.  1.
<mgrwt>
<rscale>  0 0.45529279E+02</rscale>
<asrwt>0</asrwt>
<pdfrwt beam="2">  1        1 0.10095325E-01 0.45529279E+02</pdfrwt>
<pdfrwt beam="1">  1       -1 0.12149951E-02 0.45529279E+02</pdfrwt>
<totfact> 0.60765788E+05</totfact>
</mgrwt>
</event>
<event>
 4    1  0.3883670E-002  0.4659284E+02  0.7818608E-02  0.1464636E+00
          1   -1    0    0    0  501  0.00000000000E+00  0.00000000000E+00  0.16229992361E+04  0.16229992361E+04  0.50400000000E-02 0. -1.
         -1   -1    0    0  501    0 -0.00000000000E+00 -0.00000000000E+00 -0.33437619227E+00  0.33441417368E+00  0.50400000000E-02 0. -1.
          2    1    1    2    0  502 -0.19127984982E+02 -0.71970693176E+01  0.12009357856E+04  0.12011096697E+04  0.25500000000E-02 0. -1.
         -2    1    1    2  502    0  0.19127984982E+02  0.71970693176E+01  0.42172907429E+03  0.42222398052E+03  0.25500000000E-02 0. -1.
<mgrwt>
<rscale>  0 0.46592838E+02</rscale>
<asrwt>0</asrwt>
<pdfrwt beam="1">  1        1 0.24968848E+00 0.46592838E+02</pdfrwt>
<pdfrwt beam="2">  1       -1 0.51446179E-04 0.46592838E+02</pdfrwt>
<totfact> 0.57619511E+05</totfact>
</mgrwt>
</event>
<event>
 4    1  0.3883670E-002  0.5523954E+02  0.7818608E-02  0.1418969E+00
          1   -1    0    0    0  501  0.00000000000E+00  0.00000000000E+00  0.55605030748E+02  0.55605030977E+02  0.50400000000E-02 0. -1.
         -1   -1    0    0  501    0 -0.00000000000E+00 -0.00000000000E+00 -0.13719114428E+02  0.13719115353E+02  0.50400000000E-02 0. -1.
          2    1    1    2    0  502 -0.91948567538E+01  0.18423528714E+02  0.44045375147E+02  0.48620642523E+02  0.25500000000E-02 0.  1.
         -2    1    1    2  502    0  0.91948567538E+01 -0.18423528714E+02 -0.21594588262E+01  0.20703503808E+02  0.25500000000E-02 0.  1.
<mgrwt>
<rscale>  0 0.55239545E+02</rscale>
<asrwt>0</asrwt>
<pdfrwt beam="1">  1        1 0.85546202E-02 0.55239545E+02</pdfrwt>
<pdfrwt beam="2">  1       -1 0.21106331E-02 0.55239545E+02</pdfrwt>
<totfact> 0.36491437E+05</totfact>
</mgrwt>
</event>
<event>
 4    1  0.3883670E-002  0.4403871E+02  0.7818608E-02  0.1480434E+00
          1   -1    0    0    0  501  0.00000000000E+00  0.00000000000E+00  0.13115902281E+01  0.13115999116E+01  0.50400000000E-02 0. -1.
         -1   -1    0    0  501    0 -0.00000000000E+00 -0.00000000000E+00 -0.36966582403E+03  0.36966582407E+03  0.50400000000E-02 0. -1.
          2    1    1    2    0  502  0.10842919389E+02 -0.18798439712E+02 -0.15276870397E+03  0.15430238869E+03  0.25500000000E-02 0.  1.
         -2    1    1    2  502    0 -0.10842919389E+02  0.18798439712E+02 -0.21558552983E+03  0.21667503529E+03  0.25500000000E-02 0.  1.
<mgrwt>
<rscale>  0 0.44038705E+02</rscale>
<asrwt>0</asrwt>
<pdfrwt beam="1">  1        1 0.20178416E-03 0.44038705E+02</pdfrwt>
<pdfrwt beam="2">  1       -1 0.56871583E-01 0.44038705E+02</pdfrwt>
<totfact> 0.35067668E+05</totfact>
</mgrwt>
</event>
<event>
 4    1  0.3883670E-002  0.4900368E+02  0.7818608E-02  0.1450791E+00
          1   -1    0    0    0  501  0.00000000000E+00  0.00000000000E+00  0.24959988459E+01  0.24960039344E+01  0.50400000000E-02 0. -1.
         -1   -1    0    0  501    0 -0.00000000000E+00 -0.00000000000E+00 -0.24052076574E+03  0.24052076579E+03  0.50400000000E-02 0. -1.
          2    1    1    2    0  502 -0.57237882208E+01  0.23496819826E+02 -0.13852265249E+03  0.14061787778E+03  0.25500000000E-02 0.  1.
         -2    1    1    2  502    0  0.57237882208E+01 -0.23496819826E+02 -0.99502114405E+02  0.10239889194E+03  0.25500000000E-02 0.  1.
<mgrwt>
<rscale>  0 0.49003681E+02</rscale>
<asrwt>0</asrwt>
<pdfrwt beam="1">  1        1 0.38400041E-03 0.49003681E+02</pdfrwt>
<pdfrwt beam="2">  1       -1 0.37003177E-01 0.49003681E+02</pdfrwt>
<totfact> 0.31885012E+05</totfact>
</mgrwt>
</event>
<event>
 4    1  0.3883670E-002  0.5432775E+02  0.7818608E-02  0.1423305E+00
          1   -1    0    0    0  501  0.00000000000E+00  0.00000000000E+00  0.31239059867E+03  0.31239059871E+03  0.50400000000E-02 0.  1.
         -1   -1    0    0  501    0 -0.00000000000E+00 -0.00000000000E+00 -0.23620279453E+01  0.23620333224E+01  0.50400000000E-02 0.  1.
          2    1    1    2    0  502 -0.11842960557E+02 -0.23585541856E+02  0.19226605376E+03  0.19406897983E+03  0.25500000000E-02 0.  1.
         -2    1    1    2  502    0  0.11842960557E+02  0.23585541856E+02  0.11776251697E+03  0.12068365220E+03  0.25500000000E-02 0.  1.
<mgrwt>
<rscale>  0 0.54327753E+02</rscale>
<asrwt>0</asrwt>
<pdfrwt beam="1">  1        1 0.48060077E-01 0.54327753E+02</pdfrwt>
<pdfrwt beam="2">  1       -1 0.36338945E-03 0.54327753E+02</pdfrwt>
<totfact> 0.49371393E+05</totfact>
</mgrwt>
</event>
<event>
 4    1  0.3883670E-002  0.4876618E+02  0.7818608E-02  0.1452112E+00
          1   -1    0    0    0  501  0.00000000000E+00  0.00000000000E+00  0.10267336161E+04  0.10267336161E+04  0.50400000000E-02 0. -1.
         -1   -1    0    0  501    0 -0.00000000000E+00 -0.00000000000E+00 -0.57904377358E+00  0.57906570726E+00  0.50400000000E-02 0. -1.
          2    1    1    2    0  502  0.20043526105E+02 -0.13884953097E+02  0.51330074571E+03  0.51387954855E+03  0.25500000000E-02 0.  1.
         -2    1    1    2  502    0 -0.20043526105E+02  0.13884953097E+02  0.51285382663E+03  0.51343313329E+03  0.25500000000E-02 0.  1.
<mgrwt>
<rscale>  0 0.48766176E+02</rscale>
<asrwt>0</asrwt>
<pdfrwt beam="1">  1        1 0.15795935E+00 0.48766176E+02</pdfrwt>
<pdfrwt beam="2">  1       -1 0.89085160E-04 0.48766176E+02</pdfrwt>
<totfact> 0.67033591E+05</totfact>
</mgrwt>
</event>
<event>
 4    1  0.3883670E-002  0.6376644E+02  0.7818608E-02  0.1382673E+00
          1   -1    0    0    0  501  0.00000000000E+00  0.00000000000E+00  0.78894708301E+03  0.78894708303E+03  0.50400000000E-02 0.  1.
         -1   -1    0    0  501    0 -0.00000000000E+00 -0.00000000000E+00 -0.12884713903E+01  0.12884812475E+01  0.50400000000E-02 0.  1.
          2    1    1    2    0  502  0.22654597384E+00  0.31348951188E+02  0.46580448095E+03  0.46685824673E+03  0.25500000000E-02 0. -1.
         -2    1    1    2  502    0 -0.22654597384E+00 -0.31348951188E+02  0.32185413067E+03  0.32337731754E+03  0.25500000000E-02 0. -1.
<mgrwt>
<rscale>  0 0.63766438E+02</rscale>
<asrwt>0</asrwt>
<pdfrwt beam="1">  1        1 0.12137639E+00 0.63766438E+02</pdfrwt>
<pdfrwt beam="2">  1       -1 0.19822726E-03 0.63766438E+02</pdfrwt>
<totfact> 0.35803834E+05</totfact>
</mgrwt>
</event>
<event>
 4    1  0.3883670E-002  0.1176779E+03  0.7818608E-02  0.1246978E+00
         -1   -1    0    0  501    0 -0.00000000000E+00  0.00000000000E+00  0.51287173034E+02  0.51287173281E+02  0.50400000000E-02 0.  1.
          1   -1    0    0    0  501  0.00000000000E+00 -0.00000000000E+00 -0.67502734540E+02  0.67502734728E+02  0.50400000000E-02 0.  1.
          2    1    1    2    0  502  0.96796427292E+01  0.57294624281E+02 -0.17450231610E+02  0.60670256671E+02  0.25500000000E-02 0.  1.
         -2    1    1    2  502    0 -0.96796427292E+01 -0.57294624281E+02  0.12346701042E+01  0.58119651338E+02  0.25500000000E-02 0.  1.
<mgrwt>
<rscale>  0 0.11767794E+03</rscale>
<asrwt>0</asrwt>
<pdfrwt beam="2">  1        1 0.10385036E-01 0.11767794E+03</pdfrwt>
<pdfrwt beam="1">  1       -1 0.78903343E-02 0.11767794E+03</pdfrwt>
<totfact> 0.47816470E+04</totfact>
</mgrwt>
</event>
<event>
 4    1  0.3883670E-002  0.6033163E+02  0.7818608E-02  0.1396445E+00
         -1   -1    0    0  501    0 -0.00000000000E+00  0.00000000000E+00  0.10273695353E+04  0.10273695354E+04  0.50400000000E-02 0. -1.
          1   -1    0    0    0  501  0.00000000000E+00 -0.00000000000E+00 -0.88572708560E+00  0.88574142489E+00  0.50400000000E-02 0. -1.
          2    1    1    2    0  502 -0.20598620368E+02  0.55524074666E+01  0.87672743206E+03  0.87698695687E+03  0.25500000000E-02 0.  1.
         -2    1    1    2  502    0  0.20598620368E+02 -0.55524074666E+01  0.14975637620E+03  0.15126831991E+03  0.25500000000E-02 0.  1.
<mgrwt>
<rscale>  0 0.60331630E+02</rscale>
<asrwt>0</asrwt>
<pdfrwt beam="2">  1        1 0.13626712E-03 0.60331630E+02</pdfrwt>
<pdfrwt beam="1">  1       -1 0.15805649E+00 0.60331630E+02</pdfrwt>
<totfact> 0.72044129E+04</totfact>
</mgrwt>
</event>
<event>
 4    1  0.3883670E-002  0.5717092E+02  0.7818608E-02  0.1410103E+00
         -1   -1    0    0  501    0 -0.00000000000E+00  0.00000000000E+00  0.72319988842E+01  0.72320006404E+01  0.50400000000E-02 0. -1.
          1   -1    0    0    0  501  0.00000000000E+00 -0.00000000000E+00 -0.11298790631E+03  0.11298790643E+03  0.50400000000E-02 0. -1.
          2    1    1    2    0  502  0.22566535414E+01 -0.21660510664E+02 -0.13941306958E+02  0.25857885714E+02  0.25500000000E-02 0.  1.
         -2    1    1    2  502    0 -0.22566535414E+01  0.21660510664E+02 -0.91814600472E+02  0.94362021352E+02  0.25500000000E-02 0.  1.
<mgrwt>
<rscale>  0 0.57170920E+02</rscale>
<asrwt>0</asrwt>
<pdfrwt beam="2">  1        1 0.17382754E-01 0.57170920E+02</pdfrwt>
<pdfrwt beam="1">  1       -1 0.11126154E-02 0.57170920E+02</pdfrwt>
<totfact> 0.36523582E+05</totfact>
</mgrwt>
</event>
<event>
 4    1  0.3883670E-002  0.1313122E+03  0.7818608E-02  0.1225522E+00
          1   -1    0    0    0  501  0.00000000000E+00  0.00000000000E+00  0.34321926608E+03  0.34321926611E+03  0.50400000000E-02 0.  1.
         -1   -1    0    0  501    0 -0.00000000000E+00 -0.00000000000E+00 -0.12559673510E+02  0.12559674522E+02  0.50400000000E-02 0.  1.
          2    1    1    2    0  502 -0.59286793578E+02 -0.19369235265E+02  0.22089793295E+03  0.22953428492E+03  0.25500000000E-02 0. -1.
         -2    1    1    2  502    0  0.59286793578E+02  0.19369235265E+02  0.10976165962E+03  0.12624465571E+03  0.25500000000E-02 0. -1.
<mgrwt>
<rscale>  0 0.13131218E+03</rscale>
<asrwt>0</asrwt>
<pdfrwt beam="1">  1        1 0.52802965E-01 0.13131218E+03</pdfrwt>
<pdfrwt beam="2">  1       -1 0.19322575E-02 0.13131218E+03</pdfrwt>
<totfact> 0.48863497E+04</totfact>
</mgrwt>
</event>
<event>
 4    1  0.3883670E-002  0.5393234E+02  0.7818608E-02  0.1425216E+00
          1   -1    0    0    0  501  0.00000000000E+00  0.00000000000E+00  0.36576462791E+01  0.36576497515E+01  0.50400000000E-02 0. -1.
         -1   -1    0    0  501    0 -0.00000000000E+00 -0.00000000000E+00 -0.19880925281E+03  0.19880925288E+03  0.50400000000E-02 0. -1.
          2    1    1    2    0  502  0.25292448543E+02  0.52369549912E+01 -0.68486897276E+02  0.73195551476E+02  0.25500000000E-02 0.  1.
         -2    1    1    2  502    0 -0.25292448543E+02 -0.52369549912E+01 -0.12666470926E+03  0.12927135115E+03  0.25500000000E-02 0.  1.
<mgrwt>
<rscale>  0 0.53932338E+02</rscale>
<asrwt>0</asrwt>
<pdfrwt beam="1">  1        1 0.56271524E-03 0.53932338E+02</pdfrwt>
<pdfrwt beam="2">  1       -1 0.30586031E-01 0.53932338E+02</pdfrwt>
<totfact> 0.26597560E+05</totfact>
</mgrwt>
</event>
<event>
 4    1  0.3883670E-002  0.4564866E+02  0.7818608E-02  0.1470332E+00
         -1   -1    0    0  501    0 -0.00000000000E+00  0.00000000000E+00  0.40650768969E+02  0.40650769282E+02  0.50400000000E-02 0. -1.
          1   -1    0    0    0  501  0.00000000000E+00 -0.00000000000E+00 -0.12815257908E+02  0.12815258899E+02  0.50400000000E-02 0. -1.
          2    1    1    2    0  502  0.21946684658E+02 -0.28457710124E+01  0.20459453926E+02  0.30138756470E+02  0.25500000000E-02 0.  1.
         -2    1    1    2  502    0 -0.21946684658E+02  0.28457710124E+01  0.73760571356E+01  0.23327271711E+02  0.25500000000E-02 0.  1.
<mgrwt>
<rscale>  0 0.45648664E+02</rscale>
<asrwt>0</asrwt>
<pdfrwt beam="2">  1        1 0.19715782E-02 0.45648664E+02</pdfrwt>
<pdfrwt beam="1">  1       -1 0.62539645E-02 0.45648664E+02</pdfrwt>
<totfact> 0.52169428E+05</totfact>
</mgrwt>
</event>
<event>
 4    1  0.3883670E-002  0.6235817E+02  0.7818608E-02  0.1388194E+00
         -1   -1    0    0  501    0 -0.00000000000E+00  0.00000000000E+00  0.44371232512E+02  0.44371232798E+02  0.50400000000E-02 0. -1.
          1   -1    0    0    0  501  0.00000000000E+00 -0.00000000000E+00 -0.21909133255E+02  0.21909133835E+02  0.50400000000E-02 0. -1.
          2    1    1    2    0  502 -0.11222710010E+02  0.29088711671E+02  0.11038253416E+02  0.33074845602E+02  0.25500000000E-02 0.  1.
         -2    1    1    2  502    0  0.11222710010E+02 -0.29088711671E+02  0.11423845841E+02  0.33205521031E+02  0.25500000000E-02 0.  1.
<mgrwt>
<rscale>  0 0.62358168E+02</rscale>
<asrwt>0</asrwt>
<pdfrwt beam="2">  1        1 0.33706360E-02 0.62358168E+02</pdfrwt>
<pdfrwt beam="1">  1       -1 0.68263435E-02 0.62358168E+02</pdfrwt>
<totfact> 0.23991130E+05</totfact>
</mgrwt>
</event>
<event>
 4    1  0.3883670E-002  0.1106269E+03  0.7818608E-02  0.1259413E+00
         -1   -1    0    0  501    0 -0.00000000000E+00  0.00000000000E+00  0.34127052471E+01  0.34127089687E+01  0.50400000000E-02 0. -1.
          1   -1    0    0    0  501  0.00000000000E+00 -0.00000000000E+00 -0.89652593234E+03  0.89652593235E+03  0.50400000000E-02 0. -1.
          2    1    1    2    0  502  0.37947536775E+02  0.33117476729E+02 -0.63255910683E+03  0.63456111326E+03  0.25500000000E-02 0.  1.
         -2    1    1    2  502    0 -0.37947536775E+02 -0.33117476729E+02 -0.26055412026E+03  0.26537752806E+03  0.25500000000E-02 0.  1.
<mgrwt>
<rscale>  0 0.11062695E+03</rscale>
<asrwt>0</asrwt>
<pdfrwt beam="2">  1        1 0.13792688E+00 0.11062695E+03</pdfrwt>
<pdfrwt beam="1">  1       -1 0.52503258E-03 0.11062695E+03</pdfrwt>
<totfact> 0.83143198E+04</totfact>
</mgrwt>
</event>
<event>
 4    1  0.3883670E-002  0.6718113E+02  0.7818608E-02  0.1369950E+00
         -1   -1    0    0  501    0 -0.00000000000E+00  0.00000000000E+00  0.26841150252E+01  0.26841197570E+01  0.50400000000E-02 0.  1.
          1   -1    0    0    0  501  0.00000000000E+00 -0.00000000000E+00 -0.42037134084E+03  0.42037134087E+03  0.50400000000E-02 0.  1.
          2    1    1    2    0  502  0.18039845851E+02 -0.21325358656E+02 -0.91350093447E+02  0.95525109471E+02  0.25500000000E-02 0.  1.
         -2    1    1    2  502    0 -0.18039845851E+02  0.21325358656E+02 -0.32633713237E+03  0.32753035116E+03  0.25500000000E-02 0.  1.
<mgrwt>
<rscale>  0 0.67181129E+02</rscale>
<asrwt>0</asrwt>
<pdfrwt beam="2">  1        1 0.64672462E-01 0.67181129E+02</pdfrwt>
<pdfrwt beam="1">  1       -1 0.41294147E-03 0.67181129E+02</pdfrwt>
<totfact> 0.30197196E+05</totfact>
</mgrwt>
</event>
<event>
 4    1  0.3883670E-002  0.6984379E+02  0.7818608E-02  0.1360625E+00
         -1   -1    0    0  501    0 -0.00000000000E+00  0.00000000000E+00  0.13545353548E+01  0.13545447312E+01  0.50400000000E-02 0.  1.
          1   -1    0    0    0  501  0.00000000000E+00 -0.00000000000E+00 -0.90033420865E+03  0.90033420866E+03  0.50400000000E-02 0.  1.
          2    1    1    2    0  502  0.19906558129E+02 -0.27545053098E+02 -0.55320343970E+03  0.55424637727E+03  0.25500000000E-02 0.  1.
         -2    1    1    2  502    0 -0.19906558129E+02  0.27545053098E+02 -0.34577623359E+03  0.34744237613E+03  0.25500000000E-02 0.  1.
<mgrwt>
<rscale>  0 0.69843790E+02</rscale>
<asrwt>0</asrwt>
<pdfrwt beam="2">  1        1 0.13851248E+00 0.69843790E+02</pdfrwt>
<pdfrwt beam="1">  1       -1 0.20839150E-03 0.69843790E+02</pdfrwt>
<totfact> 0.27895537E+05</totfact>
</mgrwt>
</event>
<event>
 4    1  0.3883670E-002  0.6750700E+02  0.7818608E-02  0.1368782E+00
          1   -1    0    0    0  501  0.00000000000E+00  0.00000000000E+00  0.69403128112E+03  0.69403128114E+03  0.50400000000E-02 0. -1.
         -1   -1    0    0  501    0 -0.00000000000E+00 -0.00000000000E+00 -0.16415628572E+01  0.16415705942E+01  0.50400000000E-02 0. -1.
          2    1    1    2    0  502  0.25271905944E+02 -0.20782965383E+01  0.11661550547E+03  0.11934054076E+03  0.25500000000E-02 0. -1.
         -2    1    1    2  502    0 -0.25271905944E+02  0.20782965383E+01  0.57577421279E+03  0.57633231097E+03  0.25500000000E-02 0. -1.
<mgrwt>
<rscale>  0 0.67506997E+02</rscale>
<asrwt>0</asrwt>
<pdfrwt beam="1">  1        1 0.10677400E+00 0.67506997E+02</pdfrwt>
<pdfrwt beam="2">  1       -1 0.25254882E-03 0.67506997E+02</pdfrwt>
<totfact> 0.31114517E+05</totfact>
</mgrwt>
</event>
<event>
 4    1  0.3883670E-002  0.4436269E+02  0.7818608E-02  0.1478360E+00
         -1   -1    0    0  501    0 -0.00000000000E+00  0.00000000000E+00  0.17230949669E+01  0.17231023378E+01  0.50400000000E-02 0. -1.
          1   -1    0    0    0  501  0.00000000000E+00 -0.00000000000E+00 -0.28553909025E+03  0.28553909029E+03  0.50400000000E-02 0. -1.
          2    1    1    2    0  502  0.16037232269E+02 -0.14679980912E+02 -0.11344801666E+03  0.11551254109E+03  0.25500000000E-02 0.  1.
         -2    1    1    2  502    0 -0.16037232269E+02  0.14679980912E+02 -0.17036797862E+03  0.17174965154E+03  0.25500000000E-02 0.  1.
<mgrwt>
<rscale>  0 0.44362689E+02</rscale>
<asrwt>0</asrwt>
<pdfrwt beam="2">  1        1 0.43929054E-01 0.44362689E+02</pdfrwt>
<pdfrwt beam="1">  1       -1 0.26509233E-03 0.44362689E+02</pdfrwt>
<totfact> 0.80474951E+05</totfact>
</mgrwt>
</event>
<event>
 4    1  0.3883670E-002  0.5241614E+02  0.7818608E-02  0.1432729E+00
          1   -1    0    0    0  501  0.00000000000E+00  0.00000000000E+00  0.17362223138E+03  0.17362223145E+03  0.50400000000E-02 0. -1.
         -1   -1    0    0  501    0 -0.00000000000E+00 -0.00000000000E+00 -0.39560758670E+01  0.39560790774E+01  0.50400000000E-02 0. -1.
          2    1    1    2    0  502 -0.14357190155E+02  0.18123179700E+02  0.12664042805E+03  0.12873374295E+03  0.25500000000E-02 0.  1.
         -2    1    1    2  502    0  0.14357190155E+02 -0.18123179700E+02  0.43025727465E+02  0.48844567579E+02  0.25500000000E-02 0.  1.
<mgrwt>
<rscale>  0 0.52416143E+02</rscale>
<asrwt>0</asrwt>
<pdfrwt beam="1">  1        1 0.26711115E-01 0.52416143E+02</pdfrwt>
<pdfrwt beam="2">  1       -1 0.60862725E-03 0.52416143E+02</pdfrwt>
<totfact> 0.48732224E+05</totfact>
</mgrwt>
</event>
<event>
 4    1  0.3883670E-002  0.4759583E+02  0.7818608E-02  0.1458758E+00
          1   -1    0    0    0  501  0.00000000000E+00  0.00000000000E+00  0.59266441322E+02  0.59266441537E+02  0.50400000000E-02 0. -1.
         -1   -1    0    0  501    0 -0.00000000000E+00 -0.00000000000E+00 -0.95558411192E+01  0.95558424483E+01  0.50400000000E-02 0. -1.
          2    1    1    2    0  502  0.22227628091E+02 -0.83190056250E+01  0.22322807944E+02  0.32581913175E+02  0.25500000000E-02 0.  1.
         -2    1    1    2  502    0 -0.22227628091E+02  0.83190056250E+01  0.27387792259E+02  0.36240370810E+02  0.25500000000E-02 0.  1.
<mgrwt>
<rscale>  0 0.47595830E+02</rscale>
<asrwt>0</asrwt>
<pdfrwt beam="1">  1        1 0.91179142E-02 0.47595830E+02</pdfrwt>
<pdfrwt beam="2">  1       -1 0.14701295E-02 0.47595830E+02</pdfrwt>
<totfact> 0.53759063E+05</totfact>
</mgrwt>
</event>
<event>
 4    1  0.3883670E-002  0.1477523E+03  0.7818608E-02  0.1203262E+00
          1   -1    0    0    0  501  0.00000000000E+00  0.00000000000E+00  0.26905545698E+04  0.26905545698E+04  0.50400000000E-02 0.  1.
         -1   -1    0    0  501    0 -0.00000000000E+00 -0.00000000000E+00 -0.20284588954E+01  0.20284651567E+01  0.50400000000E-02 0.  1.
          2    1    1    2    0  502  0.53866680368E+02  0.15478763522E+02  0.46716387306E+03  0.47051386342E+03  0.25500000000E-02 0. -1.
         -2    1    1    2  502    0 -0.53866680368E+02 -0.15478763522E+02  0.22213622378E+04  0.22220691715E+04  0.25500000000E-02 0. -1.
<mgrwt>
<rscale>  0 0.14775233E+03</rscale>
<asrwt>0</asrwt>
<pdfrwt beam="1">  1        1 0.41393275E+00 0.14775233E+03</pdfrwt>
<pdfrwt beam="2">  1       -1 0.31207012E-03 0.14775233E+03</pdfrwt>
<totfact> 0.11664523E+04</totfact>
</mgrwt>
</event>
<event>
 4    1  0.3883670E-002  0.5621838E+02  0.7818608E-02  0.1414423E+00
          1   -1    0    0    0  501  0.00000000000E+00  0.00000000000E+00  0.10170362420E+01  0.10170487300E+01  0.50400000000E-02 0. -1.
         -1   -1    0    0  501    0 -0.00000000000E+00 -0.00000000000E+00 -0.77688637646E+03  0.77688637647E+03  0.50400000000E-02 0. -1.
          2    1    1    2    0  502  0.52635854464E+01  0.19444910710E+02 -0.11667080791E+03  0.11839715921E+03  0.25500000000E-02 0. -1.
         -2    1    1    2  502    0 -0.52635854464E+01 -0.19444910710E+02 -0.65919853230E+03  0.65950626599E+03  0.25500000000E-02 0. -1.
<mgrwt>
<rscale>  0 0.56218377E+02</rscale>
<asrwt>0</asrwt>
<pdfrwt beam="1">  1        1 0.15646870E-03 0.56218377E+02</pdfrwt>
<pdfrwt beam="2">  1       -1 0.11952051E+00 0.56218377E+02</pdfrwt>
<totfact> 0.11637858E+05</totfact>
</mgrwt>
</event>
<event>
 4    1  0.3883670E-002  0.4213158E+02  0.7818608E-02  0.1493087E+00
         -1   -1    0    0  501    0 -0.00000000000E+00  0.00000000000E+00  0.17917333218E+01  0.17917404104E+01  0.50400000000E-02 0.  1.
          1   -1    0    0    0  501  0.00000000000E+00 -0.00000000000E+00 -0.24767444668E+03  0.24767444673E+03  0.50400000000E-02 0.  1.
          2    1    1    2    0  502 -0.93371358084E+00 -0.20896733000E+02 -0.10817154429E+03  0.11017544314E+03  0.25500000000E-02 0. -1.
         -2    1    1    2  502    0  0.93371358084E+00  0.20896733000E+02 -0.13771116906E+03  0.13929074400E+03  0.25500000000E-02 0. -1.
<mgrwt>
<rscale>  0 0.42131577E+02</rscale>
<asrwt>0</asrwt>
<pdfrwt beam="2">  1        1 0.38103734E-01 0.42131577E+02</pdfrwt>
<pdfrwt beam="1">  1       -1 0.27565203E-03 0.42131577E+02</pdfrwt>
<totfact> 0.89103793E+05</totfact>
</mgrwt>
</event>
<event>
 4    1  0.3883670E-002  0.9441050E+02  0.7818608E-02  0.1292509E+00
          1   -1    0    0    0  501  0.00000000000E+00  0.00000000000E+00  0.19993896832E+02  0.19993897467E+02  0.50400000000E-02 0.  1.
         -1   -1    0    0  501    0 -0.00000000000E+00 -0.00000000000E+00 -0.11145078387E+03  0.11145078398E+03  0.50400000000E-02 0.  1.
          2    1    1    2    0  502 -0.28468618279E+02 -0.19951024727E+02 -0.90190198566E+02  0.96658044353E+02  0.25500000000E-02 0.  1.
         -2    1    1    2  502    0  0.28468618279E+02  0.19951024727E+02 -0.12666884719E+01  0.34786637098E+02  0.25500000000E-02 0.  1.
<mgrwt>
<rscale>  0 0.94410498E+02</rscale>
<asrwt>0</asrwt>
<pdfrwt beam="1">  1        1 0.30759843E-02 0.94410498E+02</pdfrwt>
<pdfrwt beam="2">  1       -1 0.17146274E-01 0.94410498E+02</pdfrwt>
<totfact> 0.72835163E+04</totfact>
</mgrwt>
</event>
<event>
 4    1  0.3883670E-002  0.4154058E+02  0.7818608E-02  0.1497171E+00
         -1   -1    0    0  501    0 -0.00000000000E+00  0.00000000000E+00  0.31815274115E+02  0.31815274514E+02  0.50400000000E-02 0. -1.
          1   -1    0    0    0  501  0.00000000000E+00 -0.00000000000E+00 -0.13559676421E+02  0.13559677358E+02  0.50400000000E-02 0. -1.
          2    1    1    2    0  502  0.88127842606E+01 -0.18774264717E+02  0.78984521592E+01  0.22192875774E+02  0.25500000000E-02 0.  1.
         -2    1    1    2  502    0 -0.88127842606E+01  0.18774264717E+02  0.10357145534E+02  0.23182076098E+02  0.25500000000E-02 0.  1.
<mgrwt>
<rscale>  0 0.41540575E+02</rscale>
<asrwt>0</asrwt>
<pdfrwt beam="2">  1        1 0.20861042E-02 0.41540575E+02</pdfrwt>
<pdfrwt beam="1">  1       -1 0.48946576E-02 0.41540575E+02</pdfrwt>
<totfact> 0.67022976E+05</totfact>
</mgrwt>
</event>
<event>
 4    1  0.3883670E-002  0.4230081E+02  0.7818608E-02  0.1491932E+00
         -1   -1    0    0  501    0 -0.00000000000E+00  0.00000000000E+00  0.12901153970E+01  0.12901252417E+01  0.50400000000E-02 0. -1.
          1   -1    0    0    0  501  0.00000000000E+00 -0.00000000000E+00 -0.34674259872E+03  0.34674259875E+03  0.50400000000E-02 0. -1.
          2    1    1    2    0  502 -0.19581549916E+02 -0.79727677182E+01 -0.16794605977E+03  0.16927161936E+03  0.25500000000E-02 0. -1.
         -2    1    1    2  502    0  0.19581549916E+02  0.79727677182E+01 -0.17750642355E+03  0.17876110463E+03  0.25500000000E-02 0. -1.
<mgrwt>
<rscale>  0 0.42300813E+02</rscale>
<asrwt>0</asrwt>
<pdfrwt beam="2">  1        1 0.53344942E-01 0.42300813E+02</pdfrwt>
<pdfrwt beam="1">  1       -1 0.19848033E-03 0.42300813E+02</pdfrwt>
<totfact> 0.93422100E+05</totfact>
</mgrwt>
</event>
<event>
 4    1  0.3883670E-002  0.1082219E+03  0.7818608E-02  0.1263898E+00
         -1   -1    0    0  501    0 -0.00000000000E+00  0.00000000000E+00  0.67926053166E+01  0.67926071864E+01  0.50400000000E-02 0. -1.
          1   -1    0    0    0  501  0.00000000000E+00 -0.00000000000E+00 -0.43105652324E+03  0.43105652327E+03  0.50400000000E-02 0. -1.
          2    1    1    2    0  502  0.34079194854E+02  0.37163652907E+02 -0.29156545536E+03  0.29589346628E+03  0.25500000000E-02 0. -1.
         -2    1    1    2  502    0 -0.34079194854E+02 -0.37163652907E+02 -0.13269846256E+03  0.14195566417E+03  0.25500000000E-02 0. -1.
<mgrwt>
<rscale>  0 0.10822194E+03</rscale>
<asrwt>0</asrwt>
<pdfrwt beam="2">  1        1 0.66316367E-01 0.10822194E+03</pdfrwt>
<pdfrwt beam="1">  1       -1 0.10450167E-02 0.10822194E+03</pdfrwt>
<totfact> 0.86276793E+04</totfact>
</mgrwt>
</event>
<event>
 4    1  0.3883670E-002  0.4585831E+02  0.7818608E-02  0.1469053E+00
          1   -1    0    0    0  501  0.00000000000E+00  0.00000000000E+00  0.24510950467E+01  0.24511002284E+01  0.50400000000E-02 0. -1.
         -1   -1    0    0  501    0 -0.00000000000E+00 -0.00000000000E+00 -0.21449412713E+03  0.21449412718E+03  0.50400000000E-02 0. -1.
          2    1    1    2    0  502 -0.61030535746E+01  0.21790597457E+02 -0.88531308313E+02  0.91377622854E+02  0.25500000000E-02 0. -1.
         -2    1    1    2  502    0  0.61030535746E+01 -0.21790597457E+02 -0.12351172377E+03  0.12556760456E+03  0.25500000000E-02 0. -1.
<mgrwt>
<rscale>  0 0.45858306E+02</rscale>
<asrwt>0</asrwt>
<pdfrwt beam="1">  1        1 0.37709212E-03 0.45858306E+02</pdfrwt>
<pdfrwt beam="2">  1       -1 0.32999082E-01 0.45858306E+02</pdfrwt>
<totfact> 0.38893237E+05</totfact>
</mgrwt>
</event>
<event>
 4    1  0.3883670E-002  0.8810429E+02  0.7818608E-02  0.1307508E+00
         -1   -1    0    0  501    0 -0.00000000000E+00  0.00000000000E+00  0.99508409716E+00  0.99509686062E+00  0.50400000000E-02 0.  1.
          1   -1    0    0    0  501  0.00000000000E+00 -0.00000000000E+00 -0.19501658734E+04  0.19501658734E+04  0.50400000000E-02 0.  1.
          2    1    1    2    0  502 -0.18339719743E+02  0.28277783207E+02 -0.16027733511E+04  0.16031276909E+04  0.25500000000E-02 0. -1.
         -2    1    1    2  502    0  0.18339719743E+02 -0.28277783207E+02 -0.34639743812E+03  0.34803327928E+03  0.25500000000E-02 0. -1.
<mgrwt>
<rscale>  0 0.88104291E+02</rscale>
<asrwt>0</asrwt>
<pdfrwt beam="2">  1        1 0.30002246E+00 0.88104291E+02</pdfrwt>
<pdfrwt beam="1">  1       -1 0.15309240E-03 0.88104291E+02</pdfrwt>
<totfact> 0.90625516E+04</totfact>
</mgrwt>
</event>
<event>
 4    1  0.3883670E-002  0.6197484E+02  0.7818608E-02  0.1389726E+00
          1   -1    0    0    0  501  0.00000000000E+00  0.00000000000E+00  0.78161074237E+02  0.78161074400E+02  0.50400000000E-02 0. -1.
         -1   -1    0    0  501    0 -0.00000000000E+00 -0.00000000000E+00 -0.12285145755E+02  0.12285146789E+02  0.50400000000E-02 0. -1.
          2    1    1    2    0  502  0.15628688306E+02  0.19463913526E+02  0.61421150380E+01  0.25706524689E+02  0.25500000000E-02 0.  1.
         -2    1    1    2  502    0 -0.15628688306E+02 -0.19463913526E+02  0.59733813444E+02  0.64739696501E+02  0.25500000000E-02 0.  1.
<mgrwt>
<rscale>  0 0.61974841E+02</rscale>
<asrwt>0</asrwt>
<pdfrwt beam="1">  1        1 0.12024781E-01 0.61974841E+02</pdfrwt>
<pdfrwt beam="2">  1       -1 0.18900225E-02 0.61974841E+02</pdfrwt>
<totfact> 0.28190961E+05</totfact>
</mgrwt>
</event>
<event>
 4    1  0.3883670E-002  0.5503198E+02  0.7818608E-02  0.1419948E+00
         -1   -1    0    0  501    0 -0.00000000000E+00  0.00000000000E+00  0.13027514472E+02  0.13027515447E+02  0.50400000000E-02 0. -1.
          1   -1    0    0    0  501  0.00000000000E+00 -0.00000000000E+00 -0.58117729408E+02  0.58117729626E+02  0.50400000000E-02 0. -1.
          2    1    1    2    0  502 -0.24749014109E+02  0.12021010989E+02 -0.22114017163E+02  0.35299407447E+02  0.25500000000E-02 0.  1.
         -2    1    1    2  502    0  0.24749014109E+02 -0.12021010989E+02 -0.22976197772E+02  0.35845837626E+02  0.25500000000E-02 0.  1.
<mgrwt>
<rscale>  0 0.55031976E+02</rscale>
<asrwt>0</asrwt>
<pdfrwt beam="2">  1        1 0.89411891E-02 0.55031976E+02</pdfrwt>
<pdfrwt beam="1">  1       -1 0.20042331E-02 0.55031976E+02</pdfrwt>
<totfact> 0.37026460E+05</totfact>
</mgrwt>
</event>
<event>
 4    1  0.3883670E-002  0.5427622E+02  0.7818608E-02  0.1423553E+00
          1   -1    0    0    0  501  0.00000000000E+00  0.00000000000E+00  0.36548510930E+02  0.36548511278E+02  0.50400000000E-02 0. -1.
         -1   -1    0    0  501    0 -0.00000000000E+00 -0.00000000000E+00 -0.20150668458E+02  0.20150669088E+02  0.50400000000E-02 0. -1.
          2    1    1    2    0  502 -0.15569177532E+02 -0.15951926301E+02 -0.79715632659E+01  0.23672960718E+02  0.25500000000E-02 0. -1.
         -2    1    1    2  502    0  0.15569177532E+02  0.15951926301E+02  0.24369405738E+02  0.33026219648E+02  0.25500000000E-02 0. -1.
<mgrwt>
<rscale>  0 0.54276218E+02</rscale>
<asrwt>0</asrwt>
<pdfrwt beam="1">  1        1 0.56228478E-02 0.54276218E+02</pdfrwt>
<pdfrwt beam="2">  1       -1 0.31001030E-02 0.54276218E+02</pdfrwt>
<totfact> 0.36594982E+05</totfact>
</mgrwt>
</event>
<event>
 4    1  0.3883670E-002  0.6132246E+02  0.7818608E-02  0.1392364E+00
          1   -1    0    0    0  501  0.00000000000E+00  0.00000000000E+00  0.27888411526E+02  0.27888411981E+02  0.50400000000E-02 0.  1.
         -1   -1    0    0  501    0 -0.00000000000E+00 -0.00000000000E+00 -0.33709734531E+02  0.33709734908E+02  0.50400000000E-02 0.  1.
          2    1    1    2    0  502  0.23391367133E+02 -0.10202942534E+02  0.14161477621E+02  0.29185673671E+02  0.25500000000E-02 0. -1.
         -2    1    1    2  502    0 -0.23391367133E+02  0.10202942534E+02 -0.19982800627E+02  0.32412473218E+02  0.25500000000E-02 0. -1.
<mgrwt>
<rscale>  0 0.61322458E+02</rscale>
<asrwt>0</asrwt>
<pdfrwt beam="1">  1        1 0.42905249E-02 0.61322458E+02</pdfrwt>
<pdfrwt beam="2">  1       -1 0.51861131E-02 0.61322458E+02</pdfrwt>
<totfact> 0.25786439E+05</totfact>
</mgrwt>
</event>
<event>
 4    1  0.3883670E-002  0.7930694E+02  0.7818608E-02  0.1331030E+00
          1   -1    0    0    0  501  0.00000000000E+00  0.00000000000E+00  0.48686109753E+03  0.48686109755E+03  0.50400000000E-02 0. -1.
         -1   -1    0    0  501    0 -0.00000000000E+00 -0.00000000000E+00 -0.32296620525E+01  0.32296659851E+01  0.50400000000E-02 0. -1.
          2    1    1    2    0  502 -0.38861230858E+02  0.42943676511E+00  0.29048159125E+03  0.29306984584E+03  0.25500000000E-02 0. -1.
         -2    1    1    2  502    0  0.38861230858E+02 -0.42943676511E+00  0.19314984422E+03  0.19702091769E+03  0.25500000000E-02 0. -1.
<mgrwt>
<rscale>  0 0.79306942E+02</rscale>
<asrwt>0</asrwt>
<pdfrwt beam="1">  1        1 0.74901635E-01 0.79306942E+02</pdfrwt>
<pdfrwt beam="2">  1       -1 0.49687187E-03 0.79306942E+02</pdfrwt>
<totfact> 0.20037867E+05</totfact>
</mgrwt>
</event>
<event>
 4    1  0.3883670E-002  0.6484185E+02  0.7818608E-02  0.1378567E+00
         -1   -1    0    0  501    0 -0.00000000000E+00  0.00000000000E+00  0.10974027800E+02  0.10974028957E+02  0.50400000000E-02 0.  1.
          1   -1    0    0    0  501  0.00000000000E+00 -0.00000000000E+00 -0.95782166275E+02  0.95782166407E+02  0.50400000000E-02 0.  1.
          2    1    1    2    0  502  0.21399546275E+02 -0.11626999500E+02 -0.77638318156E+02  0.81368520638E+02  0.25500000000E-02 0.  1.
         -2    1    1    2  502    0 -0.21399546275E+02  0.11626999500E+02 -0.71698203184E+01  0.25387674727E+02  0.25500000000E-02 0.  1.
<mgrwt>
<rscale>  0 0.64841845E+02</rscale>
<asrwt>0</asrwt>
<pdfrwt beam="2">  1        1 0.14735717E-01 0.64841845E+02</pdfrwt>
<pdfrwt beam="1">  1       -1 0.16883121E-02 0.64841845E+02</pdfrwt>
<totfact> 0.25754291E+05</totfact>
</mgrwt>
</event>
<event>
 4    1  0.3883670E-002  0.1098689E+03  0.7818608E-02  0.1260813E+00
          1   -1    0    0    0  501  0.00000000000E+00  0.00000000000E+00  0.72205999497E+01  0.72206017087E+01  0.50400000000E-02 0. -1.
         -1   -1    0    0  501    0 -0.00000000000E+00 -0.00000000000E+00 -0.41794199202E+03  0.41794199205E+03  0.50400000000E-02 0. -1.
          2    1    1    2    0  502  0.89420583652E+01 -0.46321204875E+02 -0.96444683799E+02  0.10736475897E+03  0.25500000000E-02 0.  1.
         -2    1    1    2  502    0 -0.89420583652E+01  0.46321204875E+02 -0.31427670827E+03  0.31779783479E+03  0.25500000000E-02 0.  1.
<mgrwt>
<rscale>  0 0.10986887E+03</rscale>
<asrwt>0</asrwt>
<pdfrwt beam="1">  1        1 0.11108620E-02 0.10986887E+03</pdfrwt>
<pdfrwt beam="2">  1       -1 0.64298749E-01 0.10986887E+03</pdfrwt>
<totfact> 0.31852811E+04</totfact>
</mgrwt>
</event>
<event>
 4    1  0.3883670E-002  0.5028100E+02  0.7818608E-02  0.1443832E+00
         -1   -1    0    0  501    0 -0.00000000000E+00  0.00000000000E+00  0.34082791393E+01  0.34082828658E+01  0.50400000000E-02 0. -1.
          1   -1    0    0    0  501  0.00000000000E+00 -0.00000000000E+00 -0.18544384982E+03  0.18544384989E+03  0.50400000000E-02 0. -1.
          2    1    1    2    0  502 -0.24684119654E+02 -0.47628760374E+01 -0.91890629762E+02  0.95267405736E+02  0.25500000000E-02 0.  1.
         -2    1    1    2  502    0  0.24684119654E+02  0.47628760374E+01 -0.90144940923E+02  0.93584727022E+02  0.25500000000E-02 0.  1.
<mgrwt>
<rscale>  0 0.50281001E+02</rscale>
<asrwt>0</asrwt>
<pdfrwt beam="2">  1        1 0.28529815E-01 0.50281001E+02</pdfrwt>
<pdfrwt beam="1">  1       -1 0.52435107E-03 0.50281001E+02</pdfrwt>
<totfact> 0.54709031E+05</totfact>
</mgrwt>
</event>
<event>
 4    1  0.3883670E-002  0.4288672E+02  0.7818608E-02  0.1487983E+00
          1   -1    0    0    0  501  0.00000000000E+00  0.00000000000E+00  0.18592984731E+04  0.18592984732E+04  0.50400000000E-02 0. -1.
         -1   -1    0    0  501    0 -0.00000000000E+00 -0.00000000000E+00 -0.24728140920E+00  0.24733276559E+00  0.50400000000E-02 0. -1.
          2    1    1    2    0  502 -0.15939111642E+02  0.14073322373E+02  0.80917657453E+03  0.80945589285E+03  0.25500000000E-02 0.  1.
         -2    1    1    2  502    0  0.15939111642E+02 -0.14073322373E+02  0.10498746172E+04  0.10500899131E+04  0.25500000000E-02 0.  1.
<mgrwt>
<rscale>  0 0.42886721E+02</rscale>
<asrwt>0</asrwt>
<pdfrwt beam="1">  1        1 0.28604086E+00 0.42886721E+02</pdfrwt>
<pdfrwt beam="2">  1       -1 0.38047919E-04 0.42886721E+02</pdfrwt>
<totfact> 0.60909594E+05</totfact>
</mgrwt>
</event>
<event>
 4    1  0.3883670E-002  0.6192223E+02  0.7818608E-02  0.1389938E+00
          1   -1    0    0    0  501  0.00000000000E+00  0.00000000000E+00  0.20576325802E+01  0.20576387527E+01  0.50400000000E-02 0. -1.
         -1   -1    0    0  501    0 -0.00000000000E+00 -0.00000000000E+00 -0.46587001840E+03  0.46587001843E+03  0.50400000000E-02 0. -1.
          2    1    1    2    0  502 -0.21092689002E+02 -0.10097127930E+02 -0.38524150309E+03  0.38595060465E+03  0.25500000000E-02 0. -1.
         -2    1    1    2  502    0  0.21092689002E+02  0.10097127930E+02 -0.78570882736E+02  0.81977052534E+02  0.25500000000E-02 0. -1.
<mgrwt>
<rscale>  0 0.61922234E+02</rscale>
<asrwt>0</asrwt>
<pdfrwt beam="1">  1        1 0.31655971E-03 0.61922234E+02</pdfrwt>
<pdfrwt beam="2">  1       -1 0.71672227E-01 0.61922234E+02</pdfrwt>
<totfact> 0.13314016E+05</totfact>
</mgrwt>
</event>
<event>
 4    1  0.3883670E-002  0.6069602E+02  0.7818608E-02  0.1394934E+00
          1   -1    0    0    0  501  0.00000000000E+00  0.00000000000E+00  0.49886807067E+03  0.49886807069E+03  0.50400000000E-02 0.  1.
         -1   -1    0    0  501    0 -0.00000000000E+00 -0.00000000000E+00 -0.18461797242E+01  0.18461866037E+01  0.50400000000E-02 0.  1.
          2    1    1    2    0  502 -0.55896229930E+01  0.28260844543E+02  0.16977963713E+03  0.17220640061E+03  0.25500000000E-02 0. -1.
         -2    1    1    2  502    0  0.55896229930E+01 -0.28260844543E+02  0.32724225381E+03  0.32850785669E+03  0.25500000000E-02 0. -1.
<mgrwt>
<rscale>  0 0.60696024E+02</rscale>
<asrwt>0</asrwt>
<pdfrwt beam="1">  1        1 0.76749008E-01 0.60696024E+02</pdfrwt>
<pdfrwt beam="2">  1       -1 0.28402791E-03 0.60696024E+02</pdfrwt>
<totfact> 0.40032189E+05</totfact>
</mgrwt>
</event>
<event>
 4    1  0.3883670E-002  0.4406157E+02  0.7818608E-02  0.1480287E+00
         -1   -1    0    0  501    0 -0.00000000000E+00  0.00000000000E+00  0.59203452226E+00  0.59205597467E+00  0.50400000000E-02 0.  1.
          1   -1    0    0    0  501  0.00000000000E+00 -0.00000000000E+00 -0.81979467009E+03  0.81979467010E+03  0.50400000000E-02 0.  1.
          2    1    1    2    0  502 -0.66235849662E+01 -0.18889620048E+02 -0.23827939131E+03  0.23911871101E+03  0.25500000000E-02 0. -1.
         -2    1    1    2  502    0  0.66235849662E+01  0.18889620048E+02 -0.58092324425E+03  0.58126801507E+03  0.25500000000E-02 0. -1.
<mgrwt>
<rscale>  0 0.44061573E+02</rscale>
<asrwt>0</asrwt>
<pdfrwt beam="2">  1        1 0.12612135E+00 0.44061573E+02</pdfrwt>
<pdfrwt beam="1">  1       -1 0.91084541E-04 0.44061573E+02</pdfrwt>
<totfact> 0.89768900E+05</totfact>
</mgrwt>
</event>
<event>
 4    1  0.3883670E-002  0.4314781E+02  0.7818608E-02  0.1486247E+00
          1   -1    0    0    0  501  0.00000000000E+00  0.00000000000E+00  0.38804109539E+03  0.38804109542E+03  0.50400000000E-02 0. -1.
         -1   -1    0    0  501    0 -0.00000000000E+00 -0.00000000000E+00 -0.11994379295E+01  0.11994485184E+01  0.50400000000E-02 0. -1.
          2    1    1    2    0  502  0.12101319466E+02 -0.17777437601E+02  0.17791595796E+03  0.17921095760E+03  0.25500000000E-02 0.  1.
         -2    1    1    2  502    0 -0.12101319466E+02  0.17777437601E+02  0.20892569951E+03  0.21002958635E+03  0.25500000000E-02 0.  1.
<mgrwt>
<rscale>  0 0.43147805E+02</rscale>
<asrwt>0</asrwt>
<pdfrwt beam="1">  1        1 0.59698548E-01 0.43147805E+02</pdfrwt>
<pdfrwt beam="2">  1       -1 0.18452998E-03 0.43147805E+02</pdfrwt>
<totfact> 0.90589538E+05</totfact>
</mgrwt>
</event>
<event>
 4    1  0.3883670E-002  0.4697759E+02  0.7818608E-02  0.1462360E+00
          1   -1    0    0    0  501  0.00000000000E+00  0.00000000000E+00  0.89052323593E+03  0.89052323594E+03  0.50400000000E-02 0.  1.
         -1   -1    0    0  501    0 -0.00000000000E+00 -0.00000000000E+00 -0.61953965063E+00  0.61956015068E+00  0.50400000000E-02 0.  1.
          2    1    1    2    0  502 -0.86220661684E+01 -0.21828354680E+02  0.42689094950E+03  0.42753561239E+03  0.25500000000E-02 0.  1.
         -2    1    1    2  502    0  0.86220661684E+01  0.21828354680E+02  0.46301274678E+03  0.46360718370E+03  0.25500000000E-02 0.  1.
<mgrwt>
<rscale>  0 0.46977594E+02</rscale>
<asrwt>0</asrwt>
<pdfrwt beam="1">  1        1 0.13700399E+00 0.46977594E+02</pdfrwt>
<pdfrwt beam="2">  1       -1 0.95315082E-04 0.46977594E+02</pdfrwt>
<totfact> 0.75876661E+05</totfact>
</mgrwt>
</event>
<event>
 4    1  0.3883670E-002  0.4322909E+02  0.7818608E-02  0.1485710E+00
          1   -1    0    0    0  501  0.00000000000E+00  0.00000000000E+00  0.12494597329E+03  0.12494597339E+03  0.50400000000E-02 0.  1.
         -1   -1    0    0  501    0 -0.00000000000E+00 -0.00000000000E+00 -0.37391226719E+01  0.37391260687E+01  0.50400000000E-02 0.  1.
          2    1    1    2    0  502 -0.14761750732E+02 -0.13937211576E+02  0.38520057705E+02  0.43542508004E+02  0.25500000000E-02 0.  1.
         -2    1    1    2  502    0  0.14761750732E+02  0.13937211576E+02  0.82686792914E+02  0.85142591457E+02  0.25500000000E-02 0.  1.
<mgrwt>
<rscale>  0 0.43229090E+02</rscale>
<asrwt>0</asrwt>
<pdfrwt beam="1">  1        1 0.19222461E-01 0.43229090E+02</pdfrwt>
<pdfrwt beam="2">  1       -1 0.57524982E-03 0.43229090E+02</pdfrwt>
<totfact> 0.74901775E+05</totfact>
</mgrwt>
</event>
<event>
 4    1  0.3883670E-002  0.8052379E+02  0.7818608E-02  0.1327572E+00
          1   -1    0    0    0  501  0.00000000000E+00  0.00000000000E+00  0.91528625548E+03  0.91528625550E+03  0.50400000000E-02 0.  1.
         -1   -1    0    0  501    0 -0.00000000000E+00 -0.00000000000E+00 -0.17710492373E+01  0.17710564087E+01  0.50400000000E-02 0.  1.
          2    1    1    2    0  502  0.38820200440E+02  0.38790540588E+01  0.57005337544E+03  0.57138682684E+03  0.25500000000E-02 0.  1.
         -2    1    1    2  502    0 -0.38820200440E+02 -0.38790540588E+01  0.34346183081E+03  0.34567048507E+03  0.25500000000E-02 0.  1.
<mgrwt>
<rscale>  0 0.80523793E+02</rscale>
<asrwt>0</asrwt>
<pdfrwt beam="1">  1        1 0.14081325E+00 0.80523793E+02</pdfrwt>
<pdfrwt beam="2">  1       -1 0.27246971E-03 0.80523793E+02</pdfrwt>
<totfact> 0.19232304E+05</totfact>
</mgrwt>
</event>
<event>
 4    1  0.3883670E-002  0.4539391E+02  0.7818608E-02  0.1471897E+00
         -1   -1    0    0  501    0 -0.00000000000E+00  0.00000000000E+00  0.11227938479E+03  0.11227938491E+03  0.50400000000E-02 0.  1.
          1   -1    0    0    0  501  0.00000000000E+00 -0.00000000000E+00 -0.45881224568E+01  0.45881252250E+01  0.50400000000E-02 0.  1.
          2    1    1    2    0  502  0.13279994465E+02  0.17261056555E+02  0.37390965387E+02  0.43271083017E+02  0.25500000000E-02 0.  1.
         -2    1    1    2  502    0 -0.13279994465E+02 -0.17261056555E+02  0.70300296950E+02  0.73596427115E+02  0.25500000000E-02 0.  1.
<mgrwt>
<rscale>  0 0.45393909E+02</rscale>
<asrwt>0</asrwt>
<pdfrwt beam="2">  1        1 0.70586520E-03 0.45393909E+02</pdfrwt>
<pdfrwt beam="1">  1       -1 0.17273752E-01 0.45393909E+02</pdfrwt>
<totfact> 0.46285693E+05</totfact>
</mgrwt>
</event>
<event>
 4    1  0.3883670E-002  0.8926289E+02  0.7818608E-02  0.1304647E+00
         -1   -1    0    0  501    0 -0.00000000000E+00  0.00000000000E+00  0.10847903884E+04  0.10847903885E+04  0.50400000000E-02 0. -1.
          1   -1    0    0    0  501  0.00000000000E+00 -0.00000000000E+00 -0.18362645232E+01  0.18362714398E+01  0.50400000000E-02 0. -1.
          2    1    1    2    0  502 -0.25013303594E+02 -0.35455183548E+02  0.66870465389E+03  0.67011092331E+03  0.25500000000E-02 0.  1.
         -2    1    1    2  502    0  0.25013303594E+02  0.35455183548E+02  0.41424947004E+03  0.41651573659E+03  0.25500000000E-02 0.  1.
<mgrwt>
<rscale>  0 0.89262890E+02</rscale>
<asrwt>0</asrwt>
<pdfrwt beam="2">  1        1 0.28250293E-03 0.89262890E+02</pdfrwt>
<pdfrwt beam="1">  1       -1 0.16689073E+00 0.89262890E+02</pdfrwt>
<totfact> 0.24464000E+04</totfact>
</mgrwt>
</event>
<event>
 4    1  0.3883670E-002  0.5954267E+02  0.7818608E-02  0.1399761E+00
         -1   -1    0    0  501    0 -0.00000000000E+00  0.00000000000E+00  0.50976955912E+03  0.50976955914E+03  0.50400000000E-02 0.  1.
          1   -1    0    0    0  501  0.00000000000E+00 -0.00000000000E+00 -0.17386887297E+01  0.17386960345E+01  0.50400000000E-02 0.  1.
          2    1    1    2    0  502  0.18686023461E+02  0.88087150447E+01  0.69853072456E+02  0.72843755200E+02  0.25500000000E-02 0. -1.
         -2    1    1    2  502    0 -0.18686023461E+02 -0.88087150447E+01  0.43817779793E+03  0.43866449998E+03  0.25500000000E-02 0. -1.
<mgrwt>
<rscale>  0 0.59542672E+02</rscale>
<asrwt>0</asrwt>
<pdfrwt beam="2">  1        1 0.26749139E-03 0.59542672E+02</pdfrwt>
<pdfrwt beam="1">  1       -1 0.78426011E-01 0.59542672E+02</pdfrwt>
<totfact> 0.13927197E+05</totfact>
</mgrwt>
</event>
<event>
 4    1  0.3883670E-002  0.4196790E+02  0.7818608E-02  0.1494210E+00
          1   -1    0    0    0  501  0.00000000000E+00  0.00000000000E+00  0.52111429543E+03  0.52111429546E+03  0.50400000000E-02 0. -1.
         -1   -1    0    0  501    0 -0.00000000000E+00 -0.00000000000E+00 -0.84496303901E+00  0.84497807007E+00  0.50400000000E-02 0. -1.
          2    1    1    2    0  502 -0.90210801608E+01 -0.18703396888E+02  0.29771304589E+03  0.29843634939E+03  0.25500000000E-02 0.  1.
         -2    1    1    2  502    0  0.90210801608E+01  0.18703396888E+02  0.22255628651E+03  0.22352292413E+03  0.25500000000E-02 0.  1.
<mgrwt>
<rscale>  0 0.41967904E+02</rscale>
<asrwt>0</asrwt>
<pdfrwt beam="1">  1        1 0.80171504E-01 0.41967904E+02</pdfrwt>
<pdfrwt beam="2">  1       -1 0.12999535E-03 0.41967904E+02</pdfrwt>
<totfact> 0.10060696E+06</totfact>
</mgrwt>
</event>
<event>
 4    1  0.3883670E-002  0.8101842E+02  0.7818608E-02  0.1326186E+00
          1   -1    0    0    0  501  0.00000000000E+00  0.00000000000E+00  0.33673446260E+02  0.33673446637E+02  0.50400000000E-02 0.  1.
         -1   -1    0    0  501    0 -0.00000000000E+00 -0.00000000000E+00 -0.48732641848E+02  0.48732642109E+02  0.50400000000E-02 0.  1.
          2    1    1    2    0  502 -0.12764331796E+02 -0.38445596178E+02 -0.75938015478E+01  0.41214777206E+02  0.25500000000E-02 0.  1.
         -2    1    1    2  502    0  0.12764331796E+02  0.38445596178E+02 -0.74653940402E+01  0.41191311540E+02  0.25500000000E-02 0.  1.
<mgrwt>
<rscale>  0 0.81018418E+02</rscale>
<asrwt>0</asrwt>
<pdfrwt beam="1">  1        1 0.51805302E-02 0.81018418E+02</pdfrwt>
<pdfrwt beam="2">  1       -1 0.74973296E-02 0.81018418E+02</pdfrwt>
<totfact> 0.12317994E+05</totfact>
</mgrwt>
</event>
<event>
 4    1  0.3883670E-002  0.7562874E+02  0.7818608E-02  0.1341935E+00
          1   -1    0    0    0  501  0.00000000000E+00  0.00000000000E+00  0.76615247984E+02  0.76615248150E+02  0.50400000000E-02 0. -1.
         -1   -1    0    0  501    0 -0.00000000000E+00 -0.00000000000E+00 -0.18663732963E+02  0.18663733644E+02  0.50400000000E-02 0. -1.
          2    1    1    2    0  502 -0.20552383595E+02  0.90596442216E+01  0.67301137942E+02  0.70950128961E+02  0.25500000000E-02 0. -1.
         -2    1    1    2  502    0  0.20552383595E+02 -0.90596442216E+01 -0.93496229209E+01  0.24328852832E+02  0.25500000000E-02 0. -1.
<mgrwt>
<rscale>  0 0.75628740E+02</rscale>
<asrwt>0</asrwt>
<pdfrwt beam="1">  1        1 0.11786961E-01 0.75628740E+02</pdfrwt>
<pdfrwt beam="2">  1       -1 0.28713436E-02 0.75628740E+02</pdfrwt>
<totfact> 0.16616832E+05</totfact>
</mgrwt>
</event>
<event>
 4    1  0.3883670E-002  0.4734246E+02  0.7818608E-02  0.1460226E+00
          1   -1    0    0    0  501  0.00000000000E+00  0.00000000000E+00  0.11144399530E+04  0.11144399530E+04  0.50400000000E-02 0.  1.
         -1   -1    0    0  501    0 -0.00000000000E+00 -0.00000000000E+00 -0.50277534564E+00  0.50280060638E+00  0.50400000000E-02 0.  1.
          2    1    1    2    0  502 -0.23501753993E+02  0.17614391984E+01  0.60905696643E+03  0.60951277547E+03  0.25500000000E-02 0. -1.
         -2    1    1    2  502    0  0.23501753993E+02 -0.17614391984E+01  0.50488021124E+03  0.50542997815E+03  0.25500000000E-02 0. -1.
<mgrwt>
<rscale>  0 0.47342455E+02</rscale>
<asrwt>0</asrwt>
<pdfrwt beam="1">  1        1 0.17145141E+00 0.47342455E+02</pdfrwt>
<pdfrwt beam="2">  1       -1 0.77352401E-04 0.47342455E+02</pdfrwt>
<totfact> 0.70214439E+05</totfact>
</mgrwt>
</event>
<event>
 4    1  0.3883670E-002  0.9328951E+02  0.7818608E-02  0.1295076E+00
          1   -1    0    0    0  501  0.00000000000E+00  0.00000000000E+00  0.12597875336E+04  0.12597875336E+04  0.50400000000E-02 0.  1.
         -1   -1    0    0  501    0 -0.00000000000E+00 -0.00000000000E+00 -0.17270600124E+01  0.17270673663E+01  0.50400000000E-02 0.  1.
          2    1    1    2    0  502  0.23479980211E+02  0.27405279230E+02  0.22939873851E+03  0.23222002505E+03  0.25500000000E-02 0. -1.
         -2    1    1    2  502    0 -0.23479980211E+02 -0.27405279230E+02  0.10286617351E+04  0.10292945759E+04  0.25500000000E-02 0. -1.
<mgrwt>
<rscale>  0 0.93289513E+02</rscale>
<asrwt>0</asrwt>
<pdfrwt beam="1">  1        1 0.19381364E+00 0.93289513E+02</pdfrwt>
<pdfrwt beam="2">  1       -1 0.26570187E-03 0.93289513E+02</pdfrwt>
<totfact> 0.11691856E+05</totfact>
</mgrwt>
</event>
<event>
 4    1  0.3883670E-002  0.8400498E+02  0.7818608E-02  0.1318055E+00
          1   -1    0    0    0  501  0.00000000000E+00  0.00000000000E+00  0.19938340921E+02  0.19938341558E+02  0.50400000000E-02 0.  1.
         -1   -1    0    0  501    0 -0.00000000000E+00 -0.00000000000E+00 -0.88483248214E+02  0.88483248357E+02  0.50400000000E-02 0.  1.
          2    1    1    2    0  502 -0.32959333311E+02 -0.25799296193E+02 -0.29748178542E+02  0.51350515766E+02  0.25500000000E-02 0.  1.
         -2    1    1    2  502    0  0.32959333311E+02  0.25799296193E+02 -0.38796728750E+02  0.57071074150E+02  0.25500000000E-02 0.  1.
<mgrwt>
<rscale>  0 0.84004981E+02</rscale>
<asrwt>0</asrwt>
<pdfrwt beam="1">  1        1 0.30674372E-02 0.84004981E+02</pdfrwt>
<pdfrwt beam="2">  1       -1 0.13612807E-01 0.84004981E+02</pdfrwt>
<totfact> 0.10262137E+05</totfact>
</mgrwt>
</event>
<event>
 4    1  0.3883670E-002  0.4222678E+02  0.7818608E-02  0.1492436E+00
         -1   -1    0    0  501    0 -0.00000000000E+00  0.00000000000E+00  0.18601177098E+00  0.18608003801E+00  0.50400000000E-02 0. -1.
          1   -1    0    0    0  501  0.00000000000E+00 -0.00000000000E+00 -0.23960501454E+04  0.23960501454E+04  0.50400000000E-02 0. -1.
          2    1    1    2    0  502  0.16208813402E+02 -0.12620877639E+02 -0.14745583987E+04  0.14747014896E+04  0.25500000000E-02 0. -1.
         -2    1    1    2  502    0 -0.16208813402E+02  0.12620877639E+02 -0.92130573490E+03  0.92153473583E+03  0.25500000000E-02 0. -1.
<mgrwt>
<rscale>  0 0.42226784E+02</rscale>
<asrwt>0</asrwt>
<pdfrwt beam="2">  1        1 0.36859839E+00 0.42226784E+02</pdfrwt>
<pdfrwt beam="1">  1       -1 0.28624366E-04 0.42226784E+02</pdfrwt>
<totfact> 0.41751152E+05</totfact>
</mgrwt>
</event>
<event>
 4    1  0.3883670E-002  0.8437392E+02  0.7818608E-02  0.1317078E+00
          1   -1    0    0    0  501  0.00000000000E+00  0.00000000000E+00  0.16673022406E+03  0.16673022414E+03  0.50400000000E-02 0.  1.
         -1   -1    0    0  501    0 -0.00000000000E+00 -0.00000000000E+00 -0.10674366620E+02  0.10674367810E+02  0.50400000000E-02 0.  1.
          2    1    1    2    0  502  0.28648168413E+02  0.19111300345E+02  0.26792601778E+02  0.43632589550E+02  0.25500000000E-02 0.  1.
         -2    1    1    2  502    0 -0.28648168413E+02 -0.19111300345E+02  0.12926325566E+03  0.13377200240E+03  0.25500000000E-02 0.  1.
<mgrwt>
<rscale>  0 0.84373921E+02</rscale>
<asrwt>0</asrwt>
<pdfrwt beam="1">  1        1 0.25650802E-01 0.84373921E+02</pdfrwt>
<pdfrwt beam="2">  1       -1 0.16422105E-02 0.84373921E+02</pdfrwt>
<totfact> 0.14074802E+05</totfact>
</mgrwt>
</event>
<event>
 4    1  0.3883670E-002  0.4892365E+02  0.7818608E-02  0.1451235E+00
         -1   -1    0    0  501    0 -0.00000000000E+00  0.00000000000E+00  0.90174831011E+01  0.90174845095E+01  0.50400000000E-02 0. -1.
          1   -1    0    0    0  501  0.00000000000E+00 -0.00000000000E+00 -0.66357860724E+02  0.66357860915E+02  0.50400000000E-02 0. -1.
          2    1    1    2    0  502  0.22664212479E+02 -0.81331894948E+01 -0.22031757945E+02  0.32637611177E+02  0.25500000000E-02 0. -1.
         -2    1    1    2  502    0 -0.22664212479E+02  0.81331894948E+01 -0.35308619677E+02  0.42737734248E+02  0.25500000000E-02 0. -1.
<mgrwt>
<rscale>  0 0.48923653E+02</rscale>
<asrwt>0</asrwt>
<pdfrwt beam="2">  1        1 0.10208901E-01 0.48923653E+02</pdfrwt>
<pdfrwt beam="1">  1       -1 0.13873053E-02 0.48923653E+02</pdfrwt>
<totfact> 0.50752692E+05</totfact>
</mgrwt>
</event>
<event>
 4    1  0.3883670E-002  0.4626773E+02  0.7818608E-02  0.1466579E+00
         -1   -1    0    0  501    0 -0.00000000000E+00  0.00000000000E+00  0.44060255116E+02  0.44060255405E+02  0.50400000000E-02 0.  1.
          1   -1    0    0    0  501  0.00000000000E+00 -0.00000000000E+00 -0.12146447588E+02  0.12146448634E+02  0.50400000000E-02 0.  1.
          2    1    1    2    0  502  0.20443356934E+02 -0.10668575980E+02  0.18205542877E+02  0.29380114944E+02  0.25500000000E-02 0. -1.
         -2    1    1    2  502    0 -0.20443356934E+02  0.10668575980E+02  0.13708264652E+02  0.26826589094E+02  0.25500000000E-02 0. -1.
<mgrwt>
<rscale>  0 0.46267726E+02</rscale>
<asrwt>0</asrwt>
<pdfrwt beam="2">  1        1 0.18686843E-02 0.46267726E+02</pdfrwt>
<pdfrwt beam="1">  1       -1 0.67785009E-02 0.46267726E+02</pdfrwt>
<totfact> 0.50080819E+05</totfact>
</mgrwt>
</event>
<event>
 4    1  0.3883670E-002  0.4242761E+02  0.7818608E-02  0.1491071E+00
          1   -1    0    0    0  501  0.00000000000E+00  0.00000000000E+00  0.89082728961E+03  0.89082728963E+03  0.50400000000E-02 0. -1.
         -1   -1    0    0  501    0 -0.00000000000E+00 -0.00000000000E+00 -0.50516453784E+00  0.50518967912E+00  0.50400000000E-02 0. -1.
          2    1    1    2    0  502  0.90747017870E+01 -0.19114360797E+02  0.47713623208E+03  0.47760516431E+03  0.25500000000E-02 0.  1.
         -2    1    1    2  502    0 -0.90747017870E+01  0.19114360797E+02  0.41318589299E+03  0.41372731500E+03  0.25500000000E-02 0.  1.
<mgrwt>
<rscale>  0 0.42427612E+02</rscale>
<asrwt>0</asrwt>
<pdfrwt beam="1">  1        1 0.13705016E+00 0.42427612E+02</pdfrwt>
<pdfrwt beam="2">  1       -1 0.77719666E-04 0.42427612E+02</pdfrwt>
<totfact> 0.97356996E+05</totfact>
</mgrwt>
</event>
<event>
 4    1  0.3883670E-002  0.5552446E+02  0.7818608E-02  0.1417635E+00
          1   -1    0    0    0  501  0.00000000000E+00  0.00000000000E+00  0.10859265705E+04  0.10859265705E+04  0.50400000000E-02 0. -1.
         -1   -1    0    0  501    0 -0.00000000000E+00 -0.00000000000E+00 -0.70974566827E+00  0.70976356290E+00  0.50400000000E-02 0. -1.
          2    1    1    2    0  502 -0.35847233099E+01  0.27409657529E+02  0.59289268867E+03  0.59353675527E+03  0.25500000000E-02 0. -1.
         -2    1    1    2  502    0  0.35847233099E+01 -0.27409657529E+02  0.49232413614E+03  0.49309957879E+03  0.25500000000E-02 0. -1.
<mgrwt>
<rscale>  0 0.55524460E+02</rscale>
<asrwt>0</asrwt>
<pdfrwt beam="1">  1        1 0.16706540E+00 0.55524460E+02</pdfrwt>
<pdfrwt beam="2">  1       -1 0.10919316E-03 0.55524460E+02</pdfrwt>
<totfact> 0.47649037E+05</totfact>
</mgrwt>
</event>
<event>
 4    1  0.3883670E-002  0.9796614E+02  0.7818608E-02  0.1284632E+00
         -1   -1    0    0  501    0 -0.00000000000E+00  0.00000000000E+00  0.23897332377E+01  0.23897385524E+01  0.50400000000E-02 0.  1.
          1   -1    0    0    0  501  0.00000000000E+00 -0.00000000000E+00 -0.10040194244E+04  0.10040194244E+04  0.50400000000E-02 0.  1.
          2    1    1    2    0  502  0.98273785718E+01 -0.28558742955E+02 -0.89698132691E+03  0.89748965454E+03  0.25500000000E-02 0.  1.
         -2    1    1    2  502    0 -0.98273785718E+01  0.28558742955E+02 -0.10464836422E+03  0.10891950839E+03  0.25500000000E-02 0.  1.
<mgrwt>
<rscale>  0 0.97966143E+02</rscale>
<asrwt>0</asrwt>
<pdfrwt beam="2">  1        1 0.15446419E+00 0.97966143E+02</pdfrwt>
<pdfrwt beam="1">  1       -1 0.36765248E-03 0.97966143E+02</pdfrwt>
<totfact> 0.11230203E+05</totfact>
</mgrwt>
</event>
<event>
 4    1  0.3883670E-002  0.4301400E+02  0.7818608E-02  0.1487135E+00
         -1   -1    0    0  501    0 -0.00000000000E+00  0.00000000000E+00  0.88039611588E+03  0.88039611589E+03  0.50400000000E-02 0.  1.
          1   -1    0    0    0  501  0.00000000000E+00 -0.00000000000E+00 -0.52537765191E+00  0.52540182597E+00  0.50400000000E-02 0.  1.
          2    1    1    2    0  502 -0.12657434077E+02 -0.17240447797E+02  0.48621905073E+03  0.48668923245E+03  0.25500000000E-02 0. -1.
         -2    1    1    2  502    0  0.12657434077E+02  0.17240447797E+02  0.39365168750E+03  0.39423228527E+03  0.25500000000E-02 0. -1.
<mgrwt>
<rscale>  0 0.43014002E+02</rscale>
<asrwt>0</asrwt>
<pdfrwt beam="2">  1        1 0.80829487E-04 0.43014002E+02</pdfrwt>
<pdfrwt beam="1">  1       -1 0.13544506E+00 0.43014002E+02</pdfrwt>
<totfact> 0.19913927E+05</totfact>
</mgrwt>
</event>
<event>
 4    1  0.3883670E-002  0.6376293E+02  0.7818608E-02  0.1382686E+00
         -1   -1    0    0  501    0 -0.00000000000E+00  0.00000000000E+00  0.12294071246E+02  0.12294072279E+02  0.50400000000E-02 0.  1.
          1   -1    0    0    0  501  0.00000000000E+00 -0.00000000000E+00 -0.82676264642E+02  0.82676264796E+02  0.50400000000E-02 0.  1.
          2    1    1    2    0  502 -0.81860425490E+01 -0.24419812618E+02 -0.72037309342E+01  0.26743827078E+02  0.25500000000E-02 0. -1.
         -2    1    1    2  502    0  0.81860425490E+01  0.24419812618E+02 -0.63178462462E+02  0.68226509998E+02  0.25500000000E-02 0. -1.
<mgrwt>
<rscale>  0 0.63762934E+02</rscale>
<asrwt>0</asrwt>
<pdfrwt beam="2">  1        1 0.12719425E-01 0.63762934E+02</pdfrwt>
<pdfrwt beam="1">  1       -1 0.18913957E-02 0.63762934E+02</pdfrwt>
<totfact> 0.26367781E+05</totfact>
</mgrwt>
</event>
<event>
 4    1  0.3883670E-002  0.2622988E+03  0.7818608E-02  0.1105770E+00
         -1   -1    0    0  501    0 -0.00000000000E+00  0.00000000000E+00  0.41407743356E+02  0.41407743663E+02  0.50400000000E-02 0. -1.
          1   -1    0    0    0  501  0.00000000000E+00 -0.00000000000E+00 -0.41538534054E+03  0.41538534057E+03  0.50400000000E-02 0. -1.
          2    1    1    2    0  502  0.99504532350E+02  0.52323893977E+02 -0.30460415821E+03  0.32468852004E+03  0.25500000000E-02 0. -1.
         -2    1    1    2  502    0 -0.99504532350E+02 -0.52323893977E+02 -0.69373438968E+02  0.13210456419E+03  0.25500000000E-02 0. -1.
<mgrwt>
<rscale>  0 0.26229883E+03</rscale>
<asrwt>0</asrwt>
<pdfrwt beam="2">  1        1 0.63905434E-01 0.26229883E+03</pdfrwt>
<pdfrwt beam="1">  1       -1 0.63704224E-02 0.26229883E+03</pdfrwt>
<totfact> 0.69798918E+03</totfact>
</mgrwt>
</event>
<event>
 4    1  0.3883670E-002  0.9219111E+02  0.7818608E-02  0.1297631E+00
          1   -1    0    0    0  501  0.00000000000E+00  0.00000000000E+00  0.25353326683E+03  0.25353326688E+03  0.50400000000E-02 0. -1.
         -1   -1    0    0  501    0 -0.00000000000E+00 -0.00000000000E+00 -0.83807542260E+01  0.83807557415E+01  0.50400000000E-02 0. -1.
          2    1    1    2    0  502 -0.43887483416E+02 -0.56396581009E+01  0.85875409711E+02  0.96604880537E+02  0.25500000000E-02 0.  1.
         -2    1    1    2  502    0  0.43887483416E+02  0.56396581009E+01  0.15927710289E+03  0.16530914208E+03  0.25500000000E-02 0.  1.
<mgrwt>
<rscale>  0 0.92191110E+02</rscale>
<asrwt>0</asrwt>
<pdfrwt beam="1">  1        1 0.39005117E-01 0.92191110E+02</pdfrwt>
<pdfrwt beam="2">  1       -1 0.12893469E-02 0.92191110E+02</pdfrwt>
<totfact> 0.12039315E+05</totfact>
</mgrwt>
</event>
<event>
 4    1  0.3883670E-002  0.4165468E+02  0.7818608E-02  0.1496376E+00
          1   -1    0    0    0  501  0.00000000000E+00  0.00000000000E+00  0.50334679462E+03  0.50334679464E+03  0.50400000000E-02 0. -1.
         -1   -1    0    0  501    0 -0.00000000000E+00 -0.00000000000E+00 -0.86178024848E+00  0.86179498622E+00  0.50400000000E-02 0. -1.
          2    1    1    2    0  502  0.13819281465E+02 -0.15472159327E+02  0.27362038659E+03  0.27440567818E+03  0.25500000000E-02 0. -1.
         -2    1    1    2  502    0 -0.13819281465E+02  0.15472159327E+02  0.22886462778E+03  0.22980291145E+03  0.25500000000E-02 0. -1.
<mgrwt>
<rscale>  0 0.41654678E+02</rscale>
<asrwt>0</asrwt>
<pdfrwt beam="1">  1        1 0.77438200E-01 0.41654678E+02</pdfrwt>
<pdfrwt beam="2">  1       -1 0.13258232E-03 0.41654678E+02</pdfrwt>
<totfact> 0.10210318E+06</totfact>
</mgrwt>
</event>
<event>
 4    1  0.3883670E-002  0.7343158E+02  0.7818608E-02  0.1348798E+00
         -1   -1    0    0  501    0 -0.00000000000E+00  0.00000000000E+00  0.19919896189E+03  0.19919896195E+03  0.50400000000E-02 0. -1.
          1   -1    0    0    0  501  0.00000000000E+00 -0.00000000000E+00 -0.67673489642E+01  0.67673508410E+01  0.50400000000E-02 0. -1.
          2    1    1    2    0  502  0.34245171522E+02 -0.42782674837E+01  0.61069299462E+02  0.70146237879E+02  0.25500000000E-02 0. -1.
         -2    1    1    2  502    0 -0.34245171522E+02  0.42782674837E+01  0.13136231346E+03  0.13582007491E+03  0.25500000000E-02 0. -1.
<mgrwt>
<rscale>  0 0.73431576E+02</rscale>
<asrwt>0</asrwt>
<pdfrwt beam="2">  1        1 0.10411306E-02 0.73431576E+02</pdfrwt>
<pdfrwt beam="1">  1       -1 0.30646000E-01 0.73431576E+02</pdfrwt>
<totfact> 0.12165278E+05</totfact>
</mgrwt>
</event>
<event>
 4    1  0.3883670E-002  0.8797476E+02  0.7818608E-02  0.1307832E+00
         -1   -1    0    0  501    0 -0.00000000000E+00  0.00000000000E+00  0.45217928136E+01  0.45217956224E+01  0.50400000000E-02 0.  1.
          1   -1    0    0    0  501  0.00000000000E+00 -0.00000000000E+00 -0.42790305249E+03  0.42790305252E+03  0.50400000000E-02 0.  1.
          2    1    1    2    0  502  0.17533715573E+02 -0.12322395925E+02 -0.22874378982E+02  0.31345013055E+02  0.25500000000E-02 0.  1.
         -2    1    1    2  502    0 -0.17533715573E+02  0.12322395925E+02 -0.40050688069E+03  0.40107983508E+03  0.25500000000E-02 0.  1.
<mgrwt>
<rscale>  0 0.87974759E+02</rscale>
<asrwt>0</asrwt>
<pdfrwt beam="2">  1        1 0.65831207E-01 0.87974759E+02</pdfrwt>
<pdfrwt beam="1">  1       -1 0.69566099E-03 0.87974759E+02</pdfrwt>
<totfact> 0.14987619E+05</totfact>
</mgrwt>
</event>
<event>
 4    1  0.3883670E-002  0.4312844E+02  0.7818608E-02  0.1486375E+00
         -1   -1    0    0  501    0 -0.00000000000E+00  0.00000000000E+00  0.20612941060E+02  0.20612941676E+02  0.50400000000E-02 0.  1.
          1   -1    0    0    0  501  0.00000000000E+00 -0.00000000000E+00 -0.22559400432E+02  0.22559400995E+02  0.50400000000E-02 0.  1.
          2    1    1    2    0  502  0.11443623180E+02 -0.16472762932E+02  0.69536175193E+01  0.21228783131E+02  0.25500000000E-02 0. -1.
         -2    1    1    2  502    0 -0.11443623180E+02  0.16472762932E+02 -0.89000768919E+01  0.21943559540E+02  0.25500000000E-02 0. -1.
<mgrwt>
<rscale>  0 0.43128442E+02</rscale>
<asrwt>0</asrwt>
<pdfrwt beam="2">  1        1 0.34706771E-02 0.43128442E+02</pdfrwt>
<pdfrwt beam="1">  1       -1 0.31712218E-02 0.43128442E+02</pdfrwt>
<totfact> 0.63451901E+05</totfact>
</mgrwt>
</event>
<event>
 4    1  0.3883670E-002  0.5530134E+02  0.7818608E-02  0.1418679E+00
         -1   -1    0    0  501    0 -0.00000000000E+00  0.00000000000E+00  0.19174964948E+01  0.19175031184E+01  0.50400000000E-02 0.  1.
          1   -1    0    0    0  501  0.00000000000E+00 -0.00000000000E+00 -0.39872730542E+03  0.39872730545E+03  0.50400000000E-02 0.  1.
          2    1    1    2    0  502 -0.12325839040E+02 -0.19682036300E+02 -0.30713678990E+03  0.30801350064E+03  0.25500000000E-02 0.  1.
         -2    1    1    2  502    0  0.12325839040E+02  0.19682036300E+02 -0.89673019028E+02  0.92631307931E+02  0.25500000000E-02 0.  1.
<mgrwt>
<rscale>  0 0.55301340E+02</rscale>
<asrwt>0</asrwt>
<pdfrwt beam="2">  1        1 0.61342597E-01 0.55301340E+02</pdfrwt>
<pdfrwt beam="1">  1       -1 0.29500029E-03 0.55301340E+02</pdfrwt>
<totfact> 0.49150764E+05</totfact>
</mgrwt>
</event>
<event>
 4    1  0.3883670E-002  0.4549842E+02  0.7818608E-02  0.1471254E+00
         -1   -1    0    0  501    0 -0.00000000000E+00  0.00000000000E+00  0.92061336740E+02  0.92061336878E+02  0.50400000000E-02 0.  1.
          1   -1    0    0    0  501  0.00000000000E+00 -0.00000000000E+00 -0.56215402896E+01  0.56215425489E+01  0.50400000000E-02 0.  1.
          2    1    1    2    0  502 -0.17184881417E+02  0.13191944146E+02  0.28317664253E+02  0.35654419851E+02  0.25500000000E-02 0.  1.
         -2    1    1    2  502    0  0.17184881417E+02 -0.13191944146E+02  0.58122132198E+02  0.62028459576E+02  0.25500000000E-02 0.  1.
<mgrwt>
<rscale>  0 0.45498423E+02</rscale>
<asrwt>0</asrwt>
<pdfrwt beam="2">  1        1 0.86485265E-03 0.45498423E+02</pdfrwt>
<pdfrwt beam="1">  1       -1 0.14163281E-01 0.45498423E+02</pdfrwt>
<totfact> 0.47577071E+05</totfact>
</mgrwt>
</event>
<event>
 4    1  0.3883670E-002  0.5185201E+02  0.7818608E-02  0.1435601E+00
          1   -1    0    0    0  501  0.00000000000E+00  0.00000000000E+00  0.46212763974E+03  0.46212763977E+03  0.50400000000E-02 0.  1.
         -1   -1    0    0  501    0 -0.00000000000E+00 -0.00000000000E+00 -0.14544808158E+01  0.14544895480E+01  0.50400000000E-02 0.  1.
          2    1    1    2    0  502 -0.17509609691E+02 -0.16715484417E+02  0.31332622077E+03  0.31425994730E+03  0.25500000000E-02 0. -1.
         -2    1    1    2  502    0  0.17509609691E+02  0.16715484417E+02  0.14734693816E+03  0.14932218202E+03  0.25500000000E-02 0. -1.
<mgrwt>
<rscale>  0 0.51852013E+02</rscale>
<asrwt>0</asrwt>
<pdfrwt beam="1">  1        1 0.71096611E-01 0.51852013E+02</pdfrwt>
<pdfrwt beam="2">  1       -1 0.22376679E-03 0.51852013E+02</pdfrwt>
<totfact> 0.58973224E+05</totfact>
</mgrwt>
</event>
<event>
 4    1  0.3883670E-002  0.6852132E+02  0.7818608E-02  0.1365195E+00
         -1   -1    0    0  501    0 -0.00000000000E+00  0.00000000000E+00  0.58486204039E+02  0.58486204256E+02  0.50400000000E-02 0. -1.
          1   -1    0    0    0  501  0.00000000000E+00 -0.00000000000E+00 -0.20069569286E+02  0.20069569919E+02  0.50400000000E-02 0. -1.
          2    1    1    2    0  502  0.25085135904E+02  0.19161089678E+02  0.34477176584E+02  0.46744915367E+02  0.25500000000E-02 0. -1.
         -2    1    1    2  502    0 -0.25085135904E+02 -0.19161089678E+02  0.39394581693E+01  0.31810858809E+02  0.25500000000E-02 0. -1.
<mgrwt>
<rscale>  0 0.68521324E+02</rscale>
<asrwt>0</asrwt>
<pdfrwt beam="2">  1        1 0.30876261E-02 0.68521324E+02</pdfrwt>
<pdfrwt beam="1">  1       -1 0.89978775E-02 0.68521324E+02</pdfrwt>
<totfact> 0.18314389E+05</totfact>
</mgrwt>
</event>
<event>
 4    1  0.3883670E-002  0.5575704E+02  0.7818608E-02  0.1416552E+00
          1   -1    0    0    0  501  0.00000000000E+00  0.00000000000E+00  0.36451878640E+02  0.36451878989E+02  0.50400000000E-02 0. -1.
         -1   -1    0    0  501    0 -0.00000000000E+00 -0.00000000000E+00 -0.21321586247E+02  0.21321586842E+02  0.50400000000E-02 0. -1.
          2    1    1    2    0  502  0.22259208856E+02  0.16609737291E+01  0.24871906186E+02  0.33419200117E+02  0.25500000000E-02 0.  1.
         -2    1    1    2  502    0 -0.22259208856E+02 -0.16609737291E+01 -0.97416137929E+01  0.24354265713E+02  0.25500000000E-02 0.  1.
<mgrwt>
<rscale>  0 0.55757041E+02</rscale>
<asrwt>0</asrwt>
<pdfrwt beam="1">  1        1 0.56079813E-02 0.55757041E+02</pdfrwt>
<pdfrwt beam="2">  1       -1 0.32802442E-02 0.55757041E+02</pdfrwt>
<totfact> 0.34101278E+05</totfact>
</mgrwt>
</event>
<event>
 4    1  0.3883670E-002  0.4329166E+02  0.7818608E-02  0.1485297E+00
          1   -1    0    0    0  501  0.00000000000E+00  0.00000000000E+00  0.16284725866E+01  0.16284803858E+01  0.50400000000E-02 0. -1.
         -1   -1    0    0  501    0 -0.00000000000E+00 -0.00000000000E+00 -0.28771794843E+03  0.28771794847E+03  0.50400000000E-02 0. -1.
          2    1    1    2    0  502 -0.30807108566E+01  0.21130487503E+02 -0.11936381036E+03  0.12125884508E+03  0.25500000000E-02 0. -1.
         -2    1    1    2  502    0  0.30807108566E+01 -0.21130487503E+02 -0.16672566548E+03  0.16808758377E+03  0.25500000000E-02 0. -1.
<mgrwt>
<rscale>  0 0.43291659E+02</rscale>
<asrwt>0</asrwt>
<pdfrwt beam="1">  1        1 0.25053508E-03 0.43291659E+02</pdfrwt>
<pdfrwt beam="2">  1       -1 0.44264260E-01 0.43291659E+02</pdfrwt>
<totfact> 0.40615320E+05</totfact>
</mgrwt>
</event>
<event>
 4    1  0.3883670E-002  0.4264419E+02  0.7818608E-02  0.1489608E+00
         -1   -1    0    0  501    0 -0.00000000000E+00  0.00000000000E+00  0.47208131682E+00  0.47210821989E+00  0.50400000000E-02 0. -1.
          1   -1    0    0    0  501  0.00000000000E+00 -0.00000000000E+00 -0.96300948798E+03  0.96300948800E+03  0.50400000000E-02 0. -1.
          2    1    1    2    0  502  0.20090095323E+02  0.51538243222E+00 -0.64222928415E+03  0.64254364130E+03  0.25500000000E-02 0.  1.
         -2    1    1    2  502    0 -0.20090095323E+02 -0.51538243222E+00 -0.32030812251E+03  0.32093795491E+03  0.25500000000E-02 0.  1.
<mgrwt>
<rscale>  0 0.42644191E+02</rscale>
<asrwt>0</asrwt>
<pdfrwt beam="2">  1        1 0.14815374E+00 0.42644191E+02</pdfrwt>
<pdfrwt beam="1">  1       -1 0.72630736E-04 0.42644191E+02</pdfrwt>
<totfact> 0.94721898E+05</totfact>
</mgrwt>
</event>
<event>
 4    1  0.3883670E-002  0.2240633E+03  0.7818608E-02  0.1130889E+00
          1   -1    0    0    0  501  0.00000000000E+00  0.00000000000E+00  0.11164250346E+03  0.11164250357E+03  0.50400000000E-02 0.  1.
         -1   -1    0    0  501    0 -0.00000000000E+00 -0.00000000000E+00 -0.11242214408E+03  0.11242214420E+03  0.50400000000E-02 0.  1.
          2    1    1    2    0  502 -0.59549385043E+02  0.28806883997E+02  0.90027118268E+02  0.11171771504E+03  0.25500000000E-02 0. -1.
         -2    1    1    2  502    0  0.59549385043E+02 -0.28806883997E+02 -0.90806758895E+02  0.11234693272E+03  0.25500000000E-02 0. -1.
<mgrwt>
<rscale>  0 0.22406329E+03</rscale>
<asrwt>0</asrwt>
<pdfrwt beam="1">  1        1 0.17175770E-01 0.22406329E+03</pdfrwt>
<pdfrwt beam="2">  1       -1 0.17295714E-01 0.22406329E+03</pdfrwt>
<totfact> 0.77931072E+03</totfact>
</mgrwt>
</event>
<event>
 4    1  0.3883670E-002  0.6207255E+02  0.7818608E-02  0.1389334E+00
         -1   -1    0    0  501    0 -0.00000000000E+00  0.00000000000E+00  0.78708921637E+02  0.78708921798E+02  0.50400000000E-02 0.  1.
          1   -1    0    0    0  501  0.00000000000E+00 -0.00000000000E+00 -0.12238132693E+02  0.12238133731E+02  0.50400000000E-02 0.  1.
          2    1    1    2    0  502  0.17346547862E+02  0.24423775348E+02  0.21347901246E+02  0.36785274487E+02  0.25500000000E-02 0. -1.
         -2    1    1    2  502    0 -0.17346547862E+02 -0.24423775348E+02  0.45122887698E+02  0.54161781042E+02  0.25500000000E-02 0. -1.
<mgrwt>
<rscale>  0 0.62072547E+02</rscale>
<asrwt>0</asrwt>
<pdfrwt beam="2">  1        1 0.18827896E-02 0.62072547E+02</pdfrwt>
<pdfrwt beam="1">  1       -1 0.12109066E-01 0.62072547E+02</pdfrwt>
<totfact> 0.22530699E+05</totfact>
</mgrwt>
</event>
<event>
 4    1  0.3883670E-002  0.9026024E+02  0.7818608E-02  0.1302223E+00
          1   -1    0    0    0  501  0.00000000000E+00  0.00000000000E+00  0.32304367310E+02  0.32304367703E+02  0.50400000000E-02 0. -1.
         -1   -1    0    0  501    0 -0.00000000000E+00 -0.00000000000E+00 -0.63048066362E+02  0.63048066564E+02  0.50400000000E-02 0. -1.
          2    1    1    2    0  502 -0.65018409181E+01  0.42847085641E+02 -0.28675204357E+02  0.51965508125E+02  0.25500000000E-02 0.  1.
         -2    1    1    2  502    0  0.65018409181E+01 -0.42847085641E+02 -0.20684946960E+01  0.43386926142E+02  0.25500000000E-02 0.  1.
<mgrwt>
<rscale>  0 0.90260244E+02</rscale>
<asrwt>0</asrwt>
<pdfrwt beam="1">  1        1 0.49699027E-02 0.90260244E+02</pdfrwt>
<pdfrwt beam="2">  1       -1 0.96997025E-02 0.90260244E+02</pdfrwt>
<totfact> 0.90280860E+04</totfact>
</mgrwt>
</event>
<event>
 4    1  0.3883670E-002  0.5089091E+02  0.7818608E-02  0.1440595E+00
         -1   -1    0    0  501    0 -0.00000000000E+00  0.00000000000E+00  0.12149108905E+02  0.12149109950E+02  0.50400000000E-02 0. -1.
          1   -1    0    0    0  501  0.00000000000E+00 -0.00000000000E+00 -0.53293723151E+02  0.53293723389E+02  0.50400000000E-02 0. -1.
          2    1    1    2    0  502 -0.25353143572E+02  0.19951670194E+01 -0.21654871048E+02  0.33402036271E+02  0.25500000000E-02 0.  1.
         -2    1    1    2  502    0  0.25353143572E+02 -0.19951670194E+01 -0.19489743198E+02  0.32040797069E+02  0.25500000000E-02 0.  1.
<mgrwt>
<rscale>  0 0.50890914E+02</rscale>
<asrwt>0</asrwt>
<pdfrwt beam="2">  1        1 0.81990343E-02 0.50890914E+02</pdfrwt>
<pdfrwt beam="1">  1       -1 0.18690938E-02 0.50890914E+02</pdfrwt>
<totfact> 0.44856805E+05</totfact>
</mgrwt>
</event>
<event>
 4    1  0.3883670E-002  0.5065720E+02  0.7818608E-02  0.1441829E+00
         -1   -1    0    0  501    0 -0.00000000000E+00  0.00000000000E+00  0.18105128929E+01  0.18105199079E+01  0.50400000000E-02 0. -1.
          1   -1    0    0    0  501  0.00000000000E+00 -0.00000000000E+00 -0.35433977352E+03  0.35433977356E+03  0.50400000000E-02 0. -1.
          2    1    1    2    0  502 -0.23356636289E+02  0.38116690145E+01 -0.11280334941E+03  0.11525908608E+03  0.25500000000E-02 0.  1.
         -2    1    1    2  502    0  0.23356636289E+02 -0.38116690145E+01 -0.23972591121E+03  0.24089120738E+03  0.25500000000E-02 0.  1.
<mgrwt>
<rscale>  0 0.50657200E+02</rscale>
<asrwt>0</asrwt>
<pdfrwt beam="2">  1        1 0.54513757E-01 0.50657200E+02</pdfrwt>
<pdfrwt beam="1">  1       -1 0.27854127E-03 0.50657200E+02</pdfrwt>
<totfact> 0.60096305E+05</totfact>
</mgrwt>
</event>
<event>
 4    1  0.3883670E-002  0.5910821E+02  0.7818608E-02  0.1401613E+00
          1   -1    0    0    0  501  0.00000000000E+00  0.00000000000E+00  0.95889472402E+02  0.95889472534E+02  0.50400000000E-02 0. -1.
         -1   -1    0    0  501    0 -0.00000000000E+00 -0.00000000000E+00 -0.91088724907E+01  0.91088738850E+01  0.50400000000E-02 0. -1.
          2    1    1    2    0  502 -0.77302486880E+00  0.20307166990E+02  0.52719875117E+01  0.20994581620E+02  0.25500000000E-02 0. -1.
         -2    1    1    2  502    0  0.77302486880E+00 -0.20307166990E+02  0.81508612399E+02  0.84003764799E+02  0.25500000000E-02 0. -1.
<mgrwt>
<rscale>  0 0.59108208E+02</rscale>
<asrwt>0</asrwt>
<pdfrwt beam="1">  1        1 0.14752227E-01 0.59108208E+02</pdfrwt>
<pdfrwt beam="2">  1       -1 0.14013651E-02 0.59108208E+02</pdfrwt>
<totfact> 0.32753209E+05</totfact>
</mgrwt>
</event>
<event>
 4    1  0.3883670E-002  0.1182304E+03  0.7818608E-02  0.1246045E+00
          1   -1    0    0    0  501  0.00000000000E+00  0.00000000000E+00  0.18871964181E+04  0.18871964181E+04  0.50400000000E-02 0. -1.
         -1   -1    0    0  501    0 -0.00000000000E+00 -0.00000000000E+00 -0.18517404167E+01  0.18517472755E+01  0.50400000000E-02 0. -1.
          2    1    1    2    0  502  0.45843373203E+02 -0.29053753702E+02  0.13169969098E+04  0.13181147885E+04  0.25500000000E-02 0. -1.
         -2    1    1    2  502    0 -0.45843373203E+02  0.29053753702E+02  0.56834776790E+03  0.57093337681E+03  0.25500000000E-02 0. -1.
<mgrwt>
<rscale>  0 0.11823036E+03</rscale>
<asrwt>0</asrwt>
<pdfrwt beam="1">  1        1 0.29033729E+00 0.11823036E+03</pdfrwt>
<pdfrwt beam="2">  1       -1 0.28488428E-03 0.11823036E+03</pdfrwt>
<totfact> 0.43092554E+04</totfact>
</mgrwt>
</event>
<event>
 4    1  0.3883670E-002  0.4592800E+02  0.7818608E-02  0.1468630E+00
          1   -1    0    0    0  501  0.00000000000E+00  0.00000000000E+00  0.53916896361E+02  0.53916896596E+02  0.50400000000E-02 0. -1.
         -1   -1    0    0  501    0 -0.00000000000E+00 -0.00000000000E+00 -0.97807034317E+01  0.97807047302E+01  0.50400000000E-02 0. -1.
          2    1    1    2    0  502  0.15433517837E+02 -0.14983705844E+02  0.33218671465E+02  0.39575055958E+02  0.25500000000E-02 0. -1.
         -2    1    1    2  502    0 -0.15433517837E+02  0.14983705844E+02  0.10917521464E+02  0.24122545369E+02  0.25500000000E-02 0. -1.
<mgrwt>
<rscale>  0 0.45927997E+02</rscale>
<asrwt>0</asrwt>
<pdfrwt beam="1">  1        1 0.82949072E-02 0.45927997E+02</pdfrwt>
<pdfrwt beam="2">  1       -1 0.15047237E-02 0.45927997E+02</pdfrwt>
<totfact> 0.58267487E+05</totfact>
</mgrwt>
</event>
<event>
 4    1  0.3883670E-002  0.5334117E+02  0.7818608E-02  0.1428110E+00
         -1   -1    0    0  501    0 -0.00000000000E+00  0.00000000000E+00  0.30558941500E+00  0.30563097383E+00  0.50400000000E-02 0.  1.
          1   -1    0    0    0  501  0.00000000000E+00 -0.00000000000E+00 -0.23275401889E+04  0.23275401889E+04  0.50400000000E-02 0.  1.
          2    1    1    2    0  502 -0.19342977016E+02 -0.18358568506E+02 -0.11794858665E+04  0.11797873101E+04  0.25500000000E-02 0.  1.
         -2    1    1    2  502    0  0.19342977016E+02  0.18358568506E+02 -0.11477487330E+04  0.11480585098E+04  0.25500000000E-02 0.  1.
<mgrwt>
<rscale>  0 0.53341167E+02</rscale>
<asrwt>0</asrwt>
<pdfrwt beam="2">  1        1 0.35806891E+00 0.53341167E+02</pdfrwt>
<pdfrwt beam="1">  1       -1 0.47018817E-04 0.53341167E+02</pdfrwt>
<totfact> 0.24623932E+05</totfact>
</mgrwt>
</event>
<event>
 4    1  0.3883670E-002  0.4983067E+02  0.7818608E-02  0.1446257E+00
          1   -1    0    0    0  501  0.00000000000E+00  0.00000000000E+00  0.23019667758E+02  0.23019668310E+02  0.50400000000E-02 0. -1.
         -1   -1    0    0  501    0 -0.00000000000E+00 -0.00000000000E+00 -0.26967113962E+02  0.26967114433E+02  0.50400000000E-02 0. -1.
          2    1    1    2    0  502  0.21795922407E+02  0.38045256232E+01  0.95180537991E+01  0.24085888055E+02  0.25500000000E-02 0. -1.
         -2    1    1    2  502    0 -0.21795922407E+02 -0.38045256232E+01 -0.13465500004E+02  0.25900894688E+02  0.25500000000E-02 0. -1.
<mgrwt>
<rscale>  0 0.49830674E+02</rscale>
<asrwt>0</asrwt>
<pdfrwt beam="1">  1        1 0.35414874E-02 0.49830674E+02</pdfrwt>
<pdfrwt beam="2">  1       -1 0.41487868E-02 0.49830674E+02</pdfrwt>
<totfact> 0.43797757E+05</totfact>
</mgrwt>
</event>
<event>
 4    1  0.3883670E-002  0.4759528E+02  0.7818608E-02  0.1458761E+00
          1   -1    0    0    0  501  0.00000000000E+00  0.00000000000E+00  0.23588928147E+02  0.23588928686E+02  0.50400000000E-02 0. -1.
         -1   -1    0    0  501    0 -0.00000000000E+00 -0.00000000000E+00 -0.24008199158E+02  0.24008199687E+02  0.50400000000E-02 0. -1.
          2    1    1    2    0  502  0.15934272614E+02 -0.14929586014E+02  0.92529787933E+01  0.23715210421E+02  0.25500000000E-02 0.  1.
         -2    1    1    2  502    0 -0.15934272614E+02  0.14929586014E+02 -0.96722498041E+01  0.23881917952E+02  0.25500000000E-02 0.  1.
<mgrwt>
<rscale>  0 0.47595282E+02</rscale>
<asrwt>0</asrwt>
<pdfrwt beam="1">  1        1 0.36290659E-02 0.47595282E+02</pdfrwt>
<pdfrwt beam="2">  1       -1 0.36935692E-02 0.47595282E+02</pdfrwt>
<totfact> 0.49445410E+05</totfact>
</mgrwt>
</event>
<event>
 4    1  0.3883670E-002  0.4064091E+02  0.7818608E-02  0.1503547E+00
          1   -1    0    0    0  501  0.00000000000E+00  0.00000000000E+00  0.12420965601E+01  0.12421067853E+01  0.50400000000E-02 0. -1.
         -1   -1    0    0  501    0 -0.00000000000E+00 -0.00000000000E+00 -0.33243731113E+03  0.33243731117E+03  0.50400000000E-02 0. -1.
          2    1    1    2    0  502  0.87006269207E+01 -0.18315905003E+02 -0.15474348708E+03  0.15606639640E+03  0.25500000000E-02 0.  1.
         -2    1    1    2  502    0 -0.87006269207E+01  0.18315905003E+02 -0.17645172749E+03  0.17761302155E+03  0.25500000000E-02 0.  1.
<mgrwt>
<rscale>  0 0.40640913E+02</rscale>
<asrwt>0</asrwt>
<pdfrwt beam="1">  1        1 0.19109283E-03 0.40640913E+02</pdfrwt>
<pdfrwt beam="2">  1       -1 0.51144131E-01 0.40640913E+02</pdfrwt>
<totfact> 0.44689077E+05</totfact>
</mgrwt>
</event>
<event>
 4    1  0.3883670E-002  0.1150556E+03  0.7818608E-02  0.1251484E+00
         -1   -1    0    0  501    0 -0.00000000000E+00  0.00000000000E+00  0.30614722772E+02  0.30614723187E+02  0.50400000000E-02 0.  1.
          1   -1    0    0    0  501  0.00000000000E+00 -0.00000000000E+00 -0.10809983171E+03  0.10809983183E+03  0.50400000000E-02 0.  1.
          2    1    1    2    0  502 -0.55786678140E+02  0.13475703721E+02 -0.33965705393E+02  0.66688958592E+02  0.25500000000E-02 0.  1.
         -2    1    1    2  502    0  0.55786678140E+02 -0.13475703721E+02 -0.43519403545E+02  0.72025596423E+02  0.25500000000E-02 0.  1.
<mgrwt>
<rscale>  0 0.11505558E+03</rscale>
<asrwt>0</asrwt>
<pdfrwt beam="2">  1        1 0.16630743E-01 0.11505558E+03</pdfrwt>
<pdfrwt beam="1">  1       -1 0.47099574E-02 0.11505558E+03</pdfrwt>
<totfact> 0.55645225E+04</totfact>
</mgrwt>
</event>
<event>
 4    1  0.3883670E-002  0.4193533E+02  0.7818608E-02  0.1494434E+00
          1   -1    0    0    0  501  0.00000000000E+00  0.00000000000E+00  0.40600208504E+02  0.40600208817E+02  0.50400000000E-02 0. -1.
         -1   -1    0    0  501    0 -0.00000000000E+00 -0.00000000000E+00 -0.10828586483E+02  0.10828587656E+02  0.50400000000E-02 0. -1.
          2    1    1    2    0  502  0.20880477092E+02  0.42111677888E+00  0.17170717932E+02  0.27037108272E+02  0.25500000000E-02 0.  1.
         -2    1    1    2  502    0 -0.20880477092E+02 -0.42111677888E+00  0.12600904088E+02  0.24391688200E+02  0.25500000000E-02 0.  1.
<mgrwt>
<rscale>  0 0.41935327E+02</rscale>
<asrwt>0</asrwt>
<pdfrwt beam="1">  1        1 0.62461860E-02 0.41935327E+02</pdfrwt>
<pdfrwt beam="2">  1       -1 0.16659365E-02 0.41935327E+02</pdfrwt>
<totfact> 0.71360621E+05</totfact>
</mgrwt>
</event>
<event>
 4    1  0.3883670E-002  0.6034690E+02  0.7818608E-02  0.1396382E+00
          1   -1    0    0    0  501  0.00000000000E+00  0.00000000000E+00  0.15679831431E+04  0.15679831431E+04  0.50400000000E-02 0.  1.
         -1   -1    0    0  501    0 -0.00000000000E+00 -0.00000000000E+00 -0.58063115464E+00  0.58065302836E+00  0.50400000000E-02 0.  1.
          2    1    1    2    0  502  0.10083867172E+02  0.28177281158E+02  0.68372837153E+03  0.68438302842E+03  0.25500000000E-02 0. -1.
         -2    1    1    2  502    0 -0.10083867172E+02 -0.28177281158E+02  0.88367414041E+03  0.88418076771E+03  0.25500000000E-02 0. -1.
<mgrwt>
<rscale>  0 0.60346898E+02</rscale>
<asrwt>0</asrwt>
<pdfrwt beam="1">  1        1 0.24122530E+00 0.60346898E+02</pdfrwt>
<pdfrwt beam="2">  1       -1 0.89330617E-04 0.60346898E+02</pdfrwt>
<totfact> 0.31060807E+05</totfact>
</mgrwt>
</event>
<event>
 4    1  0.3883670E-002  0.7105646E+02  0.7818608E-02  0.1356537E+00
          1   -1    0    0    0  501  0.00000000000E+00  0.00000000000E+00  0.43950414419E+02  0.43950414708E+02  0.50400000000E-02 0.  1.
         -1   -1    0    0  501    0 -0.00000000000E+00 -0.00000000000E+00 -0.28719985655E+02  0.28719986098E+02  0.50400000000E-02 0.  1.
          2    1    1    2    0  502  0.35027814823E+02 -0.41306305438E+01  0.32467347278E+01  0.35419644448E+02  0.25500000000E-02 0.  1.
         -2    1    1    2  502    0 -0.35027814823E+02  0.41306305438E+01  0.11983694036E+02  0.37250756357E+02  0.25500000000E-02 0.  1.
<mgrwt>
<rscale>  0 0.71056465E+02</rscale>
<asrwt>0</asrwt>
<pdfrwt beam="1">  1        1 0.67616022E-02 0.71056465E+02</pdfrwt>
<pdfrwt beam="2">  1       -1 0.44184594E-02 0.71056465E+02</pdfrwt>
<totfact> 0.18274290E+05</totfact>
</mgrwt>
</event>
<event>
 4    1  0.3883670E-002  0.7254487E+02  0.7818608E-02  0.1351647E+00
         -1   -1    0    0  501    0 -0.00000000000E+00  0.00000000000E+00  0.87494768167E+00  0.87496219762E+00  0.50400000000E-02 0. -1.
          1   -1    0    0    0  501  0.00000000000E+00 -0.00000000000E+00 -0.15037227360E+04  0.15037227360E+04  0.50400000000E-02 0. -1.
          2    1    1    2    0  502 -0.33778664522E+02  0.10318383833E+02 -0.58011605807E+03  0.58119025117E+03  0.25500000000E-02 0.  1.
         -2    1    1    2  502    0  0.33778664522E+02 -0.10318383833E+02 -0.92273173024E+03  0.92340744702E+03  0.25500000000E-02 0.  1.
<mgrwt>
<rscale>  0 0.72544873E+02</rscale>
<asrwt>0</asrwt>
<pdfrwt beam="2">  1        1 0.23133989E+00 0.72544873E+02</pdfrwt>
<pdfrwt beam="1">  1       -1 0.13460966E-03 0.72544873E+02</pdfrwt>
<totfact> 0.20070472E+05</totfact>
</mgrwt>
</event>
<event>
 4    1  0.3883670E-002  0.4606333E+02  0.7818608E-02  0.1467811E+00
         -1   -1    0    0  501    0 -0.00000000000E+00  0.00000000000E+00  0.97933663895E+03  0.97933663896E+03  0.50400000000E-02 0.  1.
          1   -1    0    0    0  501  0.00000000000E+00 -0.00000000000E+00 -0.54163824092E+00  0.54166168927E+00  0.50400000000E-02 0.  1.
          2    1    1    2    0  502 -0.22259864706E+02 -0.32891679584E+01  0.59390863459E+03  0.59433474276E+03  0.25500000000E-02 0.  1.
         -2    1    1    2  502    0  0.22259864706E+02  0.32891679584E+01  0.38488636612E+03  0.38554355789E+03  0.25500000000E-02 0.  1.
<mgrwt>
<rscale>  0 0.46063333E+02</rscale>
<asrwt>0</asrwt>
<pdfrwt beam="2">  1        1 0.83330624E-04 0.46063333E+02</pdfrwt>
<pdfrwt beam="1">  1       -1 0.15066743E+00 0.46063333E+02</pdfrwt>
<totfact> 0.14956293E+05</totfact>
</mgrwt>
</event>
<event>
 4    1  0.3883670E-002  0.4760972E+02  0.7818608E-02  0.1458678E+00
          1   -1    0    0    0  501  0.00000000000E+00  0.00000000000E+00  0.88312607200E+03  0.88312607201E+03  0.50400000000E-02 0. -1.
         -1   -1    0    0  501    0 -0.00000000000E+00 -0.00000000000E+00 -0.64165550071E+00  0.64167529420E+00  0.50400000000E-02 0. -1.
          2    1    1    2    0  502 -0.95231622753E+01  0.20018629335E+02  0.60225238845E+03  0.60266024885E+03  0.25500000000E-02 0. -1.
         -2    1    1    2  502    0  0.95231622753E+01 -0.20018629335E+02  0.28023202805E+03  0.28110749846E+03  0.25500000000E-02 0. -1.
<mgrwt>
<rscale>  0 0.47609724E+02</rscale>
<asrwt>0</asrwt>
<pdfrwt beam="1">  1        1 0.13586588E+00 0.47609724E+02</pdfrwt>
<pdfrwt beam="2">  1       -1 0.98717518E-04 0.47609724E+02</pdfrwt>
<totfact> 0.73516072E+05</totfact>
</mgrwt>
</event>
<event>
 4    1  0.3883670E-002  0.5882512E+02  0.7818608E-02  0.1402829E+00
         -1   -1    0    0  501    0 -0.00000000000E+00  0.00000000000E+00  0.40865050415E+02  0.40865050725E+02  0.50400000000E-02 0.  1.
          1   -1    0    0    0  501  0.00000000000E+00 -0.00000000000E+00 -0.21169645812E+02  0.21169646412E+02  0.50400000000E-02 0.  1.
          2    1    1    2    0  502 -0.16333460976E+02 -0.23537138925E+02  0.16868246656E+02  0.33246302170E+02  0.25500000000E-02 0.  1.
         -2    1    1    2  502    0  0.16333460976E+02  0.23537138925E+02  0.28271579466E+01  0.28788394967E+02  0.25500000000E-02 0.  1.
<mgrwt>
<rscale>  0 0.58825120E+02</rscale>
<asrwt>0</asrwt>
<pdfrwt beam="2">  1        1 0.32568687E-02 0.58825120E+02</pdfrwt>
<pdfrwt beam="1">  1       -1 0.62869309E-02 0.58825120E+02</pdfrwt>
<totfact> 0.27979737E+05</totfact>
</mgrwt>
</event>
<event>
 4    1  0.3883670E-002  0.6909843E+02  0.7818608E-02  0.1363186E+00
         -1   -1    0    0  501    0 -0.00000000000E+00  0.00000000000E+00  0.27881753014E+02  0.27881753470E+02  0.50400000000E-02 0.  1.
          1   -1    0    0    0  501  0.00000000000E+00 -0.00000000000E+00 -0.42811087743E+02  0.42811088040E+02  0.50400000000E-02 0.  1.
          2    1    1    2    0  502  0.32635396603E+01  0.21480636842E+02  0.20017402271E+02  0.29542593834E+02  0.25500000000E-02 0.  1.
         -2    1    1    2  502    0 -0.32635396603E+01 -0.21480636842E+02 -0.34946737000E+02  0.41150247675E+02  0.25500000000E-02 0.  1.
<mgrwt>
<rscale>  0 0.69098428E+02</rscale>
<asrwt>0</asrwt>
<pdfrwt beam="2">  1        1 0.65863213E-02 0.69098428E+02</pdfrwt>
<pdfrwt beam="1">  1       -1 0.42895005E-02 0.69098428E+02</pdfrwt>
<totfact> 0.19641080E+05</totfact>
</mgrwt>
</event>
<event>
 4    1  0.3883670E-002  0.5663862E+02  0.7818608E-02  0.1412505E+00
          1   -1    0    0    0  501  0.00000000000E+00  0.00000000000E+00  0.30419660400E+02  0.30419660817E+02  0.50400000000E-02 0.  1.
         -1   -1    0    0  501    0 -0.00000000000E+00 -0.00000000000E+00 -0.26363976413E+02  0.26363976895E+02  0.50400000000E-02 0.  1.
          2    1    1    2    0  502 -0.13303712186E+02 -0.16132436143E+02 -0.17119198556E+02  0.27024270934E+02  0.25500000000E-02 0. -1.
         -2    1    1    2  502    0  0.13303712186E+02  0.16132436143E+02  0.21174882542E+02  0.29759366778E+02  0.25500000000E-02 0. -1.
<mgrwt>
<rscale>  0 0.56638617E+02</rscale>
<asrwt>0</asrwt>
<pdfrwt beam="1">  1        1 0.46799478E-02 0.56638617E+02</pdfrwt>
<pdfrwt beam="2">  1       -1 0.40559964E-02 0.56638617E+02</pdfrwt>
<totfact> 0.32140570E+05</totfact>
</mgrwt>
</event>
<event>
 4    1  0.3883670E-002  0.5521175E+02  0.7818608E-02  0.1419100E+00
          1   -1    0    0    0  501  0.00000000000E+00  0.00000000000E+00  0.41118306789E+01  0.41118337677E+01  0.50400000000E-02 0. -1.
         -1   -1    0    0  501    0 -0.00000000000E+00 -0.00000000000E+00 -0.18533936074E+03  0.18533936081E+03  0.50400000000E-02 0. -1.
          2    1    1    2    0  502 -0.22180395406E+02 -0.13197600200E+02 -0.57004374530E+02  0.62575117367E+02  0.25500000000E-02 0.  1.
         -2    1    1    2  502    0  0.22180395406E+02  0.13197600200E+02 -0.12422315553E+03  0.12687607721E+03  0.25500000000E-02 0.  1.
<mgrwt>
<rscale>  0 0.55211751E+02</rscale>
<asrwt>0</asrwt>
<pdfrwt beam="1">  1        1 0.63258972E-03 0.55211751E+02</pdfrwt>
<pdfrwt beam="2">  1       -1 0.28513742E-01 0.55211751E+02</pdfrwt>
<totfact> 0.25561035E+05</totfact>
</mgrwt>
</event>
<event>
 4    1  0.3883670E-002  0.4253453E+02  0.7818608E-02  0.1490347E+00
         -1   -1    0    0  501    0 -0.00000000000E+00  0.00000000000E+00  0.42357557170E+00  0.42360555537E+00  0.50400000000E-02 0. -1.
          1   -1    0    0    0  501  0.00000000000E+00 -0.00000000000E+00 -0.10677684202E+04  0.10677684202E+04  0.50400000000E-02 0. -1.
          2    1    1    2    0  502 -0.20083678098E+02 -0.36908735190E+01 -0.38442124845E+03  0.38496320985E+03  0.25500000000E-02 0.  1.
         -2    1    1    2  502    0  0.20083678098E+02  0.36908735190E+01 -0.68292359622E+03  0.68322881596E+03  0.25500000000E-02 0.  1.
<mgrwt>
<rscale>  0 0.42534534E+02</rscale>
<asrwt>0</asrwt>
<pdfrwt beam="2">  1        1 0.16426991E+00 0.42534534E+02</pdfrwt>
<pdfrwt beam="1">  1       -1 0.65168635E-04 0.42534534E+02</pdfrwt>
<totfact> 0.92672171E+05</totfact>
</mgrwt>
</event>
<event>
 4    1  0.3883670E-002  0.9919414E+02  0.7818608E-02  0.1282000E+00
          1   -1    0    0    0  501  0.00000000000E+00  0.00000000000E+00  0.49552633314E+03  0.49552633316E+03  0.50400000000E-02 0. -1.
         -1   -1    0    0  501    0 -0.00000000000E+00 -0.00000000000E+00 -0.49641528675E+01  0.49641554260E+01  0.50400000000E-02 0. -1.
          2    1    1    2    0  502  0.39552081629E+02  0.20644597795E+02  0.35458514669E+03  0.35738101914E+03  0.25500000000E-02 0. -1.
         -2    1    1    2  502    0 -0.39552081629E+02 -0.20644597795E+02  0.13597703358E+03  0.14310946945E+03  0.25500000000E-02 0. -1.
<mgrwt>
<rscale>  0 0.99194135E+02</rscale>
<asrwt>0</asrwt>
<pdfrwt beam="1">  1        1 0.76234823E-01 0.99194135E+02</pdfrwt>
<pdfrwt beam="2">  1       -1 0.76371600E-03 0.99194135E+02</pdfrwt>
<totfact> 0.11115968E+05</totfact>
</mgrwt>
</event>
<event>
 4    1  0.3883670E-002  0.4087682E+02  0.7818608E-02  0.1501856E+00
         -1   -1    0    0  501    0 -0.00000000000E+00  0.00000000000E+00  0.83547808042E+01  0.83547823244E+01  0.50400000000E-02 0. -1.
          1   -1    0    0    0  501  0.00000000000E+00 -0.00000000000E+00 -0.49998745992E+02  0.49998746246E+02  0.50400000000E-02 0. -1.
          2    1    1    2    0  502  0.12125314221E+02  0.16254464098E+02 -0.24460897183E+02  0.31773673781E+02  0.25500000000E-02 0.  1.
         -2    1    1    2  502    0 -0.12125314221E+02 -0.16254464098E+02 -0.17183068004E+02  0.26579854789E+02  0.25500000000E-02 0.  1.
<mgrwt>
<rscale>  0 0.40876821E+02</rscale>
<asrwt>0</asrwt>
<pdfrwt beam="2">  1        1 0.76921148E-02 0.40876821E+02</pdfrwt>
<pdfrwt beam="1">  1       -1 0.12853511E-02 0.40876821E+02</pdfrwt>
<totfact> 0.77435272E+05</totfact>
</mgrwt>
</event>
<event>
 4    1  0.3883670E-002  0.6131324E+02  0.7818608E-02  0.1392402E+00
         -1   -1    0    0  501    0 -0.00000000000E+00  0.00000000000E+00  0.10345560404E+04  0.10345560404E+04  0.50400000000E-02 0.  1.
          1   -1    0    0    0  501  0.00000000000E+00 -0.00000000000E+00 -0.90842945313E+00  0.90844343408E+00  0.50400000000E-02 0.  1.
          2    1    1    2    0  502 -0.16456726285E+02 -0.25857071519E+02  0.50592569474E+03  0.50685325351E+03  0.25500000000E-02 0.  1.
         -2    1    1    2  502    0  0.16456726285E+02  0.25857071519E+02  0.52772191616E+03  0.52861123029E+03  0.25500000000E-02 0.  1.
<mgrwt>
<rscale>  0 0.61313242E+02</rscale>
<asrwt>0</asrwt>
<pdfrwt beam="2">  1        1 0.13975855E-03 0.61313242E+02</pdfrwt>
<pdfrwt beam="1">  1       -1 0.15916349E+00 0.61313242E+02</pdfrwt>
<totfact> 0.68559901E+04</totfact>
</mgrwt>
</event>
<event>
 4    1  0.3883670E-002  0.4883511E+02  0.7818608E-02  0.1451728E+00
          1   -1    0    0    0  501  0.00000000000E+00  0.00000000000E+00  0.31603900125E+02  0.31603900527E+02  0.50400000000E-02 0.  1.
         -1   -1    0    0  501    0 -0.00000000000E+00 -0.00000000000E+00 -0.18865300743E+02  0.18865301416E+02  0.50400000000E-02 0.  1.
          2    1    1    2    0  502 -0.22752068799E+01 -0.23946845804E+02  0.20350276354E+01  0.24140615864E+02  0.25500000000E-02 0.  1.
         -2    1    1    2  502    0  0.22752068799E+01  0.23946845804E+02  0.10703571746E+02  0.26328586079E+02  0.25500000000E-02 0.  1.
<mgrwt>
<rscale>  0 0.48835115E+02</rscale>
<asrwt>0</asrwt>
<pdfrwt beam="1">  1        1 0.48621385E-02 0.48835115E+02</pdfrwt>
<pdfrwt beam="2">  1       -1 0.29023541E-02 0.48835115E+02</pdfrwt>
<totfact> 0.47464640E+05</totfact>
</mgrwt>
</event>
<event>
 4    1  0.3883670E-002  0.6043009E+02  0.7818608E-02  0.1396036E+00
          1   -1    0    0    0  501  0.00000000000E+00  0.00000000000E+00  0.53197912779E+02  0.53197913018E+02  0.50400000000E-02 0.  1.
         -1   -1    0    0  501    0 -0.00000000000E+00 -0.00000000000E+00 -0.17161366241E+02  0.17161366981E+02  0.50400000000E-02 0.  1.
          2    1    1    2    0  502 -0.22580615612E+02 -0.12903476085E+02  0.35926121206E+02  0.44351663869E+02  0.25500000000E-02 0. -1.
         -2    1    1    2  502    0  0.22580615612E+02  0.12903476085E+02  0.11042533204E+00  0.26007616130E+02  0.25500000000E-02 0. -1.
<mgrwt>
<rscale>  0 0.60430088E+02</rscale>
<asrwt>0</asrwt>
<pdfrwt beam="1">  1        1 0.81842943E-02 0.60430088E+02</pdfrwt>
<pdfrwt beam="2">  1       -1 0.26402103E-02 0.60430088E+02</pdfrwt>
<totfact> 0.28747238E+05</totfact>
</mgrwt>
</event>
<event>
 4    1  0.3883670E-002  0.8805138E+02  0.7818608E-02  0.1307640E+00
         -1   -1    0    0  501    0 -0.00000000000E+00  0.00000000000E+00  0.11294988135E+01  0.11295100581E+01  0.50400000000E-02 0. -1.
          1   -1    0    0    0  501  0.00000000000E+00 -0.00000000000E+00 -0.17160281171E+04  0.17160281171E+04  0.50400000000E-02 0. -1.
          2    1    1    2    0  502 -0.13624166329E-01 -0.38543093678E+02 -0.12723794504E+04  0.12729630930E+04  0.25500000000E-02 0.  1.
         -2    1    1    2  502    0  0.13624166329E-01  0.38543093678E+02 -0.44251916781E+03  0.44419453412E+03  0.25500000000E-02 0.  1.
<mgrwt>
<rscale>  0 0.88051380E+02</rscale>
<asrwt>0</asrwt>
<pdfrwt beam="2">  1        1 0.26400224E+00 0.88051380E+02</pdfrwt>
<pdfrwt beam="1">  1       -1 0.17377129E-03 0.88051380E+02</pdfrwt>
<totfact> 0.10661006E+05</totfact>
</mgrwt>
</event>
<event>
 4    1  0.3883670E-002  0.8833696E+02  0.7818608E-02  0.1306930E+00
          1   -1    0    0    0  501  0.00000000000E+00  0.00000000000E+00  0.73012504939E+02  0.73012505113E+02  0.50400000000E-02 0.  1.
         -1   -1    0    0  501    0 -0.00000000000E+00 -0.00000000000E+00 -0.26719456572E+02  0.26719457047E+02  0.50400000000E-02 0.  1.
          2    1    1    2    0  502 -0.13548189030E+02 -0.34221698920E+02  0.50712877076E+02  0.62661583213E+02  0.25500000000E-02 0.  1.
         -2    1    1    2  502    0  0.13548189030E+02  0.34221698920E+02 -0.44198287092E+01  0.37070378947E+02  0.25500000000E-02 0.  1.
<mgrwt>
<rscale>  0 0.88336957E+02</rscale>
<asrwt>0</asrwt>
<pdfrwt beam="1">  1        1 0.11232693E-01 0.88336957E+02</pdfrwt>
<pdfrwt beam="2">  1       -1 0.41106857E-02 0.88336957E+02</pdfrwt>
<totfact> 0.10832516E+05</totfact>
</mgrwt>
</event>
<event>
 4    1  0.3883670E-002  0.5064667E+02  0.7818608E-02  0.1441884E+00
          1   -1    0    0    0  501  0.00000000000E+00  0.00000000000E+00  0.50198759840E+02  0.50198760093E+02  0.50400000000E-02 0. -1.
         -1   -1    0    0  501    0 -0.00000000000E+00 -0.00000000000E+00 -0.12774641953E+02  0.12774642947E+02  0.50400000000E-02 0. -1.
          2    1    1    2    0  502 -0.83676920200E+01  0.20975278602E+02  0.44650674692E+01  0.23019935191E+02  0.25500000000E-02 0. -1.
         -2    1    1    2  502    0  0.83676920200E+01 -0.20975278602E+02  0.32959050418E+02  0.39953467849E+02  0.25500000000E-02 0. -1.
<mgrwt>
<rscale>  0 0.50646667E+02</rscale>
<asrwt>0</asrwt>
<pdfrwt beam="1">  1        1 0.77228861E-02 0.50646667E+02</pdfrwt>
<pdfrwt beam="2">  1       -1 0.19653297E-02 0.50646667E+02</pdfrwt>
<totfact> 0.45137639E+05</totfact>
</mgrwt>
</event>
<event>
 4    1  0.3883670E-002  0.1060742E+03  0.7818608E-02  0.1268017E+00
          1   -1    0    0    0  501  0.00000000000E+00  0.00000000000E+00  0.70496478578E+02  0.70496478758E+02  0.50400000000E-02 0. -1.
         -1   -1    0    0  501    0 -0.00000000000E+00 -0.00000000000E+00 -0.39901784258E+02  0.39901784576E+02  0.50400000000E-02 0. -1.
          2    1    1    2    0  502 -0.14902671861E+02  0.41896426817E+02  0.45381287663E+02  0.63536300530E+02  0.25500000000E-02 0. -1.
         -2    1    1    2  502    0  0.14902671861E+02 -0.41896426817E+02 -0.14786593343E+02  0.46861962804E+02  0.25500000000E-02 0. -1.
<mgrwt>
<rscale>  0 0.10607423E+03</rscale>
<asrwt>0</asrwt>
<pdfrwt beam="1">  1        1 0.10845612E-01 0.10607423E+03</pdfrwt>
<pdfrwt beam="2">  1       -1 0.61387362E-02 0.10607423E+03</pdfrwt>
<totfact> 0.64763140E+04</totfact>
</mgrwt>
</event>
<event>
 4    1  0.3883670E-002  0.1132896E+03  0.7818608E-02  0.1254597E+00
         -1   -1    0    0  501    0 -0.00000000000E+00  0.00000000000E+00  0.37763638738E+01  0.37763672370E+01  0.50400000000E-02 0. -1.
          1   -1    0    0    0  501  0.00000000000E+00 -0.00000000000E+00 -0.84966158640E+03  0.84966158642E+03  0.50400000000E-02 0. -1.
          2    1    1    2    0  502  0.19222888191E+02  0.15161919620E+02 -0.80774529454E+03  0.80811624417E+03  0.25500000000E-02 0.  1.
         -2    1    1    2  502    0 -0.19222888191E+02 -0.15161919620E+02 -0.38139927991E+02  0.45321709485E+02  0.25500000000E-02 0.  1.
<mgrwt>
<rscale>  0 0.11328959E+03</rscale>
<asrwt>0</asrwt>
<pdfrwt beam="2">  1        1 0.13071701E+00 0.11328959E+03</pdfrwt>
<pdfrwt beam="1">  1       -1 0.58098000E-03 0.11328959E+03</pdfrwt>
<totfact> 0.78603243E+04</totfact>
</mgrwt>
</event>
<event>
 4    1  0.3883670E-002  0.6340075E+02  0.7818608E-02  0.1384090E+00
         -1   -1    0    0  501    0 -0.00000000000E+00  0.00000000000E+00  0.94658122451E+00  0.94659464197E+00  0.50400000000E-02 0.  1.
          1   -1    0    0    0  501  0.00000000000E+00 -0.00000000000E+00 -0.10616168675E+04  0.10616168675E+04  0.50400000000E-02 0.  1.
          2    1    1    2    0  502  0.23410094624E+02 -0.27911115339E+01 -0.17517222588E+03  0.17675160978E+03  0.25500000000E-02 0. -1.
         -2    1    1    2  502    0 -0.23410094624E+02  0.27911115339E+01 -0.88549806043E+03  0.88581185240E+03  0.25500000000E-02 0. -1.
<mgrwt>
<rscale>  0 0.63400749E+02</rscale>
<asrwt>0</asrwt>
<pdfrwt beam="2">  1        1 0.16332472E+00 0.63400749E+02</pdfrwt>
<pdfrwt beam="1">  1       -1 0.14562976E-03 0.63400749E+02</pdfrwt>
<totfact> 0.34323709E+05</totfact>
</mgrwt>
</event>
<event>
 4    1  0.3883670E-002  0.6952247E+02  0.7818608E-02  0.1361724E+00
         -1   -1    0    0  501    0 -0.00000000000E+00  0.00000000000E+00  0.11790577726E+03  0.11790577737E+03  0.50400000000E-02 0.  1.
          1   -1    0    0    0  501  0.00000000000E+00 -0.00000000000E+00 -0.10248381178E+02  0.10248382418E+02  0.50400000000E-02 0.  1.
          2    1    1    2    0  502 -0.22771161508E+02  0.49710197569E+01  0.62893583200E+01  0.24141103297E+02  0.25500000000E-02 0. -1.
         -2    1    1    2  502    0  0.22771161508E+02 -0.49710197569E+01  0.10136803776E+03  0.10401305649E+03  0.25500000000E-02 0. -1.
<mgrwt>
<rscale>  0 0.69522469E+02</rscale>
<asrwt>0</asrwt>
<pdfrwt beam="2">  1        1 0.15766741E-02 0.69522469E+02</pdfrwt>
<pdfrwt beam="1">  1       -1 0.18139351E-01 0.69522469E+02</pdfrwt>
<totfact> 0.15801279E+05</totfact>
</mgrwt>
</event>
<event>
 4    1  0.3883670E-002  0.4755655E+02  0.7818608E-02  0.1458985E+00
          1   -1    0    0    0  501  0.00000000000E+00  0.00000000000E+00  0.17899582584E+01  0.17899653540E+01  0.50400000000E-02 0. -1.
         -1   -1    0    0  501    0 -0.00000000000E+00 -0.00000000000E+00 -0.31587619153E+03  0.31587619157E+03  0.50400000000E-02 0. -1.
          2    1    1    2    0  502  0.17989050894E+02 -0.11321489858E+02 -0.85840473541E+02  0.88432850168E+02  0.25500000000E-02 0.  1.
         -2    1    1    2  502    0 -0.17989050894E+02  0.11321489858E+02 -0.22824575973E+03  0.22923330676E+03  0.25500000000E-02 0.  1.
<mgrwt>
<rscale>  0 0.47556549E+02</rscale>
<asrwt>0</asrwt>
<pdfrwt beam="1">  1        1 0.27537899E-03 0.47556549E+02</pdfrwt>
<pdfrwt beam="2">  1       -1 0.48596293E-01 0.47556549E+02</pdfrwt>
<totfact> 0.31102061E+05</totfact>
</mgrwt>
</event>
<event>
 4    1  0.3883670E-002  0.4617124E+02  0.7818608E-02  0.1467160E+00
         -1   -1    0    0  501    0 -0.00000000000E+00  0.00000000000E+00  0.40184077605E+00  0.40187238136E+00  0.50400000000E-02 0.  1.
          1   -1    0    0    0  501  0.00000000000E+00 -0.00000000000E+00 -0.13262091403E+04  0.13262091403E+04  0.50400000000E-02 0.  1.
          2    1    1    2    0  502  0.48169962650E+01  0.21701601065E+02 -0.84183744280E+03  0.84213089425E+03  0.25500000000E-02 0.  1.
         -2    1    1    2  502    0 -0.48169962650E+01 -0.21701601065E+02 -0.48396985672E+03  0.48448011844E+03  0.25500000000E-02 0.  1.
<mgrwt>
<rscale>  0 0.46171241E+02</rscale>
<asrwt>0</asrwt>
<pdfrwt beam="2">  1        1 0.20402867E+00 0.46171241E+02</pdfrwt>
<pdfrwt beam="1">  1       -1 0.61825152E-04 0.46171241E+02</pdfrwt>
<totfact> 0.68734663E+05</totfact>
</mgrwt>
</event>
<event>
 4    1  0.3883670E-002  0.1144548E+03  0.7818608E-02  0.1252536E+00
          1   -1    0    0    0  501  0.00000000000E+00  0.00000000000E+00  0.42143992890E+01  0.42144023027E+01  0.50400000000E-02 0.  1.
         -1   -1    0    0  501    0 -0.00000000000E+00 -0.00000000000E+00 -0.77709163098E+03  0.77709163099E+03  0.50400000000E-02 0.  1.
          2    1    1    2    0  502 -0.23633995258E+02  0.12374402910E+02 -0.73204798917E+03  0.73253392416E+03  0.25500000000E-02 0.  1.
         -2    1    1    2  502    0  0.23633995258E+02 -0.12374402910E+02 -0.40829242516E+02  0.48772109142E+02  0.25500000000E-02 0.  1.
<mgrwt>
<rscale>  0 0.11445481E+03</rscale>
<asrwt>0</asrwt>
<pdfrwt beam="1">  1        1 0.64836997E-03 0.11445481E+03</pdfrwt>
<pdfrwt beam="2">  1       -1 0.11955245E+00 0.11445481E+03</pdfrwt>
<totfact> 0.18369689E+04</totfact>
</mgrwt>
</event>
<event>
 4    1  0.3883670E-002  0.4789252E+02  0.7818608E-02  0.1457052E+00
         -1   -1    0    0  501    0 -0.00000000000E+00  0.00000000000E+00  0.17670379141E+01  0.17670451017E+01  0.50400000000E-02 0. -1.
          1   -1    0    0    0  501  0.00000000000E+00 -0.00000000000E+00 -0.32451037621E+03  0.32451037625E+03  0.50400000000E-02 0. -1.
          2    1    1    2    0  502 -0.17641888719E+02 -0.10146218470E+02 -0.24734173137E+03  0.24817758575E+03  0.25500000000E-02 0. -1.
         -2    1    1    2  502    0  0.17641888719E+02  0.10146218470E+02 -0.75401606927E+02  0.78099835599E+02  0.25500000000E-02 0. -1.
<mgrwt>
<rscale>  0 0.47892518E+02</rscale>
<asrwt>0</asrwt>
<pdfrwt beam="2">  1        1 0.49924626E-01 0.47892518E+02</pdfrwt>
<pdfrwt beam="1">  1       -1 0.27185280E-03 0.47892518E+02</pdfrwt>
<totfact> 0.68091989E+05</totfact>
</mgrwt>
</event>
<event>
 4    1  0.3883670E-002  0.4254480E+02  0.7818608E-02  0.1490278E+00
         -1   -1    0    0  501    0 -0.00000000000E+00  0.00000000000E+00  0.38893244212E+00  0.38896509629E+00  0.50400000000E-02 0.  1.
          1   -1    0    0    0  501  0.00000000000E+00 -0.00000000000E+00 -0.11634306252E+04  0.11634306252E+04  0.50400000000E-02 0.  1.
          2    1    1    2    0  502 -0.16553737763E+02  0.12365552169E+02 -0.44316268637E+03  0.44364411380E+03  0.25500000000E-02 0. -1.
         -2    1    1    2  502    0  0.16553737763E+02 -0.12365552169E+02 -0.71987900640E+03  0.72017547652E+03  0.25500000000E-02 0. -1.
<mgrwt>
<rscale>  0 0.42544796E+02</rscale>
<asrwt>0</asrwt>
<pdfrwt beam="2">  1        1 0.17898654E+00 0.42544796E+02</pdfrwt>
<pdfrwt beam="1">  1       -1 0.59839205E-04 0.42544796E+02</pdfrwt>
<totfact> 0.89728779E+05</totfact>
</mgrwt>
</event>
<event>
 4    1  0.3883670E-002  0.6134846E+02  0.7818608E-02  0.1392258E+00
         -1   -1    0    0  501    0 -0.00000000000E+00  0.00000000000E+00  0.46723169830E+03  0.46723169833E+03  0.50400000000E-02 0.  1.
          1   -1    0    0    0  501  0.00000000000E+00 -0.00000000000E+00 -0.20137908291E+01  0.20137971360E+01  0.50400000000E-02 0.  1.
          2    1    1    2    0  502  0.99513768621E+01  0.28997645159E+02  0.24031519932E+03  0.24226284973E+03  0.25500000000E-02 0. -1.
         -2    1    1    2  502    0 -0.99513768621E+01 -0.28997645159E+02  0.22490270815E+03  0.22698264574E+03  0.25500000000E-02 0. -1.
<mgrwt>
<rscale>  0 0.61348460E+02</rscale>
<asrwt>0</asrwt>
<pdfrwt beam="2">  1        1 0.30981457E-03 0.61348460E+02</pdfrwt>
<pdfrwt beam="1">  1       -1 0.71881776E-01 0.61348460E+02</pdfrwt>
<totfact> 0.13608652E+05</totfact>
</mgrwt>
</event>
<event>
 4    1  0.3883670E-002  0.4743558E+02  0.7818608E-02  0.1459685E+00
         -1   -1    0    0  501    0 -0.00000000000E+00  0.00000000000E+00  0.83188346253E+00  0.83189872991E+00  0.50400000000E-02 0.  1.
          1   -1    0    0    0  501  0.00000000000E+00 -0.00000000000E+00 -0.67621060658E+03  0.67621060660E+03  0.50400000000E-02 0.  1.
          2    1    1    2    0  502 -0.21582585747E+02 -0.68478776910E+01 -0.23693437929E+03  0.23801386836E+03  0.25500000000E-02 0. -1.
         -2    1    1    2  502    0  0.21582585747E+02  0.68478776910E+01 -0.43844434383E+03  0.43902863697E+03  0.25500000000E-02 0. -1.
<mgrwt>
<rscale>  0 0.47435581E+02</rscale>
<asrwt>0</asrwt>
<pdfrwt beam="2">  1        1 0.10403196E+00 0.47435581E+02</pdfrwt>
<pdfrwt beam="1">  1       -1 0.12798379E-03 0.47435581E+02</pdfrwt>
<totfact> 0.75594044E+05</totfact>
</mgrwt>
</event>
<event>
 4    1  0.3883670E-002  0.7851646E+02  0.7818608E-02  0.1333315E+00
         -1   -1    0    0  501    0 -0.00000000000E+00  0.00000000000E+00  0.55218609701E+03  0.55218609703E+03  0.50400000000E-02 0. -1.
          1   -1    0    0    0  501  0.00000000000E+00 -0.00000000000E+00 -0.27911014445E+01  0.27911059949E+01  0.50400000000E-02 0. -1.
          2    1    1    2    0  502  0.30746941655E+02  0.23208812470E+02  0.22124641054E+03  0.22457514907E+03  0.25500000000E-02 0. -1.
         -2    1    1    2  502    0 -0.30746941655E+02 -0.23208812470E+02  0.32814858503E+03  0.33040205396E+03  0.25500000000E-02 0. -1.
<mgrwt>
<rscale>  0 0.78516462E+02</rscale>
<asrwt>0</asrwt>
<pdfrwt beam="2">  1        1 0.42940055E-03 0.78516462E+02</pdfrwt>
<pdfrwt beam="1">  1       -1 0.84951713E-01 0.78516462E+02</pdfrwt>
<totfact> 0.65155631E+04</totfact>
</mgrwt>
</event>
<event>
 4    1  0.3883670E-002  0.7158284E+02  0.7818608E-02  0.1354792E+00
         -1   -1    0    0  501    0 -0.00000000000E+00  0.00000000000E+00  0.11880183115E+03  0.11880183126E+03  0.50400000000E-02 0. -1.
          1   -1    0    0    0  501  0.00000000000E+00 -0.00000000000E+00 -0.10782877297E+02  0.10782878475E+02  0.50400000000E-02 0. -1.
          2    1    1    2    0  502 -0.87823914843E+01 -0.28349619173E+02  0.90223795780E+02  0.94979811744E+02  0.25500000000E-02 0. -1.
         -2    1    1    2  502    0  0.87823914843E+01  0.28349619173E+02  0.17795158072E+02  0.34604897988E+02  0.25500000000E-02 0. -1.
<mgrwt>
<rscale>  0 0.71582837E+02</rscale>
<asrwt>0</asrwt>
<pdfrwt beam="2">  1        1 0.16589044E-02 0.71582837E+02</pdfrwt>
<pdfrwt beam="1">  1       -1 0.18277204E-01 0.71582837E+02</pdfrwt>
<totfact> 0.14647467E+05</totfact>
</mgrwt>
</event>
<event>
 4    1  0.3883670E-002  0.4516410E+02  0.7818608E-02  0.1473320E+00
         -1   -1    0    0  501    0 -0.00000000000E+00  0.00000000000E+00  0.10326102834E+01  0.10326225831E+01  0.50400000000E-02 0. -1.
          1   -1    0    0    0  501  0.00000000000E+00 -0.00000000000E+00 -0.49384172129E+03  0.49384172132E+03  0.50400000000E-02 0. -1.
          2    1    1    2    0  502  0.22110289113E+02  0.40541649067E+01 -0.27002739162E+03  0.27096142414E+03  0.25500000000E-02 0. -1.
         -2    1    1    2  502    0 -0.22110289113E+02 -0.40541649067E+01 -0.22278171939E+03  0.22391291976E+03  0.25500000000E-02 0. -1.
<mgrwt>
<rscale>  0 0.45164105E+02</rscale>
<asrwt>0</asrwt>
<pdfrwt beam="2">  1        1 0.75975461E-01 0.45164105E+02</pdfrwt>
<pdfrwt beam="1">  1       -1 0.15886446E-03 0.45164105E+02</pdfrwt>
<totfact> 0.83644360E+05</totfact>
</mgrwt>
</event>
<event>
 4    1  0.3883670E-002  0.4421528E+02  0.7818608E-02  0.1479301E+00
         -1   -1    0    0  501    0 -0.00000000000E+00  0.00000000000E+00  0.28995534818E+02  0.28995535256E+02  0.50400000000E-02 0.  1.
          1   -1    0    0    0  501  0.00000000000E+00 -0.00000000000E+00 -0.16855966438E+02  0.16855967192E+02  0.50400000000E-02 0.  1.
          2    1    1    2    0  502  0.18772412974E+02  0.10587238041E+02  0.96262980621E+00  0.21573589429E+02  0.25500000000E-02 0.  1.
         -2    1    1    2  502    0 -0.18772412974E+02 -0.10587238041E+02  0.11176938573E+02  0.24277913019E+02  0.25500000000E-02 0.  1.
<mgrwt>
<rscale>  0 0.44215282E+02</rscale>
<asrwt>0</asrwt>
<pdfrwt beam="2">  1        1 0.25932257E-02 0.44215282E+02</pdfrwt>
<pdfrwt beam="1">  1       -1 0.44608516E-02 0.44215282E+02</pdfrwt>
<totfact> 0.58125979E+05</totfact>
</mgrwt>
</event>
<event>
 4    1  0.3883670E-002  0.6343207E+02  0.7818608E-02  0.1383968E+00
          1   -1    0    0    0  501  0.00000000000E+00  0.00000000000E+00  0.19275492251E+03  0.19275492257E+03  0.50400000000E-02 0.  1.
         -1   -1    0    0  501    0 -0.00000000000E+00 -0.00000000000E+00 -0.52185776106E+01  0.52185800443E+01  0.50400000000E-02 0.  1.
          2    1    1    2    0  502 -0.21135497289E+02  0.54459111932E+01  0.16558850547E+03  0.16702071831E+03  0.25500000000E-02 0. -1.
         -2    1    1    2  502    0  0.21135497289E+02 -0.54459111932E+01  0.21947839424E+02  0.30952784306E+02  0.25500000000E-02 0. -1.
<mgrwt>
<rscale>  0 0.63432067E+02</rscale>
<asrwt>0</asrwt>
<pdfrwt beam="1">  1        1 0.29654606E-01 0.63432067E+02</pdfrwt>
<pdfrwt beam="2">  1       -1 0.80285822E-03 0.63432067E+02</pdfrwt>
<totfact> 0.30516957E+05</totfact>
</mgrwt>
</event>
<event>
 4    1  0.3883670E-002  0.6626622E+02  0.7818608E-02  0.1373271E+00
          1   -1    0    0    0  501  0.00000000000E+00  0.00000000000E+00  0.60197707401E+03  0.60197707404E+03  0.50400000000E-02 0. -1.
         -1   -1    0    0  501    0 -0.00000000000E+00 -0.00000000000E+00 -0.18236587107E+01  0.18236656752E+01  0.50400000000E-02 0. -1.
          2    1    1    2    0  502  0.20000271678E+02 -0.21558959359E+02  0.43916239805E+03  0.44014589793E+03  0.25500000000E-02 0.  1.
         -2    1    1    2  502    0 -0.20000271678E+02  0.21558959359E+02  0.16099101725E+03  0.16365484178E+03  0.25500000000E-02 0.  1.
<mgrwt>
<rscale>  0 0.66266216E+02</rscale>
<asrwt>0</asrwt>
<pdfrwt beam="1">  1        1 0.92611988E-01 0.66266216E+02</pdfrwt>
<pdfrwt beam="2">  1       -1 0.28056302E-03 0.66266216E+02</pdfrwt>
<totfact> 0.32514640E+05</totfact>
</mgrwt>
</event>
<event>
 4    1  0.3883670E-002  0.5651706E+02  0.7818608E-02  0.1413058E+00
          1   -1    0    0    0  501  0.00000000000E+00  0.00000000000E+00  0.79498993579E+02  0.79498993739E+02  0.50400000000E-02 0.  1.
         -1   -1    0    0  501    0 -0.00000000000E+00 -0.00000000000E+00 -0.10044711596E+02  0.10044712860E+02  0.50400000000E-02 0.  1.
          2    1    1    2    0  502  0.25914310571E+02 -0.45972016440E+01  0.18425965830E+02  0.32127900314E+02  0.25500000000E-02 0. -1.
         -2    1    1    2  502    0 -0.25914310571E+02  0.45972016440E+01  0.51028316154E+02  0.57415806285E+02  0.25500000000E-02 0. -1.
<mgrwt>
<rscale>  0 0.56517060E+02</rscale>
<asrwt>0</asrwt>
<pdfrwt beam="1">  1        1 0.12230614E-01 0.56517060E+02</pdfrwt>
<pdfrwt beam="2">  1       -1 0.15453404E-02 0.56517060E+02</pdfrwt>
<totfact> 0.35865686E+05</totfact>
</mgrwt>
</event>
<event>
 4    1  0.3883670E-002  0.4211777E+02  0.7818608E-02  0.1493181E+00
         -1   -1    0    0  501    0 -0.00000000000E+00  0.00000000000E+00  0.17096015375E+00  0.17103442861E+00  0.50400000000E-02 0.  1.
          1   -1    0    0    0  501  0.00000000000E+00 -0.00000000000E+00 -0.25934713190E+04  0.25934713190E+04  0.50400000000E-02 0.  1.
          2    1    1    2    0  502  0.19984567184E+02  0.62501224599E+01 -0.11585442442E+04  0.11587334520E+04  0.25500000000E-02 0. -1.
         -2    1    1    2  502    0 -0.19984567184E+02 -0.62501224599E+01 -0.14347561146E+04  0.14349089015E+04  0.25500000000E-02 0. -1.
<mgrwt>
<rscale>  0 0.42117767E+02</rscale>
<asrwt>0</asrwt>
<pdfrwt beam="2">  1        1 0.39896409E+00 0.42117767E+02</pdfrwt>
<pdfrwt beam="1">  1       -1 0.26309353E-04 0.42117767E+02</pdfrwt>
<totfact> 0.35154947E+05</totfact>
</mgrwt>
</event>
<event>
 4    1  0.3883670E-002  0.5776246E+02  0.7818608E-02  0.1407469E+00
          1   -1    0    0    0  501  0.00000000000E+00  0.00000000000E+00  0.66217133641E+01  0.66217152821E+01  0.50400000000E-02 0. -1.
         -1   -1    0    0  501    0 -0.00000000000E+00 -0.00000000000E+00 -0.12596821474E+03  0.12596821484E+03  0.50400000000E-02 0. -1.
          2    1    1    2    0  502 -0.24158263740E+02 -0.15827212620E+02 -0.59802532115E+02  0.66411333522E+02  0.25500000000E-02 0.  1.
         -2    1    1    2  502    0  0.24158263740E+02  0.15827212620E+02 -0.59543969257E+02  0.66178596598E+02  0.25500000000E-02 0.  1.
<mgrwt>
<rscale>  0 0.57762463E+02</rscale>
<asrwt>0</asrwt>
<pdfrwt beam="1">  1        1 0.10187254E-02 0.57762463E+02</pdfrwt>
<pdfrwt beam="2">  1       -1 0.19379724E-01 0.57762463E+02</pdfrwt>
<totfact> 0.24917427E+05</totfact>
</mgrwt>
</event>
<event>
 4    1  0.3883670E-002  0.4064746E+02  0.7818608E-02  0.1503500E+00
         -1   -1    0    0  501    0 -0.00000000000E+00  0.00000000000E+00  0.69574552063E+00  0.69576377534E+00  0.50400000000E-02 0.  1.
          1   -1    0    0    0  501  0.00000000000E+00 -0.00000000000E+00 -0.59367779534E+03  0.59367779536E+03  0.50400000000E-02 0.  1.
          2    1    1    2    0  502  0.38638166751E+01  0.19785984227E+02 -0.25881154976E+03  0.25959551719E+03  0.25500000000E-02 0.  1.
         -2    1    1    2  502    0 -0.38638166751E+01 -0.19785984227E+02 -0.33417050006E+03  0.33477804194E+03  0.25500000000E-02 0.  1.
<mgrwt>
<rscale>  0 0.40647465E+02</rscale>
<asrwt>0</asrwt>
<pdfrwt beam="2">  1        1 0.91334641E-01 0.40647465E+02</pdfrwt>
<pdfrwt beam="1">  1       -1 0.10703965E-03 0.40647465E+02</pdfrwt>
<totfact> 0.10979427E+06</totfact>
</mgrwt>
</event>
<event>
 4    1  0.3883670E-002  0.5396426E+02  0.7818608E-02  0.1425061E+00
         -1   -1    0    0  501    0 -0.00000000000E+00  0.00000000000E+00  0.48506843928E+02  0.48506844190E+02  0.50400000000E-02 0. -1.
          1   -1    0    0    0  501  0.00000000000E+00 -0.00000000000E+00 -0.15008919773E+02  0.15008920620E+02  0.50400000000E-02 0. -1.
          2    1    1    2    0  502  0.16695637736E+02 -0.15522416654E+02  0.33737949127E+02  0.40717796551E+02  0.25500000000E-02 0.  1.
         -2    1    1    2  502    0 -0.16695637736E+02  0.15522416654E+02 -0.24002497229E+00  0.22797968258E+02  0.25500000000E-02 0.  1.
<mgrwt>
<rscale>  0 0.53964261E+02</rscale>
<asrwt>0</asrwt>
<pdfrwt beam="2">  1        1 0.23090647E-02 0.53964261E+02</pdfrwt>
<pdfrwt beam="1">  1       -1 0.74625914E-02 0.53964261E+02</pdfrwt>
<totfact> 0.33979722E+05</totfact>
</mgrwt>
</event>
<event>
 4    1  0.3883670E-002  0.7633626E+02  0.7818608E-02  0.1339782E+00
         -1   -1    0    0  501    0 -0.00000000000E+00  0.00000000000E+00  0.18727383569E+03  0.18727383576E+03  0.50400000000E-02 0. -1.
          1   -1    0    0    0  501  0.00000000000E+00 -0.00000000000E+00 -0.77790141662E+01  0.77790157989E+01  0.50400000000E-02 0. -1.
          2    1    1    2    0  502 -0.13942352564E+02 -0.28517425085E+02  0.35593678630E+02  0.47692165955E+02  0.25500000000E-02 0.  1.
         -2    1    1    2  502    0  0.13942352564E+02  0.28517425085E+02  0.14390114289E+03  0.14736068560E+03  0.25500000000E-02 0.  1.
<mgrwt>
<rscale>  0 0.76336256E+02</rscale>
<asrwt>0</asrwt>
<pdfrwt beam="2">  1        1 0.11967716E-02 0.76336256E+02</pdfrwt>
<pdfrwt beam="1">  1       -1 0.28811357E-01 0.76336256E+02</pdfrwt>
<totfact> 0.11199382E+05</totfact>
</mgrwt>
</event>
<event>
 4    1  0.3883670E-002  0.5896485E+02  0.7818608E-02  0.1402228E+00
          1   -1    0    0    0  501  0.00000000000E+00  0.00000000000E+00  0.48492297315E+03  0.48492297318E+03  0.50400000000E-02 0. -1.
         -1   -1    0    0  501    0 -0.00000000000E+00 -0.00000000000E+00 -0.17924734342E+01  0.17924805198E+01  0.50400000000E-02 0. -1.
          2    1    1    2    0  502  0.13487200615E+02 -0.21393673373E+02  0.11648570801E+03  0.11919947155E+03  0.25500000000E-02 0. -1.
         -2    1    1    2  502    0 -0.13487200615E+02  0.21393673373E+02  0.36664479171E+03  0.36751598215E+03  0.25500000000E-02 0. -1.
<mgrwt>
<rscale>  0 0.58964846E+02</rscale>
<asrwt>0</asrwt>
<pdfrwt beam="1">  1        1 0.74603548E-01 0.58964846E+02</pdfrwt>
<pdfrwt beam="2">  1       -1 0.27576564E-03 0.58964846E+02</pdfrwt>
<totfact> 0.42939959E+05</totfact>
</mgrwt>
</event>
<event>
 4    1  0.3883670E-002  0.5973337E+02  0.7818608E-02  0.1398954E+00
         -1   -1    0    0  501    0 -0.00000000000E+00  0.00000000000E+00  0.85043529258E+01  0.85043544192E+01  0.50400000000E-02 0. -1.
          1   -1    0    0    0  501  0.00000000000E+00 -0.00000000000E+00 -0.10488966510E+03  0.10488966522E+03  0.50400000000E-02 0. -1.
          2    1    1    2    0  502  0.27437446333E+02  0.15197003961E+01 -0.25981645936E+02  0.37817573727E+02  0.25500000000E-02 0.  1.
         -2    1    1    2  502    0 -0.27437446333E+02 -0.15197003961E+01 -0.70403666241E+02  0.75576445915E+02  0.25500000000E-02 0.  1.
<mgrwt>
<rscale>  0 0.59733368E+02</rscale>
<asrwt>0</asrwt>
<pdfrwt beam="2">  1        1 0.16136871E-01 0.59733368E+02</pdfrwt>
<pdfrwt beam="1">  1       -1 0.13083622E-02 0.59733368E+02</pdfrwt>
<totfact> 0.32281700E+05</totfact>
</mgrwt>
</event>
<event>
 4    1  0.3883670E-002  0.6327774E+02  0.7818608E-02  0.1384570E+00
         -1   -1    0    0  501    0 -0.00000000000E+00  0.00000000000E+00  0.20766454241E+01  0.20766515401E+01  0.50400000000E-02 0.  1.
          1   -1    0    0    0  501  0.00000000000E+00 -0.00000000000E+00 -0.48203533518E+03  0.48203533521E+03  0.50400000000E-02 0.  1.
          2    1    1    2    0  502 -0.20405997358E+02  0.23686987191E+02 -0.27709839643E+03  0.27885659289E+03  0.25500000000E-02 0.  1.
         -2    1    1    2  502    0  0.20405997358E+02 -0.23686987191E+02 -0.20286029333E+03  0.20525539386E+03  0.25500000000E-02 0.  1.
<mgrwt>
<rscale>  0 0.63277736E+02</rscale>
<asrwt>0</asrwt>
<pdfrwt beam="2">  1        1 0.74159194E-01 0.63277736E+02</pdfrwt>
<pdfrwt beam="1">  1       -1 0.31948477E-03 0.63277736E+02</pdfrwt>
<totfact> 0.35861328E+05</totfact>
</mgrwt>
</event>
<event>
 4    1  0.3883670E-002  0.7971026E+02  0.7818608E-02  0.1329876E+00
          1   -1    0    0    0  501  0.00000000000E+00  0.00000000000E+00  0.85761713852E+01  0.85761728661E+01  0.50400000000E-02 0. -1.
         -1   -1    0    0  501    0 -0.00000000000E+00 -0.00000000000E+00 -0.18521447088E+03  0.18521447095E+03  0.50400000000E-02 0. -1.
          2    1    1    2    0  502  0.18941035578E+02 -0.11399317932E+02 -0.76958739458E+01  0.23407984970E+02  0.25500000000E-02 0.  1.
         -2    1    1    2  502    0 -0.18941035578E+02  0.11399317932E+02 -0.16894242555E+03  0.17038265884E+03  0.25500000000E-02 0.  1.
<mgrwt>
<rscale>  0 0.79710255E+02</rscale>
<asrwt>0</asrwt>
<pdfrwt beam="1">  1        1 0.13194112E-02 0.79710255E+02</pdfrwt>
<pdfrwt beam="2">  1       -1 0.28494531E-01 0.79710255E+02</pdfrwt>
<totfact> 0.10047452E+05</totfact>
</mgrwt>
</event>
<event>
 4    1  0.3883670E-002  0.7078845E+02  0.7818608E-02  0.1357432E+00
          1   -1    0    0    0  501  0.00000000000E+00  0.00000000000E+00  0.29657339652E+02  0.29657340081E+02  0.50400000000E-02 0. -1.
         -1   -1    0    0  501    0 -0.00000000000E+00 -0.00000000000E+00 -0.42240843821E+02  0.42240844122E+02  0.50400000000E-02 0. -1.
          2    1    1    2    0  502 -0.33434573156E+02  0.51089656840E+01 -0.16884967037E+02  0.37803099487E+02  0.25500000000E-02 0. -1.
         -2    1    1    2  502    0  0.33434573156E+02 -0.51089656840E+01  0.43014628676E+01  0.34095084716E+02  0.25500000000E-02 0. -1.
<mgrwt>
<rscale>  0 0.70788448E+02</rscale>
<asrwt>0</asrwt>
<pdfrwt beam="1">  1        1 0.45626677E-02 0.70788448E+02</pdfrwt>
<pdfrwt beam="2">  1       -1 0.64985914E-02 0.70788448E+02</pdfrwt>
<totfact> 0.17596717E+05</totfact>
</mgrwt>
</event>
<event>
 4    1  0.3883670E-002  0.3436123E+03  0.7818608E-02  0.1065268E+00
          1   -1    0    0    0  501  0.00000000000E+00  0.00000000000E+00  0.20126509450E+03  0.20126509456E+03  0.50400000000E-02 0.  1.
         -1   -1    0    0  501    0 -0.00000000000E+00 -0.00000000000E+00 -0.14665908752E+03  0.14665908761E+03  0.50400000000E-02 0.  1.
          2    1    1    2    0  502 -0.12303844338E+03  0.11720726826E+03  0.16602644226E+01  0.16993751429E+03  0.25500000000E-02 0. -1.
         -2    1    1    2  502    0  0.12303844338E+03 -0.11720726826E+03  0.52945742550E+02  0.17798666787E+03  0.25500000000E-02 0. -1.
<mgrwt>
<rscale>  0 0.34361231E+03</rscale>
<asrwt>0</asrwt>
<pdfrwt beam="1">  1        1 0.30963860E-01 0.34361231E+03</pdfrwt>
<pdfrwt beam="2">  1       -1 0.22562937E-01 0.34361231E+03</pdfrwt>
<totfact> 0.24110521E+03</totfact>
</mgrwt>
</event>
<event>
 4    1  0.3883670E-002  0.5769441E+02  0.7818608E-02  0.1407770E+00
         -1   -1    0    0  501    0 -0.00000000000E+00  0.00000000000E+00  0.96735438508E+01  0.96735451638E+01  0.50400000000E-02 0.  1.
          1   -1    0    0    0  501  0.00000000000E+00 -0.00000000000E+00 -0.86024431979E+02  0.86024432127E+02  0.50400000000E-02 0.  1.
          2    1    1    2    0  502 -0.20560750772E+02  0.10475546896E+02 -0.94611831413E+01  0.24939838572E+02  0.25500000000E-02 0. -1.
         -2    1    1    2  502    0  0.20560750772E+02 -0.10475546896E+02 -0.66889704987E+02  0.70758138718E+02  0.25500000000E-02 0. -1.
<mgrwt>
<rscale>  0 0.57694408E+02</rscale>
<asrwt>0</asrwt>
<pdfrwt beam="2">  1        1 0.13234528E-01 0.57694408E+02</pdfrwt>
<pdfrwt beam="1">  1       -1 0.14882377E-02 0.57694408E+02</pdfrwt>
<totfact> 0.34356845E+05</totfact>
</mgrwt>
</event>
<event>
 4    1  0.3883670E-002  0.5046269E+02  0.7818608E-02  0.1442862E+00
          1   -1    0    0    0  501  0.00000000000E+00  0.00000000000E+00  0.27157814389E+02  0.27157814856E+02  0.50400000000E-02 0. -1.
         -1   -1    0    0  501    0 -0.00000000000E+00 -0.00000000000E+00 -0.23441533724E+02  0.23441534266E+02  0.50400000000E-02 0. -1.
          2    1    1    2    0  502 -0.20167465008E+02  0.11549828258E+02  0.11707962832E+02  0.26023097007E+02  0.25500000000E-02 0.  1.
         -2    1    1    2  502    0  0.20167465008E+02 -0.11549828258E+02 -0.79916821670E+01  0.24576252115E+02  0.25500000000E-02 0.  1.
<mgrwt>
<rscale>  0 0.50462693E+02</rscale>
<asrwt>0</asrwt>
<pdfrwt beam="1">  1        1 0.41781253E-02 0.50462693E+02</pdfrwt>
<pdfrwt beam="2">  1       -1 0.36063899E-02 0.50462693E+02</pdfrwt>
<totfact> 0.43023260E+05</totfact>
</mgrwt>
</event>
<event>
 4    1  0.3883670E-002  0.5014916E+02  0.7818608E-02  0.1444539E+00
          1   -1    0    0    0  501  0.00000000000E+00  0.00000000000E+00  0.41465325690E+03  0.41465325694E+03  0.50400000000E-02 0.  1.
         -1   -1    0    0  501    0 -0.00000000000E+00 -0.00000000000E+00 -0.15162855357E+01  0.15162939120E+01  0.50400000000E-02 0.  1.
          2    1    1    2    0  502  0.21021806496E+02 -0.31954282397E+01  0.31685212147E+03  0.31756478709E+03  0.25500000000E-02 0.  1.
         -2    1    1    2  502    0 -0.21021806496E+02  0.31954282397E+01  0.96284849898E+02  0.98604763761E+02  0.25500000000E-02 0.  1.
<mgrwt>
<rscale>  0 0.50149157E+02</rscale>
<asrwt>0</asrwt>
<pdfrwt beam="1">  1        1 0.63792848E-01 0.50149157E+02</pdfrwt>
<pdfrwt beam="2">  1       -1 0.23327520E-03 0.50149157E+02</pdfrwt>
<totfact> 0.63148244E+05</totfact>
</mgrwt>
</event>
<event>
 4    1  0.3883670E-002  0.9317977E+02  0.7818608E-02  0.1295329E+00
         -1   -1    0    0  501    0 -0.00000000000E+00  0.00000000000E+00  0.33819159347E+01  0.33819196903E+01  0.50400000000E-02 0. -1.
          1   -1    0    0    0  501  0.00000000000E+00 -0.00000000000E+00 -0.64183028456E+03  0.64183028458E+03  0.50400000000E-02 0. -1.
          2    1    1    2    0  502 -0.10772052431E+01  0.22897735862E+02 -0.60008023161E+03  0.60051790236E+03  0.25500000000E-02 0.  1.
         -2    1    1    2  502    0  0.10772052431E+01 -0.22897735862E+02 -0.38368137015E+02  0.44694301911E+02  0.25500000000E-02 0.  1.
<mgrwt>
<rscale>  0 0.93179768E+02</rscale>
<asrwt>0</asrwt>
<pdfrwt beam="2">  1        1 0.98743024E-01 0.93179768E+02</pdfrwt>
<pdfrwt beam="1">  1       -1 0.52029556E-03 0.93179768E+02</pdfrwt>
<totfact> 0.13408417E+05</totfact>
</mgrwt>
</event>
<event>
 4    1  0.3883670E-002  0.1985636E+03  0.7818608E-02  0.1150957E+00
          1   -1    0    0    0  501  0.00000000000E+00  0.00000000000E+00  0.28969928897E+02  0.28969929336E+02  0.50400000000E-02 0. -1.
         -1   -1    0    0  501    0 -0.00000000000E+00 -0.00000000000E+00 -0.34024514675E+03  0.34024514679E+03  0.50400000000E-02 0. -1.
          2    1    1    2    0  502 -0.13115674081E+02  0.81158317481E+02 -0.52139271143E+02  0.97350896271E+02  0.25500000000E-02 0.  1.
         -2    1    1    2  502    0  0.13115674081E+02 -0.81158317481E+02 -0.25913594671E+03  0.27186417985E+03  0.25500000000E-02 0.  1.
<mgrwt>
<rscale>  0 0.19856362E+03</rscale>
<asrwt>0</asrwt>
<pdfrwt beam="1">  1        1 0.44569124E-02 0.19856362E+03</pdfrwt>
<pdfrwt beam="2">  1       -1 0.52345404E-01 0.19856362E+03</pdfrwt>
<totfact> 0.71828614E+03</totfact>
</mgrwt>
</event>
<event>
 4    1  0.3883670E-002  0.4701609E+02  0.7818608E-02  0.1462134E+00
          1   -1    0    0    0  501  0.00000000000E+00  0.00000000000E+00  0.95669809903E+00  0.95671137460E+00  0.50400000000E-02 0.  1.
         -1   -1    0    0  501    0 -0.00000000000E+00 -0.00000000000E+00 -0.57763713663E+03  0.57763713665E+03  0.50400000000E-02 0.  1.
          2    1    1    2    0  502 -0.17795163624E+02  0.15285988420E+02 -0.26968126104E+03  0.27069967095E+03  0.25500000000E-02 0. -1.
         -2    1    1    2  502    0  0.17795163624E+02 -0.15285988420E+02 -0.30699917749E+03  0.30789417708E+03  0.25500000000E-02 0. -1.
<mgrwt>
<rscale>  0 0.47016091E+02</rscale>
<asrwt>0</asrwt>
<pdfrwt beam="1">  1        1 0.14718581E-03 0.47016091E+02</pdfrwt>
<pdfrwt beam="2">  1       -1 0.88866974E-01 0.47016091E+02</pdfrwt>
<totfact> 0.23091497E+05</totfact>
</mgrwt>
</event>
<event>
 4    1  0.3883670E-002  0.5560606E+02  0.7818608E-02  0.1417254E+00
         -1   -1    0    0  501    0 -0.00000000000E+00  0.00000000000E+00  0.95576391200E+02  0.95576391333E+02  0.50400000000E-02 0.  1.
          1   -1    0    0    0  501  0.00000000000E+00 -0.00000000000E+00 -0.80878593984E+01  0.80878609688E+01  0.50400000000E-02 0.  1.
          2    1    1    2    0  502  0.25823590446E+02  0.25302107253E+01  0.62363444740E+02  0.67545977202E+02  0.25500000000E-02 0. -1.
         -2    1    1    2  502    0 -0.25823590446E+02 -0.25302107253E+01  0.25125087062E+02  0.36118275100E+02  0.25500000000E-02 0. -1.
<mgrwt>
<rscale>  0 0.55606061E+02</rscale>
<asrwt>0</asrwt>
<pdfrwt beam="2">  1        1 0.12442861E-02 0.55606061E+02</pdfrwt>
<pdfrwt beam="1">  1       -1 0.14704061E-01 0.55606061E+02</pdfrwt>
<totfact> 0.28795432E+05</totfact>
</mgrwt>
</event>
<event>
 4    1  0.3883670E-002  0.6673884E+02  0.7818608E-02  0.1371548E+00
         -1   -1    0    0  501    0 -0.00000000000E+00  0.00000000000E+00  0.67340884474E+02  0.67340884663E+02  0.50400000000E-02 0. -1.
          1   -1    0    0    0  501  0.00000000000E+00 -0.00000000000E+00 -0.16535543770E+02  0.16535544538E+02  0.50400000000E-02 0. -1.
          2    1    1    2    0  502  0.10606167539E+02  0.30875483970E+02  0.34085585030E+02  0.47197599659E+02  0.25500000000E-02 0.  1.
         -2    1    1    2  502    0 -0.10606167539E+02 -0.30875483970E+02  0.16719755674E+02  0.36678829541E+02  0.25500000000E-02 0.  1.
<mgrwt>
<rscale>  0 0.66738840E+02</rscale>
<asrwt>0</asrwt>
<pdfrwt beam="2">  1        1 0.25439299E-02 0.66738840E+02</pdfrwt>
<pdfrwt beam="1">  1       -1 0.10360136E-01 0.66738840E+02</pdfrwt>
<totfact> 0.19198267E+05</totfact>
</mgrwt>
</event>
<event>
 4    1  0.3883670E-002  0.4292057E+02  0.7818608E-02  0.1487757E+00
          1   -1    0    0    0  501  0.00000000000E+00  0.00000000000E+00  0.12856235509E+03  0.12856235519E+03  0.50400000000E-02 0. -1.
         -1   -1    0    0  501    0 -0.00000000000E+00 -0.00000000000E+00 -0.35822587456E+01  0.35822622911E+01  0.50400000000E-02 0. -1.
          2    1    1    2    0  502 -0.13844286501E+02 -0.16382454042E+02  0.60324376173E+02  0.64024053576E+02  0.25500000000E-02 0.  1.
         -2    1    1    2  502    0  0.13844286501E+02  0.16382454042E+02  0.64655720173E+02  0.68120563905E+02  0.25500000000E-02 0.  1.
<mgrwt>
<rscale>  0 0.42920571E+02</rscale>
<asrwt>0</asrwt>
<pdfrwt beam="1">  1        1 0.19778823E-01 0.42920571E+02</pdfrwt>
<pdfrwt beam="2">  1       -1 0.55111704E-03 0.42920571E+02</pdfrwt>
<totfact> 0.76555189E+05</totfact>
</mgrwt>
</event>
<event>
 4    1  0.3883670E-002  0.7640818E+02  0.7818608E-02  0.1339565E+00
         -1   -1    0    0  501    0 -0.00000000000E+00  0.00000000000E+00  0.66071000364E+02  0.66071000556E+02  0.50400000000E-02 0.  1.
          1   -1    0    0    0  501  0.00000000000E+00 -0.00000000000E+00 -0.22090664741E+02  0.22090665316E+02  0.50400000000E-02 0.  1.
          2    1    1    2    0  502  0.13646252564E+02 -0.16344044913E+02 -0.14609997342E+02  0.25822471648E+02  0.25500000000E-02 0.  1.
         -2    1    1    2  502    0 -0.13646252564E+02  0.16344044913E+02  0.58590332965E+02  0.62339194225E+02  0.25500000000E-02 0.  1.
<mgrwt>
<rscale>  0 0.76408176E+02</rscale>
<asrwt>0</asrwt>
<pdfrwt beam="2">  1        1 0.33985639E-02 0.76408176E+02</pdfrwt>
<pdfrwt beam="1">  1       -1 0.10164769E-01 0.76408176E+02</pdfrwt>
<totfact> 0.13680316E+05</totfact>
</mgrwt>
</event>
<event>
 4    1  0.3883670E-002  0.5404197E+02  0.7818608E-02  0.1424685E+00
         -1   -1    0    0  501    0 -0.00000000000E+00  0.00000000000E+00  0.47479453045E+03  0.47479453047E+03  0.50400000000E-02 0. -1.
          1   -1    0    0    0  501  0.00000000000E+00 -0.00000000000E+00 -0.15377847110E+01  0.15377929702E+01  0.50400000000E-02 0. -1.
          2    1    1    2    0  502 -0.77493959428E+01  0.25859128251E+02  0.24700542098E+03  0.24847620742E+03  0.25500000000E-02 0. -1.
         -2    1    1    2  502    0  0.77493959428E+01 -0.25859128251E+02  0.22625132475E+03  0.22785611602E+03  0.25500000000E-02 0. -1.
<mgrwt>
<rscale>  0 0.54041974E+02</rscale>
<asrwt>0</asrwt>
<pdfrwt beam="2">  1        1 0.23658313E-03 0.54041974E+02</pdfrwt>
<pdfrwt beam="1">  1       -1 0.73045241E-01 0.54041974E+02</pdfrwt>
<totfact> 0.18546766E+05</totfact>
</mgrwt>
</event>
<event>
 4    1  0.3883670E-002  0.1446589E+03  0.7818608E-02  0.1207194E+00
         -1   -1    0    0  501    0 -0.00000000000E+00  0.00000000000E+00  0.47837006309E+02  0.47837006574E+02  0.50400000000E-02 0. -1.
          1   -1    0    0    0  501  0.00000000000E+00 -0.00000000000E+00 -0.10936194854E+03  0.10936194866E+03  0.50400000000E-02 0. -1.
          2    1    1    2    0  502  0.21865548050E+02  0.67081786325E+02 -0.48063677595E+02  0.85370869496E+02  0.25500000000E-02 0.  1.
         -2    1    1    2  502    0 -0.21865548050E+02 -0.67081786325E+02 -0.13461264636E+02  0.71828085734E+02  0.25500000000E-02 0.  1.
<mgrwt>
<rscale>  0 0.14465888E+03</rscale>
<asrwt>0</asrwt>
<pdfrwt beam="2">  1        1 0.16824915E-01 0.14465888E+03</pdfrwt>
<pdfrwt beam="1">  1       -1 0.73595395E-02 0.14465888E+03</pdfrwt>
<totfact> 0.29012328E+04</totfact>
</mgrwt>
</event>
<event>
 4    1  0.3883670E-002  0.4671847E+02  0.7818608E-02  0.1463890E+00
          1   -1    0    0    0  501  0.00000000000E+00  0.00000000000E+00  0.60077132192E+00  0.60079246237E+00  0.50400000000E-02 0.  1.
         -1   -1    0    0  501    0 -0.00000000000E+00 -0.00000000000E+00 -0.90823954134E+03  0.90823954136E+03  0.50400000000E-02 0.  1.
          2    1    1    2    0  502  0.17319737747E+01  0.22859847381E+02 -0.36664331775E+03  0.36735935379E+03  0.25500000000E-02 0. -1.
         -2    1    1    2  502    0 -0.17319737747E+01 -0.22859847381E+02 -0.54099545227E+03  0.54148098003E+03  0.25500000000E-02 0. -1.
<mgrwt>
<rscale>  0 0.46718471E+02</rscale>
<asrwt>0</asrwt>
<pdfrwt beam="1">  1        1 0.92428711E-04 0.46718471E+02</pdfrwt>
<pdfrwt beam="2">  1       -1 0.13972806E+00 0.46718471E+02</pdfrwt>
<totfact> 0.15735379E+05</totfact>
</mgrwt>
</event>
<event>
 4    1  0.3883670E-002  0.7753558E+02  0.7818608E-02  0.1336194E+00
          1   -1    0    0    0  501  0.00000000000E+00  0.00000000000E+00  0.13706515069E+03  0.13706515078E+03  0.50400000000E-02 0. -1.
         -1   -1    0    0  501    0 -0.00000000000E+00 -0.00000000000E+00 -0.10965160004E+02  0.10965161162E+02  0.50400000000E-02 0. -1.
          2    1    1    2    0  502  0.28100446031E+02 -0.17344771791E+02  0.10182423595E+03  0.10704508960E+03  0.25500000000E-02 0.  1.
         -2    1    1    2  502    0 -0.28100446031E+02  0.17344771791E+02  0.24275754736E+02  0.40985222338E+02  0.25500000000E-02 0.  1.
<mgrwt>
<rscale>  0 0.77535576E+02</rscale>
<asrwt>0</asrwt>
<pdfrwt beam="1">  1        1 0.21086948E-01 0.77535576E+02</pdfrwt>
<pdfrwt beam="2">  1       -1 0.16869476E-02 0.77535576E+02</pdfrwt>
<totfact> 0.17020392E+05</totfact>
</mgrwt>
</event>
<event>
 4    1  0.3883670E-002  0.4484498E+02  0.7818608E-02  0.1475312E+00
         -1   -1    0    0  501    0 -0.00000000000E+00  0.00000000000E+00  0.48639241816E+02  0.48639242077E+02  0.50400000000E-02 0. -1.
          1   -1    0    0    0  501  0.00000000000E+00 -0.00000000000E+00 -0.10336676162E+02  0.10336677390E+02  0.50400000000E-02 0. -1.
          2    1    1    2    0  502 -0.16001694097E+02 -0.14079587091E+02  0.99945969531E+01  0.23541048434E+02  0.25500000000E-02 0.  1.
         -2    1    1    2  502    0  0.16001694097E+02  0.14079587091E+02  0.28307968701E+02  0.35434871033E+02  0.25500000000E-02 0.  1.
<mgrwt>
<rscale>  0 0.44844983E+02</rscale>
<asrwt>0</asrwt>
<pdfrwt beam="2">  1        1 0.15902580E-02 0.44844983E+02</pdfrwt>
<pdfrwt beam="1">  1       -1 0.74829603E-02 0.44844983E+02</pdfrwt>
<totfact> 0.53490641E+05</totfact>
</mgrwt>
</event>
<event>
 4    1  0.3883670E-002  0.5788228E+02  0.7818608E-02  0.1406940E+00
          1   -1    0    0    0  501  0.00000000000E+00  0.00000000000E+00  0.16211989551E+02  0.16211990334E+02  0.50400000000E-02 0.  1.
         -1   -1    0    0  501    0 -0.00000000000E+00 -0.00000000000E+00 -0.51664824055E+02  0.51664824301E+02  0.50400000000E-02 0.  1.
          2    1    1    2    0  502  0.26606427185E+02  0.11382582758E+02 -0.18140119549E+02  0.34154488746E+02  0.25500000000E-02 0.  1.
         -2    1    1    2  502    0 -0.26606427185E+02 -0.11382582758E+02 -0.17312714956E+02  0.33722325890E+02  0.25500000000E-02 0.  1.
<mgrwt>
<rscale>  0 0.57882281E+02</rscale>
<asrwt>0</asrwt>
<pdfrwt beam="1">  1        1 0.24941524E-02 0.57882281E+02</pdfrwt>
<pdfrwt beam="2">  1       -1 0.79484344E-02 0.57882281E+02</pdfrwt>
<totfact> 0.28356695E+05</totfact>
</mgrwt>
</event>
<event>
 4    1  0.3883670E-002  0.1043481E+03  0.7818608E-02  0.1271409E+00
          1   -1    0    0    0  501  0.00000000000E+00  0.00000000000E+00  0.30787020711E+02  0.30787021124E+02  0.50400000000E-02 0. -1.
         -1   -1    0    0  501    0 -0.00000000000E+00 -0.00000000000E+00 -0.88418115622E+02  0.88418115766E+02  0.50400000000E-02 0. -1.
          2    1    1    2    0  502 -0.49507933719E+02 -0.15942775258E+02 -0.24116101958E+02  0.57330567451E+02  0.25500000000E-02 0.  1.
         -2    1    1    2  502    0  0.49507933719E+02  0.15942775258E+02 -0.33514992952E+02  0.61874569439E+02  0.25500000000E-02 0.  1.
<mgrwt>
<rscale>  0 0.10434808E+03</rscale>
<asrwt>0</asrwt>
<pdfrwt beam="1">  1        1 0.47364648E-02 0.10434808E+03</pdfrwt>
<pdfrwt beam="2">  1       -1 0.13602787E-01 0.10434808E+03</pdfrwt>
<totfact> 0.58805007E+04</totfact>
</mgrwt>
</event>
<event>
 4    1  0.3883670E-002  0.6829549E+02  0.7818608E-02  0.1365987E+00
          1   -1    0    0    0  501  0.00000000000E+00  0.00000000000E+00  0.14000428476E+03  0.14000428486E+03  0.50400000000E-02 0. -1.
         -1   -1    0    0  501    0 -0.00000000000E+00 -0.00000000000E+00 -0.83288052899E+01  0.83288068148E+01  0.50400000000E-02 0. -1.
          2    1    1    2    0  502  0.23217048767E+02 -0.27206967142E+01  0.11773016795E+02  0.26173220570E+02  0.25500000000E-02 0. -1.
         -2    1    1    2  502    0 -0.23217048767E+02  0.27206967142E+01  0.11990246268E+03  0.12215987110E+03  0.25500000000E-02 0. -1.
<mgrwt>
<rscale>  0 0.68295492E+02</rscale>
<asrwt>0</asrwt>
<pdfrwt beam="1">  1        1 0.21539121E-01 0.68295492E+02</pdfrwt>
<pdfrwt beam="2">  1       -1 0.12813548E-02 0.68295492E+02</pdfrwt>
<totfact> 0.23846263E+05</totfact>
</mgrwt>
</event>
<event>
 4    1  0.3883670E-002  0.1447310E+03  0.7818608E-02  0.1207101E+00
         -1   -1    0    0  501    0 -0.00000000000E+00  0.00000000000E+00  0.29434920179E+03  0.29434920184E+03  0.50400000000E-02 0. -1.
          1   -1    0    0    0  501  0.00000000000E+00 -0.00000000000E+00 -0.17791005756E+02  0.17791006470E+02  0.50400000000E-02 0. -1.
          2    1    1    2    0  502 -0.40148320733E+02 -0.58880759736E+02  0.16538287906E+03  0.18008422534E+03  0.25500000000E-02 0.  1.
         -2    1    1    2  502    0  0.40148320733E+02  0.58880759736E+02  0.11117531698E+03  0.13205598296E+03  0.25500000000E-02 0.  1.
<mgrwt>
<rscale>  0 0.14473104E+03</rscale>
<asrwt>0</asrwt>
<pdfrwt beam="2">  1        1 0.27370779E-02 0.14473104E+03</pdfrwt>
<pdfrwt beam="1">  1       -1 0.45284492E-01 0.14473104E+03</pdfrwt>
<totfact> 0.17932605E+04</totfact>
</mgrwt>
</event>
<event>
 4    1  0.3883670E-002  0.9398352E+02  0.7818608E-02  0.1293482E+00
          1   -1    0    0    0  501  0.00000000000E+00  0.00000000000E+00  0.51887811642E+02  0.51887811887E+02  0.50400000000E-02 0.  1.
         -1   -1    0    0  501    0 -0.00000000000E+00 -0.00000000000E+00 -0.42557692638E+02  0.42557692937E+02  0.50400000000E-02 0.  1.
          2    1    1    2    0  502  0.45658407326E+02  0.21781044782E+01 -0.62876564378E+01  0.46140751280E+02  0.25500000000E-02 0.  1.
         -2    1    1    2  502    0 -0.45658407326E+02 -0.21781044782E+01  0.15617775442E+02  0.48304753544E+02  0.25500000000E-02 0.  1.
<mgrwt>
<rscale>  0 0.93983521E+02</rscale>
<asrwt>0</asrwt>
<pdfrwt beam="1">  1        1 0.79827402E-02 0.93983521E+02</pdfrwt>
<pdfrwt beam="2">  1       -1 0.65473374E-02 0.93983521E+02</pdfrwt>
<totfact> 0.86613198E+04</totfact>
</mgrwt>
</event>
<event>
 4    1  0.3883670E-002  0.7600842E+02  0.7818608E-02  0.1340776E+00
         -1   -1    0    0  501    0 -0.00000000000E+00  0.00000000000E+00  0.57026010920E+01  0.57026033192E+01  0.50400000000E-02 0.  1.
          1   -1    0    0    0  501  0.00000000000E+00 -0.00000000000E+00 -0.25327385395E+03  0.25327385400E+03  0.50400000000E-02 0.  1.
          2    1    1    2    0  502  0.26562975398E+02 -0.24539231932E+02 -0.83970184180E+02  0.91426240235E+02  0.25500000000E-02 0.  1.
         -2    1    1    2  502    0 -0.26562975398E+02  0.24539231932E+02 -0.16360106868E+03  0.16755021709E+03  0.25500000000E-02 0.  1.
<mgrwt>
<rscale>  0 0.76008422E+02</rscale>
<asrwt>0</asrwt>
<pdfrwt beam="2">  1        1 0.38965200E-01 0.76008422E+02</pdfrwt>
<pdfrwt beam="1">  1       -1 0.87732362E-03 0.76008422E+02</pdfrwt>
<totfact> 0.20061343E+05</totfact>
</mgrwt>
</event>
<event>
 4    1  0.3883670E-002  0.1403202E+03  0.7818608E-02  0.1212899E+00
          1   -1    0    0    0  501  0.00000000000E+00  0.00000000000E+00  0.30406824165E+02  0.30406824582E+02  0.50400000000E-02 0. -1.
         -1   -1    0    0  501    0 -0.00000000000E+00 -0.00000000000E+00 -0.16188609896E+03  0.16188609904E+03  0.50400000000E-02 0. -1.
          2    1    1    2    0  502 -0.69958054834E+02 -0.62364614327E+00 -0.58498106606E+02  0.91195103233E+02  0.25500000000E-02 0.  1.
         -2    1    1    2  502    0  0.69958054834E+02  0.62364614327E+00 -0.72981168193E+02  0.10109782039E+03  0.25500000000E-02 0.  1.
<mgrwt>
<rscale>  0 0.14032024E+03</rscale>
<asrwt>0</asrwt>
<pdfrwt beam="1">  1        1 0.46779731E-02 0.14032024E+03</pdfrwt>
<pdfrwt beam="2">  1       -1 0.24905553E-01 0.14032024E+03</pdfrwt>
<totfact> 0.23718412E+04</totfact>
</mgrwt>
</event>
<event>
 4    1  0.3883670E-002  0.4794534E+02  0.7818608E-02  0.1456750E+00
         -1   -1    0    0  501    0 -0.00000000000E+00  0.00000000000E+00  0.69939502532E+01  0.69939520692E+01  0.50400000000E-02 0. -1.
          1   -1    0    0    0  501  0.00000000000E+00 -0.00000000000E+00 -0.82169424496E+02  0.82169424650E+02  0.50400000000E-02 0. -1.
          2    1    1    2    0  502 -0.22704950503E+02  0.46071445666E+01 -0.49043836308E+02  0.54240560881E+02  0.25500000000E-02 0.  1.
         -2    1    1    2  502    0  0.22704950503E+02 -0.46071445666E+01 -0.26131637935E+02  0.34922815839E+02  0.25500000000E-02 0.  1.
<mgrwt>
<rscale>  0 0.47945342E+02</rscale>
<asrwt>0</asrwt>
<pdfrwt beam="2">  1        1 0.12641449E-01 0.47945342E+02</pdfrwt>
<pdfrwt beam="1">  1       -1 0.10759926E-02 0.47945342E+02</pdfrwt>
<totfact> 0.54737940E+05</totfact>
</mgrwt>
</event>
<event>
 4    1  0.3883670E-002  0.4071318E+02  0.7818608E-02  0.1503028E+00
         -1   -1    0    0  501    0 -0.00000000000E+00  0.00000000000E+00  0.80028618273E+01  0.80028634143E+01  0.50400000000E-02 0. -1.
          1   -1    0    0    0  501  0.00000000000E+00 -0.00000000000E+00 -0.51780323736E+02  0.51780323981E+02  0.50400000000E-02 0. -1.
          2    1    1    2    0  502 -0.18140458759E+02  0.85557119351E+01 -0.16777865048E+02  0.26149057589E+02  0.25500000000E-02 0.  1.
         -2    1    1    2  502    0  0.18140458759E+02 -0.85557119351E+01 -0.26999596861E+02  0.33634129807E+02  0.25500000000E-02 0.  1.
<mgrwt>
<rscale>  0 0.40713184E+02</rscale>
<asrwt>0</asrwt>
<pdfrwt beam="2">  1        1 0.79662036E-02 0.40713184E+02</pdfrwt>
<pdfrwt beam="1">  1       -1 0.12312097E-02 0.40713184E+02</pdfrwt>
<totfact> 0.78457667E+05</totfact>
</mgrwt>
</event>
<event>
 4    1  0.3883670E-002  0.9096772E+02  0.7818608E-02  0.1300525E+00
         -1   -1    0    0  501    0 -0.00000000000E+00  0.00000000000E+00  0.54694456281E+01  0.54694479502E+01  0.50400000000E-02 0.  1.
          1   -1    0    0    0  501  0.00000000000E+00 -0.00000000000E+00 -0.37824330482E+03  0.37824330485E+03  0.50400000000E-02 0.  1.
          2    1    1    2    0  502  0.41050706542E+02  0.15004102204E+02 -0.13328248569E+03  0.14026583543E+03  0.25500000000E-02 0.  1.
         -2    1    1    2  502    0 -0.41050706542E+02 -0.15004102204E+02 -0.23949137351E+03  0.24344691738E+03  0.25500000000E-02 0.  1.
<mgrwt>
<rscale>  0 0.90967723E+02</rscale>
<asrwt>0</asrwt>
<pdfrwt beam="2">  1        1 0.58191257E-01 0.90967723E+02</pdfrwt>
<pdfrwt beam="1">  1       -1 0.84145365E-03 0.90967723E+02</pdfrwt>
<totfact> 0.13444986E+05</totfact>
</mgrwt>
</event>
<event>
 4    1  0.3883670E-002  0.6564444E+02  0.7818608E-02  0.1375564E+00
          1   -1    0    0    0  501  0.00000000000E+00  0.00000000000E+00  0.28797987678E+02  0.28797988119E+02  0.50400000000E-02 0.  1.
         -1   -1    0    0  501    0 -0.00000000000E+00 -0.00000000000E+00 -0.37408798326E+02  0.37408798665E+02  0.50400000000E-02 0.  1.
          2    1    1    2    0  502 -0.28571135466E+02  0.11447764972E+02 -0.15802047770E+02  0.34598639061E+02  0.25500000000E-02 0.  1.
         -2    1    1    2  502    0  0.28571135466E+02 -0.11447764972E+02  0.71912371215E+01  0.31608147723E+02  0.25500000000E-02 0.  1.
<mgrwt>
<rscale>  0 0.65644440E+02</rscale>
<asrwt>0</asrwt>
<pdfrwt beam="1">  1        1 0.44304597E-02 0.65644440E+02</pdfrwt>
<pdfrwt beam="2">  1       -1 0.57551998E-02 0.65644440E+02</pdfrwt>
<totfact> 0.21537773E+05</totfact>
</mgrwt>
</event>
<event>
 4    1  0.3883670E-002  0.4855611E+02  0.7818608E-02  0.1453289E+00
         -1   -1    0    0  501    0 -0.00000000000E+00  0.00000000000E+00  0.15618419332E+01  0.15618500651E+01  0.50400000000E-02 0. -1.
          1   -1    0    0    0  501  0.00000000000E+00 -0.00000000000E+00 -0.37738931409E+03  0.37738931413E+03  0.50400000000E-02 0. -1.
          2    1    1    2    0  502 -0.14967246743E+02 -0.13913314065E+02 -0.29021542106E+03  0.29093399494E+03  0.25500000000E-02 0. -1.
         -2    1    1    2  502    0  0.14967246743E+02  0.13913314065E+02 -0.85612051100E+02  0.88017169254E+02  0.25500000000E-02 0. -1.
<mgrwt>
<rscale>  0 0.48556112E+02</rscale>
<asrwt>0</asrwt>
<pdfrwt beam="2">  1        1 0.58059822E-01 0.48556112E+02</pdfrwt>
<pdfrwt beam="1">  1       -1 0.24028430E-03 0.48556112E+02</pdfrwt>
<totfact> 0.67447742E+05</totfact>
</mgrwt>
</event>
<event>
 4    1  0.3883670E-002  0.4898218E+02  0.7818608E-02  0.1450910E+00
         -1   -1    0    0  501    0 -0.00000000000E+00  0.00000000000E+00  0.37155561448E+01  0.37155595631E+01  0.50400000000E-02 0.  1.
          1   -1    0    0    0  501  0.00000000000E+00 -0.00000000000E+00 -0.16143295064E+03  0.16143295072E+03  0.50400000000E-02 0.  1.
          2    1    1    2    0  502  0.48439779244E+01  0.21485565660E+02 -0.42746344623E+02  0.48086834362E+02  0.25500000000E-02 0.  1.
         -2    1    1    2  502    0 -0.48439779244E+01 -0.21485565660E+02 -0.11497104988E+03  0.11706167592E+03  0.25500000000E-02 0.  1.
<mgrwt>
<rscale>  0 0.48982180E+02</rscale>
<asrwt>0</asrwt>
<pdfrwt beam="2">  1        1 0.24835833E-01 0.48982180E+02</pdfrwt>
<pdfrwt beam="1">  1       -1 0.57162442E-03 0.48982180E+02</pdfrwt>
<totfact> 0.57085070E+05</totfact>
</mgrwt>
</event>
<event>
 4    1  0.3883670E-002  0.5506747E+02  0.7818608E-02  0.1419780E+00
          1   -1    0    0    0  501  0.00000000000E+00  0.00000000000E+00  0.49769900887E+01  0.49769926406E+01  0.50400000000E-02 0.  1.
         -1   -1    0    0  501    0 -0.00000000000E+00 -0.00000000000E+00 -0.15232223829E+03  0.15232223838E+03  0.50400000000E-02 0.  1.
          2    1    1    2    0  502 -0.99984961891E+01 -0.20055179827E+02 -0.27975489893E+02  0.35844221364E+02  0.25500000000E-02 0.  1.
         -2    1    1    2  502    0  0.99984961891E+01  0.20055179827E+02 -0.11936975831E+03  0.12145500965E+03  0.25500000000E-02 0.  1.
<mgrwt>
<rscale>  0 0.55067467E+02</rscale>
<asrwt>0</asrwt>
<pdfrwt beam="1">  1        1 0.76569110E-03 0.55067467E+02</pdfrwt>
<pdfrwt beam="2">  1       -1 0.23434187E-01 0.55067467E+02</pdfrwt>
<totfact> 0.26984080E+05</totfact>
</mgrwt>
</event>
<event>
 4    1  0.3883670E-002  0.5456273E+02  0.7818608E-02  0.1422178E+00
         -1   -1    0    0  501    0 -0.00000000000E+00  0.00000000000E+00  0.91169817651E+02  0.91169817790E+02  0.50400000000E-02 0. -1.
          1   -1    0    0    0  501  0.00000000000E+00 -0.00000000000E+00 -0.81635881218E+01  0.81635896776E+01  0.50400000000E-02 0. -1.
          2    1    1    2    0  502 -0.16803009926E+02 -0.21466224430E+02  0.39565304861E+02  0.48047406684E+02  0.25500000000E-02 0.  1.
         -2    1    1    2  502    0  0.16803009926E+02  0.21466224430E+02  0.43440924668E+02  0.51286000783E+02  0.25500000000E-02 0.  1.
<mgrwt>
<rscale>  0 0.54562732E+02</rscale>
<asrwt>0</asrwt>
<pdfrwt beam="2">  1        1 0.12559368E-02 0.54562732E+02</pdfrwt>
<pdfrwt beam="1">  1       -1 0.14026125E-01 0.54562732E+02</pdfrwt>
<totfact> 0.30417812E+05</totfact>
</mgrwt>
</event>
<event>
 4    1  0.3883670E-002  0.4281123E+02  0.7818608E-02  0.1488487E+00
          1   -1    0    0    0  501  0.00000000000E+00  0.00000000000E+00  0.13542035713E+02  0.13542036651E+02  0.50400000000E-02 0. -1.
         -1   -1    0    0  501    0 -0.00000000000E+00 -0.00000000000E+00 -0.33835406467E+02  0.33835406842E+02  0.50400000000E-02 0. -1.
          2    1    1    2    0  502  0.78705920479E+00 -0.21352744915E+02 -0.11564388819E+02  0.24295972359E+02  0.25500000000E-02 0. -1.
         -2    1    1    2  502    0 -0.78705920479E+00  0.21352744915E+02 -0.87289819350E+01  0.23081471134E+02  0.25500000000E-02 0. -1.
<mgrwt>
<rscale>  0 0.42811228E+02</rscale>
<asrwt>0</asrwt>
<pdfrwt beam="1">  1        1 0.20833902E-02 0.42811228E+02</pdfrwt>
<pdfrwt beam="2">  1       -1 0.52054472E-02 0.42811228E+02</pdfrwt>
<totfact> 0.62003135E+05</totfact>
</mgrwt>
</event>
<event>
 4    1  0.3883670E-002  0.4982705E+02  0.7818608E-02  0.1446277E+00
         -1   -1    0    0  501    0 -0.00000000000E+00  0.00000000000E+00  0.32141720807E+01  0.32141760322E+01  0.50400000000E-02 0. -1.
          1   -1    0    0    0  501  0.00000000000E+00 -0.00000000000E+00 -0.19310832047E+03  0.19310832054E+03  0.50400000000E-02 0. -1.
          2    1    1    2    0  502 -0.58764831778E+00 -0.20646705028E+02 -0.14983337252E+03  0.15125035962E+03  0.25500000000E-02 0.  1.
         -2    1    1    2  502    0  0.58764831778E+00  0.20646705028E+02 -0.40060775876E+02  0.45072136951E+02  0.25500000000E-02 0.  1.
<mgrwt>
<rscale>  0 0.49827052E+02</rscale>
<asrwt>0</asrwt>
<pdfrwt beam="2">  1        1 0.29708964E-01 0.49827052E+02</pdfrwt>
<pdfrwt beam="1">  1       -1 0.49448847E-03 0.49827052E+02</pdfrwt>
<totfact> 0.56354655E+05</totfact>
</mgrwt>
</event>
<event>
 4    1  0.3883670E-002  0.5114426E+02  0.7818608E-02  0.1439266E+00
          1   -1    0    0    0  501  0.00000000000E+00  0.00000000000E+00  0.95324291921E+00  0.95325624290E+00  0.50400000000E-02 0.  1.
         -1   -1    0    0  501    0 -0.00000000000E+00 -0.00000000000E+00 -0.68600485255E+03  0.68600485257E+03  0.50400000000E-02 0.  1.
          2    1    1    2    0  502 -0.19949289518E+02  0.82143413047E+01 -0.52693005519E+03  0.52737153187E+03  0.25500000000E-02 0. -1.
         -2    1    1    2  502    0  0.19949289518E+02 -0.82143413047E+01 -0.15812155444E+03  0.15958657694E+03  0.25500000000E-02 0. -1.
<mgrwt>
<rscale>  0 0.51144261E+02</rscale>
<asrwt>0</asrwt>
<pdfrwt beam="1">  1        1 0.14665433E-03 0.51144261E+02</pdfrwt>
<pdfrwt beam="2">  1       -1 0.10553881E+00 0.51144261E+02</pdfrwt>
<totfact> 0.16442150E+05</totfact>
</mgrwt>
</event>
<event>
 4    1  0.3883670E-002  0.4753262E+02  0.7818608E-02  0.1459123E+00
         -1   -1    0    0  501    0 -0.00000000000E+00  0.00000000000E+00  0.18624060615E+02  0.18624061297E+02  0.50400000000E-02 0. -1.
          1   -1    0    0    0  501  0.00000000000E+00 -0.00000000000E+00 -0.30328369817E+02  0.30328370236E+02  0.50400000000E-02 0. -1.
          2    1    1    2    0  502  0.79299853370E+01  0.22356271240E+02 -0.43421079464E+01  0.24115170311E+02  0.25500000000E-02 0.  1.
         -2    1    1    2  502    0 -0.79299853370E+01 -0.22356271240E+02 -0.73622012555E+01  0.24837261222E+02  0.25500000000E-02 0.  1.
<mgrwt>
<rscale>  0 0.47532617E+02</rscale>
<asrwt>0</asrwt>
<pdfrwt beam="2">  1        1 0.46659031E-02 0.47532617E+02</pdfrwt>
<pdfrwt beam="1">  1       -1 0.28652402E-02 0.47532617E+02</pdfrwt>
<totfact> 0.50695947E+05</totfact>
</mgrwt>
</event>
<event>
 4    1  0.3883670E-002  0.4275359E+02  0.7818608E-02  0.1488873E+00
         -1   -1    0    0  501    0 -0.00000000000E+00  0.00000000000E+00  0.91268161406E+00  0.91269552987E+00  0.50400000000E-02 0.  1.
          1   -1    0    0    0  501  0.00000000000E+00 -0.00000000000E+00 -0.50068257722E+03  0.50068257725E+03  0.50400000000E-02 0.  1.
          2    1    1    2    0  502  0.20219520996E+02  0.47097251946E+01 -0.30965806336E+03  0.31035322900E+03  0.25500000000E-02 0.  1.
         -2    1    1    2  502    0 -0.20219520996E+02 -0.47097251946E+01 -0.19011183226E+03  0.19124204378E+03  0.25500000000E-02 0.  1.
<mgrwt>
<rscale>  0 0.42753586E+02</rscale>
<asrwt>0</asrwt>
<pdfrwt beam="2">  1        1 0.77027870E-01 0.42753586E+02</pdfrwt>
<pdfrwt beam="1">  1       -1 0.14041403E-03 0.42753586E+02</pdfrwt>
<totfact> 0.95784660E+05</totfact>
</mgrwt>
</event>
<event>
 4    1  0.3883670E-002  0.4754587E+02  0.7818608E-02  0.1459047E+00
         -1   -1    0    0  501    0 -0.00000000000E+00  0.00000000000E+00  0.77635896123E+01  0.77635912483E+01  0.50400000000E-02 0.  1.
          1   -1    0    0    0  501  0.00000000000E+00 -0.00000000000E+00 -0.72795238258E+02  0.72795238433E+02  0.50400000000E-02 0.  1.
          2    1    1    2    0  502  0.50234289126E+01 -0.22548935989E+02 -0.42019703358E+02  0.47951484118E+02  0.25500000000E-02 0. -1.
         -2    1    1    2  502    0 -0.50234289126E+01  0.22548935989E+02 -0.23011945287E+02  0.32607345563E+02  0.25500000000E-02 0. -1.
<mgrwt>
<rscale>  0 0.47545870E+02</rscale>
<asrwt>0</asrwt>
<pdfrwt beam="2">  1        1 0.11199267E-01 0.47545870E+02</pdfrwt>
<pdfrwt beam="1">  1       -1 0.11943986E-02 0.47545870E+02</pdfrwt>
<totfact> 0.55116675E+05</totfact>
</mgrwt>
</event>
<event>
 4    1  0.3883670E-002  0.7515303E+02  0.7818608E-02  0.1343398E+00
          1   -1    0    0    0  501  0.00000000000E+00  0.00000000000E+00  0.17716762252E+04  0.17716762252E+04  0.50400000000E-02 0. -1.
         -1   -1    0    0  501    0 -0.00000000000E+00 -0.00000000000E+00 -0.79697436346E+00  0.79699029958E+00  0.50400000000E-02 0. -1.
          2    1    1    2    0  502 -0.12757945569E+02  0.35024408602E+02  0.77351643841E+03  0.77441407197E+03  0.25500000000E-02 0.  1.
         -2    1    1    2  502    0  0.12757945569E+02 -0.35024408602E+02  0.99736281247E+03  0.99805914357E+03  0.25500000000E-02 0.  1.
<mgrwt>
<rscale>  0 0.75153035E+02</rscale>
<asrwt>0</asrwt>
<pdfrwt beam="1">  1        1 0.27256406E+00 0.75153035E+02</pdfrwt>
<pdfrwt beam="2">  1       -1 0.12261335E-03 0.75153035E+02</pdfrwt>
<totfact> 0.15578171E+05</totfact>
</mgrwt>
</event>
<event>
 4    1  0.3883670E-002  0.4001628E+02  0.7818608E-02  0.1508092E+00
         -1   -1    0    0  501    0 -0.00000000000E+00  0.00000000000E+00  0.49137938006E+01  0.49137963853E+01  0.50400000000E-02 0. -1.
          1   -1    0    0    0  501  0.00000000000E+00 -0.00000000000E+00 -0.81469768567E+02  0.81469768722E+02  0.50400000000E-02 0. -1.
          2    1    1    2    0  502 -0.18018606917E+02 -0.86973910420E+01 -0.38052101136E+02  0.42991594685E+02  0.25500000000E-02 0.  1.
         -2    1    1    2  502    0  0.18018606917E+02  0.86973910420E+01 -0.38503873630E+02  0.43391970423E+02  0.25500000000E-02 0.  1.
<mgrwt>
<rscale>  0 0.40016285E+02</rscale>
<asrwt>0</asrwt>
<pdfrwt beam="2">  1        1 0.12533810E-01 0.40016285E+02</pdfrwt>
<pdfrwt beam="1">  1       -1 0.75596855E-03 0.40016285E+02</pdfrwt>
<totfact> 0.85747155E+05</totfact>
</mgrwt>
</event>
<event>
 4    1  0.3883670E-002  0.4082694E+02  0.7818608E-02  0.1502213E+00
          1   -1    0    0    0  501  0.00000000000E+00  0.00000000000E+00  0.79880874929E+03  0.79880874931E+03  0.50400000000E-02 0.  1.
         -1   -1    0    0  501    0 -0.00000000000E+00 -0.00000000000E+00 -0.52165179684E+00  0.52167614355E+00  0.50400000000E-02 0.  1.
          2    1    1    2    0  502 -0.10498049973E+02 -0.17253797736E+02  0.45724640250E+03  0.45769222759E+03  0.25500000000E-02 0.  1.
         -2    1    1    2  502    0  0.10498049973E+02  0.17253797736E+02  0.34104069500E+03  0.34163819786E+03  0.25500000000E-02 0.  1.
<mgrwt>
<rscale>  0 0.40826940E+02</rscale>
<asrwt>0</asrwt>
<pdfrwt beam="1">  1        1 0.12289358E+00 0.40826940E+02</pdfrwt>
<pdfrwt beam="2">  1       -1 0.80256047E-04 0.40826940E+02</pdfrwt>
<totfact> 0.10833273E+06</totfact>
</mgrwt>
</event>
<event>
 4    1  0.3883670E-002  0.5548969E+02  0.7818608E-02  0.1417797E+00
          1   -1    0    0    0  501  0.00000000000E+00  0.00000000000E+00  0.36560565422E+03  0.36560565425E+03  0.50400000000E-02 0.  1.
         -1   -1    0    0  501    0 -0.00000000000E+00 -0.00000000000E+00 -0.21054799720E+01  0.21054860043E+01  0.50400000000E-02 0.  1.
          2    1    1    2    0  502  0.19388431582E+02 -0.13615713757E+02  0.27743073705E+03  0.27844050138E+03  0.25500000000E-02 0.  1.
         -2    1    1    2  502    0 -0.19388431582E+02  0.13615713757E+02  0.86069437192E+02  0.89270638877E+02  0.25500000000E-02 0.  1.
<mgrwt>
<rscale>  0 0.55489693E+02</rscale>
<asrwt>0</asrwt>
<pdfrwt beam="1">  1        1 0.56246998E-01 0.55489693E+02</pdfrwt>
<pdfrwt beam="2">  1       -1 0.32392061E-03 0.55489693E+02</pdfrwt>
<totfact> 0.48066778E+05</totfact>
</mgrwt>
</event>
<event>
 4    1  0.3883670E-002  0.5246760E+02  0.7818608E-02  0.1432469E+00
          1   -1    0    0    0  501  0.00000000000E+00  0.00000000000E+00  0.13158033408E+04  0.13158033408E+04  0.50400000000E-02 0. -1.
         -1   -1    0    0  501    0 -0.00000000000E+00 -0.00000000000E+00 -0.52302372916E+00  0.52304801201E+00  0.50400000000E-02 0. -1.
          2    1    1    2    0  502 -0.18977615356E+02 -0.17983885131E+02  0.71169579351E+03  0.71217587190E+03  0.25500000000E-02 0. -1.
         -2    1    1    2  502    0  0.18977615356E+02  0.17983885131E+02  0.60358452353E+03  0.60415051689E+03  0.25500000000E-02 0. -1.
<mgrwt>
<rscale>  0 0.52467604E+02</rscale>
<asrwt>0</asrwt>
<pdfrwt beam="1">  1        1 0.20242869E+00 0.52467604E+02</pdfrwt>
<pdfrwt beam="2">  1       -1 0.80468088E-04 0.52467604E+02</pdfrwt>
<totfact> 0.50259916E+05</totfact>
</mgrwt>
</event>
<event>
 4    1  0.3883670E-002  0.1014287E+03  0.7818608E-02  0.1277320E+00
         -1   -1    0    0  501    0 -0.00000000000E+00  0.00000000000E+00  0.19439975208E+03  0.19439975215E+03  0.50400000000E-02 0.  1.
          1   -1    0    0    0  501  0.00000000000E+00 -0.00000000000E+00 -0.13230190286E+02  0.13230191245E+02  0.50400000000E-02 0.  1.
          2    1    1    2    0  502  0.39843883982E+02  0.26478740730E+02  0.12503900011E+03  0.13387834162E+03  0.25500000000E-02 0.  1.
         -2    1    1    2  502    0 -0.39843883982E+02 -0.26478740730E+02  0.56130561685E+02  0.73751601766E+02  0.25500000000E-02 0.  1.
<mgrwt>
<rscale>  0 0.10142871E+03</rscale>
<asrwt>0</asrwt>
<pdfrwt beam="2">  1        1 0.20354140E-02 0.10142871E+03</pdfrwt>
<pdfrwt beam="1">  1       -1 0.29907654E-01 0.10142871E+03</pdfrwt>
<totfact> 0.52974014E+04</totfact>
</mgrwt>
</event>
<event>
 4    1  0.3883670E-002  0.4181404E+02  0.7818608E-02  0.1495271E+00
          1   -1    0    0    0  501  0.00000000000E+00  0.00000000000E+00  0.17216693689E+04  0.17216693689E+04  0.50400000000E-02 0.  1.
         -1   -1    0    0  501    0 -0.00000000000E+00 -0.00000000000E+00 -0.25385851238E+00  0.25390853847E+00  0.50400000000E-02 0.  1.
          2    1    1    2    0  502 -0.20673928478E+02 -0.30935779654E+01  0.87508864682E+03  0.87533828966E+03  0.25500000000E-02 0. -1.
         -2    1    1    2  502    0  0.20673928478E+02  0.30935779654E+01  0.84632686358E+03  0.84658498780E+03  0.25500000000E-02 0. -1.
<mgrwt>
<rscale>  0 0.41814041E+02</rscale>
<asrwt>0</asrwt>
<pdfrwt beam="1">  1        1 0.26487571E+00 0.41814041E+02</pdfrwt>
<pdfrwt beam="2">  1       -1 0.39058488E-04 0.41814041E+02</pdfrwt>
<totfact> 0.70904603E+05</totfact>
</mgrwt>
</event>
<event>
 4    1  0.3883670E-002  0.4125898E+02  0.7818608E-02  0.1499146E+00
         -1   -1    0    0  501    0 -0.00000000000E+00  0.00000000000E+00  0.17154318615E+02  0.17154319356E+02  0.50400000000E-02 0. -1.
          1   -1    0    0    0  501  0.00000000000E+00 -0.00000000000E+00 -0.24808673206E+02  0.24808673718E+02  0.50400000000E-02 0. -1.
          2    1    1    2    0  502  0.10483835749E+02  0.17679155804E+02 -0.20328338160E+01  0.20654195259E+02  0.25500000000E-02 0.  1.
         -2    1    1    2  502    0 -0.10483835749E+02 -0.17679155804E+02 -0.56215207744E+01  0.21308797814E+02  0.25500000000E-02 0.  1.
<mgrwt>
<rscale>  0 0.41258983E+02</rscale>
<asrwt>0</asrwt>
<pdfrwt beam="2">  1        1 0.38167191E-02 0.41258983E+02</pdfrwt>
<pdfrwt beam="1">  1       -1 0.26391260E-02 0.41258983E+02</pdfrwt>
<totfact> 0.71509661E+05</totfact>
</mgrwt>
</event>
<event>
 4    1  0.3883670E-002  0.6239906E+02  0.7818608E-02  0.1388031E+00
          1   -1    0    0    0  501  0.00000000000E+00  0.00000000000E+00  0.16778419421E+03  0.16778419428E+03  0.50400000000E-02 0. -1.
         -1   -1    0    0  501    0 -0.00000000000E+00 -0.00000000000E+00 -0.58015621781E+01  0.58015643673E+01  0.50400000000E-02 0. -1.
          2    1    1    2    0  502 -0.27996724569E+02 -0.75437574909E+01  0.11303542605E+03  0.11669504022E+03  0.25500000000E-02 0. -1.
         -2    1    1    2  502    0  0.27996724569E+02  0.75437574909E+01  0.48947205985E+02  0.56890718434E+02  0.25500000000E-02 0. -1.
<mgrwt>
<rscale>  0 0.62399059E+02</rscale>
<asrwt>0</asrwt>
<pdfrwt beam="1">  1        1 0.25812953E-01 0.62399059E+02</pdfrwt>
<pdfrwt beam="2">  1       -1 0.89254820E-03 0.62399059E+02</pdfrwt>
<totfact> 0.31071609E+05</totfact>
</mgrwt>
</event>
<event>
 4    1  0.3883670E-002  0.1390725E+03  0.7818608E-02  0.1214582E+00
          1   -1    0    0    0  501  0.00000000000E+00  0.00000000000E+00  0.24447162481E+03  0.24447162486E+03  0.50400000000E-02 0. -1.
         -1   -1    0    0  501    0 -0.00000000000E+00 -0.00000000000E+00 -0.19778545426E+02  0.19778546068E+02  0.50400000000E-02 0. -1.
          2    1    1    2    0  502  0.49315458737E+02 -0.26422682244E+02  0.19080710368E+03  0.19884044716E+03  0.25500000000E-02 0.  1.
         -2    1    1    2  502    0 -0.49315458737E+02  0.26422682244E+02  0.33885975710E+02  0.65409723771E+02  0.25500000000E-02 0.  1.
<mgrwt>
<rscale>  0 0.13907255E+03</rscale>
<asrwt>0</asrwt>
<pdfrwt beam="1">  1        1 0.37611020E-01 0.13907255E+03</pdfrwt>
<pdfrwt beam="2">  1       -1 0.30428531E-02 0.13907255E+03</pdfrwt>
<totfact> 0.38774338E+04</totfact>
</mgrwt>
</event>
<event>
 4    1  0.3883670E-002  0.4761505E+02  0.7818608E-02  0.1458647E+00
          1   -1    0    0    0  501  0.00000000000E+00  0.00000000000E+00  0.97515793739E+03  0.97515793741E+03  0.50400000000E-02 0. -1.
         -1   -1    0    0  501    0 -0.00000000000E+00 -0.00000000000E+00 -0.58122640919E+00  0.58124826051E+00  0.50400000000E-02 0. -1.
          2    1    1    2    0  502 -0.15301978867E+02  0.15472374209E+02  0.68517732479E+03  0.68552280147E+03  0.25500000000E-02 0.  1.
         -2    1    1    2  502    0  0.15301978867E+02 -0.15472374209E+02  0.28939938620E+03  0.29021638420E+03  0.25500000000E-02 0.  1.
<mgrwt>
<rscale>  0 0.47615049E+02</rscale>
<asrwt>0</asrwt>
<pdfrwt beam="1">  1        1 0.15002286E+00 0.47615049E+02</pdfrwt>
<pdfrwt beam="2">  1       -1 0.89421987E-04 0.47615049E+02</pdfrwt>
<totfact> 0.72078198E+05</totfact>
</mgrwt>
</event>
<event>
 4    1  0.3883670E-002  0.4022249E+02  0.7818608E-02  0.1506581E+00
         -1   -1    0    0  501    0 -0.00000000000E+00  0.00000000000E+00  0.42682574996E+02  0.42682575293E+02  0.50400000000E-02 0.  1.
          1   -1    0    0    0  501  0.00000000000E+00 -0.00000000000E+00 -0.94760489850E+01  0.94760503253E+01  0.50400000000E-02 0.  1.
          2    1    1    2    0  502 -0.10873799853E+02  0.16904392684E+02  0.17486762256E+02  0.26641788153E+02  0.25500000000E-02 0.  1.
         -2    1    1    2  502    0  0.10873799853E+02 -0.16904392684E+02  0.15719763754E+02  0.25516837466E+02  0.25500000000E-02 0.  1.
<mgrwt>
<rscale>  0 0.40222492E+02</rscale>
<asrwt>0</asrwt>
<pdfrwt beam="2">  1        1 0.14578538E-02 0.40222492E+02</pdfrwt>
<pdfrwt beam="1">  1       -1 0.65665501E-02 0.40222492E+02</pdfrwt>
<totfact> 0.70530534E+05</totfact>
</mgrwt>
</event>
<event>
 4    1  0.3883670E-002  0.8716343E+02  0.7818608E-02  0.1309870E+00
          1   -1    0    0    0  501  0.00000000000E+00  0.00000000000E+00  0.28751808408E+03  0.28751808413E+03  0.50400000000E-02 0. -1.
         -1   -1    0    0  501    0 -0.00000000000E+00 -0.00000000000E+00 -0.66060740445E+01  0.66060759671E+01  0.50400000000E-02 0. -1.
          2    1    1    2    0  502 -0.54389332312E+00 -0.42060605752E+02  0.17892646544E+03  0.18380443525E+03  0.25500000000E-02 0. -1.
         -2    1    1    2  502    0  0.54389332312E+00  0.42060605752E+02  0.10198554460E+03  0.11031972484E+03  0.25500000000E-02 0. -1.
<mgrwt>
<rscale>  0 0.87163434E+02</rscale>
<asrwt>0</asrwt>
<pdfrwt beam="1">  1        1 0.44233537E-01 0.87163434E+02</pdfrwt>
<pdfrwt beam="2">  1       -1 0.10163196E-02 0.87163434E+02</pdfrwt>
<totfact> 0.14323788E+05</totfact>
</mgrwt>
</event>
<event>
 4    1  0.3883670E-002  0.4825853E+02  0.7818608E-02  0.1454967E+00
         -1   -1    0    0  501    0 -0.00000000000E+00  0.00000000000E+00  0.18862626641E+02  0.18862627314E+02  0.50400000000E-02 0. -1.
          1   -1    0    0    0  501  0.00000000000E+00 -0.00000000000E+00 -0.30866406915E+02  0.30866407327E+02  0.50400000000E-02 0. -1.
          2    1    1    2    0  502 -0.15704736928E+02 -0.18237482174E+02 -0.77798673036E+01  0.25293692095E+02  0.25500000000E-02 0.  1.
         -2    1    1    2  502    0  0.15704736928E+02  0.18237482174E+02 -0.42239129706E+01  0.24435342546E+02  0.25500000000E-02 0.  1.
<mgrwt>
<rscale>  0 0.48258534E+02</rscale>
<asrwt>0</asrwt>
<pdfrwt beam="2">  1        1 0.47486781E-02 0.48258534E+02</pdfrwt>
<pdfrwt beam="1">  1       -1 0.29019426E-02 0.48258534E+02</pdfrwt>
<totfact> 0.48835242E+05</totfact>
</mgrwt>
</event>
<event>
 4    1  0.3883670E-002  0.6167800E+02  0.7818608E-02  0.1390922E+00
          1   -1    0    0    0  501  0.00000000000E+00  0.00000000000E+00  0.49396230610E+02  0.49396230867E+02  0.50400000000E-02 0. -1.
         -1   -1    0    0  501    0 -0.00000000000E+00 -0.00000000000E+00 -0.19253372369E+02  0.19253373028E+02  0.50400000000E-02 0. -1.
          2    1    1    2    0  502  0.24983493637E+02 -0.16107260772E+02  0.24210856407E+02  0.38337766997E+02  0.25500000000E-02 0. -1.
         -2    1    1    2  502    0 -0.24983493637E+02  0.16107260772E+02  0.59320018344E+01  0.30311836898E+02  0.25500000000E-02 0. -1.
<mgrwt>
<rscale>  0 0.61678004E+02</rscale>
<asrwt>0</asrwt>
<pdfrwt beam="1">  1        1 0.75994201E-02 0.61678004E+02</pdfrwt>
<pdfrwt beam="2">  1       -1 0.29620574E-02 0.61678004E+02</pdfrwt>
<totfact> 0.27020057E+05</totfact>
</mgrwt>
</event>
<event>
 4    1  0.3883670E-002  0.9878718E+02  0.7818608E-02  0.1282867E+00
          1   -1    0    0    0  501  0.00000000000E+00  0.00000000000E+00  0.11736673863E+02  0.11736674945E+02  0.50400000000E-02 0.  1.
         -1   -1    0    0  501    0 -0.00000000000E+00 -0.00000000000E+00 -0.20787206872E+03  0.20787206879E+03  0.50400000000E-02 0.  1.
          2    1    1    2    0  502 -0.41934590449E+02 -0.26055252620E+02 -0.94666556184E+02  0.10676676885E+03  0.25500000000E-02 0.  1.
         -2    1    1    2  502    0  0.41934590449E+02  0.26055252620E+02 -0.10146883868E+03  0.11284197488E+03  0.25500000000E-02 0.  1.
<mgrwt>
<rscale>  0 0.98787181E+02</rscale>
<asrwt>0</asrwt>
<pdfrwt beam="1">  1        1 0.18056424E-02 0.98787181E+02</pdfrwt>
<pdfrwt beam="2">  1       -1 0.31980316E-01 0.98787181E+02</pdfrwt>
<totfact> 0.55671801E+04</totfact>
</mgrwt>
</event>
<event>
 4    1  0.3883670E-002  0.4329213E+02  0.7818608E-02  0.1485294E+00
          1   -1    0    0    0  501  0.00000000000E+00  0.00000000000E+00  0.24700786949E+02  0.24700787463E+02  0.50400000000E-02 0.  1.
         -1   -1    0    0  501    0 -0.00000000000E+00 -0.00000000000E+00 -0.18969112217E+02  0.18969112886E+02  0.50400000000E-02 0.  1.
          2    1    1    2    0  502  0.17725993565E+02  0.12265429573E+02  0.87365847057E+00  0.21573476681E+02  0.25500000000E-02 0.  1.
         -2    1    1    2  502    0 -0.17725993565E+02 -0.12265429573E+02  0.48580162620E+01  0.22096423669E+02  0.25500000000E-02 0.  1.
<mgrwt>
<rscale>  0 0.43292125E+02</rscale>
<asrwt>0</asrwt>
<pdfrwt beam="1">  1        1 0.38001212E-02 0.43292125E+02</pdfrwt>
<pdfrwt beam="2">  1       -1 0.29183250E-02 0.43292125E+02</pdfrwt>
<totfact> 0.63293076E+05</totfact>
</mgrwt>
</event>
<event>
 4    1  0.3883670E-002  0.4289335E+02  0.7818608E-02  0.1487938E+00
         -1   -1    0    0  501    0 -0.00000000000E+00  0.00000000000E+00  0.11936051181E+01  0.11936157587E+01  0.50400000000E-02 0. -1.
          1   -1    0    0    0  501  0.00000000000E+00 -0.00000000000E+00 -0.38535172005E+03  0.38535172009E+03  0.50400000000E-02 0. -1.
          2    1    1    2    0  502  0.21146577503E+02 -0.17739220443E+01 -0.16410579301E+03  0.16547216034E+03  0.25500000000E-02 0. -1.
         -2    1    1    2  502    0 -0.21146577503E+02  0.17739220443E+01 -0.22005232192E+03  0.22107317551E+03  0.25500000000E-02 0. -1.
<mgrwt>
<rscale>  0 0.42893349E+02</rscale>
<asrwt>0</asrwt>
<pdfrwt beam="2">  1        1 0.59284782E-01 0.42893349E+02</pdfrwt>
<pdfrwt beam="1">  1       -1 0.18363269E-03 0.42893349E+02</pdfrwt>
<totfact> 0.91810420E+05</totfact>
</mgrwt>
</event>
<event>
 4    1  0.3883670E-002  0.6593303E+02  0.7818608E-02  0.1374496E+00
         -1   -1    0    0  501    0 -0.00000000000E+00  0.00000000000E+00  0.55326984790E+00  0.55329280331E+00  0.50400000000E-02 0.  1.
          1   -1    0    0    0  501  0.00000000000E+00 -0.00000000000E+00 -0.19642646306E+04  0.19642646306E+04  0.50400000000E-02 0.  1.
          2    1    1    2    0  502  0.28899754281E+02 -0.82590384036E+01 -0.57830381719E+03  0.57908437425E+03  0.25500000000E-02 0.  1.
         -2    1    1    2  502    0 -0.28899754281E+02  0.82590384036E+01 -0.13854075436E+04  0.13857335492E+04  0.25500000000E-02 0.  1.
<mgrwt>
<rscale>  0 0.65933025E+02</rscale>
<asrwt>0</asrwt>
<pdfrwt beam="2">  1        1 0.30218898E+00 0.65933025E+02</pdfrwt>
<pdfrwt beam="1">  1       -1 0.85121777E-04 0.65933025E+02</pdfrwt>
<totfact> 0.19122353E+05</totfact>
</mgrwt>
</event>
<event>
 4    1  0.3883670E-002  0.4652180E+02  0.7818608E-02  0.1465059E+00
          1   -1    0    0    0  501  0.00000000000E+00  0.00000000000E+00  0.10515369599E+04  0.10515369600E+04  0.50400000000E-02 0. -1.
         -1   -1    0    0  501    0 -0.00000000000E+00 -0.00000000000E+00 -0.51453876784E+00  0.51456345110E+00  0.50400000000E-02 0. -1.
          2    1    1    2    0  502 -0.13522224058E+02  0.18790615445E+02  0.57673986411E+03  0.57720430406E+03  0.25500000000E-02 0. -1.
         -2    1    1    2  502    0  0.13522224058E+02 -0.18790615445E+02  0.47428255707E+03  0.47484721935E+03  0.25500000000E-02 0. -1.
<mgrwt>
<rscale>  0 0.46521802E+02</rscale>
<asrwt>0</asrwt>
<pdfrwt beam="1">  1        1 0.16177622E+00 0.46521802E+02</pdfrwt>
<pdfrwt beam="2">  1       -1 0.79161071E-04 0.46521802E+02</pdfrwt>
<totfact> 0.74769904E+05</totfact>
</mgrwt>
</event>
<event>
 4    1  0.3883670E-002  0.4571228E+02  0.7818608E-02  0.1469943E+00
         -1   -1    0    0  501    0 -0.00000000000E+00  0.00000000000E+00  0.17470773549E+02  0.17470774276E+02  0.50400000000E-02 0.  1.
          1   -1    0    0    0  501  0.00000000000E+00 -0.00000000000E+00 -0.29901541990E+02  0.29901542415E+02  0.50400000000E-02 0.  1.
          2    1    1    2    0  502  0.18013813108E+01  0.22784825591E+02 -0.63181718178E+01  0.23713130402E+02  0.25500000000E-02 0.  1.
         -2    1    1    2  502    0 -0.18013813108E+01 -0.22784825591E+02 -0.61125966229E+01  0.23659186289E+02  0.25500000000E-02 0.  1.
<mgrwt>
<rscale>  0 0.45712278E+02</rscale>
<asrwt>0</asrwt>
<pdfrwt beam="2">  1        1 0.46002373E-02 0.45712278E+02</pdfrwt>
<pdfrwt beam="1">  1       -1 0.26878114E-02 0.45712278E+02</pdfrwt>
<totfact> 0.55956027E+05</totfact>
</mgrwt>
</event>
<event>
 4    1  0.3883670E-002  0.5350540E+02  0.7818608E-02  0.1427302E+00
          1   -1    0    0    0  501  0.00000000000E+00  0.00000000000E+00  0.87148438101E+03  0.87148438103E+03  0.50400000000E-02 0.  1.
         -1   -1    0    0  501    0 -0.00000000000E+00 -0.00000000000E+00 -0.82124276104E+00  0.82125822624E+00  0.50400000000E-02 0.  1.
          2    1    1    2    0  502  0.15596705069E+02  0.21695391572E+02  0.41370449579E+03  0.41456646882E+03  0.25500000000E-02 0.  1.
         -2    1    1    2  502    0 -0.15596705069E+02 -0.21695391572E+02  0.45695864246E+03  0.45773917043E+03  0.25500000000E-02 0.  1.
<mgrwt>
<rscale>  0 0.53505401E+02</rscale>
<asrwt>0</asrwt>
<pdfrwt beam="1">  1        1 0.13407534E+00 0.53505401E+02</pdfrwt>
<pdfrwt beam="2">  1       -1 0.12634546E-03 0.53505401E+02</pdfrwt>
<totfact> 0.55126580E+05</totfact>
</mgrwt>
</event>
<event>
 4    1  0.3883670E-002  0.4632691E+02  0.7818608E-02  0.1466224E+00
         -1   -1    0    0  501    0 -0.00000000000E+00  0.00000000000E+00  0.10285765421E+02  0.10285766656E+02  0.50400000000E-02 0.  1.
          1   -1    0    0    0  501  0.00000000000E+00 -0.00000000000E+00 -0.52163885708E+02  0.52163885952E+02  0.50400000000E-02 0.  1.
          2    1    1    2    0  502  0.22416782170E+02 -0.38559086088E+01 -0.26840465216E+02  0.35182250263E+02  0.25500000000E-02 0.  1.
         -2    1    1    2  502    0 -0.22416782170E+02  0.38559086088E+01 -0.15037655071E+02  0.27267402344E+02  0.25500000000E-02 0.  1.
<mgrwt>
<rscale>  0 0.46326905E+02</rscale>
<asrwt>0</asrwt>
<pdfrwt beam="2">  1        1 0.80252132E-02 0.46326905E+02</pdfrwt>
<pdfrwt beam="1">  1       -1 0.15824256E-02 0.46326905E+02</pdfrwt>
<totfact> 0.56826377E+05</totfact>
</mgrwt>
</event>
<event>
 4    1  0.3883670E-002  0.9217553E+02  0.7818608E-02  0.1297667E+00
         -1   -1    0    0  501    0 -0.00000000000E+00  0.00000000000E+00  0.81803747355E+00  0.81805299934E+00  0.50400000000E-02 0. -1.
          1   -1    0    0    0  501  0.00000000000E+00 -0.00000000000E+00 -0.25965336745E+04  0.25965336745E+04  0.50400000000E-02 0. -1.
          2    1    1    2    0  502 -0.55891466952E+01 -0.45050281717E+02 -0.15220757676E+04  0.15227525764E+04  0.25500000000E-02 0. -1.
         -2    1    1    2  502    0  0.55891466952E+01  0.45050281717E+02 -0.10736398693E+04  0.10745991511E+04  0.25500000000E-02 0. -1.
<mgrwt>
<rscale>  0 0.92175529E+02</rscale>
<asrwt>0</asrwt>
<pdfrwt beam="2">  1        1 0.39946012E+00 0.92175529E+02</pdfrwt>
<pdfrwt beam="1">  1       -1 0.12585519E-03 0.92175529E+02</pdfrwt>
<totfact> 0.46366440E+04</totfact>
</mgrwt>
</event>
<event>
 4    1  0.3883670E-002  0.4836062E+02  0.7818608E-02  0.1454390E+00
          1   -1    0    0    0  501  0.00000000000E+00  0.00000000000E+00  0.28636807823E+01  0.28636852174E+01  0.50400000000E-02 0. -1.
         -1   -1    0    0  501    0 -0.00000000000E+00 -0.00000000000E+00 -0.20417319397E+03  0.20417319404E+03  0.50400000000E-02 0. -1.
          2    1    1    2    0  502 -0.19919818693E+02 -0.10188628602E+02 -0.61399105622E+02  0.65348737610E+02  0.25500000000E-02 0. -1.
         -2    1    1    2  502    0  0.19919818693E+02  0.10188628602E+02 -0.13991040757E+03  0.14168814164E+03  0.25500000000E-02 0. -1.
<mgrwt>
<rscale>  0 0.48360617E+02</rscale>
<asrwt>0</asrwt>
<pdfrwt beam="1">  1        1 0.44056678E-03 0.48360617E+02</pdfrwt>
<pdfrwt beam="2">  1       -1 0.31411249E-01 0.48360617E+02</pdfrwt>
<totfact> 0.34611207E+05</totfact>
</mgrwt>
</event>
<event>
 4    1  0.3883670E-002  0.4113588E+02  0.7818608E-02  0.1500015E+00
          1   -1    0    0    0  501  0.00000000000E+00  0.00000000000E+00  0.17529708991E+01  0.17529781444E+01  0.50400000000E-02 0.  1.
         -1   -1    0    0  501    0 -0.00000000000E+00 -0.00000000000E+00 -0.24132700944E+03  0.24132700949E+03  0.50400000000E-02 0.  1.
          2    1    1    2    0  502  0.18990357235E+01 -0.19974119548E+02 -0.14652136136E+03  0.14788874579E+03  0.25500000000E-02 0. -1.
         -2    1    1    2  502    0 -0.18990357235E+01  0.19974119548E+02 -0.93052677176E+02  0.95191241848E+02  0.25500000000E-02 0. -1.
<mgrwt>
<rscale>  0 0.41135878E+02</rscale>
<asrwt>0</asrwt>
<pdfrwt beam="1">  1        1 0.26968858E-03 0.41135878E+02</pdfrwt>
<pdfrwt beam="2">  1       -1 0.37127206E-01 0.41135878E+02</pdfrwt>
<totfact> 0.48895358E+05</totfact>
</mgrwt>
</event>
<event>
 4    1  0.3883670E-002  0.5061953E+02  0.7818608E-02  0.1442028E+00
          1   -1    0    0    0  501  0.00000000000E+00  0.00000000000E+00  0.61057812571E+03  0.61057812573E+03  0.50400000000E-02 0. -1.
         -1   -1    0    0  501    0 -0.00000000000E+00 -0.00000000000E+00 -0.10491378346E+01  0.10491499405E+01  0.50400000000E-02 0. -1.
          2    1    1    2    0  502 -0.15729012957E+02 -0.14149033178E+02  0.13690995434E+03  0.13853495080E+03  0.25500000000E-02 0.  1.
         -2    1    1    2  502    0  0.15729012957E+02  0.14149033178E+02  0.47261903353E+03  0.47309232487E+03  0.25500000000E-02 0.  1.
<mgrwt>
<rscale>  0 0.50619535E+02</rscale>
<asrwt>0</asrwt>
<pdfrwt beam="1">  1        1 0.93935286E-01 0.50619535E+02</pdfrwt>
<pdfrwt beam="2">  1       -1 0.16140643E-03 0.50619535E+02</pdfrwt>
<totfact> 0.64204943E+05</totfact>
</mgrwt>
</event>
<event>
 4    1  0.3883670E-002  0.4123238E+02  0.7818608E-02  0.1499333E+00
         -1   -1    0    0  501    0 -0.00000000000E+00  0.00000000000E+00  0.47220446207E+03  0.47220446209E+03  0.50400000000E-02 0. -1.
          1   -1    0    0    0  501  0.00000000000E+00 -0.00000000000E+00 -0.90008452331E+00  0.90009863388E+00  0.50400000000E-02 0. -1.
          2    1    1    2    0  502  0.16530154198E+02  0.11308324682E+02  0.17955443142E+03  0.18066797739E+03  0.25500000000E-02 0.  1.
         -2    1    1    2  502    0 -0.16530154198E+02 -0.11308324682E+02  0.29174994612E+03  0.29243658333E+03  0.25500000000E-02 0.  1.
<mgrwt>
<rscale>  0 0.41232379E+02</rscale>
<asrwt>0</asrwt>
<pdfrwt beam="2">  1        1 0.13847558E-03 0.41232379E+02</pdfrwt>
<pdfrwt beam="1">  1       -1 0.72646870E-01 0.41232379E+02</pdfrwt>
<totfact> 0.36200096E+05</totfact>
</mgrwt>
</event>
<event>
 4    1  0.3883670E-002  0.8862620E+02  0.7818608E-02  0.1306213E+00
         -1   -1    0    0  501    0 -0.00000000000E+00  0.00000000000E+00  0.47037249541E+02  0.47037249811E+02  0.50400000000E-02 0. -1.
          1   -1    0    0    0  501  0.00000000000E+00 -0.00000000000E+00 -0.41746720473E+02  0.41746720777E+02  0.50400000000E-02 0. -1.
          2    1    1    2    0  502 -0.16644068588E+02  0.21947217026E+02  0.37419383769E+02  0.46464132861E+02  0.25500000000E-02 0.  1.
         -2    1    1    2  502    0  0.16644068588E+02 -0.21947217026E+02 -0.32128854701E+02  0.42319837727E+02  0.25500000000E-02 0.  1.
<mgrwt>
<rscale>  0 0.88626202E+02</rscale>
<asrwt>0</asrwt>
<pdfrwt beam="2">  1        1 0.64225725E-02 0.88626202E+02</pdfrwt>
<pdfrwt beam="1">  1       -1 0.72364999E-02 0.88626202E+02</pdfrwt>
<totfact> 0.98825484E+04</totfact>
</mgrwt>
</event>
<event>
 4    1  0.3883670E-002  0.4207164E+02  0.7818608E-02  0.1493497E+00
          1   -1    0    0    0  501  0.00000000000E+00  0.00000000000E+00  0.21054047328E+02  0.21054047932E+02  0.50400000000E-02 0.  1.
         -1   -1    0    0  501    0 -0.00000000000E+00 -0.00000000000E+00 -0.21017608838E+02  0.21017609443E+02  0.50400000000E-02 0.  1.
          2    1    1    2    0  502  0.18976318914E+01  0.20050150154E+02  0.60924475733E+01  0.21041089609E+02  0.25500000000E-02 0. -1.
         -2    1    1    2  502    0 -0.18976318914E+01 -0.20050150154E+02 -0.60560090833E+01  0.21030567765E+02  0.25500000000E-02 0. -1.
<mgrwt>
<rscale>  0 0.42071642E+02</rscale>
<asrwt>0</asrwt>
<pdfrwt beam="1">  1        1 0.32390843E-02 0.42071642E+02</pdfrwt>
<pdfrwt beam="2">  1       -1 0.32334784E-02 0.42071642E+02</pdfrwt>
<totfact> 0.67220516E+05</totfact>
</mgrwt>
</event>
<event>
 4    1  0.3883670E-002  0.5826096E+02  0.7818608E-02  0.1405278E+00
          1   -1    0    0    0  501  0.00000000000E+00  0.00000000000E+00  0.16733986064E+03  0.16733986072E+03  0.50400000000E-02 0.  1.
         -1   -1    0    0  501    0 -0.00000000000E+00 -0.00000000000E+00 -0.50710252520E+01  0.50710277566E+01  0.50400000000E-02 0.  1.
          2    1    1    2    0  502  0.10266282321E+02  0.18535032448E+02  0.21975256128E+02  0.30526314369E+02  0.25500000000E-02 0. -1.
         -2    1    1    2  502    0 -0.10266282321E+02 -0.18535032448E+02  0.14029357926E+03  0.14188457411E+03  0.25500000000E-02 0. -1.
<mgrwt>
<rscale>  0 0.58260961E+02</rscale>
<asrwt>0</asrwt>
<pdfrwt beam="1">  1        1 0.25744593E-01 0.58260961E+02</pdfrwt>
<pdfrwt beam="2">  1       -1 0.78015795E-03 0.58260961E+02</pdfrwt>
<totfact> 0.37030463E+05</totfact>
</mgrwt>
</event>
<event>
 4    1  0.3883670E-002  0.4640520E+02  0.7818608E-02  0.1465755E+00
         -1   -1    0    0  501    0 -0.00000000000E+00  0.00000000000E+00  0.88042556718E+00  0.88043999282E+00  0.50400000000E-02 0.  1.
          1   -1    0    0    0  501  0.00000000000E+00 -0.00000000000E+00 -0.61147279942E+03  0.61147279944E+03  0.50400000000E-02 0.  1.
          2    1    1    2    0  502  0.13064628332E+01 -0.22059786409E+02 -0.21196950917E+03  0.21311830951E+03  0.25500000000E-02 0. -1.
         -2    1    1    2  502    0 -0.13064628332E+01  0.22059786409E+02 -0.39862286468E+03  0.39923492993E+03  0.25500000000E-02 0. -1.
<mgrwt>
<rscale>  0 0.46405203E+02</rscale>
<asrwt>0</asrwt>
<pdfrwt beam="2">  1        1 0.94072400E-01 0.46405203E+02</pdfrwt>
<pdfrwt beam="1">  1       -1 0.13545169E-03 0.46405203E+02</pdfrwt>
<totfact> 0.79598534E+05</totfact>
</mgrwt>
</event>
<event>
 4    1  0.3883670E-002  0.5276935E+02  0.7818608E-02  0.1430952E+00
          1   -1    0    0    0  501  0.00000000000E+00  0.00000000000E+00  0.70284528469E+00  0.70286335501E+00  0.50400000000E-02 0.  1.
         -1   -1    0    0  501    0 -0.00000000000E+00 -0.00000000000E+00 -0.99046277739E+03  0.99046277740E+03  0.50400000000E-02 0.  1.
          2    1    1    2    0  502  0.13159070544E+02 -0.22009962421E+02 -0.37825676945E+03  0.37912502321E+03  0.25500000000E-02 0.  1.
         -2    1    1    2  502    0 -0.13159070544E+02  0.22009962421E+02 -0.61150316265E+03  0.61204061754E+03  0.25500000000E-02 0.  1.
<mgrwt>
<rscale>  0 0.52769349E+02</rscale>
<asrwt>0</asrwt>
<pdfrwt beam="1">  1        1 0.10813223E-03 0.52769349E+02</pdfrwt>
<pdfrwt beam="2">  1       -1 0.15237777E+00 0.52769349E+02</pdfrwt>
<totfact> 0.10543026E+05</totfact>
</mgrwt>
</event>
<event>
 4    1  0.3883670E-002  0.5041777E+02  0.7818608E-02  0.1443101E+00
          1   -1    0    0    0  501  0.00000000000E+00  0.00000000000E+00  0.18288903114E+04  0.18288903114E+04  0.50400000000E-02 0. -1.
         -1   -1    0    0  501    0 -0.00000000000E+00 -0.00000000000E+00 -0.34745355902E+00  0.34749011104E+00  0.50400000000E-02 0. -1.
          2    1    1    2    0  502 -0.16079118002E+02  0.18180434703E+02  0.11614704576E+04  0.11617240163E+04  0.25500000000E-02 0.  1.
         -2    1    1    2  502    0  0.16079118002E+02 -0.18180434703E+02  0.66707240026E+03  0.66751378520E+03  0.25500000000E-02 0.  1.
<mgrwt>
<rscale>  0 0.50417770E+02</rscale>
<asrwt>0</asrwt>
<pdfrwt beam="1">  1        1 0.28137623E+00 0.50417770E+02</pdfrwt>
<pdfrwt beam="2">  1       -1 0.53455593E-04 0.50417770E+02</pdfrwt>
<totfact> 0.41574472E+05</totfact>
</mgrwt>
</event>
<event>
 4    1  0.3883670E-002  0.4393947E+02  0.7818608E-02  0.1481073E+00
         -1   -1    0    0  501    0 -0.00000000000E+00  0.00000000000E+00  0.28001947916E+01  0.28001993273E+01  0.50400000000E-02 0.  1.
          1   -1    0    0    0  501  0.00000000000E+00 -0.00000000000E+00 -0.17236971867E+03  0.17236971875E+03  0.50400000000E-02 0.  1.
          2    1    1    2    0  502 -0.22202565393E+01  0.20631153754E+02 -0.56010555729E+02  0.59730699007E+02  0.25500000000E-02 0. -1.
         -2    1    1    2  502    0  0.22202565393E+01 -0.20631153754E+02 -0.11355896815E+03  0.11543921907E+03  0.25500000000E-02 0. -1.
<mgrwt>
<rscale>  0 0.43939467E+02</rscale>
<asrwt>0</asrwt>
<pdfrwt beam="2">  1        1 0.26518410E-01 0.43939467E+02</pdfrwt>
<pdfrwt beam="1">  1       -1 0.43079969E-03 0.43939467E+02</pdfrwt>
<totfact> 0.75586159E+05</totfact>
</mgrwt>
</event>
<event>
 4    1  0.3883670E-002  0.6572580E+02  0.7818608E-02  0.1375262E+00
          1   -1    0    0    0  501  0.00000000000E+00  0.00000000000E+00  0.11545950118E+02  0.11545951218E+02  0.50400000000E-02 0. -1.
         -1   -1    0    0  501    0 -0.00000000000E+00 -0.00000000000E+00 -0.93536704717E+02  0.93536704853E+02  0.50400000000E-02 0. -1.
          2    1    1    2    0  502  0.19273720670E+02 -0.26170734346E+02 -0.48760123870E+02  0.58599772448E+02  0.25500000000E-02 0.  1.
         -2    1    1    2  502    0 -0.19273720670E+02  0.26170734346E+02 -0.33230630730E+02  0.46482883622E+02  0.25500000000E-02 0.  1.
<mgrwt>
<rscale>  0 0.65725800E+02</rscale>
<asrwt>0</asrwt>
<pdfrwt beam="1">  1        1 0.17763002E-02 0.65725800E+02</pdfrwt>
<pdfrwt beam="2">  1       -1 0.14390262E-01 0.65725800E+02</pdfrwt>
<totfact> 0.18986677E+05</totfact>
</mgrwt>
</event>
<event>
 4    1  0.3883670E-002  0.4047089E+02  0.7818608E-02  0.1504775E+00
         -1   -1    0    0  501    0 -0.00000000000E+00  0.00000000000E+00  0.14152229854E+01  0.14152319598E+01  0.50400000000E-02 0. -1.
          1   -1    0    0    0  501  0.00000000000E+00 -0.00000000000E+00 -0.28933388481E+03  0.28933388485E+03  0.50400000000E-02 0. -1.
          2    1    1    2    0  502 -0.12944053003E+02 -0.15540412819E+02 -0.14861702370E+03  0.14998690836E+03  0.25500000000E-02 0. -1.
         -2    1    1    2  502    0  0.12944053003E+02  0.15540412819E+02 -0.13930163812E+03  0.14076220845E+03  0.25500000000E-02 0. -1.
<mgrwt>
<rscale>  0 0.40470892E+02</rscale>
<asrwt>0</asrwt>
<pdfrwt beam="2">  1        1 0.44512859E-01 0.40470892E+02</pdfrwt>
<pdfrwt beam="1">  1       -1 0.21772754E-03 0.40470892E+02</pdfrwt>
<totfact> 0.10094878E+06</totfact>
</mgrwt>
</event>
<event>
 4    1  0.3883670E-002  0.5014244E+02  0.7818608E-02  0.1444575E+00
          1   -1    0    0    0  501  0.00000000000E+00  0.00000000000E+00  0.18546445986E+04  0.18546445986E+04  0.50400000000E-02 0. -1.
         -1   -1    0    0  501    0 -0.00000000000E+00 -0.00000000000E+00 -0.33889581348E+00  0.33893328841E+00  0.50400000000E-02 0. -1.
          2    1    1    2    0  502  0.21580842131E+02  0.19428990079E+01  0.46058698192E+03  0.46109638420E+03  0.25500000000E-02 0. -1.
         -2    1    1    2  502    0 -0.21580842131E+02 -0.19428990079E+01  0.13937187209E+04  0.13938871477E+04  0.25500000000E-02 0. -1.
<mgrwt>
<rscale>  0 0.50142439E+02</rscale>
<asrwt>0</asrwt>
<pdfrwt beam="1">  1        1 0.28532885E+00 0.50142439E+02</pdfrwt>
<pdfrwt beam="2">  1       -1 0.52140900E-04 0.50142439E+02</pdfrwt>
<totfact> 0.41423371E+05</totfact>
</mgrwt>
</event>
<event>
 4    1  0.3883670E-002  0.8269235E+02  0.7818608E-02  0.1321580E+00
          1   -1    0    0    0  501  0.00000000000E+00  0.00000000000E+00  0.14300919672E+04  0.14300919672E+04  0.50400000000E-02 0.  1.
         -1   -1    0    0  501    0 -0.00000000000E+00 -0.00000000000E+00 -0.11953767380E+01  0.11953873629E+01  0.50400000000E-02 0.  1.
          2    1    1    2    0  502  0.22212759336E+02 -0.22433226753E+02  0.25232214425E+03  0.25428944301E+03  0.25500000000E-02 0.  1.
         -2    1    1    2  502    0 -0.22212759336E+02  0.22433226753E+02  0.11765744462E+04  0.11769979115E+04  0.25500000000E-02 0.  1.
<mgrwt>
<rscale>  0 0.82692352E+02</rscale>
<asrwt>0</asrwt>
<pdfrwt beam="1">  1        1 0.22001569E+00 0.82692352E+02</pdfrwt>
<pdfrwt beam="2">  1       -1 0.18390365E-03 0.82692352E+02</pdfrwt>
<totfact> 0.14834158E+05</totfact>
</mgrwt>
</event>
<event>
 4    1  0.3883670E-002  0.4376029E+02  0.7818608E-02  0.1482233E+00
          1   -1    0    0    0  501  0.00000000000E+00  0.00000000000E+00  0.78612377848E+03  0.78612377850E+03  0.50400000000E-02 0.  1.
         -1   -1    0    0  501    0 -0.00000000000E+00 -0.00000000000E+00 -0.60897865930E+00  0.60899951485E+00  0.50400000000E-02 0.  1.
          2    1    1    2    0  502 -0.38013565464E+01  0.20395801471E+02  0.26780960799E+03  0.26861203467E+03  0.25500000000E-02 0. -1.
         -2    1    1    2  502    0  0.38013565464E+01 -0.20395801471E+02  0.51770519183E+03  0.51812074334E+03  0.25500000000E-02 0. -1.
<mgrwt>
<rscale>  0 0.43760293E+02</rscale>
<asrwt>0</asrwt>
<pdfrwt beam="1">  1        1 0.12094227E+00 0.43760293E+02</pdfrwt>
<pdfrwt beam="2">  1       -1 0.93690513E-04 0.43760293E+02</pdfrwt>
<totfact> 0.91632834E+05</totfact>
</mgrwt>
</event>
<event>
 4    1  0.3883670E-002  0.5687583E+02  0.7818608E-02  0.1411431E+00
          1   -1    0    0    0  501  0.00000000000E+00  0.00000000000E+00  0.53415677661E+03  0.53415677663E+03  0.50400000000E-02 0. -1.
         -1   -1    0    0  501    0 -0.00000000000E+00 -0.00000000000E+00 -0.15139988195E+01  0.15140072084E+01  0.50400000000E-02 0. -1.
          2    1    1    2    0  502 -0.17881323796E+02  0.10029751124E+02  0.45192958693E+03  0.45239439563E+03  0.25500000000E-02 0.  1.
         -2    1    1    2  502    0  0.17881323796E+02 -0.10029751124E+02  0.80713190863E+02  0.83276388215E+02  0.25500000000E-02 0.  1.
<mgrwt>
<rscale>  0 0.56875829E+02</rscale>
<asrwt>0</asrwt>
<pdfrwt beam="1">  1        1 0.82178072E-01 0.56875829E+02</pdfrwt>
<pdfrwt beam="2">  1       -1 0.23292324E-03 0.56875829E+02</pdfrwt>
<totfact> 0.47518211E+05</totfact>
</mgrwt>
</event>
<event>
 4    1  0.3883670E-002  0.6742445E+02  0.7818608E-02  0.1369077E+00
          1   -1    0    0    0  501  0.00000000000E+00  0.00000000000E+00  0.51319134606E+02  0.51319134853E+02  0.50400000000E-02 0. -1.
         -1   -1    0    0  501    0 -0.00000000000E+00 -0.00000000000E+00 -0.22146013255E+02  0.22146013829E+02  0.50400000000E-02 0. -1.
          2    1    1    2    0  502 -0.82713875456E+01 -0.32595493058E+02  0.12000703884E+02  0.35705726709E+02  0.25500000000E-02 0. -1.
         -2    1    1    2  502    0  0.82713875456E+01  0.32595493058E+02  0.17172417467E+02  0.37759421973E+02  0.25500000000E-02 0. -1.
<mgrwt>
<rscale>  0 0.67424454E+02</rscale>
<asrwt>0</asrwt>
<pdfrwt beam="1">  1        1 0.78952516E-02 0.67424454E+02</pdfrwt>
<pdfrwt beam="2">  1       -1 0.34070790E-02 0.67424454E+02</pdfrwt>
<totfact> 0.21432751E+05</totfact>
</mgrwt>
</event>
<event>
 4    1  0.3883670E-002  0.4731218E+02  0.7818608E-02  0.1460403E+00
          1   -1    0    0    0  501  0.00000000000E+00  0.00000000000E+00  0.39990025046E+03  0.39990025049E+03  0.50400000000E-02 0.  1.
         -1   -1    0    0  501    0 -0.00000000000E+00 -0.00000000000E+00 -0.13993708251E+01  0.13993799012E+01  0.50400000000E-02 0.  1.
          2    1    1    2    0  502 -0.16481047528E+02 -0.15270284347E+02  0.26204212622E+03  0.26300357875E+03  0.25500000000E-02 0. -1.
         -2    1    1    2  502    0  0.16481047528E+02  0.15270284347E+02  0.13645875341E+03  0.13829605164E+03  0.25500000000E-02 0. -1.
<mgrwt>
<rscale>  0 0.47312179E+02</rscale>
<asrwt>0</asrwt>
<pdfrwt beam="1">  1        1 0.61523237E-01 0.47312179E+02</pdfrwt>
<pdfrwt beam="2">  1       -1 0.21528810E-03 0.47312179E+02</pdfrwt>
<totfact> 0.72566598E+05</totfact>
</mgrwt>
</event>
<event>
 4    1  0.3883670E-002  0.4793093E+02  0.7818608E-02  0.1456832E+00
          1   -1    0    0    0  501  0.00000000000E+00  0.00000000000E+00  0.58861546821E+03  0.58861546823E+03  0.50400000000E-02 0. -1.
         -1   -1    0    0  501    0 -0.00000000000E+00 -0.00000000000E+00 -0.97574685521E+00  0.97575987161E+00  0.50400000000E-02 0. -1.
          2    1    1    2    0  502 -0.15042775846E+02  0.17068249426E+02  0.38647171515E+03  0.38714079720E+03  0.25500000000E-02 0. -1.
         -2    1    1    2  502    0  0.15042775846E+02 -0.17068249426E+02  0.20116800620E+03  0.20245043090E+03  0.25500000000E-02 0. -1.
<mgrwt>
<rscale>  0 0.47930931E+02</rscale>
<asrwt>0</asrwt>
<pdfrwt beam="1">  1        1 0.90556629E-01 0.47930931E+02</pdfrwt>
<pdfrwt beam="2">  1       -1 0.15011524E-03 0.47930931E+02</pdfrwt>
<totfact> 0.73356557E+05</totfact>
</mgrwt>
</event>
<event>
 4    1  0.3883670E-002  0.4427207E+02  0.7818608E-02  0.1478938E+00
          1   -1    0    0    0  501  0.00000000000E+00  0.00000000000E+00  0.23415888634E+01  0.23415942874E+01  0.50400000000E-02 0.  1.
         -1   -1    0    0  501    0 -0.00000000000E+00 -0.00000000000E+00 -0.20926113771E+03  0.20926113777E+03  0.50400000000E-02 0.  1.
          2    1    1    2    0  502  0.20634425858E+02 -0.78384027729E+01 -0.95484810240E+02  0.98002903435E+02  0.25500000000E-02 0.  1.
         -2    1    1    2  502    0 -0.20634425858E+02  0.78384027729E+01 -0.11143473861E+03  0.11359982863E+03  0.25500000000E-02 0.  1.
<mgrwt>
<rscale>  0 0.44272074E+02</rscale>
<asrwt>0</asrwt>
<pdfrwt beam="1">  1        1 0.36024503E-03 0.44272074E+02</pdfrwt>
<pdfrwt beam="2">  1       -1 0.32194007E-01 0.44272074E+02</pdfrwt>
<totfact> 0.42703848E+05</totfact>
</mgrwt>
</event>
<event>
 4    1  0.3883670E-002  0.4834306E+02  0.7818608E-02  0.1454489E+00
          1   -1    0    0    0  501  0.00000000000E+00  0.00000000000E+00  0.24334943067E+02  0.24334943589E+02  0.50400000000E-02 0. -1.
         -1   -1    0    0  501    0 -0.00000000000E+00 -0.00000000000E+00 -0.24009208740E+02  0.24009209269E+02  0.50400000000E-02 0. -1.
          2    1    1    2    0  502  0.17791445822E+02 -0.11571756061E+02 -0.11405526824E+02  0.24094130642E+02  0.25500000000E-02 0.  1.
         -2    1    1    2  502    0 -0.17791445822E+02  0.11571756061E+02  0.11731261151E+02  0.24250022216E+02  0.25500000000E-02 0.  1.
<mgrwt>
<rscale>  0 0.48343055E+02</rscale>
<asrwt>0</asrwt>
<pdfrwt beam="1">  1        1 0.37438374E-02 0.48343055E+02</pdfrwt>
<pdfrwt beam="2">  1       -1 0.36937245E-02 0.48343055E+02</pdfrwt>
<totfact> 0.47619498E+05</totfact>
</mgrwt>
</event>
<event>
 4    1  0.3883670E-002  0.5578949E+02  0.7818608E-02  0.1416402E+00
         -1   -1    0    0  501    0 -0.00000000000E+00  0.00000000000E+00  0.16481005614E+01  0.16481082677E+01  0.50400000000E-02 0.  1.
          1   -1    0    0    0  501  0.00000000000E+00 -0.00000000000E+00 -0.47212828409E+03  0.47212828412E+03  0.50400000000E-02 0.  1.
          2    1    1    2    0  502  0.11158603682E+01 -0.25066682839E+02 -0.33873822046E+03  0.33966625641E+03  0.25500000000E-02 0.  1.
         -2    1    1    2  502    0 -0.11158603682E+01  0.25066682839E+02 -0.13174196306E+03  0.13411013597E+03  0.25500000000E-02 0.  1.
<mgrwt>
<rscale>  0 0.55789487E+02</rscale>
<asrwt>0</asrwt>
<pdfrwt beam="2">  1        1 0.72635013E-01 0.55789487E+02</pdfrwt>
<pdfrwt beam="1">  1       -1 0.25355490E-03 0.55789487E+02</pdfrwt>
<totfact> 0.49220628E+05</totfact>
</mgrwt>
</event>
<event>
 4    1  0.3883670E-002  0.4750189E+02  0.7818608E-02  0.1459301E+00
         -1   -1    0    0  501    0 -0.00000000000E+00  0.00000000000E+00  0.13252600496E+01  0.13252696332E+01  0.50400000000E-02 0. -1.
          1   -1    0    0    0  501  0.00000000000E+00 -0.00000000000E+00 -0.42565636065E+03  0.42565636068E+03  0.50400000000E-02 0. -1.
          2    1    1    2    0  502  0.19359640957E+02 -0.13144611531E+02 -0.17561898173E+03  0.17717111294E+03  0.25500000000E-02 0.  1.
         -2    1    1    2  502    0 -0.19359640957E+02  0.13144611531E+02 -0.24871211887E+03  0.24981051737E+03  0.25500000000E-02 0.  1.
<mgrwt>
<rscale>  0 0.47501891E+02</rscale>
<asrwt>0</asrwt>
<pdfrwt beam="2">  1        1 0.65485486E-01 0.47501891E+02</pdfrwt>
<pdfrwt beam="1">  1       -1 0.20388724E-03 0.47501891E+02</pdfrwt>
<totfact> 0.72506157E+05</totfact>
</mgrwt>
</event>
<event>
 4    1  0.3883670E-002  0.4463552E+02  0.7818608E-02  0.1476630E+00
         -1   -1    0    0  501    0 -0.00000000000E+00  0.00000000000E+00  0.42189721191E+01  0.42189751295E+01  0.50400000000E-02 0. -1.
          1   -1    0    0    0  501  0.00000000000E+00 -0.00000000000E+00 -0.11805773652E+03  0.11805773663E+03  0.50400000000E-02 0. -1.
          2    1    1    2    0  502 -0.96714087303E+01 -0.19489633655E+02 -0.70534334759E+02  0.73813781594E+02  0.25500000000E-02 0. -1.
         -2    1    1    2  502    0  0.96714087303E+01  0.19489633655E+02 -0.43304429640E+02  0.48462930161E+02  0.25500000000E-02 0. -1.
<mgrwt>
<rscale>  0 0.44635523E+02</rscale>
<asrwt>0</asrwt>
<pdfrwt beam="2">  1        1 0.18162726E-01 0.44635523E+02</pdfrwt>
<pdfrwt beam="1">  1       -1 0.64907296E-03 0.44635523E+02</pdfrwt>
<totfact> 0.68630634E+05</totfact>
</mgrwt>
</event>
<event>
 4    1  0.3883670E-002  0.6881356E+02  0.7818608E-02  0.1364175E+00
          1   -1    0    0    0  501  0.00000000000E+00  0.00000000000E+00  0.13665715668E+03  0.13665715678E+03  0.50400000000E-02 0. -1.
         -1   -1    0    0  501    0 -0.00000000000E+00 -0.00000000000E+00 -0.86627484207E+01  0.86627498868E+01  0.50400000000E-02 0. -1.
          2    1    1    2    0  502  0.20655537430E+02 -0.27412386062E+02  0.69055171489E+02  0.77114893840E+02  0.25500000000E-02 0. -1.
         -2    1    1    2  502    0 -0.20655537430E+02  0.27412386062E+02  0.58939236773E+02  0.68205012822E+02  0.25500000000E-02 0. -1.
<mgrwt>
<rscale>  0 0.68813565E+02</rscale>
<asrwt>0</asrwt>
<pdfrwt beam="1">  1        1 0.21024177E-01 0.68813565E+02</pdfrwt>
<pdfrwt beam="2">  1       -1 0.13327307E-02 0.68813565E+02</pdfrwt>
<totfact> 0.23286941E+05</totfact>
</mgrwt>
</event>
<event>
 4    1  0.3883670E-002  0.6212846E+02  0.7818608E-02  0.1389111E+00
          1   -1    0    0    0  501  0.00000000000E+00  0.00000000000E+00  0.16800456233E+01  0.16800531830E+01  0.50400000000E-02 0. -1.
         -1   -1    0    0  501    0 -0.00000000000E+00 -0.00000000000E+00 -0.57437981324E+03  0.57437981327E+03  0.50400000000E-02 0. -1.
          2    1    1    2    0  502 -0.50773692391E+01 -0.29960286727E+02 -0.34614436163E+03  0.34747563592E+03  0.25500000000E-02 0. -1.
         -2    1    1    2  502    0  0.50773692391E+01  0.29960286727E+02 -0.22655540599E+03  0.22858423053E+03  0.25500000000E-02 0. -1.
<mgrwt>
<rscale>  0 0.62128463E+02</rscale>
<asrwt>0</asrwt>
<pdfrwt beam="1">  1        1 0.25846960E-03 0.62128463E+02</pdfrwt>
<pdfrwt beam="2">  1       -1 0.88365969E-01 0.62128463E+02</pdfrwt>
<totfact> 0.11557611E+05</totfact>
</mgrwt>
</event>
<event>
 4    1  0.3883670E-002  0.5289617E+02  0.7818608E-02  0.1430318E+00
         -1   -1    0    0  501    0 -0.00000000000E+00  0.00000000000E+00  0.13704857930E+03  0.13704857940E+03  0.50400000000E-02 0. -1.
          1   -1    0    0    0  501  0.00000000000E+00 -0.00000000000E+00 -0.51040362816E+01  0.51040387700E+01  0.50400000000E-02 0. -1.
          2    1    1    2    0  502  0.23017951602E+02 -0.26301399074E+01  0.10025702187E+03  0.10289904846E+03  0.25500000000E-02 0. -1.
         -2    1    1    2  502    0 -0.23017951602E+02  0.26301399074E+01  0.31687521148E+02  0.39253569709E+02  0.25500000000E-02 0. -1.
<mgrwt>
<rscale>  0 0.52896166E+02</rscale>
<asrwt>0</asrwt>
<pdfrwt beam="2">  1        1 0.78523663E-03 0.52896166E+02</pdfrwt>
<pdfrwt beam="1">  1       -1 0.21084395E-01 0.52896166E+02</pdfrwt>
<totfact> 0.30525052E+05</totfact>
</mgrwt>
</event>
<event>
 4    1  0.3883670E-002  0.6564569E+02  0.7818608E-02  0.1375559E+00
         -1   -1    0    0  501    0 -0.00000000000E+00  0.00000000000E+00  0.14070928312E+01  0.14071018575E+01  0.50400000000E-02 0. -1.
          1   -1    0    0    0  501  0.00000000000E+00 -0.00000000000E+00 -0.76564646797E+03  0.76564646799E+03  0.50400000000E-02 0. -1.
          2    1    1    2    0  502 -0.18537077668E+02 -0.26296040959E+02 -0.30618309549E+03  0.30786879184E+03  0.25500000000E-02 0.  1.
         -2    1    1    2  502    0  0.18537077668E+02  0.26296040959E+02 -0.45805627965E+03  0.45918477801E+03  0.25500000000E-02 0.  1.
<mgrwt>
<rscale>  0 0.65645689E+02</rscale>
<asrwt>0</asrwt>
<pdfrwt beam="2">  1        1 0.11779143E+00 0.65645689E+02</pdfrwt>
<pdfrwt beam="1">  1       -1 0.21647713E-03 0.65645689E+02</pdfrwt>
<totfact> 0.33315880E+05</totfact>
</mgrwt>
</event>
<event>
 4    1  0.3883670E-002  0.1219273E+03  0.7818608E-02  0.1239951E+00
          1   -1    0    0    0  501  0.00000000000E+00  0.00000000000E+00  0.77945725796E+03  0.77945725797E+03  0.50400000000E-02 0.  1.
         -1   -1    0    0  501    0 -0.00000000000E+00 -0.00000000000E+00 -0.47681460003E+01  0.47681486640E+01  0.50400000000E-02 0.  1.
          2    1    1    2    0  502  0.41841435235E+02  0.34556354866E+02  0.56602199355E+03  0.56861739734E+03  0.25500000000E-02 0. -1.
         -2    1    1    2  502    0 -0.41841435235E+02 -0.34556354866E+02  0.20866711840E+03  0.21560800930E+03  0.25500000000E-02 0. -1.
<mgrwt>
<rscale>  0 0.12192731E+03</rscale>
<asrwt>0</asrwt>
<pdfrwt beam="1">  1        1 0.11991635E+00 0.12192731E+03</pdfrwt>
<pdfrwt beam="2">  1       -1 0.73356203E-03 0.12192731E+03</pdfrwt>
<totfact> 0.64964109E+04</totfact>
</mgrwt>
</event>
<event>
 4    1  0.3883670E-002  0.4569221E+02  0.7818608E-02  0.1470066E+00
         -1   -1    0    0  501    0 -0.00000000000E+00  0.00000000000E+00  0.12307709464E+01  0.12307812657E+01  0.50400000000E-02 0. -1.
          1   -1    0    0    0  501  0.00000000000E+00 -0.00000000000E+00 -0.42407760199E+03  0.42407760202E+03  0.50400000000E-02 0. -1.
          2    1    1    2    0  502  0.16535429366E+02  0.13188624114E+02 -0.29181037771E+03  0.29257589917E+03  0.25500000000E-02 0.  1.
         -2    1    1    2  502    0 -0.16535429366E+02 -0.13188624114E+02 -0.13103645334E+03  0.13273248412E+03  0.25500000000E-02 0.  1.
<mgrwt>
<rscale>  0 0.45692213E+02</rscale>
<asrwt>0</asrwt>
<pdfrwt beam="2">  1        1 0.65242592E-01 0.45692213E+02</pdfrwt>
<pdfrwt beam="1">  1       -1 0.18935051E-03 0.45692213E+02</pdfrwt>
<totfact> 0.79749337E+05</totfact>
</mgrwt>
</event>
<event>
 4    1  0.3883670E-002  0.6397698E+02  0.7818608E-02  0.1381862E+00
          1   -1    0    0    0  501  0.00000000000E+00  0.00000000000E+00  0.70382569801E+01  0.70382587846E+01  0.50400000000E-02 0.  1.
         -1   -1    0    0  501    0 -0.00000000000E+00 -0.00000000000E+00 -0.14538591382E+03  0.14538591390E+03  0.50400000000E-02 0.  1.
          2    1    1    2    0  502  0.13238660386E+02  0.28255967677E+02 -0.52394349369E+02  0.60982207983E+02  0.25500000000E-02 0.  1.
         -2    1    1    2  502    0 -0.13238660386E+02 -0.28255967677E+02 -0.85953307466E+02  0.91441964705E+02  0.25500000000E-02 0.  1.
<mgrwt>
<rscale>  0 0.63976982E+02</rscale>
<asrwt>0</asrwt>
<pdfrwt beam="1">  1        1 0.10828090E-02 0.63976982E+02</pdfrwt>
<pdfrwt beam="2">  1       -1 0.22367062E-01 0.63976982E+02</pdfrwt>
<totfact> 0.18694235E+05</totfact>
</mgrwt>
</event>
<event>
 4    1  0.3883670E-002  0.6547631E+02  0.7818608E-02  0.1376189E+00
          1   -1    0    0    0  501  0.00000000000E+00  0.00000000000E+00  0.32269962361E+03  0.32269962365E+03  0.50400000000E-02 0.  1.
         -1   -1    0    0  501    0 -0.00000000000E+00 -0.00000000000E+00 -0.33213120103E+01  0.33213158343E+01  0.50400000000E-02 0.  1.
          2    1    1    2    0  502 -0.12275150944E+02 -0.24577731749E+02  0.24834759197E+03  0.24986250353E+03  0.25500000000E-02 0. -1.
         -2    1    1    2  502    0  0.12275150944E+02  0.24577731749E+02  0.71030719629E+02  0.76158435948E+02  0.25500000000E-02 0. -1.
<mgrwt>
<rscale>  0 0.65476309E+02</rscale>
<asrwt>0</asrwt>
<pdfrwt beam="1">  1        1 0.49646099E-01 0.65476309E+02</pdfrwt>
<pdfrwt beam="2">  1       -1 0.51097135E-03 0.65476309E+02</pdfrwt>
<totfact> 0.30884660E+05</totfact>
</mgrwt>
</event>
<event>
 4    1  0.3883670E-002  0.7102818E+02  0.7818608E-02  0.1356631E+00
          1   -1    0    0    0  501  0.00000000000E+00  0.00000000000E+00  0.16561332478E+01  0.16561409167E+01  0.50400000000E-02 0.  1.
         -1   -1    0    0  501    0 -0.00000000000E+00 -0.00000000000E+00 -0.76156169758E+03  0.76156169760E+03  0.50400000000E-02 0.  1.
          2    1    1    2    0  502 -0.25100668127E+02  0.25120556352E+02 -0.37559223457E+03  0.37726729592E+03  0.25500000000E-02 0.  1.
         -2    1    1    2  502    0  0.25100668127E+02 -0.25120556352E+02 -0.38431332976E+03  0.38595054259E+03  0.25500000000E-02 0.  1.
<mgrwt>
<rscale>  0 0.71028180E+02</rscale>
<asrwt>0</asrwt>
<pdfrwt beam="1">  1        1 0.25479093E-03 0.71028180E+02</pdfrwt>
<pdfrwt beam="2">  1       -1 0.11716306E+00 0.71028180E+02</pdfrwt>
<totfact> 0.65463447E+04</totfact>
</mgrwt>
</event>
<event>
 4    1  0.3883670E-002  0.7391343E+02  0.7818608E-02  0.1347269E+00
          1   -1    0    0    0  501  0.00000000000E+00  0.00000000000E+00  0.78683488701E+03  0.78683488703E+03  0.50400000000E-02 0.  1.
         -1   -1    0    0  501    0 -0.00000000000E+00 -0.00000000000E+00 -0.17358098913E+01  0.17358172082E+01  0.50400000000E-02 0.  1.
          2    1    1    2    0  502 -0.63642362904E+01 -0.36026282469E+02  0.44839777717E+03  0.44988772278E+03  0.25500000000E-02 0. -1.
         -2    1    1    2  502    0  0.63642362904E+01  0.36026282469E+02  0.33670129995E+03  0.33868298145E+03  0.25500000000E-02 0. -1.
<mgrwt>
<rscale>  0 0.73913427E+02</rscale>
<asrwt>0</asrwt>
<pdfrwt beam="1">  1        1 0.12105143E+00 0.73913427E+02</pdfrwt>
<pdfrwt beam="2">  1       -1 0.26704844E-03 0.73913427E+02</pdfrwt>
<totfact> 0.24505738E+05</totfact>
</mgrwt>
</event>
<event>
 4    1  0.3883670E-002  0.9191933E+02  0.7818608E-02  0.1298269E+00
         -1   -1    0    0  501    0 -0.00000000000E+00  0.00000000000E+00  0.12738838775E+01  0.12738938476E+01  0.50400000000E-02 0.  1.
          1   -1    0    0    0  501  0.00000000000E+00 -0.00000000000E+00 -0.16581436243E+04  0.16581436243E+04  0.50400000000E-02 0.  1.
          2    1    1    2    0  502 -0.17552646561E+02  0.37203190972E+02 -0.11984627218E+04  0.11991684904E+04  0.25500000000E-02 0.  1.
         -2    1    1    2  502    0  0.17552646561E+02 -0.37203190972E+02 -0.45840701857E+03  0.46024902770E+03  0.25500000000E-02 0.  1.
<mgrwt>
<rscale>  0 0.91919328E+02</rscale>
<asrwt>0</asrwt>
<pdfrwt beam="2">  1        1 0.25509729E+00 0.91919328E+02</pdfrwt>
<pdfrwt beam="1">  1       -1 0.19598423E-03 0.91919328E+02</pdfrwt>
<totfact> 0.98659313E+04</totfact>
</mgrwt>
</event>
<event>
 4    1  0.3883670E-002  0.7368384E+02  0.7818608E-02  0.1347996E+00
         -1   -1    0    0  501    0 -0.00000000000E+00  0.00000000000E+00  0.37016532952E+01  0.37016567263E+01  0.50400000000E-02 0. -1.
          1   -1    0    0    0  501  0.00000000000E+00 -0.00000000000E+00 -0.36668115749E+03  0.36668115752E+03  0.50400000000E-02 0. -1.
          2    1    1    2    0  502  0.11877564765E+02  0.34085291765E+02 -0.21857930037E+03  0.22153959966E+03  0.25500000000E-02 0.  1.
         -2    1    1    2  502    0 -0.11877564765E+02 -0.34085291765E+02 -0.14440020382E+03  0.14884321459E+03  0.25500000000E-02 0.  1.
<mgrwt>
<rscale>  0 0.73683842E+02</rscale>
<asrwt>0</asrwt>
<pdfrwt beam="2">  1        1 0.56412457E-01 0.73683842E+02</pdfrwt>
<pdfrwt beam="1">  1       -1 0.56948568E-03 0.73683842E+02</pdfrwt>
<totfact> 0.23268030E+05</totfact>
</mgrwt>
</event>
<event>
 4    1  0.3883670E-002  0.5313935E+02  0.7818608E-02  0.1429109E+00
         -1   -1    0    0  501    0 -0.00000000000E+00  0.00000000000E+00  0.53104065487E+01  0.53104089404E+01  0.50400000000E-02 0. -1.
          1   -1    0    0    0  501  0.00000000000E+00 -0.00000000000E+00 -0.13293660022E+03  0.13293660032E+03  0.50400000000E-02 0. -1.
          2    1    1    2    0  502  0.21491137499E+02 -0.15574195311E+02 -0.67023728679E+02  0.72087479933E+02  0.25500000000E-02 0. -1.
         -2    1    1    2  502    0 -0.21491137499E+02  0.15574195311E+02 -0.60602464997E+02  0.66159529327E+02  0.25500000000E-02 0. -1.
<mgrwt>
<rscale>  0 0.53139348E+02</rscale>
<asrwt>0</asrwt>
<pdfrwt beam="2">  1        1 0.20451782E-01 0.53139348E+02</pdfrwt>
<pdfrwt beam="1">  1       -1 0.81698592E-03 0.53139348E+02</pdfrwt>
<totfact> 0.45093421E+05</totfact>
</mgrwt>
</event>
<event>
 4    1  0.3883670E-002  0.4558086E+02  0.7818608E-02  0.1470748E+00
         -1   -1    0    0  501    0 -0.00000000000E+00  0.00000000000E+00  0.10423106760E+01  0.10423228612E+01  0.50400000000E-02 0.  1.
          1   -1    0    0    0  501  0.00000000000E+00 -0.00000000000E+00 -0.49831647617E+03  0.49831647620E+03  0.50400000000E-02 0.  1.
          2    1    1    2    0  502 -0.17947619976E+02 -0.10234052785E+02 -0.14324205186E+03  0.14472435291E+03  0.25500000000E-02 0.  1.
         -2    1    1    2  502    0  0.17947619976E+02  0.10234052785E+02 -0.35403211364E+03  0.35463444615E+03  0.25500000000E-02 0.  1.
<mgrwt>
<rscale>  0 0.45580857E+02</rscale>
<asrwt>0</asrwt>
<pdfrwt beam="2">  1        1 0.76663884E-01 0.45580857E+02</pdfrwt>
<pdfrwt beam="1">  1       -1 0.16035683E-03 0.45580857E+02</pdfrwt>
<totfact> 0.81859831E+05</totfact>
</mgrwt>
</event>
<event>
 4    1  0.3883670E-002  0.4387421E+02  0.7818608E-02  0.1481495E+00
          1   -1    0    0    0  501  0.00000000000E+00  0.00000000000E+00  0.66151049165E+02  0.66151049357E+02  0.50400000000E-02 0. -1.
         -1   -1    0    0  501    0 -0.00000000000E+00 -0.00000000000E+00 -0.72748120575E+01  0.72748138034E+01  0.50400000000E-02 0. -1.
          2    1    1    2    0  502  0.78551274994E+01 -0.20449162293E+02  0.31393563470E+02  0.38280897329E+02  0.25500000000E-02 0. -1.
         -2    1    1    2  502    0 -0.78551274994E+01  0.20449162293E+02  0.27482673638E+02  0.35144965831E+02  0.25500000000E-02 0. -1.
<mgrwt>
<rscale>  0 0.43874208E+02</rscale>
<asrwt>0</asrwt>
<pdfrwt beam="1">  1        1 0.10177084E-01 0.43874208E+02</pdfrwt>
<pdfrwt beam="2">  1       -1 0.11192020E-02 0.43874208E+02</pdfrwt>
<totfact> 0.66727581E+05</totfact>
</mgrwt>
</event>
<event>
 4    1  0.3883670E-002  0.5617484E+02  0.7818608E-02  0.1414623E+00
          1   -1    0    0    0  501  0.00000000000E+00  0.00000000000E+00  0.84440629525E+03  0.84440629526E+03  0.50400000000E-02 0. -1.
         -1   -1    0    0  501    0 -0.00000000000E+00 -0.00000000000E+00 -0.93426286540E+00  0.93427645976E+00  0.50400000000E-02 0. -1.
          2    1    1    2    0  502 -0.14223929043E+02  0.17210925421E+02  0.67816289588E+03  0.67853036002E+03  0.25500000000E-02 0. -1.
         -2    1    1    2  502    0  0.14223929043E+02 -0.17210925421E+02  0.16530913650E+03  0.16681021170E+03  0.25500000000E-02 0. -1.
<mgrwt>
<rscale>  0 0.56174841E+02</rscale>
<asrwt>0</asrwt>
<pdfrwt beam="1">  1        1 0.12990838E+00 0.56174841E+02</pdfrwt>
<pdfrwt beam="2">  1       -1 0.14373411E-03 0.56174841E+02</pdfrwt>
<totfact> 0.49006497E+05</totfact>
</mgrwt>
</event>
<event>
 4    1  0.3883670E-002  0.9118882E+02  0.7818608E-02  0.1299998E+00
         -1   -1    0    0  501    0 -0.00000000000E+00  0.00000000000E+00  0.18442830819E+01  0.18442899685E+01  0.50400000000E-02 0. -1.
          1   -1    0    0    0  501  0.00000000000E+00 -0.00000000000E+00 -0.11271840922E+04  0.11271840923E+04  0.50400000000E-02 0. -1.
          2    1    1    2    0  502 -0.34504555236E+02  0.54413659892E+01 -0.92547912719E+03  0.92613810400E+03  0.25500000000E-02 0. -1.
         -2    1    1    2  502    0  0.34504555236E+02 -0.54413659892E+01 -0.19986068197E+03  0.20289027823E+03  0.25500000000E-02 0. -1.
<mgrwt>
<rscale>  0 0.91188825E+02</rscale>
<asrwt>0</asrwt>
<pdfrwt beam="2">  1        1 0.17341239E+00 0.91188825E+02</pdfrwt>
<pdfrwt beam="1">  1       -1 0.28373729E-03 0.91188825E+02</pdfrwt>
<totfact> 0.13073926E+05</totfact>
</mgrwt>
</event>
<event>
 4    1  0.3883670E-002  0.8560925E+02  0.7818608E-02  0.1313847E+00
         -1   -1    0    0  501    0 -0.00000000000E+00  0.00000000000E+00  0.23723770013E+01  0.23723823549E+01  0.50400000000E-02 0.  1.
          1   -1    0    0    0  501  0.00000000000E+00 -0.00000000000E+00 -0.77231985417E+03  0.77231985419E+03  0.50400000000E-02 0.  1.
          2    1    1    2    0  502  0.23359047837E+02 -0.30803895881E+02 -0.55126942893E+03  0.55262329701E+03  0.25500000000E-02 0.  1.
         -2    1    1    2  502    0 -0.23359047837E+02  0.30803895881E+02 -0.21867804824E+03  0.22206893954E+03  0.25500000000E-02 0.  1.
<mgrwt>
<rscale>  0 0.85609250E+02</rscale>
<asrwt>0</asrwt>
<pdfrwt beam="2">  1        1 0.11881824E+00 0.85609250E+02</pdfrwt>
<pdfrwt beam="1">  1       -1 0.36498211E-03 0.85609250E+02</pdfrwt>
<totfact> 0.16727309E+05</totfact>
</mgrwt>
</event>
<event>
 4    1  0.3883670E-002  0.6194776E+02  0.7818608E-02  0.1389835E+00
         -1   -1    0    0  501    0 -0.00000000000E+00  0.00000000000E+00  0.29797560510E+02  0.29797560937E+02  0.50400000000E-02 0.  1.
          1   -1    0    0    0  501  0.00000000000E+00 -0.00000000000E+00 -0.32196632197E+02  0.32196632591E+02  0.50400000000E-02 0.  1.
          2    1    1    2    0  502  0.28144555399E+02 -0.68776583579E+01  0.97614336919E+01  0.30572925561E+02  0.25500000000E-02 0.  1.
         -2    1    1    2  502    0 -0.28144555399E+02  0.68776583579E+01 -0.12160505378E+02  0.31421267967E+02  0.25500000000E-02 0.  1.
<mgrwt>
<rscale>  0 0.61947756E+02</rscale>
<asrwt>0</asrwt>
<pdfrwt beam="2">  1        1 0.49533281E-02 0.61947756E+02</pdfrwt>
<pdfrwt beam="1">  1       -1 0.45842402E-02 0.61947756E+02</pdfrwt>
<totfact> 0.25489980E+05</totfact>
</mgrwt>
</event>
<event>
 4    1  0.3883670E-002  0.4055171E+02  0.7818608E-02  0.1504190E+00
         -1   -1    0    0  501    0 -0.00000000000E+00  0.00000000000E+00  0.40298074104E+01  0.40298105621E+01  0.50400000000E-02 0.  1.
          1   -1    0    0    0  501  0.00000000000E+00 -0.00000000000E+00 -0.10201733698E+03  0.10201733711E+03  0.50400000000E-02 0.  1.
          2    1    1    2    0  502 -0.16457447950E+02 -0.11570373184E+02 -0.42383558400E+02  0.46915745307E+02  0.25500000000E-02 0. -1.
         -2    1    1    2  502    0  0.16457447950E+02  0.11570373184E+02 -0.55603971173E+02  0.59131402362E+02  0.25500000000E-02 0. -1.
<mgrwt>
<rscale>  0 0.40551715E+02</rscale>
<asrwt>0</asrwt>
<pdfrwt beam="2">  1        1 0.15694973E-01 0.40551715E+02</pdfrwt>
<pdfrwt beam="1">  1       -1 0.61997070E-03 0.40551715E+02</pdfrwt>
<totfact> 0.85291023E+05</totfact>
</mgrwt>
</event>
<event>
 4    1  0.3883670E-002  0.8426971E+02  0.7818608E-02  0.1317353E+00
          1   -1    0    0    0  501  0.00000000000E+00  0.00000000000E+00  0.61696703972E+03  0.61696703974E+03  0.50400000000E-02 0.  1.
         -1   -1    0    0  501    0 -0.00000000000E+00 -0.00000000000E+00 -0.28775358686E+01  0.28775402823E+01  0.50400000000E-02 0.  1.
          2    1    1    2    0  502 -0.35704065836E+02  0.99396877242E+01  0.15961022459E+03  0.16385664927E+03  0.25500000000E-02 0.  1.
         -2    1    1    2  502    0  0.35704065836E+02 -0.99396877242E+01  0.45447927926E+03  0.45598793075E+03  0.25500000000E-02 0.  1.
<mgrwt>
<rscale>  0 0.84269714E+02</rscale>
<asrwt>0</asrwt>
<pdfrwt beam="1">  1        1 0.94918052E-01 0.84269714E+02</pdfrwt>
<pdfrwt beam="2">  1       -1 0.44269796E-03 0.84269714E+02</pdfrwt>
<totfact> 0.17452560E+05</totfact>
</mgrwt>
</event>
<event>
 4    1  0.3883670E-002  0.7061359E+02  0.7818608E-02  0.1358019E+00
          1   -1    0    0    0  501  0.00000000000E+00  0.00000000000E+00  0.12666613475E+02  0.12666614478E+02  0.50400000000E-02 0.  1.
         -1   -1    0    0  501    0 -0.00000000000E+00 -0.00000000000E+00 -0.98413824610E+02  0.98413824739E+02  0.50400000000E-02 0.  1.
          2    1    1    2    0  502  0.27862882800E+01  0.28978328445E+02 -0.11448987685E+02  0.31282363199E+02  0.25500000000E-02 0.  1.
         -2    1    1    2  502    0 -0.27862882800E+01 -0.28978328445E+02 -0.74298223450E+02  0.79798076018E+02  0.25500000000E-02 0.  1.
<mgrwt>
<rscale>  0 0.70613595E+02</rscale>
<asrwt>0</asrwt>
<pdfrwt beam="1">  1        1 0.19487099E-02 0.70613595E+02</pdfrwt>
<pdfrwt beam="2">  1       -1 0.15140588E-01 0.70613595E+02</pdfrwt>
<totfact> 0.15695146E+05</totfact>
</mgrwt>
</event>
<event>
 4    1  0.3883670E-002  0.6609541E+02  0.7818608E-02  0.1373898E+00
         -1   -1    0    0  501    0 -0.00000000000E+00  0.00000000000E+00  0.11944490760E+01  0.11944597091E+01  0.50400000000E-02 0. -1.
          1   -1    0    0    0  501  0.00000000000E+00 -0.00000000000E+00 -0.91435106607E+03  0.91435106608E+03  0.50400000000E-02 0. -1.
          2    1    1    2    0  502  0.20875562005E+02  0.94439901953E+01 -0.12669047490E+03  0.12874569693E+03  0.25500000000E-02 0. -1.
         -2    1    1    2  502    0 -0.20875562005E+02 -0.94439901953E+01 -0.78646614209E+03  0.78679982886E+03  0.25500000000E-02 0. -1.
<mgrwt>
<rscale>  0 0.66095406E+02</rscale>
<asrwt>0</asrwt>
<pdfrwt beam="2">  1        1 0.14066884E+00 0.66095406E+02</pdfrwt>
<pdfrwt beam="1">  1       -1 0.18376295E-03 0.66095406E+02</pdfrwt>
<totfact> 0.32047767E+05</totfact>
</mgrwt>
</event>
<event>
 4    1  0.3883670E-002  0.8547054E+02  0.7818608E-02  0.1314207E+00
         -1   -1    0    0  501    0 -0.00000000000E+00  0.00000000000E+00  0.63058286452E+02  0.63058286653E+02  0.50400000000E-02 0.  1.
          1   -1    0    0    0  501  0.00000000000E+00 -0.00000000000E+00 -0.28962145233E+02  0.28962145672E+02  0.50400000000E-02 0.  1.
          2    1    1    2    0  502 -0.19365199374E+02 -0.14100982296E+02 -0.21054021670E+02  0.31892326404E+02  0.25500000000E-02 0.  1.
         -2    1    1    2  502    0  0.19365199374E+02  0.14100982296E+02  0.55150162888E+02  0.60128105921E+02  0.25500000000E-02 0.  1.
<mgrwt>
<rscale>  0 0.85470539E+02</rscale>
<asrwt>0</asrwt>
<pdfrwt beam="2">  1        1 0.44557148E-02 0.85470539E+02</pdfrwt>
<pdfrwt beam="1">  1       -1 0.97012747E-02 0.85470539E+02</pdfrwt>
<totfact> 0.10367116E+05</totfact>
</mgrwt>
</event>
<event>
 4    1  0.3883670E-002  0.6455072E+02  0.7818608E-02  0.1379670E+00
          1   -1    0    0    0  501  0.00000000000E+00  0.00000000000E+00  0.87815837973E+02  0.87815838118E+02  0.50400000000E-02 0. -1.
         -1   -1    0    0  501    0 -0.00000000000E+00 -0.00000000000E+00 -0.11862310263E+02  0.11862311334E+02  0.50400000000E-02 0. -1.
          2    1    1    2    0  502  0.28858210032E+02 -0.10466740674E+02  0.22585210791E+02  0.38110900010E+02  0.25500000000E-02 0.  1.
         -2    1    1    2  502    0 -0.28858210032E+02  0.10466740674E+02  0.53368316918E+02  0.61567249442E+02  0.25500000000E-02 0.  1.
<mgrwt>
<rscale>  0 0.64550717E+02</rscale>
<asrwt>0</asrwt>
<pdfrwt beam="1">  1        1 0.13510130E-01 0.64550717E+02</pdfrwt>
<pdfrwt beam="2">  1       -1 0.18249708E-02 0.64550717E+02</pdfrwt>
<totfact> 0.25744265E+05</totfact>
</mgrwt>
</event>
<event>
 4    1  0.3883670E-002  0.6036457E+02  0.7818608E-02  0.1396308E+00
          1   -1    0    0    0  501  0.00000000000E+00  0.00000000000E+00  0.22928402923E+03  0.22928402929E+03  0.50400000000E-02 0.  1.
         -1   -1    0    0  501    0 -0.00000000000E+00 -0.00000000000E+00 -0.39731062618E+01  0.39731094585E+01  0.50400000000E-02 0.  1.
          2    1    1    2    0  502 -0.27055811691E+02  0.29039009045E+01  0.62196153626E+02  0.67888225187E+02  0.25500000000E-02 0. -1.
         -2    1    1    2  502    0  0.27055811691E+02 -0.29039009045E+01  0.16311476934E+03  0.16536891356E+03  0.25500000000E-02 0. -1.
<mgrwt>
<rscale>  0 0.60364565E+02</rscale>
<asrwt>0</asrwt>
<pdfrwt beam="1">  1        1 0.35274468E-01 0.60364565E+02</pdfrwt>
<pdfrwt beam="2">  1       -1 0.61124734E-03 0.60364565E+02</pdfrwt>
<totfact> 0.35753198E+05</totfact>
</mgrwt>
</event>
<event>
 4    1  0.3883670E-002  0.5373228E+02  0.7818608E-02  0.1426191E+00
         -1   -1    0    0  501    0 -0.00000000000E+00  0.00000000000E+00  0.37480178489E+02  0.37480178827E+02  0.50400000000E-02 0.  1.
          1   -1    0    0    0  501  0.00000000000E+00 -0.00000000000E+00 -0.19257897201E+02  0.19257897860E+02  0.50400000000E-02 0.  1.
          2    1    1    2    0  502  0.18506457560E+02 -0.19044221966E+02  0.13415711196E+02  0.29751515509E+02  0.25500000000E-02 0. -1.
         -2    1    1    2  502    0 -0.18506457560E+02  0.19044221966E+02  0.48065700922E+01  0.26986561179E+02  0.25500000000E-02 0. -1.
<mgrwt>
<rscale>  0 0.53732279E+02</rscale>
<asrwt>0</asrwt>
<pdfrwt beam="2">  1        1 0.29627535E-02 0.53732279E+02</pdfrwt>
<pdfrwt beam="1">  1       -1 0.57661814E-02 0.53732279E+02</pdfrwt>
<totfact> 0.35301136E+05</totfact>
</mgrwt>
</event>
<event>
 4    1  0.3883670E-002  0.4403886E+02  0.7818608E-02  0.1480433E+00
          1   -1    0    0    0  501  0.00000000000E+00  0.00000000000E+00  0.82909704988E+02  0.82909705141E+02  0.50400000000E-02 0.  1.
         -1   -1    0    0  501    0 -0.00000000000E+00 -0.00000000000E+00 -0.58479905724E+01  0.58479927442E+01  0.50400000000E-02 0.  1.
          2    1    1    2    0  502 -0.91421055695E+01 -0.19909054558E+02  0.34066430430E+02  0.40502718876E+02  0.25500000000E-02 0.  1.
         -2    1    1    2  502    0  0.91421055695E+01  0.19909054558E+02  0.42995283986E+02  0.48254979009E+02  0.25500000000E-02 0.  1.
<mgrwt>
<rscale>  0 0.44038859E+02</rscale>
<asrwt>0</asrwt>
<pdfrwt beam="1">  1        1 0.12755338E-01 0.44038859E+02</pdfrwt>
<pdfrwt beam="2">  1       -1 0.89969111E-03 0.44038859E+02</pdfrwt>
<totfact> 0.67795191E+05</totfact>
</mgrwt>
</event>
<event>
 4    1  0.3883670E-002  0.5532235E+02  0.7818608E-02  0.1418581E+00
         -1   -1    0    0  501    0 -0.00000000000E+00  0.00000000000E+00  0.82779561287E+00  0.82781095564E+00  0.50400000000E-02 0. -1.
          1   -1    0    0    0  501  0.00000000000E+00 -0.00000000000E+00 -0.92430231092E+03  0.92430231094E+03  0.50400000000E-02 0. -1.
          2    1    1    2    0  502 -0.10493880633E+01  0.26681431441E+02 -0.34098651550E+03  0.34203041350E+03  0.25500000000E-02 0. -1.
         -2    1    1    2  502    0  0.10493880633E+01 -0.26681431441E+02 -0.58248799981E+03  0.58309970840E+03  0.25500000000E-02 0. -1.
<mgrwt>
<rscale>  0 0.55322346E+02</rscale>
<asrwt>0</asrwt>
<pdfrwt beam="2">  1        1 0.14219953E+00 0.55322346E+02</pdfrwt>
<pdfrwt beam="1">  1       -1 0.12735509E-03 0.55322346E+02</pdfrwt>
<totfact> 0.50199146E+05</totfact>
</mgrwt>
</event>
<event>
 4    1  0.3883670E-002  0.5694373E+02  0.7818608E-02  0.1411124E+00
         -1   -1    0    0  501    0 -0.00000000000E+00  0.00000000000E+00  0.55759654176E+00  0.55761931905E+00  0.50400000000E-02 0.  1.
          1   -1    0    0    0  501  0.00000000000E+00 -0.00000000000E+00 -0.14537940556E+04  0.14537940556E+04  0.50400000000E-02 0.  1.
          2    1    1    2    0  502 -0.21663161832E+02  0.11630938268E+02 -0.10932558396E+04  0.10935323050E+04  0.25500000000E-02 0.  1.
         -2    1    1    2  502    0  0.21663161832E+02 -0.11630938268E+02 -0.35998061943E+03  0.36081936988E+03  0.25500000000E-02 0.  1.
<mgrwt>
<rscale>  0 0.56943730E+02</rscale>
<asrwt>0</asrwt>
<pdfrwt beam="2">  1        1 0.22365759E+00 0.56943730E+02</pdfrwt>
<pdfrwt beam="1">  1       -1 0.85787000E-04 0.56943730E+02</pdfrwt>
<totfact> 0.38286023E+05</totfact>
</mgrwt>
</event>
<event>
 4    1  0.3883670E-002  0.7499181E+02  0.7818608E-02  0.1343896E+00
          1   -1    0    0    0  501  0.00000000000E+00  0.00000000000E+00  0.27710548351E+02  0.27710548810E+02  0.50400000000E-02 0.  1.
         -1   -1    0    0  501    0 -0.00000000000E+00 -0.00000000000E+00 -0.50736733747E+02  0.50736733997E+02  0.50400000000E-02 0.  1.
          2    1    1    2    0  502  0.11867543200E+02 -0.35463831605E+02 -0.86634560144E+01  0.38387203732E+02  0.25500000000E-02 0. -1.
         -2    1    1    2  502    0 -0.11867543200E+02  0.35463831605E+02 -0.14362729381E+02  0.40060079075E+02  0.25500000000E-02 0. -1.
<mgrwt>
<rscale>  0 0.74991806E+02</rscale>
<asrwt>0</asrwt>
<pdfrwt beam="1">  1        1 0.42631613E-02 0.74991806E+02</pdfrwt>
<pdfrwt beam="2">  1       -1 0.78056514E-02 0.74991806E+02</pdfrwt>
<totfact> 0.14878424E+05</totfact>
</mgrwt>
</event>
<event>
 4    1  0.3883670E-002  0.4470225E+02  0.7818608E-02  0.1476209E+00
          1   -1    0    0    0  501  0.00000000000E+00  0.00000000000E+00  0.55236338447E+02  0.55236338677E+02  0.50400000000E-02 0.  1.
         -1   -1    0    0  501    0 -0.00000000000E+00 -0.00000000000E+00 -0.90442788098E+01  0.90442802141E+01  0.50400000000E-02 0.  1.
          2    1    1    2    0  502  0.18917171308E+02 -0.93925112454E+01  0.33613327950E+02  0.39698041012E+02  0.25500000000E-02 0.  1.
         -2    1    1    2  502    0 -0.18917171308E+02  0.93925112454E+01  0.12578731687E+02  0.24582577878E+02  0.25500000000E-02 0.  1.
<mgrwt>
<rscale>  0 0.44702255E+02</rscale>
<asrwt>0</asrwt>
<pdfrwt beam="1">  1        1 0.84978982E-02 0.44702255E+02</pdfrwt>
<pdfrwt beam="2">  1       -1 0.13914277E-02 0.44702255E+02</pdfrwt>
<totfact> 0.62519798E+05</totfact>
</mgrwt>
</event>
<event>
 4    1  0.3883670E-002  0.4856812E+02  0.7818608E-02  0.1453221E+00
          1   -1    0    0    0  501  0.00000000000E+00  0.00000000000E+00  0.58437914961E+03  0.58437914963E+03  0.50400000000E-02 0. -1.
         -1   -1    0    0  501    0 -0.00000000000E+00 -0.00000000000E+00 -0.10091253377E+01  0.10091379236E+01  0.50400000000E-02 0. -1.
          2    1    1    2    0  502  0.14928975422E+02  0.16269807693E+02  0.16987609475E+03  0.17130519117E+03  0.25500000000E-02 0.  1.
         -2    1    1    2  502    0 -0.14928975422E+02 -0.16269807693E+02  0.41349392953E+03  0.41408309638E+03  0.25500000000E-02 0.  1.
<mgrwt>
<rscale>  0 0.48568117E+02</rscale>
<asrwt>0</asrwt>
<pdfrwt beam="1">  1        1 0.89904514E-01 0.48568117E+02</pdfrwt>
<pdfrwt beam="2">  1       -1 0.15525097E-03 0.48568117E+02</pdfrwt>
<totfact> 0.70970503E+05</totfact>
</mgrwt>
</event>
<event>
 4    1  0.3883670E-002  0.4148657E+02  0.7818608E-02  0.1497548E+00
          1   -1    0    0    0  501  0.00000000000E+00  0.00000000000E+00  0.10695530948E+03  0.10695530960E+03  0.50400000000E-02 0.  1.
         -1   -1    0    0  501    0 -0.00000000000E+00 -0.00000000000E+00 -0.40230231808E+01  0.40230263379E+01  0.50400000000E-02 0.  1.
          2    1    1    2    0  502 -0.41522700406E+01  0.20305156041E+02  0.49160082322E+02  0.53350299050E+02  0.25500000000E-02 0. -1.
         -2    1    1    2  502    0  0.41522700406E+01 -0.20305156041E+02  0.53772203979E+02  0.57628036888E+02  0.25500000000E-02 0. -1.
<mgrwt>
<rscale>  0 0.41486570E+02</rscale>
<asrwt>0</asrwt>
<pdfrwt beam="1">  1        1 0.16454662E-01 0.41486570E+02</pdfrwt>
<pdfrwt beam="2">  1       -1 0.61892695E-03 0.41486570E+02</pdfrwt>
<totfact> 0.81142208E+05</totfact>
</mgrwt>
</event>
<event>
 4    1  0.3883670E-002  0.1001898E+03  0.7818608E-02  0.1279897E+00
          1   -1    0    0    0  501  0.00000000000E+00  0.00000000000E+00  0.19716850366E+02  0.19716851011E+02  0.50400000000E-02 0.  1.
         -1   -1    0    0  501    0 -0.00000000000E+00 -0.00000000000E+00 -0.12727693986E+03  0.12727693996E+03  0.50400000000E-02 0.  1.
          2    1    1    2    0  502  0.12134115422E+01 -0.30480400415E+02  0.45191751568E+01  0.30837479269E+02  0.25500000000E-02 0. -1.
         -2    1    1    2  502    0 -0.12134115422E+01  0.30480400415E+02 -0.11207926465E+03  0.11615631170E+03  0.25500000000E-02 0. -1.
<mgrwt>
<rscale>  0 0.10018983E+03</rscale>
<asrwt>0</asrwt>
<pdfrwt beam="1">  1        1 0.30333617E-02 0.10018983E+03</pdfrwt>
<pdfrwt beam="2">  1       -1 0.19581067E-01 0.10018983E+03</pdfrwt>
<totfact> 0.60742533E+04</totfact>
</mgrwt>
</event>
<event>
 4    1  0.3883670E-002  0.5225286E+02  0.7818608E-02  0.1433556E+00
         -1   -1    0    0  501    0 -0.00000000000E+00  0.00000000000E+00  0.36341233668E+01  0.36341268616E+01  0.50400000000E-02 0.  1.
          1   -1    0    0    0  501  0.00000000000E+00 -0.00000000000E+00 -0.18782797624E+03  0.18782797631E+03  0.50400000000E-02 0.  1.
          2    1    1    2    0  502  0.12118922230E+02  0.22922772827E+02 -0.80355307475E+02  0.84435165873E+02  0.25500000000E-02 0.  1.
         -2    1    1    2  502    0 -0.12118922230E+02 -0.22922772827E+02 -0.10383854540E+03  0.10702693729E+03  0.25500000000E-02 0.  1.
<mgrwt>
<rscale>  0 0.52252861E+02</rscale>
<asrwt>0</asrwt>
<pdfrwt beam="2">  1        1 0.28896604E-01 0.52252861E+02</pdfrwt>
<pdfrwt beam="1">  1       -1 0.55909632E-03 0.52252861E+02</pdfrwt>
<totfact> 0.49778061E+05</totfact>
</mgrwt>
</event>
<event>
 4    1  0.3883670E-002  0.7663989E+02  0.7818608E-02  0.1338867E+00
          1   -1    0    0    0  501  0.00000000000E+00  0.00000000000E+00  0.11304831834E+04  0.11304831834E+04  0.50400000000E-02 0.  1.
         -1   -1    0    0  501    0 -0.00000000000E+00 -0.00000000000E+00 -0.12989248787E+01  0.12989346566E+01  0.50400000000E-02 0.  1.
          2    1    1    2    0  502 -0.28449468425E+02 -0.19971012640E+02  0.32637911647E+03  0.32822483342E+03  0.25500000000E-02 0. -1.
         -2    1    1    2  502    0  0.28449468425E+02  0.19971012640E+02  0.80280514207E+03  0.80355728467E+03  0.25500000000E-02 0. -1.
<mgrwt>
<rscale>  0 0.76639892E+02</rscale>
<asrwt>0</asrwt>
<pdfrwt beam="1">  1        1 0.17392037E+00 0.76639892E+02</pdfrwt>
<pdfrwt beam="2">  1       -1 0.19983549E-03 0.76639892E+02</pdfrwt>
<totfact> 0.20597962E+05</totfact>
</mgrwt>
</event>
<event>
 4    1  0.3883670E-002  0.6776184E+02  0.7818608E-02  0.1367874E+00
          1   -1    0    0    0  501  0.00000000000E+00  0.00000000000E+00  0.10341664434E+04  0.10341664434E+04  0.50400000000E-02 0.  1.
         -1   -1    0    0  501    0 -0.00000000000E+00 -0.00000000000E+00 -0.11099865894E+01  0.11099980317E+01  0.50400000000E-02 0.  1.
          2    1    1    2    0  502 -0.17718139587E+02  0.27385078199E+02  0.65658976027E+03  0.65739941305E+03  0.25500000000E-02 0. -1.
         -2    1    1    2  502    0  0.17718139587E+02 -0.27385078199E+02  0.37646669653E+03  0.37787702838E+03  0.25500000000E-02 0. -1.
<mgrwt>
<rscale>  0 0.67761842E+02</rscale>
<asrwt>0</asrwt>
<pdfrwt beam="1">  1        1 0.15910236E+00 0.67761842E+02</pdfrwt>
<pdfrwt beam="2">  1       -1 0.17076823E-03 0.67761842E+02</pdfrwt>
<totfact> 0.29192895E+05</totfact>
</mgrwt>
</event>
<event>
 4    1  0.3883670E-002  0.4422999E+02  0.7818608E-02  0.1479207E+00
         -1   -1    0    0  501    0 -0.00000000000E+00  0.00000000000E+00  0.70659237730E+00  0.70661035179E+00  0.50400000000E-02 0.  1.
          1   -1    0    0    0  501  0.00000000000E+00 -0.00000000000E+00 -0.69214853135E+03  0.69214853137E+03  0.50400000000E-02 0.  1.
          2    1    1    2    0  502 -0.97040990952E+01  0.18242530817E+02 -0.22226303059E+03  0.22322144664E+03  0.25500000000E-02 0. -1.
         -2    1    1    2  502    0  0.97040990952E+01 -0.18242530817E+02 -0.46917890839E+03  0.46963369507E+03  0.25500000000E-02 0. -1.
<mgrwt>
<rscale>  0 0.44229995E+02</rscale>
<asrwt>0</asrwt>
<pdfrwt beam="2">  1        1 0.10648385E+00 0.44229995E+02</pdfrwt>
<pdfrwt beam="1">  1       -1 0.10870846E-03 0.44229995E+02</pdfrwt>
<totfact> 0.89747566E+05</totfact>
</mgrwt>
</event>
<event>
 4    1  0.3883670E-002  0.4748382E+02  0.7818608E-02  0.1459406E+00
         -1   -1    0    0  501    0 -0.00000000000E+00  0.00000000000E+00  0.11803104143E+02  0.11803105219E+02  0.50400000000E-02 0.  1.
          1   -1    0    0    0  501  0.00000000000E+00 -0.00000000000E+00 -0.47756770487E+02  0.47756770753E+02  0.50400000000E-02 0.  1.
          2    1    1    2    0  502  0.14652417917E+02 -0.18194377355E+02 -0.12662683740E+02  0.26572020702E+02  0.25500000000E-02 0.  1.
         -2    1    1    2  502    0 -0.14652417917E+02  0.18194377355E+02 -0.23290982604E+02  0.32987855270E+02  0.25500000000E-02 0.  1.
<mgrwt>
<rscale>  0 0.47483815E+02</rscale>
<asrwt>0</asrwt>
<pdfrwt beam="2">  1        1 0.73471954E-02 0.47483815E+02</pdfrwt>
<pdfrwt beam="1">  1       -1 0.18158623E-02 0.47483815E+02</pdfrwt>
<totfact> 0.52936303E+05</totfact>
</mgrwt>
</event>
<event>
 4    1  0.3883670E-002  0.4870917E+02  0.7818608E-02  0.1452431E+00
         -1   -1    0    0  501    0 -0.00000000000E+00  0.00000000000E+00  0.79119782106E+00  0.79121387352E+00  0.50400000000E-02 0. -1.
          1   -1    0    0    0  501  0.00000000000E+00 -0.00000000000E+00 -0.74967304581E+03  0.74967304583E+03  0.50400000000E-02 0. -1.
          2    1    1    2    0  502 -0.15287003518E+02 -0.17583537585E+02 -0.48368157353E+03  0.48424243706E+03  0.25500000000E-02 0.  1.
         -2    1    1    2  502    0  0.15287003518E+02  0.17583537585E+02 -0.26520027446E+03  0.26622182265E+03  0.25500000000E-02 0.  1.
<mgrwt>
<rscale>  0 0.48709166E+02</rscale>
<asrwt>0</asrwt>
<pdfrwt beam="2">  1        1 0.11533375E+00 0.48709166E+02</pdfrwt>
<pdfrwt beam="1">  1       -1 0.12172458E-03 0.48709166E+02</pdfrwt>
<totfact> 0.70642927E+05</totfact>
</mgrwt>
</event>
<event>
 4    1  0.3883670E-002  0.6807129E+02  0.7818608E-02  0.1366777E+00
         -1   -1    0    0  501    0 -0.00000000000E+00  0.00000000000E+00  0.13308446898E+02  0.13308447853E+02  0.50400000000E-02 0. -1.
          1   -1    0    0    0  501  0.00000000000E+00 -0.00000000000E+00 -0.87044351048E+02  0.87044351194E+02  0.50400000000E-02 0. -1.
          2    1    1    2    0  502  0.21346855857E+02  0.14355642583E+02 -0.40136845890E+01  0.26036174823E+02  0.25500000000E-02 0.  1.
         -2    1    1    2  502    0 -0.21346855857E+02 -0.14355642583E+02 -0.69722219561E+02  0.74316624224E+02  0.25500000000E-02 0.  1.
<mgrwt>
<rscale>  0 0.68071291E+02</rscale>
<asrwt>0</asrwt>
<pdfrwt beam="2">  1        1 0.13391438E-01 0.68071291E+02</pdfrwt>
<pdfrwt beam="1">  1       -1 0.20474535E-02 0.68071291E+02</pdfrwt>
<totfact> 0.22368552E+05</totfact>
</mgrwt>
</event>
<event>
 4    1  0.3883670E-002  0.5280175E+02  0.7818608E-02  0.1430790E+00
         -1   -1    0    0  501    0 -0.00000000000E+00  0.00000000000E+00  0.32441115439E+03  0.32441115443E+03  0.50400000000E-02 0.  1.
          1   -1    0    0    0  501  0.00000000000E+00 -0.00000000000E+00 -0.21485245625E+01  0.21485304739E+01  0.50400000000E-02 0.  1.
          2    1    1    2    0  502  0.21417208723E+02  0.33478205747E+01  0.67929518265E+02  0.71304447198E+02  0.25500000000E-02 0. -1.
         -2    1    1    2  502    0 -0.21417208723E+02 -0.33478205747E+01  0.25433311156E+03  0.25525523770E+03  0.25500000000E-02 0. -1.
<mgrwt>
<rscale>  0 0.52801754E+02</rscale>
<asrwt>0</asrwt>
<pdfrwt beam="2">  1        1 0.33054264E-03 0.52801754E+02</pdfrwt>
<pdfrwt beam="1">  1       -1 0.49909417E-01 0.52801754E+02</pdfrwt>
<totfact> 0.23736487E+05</totfact>
</mgrwt>
</event>
<event>
 4    1  0.3883670E-002  0.8459340E+02  0.7818608E-02  0.1316499E+00
         -1   -1    0    0  501    0 -0.00000000000E+00  0.00000000000E+00  0.63322196910E+01  0.63322216967E+01  0.50400000000E-02 0.  1.
          1   -1    0    0    0  501  0.00000000000E+00 -0.00000000000E+00 -0.28252503431E+03  0.28252503436E+03  0.50400000000E-02 0.  1.
          2    1    1    2    0  502 -0.36988060556E+02 -0.18350391113E+02 -0.10677127292E+03  0.11447688939E+03  0.25500000000E-02 0.  1.
         -2    1    1    2  502    0  0.36988060556E+02  0.18350391113E+02 -0.16942154170E+03  0.17438036666E+03  0.25500000000E-02 0.  1.
<mgrwt>
<rscale>  0 0.84593401E+02</rscale>
<asrwt>0</asrwt>
<pdfrwt beam="2">  1        1 0.43465380E-01 0.84593401E+02</pdfrwt>
<pdfrwt beam="1">  1       -1 0.97418802E-03 0.84593401E+02</pdfrwt>
<totfact> 0.15453727E+05</totfact>
</mgrwt>
</event>
<event>
 4    1  0.3883670E-002  0.6279169E+02  0.7818608E-02  0.1386476E+00
          1   -1    0    0    0  501  0.00000000000E+00  0.00000000000E+00  0.36603561472E+02  0.36603561819E+02  0.50400000000E-02 0.  1.
         -1   -1    0    0  501    0 -0.00000000000E+00 -0.00000000000E+00 -0.26929044642E+02  0.26929045113E+02  0.50400000000E-02 0.  1.
          2    1    1    2    0  502 -0.24356912050E+02 -0.46903920181E+01 -0.14636665926E+02  0.28800884323E+02  0.25500000000E-02 0. -1.
         -2    1    1    2  502    0  0.24356912050E+02  0.46903920181E+01  0.24311182756E+02  0.34731722609E+02  0.25500000000E-02 0. -1.
<mgrwt>
<rscale>  0 0.62791686E+02</rscale>
<asrwt>0</asrwt>
<pdfrwt beam="1">  1        1 0.56313172E-02 0.62791686E+02</pdfrwt>
<pdfrwt beam="2">  1       -1 0.41429300E-02 0.62791686E+02</pdfrwt>
<totfact> 0.24932145E+05</totfact>
</mgrwt>
</event>
<event>
 4    1  0.3883670E-002  0.5752958E+02  0.7818608E-02  0.1408501E+00
          1   -1    0    0    0  501  0.00000000000E+00  0.00000000000E+00  0.11431312853E+03  0.11431312864E+03  0.50400000000E-02 0.  1.
         -1   -1    0    0  501    0 -0.00000000000E+00 -0.00000000000E+00 -0.72381287649E+01  0.72381305197E+01  0.50400000000E-02 0.  1.
          2    1    1    2    0  502 -0.21452157206E+02 -0.46405755260E+01  0.14254250519E+02  0.26170855056E+02  0.25500000000E-02 0.  1.
         -2    1    1    2  502    0  0.21452157206E+02  0.46405755260E+01  0.92820749246E+02  0.95380404104E+02  0.25500000000E-02 0.  1.
<mgrwt>
<rscale>  0 0.57529584E+02</rscale>
<asrwt>0</asrwt>
<pdfrwt beam="1">  1        1 0.17586634E-01 0.57529584E+02</pdfrwt>
<pdfrwt beam="2">  1       -1 0.11135585E-02 0.57529584E+02</pdfrwt>
<totfact> 0.36004273E+05</totfact>
</mgrwt>
</event>
<event>
 4    1  0.3883670E-002  0.9774160E+02  0.7818608E-02  0.1285118E+00
          1   -1    0    0    0  501  0.00000000000E+00  0.00000000000E+00  0.31480502132E+02  0.31480502536E+02  0.50400000000E-02 0.  1.
         -1   -1    0    0  501    0 -0.00000000000E+00 -0.00000000000E+00 -0.75867759882E+02  0.75867760049E+02  0.50400000000E-02 0.  1.
          2    1    1    2    0  502 -0.43185997776E+02  0.21489716087E+02 -0.13579471844E+02  0.50112277573E+02  0.25500000000E-02 0. -1.
         -2    1    1    2  502    0  0.43185997776E+02 -0.21489716087E+02 -0.30807785905E+02  0.57235985012E+02  0.25500000000E-02 0. -1.
<mgrwt>
<rscale>  0 0.97741602E+02</rscale>
<asrwt>0</asrwt>
<pdfrwt beam="1">  1        1 0.48431542E-02 0.97741602E+02</pdfrwt>
<pdfrwt beam="2">  1       -1 0.11671963E-01 0.97741602E+02</pdfrwt>
<totfact> 0.71484141E+04</totfact>
</mgrwt>
</event>
<event>
 4    1  0.3883670E-002  0.4376793E+02  0.7818608E-02  0.1482183E+00
         -1   -1    0    0  501    0 -0.00000000000E+00  0.00000000000E+00  0.21853702030E+01  0.21853760147E+01  0.50400000000E-02 0. -1.
          1   -1    0    0    0  501  0.00000000000E+00 -0.00000000000E+00 -0.21914241594E+03  0.21914241600E+03  0.50400000000E-02 0. -1.
          2    1    1    2    0  502 -0.62719576504E+01 -0.20512717812E+02 -0.86553189866E+02  0.89171541017E+02  0.25500000000E-02 0.  1.
         -2    1    1    2  502    0  0.62719576504E+01  0.20512717812E+02 -0.13040385588E+03  0.13215625100E+03  0.25500000000E-02 0.  1.
<mgrwt>
<rscale>  0 0.43767931E+02</rscale>
<asrwt>0</asrwt>
<pdfrwt beam="2">  1        1 0.33714201E-01 0.43767931E+02</pdfrwt>
<pdfrwt beam="1">  1       -1 0.33621143E-03 0.43767931E+02</pdfrwt>
<totfact> 0.79460788E+05</totfact>
</mgrwt>
</event>
<event>
 4    1  0.3883670E-002  0.5770441E+02  0.7818608E-02  0.1407726E+00
         -1   -1    0    0  501    0 -0.00000000000E+00  0.00000000000E+00  0.15241671555E+02  0.15241672388E+02  0.50400000000E-02 0. -1.
          1   -1    0    0    0  501  0.00000000000E+00 -0.00000000000E+00 -0.54616686967E+02  0.54616687199E+02  0.50400000000E-02 0. -1.
          2    1    1    2    0  502  0.14064412136E+02  0.21770754648E+02 -0.43418621624E+01  0.26279749241E+02  0.25500000000E-02 0.  1.
         -2    1    1    2  502    0 -0.14064412136E+02 -0.21770754648E+02 -0.35033153249E+02  0.43578610347E+02  0.25500000000E-02 0.  1.
<mgrwt>
<rscale>  0 0.57704407E+02</rscale>
<asrwt>0</asrwt>
<pdfrwt beam="2">  1        1 0.84025672E-02 0.57704407E+02</pdfrwt>
<pdfrwt beam="1">  1       -1 0.23448727E-02 0.57704407E+02</pdfrwt>
<totfact> 0.32521789E+05</totfact>
</mgrwt>
</event>
<event>
 4    1  0.3883670E-002  0.4040199E+02  0.7818608E-02  0.1505274E+00
         -1   -1    0    0  501    0 -0.00000000000E+00  0.00000000000E+00  0.13208372628E+03  0.13208372638E+03  0.50400000000E-02 0. -1.
          1   -1    0    0    0  501  0.00000000000E+00 -0.00000000000E+00 -0.30895554928E+01  0.30895596037E+01  0.50400000000E-02 0. -1.
          2    1    1    2    0  502  0.10180585778E+02  0.17262691597E+02  0.56009641474E+02  0.59487181749E+02  0.25500000000E-02 0. -1.
         -2    1    1    2  502    0 -0.10180585778E+02 -0.17262691597E+02  0.72984529313E+02  0.75686104230E+02  0.25500000000E-02 0. -1.
<mgrwt>
<rscale>  0 0.40401994E+02</rscale>
<asrwt>0</asrwt>
<pdfrwt beam="2">  1        1 0.47531650E-03 0.40401994E+02</pdfrwt>
<pdfrwt beam="1">  1       -1 0.20320576E-01 0.40401994E+02</pdfrwt>
<totfact> 0.59610228E+05</totfact>
</mgrwt>
</event>
<event>
 4    1  0.3883670E-002  0.6478641E+02  0.7818608E-02  0.1378777E+00
          1   -1    0    0    0  501  0.00000000000E+00  0.00000000000E+00  0.39060218384E+01  0.39060250900E+01  0.50400000000E-02 0.  1.
         -1   -1    0    0  501    0 -0.00000000000E+00 -0.00000000000E+00 -0.26864144474E+03  0.26864144479E+03  0.50400000000E-02 0.  1.
          2    1    1    2    0  502 -0.27022574455E+02 -0.65382298813E+01 -0.62433548018E+02  0.68344099269E+02  0.25500000000E-02 0. -1.
         -2    1    1    2  502    0  0.27022574455E+02  0.65382298813E+01 -0.20230187489E+03  0.20420337061E+03  0.25500000000E-02 0. -1.
<mgrwt>
<rscale>  0 0.64786412E+02</rscale>
<asrwt>0</asrwt>
<pdfrwt beam="1">  1        1 0.60092690E-03 0.64786412E+02</pdfrwt>
<pdfrwt beam="2">  1       -1 0.41329439E-01 0.64786412E+02</pdfrwt>
<totfact> 0.15246496E+05</totfact>
</mgrwt>
</event>
<event>
 4    1  0.3883670E-002  0.5078243E+02  0.7818608E-02  0.1441166E+00
         -1   -1    0    0  501    0 -0.00000000000E+00  0.00000000000E+00  0.43646754945E+00  0.43649664755E+00  0.50400000000E-02 0. -1.
          1   -1    0    0    0  501  0.00000000000E+00 -0.00000000000E+00 -0.14770680176E+04  0.14770680176E+04  0.50400000000E-02 0. -1.
          2    1    1    2    0  502 -0.21324411847E+02  0.12931134447E+02 -0.87714698066E+03  0.87750143617E+03  0.25500000000E-02 0. -1.
         -2    1    1    2  502    0  0.21324411847E+02 -0.12931134447E+02 -0.59948456940E+03  0.60000307810E+03  0.25500000000E-02 0. -1.
<mgrwt>
<rscale>  0 0.50782428E+02</rscale>
<asrwt>0</asrwt>
<pdfrwt beam="2">  1        1 0.22723723E+00 0.50782428E+02</pdfrwt>
<pdfrwt beam="1">  1       -1 0.67152275E-04 0.50782428E+02</pdfrwt>
<totfact> 0.50424028E+05</totfact>
</mgrwt>
</event>
<event>
 4    1  0.3883670E-002  0.8119370E+02  0.7818608E-02  0.1325698E+00
          1   -1    0    0    0  501  0.00000000000E+00  0.00000000000E+00  0.10827436627E+01  0.10827553928E+01  0.50400000000E-02 0.  1.
         -1   -1    0    0  501    0 -0.00000000000E+00 -0.00000000000E+00 -0.15221471873E+04  0.15221471873E+04  0.50400000000E-02 0.  1.
          2    1    1    2    0  502  0.32741011010E+02 -0.21137393892E+02 -0.97389130549E+03  0.97467073319E+03  0.25500000000E-02 0.  1.
         -2    1    1    2  502    0 -0.32741011010E+02  0.21137393892E+02 -0.54717313816E+03  0.54855920952E+03  0.25500000000E-02 0.  1.
<mgrwt>
<rscale>  0 0.81193698E+02</rscale>
<asrwt>0</asrwt>
<pdfrwt beam="1">  1        1 0.16657807E-03 0.81193698E+02</pdfrwt>
<pdfrwt beam="2">  1       -1 0.23417478E+00 0.81193698E+02</pdfrwt>
<totfact> 0.18181857E+04</totfact>
</mgrwt>
</event>
<event>
 4    1  0.3883670E-002  0.5547989E+02  0.7818608E-02  0.1417843E+00
         -1   -1    0    0  501    0 -0.00000000000E+00  0.00000000000E+00  0.80429058671E+02  0.80429058829E+02  0.50400000000E-02 0. -1.
          1   -1    0    0    0  501  0.00000000000E+00 -0.00000000000E+00 -0.95674924220E+01  0.95674937495E+01  0.50400000000E-02 0. -1.
          2    1    1    2    0  502  0.16453871609E+02 -0.11774468574E+02  0.66214698290E+02  0.69236943010E+02  0.25500000000E-02 0.  1.
         -2    1    1    2  502    0 -0.16453871609E+02  0.11774468574E+02  0.46468679585E+01  0.20759609569E+02  0.25500000000E-02 0.  1.
<mgrwt>
<rscale>  0 0.55479887E+02</rscale>
<asrwt>0</asrwt>
<pdfrwt beam="2">  1        1 0.14719221E-02 0.55479887E+02</pdfrwt>
<pdfrwt beam="1">  1       -1 0.12373701E-01 0.55479887E+02</pdfrwt>
<totfact> 0.29740760E+05</totfact>
</mgrwt>
</event>
<event>
 4    1  0.3883670E-002  0.5849985E+02  0.7818608E-02  0.1404237E+00
         -1   -1    0    0  501    0 -0.00000000000E+00  0.00000000000E+00  0.42263386729E+02  0.42263387030E+02  0.50400000000E-02 0.  1.
          1   -1    0    0    0  501  0.00000000000E+00 -0.00000000000E+00 -0.20243484775E+02  0.20243485402E+02  0.50400000000E-02 0.  1.
          2    1    1    2    0  502  0.29926210722E+01 -0.25902820384E+02 -0.31510046550E+01  0.26264819085E+02  0.25500000000E-02 0. -1.
         -2    1    1    2  502    0 -0.29926210722E+01  0.25902820384E+02  0.25170906610E+02  0.36242053347E+02  0.25500000000E-02 0. -1.
<mgrwt>
<rscale>  0 0.58499855E+02</rscale>
<asrwt>0</asrwt>
<pdfrwt beam="2">  1        1 0.31143824E-02 0.58499855E+02</pdfrwt>
<pdfrwt beam="1">  1       -1 0.65020595E-02 0.58499855E+02</pdfrwt>
<totfact> 0.28261024E+05</totfact>
</mgrwt>
</event>
<event>
 4    1  0.3883670E-002  0.6354106E+02  0.7818608E-02  0.1383545E+00
          1   -1    0    0    0  501  0.00000000000E+00  0.00000000000E+00  0.13833392309E+03  0.13833392318E+03  0.50400000000E-02 0. -1.
         -1   -1    0    0  501    0 -0.00000000000E+00 -0.00000000000E+00 -0.72965943505E+01  0.72965960911E+01  0.50400000000E-02 0. -1.
          2    1    1    2    0  502  0.23135542560E+02 -0.12765270798E+02  0.10594744389E+03  0.10919279437E+03  0.25500000000E-02 0.  1.
         -2    1    1    2  502    0 -0.23135542560E+02  0.12765270798E+02  0.25089884848E+02  0.36437724906E+02  0.25500000000E-02 0.  1.
<mgrwt>
<rscale>  0 0.63541062E+02</rscale>
<asrwt>0</asrwt>
<pdfrwt beam="1">  1        1 0.21282139E-01 0.63541062E+02</pdfrwt>
<pdfrwt beam="2">  1       -1 0.11225533E-02 0.63541062E+02</pdfrwt>
<totfact> 0.28709808E+05</totfact>
</mgrwt>
</event>
<event>
 4    1  0.3883670E-002  0.4801290E+02  0.7818608E-02  0.1456364E+00
         -1   -1    0    0  501    0 -0.00000000000E+00  0.00000000000E+00  0.49320067629E+02  0.49320067887E+02  0.50400000000E-02 0. -1.
          1   -1    0    0    0  501  0.00000000000E+00 -0.00000000000E+00 -0.11685094518E+02  0.11685095605E+02  0.50400000000E-02 0. -1.
          2    1    1    2    0  502 -0.32783173940E+01 -0.21157053677E+02  0.32616301143E+02  0.39015271267E+02  0.25500000000E-02 0.  1.
         -2    1    1    2  502    0  0.32783173940E+01  0.21157053677E+02  0.50186719680E+01  0.21989892225E+02  0.25500000000E-02 0.  1.
<mgrwt>
<rscale>  0 0.48012902E+02</rscale>
<asrwt>0</asrwt>
<pdfrwt beam="2">  1        1 0.17977069E-02 0.48012902E+02</pdfrwt>
<pdfrwt beam="1">  1       -1 0.75877029E-02 0.48012902E+02</pdfrwt>
<totfact> 0.45209329E+05</totfact>
</mgrwt>
</event>
<event>
 4    1  0.3883670E-002  0.5461459E+02  0.7818608E-02  0.1421930E+00
          1   -1    0    0    0  501  0.00000000000E+00  0.00000000000E+00  0.68178361305E+03  0.68178361307E+03  0.50400000000E-02 0. -1.
         -1   -1    0    0  501    0 -0.00000000000E+00 -0.00000000000E+00 -0.10937257152E+01  0.10937373275E+01  0.50400000000E-02 0. -1.
          2    1    1    2    0  502  0.16124884401E+02  0.16962671648E+02  0.51626094920E+03  0.51679116846E+03  0.25500000000E-02 0.  1.
         -2    1    1    2  502    0 -0.16124884401E+02 -0.16962671648E+02  0.16442893814E+03  0.16608618193E+03  0.25500000000E-02 0.  1.
<mgrwt>
<rscale>  0 0.54614586E+02</rscale>
<asrwt>0</asrwt>
<pdfrwt beam="1">  1        1 0.10488985E+00 0.54614586E+02</pdfrwt>
<pdfrwt beam="2">  1       -1 0.16826629E-03 0.54614586E+02</pdfrwt>
<totfact> 0.53258113E+05</totfact>
</mgrwt>
</event>
<event>
 4    1  0.3883670E-002  0.4809581E+02  0.7818608E-02  0.1455891E+00
         -1   -1    0    0  501    0 -0.00000000000E+00  0.00000000000E+00  0.19770703769E+03  0.19770703776E+03  0.50400000000E-02 0.  1.
          1   -1    0    0    0  501  0.00000000000E+00 -0.00000000000E+00 -0.29250414886E+01  0.29250458307E+01  0.50400000000E-02 0.  1.
          2    1    1    2    0  502 -0.20490616825E+02  0.12379761125E+02  0.10688322897E+03  0.10953149550E+03  0.25500000000E-02 0.  1.
         -2    1    1    2  502    0  0.20490616825E+02 -0.12379761125E+02  0.87898767230E+02  0.91100588091E+02  0.25500000000E-02 0.  1.
<mgrwt>
<rscale>  0 0.48095810E+02</rscale>
<asrwt>0</asrwt>
<pdfrwt beam="2">  1        1 0.45000659E-03 0.48095810E+02</pdfrwt>
<pdfrwt beam="1">  1       -1 0.30416476E-01 0.48095810E+02</pdfrwt>
<totfact> 0.35399322E+05</totfact>
</mgrwt>
</event>
<event>
 4    1  0.3883670E-002  0.4599332E+02  0.7818608E-02  0.1468234E+00
          1   -1    0    0    0  501  0.00000000000E+00  0.00000000000E+00  0.77680082367E+03  0.77680082369E+03  0.50400000000E-02 0.  1.
         -1   -1    0    0  501    0 -0.00000000000E+00 -0.00000000000E+00 -0.68079117234E+00  0.68080982802E+00  0.50400000000E-02 0.  1.
          2    1    1    2    0  502 -0.21240526673E+02  0.31604187335E+01  0.52714615427E+03  0.52758337368E+03  0.25500000000E-02 0. -1.
         -2    1    1    2  502    0  0.21240526673E+02 -0.31604187335E+01  0.24897387823E+03  0.24989825983E+03  0.25500000000E-02 0. -1.
<mgrwt>
<rscale>  0 0.45993321E+02</rscale>
<asrwt>0</asrwt>
<pdfrwt beam="1">  1        1 0.11950803E+00 0.45993321E+02</pdfrwt>
<pdfrwt beam="2">  1       -1 0.10473836E-03 0.45993321E+02</pdfrwt>
<totfact> 0.81196453E+05</totfact>
</mgrwt>
</event>
<event>
 4    1  0.3883670E-002  0.5124692E+02  0.7818608E-02  0.1438730E+00
          1   -1    0    0    0  501  0.00000000000E+00  0.00000000000E+00  0.79882528502E+03  0.79882528503E+03  0.50400000000E-02 0. -1.
         -1   -1    0    0  501    0 -0.00000000000E+00 -0.00000000000E+00 -0.82190119918E+00  0.82191665199E+00  0.50400000000E-02 0. -1.
          2    1    1    2    0  502  0.65258474005E+01  0.22147278667E+02  0.57238874864E+03  0.57285422946E+03  0.25500000000E-02 0. -1.
         -2    1    1    2  502    0 -0.65258474005E+01 -0.22147278667E+02  0.22561463518E+03  0.22679297222E+03  0.25500000000E-02 0. -1.
<mgrwt>
<rscale>  0 0.51246918E+02</rscale>
<asrwt>0</asrwt>
<pdfrwt beam="1">  1        1 0.12289652E+00 0.51246918E+02</pdfrwt>
<pdfrwt beam="2">  1       -1 0.12644720E-03 0.51246918E+02</pdfrwt>
<totfact> 0.62011921E+05</totfact>
</mgrwt>
</event>
<event>
 4    1  0.3883670E-002  0.4846558E+02  0.7818608E-02  0.1453798E+00
          1   -1    0    0    0  501  0.00000000000E+00  0.00000000000E+00  0.72726890058E+01  0.72726907521E+01  0.50400000000E-02 0.  1.
         -1   -1    0    0  501    0 -0.00000000000E+00 -0.00000000000E+00 -0.80744295214E+02  0.80744295372E+02  0.50400000000E-02 0.  1.
          2    1    1    2    0  502  0.22836030393E+02 -0.80660957161E+01 -0.35235985947E+02  0.42756530453E+02  0.25500000000E-02 0. -1.
         -2    1    1    2  502    0 -0.22836030393E+02  0.80660957161E+01 -0.38235620262E+02  0.45260455671E+02  0.25500000000E-02 0. -1.
<mgrwt>
<rscale>  0 0.48465585E+02</rscale>
<asrwt>0</asrwt>
<pdfrwt beam="1">  1        1 0.11188754E-02 0.48465585E+02</pdfrwt>
<pdfrwt beam="2">  1       -1 0.12422199E-01 0.48465585E+02</pdfrwt>
<totfact> 0.41546092E+05</totfact>
</mgrwt>
</event>
<event>
 4    1  0.3883670E-002  0.4070580E+02  0.7818608E-02  0.1503081E+00
          1   -1    0    0    0  501  0.00000000000E+00  0.00000000000E+00  0.68157081043E+03  0.68157081045E+03  0.50400000000E-02 0.  1.
         -1   -1    0    0  501    0 -0.00000000000E+00 -0.00000000000E+00 -0.60776282162E+00  0.60778371889E+00  0.50400000000E-02 0.  1.
          2    1    1    2    0  502  0.10050090166E+02 -0.17404496371E+02  0.28664515506E+03  0.28734885720E+03  0.25500000000E-02 0.  1.
         -2    1    1    2  502    0 -0.10050090166E+02  0.17404496371E+02  0.39431789254E+03  0.39482973697E+03  0.25500000000E-02 0.  1.
<mgrwt>
<rscale>  0 0.40705800E+02</rscale>
<asrwt>0</asrwt>
<pdfrwt beam="1">  1        1 0.10485722E+00 0.40705800E+02</pdfrwt>
<pdfrwt beam="2">  1       -1 0.93503432E-04 0.40705800E+02</pdfrwt>
<totfact> 0.10983709E+06</totfact>
</mgrwt>
</event>
<event>
 4    1  0.3883670E-002  0.4125278E+02  0.7818608E-02  0.1499190E+00
         -1   -1    0    0  501    0 -0.00000000000E+00  0.00000000000E+00  0.76546237655E+02  0.76546237821E+02  0.50400000000E-02 0. -1.
          1   -1    0    0    0  501  0.00000000000E+00 -0.00000000000E+00 -0.55580507363E+01  0.55580530214E+01  0.50400000000E-02 0. -1.
          2    1    1    2    0  502 -0.76656272213E+01 -0.19148165672E+02  0.35860419354E+02  0.41368874435E+02  0.25500000000E-02 0. -1.
         -2    1    1    2  502    0  0.76656272213E+01  0.19148165672E+02  0.35127767564E+02  0.40735416407E+02  0.25500000000E-02 0. -1.
<mgrwt>
<rscale>  0 0.41252780E+02</rscale>
<asrwt>0</asrwt>
<pdfrwt beam="2">  1        1 0.85508496E-03 0.41252780E+02</pdfrwt>
<pdfrwt beam="1">  1       -1 0.11776344E-01 0.41252780E+02</pdfrwt>
<totfact> 0.62054180E+05</totfact>
</mgrwt>
</event>
<event>
 4    1  0.3883670E-002  0.7165135E+02  0.7818608E-02  0.1354566E+00
         -1   -1    0    0  501    0 -0.00000000000E+00  0.00000000000E+00  0.20888991933E+01  0.20889052734E+01  0.50400000000E-02 0.  1.
          1   -1    0    0    0  501  0.00000000000E+00 -0.00000000000E+00 -0.61442743380E+03  0.61442743382E+03  0.50400000000E-02 0.  1.
          2    1    1    2    0  502  0.35743474789E+02  0.14071941725E+01 -0.28917115999E+03  0.29137524940E+03  0.25500000000E-02 0. -1.
         -2    1    1    2  502    0 -0.35743474789E+02 -0.14071941725E+01 -0.32316737461E+03  0.32514108969E+03  0.25500000000E-02 0. -1.
<mgrwt>
<rscale>  0 0.71651346E+02</rscale>
<asrwt>0</asrwt>
<pdfrwt beam="2">  1        1 0.94527154E-01 0.71651346E+02</pdfrwt>
<pdfrwt beam="1">  1       -1 0.32137007E-03 0.71651346E+02</pdfrwt>
<totfact> 0.26622668E+05</totfact>
</mgrwt>
</event>
<event>
 4    1  0.3883670E-002  0.4091732E+02  0.7818608E-02  0.1501567E+00
          1   -1    0    0    0  501  0.00000000000E+00  0.00000000000E+00  0.12352613939E+03  0.12352613949E+03  0.50400000000E-02 0. -1.
         -1   -1    0    0  501    0 -0.00000000000E+00 -0.00000000000E+00 -0.33884047026E+01  0.33884084509E+01  0.50400000000E-02 0. -1.
          2    1    1    2    0  502 -0.14158406379E+02  0.14435376849E+02  0.69737225654E+02  0.72609374218E+02  0.25500000000E-02 0.  1.
         -2    1    1    2  502    0  0.14158406379E+02 -0.14435376849E+02  0.50400509032E+02  0.54305173724E+02  0.25500000000E-02 0.  1.
<mgrwt>
<rscale>  0 0.40917321E+02</rscale>
<asrwt>0</asrwt>
<pdfrwt beam="1">  1        1 0.19004020E-01 0.40917321E+02</pdfrwt>
<pdfrwt beam="2">  1       -1 0.52129336E-03 0.40917321E+02</pdfrwt>
<totfact> 0.85614493E+05</totfact>
</mgrwt>
</event>
<event>
 4    1  0.3883670E-002  0.7928584E+02  0.7818608E-02  0.1331090E+00
         -1   -1    0    0  501    0 -0.00000000000E+00  0.00000000000E+00  0.20362507214E+01  0.20362569588E+01  0.50400000000E-02 0. -1.
          1   -1    0    0    0  501  0.00000000000E+00 -0.00000000000E+00 -0.77179029080E+03  0.77179029082E+03  0.50400000000E-02 0. -1.
          2    1    1    2    0  502 -0.77432817704E+01 -0.38728639207E+02 -0.35149989610E+03  0.35371180766E+03  0.25500000000E-02 0. -1.
         -2    1    1    2  502    0  0.77432817704E+01  0.38728639207E+02 -0.41825414398E+03  0.42011474012E+03  0.25500000000E-02 0. -1.
<mgrwt>
<rscale>  0 0.79285836E+02</rscale>
<asrwt>0</asrwt>
<pdfrwt beam="2">  1        1 0.11873673E+00 0.79285836E+02</pdfrwt>
<pdfrwt beam="1">  1       -1 0.31327044E-03 0.79285836E+02</pdfrwt>
<totfact> 0.20449700E+05</totfact>
</mgrwt>
</event>
<event>
 4    1  0.3883670E-002  0.5930443E+02  0.7818608E-02  0.1400774E+00
         -1   -1    0    0  501    0 -0.00000000000E+00  0.00000000000E+00  0.12878428219E+01  0.12878526839E+01  0.50400000000E-02 0.  1.
          1   -1    0    0    0  501  0.00000000000E+00 -0.00000000000E+00 -0.68273128250E+03  0.68273128252E+03  0.50400000000E-02 0.  1.
          2    1    1    2    0  502 -0.20141638613E+02  0.15537445489E+02 -0.51646194241E+03  0.51708803485E+03  0.25500000000E-02 0. -1.
         -2    1    1    2  502    0  0.20141638613E+02 -0.15537445489E+02 -0.16498149727E+03  0.16693110036E+03  0.25500000000E-02 0. -1.
<mgrwt>
<rscale>  0 0.59304434E+02</rscale>
<asrwt>0</asrwt>
<pdfrwt beam="2">  1        1 0.10503529E+00 0.59304434E+02</pdfrwt>
<pdfrwt beam="1">  1       -1 0.19813097E-03 0.59304434E+02</pdfrwt>
<totfact> 0.43282617E+05</totfact>
</mgrwt>
</event>
<event>
 4    1  0.3883670E-002  0.4906824E+02  0.7818608E-02  0.1450433E+00
         -1   -1    0    0  501    0 -0.00000000000E+00  0.00000000000E+00  0.38328840977E+00  0.38332154474E+00  0.50400000000E-02 0. -1.
          1   -1    0    0    0  501  0.00000000000E+00 -0.00000000000E+00 -0.15703501574E+04  0.15703501574E+04  0.50400000000E-02 0. -1.
          2    1    1    2    0  502  0.11410342114E+02 -0.16623530685E+02 -0.33752981327E+03  0.33813150184E+03  0.25500000000E-02 0.  1.
         -2    1    1    2  502    0 -0.11410342114E+02  0.16623530685E+02 -0.12324370557E+04  0.12326019771E+04  0.25500000000E-02 0.  1.
<mgrwt>
<rscale>  0 0.49068240E+02</rscale>
<asrwt>0</asrwt>
<pdfrwt beam="2">  1        1 0.24158718E+00 0.49068240E+02</pdfrwt>
<pdfrwt beam="1">  1       -1 0.58971254E-04 0.49068240E+02</pdfrwt>
<totfact> 0.52217886E+05</totfact>
</mgrwt>
</event>
<event>
 4    1  0.3883670E-002  0.4611793E+02  0.7818608E-02  0.1467481E+00
         -1   -1    0    0  501    0 -0.00000000000E+00  0.00000000000E+00  0.40218772143E+03  0.40218772146E+03  0.50400000000E-02 0.  1.
          1   -1    0    0    0  501  0.00000000000E+00 -0.00000000000E+00 -0.13220538199E+01  0.13220634267E+01  0.50400000000E-02 0.  1.
          2    1    1    2    0  502 -0.45680562133E+01  0.21549768389E+02  0.26006844383E+03  0.26099972248E+03  0.25500000000E-02 0. -1.
         -2    1    1    2  502    0  0.45680562133E+01 -0.21549768389E+02  0.14079722378E+03  0.14251006241E+03  0.25500000000E-02 0. -1.
<mgrwt>
<rscale>  0 0.46117925E+02</rscale>
<asrwt>0</asrwt>
<pdfrwt beam="2">  1        1 0.20339358E-03 0.46117925E+02</pdfrwt>
<pdfrwt beam="1">  1       -1 0.61875053E-01 0.46117925E+02</pdfrwt>
<totfact> 0.30063583E+05</totfact>
</mgrwt>
</event>
<event>
 4    1  0.3883670E-002  0.5052866E+02  0.7818608E-02  0.1442511E+00
          1   -1    0    0    0  501  0.00000000000E+00  0.00000000000E+00  0.22780715738E+01  0.22780771491E+01  0.50400000000E-02 0. -1.
         -1   -1    0    0  501    0 -0.00000000000E+00 -0.00000000000E+00 -0.28018684553E+03  0.28018684558E+03  0.50400000000E-02 0. -1.
          2    1    1    2    0  502  0.55693134611E+00 -0.25248676654E+02 -0.13507884704E+03  0.13741943374E+03  0.25500000000E-02 0.  1.
         -2    1    1    2  502    0 -0.55693134611E+00  0.25248676654E+02 -0.14282992692E+03  0.14504548898E+03  0.25500000000E-02 0.  1.
<mgrwt>
<rscale>  0 0.50528664E+02</rscale>
<asrwt>0</asrwt>
<pdfrwt beam="1">  1        1 0.35047321E-03 0.50528664E+02</pdfrwt>
<pdfrwt beam="2">  1       -1 0.43105642E-01 0.50528664E+02</pdfrwt>
<totfact> 0.28042622E+05</totfact>
</mgrwt>
</event>
<event>
 4    1  0.3883670E-002  0.5987530E+02  0.7818608E-02  0.1398356E+00
          1   -1    0    0    0  501  0.00000000000E+00  0.00000000000E+00  0.16978989701E+03  0.16978989708E+03  0.50400000000E-02 0. -1.
         -1   -1    0    0  501    0 -0.00000000000E+00 -0.00000000000E+00 -0.52786581267E+01  0.52786605328E+01  0.50400000000E-02 0. -1.
          2    1    1    2    0  502 -0.65083637019E+01  0.29146456788E+02  0.76130592189E+02  0.81778614655E+02  0.25500000000E-02 0.  1.
         -2    1    1    2  502    0  0.65083637019E+01 -0.29146456788E+02  0.88380646693E+02  0.93289942961E+02  0.25500000000E-02 0.  1.
<mgrwt>
<rscale>  0 0.59875305E+02</rscale>
<asrwt>0</asrwt>
<pdfrwt beam="1">  1        1 0.26121522E-01 0.59875305E+02</pdfrwt>
<pdfrwt beam="2">  1       -1 0.81210147E-03 0.59875305E+02</pdfrwt>
<totfact> 0.34615533E+05</totfact>
</mgrwt>
</event>
<event>
 4    1  0.3883670E-002  0.4036391E+02  0.7818608E-02  0.1505550E+00
          1   -1    0    0    0  501  0.00000000000E+00  0.00000000000E+00  0.68295603992E+03  0.68295603994E+03  0.50400000000E-02 0. -1.
         -1   -1    0    0  501    0 -0.00000000000E+00 -0.00000000000E+00 -0.59638393521E+00  0.59640523117E+00  0.50400000000E-02 0. -1.
          2    1    1    2    0  502 -0.17682103833E+02 -0.97281135294E+01  0.33888892779E+03  0.33948931997E+03  0.25500000000E-02 0.  1.
         -2    1    1    2  502    0  0.17682103833E+02  0.97281135294E+01  0.34347072819E+03  0.34406312520E+03  0.25500000000E-02 0.  1.
<mgrwt>
<rscale>  0 0.40363909E+02</rscale>
<asrwt>0</asrwt>
<pdfrwt beam="1">  1        1 0.10507054E+00 0.40363909E+02</pdfrwt>
<pdfrwt beam="2">  1       -1 0.91752685E-04 0.40363909E+02</pdfrwt>
<totfact> 0.11210041E+06</totfact>
</mgrwt>
</event>
<event>
 4    1  0.3883670E-002  0.8608133E+02  0.7818608E-02  0.1312629E+00
          1   -1    0    0    0  501  0.00000000000E+00  0.00000000000E+00  0.50016413439E+01  0.50016438832E+01  0.50400000000E-02 0. -1.
         -1   -1    0    0  501    0 -0.00000000000E+00 -0.00000000000E+00 -0.37037812461E+03  0.37037812464E+03  0.50400000000E-02 0. -1.
          2    1    1    2    0  502  0.98286759863E+01  0.36705547695E+02 -0.94540644779E+02  0.10189128336E+03  0.25500000000E-02 0.  1.
         -2    1    1    2  502    0 -0.98286759863E+01 -0.36705547695E+02 -0.27083583849E+03  0.27348848517E+03  0.25500000000E-02 0.  1.
<mgrwt>
<rscale>  0 0.86081334E+02</rscale>
<asrwt>0</asrwt>
<pdfrwt beam="1">  1        1 0.76948377E-03 0.86081334E+02</pdfrwt>
<pdfrwt beam="2">  1       -1 0.56981229E-01 0.86081334E+02</pdfrwt>
<totfact> 0.64298903E+04</totfact>
</mgrwt>
</event>
<event>
 4    1  0.3883670E-002  0.6086500E+02  0.7818608E-02  0.1394237E+00
          1   -1    0    0    0  501  0.00000000000E+00  0.00000000000E+00  0.53964218960E+01  0.53964242495E+01  0.50400000000E-02 0. -1.
         -1   -1    0    0  501    0 -0.00000000000E+00 -0.00000000000E+00 -0.17162053738E+03  0.17162053745E+03  0.50400000000E-02 0. -1.
          2    1    1    2    0  502  0.27553985833E+02 -0.48903389674E+01 -0.11789084981E+03  0.12116678599E+03  0.25500000000E-02 0.  1.
         -2    1    1    2  502    0 -0.27553985833E+02  0.48903389674E+01 -0.48333265666E+02  0.55850175711E+02  0.25500000000E-02 0.  1.
<mgrwt>
<rscale>  0 0.60864999E+02</rscale>
<asrwt>0</asrwt>
<pdfrwt beam="1">  1        1 0.83021907E-03 0.60864999E+02</pdfrwt>
<pdfrwt beam="2">  1       -1 0.26403156E-01 0.60864999E+02</pdfrwt>
<totfact> 0.20402328E+05</totfact>
</mgrwt>
</event>
<event>
 4    1  0.3883670E-002  0.5219566E+02  0.7818608E-02  0.1433846E+00
          1   -1    0    0    0  501  0.00000000000E+00  0.00000000000E+00  0.86191939473E+02  0.86191939621E+02  0.50400000000E-02 0. -1.
         -1   -1    0    0  501    0 -0.00000000000E+00 -0.00000000000E+00 -0.79020933212E+01  0.79020949285E+01  0.50400000000E-02 0. -1.
          2    1    1    2    0  502  0.21903372130E+02  0.14041591554E+02  0.35462424760E+02  0.43983037416E+02  0.25500000000E-02 0.  1.
         -2    1    1    2  502    0 -0.21903372130E+02 -0.14041591554E+02  0.42827421392E+02  0.50110997133E+02  0.25500000000E-02 0.  1.
<mgrwt>
<rscale>  0 0.52195664E+02</rscale>
<asrwt>0</asrwt>
<pdfrwt beam="1">  1        1 0.13260299E-01 0.52195664E+02</pdfrwt>
<pdfrwt beam="2">  1       -1 0.12157068E-02 0.52195664E+02</pdfrwt>
<totfact> 0.44416405E+05</totfact>
</mgrwt>
</event>
<event>
 4    1  0.3883670E-002  0.4633532E+02  0.7818608E-02  0.1466174E+00
         -1   -1    0    0  501    0 -0.00000000000E+00  0.00000000000E+00  0.16023133692E+01  0.16023212958E+01  0.50400000000E-02 0.  1.
          1   -1    0    0    0  501  0.00000000000E+00 -0.00000000000E+00 -0.33497766936E+03  0.33497766940E+03  0.50400000000E-02 0.  1.
          2    1    1    2    0  502  0.84109474919E+01  0.21332090974E+02 -0.14266326541E+03  0.14449432323E+03  0.25500000000E-02 0.  1.
         -2    1    1    2  502    0 -0.84109474919E+01 -0.21332090974E+02 -0.19071209058E+03  0.19208566746E+03  0.25500000000E-02 0.  1.
<mgrwt>
<rscale>  0 0.46335323E+02</rscale>
<asrwt>0</asrwt>
<pdfrwt beam="2">  1        1 0.51534971E-01 0.46335323E+02</pdfrwt>
<pdfrwt beam="1">  1       -1 0.24651063E-03 0.46335323E+02</pdfrwt>
<totfact> 0.74287234E+05</totfact>
</mgrwt>
</event>
<event>
 4    1  0.3883670E-002  0.5496383E+02  0.7818608E-02  0.1420270E+00
          1   -1    0    0    0  501  0.00000000000E+00  0.00000000000E+00  0.25814034291E+03  0.25814034296E+03  0.50400000000E-02 0.  1.
         -1   -1    0    0  501    0 -0.00000000000E+00 -0.00000000000E+00 -0.29257538439E+01  0.29257581849E+01  0.50400000000E-02 0.  1.
          2    1    1    2    0  502  0.22481989416E+02  0.14113951184E+02  0.16139829897E+03  0.16356666648E+03  0.25500000000E-02 0.  1.
         -2    1    1    2  502    0 -0.22481989416E+02 -0.14113951184E+02  0.93816290097E+02  0.97499434666E+02  0.25500000000E-02 0.  1.
<mgrwt>
<rscale>  0 0.54963831E+02</rscale>
<asrwt>0</asrwt>
<pdfrwt beam="1">  1        1 0.39713916E-01 0.54963831E+02</pdfrwt>
<pdfrwt beam="2">  1       -1 0.45011612E-03 0.54963831E+02</pdfrwt>
<totfact> 0.46342245E+05</totfact>
</mgrwt>
</event>
<event>
 4    1  0.3883670E-002  0.9344865E+02  0.7818608E-02  0.1294709E+00
          1   -1    0    0    0  501  0.00000000000E+00  0.00000000000E+00  0.29431855489E+02  0.29431855921E+02  0.50400000000E-02 0.  1.
         -1   -1    0    0  501    0 -0.00000000000E+00 -0.00000000000E+00 -0.74176849050E+02  0.74176849222E+02  0.50400000000E-02 0.  1.
          2    1    1    2    0  502 -0.16599213570E+02  0.34843766317E+02 -0.51570900757E+02  0.64414126973E+02  0.25500000000E-02 0.  1.
         -2    1    1    2  502    0  0.16599213570E+02 -0.34843766317E+02  0.68259071958E+01  0.39194578169E+02  0.25500000000E-02 0.  1.
<mgrwt>
<rscale>  0 0.93448645E+02</rscale>
<asrwt>0</asrwt>
<pdfrwt beam="1">  1        1 0.45279778E-02 0.93448645E+02</pdfrwt>
<pdfrwt beam="2">  1       -1 0.11411823E-01 0.93448645E+02</pdfrwt>
<totfact> 0.80495900E+04</totfact>
</mgrwt>
</event>
<event>
 4    1  0.3883670E-002  0.9874386E+02  0.7818608E-02  0.1282960E+00
         -1   -1    0    0  501    0 -0.00000000000E+00  0.00000000000E+00  0.15084666526E+03  0.15084666534E+03  0.50400000000E-02 0. -1.
          1   -1    0    0    0  501  0.00000000000E+00 -0.00000000000E+00 -0.16159372027E+02  0.16159372813E+02  0.50400000000E-02 0. -1.
          2    1    1    2    0  502  0.34263494790E+02 -0.29558112996E+02  0.10074075766E+03  0.11043717391E+03  0.25500000000E-02 0.  1.
         -2    1    1    2  502    0 -0.34263494790E+02  0.29558112996E+02  0.33946535569E+02  0.56568864252E+02  0.25500000000E-02 0.  1.
<mgrwt>
<rscale>  0 0.98743860E+02</rscale>
<asrwt>0</asrwt>
<pdfrwt beam="2">  1        1 0.24860572E-02 0.98743860E+02</pdfrwt>
<pdfrwt beam="1">  1       -1 0.23207180E-01 0.98743860E+02</pdfrwt>
<totfact> 0.60695233E+04</totfact>
</mgrwt>
</event>
<event>
 4    1  0.3883670E-002  0.5153121E+02  0.7818608E-02  0.1437253E+00
          1   -1    0    0    0  501  0.00000000000E+00  0.00000000000E+00  0.33718840348E+01  0.33718878015E+01  0.50400000000E-02 0. -1.
         -1   -1    0    0  501    0 -0.00000000000E+00 -0.00000000000E+00 -0.19688278060E+03  0.19688278067E+03  0.50400000000E-02 0. -1.
          2    1    1    2    0  502  0.17809130054E+02  0.16255021116E+02 -0.61463574988E+02  0.66023949304E+02  0.25500000000E-02 0. -1.
         -2    1    1    2  502    0 -0.17809130054E+02 -0.16255021116E+02 -0.13204732158E+03  0.13423071916E+03  0.25500000000E-02 0. -1.
<mgrwt>
<rscale>  0 0.51531206E+02</rscale>
<asrwt>0</asrwt>
<pdfrwt beam="1">  1        1 0.51875184E-03 0.51531206E+02</pdfrwt>
<pdfrwt beam="2">  1       -1 0.30289650E-01 0.51531206E+02</pdfrwt>
<totfact> 0.29875108E+05</totfact>
</mgrwt>
</event>
<event>
 4    1  0.3883670E-002  0.7871527E+02  0.7818608E-02  0.1332737E+00
         -1   -1    0    0  501    0 -0.00000000000E+00  0.00000000000E+00  0.69778394493E+01  0.69778412694E+01  0.50400000000E-02 0. -1.
          1   -1    0    0    0  501  0.00000000000E+00 -0.00000000000E+00 -0.22199182814E+03  0.22199182820E+03  0.50400000000E-02 0. -1.
          2    1    1    2    0  502  0.37932344423E+02  0.10495737375E+02 -0.10755633894E+03  0.11453117177E+03  0.25500000000E-02 0. -1.
         -2    1    1    2  502    0 -0.37932344423E+02 -0.10495737375E+02 -0.10745764975E+03  0.11443849769E+03  0.25500000000E-02 0. -1.
<mgrwt>
<rscale>  0 0.78715273E+02</rscale>
<asrwt>0</asrwt>
<pdfrwt beam="2">  1        1 0.34152584E-01 0.78715273E+02</pdfrwt>
<pdfrwt beam="1">  1       -1 0.10735141E-02 0.78715273E+02</pdfrwt>
<totfact> 0.17849594E+05</totfact>
</mgrwt>
</event>
<event>
 4    1  0.3883670E-002  0.4049910E+02  0.7818608E-02  0.1504570E+00
         -1   -1    0    0  501    0 -0.00000000000E+00  0.00000000000E+00  0.14343411004E+03  0.14343411013E+03  0.50400000000E-02 0.  1.
          1   -1    0    0    0  501  0.00000000000E+00 -0.00000000000E+00 -0.28587618350E+01  0.28587662777E+01  0.50400000000E-02 0.  1.
          2    1    1    2    0  502  0.19852813604E+02  0.36571656770E+01  0.64536119289E+02  0.67619669980E+02  0.25500000000E-02 0.  1.
         -2    1    1    2  502    0 -0.19852813604E+02 -0.36571656770E+01  0.76039228915E+02  0.78673206426E+02  0.25500000000E-02 0.  1.
<mgrwt>
<rscale>  0 0.40499101E+02</rscale>
<asrwt>0</asrwt>
<pdfrwt beam="2">  1        1 0.43980983E-03 0.40499101E+02</pdfrwt>
<pdfrwt beam="1">  1       -1 0.22066788E-01 0.40499101E+02</pdfrwt>
<totfact> 0.58260343E+05</totfact>
</mgrwt>
</event>
<event>
 4    1  0.3883670E-002  0.4576346E+02  0.7818608E-02  0.1469631E+00
          1   -1    0    0    0  501  0.00000000000E+00  0.00000000000E+00  0.17544144888E+04  0.17544144888E+04  0.50400000000E-02 0. -1.
         -1   -1    0    0  501    0 -0.00000000000E+00 -0.00000000000E+00 -0.29841076289E+00  0.29845332132E+00  0.50400000000E-02 0. -1.
          2    1    1    2    0  502  0.67949313392E+01 -0.20421885651E+02  0.57919111063E+03  0.57959086186E+03  0.25500000000E-02 0.  1.
         -2    1    1    2  502    0 -0.67949313392E+01  0.20421885651E+02  0.11749249674E+04  0.11751220803E+04  0.25500000000E-02 0.  1.
<mgrwt>
<rscale>  0 0.45763458E+02</rscale>
<asrwt>0</asrwt>
<pdfrwt beam="1">  1        1 0.26990598E+00 0.45763458E+02</pdfrwt>
<pdfrwt beam="2">  1       -1 0.45913294E-04 0.45763458E+02</pdfrwt>
<totfact> 0.55587029E+05</totfact>
</mgrwt>
</event>
<event>
 4    1  0.3883670E-002  0.4736222E+02  0.7818608E-02  0.1460111E+00
         -1   -1    0    0  501    0 -0.00000000000E+00  0.00000000000E+00  0.53402336506E+02  0.53402336744E+02  0.50400000000E-02 0. -1.
          1   -1    0    0    0  501  0.00000000000E+00 -0.00000000000E+00 -0.10501317818E+02  0.10501319028E+02  0.50400000000E-02 0. -1.
          2    1    1    2    0  502  0.19534026344E+02 -0.63284843068E+01  0.37367533238E+02  0.42637547369E+02  0.25500000000E-02 0.  1.
         -2    1    1    2  502    0 -0.19534026344E+02  0.63284843068E+01  0.55334854493E+01  0.21266108402E+02  0.25500000000E-02 0.  1.
<mgrwt>
<rscale>  0 0.47362219E+02</rscale>
<asrwt>0</asrwt>
<pdfrwt beam="2">  1        1 0.16155875E-02 0.47362219E+02</pdfrwt>
<pdfrwt beam="1">  1       -1 0.82157442E-02 0.47362219E+02</pdfrwt>
<totfact> 0.46335920E+05</totfact>
</mgrwt>
</event>
<event>
 4    1  0.3883670E-002  0.4585609E+02  0.7818608E-02  0.1469067E+00
          1   -1    0    0    0  501  0.00000000000E+00  0.00000000000E+00  0.33369078402E+01  0.33369116463E+01  0.50400000000E-02 0.  1.
         -1   -1    0    0  501    0 -0.00000000000E+00 -0.00000000000E+00 -0.15753956230E+03  0.15753956238E+03  0.50400000000E-02 0.  1.
          2    1    1    2    0  502 -0.17082093549E+02  0.11069055204E+02 -0.11412557442E+03  0.11592656575E+03  0.25500000000E-02 0.  1.
         -2    1    1    2  502    0  0.17082093549E+02 -0.11069055204E+02 -0.40077080033E+02  0.44949908272E+02  0.25500000000E-02 0.  1.
<mgrwt>
<rscale>  0 0.45856093E+02</rscale>
<asrwt>0</asrwt>
<pdfrwt beam="1">  1        1 0.51337086E-03 0.45856093E+02</pdfrwt>
<pdfrwt beam="2">  1       -1 0.24236850E-01 0.45856093E+02</pdfrwt>
<totfact> 0.42148959E+05</totfact>
</mgrwt>
</event>
<event>
 4    1  0.3883670E-002  0.7371519E+02  0.7818608E-02  0.1347896E+00
          1   -1    0    0    0  501  0.00000000000E+00  0.00000000000E+00  0.16619682382E+04  0.16619682382E+04  0.50400000000E-02 0.  1.
         -1   -1    0    0  501    0 -0.00000000000E+00 -0.00000000000E+00 -0.81738593252E+00  0.81740147069E+00  0.50400000000E-02 0.  1.
          2    1    1    2    0  502 -0.15573763724E+02 -0.17055771095E+02  0.14784889004E+04  0.14786692903E+04  0.25500000000E-02 0.  1.
         -2    1    1    2  502    0  0.15573763724E+02  0.17055771095E+02  0.18266195182E+03  0.18411634934E+03  0.25500000000E-02 0.  1.
<mgrwt>
<rscale>  0 0.73715192E+02</rscale>
<asrwt>0</asrwt>
<pdfrwt beam="1">  1        1 0.25568804E+00 0.73715192E+02</pdfrwt>
<pdfrwt beam="2">  1       -1 0.12575257E-03 0.73715192E+02</pdfrwt>
<totfact> 0.17567096E+05</totfact>
</mgrwt>
</event>
<event>
 4    1  0.3883670E-002  0.4692131E+02  0.7818608E-02  0.1462692E+00
          1   -1    0    0    0  501  0.00000000000E+00  0.00000000000E+00  0.26588039053E+03  0.26588039058E+03  0.50400000000E-02 0. -1.
         -1   -1    0    0  501    0 -0.00000000000E+00 -0.00000000000E+00 -0.20701096865E+01  0.20701158218E+01  0.50400000000E-02 0. -1.
          2    1    1    2    0  502 -0.17718896713E+02 -0.10194998317E+02  0.19764075504E+03  0.19869515683E+03  0.25500000000E-02 0. -1.
         -2    1    1    2  502    0  0.17718896713E+02  0.10194998317E+02  0.66169525808E+02  0.69255349566E+02  0.25500000000E-02 0. -1.
<mgrwt>
<rscale>  0 0.46921313E+02</rscale>
<asrwt>0</asrwt>
<pdfrwt beam="1">  1        1 0.40904642E-01 0.46921313E+02</pdfrwt>
<pdfrwt beam="2">  1       -1 0.31847915E-03 0.46921313E+02</pdfrwt>
<totfact> 0.69204277E+05</totfact>
</mgrwt>
</event>
<event>
 4    1  0.3883670E-002  0.6425179E+02  0.7818608E-02  0.1380808E+00
         -1   -1    0    0  501    0 -0.00000000000E+00  0.00000000000E+00  0.62467160417E+00  0.62469193580E+00  0.50400000000E-02 0. -1.
          1   -1    0    0    0  501  0.00000000000E+00 -0.00000000000E+00 -0.16521584479E+04  0.16521584479E+04  0.50400000000E-02 0. -1.
          2    1    1    2    0  502  0.30028866424E+02 -0.84871373705E+01 -0.10221925491E+04  0.10226687498E+04  0.25500000000E-02 0. -1.
         -2    1    1    2  502    0 -0.30028866424E+02  0.84871373705E+01 -0.62934122715E+03  0.63011439003E+03  0.25500000000E-02 0. -1.
<mgrwt>
<rscale>  0 0.64251795E+02</rscale>
<asrwt>0</asrwt>
<pdfrwt beam="2">  1        1 0.25417473E+00 0.64251795E+02</pdfrwt>
<pdfrwt beam="1">  1       -1 0.96106211E-04 0.64251795E+02</pdfrwt>
<totfact> 0.25188800E+05</totfact>
</mgrwt>
</event>
<event>
 4    1  0.3883670E-002  0.4836111E+02  0.7818608E-02  0.1454387E+00
          1   -1    0    0    0  501  0.00000000000E+00  0.00000000000E+00  0.40009297497E+03  0.40009297500E+03  0.50400000000E-02 0.  1.
         -1   -1    0    0  501    0 -0.00000000000E+00 -0.00000000000E+00 -0.14614039144E+01  0.14614126052E+01  0.50400000000E-02 0.  1.
          2    1    1    2    0  502 -0.13895903716E+02  0.18483581170E+02  0.14062626943E+03  0.14251486439E+03  0.25500000000E-02 0. -1.
         -2    1    1    2  502    0  0.13895903716E+02 -0.18483581170E+02  0.25800530163E+03  0.25903952322E+03  0.25500000000E-02 0. -1.
<mgrwt>
<rscale>  0 0.48361108E+02</rscale>
<asrwt>0</asrwt>
<pdfrwt beam="1">  1        1 0.61552791E-01 0.48361108E+02</pdfrwt>
<pdfrwt beam="2">  1       -1 0.22483195E-03 0.48361108E+02</pdfrwt>
<totfact> 0.68739482E+05</totfact>
</mgrwt>
</event>
<event>
 4    1  0.3883670E-002  0.4629751E+02  0.7818608E-02  0.1466400E+00
          1   -1    0    0    0  501  0.00000000000E+00  0.00000000000E+00  0.10458360892E+01  0.10458482333E+01  0.50400000000E-02 0. -1.
         -1   -1    0    0  501    0 -0.00000000000E+00 -0.00000000000E+00 -0.51237646462E+03  0.51237646465E+03  0.50400000000E-02 0. -1.
          2    1    1    2    0  502  0.21830431802E+02 -0.76684979700E+01 -0.24789226961E+03  0.24896977920E+03  0.25500000000E-02 0. -1.
         -2    1    1    2  502    0 -0.21830431802E+02  0.76684979700E+01 -0.26343835892E+03  0.26445253368E+03  0.25500000000E-02 0. -1.
<mgrwt>
<rscale>  0 0.46297513E+02</rscale>
<asrwt>0</asrwt>
<pdfrwt beam="1">  1        1 0.16089921E-03 0.46297513E+02</pdfrwt>
<pdfrwt beam="2">  1       -1 0.78826949E-01 0.46297513E+02</pdfrwt>
<totfact> 0.25974472E+05</totfact>
</mgrwt>
</event>
<event>
 4    1  0.3883670E-002  0.4219070E+02  0.7818608E-02  0.1492682E+00
         -1   -1    0    0  501    0 -0.00000000000E+00  0.00000000000E+00  0.16069840741E+03  0.16069840749E+03  0.50400000000E-02 0. -1.
          1   -1    0    0    0  501  0.00000000000E+00 -0.00000000000E+00 -0.27692462831E+01  0.27692508694E+01  0.50400000000E-02 0. -1.
          2    1    1    2    0  502  0.14151310807E+02  0.15352046993E+02  0.90632470853E+02  0.93006396144E+02  0.25500000000E-02 0.  1.
         -2    1    1    2  502    0 -0.14151310807E+02 -0.15352046993E+02  0.67296690277E+02  0.70461262217E+02  0.25500000000E-02 0.  1.
<mgrwt>
<rscale>  0 0.42190703E+02</rscale>
<asrwt>0</asrwt>
<pdfrwt beam="2">  1        1 0.42603812E-03 0.42190703E+02</pdfrwt>
<pdfrwt beam="1">  1       -1 0.24722839E-01 0.42190703E+02</pdfrwt>
<totfact> 0.51432510E+05</totfact>
</mgrwt>
</event>
<event>
 4    1  0.3883670E-002  0.4081570E+02  0.7818608E-02  0.1502293E+00
         -1   -1    0    0  501    0 -0.00000000000E+00  0.00000000000E+00  0.31753022395E+00  0.31757022015E+00  0.50400000000E-02 0.  1.
          1   -1    0    0    0  501  0.00000000000E+00 -0.00000000000E+00 -0.13115415633E+04  0.13115415633E+04  0.50400000000E-02 0.  1.
          2    1    1    2    0  502  0.17247733479E+02  0.10361722660E+02 -0.76522529150E+03  0.76548977548E+03  0.25500000000E-02 0. -1.
         -2    1    1    2  502    0 -0.17247733479E+02 -0.10361722660E+02 -0.54599874155E+03  0.54636935803E+03  0.25500000000E-02 0. -1.
<mgrwt>
<rscale>  0 0.40815699E+02</rscale>
<asrwt>0</asrwt>
<pdfrwt beam="2">  1        1 0.20177129E+00 0.40815699E+02</pdfrwt>
<pdfrwt beam="1">  1       -1 0.48854931E-04 0.40815699E+02</pdfrwt>
<totfact> 0.93600405E+05</totfact>
</mgrwt>
</event>
<event>
 4    1  0.3883670E-002  0.4149846E+02  0.7818608E-02  0.1497465E+00
         -1   -1    0    0  501    0 -0.00000000000E+00  0.00000000000E+00  0.89479502616E+02  0.89479502758E+02  0.50400000000E-02 0.  1.
          1   -1    0    0    0  501  0.00000000000E+00 -0.00000000000E+00 -0.48114979035E+01  0.48115005432E+01  0.50400000000E-02 0.  1.
          2    1    1    2    0  502  0.17309100534E+02 -0.10314491611E+02  0.31078942626E+02  0.37039092588E+02  0.25500000000E-02 0.  1.
         -2    1    1    2  502    0 -0.17309100534E+02  0.10314491611E+02  0.53589062087E+02  0.57251910713E+02  0.25500000000E-02 0.  1.
<mgrwt>
<rscale>  0 0.41498461E+02</rscale>
<asrwt>0</asrwt>
<pdfrwt beam="2">  1        1 0.74023071E-03 0.41498461E+02</pdfrwt>
<pdfrwt beam="1">  1       -1 0.13766077E-01 0.41498461E+02</pdfrwt>
<totfact> 0.59805830E+05</totfact>
</mgrwt>
</event>
<event>
 4    1  0.3883670E-002  0.4979386E+02  0.7818608E-02  0.1446457E+00
          1   -1    0    0    0  501  0.00000000000E+00  0.00000000000E+00  0.90333277408E+03  0.90333277410E+03  0.50400000000E-02 0.  1.
         -1   -1    0    0  501    0 -0.00000000000E+00 -0.00000000000E+00 -0.68617972778E+00  0.68619823697E+00  0.50400000000E-02 0.  1.
          2    1    1    2    0  502 -0.21655546867E+02 -0.11870902042E+02  0.39398041364E+03  0.39475365403E+03  0.25500000000E-02 0. -1.
         -2    1    1    2  502    0  0.21655546867E+02  0.11870902042E+02  0.50866618071E+03  0.50926531831E+03  0.25500000000E-02 0. -1.
<mgrwt>
<rscale>  0 0.49793855E+02</rscale>
<asrwt>0</asrwt>
<pdfrwt beam="1">  1        1 0.13897430E+00 0.49793855E+02</pdfrwt>
<pdfrwt beam="2">  1       -1 0.10556752E-03 0.49793855E+02</pdfrwt>
<totfact> 0.65550074E+05</totfact>
</mgrwt>
</event>
<event>
 4    1  0.3883670E-002  0.4518137E+02  0.7818608E-02  0.1473213E+00
         -1   -1    0    0  501    0 -0.00000000000E+00  0.00000000000E+00  0.94856550267E+03  0.94856550268E+03  0.50400000000E-02 0.  1.
          1   -1    0    0    0  501  0.00000000000E+00 -0.00000000000E+00 -0.53799946873E+00  0.53802307567E+00  0.50400000000E-02 0.  1.
          2    1    1    2    0  502  0.13630581282E+02 -0.17765627541E+02  0.53678310370E+03  0.53724995179E+03  0.25500000000E-02 0.  1.
         -2    1    1    2  502    0 -0.13630581282E+02  0.17765627541E+02  0.41124439950E+03  0.41185357397E+03  0.25500000000E-02 0.  1.
<mgrwt>
<rscale>  0 0.45181365E+02</rscale>
<asrwt>0</asrwt>
<pdfrwt beam="2">  1        1 0.82771532E-04 0.45181365E+02</pdfrwt>
<pdfrwt beam="1">  1       -1 0.14593216E+00 0.45181365E+02</pdfrwt>
<totfact> 0.16272841E+05</totfact>
</mgrwt>
</event>
<event>
 4    1  0.3883670E-002  0.7807501E+02  0.7818608E-02  0.1334605E+00
          1   -1    0    0    0  501  0.00000000000E+00  0.00000000000E+00  0.17385641651E+02  0.17385642382E+02  0.50400000000E-02 0. -1.
         -1   -1    0    0  501    0 -0.00000000000E+00 -0.00000000000E+00 -0.87654332630E+02  0.87654332775E+02  0.50400000000E-02 0. -1.
          2    1    1    2    0  502 -0.26262521268E+02  0.28311988494E+02 -0.27448259264E+02  0.47378219247E+02  0.25500000000E-02 0. -1.
         -2    1    1    2  502    0  0.26262521268E+02 -0.28311988494E+02 -0.42820431715E+02  0.57661755910E+02  0.25500000000E-02 0. -1.
<mgrwt>
<rscale>  0 0.78075012E+02</rscale>
<asrwt>0</asrwt>
<pdfrwt beam="1">  1        1 0.26747142E-02 0.78075012E+02</pdfrwt>
<pdfrwt beam="2">  1       -1 0.13485282E-01 0.78075012E+02</pdfrwt>
<totfact> 0.12393427E+05</totfact>
</mgrwt>
</event>
<event>
 4    1  0.3883670E-002  0.4044275E+02  0.7818608E-02  0.1504978E+00
          1   -1    0    0    0  501  0.00000000000E+00  0.00000000000E+00  0.82929275521E+03  0.82929275523E+03  0.50400000000E-02 0.  1.
         -1   -1    0    0  501    0 -0.00000000000E+00 -0.00000000000E+00 -0.49306269658E+00  0.49308845491E+00  0.50400000000E-02 0.  1.
          2    1    1    2    0  502  0.19612763224E+02  0.41762961090E+01  0.46791122697E+03  0.46834070746E+03  0.25500000000E-02 0. -1.
         -2    1    1    2  502    0 -0.19612763224E+02 -0.41762961090E+01  0.36088846554E+03  0.36144513622E+03  0.25500000000E-02 0. -1.
<mgrwt>
<rscale>  0 0.40442750E+02</rscale>
<asrwt>0</asrwt>
<pdfrwt beam="1">  1        1 0.12758259E+00 0.40442750E+02</pdfrwt>
<pdfrwt beam="2">  1       -1 0.75858323E-04 0.40442750E+02</pdfrwt>
<totfact> 0.11043410E+06</totfact>
</mgrwt>
</event>
<event>
 4    1  0.3883670E-002  0.5726212E+02  0.7818608E-02  0.1409694E+00
          1   -1    0    0    0  501  0.00000000000E+00  0.00000000000E+00  0.20582803927E+04  0.20582803927E+04  0.50400000000E-02 0.  1.
         -1   -1    0    0  501    0 -0.00000000000E+00 -0.00000000000E+00 -0.39824741148E+00  0.39827930194E+00  0.50400000000E-02 0.  1.
          2    1    1    2    0  502 -0.42164868739E+01 -0.22998359164E+02  0.43488178546E+03  0.43550989727E+03  0.25500000000E-02 0. -1.
         -2    1    1    2  502    0  0.42164868739E+01  0.22998359164E+02  0.16230003598E+04  0.16231687747E+04  0.25500000000E-02 0. -1.
<mgrwt>
<rscale>  0 0.57262123E+02</rscale>
<asrwt>0</asrwt>
<pdfrwt beam="1">  1        1 0.31665101E+00 0.57262123E+02</pdfrwt>
<pdfrwt beam="2">  1       -1 0.61272740E-04 0.57262123E+02</pdfrwt>
<totfact> 0.25574662E+05</totfact>
</mgrwt>
</event>
<event>
 4    1  0.3883670E-002  0.5537144E+02  0.7818608E-02  0.1418350E+00
          1   -1    0    0    0  501  0.00000000000E+00  0.00000000000E+00  0.27776952422E+03  0.27776952427E+03  0.50400000000E-02 0. -1.
         -1   -1    0    0  501    0 -0.00000000000E+00 -0.00000000000E+00 -0.27594768732E+01  0.27594814758E+01  0.50400000000E-02 0. -1.
          2    1    1    2    0  502 -0.21355949465E+02  0.11417653085E+02  0.69522019801E+02  0.73618955597E+02  0.25500000000E-02 0.  1.
         -2    1    1    2  502    0  0.21355949465E+02 -0.11417653085E+02  0.20548802755E+03  0.20691005015E+03  0.25500000000E-02 0.  1.
<mgrwt>
<rscale>  0 0.55371445E+02</rscale>
<asrwt>0</asrwt>
<pdfrwt beam="1">  1        1 0.42733770E-01 0.55371445E+02</pdfrwt>
<pdfrwt beam="2">  1       -1 0.42453530E-03 0.55371445E+02</pdfrwt>
<totfact> 0.46089391E+05</totfact>
</mgrwt>
</event>
<event>
 4    1  0.3883670E-002  0.5062060E+02  0.7818608E-02  0.1442023E+00
         -1   -1    0    0  501    0 -0.00000000000E+00  0.00000000000E+00  0.91668679016E+00  0.91670064517E+00  0.50400000000E-02 0. -1.
          1   -1    0    0    0  501  0.00000000000E+00 -0.00000000000E+00 -0.69882794021E+03  0.69882794023E+03  0.50400000000E-02 0. -1.
          2    1    1    2    0  502  0.19360921175E+02 -0.12854948959E+02 -0.21036611332E+03  0.21164592276E+03  0.25500000000E-02 0.  1.
         -2    1    1    2  502    0 -0.19360921175E+02  0.12854948959E+02 -0.48754514010E+03  0.48809871812E+03  0.25500000000E-02 0.  1.
<mgrwt>
<rscale>  0 0.50620596E+02</rscale>
<asrwt>0</asrwt>
<pdfrwt beam="2">  1        1 0.10751157E+00 0.50620596E+02</pdfrwt>
<pdfrwt beam="1">  1       -1 0.14103036E-03 0.50620596E+02</pdfrwt>
<totfact> 0.64355239E+05</totfact>
</mgrwt>
</event>
<event>
 4    1  0.3883670E-002  0.4405994E+02  0.7818608E-02  0.1480297E+00
          1   -1    0    0    0  501  0.00000000000E+00  0.00000000000E+00  0.41467020776E+03  0.41467020779E+03  0.50400000000E-02 0. -1.
         -1   -1    0    0  501    0 -0.00000000000E+00 -0.00000000000E+00 -0.11703696376E+01  0.11703804895E+01  0.50400000000E-02 0. -1.
          2    1    1    2    0  502 -0.11709840328E+02 -0.16845873615E+02  0.13100049625E+03  0.13259726182E+03  0.25500000000E-02 0. -1.
         -2    1    1    2  502    0  0.11709840328E+02  0.16845873615E+02  0.28249934187E+03  0.28324332646E+03  0.25500000000E-02 0. -1.
<mgrwt>
<rscale>  0 0.44059945E+02</rscale>
<asrwt>0</asrwt>
<pdfrwt beam="1">  1        1 0.63795435E-01 0.44059945E+02</pdfrwt>
<pdfrwt beam="2">  1       -1 0.18005766E-03 0.44059945E+02</pdfrwt>
<totfact> 0.86918275E+05</totfact>
</mgrwt>
</event>
<event>
 4    1  0.3883670E-002  0.7833258E+02  0.7818608E-02  0.1333851E+00
          1   -1    0    0    0  501  0.00000000000E+00  0.00000000000E+00  0.57061611839E+03  0.57061611841E+03  0.50400000000E-02 0.  1.
         -1   -1    0    0  501    0 -0.00000000000E+00 -0.00000000000E+00 -0.26883171320E+01  0.26883218564E+01  0.50400000000E-02 0.  1.
          2    1    1    2    0  502  0.12621752497E+02 -0.22911239375E+02  0.70614096849E+02  0.75303281509E+02  0.25500000000E-02 0. -1.
         -2    1    1    2  502    0 -0.12621752497E+02  0.22911239375E+02  0.49731370441E+03  0.49800115876E+03  0.25500000000E-02 0. -1.
<mgrwt>
<rscale>  0 0.78332584E+02</rscale>
<asrwt>0</asrwt>
<pdfrwt beam="1">  1        1 0.87786988E-01 0.78332584E+02</pdfrwt>
<pdfrwt beam="2">  1       -1 0.41358812E-03 0.78332584E+02</pdfrwt>
<totfact> 0.21027124E+05</totfact>
</mgrwt>
</event>
<event>
 4    1  0.3883670E-002  0.5331485E+02  0.7818608E-02  0.1428240E+00
          1   -1    0    0    0  501  0.00000000000E+00  0.00000000000E+00  0.20052924779E+01  0.20052988115E+01  0.50400000000E-02 0. -1.
         -1   -1    0    0  501    0 -0.00000000000E+00 -0.00000000000E+00 -0.35437087317E+03  0.35437087321E+03  0.50400000000E-02 0. -1.
          2    1    1    2    0  502  0.70532683946E+01  0.25691123995E+02 -0.18229424779E+03  0.18423076624E+03  0.25500000000E-02 0. -1.
         -2    1    1    2  502    0 -0.70532683946E+01 -0.25691123995E+02 -0.17007133291E+03  0.17214540578E+03  0.25500000000E-02 0. -1.
<mgrwt>
<rscale>  0 0.53314853E+02</rscale>
<asrwt>0</asrwt>
<pdfrwt beam="1">  1        1 0.30850731E-03 0.53314853E+02</pdfrwt>
<pdfrwt beam="2">  1       -1 0.54518547E-01 0.53314853E+02</pdfrwt>
<totfact> 0.22302779E+05</totfact>
</mgrwt>
</event>
<event>
 4    1  0.3883670E-002  0.8498082E+02  0.7818608E-02  0.1315483E+00
         -1   -1    0    0  501    0 -0.00000000000E+00  0.00000000000E+00  0.14809070333E+04  0.14809070334E+04  0.50400000000E-02 0.  1.
          1   -1    0    0    0  501  0.00000000000E+00 -0.00000000000E+00 -0.12191359874E+01  0.12191464053E+01  0.50400000000E-02 0.  1.
          2    1    1    2    0  502  0.24554921821E+02 -0.24437332437E+02  0.31075012523E+03  0.31267517928E+03  0.25500000000E-02 0.  1.
         -2    1    1    2  502    0 -0.24554921821E+02  0.24437332437E+02  0.11689377721E+04  0.11694510005E+04  0.25500000000E-02 0.  1.
<mgrwt>
<rscale>  0 0.84980816E+02</rscale>
<asrwt>0</asrwt>
<pdfrwt beam="2">  1        1 0.18756125E-03 0.84980816E+02</pdfrwt>
<pdfrwt beam="1">  1       -1 0.22783056E+00 0.84980816E+02</pdfrwt>
<totfact> 0.17013768E+04</totfact>
</mgrwt>
</event>
<event>
 4    1  0.3883670E-002  0.5243622E+02  0.7818608E-02  0.1432627E+00
         -1   -1    0    0  501    0 -0.00000000000E+00  0.00000000000E+00  0.71960264366E+02  0.71960264543E+02  0.50400000000E-02 0.  1.
          1   -1    0    0    0  501  0.00000000000E+00 -0.00000000000E+00 -0.95523448388E+01  0.95523461684E+01  0.50400000000E-02 0.  1.
          2    1    1    2    0  502  0.16975461393E+02  0.13161202329E+02  0.78342570042E+01  0.22863926293E+02  0.25500000000E-02 0.  1.
         -2    1    1    2  502    0 -0.16975461393E+02 -0.13161202329E+02  0.54573662523E+02  0.58648684418E+02  0.25500000000E-02 0.  1.
<mgrwt>
<rscale>  0 0.52436221E+02</rscale>
<asrwt>0</asrwt>
<pdfrwt beam="2">  1        1 0.14695917E-02 0.52436221E+02</pdfrwt>
<pdfrwt beam="1">  1       -1 0.11070810E-01 0.52436221E+02</pdfrwt>
<totfact> 0.34760055E+05</totfact>
</mgrwt>
</event>
<event>
 4    1  0.3883670E-002  0.6295506E+02  0.7818608E-02  0.1385833E+00
         -1   -1    0    0  501    0 -0.00000000000E+00  0.00000000000E+00  0.63468702692E+00  0.63470703772E+00  0.50400000000E-02 0.  1.
          1   -1    0    0    0  501  0.00000000000E+00 -0.00000000000E+00 -0.15611146221E+04  0.15611146221E+04  0.50400000000E-02 0.  1.
          2    1    1    2    0  502 -0.19185148372E+02  0.24453447630E+02 -0.65671569933E+03  0.65745079722E+03  0.25500000000E-02 0.  1.
         -2    1    1    2  502    0  0.19185148372E+02 -0.24453447630E+02 -0.90376423577E+03  0.90429853195E+03  0.25500000000E-02 0.  1.
<mgrwt>
<rscale>  0 0.62955058E+02</rscale>
<asrwt>0</asrwt>
<pdfrwt beam="2">  1        1 0.24016841E+00 0.62955058E+02</pdfrwt>
<pdfrwt beam="1">  1       -1 0.97646947E-04 0.62955058E+02</pdfrwt>
<totfact> 0.27992800E+05</totfact>
</mgrwt>
</event>
<event>
 4    1  0.3883670E-002  0.6204166E+02  0.7818608E-02  0.1389458E+00
          1   -1    0    0    0  501  0.00000000000E+00  0.00000000000E+00  0.17845921430E+04  0.17845921430E+04  0.50400000000E-02 0.  1.
         -1   -1    0    0  501    0 -0.00000000000E+00 -0.00000000000E+00 -0.53921047655E+00  0.53923403047E+00  0.50400000000E-02 0.  1.
          2    1    1    2    0  502 -0.86909192727E+01  0.21753017168E+02  0.30688726992E+03  0.30777999005E+03  0.25500000000E-02 0. -1.
         -2    1    1    2  502    0  0.86909192727E+01 -0.21753017168E+02  0.14771656626E+04  0.14773513870E+04  0.25500000000E-02 0. -1.
<mgrwt>
<rscale>  0 0.62041657E+02</rscale>
<asrwt>0</asrwt>
<pdfrwt beam="1">  1        1 0.27455461E+00 0.62041657E+02</pdfrwt>
<pdfrwt beam="2">  1       -1 0.82956674E-04 0.62041657E+02</pdfrwt>
<totfact> 0.25328291E+05</totfact>
</mgrwt>
</event>
<event>
 4    1  0.3883670E-002  0.1656106E+03  0.7818608E-02  0.1182504E+00
         -1   -1    0    0  501    0 -0.00000000000E+00  0.00000000000E+00  0.31522223791E+02  0.31522224194E+02  0.50400000000E-02 0. -1.
          1   -1    0    0    0  501  0.00000000000E+00 -0.00000000000E+00 -0.21752004437E+03  0.21752004443E+03  0.50400000000E-02 0. -1.
          2    1    1    2    0  502 -0.24425226162E+02 -0.59396577854E+02 -0.17160186915E+03  0.18322594422E+03  0.25500000000E-02 0. -1.
         -2    1    1    2  502    0  0.24425226162E+02  0.59396577854E+02 -0.14395951433E+02  0.65816324404E+02  0.25500000000E-02 0. -1.
<mgrwt>
<rscale>  0 0.16561057E+03</rscale>
<asrwt>0</asrwt>
<pdfrwt beam="2">  1        1 0.33464621E-01 0.16561057E+03</pdfrwt>
<pdfrwt beam="1">  1       -1 0.48495731E-02 0.16561057E+03</pdfrwt>
<totfact> 0.22991562E+04</totfact>
</mgrwt>
</event>
<event>
 4    1  0.3883670E-002  0.4819298E+02  0.7818608E-02  0.1455339E+00
          1   -1    0    0    0  501  0.00000000000E+00  0.00000000000E+00  0.19325550665E+03  0.19325550671E+03  0.50400000000E-02 0. -1.
         -1   -1    0    0  501    0 -0.00000000000E+00 -0.00000000000E+00 -0.30045223117E+01  0.30045265389E+01  0.50400000000E-02 0. -1.
          2    1    1    2    0  502  0.10863883480E+02 -0.20528279192E+02  0.68983908075E+02  0.72788830123E+02  0.25500000000E-02 0. -1.
         -2    1    1    2  502    0 -0.10863883480E+02  0.20528279192E+02  0.12126707626E+03  0.12347120313E+03  0.25500000000E-02 0. -1.
<mgrwt>
<rscale>  0 0.48192983E+02</rscale>
<asrwt>0</asrwt>
<pdfrwt beam="1">  1        1 0.29731624E-01 0.48192983E+02</pdfrwt>
<pdfrwt beam="2">  1       -1 0.46223441E-03 0.48192983E+02</pdfrwt>
<totfact> 0.61257550E+05</totfact>
</mgrwt>
</event>
<event>
 4    1  0.3883670E-002  0.5009074E+02  0.7818608E-02  0.1444853E+00
         -1   -1    0    0  501    0 -0.00000000000E+00  0.00000000000E+00  0.30205496635E+01  0.30205538683E+01  0.50400000000E-02 0. -1.
          1   -1    0    0    0  501  0.00000000000E+00 -0.00000000000E+00 -0.20766751804E+03  0.20766751810E+03  0.50400000000E-02 0. -1.
          2    1    1    2    0  502  0.21288868009E+02 -0.12741219846E+02 -0.87926532716E+02  0.91359891343E+02  0.25500000000E-02 0.  1.
         -2    1    1    2  502    0 -0.21288868009E+02  0.12741219846E+02 -0.11672043566E+03  0.11932818063E+03  0.25500000000E-02 0.  1.
<mgrwt>
<rscale>  0 0.50090738E+02</rscale>
<asrwt>0</asrwt>
<pdfrwt beam="2">  1        1 0.31948838E-01 0.50090738E+02</pdfrwt>
<pdfrwt beam="1">  1       -1 0.46470044E-03 0.50090738E+02</pdfrwt>
<totfact> 0.56318253E+05</totfact>
</mgrwt>
</event>
<event>
 4    1  0.3883670E-002  0.4007736E+02  0.7818608E-02  0.1507643E+00
         -1   -1    0    0  501    0 -0.00000000000E+00  0.00000000000E+00  0.16607384230E+02  0.16607384994E+02  0.50400000000E-02 0.  1.
          1   -1    0    0    0  501  0.00000000000E+00 -0.00000000000E+00 -0.24178923257E+02  0.24178923782E+02  0.50400000000E-02 0.  1.
          2    1    1    2    0  502  0.21096351035E+01 -0.19893919678E+02 -0.26120738062E+01  0.20175270419E+02  0.25500000000E-02 0.  1.
         -2    1    1    2  502    0 -0.21096351035E+01  0.19893919678E+02 -0.49594652212E+01  0.20611038358E+02  0.25500000000E-02 0.  1.
<mgrwt>
<rscale>  0 0.40077360E+02</rscale>
<asrwt>0</asrwt>
<pdfrwt beam="2">  1        1 0.37198344E-02 0.40077360E+02</pdfrwt>
<pdfrwt beam="1">  1       -1 0.25549823E-02 0.40077360E+02</pdfrwt>
<totfact> 0.76785679E+05</totfact>
</mgrwt>
</event>
<event>
 4    1  0.3883670E-002  0.6334818E+02  0.7818608E-02  0.1384295E+00
         -1   -1    0    0  501    0 -0.00000000000E+00  0.00000000000E+00  0.11370141665E+02  0.11370142782E+02  0.50400000000E-02 0.  1.
          1   -1    0    0    0  501  0.00000000000E+00 -0.00000000000E+00 -0.88235298089E+02  0.88235298233E+02  0.50400000000E-02 0.  1.
          2    1    1    2    0  502 -0.24290219072E+02 -0.15351001979E+02 -0.17479596708E+02  0.33633380917E+02  0.25500000000E-02 0.  1.
         -2    1    1    2  502    0  0.24290219072E+02  0.15351001979E+02 -0.59385559715E+02  0.65972060098E+02  0.25500000000E-02 0.  1.
<mgrwt>
<rscale>  0 0.63348178E+02</rscale>
<asrwt>0</asrwt>
<pdfrwt beam="2">  1        1 0.13574661E-01 0.63348178E+02</pdfrwt>
<pdfrwt beam="1">  1       -1 0.17492527E-02 0.63348178E+02</pdfrwt>
<totfact> 0.27058190E+05</totfact>
</mgrwt>
</event>
<event>
 4    1  0.3883670E-002  0.5198798E+02  0.7818608E-02  0.1434905E+00
         -1   -1    0    0  501    0 -0.00000000000E+00  0.00000000000E+00  0.36296997472E+02  0.36296997821E+02  0.50400000000E-02 0. -1.
          1   -1    0    0    0  501  0.00000000000E+00 -0.00000000000E+00 -0.18615523075E+02  0.18615523757E+02  0.50400000000E-02 0. -1.
          2    1    1    2    0  502  0.84010203740E+01  0.24579881453E+02  0.98647592218E+01  0.27785989213E+02  0.25500000000E-02 0. -1.
         -2    1    1    2  502    0 -0.84010203740E+01 -0.24579881453E+02  0.78167151750E+01  0.27126532365E+02  0.25500000000E-02 0. -1.
<mgrwt>
<rscale>  0 0.51987984E+02</rscale>
<asrwt>0</asrwt>
<pdfrwt beam="2">  1        1 0.28639267E-02 0.51987984E+02</pdfrwt>
<pdfrwt beam="1">  1       -1 0.55841535E-02 0.51987984E+02</pdfrwt>
<totfact> 0.38405355E+05</totfact>
</mgrwt>
</event>
<event>
 4    1  0.3883670E-002  0.6465506E+02  0.7818608E-02  0.1379274E+00
         -1   -1    0    0  501    0 -0.00000000000E+00  0.00000000000E+00  0.11976438712E+03  0.11976438723E+03  0.50400000000E-02 0. -1.
          1   -1    0    0    0  501  0.00000000000E+00 -0.00000000000E+00 -0.87260416004E+01  0.87260430559E+01  0.50400000000E-02 0. -1.
          2    1    1    2    0  502 -0.26298818237E+02  0.94118665154E+01  0.23176577599E+02  0.36295520766E+02  0.25500000000E-02 0.  1.
         -2    1    1    2  502    0  0.26298818237E+02 -0.94118665154E+01  0.87861767921E+02  0.92194909516E+02  0.25500000000E-02 0.  1.
<mgrwt>
<rscale>  0 0.64655058E+02</rscale>
<asrwt>0</asrwt>
<pdfrwt beam="2">  1        1 0.13424682E-02 0.64655058E+02</pdfrwt>
<pdfrwt beam="1">  1       -1 0.18425289E-01 0.64655058E+02</pdfrwt>
<totfact> 0.18941366E+05</totfact>
</mgrwt>
</event>
<event>
 4    1  0.3883670E-002  0.7628947E+02  0.7818608E-02  0.1339924E+00
          1   -1    0    0    0  501  0.00000000000E+00  0.00000000000E+00  0.30966878385E+02  0.30966878796E+02  0.50400000000E-02 0.  1.
         -1   -1    0    0  501    0 -0.00000000000E+00 -0.00000000000E+00 -0.46986359405E+02  0.46986359675E+02  0.50400000000E-02 0.  1.
          2    1    1    2    0  502 -0.24036489242E+01 -0.23633414837E+02  0.22485812469E+02  0.32709747689E+02  0.25500000000E-02 0.  1.
         -2    1    1    2  502    0  0.24036489242E+01  0.23633414837E+02 -0.38505293488E+02  0.45243490781E+02  0.25500000000E-02 0.  1.
<mgrwt>
<rscale>  0 0.76289473E+02</rscale>
<asrwt>0</asrwt>
<pdfrwt beam="1">  1        1 0.47641352E-02 0.76289473E+02</pdfrwt>
<pdfrwt beam="2">  1       -1 0.72286707E-02 0.76289473E+02</pdfrwt>
<totfact> 0.14397464E+05</totfact>
</mgrwt>
</event>
<event>
 4    1  0.3883670E-002  0.5487114E+02  0.7818608E-02  0.1420709E+00
         -1   -1    0    0  501    0 -0.00000000000E+00  0.00000000000E+00  0.11028131700E+04  0.11028131700E+04  0.50400000000E-02 0. -1.
          1   -1    0    0    0  501  0.00000000000E+00 -0.00000000000E+00 -0.68252740915E+00  0.68254601738E+00  0.50400000000E-02 0. -1.
          2    1    1    2    0  502 -0.79261046490E+00 -0.24038918421E+02  0.81650541271E+03  0.81685958819E+03  0.25500000000E-02 0.  1.
         -2    1    1    2  502    0  0.79261046490E+00  0.24038918421E+02  0.28562522984E+03  0.28663612780E+03  0.25500000000E-02 0.  1.
<mgrwt>
<rscale>  0 0.54871140E+02</rscale>
<asrwt>0</asrwt>
<pdfrwt beam="2">  1        1 0.10500495E-03 0.54871140E+02</pdfrwt>
<pdfrwt beam="1">  1       -1 0.16966470E+00 0.54871140E+02</pdfrwt>
<totfact> 0.83490756E+04</totfact>
</mgrwt>
</event>
<event>
 4    1  0.3883670E-002  0.7636847E+02  0.7818608E-02  0.1339685E+00
         -1   -1    0    0  501    0 -0.00000000000E+00  0.00000000000E+00  0.18106810505E+01  0.18106880648E+01  0.50400000000E-02 0. -1.
          1   -1    0    0    0  501  0.00000000000E+00 -0.00000000000E+00 -0.80524000691E+03  0.80524000693E+03  0.50400000000E-02 0. -1.
          2    1    1    2    0  502  0.25323594831E+02 -0.24051989029E+02 -0.23859513532E+03  0.24113776402E+03  0.25500000000E-02 0. -1.
         -2    1    1    2  502    0 -0.25323594831E+02  0.24051989029E+02 -0.56483419054E+03  0.56591293098E+03  0.25500000000E-02 0. -1.
<mgrwt>
<rscale>  0 0.76368466E+02</rscale>
<asrwt>0</asrwt>
<pdfrwt beam="2">  1        1 0.12388279E+00 0.76368466E+02</pdfrwt>
<pdfrwt beam="1">  1       -1 0.27856750E-03 0.76368466E+02</pdfrwt>
<totfact> 0.22470495E+05</totfact>
</mgrwt>
</event>
<event>
 4    1  0.3883670E-002  0.3440161E+03  0.7818608E-02  0.1065098E+00
          1   -1    0    0    0  501  0.00000000000E+00  0.00000000000E+00  0.41238568245E+02  0.41238568553E+02  0.50400000000E-02 0. -1.
         -1   -1    0    0  501    0 -0.00000000000E+00 -0.00000000000E+00 -0.71745390256E+03  0.71745390258E+03  0.50400000000E-02 0. -1.
          2    1    1    2    0  502  0.89972811601E+02  0.14536708143E+03 -0.37995660759E+03  0.41664579543E+03  0.25500000000E-02 0. -1.
         -2    1    1    2  502    0 -0.89972811601E+02 -0.14536708143E+03 -0.29625872672E+03  0.34204667570E+03  0.25500000000E-02 0. -1.
<mgrwt>
<rscale>  0 0.34401612E+03</rscale>
<asrwt>0</asrwt>
<pdfrwt beam="1">  1        1 0.63443957E-02 0.34401612E+03</pdfrwt>
<pdfrwt beam="2">  1       -1 0.11037751E+00 0.34401612E+03</pdfrwt>
<totfact> 0.96535332E+02</totfact>
</mgrwt>
</event>
<event>
 4    1  0.3883670E-002  0.5108664E+02  0.7818608E-02  0.1439567E+00
          1   -1    0    0    0  501  0.00000000000E+00  0.00000000000E+00  0.18761068232E+03  0.18761068239E+03  0.50400000000E-02 0. -1.
         -1   -1    0    0  501    0 -0.00000000000E+00 -0.00000000000E+00 -0.34777388580E+01  0.34777425100E+01  0.50400000000E-02 0. -1.
          2    1    1    2    0  502 -0.11690172476E+02  0.20795639235E+02  0.57918852257E+02  0.62639541800E+02  0.25500000000E-02 0. -1.
         -2    1    1    2  502    0  0.11690172476E+02 -0.20795639235E+02  0.12621409121E+03  0.12844888310E+03  0.25500000000E-02 0. -1.
<mgrwt>
<rscale>  0 0.51086645E+02</rscale>
<asrwt>0</asrwt>
<pdfrwt beam="1">  1        1 0.28863189E-01 0.51086645E+02</pdfrwt>
<pdfrwt beam="2">  1       -1 0.53503691E-03 0.51086645E+02</pdfrwt>
<totfact> 0.52675027E+05</totfact>
</mgrwt>
</event>
<event>
 4    1  0.3883670E-002  0.4673649E+02  0.7818608E-02  0.1463783E+00
          1   -1    0    0    0  501  0.00000000000E+00  0.00000000000E+00  0.59334085611E+02  0.59334085825E+02  0.50400000000E-02 0.  1.
         -1   -1    0    0  501    0 -0.00000000000E+00 -0.00000000000E+00 -0.92033914784E+01  0.92033928584E+01  0.50400000000E-02 0.  1.
          2    1    1    2    0  502 -0.22663875748E+02 -0.54093806096E+01  0.27673102992E+02  0.36176142666E+02  0.25500000000E-02 0. -1.
         -2    1    1    2  502    0  0.22663875748E+02  0.54093806096E+01  0.22457591141E+02  0.32361336018E+02  0.25500000000E-02 0. -1.
<mgrwt>
<rscale>  0 0.46736490E+02</rscale>
<asrwt>0</asrwt>
<pdfrwt beam="1">  1        1 0.91283209E-02 0.46736490E+02</pdfrwt>
<pdfrwt beam="2">  1       -1 0.14159065E-02 0.46736490E+02</pdfrwt>
<totfact> 0.56297132E+05</totfact>
</mgrwt>
</event>
<event>
 4    1  0.3883670E-002  0.6326938E+02  0.7818608E-02  0.1384602E+00
          1   -1    0    0    0  501  0.00000000000E+00  0.00000000000E+00  0.49073985005E+03  0.49073985007E+03  0.50400000000E-02 0. -1.
         -1   -1    0    0  501    0 -0.00000000000E+00 -0.00000000000E+00 -0.20392720917E+01  0.20392783198E+01  0.50400000000E-02 0. -1.
          2    1    1    2    0  502  0.25070197357E+02 -0.68079688428E+01  0.10374731905E+03  0.10695031301E+03  0.25500000000E-02 0.  1.
         -2    1    1    2  502    0 -0.25070197357E+02  0.68079688428E+01  0.38495325890E+03  0.38582881539E+03  0.25500000000E-02 0.  1.
<mgrwt>
<rscale>  0 0.63269380E+02</rscale>
<asrwt>0</asrwt>
<pdfrwt beam="1">  1        1 0.75498470E-01 0.63269380E+02</pdfrwt>
<pdfrwt beam="2">  1       -1 0.31373452E-03 0.63269380E+02</pdfrwt>
<totfact> 0.35949512E+05</totfact>
</mgrwt>
</event>
<event>
 4    1  0.3883670E-002  0.7289457E+02  0.7818608E-02  0.1350518E+00
          1   -1    0    0    0  501  0.00000000000E+00  0.00000000000E+00  0.55062868817E+03  0.55062868820E+03  0.50400000000E-02 0. -1.
         -1   -1    0    0  501    0 -0.00000000000E+00 -0.00000000000E+00 -0.24125208847E+01  0.24125261493E+01  0.50400000000E-02 0. -1.
          2    1    1    2    0  502 -0.17461186427E+02  0.17625331698E+02  0.47667299561E+03  0.47731822729E+03  0.25500000000E-02 0. -1.
         -2    1    1    2  502    0  0.17461186427E+02 -0.17625331698E+02  0.71543171676E+02  0.75722987058E+02  0.25500000000E-02 0. -1.
<mgrwt>
<rscale>  0 0.72894572E+02</rscale>
<asrwt>0</asrwt>
<pdfrwt beam="1">  1        1 0.84712099E-01 0.72894572E+02</pdfrwt>
<pdfrwt beam="2">  1       -1 0.37115750E-03 0.72894572E+02</pdfrwt>
<totfact> 0.25276111E+05</totfact>
</mgrwt>
</event>
<event>
 4    1  0.3883670E-002  0.6556834E+02  0.7818608E-02  0.1375846E+00
          1   -1    0    0    0  501  0.00000000000E+00  0.00000000000E+00  0.18378669154E+03  0.18378669161E+03  0.50400000000E-02 0.  1.
         -1   -1    0    0  501    0 -0.00000000000E+00 -0.00000000000E+00 -0.58480919642E+01  0.58480941360E+01  0.50400000000E-02 0.  1.
          2    1    1    2    0  502  0.13691507089E+02 -0.20972540995E+02  0.27787982232E+02  0.37409581730E+02  0.25500000000E-02 0. -1.
         -2    1    1    2  502    0 -0.13691507089E+02  0.20972540995E+02  0.15015061734E+03  0.15222520401E+03  0.25500000000E-02 0. -1.
<mgrwt>
<rscale>  0 0.65568336E+02</rscale>
<asrwt>0</asrwt>
<pdfrwt beam="1">  1        1 0.28274876E-01 0.65568336E+02</pdfrwt>
<pdfrwt beam="2">  1       -1 0.89970663E-03 0.65568336E+02</pdfrwt>
<totfact> 0.27778320E+05</totfact>
</mgrwt>
</event>
<event>
 4    1  0.3883670E-002  0.4993077E+02  0.7818608E-02  0.1445715E+00
          1   -1    0    0    0  501  0.00000000000E+00  0.00000000000E+00  0.78422126828E+00  0.78423746354E+00  0.50400000000E-02 0. -1.
         -1   -1    0    0  501    0 -0.00000000000E+00 -0.00000000000E+00 -0.79475537347E+03  0.79475537349E+03  0.50400000000E-02 0. -1.
          2    1    1    2    0  502 -0.16956053022E+01 -0.23966663021E+02 -0.28893018252E+03  0.28992745022E+03  0.25500000000E-02 0.  1.
         -2    1    1    2  502    0  0.16956053022E+01  0.23966663021E+02 -0.50504096968E+03  0.50561216073E+03  0.25500000000E-02 0.  1.
<mgrwt>
<rscale>  0 0.49930773E+02</rscale>
<asrwt>0</asrwt>
<pdfrwt beam="1">  1        1 0.12065131E-03 0.49930773E+02</pdfrwt>
<pdfrwt beam="2">  1       -1 0.12226941E+00 0.49930773E+02</pdfrwt>
<totfact> 0.15305917E+05</totfact>
</mgrwt>
</event>
<event>
 4    1  0.3883670E-002  0.4951627E+02  0.7818608E-02  0.1447968E+00
          1   -1    0    0    0  501  0.00000000000E+00  0.00000000000E+00  0.66677211294E+03  0.66677211296E+03  0.50400000000E-02 0. -1.
         -1   -1    0    0  501    0 -0.00000000000E+00 -0.00000000000E+00 -0.91929538548E+00  0.91930920117E+00  0.50400000000E-02 0. -1.
          2    1    1    2    0  502  0.90337015244E+01 -0.22943416623E+02  0.30290453642E+03  0.30390650917E+03  0.25500000000E-02 0.  1.
         -2    1    1    2  502    0 -0.90337015244E+01  0.22943416623E+02  0.36294828114E+03  0.36378491299E+03  0.25500000000E-02 0.  1.
<mgrwt>
<rscale>  0 0.49516266E+02</rscale>
<asrwt>0</asrwt>
<pdfrwt beam="1">  1        1 0.10258035E+00 0.49516266E+02</pdfrwt>
<pdfrwt beam="2">  1       -1 0.14143109E-03 0.49516266E+02</pdfrwt>
<totfact> 0.67980757E+05</totfact>
</mgrwt>
</event>
<event>
 4    1  0.3883670E-002  0.4102683E+02  0.7818608E-02  0.1500788E+00
          1   -1    0    0    0  501  0.00000000000E+00  0.00000000000E+00  0.62089079590E+03  0.62089079592E+03  0.50400000000E-02 0. -1.
         -1   -1    0    0  501    0 -0.00000000000E+00 -0.00000000000E+00 -0.67772691537E+00  0.67774565540E+00  0.50400000000E-02 0. -1.
          2    1    1    2    0  502  0.80243094656E+00 -0.20084616747E+02  0.24807444938E+03  0.24888746085E+03  0.25500000000E-02 0. -1.
         -2    1    1    2  502    0 -0.80243094656E+00  0.20084616747E+02  0.37213861960E+03  0.37268108073E+03  0.25500000000E-02 0. -1.
<mgrwt>
<rscale>  0 0.41026832E+02</rscale>
<asrwt>0</asrwt>
<pdfrwt beam="1">  1        1 0.95521851E-01 0.41026832E+02</pdfrwt>
<pdfrwt beam="2">  1       -1 0.10426692E-03 0.41026832E+02</pdfrwt>
<totfact> 0.10757755E+06</totfact>
</mgrwt>
</event>
<event>
 4    1  0.3883670E-002  0.5375664E+02  0.7818608E-02  0.1426072E+00
          1   -1    0    0    0  501  0.00000000000E+00  0.00000000000E+00  0.14381383060E+04  0.14381383060E+04  0.50400000000E-02 0.  1.
         -1   -1    0    0  501    0 -0.00000000000E+00 -0.00000000000E+00 -0.50233416889E+00  0.50235945182E+00  0.50400000000E-02 0.  1.
          2    1    1    2    0  502  0.80077905511E+01  0.24107961111E+02  0.95384605714E+03  0.95418426901E+03  0.25500000000E-02 0.  1.
         -2    1    1    2  502    0 -0.80077905511E+01 -0.24107961111E+02  0.48378991468E+03  0.48445639644E+03  0.25500000000E-02 0.  1.
<mgrwt>
<rscale>  0 0.53756644E+02</rscale>
<asrwt>0</asrwt>
<pdfrwt beam="1">  1        1 0.22125497E+00 0.53756644E+02</pdfrwt>
<pdfrwt beam="2">  1       -1 0.77283105E-04 0.53756644E+02</pdfrwt>
<totfact> 0.44614164E+05</totfact>
</mgrwt>
</event>
<event>
 4    1  0.3883670E-002  0.5931069E+02  0.7818608E-02  0.1400747E+00
          1   -1    0    0    0  501  0.00000000000E+00  0.00000000000E+00  0.15826735507E+04  0.15826735507E+04  0.50400000000E-02 0.  1.
         -1   -1    0    0  501    0 -0.00000000000E+00 -0.00000000000E+00 -0.55565555755E+00  0.55567841441E+00  0.50400000000E-02 0.  1.
          2    1    1    2    0  502 -0.25369012682E+02 -0.14388881939E+02  0.93434468409E+03  0.93479977290E+03  0.25500000000E-02 0.  1.
         -2    1    1    2  502    0  0.25369012682E+02  0.14388881939E+02  0.64777321109E+03  0.64842945625E+03  0.25500000000E-02 0.  1.
<mgrwt>
<rscale>  0 0.59310689E+02</rscale>
<asrwt>0</asrwt>
<pdfrwt beam="1">  1        1 0.24348959E+00 0.59310689E+02</pdfrwt>
<pdfrwt beam="2">  1       -1 0.85486755E-04 0.59310689E+02</pdfrwt>
<totfact> 0.32187314E+05</totfact>
</mgrwt>
</event>
<event>
 4    1  0.3883670E-002  0.9292459E+02  0.7818608E-02  0.1295920E+00
         -1   -1    0    0  501    0 -0.00000000000E+00  0.00000000000E+00  0.13471314201E+02  0.13471315144E+02  0.50400000000E-02 0.  1.
          1   -1    0    0    0  501  0.00000000000E+00 -0.00000000000E+00 -0.16024752786E+03  0.16024752794E+03  0.50400000000E-02 0.  1.
          2    1    1    2    0  502  0.21567545408E+02 -0.21731490490E+02 -0.80551277430E+01  0.31659150073E+02  0.25500000000E-02 0. -1.
         -2    1    1    2  502    0 -0.21567545408E+02  0.21731490490E+02 -0.13872108592E+03  0.14205969301E+03  0.25500000000E-02 0. -1.
<mgrwt>
<rscale>  0 0.92924591E+02</rscale>
<asrwt>0</asrwt>
<pdfrwt beam="2">  1        1 0.24653465E-01 0.92924591E+02</pdfrwt>
<pdfrwt beam="1">  1       -1 0.20725101E-02 0.92924591E+02</pdfrwt>
<totfact> 0.10784217E+05</totfact>
</mgrwt>
</event>
<event>
 4    1  0.3883670E-002  0.5131501E+02  0.7818608E-02  0.1438375E+00
          1   -1    0    0    0  501  0.00000000000E+00  0.00000000000E+00  0.19441795348E+03  0.19441795355E+03  0.50400000000E-02 0. -1.
         -1   -1    0    0  501    0 -0.00000000000E+00 -0.00000000000E+00 -0.33860405039E+01  0.33860442549E+01  0.50400000000E-02 0. -1.
          2    1    1    2    0  502  0.19442096528E+02 -0.75738642157E+01  0.15307232084E+03  0.15448784402E+03  0.25500000000E-02 0.  1.
         -2    1    1    2  502    0 -0.19442096528E+02  0.75738642157E+01  0.37959592138E+02  0.43316153780E+02  0.25500000000E-02 0.  1.
<mgrwt>
<rscale>  0 0.51315005E+02</rscale>
<asrwt>0</asrwt>
<pdfrwt beam="1">  1        1 0.29910460E-01 0.51315005E+02</pdfrwt>
<pdfrwt beam="2">  1       -1 0.52092951E-03 0.51315005E+02</pdfrwt>
<totfact> 0.52408569E+05</totfact>
</mgrwt>
</event>
<event>
 4    1  0.3883670E-002  0.6776593E+02  0.7818608E-02  0.1367859E+00
         -1   -1    0    0  501    0 -0.00000000000E+00  0.00000000000E+00  0.44991423003E+00  0.44994245853E+00  0.50400000000E-02 0.  1.
          1   -1    0    0    0  501  0.00000000000E+00 -0.00000000000E+00 -0.25516403959E+04  0.25516403959E+04  0.50400000000E-02 0.  1.
          2    1    1    2    0  502 -0.33758363625E+02 -0.63050592589E+00 -0.11688714779E+04  0.11693590366E+04  0.25500000000E-02 0. -1.
         -2    1    1    2  502    0  0.33758363625E+02  0.63050592589E+00 -0.13823190038E+04  0.13827313018E+04  0.25500000000E-02 0. -1.
<mgrwt>
<rscale>  0 0.67765931E+02</rscale>
<asrwt>0</asrwt>
<pdfrwt beam="2">  1        1 0.39254848E+00 0.67765931E+02</pdfrwt>
<pdfrwt beam="1">  1       -1 0.69221789E-04 0.67765931E+02</pdfrwt>
<totfact> 0.10889229E+05</totfact>
</mgrwt>
</event>
<event>
 4    1  0.3883670E-002  0.6179463E+02  0.7818608E-02  0.1390451E+00
         -1   -1    0    0  501    0 -0.00000000000E+00  0.00000000000E+00  0.22061011804E+01  0.22061069375E+01  0.50400000000E-02 0.  1.
          1   -1    0    0    0  501  0.00000000000E+00 -0.00000000000E+00 -0.43272842928E+03  0.43272842931E+03  0.50400000000E-02 0.  1.
          2    1    1    2    0  502 -0.25141177091E+02 -0.89760990411E+01 -0.10577072136E+03  0.10908755494E+03  0.25500000000E-02 0. -1.
         -2    1    1    2  502    0  0.25141177091E+02  0.89760990411E+01 -0.32475160674E+03  0.32584698131E+03  0.25500000000E-02 0. -1.
<mgrwt>
<rscale>  0 0.61794626E+02</rscale>
<asrwt>0</asrwt>
<pdfrwt beam="2">  1        1 0.66573538E-01 0.61794626E+02</pdfrwt>
<pdfrwt beam="1">  1       -1 0.33940097E-03 0.61794626E+02</pdfrwt>
<totfact> 0.37558406E+05</totfact>
</mgrwt>
</event>
<event>
 4    1  0.3883670E-002  0.4623271E+02  0.7818608E-02  0.1466790E+00
         -1   -1    0    0  501    0 -0.00000000000E+00  0.00000000000E+00  0.62168867030E+02  0.62168867234E+02  0.50400000000E-02 0. -1.
          1   -1    0    0    0  501  0.00000000000E+00 -0.00000000000E+00 -0.85953920468E+01  0.85953935244E+01  0.50400000000E-02 0. -1.
          2    1    1    2    0  502 -0.18997273226E+02  0.11416258273E+02  0.36839770969E+02  0.42992977037E+02  0.25500000000E-02 0.  1.
         -2    1    1    2  502    0  0.18997273226E+02 -0.11416258273E+02  0.16733704014E+02  0.27771283721E+02  0.25500000000E-02 0.  1.
<mgrwt>
<rscale>  0 0.46232709E+02</rscale>
<asrwt>0</asrwt>
<pdfrwt beam="2">  1        1 0.13223681E-02 0.46232709E+02</pdfrwt>
<pdfrwt beam="1">  1       -1 0.95644413E-02 0.46232709E+02</pdfrwt>
<totfact> 0.48289384E+05</totfact>
</mgrwt>
</event>
<event>
 4    1  0.3883670E-002  0.5744351E+02  0.7818608E-02  0.1408884E+00
          1   -1    0    0    0  501  0.00000000000E+00  0.00000000000E+00  0.64170994300E+02  0.64170994498E+02  0.50400000000E-02 0. -1.
         -1   -1    0    0  501    0 -0.00000000000E+00 -0.00000000000E+00 -0.12855326620E+02  0.12855327608E+02  0.50400000000E-02 0. -1.
          2    1    1    2    0  502 -0.26879786435E+02 -0.10086594609E+02  0.24554682570E+02  0.37778231195E+02  0.25500000000E-02 0.  1.
         -2    1    1    2  502    0  0.26879786435E+02  0.10086594609E+02  0.26760985110E+02  0.39248090911E+02  0.25500000000E-02 0.  1.
<mgrwt>
<rscale>  0 0.57443507E+02</rscale>
<asrwt>0</asrwt>
<pdfrwt beam="1">  1        1 0.98724610E-02 0.57443507E+02</pdfrwt>
<pdfrwt beam="2">  1       -1 0.19777426E-02 0.57443507E+02</pdfrwt>
<totfact> 0.33513312E+05</totfact>
</mgrwt>
</event>
<event>
 4    1  0.3883670E-002  0.4250029E+02  0.7818608E-02  0.1490579E+00
         -1   -1    0    0  501    0 -0.00000000000E+00  0.00000000000E+00  0.11033611234E+02  0.11033612385E+02  0.50400000000E-02 0.  1.
          1   -1    0    0    0  501  0.00000000000E+00 -0.00000000000E+00 -0.40926640883E+02  0.40926641193E+02  0.50400000000E-02 0.  1.
          2    1    1    2    0  502 -0.19001586140E+02  0.95083150546E+01 -0.14559232760E+02  0.25757321213E+02  0.25500000000E-02 0.  1.
         -2    1    1    2  502    0  0.19001586140E+02 -0.95083150546E+01 -0.15333796889E+02  0.26202932366E+02  0.25500000000E-02 0.  1.
<mgrwt>
<rscale>  0 0.42500291E+02</rscale>
<asrwt>0</asrwt>
<pdfrwt beam="2">  1        1 0.62964064E-02 0.42500291E+02</pdfrwt>
<pdfrwt beam="1">  1       -1 0.16974788E-02 0.42500291E+02</pdfrwt>
<totfact> 0.69059017E+05</totfact>
</mgrwt>
</event>
<event>
 4    1  0.3883670E-002  0.1632397E+03  0.7818608E-02  0.1185087E+00
          1   -1    0    0    0  501  0.00000000000E+00  0.00000000000E+00  0.67501231500E+02  0.67501231688E+02  0.50400000000E-02 0.  1.
         -1   -1    0    0  501    0 -0.00000000000E+00 -0.00000000000E+00 -0.98691517554E+02  0.98691517683E+02  0.50400000000E-02 0.  1.
          2    1    1    2    0  502  0.15502139647E+02  0.44245681172E+02  0.52425196119E+02  0.70330632235E+02  0.25500000000E-02 0.  1.
         -2    1    1    2  502    0 -0.15502139647E+02 -0.44245681172E+02 -0.83615482174E+02  0.95862117135E+02  0.25500000000E-02 0.  1.
<mgrwt>
<rscale>  0 0.16323969E+03</rscale>
<asrwt>0</asrwt>
<pdfrwt beam="1">  1        1 0.10384805E-01 0.16323969E+03</pdfrwt>
<pdfrwt beam="2">  1       -1 0.15183310E-01 0.16323969E+03</pdfrwt>
<totfact> 0.18139258E+04</totfact>
</mgrwt>
</event>
<event>
 4    1  0.3883670E-002  0.4723856E+02  0.7818608E-02  0.1460832E+00
         -1   -1    0    0  501    0 -0.00000000000E+00  0.00000000000E+00  0.35639453092E+03  0.35639453096E+03  0.50400000000E-02 0. -1.
          1   -1    0    0    0  501  0.00000000000E+00 -0.00000000000E+00 -0.15653128891E+01  0.15653210030E+01  0.50400000000E-02 0. -1.
          2    1    1    2    0  502 -0.10119093529E+02  0.17683951111E+02  0.26795223491E+03  0.26872573077E+03  0.25500000000E-02 0. -1.
         -2    1    1    2  502    0  0.10119093529E+02 -0.17683951111E+02  0.86876983127E+02  0.89234121190E+02  0.25500000000E-02 0. -1.
<mgrwt>
<rscale>  0 0.47238561E+02</rscale>
<asrwt>0</asrwt>
<pdfrwt beam="2">  1        1 0.24081788E-03 0.47238561E+02</pdfrwt>
<pdfrwt beam="1">  1       -1 0.54829953E-01 0.47238561E+02</pdfrwt>
<totfact> 0.30026215E+05</totfact>
</mgrwt>
</event>
<event>
 4    1  0.3883670E-002  0.5724998E+02  0.7818608E-02  0.1409749E+00
          1   -1    0    0    0  501  0.00000000000E+00  0.00000000000E+00  0.11196359578E+03  0.11196359590E+03  0.50400000000E-02 0. -1.
         -1   -1    0    0  501    0 -0.00000000000E+00 -0.00000000000E+00 -0.73183594764E+01  0.73183612119E+01  0.50400000000E-02 0. -1.
          2    1    1    2    0  502 -0.24994549987E+00  0.21537545556E+02  0.13040419109E+02  0.25178976913E+02  0.25500000000E-02 0.  1.
         -2    1    1    2  502    0  0.24994549987E+00 -0.21537545556E+02  0.91604817196E+02  0.94102980194E+02  0.25500000000E-02 0.  1.
<mgrwt>
<rscale>  0 0.57249977E+02</rscale>
<asrwt>0</asrwt>
<pdfrwt beam="1">  1        1 0.17225167E-01 0.57249977E+02</pdfrwt>
<pdfrwt beam="2">  1       -1 0.11259017E-02 0.57249977E+02</pdfrwt>
<totfact> 0.36346153E+05</totfact>
</mgrwt>
</event>
<event>
 4    1  0.3883670E-002  0.4238305E+02  0.7818608E-02  0.1491373E+00
          1   -1    0    0    0  501  0.00000000000E+00  0.00000000000E+00  0.10403094030E+03  0.10403094042E+03  0.50400000000E-02 0. -1.
         -1   -1    0    0  501    0 -0.00000000000E+00 -0.00000000000E+00 -0.43167985661E+01  0.43168015083E+01  0.50400000000E-02 0. -1.
          2    1    1    2    0  502 -0.13429791177E+02  0.16390992221E+02  0.50466632054E+02  0.54734859773E+02  0.25500000000E-02 0. -1.
         -2    1    1    2  502    0  0.13429791177E+02 -0.16390992221E+02  0.49247509680E+02  0.53612882158E+02  0.25500000000E-02 0. -1.
<mgrwt>
<rscale>  0 0.42383052E+02</rscale>
<asrwt>0</asrwt>
<pdfrwt beam="1">  1        1 0.16004760E-01 0.42383052E+02</pdfrwt>
<pdfrwt beam="2">  1       -1 0.66412311E-03 0.42383052E+02</pdfrwt>
<totfact> 0.76696540E+05</totfact>
</mgrwt>
</event>
<event>
 4    1  0.3883670E-002  0.4883455E+02  0.7818608E-02  0.1451731E+00
         -1   -1    0    0  501    0 -0.00000000000E+00  0.00000000000E+00  0.13059471669E+02  0.13059472642E+02  0.50400000000E-02 0. -1.
          1   -1    0    0    0  501  0.00000000000E+00 -0.00000000000E+00 -0.45652942978E+02  0.45652943257E+02  0.50400000000E-02 0. -1.
          2    1    1    2    0  502  0.17803699359E+02  0.16708096541E+02 -0.15976053971E+02  0.29178185480E+02  0.25500000000E-02 0.  1.
         -2    1    1    2  502    0 -0.17803699359E+02 -0.16708096541E+02 -0.16617417338E+02  0.29534230418E+02  0.25500000000E-02 0.  1.
<mgrwt>
<rscale>  0 0.48834551E+02</rscale>
<asrwt>0</asrwt>
<pdfrwt beam="2">  1        1 0.70235297E-02 0.48834551E+02</pdfrwt>
<pdfrwt beam="1">  1       -1 0.20091496E-02 0.48834551E+02</pdfrwt>
<totfact> 0.49080926E+05</totfact>
</mgrwt>
</event>
<event>
 4    1  0.3883670E-002  0.6767542E+02  0.7818608E-02  0.1368181E+00
          1   -1    0    0    0  501  0.00000000000E+00  0.00000000000E+00  0.78697731795E+03  0.78697731797E+03  0.50400000000E-02 0. -1.
         -1   -1    0    0  501    0 -0.00000000000E+00 -0.00000000000E+00 -0.14549175690E+01  0.14549262985E+01  0.50400000000E-02 0. -1.
          2    1    1    2    0  502 -0.10799096224E+02  0.29468110559E+02  0.24539626371E+03  0.24739506112E+03  0.25500000000E-02 0.  1.
         -2    1    1    2  502    0  0.10799096224E+02 -0.29468110559E+02  0.54012613667E+03  0.54103718314E+03  0.25500000000E-02 0.  1.
<mgrwt>
<rscale>  0 0.67675419E+02</rscale>
<asrwt>0</asrwt>
<pdfrwt beam="1">  1        1 0.12107384E+00 0.67675419E+02</pdfrwt>
<pdfrwt beam="2">  1       -1 0.22383340E-03 0.67675419E+02</pdfrwt>
<totfact> 0.30757579E+05</totfact>
</mgrwt>
</event>
<event>
 4    1  0.3883670E-002  0.4069295E+02  0.7818608E-02  0.1503173E+00
         -1   -1    0    0  501    0 -0.00000000000E+00  0.00000000000E+00  0.46762246782E+00  0.46764962740E+00  0.50400000000E-02 0. -1.
          1   -1    0    0    0  501  0.00000000000E+00 -0.00000000000E+00 -0.88525919077E+03  0.88525919078E+03  0.50400000000E-02 0. -1.
          2    1    1    2    0  502 -0.69958385663E+01  0.19088283374E+02 -0.46027575460E+03  0.46072451052E+03  0.25500000000E-02 0.  1.
         -2    1    1    2  502    0  0.69958385663E+01 -0.19088283374E+02 -0.42451581371E+03  0.42500232989E+03  0.25500000000E-02 0.  1.
<mgrwt>
<rscale>  0 0.40692954E+02</rscale>
<asrwt>0</asrwt>
<pdfrwt beam="2">  1        1 0.13619238E+00 0.40692954E+02</pdfrwt>
<pdfrwt beam="1">  1       -1 0.71944717E-04 0.40692954E+02</pdfrwt>
<totfact> 0.10785770E+06</totfact>
</mgrwt>
</event>
<event>
 4    1  0.3883670E-002  0.8964701E+02  0.7818608E-02  0.1303709E+00
         -1   -1    0    0  501    0 -0.00000000000E+00  0.00000000000E+00  0.15954415691E+01  0.15954495297E+01  0.50400000000E-02 0.  1.
          1   -1    0    0    0  501  0.00000000000E+00 -0.00000000000E+00 -0.12593012308E+04  0.12593012308E+04  0.50400000000E-02 0.  1.
          2    1    1    2    0  502  0.35356007506E+02  0.17516532855E+02 -0.32973474853E+03  0.33208715811E+03  0.25500000000E-02 0. -1.
         -2    1    1    2  502    0 -0.35356007506E+02 -0.17516532855E+02 -0.92797104069E+03  0.92880952222E+03  0.25500000000E-02 0. -1.
<mgrwt>
<rscale>  0 0.89647009E+02</rscale>
<asrwt>0</asrwt>
<pdfrwt beam="2">  1        1 0.19373786E+00 0.89647009E+02</pdfrwt>
<pdfrwt beam="1">  1       -1 0.24545417E-03 0.89647009E+02</pdfrwt>
<totfact> 0.12993897E+05</totfact>
</mgrwt>
</event>
<event>
 4    1  0.3883670E-002  0.4478646E+02  0.7818608E-02  0.1475679E+00
          1   -1    0    0    0  501  0.00000000000E+00  0.00000000000E+00  0.18679927427E+01  0.18679995418E+01  0.50400000000E-02 0.  1.
         -1   -1    0    0  501    0 -0.00000000000E+00 -0.00000000000E+00 -0.26844634955E+03  0.26844634960E+03  0.50400000000E-02 0.  1.
          2    1    1    2    0  502  0.20818183005E+02  0.33261592251E+01 -0.87722527230E+02  0.90220296325E+02  0.25500000000E-02 0. -1.
         -2    1    1    2  502    0 -0.20818183005E+02 -0.33261592251E+01 -0.17885582958E+03  0.18009405282E+03  0.25500000000E-02 0. -1.
<mgrwt>
<rscale>  0 0.44786460E+02</rscale>
<asrwt>0</asrwt>
<pdfrwt beam="1">  1        1 0.28738424E-03 0.44786460E+02</pdfrwt>
<pdfrwt beam="2">  1       -1 0.41299408E-01 0.44786460E+02</pdfrwt>
<totfact> 0.38339740E+05</totfact>
</mgrwt>
</event>
<event>
 4    1  0.3883670E-002  0.8538644E+02  0.7818608E-02  0.1314425E+00
         -1   -1    0    0  501    0 -0.00000000000E+00  0.00000000000E+00  0.14219446638E+01  0.14219535958E+01  0.50400000000E-02 0. -1.
          1   -1    0    0    0  501  0.00000000000E+00 -0.00000000000E+00 -0.12818399718E+04  0.12818399718E+04  0.50400000000E-02 0. -1.
          2    1    1    2    0  502  0.31332537537E+02 -0.25793379184E+02 -0.83941097932E+03  0.84039146743E+03  0.25500000000E-02 0.  1.
         -2    1    1    2  502    0 -0.31332537537E+02  0.25793379184E+02 -0.44100704780E+03  0.44287045796E+03  0.25500000000E-02 0.  1.
<mgrwt>
<rscale>  0 0.85386445E+02</rscale>
<asrwt>0</asrwt>
<pdfrwt beam="2">  1        1 0.19720523E+00 0.85386445E+02</pdfrwt>
<pdfrwt beam="1">  1       -1 0.21876243E-03 0.85386445E+02</pdfrwt>
<totfact> 0.14630501E+05</totfact>
</mgrwt>
</event>
<event>
 4    1  0.3883670E-002  0.4031397E+02  0.7818608E-02  0.1505914E+00
          1   -1    0    0    0  501  0.00000000000E+00  0.00000000000E+00  0.53474962197E+03  0.53474962200E+03  0.50400000000E-02 0. -1.
         -1   -1    0    0  501    0 -0.00000000000E+00 -0.00000000000E+00 -0.75979387168E+00  0.75981058761E+00  0.50400000000E-02 0. -1.
          2    1    1    2    0  502 -0.88096682077E+01 -0.18066689193E+02  0.28708964576E+03  0.28779242558E+03  0.25500000000E-02 0.  1.
         -2    1    1    2  502    0  0.88096682077E+01  0.18066689193E+02  0.24690018234E+03  0.24771700700E+03  0.25500000000E-02 0.  1.
<mgrwt>
<rscale>  0 0.40313966E+02</rscale>
<asrwt>0</asrwt>
<pdfrwt beam="1">  1        1 0.82268984E-01 0.40313966E+02</pdfrwt>
<pdfrwt beam="2">  1       -1 0.11689292E-03 0.40313966E+02</pdfrwt>
<totfact> 0.11116559E+06</totfact>
</mgrwt>
</event>
<event>
 4    1  0.3883670E-002  0.4893809E+02  0.7818608E-02  0.1451155E+00
         -1   -1    0    0  501    0 -0.00000000000E+00  0.00000000000E+00  0.43668171051E+02  0.43668171342E+02  0.50400000000E-02 0. -1.
          1   -1    0    0    0  501  0.00000000000E+00 -0.00000000000E+00 -0.13710996815E+02  0.13710997741E+02  0.50400000000E-02 0. -1.
          2    1    1    2    0  502 -0.20363121291E+02 -0.12502210068E+02  0.21157506197E+02  0.31915545433E+02  0.25500000000E-02 0.  1.
         -2    1    1    2  502    0  0.20363121291E+02  0.12502210068E+02  0.87996680399E+01  0.25463623650E+02  0.25500000000E-02 0.  1.
<mgrwt>
<rscale>  0 0.48938091E+02</rscale>
<asrwt>0</asrwt>
<pdfrwt beam="2">  1        1 0.21093842E-02 0.48938091E+02</pdfrwt>
<pdfrwt beam="1">  1       -1 0.67181804E-02 0.48938091E+02</pdfrwt>
<totfact> 0.43705772E+05</totfact>
</mgrwt>
</event>
<event>
 4    1  0.3883670E-002  0.5631168E+02  0.7818608E-02  0.1413996E+00
         -1   -1    0    0  501    0 -0.00000000000E+00  0.00000000000E+00  0.35288180718E+00  0.35291779700E+00  0.50400000000E-02 0. -1.
          1   -1    0    0    0  501  0.00000000000E+00 -0.00000000000E+00 -0.22463922913E+04  0.22463922913E+04  0.50400000000E-02 0. -1.
          2    1    1    2    0  502 -0.26217315094E+02  0.75170387903E+01 -0.84402208200E+03  0.84446262700E+03  0.25500000000E-02 0. -1.
         -2    1    1    2  502    0  0.26217315094E+02 -0.75170387903E+01 -0.14020173274E+04  0.14022825821E+04  0.25500000000E-02 0. -1.
<mgrwt>
<rscale>  0 0.56311683E+02</rscale>
<asrwt>0</asrwt>
<pdfrwt beam="2">  1        1 0.34558737E+00 0.56311683E+02</pdfrwt>
<pdfrwt beam="1">  1       -1 0.54294077E-04 0.56311683E+02</pdfrwt>
<totfact> 0.22976323E+05</totfact>
</mgrwt>
</event>
<event>
 4    1  0.3883670E-002  0.4157773E+02  0.7818608E-02  0.1496912E+00
          1   -1    0    0    0  501  0.00000000000E+00  0.00000000000E+00  0.18364798272E+04  0.18364798272E+04  0.50400000000E-02 0.  1.
         -1   -1    0    0  501    0 -0.00000000000E+00 -0.00000000000E+00 -0.23530200371E+00  0.23535597411E+00  0.50400000000E-02 0.  1.
          2    1    1    2    0  502  0.15243633770E+02 -0.13929314393E+02  0.81189175782E+03  0.81215430836E+03  0.25500000000E-02 0. -1.
         -2    1    1    2  502    0 -0.15243633770E+02  0.13929314393E+02  0.10243527674E+04  0.10245608748E+04  0.25500000000E-02 0. -1.
<mgrwt>
<rscale>  0 0.41577732E+02</rscale>
<asrwt>0</asrwt>
<pdfrwt beam="1">  1        1 0.28254619E+00 0.41577732E+02</pdfrwt>
<pdfrwt beam="2">  1       -1 0.36203074E-04 0.41577732E+02</pdfrwt>
<totfact> 0.66769928E+05</totfact>
</mgrwt>
</event>
<event>
 4    1  0.3883670E-002  0.8732355E+02  0.7818608E-02  0.1309466E+00
         -1   -1    0    0  501    0 -0.00000000000E+00  0.00000000000E+00  0.94242426985E+01  0.94242440461E+01  0.50400000000E-02 0.  1.
          1   -1    0    0    0  501  0.00000000000E+00 -0.00000000000E+00 -0.20228154558E+03  0.20228154564E+03  0.50400000000E-02 0.  1.
          2    1    1    2    0  502  0.39718648984E+02  0.18124041696E+02 -0.97753344247E+02  0.10705964825E+03  0.25500000000E-02 0.  1.
         -2    1    1    2  502    0 -0.39718648984E+02 -0.18124041696E+02 -0.95103958631E+02  0.10464614144E+03  0.25500000000E-02 0.  1.
<mgrwt>
<rscale>  0 0.87323548E+02</rscale>
<asrwt>0</asrwt>
<pdfrwt beam="2">  1        1 0.31120235E-01 0.87323548E+02</pdfrwt>
<pdfrwt beam="1">  1       -1 0.14498837E-02 0.87323548E+02</pdfrwt>
<totfact> 0.13318684E+05</totfact>
</mgrwt>
</event>
<event>
 4    1  0.3883670E-002  0.4443529E+02  0.7818608E-02  0.1477898E+00
          1   -1    0    0    0  501  0.00000000000E+00  0.00000000000E+00  0.18472708954E+02  0.18472709642E+02  0.50400000000E-02 0. -1.
         -1   -1    0    0  501    0 -0.00000000000E+00 -0.00000000000E+00 -0.26721779579E+02  0.26721780054E+02  0.50400000000E-02 0. -1.
          2    1    1    2    0  502  0.69845516174E+01 -0.20219784760E+02 -0.10227050458E+02  0.23711099187E+02  0.25500000000E-02 0. -1.
         -2    1    1    2  502    0 -0.69845516174E+01  0.20219784760E+02  0.19779798337E+01  0.21483390509E+02  0.25500000000E-02 0. -1.
<mgrwt>
<rscale>  0 0.44435287E+02</rscale>
<asrwt>0</asrwt>
<pdfrwt beam="1">  1        1 0.28419553E-02 0.44435287E+02</pdfrwt>
<pdfrwt beam="2">  1       -1 0.41110431E-02 0.44435287E+02</pdfrwt>
<totfact> 0.57831726E+05</totfact>
</mgrwt>
</event>
<event>
 4    1  0.3883670E-002  0.1010340E+03  0.7818608E-02  0.1278136E+00
          1   -1    0    0    0  501  0.00000000000E+00  0.00000000000E+00  0.58075298986E+03  0.58075298989E+03  0.50400000000E-02 0. -1.
         -1   -1    0    0  501    0 -0.00000000000E+00 -0.00000000000E+00 -0.43942381636E+01  0.43942410539E+01  0.50400000000E-02 0. -1.
          2    1    1    2    0  502 -0.48156054253E+02 -0.79185175893E+00  0.19990084931E+03  0.20562096720E+03  0.25500000000E-02 0. -1.
         -2    1    1    2  502    0  0.48156054253E+02  0.79185175893E+00  0.37645790239E+03  0.37952626374E+03  0.25500000000E-02 0. -1.
<mgrwt>
<rscale>  0 0.10103401E+03</rscale>
<asrwt>0</asrwt>
<pdfrwt beam="1">  1        1 0.89346629E-01 0.10103401E+03</pdfrwt>
<pdfrwt beam="2">  1       -1 0.67603675E-03 0.10103401E+03</pdfrwt>
<totfact> 0.10751273E+05</totfact>
</mgrwt>
</event>
<event>
 4    1  0.3883670E-002  0.6077638E+02  0.7818608E-02  0.1394602E+00
         -1   -1    0    0  501    0 -0.00000000000E+00  0.00000000000E+00  0.11563999618E+02  0.11564000716E+02  0.50400000000E-02 0. -1.
          1   -1    0    0    0  501  0.00000000000E+00 -0.00000000000E+00 -0.79854887972E+02  0.79854888132E+02  0.50400000000E-02 0. -1.
          2    1    1    2    0  502 -0.49640481767E+01 -0.28138317451E+02 -0.18583473950E+02  0.34084486116E+02  0.25500000000E-02 0. -1.
         -2    1    1    2  502    0  0.49640481767E+01  0.28138317451E+02 -0.49707414405E+02  0.57334402731E+02  0.25500000000E-02 0. -1.
<mgrwt>
<rscale>  0 0.60776375E+02</rscale>
<asrwt>0</asrwt>
<pdfrwt beam="2">  1        1 0.12285367E-01 0.60776375E+02</pdfrwt>
<pdfrwt beam="1">  1       -1 0.17790770E-02 0.60776375E+02</pdfrwt>
<totfact> 0.29741211E+05</totfact>
</mgrwt>
</event>
<event>
 4    1  0.3883670E-002  0.4886469E+02  0.7818608E-02  0.1451563E+00
          1   -1    0    0    0  501  0.00000000000E+00  0.00000000000E+00  0.70050118612E+03  0.70050118614E+03  0.50400000000E-02 0. -1.
         -1   -1    0    0  501    0 -0.00000000000E+00 -0.00000000000E+00 -0.85215318975E+00  0.85216809398E+00  0.50400000000E-02 0. -1.
          2    1    1    2    0  502  0.43230778309E+01 -0.22931085813E+02  0.45373826540E+03  0.45433791080E+03  0.25500000000E-02 0. -1.
         -2    1    1    2  502    0 -0.43230778309E+01  0.22931085813E+02  0.24591076753E+03  0.24701544343E+03  0.25500000000E-02 0. -1.
<mgrwt>
<rscale>  0 0.48864693E+02</rscale>
<asrwt>0</asrwt>
<pdfrwt beam="1">  1        1 0.10776955E+00 0.48864693E+02</pdfrwt>
<pdfrwt beam="2">  1       -1 0.13110148E-03 0.48864693E+02</pdfrwt>
<totfact> 0.70237884E+05</totfact>
</mgrwt>
</event>
<event>
 4    1  0.3883670E-002  0.1166081E+03  0.7818608E-02  0.1248800E+00
         -1   -1    0    0  501    0 -0.00000000000E+00  0.00000000000E+00  0.60026672333E+02  0.60026672544E+02  0.50400000000E-02 0.  1.
          1   -1    0    0    0  501  0.00000000000E+00 -0.00000000000E+00 -0.56630876276E+02  0.56630876501E+02  0.50400000000E-02 0.  1.
          2    1    1    2    0  502 -0.45783799604E+02  0.18938818989E+02  0.32444099693E+02  0.59223768727E+02  0.25500000000E-02 0. -1.
         -2    1    1    2  502    0  0.45783799604E+02 -0.18938818989E+02 -0.29048303637E+02  0.57433780317E+02  0.25500000000E-02 0. -1.
<mgrwt>
<rscale>  0 0.11660811E+03</rscale>
<asrwt>0</asrwt>
<pdfrwt beam="2">  1        1 0.87124425E-02 0.11660811E+03</pdfrwt>
<pdfrwt beam="1">  1       -1 0.92348727E-02 0.11660811E+03</pdfrwt>
<totfact> 0.47532510E+04</totfact>
</mgrwt>
</event>
<event>
 4    1  0.3883670E-002  0.7344860E+02  0.7818608E-02  0.1348744E+00
         -1   -1    0    0  501    0 -0.00000000000E+00  0.00000000000E+00  0.13876740360E+01  0.13876831886E+01  0.50400000000E-02 0.  1.
          1   -1    0    0    0  501  0.00000000000E+00 -0.00000000000E+00 -0.97189232425E+03  0.97189232426E+03  0.50400000000E-02 0.  1.
          2    1    1    2    0  502  0.85984734304E+01  0.35697806119E+02 -0.47679758954E+03  0.47820937727E+03  0.25500000000E-02 0. -1.
         -2    1    1    2  502    0 -0.85984734304E+01 -0.35697806119E+02 -0.49370706067E+03  0.49507063018E+03  0.25500000000E-02 0. -1.
<mgrwt>
<rscale>  0 0.73448600E+02</rscale>
<asrwt>0</asrwt>
<pdfrwt beam="2">  1        1 0.14952135E+00 0.73448600E+02</pdfrwt>
<pdfrwt beam="1">  1       -1 0.21348979E-03 0.73448600E+02</pdfrwt>
<totfact> 0.24116666E+05</totfact>
</mgrwt>
</event>
<event>
 4    1  0.3883670E-002  0.8218460E+02  0.7818608E-02  0.1322964E+00
         -1   -1    0    0  501    0 -0.00000000000E+00  0.00000000000E+00  0.16624154940E+01  0.16624231340E+01  0.50400000000E-02 0. -1.
          1   -1    0    0    0  501  0.00000000000E+00 -0.00000000000E+00 -0.10157348430E+04  0.10157348431E+04  0.50400000000E-02 0. -1.
          2    1    1    2    0  502  0.37510838094E+02  0.93421138407E+01 -0.33450467197E+03  0.33673092172E+03  0.25500000000E-02 0.  1.
         -2    1    1    2  502    0 -0.37510838094E+02 -0.93421138407E+01 -0.67956775558E+03  0.68066634447E+03  0.25500000000E-02 0.  1.
<mgrwt>
<rscale>  0 0.82184603E+02</rscale>
<asrwt>0</asrwt>
<pdfrwt beam="2">  1        1 0.15626640E+00 0.82184603E+02</pdfrwt>
<pdfrwt beam="1">  1       -1 0.25575763E-03 0.82184603E+02</pdfrwt>
<totfact> 0.17797215E+05</totfact>
</mgrwt>
</event>
<event>
 4    1  0.3883670E-002  0.4620701E+02  0.7818608E-02  0.1466944E+00
         -1   -1    0    0  501    0 -0.00000000000E+00  0.00000000000E+00  0.77519033388E+02  0.77519033552E+02  0.50400000000E-02 0. -1.
          1   -1    0    0    0  501  0.00000000000E+00 -0.00000000000E+00 -0.68856875962E+01  0.68856894407E+01  0.50400000000E-02 0. -1.
          2    1    1    2    0  502  0.20180005638E+02  0.20305572012E+01  0.55527226902E+02  0.59115384834E+02  0.25500000000E-02 0. -1.
         -2    1    1    2  502    0 -0.20180005638E+02 -0.20305572012E+01  0.15106118890E+02  0.25289338159E+02  0.25500000000E-02 0. -1.
<mgrwt>
<rscale>  0 0.46207009E+02</rscale>
<asrwt>0</asrwt>
<pdfrwt beam="2">  1        1 0.10593366E-02 0.46207009E+02</pdfrwt>
<pdfrwt beam="1">  1       -1 0.11926006E-01 0.46207009E+02</pdfrwt>
<totfact> 0.46984293E+05</totfact>
</mgrwt>
</event>
<event>
 4    1  0.3883670E-002  0.5744615E+02  0.7818608E-02  0.1408873E+00
         -1   -1    0    0  501    0 -0.00000000000E+00  0.00000000000E+00  0.78416815752E+00  0.78418435388E+00  0.50400000000E-02 0.  1.
          1   -1    0    0    0  501  0.00000000000E+00 -0.00000000000E+00 -0.10520785022E+04  0.10520785022E+04  0.50400000000E-02 0.  1.
          2    1    1    2    0  502  0.27577643655E+02 -0.92688610088E+00 -0.67184464022E+03  0.67241103958E+03  0.25500000000E-02 0.  1.
         -2    1    1    2  502    0 -0.27577643655E+02  0.92688610088E+00 -0.37944969381E+03  0.38045164697E+03  0.25500000000E-02 0.  1.
<mgrwt>
<rscale>  0 0.57446148E+02</rscale>
<asrwt>0</asrwt>
<pdfrwt beam="2">  1        1 0.16185710E+00 0.57446148E+02</pdfrwt>
<pdfrwt beam="1">  1       -1 0.12064334E-03 0.57446148E+02</pdfrwt>
<totfact> 0.44198834E+05</totfact>
</mgrwt>
</event>
<event>
 4    1  0.3883670E-002  0.6904714E+02  0.7818608E-02  0.1363364E+00
          1   -1    0    0    0  501  0.00000000000E+00  0.00000000000E+00  0.55153087593E+02  0.55153087823E+02  0.50400000000E-02 0. -1.
         -1   -1    0    0  501    0 -0.00000000000E+00 -0.00000000000E+00 -0.21610335025E+02  0.21610335613E+02  0.50400000000E-02 0. -1.
          2    1    1    2    0  502  0.13544807413E+02 -0.26918041372E+02  0.35501508860E+02  0.46566080972E+02  0.25500000000E-02 0. -1.
         -2    1    1    2  502    0 -0.13544807413E+02  0.26918041372E+02 -0.19587562928E+01  0.30197342464E+02  0.25500000000E-02 0. -1.
<mgrwt>
<rscale>  0 0.69047136E+02</rscale>
<asrwt>0</asrwt>
<pdfrwt beam="1">  1        1 0.84850904E-02 0.69047136E+02</pdfrwt>
<pdfrwt beam="2">  1       -1 0.33246670E-02 0.69047136E+02</pdfrwt>
<totfact> 0.20292774E+05</totfact>
</mgrwt>
</event>
<event>
 4    1  0.3883670E-002  0.1175920E+03  0.7818608E-02  0.1247123E+00
          1   -1    0    0    0  501  0.00000000000E+00  0.00000000000E+00  0.52033616672E+02  0.52033616916E+02  0.50400000000E-02 0.  1.
         -1   -1    0    0  501    0 -0.00000000000E+00 -0.00000000000E+00 -0.66437261247E+02  0.66437261438E+02  0.50400000000E-02 0.  1.
          2    1    1    2    0  502 -0.18771212395E+02  0.43187443798E+02  0.28267225259E+02  0.54923125794E+02  0.25500000000E-02 0. -1.
         -2    1    1    2  502    0  0.18771212395E+02 -0.43187443798E+02 -0.42670869834E+02  0.63547752561E+02  0.25500000000E-02 0. -1.
<mgrwt>
<rscale>  0 0.11759202E+03</rscale>
<asrwt>0</asrwt>
<pdfrwt beam="1">  1        1 0.80051718E-02 0.11759202E+03</pdfrwt>
<pdfrwt beam="2">  1       -1 0.10221117E-01 0.11759202E+03</pdfrwt>
<totfact> 0.45662583E+04</totfact>
</mgrwt>
</event>
<event>
 4    1  0.3883670E-002  0.4511536E+02  0.7818608E-02  0.1473623E+00
          1   -1    0    0    0  501  0.00000000000E+00  0.00000000000E+00  0.74377333184E+02  0.74377333355E+02  0.50400000000E-02 0.  1.
         -1   -1    0    0  501    0 -0.00000000000E+00 -0.00000000000E+00 -0.68414506350E+01  0.68414524914E+01  0.50400000000E-02 0.  1.
          2    1    1    2    0  502  0.18073109013E+02  0.13066860443E+02  0.39864593065E+02  0.45678943705E+02  0.25500000000E-02 0.  1.
         -2    1    1    2  502    0 -0.18073109013E+02 -0.13066860443E+02  0.27671289484E+02  0.35539842141E+02  0.25500000000E-02 0.  1.
<mgrwt>
<rscale>  0 0.45115360E+02</rscale>
<asrwt>0</asrwt>
<pdfrwt beam="1">  1        1 0.11442668E-01 0.45115360E+02</pdfrwt>
<pdfrwt beam="2">  1       -1 0.10525310E-02 0.45115360E+02</pdfrwt>
<totfact> 0.63032351E+05</totfact>
</mgrwt>
</event>
<event>
 4    1  0.3883670E-002  0.5063122E+02  0.7818608E-02  0.1441966E+00
         -1   -1    0    0  501    0 -0.00000000000E+00  0.00000000000E+00  0.18765876785E+01  0.18765944466E+01  0.50400000000E-02 0.  1.
          1   -1    0    0    0  501  0.00000000000E+00 -0.00000000000E+00 -0.34151286625E+03  0.34151286629E+03  0.50400000000E-02 0.  1.
          2    1    1    2    0  502 -0.20109337392E+02  0.22492238530E+01 -0.27299531390E+03  0.27374419789E+03  0.25500000000E-02 0. -1.
         -2    1    1    2  502    0  0.20109337392E+02 -0.22492238530E+01 -0.66640964666E+02  0.69645262843E+02  0.25500000000E-02 0. -1.
<mgrwt>
<rscale>  0 0.50631216E+02</rscale>
<asrwt>0</asrwt>
<pdfrwt beam="2">  1        1 0.52540392E-01 0.50631216E+02</pdfrwt>
<pdfrwt beam="1">  1       -1 0.28870659E-03 0.50631216E+02</pdfrwt>
<totfact> 0.59809047E+05</totfact>
</mgrwt>
</event>
<event>
 4    1  0.3883670E-002  0.4313365E+02  0.7818608E-02  0.1486341E+00
         -1   -1    0    0  501    0 -0.00000000000E+00  0.00000000000E+00  0.88549149383E+00  0.88550583693E+00  0.50400000000E-02 0.  1.
          1   -1    0    0    0  501  0.00000000000E+00 -0.00000000000E+00 -0.52527223071E+03  0.52527223073E+03  0.50400000000E-02 0.  1.
          2    1    1    2    0  502  0.13056553348E+02  0.16217381614E+02 -0.33081992845E+03  0.33147443659E+03  0.25500000000E-02 0.  1.
         -2    1    1    2  502    0 -0.13056553348E+02 -0.16217381614E+02 -0.19356681076E+03  0.19468329997E+03  0.25500000000E-02 0.  1.
<mgrwt>
<rscale>  0 0.43133647E+02</rscale>
<asrwt>0</asrwt>
<pdfrwt beam="2">  1        1 0.80810864E-01 0.43133647E+02</pdfrwt>
<pdfrwt beam="1">  1       -1 0.13623099E-03 0.43133647E+02</pdfrwt>
<totfact> 0.94186693E+05</totfact>
</mgrwt>
</event>
<event>
 4    1  0.3883670E-002  0.6111021E+02  0.7818608E-02  0.1393231E+00
          1   -1    0    0    0  501  0.00000000000E+00  0.00000000000E+00  0.95715607055E+02  0.95715607188E+02  0.50400000000E-02 0.  1.
         -1   -1    0    0  501    0 -0.00000000000E+00 -0.00000000000E+00 -0.97540452355E+01  0.97540465377E+01  0.50400000000E-02 0.  1.
          2    1    1    2    0  502 -0.10511942948E+01 -0.20526475623E+02  0.82001726689E+02  0.84538301364E+02  0.25500000000E-02 0.  1.
         -2    1    1    2  502    0  0.10511942948E+01  0.20526475623E+02  0.39598351303E+01  0.20931352362E+02  0.25500000000E-02 0.  1.
<mgrwt>
<rscale>  0 0.61110210E+02</rscale>
<asrwt>0</asrwt>
<pdfrwt beam="1">  1        1 0.14725477E-01 0.61110210E+02</pdfrwt>
<pdfrwt beam="2">  1       -1 0.15006225E-02 0.61110210E+02</pdfrwt>
<totfact> 0.30044535E+05</totfact>
</mgrwt>
</event>
<event>
 4    1  0.3883670E-002  0.6268860E+02  0.7818608E-02  0.1386883E+00
          1   -1    0    0    0  501  0.00000000000E+00  0.00000000000E+00  0.64249171174E+03  0.64249171176E+03  0.50400000000E-02 0.  1.
         -1   -1    0    0  501    0 -0.00000000000E+00 -0.00000000000E+00 -0.15291441928E+01  0.15291524986E+01  0.50400000000E-02 0.  1.
          2    1    1    2    0  502  0.55379008984E+01 -0.24303566903E+02  0.51571068089E+03  0.51631273285E+03  0.25500000000E-02 0.  1.
         -2    1    1    2  502    0 -0.55379008984E+01  0.24303566903E+02  0.12525188665E+03  0.12770813141E+03  0.25500000000E-02 0.  1.
<mgrwt>
<rscale>  0 0.62688600E+02</rscale>
<asrwt>0</asrwt>
<pdfrwt beam="1">  1        1 0.98844951E-01 0.62688600E+02</pdfrwt>
<pdfrwt beam="2">  1       -1 0.23525342E-03 0.62688600E+02</pdfrwt>
<totfact> 0.37566508E+05</totfact>
</mgrwt>
</event>
<event>
 4    1  0.3883670E-002  0.4648552E+02  0.7818608E-02  0.1465275E+00
         -1   -1    0    0  501    0 -0.00000000000E+00  0.00000000000E+00  0.51436434518E+00  0.51438903682E+00  0.50400000000E-02 0. -1.
          1   -1    0    0    0  501  0.00000000000E+00 -0.00000000000E+00 -0.10502536452E+04  0.10502536452E+04  0.50400000000E-02 0. -1.
          2    1    1    2    0  502 -0.15705857294E+02  0.13730907473E+02 -0.75650944183E+03  0.75679703181E+03  0.25500000000E-02 0. -1.
         -2    1    1    2  502    0  0.15705857294E+02 -0.13730907473E+02 -0.29322983904E+03  0.29397100245E+03  0.25500000000E-02 0. -1.
<mgrwt>
<rscale>  0 0.46485525E+02</rscale>
<asrwt>0</asrwt>
<pdfrwt beam="2">  1        1 0.16157577E+00 0.46485525E+02</pdfrwt>
<pdfrwt beam="1">  1       -1 0.79135717E-04 0.46485525E+02</pdfrwt>
<totfact> 0.74942349E+05</totfact>
</mgrwt>
</event>
<event>
 4    1  0.3883670E-002  0.4293047E+02  0.7818608E-02  0.1487691E+00
          1   -1    0    0    0  501  0.00000000000E+00  0.00000000000E+00  0.15978920461E+02  0.15978921256E+02  0.50400000000E-02 0.  1.
         -1   -1    0    0  501    0 -0.00000000000E+00 -0.00000000000E+00 -0.28835258256E+02  0.28835258696E+02  0.50400000000E-02 0.  1.
          2    1    1    2    0  502  0.14080709826E+02 -0.16115804457E+02 -0.81657719759E+01  0.22905575325E+02  0.25500000000E-02 0. -1.
         -2    1    1    2  502    0 -0.14080709826E+02  0.16115804457E+02 -0.46905658187E+01  0.21908604627E+02  0.25500000000E-02 0. -1.
<mgrwt>
<rscale>  0 0.42930471E+02</rscale>
<asrwt>0</asrwt>
<pdfrwt beam="1">  1        1 0.24582955E-02 0.42930471E+02</pdfrwt>
<pdfrwt beam="2">  1       -1 0.44361937E-02 0.42930471E+02</pdfrwt>
<totfact> 0.62442062E+05</totfact>
</mgrwt>
</event>
<event>
 4    1  0.3883670E-002  0.4518364E+02  0.7818608E-02  0.1473198E+00
          1   -1    0    0    0  501  0.00000000000E+00  0.00000000000E+00  0.51455562433E+00  0.51458030679E+00  0.50400000000E-02 0. -1.
         -1   -1    0    0  501    0 -0.00000000000E+00 -0.00000000000E+00 -0.99188142927E+03  0.99188142928E+03  0.50400000000E-02 0. -1.
          2    1    1    2    0  502  0.69626691171E+01 -0.20832213167E+02 -0.37960715475E+03  0.38024209631E+03  0.25500000000E-02 0.  1.
         -2    1    1    2  502    0 -0.69626691171E+01  0.20832213167E+02 -0.61175971890E+03  0.61215391328E+03  0.25500000000E-02 0.  1.
<mgrwt>
<rscale>  0 0.45183644E+02</rscale>
<asrwt>0</asrwt>
<pdfrwt beam="1">  1        1 0.79165097E-04 0.45183644E+02</pdfrwt>
<pdfrwt beam="2">  1       -1 0.15259561E+00 0.45183644E+02</pdfrwt>
<totfact> 0.15446478E+05</totfact>
</mgrwt>
</event>
<event>
 4    1  0.3883670E-002  0.1662882E+03  0.7818608E-02  0.1181775E+00
          1   -1    0    0    0  501  0.00000000000E+00  0.00000000000E+00  0.83495045642E+03  0.83495045643E+03  0.50400000000E-02 0. -1.
         -1   -1    0    0  501    0 -0.00000000000E+00 -0.00000000000E+00 -0.82794614023E+01  0.82794629363E+01  0.50400000000E-02 0. -1.
          2    1    1    2    0  502  0.31866489150E+02  0.93650279433E+01  0.79984825682E+03  0.80053757614E+03  0.25500000000E-02 0. -1.
         -2    1    1    2  502    0 -0.31866489150E+02 -0.93650279433E+01  0.26822738199E+02  0.42692343226E+02  0.25500000000E-02 0. -1.
<mgrwt>
<rscale>  0 0.16628819E+03</rscale>
<asrwt>0</asrwt>
<pdfrwt beam="1">  1        1 0.12845394E+00 0.16628819E+03</pdfrwt>
<pdfrwt beam="2">  1       -1 0.12737632E-02 0.16628819E+03</pdfrwt>
<totfact> 0.27457595E+04</totfact>
</mgrwt>
</event>
<event>
 4    1  0.3883670E-002  0.9912934E+02  0.7818608E-02  0.1282138E+00
         -1   -1    0    0  501    0 -0.00000000000E+00  0.00000000000E+00  0.83321107210E+01  0.83321122453E+01  0.50400000000E-02 0.  1.
          1   -1    0    0    0  501  0.00000000000E+00 -0.00000000000E+00 -0.29484198582E+03  0.29484198587E+03  0.50400000000E-02 0.  1.
          2    1    1    2    0  502 -0.48873007519E+02 -0.48571740936E+01 -0.12285460736E+03  0.13230804042E+03  0.25500000000E-02 0. -1.
         -2    1    1    2  502    0  0.48873007519E+02  0.48571740936E+01 -0.16365526774E+03  0.17086605769E+03  0.25500000000E-02 0. -1.
<mgrwt>
<rscale>  0 0.99129336E+02</rscale>
<asrwt>0</asrwt>
<pdfrwt beam="2">  1        1 0.45360298E-01 0.99129336E+02</pdfrwt>
<pdfrwt beam="1">  1       -1 0.12818635E-02 0.99129336E+02</pdfrwt>
<totfact> 0.10207685E+05</totfact>
</mgrwt>
</event>
<event>
 4    1  0.3883670E-002  0.4746444E+02  0.7818608E-02  0.1459518E+00
          1   -1    0    0    0  501  0.00000000000E+00  0.00000000000E+00  0.36808516426E+02  0.36808516772E+02  0.50400000000E-02 0. -1.
         -1   -1    0    0  501    0 -0.00000000000E+00 -0.00000000000E+00 -0.15301301710E+02  0.15301302540E+02  0.50400000000E-02 0. -1.
          2    1    1    2    0  502 -0.43018506958E+01 -0.23083835803E+02  0.69745001066E+01  0.24495163870E+02  0.25500000000E-02 0. -1.
         -2    1    1    2  502    0  0.43018506958E+01  0.23083835803E+02  0.14532714609E+02  0.27614655442E+02  0.25500000000E-02 0. -1.
<mgrwt>
<rscale>  0 0.47464439E+02</rscale>
<asrwt>0</asrwt>
<pdfrwt beam="1">  1        1 0.56628487E-02 0.47464439E+02</pdfrwt>
<pdfrwt beam="2">  1       -1 0.23540465E-02 0.47464439E+02</pdfrwt>
<totfact> 0.51745936E+05</totfact>
</mgrwt>
</event>
<event>
 4    1  0.3883670E-002  0.4787494E+02  0.7818608E-02  0.1457153E+00
          1   -1    0    0    0  501  0.00000000000E+00  0.00000000000E+00  0.15659453363E+04  0.15659453363E+04  0.50400000000E-02 0.  1.
         -1   -1    0    0  501    0 -0.00000000000E+00 -0.00000000000E+00 -0.36589734573E+00  0.36593205546E+00  0.50400000000E-02 0.  1.
          2    1    1    2    0  502  0.18901414763E+02  0.11391059321E+02  0.47941777496E+03  0.47992543449E+03  0.25500000000E-02 0.  1.
         -2    1    1    2  502    0 -0.18901414763E+02 -0.11391059321E+02  0.10861616640E+04  0.10863858339E+04  0.25500000000E-02 0.  1.
<mgrwt>
<rscale>  0 0.47874938E+02</rscale>
<asrwt>0</asrwt>
<pdfrwt beam="1">  1        1 0.24091704E+00 0.47874938E+02</pdfrwt>
<pdfrwt beam="2">  1       -1 0.56294015E-04 0.47874938E+02</pdfrwt>
<totfact> 0.55654269E+05</totfact>
</mgrwt>
</event>
<event>
 4    1  0.3883670E-002  0.1048066E+03  0.7818608E-02  0.1270501E+00
          1   -1    0    0    0  501  0.00000000000E+00  0.00000000000E+00  0.31035923012E+01  0.31035963934E+01  0.50400000000E-02 0. -1.
         -1   -1    0    0  501    0 -0.00000000000E+00 -0.00000000000E+00 -0.88481451429E+03  0.88481451430E+03  0.50400000000E-02 0. -1.
          2    1    1    2    0  502 -0.30586800109E+02 -0.34564789585E+02 -0.23061604194E+03  0.23518936163E+03  0.25500000000E-02 0.  1.
         -2    1    1    2  502    0  0.30586800109E+02  0.34564789585E+02 -0.65109488005E+03  0.65272874906E+03  0.25500000000E-02 0.  1.
<mgrwt>
<rscale>  0 0.10480659E+03</rscale>
<asrwt>0</asrwt>
<pdfrwt beam="1">  1        1 0.47747676E-03 0.10480659E+03</pdfrwt>
<pdfrwt beam="2">  1       -1 0.13612511E+00 0.10480659E+03</pdfrwt>
<totfact> 0.20393263E+04</totfact>
</mgrwt>
</event>
<event>
 4    1  0.3883670E-002  0.4746064E+02  0.7818608E-02  0.1459540E+00
         -1   -1    0    0  501    0 -0.00000000000E+00  0.00000000000E+00  0.11448674738E+02  0.11448675847E+02  0.50400000000E-02 0. -1.
          1   -1    0    0    0  501  0.00000000000E+00 -0.00000000000E+00 -0.49187178248E+02  0.49187178507E+02  0.50400000000E-02 0. -1.
          2    1    1    2    0  502  0.22305016444E+02  0.53149570622E+01 -0.26678898690E+02  0.35178490146E+02  0.25500000000E-02 0. -1.
         -2    1    1    2  502    0 -0.22305016444E+02 -0.53149570622E+01 -0.11059604821E+02  0.25457364208E+02  0.25500000000E-02 0. -1.
<mgrwt>
<rscale>  0 0.47460638E+02</rscale>
<asrwt>0</asrwt>
<pdfrwt beam="2">  1        1 0.75672582E-02 0.47460638E+02</pdfrwt>
<pdfrwt beam="1">  1       -1 0.17613347E-02 0.47460638E+02</pdfrwt>
<totfact> 0.53151438E+05</totfact>
</mgrwt>
</event>
<event>
 4    1  0.3883670E-002  0.5049256E+02  0.7818608E-02  0.1442703E+00
          1   -1    0    0    0  501  0.00000000000E+00  0.00000000000E+00  0.73032839841E+02  0.73032840015E+02  0.50400000000E-02 0. -1.
         -1   -1    0    0  501    0 -0.00000000000E+00 -0.00000000000E+00 -0.87272318009E+01  0.87272332562E+01  0.50400000000E-02 0. -1.
          2    1    1    2    0  502  0.21101538449E+02  0.81328266127E+01  0.50325723150E+02  0.55173328798E+02  0.25500000000E-02 0.  1.
         -2    1    1    2  502    0 -0.21101538449E+02 -0.81328266127E+01  0.13979884890E+02  0.26586744473E+02  0.25500000000E-02 0.  1.
<mgrwt>
<rscale>  0 0.50492557E+02</rscale>
<asrwt>0</asrwt>
<pdfrwt beam="1">  1        1 0.11235822E-01 0.50492557E+02</pdfrwt>
<pdfrwt beam="2">  1       -1 0.13426512E-02 0.50492557E+02</pdfrwt>
<totfact> 0.47360698E+05</totfact>
</mgrwt>
</event>
<event>
 4    1  0.3883670E-002  0.5262205E+02  0.7818608E-02  0.1431691E+00
          1   -1    0    0    0  501  0.00000000000E+00  0.00000000000E+00  0.43145441443E+01  0.43145470880E+01  0.50400000000E-02 0. -1.
         -1   -1    0    0  501    0 -0.00000000000E+00 -0.00000000000E+00 -0.16045029216E+03  0.16045029224E+03  0.50400000000E-02 0. -1.
          2    1    1    2    0  502  0.73711594214E+01  0.24938215923E+02 -0.90600683116E+02  0.94258858428E+02  0.25500000000E-02 0.  1.
         -2    1    1    2  502    0 -0.73711594214E+01 -0.24938215923E+02 -0.65535064905E+02  0.70505980904E+02  0.25500000000E-02 0.  1.
<mgrwt>
<rscale>  0 0.52622053E+02</rscale>
<asrwt>0</asrwt>
<pdfrwt beam="1">  1        1 0.66377638E-03 0.52622053E+02</pdfrwt>
<pdfrwt beam="2">  1       -1 0.24684656E-01 0.52622053E+02</pdfrwt>
<totfact> 0.29866176E+05</totfact>
</mgrwt>
</event>
<event>
 4    1  0.3883670E-002  0.8969545E+02  0.7818608E-02  0.1303591E+00
          1   -1    0    0    0  501  0.00000000000E+00  0.00000000000E+00  0.18947221870E+02  0.18947222541E+02  0.50400000000E-02 0. -1.
         -1   -1    0    0  501    0 -0.00000000000E+00 -0.00000000000E+00 -0.10615372444E+03  0.10615372456E+03  0.50400000000E-02 0. -1.
          2    1    1    2    0  502  0.36161598535E+02  0.23702887525E+02 -0.26993066895E+02  0.50971695602E+02  0.25500000000E-02 0. -1.
         -2    1    1    2  502    0 -0.36161598535E+02 -0.23702887525E+02 -0.60213435677E+02  0.74129251501E+02  0.25500000000E-02 0. -1.
<mgrwt>
<rscale>  0 0.89695445E+02</rscale>
<asrwt>0</asrwt>
<pdfrwt beam="1">  1        1 0.29149573E-02 0.89695445E+02</pdfrwt>
<pdfrwt beam="2">  1       -1 0.16331342E-01 0.89695445E+02</pdfrwt>
<totfact> 0.83926458E+04</totfact>
</mgrwt>
</event>
<event>
 4    1  0.3883670E-002  0.1203724E+03  0.7818608E-02  0.1242484E+00
         -1   -1    0    0  501    0 -0.00000000000E+00  0.00000000000E+00  0.26416118646E+01  0.26416166726E+01  0.50400000000E-02 0. -1.
          1   -1    0    0    0  501  0.00000000000E+00 -0.00000000000E+00 -0.13712757048E+04  0.13712757048E+04  0.50400000000E-02 0. -1.
          2    1    1    2    0  502  0.37186010281E+02 -0.46549372993E+02 -0.78166215900E+03  0.78392944472E+03  0.25500000000E-02 0.  1.
         -2    1    1    2  502    0 -0.37186010281E+02  0.46549372993E+02 -0.58697193396E+03  0.58998787678E+03  0.25500000000E-02 0.  1.
<mgrwt>
<rscale>  0 0.12037245E+03</rscale>
<asrwt>0</asrwt>
<pdfrwt beam="2">  1        1 0.21096492E+00 0.12037245E+03</pdfrwt>
<pdfrwt beam="1">  1       -1 0.40640329E-03 0.12037245E+03</pdfrwt>
<totfact> 0.56080682E+04</totfact>
</mgrwt>
</event>
<event>
 4    1  0.3883670E-002  0.9794347E+02  0.7818608E-02  0.1284681E+00
          1   -1    0    0    0  501  0.00000000000E+00  0.00000000000E+00  0.27638297100E+04  0.27638297100E+04  0.50400000000E-02 0. -1.
         -1   -1    0    0  501    0 -0.00000000000E+00 -0.00000000000E+00 -0.86771287999E+00  0.86772751697E+00  0.50400000000E-02 0. -1.
          2    1    1    2    0  502 -0.15396907507E+02 -0.39876864064E+02  0.70696715670E+03  0.70825827895E+03  0.25500000000E-02 0. -1.
         -2    1    1    2  502    0  0.15396907507E+02  0.39876864064E+02  0.20559948404E+04  0.20564391585E+04  0.25500000000E-02 0. -1.
<mgrwt>
<rscale>  0 0.97943471E+02</rscale>
<asrwt>0</asrwt>
<pdfrwt beam="1">  1        1 0.42520286E+00 0.97943471E+02</pdfrwt>
<pdfrwt beam="2">  1       -1 0.13349595E-03 0.97943471E+02</pdfrwt>
<totfact> 0.33366446E+04</totfact>
</mgrwt>
</event>
<event>
 4    1  0.3883670E-002  0.7070178E+02  0.7818608E-02  0.1357723E+00
         -1   -1    0    0  501    0 -0.00000000000E+00  0.00000000000E+00  0.22696988917E+01  0.22697044875E+01  0.50400000000E-02 0. -1.
          1   -1    0    0    0  501  0.00000000000E+00 -0.00000000000E+00 -0.55059449816E+03  0.55059449818E+03  0.50400000000E-02 0. -1.
          2    1    1    2    0  502 -0.34627328725E+02  0.23155305975E+00 -0.32977542485E+03  0.33158850455E+03  0.25500000000E-02 0. -1.
         -2    1    1    2  502    0  0.34627328725E+02 -0.23155305975E+00 -0.21854937442E+03  0.22127569812E+03  0.25500000000E-02 0. -1.
<mgrwt>
<rscale>  0 0.70701776E+02</rscale>
<asrwt>0</asrwt>
<pdfrwt beam="2">  1        1 0.84706740E-01 0.70701776E+02</pdfrwt>
<pdfrwt beam="1">  1       -1 0.34918531E-03 0.70701776E+02</pdfrwt>
<totfact> 0.27352061E+05</totfact>
</mgrwt>
</event>
<event>
 4    1  0.3883670E-002  0.5816760E+02  0.7818608E-02  0.1405686E+00
          1   -1    0    0    0  501  0.00000000000E+00  0.00000000000E+00  0.15701879099E+04  0.15701879099E+04  0.50400000000E-02 0.  1.
         -1   -1    0    0  501    0 -0.00000000000E+00 -0.00000000000E+00 -0.53869273503E+00  0.53871631159E+00  0.50400000000E-02 0.  1.
          2    1    1    2    0  502 -0.12861112448E+02  0.20028346309E+02  0.12361335834E+04  0.12363627215E+04  0.25500000000E-02 0.  1.
         -2    1    1    2  502    0  0.12861112448E+02 -0.20028346309E+02  0.33351563372E+03  0.33436390477E+03  0.25500000000E-02 0.  1.
<mgrwt>
<rscale>  0 0.58167597E+02</rscale>
<asrwt>0</asrwt>
<pdfrwt beam="1">  1        1 0.24156673E+00 0.58167597E+02</pdfrwt>
<pdfrwt beam="2">  1       -1 0.82877839E-04 0.58167597E+02</pdfrwt>
<totfact> 0.34059559E+05</totfact>
</mgrwt>
</event>
<event>
 4    1  0.3883670E-002  0.6044270E+02  0.7818608E-02  0.1395983E+00
         -1   -1    0    0  501    0 -0.00000000000E+00  0.00000000000E+00  0.70292825165E+00  0.70294631983E+00  0.50400000000E-02 0. -1.
          1   -1    0    0    0  501  0.00000000000E+00 -0.00000000000E+00 -0.12993050938E+04  0.12993050938E+04  0.50400000000E-02 0. -1.
          2    1    1    2    0  502  0.13330997534E+02  0.20507709910E+02 -0.10310613954E+04  0.10313514836E+04  0.25500000000E-02 0.  1.
         -2    1    1    2  502    0 -0.13330997534E+02 -0.20507709910E+02 -0.26754077015E+03  0.26865655651E+03  0.25500000000E-02 0.  1.
<mgrwt>
<rscale>  0 0.60442700E+02</rscale>
<asrwt>0</asrwt>
<pdfrwt beam="2">  1        1 0.19989117E+00 0.60442700E+02</pdfrwt>
<pdfrwt beam="1">  1       -1 0.10814524E-03 0.60442700E+02</pdfrwt>
<totfact> 0.35448306E+05</totfact>
</mgrwt>
</event>
<event>
 4    1  0.3883670E-002  0.7162224E+02  0.7818608E-02  0.1354662E+00
          1   -1    0    0    0  501  0.00000000000E+00  0.00000000000E+00  0.35997961555E+03  0.35997961559E+03  0.50400000000E-02 0. -1.
         -1   -1    0    0  501    0 -0.00000000000E+00 -0.00000000000E+00 -0.35625227900E+01  0.35625263551E+01  0.50400000000E-02 0. -1.
          2    1    1    2    0  502 -0.33417464987E+02  0.12053884927E+02  0.15527550709E+03  0.15928749548E+03  0.25500000000E-02 0.  1.
         -2    1    1    2  502    0  0.33417464987E+02 -0.12053884927E+02  0.20114158568E+03  0.20425464647E+03  0.25500000000E-02 0.  1.
<mgrwt>
<rscale>  0 0.71622238E+02</rscale>
<asrwt>0</asrwt>
<pdfrwt beam="1">  1        1 0.55381494E-01 0.71622238E+02</pdfrwt>
<pdfrwt beam="2">  1       -1 0.54808056E-03 0.71622238E+02</pdfrwt>
<totfact> 0.24968510E+05</totfact>
</mgrwt>
</event>
<event>
 4    1  0.3883670E-002  0.4394235E+02  0.7818608E-02  0.1481054E+00
          1   -1    0    0    0  501  0.00000000000E+00  0.00000000000E+00  0.38747257004E+03  0.38747257007E+03  0.50400000000E-02 0.  1.
         -1   -1    0    0  501    0 -0.00000000000E+00 -0.00000000000E+00 -0.12458445481E+01  0.12458547426E+01  0.50400000000E-02 0.  1.
          2    1    1    2    0  502  0.11213210714E+02  0.18881798045E+02  0.19920484008E+03  0.20041164315E+03  0.25500000000E-02 0. -1.
         -2    1    1    2  502    0 -0.11213210714E+02 -0.18881798045E+02  0.18702188541E+03  0.18830678167E+03  0.25500000000E-02 0. -1.
<mgrwt>
<rscale>  0 0.43942352E+02</rscale>
<asrwt>0</asrwt>
<pdfrwt beam="1">  1        1 0.59611166E-01 0.43942352E+02</pdfrwt>
<pdfrwt beam="2">  1       -1 0.19166918E-03 0.43942352E+02</pdfrwt>
<totfact> 0.86616051E+05</totfact>
</mgrwt>
</event>
<event>
 4    1  0.3883670E-002  0.7932501E+02  0.7818608E-02  0.1330978E+00
         -1   -1    0    0  501    0 -0.00000000000E+00  0.00000000000E+00  0.16912819386E+02  0.16912820137E+02  0.50400000000E-02 0. -1.
          1   -1    0    0    0  501  0.00000000000E+00 -0.00000000000E+00 -0.93013122783E+02  0.93013122920E+02  0.50400000000E-02 0. -1.
          2    1    1    2    0  502 -0.33156175357E+02 -0.15398458307E+02 -0.59368885906E+02  0.69721654476E+02  0.25500000000E-02 0. -1.
         -2    1    1    2  502    0  0.33156175357E+02  0.15398458307E+02 -0.16731417491E+02  0.40204288581E+02  0.25500000000E-02 0. -1.
<mgrwt>
<rscale>  0 0.79325007E+02</rscale>
<asrwt>0</asrwt>
<pdfrwt beam="2">  1        1 0.14309711E-01 0.79325007E+02</pdfrwt>
<pdfrwt beam="1">  1       -1 0.26019723E-02 0.79325007E+02</pdfrwt>
<totfact> 0.15043506E+05</totfact>
</mgrwt>
</event>
<event>
 4    1  0.3883670E-002  0.4516432E+02  0.7818608E-02  0.1473318E+00
          1   -1    0    0    0  501  0.00000000000E+00  0.00000000000E+00  0.11345138992E+04  0.11345138992E+04  0.50400000000E-02 0. -1.
         -1   -1    0    0  501    0 -0.00000000000E+00 -0.00000000000E+00 -0.44947703856E+00  0.44950529451E+00  0.50400000000E-02 0. -1.
          2    1    1    2    0  502 -0.14086537415E+02  0.17526092674E+02  0.61950157200E+03  0.61990950321E+03  0.25500000000E-02 0. -1.
         -2    1    1    2  502    0  0.14086537415E+02 -0.17526092674E+02  0.51456285011E+03  0.51505390124E+03  0.25500000000E-02 0. -1.
<mgrwt>
<rscale>  0 0.45164322E+02</rscale>
<asrwt>0</asrwt>
<pdfrwt beam="1">  1        1 0.17454064E+00 0.45164322E+02</pdfrwt>
<pdfrwt beam="2">  1       -1 0.69152471E-04 0.45164322E+02</pdfrwt>
<totfact> 0.78313909E+05</totfact>
</mgrwt>
</event>
<event>
 4    1  0.3883670E-002  0.4915702E+02  0.7818608E-02  0.1449942E+00
          1   -1    0    0    0  501  0.00000000000E+00  0.00000000000E+00  0.37950542229E+01  0.37950575696E+01  0.50400000000E-02 0.  1.
         -1   -1    0    0  501    0 -0.00000000000E+00 -0.00000000000E+00 -0.15918158806E+03  0.15918158814E+03  0.50400000000E-02 0.  1.
          2    1    1    2    0  502  0.13569592520E+02  0.15448282165E+02 -0.12233719983E+03  0.12405310851E+03  0.25500000000E-02 0. -1.
         -2    1    1    2  502    0 -0.13569592520E+02 -0.15448282165E+02 -0.33049334004E+02  0.38923537194E+02  0.25500000000E-02 0. -1.
<mgrwt>
<rscale>  0 0.49157015E+02</rscale>
<asrwt>0</asrwt>
<pdfrwt beam="1">  1        1 0.58385488E-03 0.49157015E+02</pdfrwt>
<pdfrwt beam="2">  1       -1 0.24489470E-01 0.49157015E+02</pdfrwt>
<totfact> 0.35429567E+05</totfact>
</mgrwt>
</event>
<event>
 4    1  0.3883670E-002  0.5412819E+02  0.7818608E-02  0.1424267E+00
          1   -1    0    0    0  501  0.00000000000E+00  0.00000000000E+00  0.27880727490E+02  0.27880727945E+02  0.50400000000E-02 0. -1.
         -1   -1    0    0  501    0 -0.00000000000E+00 -0.00000000000E+00 -0.26271378859E+02  0.26271379342E+02  0.50400000000E-02 0. -1.
          2    1    1    2    0  502  0.18287883867E+02  0.17231150176E+02  0.10864262716E+02  0.27375014952E+02  0.25500000000E-02 0.  1.
         -2    1    1    2  502    0 -0.18287883867E+02 -0.17231150176E+02 -0.92549140855E+01  0.26777092336E+02  0.25500000000E-02 0.  1.
<mgrwt>
<rscale>  0 0.54128188E+02</rscale>
<asrwt>0</asrwt>
<pdfrwt beam="1">  1        1 0.42893428E-02 0.54128188E+02</pdfrwt>
<pdfrwt beam="2">  1       -1 0.40417506E-02 0.54128188E+02</pdfrwt>
<totfact> 0.35907711E+05</totfact>
</mgrwt>
</event>
<event>
 4    1  0.3883670E-002  0.5589727E+02  0.7818608E-02  0.1415903E+00
          1   -1    0    0    0  501  0.00000000000E+00  0.00000000000E+00  0.14615237066E+02  0.14615237935E+02  0.50400000000E-02 0. -1.
         -1   -1    0    0  501    0 -0.00000000000E+00 -0.00000000000E+00 -0.53446020612E+02  0.53446020850E+02  0.50400000000E-02 0. -1.
          2    1    1    2    0  502 -0.22787920751E+02 -0.29466445162E+01 -0.38788618445E+02  0.45083577647E+02  0.25500000000E-02 0. -1.
         -2    1    1    2  502    0  0.22787920751E+02  0.29466445162E+01 -0.42165100956E-01  0.22977681138E+02  0.25500000000E-02 0. -1.
<mgrwt>
<rscale>  0 0.55897274E+02</rscale>
<asrwt>0</asrwt>
<pdfrwt beam="1">  1        1 0.22484981E-02 0.55897274E+02</pdfrwt>
<pdfrwt beam="2">  1       -1 0.82224647E-02 0.55897274E+02</pdfrwt>
<totfact> 0.30798370E+05</totfact>
</mgrwt>
</event>
<event>
 4    1  0.3883670E-002  0.1112893E+03  0.7818608E-02  0.1258201E+00
          1   -1    0    0    0  501  0.00000000000E+00  0.00000000000E+00  0.49115519270E+02  0.49115519528E+02  0.50400000000E-02 0. -1.
         -1   -1    0    0  501    0 -0.00000000000E+00 -0.00000000000E+00 -0.63041780668E+02  0.63041780869E+02  0.50400000000E-02 0. -1.
          2    1    1    2    0  502  0.50985211762E+02  0.17240825513E+02 -0.21201014118E+02  0.57846528755E+02  0.25500000000E-02 0.  1.
         -2    1    1    2  502    0 -0.50985211762E+02 -0.17240825513E+02  0.72747527203E+01  0.54310771643E+02  0.25500000000E-02 0.  1.
<mgrwt>
<rscale>  0 0.11128935E+03</rscale>
<asrwt>0</asrwt>
<pdfrwt beam="1">  1        1 0.75562337E-02 0.11128935E+03</pdfrwt>
<pdfrwt beam="2">  1       -1 0.96987355E-02 0.11128935E+03</pdfrwt>
<totfact> 0.53031402E+04</totfact>
</mgrwt>
</event>
<event>
 4    1  0.3883670E-002  0.4605660E+02  0.7818608E-02  0.1467851E+00
          1   -1    0    0    0  501  0.00000000000E+00  0.00000000000E+00  0.45574301597E+02  0.45574301876E+02  0.50400000000E-02 0. -1.
         -1   -1    0    0  501    0 -0.00000000000E+00 -0.00000000000E+00 -0.11635999171E+02  0.11636000262E+02  0.50400000000E-02 0. -1.
          2    1    1    2    0  502  0.20112845586E+02  0.10931361710E+02  0.20082362480E+02  0.30451970637E+02  0.25500000000E-02 0.  1.
         -2    1    1    2  502    0 -0.20112845586E+02 -0.10931361710E+02  0.13855939946E+02  0.26758331500E+02  0.25500000000E-02 0.  1.
<mgrwt>
<rscale>  0 0.46056599E+02</rscale>
<asrwt>0</asrwt>
<pdfrwt beam="1">  1        1 0.70114311E-02 0.46056599E+02</pdfrwt>
<pdfrwt beam="2">  1       -1 0.17901538E-02 0.46056599E+02</pdfrwt>
<totfact> 0.56942818E+05</totfact>
</mgrwt>
</event>
<event>
 4    1  0.3883670E-002  0.6711343E+02  0.7818608E-02  0.1370193E+00
         -1   -1    0    0  501    0 -0.00000000000E+00  0.00000000000E+00  0.71370983591E+01  0.71371001386E+01  0.50400000000E-02 0.  1.
          1   -1    0    0    0  501  0.00000000000E+00 -0.00000000000E+00 -0.15777462631E+03  0.15777462639E+03  0.50400000000E-02 0.  1.
          2    1    1    2    0  502 -0.15307765806E+02 -0.28891974208E+02 -0.93866916947E+02  0.99398551152E+02  0.25500000000E-02 0. -1.
         -2    1    1    2  502    0  0.15307765806E+02  0.28891974208E+02 -0.56770611001E+02  0.65513175374E+02  0.25500000000E-02 0. -1.
<mgrwt>
<rscale>  0 0.67113432E+02</rscale>
<asrwt>0</asrwt>
<pdfrwt beam="2">  1        1 0.24273017E-01 0.67113432E+02</pdfrwt>
<pdfrwt beam="1">  1       -1 0.10980154E-02 0.67113432E+02</pdfrwt>
<totfact> 0.25463343E+05</totfact>
</mgrwt>
</event>
<event>
 4    1  0.3883670E-002  0.4182093E+02  0.7818608E-02  0.1495223E+00
          1   -1    0    0    0  501  0.00000000000E+00  0.00000000000E+00  0.12840303419E+01  0.12840402332E+01  0.50400000000E-02 0. -1.
         -1   -1    0    0  501    0 -0.00000000000E+00 -0.00000000000E+00 -0.34052611901E+03  0.34052611904E+03  0.50400000000E-02 0. -1.
          2    1    1    2    0  502  0.11964474872E+01 -0.20093384654E+02 -0.12333457425E+03  0.12496636670E+03  0.25500000000E-02 0. -1.
         -2    1    1    2  502    0 -0.11964474872E+01  0.20093384654E+02 -0.21590751442E+03  0.21684379258E+03  0.25500000000E-02 0. -1.
<mgrwt>
<rscale>  0 0.41820931E+02</rscale>
<asrwt>0</asrwt>
<pdfrwt beam="1">  1        1 0.19754417E-03 0.41820931E+02</pdfrwt>
<pdfrwt beam="2">  1       -1 0.52388562E-01 0.41820931E+02</pdfrwt>
<totfact> 0.41266607E+05</totfact>
</mgrwt>
</event>
<event>
 4    1  0.3883670E-002  0.4034969E+02  0.7818608E-02  0.1505654E+00
          1   -1    0    0    0  501  0.00000000000E+00  0.00000000000E+00  0.46743580140E+03  0.46743580143E+03  0.50400000000E-02 0. -1.
         -1   -1    0    0  501    0 -0.00000000000E+00 -0.00000000000E+00 -0.87075275936E+00  0.87076734524E+00  0.50400000000E-02 0. -1.
          2    1    1    2    0  502  0.17894654679E+02 -0.92987204863E+01  0.24004566608E+03  0.24089127564E+03  0.25500000000E-02 0. -1.
         -2    1    1    2  502    0 -0.17894654679E+02  0.92987204863E+01  0.22651938256E+03  0.22741529313E+03  0.25500000000E-02 0. -1.
<mgrwt>
<rscale>  0 0.40349693E+02</rscale>
<asrwt>0</asrwt>
<pdfrwt beam="1">  1        1 0.71913072E-01 0.40349693E+02</pdfrwt>
<pdfrwt beam="2">  1       -1 0.13396333E-03 0.40349693E+02</pdfrwt>
<totfact> 0.10938162E+06</totfact>
</mgrwt>
</event>
<event>
 4    1  0.3883670E-002  0.6026757E+02  0.7818608E-02  0.1396712E+00
         -1   -1    0    0  501    0 -0.00000000000E+00  0.00000000000E+00  0.18842866800E+01  0.18842934204E+01  0.50400000000E-02 0.  1.
          1   -1    0    0    0  501  0.00000000000E+00 -0.00000000000E+00 -0.48190299652E+03  0.48190299655E+03  0.50400000000E-02 0.  1.
          2    1    1    2    0  502  0.96491081794E+01  0.21649516440E+02 -0.90641122714E+02  0.93688953373E+02  0.25500000000E-02 0.  1.
         -2    1    1    2  502    0 -0.96491081794E+01 -0.21649516440E+02 -0.38937758713E+03  0.39009833659E+03  0.25500000000E-02 0.  1.
<mgrwt>
<rscale>  0 0.60267571E+02</rscale>
<asrwt>0</asrwt>
<pdfrwt beam="2">  1        1 0.74138825E-01 0.60267571E+02</pdfrwt>
<pdfrwt beam="1">  1       -1 0.28989116E-03 0.60267571E+02</pdfrwt>
<totfact> 0.40595849E+05</totfact>
</mgrwt>
</event>
<event>
 4    1  0.3883670E-002  0.6075533E+02  0.7818608E-02  0.1394689E+00
          1   -1    0    0    0  501  0.00000000000E+00  0.00000000000E+00  0.20282374523E+04  0.20282374524E+04  0.50400000000E-02 0.  1.
         -1   -1    0    0  501    0 -0.00000000000E+00 -0.00000000000E+00 -0.45496362624E+00  0.45499154146E+00  0.50400000000E-02 0.  1.
          2    1    1    2    0  502  0.18196961429E+02 -0.14053794181E+02  0.16768252811E+04  0.16769829045E+04  0.25500000000E-02 0. -1.
         -2    1    1    2  502    0 -0.18196961429E+02  0.14053794181E+02  0.35095720762E+03  0.35170953942E+03  0.25500000000E-02 0. -1.
<mgrwt>
<rscale>  0 0.60755332E+02</rscale>
<asrwt>0</asrwt>
<pdfrwt beam="1">  1        1 0.31203940E+00 0.60755332E+02</pdfrwt>
<pdfrwt beam="2">  1       -1 0.69995909E-04 0.60755332E+02</pdfrwt>
<totfact> 0.22492465E+05</totfact>
</mgrwt>
</event>
<event>
 4    1  0.3883670E-002  0.8100870E+02  0.7818608E-02  0.1326213E+00
          1   -1    0    0    0  501  0.00000000000E+00  0.00000000000E+00  0.10428562723E+04  0.10428562723E+04  0.50400000000E-02 0. -1.
         -1   -1    0    0  501    0 -0.00000000000E+00 -0.00000000000E+00 -0.15731775538E+01  0.15731856271E+01  0.50400000000E-02 0. -1.
          2    1    1    2    0  502  0.27069662426E+02  0.30127803279E+02  0.52565386361E+03  0.52721194551E+03  0.25500000000E-02 0. -1.
         -2    1    1    2  502    0 -0.27069662426E+02 -0.30127803279E+02  0.51562923112E+03  0.51721751242E+03  0.25500000000E-02 0. -1.
<mgrwt>
<rscale>  0 0.81008698E+02</rscale>
<asrwt>0</asrwt>
<pdfrwt beam="1">  1        1 0.16043957E+00 0.81008698E+02</pdfrwt>
<pdfrwt beam="2">  1       -1 0.24202773E-03 0.81008698E+02</pdfrwt>
<totfact> 0.18338185E+05</totfact>
</mgrwt>
</event>
<event>
 4    1  0.3883670E-002  0.1035444E+03  0.7818608E-02  0.1273014E+00
          1   -1    0    0    0  501  0.00000000000E+00  0.00000000000E+00  0.18165596900E+03  0.18165596907E+03  0.50400000000E-02 0.  1.
         -1   -1    0    0  501    0 -0.00000000000E+00 -0.00000000000E+00 -0.14755160600E+02  0.14755161461E+02  0.50400000000E-02 0.  1.
          2    1    1    2    0  502  0.35762353028E+02  0.35521763151E+02  0.10586420365E+03  0.11725174273E+03  0.25500000000E-02 0. -1.
         -2    1    1    2  502    0 -0.35762353028E+02 -0.35521763151E+02  0.61036604746E+02  0.79159387800E+02  0.25500000000E-02 0. -1.
<mgrwt>
<rscale>  0 0.10354445E+03</rscale>
<asrwt>0</asrwt>
<pdfrwt beam="1">  1        1 0.27947072E-01 0.10354445E+03</pdfrwt>
<pdfrwt beam="2">  1       -1 0.22700248E-02 0.10354445E+03</pdfrwt>
<totfact> 0.82365358E+04</totfact>
</mgrwt>
</event>
<event>
 4    1  0.3883670E-002  0.4295211E+02  0.7818608E-02  0.1487547E+00
         -1   -1    0    0  501    0 -0.00000000000E+00  0.00000000000E+00  0.44407010476E+01  0.44407039077E+01  0.50400000000E-02 0.  1.
          1   -1    0    0    0  501  0.00000000000E+00 -0.00000000000E+00 -0.10386213893E+03  0.10386213905E+03  0.50400000000E-02 0.  1.
          2    1    1    2    0  502  0.19611967469E+02  0.87447407888E+01 -0.48833241674E+02  0.53345901983E+02  0.25500000000E-02 0.  1.
         -2    1    1    2  502    0 -0.19611967469E+02 -0.87447407888E+01 -0.50588196210E+02  0.54956940978E+02  0.25500000000E-02 0.  1.
<mgrwt>
<rscale>  0 0.42952107E+02</rscale>
<asrwt>0</asrwt>
<pdfrwt beam="2">  1        1 0.15978789E-01 0.42952107E+02</pdfrwt>
<pdfrwt beam="1">  1       -1 0.68318509E-03 0.42952107E+02</pdfrwt>
<totfact> 0.74194697E+05</totfact>
</mgrwt>
</event>
<event>
 4    1  0.3883670E-002  0.4881359E+02  0.7818608E-02  0.1451848E+00
         -1   -1    0    0  501    0 -0.00000000000E+00  0.00000000000E+00  0.27212202276E+03  0.27212202281E+03  0.50400000000E-02 0. -1.
          1   -1    0    0    0  501  0.00000000000E+00 -0.00000000000E+00 -0.21890580675E+01  0.21890638695E+01  0.50400000000E-02 0. -1.
          2    1    1    2    0  502 -0.65064304925E+00 -0.21481621247E+02  0.19997108990E+03  0.20112264962E+03  0.25500000000E-02 0. -1.
         -2    1    1    2  502    0  0.65064304925E+00  0.21481621247E+02  0.69961874794E+02  0.73188437058E+02  0.25500000000E-02 0. -1.
<mgrwt>
<rscale>  0 0.48813593E+02</rscale>
<asrwt>0</asrwt>
<pdfrwt beam="2">  1        1 0.33677869E-03 0.48813593E+02</pdfrwt>
<pdfrwt beam="1">  1       -1 0.41864918E-01 0.48813593E+02</pdfrwt>
<totfact> 0.30870743E+05</totfact>
</mgrwt>
</event>
<event>
 4    1  0.3883670E-002  0.4955332E+02  0.7818608E-02  0.1447766E+00
         -1   -1    0    0  501    0 -0.00000000000E+00  0.00000000000E+00  0.95288299480E+01  0.95288312808E+01  0.50400000000E-02 0. -1.
          1   -1    0    0    0  501  0.00000000000E+00 -0.00000000000E+00 -0.64423723394E+02  0.64423723591E+02  0.50400000000E-02 0. -1.
          2    1    1    2    0  502  0.89283141392E+00  0.22238464170E+02 -0.11199211983E+02  0.24915232131E+02  0.25500000000E-02 0.  1.
         -2    1    1    2  502    0 -0.89283141392E+00 -0.22238464170E+02 -0.43695681463E+02  0.49037322741E+02  0.25500000000E-02 0.  1.
<mgrwt>
<rscale>  0 0.49553315E+02</rscale>
<asrwt>0</asrwt>
<pdfrwt beam="2">  1        1 0.99113419E-02 0.49553315E+02</pdfrwt>
<pdfrwt beam="1">  1       -1 0.14659740E-02 0.49553315E+02</pdfrwt>
<totfact> 0.48974972E+05</totfact>
</mgrwt>
</event>
<event>
 4    1  0.3883670E-002  0.9433523E+02  0.7818608E-02  0.1292680E+00
          1   -1    0    0    0  501  0.00000000000E+00  0.00000000000E+00  0.74718998028E+02  0.74718998198E+02  0.50400000000E-02 0.  1.
         -1   -1    0    0  501    0 -0.00000000000E+00 -0.00000000000E+00 -0.29775344650E+02  0.29775345077E+02  0.50400000000E-02 0.  1.
          2    1    1    2    0  502 -0.12767984502E+02  0.38709519220E+02  0.48762546487E+02  0.63554970324E+02  0.25500000000E-02 0.  1.
         -2    1    1    2  502    0  0.12767984502E+02 -0.38709519220E+02 -0.38188931097E+01  0.40939372951E+02  0.25500000000E-02 0.  1.
<mgrwt>
<rscale>  0 0.94335231E+02</rscale>
<asrwt>0</asrwt>
<pdfrwt beam="1">  1        1 0.11495230E-01 0.94335231E+02</pdfrwt>
<pdfrwt beam="2">  1       -1 0.45808224E-02 0.94335231E+02</pdfrwt>
<totfact> 0.90727741E+04</totfact>
</mgrwt>
</event>
<event>
 4    1  0.3883670E-002  0.6907609E+02  0.7818608E-02  0.1363263E+00
          1   -1    0    0    0  501  0.00000000000E+00  0.00000000000E+00  0.35889406398E+03  0.35889406401E+03  0.50400000000E-02 0.  1.
         -1   -1    0    0  501    0 -0.00000000000E+00 -0.00000000000E+00 -0.33237544676E+01  0.33237582888E+01  0.50400000000E-02 0.  1.
          2    1    1    2    0  502  0.20726136750E+02 -0.92921078754E+01  0.31421950556E+03  0.31503938435E+03  0.25500000000E-02 0.  1.
         -2    1    1    2  502    0 -0.20726136750E+02  0.92921078754E+01  0.41350803948E+02  0.47178437946E+02  0.25500000000E-02 0.  1.
<mgrwt>
<rscale>  0 0.69076087E+02</rscale>
<asrwt>0</asrwt>
<pdfrwt beam="1">  1        1 0.55214485E-01 0.69076087E+02</pdfrwt>
<pdfrwt beam="2">  1       -1 0.51134701E-03 0.69076087E+02</pdfrwt>
<totfact> 0.27405535E+05</totfact>
</mgrwt>
</event>
<event>
 4    1  0.3883670E-002  0.4140964E+02  0.7818608E-02  0.1498087E+00
         -1   -1    0    0  501    0 -0.00000000000E+00  0.00000000000E+00  0.33719935308E+02  0.33719935684E+02  0.50400000000E-02 0.  1.
          1   -1    0    0    0  501  0.00000000000E+00 -0.00000000000E+00 -0.12713238682E+02  0.12713239681E+02  0.50400000000E-02 0.  1.
          2    1    1    2    0  502 -0.19341901103E+02 -0.70836311613E+01  0.81505558264E+01  0.22152167738E+02  0.25500000000E-02 0.  1.
         -2    1    1    2  502    0  0.19341901103E+02  0.70836311613E+01  0.12856140799E+02  0.24281007628E+02  0.25500000000E-02 0.  1.
<mgrwt>
<rscale>  0 0.41409642E+02</rscale>
<asrwt>0</asrwt>
<pdfrwt beam="2">  1        1 0.19558830E-02 0.41409642E+02</pdfrwt>
<pdfrwt beam="1">  1       -1 0.51876824E-02 0.41409642E+02</pdfrwt>
<totfact> 0.67196012E+05</totfact>
</mgrwt>
</event>
<event>
 4    1  0.3883670E-002  0.4218361E+02  0.7818608E-02  0.1492731E+00
         -1   -1    0    0  501    0 -0.00000000000E+00  0.00000000000E+00  0.14925615950E+01  0.14925701043E+01  0.50400000000E-02 0.  1.
          1   -1    0    0    0  501  0.00000000000E+00 -0.00000000000E+00 -0.29805335484E+03  0.29805335488E+03  0.50400000000E-02 0.  1.
          2    1    1    2    0  502  0.16562384931E+02  0.11967811616E+02 -0.11116235249E+03  0.11302481907E+03  0.25500000000E-02 0. -1.
         -2    1    1    2  502    0 -0.16562384931E+02 -0.11967811616E+02 -0.18539844076E+03  0.18652110592E+03  0.25500000000E-02 0. -1.
<mgrwt>
<rscale>  0 0.42183612E+02</rscale>
<asrwt>0</asrwt>
<pdfrwt beam="2">  1        1 0.45854315E-01 0.42183612E+02</pdfrwt>
<pdfrwt beam="1">  1       -1 0.22962576E-03 0.42183612E+02</pdfrwt>
<totfact> 0.91720065E+05</totfact>
</mgrwt>
</event>
<event>
 4    1  0.3883670E-002  0.4392583E+02  0.7818608E-02  0.1481161E+00
          1   -1    0    0    0  501  0.00000000000E+00  0.00000000000E+00  0.38577490027E+03  0.38577490030E+03  0.50400000000E-02 0.  1.
         -1   -1    0    0  501    0 -0.00000000000E+00 -0.00000000000E+00 -0.12503865435E+01  0.12503967010E+01  0.50400000000E-02 0.  1.
          2    1    1    2    0  502 -0.65122939700E+01  0.19690481643E+02  0.25594772313E+03  0.25678660795E+03  0.25500000000E-02 0.  1.
         -2    1    1    2  502    0  0.65122939700E+01 -0.19690481643E+02  0.12857679059E+03  0.13023868905E+03  0.25500000000E-02 0.  1.
<mgrwt>
<rscale>  0 0.43925834E+02</rscale>
<asrwt>0</asrwt>
<pdfrwt beam="1">  1        1 0.59350024E-01 0.43925834E+02</pdfrwt>
<pdfrwt beam="2">  1       -1 0.19236782E-03 0.43925834E+02</pdfrwt>
<totfact> 0.86637781E+05</totfact>
</mgrwt>
</event>
<event>
 4    1  0.3883670E-002  0.6520391E+02  0.7818608E-02  0.1377206E+00
         -1   -1    0    0  501    0 -0.00000000000E+00  0.00000000000E+00  0.25660408710E+03  0.25660408715E+03  0.50400000000E-02 0.  1.
          1   -1    0    0    0  501  0.00000000000E+00 -0.00000000000E+00 -0.41421289010E+01  0.41421319672E+01  0.50400000000E-02 0.  1.
          2    1    1    2    0  502  0.31825104515E+02  0.62560188497E+01  0.13944112423E+03  0.14316355046E+03  0.25500000000E-02 0.  1.
         -2    1    1    2  502    0 -0.31825104515E+02 -0.62560188497E+01  0.11302083397E+03  0.11758266865E+03  0.25500000000E-02 0.  1.
<mgrwt>
<rscale>  0 0.65203914E+02</rscale>
<asrwt>0</asrwt>
<pdfrwt beam="2">  1        1 0.63725077E-03 0.65203914E+02</pdfrwt>
<pdfrwt beam="1">  1       -1 0.39477556E-01 0.65203914E+02</pdfrwt>
<totfact> 0.15240895E+05</totfact>
</mgrwt>
</event>
<event>
 4    1  0.3883670E-002  0.4434753E+02  0.7818608E-02  0.1478456E+00
          1   -1    0    0    0  501  0.00000000000E+00  0.00000000000E+00  0.14117334462E+04  0.14117334462E+04  0.50400000000E-02 0.  1.
         -1   -1    0    0  501    0 -0.00000000000E+00 -0.00000000000E+00 -0.34825989708E+00  0.34829636449E+00  0.50400000000E-02 0.  1.
          2    1    1    2    0  502  0.57121559768E+00  0.20068310648E+02  0.10054279031E+04  0.10056283268E+04  0.25500000000E-02 0.  1.
         -2    1    1    2  502    0 -0.57121559768E+00 -0.20068310648E+02  0.40595728321E+03  0.40645341575E+03  0.25500000000E-02 0.  1.
<mgrwt>
<rscale>  0 0.44347532E+02</rscale>
<asrwt>0</asrwt>
<pdfrwt beam="1">  1        1 0.21719277E+00 0.44347532E+02</pdfrwt>
<pdfrwt beam="2">  1       -1 0.53580510E-04 0.44347532E+02</pdfrwt>
<totfact> 0.72921342E+05</totfact>
</mgrwt>
</event>
<event>
 4    1  0.3883670E-002  0.7158171E+02  0.7818608E-02  0.1354796E+00
         -1   -1    0    0  501    0 -0.00000000000E+00  0.00000000000E+00  0.11904774625E+02  0.11904775691E+02  0.50400000000E-02 0. -1.
          1   -1    0    0    0  501  0.00000000000E+00 -0.00000000000E+00 -0.10760263317E+03  0.10760263329E+03  0.50400000000E-02 0. -1.
          2    1    1    2    0  502 -0.32430883368E+02 -0.79941411415E+01 -0.26382929914E+02  0.42564392231E+02  0.25500000000E-02 0.  1.
         -2    1    1    2  502    0  0.32430883368E+02  0.79941411415E+01 -0.69314928631E+02  0.76943016748E+02  0.25500000000E-02 0.  1.
<mgrwt>
<rscale>  0 0.71581706E+02</rscale>
<asrwt>0</asrwt>
<pdfrwt beam="2">  1        1 0.16554251E-01 0.71581706E+02</pdfrwt>
<pdfrwt beam="1">  1       -1 0.18315039E-02 0.71581706E+02</pdfrwt>
<totfact> 0.20213111E+05</totfact>
</mgrwt>
</event>
<event>
 4    1  0.3883670E-002  0.4225752E+02  0.7818608E-02  0.1492227E+00
         -1   -1    0    0  501    0 -0.00000000000E+00  0.00000000000E+00  0.36068790534E+03  0.36068790537E+03  0.50400000000E-02 0. -1.
          1   -1    0    0    0  501  0.00000000000E+00 -0.00000000000E+00 -0.12376976200E+01  0.12377078816E+01  0.50400000000E-02 0. -1.
          2    1    1    2    0  502 -0.19144073462E+02 -0.86576046411E+01  0.19882808142E+03  0.19993512857E+03  0.25500000000E-02 0.  1.
         -2    1    1    2  502    0  0.19144073462E+02  0.86576046411E+01  0.16062212629E+03  0.16199048469E+03  0.25500000000E-02 0.  1.
<mgrwt>
<rscale>  0 0.42257517E+02</rscale>
<asrwt>0</asrwt>
<pdfrwt beam="2">  1        1 0.19041559E-03 0.42257517E+02</pdfrwt>
<pdfrwt beam="1">  1       -1 0.55490512E-01 0.42257517E+02</pdfrwt>
<totfact> 0.39220362E+05</totfact>
</mgrwt>
</event>
<event>
 4    1  0.3883670E-002  0.4755728E+02  0.7818608E-02  0.1458981E+00
         -1   -1    0    0  501    0 -0.00000000000E+00  0.00000000000E+00  0.32434479615E+01  0.32434518773E+01  0.50400000000E-02 0.  1.
          1   -1    0    0    0  501  0.00000000000E+00 -0.00000000000E+00 -0.17432784016E+03  0.17432784023E+03  0.50400000000E-02 0.  1.
          2    1    1    2    0  502 -0.10275035376E+02 -0.21319801642E+02 -0.76935445220E+02  0.80493310478E+02  0.25500000000E-02 0.  1.
         -2    1    1    2  502    0  0.10275035376E+02  0.21319801642E+02 -0.94148946974E+02  0.97077981628E+02  0.25500000000E-02 0.  1.
<mgrwt>
<rscale>  0 0.47557276E+02</rscale>
<asrwt>0</asrwt>
<pdfrwt beam="2">  1        1 0.26819661E-01 0.47557276E+02</pdfrwt>
<pdfrwt beam="1">  1       -1 0.49899244E-03 0.47557276E+02</pdfrwt>
<totfact> 0.62229567E+05</totfact>
</mgrwt>
</event>
<event>
 4    1  0.3883670E-002  0.4355174E+02  0.7818608E-02  0.1483591E+00
         -1   -1    0    0  501    0 -0.00000000000E+00  0.00000000000E+00  0.40532048593E+02  0.40532048907E+02  0.50400000000E-02 0.  1.
          1   -1    0    0    0  501  0.00000000000E+00 -0.00000000000E+00 -0.11699101386E+02  0.11699102472E+02  0.50400000000E-02 0.  1.
          2    1    1    2    0  502  0.14619736866E+00 -0.21623307271E+02  0.17497454096E+02  0.27816356651E+02  0.25500000000E-02 0.  1.
         -2    1    1    2  502    0 -0.14619736866E+00  0.21623307271E+02  0.11335493111E+02  0.24414794728E+02  0.25500000000E-02 0.  1.
<mgrwt>
<rscale>  0 0.43551743E+02</rscale>
<asrwt>0</asrwt>
<pdfrwt beam="2">  1        1 0.17998618E-02 0.43551743E+02</pdfrwt>
<pdfrwt beam="1">  1       -1 0.62357000E-02 0.43551743E+02</pdfrwt>
<totfact> 0.58500909E+05</totfact>
</mgrwt>
</event>
<event>
 4    1  0.3883670E-002  0.5737220E+02  0.7818608E-02  0.1409202E+00
          1   -1    0    0    0  501  0.00000000000E+00  0.00000000000E+00  0.36511428491E+02  0.36511428839E+02  0.50400000000E-02 0. -1.
         -1   -1    0    0  501    0 -0.00000000000E+00 -0.00000000000E+00 -0.22537938344E+02  0.22537938908E+02  0.50400000000E-02 0. -1.
          2    1    1    2    0  502 -0.18985183374E+02 -0.21471296032E+02  0.82212257834E+01  0.29816812387E+02  0.25500000000E-02 0.  1.
         -2    1    1    2  502    0  0.18985183374E+02  0.21471296032E+02  0.57522643633E+01  0.29232555360E+02  0.25500000000E-02 0.  1.
<mgrwt>
<rscale>  0 0.57372201E+02</rscale>
<asrwt>0</asrwt>
<pdfrwt beam="1">  1        1 0.56171429E-02 0.57372201E+02</pdfrwt>
<pdfrwt beam="2">  1       -1 0.34673752E-02 0.57372201E+02</pdfrwt>
<totfact> 0.31646015E+05</totfact>
</mgrwt>
</event>
<event>
 4    1  0.3883670E-002  0.5885597E+02  0.7818608E-02  0.1402696E+00
         -1   -1    0    0  501    0 -0.00000000000E+00  0.00000000000E+00  0.40619480303E+01  0.40619511571E+01  0.50400000000E-02 0. -1.
          1   -1    0    0    0  501  0.00000000000E+00 -0.00000000000E+00 -0.21319965005E+03  0.21319965011E+03  0.50400000000E-02 0. -1.
          2    1    1    2    0  502 -0.28869489251E+02  0.56950769113E+01 -0.10587358400E+03  0.10988674672E+03  0.25500000000E-02 0. -1.
         -2    1    1    2  502    0  0.28869489251E+02 -0.56950769113E+01 -0.10326411802E+03  0.10737485454E+03  0.25500000000E-02 0. -1.
<mgrwt>
<rscale>  0 0.58855968E+02</rscale>
<asrwt>0</asrwt>
<pdfrwt beam="2">  1        1 0.32799938E-01 0.58855968E+02</pdfrwt>
<pdfrwt beam="1">  1       -1 0.62491549E-03 0.58855968E+02</pdfrwt>
<totfact> 0.37642897E+05</totfact>
</mgrwt>
</event>
<event>
 4    1  0.3883670E-002  0.5939240E+02  0.7818608E-02  0.1400399E+00
          1   -1    0    0    0  501  0.00000000000E+00  0.00000000000E+00  0.95828711656E+01  0.95828724910E+01  0.50400000000E-02 0.  1.
         -1   -1    0    0  501    0 -0.00000000000E+00 -0.00000000000E+00 -0.92025047579E+02  0.92025047717E+02  0.50400000000E-02 0.  1.
          2    1    1    2    0  502 -0.24116524457E+02  0.17090160847E+02 -0.46115231418E+02  0.54774947968E+02  0.25500000000E-02 0. -1.
         -2    1    1    2  502    0  0.24116524457E+02 -0.17090160847E+02 -0.36326944995E+02  0.46832972240E+02  0.25500000000E-02 0. -1.
<mgrwt>
<rscale>  0 0.59392398E+02</rscale>
<asrwt>0</asrwt>
<pdfrwt beam="1">  1        1 0.14742880E-02 0.59392398E+02</pdfrwt>
<pdfrwt beam="2">  1       -1 0.14157699E-01 0.59392398E+02</pdfrwt>
<totfact> 0.24570192E+05</totfact>
</mgrwt>
</event>
<event>
 4    1  0.3883670E-002  0.4155968E+02  0.7818608E-02  0.1497038E+00
          1   -1    0    0    0  501  0.00000000000E+00  0.00000000000E+00  0.11077189709E+04  0.11077189709E+04  0.50400000000E-02 0.  1.
         -1   -1    0    0  501    0 -0.00000000000E+00 -0.00000000000E+00 -0.38979537823E+00  0.38982796012E+00  0.50400000000E-02 0.  1.
          2    1    1    2    0  502  0.13395726700E+02  0.15538851764E+02  0.64169464624E+03  0.64202252330E+03  0.25500000000E-02 0. -1.
         -2    1    1    2  502    0 -0.13395726700E+02 -0.15538851764E+02  0.46563452924E+03  0.46608627553E+03  0.25500000000E-02 0. -1.
<mgrwt>
<rscale>  0 0.41559682E+02</rscale>
<asrwt>0</asrwt>
<pdfrwt beam="1">  1        1 0.17041971E+00 0.41559682E+02</pdfrwt>
<pdfrwt beam="2">  1       -1 0.59970532E-04 0.41559682E+02</pdfrwt>
<totfact> 0.96838276E+05</totfact>
</mgrwt>
</event>
<event>
 4    1  0.3883670E-002  0.9762058E+02  0.7818608E-02  0.1285381E+00
         -1   -1    0    0  501    0 -0.00000000000E+00  0.00000000000E+00  0.26630033557E+01  0.26630081251E+01  0.50400000000E-02 0. -1.
          1   -1    0    0    0  501  0.00000000000E+00 -0.00000000000E+00 -0.89464489645E+03  0.89464489646E+03  0.50400000000E-02 0. -1.
          2    1    1    2    0  502 -0.26131040194E+02  0.41141292934E+02 -0.47032273709E+03  0.47284132040E+03  0.25500000000E-02 0.  1.
         -2    1    1    2  502    0  0.26131040194E+02 -0.41141292934E+02 -0.42165915600E+03  0.42446658419E+03  0.25500000000E-02 0.  1.
<mgrwt>
<rscale>  0 0.97620582E+02</rscale>
<asrwt>0</asrwt>
<pdfrwt beam="2">  1        1 0.13763744E+00 0.97620582E+02</pdfrwt>
<pdfrwt beam="1">  1       -1 0.40969391E-03 0.97620582E+02</pdfrwt>
<totfact> 0.11623990E+05</totfact>
</mgrwt>
</event>
<event>
 4    1  0.3883670E-002  0.4281211E+02  0.7818608E-02  0.1488481E+00
          1   -1    0    0    0  501  0.00000000000E+00  0.00000000000E+00  0.33079712938E+01  0.33079751333E+01  0.50400000000E-02 0.  1.
         -1   -1    0    0  501    0 -0.00000000000E+00 -0.00000000000E+00 -0.13851963160E+03  0.13851963170E+03  0.50400000000E-02 0.  1.
          2    1    1    2    0  502 -0.10532155343E+02 -0.18011641994E+02 -0.51761923749E+02  0.55808980461E+02  0.25500000000E-02 0. -1.
         -2    1    1    2  502    0  0.10532155343E+02  0.18011641994E+02 -0.83449736562E+02  0.86018626368E+02  0.25500000000E-02 0. -1.
<mgrwt>
<rscale>  0 0.42812112E+02</rscale>
<asrwt>0</asrwt>
<pdfrwt beam="1">  1        1 0.50891907E-03 0.42812112E+02</pdfrwt>
<pdfrwt beam="2">  1       -1 0.21310708E-01 0.42812112E+02</pdfrwt>
<totfact> 0.51288164E+05</totfact>
</mgrwt>
</event>
<event>
 4    1  0.3883670E-002  0.4926080E+02  0.7818608E-02  0.1449370E+00
          1   -1    0    0    0  501  0.00000000000E+00  0.00000000000E+00  0.76204697119E+01  0.76204713786E+01  0.50400000000E-02 0. -1.
         -1   -1    0    0  501    0 -0.00000000000E+00 -0.00000000000E+00 -0.79608799439E+02  0.79608799598E+02  0.50400000000E-02 0. -1.
          2    1    1    2    0  502 -0.24592044712E+02  0.87086837643E-01 -0.38422289715E+02  0.45618511601E+02  0.25500000000E-02 0. -1.
         -2    1    1    2  502    0  0.24592044712E+02 -0.87086837643E-01 -0.33566040012E+02  0.41610759376E+02  0.25500000000E-02 0. -1.
<mgrwt>
<rscale>  0 0.49260797E+02</rscale>
<asrwt>0</asrwt>
<pdfrwt beam="1">  1        1 0.11723802E-02 0.49260797E+02</pdfrwt>
<pdfrwt beam="2">  1       -1 0.12247507E-01 0.49260797E+02</pdfrwt>
<totfact> 0.39994649E+05</totfact>
</mgrwt>
</event>
<event>
 4    1  0.3883670E-002  0.7248567E+02  0.7818608E-02  0.1351839E+00
         -1   -1    0    0  501    0 -0.00000000000E+00  0.00000000000E+00  0.22523354045E+02  0.22523354608E+02  0.50400000000E-02 0.  1.
          1   -1    0    0    0  501  0.00000000000E+00 -0.00000000000E+00 -0.58319160943E+02  0.58319161161E+02  0.50400000000E-02 0.  1.
          2    1    1    2    0  502  0.36100341107E+01  0.36023290721E+02 -0.16020597734E+02  0.39590016152E+02  0.25500000000E-02 0. -1.
         -2    1    1    2  502    0 -0.36100341107E+01 -0.36023290721E+02 -0.19775209165E+02  0.41252499618E+02  0.25500000000E-02 0. -1.
<mgrwt>
<rscale>  0 0.72485671E+02</rscale>
<asrwt>0</asrwt>
<pdfrwt beam="2">  1        1 0.89721786E-02 0.72485671E+02</pdfrwt>
<pdfrwt beam="1">  1       -1 0.34651315E-02 0.72485671E+02</pdfrwt>
<totfact> 0.17945159E+05</totfact>
</mgrwt>
</event>
<event>
 4    1  0.3883670E-002  0.8084914E+02  0.7818608E-02  0.1326659E+00
         -1   -1    0    0  501    0 -0.00000000000E+00  0.00000000000E+00  0.12064448336E+02  0.12064449389E+02  0.50400000000E-02 0. -1.
          1   -1    0    0    0  501  0.00000000000E+00 -0.00000000000E+00 -0.13545134744E+03  0.13545134753E+03  0.50400000000E-02 0. -1.
          2    1    1    2    0  502  0.30595626006E+02 -0.10800009369E+02 -0.10568868190E+03  0.11055690852E+03  0.25500000000E-02 0.  1.
         -2    1    1    2  502    0 -0.30595626006E+02  0.10800009369E+02 -0.17698217196E+02  0.36958888397E+02  0.25500000000E-02 0.  1.
<mgrwt>
<rscale>  0 0.80849140E+02</rscale>
<asrwt>0</asrwt>
<pdfrwt beam="2">  1        1 0.20838668E-01 0.80849140E+02</pdfrwt>
<pdfrwt beam="1">  1       -1 0.18560692E-02 0.80849140E+02</pdfrwt>
<totfact> 0.15197415E+05</totfact>
</mgrwt>
</event>
<event>
 4    1  0.3883670E-002  0.4984270E+02  0.7818608E-02  0.1446192E+00
         -1   -1    0    0  501    0 -0.00000000000E+00  0.00000000000E+00  0.47363799884E+00  0.47366481350E+00  0.50400000000E-02 0. -1.
          1   -1    0    0    0  501  0.00000000000E+00 -0.00000000000E+00 -0.13112465126E+04  0.13112465126E+04  0.50400000000E-02 0. -1.
          2    1    1    2    0  502 -0.20125585413E+02 -0.12458371274E+02 -0.86063282388E+03  0.86095824972E+03  0.25500000000E-02 0.  1.
         -2    1    1    2  502    0  0.20125585413E+02  0.12458371274E+02 -0.45014005068E+03  0.45076192767E+03  0.25500000000E-02 0.  1.
<mgrwt>
<rscale>  0 0.49842703E+02</rscale>
<asrwt>0</asrwt>
<pdfrwt beam="2">  1        1 0.20172733E+00 0.49842703E+02</pdfrwt>
<pdfrwt beam="1">  1       -1 0.72870498E-04 0.49842703E+02</pdfrwt>
<totfact> 0.57243319E+05</totfact>
</mgrwt>
</event>
<event>
 4    1  0.3883670E-002  0.4673122E+02  0.7818608E-02  0.1463815E+00
         -1   -1    0    0  501    0 -0.00000000000E+00  0.00000000000E+00  0.33277850145E+01  0.33277888311E+01  0.50400000000E-02 0.  1.
          1   -1    0    0    0  501  0.00000000000E+00 -0.00000000000E+00 -0.16405851920E+03  0.16405851928E+03  0.50400000000E-02 0.  1.
          2    1    1    2    0  502 -0.17732859853E+02 -0.13155845966E+02 -0.10774313361E+03  0.10998233243E+03  0.25500000000E-02 0. -1.
         -2    1    1    2  502    0  0.17732859853E+02  0.13155845966E+02 -0.52987600579E+02  0.57403975675E+02  0.25500000000E-02 0. -1.
<mgrwt>
<rscale>  0 0.46731223E+02</rscale>
<asrwt>0</asrwt>
<pdfrwt beam="2">  1        1 0.25239766E-01 0.46731223E+02</pdfrwt>
<pdfrwt beam="1">  1       -1 0.51196735E-03 0.46731223E+02</pdfrwt>
<totfact> 0.64364146E+05</totfact>
</mgrwt>
</event>
<event>
 4    1  0.3883670E-002  0.4989472E+02  0.7818608E-02  0.1445910E+00
          1   -1    0    0    0  501  0.00000000000E+00  0.00000000000E+00  0.39834161101E+03  0.39834161104E+03  0.50400000000E-02 0. -1.
         -1   -1    0    0  501    0 -0.00000000000E+00 -0.00000000000E+00 -0.15624005933E+01  0.15624087223E+01  0.50400000000E-02 0. -1.
          2    1    1    2    0  502  0.13166323617E+02  0.18403990112E+02  0.28257025678E+03  0.28347488240E+03  0.25500000000E-02 0.  1.
         -2    1    1    2  502    0 -0.13166323617E+02 -0.18403990112E+02  0.11420895364E+03  0.11642913737E+03  0.25500000000E-02 0.  1.
<mgrwt>
<rscale>  0 0.49894721E+02</rscale>
<asrwt>0</asrwt>
<pdfrwt beam="1">  1        1 0.61283486E-01 0.49894721E+02</pdfrwt>
<pdfrwt beam="2">  1       -1 0.24036932E-03 0.49894721E+02</pdfrwt>
<totfact> 0.63572211E+05</totfact>
</mgrwt>
</event>
<event>
 4    1  0.3883670E-002  0.4585524E+02  0.7818608E-02  0.1469072E+00
          1   -1    0    0    0  501  0.00000000000E+00  0.00000000000E+00  0.44634608159E+01  0.44634636614E+01  0.50400000000E-02 0. -1.
         -1   -1    0    0  501    0 -0.00000000000E+00 -0.00000000000E+00 -0.11777310631E+03  0.11777310642E+03  0.50400000000E-02 0. -1.
          2    1    1    2    0  502 -0.59638612682E+01  0.19925369596E+02 -0.82374090343E+02  0.84959277075E+02  0.25500000000E-02 0. -1.
         -2    1    1    2  502    0  0.59638612682E+01 -0.19925369596E+02 -0.30935555155E+02  0.37277293008E+02  0.25500000000E-02 0. -1.
<mgrwt>
<rscale>  0 0.45855243E+02</rscale>
<asrwt>0</asrwt>
<pdfrwt beam="1">  1        1 0.68668660E-03 0.45855243E+02</pdfrwt>
<pdfrwt beam="2">  1       -1 0.18118937E-01 0.45855243E+02</pdfrwt>
<totfact> 0.44761059E+05</totfact>
</mgrwt>
</event>
<event>
 4    1  0.3883670E-002  0.4854183E+02  0.7818608E-02  0.1453369E+00
         -1   -1    0    0  501    0 -0.00000000000E+00  0.00000000000E+00  0.60098578583E+00  0.60100691874E+00  0.50400000000E-02 0. -1.
          1   -1    0    0    0  501  0.00000000000E+00 -0.00000000000E+00 -0.98016771033E+03  0.98016771034E+03  0.50400000000E-02 0. -1.
          2    1    1    2    0  502 -0.21605051757E+02 -0.55734839106E+01 -0.68277202703E+03  0.68313650385E+03  0.25500000000E-02 0. -1.
         -2    1    1    2  502    0  0.21605051757E+02  0.55734839106E+01 -0.29679469751E+03  0.29763221341E+03  0.25500000000E-02 0. -1.
<mgrwt>
<rscale>  0 0.48541827E+02</rscale>
<asrwt>0</asrwt>
<pdfrwt beam="2">  1        1 0.15079375E+00 0.48541827E+02</pdfrwt>
<pdfrwt beam="1">  1       -1 0.92461763E-04 0.48541827E+02</pdfrwt>
<totfact> 0.68641042E+05</totfact>
</mgrwt>
</event>
<event>
 4    1  0.3883670E-002  0.8342617E+02  0.7818608E-02  0.1319600E+00
          1   -1    0    0    0  501  0.00000000000E+00  0.00000000000E+00  0.16959116537E+04  0.16959116537E+04  0.50400000000E-02 0. -1.
         -1   -1    0    0  501    0 -0.00000000000E+00 -0.00000000000E+00 -0.10259797130E+01  0.10259920922E+01  0.50400000000E-02 0. -1.
          2    1    1    2    0  502  0.19453353144E+02  0.36418333296E+02  0.72667125991E+03  0.72784328529E+03  0.25500000000E-02 0. -1.
         -2    1    1    2  502    0 -0.19453353144E+02 -0.36418333296E+02  0.96821441406E+03  0.96909436050E+03  0.25500000000E-02 0. -1.
<mgrwt>
<rscale>  0 0.83426170E+02</rscale>
<asrwt>0</asrwt>
<pdfrwt beam="1">  1        1 0.26090834E+00 0.83426170E+02</pdfrwt>
<pdfrwt beam="2">  1       -1 0.15784468E-03 0.83426170E+02</pdfrwt>
<totfact> 0.12449012E+05</totfact>
</mgrwt>
</event>
<event>
 4    1  0.3883670E-002  0.4208914E+02  0.7818608E-02  0.1493377E+00
         -1   -1    0    0  501    0 -0.00000000000E+00  0.00000000000E+00  0.74149906088E+00  0.74151618923E+00  0.50400000000E-02 0.  1.
          1   -1    0    0    0  501  0.00000000000E+00 -0.00000000000E+00 -0.59726143038E+03  0.59726143041E+03  0.50400000000E-02 0.  1.
          2    1    1    2    0  502  0.20923819339E+02 -0.12187171026E+01 -0.27136804873E+03  0.27217624688E+03  0.25500000000E-02 0. -1.
         -2    1    1    2  502    0 -0.20923819339E+02  0.12187171026E+01 -0.32515188259E+03  0.32582669971E+03  0.25500000000E-02 0. -1.
<mgrwt>
<rscale>  0 0.42089140E+02</rscale>
<asrwt>0</asrwt>
<pdfrwt beam="2">  1        1 0.91885991E-01 0.42089140E+02</pdfrwt>
<pdfrwt beam="1">  1       -1 0.11407858E-03 0.42089140E+02</pdfrwt>
<totfact> 0.10092856E+06</totfact>
</mgrwt>
</event>
<event>
 4    1  0.3883670E-002  0.7767112E+02  0.7818608E-02  0.1335793E+00
         -1   -1    0    0  501    0 -0.00000000000E+00  0.00000000000E+00  0.61148055969E+01  0.61148076740E+01  0.50400000000E-02 0. -1.
          1   -1    0    0    0  501  0.00000000000E+00 -0.00000000000E+00 -0.24664733886E+03  0.24664733891E+03  0.50400000000E-02 0. -1.
          2    1    1    2    0  502 -0.19749538735E+02  0.33332192602E+02 -0.11158193157E+03  0.11811692006E+03  0.25500000000E-02 0. -1.
         -2    1    1    2  502    0  0.19749538735E+02 -0.33332192602E+02 -0.12895060169E+03  0.13464522652E+03  0.25500000000E-02 0. -1.
<mgrwt>
<rscale>  0 0.77671122E+02</rscale>
<asrwt>0</asrwt>
<pdfrwt beam="2">  1        1 0.37945737E-01 0.77671122E+02</pdfrwt>
<pdfrwt beam="1">  1       -1 0.94073968E-03 0.77671122E+02</pdfrwt>
<totfact> 0.18859697E+05</totfact>
</mgrwt>
</event>
<event>
 4    1  0.3883670E-002  0.5702011E+02  0.7818608E-02  0.1410780E+00
          1   -1    0    0    0  501  0.00000000000E+00  0.00000000000E+00  0.11861670032E+04  0.11861670032E+04  0.50400000000E-02 0.  1.
         -1   -1    0    0  501    0 -0.00000000000E+00 -0.00000000000E+00 -0.68524263103E+00  0.68526116552E+00  0.50400000000E-02 0.  1.
          2    1    1    2    0  502  0.31842957974E+01 -0.22358984893E+02  0.23056682812E+03  0.23167029628E+03  0.25500000000E-02 0.  1.
         -2    1    1    2  502    0 -0.31842957974E+01  0.22358984893E+02  0.95491493241E+03  0.95518196805E+03  0.25500000000E-02 0.  1.
<mgrwt>
<rscale>  0 0.57020109E+02</rscale>
<asrwt>0</asrwt>
<pdfrwt beam="1">  1        1 0.18248762E+00 0.57020109E+02</pdfrwt>
<pdfrwt beam="2">  1       -1 0.10542314E-03 0.57020109E+02</pdfrwt>
<totfact> 0.43033485E+05</totfact>
</mgrwt>
</event>
<event>
 4    1  0.3883670E-002  0.4156679E+02  0.7818608E-02  0.1496988E+00
          1   -1    0    0    0  501  0.00000000000E+00  0.00000000000E+00  0.13746649319E+04  0.13746649319E+04  0.50400000000E-02 0. -1.
         -1   -1    0    0  501    0 -0.00000000000E+00 -0.00000000000E+00 -0.31420138800E+00  0.31424180788E+00  0.50400000000E-02 0. -1.
          2    1    1    2    0  502 -0.84247478532E+01 -0.18513784058E+02  0.54600662954E+03  0.54638537324E+03  0.25500000000E-02 0.  1.
         -2    1    1    2  502    0  0.84247478532E+01  0.18513784058E+02  0.82834410096E+03  0.82859380047E+03  0.25500000000E-02 0.  1.
<mgrwt>
<rscale>  0 0.41566786E+02</rscale>
<asrwt>0</asrwt>
<pdfrwt beam="1">  1        1 0.21149563E+00 0.41566786E+02</pdfrwt>
<pdfrwt beam="2">  1       -1 0.48339794E-04 0.41566786E+02</pdfrwt>
<totfact> 0.86997710E+05</totfact>
</mgrwt>
</event>
<event>
 4    1  0.3883670E-002  0.5386096E+02  0.7818608E-02  0.1425564E+00
         -1   -1    0    0  501    0 -0.00000000000E+00  0.00000000000E+00  0.72321688518E+00  0.72323444650E+00  0.50400000000E-02 0. -1.
          1   -1    0    0    0  501  0.00000000000E+00 -0.00000000000E+00 -0.10028000979E+04  0.10028000979E+04  0.50400000000E-02 0. -1.
          2    1    1    2    0  502  0.13576874574E+02  0.22711649420E+02 -0.40769318574E+03  0.40855095674E+03  0.25500000000E-02 0.  1.
         -2    1    1    2  502    0 -0.13576874574E+02 -0.22711649420E+02 -0.59438369530E+03  0.59497237565E+03  0.25500000000E-02 0.  1.
<mgrwt>
<rscale>  0 0.53860961E+02</rscale>
<asrwt>0</asrwt>
<pdfrwt beam="2">  1        1 0.15427583E+00 0.53860961E+02</pdfrwt>
<pdfrwt beam="1">  1       -1 0.11126629E-03 0.53860961E+02</pdfrwt>
<totfact> 0.52688397E+05</totfact>
</mgrwt>
</event>
<event>
 4    1  0.3883670E-002  0.5810341E+02  0.7818608E-02  0.1405968E+00
         -1   -1    0    0  501    0 -0.00000000000E+00  0.00000000000E+00  0.91957140006E+01  0.91957153817E+01  0.50400000000E-02 0. -1.
          1   -1    0    0    0  501  0.00000000000E+00 -0.00000000000E+00 -0.91782056068E+02  0.91782056207E+02  0.50400000000E-02 0. -1.
          2    1    1    2    0  502  0.10439237635E+02 -0.19600264427E+02 -0.87404653406E+01  0.23865116569E+02  0.25500000000E-02 0. -1.
         -2    1    1    2  502    0 -0.10439237635E+02  0.19600264427E+02 -0.73845876727E+02  0.77112655019E+02  0.25500000000E-02 0. -1.
<mgrwt>
<rscale>  0 0.58103412E+02</rscale>
<asrwt>0</asrwt>
<pdfrwt beam="2">  1        1 0.14120316E-01 0.58103412E+02</pdfrwt>
<pdfrwt beam="1">  1       -1 0.14147254E-02 0.58103412E+02</pdfrwt>
<totfact> 0.34029094E+05</totfact>
</mgrwt>
</event>
<event>
 4    1  0.3883670E-002  0.7157003E+02  0.7818608E-02  0.1354834E+00
         -1   -1    0    0  501    0 -0.00000000000E+00  0.00000000000E+00  0.12439729964E+03  0.12439729974E+03  0.50400000000E-02 0. -1.
          1   -1    0    0    0  501  0.00000000000E+00 -0.00000000000E+00 -0.10294172508E+02  0.10294173742E+02  0.50400000000E-02 0. -1.
          2    1    1    2    0  502 -0.12809197564E+02  0.31672954235E+02  0.77084936652E+02  0.84316896512E+02  0.25500000000E-02 0. -1.
         -2    1    1    2  502    0  0.12809197564E+02 -0.31672954235E+02  0.37018190482E+02  0.50374576974E+02  0.25500000000E-02 0. -1.
<mgrwt>
<rscale>  0 0.71570031E+02</rscale>
<asrwt>0</asrwt>
<pdfrwt beam="2">  1        1 0.15837189E-02 0.71570031E+02</pdfrwt>
<pdfrwt beam="1">  1       -1 0.19138046E-01 0.71570031E+02</pdfrwt>
<totfact> 0.14522083E+05</totfact>
</mgrwt>
</event>
<event>
 4    1  0.3883670E-002  0.1469719E+03  0.7818608E-02  0.1204244E+00
          1   -1    0    0    0  501  0.00000000000E+00  0.00000000000E+00  0.33872169601E+03  0.33872169605E+03  0.50400000000E-02 0. -1.
         -1   -1    0    0  501    0 -0.00000000000E+00 -0.00000000000E+00 -0.15942834774E+02  0.15942835571E+02  0.50400000000E-02 0. -1.
          2    1    1    2    0  502  0.14881845776E+02 -0.61070809972E+02  0.69529035065E+02  0.93730464034E+02  0.25500000000E-02 0.  1.
         -2    1    1    2  502    0 -0.14881845776E+02  0.61070809972E+02  0.25324982617E+03  0.26093406758E+03  0.25500000000E-02 0.  1.
<mgrwt>
<rscale>  0 0.14697189E+03</rscale>
<asrwt>0</asrwt>
<pdfrwt beam="1">  1        1 0.52111028E-01 0.14697189E+03</pdfrwt>
<pdfrwt beam="2">  1       -1 0.24527440E-02 0.14697189E+03</pdfrwt>
<totfact> 0.35622178E+04</totfact>
</mgrwt>
</event>
<event>
 4    1  0.3883670E-002  0.4904288E+02  0.7818608E-02  0.1450573E+00
         -1   -1    0    0  501    0 -0.00000000000E+00  0.00000000000E+00  0.32935855256E+03  0.32935855260E+03  0.50400000000E-02 0.  1.
          1   -1    0    0    0  501  0.00000000000E+00 -0.00000000000E+00 -0.18256691988E+01  0.18256761556E+01  0.50400000000E-02 0.  1.
          2    1    1    2    0  502  0.22727189495E+02  0.83627460887E+01  0.18978087421E+03  0.19131973470E+03  0.25500000000E-02 0. -1.
         -2    1    1    2  502    0 -0.22727189495E+02 -0.83627460887E+01  0.13775200915E+03  0.13986449405E+03  0.25500000000E-02 0. -1.
<mgrwt>
<rscale>  0 0.49042876E+02</rscale>
<asrwt>0</asrwt>
<pdfrwt beam="2">  1        1 0.28087281E-03 0.49042876E+02</pdfrwt>
<pdfrwt beam="1">  1       -1 0.50670532E-01 0.49042876E+02</pdfrwt>
<totfact> 0.28332436E+05</totfact>
</mgrwt>
</event>
<event>
 4    1  0.3883670E-002  0.4585695E+02  0.7818608E-02  0.1469062E+00
         -1   -1    0    0  501    0 -0.00000000000E+00  0.00000000000E+00  0.59568127955E+01  0.59568149277E+01  0.50400000000E-02 0.  1.
          1   -1    0    0    0  501  0.00000000000E+00 -0.00000000000E+00 -0.88254375834E+02  0.88254375978E+02  0.50400000000E-02 0.  1.
          2    1    1    2    0  502 -0.19716216785E+02  0.60808713859E+01 -0.20603304282E+02  0.29158229627E+02  0.25500000000E-02 0. -1.
         -2    1    1    2  502    0  0.19716216785E+02 -0.60808713859E+01 -0.61694258757E+02  0.65052961279E+02  0.25500000000E-02 0. -1.
<mgrwt>
<rscale>  0 0.45856947E+02</rscale>
<asrwt>0</asrwt>
<pdfrwt beam="2">  1        1 0.13577595E-01 0.45856947E+02</pdfrwt>
<pdfrwt beam="1">  1       -1 0.91643298E-03 0.45856947E+02</pdfrwt>
<totfact> 0.61746622E+05</totfact>
</mgrwt>
</event>
<event>
 4    1  0.3883670E-002  0.5022872E+02  0.7818608E-02  0.1444112E+00
          1   -1    0    0    0  501  0.00000000000E+00  0.00000000000E+00  0.15541097315E+02  0.15541098132E+02  0.50400000000E-02 0. -1.
         -1   -1    0    0  501    0 -0.00000000000E+00 -0.00000000000E+00 -0.40584718443E+02  0.40584718755E+02  0.50400000000E-02 0. -1.
          2    1    1    2    0  502 -0.23505899793E+02  0.21780368990E+01 -0.29446720593E+01  0.23789541186E+02  0.25500000000E-02 0.  1.
         -2    1    1    2  502    0  0.23505899793E+02 -0.21780368990E+01 -0.22098949068E+02  0.32336275701E+02  0.25500000000E-02 0.  1.
<mgrwt>
<rscale>  0 0.50228720E+02</rscale>
<asrwt>0</asrwt>
<pdfrwt beam="1">  1        1 0.23909382E-02 0.50228720E+02</pdfrwt>
<pdfrwt beam="2">  1       -1 0.62438029E-02 0.50228720E+02</pdfrwt>
<totfact> 0.41316785E+05</totfact>
</mgrwt>
</event>
<event>
 4    1  0.3883670E-002  0.4498341E+02  0.7818608E-02  0.1474445E+00
          1   -1    0    0    0  501  0.00000000000E+00  0.00000000000E+00  0.60693007923E+03  0.60693007925E+03  0.50400000000E-02 0.  1.
         -1   -1    0    0  501    0 -0.00000000000E+00 -0.00000000000E+00 -0.83349334137E+00  0.83350857927E+00  0.50400000000E-02 0.  1.
          2    1    1    2    0  502 -0.48758068403E+01 -0.21773751597E+02  0.34127957054E+03  0.34200820900E+03  0.25500000000E-02 0.  1.
         -2    1    1    2  502    0  0.48758068403E+01  0.21773751597E+02  0.26481701534E+03  0.26575537882E+03  0.25500000000E-02 0.  1.
<mgrwt>
<rscale>  0 0.44983411E+02</rscale>
<asrwt>0</asrwt>
<pdfrwt beam="1">  1        1 0.93373915E-01 0.44983411E+02</pdfrwt>
<pdfrwt beam="2">  1       -1 0.12823084E-03 0.44983411E+02</pdfrwt>
<totfact> 0.85884444E+05</totfact>
</mgrwt>
</event>
<event>
 4    1  0.3883670E-002  0.4938986E+02  0.7818608E-02  0.1448660E+00
          1   -1    0    0    0  501  0.00000000000E+00  0.00000000000E+00  0.17629322567E+03  0.17629322574E+03  0.50400000000E-02 0.  1.
         -1   -1    0    0  501    0 -0.00000000000E+00 -0.00000000000E+00 -0.34592327769E+01  0.34592364485E+01  0.50400000000E-02 0.  1.
          2    1    1    2    0  502 -0.23965849200E+01  0.23710576509E+02  0.62857404912E+02  0.67223421636E+02  0.25500000000E-02 0.  1.
         -2    1    1    2  502    0  0.23965849200E+01 -0.23710576509E+02  0.10997658798E+03  0.11252904055E+03  0.25500000000E-02 0.  1.
<mgrwt>
<rscale>  0 0.49389863E+02</rscale>
<asrwt>0</asrwt>
<pdfrwt beam="1">  1        1 0.27122038E-01 0.49389863E+02</pdfrwt>
<pdfrwt beam="2">  1       -1 0.53218989E-03 0.49389863E+02</pdfrwt>
<totfact> 0.56727755E+05</totfact>
</mgrwt>
</event>
<event>
 4    1  0.3883670E-002  0.7203493E+02  0.7818608E-02  0.1353307E+00
         -1   -1    0    0  501    0 -0.00000000000E+00  0.00000000000E+00  0.15818991094E+02  0.15818991897E+02  0.50400000000E-02 0. -1.
          1   -1    0    0    0  501  0.00000000000E+00 -0.00000000000E+00 -0.82006352400E+02  0.82006352555E+02  0.50400000000E-02 0. -1.
          2    1    1    2    0  502  0.21660516138E+02 -0.14211094429E+02  0.88751372513E+00  0.25921436135E+02  0.25500000000E-02 0.  1.
         -2    1    1    2  502    0 -0.21660516138E+02  0.14211094429E+02 -0.67074875031E+02  0.71903908317E+02  0.25500000000E-02 0.  1.
<mgrwt>
<rscale>  0 0.72034931E+02</rscale>
<asrwt>0</asrwt>
<pdfrwt beam="2">  1        1 0.12616362E-01 0.72034931E+02</pdfrwt>
<pdfrwt beam="1">  1       -1 0.24336910E-02 0.72034931E+02</pdfrwt>
<totfact> 0.19100217E+05</totfact>
</mgrwt>
</event>
<event>
 4    1  0.3883670E-002  0.8917068E+02  0.7818608E-02  0.1304873E+00
          1   -1    0    0    0  501  0.00000000000E+00  0.00000000000E+00  0.80800268991E+03  0.80800268992E+03  0.50400000000E-02 0.  1.
         -1   -1    0    0  501    0 -0.00000000000E+00 -0.00000000000E+00 -0.24602028319E+01  0.24602079944E+01  0.50400000000E-02 0.  1.
          2    1    1    2    0  502 -0.39476171883E+01  0.38884979698E+02  0.59775445864E+03  0.59903089917E+03  0.25500000000E-02 0.  1.
         -2    1    1    2  502    0  0.39476171883E+01 -0.38884979698E+02  0.20778802844E+03  0.21143199875E+03  0.25500000000E-02 0.  1.
<mgrwt>
<rscale>  0 0.89170681E+02</rscale>
<asrwt>0</asrwt>
<pdfrwt beam="1">  1        1 0.12430813E+00 0.89170681E+02</pdfrwt>
<pdfrwt beam="2">  1       -1 0.37849306E-03 0.89170681E+02</pdfrwt>
<totfact> 0.14971426E+05</totfact>
</mgrwt>
</event>
<event>
 4    1  0.3883670E-002  0.4524842E+02  0.7818608E-02  0.1472797E+00
          1   -1    0    0    0  501  0.00000000000E+00  0.00000000000E+00  0.41297977184E+00  0.41301052474E+00  0.50400000000E-02 0. -1.
         -1   -1    0    0  501    0 -0.00000000000E+00 -0.00000000000E+00 -0.12393727707E+04  0.12393727707E+04  0.50400000000E-02 0. -1.
          2    1    1    2    0  502 -0.96971063027E+01  0.19610431098E+02 -0.46148155107E+03  0.46199981046E+03  0.25500000000E-02 0. -1.
         -2    1    1    2  502    0  0.96971063027E+01 -0.19610431098E+02 -0.77747823986E+03  0.77778597078E+03  0.25500000000E-02 0. -1.
<mgrwt>
<rscale>  0 0.45248423E+02</rscale>
<asrwt>0</asrwt>
<pdfrwt beam="1">  1        1 0.63538708E-04 0.45248423E+02</pdfrwt>
<pdfrwt beam="2">  1       -1 0.19066976E+00 0.45248423E+02</pdfrwt>
<totfact> 0.11408277E+05</totfact>
</mgrwt>
</event>
<event>
 4    1  0.3883670E-002  0.7146885E+02  0.7818608E-02  0.1355168E+00
         -1   -1    0    0  501    0 -0.00000000000E+00  0.00000000000E+00  0.33618319306E+02  0.33618319684E+02  0.50400000000E-02 0.  1.
          1   -1    0    0    0  501  0.00000000000E+00 -0.00000000000E+00 -0.37983728857E+02  0.37983729192E+02  0.50400000000E-02 0.  1.
          2    1    1    2    0  502  0.45766734874E+01  0.33687171672E+02  0.88458841349E+01  0.35128637151E+02  0.25500000000E-02 0. -1.
         -2    1    1    2  502    0 -0.45766734874E+01 -0.33687171672E+02 -0.13211293686E+02  0.36473411725E+02  0.25500000000E-02 0. -1.
<mgrwt>
<rscale>  0 0.71468851E+02</rscale>
<asrwt>0</asrwt>
<pdfrwt beam="2">  1        1 0.58436507E-02 0.71468851E+02</pdfrwt>
<pdfrwt beam="1">  1       -1 0.51720492E-02 0.71468851E+02</pdfrwt>
<totfact> 0.17672387E+05</totfact>
</mgrwt>
</event>
<event>
 4    1  0.3883670E-002  0.4317822E+02  0.7818608E-02  0.1486046E+00
         -1   -1    0    0  501    0 -0.00000000000E+00  0.00000000000E+00  0.29830772892E+02  0.29830773318E+02  0.50400000000E-02 0. -1.
          1   -1    0    0    0  501  0.00000000000E+00 -0.00000000000E+00 -0.15624459136E+02  0.15624459949E+02  0.50400000000E-02 0. -1.
          2    1    1    2    0  502  0.21511348810E+02  0.14357153457E+01  0.82989766867E+01  0.23101351189E+02  0.25500000000E-02 0.  1.
         -2    1    1    2  502    0 -0.21511348810E+02 -0.14357153457E+01  0.59073370688E+01  0.22353882078E+02  0.25500000000E-02 0.  1.
<mgrwt>
<rscale>  0 0.43178222E+02</rscale>
<asrwt>0</asrwt>
<pdfrwt beam="2">  1        1 0.24037631E-02 0.43178222E+02</pdfrwt>
<pdfrwt beam="1">  1       -1 0.45893497E-02 0.43178222E+02</pdfrwt>
<totfact> 0.61405179E+05</totfact>
</mgrwt>
</event>
<event>
 4    1  0.3883670E-002  0.4330829E+02  0.7818608E-02  0.1485188E+00
         -1   -1    0    0  501    0 -0.00000000000E+00  0.00000000000E+00  0.23453129354E+03  0.23453129360E+03  0.50400000000E-02 0.  1.
          1   -1    0    0    0  501  0.00000000000E+00 -0.00000000000E+00 -0.19993117624E+01  0.19993181150E+01  0.50400000000E-02 0.  1.
          2    1    1    2    0  502  0.20568430310E+02 -0.45995656245E+01  0.89130470523E+02  0.91588520632E+02  0.25500000000E-02 0. -1.
         -2    1    1    2  502    0 -0.20568430310E+02  0.45995656245E+01  0.14340151126E+03  0.14494209108E+03  0.25500000000E-02 0. -1.
<mgrwt>
<rscale>  0 0.43308287E+02</rscale>
<asrwt>0</asrwt>
<pdfrwt beam="2">  1        1 0.30758706E-03 0.43308287E+02</pdfrwt>
<pdfrwt beam="1">  1       -1 0.36081721E-01 0.43308287E+02</pdfrwt>
<totfact> 0.43540974E+05</totfact>
</mgrwt>
</event>
<event>
 4    1  0.3883670E-002  0.4758042E+02  0.7818608E-02  0.1458847E+00
          1   -1    0    0    0  501  0.00000000000E+00  0.00000000000E+00  0.10079261579E+01  0.10079387587E+01  0.50400000000E-02 0. -1.
         -1   -1    0    0  501    0 -0.00000000000E+00 -0.00000000000E+00 -0.56151979189E+03  0.56151979191E+03  0.50400000000E-02 0. -1.
          2    1    1    2    0  502  0.57384489573E+01  0.22938667360E+02 -0.24928645507E+03  0.25040536924E+03  0.25500000000E-02 0.  1.
         -2    1    1    2  502    0 -0.57384489573E+01 -0.22938667360E+02 -0.31122541066E+03  0.31212236143E+03  0.25500000000E-02 0.  1.
<mgrwt>
<rscale>  0 0.47580418E+02</rscale>
<asrwt>0</asrwt>
<pdfrwt beam="1">  1        1 0.15506698E-03 0.47580418E+02</pdfrwt>
<pdfrwt beam="2">  1       -1 0.86387412E-01 0.47580418E+02</pdfrwt>
<totfact> 0.22868648E+05</totfact>
</mgrwt>
</event>
<event>
 4    1  0.3883670E-002  0.7343905E+02  0.7818608E-02  0.1348774E+00
          1   -1    0    0    0  501  0.00000000000E+00  0.00000000000E+00  0.11044672889E+03  0.11044672901E+03  0.50400000000E-02 0.  1.
         -1   -1    0    0  501    0 -0.00000000000E+00 -0.00000000000E+00 -0.12207908092E+02  0.12207909132E+02  0.50400000000E-02 0.  1.
          2    1    1    2    0  502 -0.33905327410E+02 -0.84061715443E+01  0.30217216701E+02  0.46187824570E+02  0.25500000000E-02 0.  1.
         -2    1    1    2  502    0  0.33905327410E+02  0.84061715443E+01  0.68021604101E+02  0.76466813571E+02  0.25500000000E-02 0.  1.
<mgrwt>
<rscale>  0 0.73439052E+02</rscale>
<asrwt>0</asrwt>
<pdfrwt beam="1">  1        1 0.16991805E-01 0.73439052E+02</pdfrwt>
<pdfrwt beam="2">  1       -1 0.18781397E-02 0.73439052E+02</pdfrwt>
<totfact> 0.18968365E+05</totfact>
</mgrwt>
</event>
<event>
 4    1  0.3883670E-002  0.5260841E+02  0.7818608E-02  0.1431760E+00
          1   -1    0    0    0  501  0.00000000000E+00  0.00000000000E+00  0.68329123414E+02  0.68329123600E+02  0.50400000000E-02 0. -1.
         -1   -1    0    0  501    0 -0.00000000000E+00 -0.00000000000E+00 -0.10126151629E+02  0.10126152883E+02  0.50400000000E-02 0. -1.
          2    1    1    2    0  502 -0.30579816654E+01  0.22089942339E+02  0.49904778355E+02  0.54660806010E+02  0.25500000000E-02 0.  1.
         -2    1    1    2  502    0  0.30579816654E+01 -0.22089942339E+02  0.82981934298E+01  0.23794470474E+02  0.25500000000E-02 0.  1.
<mgrwt>
<rscale>  0 0.52608407E+02</rscale>
<asrwt>0</asrwt>
<pdfrwt beam="1">  1        1 0.10512173E-01 0.52608407E+02</pdfrwt>
<pdfrwt beam="2">  1       -1 0.15578696E-02 0.52608407E+02</pdfrwt>
<totfact> 0.42331731E+05</totfact>
</mgrwt>
</event>
<event>
 4    1  0.3883670E-002  0.5987214E+02  0.7818608E-02  0.1398369E+00
         -1   -1    0    0  501    0 -0.00000000000E+00  0.00000000000E+00  0.47495344680E+03  0.47495344683E+03  0.50400000000E-02 0. -1.
          1   -1    0    0    0  501  0.00000000000E+00 -0.00000000000E+00 -0.18868517989E+01  0.18868585301E+01  0.50400000000E-02 0. -1.
          2    1    1    2    0  502 -0.25776009269E+02 -0.11308074789E+02  0.31771191191E+03  0.31895632018E+03  0.25500000000E-02 0.  1.
         -2    1    1    2  502    0  0.25776009269E+02  0.11308074789E+02  0.15535468309E+03  0.15788398517E+03  0.25500000000E-02 0.  1.
<mgrwt>
<rscale>  0 0.59872143E+02</rscale>
<asrwt>0</asrwt>
<pdfrwt beam="2">  1        1 0.29028517E-03 0.59872143E+02</pdfrwt>
<pdfrwt beam="1">  1       -1 0.73069823E-01 0.59872143E+02</pdfrwt>
<totfact> 0.14335618E+05</totfact>
</mgrwt>
</event>
<event>
 4    1  0.3883670E-002  0.6342565E+02  0.7818608E-02  0.1383993E+00
          1   -1    0    0    0  501  0.00000000000E+00  0.00000000000E+00  0.21708089695E+04  0.21708089695E+04  0.50400000000E-02 0.  1.
         -1   -1    0    0  501    0 -0.00000000000E+00 -0.00000000000E+00 -0.46327132929E+00  0.46329874394E+00  0.50400000000E-02 0.  1.
          2    1    1    2    0  502  0.22234308989E+02 -0.12997759276E+02  0.17186258104E+04  0.17188187754E+04  0.25500000000E-02 0. -1.
         -2    1    1    2  502    0 -0.22234308989E+02  0.12997759276E+02  0.45171988769E+03  0.45245349284E+03  0.25500000000E-02 0. -1.
<mgrwt>
<rscale>  0 0.63425652E+02</rscale>
<asrwt>0</asrwt>
<pdfrwt beam="1">  1        1 0.33397563E+00 0.63425652E+02</pdfrwt>
<pdfrwt beam="2">  1       -1 0.71273551E-04 0.63425652E+02</pdfrwt>
<totfact> 0.18022032E+05</totfact>
</mgrwt>
</event>
<event>
 4    1  0.3883670E-002  0.6422833E+02  0.7818608E-02  0.1380898E+00
          1   -1    0    0    0  501  0.00000000000E+00  0.00000000000E+00  0.24137691860E+02  0.24137692386E+02  0.50400000000E-02 0. -1.
         -1   -1    0    0  501    0 -0.00000000000E+00 -0.00000000000E+00 -0.42726524905E+02  0.42726525202E+02  0.50400000000E-02 0. -1.
          2    1    1    2    0  502 -0.16236659106E+02 -0.15126423092E+02  0.14872092813E+02  0.26713609371E+02  0.25500000000E-02 0.  1.
         -2    1    1    2  502    0  0.16236659106E+02  0.15126423092E+02 -0.33460925858E+02  0.40150608218E+02  0.25500000000E-02 0.  1.
<mgrwt>
<rscale>  0 0.64228334E+02</rscale>
<asrwt>0</asrwt>
<pdfrwt beam="1">  1        1 0.37134911E-02 0.64228334E+02</pdfrwt>
<pdfrwt beam="2">  1       -1 0.65733116E-02 0.64228334E+02</pdfrwt>
<totfact> 0.22388695E+05</totfact>
</mgrwt>
</event>
<event>
 4    1  0.3883670E-002  0.4248418E+02  0.7818608E-02  0.1490688E+00
         -1   -1    0    0  501    0 -0.00000000000E+00  0.00000000000E+00  0.12473245394E+01  0.12473347218E+01  0.50400000000E-02 0.  1.
          1   -1    0    0    0  501  0.00000000000E+00 -0.00000000000E+00 -0.36175398481E+03  0.36175398484E+03  0.50400000000E-02 0.  1.
          2    1    1    2    0  502  0.19233849955E+02  0.89925525387E+01 -0.17471932880E+03  0.17600468985E+03  0.25500000000E-02 0. -1.
         -2    1    1    2  502    0 -0.19233849955E+02 -0.89925525387E+01 -0.18578733147E+03  0.18699662972E+03  0.25500000000E-02 0. -1.
<mgrwt>
<rscale>  0 0.42484184E+02</rscale>
<asrwt>0</asrwt>
<pdfrwt beam="2">  1        1 0.55654376E-01 0.42484184E+02</pdfrwt>
<pdfrwt beam="1">  1       -1 0.19189716E-03 0.42484184E+02</pdfrwt>
<totfact> 0.93066848E+05</totfact>
</mgrwt>
</event>
<event>
 4    1  0.3883670E-002  0.5460282E+02  0.7818608E-02  0.1421987E+00
          1   -1    0    0    0  501  0.00000000000E+00  0.00000000000E+00  0.44580454727E+02  0.44580455012E+02  0.50400000000E-02 0. -1.
         -1   -1    0    0  501    0 -0.00000000000E+00 -0.00000000000E+00 -0.16719592948E+02  0.16719593707E+02  0.50400000000E-02 0. -1.
          2    1    1    2    0  502 -0.25637819357E+02 -0.92456219290E+01  0.15736394667E+02  0.31470834591E+02  0.25500000000E-02 0. -1.
         -2    1    1    2  502    0  0.25637819357E+02  0.92456219290E+01  0.12124467112E+02  0.29829214128E+02  0.25500000000E-02 0. -1.
<mgrwt>
<rscale>  0 0.54602824E+02</rscale>
<asrwt>0</asrwt>
<pdfrwt beam="1">  1        1 0.68585316E-02 0.54602824E+02</pdfrwt>
<pdfrwt beam="2">  1       -1 0.25722451E-02 0.54602824E+02</pdfrwt>
<totfact> 0.36744352E+05</totfact>
</mgrwt>
</event>
<event>
 4    1  0.3883670E-002  0.6568439E+02  0.7818608E-02  0.1375415E+00
          1   -1    0    0    0  501  0.00000000000E+00  0.00000000000E+00  0.18097882525E+03  0.18097882532E+03  0.50400000000E-02 0. -1.
         -1   -1    0    0  501    0 -0.00000000000E+00 -0.00000000000E+00 -0.59598668894E+01  0.59598690205E+01  0.50400000000E-02 0. -1.
          2    1    1    2    0  502 -0.31486558271E+02  0.90205024726E+01  0.80633489194E+02  0.87031789610E+02  0.25500000000E-02 0.  1.
         -2    1    1    2  502    0  0.31486558271E+02 -0.90205024726E+01  0.94385469167E+02  0.99906904731E+02  0.25500000000E-02 0.  1.
<mgrwt>
<rscale>  0 0.65684394E+02</rscale>
<asrwt>0</asrwt>
<pdfrwt beam="1">  1        1 0.27842895E-01 0.65684394E+02</pdfrwt>
<pdfrwt beam="2">  1       -1 0.91690280E-03 0.65684394E+02</pdfrwt>
<totfact> 0.27575952E+05</totfact>
</mgrwt>
</event>
<event>
 4    1  0.3883670E-002  0.4959081E+02  0.7818608E-02  0.1447561E+00
          1   -1    0    0    0  501  0.00000000000E+00  0.00000000000E+00  0.12753559379E+02  0.12753560375E+02  0.50400000000E-02 0. -1.
         -1   -1    0    0  501    0 -0.00000000000E+00 -0.00000000000E+00 -0.48207097615E+02  0.48207097878E+02  0.50400000000E-02 0. -1.
          2    1    1    2    0  502  0.66912485545E+01 -0.22954714414E+02 -0.25798929757E+02  0.35174941424E+02  0.25500000000E-02 0. -1.
         -2    1    1    2  502    0 -0.66912485545E+01  0.22954714414E+02 -0.96546084783E+01  0.25785716829E+02  0.25500000000E-02 0. -1.
<mgrwt>
<rscale>  0 0.49590810E+02</rscale>
<asrwt>0</asrwt>
<pdfrwt beam="1">  1        1 0.19620862E-02 0.49590810E+02</pdfrwt>
<pdfrwt beam="2">  1       -1 0.74164766E-02 0.49590810E+02</pdfrwt>
<totfact> 0.41869010E+05</totfact>
</mgrwt>
</event>
<event>
 4    1  0.3883670E-002  0.4348875E+02  0.7818608E-02  0.1484003E+00
         -1   -1    0    0  501    0 -0.00000000000E+00  0.00000000000E+00  0.88353718266E+02  0.88353718410E+02  0.50400000000E-02 0.  1.
          1   -1    0    0    0  501  0.00000000000E+00 -0.00000000000E+00 -0.53514189161E+01  0.53514212895E+01  0.50400000000E-02 0.  1.
          2    1    1    2    0  502 -0.21394680840E+02 -0.20667860531E+01  0.48586765535E+02  0.53128878819E+02  0.25500000000E-02 0. -1.
         -2    1    1    2  502    0  0.21394680840E+02  0.20667860531E+01  0.34415533815E+02  0.40576260881E+02  0.25500000000E-02 0. -1.
<mgrwt>
<rscale>  0 0.43488752E+02</rscale>
<asrwt>0</asrwt>
<pdfrwt beam="2">  1        1 0.82329548E-03 0.43488752E+02</pdfrwt>
<pdfrwt beam="1">  1       -1 0.13592879E-01 0.43488752E+02</pdfrwt>
<totfact> 0.53470882E+05</totfact>
</mgrwt>
</event>
<event>
 4    1  0.3883670E-002  0.4549716E+02  0.7818608E-02  0.1471262E+00
         -1   -1    0    0  501    0 -0.00000000000E+00  0.00000000000E+00  0.50778558983E+00  0.50781060134E+00  0.50400000000E-02 0.  1.
          1   -1    0    0    0  501  0.00000000000E+00 -0.00000000000E+00 -0.10191015967E+04  0.10191015967E+04  0.50400000000E-02 0.  1.
          2    1    1    2    0  502  0.11175554289E+01  0.22160918029E+02 -0.62166809578E+03  0.62206396499E+03  0.25500000000E-02 0.  1.
         -2    1    1    2  502    0 -0.11175554289E+01 -0.22160918029E+02 -0.39692571533E+03  0.39754544233E+03  0.25500000000E-02 0.  1.
<mgrwt>
<rscale>  0 0.45497159E+02</rscale>
<asrwt>0</asrwt>
<pdfrwt beam="2">  1        1 0.15678323E+00 0.45497159E+02</pdfrwt>
<pdfrwt beam="1">  1       -1 0.78123600E-04 0.45497159E+02</pdfrwt>
<totfact> 0.79708810E+05</totfact>
</mgrwt>
</event>
<event>
 4    1  0.3883670E-002  0.8486895E+02  0.7818608E-02  0.1315776E+00
          1   -1    0    0    0  501  0.00000000000E+00  0.00000000000E+00  0.15097862339E+03  0.15097862347E+03  0.50400000000E-02 0.  1.
         -1   -1    0    0  501    0 -0.00000000000E+00 -0.00000000000E+00 -0.11926752163E+02  0.11926753228E+02  0.50400000000E-02 0.  1.
          2    1    1    2    0  502  0.15504158958E+01  0.41751626260E+02  0.83771967088E+02  0.93612737174E+02  0.25500000000E-02 0. -1.
         -2    1    1    2  502    0 -0.15504158958E+01 -0.41751626260E+02  0.55279904137E+02  0.69292639528E+02  0.25500000000E-02 0. -1.
<mgrwt>
<rscale>  0 0.84868951E+02</rscale>
<asrwt>0</asrwt>
<pdfrwt beam="1">  1        1 0.23227483E-01 0.84868951E+02</pdfrwt>
<pdfrwt beam="2">  1       -1 0.18348849E-02 0.84868951E+02</pdfrwt>
<totfact> 0.13608964E+05</totfact>
</mgrwt>
</event>
<event>
 4    1  0.3883670E-002  0.5684932E+02  0.7818608E-02  0.1411550E+00
          1   -1    0    0    0  501  0.00000000000E+00  0.00000000000E+00  0.72071790722E+02  0.72071790898E+02  0.50400000000E-02 0. -1.
         -1   -1    0    0  501    0 -0.00000000000E+00 -0.00000000000E+00 -0.11210506385E+02  0.11210507518E+02  0.50400000000E-02 0. -1.
          2    1    1    2    0  502 -0.96908212154E+01 -0.26022942372E+02  0.39324295150E+02  0.48140479236E+02  0.25500000000E-02 0.  1.
         -2    1    1    2  502    0  0.96908212154E+01  0.26022942372E+02  0.21536989187E+02  0.35141819180E+02  0.25500000000E-02 0.  1.
<mgrwt>
<rscale>  0 0.56849321E+02</rscale>
<asrwt>0</asrwt>
<pdfrwt beam="1">  1        1 0.11087968E-01 0.56849321E+02</pdfrwt>
<pdfrwt beam="2">  1       -1 0.17246934E-02 0.56849321E+02</pdfrwt>
<totfact> 0.34903468E+05</totfact>
</mgrwt>
</event>
<event>
 4    1  0.3883670E-002  0.4152952E+02  0.7818608E-02  0.1497248E+00
          1   -1    0    0    0  501  0.00000000000E+00  0.00000000000E+00  0.76633856616E+01  0.76633873189E+01  0.50400000000E-02 0.  1.
         -1   -1    0    0  501    0 -0.00000000000E+00 -0.00000000000E+00 -0.56264309724E+02  0.56264309950E+02  0.50400000000E-02 0.  1.
          2    1    1    2    0  502  0.16680199284E+01 -0.20289210655E+02 -0.18002206422E+02  0.27175610427E+02  0.25500000000E-02 0. -1.
         -2    1    1    2  502    0 -0.16680199284E+01  0.20289210655E+02 -0.30598717640E+02  0.36752086842E+02  0.25500000000E-02 0. -1.
<mgrwt>
<rscale>  0 0.41529516E+02</rscale>
<asrwt>0</asrwt>
<pdfrwt beam="1">  1        1 0.11789826E-02 0.41529516E+02</pdfrwt>
<pdfrwt beam="2">  1       -1 0.86560476E-02 0.41529516E+02</pdfrwt>
<totfact> 0.63439821E+05</totfact>
</mgrwt>
</event>
<event>
 4    1  0.3883670E-002  0.5369236E+02  0.7818608E-02  0.1426386E+00
          1   -1    0    0    0  501  0.00000000000E+00  0.00000000000E+00  0.18353636892E+04  0.18353636892E+04  0.50400000000E-02 0. -1.
         -1   -1    0    0  501    0 -0.00000000000E+00 -0.00000000000E+00 -0.39266750920E+00  0.39269985279E+00  0.50400000000E-02 0. -1.
          2    1    1    2    0  502  0.17219642450E+02  0.14960585275E+02  0.43350028940E+03  0.43410003007E+03  0.25500000000E-02 0.  1.
         -2    1    1    2  502    0 -0.17219642450E+02 -0.14960585275E+02  0.14014707323E+04  0.14016563589E+04  0.25500000000E-02 0.  1.
<mgrwt>
<rscale>  0 0.53692360E+02</rscale>
<asrwt>0</asrwt>
<pdfrwt beam="1">  1        1 0.28236816E+00 0.53692360E+02</pdfrwt>
<pdfrwt beam="2">  1       -1 0.60411910E-04 0.53692360E+02</pdfrwt>
<totfact> 0.35338239E+05</totfact>
</mgrwt>
</event>
<event>
 4    1  0.3883670E-002  0.4183011E+02  0.7818608E-02  0.1495160E+00
         -1   -1    0    0  501    0 -0.00000000000E+00  0.00000000000E+00  0.85677258674E+01  0.85677273498E+01  0.50400000000E-02 0.  1.
          1   -1    0    0    0  501  0.00000000000E+00 -0.00000000000E+00 -0.51056660414E+02  0.51056660663E+02  0.50400000000E-02 0.  1.
          2    1    1    2    0  502  0.26862991435E+01  0.20634822932E+02 -0.24243692293E+02  0.31949471718E+02  0.25500000000E-02 0. -1.
         -2    1    1    2  502    0 -0.26862991435E+01 -0.20634822932E+02 -0.18245242254E+02  0.27674916295E+02  0.25500000000E-02 0. -1.
<mgrwt>
<rscale>  0 0.41830110E+02</rscale>
<asrwt>0</asrwt>
<pdfrwt beam="2">  1        1 0.78548708E-02 0.41830110E+02</pdfrwt>
<pdfrwt beam="1">  1       -1 0.13181118E-02 0.41830110E+02</pdfrwt>
<totfact> 0.73264246E+05</totfact>
</mgrwt>
</event>
<event>
 4    1  0.3883670E-002  0.4889572E+02  0.7818608E-02  0.1451390E+00
         -1   -1    0    0  501    0 -0.00000000000E+00  0.00000000000E+00  0.51146840403E+00  0.51149323546E+00  0.50400000000E-02 0. -1.
          1   -1    0    0    0  501  0.00000000000E+00 -0.00000000000E+00 -0.11685636951E+04  0.11685636951E+04  0.50400000000E-02 0. -1.
          2    1    1    2    0  502  0.14670248942E+02 -0.18443518065E+02 -0.42848830048E+03  0.42913587967E+03  0.25500000000E-02 0. -1.
         -2    1    1    2  502    0 -0.14670248942E+02  0.18443518065E+02 -0.73956392618E+03  0.73993930864E+03  0.25500000000E-02 0. -1.
<mgrwt>
<rscale>  0 0.48895723E+02</rscale>
<asrwt>0</asrwt>
<pdfrwt beam="2">  1        1 0.17977689E+00 0.48895723E+02</pdfrwt>
<pdfrwt beam="1">  1       -1 0.78690293E-04 0.48895723E+02</pdfrwt>
<totfact> 0.63608854E+05</totfact>
</mgrwt>
</event>
<event>
 4    1  0.3883670E-002  0.5660032E+02  0.7818608E-02  0.1412679E+00
         -1   -1    0    0  501    0 -0.00000000000E+00  0.00000000000E+00  0.38714749078E+03  0.38714749081E+03  0.50400000000E-02 0. -1.
          1   -1    0    0    0  501  0.00000000000E+00 -0.00000000000E+00 -0.20687151759E+01  0.20687213154E+01  0.50400000000E-02 0. -1.
          2    1    1    2    0  502 -0.22677742062E+02  0.11411082539E+02  0.10653925157E+03  0.10952216635E+03  0.25500000000E-02 0. -1.
         -2    1    1    2  502    0  0.22677742062E+02 -0.11411082539E+02  0.27853952403E+03  0.27969404577E+03  0.25500000000E-02 0. -1.
<mgrwt>
<rscale>  0 0.56600321E+02</rscale>
<asrwt>0</asrwt>
<pdfrwt beam="2">  1        1 0.31826470E-03 0.56600321E+02</pdfrwt>
<pdfrwt beam="1">  1       -1 0.59561087E-01 0.56600321E+02</pdfrwt>
<totfact> 0.18423367E+05</totfact>
</mgrwt>
</event>
<event>
 4    1  0.3883670E-002  0.4141987E+02  0.7818608E-02  0.1498015E+00
         -1   -1    0    0  501    0 -0.00000000000E+00  0.00000000000E+00  0.84433242544E+01  0.84433257587E+01  0.50400000000E-02 0. -1.
          1   -1    0    0    0  501  0.00000000000E+00 -0.00000000000E+00 -0.50797688796E+02  0.50797689046E+02  0.50400000000E-02 0. -1.
          2    1    1    2    0  502 -0.19141313038E+02  0.78959564668E+01 -0.20595488186E+02  0.29204625207E+02  0.25500000000E-02 0. -1.
         -2    1    1    2  502    0  0.19141313038E+02 -0.78959564668E+01 -0.21758876356E+02  0.30036389598E+02  0.25500000000E-02 0. -1.
<mgrwt>
<rscale>  0 0.41419870E+02</rscale>
<asrwt>0</asrwt>
<pdfrwt beam="2">  1        1 0.78150290E-02 0.41419870E+02</pdfrwt>
<pdfrwt beam="1">  1       -1 0.12989731E-02 0.41419870E+02</pdfrwt>
<totfact> 0.75046633E+05</totfact>
</mgrwt>
</event>
<event>
 4    1  0.3883670E-002  0.4746363E+02  0.7818608E-02  0.1459523E+00
          1   -1    0    0    0  501  0.00000000000E+00  0.00000000000E+00  0.14990350148E+03  0.14990350156E+03  0.50400000000E-02 0. -1.
         -1   -1    0    0  501    0 -0.00000000000E+00 -0.00000000000E+00 -0.37570756886E+01  0.37570790691E+01  0.50400000000E-02 0. -1.
          2    1    1    2    0  502 -0.18102556275E+02  0.13726432458E+02  0.95287223493E+02  0.97958013758E+02  0.25500000000E-02 0.  1.
         -2    1    1    2  502    0  0.18102556275E+02 -0.13726432458E+02  0.50859202298E+02  0.55702566876E+02  0.25500000000E-02 0.  1.
<mgrwt>
<rscale>  0 0.47463631E+02</rscale>
<asrwt>0</asrwt>
<pdfrwt beam="1">  1        1 0.23062073E-01 0.47463631E+02</pdfrwt>
<pdfrwt beam="2">  1       -1 0.57801201E-03 0.47463631E+02</pdfrwt>
<totfact> 0.61033212E+05</totfact>
</mgrwt>
</event>
<event>
 4    1  0.3883670E-002  0.8118693E+02  0.7818608E-02  0.1325716E+00
         -1   -1    0    0  501    0 -0.00000000000E+00  0.00000000000E+00  0.93467640003E+00  0.93468998838E+00  0.50400000000E-02 0. -1.
          1   -1    0    0    0  501  0.00000000000E+00 -0.00000000000E+00 -0.17629815467E+04  0.17629815467E+04  0.50400000000E-02 0. -1.
          2    1    1    2    0  502  0.63703378156E+01  0.30939910277E+02 -0.32711432413E+03  0.32863603014E+03  0.25500000000E-02 0.  1.
         -2    1    1    2  502    0 -0.63703378156E+01 -0.30939910277E+02 -0.14349325461E+04  0.14352802065E+04  0.25500000000E-02 0.  1.
<mgrwt>
<rscale>  0 0.81186926E+02</rscale>
<asrwt>0</asrwt>
<pdfrwt beam="2">  1        1 0.27122527E+00 0.81186926E+02</pdfrwt>
<pdfrwt beam="1">  1       -1 0.14379883E-03 0.81186926E+02</pdfrwt>
<totfact> 0.12805694E+05</totfact>
</mgrwt>
</event>
<event>
 4    1  0.3883670E-002  0.6252954E+02  0.7818608E-02  0.1387513E+00
          1   -1    0    0    0  501  0.00000000000E+00  0.00000000000E+00  0.17714948198E+03  0.17714948205E+03  0.50400000000E-02 0. -1.
         -1   -1    0    0  501    0 -0.00000000000E+00 -0.00000000000E+00 -0.55178569410E+01  0.55178592428E+01  0.50400000000E-02 0. -1.
          2    1    1    2    0  502  0.13595989891E+02 -0.23388831302E+02  0.13159705026E+03  0.13434906779E+03  0.25500000000E-02 0.  1.
         -2    1    1    2  502    0 -0.13595989891E+02  0.23388831302E+02  0.40034574780E+02  0.48318273511E+02  0.25500000000E-02 0.  1.
<mgrwt>
<rscale>  0 0.62529536E+02</rscale>
<asrwt>0</asrwt>
<pdfrwt beam="1">  1        1 0.27253762E-01 0.62529536E+02</pdfrwt>
<pdfrwt beam="2">  1       -1 0.84890140E-03 0.62529536E+02</pdfrwt>
<totfact> 0.31195934E+05</totfact>
</mgrwt>
</event>
<event>
 4    1  0.3883670E-002  0.6241585E+02  0.7818608E-02  0.1387964E+00
         -1   -1    0    0  501    0 -0.00000000000E+00  0.00000000000E+00  0.15202190049E+01  0.15202273595E+01  0.50400000000E-02 0.  1.
          1   -1    0    0    0  501  0.00000000000E+00 -0.00000000000E+00 -0.64065232837E+03  0.64065232839E+03  0.50400000000E-02 0.  1.
          2    1    1    2    0  502 -0.10420816091E+02  0.22945226832E+02 -0.50895975656E+03  0.50958327156E+03  0.25500000000E-02 0. -1.
         -2    1    1    2  502    0  0.10420816091E+02 -0.22945226832E+02 -0.13017235280E+03  0.13258928419E+03  0.25500000000E-02 0. -1.
<mgrwt>
<rscale>  0 0.62415848E+02</rscale>
<asrwt>0</asrwt>
<pdfrwt beam="2">  1        1 0.98561682E-01 0.62415848E+02</pdfrwt>
<pdfrwt beam="1">  1       -1 0.23388100E-03 0.62415848E+02</pdfrwt>
<totfact> 0.37982624E+05</totfact>
</mgrwt>
</event>
<event>
 4    1  0.3883670E-002  0.7996135E+02  0.7818608E-02  0.1329161E+00
          1   -1    0    0    0  501  0.00000000000E+00  0.00000000000E+00  0.20062893907E+01  0.20062957211E+01  0.50400000000E-02 0. -1.
         -1   -1    0    0  501    0 -0.00000000000E+00 -0.00000000000E+00 -0.79672053379E+03  0.79672053381E+03  0.50400000000E-02 0. -1.
          2    1    1    2    0  502  0.23042200815E+02 -0.85205565773E+01 -0.82284706965E+02  0.85873837166E+02  0.25500000000E-02 0. -1.
         -2    1    1    2  502    0 -0.23042200815E+02  0.85205565773E+01 -0.71242953744E+03  0.71285299236E+03  0.25500000000E-02 0. -1.
<mgrwt>
<rscale>  0 0.79961353E+02</rscale>
<asrwt>0</asrwt>
<pdfrwt beam="1">  1        1 0.30866103E-03 0.79961353E+02</pdfrwt>
<pdfrwt beam="2">  1       -1 0.12257214E+00 0.79961353E+02</pdfrwt>
<totfact> 0.46196786E+04</totfact>
</mgrwt>
</event>
<event>
 4    1  0.3883670E-002  0.6786397E+02  0.7818608E-02  0.1367511E+00
          1   -1    0    0    0  501  0.00000000000E+00  0.00000000000E+00  0.85190930020E+03  0.85190930021E+03  0.50400000000E-02 0.  1.
         -1   -1    0    0  501    0 -0.00000000000E+00 -0.00000000000E+00 -0.13515236716E+01  0.13515330689E+01  0.50400000000E-02 0.  1.
          2    1    1    2    0  502  0.49693284239E+01 -0.19782639072E+02  0.76622398450E+03  0.76649542821E+03  0.25500000000E-02 0.  1.
         -2    1    1    2  502    0 -0.49693284239E+01  0.19782639072E+02  0.84333792026E+02  0.86765405074E+02  0.25500000000E-02 0.  1.
<mgrwt>
<rscale>  0 0.67863970E+02</rscale>
<asrwt>0</asrwt>
<pdfrwt beam="1">  1        1 0.13106309E+00 0.67863970E+02</pdfrwt>
<pdfrwt beam="2">  1       -1 0.20792725E-03 0.67863970E+02</pdfrwt>
<totfact> 0.30287984E+05</totfact>
</mgrwt>
</event>
<event>
 4    1  0.3883670E-002  0.9903593E+02  0.7818608E-02  0.1282336E+00
         -1   -1    0    0  501    0 -0.00000000000E+00  0.00000000000E+00  0.10647314628E+02  0.10647315821E+02  0.50400000000E-02 0. -1.
          1   -1    0    0    0  501  0.00000000000E+00 -0.00000000000E+00 -0.23029551906E+03  0.23029551911E+03  0.50400000000E-02 0. -1.
          2    1    1    2    0  502 -0.20411785187E+02 -0.57448032144E+01 -0.95740728455E+00  0.21226407461E+02  0.25500000000E-02 0.  1.
         -2    1    1    2  502    0  0.20411785187E+02  0.57448032144E+01 -0.21869079714E+03  0.21971642747E+03  0.25500000000E-02 0.  1.
<mgrwt>
<rscale>  0 0.99035933E+02</rscale>
<asrwt>0</asrwt>
<pdfrwt beam="2">  1        1 0.35430076E-01 0.99035933E+02</pdfrwt>
<pdfrwt beam="1">  1       -1 0.16380487E-02 0.99035933E+02</pdfrwt>
<totfact> 0.97445822E+04</totfact>
</mgrwt>
</event>
<event>
 4    1  0.3883670E-002  0.5361045E+02  0.7818608E-02  0.1426787E+00
         -1   -1    0    0  501    0 -0.00000000000E+00  0.00000000000E+00  0.19562745323E+02  0.19562745972E+02  0.50400000000E-02 0.  1.
          1   -1    0    0    0  501  0.00000000000E+00 -0.00000000000E+00 -0.36728993061E+02  0.36728993407E+02  0.50400000000E-02 0.  1.
          2    1    1    2    0  502 -0.19515904605E+02 -0.16091072113E+02 -0.17899706055E+02  0.30986974968E+02  0.25500000000E-02 0. -1.
         -2    1    1    2  502    0  0.19515904605E+02  0.16091072113E+02  0.73345831676E+00  0.25304764411E+02  0.25500000000E-02 0. -1.
<mgrwt>
<rscale>  0 0.53610445E+02</rscale>
<asrwt>0</asrwt>
<pdfrwt beam="2">  1        1 0.56506144E-02 0.53610445E+02</pdfrwt>
<pdfrwt beam="1">  1       -1 0.30096532E-02 0.53610445E+02</pdfrwt>
<totfact> 0.37808679E+05</totfact>
</mgrwt>
</event>
<event>
 4    1  0.3883670E-002  0.4577291E+02  0.7818608E-02  0.1469573E+00
          1   -1    0    0    0  501  0.00000000000E+00  0.00000000000E+00  0.26424850630E+03  0.26424850635E+03  0.50400000000E-02 0.  1.
         -1   -1    0    0  501    0 -0.00000000000E+00 -0.00000000000E+00 -0.19821833863E+01  0.19821897938E+01  0.50400000000E-02 0.  1.
          2    1    1    2    0  502  0.38245082962E-01  0.22529307464E+02  0.15455697136E+03  0.15619036001E+03  0.25500000000E-02 0.  1.
         -2    1    1    2  502    0 -0.38245082962E-01 -0.22529307464E+02  0.10770935156E+03  0.11004033614E+03  0.25500000000E-02 0.  1.
<mgrwt>
<rscale>  0 0.45772912E+02</rscale>
<asrwt>0</asrwt>
<pdfrwt beam="1">  1        1 0.40653584E-01 0.45772912E+02</pdfrwt>
<pdfrwt beam="2">  1       -1 0.30495203E-03 0.45772912E+02</pdfrwt>
<totfact> 0.73499759E+05</totfact>
</mgrwt>
</event>
<event>
 4    1  0.3883670E-002  0.6756698E+02  0.7818608E-02  0.1368568E+00
         -1   -1    0    0  501    0 -0.00000000000E+00  0.00000000000E+00  0.15991366051E+01  0.15991445474E+01  0.50400000000E-02 0.  1.
          1   -1    0    0    0  501  0.00000000000E+00 -0.00000000000E+00 -0.71371098061E+03  0.71371098062E+03  0.50400000000E-02 0.  1.
          2    1    1    2    0  502 -0.13566787934E+02 -0.21518959721E+02 -0.12070733240E+03  0.12335875917E+03  0.25500000000E-02 0.  1.
         -2    1    1    2  502    0  0.13566787934E+02  0.21518959721E+02 -0.59140451160E+03  0.59195136600E+03  0.25500000000E-02 0.  1.
<mgrwt>
<rscale>  0 0.67566980E+02</rscale>
<asrwt>0</asrwt>
<pdfrwt beam="2">  1        1 0.10980144E+00 0.67566980E+02</pdfrwt>
<pdfrwt beam="1">  1       -1 0.24602220E-03 0.67566980E+02</pdfrwt>
<totfact> 0.31031253E+05</totfact>
</mgrwt>
</event>
<event>
 4    1  0.3883670E-002  0.4131493E+02  0.7818608E-02  0.1498752E+00
          1   -1    0    0    0  501  0.00000000000E+00  0.00000000000E+00  0.15403860645E+04  0.15403860645E+04  0.50400000000E-02 0. -1.
         -1   -1    0    0  501    0 -0.00000000000E+00 -0.00000000000E+00 -0.27700558992E+00  0.27705143647E+00  0.50400000000E-02 0. -1.
          2    1    1    2    0  502 -0.19786105048E+02 -0.37596996463E+01  0.94137104437E+03  0.94158646363E+03  0.25500000000E-02 0.  1.
         -2    1    1    2  502    0  0.19786105048E+02  0.37596996463E+01  0.59873801456E+03  0.59907665234E+03  0.25500000000E-02 0.  1.
<mgrwt>
<rscale>  0 0.41314931E+02</rscale>
<asrwt>0</asrwt>
<pdfrwt beam="1">  1        1 0.23698489E+00 0.41314931E+02</pdfrwt>
<pdfrwt beam="2">  1       -1 0.42619338E-04 0.41314931E+02</pdfrwt>
<totfact> 0.81182230E+05</totfact>
</mgrwt>
</event>
<event>
 4    1  0.3883670E-002  0.4400943E+02  0.7818608E-02  0.1480622E+00
          1   -1    0    0    0  501  0.00000000000E+00  0.00000000000E+00  0.28953469233E+03  0.28953469237E+03  0.50400000000E-02 0.  1.
         -1   -1    0    0  501    0 -0.00000000000E+00 -0.00000000000E+00 -0.16723607767E+01  0.16723683712E+01  0.50400000000E-02 0.  1.
          2    1    1    2    0  502  0.21570113907E+02  0.41575266692E+01  0.15243777788E+03  0.15401243772E+03  0.25500000000E-02 0.  1.
         -2    1    1    2  502    0 -0.21570113907E+02 -0.41575266692E+01  0.13542455368E+03  0.13719462302E+03  0.25500000000E-02 0.  1.
<mgrwt>
<rscale>  0 0.44009434E+02</rscale>
<asrwt>0</asrwt>
<pdfrwt beam="1">  1        1 0.44543744E-01 0.44009434E+02</pdfrwt>
<pdfrwt beam="2">  1       -1 0.25728718E-03 0.44009434E+02</pdfrwt>
<totfact> 0.82269359E+05</totfact>
</mgrwt>
</event>
<event>
 4    1  0.3883670E-002  0.5543182E+02  0.7818608E-02  0.1418068E+00
         -1   -1    0    0  501    0 -0.00000000000E+00  0.00000000000E+00  0.12668799112E+03  0.12668799122E+03  0.50400000000E-02 0. -1.
          1   -1    0    0    0  501  0.00000000000E+00 -0.00000000000E+00 -0.60634911488E+01  0.60634932435E+01  0.50400000000E-02 0. -1.
          2    1    1    2    0  502 -0.48532697261E+01  0.26671097675E+02  0.46498662587E+02  0.53824040234E+02  0.25500000000E-02 0.  1.
         -2    1    1    2  502    0  0.48532697261E+01 -0.26671097675E+02  0.74125837386E+02  0.78927444231E+02  0.25500000000E-02 0.  1.
<mgrwt>
<rscale>  0 0.55431820E+02</rscale>
<asrwt>0</asrwt>
<pdfrwt beam="2">  1        1 0.93284491E-03 0.55431820E+02</pdfrwt>
<pdfrwt beam="1">  1       -1 0.19490461E-01 0.55431820E+02</pdfrwt>
<totfact> 0.27593820E+05</totfact>
</mgrwt>
</event>
<event>
 4    1  0.3883670E-002  0.4731125E+02  0.7818608E-02  0.1460408E+00
         -1   -1    0    0  501    0 -0.00000000000E+00  0.00000000000E+00  0.38865479568E+03  0.38865479571E+03  0.50400000000E-02 0.  1.
          1   -1    0    0    0  501  0.00000000000E+00 -0.00000000000E+00 -0.14398044660E+01  0.14398132871E+01  0.50400000000E-02 0.  1.
          2    1    1    2    0  502  0.16681351036E+02  0.16752740851E+02  0.20034057758E+03  0.20173068390E+03  0.25500000000E-02 0.  1.
         -2    1    1    2  502    0 -0.16681351036E+02 -0.16752740851E+02  0.18687441364E+03  0.18836392510E+03  0.25500000000E-02 0.  1.
<mgrwt>
<rscale>  0 0.47311252E+02</rscale>
<asrwt>0</asrwt>
<pdfrwt beam="2">  1        1 0.22150864E-03 0.47311252E+02</pdfrwt>
<pdfrwt beam="1">  1       -1 0.59793160E-01 0.47311252E+02</pdfrwt>
<totfact> 0.28718253E+05</totfact>
</mgrwt>
</event>
<event>
 4    1  0.3883670E-002  0.4378597E+02  0.7818608E-02  0.1482066E+00
          1   -1    0    0    0  501  0.00000000000E+00  0.00000000000E+00  0.58257253547E+01  0.58257275348E+01  0.50400000000E-02 0. -1.
         -1   -1    0    0  501    0 -0.00000000000E+00 -0.00000000000E+00 -0.82273471686E+02  0.82273471841E+02  0.50400000000E-02 0. -1.
          2    1    1    2    0  502 -0.16993259502E+02 -0.11789461814E+02 -0.23779084805E+02  0.31515189339E+02  0.25500000000E-02 0. -1.
         -2    1    1    2  502    0  0.16993259502E+02  0.11789461814E+02 -0.52668661526E+02  0.56584010037E+02  0.25500000000E-02 0. -1.
<mgrwt>
<rscale>  0 0.43785968E+02</rscale>
<asrwt>0</asrwt>
<pdfrwt beam="1">  1        1 0.89626568E-03 0.43785968E+02</pdfrwt>
<pdfrwt beam="2">  1       -1 0.12657457E-01 0.43785968E+02</pdfrwt>
<totfact> 0.53146018E+05</totfact>
</mgrwt>
</event>
<event>
 4    1  0.3883670E-002  0.5481659E+02  0.7818608E-02  0.1420968E+00
         -1   -1    0    0  501    0 -0.00000000000E+00  0.00000000000E+00  0.35979068452E+02  0.35979068805E+02  0.50400000000E-02 0. -1.
          1   -1    0    0    0  501  0.00000000000E+00 -0.00000000000E+00 -0.20879208893E+02  0.20879209502E+02  0.50400000000E-02 0. -1.
          2    1    1    2    0  502 -0.22168432932E+02 -0.15437220610E+02  0.12355783170E+02  0.29705430195E+02  0.25500000000E-02 0.  1.
         -2    1    1    2  502    0  0.22168432932E+02  0.15437220610E+02  0.27440763892E+01  0.27152848112E+02  0.25500000000E-02 0.  1.
<mgrwt>
<rscale>  0 0.54816586E+02</rscale>
<asrwt>0</asrwt>
<pdfrwt beam="2">  1        1 0.32121861E-02 0.54816586E+02</pdfrwt>
<pdfrwt beam="1">  1       -1 0.55352413E-02 0.54816586E+02</pdfrwt>
<totfact> 0.33749435E+05</totfact>
</mgrwt>
</event>
<event>
 4    1  0.3883670E-002  0.5917270E+02  0.7818608E-02  0.1401337E+00
          1   -1    0    0    0  501  0.00000000000E+00  0.00000000000E+00  0.22202088131E+04  0.22202088131E+04  0.50400000000E-02 0. -1.
         -1   -1    0    0  501    0 -0.00000000000E+00 -0.00000000000E+00 -0.39424960622E+00  0.39428182003E+00  0.50400000000E-02 0. -1.
          2    1    1    2    0  502  0.13507101787E+02 -0.19636778843E+02  0.17677710809E+04  0.17679317406E+04  0.25500000000E-02 0.  1.
         -2    1    1    2  502    0 -0.13507101787E+02  0.19636778843E+02  0.45204348258E+03  0.45267135433E+03  0.25500000000E-02 0.  1.
<mgrwt>
<rscale>  0 0.59172704E+02</rscale>
<asrwt>0</asrwt>
<pdfrwt beam="1">  1        1 0.34156274E+00 0.59172704E+02</pdfrwt>
<pdfrwt beam="2">  1       -1 0.60657658E-04 0.59172704E+02</pdfrwt>
<totfact> 0.20688089E+05</totfact>
</mgrwt>
</event>
<event>
 4    1  0.3883670E-002  0.4578231E+02  0.7818608E-02  0.1469516E+00
          1   -1    0    0    0  501  0.00000000000E+00  0.00000000000E+00  0.66073235309E+01  0.66073254531E+01  0.50400000000E-02 0.  1.
         -1   -1    0    0  501    0 -0.00000000000E+00 -0.00000000000E+00 -0.79306676038E+02  0.79306676198E+02  0.50400000000E-02 0.  1.
          2    1    1    2    0  502  0.15764982107E+02  0.14438976138E+02 -0.20990811705E+02  0.29960521946E+02  0.25500000000E-02 0.  1.
         -2    1    1    2  502    0 -0.15764982107E+02 -0.14438976138E+02 -0.51708540801E+02  0.55953479704E+02  0.25500000000E-02 0.  1.
<mgrwt>
<rscale>  0 0.45782309E+02</rscale>
<asrwt>0</asrwt>
<pdfrwt beam="1">  1        1 0.10165115E-02 0.45782309E+02</pdfrwt>
<pdfrwt beam="2">  1       -1 0.12201027E-01 0.45782309E+02</pdfrwt>
<totfact> 0.47906252E+05</totfact>
</mgrwt>
</event>
<event>
 4    1  0.3883670E-002  0.6676798E+02  0.7818608E-02  0.1371442E+00
          1   -1    0    0    0  501  0.00000000000E+00  0.00000000000E+00  0.14698170028E+04  0.14698170029E+04  0.50400000000E-02 0. -1.
         -1   -1    0    0  501    0 -0.00000000000E+00 -0.00000000000E+00 -0.75824289973E+00  0.75825964985E+00  0.50400000000E-02 0. -1.
          2    1    1    2    0  502  0.95884497687E+01  0.31118571654E+02  0.89666021075E+03  0.89725126772E+03  0.25500000000E-02 0. -1.
         -2    1    1    2  502    0 -0.95884497687E+01 -0.31118571654E+02  0.57239854920E+03  0.57332399479E+03  0.25500000000E-02 0. -1.
<mgrwt>
<rscale>  0 0.66767975E+02</rscale>
<asrwt>0</asrwt>
<pdfrwt beam="1">  1        1 0.22612401E+00 0.66767975E+02</pdfrwt>
<pdfrwt beam="2">  1       -1 0.11665491E-03 0.66767975E+02</pdfrwt>
<totfact> 0.25314992E+05</totfact>
</mgrwt>
</event>
<event>
 4    1  0.3883670E-002  0.4832816E+02  0.7818608E-02  0.1454573E+00
          1   -1    0    0    0  501  0.00000000000E+00  0.00000000000E+00  0.11938775630E+02  0.11938776693E+02  0.50400000000E-02 0. -1.
         -1   -1    0    0  501    0 -0.00000000000E+00 -0.00000000000E+00 -0.48908092059E+02  0.48908092318E+02  0.50400000000E-02 0. -1.
          2    1    1    2    0  502  0.12803148882E+02  0.17178983073E+02 -0.44158343640E+01  0.21875504117E+02  0.25500000000E-02 0.  1.
         -2    1    1    2  502    0 -0.12803148882E+02 -0.17178983073E+02 -0.32553482065E+02  0.38971364895E+02  0.25500000000E-02 0.  1.
<mgrwt>
<rscale>  0 0.48328161E+02</rscale>
<asrwt>0</asrwt>
<pdfrwt beam="1">  1        1 0.18367348E-02 0.48328161E+02</pdfrwt>
<pdfrwt beam="2">  1       -1 0.75243219E-02 0.48328161E+02</pdfrwt>
<totfact> 0.44531122E+05</totfact>
</mgrwt>
</event>
<event>
 4    1  0.3883670E-002  0.5110897E+02  0.7818608E-02  0.1439450E+00
         -1   -1    0    0  501    0 -0.00000000000E+00  0.00000000000E+00  0.11368137069E+01  0.11368248791E+01  0.50400000000E-02 0.  1.
          1   -1    0    0    0  501  0.00000000000E+00 -0.00000000000E+00 -0.57443746829E+03  0.57443746831E+03  0.50400000000E-02 0.  1.
          2    1    1    2    0  502 -0.38205430809E+01  0.25229268892E+02 -0.30225112537E+03  0.30332631827E+03  0.25500000000E-02 0.  1.
         -2    1    1    2  502    0  0.38205430809E+01 -0.25229268892E+02 -0.27104952921E+03  0.27224797493E+03  0.25500000000E-02 0.  1.
<mgrwt>
<rscale>  0 0.51108966E+02</rscale>
<asrwt>0</asrwt>
<pdfrwt beam="2">  1        1 0.88374764E-01 0.51108966E+02</pdfrwt>
<pdfrwt beam="1">  1       -1 0.17489574E-03 0.51108966E+02</pdfrwt>
<totfact> 0.62468380E+05</totfact>
</mgrwt>
</event>
<event>
 4    1  0.3883670E-002  0.5821062E+02  0.7818608E-02  0.1405498E+00
         -1   -1    0    0  501    0 -0.00000000000E+00  0.00000000000E+00  0.54040805706E+01  0.54040829208E+01  0.50400000000E-02 0.  1.
          1   -1    0    0    0  501  0.00000000000E+00 -0.00000000000E+00 -0.15675543036E+03  0.15675543044E+03  0.50400000000E-02 0.  1.
          2    1    1    2    0  502 -0.27135427239E+02 -0.64019988006E+01 -0.98949867866E+02  0.10280269139E+03  0.25500000000E-02 0.  1.
         -2    1    1    2  502    0  0.27135427239E+02  0.64019988006E+01 -0.52401481918E+02  0.59356821965E+02  0.25500000000E-02 0.  1.
<mgrwt>
<rscale>  0 0.58210624E+02</rscale>
<asrwt>0</asrwt>
<pdfrwt beam="2">  1        1 0.24116217E-01 0.58210624E+02</pdfrwt>
<pdfrwt beam="1">  1       -1 0.83139732E-03 0.58210624E+02</pdfrwt>
<totfact> 0.36708879E+05</totfact>
</mgrwt>
</event>
<event>
 4    1  0.3883670E-002  0.7809493E+02  0.7818608E-02  0.1334546E+00
         -1   -1    0    0  501    0 -0.00000000000E+00  0.00000000000E+00  0.24413713447E+02  0.24413713968E+02  0.50400000000E-02 0.  1.
          1   -1    0    0    0  501  0.00000000000E+00 -0.00000000000E+00 -0.62452790032E+02  0.62452790235E+02  0.50400000000E-02 0.  1.
          2    1    1    2    0  502  0.18803079958E+02 -0.17834147915E+02  0.13468793278E+02  0.29206524043E+02  0.25500000000E-02 0. -1.
         -2    1    1    2  502    0 -0.18803079958E+02  0.17834147915E+02 -0.51507869863E+02  0.57659980160E+02  0.25500000000E-02 0. -1.
<mgrwt>
<rscale>  0 0.78094931E+02</rscale>
<asrwt>0</asrwt>
<pdfrwt beam="2">  1        1 0.96081215E-02 0.78094931E+02</pdfrwt>
<pdfrwt beam="1">  1       -1 0.37559560E-02 0.78094931E+02</pdfrwt>
<totfact> 0.14814334E+05</totfact>
</mgrwt>
</event>
<event>
 4    1  0.3883670E-002  0.7623774E+02  0.7818608E-02  0.1340080E+00
          1   -1    0    0    0  501  0.00000000000E+00  0.00000000000E+00  0.10704784839E+03  0.10704784851E+03  0.50400000000E-02 0. -1.
         -1   -1    0    0  501    0 -0.00000000000E+00 -0.00000000000E+00 -0.13573820186E+02  0.13573821122E+02  0.50400000000E-02 0. -1.
          2    1    1    2    0  502  0.11875929141E+02 -0.29394292571E+02  0.80224891309E+02  0.86261783663E+02  0.25500000000E-02 0.  1.
         -2    1    1    2  502    0 -0.11875929141E+02  0.29394292571E+02  0.13249136894E+02  0.34359885967E+02  0.25500000000E-02 0.  1.
<mgrwt>
<rscale>  0 0.76237742E+02</rscale>
<asrwt>0</asrwt>
<pdfrwt beam="1">  1        1 0.16468900E-01 0.76237742E+02</pdfrwt>
<pdfrwt beam="2">  1       -1 0.20882801E-02 0.76237742E+02</pdfrwt>
<totfact> 0.17094459E+05</totfact>
</mgrwt>
</event>
<event>
 4    1  0.3883670E-002  0.5174072E+02  0.7818608E-02  0.1436173E+00
         -1   -1    0    0  501    0 -0.00000000000E+00  0.00000000000E+00  0.66258545231E+00  0.66260462058E+00  0.50400000000E-02 0.  1.
          1   -1    0    0    0  501  0.00000000000E+00 -0.00000000000E+00 -0.10100822918E+04  0.10100822918E+04  0.50400000000E-02 0.  1.
          2    1    1    2    0  502 -0.24021599453E+02  0.94405218168E+01 -0.53918658060E+03  0.53980397312E+03  0.25500000000E-02 0.  1.
         -2    1    1    2  502    0  0.24021599453E+02 -0.94405218168E+01 -0.47023312576E+03  0.47094092332E+03  0.25500000000E-02 0.  1.
<mgrwt>
<rscale>  0 0.51740720E+02</rscale>
<asrwt>0</asrwt>
<pdfrwt beam="2">  1        1 0.15539604E+00 0.51740720E+02</pdfrwt>
<pdfrwt beam="1">  1       -1 0.10193851E-03 0.51740720E+02</pdfrwt>
<totfact> 0.58129453E+05</totfact>
</mgrwt>
</event>
<event>
 4    1  0.3883670E-002  0.1378014E+03  0.7818608E-02  0.1216318E+00
          1   -1    0    0    0  501  0.00000000000E+00  0.00000000000E+00  0.24043982125E+03  0.24043982130E+03  0.50400000000E-02 0.  1.
         -1   -1    0    0  501    0 -0.00000000000E+00 -0.00000000000E+00 -0.19744263359E+02  0.19744264002E+02  0.50400000000E-02 0.  1.
          2    1    1    2    0  502 -0.30223589880E+01 -0.64307138290E+02  0.63992316991E+02  0.90772018427E+02  0.25500000000E-02 0.  1.
         -2    1    1    2  502    0  0.30223589880E+01  0.64307138290E+02  0.15670324090E+03  0.16941206688E+03  0.25500000000E-02 0.  1.
<mgrwt>
<rscale>  0 0.13780141E+03</rscale>
<asrwt>0</asrwt>
<pdfrwt beam="1">  1        1 0.36990740E-01 0.13780141E+03</pdfrwt>
<pdfrwt beam="2">  1       -1 0.30375792E-02 0.13780141E+03</pdfrwt>
<totfact> 0.39640752E+04</totfact>
</mgrwt>
</event>
<event>
 4    1  0.3883670E-002  0.5125720E+02  0.7818608E-02  0.1438676E+00
         -1   -1    0    0  501    0 -0.00000000000E+00  0.00000000000E+00  0.10838331308E+01  0.10838448491E+01  0.50400000000E-02 0. -1.
          1   -1    0    0    0  501  0.00000000000E+00 -0.00000000000E+00 -0.60601733311E+03  0.60601733314E+03  0.50400000000E-02 0. -1.
          2    1    1    2    0  502  0.80910047576E+01  0.21880680445E+02 -0.42814756004E+03  0.42878265090E+03  0.25500000000E-02 0.  1.
         -2    1    1    2  502    0 -0.80910047576E+01 -0.21880680445E+02 -0.17678593994E+03  0.17831852708E+03  0.25500000000E-02 0.  1.
<mgrwt>
<rscale>  0 0.51257203E+02</rscale>
<asrwt>0</asrwt>
<pdfrwt beam="2">  1        1 0.93233166E-01 0.51257203E+02</pdfrwt>
<pdfrwt beam="1">  1       -1 0.16674495E-03 0.51257203E+02</pdfrwt>
<totfact> 0.62214820E+05</totfact>
</mgrwt>
</event>
<event>
 4    1  0.3883670E-002  0.1024599E+03  0.7818608E-02  0.1275206E+00
         -1   -1    0    0  501    0 -0.00000000000E+00  0.00000000000E+00  0.10448897722E+02  0.10448898937E+02  0.50400000000E-02 0.  1.
          1   -1    0    0    0  501  0.00000000000E+00 -0.00000000000E+00 -0.25117566619E+03  0.25117566624E+03  0.50400000000E-02 0.  1.
          2    1    1    2    0  502  0.32598746581E+02  0.30516479837E+02 -0.18448329772E+03  0.18981048697E+03  0.25500000000E-02 0. -1.
         -2    1    1    2  502    0 -0.32598746581E+02 -0.30516479837E+02 -0.56243470746E+02  0.71814078204E+02  0.25500000000E-02 0. -1.
<mgrwt>
<rscale>  0 0.10245992E+03</rscale>
<asrwt>0</asrwt>
<pdfrwt beam="2">  1        1 0.38642406E-01 0.10245992E+03</pdfrwt>
<pdfrwt beam="1">  1       -1 0.16075230E-02 0.10245992E+03</pdfrwt>
<totfact> 0.90447601E+04</totfact>
</mgrwt>
</event>
<event>
 4    1  0.3883670E-002  0.1165040E+03  0.7818608E-02  0.1248978E+00
         -1   -1    0    0  501    0 -0.00000000000E+00  0.00000000000E+00  0.15156367061E+02  0.15156367899E+02  0.50400000000E-02 0.  1.
          1   -1    0    0    0  501  0.00000000000E+00 -0.00000000000E+00 -0.22388561703E+03  0.22388561709E+03  0.50400000000E-02 0.  1.
          2    1    1    2    0  502 -0.20770138096E+02 -0.54038640287E+02 -0.11761727151E+03  0.13109308085E+03  0.25500000000E-02 0.  1.
         -2    1    1    2  502    0  0.20770138096E+02  0.54038640287E+02 -0.91111978457E+02  0.10794890414E+03  0.25500000000E-02 0.  1.
<mgrwt>
<rscale>  0 0.11650395E+03</rscale>
<asrwt>0</asrwt>
<pdfrwt beam="2">  1        1 0.34443939E-01 0.11650395E+03</pdfrwt>
<pdfrwt beam="1">  1       -1 0.23317490E-02 0.11650395E+03</pdfrwt>
<totfact> 0.62227279E+04</totfact>
</mgrwt>
</event>
<event>
 4    1  0.3883670E-002  0.5522659E+02  0.7818608E-02  0.1419030E+00
         -1   -1    0    0  501    0 -0.00000000000E+00  0.00000000000E+00  0.54419069086E+00  0.54421402923E+00  0.50400000000E-02 0.  1.
          1   -1    0    0    0  501  0.00000000000E+00 -0.00000000000E+00 -0.14011222763E+04  0.14011222763E+04  0.50400000000E-02 0.  1.
          2    1    1    2    0  502 -0.17483593273E+02  0.17151894867E+02 -0.10239553503E+04  0.10242482233E+04  0.25500000000E-02 0. -1.
         -2    1    1    2  502    0  0.17483593273E+02 -0.17151894867E+02 -0.37662273527E+03  0.37741826700E+03  0.25500000000E-02 0. -1.
<mgrwt>
<rscale>  0 0.55226590E+02</rscale>
<asrwt>0</asrwt>
<pdfrwt beam="2">  1        1 0.21555439E+00 0.55226590E+02</pdfrwt>
<pdfrwt beam="1">  1       -1 0.83724562E-04 0.55226590E+02</pdfrwt>
<totfact> 0.42468135E+05</totfact>
</mgrwt>
</event>
<event>
 4    1  0.3883670E-002  0.7028777E+02  0.7818608E-02  0.1359117E+00
         -1   -1    0    0  501    0 -0.00000000000E+00  0.00000000000E+00  0.11978195843E+03  0.11978195853E+03  0.50400000000E-02 0. -1.
          1   -1    0    0    0  501  0.00000000000E+00 -0.00000000000E+00 -0.10311174626E+02  0.10311175858E+02  0.50400000000E-02 0. -1.
          2    1    1    2    0  502  0.22140144927E+02  0.14103560684E+01  0.42872786074E+01  0.22595483752E+02  0.25500000000E-02 0.  1.
         -2    1    1    2  502    0 -0.22140144927E+02 -0.14103560684E+01  0.10518350519E+03  0.10749765064E+03  0.25500000000E-02 0.  1.
<mgrwt>
<rscale>  0 0.70287774E+02</rscale>
<asrwt>0</asrwt>
<pdfrwt beam="2">  1        1 0.15863346E-02 0.70287774E+02</pdfrwt>
<pdfrwt beam="1">  1       -1 0.18427994E-01 0.70287774E+02</pdfrwt>
<totfact> 0.15320333E+05</totfact>
</mgrwt>
</event>
<event>
 4    1  0.3883670E-002  0.1210604E+03  0.7818608E-02  0.1241358E+00
         -1   -1    0    0  501    0 -0.00000000000E+00  0.00000000000E+00  0.14925484876E+03  0.14925484884E+03  0.50400000000E-02 0.  1.
          1   -1    0    0    0  501  0.00000000000E+00 -0.00000000000E+00 -0.24547961249E+02  0.24547961767E+02  0.50400000000E-02 0.  1.
          2    1    1    2    0  502  0.15221115256E+00  0.53952134919E+02  0.22956213991E+02  0.58633128843E+02  0.25500000000E-02 0. -1.
         -2    1    1    2  502    0 -0.15221115256E+00 -0.53952134919E+02  0.10175067351E+03  0.11516968176E+03  0.25500000000E-02 0. -1.
<mgrwt>
<rscale>  0 0.12106035E+03</rscale>
<asrwt>0</asrwt>
<pdfrwt beam="2">  1        1 0.37766095E-02 0.12106035E+03</pdfrwt>
<pdfrwt beam="1">  1       -1 0.22962284E-01 0.12106035E+03</pdfrwt>
<totfact> 0.35713814E+04</totfact>
</mgrwt>
</event>
<event>
 4    1  0.3883670E-002  0.7921305E+02  0.7818608E-02  0.1331300E+00
         -1   -1    0    0  501    0 -0.00000000000E+00  0.00000000000E+00  0.74371218693E+00  0.74372926431E+00  0.50400000000E-02 0. -1.
          1   -1    0    0    0  501  0.00000000000E+00 -0.00000000000E+00 -0.21092282614E+04  0.21092282614E+04  0.50400000000E-02 0. -1.
          2    1    1    2    0  502 -0.27830895480E+02 -0.28124796228E+02 -0.10072387508E+04  0.10080156070E+04  0.25500000000E-02 0. -1.
         -2    1    1    2  502    0  0.27830895480E+02  0.28124796228E+02 -0.11012457984E+04  0.11019563836E+04  0.25500000000E-02 0. -1.
<mgrwt>
<rscale>  0 0.79213049E+02</rscale>
<asrwt>0</asrwt>
<pdfrwt beam="2">  1        1 0.32449187E+00 0.79213049E+02</pdfrwt>
<pdfrwt beam="1">  1       -1 0.11442026E-03 0.79213049E+02</pdfrwt>
<totfact> 0.10627210E+05</totfact>
</mgrwt>
</event>
<event>
 4    1  0.3883670E-002  0.7752002E+02  0.7818608E-02  0.1336240E+00
          1   -1    0    0    0  501  0.00000000000E+00  0.00000000000E+00  0.88587646895E+03  0.88587646897E+03  0.50400000000E-02 0. -1.
         -1   -1    0    0  501    0 -0.00000000000E+00 -0.00000000000E+00 -0.16958741396E+01  0.16958816288E+01  0.50400000000E-02 0. -1.
          2    1    1    2    0  502 -0.29951794620E+02 -0.24381262475E+02  0.47968674011E+03  0.48123894751E+03  0.25500000000E-02 0.  1.
         -2    1    1    2  502    0  0.29951794620E+02  0.24381262475E+02  0.40449385470E+03  0.40633340308E+03  0.25500000000E-02 0.  1.
<mgrwt>
<rscale>  0 0.77520019E+02</rscale>
<asrwt>0</asrwt>
<pdfrwt beam="1">  1        1 0.13628850E+00 0.77520019E+02</pdfrwt>
<pdfrwt beam="2">  1       -1 0.26090464E-03 0.77520019E+02</pdfrwt>
<totfact> 0.21356171E+05</totfact>
</mgrwt>
</event>
<event>
 4    1  0.3883670E-002  0.5483010E+02  0.7818608E-02  0.1420904E+00
          1   -1    0    0    0  501  0.00000000000E+00  0.00000000000E+00  0.61107799442E+03  0.61107799445E+03  0.50400000000E-02 0.  1.
         -1   -1    0    0  501    0 -0.00000000000E+00 -0.00000000000E+00 -0.12299278678E+01  0.12299381942E+01  0.50400000000E-02 0.  1.
          2    1    1    2    0  502  0.90591873186E+01 -0.18304197047E+02  0.50915944607E+03  0.50956889037E+03  0.25500000000E-02 0.  1.
         -2    1    1    2  502    0 -0.90591873186E+01  0.18304197047E+02  0.10068862049E+03  0.10273904227E+03  0.25500000000E-02 0.  1.
<mgrwt>
<rscale>  0 0.54830102E+02</rscale>
<asrwt>0</asrwt>
<pdfrwt beam="1">  1        1 0.94012294E-01 0.54830102E+02</pdfrwt>
<pdfrwt beam="2">  1       -1 0.18921988E-03 0.54830102E+02</pdfrwt>
<totfact> 0.52597793E+05</totfact>
</mgrwt>
</event>
<event>
 4    1  0.3883670E-002  0.5103178E+02  0.7818608E-02  0.1439855E+00
         -1   -1    0    0  501    0 -0.00000000000E+00  0.00000000000E+00  0.13547916692E+01  0.13548010439E+01  0.50400000000E-02 0. -1.
          1   -1    0    0    0  501  0.00000000000E+00 -0.00000000000E+00 -0.48055969455E+03  0.48055969458E+03  0.50400000000E-02 0. -1.
          2    1    1    2    0  502  0.16867820896E+01 -0.24620186371E+02 -0.30084775843E+03  0.30185819944E+03  0.25500000000E-02 0.  1.
         -2    1    1    2  502    0 -0.16867820896E+01  0.24620186371E+02 -0.17835714445E+03  0.18005629618E+03  0.25500000000E-02 0.  1.
<mgrwt>
<rscale>  0 0.51031776E+02</rscale>
<asrwt>0</asrwt>
<pdfrwt beam="2">  1        1 0.73932126E-01 0.51031776E+02</pdfrwt>
<pdfrwt beam="1">  1       -1 0.20843059E-03 0.51031776E+02</pdfrwt>
<totfact> 0.61657720E+05</totfact>
</mgrwt>
</event>
<event>
 4    1  0.3883670E-002  0.5988129E+02  0.7818608E-02  0.1398331E+00
         -1   -1    0    0  501    0 -0.00000000000E+00  0.00000000000E+00  0.11232256450E+01  0.11232369524E+01  0.50400000000E-02 0.  1.
          1   -1    0    0    0  501  0.00000000000E+00 -0.00000000000E+00 -0.79809213948E+03  0.79809213949E+03  0.50400000000E-02 0.  1.
          2    1    1    2    0  502 -0.29829105816E+02 -0.24317681971E+01 -0.41006630188E+03  0.41115697853E+03  0.25500000000E-02 0.  1.
         -2    1    1    2  502    0  0.29829105816E+02  0.24317681971E+01 -0.38690261195E+03  0.38805839791E+03  0.25500000000E-02 0.  1.
<mgrwt>
<rscale>  0 0.59881285E+02</rscale>
<asrwt>0</asrwt>
<pdfrwt beam="2">  1        1 0.12278295E+00 0.59881285E+02</pdfrwt>
<pdfrwt beam="1">  1       -1 0.17280545E-03 0.59881285E+02</pdfrwt>
<totfact> 0.41962109E+05</totfact>
</mgrwt>
</event>
<event>
 4    1  0.3883670E-002  0.9179660E+02  0.7818608E-02  0.1298558E+00
          1   -1    0    0    0  501  0.00000000000E+00  0.00000000000E+00  0.79350899463E+03  0.79350899464E+03  0.50400000000E-02 0.  1.
         -1   -1    0    0  501    0 -0.00000000000E+00 -0.00000000000E+00 -0.26548557779E+01  0.26548605619E+01  0.50400000000E-02 0.  1.
          2    1    1    2    0  502 -0.22896598049E+02  0.31371268157E+02  0.60756325107E+03  0.60880334651E+03  0.25500000000E-02 0.  1.
         -2    1    1    2  502    0  0.22896598049E+02 -0.31371268157E+02  0.18329088778E+03  0.18736050870E+03  0.25500000000E-02 0.  1.
<mgrwt>
<rscale>  0 0.91796598E+02</rscale>
<asrwt>0</asrwt>
<pdfrwt beam="1">  1        1 0.12207833E+00 0.91796598E+02</pdfrwt>
<pdfrwt beam="2">  1       -1 0.40843964E-03 0.91796598E+02</pdfrwt>
<totfact> 0.13888523E+05</totfact>
</mgrwt>
</event>
<event>
 4    1  0.3883670E-002  0.7027162E+02  0.7818608E-02  0.1359172E+00
          1   -1    0    0    0  501  0.00000000000E+00  0.00000000000E+00  0.50754036103E+03  0.50754036105E+03  0.50400000000E-02 0. -1.
         -1   -1    0    0  501    0 -0.00000000000E+00 -0.00000000000E+00 -0.24323660710E+01  0.24323712926E+01  0.50400000000E-02 0. -1.
          2    1    1    2    0  502 -0.95680153241E+01 -0.29685444691E+02  0.36996602382E+03  0.37127837445E+03  0.25500000000E-02 0. -1.
         -2    1    1    2  502    0  0.95680153241E+01  0.29685444691E+02  0.13514197113E+03  0.13869435789E+03  0.25500000000E-02 0. -1.
<mgrwt>
<rscale>  0 0.70271624E+02</rscale>
<asrwt>0</asrwt>
<pdfrwt beam="1">  1        1 0.78083135E-01 0.70271624E+02</pdfrwt>
<pdfrwt beam="2">  1       -1 0.37421056E-03 0.70271624E+02</pdfrwt>
<totfact> 0.27565060E+05</totfact>
</mgrwt>
</event>
<event>
 4    1  0.3883670E-002  0.1359536E+03  0.7818608E-02  0.1218880E+00
         -1   -1    0    0  501    0 -0.00000000000E+00  0.00000000000E+00  0.12270594928E+02  0.12270595963E+02  0.50400000000E-02 0. -1.
          1   -1    0    0    0  501  0.00000000000E+00 -0.00000000000E+00 -0.37657877493E+03  0.37657877496E+03  0.50400000000E-02 0. -1.
          2    1    1    2    0  502  0.21939067558E+01 -0.24656249973E+02 -0.36322973649E+03  0.36407222548E+03  0.25500000000E-02 0. -1.
         -2    1    1    2  502    0 -0.21939067558E+01  0.24656249973E+02 -0.10784435143E+01  0.24777145447E+02  0.25500000000E-02 0. -1.
<mgrwt>
<rscale>  0 0.13595361E+03</rscale>
<asrwt>0</asrwt>
<pdfrwt beam="2">  1        1 0.57935187E-01 0.13595361E+03</pdfrwt>
<pdfrwt beam="1">  1       -1 0.18877842E-02 0.13595361E+03</pdfrwt>
<totfact> 0.45180414E+04</totfact>
</mgrwt>
</event>
<event>
 4    1  0.3883670E-002  0.4762086E+02  0.7818608E-02  0.1458613E+00
         -1   -1    0    0  501    0 -0.00000000000E+00  0.00000000000E+00  0.20178029732E+03  0.20178029739E+03  0.50400000000E-02 0. -1.
          1   -1    0    0    0  501  0.00000000000E+00 -0.00000000000E+00 -0.28096705628E+01  0.28096750832E+01  0.50400000000E-02 0. -1.
          2    1    1    2    0  502 -0.13557636468E+02 -0.19488884259E+02  0.91668416406E+02  0.94692791115E+02  0.25500000000E-02 0.  1.
         -2    1    1    2  502    0  0.13557636468E+02  0.19488884259E+02  0.10730221036E+03  0.10989718136E+03  0.25500000000E-02 0.  1.
<mgrwt>
<rscale>  0 0.47620862E+02</rscale>
<asrwt>0</asrwt>
<pdfrwt beam="2">  1        1 0.43225719E-03 0.47620862E+02</pdfrwt>
<pdfrwt beam="1">  1       -1 0.31043135E-01 0.47620862E+02</pdfrwt>
<totfact> 0.36072015E+05</totfact>
</mgrwt>
</event>
<event>
 4    1  0.3883670E-002  0.4465452E+02  0.7818608E-02  0.1476510E+00
          1   -1    0    0    0  501  0.00000000000E+00  0.00000000000E+00  0.17791226187E+04  0.17791226187E+04  0.50400000000E-02 0. -1.
         -1   -1    0    0  501    0 -0.00000000000E+00 -0.00000000000E+00 -0.28017529358E+00  0.28022062153E+00  0.50400000000E-02 0. -1.
          2    1    1    2    0  502  0.17141877995E+02 -0.14048038010E+02  0.78164541648E+03  0.78195955679E+03  0.25500000000E-02 0. -1.
         -2    1    1    2  502    0 -0.17141877995E+02  0.14048038010E+02  0.99719702693E+03  0.99744328254E+03  0.25500000000E-02 0. -1.
<mgrwt>
<rscale>  0 0.44654520E+02</rscale>
<asrwt>0</asrwt>
<pdfrwt beam="1">  1        1 0.27371017E+00 0.44654520E+02</pdfrwt>
<pdfrwt beam="2">  1       -1 0.43107537E-04 0.44654520E+02</pdfrwt>
<totfact> 0.58135758E+05</totfact>
</mgrwt>
</event>
<event>
 4    1  0.3883670E-002  0.4446783E+02  0.7818608E-02  0.1477691E+00
         -1   -1    0    0  501    0 -0.00000000000E+00  0.00000000000E+00  0.33633449566E+01  0.33633487328E+01  0.50400000000E-02 0. -1.
          1   -1    0    0    0  501  0.00000000000E+00 -0.00000000000E+00 -0.14698069472E+03  0.14698069481E+03  0.50400000000E-02 0. -1.
          2    1    1    2    0  502 -0.20010598883E+02 -0.95156584133E+01 -0.78020118462E+02  0.81105552917E+02  0.25500000000E-02 0.  1.
         -2    1    1    2  502    0  0.20010598883E+02  0.95156584133E+01 -0.65597231307E+02  0.69238490627E+02  0.25500000000E-02 0.  1.
<mgrwt>
<rscale>  0 0.44467834E+02</rscale>
<asrwt>0</asrwt>
<pdfrwt beam="2">  1        1 0.22612410E-01 0.44467834E+02</pdfrwt>
<pdfrwt beam="1">  1       -1 0.51743810E-03 0.44467834E+02</pdfrwt>
<totfact> 0.71555085E+05</totfact>
</mgrwt>
</event>
<event>
 4    1  0.3883670E-002  0.4776941E+02  0.7818608E-02  0.1457758E+00
         -1   -1    0    0  501    0 -0.00000000000E+00  0.00000000000E+00  0.19336914009E+00  0.19343481057E+00  0.50400000000E-02 0.  1.
          1   -1    0    0    0  501  0.00000000000E+00 -0.00000000000E+00 -0.29497063639E+04  0.29497063639E+04  0.50400000000E-02 0.  1.
          2    1    1    2    0  502 -0.16917280566E+01  0.23554248408E+02 -0.12536976295E+04  0.12539200177E+04  0.25500000000E-02 0.  1.
         -2    1    1    2  502    0  0.16917280566E+01 -0.23554248408E+02 -0.16958153653E+04  0.16959797810E+04  0.25500000000E-02 0.  1.
<mgrwt>
<rscale>  0 0.47769407E+02</rscale>
<asrwt>0</asrwt>
<pdfrwt beam="2">  1        1 0.45376496E+00 0.47769407E+02</pdfrwt>
<pdfrwt beam="1">  1       -1 0.29756513E-04 0.47769407E+02</pdfrwt>
<totfact> 0.17926571E+05</totfact>
</mgrwt>
</event>
<event>
 4    1  0.3883670E-002  0.5719138E+02  0.7818608E-02  0.1410011E+00
          1   -1    0    0    0  501  0.00000000000E+00  0.00000000000E+00  0.34260365900E+02  0.34260366271E+02  0.50400000000E-02 0. -1.
         -1   -1    0    0  501    0 -0.00000000000E+00 -0.00000000000E+00 -0.23867621243E+02  0.23867621775E+02  0.50400000000E-02 0. -1.
          2    1    1    2    0  502 -0.10970855156E+02 -0.25339831103E+02  0.12750913677E+02  0.30414675887E+02  0.25500000000E-02 0.  1.
         -2    1    1    2  502    0  0.10970855156E+02  0.25339831103E+02 -0.23581690201E+01  0.27713312159E+02  0.25500000000E-02 0.  1.
<mgrwt>
<rscale>  0 0.57191379E+02</rscale>
<asrwt>0</asrwt>
<pdfrwt beam="1">  1        1 0.52708256E-02 0.57191379E+02</pdfrwt>
<pdfrwt beam="2">  1       -1 0.36719418E-02 0.57191379E+02</pdfrwt>
<totfact> 0.31704727E+05</totfact>
</mgrwt>
</event>
<event>
 4    1  0.3883670E-002  0.6675296E+02  0.7818608E-02  0.1371496E+00
          1   -1    0    0    0  501  0.00000000000E+00  0.00000000000E+00  0.11328701589E+04  0.11328701589E+04  0.50400000000E-02 0.  1.
         -1   -1    0    0  501    0 -0.00000000000E+00 -0.00000000000E+00 -0.98332714465E+00  0.98334006072E+00  0.50400000000E-02 0.  1.
          2    1    1    2    0  502 -0.22443833050E+02 -0.24111012925E+01  0.14833742687E+03  0.15004509745E+03  0.25500000000E-02 0.  1.
         -2    1    1    2  502    0  0.22443833050E+02  0.24111012925E+01  0.98354940484E+03  0.98380840148E+03  0.25500000000E-02 0.  1.
<mgrwt>
<rscale>  0 0.66752957E+02</rscale>
<asrwt>0</asrwt>
<pdfrwt beam="1">  1        1 0.17428910E+00 0.66752957E+02</pdfrwt>
<pdfrwt beam="2">  1       -1 0.15128089E-03 0.66752957E+02</pdfrwt>
<totfact> 0.29396442E+05</totfact>
</mgrwt>
</event>
<event>
 4    1  0.3883670E-002  0.7695776E+02  0.7818608E-02  0.1337913E+00
          1   -1    0    0    0  501  0.00000000000E+00  0.00000000000E+00  0.19926806454E+03  0.19926806461E+03  0.50400000000E-02 0.  1.
         -1   -1    0    0  501    0 -0.00000000000E+00 -0.00000000000E+00 -0.74303125846E+01  0.74303142940E+01  0.50400000000E-02 0.  1.
          2    1    1    2    0  502  0.19666073067E+02  0.14483897077E+02  0.17577937674E+03  0.17746810135E+03  0.25500000000E-02 0. -1.
         -2    1    1    2  502    0 -0.19666073067E+02 -0.14483897077E+02  0.16058375221E+02  0.29230277550E+02  0.25500000000E-02 0. -1.
<mgrwt>
<rscale>  0 0.76957760E+02</rscale>
<asrwt>0</asrwt>
<pdfrwt beam="1">  1        1 0.30656621E-01 0.76957760E+02</pdfrwt>
<pdfrwt beam="2">  1       -1 0.11431253E-02 0.76957760E+02</pdfrwt>
<totfact> 0.18562943E+05</totfact>
</mgrwt>
</event>
<event>
 4    1  0.3883670E-002  0.4203508E+02  0.7818608E-02  0.1493748E+00
          1   -1    0    0    0  501  0.00000000000E+00  0.00000000000E+00  0.13225707161E+01  0.13225803192E+01  0.50400000000E-02 0.  1.
         -1   -1    0    0  501    0 -0.00000000000E+00 -0.00000000000E+00 -0.33399759273E+03  0.33399759277E+03  0.50400000000E-02 0.  1.
          2    1    1    2    0  502 -0.18708995593E+02 -0.95750935913E+01 -0.16767500972E+03  0.16898703449E+03  0.25500000000E-02 0. -1.
         -2    1    1    2  502    0  0.18708995593E+02  0.95750935913E+01 -0.16500001230E+03  0.16633313861E+03  0.25500000000E-02 0. -1.
<mgrwt>
<rscale>  0 0.42035083E+02</rscale>
<asrwt>0</asrwt>
<pdfrwt beam="1">  1        1 0.20347343E-03 0.42035083E+02</pdfrwt>
<pdfrwt beam="2">  1       -1 0.51384179E-01 0.42035083E+02</pdfrwt>
<totfact> 0.41099724E+05</totfact>
</mgrwt>
</event>
<event>
 4    1  0.3883670E-002  0.5199709E+02  0.7818608E-02  0.1434858E+00
         -1   -1    0    0  501    0 -0.00000000000E+00  0.00000000000E+00  0.45924636015E+02  0.45924636291E+02  0.50400000000E-02 0. -1.
          1   -1    0    0    0  501  0.00000000000E+00 -0.00000000000E+00 -0.14718121406E+02  0.14718122269E+02  0.50400000000E-02 0. -1.
          2    1    1    2    0  502  0.13793097258E+02  0.18676771916E+02  0.19597151015E+01  0.23300468471E+02  0.25500000000E-02 0.  1.
         -2    1    1    2  502    0 -0.13793097258E+02 -0.18676771916E+02  0.29246799508E+02  0.37342290089E+02  0.25500000000E-02 0.  1.
<mgrwt>
<rscale>  0 0.51997092E+02</rscale>
<asrwt>0</asrwt>
<pdfrwt beam="2">  1        1 0.22643264E-02 0.51997092E+02</pdfrwt>
<pdfrwt beam="1">  1       -1 0.70653288E-02 0.51997092E+02</pdfrwt>
<totfact> 0.37465962E+05</totfact>
</mgrwt>
</event>
<event>
 4    1  0.3883670E-002  0.7533540E+02  0.7818608E-02  0.1342836E+00
          1   -1    0    0    0  501  0.00000000000E+00  0.00000000000E+00  0.69626807833E+03  0.69626807834E+03  0.50400000000E-02 0.  1.
         -1   -1    0    0  501    0 -0.00000000000E+00 -0.00000000000E+00 -0.20377978427E+01  0.20378040753E+01  0.50400000000E-02 0.  1.
          2    1    1    2    0  502  0.35208246884E+02 -0.71254973214E+01  0.24205581657E+03  0.24470678721E+03  0.25500000000E-02 0. -1.
         -2    1    1    2  502    0 -0.35208246884E+02  0.71254973214E+01  0.45217446391E+03  0.45359909521E+03  0.25500000000E-02 0. -1.
<mgrwt>
<rscale>  0 0.75335404E+02</rscale>
<asrwt>0</asrwt>
<pdfrwt beam="1">  1        1 0.10711822E+00 0.75335404E+02</pdfrwt>
<pdfrwt beam="2">  1       -1 0.31350769E-03 0.75335404E+02</pdfrwt>
<totfact> 0.23442676E+05</totfact>
</mgrwt>
</event>
<event>
 4    1  0.3883670E-002  0.1500597E+03  0.7818608E-02  0.1200400E+00
          1   -1    0    0    0  501  0.00000000000E+00  0.00000000000E+00  0.17243068817E+03  0.17243068824E+03  0.50400000000E-02 0.  1.
         -1   -1    0    0  501    0 -0.00000000000E+00 -0.00000000000E+00 -0.32647784673E+02  0.32647785062E+02  0.50400000000E-02 0.  1.
          2    1    1    2    0  502 -0.95353345217E+01  0.55511746566E+02  0.13763357711E+03  0.14871273706E+03  0.25500000000E-02 0.  1.
         -2    1    1    2  502    0  0.95353345217E+01 -0.55511746566E+02  0.21493263861E+01  0.56365736238E+02  0.25500000000E-02 0.  1.
<mgrwt>
<rscale>  0 0.15005972E+03</rscale>
<asrwt>0</asrwt>
<pdfrwt beam="1">  1        1 0.26527798E-01 0.15005972E+03</pdfrwt>
<pdfrwt beam="2">  1       -1 0.50227361E-02 0.15005972E+03</pdfrwt>
<totfact> 0.28897212E+04</totfact>
</mgrwt>
</event>
<event>
 4    1  0.3883670E-002  0.4159908E+02  0.7818608E-02  0.1496763E+00
          1   -1    0    0    0  501  0.00000000000E+00  0.00000000000E+00  0.25809672246E+02  0.25809672738E+02  0.50400000000E-02 0.  1.
         -1   -1    0    0  501    0 -0.00000000000E+00 -0.00000000000E+00 -0.16761962731E+02  0.16761963489E+02  0.50400000000E-02 0.  1.
          2    1    1    2    0  502  0.13916977217E+02  0.14669954469E+02  0.95091898665E+01  0.22345346661E+02  0.25500000000E-02 0.  1.
         -2    1    1    2  502    0 -0.13916977217E+02 -0.14669954469E+02 -0.46148035220E+00  0.20226289566E+02  0.25500000000E-02 0.  1.
<mgrwt>
<rscale>  0 0.41599076E+02</rscale>
<asrwt>0</asrwt>
<pdfrwt beam="1">  1        1 0.39707189E-02 0.41599076E+02</pdfrwt>
<pdfrwt beam="2">  1       -1 0.25787636E-02 0.41599076E+02</pdfrwt>
<totfact> 0.70255459E+05</totfact>
</mgrwt>
</event>
<event>
 4    1  0.3883670E-002  0.5371214E+02  0.7818608E-02  0.1426289E+00
          1   -1    0    0    0  501  0.00000000000E+00  0.00000000000E+00  0.10481321825E+03  0.10481321837E+03  0.50400000000E-02 0. -1.
         -1   -1    0    0  501    0 -0.00000000000E+00 -0.00000000000E+00 -0.68812734735E+01  0.68812753192E+01  0.50400000000E-02 0. -1.
          2    1    1    2    0  502  0.16114502395E+02 -0.19868995373E+02  0.31970658680E+02  0.40946027738E+02  0.25500000000E-02 0. -1.
         -2    1    1    2  502    0 -0.16114502395E+02  0.19868995373E+02  0.65961286094E+02  0.70748465950E+02  0.25500000000E-02 0. -1.
<mgrwt>
<rscale>  0 0.53712141E+02</rscale>
<asrwt>0</asrwt>
<pdfrwt beam="1">  1        1 0.16125110E-01 0.53712141E+02</pdfrwt>
<pdfrwt beam="2">  1       -1 0.10586577E-02 0.53712141E+02</pdfrwt>
<totfact> 0.42380215E+05</totfact>
</mgrwt>
</event>
<event>
 4    1  0.3883670E-002  0.4983375E+02  0.7818608E-02  0.1446240E+00
          1   -1    0    0    0  501  0.00000000000E+00  0.00000000000E+00  0.38976822351E+01  0.38976854937E+01  0.50400000000E-02 0. -1.
         -1   -1    0    0  501    0 -0.00000000000E+00 -0.00000000000E+00 -0.15928704597E+03  0.15928704605E+03  0.50400000000E-02 0. -1.
          2    1    1    2    0  502 -0.10978622382E+02 -0.22154173686E+02 -0.67594839367E+02  0.71974994801E+02  0.25500000000E-02 0. -1.
         -2    1    1    2  502    0  0.10978622382E+02  0.22154173686E+02 -0.87794524372E+02  0.91209736746E+02  0.25500000000E-02 0. -1.
<mgrwt>
<rscale>  0 0.49833746E+02</rscale>
<asrwt>0</asrwt>
<pdfrwt beam="1">  1        1 0.59964380E-03 0.49833746E+02</pdfrwt>
<pdfrwt beam="2">  1       -1 0.24505695E-01 0.49833746E+02</pdfrwt>
<totfact> 0.34246122E+05</totfact>
</mgrwt>
</event>
<event>
 4    1  0.3883670E-002  0.4321815E+02  0.7818608E-02  0.1485782E+00
          1   -1    0    0    0  501  0.00000000000E+00  0.00000000000E+00  0.29205388849E+01  0.29205432337E+01  0.50400000000E-02 0.  1.
         -1   -1    0    0  501    0 -0.00000000000E+00 -0.00000000000E+00 -0.15988546212E+03  0.15988546220E+03  0.50400000000E-02 0.  1.
          2    1    1    2    0  502  0.40997493857E+01 -0.20493515223E+02 -0.99170513458E+02  0.10134881774E+03  0.25500000000E-02 0.  1.
         -2    1    1    2  502    0 -0.40997493857E+01  0.20493515223E+02 -0.57794409778E+02  0.61457187695E+02  0.25500000000E-02 0.  1.
<mgrwt>
<rscale>  0 0.43218148E+02</rscale>
<asrwt>0</asrwt>
<pdfrwt beam="1">  1        1 0.44931414E-03 0.43218148E+02</pdfrwt>
<pdfrwt beam="2">  1       -1 0.24597757E-01 0.43218148E+02</pdfrwt>
<totfact> 0.48562951E+05</totfact>
</mgrwt>
</event>
<event>
 4    1  0.3883670E-002  0.4631797E+02  0.7818608E-02  0.1466278E+00
          1   -1    0    0    0  501  0.00000000000E+00  0.00000000000E+00  0.28425589373E+03  0.28425589378E+03  0.50400000000E-02 0.  1.
         -1   -1    0    0  501    0 -0.00000000000E+00 -0.00000000000E+00 -0.18868127225E+01  0.18868194539E+01  0.50400000000E-02 0.  1.
          2    1    1    2    0  502  0.20019568216E+02  0.43841447912E+01  0.20781731846E+03  0.20882538566E+03  0.25500000000E-02 0.  1.
         -2    1    1    2  502    0 -0.20019568216E+02 -0.43841447912E+01  0.74551762552E+02  0.77317327574E+02  0.25500000000E-02 0.  1.
<mgrwt>
<rscale>  0 0.46317971E+02</rscale>
<asrwt>0</asrwt>
<pdfrwt beam="1">  1        1 0.43731642E-01 0.46317971E+02</pdfrwt>
<pdfrwt beam="2">  1       -1 0.29027963E-03 0.46317971E+02</pdfrwt>
<totfact> 0.72299544E+05</totfact>
</mgrwt>
</event>
<event>
 4    1  0.3883670E-002  0.5198875E+02  0.7818608E-02  0.1434901E+00
          1   -1    0    0    0  501  0.00000000000E+00  0.00000000000E+00  0.24490273785E+03  0.24490273790E+03  0.50400000000E-02 0.  1.
         -1   -1    0    0  501    0 -0.00000000000E+00 -0.00000000000E+00 -0.27590829311E+01  0.27590875344E+01  0.50400000000E-02 0.  1.
          2    1    1    2    0  502  0.19192257404E+02  0.14121027803E+02  0.71574258283E+02  0.75436202355E+02  0.25500000000E-02 0. -1.
         -2    1    1    2  502    0 -0.19192257404E+02 -0.14121027803E+02  0.17056939663E+03  0.17222562308E+03  0.25500000000E-02 0. -1.
<mgrwt>
<rscale>  0 0.51988750E+02</rscale>
<asrwt>0</asrwt>
<pdfrwt beam="1">  1        1 0.37677348E-01 0.51988750E+02</pdfrwt>
<pdfrwt beam="2">  1       -1 0.42447462E-03 0.51988750E+02</pdfrwt>
<totfact> 0.52817266E+05</totfact>
</mgrwt>
</event>
<event>
 4    1  0.3883670E-002  0.6630811E+02  0.7818608E-02  0.1373117E+00
          1   -1    0    0    0  501  0.00000000000E+00  0.00000000000E+00  0.12531769844E+04  0.12531769844E+04  0.50400000000E-02 0. -1.
         -1   -1    0    0  501    0 -0.00000000000E+00 -0.00000000000E+00 -0.87711646856E+00  0.87713094862E+00  0.50400000000E-02 0. -1.
          2    1    1    2    0  502 -0.11887390237E+01 -0.32941368693E+02  0.55889898895E+03  0.55987018739E+03  0.25500000000E-02 0. -1.
         -2    1    1    2  502    0  0.11887390237E+01  0.32941368693E+02  0.69340087893E+03  0.69418392792E+03  0.25500000000E-02 0. -1.
<mgrwt>
<rscale>  0 0.66308107E+02</rscale>
<asrwt>0</asrwt>
<pdfrwt beam="1">  1        1 0.19279554E+00 0.66308107E+02</pdfrwt>
<pdfrwt beam="2">  1       -1 0.13494275E-03 0.66308107E+02</pdfrwt>
<totfact> 0.28552249E+05</totfact>
</mgrwt>
</event>
<event>
 4    1  0.3883670E-002  0.1598791E+03  0.7818608E-02  0.1188833E+00
         -1   -1    0    0  501    0 -0.00000000000E+00  0.00000000000E+00  0.16199816850E+04  0.16199816850E+04  0.50400000000E-02 0. -1.
          1   -1    0    0    0  501  0.00000000000E+00 -0.00000000000E+00 -0.39446911528E+01  0.39446943725E+01  0.50400000000E-02 0. -1.
          2    1    1    2    0  502 -0.53727209727E+02 -0.56887128537E+02  0.97416633147E+03  0.97730384213E+03  0.25500000000E-02 0. -1.
         -2    1    1    2  502    0  0.53727209727E+02  0.56887128537E+02  0.64187066239E+03  0.64662253727E+03  0.25500000000E-02 0. -1.
<mgrwt>
<rscale>  0 0.15987908E+03</rscale>
<asrwt>0</asrwt>
<pdfrwt beam="2">  1        1 0.60687584E-03 0.15987908E+03</pdfrwt>
<pdfrwt beam="1">  1       -1 0.24922794E+00 0.15987908E+03</pdfrwt>
<totfact> 0.25840105E+03</totfact>
</mgrwt>
</event>
<event>
 4    1  0.3883670E-002  0.5027798E+02  0.7818608E-02  0.1443848E+00
          1   -1    0    0    0  501  0.00000000000E+00  0.00000000000E+00  0.32931443633E+01  0.32931482201E+01  0.50400000000E-02 0.  1.
         -1   -1    0    0  501    0 -0.00000000000E+00 -0.00000000000E+00 -0.19190428243E+03  0.19190428249E+03  0.50400000000E-02 0.  1.
          2    1    1    2    0  502 -0.16029653712E+02 -0.16855936011E+02 -0.13131989499E+03  0.13336411513E+03  0.25500000000E-02 0.  1.
         -2    1    1    2  502    0  0.16029653712E+02  0.16855936011E+02 -0.57291243072E+02  0.61833315584E+02  0.25500000000E-02 0.  1.
<mgrwt>
<rscale>  0 0.50277983E+02</rscale>
<asrwt>0</asrwt>
<pdfrwt beam="1">  1        1 0.50663804E-03 0.50277983E+02</pdfrwt>
<pdfrwt beam="2">  1       -1 0.29523727E-01 0.50277983E+02</pdfrwt>
<totfact> 0.31978377E+05</totfact>
</mgrwt>
</event>
<event>
 4    1  0.3883670E-002  0.4780743E+02  0.7818608E-02  0.1457540E+00
          1   -1    0    0    0  501  0.00000000000E+00  0.00000000000E+00  0.94419546269E+01  0.94419559720E+01  0.50400000000E-02 0.  1.
         -1   -1    0    0  501    0 -0.00000000000E+00 -0.00000000000E+00 -0.60515807645E+02  0.60515807855E+02  0.50400000000E-02 0.  1.
          2    1    1    2    0  502  0.22577240922E+02  0.30390631671E+01 -0.36131620042E+02  0.42713717772E+02  0.25500000000E-02 0.  1.
         -2    1    1    2  502    0 -0.22577240922E+02 -0.30390631671E+01 -0.14942232977E+02  0.27244046055E+02  0.25500000000E-02 0.  1.
<mgrwt>
<rscale>  0 0.47807429E+02</rscale>
<asrwt>0</asrwt>
<pdfrwt beam="1">  1        1 0.14526086E-02 0.47807429E+02</pdfrwt>
<pdfrwt beam="2">  1       -1 0.93101241E-02 0.47807429E+02</pdfrwt>
<totfact> 0.44629999E+05</totfact>
</mgrwt>
</event>
<event>
 4    1  0.3883670E-002  0.4338601E+02  0.7818608E-02  0.1484676E+00
          1   -1    0    0    0  501  0.00000000000E+00  0.00000000000E+00  0.51281702383E+02  0.51281702630E+02  0.50400000000E-02 0. -1.
         -1   -1    0    0  501    0 -0.00000000000E+00 -0.00000000000E+00 -0.91764989359E+01  0.91765003199E+01  0.50400000000E-02 0. -1.
          2    1    1    2    0  502  0.54085953139E+01 -0.19499121934E+02  0.31946657566E+02  0.37816102332E+02  0.25500000000E-02 0.  1.
         -2    1    1    2  502    0 -0.54085953139E+01  0.19499121934E+02  0.10158545881E+02  0.22642100618E+02  0.25500000000E-02 0.  1.
<mgrwt>
<rscale>  0 0.43386013E+02</rscale>
<asrwt>0</asrwt>
<pdfrwt beam="1">  1        1 0.78894929E-02 0.43386013E+02</pdfrwt>
<pdfrwt beam="2">  1       -1 0.14117692E-02 0.43386013E+02</pdfrwt>
<totfact> 0.66910578E+05</totfact>
</mgrwt>
</event>
<event>
 4    1  0.3883670E-002  0.6229013E+02  0.7818608E-02  0.1388465E+00
          1   -1    0    0    0  501  0.00000000000E+00  0.00000000000E+00  0.41379503495E+01  0.41379534189E+01  0.50400000000E-02 0. -1.
         -1   -1    0    0  501    0 -0.00000000000E+00 -0.00000000000E+00 -0.23441911417E+03  0.23441911422E+03  0.50400000000E-02 0. -1.
          2    1    1    2    0  502 -0.11948251290E+02  0.28671438219E+02 -0.10640488421E+03  0.11084589062E+03  0.25500000000E-02 0. -1.
         -2    1    1    2  502    0  0.11948251290E+02 -0.28671438219E+02 -0.12387627961E+03  0.12771117702E+03  0.25500000000E-02 0. -1.
<mgrwt>
<rscale>  0 0.62290129E+02</rscale>
<asrwt>0</asrwt>
<pdfrwt beam="1">  1        1 0.63660817E-03 0.62290129E+02</pdfrwt>
<pdfrwt beam="2">  1       -1 0.36064469E-01 0.62290129E+02</pdfrwt>
<totfact> 0.17633076E+05</totfact>
</mgrwt>
</event>
<event>
 4    1  0.3883670E-002  0.4403342E+02  0.7818608E-02  0.1480468E+00
         -1   -1    0    0  501    0 -0.00000000000E+00  0.00000000000E+00  0.42900301053E+01  0.42900330658E+01  0.50400000000E-02 0.  1.
          1   -1    0    0    0  501  0.00000000000E+00 -0.00000000000E+00 -0.11299110587E+03  0.11299110598E+03  0.50400000000E-02 0.  1.
          2    1    1    2    0  502  0.20475542279E+02  0.72763869190E+01 -0.63783007412E+02  0.67382977667E+02  0.25500000000E-02 0. -1.
         -2    1    1    2  502    0 -0.20475542279E+02 -0.72763869190E+01 -0.44918068351E+02  0.49898161380E+02  0.25500000000E-02 0. -1.
<mgrwt>
<rscale>  0 0.44033416E+02</rscale>
<asrwt>0</asrwt>
<pdfrwt beam="2">  1        1 0.17383245E-01 0.44033416E+02</pdfrwt>
<pdfrwt beam="1">  1       -1 0.66000495E-03 0.44033416E+02</pdfrwt>
<totfact> 0.70553248E+05</totfact>
</mgrwt>
</event>
<event>
 4    1  0.3883670E-002  0.7209905E+02  0.7818608E-02  0.1353097E+00
         -1   -1    0    0  501    0 -0.00000000000E+00  0.00000000000E+00  0.28959418259E+03  0.28959418263E+03  0.50400000000E-02 0. -1.
          1   -1    0    0    0  501  0.00000000000E+00 -0.00000000000E+00 -0.44875477014E+01  0.44875505316E+01  0.50400000000E-02 0. -1.
          2    1    1    2    0  502 -0.24850139485E+02  0.15392856057E+02  0.56500186219E+02  0.63613996096E+02  0.25500000000E-02 0.  1.
         -2    1    1    2  502    0  0.24850139485E+02 -0.15392856057E+02  0.22860644866E+03  0.23046773706E+03  0.25500000000E-02 0.  1.
<mgrwt>
<rscale>  0 0.72099047E+02</rscale>
<asrwt>0</asrwt>
<pdfrwt beam="2">  1        1 0.69039199E-03 0.72099047E+02</pdfrwt>
<pdfrwt beam="1">  1       -1 0.44552963E-01 0.72099047E+02</pdfrwt>
<totfact> 0.11285604E+05</totfact>
</mgrwt>
</event>
<event>
 4    1  0.3883670E-002  0.8691386E+02  0.7818608E-02  0.1310502E+00
          1   -1    0    0    0  501  0.00000000000E+00  0.00000000000E+00  0.17636535244E+02  0.17636535964E+02  0.50400000000E-02 0. -1.
         -1   -1    0    0  501    0 -0.00000000000E+00 -0.00000000000E+00 -0.10707912980E+03  0.10707912992E+03  0.50400000000E-02 0. -1.
          2    1    1    2    0  502 -0.35663921239E+02  0.24132947191E+02 -0.53111733068E+02  0.68375219300E+02  0.25500000000E-02 0.  1.
         -2    1    1    2  502    0  0.35663921239E+02 -0.24132947191E+02 -0.36330861489E+02  0.56340446585E+02  0.25500000000E-02 0.  1.
<mgrwt>
<rscale>  0 0.86913863E+02</rscale>
<asrwt>0</asrwt>
<pdfrwt beam="1">  1        1 0.27133132E-02 0.86913863E+02</pdfrwt>
<pdfrwt beam="2">  1       -1 0.16473712E-01 0.86913863E+02</pdfrwt>
<totfact> 0.90863553E+04</totfact>
</mgrwt>
</event>
<event>
 4    1  0.3883670E-002  0.5277796E+02  0.7818608E-02  0.1430909E+00
          1   -1    0    0    0  501  0.00000000000E+00  0.00000000000E+00  0.18459133905E+01  0.18459202710E+01  0.50400000000E-02 0.  1.
         -1   -1    0    0  501    0 -0.00000000000E+00 -0.00000000000E+00 -0.37725332794E+03  0.37725332797E+03  0.50400000000E-02 0.  1.
          2    1    1    2    0  502  0.21182542553E+02 -0.41861924216E+01 -0.78733056961E+02  0.81640177492E+02  0.25500000000E-02 0. -1.
         -2    1    1    2  502    0 -0.21182542553E+02  0.41861924216E+01 -0.29667435758E+03  0.29745907075E+03  0.25500000000E-02 0. -1.
<mgrwt>
<rscale>  0 0.52777961E+02</rscale>
<asrwt>0</asrwt>
<pdfrwt beam="1">  1        1 0.28398751E-03 0.52777961E+02</pdfrwt>
<pdfrwt beam="2">  1       -1 0.58038913E-01 0.52777961E+02</pdfrwt>
<totfact> 0.22221110E+05</totfact>
</mgrwt>
</event>
<event>
 4    1  0.3883670E-002  0.4168573E+02  0.7818608E-02  0.1496160E+00
         -1   -1    0    0  501    0 -0.00000000000E+00  0.00000000000E+00  0.12324809058E+02  0.12324810088E+02  0.50400000000E-02 0.  1.
          1   -1    0    0    0  501  0.00000000000E+00 -0.00000000000E+00 -0.35248002336E+02  0.35248002696E+02  0.50400000000E-02 0.  1.
          2    1    1    2    0  502 -0.12198363309E+02 -0.16888587268E+02 -0.12183801871E+02  0.24134404527E+02  0.25500000000E-02 0.  1.
         -2    1    1    2  502    0  0.12198363309E+02  0.16888587268E+02 -0.10739391407E+02  0.23438408257E+02  0.25500000000E-02 0.  1.
<mgrwt>
<rscale>  0 0.41685726E+02</rscale>
<asrwt>0</asrwt>
<pdfrwt beam="2">  1        1 0.54227696E-02 0.41685726E+02</pdfrwt>
<pdfrwt beam="1">  1       -1 0.18961246E-02 0.41685726E+02</pdfrwt>
<totfact> 0.71600580E+05</totfact>
</mgrwt>
</event>
<event>
 4    1  0.3883670E-002  0.4748221E+02  0.7818608E-02  0.1459415E+00
         -1   -1    0    0  501    0 -0.00000000000E+00  0.00000000000E+00  0.20894844419E+01  0.20894905203E+01  0.50400000000E-02 0. -1.
          1   -1    0    0    0  501  0.00000000000E+00 -0.00000000000E+00 -0.26975042655E+03  0.26975042660E+03  0.50400000000E-02 0. -1.
          2    1    1    2    0  502  0.11434565575E+02 -0.19038141056E+02 -0.85780617188E+02  0.88608771554E+02  0.25500000000E-02 0. -1.
         -2    1    1    2  502    0 -0.11434565575E+02  0.19038141056E+02 -0.18188032492E+03  0.18323114557E+03  0.25500000000E-02 0. -1.
<mgrwt>
<rscale>  0 0.47482214E+02</rscale>
<asrwt>0</asrwt>
<pdfrwt beam="2">  1        1 0.41500039E-01 0.47482214E+02</pdfrwt>
<pdfrwt beam="1">  1       -1 0.32145983E-03 0.47482214E+02</pdfrwt>
<totfact> 0.67366721E+05</totfact>
</mgrwt>
</event>
<event>
 4    1  0.3883670E-002  0.5562234E+02  0.7818608E-02  0.1417179E+00
          1   -1    0    0    0  501  0.00000000000E+00  0.00000000000E+00  0.18288011379E+04  0.18288011379E+04  0.50400000000E-02 0. -1.
         -1   -1    0    0  501    0 -0.00000000000E+00 -0.00000000000E+00 -0.42291838669E+00  0.42294841695E+00  0.50400000000E-02 0. -1.
          2    1    1    2    0  502 -0.25770077119E+02  0.17617945245E+01  0.12531918373E+04  0.12534580096E+04  0.25500000000E-02 0. -1.
         -2    1    1    2  502    0  0.25770077119E+02 -0.17617945245E+01  0.57518638222E+03  0.57576607671E+03  0.25500000000E-02 0. -1.
<mgrwt>
<rscale>  0 0.55622337E+02</rscale>
<asrwt>0</asrwt>
<pdfrwt beam="1">  1        1 0.28135359E+00 0.55622337E+02</pdfrwt>
<pdfrwt beam="2">  1       -1 0.65066779E-04 0.55622337E+02</pdfrwt>
<totfact> 0.32469277E+05</totfact>
</mgrwt>
</event>
<event>
 4    1  0.3883670E-002  0.7025833E+02  0.7818608E-02  0.1359217E+00
          1   -1    0    0    0  501  0.00000000000E+00  0.00000000000E+00  0.40825966595E+02  0.40825966906E+02  0.50400000000E-02 0. -1.
         -1   -1    0    0  501    0 -0.00000000000E+00 -0.00000000000E+00 -0.30227289248E+02  0.30227289668E+02  0.50400000000E-02 0. -1.
          2    1    1    2    0  502 -0.28400148507E+02 -0.63574242847E+01 -0.14597432775E+02  0.32558721241E+02  0.25500000000E-02 0. -1.
         -2    1    1    2  502    0  0.28400148507E+02  0.63574242847E+01  0.25196110122E+02  0.38494535333E+02  0.25500000000E-02 0. -1.
<mgrwt>
<rscale>  0 0.70258333E+02</rscale>
<asrwt>0</asrwt>
<pdfrwt beam="1">  1        1 0.62809180E-02 0.70258333E+02</pdfrwt>
<pdfrwt beam="2">  1       -1 0.46503523E-02 0.70258333E+02</pdfrwt>
<totfact> 0.18672318E+05</totfact>
</mgrwt>
</event>
<event>
 4    1  0.3883670E-002  0.4998398E+02  0.7818608E-02  0.1445428E+00
          1   -1    0    0    0  501  0.00000000000E+00  0.00000000000E+00  0.11011415736E+02  0.11011416889E+02  0.50400000000E-02 0.  1.
         -1   -1    0    0  501    0 -0.00000000000E+00 -0.00000000000E+00 -0.56722907689E+02  0.56722907913E+02  0.50400000000E-02 0.  1.
          2    1    1    2    0  502 -0.23558780485E+02 -0.26309769166E+01 -0.33582737872E+02  0.41106428536E+02  0.25500000000E-02 0.  1.
         -2    1    1    2  502    0  0.23558780485E+02  0.26309769166E+01 -0.12128754081E+02  0.26627896266E+02  0.25500000000E-02 0.  1.
<mgrwt>
<rscale>  0 0.49983980E+02</rscale>
<asrwt>0</asrwt>
<pdfrwt beam="1">  1        1 0.16940641E-02 0.49983980E+02</pdfrwt>
<pdfrwt beam="2">  1       -1 0.87266011E-02 0.49983980E+02</pdfrwt>
<totfact> 0.40316679E+05</totfact>
</mgrwt>
</event>
<event>
 4    1  0.3883670E-002  0.5456196E+02  0.7818608E-02  0.1422182E+00
         -1   -1    0    0  501    0 -0.00000000000E+00  0.00000000000E+00  0.99621458237E+00  0.99622733135E+00  0.50400000000E-02 0.  1.
          1   -1    0    0    0  501  0.00000000000E+00 -0.00000000000E+00 -0.74707499513E+03  0.74707499514E+03  0.50400000000E-02 0.  1.
          2    1    1    2    0  502  0.17461677565E+02  0.20811218799E+02 -0.40727380688E+03  0.40817884657E+03  0.25500000000E-02 0.  1.
         -2    1    1    2  502    0 -0.17461677565E+02 -0.20811218799E+02 -0.33880497366E+03  0.33989237590E+03  0.25500000000E-02 0.  1.
<mgrwt>
<rscale>  0 0.54561957E+02</rscale>
<asrwt>0</asrwt>
<pdfrwt beam="2">  1        1 0.11493417E+00 0.54561957E+02</pdfrwt>
<pdfrwt beam="1">  1       -1 0.15326536E-03 0.54561957E+02</pdfrwt>
<totfact> 0.53273768E+05</totfact>
</mgrwt>
</event>
<event>
 4    1  0.3883670E-002  0.5573064E+02  0.7818608E-02  0.1416675E+00
          1   -1    0    0    0  501  0.00000000000E+00  0.00000000000E+00  0.18072542715E+03  0.18072542722E+03  0.50400000000E-02 0. -1.
         -1   -1    0    0  501    0 -0.00000000000E+00 -0.00000000000E+00 -0.42964393356E+01  0.42964422917E+01  0.50400000000E-02 0. -1.
          2    1    1    2    0  502 -0.22905141206E+02 -0.41340898866E+01  0.37349090850E+02  0.44007849149E+02  0.25500000000E-02 0. -1.
         -2    1    1    2  502    0  0.22905141206E+02  0.41340898866E+01  0.13907989697E+03  0.14101402037E+03  0.25500000000E-02 0. -1.
<mgrwt>
<rscale>  0 0.55730642E+02</rscale>
<asrwt>0</asrwt>
<pdfrwt beam="1">  1        1 0.27803911E-01 0.55730642E+02</pdfrwt>
<pdfrwt beam="2">  1       -1 0.66099093E-03 0.55730642E+02</pdfrwt>
<totfact> 0.42010857E+05</totfact>
</mgrwt>
</event>
<event>
 4    1  0.3883670E-002  0.5596528E+02  0.7818608E-02  0.1415588E+00
          1   -1    0    0    0  501  0.00000000000E+00  0.00000000000E+00  0.97697763381E+02  0.97697763511E+02  0.50400000000E-02 0.  1.
         -1   -1    0    0  501    0 -0.00000000000E+00 -0.00000000000E+00 -0.80148014714E+01  0.80148030560E+01  0.50400000000E-02 0.  1.
          2    1    1    2    0  502  0.26852053950E+02 -0.61534391738E+01  0.35562668802E+02  0.44984453246E+02  0.25500000000E-02 0.  1.
         -2    1    1    2  502    0 -0.26852053950E+02  0.61534391738E+01  0.54120293108E+02  0.60728113322E+02  0.25500000000E-02 0.  1.
<mgrwt>
<rscale>  0 0.55965285E+02</rscale>
<asrwt>0</asrwt>
<pdfrwt beam="1">  1        1 0.15030426E-01 0.55965285E+02</pdfrwt>
<pdfrwt beam="2">  1       -1 0.12330465E-02 0.55965285E+02</pdfrwt>
<totfact> 0.37788521E+05</totfact>
</mgrwt>
</event>
<event>
 4    1  0.3883670E-002  0.5314863E+02  0.7818608E-02  0.1429063E+00
         -1   -1    0    0  501    0 -0.00000000000E+00  0.00000000000E+00  0.32234575587E+02  0.32234575981E+02  0.50400000000E-02 0. -1.
          1   -1    0    0    0  501  0.00000000000E+00 -0.00000000000E+00 -0.21907975179E+02  0.21907975759E+02  0.50400000000E-02 0. -1.
          2    1    1    2    0  502  0.68875855749E+01 -0.25082277173E+02 -0.38229161599E+00  0.26013566011E+02  0.25500000000E-02 0. -1.
         -2    1    1    2  502    0 -0.68875855749E+01  0.25082277173E+02  0.10708892024E+02  0.28128985729E+02  0.25500000000E-02 0. -1.
<mgrwt>
<rscale>  0 0.53148633E+02</rscale>
<asrwt>0</asrwt>
<pdfrwt beam="2">  1        1 0.33704578E-02 0.53148633E+02</pdfrwt>
<pdfrwt beam="1">  1       -1 0.49591655E-02 0.53148633E+02</pdfrwt>
<totfact> 0.36809449E+05</totfact>
</mgrwt>
</event>
<event>
 4    1  0.3883670E-002  0.8587855E+02  0.7818608E-02  0.1313151E+00
          1   -1    0    0    0  501  0.00000000000E+00  0.00000000000E+00  0.93606173855E+03  0.93606173856E+03  0.50400000000E-02 0.  1.
         -1   -1    0    0  501    0 -0.00000000000E+00 -0.00000000000E+00 -0.19697188387E+01  0.19697252867E+01  0.50400000000E-02 0.  1.
          2    1    1    2    0  502 -0.50510154583E+01  0.40170529037E+02  0.62328256005E+03  0.62459613658E+03  0.25500000000E-02 0.  1.
         -2    1    1    2  502    0  0.50510154583E+01 -0.40170529037E+02  0.31080945966E+03  0.31343532727E+03  0.25500000000E-02 0.  1.
<mgrwt>
<rscale>  0 0.85878553E+02</rscale>
<asrwt>0</asrwt>
<pdfrwt beam="1">  1        1 0.14400953E+00 0.85878553E+02</pdfrwt>
<pdfrwt beam="2">  1       -1 0.30303410E-03 0.85878553E+02</pdfrwt>
<totfact> 0.16175948E+05</totfact>
</mgrwt>
</event>
<event>
 4    1  0.3883670E-002  0.6414349E+02  0.7818608E-02  0.1381223E+00
         -1   -1    0    0  501    0 -0.00000000000E+00  0.00000000000E+00  0.60623332354E+01  0.60623353305E+01  0.50400000000E-02 0. -1.
          1   -1    0    0    0  501  0.00000000000E+00 -0.00000000000E+00 -0.16967010248E+03  0.16967010255E+03  0.50400000000E-02 0. -1.
          2    1    1    2    0  502 -0.23965968263E+02  0.51078665261E+01 -0.13849195894E+03  0.14064309664E+03  0.25500000000E-02 0. -1.
         -2    1    1    2  502    0  0.23965968263E+02 -0.51078665261E+01 -0.25115810308E+02  0.35089341247E+02  0.25500000000E-02 0. -1.
<mgrwt>
<rscale>  0 0.64143492E+02</rscale>
<asrwt>0</asrwt>
<pdfrwt beam="2">  1        1 0.26103089E-01 0.64143492E+02</pdfrwt>
<pdfrwt beam="1">  1       -1 0.93266695E-03 0.64143492E+02</pdfrwt>
<totfact> 0.28993241E+05</totfact>
</mgrwt>
</event>
<event>
 4    1  0.3883670E-002  0.5783407E+02  0.7818608E-02  0.1407153E+00
          1   -1    0    0    0  501  0.00000000000E+00  0.00000000000E+00  0.67130273990E+01  0.67130292910E+01  0.50400000000E-02 0. -1.
         -1   -1    0    0  501    0 -0.00000000000E+00 -0.00000000000E+00 -0.12456298942E+03  0.12456298953E+03  0.50400000000E-02 0. -1.
          2    1    1    2    0  502 -0.18324391292E+02  0.19174895359E+02 -0.32773619551E+02  0.42161238991E+02  0.25500000000E-02 0.  1.
         -2    1    1    2  502    0  0.18324391292E+02 -0.19174895359E+02 -0.85076342473E+02  0.89114779825E+02  0.25500000000E-02 0.  1.
<mgrwt>
<rscale>  0 0.57834069E+02</rscale>
<asrwt>0</asrwt>
<pdfrwt beam="1">  1        1 0.10327737E-02 0.57834069E+02</pdfrwt>
<pdfrwt beam="2">  1       -1 0.19163535E-01 0.57834069E+02</pdfrwt>
<totfact> 0.24894835E+05</totfact>
</mgrwt>
</event>
<event>
 4    1  0.3883670E-002  0.4482134E+02  0.7818608E-02  0.1475460E+00
          1   -1    0    0    0  501  0.00000000000E+00  0.00000000000E+00  0.12941479970E+03  0.12941479980E+03  0.50400000000E-02 0. -1.
         -1   -1    0    0  501    0 -0.00000000000E+00 -0.00000000000E+00 -0.38808374811E+01  0.38808407538E+01  0.50400000000E-02 0. -1.
          2    1    1    2    0  502 -0.18698114707E+02  0.88265340968E+01  0.88472295565E+02  0.90856338727E+02  0.25500000000E-02 0. -1.
         -2    1    1    2  502    0  0.18698114707E+02 -0.88265340968E+01  0.37061666656E+02  0.42439301828E+02  0.25500000000E-02 0. -1.
<mgrwt>
<rscale>  0 0.44821336E+02</rscale>
<asrwt>0</asrwt>
<pdfrwt beam="1">  1        1 0.19909967E-01 0.44821336E+02</pdfrwt>
<pdfrwt beam="2">  1       -1 0.59705227E-03 0.44821336E+02</pdfrwt>
<totfact> 0.68830118E+05</totfact>
</mgrwt>
</event>
<event>
 4    1  0.3883670E-002  0.2506531E+03  0.7818608E-02  0.1112893E+00
         -1   -1    0    0  501    0 -0.00000000000E+00  0.00000000000E+00  0.66066579321E+02  0.66066579513E+02  0.50400000000E-02 0.  1.
          1   -1    0    0    0  501  0.00000000000E+00 -0.00000000000E+00 -0.23774120802E+03  0.23774120807E+03  0.50400000000E-02 0.  1.
          2    1    1    2    0  502  0.50923729560E+02 -0.84626721921E+02 -0.17934587901E+03  0.20474338236E+03  0.25500000000E-02 0. -1.
         -2    1    1    2  502    0 -0.50923729560E+02  0.84626721921E+02  0.76712503097E+01  0.99064405228E+02  0.25500000000E-02 0. -1.
<mgrwt>
<rscale>  0 0.25065313E+03</rscale>
<asrwt>0</asrwt>
<pdfrwt beam="2">  1        1 0.36575570E-01 0.25065313E+03</pdfrwt>
<pdfrwt beam="1">  1       -1 0.10164089E-01 0.25065313E+03</pdfrwt>
<totfact> 0.69056274E+03</totfact>
</mgrwt>
</event>
<event>
 4    1  0.3883670E-002  0.5296970E+02  0.7818608E-02  0.1429952E+00
          1   -1    0    0    0  501  0.00000000000E+00  0.00000000000E+00  0.19883758587E+02  0.19883759225E+02  0.50400000000E-02 0. -1.
         -1   -1    0    0  501    0 -0.00000000000E+00 -0.00000000000E+00 -0.35277401750E+02  0.35277402110E+02  0.50400000000E-02 0. -1.
          2    1    1    2    0  502  0.16037274640E+02  0.21026562010E+02 -0.61745391512E+01  0.27155762336E+02  0.25500000000E-02 0. -1.
         -2    1    1    2  502    0 -0.16037274640E+02 -0.21026562010E+02 -0.92191040127E+01  0.28005399000E+02  0.25500000000E-02 0. -1.
<mgrwt>
<rscale>  0 0.52969703E+02</rscale>
<asrwt>0</asrwt>
<pdfrwt beam="1">  1        1 0.30590399E-02 0.52969703E+02</pdfrwt>
<pdfrwt beam="2">  1       -1 0.54272926E-02 0.52969703E+02</pdfrwt>
<totfact> 0.36786396E+05</totfact>
</mgrwt>
</event>
<event>
 4    1  0.3883670E-002  0.4482761E+02  0.7818608E-02  0.1475421E+00
         -1   -1    0    0  501    0 -0.00000000000E+00  0.00000000000E+00  0.23810773867E+01  0.23810827208E+01  0.50400000000E-02 0.  1.
          1   -1    0    0    0  501  0.00000000000E+00 -0.00000000000E+00 -0.21098773311E+03  0.21098773317E+03  0.50400000000E-02 0.  1.
          2    1    1    2    0  502 -0.15044692001E+02  0.14467169106E+02 -0.65419543941E+02  0.68668467839E+02  0.25500000000E-02 0.  1.
         -2    1    1    2  502    0  0.15044692001E+02 -0.14467169106E+02 -0.14318711178E+03  0.14470034805E+03  0.25500000000E-02 0.  1.
<mgrwt>
<rscale>  0 0.44827612E+02</rscale>
<asrwt>0</asrwt>
<pdfrwt beam="2">  1        1 0.32459637E-01 0.44827612E+02</pdfrwt>
<pdfrwt beam="1">  1       -1 0.36632018E-03 0.44827612E+02</pdfrwt>
<totfact> 0.74422776E+05</totfact>
</mgrwt>
</event>
<event>
 4    1  0.3883670E-002  0.5769574E+02  0.7818608E-02  0.1407764E+00
         -1   -1    0    0  501    0 -0.00000000000E+00  0.00000000000E+00  0.17578763380E+01  0.17578835630E+01  0.50400000000E-02 0. -1.
          1   -1    0    0    0  501  0.00000000000E+00 -0.00000000000E+00 -0.47341097576E+03  0.47341097579E+03  0.50400000000E-02 0. -1.
          2    1    1    2    0  502 -0.99785468226E+01  0.26508306492E+02 -0.19076404788E+03  0.19285534393E+03  0.25500000000E-02 0.  1.
         -2    1    1    2  502    0  0.99785468226E+01 -0.26508306492E+02 -0.28088905154E+03  0.28231351543E+03  0.25500000000E-02 0.  1.
<mgrwt>
<rscale>  0 0.57695742E+02</rscale>
<asrwt>0</asrwt>
<pdfrwt beam="2">  1        1 0.72832357E-01 0.57695742E+02</pdfrwt>
<pdfrwt beam="1">  1       -1 0.27044345E-03 0.57695742E+02</pdfrwt>
<totfact> 0.45237757E+05</totfact>
</mgrwt>
</event>
<event>
 4    1  0.3883670E-002  0.6913499E+02  0.7818608E-02  0.1363059E+00
          1   -1    0    0    0  501  0.00000000000E+00  0.00000000000E+00  0.68746168196E+01  0.68746186671E+01  0.50400000000E-02 0.  1.
         -1   -1    0    0  501    0 -0.00000000000E+00 -0.00000000000E+00 -0.17381502287E+03  0.17381502295E+03  0.50400000000E-02 0.  1.
          2    1    1    2    0  502 -0.26624517413E+02  0.22018744317E+02 -0.80581262651E+02  0.87675708870E+02  0.25500000000E-02 0.  1.
         -2    1    1    2  502    0  0.26624517413E+02 -0.22018744317E+02 -0.86359143403E+02  0.93013932745E+02  0.25500000000E-02 0.  1.
<mgrwt>
<rscale>  0 0.69134994E+02</rscale>
<asrwt>0</asrwt>
<pdfrwt beam="1">  1        1 0.10576336E-02 0.69134994E+02</pdfrwt>
<pdfrwt beam="2">  1       -1 0.26740770E-01 0.69134994E+02</pdfrwt>
<totfact> 0.14717565E+05</totfact>
</mgrwt>
</event>
<event>
 4    1  0.3883670E-002  0.4874344E+02  0.7818608E-02  0.1452239E+00
          1   -1    0    0    0  501  0.00000000000E+00  0.00000000000E+00  0.11555662766E+04  0.11555662766E+04  0.50400000000E-02 0.  1.
         -1   -1    0    0  501    0 -0.00000000000E+00 -0.00000000000E+00 -0.51400466507E+00  0.51402937398E+00  0.50400000000E-02 0.  1.
          2    1    1    2    0  502  0.23645983877E+02  0.52743144553E+01  0.64041056091E+03  0.64086865852E+03  0.25500000000E-02 0. -1.
         -2    1    1    2  502    0 -0.23645983877E+02 -0.52743144553E+01  0.51464171102E+03  0.51521164745E+03  0.25500000000E-02 0. -1.
<mgrwt>
<rscale>  0 0.48743440E+02</rscale>
<asrwt>0</asrwt>
<pdfrwt beam="1">  1        1 0.17777996E+00 0.48743440E+02</pdfrwt>
<pdfrwt beam="2">  1       -1 0.79079308E-04 0.48743440E+02</pdfrwt>
<totfact> 0.64404508E+05</totfact>
</mgrwt>
</event>
<event>
 4    1  0.3883670E-002  0.4922425E+02  0.7818608E-02  0.1449571E+00
          1   -1    0    0    0  501  0.00000000000E+00  0.00000000000E+00  0.55278791367E+00  0.55281088909E+00  0.50400000000E-02 0.  1.
         -1   -1    0    0  501    0 -0.00000000000E+00 -0.00000000000E+00 -0.10957982986E+04  0.10957982986E+04  0.50400000000E-02 0.  1.
          2    1    1    2    0  502  0.16489518405E+02  0.17274078461E+02 -0.68024966192E+03  0.68066871571E+03  0.25500000000E-02 0. -1.
         -2    1    1    2  502    0 -0.16489518405E+02 -0.17274078461E+02 -0.41499584880E+03  0.41568239382E+03  0.25500000000E-02 0. -1.
<mgrwt>
<rscale>  0 0.49224248E+02</rscale>
<asrwt>0</asrwt>
<pdfrwt beam="1">  1        1 0.85046940E-04 0.49224248E+02</pdfrwt>
<pdfrwt beam="2">  1       -1 0.16858262E+00 0.49224248E+02</pdfrwt>
<totfact> 0.11035125E+05</totfact>
</mgrwt>
</event>
<event>
 4    1  0.3883670E-002  0.8041312E+02  0.7818608E-02  0.1327883E+00
          1   -1    0    0    0  501  0.00000000000E+00  0.00000000000E+00  0.18906192972E+01  0.18906260150E+01  0.50400000000E-02 0. -1.
         -1   -1    0    0  501    0 -0.00000000000E+00 -0.00000000000E+00 -0.85504499739E+03  0.85504499741E+03  0.50400000000E-02 0. -1.
          2    1    1    2    0  502  0.50077643173E+01 -0.23472546323E+02 -0.82822646491E+02  0.86230092848E+02  0.25500000000E-02 0.  1.
         -2    1    1    2  502    0 -0.50077643173E+01  0.23472546323E+02 -0.77033173161E+03  0.77070553057E+03  0.25500000000E-02 0.  1.
<mgrwt>
<rscale>  0 0.80413120E+02</rscale>
<asrwt>0</asrwt>
<pdfrwt beam="1">  1        1 0.29086571E-03 0.80413120E+02</pdfrwt>
<pdfrwt beam="2">  1       -1 0.13154508E+00 0.80413120E+02</pdfrwt>
<totfact> 0.42432899E+04</totfact>
</mgrwt>
</event>
<event>
 4    1  0.3883670E-002  0.4928960E+02  0.7818608E-02  0.1449211E+00
         -1   -1    0    0  501    0 -0.00000000000E+00  0.00000000000E+00  0.31772319382E+03  0.31772319386E+03  0.50400000000E-02 0. -1.
          1   -1    0    0    0  501  0.00000000000E+00 -0.00000000000E+00 -0.19116167978E+01  0.19116234418E+01  0.50400000000E-02 0. -1.
          2    1    1    2    0  502  0.41453282409E+01  0.24247675784E+02  0.16759519939E+03  0.16939092181E+03  0.25500000000E-02 0.  1.
         -2    1    1    2  502    0 -0.41453282409E+01 -0.24247675784E+02  0.14821637763E+03  0.15024389549E+03  0.25500000000E-02 0.  1.
<mgrwt>
<rscale>  0 0.49289596E+02</rscale>
<asrwt>0</asrwt>
<pdfrwt beam="2">  1        1 0.29409504E-03 0.49289596E+02</pdfrwt>
<pdfrwt beam="1">  1       -1 0.48880553E-01 0.49289596E+02</pdfrwt>
<totfact> 0.28403774E+05</totfact>
</mgrwt>
</event>
<event>
 4    1  0.3883670E-002  0.6928754E+02  0.7818608E-02  0.1362533E+00
          1   -1    0    0    0  501  0.00000000000E+00  0.00000000000E+00  0.25883039092E+03  0.25883039097E+03  0.50400000000E-02 0. -1.
         -1   -1    0    0  501    0 -0.00000000000E+00 -0.00000000000E+00 -0.46369762293E+01  0.46369789683E+01  0.50400000000E-02 0. -1.
          2    1    1    2    0  502  0.12542830884E+02 -0.32117202649E+02  0.13990924119E+03  0.14409522230E+03  0.25500000000E-02 0. -1.
         -2    1    1    2  502    0 -0.12542830884E+02  0.32117202649E+02  0.11428417350E+03  0.11937214764E+03  0.25500000000E-02 0. -1.
<mgrwt>
<rscale>  0 0.69287538E+02</rscale>
<asrwt>0</asrwt>
<pdfrwt beam="1">  1        1 0.39820067E-01 0.69287538E+02</pdfrwt>
<pdfrwt beam="2">  1       -1 0.71338106E-03 0.69287538E+02</pdfrwt>
<totfact> 0.25635340E+05</totfact>
</mgrwt>
</event>
<event>
 4    1  0.3883670E-002  0.4766502E+02  0.7818608E-02  0.1458359E+00
         -1   -1    0    0  501    0 -0.00000000000E+00  0.00000000000E+00  0.20021788632E+01  0.20021852067E+01  0.50400000000E-02 0. -1.
          1   -1    0    0    0  501  0.00000000000E+00 -0.00000000000E+00 -0.28368478004E+03  0.28368478008E+03  0.50400000000E-02 0. -1.
          2    1    1    2    0  502 -0.23091735279E+02 -0.33423152960E+01 -0.16995167877E+03  0.17154583187E+03  0.25500000000E-02 0. -1.
         -2    1    1    2  502    0  0.23091735279E+02  0.33423152960E+01 -0.11173092241E+03  0.11414113342E+03  0.25500000000E-02 0. -1.
<mgrwt>
<rscale>  0 0.47665022E+02</rscale>
<asrwt>0</asrwt>
<pdfrwt beam="2">  1        1 0.43643781E-01 0.47665022E+02</pdfrwt>
<pdfrwt beam="1">  1       -1 0.30802823E-03 0.47665022E+02</pdfrwt>
<totfact> 0.67321266E+05</totfact>
</mgrwt>
</event>
<event>
 4    1  0.3883670E-002  0.4553249E+02  0.7818608E-02  0.1471045E+00
         -1   -1    0    0  501    0 -0.00000000000E+00  0.00000000000E+00  0.66910621342E+00  0.66912519489E+00  0.50400000000E-02 0. -1.
          1   -1    0    0    0  501  0.00000000000E+00 -0.00000000000E+00 -0.77460744098E+03  0.77460744099E+03  0.50400000000E-02 0. -1.
          2    1    1    2    0  502  0.11996059576E+02 -0.16416861106E+02 -0.21259254926E+03  0.21356266242E+03  0.25500000000E-02 0.  1.
         -2    1    1    2  502    0 -0.11996059576E+02  0.16416861106E+02 -0.56134578550E+03  0.56171390376E+03  0.25500000000E-02 0.  1.
<mgrwt>
<rscale>  0 0.45532495E+02</rscale>
<asrwt>0</asrwt>
<pdfrwt beam="2">  1        1 0.11916966E+00 0.45532495E+02</pdfrwt>
<pdfrwt beam="1">  1       -1 0.10294150E-03 0.45532495E+02</pdfrwt>
<totfact> 0.83244212E+05</totfact>
</mgrwt>
</event>
<event>
 4    1  0.3883670E-002  0.5315812E+02  0.7818608E-02  0.1429016E+00
         -1   -1    0    0  501    0 -0.00000000000E+00  0.00000000000E+00  0.16274953717E+03  0.16274953725E+03  0.50400000000E-02 0. -1.
          1   -1    0    0    0  501  0.00000000000E+00 -0.00000000000E+00 -0.43406957351E+01  0.43406986611E+01  0.50400000000E-02 0. -1.
          2    1    1    2    0  502  0.13259350104E+02  0.15182396187E+02  0.24749536951E+02  0.31919509786E+02  0.25500000000E-02 0.  1.
         -2    1    1    2  502    0 -0.13259350104E+02 -0.15182396187E+02  0.13365930448E+03  0.13517072612E+03  0.25500000000E-02 0.  1.
<mgrwt>
<rscale>  0 0.53158122E+02</rscale>
<asrwt>0</asrwt>
<pdfrwt beam="2">  1        1 0.66779961E-03 0.53158122E+02</pdfrwt>
<pdfrwt beam="1">  1       -1 0.25038389E-01 0.53158122E+02</pdfrwt>
<totfact> 0.29023756E+05</totfact>
</mgrwt>
</event>
<event>
 4    1  0.3883670E-002  0.9039840E+02  0.7818608E-02  0.1301890E+00
         -1   -1    0    0  501    0 -0.00000000000E+00  0.00000000000E+00  0.35069110914E+02  0.35069111276E+02  0.50400000000E-02 0. -1.
          1   -1    0    0    0  501  0.00000000000E+00 -0.00000000000E+00 -0.58255474215E+02  0.58255474433E+02  0.50400000000E-02 0. -1.
          2    1    1    2    0  502 -0.17272055702E+02 -0.34366144691E+02  0.12915807507E+02  0.40573068644E+02  0.25500000000E-02 0.  1.
         -2    1    1    2  502    0  0.17272055702E+02  0.34366144691E+02 -0.36102170808E+02  0.52751517065E+02  0.25500000000E-02 0.  1.
<mgrwt>
<rscale>  0 0.90398401E+02</rscale>
<asrwt>0</asrwt>
<pdfrwt beam="2">  1        1 0.89623807E-02 0.90398401E+02</pdfrwt>
<pdfrwt beam="1">  1       -1 0.53952479E-02 0.90398401E+02</pdfrwt>
<totfact> 0.98251327E+04</totfact>
</mgrwt>
</event>
<event>
 4    1  0.3883670E-002  0.4825680E+02  0.7818608E-02  0.1454977E+00
         -1   -1    0    0  501    0 -0.00000000000E+00  0.00000000000E+00  0.23591732976E+01  0.23591786811E+01  0.50400000000E-02 0. -1.
          1   -1    0    0    0  501  0.00000000000E+00 -0.00000000000E+00 -0.24677247780E+03  0.24677247785E+03  0.50400000000E-02 0. -1.
          2    1    1    2    0  502 -0.11321431663E+02  0.20221414887E+02 -0.87536546320E+02  0.90552346094E+02  0.25500000000E-02 0.  1.
         -2    1    1    2  502    0  0.11321431663E+02 -0.20221414887E+02 -0.15687675818E+03  0.15857931044E+03  0.25500000000E-02 0.  1.
<mgrwt>
<rscale>  0 0.48256801E+02</rscale>
<asrwt>0</asrwt>
<pdfrwt beam="2">  1        1 0.37964977E-01 0.48256801E+02</pdfrwt>
<pdfrwt beam="1">  1       -1 0.36295035E-03 0.48256801E+02</pdfrwt>
<totfact> 0.63705607E+05</totfact>
</mgrwt>
</event>
<event>
 4    1  0.3883670E-002  0.7571690E+02  0.7818608E-02  0.1341665E+00
         -1   -1    0    0  501    0 -0.00000000000E+00  0.00000000000E+00  0.82018431841E+00  0.82019980356E+00  0.50400000000E-02 0. -1.
          1   -1    0    0    0  501  0.00000000000E+00 -0.00000000000E+00 -0.17474716353E+04  0.17474716353E+04  0.50400000000E-02 0. -1.
          2    1    1    2    0  502 -0.17901575171E+02  0.22174989575E+02 -0.29789917690E+03  0.29925927916E+03  0.25500000000E-02 0. -1.
         -2    1    1    2  502    0  0.17901575171E+02 -0.22174989575E+02 -0.14487522741E+04  0.14490325559E+04  0.25500000000E-02 0. -1.
<mgrwt>
<rscale>  0 0.75716904E+02</rscale>
<asrwt>0</asrwt>
<pdfrwt beam="2">  1        1 0.26883881E+00 0.75716904E+02</pdfrwt>
<pdfrwt beam="1">  1       -1 0.12618479E-03 0.75716904E+02</pdfrwt>
<totfact> 0.15522027E+05</totfact>
</mgrwt>
</event>
<event>
 4    1  0.3883670E-002  0.5246565E+02  0.7818608E-02  0.1432479E+00
         -1   -1    0    0  501    0 -0.00000000000E+00  0.00000000000E+00  0.40066150207E+03  0.40066150210E+03  0.50400000000E-02 0.  1.
          1   -1    0    0    0  501  0.00000000000E+00 -0.00000000000E+00 -0.17175588352E+01  0.17175662299E+01  0.50400000000E-02 0.  1.
          2    1    1    2    0  502 -0.24603181194E+02 -0.35223510428E+01  0.26383891778E+03  0.26500697731E+03  0.25500000000E-02 0.  1.
         -2    1    1    2  502    0  0.24603181194E+02  0.35223510428E+01  0.13510502545E+03  0.13737209102E+03  0.25500000000E-02 0.  1.
<mgrwt>
<rscale>  0 0.52465653E+02</rscale>
<asrwt>0</asrwt>
<pdfrwt beam="2">  1        1 0.26423995E-03 0.52465653E+02</pdfrwt>
<pdfrwt beam="1">  1       -1 0.61640335E-01 0.52465653E+02</pdfrwt>
<totfact> 0.21897304E+05</totfact>
</mgrwt>
</event>
<event>
 4    1  0.3883670E-002  0.5679070E+02  0.7818608E-02  0.1411815E+00
         -1   -1    0    0  501    0 -0.00000000000E+00  0.00000000000E+00  0.26432757988E+02  0.26432758468E+02  0.50400000000E-02 0.  1.
          1   -1    0    0    0  501  0.00000000000E+00 -0.00000000000E+00 -0.30503663823E+02  0.30503664239E+02  0.50400000000E-02 0.  1.
          2    1    1    2    0  502  0.27492014030E+02  0.27401309729E+01 -0.86079457040E+01  0.28938139002E+02  0.25500000000E-02 0. -1.
         -2    1    1    2  502    0 -0.27492014030E+02 -0.27401309729E+01  0.45370398691E+01  0.27998283705E+02  0.25500000000E-02 0. -1.
<mgrwt>
<rscale>  0 0.56790703E+02</rscale>
<asrwt>0</asrwt>
<pdfrwt beam="2">  1        1 0.46928714E-02 0.56790703E+02</pdfrwt>
<pdfrwt beam="1">  1       -1 0.40665782E-02 0.56790703E+02</pdfrwt>
<totfact> 0.31922767E+05</totfact>
</mgrwt>
</event>
<event>
 4    1  0.3883670E-002  0.4415185E+02  0.7818608E-02  0.1479707E+00
         -1   -1    0    0  501    0 -0.00000000000E+00  0.00000000000E+00  0.48188835488E+00  0.48191471048E+00  0.50400000000E-02 0.  1.
          1   -1    0    0    0  501  0.00000000000E+00 -0.00000000000E+00 -0.10112989854E+04  0.10112989854E+04  0.50400000000E-02 0.  1.
          2    1    1    2    0  502  0.17234718814E+02  0.12353199788E+02 -0.36468632438E+03  0.36530227521E+03  0.25500000000E-02 0. -1.
         -2    1    1    2  502    0 -0.17234718814E+02 -0.12353199788E+02 -0.64613077267E+03  0.64647862491E+03  0.25500000000E-02 0. -1.
<mgrwt>
<rscale>  0 0.44151854E+02</rscale>
<asrwt>0</asrwt>
<pdfrwt beam="2">  1        1 0.15558276E+00 0.44151854E+02</pdfrwt>
<pdfrwt beam="1">  1       -1 0.74139508E-04 0.44151854E+02</pdfrwt>
<totfact> 0.85973428E+05</totfact>
</mgrwt>
</event>
<event>
 4    1  0.3883670E-002  0.4717623E+02  0.7818608E-02  0.1461196E+00
         -1   -1    0    0  501    0 -0.00000000000E+00  0.00000000000E+00  0.12446969906E+01  0.12447071945E+01  0.50400000000E-02 0. -1.
          1   -1    0    0    0  501  0.00000000000E+00 -0.00000000000E+00 -0.44701400273E+03  0.44701400276E+03  0.50400000000E-02 0. -1.
          2    1    1    2    0  502  0.21981783230E+02  0.84811678005E+01 -0.23359376372E+03  0.23477899279E+03  0.25500000000E-02 0.  1.
         -2    1    1    2  502    0 -0.21981783230E+02 -0.84811678005E+01 -0.21217554202E+03  0.21347971716E+03  0.25500000000E-02 0.  1.
<mgrwt>
<rscale>  0 0.47176235E+02</rscale>
<asrwt>0</asrwt>
<pdfrwt beam="2">  1        1 0.68771258E-01 0.47176235E+02</pdfrwt>
<pdfrwt beam="1">  1       -1 0.19149299E-03 0.47176235E+02</pdfrwt>
<totfact> 0.74240402E+05</totfact>
</mgrwt>
</event>
<event>
 4    1  0.3883670E-002  0.5883057E+02  0.7818608E-02  0.1402806E+00
          1   -1    0    0    0  501  0.00000000000E+00  0.00000000000E+00  0.59182569325E+01  0.59182590786E+01  0.50400000000E-02 0.  1.
         -1   -1    0    0  501    0 -0.00000000000E+00 -0.00000000000E+00 -0.14620162886E+03  0.14620162895E+03  0.50400000000E-02 0.  1.
          2    1    1    2    0  502 -0.13570009220E+00  0.29360255233E+02 -0.65504669878E+02  0.71783736210E+02  0.25500000000E-02 0. -1.
         -2    1    1    2  502    0  0.13570009220E+00 -0.29360255233E+02 -0.74778702052E+02  0.80336151818E+02  0.25500000000E-02 0. -1.
<mgrwt>
<rscale>  0 0.58830569E+02</rscale>
<asrwt>0</asrwt>
<pdfrwt beam="1">  1        1 0.91050135E-03 0.58830569E+02</pdfrwt>
<pdfrwt beam="2">  1       -1 0.22492556E-01 0.58830569E+02</pdfrwt>
<totfact> 0.23071505E+05</totfact>
</mgrwt>
</event>
<event>
 4    1  0.3883670E-002  0.4461610E+02  0.7818608E-02  0.1476753E+00
         -1   -1    0    0  501    0 -0.00000000000E+00  0.00000000000E+00  0.58340317798E+00  0.58342494777E+00  0.50400000000E-02 0. -1.
          1   -1    0    0    0  501  0.00000000000E+00 -0.00000000000E+00 -0.85299485016E+03  0.85299485017E+03  0.50400000000E-02 0. -1.
          2    1    1    2    0  502 -0.25379117885E+01 -0.22106926009E+02 -0.45640717184E+03  0.45694930101E+03  0.25500000000E-02 0. -1.
         -2    1    1    2  502    0  0.25379117885E+01  0.22106926009E+02 -0.39600427514E+03  0.39662897412E+03  0.25500000000E-02 0. -1.
<mgrwt>
<rscale>  0 0.44616105E+02</rscale>
<asrwt>0</asrwt>
<pdfrwt beam="2">  1        1 0.13122898E+00 0.44616105E+02</pdfrwt>
<pdfrwt beam="1">  1       -1 0.89756694E-04 0.44616105E+02</pdfrwt>
<totfact> 0.86661735E+05</totfact>
</mgrwt>
</event>
<event>
 4    1  0.3883670E-002  0.6020449E+02  0.7818608E-02  0.1396976E+00
         -1   -1    0    0  501    0 -0.00000000000E+00  0.00000000000E+00  0.68017432295E+00  0.68019299555E+00  0.50400000000E-02 0. -1.
          1   -1    0    0    0  501  0.00000000000E+00 -0.00000000000E+00 -0.13322065824E+04  0.13322065824E+04  0.50400000000E-02 0. -1.
          2    1    1    2    0  502 -0.29365290050E+01  0.21364159022E+02 -0.20078748342E+03  0.20194222936E+03  0.25500000000E-02 0. -1.
         -2    1    1    2  502    0  0.29365290050E+01 -0.21364159022E+02 -0.11307389247E+04  0.11309445461E+04  0.25500000000E-02 0. -1.
<mgrwt>
<rscale>  0 0.60204490E+02</rscale>
<asrwt>0</asrwt>
<pdfrwt beam="2">  1        1 0.20495277E+00 0.60204490E+02</pdfrwt>
<pdfrwt beam="1">  1       -1 0.10464471E-03 0.60204490E+02</pdfrwt>
<totfact> 0.35280010E+05</totfact>
</mgrwt>
</event>
<event>
 4    1  0.3883670E-002  0.1369422E+03  0.7818608E-02  0.1217504E+00
          1   -1    0    0    0  501  0.00000000000E+00  0.00000000000E+00  0.55990262806E+03  0.55990262809E+03  0.50400000000E-02 0.  1.
         -1   -1    0    0  501    0 -0.00000000000E+00 -0.00000000000E+00 -0.83734072598E+01  0.83734087766E+01  0.50400000000E-02 0.  1.
          2    1    1    2    0  502  0.19909522242E+02 -0.59220807181E+02  0.39201689243E+03  0.39696440273E+03  0.25500000000E-02 0.  1.
         -2    1    1    2  502    0 -0.19909522242E+02  0.59220807181E+02  0.15951232838E+03  0.17131163413E+03  0.25500000000E-02 0.  1.
<mgrwt>
<rscale>  0 0.13694222E+03</rscale>
<asrwt>0</asrwt>
<pdfrwt beam="1">  1        1 0.86138879E-01 0.13694222E+03</pdfrwt>
<pdfrwt beam="2">  1       -1 0.12882164E-02 0.13694222E+03</pdfrwt>
<totfact> 0.46958374E+04</totfact>
</mgrwt>
</event>
<event>
 4    1  0.3883670E-002  0.4037269E+02  0.7818608E-02  0.1505487E+00
          1   -1    0    0    0  501  0.00000000000E+00  0.00000000000E+00  0.45210332531E+02  0.45210332812E+02  0.50400000000E-02 0.  1.
         -1   -1    0    0  501    0 -0.00000000000E+00 -0.00000000000E+00 -0.90131716034E+01  0.90131730125E+01  0.50400000000E-02 0.  1.
          2    1    1    2    0  502  0.16906840735E+02  0.11009411876E+02  0.18989587441E+02  0.27706548886E+02  0.25500000000E-02 0.  1.
         -2    1    1    2  502    0 -0.16906840735E+02 -0.11009411876E+02  0.17207573487E+02  0.26516956939E+02  0.25500000000E-02 0.  1.
<mgrwt>
<rscale>  0 0.40372690E+02</rscale>
<asrwt>0</asrwt>
<pdfrwt beam="1">  1        1 0.69554357E-02 0.40372690E+02</pdfrwt>
<pdfrwt beam="2">  1       -1 0.13866420E-02 0.40372690E+02</pdfrwt>
<totfact> 0.79154522E+05</totfact>
</mgrwt>
</event>
<event>
 4    1  0.3883670E-002  0.6377647E+02  0.7818608E-02  0.1382634E+00
          1   -1    0    0    0  501  0.00000000000E+00  0.00000000000E+00  0.69316458530E+03  0.69316458532E+03  0.50400000000E-02 0.  1.
         -1   -1    0    0  501    0 -0.00000000000E+00 -0.00000000000E+00 -0.14669768751E+01  0.14669855328E+01  0.50400000000E-02 0.  1.
          2    1    1    2    0  502 -0.27970505559E+02  0.30598120404E+01  0.18242026110E+03  0.18457752652E+03  0.25500000000E-02 0. -1.
         -2    1    1    2  502    0  0.27970505559E+02 -0.30598120404E+01  0.50927734733E+03  0.51005404433E+03  0.25500000000E-02 0. -1.
<mgrwt>
<rscale>  0 0.63776467E+02</rscale>
<asrwt>0</asrwt>
<pdfrwt beam="1">  1        1 0.10664070E+00 0.63776467E+02</pdfrwt>
<pdfrwt beam="2">  1       -1 0.22568942E-03 0.63776467E+02</pdfrwt>
<totfact> 0.35983851E+05</totfact>
</mgrwt>
</event>
<event>
 4    1  0.3883670E-002  0.4527496E+02  0.7818608E-02  0.1472632E+00
          1   -1    0    0    0  501  0.00000000000E+00  0.00000000000E+00  0.64606048538E+03  0.64606048540E+03  0.50400000000E-02 0.  1.
         -1   -1    0    0  501    0 -0.00000000000E+00 -0.00000000000E+00 -0.79319247522E+00  0.79320848731E+00  0.50400000000E-02 0.  1.
          2    1    1    2    0  502  0.19455788813E+02  0.88856617835E+01  0.42856435535E+03  0.42909776203E+03  0.25500000000E-02 0.  1.
         -2    1    1    2  502    0 -0.19455788813E+02 -0.88856617835E+01  0.21670293756E+03  0.21775593185E+03  0.25500000000E-02 0.  1.
<mgrwt>
<rscale>  0 0.45274960E+02</rscale>
<asrwt>0</asrwt>
<pdfrwt beam="1">  1        1 0.99393510E-01 0.45274960E+02</pdfrwt>
<pdfrwt beam="2">  1       -1 0.12203135E-03 0.45274960E+02</pdfrwt>
<totfact> 0.84721982E+05</totfact>
</mgrwt>
</event>
<event>
 4    1  0.3883670E-002  0.6966430E+02  0.7818608E-02  0.1361238E+00
          1   -1    0    0    0  501  0.00000000000E+00  0.00000000000E+00  0.22181115797E+03  0.22181115803E+03  0.50400000000E-02 0.  1.
         -1   -1    0    0  501    0 -0.00000000000E+00 -0.00000000000E+00 -0.54698701659E+01  0.54698724878E+01  0.50400000000E-02 0.  1.
          2    1    1    2    0  502 -0.33082892189E+02 -0.37912386267E+01  0.74831083431E+02  0.81905691498E+02  0.25500000000E-02 0. -1.
         -2    1    1    2  502    0  0.33082892189E+02  0.37912386267E+01  0.14151020438E+03  0.14537533902E+03  0.25500000000E-02 0. -1.
<mgrwt>
<rscale>  0 0.69664295E+02</rscale>
<asrwt>0</asrwt>
<pdfrwt beam="1">  1        1 0.34124793E-01 0.69664295E+02</pdfrwt>
<pdfrwt beam="2">  1       -1 0.84151870E-03 0.69664295E+02</pdfrwt>
<totfact> 0.24564953E+05</totfact>
</mgrwt>
</event>
<event>
 4    1  0.3883670E-002  0.4331595E+02  0.7818608E-02  0.1485137E+00
          1   -1    0    0    0  501  0.00000000000E+00  0.00000000000E+00  0.22929352210E+04  0.22929352210E+04  0.50400000000E-02 0.  1.
         -1   -1    0    0  501    0 -0.00000000000E+00 -0.00000000000E+00 -0.20453984170E+00  0.20460192679E+00  0.50400000000E-02 0.  1.
          2    1    1    2    0  502  0.18494891538E+01  0.21430330571E+02  0.12801693225E+04  0.12803500201E+04  0.25500000000E-02 0.  1.
         -2    1    1    2  502    0 -0.18494891538E+01 -0.21430330571E+02  0.10125613587E+04  0.10127898029E+04  0.25500000000E-02 0.  1.
<mgrwt>
<rscale>  0 0.43315946E+02</rscale>
<asrwt>0</asrwt>
<pdfrwt beam="1">  1        1 0.35274785E+00 0.43315946E+02</pdfrwt>
<pdfrwt beam="2">  1       -1 0.31473463E-04 0.43315946E+02</pdfrwt>
<totfact> 0.42783543E+05</totfact>
</mgrwt>
</event>
<event>
 4    1  0.3883670E-002  0.6978496E+02  0.7818608E-02  0.1360826E+00
         -1   -1    0    0  501    0 -0.00000000000E+00  0.00000000000E+00  0.60961845294E+01  0.60961866128E+01  0.50400000000E-02 0. -1.
          1   -1    0    0    0  501  0.00000000000E+00 -0.00000000000E+00 -0.19971263756E+03  0.19971263762E+03  0.50400000000E-02 0. -1.
          2    1    1    2    0  502  0.27518236177E+02 -0.21431841511E+02 -0.93997739120E+02  0.10026042150E+03  0.25500000000E-02 0.  1.
         -2    1    1    2  502    0 -0.27518236177E+02  0.21431841511E+02 -0.99618713906E+02  0.10554840273E+03  0.25500000000E-02 0.  1.
<mgrwt>
<rscale>  0 0.69784964E+02</rscale>
<asrwt>0</asrwt>
<pdfrwt beam="2">  1        1 0.30725016E-01 0.69784964E+02</pdfrwt>
<pdfrwt beam="1">  1       -1 0.93787486E-03 0.69784964E+02</pdfrwt>
<totfact> 0.23987368E+05</totfact>
</mgrwt>
</event>
<event>
 4    1  0.3883670E-002  0.9246225E+02  0.7818608E-02  0.1296996E+00
          1   -1    0    0    0  501  0.00000000000E+00  0.00000000000E+00  0.29881417767E+03  0.29881417771E+03  0.50400000000E-02 0.  1.
         -1   -1    0    0  501    0 -0.00000000000E+00 -0.00000000000E+00 -0.71526620921E+01  0.71526638677E+01  0.50400000000E-02 0.  1.
          2    1    1    2    0  502 -0.44712119829E+02 -0.10637719533E+02  0.12929109089E+03  0.13721705771E+03  0.25500000000E-02 0. -1.
         -2    1    1    2  502    0  0.44712119829E+02  0.10637719533E+02  0.16237042468E+03  0.16874978387E+03  0.25500000000E-02 0. -1.
<mgrwt>
<rscale>  0 0.92462254E+02</rscale>
<asrwt>0</asrwt>
<pdfrwt beam="1">  1        1 0.45971409E-01 0.92462254E+02</pdfrwt>
<pdfrwt beam="2">  1       -1 0.11004098E-02 0.92462254E+02</pdfrwt>
<totfact> 0.12333105E+05</totfact>
</mgrwt>
</event>
<event>
 4    1  0.3883670E-002  0.4133045E+02  0.7818608E-02  0.1498643E+00
         -1   -1    0    0  501    0 -0.00000000000E+00  0.00000000000E+00  0.83011973042E+03  0.83011973044E+03  0.50400000000E-02 0.  1.
          1   -1    0    0    0  501  0.00000000000E+00 -0.00000000000E+00 -0.51443331128E+00  0.51445799960E+00  0.50400000000E-02 0.  1.
          2    1    1    2    0  502  0.19062389137E+02  0.76585047318E+01  0.45985004668E+03  0.46030869296E+03  0.25500000000E-02 0.  1.
         -2    1    1    2  502    0 -0.19062389137E+02 -0.76585047318E+01  0.36975525043E+03  0.37032549548E+03  0.25500000000E-02 0.  1.
<mgrwt>
<rscale>  0 0.41330449E+02</rscale>
<asrwt>0</asrwt>
<pdfrwt beam="2">  1        1 0.79145615E-04 0.41330449E+02</pdfrwt>
<pdfrwt beam="1">  1       -1 0.12771052E+00 0.41330449E+02</pdfrwt>
<totfact> 0.23306069E+05</totfact>
</mgrwt>
</event>
<event>
 4    1  0.3883670E-002  0.5506104E+02  0.7818608E-02  0.1419810E+00
         -1   -1    0    0  501    0 -0.00000000000E+00  0.00000000000E+00  0.89220374563E+01  0.89220388798E+01  0.50400000000E-02 0. -1.
          1   -1    0    0    0  501  0.00000000000E+00 -0.00000000000E+00 -0.84950257351E+02  0.84950257501E+02  0.50400000000E-02 0. -1.
          2    1    1    2    0  502  0.24350120941E+02  0.75694936985E+01 -0.20320819388E+02  0.32606154814E+02  0.25500000000E-02 0. -1.
         -2    1    1    2  502    0 -0.24350120941E+02 -0.75694936985E+01 -0.55707400507E+02  0.61266141566E+02  0.25500000000E-02 0. -1.
<mgrwt>
<rscale>  0 0.55061037E+02</rscale>
<asrwt>0</asrwt>
<pdfrwt beam="2">  1        1 0.13069270E-01 0.55061037E+02</pdfrwt>
<pdfrwt beam="1">  1       -1 0.13726213E-02 0.55061037E+02</pdfrwt>
<totfact> 0.38676445E+05</totfact>
</mgrwt>
</event>
<event>
 4    1  0.3883670E-002  0.4177864E+02  0.7818608E-02  0.1495516E+00
         -1   -1    0    0  501    0 -0.00000000000E+00  0.00000000000E+00  0.66871442464E+00  0.66873341723E+00  0.50400000000E-02 0.  1.
          1   -1    0    0    0  501  0.00000000000E+00 -0.00000000000E+00 -0.65253198588E+03  0.65253198590E+03  0.50400000000E-02 0.  1.
          2    1    1    2    0  502  0.19544018320E+02 -0.66347079185E+01 -0.27556973244E+03  0.27634157386E+03  0.25500000000E-02 0. -1.
         -2    1    1    2  502    0 -0.19544018320E+02  0.66347079185E+01 -0.37629353901E+03  0.37685914545E+03  0.25500000000E-02 0. -1.
<mgrwt>
<rscale>  0 0.41778643E+02</rscale>
<asrwt>0</asrwt>
<pdfrwt beam="2">  1        1 0.10038903E+00 0.41778643E+02</pdfrwt>
<pdfrwt beam="1">  1       -1 0.10288113E-03 0.41778643E+02</pdfrwt>
<totfact> 0.10308818E+06</totfact>
</mgrwt>
</event>
<event>
 4    1  0.3883670E-002  0.1104282E+03  0.7818608E-02  0.1259779E+00
          1   -1    0    0    0  501  0.00000000000E+00  0.00000000000E+00  0.57218568158E+01  0.57218590355E+01  0.50400000000E-02 0.  1.
         -1   -1    0    0  501    0 -0.00000000000E+00 -0.00000000000E+00 -0.53279800089E+03  0.53279800091E+03  0.50400000000E-02 0.  1.
          2    1    1    2    0  502 -0.45635451443E+01  0.34126966386E+02 -0.53042889591E+02  0.63237836156E+02  0.25500000000E-02 0. -1.
         -2    1    1    2  502    0  0.45635451443E+01 -0.34126966386E+02 -0.47403325448E+03  0.47528202379E+03  0.25500000000E-02 0. -1.
<mgrwt>
<rscale>  0 0.11042816E+03</rscale>
<asrwt>0</asrwt>
<pdfrwt beam="1">  1        1 0.88028626E-03 0.11042816E+03</pdfrwt>
<pdfrwt beam="2">  1       -1 0.81968884E-01 0.11042816E+03</pdfrwt>
<totfact> 0.27232587E+04</totfact>
</mgrwt>
</event>
<event>
 4    1  0.3883670E-002  0.6619425E+02  0.7818608E-02  0.1373535E+00
         -1   -1    0    0  501    0 -0.00000000000E+00  0.00000000000E+00  0.19509443380E+02  0.19509444031E+02  0.50400000000E-02 0. -1.
          1   -1    0    0    0  501  0.00000000000E+00 -0.00000000000E+00 -0.56148179507E+02  0.56148179733E+02  0.50400000000E-02 0. -1.
          2    1    1    2    0  502  0.26644092491E+02  0.11960405955E+02 -0.52210725620E+00  0.29210128000E+02  0.25500000000E-02 0. -1.
         -2    1    1    2  502    0 -0.26644092491E+02 -0.11960405955E+02 -0.36116628871E+02  0.46447495764E+02  0.25500000000E-02 0. -1.
<mgrwt>
<rscale>  0 0.66194252E+02</rscale>
<asrwt>0</asrwt>
<pdfrwt beam="2">  1        1 0.86381815E-02 0.66194252E+02</pdfrwt>
<pdfrwt beam="1">  1       -1 0.30014529E-02 0.66194252E+02</pdfrwt>
<totfact> 0.22753041E+05</totfact>
</mgrwt>
</event>
<event>
 4    1  0.3883670E-002  0.4500065E+02  0.7818608E-02  0.1474338E+00
          1   -1    0    0    0  501  0.00000000000E+00  0.00000000000E+00  0.19200771090E+03  0.19200771096E+03  0.50400000000E-02 0.  1.
         -1   -1    0    0  501    0 -0.00000000000E+00 -0.00000000000E+00 -0.26366870516E+01  0.26366918685E+01  0.50400000000E-02 0.  1.
          2    1    1    2    0  502  0.14962921179E+02 -0.16454342303E+02  0.10943642761E+03  0.11167347977E+03  0.25500000000E-02 0.  1.
         -2    1    1    2  502    0 -0.14962921179E+02  0.16454342303E+02  0.79934596239E+02  0.82970923059E+02  0.25500000000E-02 0.  1.
<mgrwt>
<rscale>  0 0.45000654E+02</rscale>
<asrwt>0</asrwt>
<pdfrwt beam="1">  1        1 0.29539659E-01 0.45000654E+02</pdfrwt>
<pdfrwt beam="2">  1       -1 0.40564439E-03 0.45000654E+02</pdfrwt>
<totfact> 0.72544038E+05</totfact>
</mgrwt>
</event>
<event>
 4    1  0.3883670E-002  0.7425461E+02  0.7818608E-02  0.1346195E+00
          1   -1    0    0    0  501  0.00000000000E+00  0.00000000000E+00  0.11411128391E+04  0.11411128391E+04  0.50400000000E-02 0.  1.
         -1   -1    0    0  501    0 -0.00000000000E+00 -0.00000000000E+00 -0.12079706571E+01  0.12079811712E+01  0.50400000000E-02 0.  1.
          2    1    1    2    0  502  0.76021433250E+01 -0.35155125549E+02  0.42831967668E+03  0.42982719885E+03  0.25500000000E-02 0.  1.
         -2    1    1    2  502    0 -0.76021433250E+01  0.35155125549E+02  0.71158519172E+03  0.71249362139E+03  0.25500000000E-02 0.  1.
<mgrwt>
<rscale>  0 0.74254612E+02</rscale>
<asrwt>0</asrwt>
<pdfrwt beam="1">  1        1 0.17555601E+00 0.74254612E+02</pdfrwt>
<pdfrwt beam="2">  1       -1 0.18584225E-03 0.74254612E+02</pdfrwt>
<totfact> 0.22275644E+05</totfact>
</mgrwt>
</event>
<event>
 4    1  0.3883670E-002  0.5056388E+03  0.7818608E-02  0.1012317E+00
          1   -1    0    0    0  501  0.00000000000E+00  0.00000000000E+00  0.18394479397E+04  0.18394479397E+04  0.50400000000E-02 0.  1.
         -1   -1    0    0  501    0 -0.00000000000E+00 -0.00000000000E+00 -0.34748281890E+02  0.34748282256E+02  0.50400000000E-02 0.  1.
          2    1    1    2    0  502  0.12497010519E+03 -0.12839061840E+03  0.24120397286E+03  0.30046802594E+03  0.25500000000E-02 0.  1.
         -2    1    1    2  502    0 -0.12497010519E+03  0.12839061840E+03  0.15634956850E+04  0.15737281960E+04  0.25500000000E-02 0.  1.
<mgrwt>
<rscale>  0 0.50563883E+03</rscale>
<asrwt>0</asrwt>
<pdfrwt beam="1">  1        1 0.28299209E+00 0.50563883E+03</pdfrwt>
<pdfrwt beam="2">  1       -1 0.53458876E-02 0.50563883E+03</pdfrwt>
<totfact> 0.66812011E+02</totfact>
</mgrwt>
</event>
<event>
 4    1  0.3883670E-002  0.4738724E+02  0.7818608E-02  0.1459966E+00
          1   -1    0    0    0  501  0.00000000000E+00  0.00000000000E+00  0.13937685663E+03  0.13937685672E+03  0.50400000000E-02 0.  1.
         -1   -1    0    0  501    0 -0.00000000000E+00 -0.00000000000E+00 -0.40278384491E+01  0.40278416023E+01  0.50400000000E-02 0.  1.
          2    1    1    2    0  502  0.47301284747E+01  0.22421509000E+02  0.85904752769E+02  0.88908518917E+02  0.25500000000E-02 0. -1.
         -2    1    1    2  502    0 -0.47301284747E+01 -0.22421509000E+02  0.49444265410E+02  0.54496179404E+02  0.25500000000E-02 0. -1.
<mgrwt>
<rscale>  0 0.47387243E+02</rscale>
<asrwt>0</asrwt>
<pdfrwt beam="1">  1        1 0.21442593E-01 0.47387243E+02</pdfrwt>
<pdfrwt beam="2">  1       -1 0.61966771E-03 0.47387243E+02</pdfrwt>
<totfact> 0.60590780E+05</totfact>
</mgrwt>
</event>
<event>
 4    1  0.3883670E-002  0.4993377E+02  0.7818608E-02  0.1445699E+00
         -1   -1    0    0  501    0 -0.00000000000E+00  0.00000000000E+00  0.16716096266E+02  0.16716097026E+02  0.50400000000E-02 0. -1.
          1   -1    0    0    0  501  0.00000000000E+00 -0.00000000000E+00 -0.37290129078E+02  0.37290129419E+02  0.50400000000E-02 0. -1.
          2    1    1    2    0  502 -0.19951015375E+02 -0.78057280605E+01 -0.24153447575E+02  0.32285622826E+02  0.25500000000E-02 0. -1.
         -2    1    1    2  502    0  0.19951015375E+02  0.78057280605E+01  0.35794147626E+01  0.21720603619E+02  0.25500000000E-02 0. -1.
<mgrwt>
<rscale>  0 0.49933773E+02</rscale>
<asrwt>0</asrwt>
<pdfrwt beam="2">  1        1 0.57369430E-02 0.49933773E+02</pdfrwt>
<pdfrwt beam="1">  1       -1 0.25717072E-02 0.49933773E+02</pdfrwt>
<totfact> 0.45497133E+05</totfact>
</mgrwt>
</event>
<event>
 4    1  0.3883670E-002  0.4188304E+02  0.7818608E-02  0.1494794E+00
         -1   -1    0    0  501    0 -0.00000000000E+00  0.00000000000E+00  0.37352396719E+02  0.37352397059E+02  0.50400000000E-02 0. -1.
          1   -1    0    0    0  501  0.00000000000E+00 -0.00000000000E+00 -0.11740807805E+02  0.11740808886E+02  0.50400000000E-02 0. -1.
          2    1    1    2    0  502  0.58619249035E+01  0.20078282116E+02  0.14005610567E+02  0.25172538810E+02  0.25500000000E-02 0.  1.
         -2    1    1    2  502    0 -0.58619249035E+01 -0.20078282116E+02  0.11605978347E+02  0.23920667135E+02  0.25500000000E-02 0.  1.
<mgrwt>
<rscale>  0 0.41883044E+02</rscale>
<asrwt>0</asrwt>
<pdfrwt beam="2">  1        1 0.18062782E-02 0.41883044E+02</pdfrwt>
<pdfrwt beam="1">  1       -1 0.57465227E-02 0.41883044E+02</pdfrwt>
<totfact> 0.64788289E+05</totfact>
</mgrwt>
</event>
<event>
 4    1  0.3883670E-002  0.8306464E+02  0.7818608E-02  0.1320573E+00
          1   -1    0    0    0  501  0.00000000000E+00  0.00000000000E+00  0.13452844965E+03  0.13452844975E+03  0.50400000000E-02 0. -1.
         -1   -1    0    0  501    0 -0.00000000000E+00 -0.00000000000E+00 -0.12822071929E+02  0.12822072920E+02  0.50400000000E-02 0. -1.
          2    1    1    2    0  502  0.20481534742E+02  0.18570117344E+02  0.58731857214E+01  0.28263701820E+02  0.25500000000E-02 0.  1.
         -2    1    1    2  502    0 -0.20481534742E+02 -0.18570117344E+02  0.11583319200E+03  0.11908682085E+03  0.25500000000E-02 0.  1.
<mgrwt>
<rscale>  0 0.83064638E+02</rscale>
<asrwt>0</asrwt>
<pdfrwt beam="1">  1        1 0.20696685E-01 0.83064638E+02</pdfrwt>
<pdfrwt beam="2">  1       -1 0.19726265E-02 0.83064638E+02</pdfrwt>
<totfact> 0.14122706E+05</totfact>
</mgrwt>
</event>
<event>
 4    1  0.3883670E-002  0.4905355E+02  0.7818608E-02  0.1450514E+00
         -1   -1    0    0  501    0 -0.00000000000E+00  0.00000000000E+00  0.24220598325E+03  0.24220598330E+03  0.50400000000E-02 0.  1.
          1   -1    0    0    0  501  0.00000000000E+00 -0.00000000000E+00 -0.24836791396E+01  0.24836842533E+01  0.50400000000E-02 0.  1.
          2    1    1    2    0  502  0.83898973987E+01  0.22236716775E+02  0.89642023028E+02  0.92739173225E+02  0.25500000000E-02 0. -1.
         -2    1    1    2  502    0 -0.83898973987E+01 -0.22236716775E+02  0.15008028108E+03  0.15195049433E+03  0.25500000000E-02 0. -1.
<mgrwt>
<rscale>  0 0.49053545E+02</rscale>
<asrwt>0</asrwt>
<pdfrwt beam="2">  1        1 0.38210493E-03 0.49053545E+02</pdfrwt>
<pdfrwt beam="1">  1       -1 0.37262455E-01 0.49053545E+02</pdfrwt>
<totfact> 0.31733274E+05</totfact>
</mgrwt>
</event>
<event>
 4    1  0.3883670E-002  0.4633584E+02  0.7818608E-02  0.1466170E+00
          1   -1    0    0    0  501  0.00000000000E+00  0.00000000000E+00  0.22231919778E+01  0.22231976907E+01  0.50400000000E-02 0. -1.
         -1   -1    0    0  501    0 -0.00000000000E+00 -0.00000000000E+00 -0.24143300825E+03  0.24143300831E+03  0.50400000000E-02 0. -1.
          2    1    1    2    0  502  0.94527728929E+01 -0.19840476084E+02 -0.81051513883E+02  0.83978255017E+02  0.25500000000E-02 0. -1.
         -2    1    1    2  502    0 -0.94527728929E+01  0.19840476084E+02 -0.15815830239E+03  0.15967795098E+03  0.25500000000E-02 0. -1.
<mgrwt>
<rscale>  0 0.46335845E+02</rscale>
<asrwt>0</asrwt>
<pdfrwt beam="1">  1        1 0.34203017E-03 0.46335845E+02</pdfrwt>
<pdfrwt beam="2">  1       -1 0.37143519E-01 0.46335845E+02</pdfrwt>
<totfact> 0.36558997E+05</totfact>
</mgrwt>
</event>
<event>
 4    1  0.3883670E-002  0.5161269E+02  0.7818608E-02  0.1436832E+00
         -1   -1    0    0  501    0 -0.00000000000E+00  0.00000000000E+00  0.55128130717E+02  0.55128130947E+02  0.50400000000E-02 0. -1.
          1   -1    0    0    0  501  0.00000000000E+00 -0.00000000000E+00 -0.12080354390E+02  0.12080355442E+02  0.50400000000E-02 0. -1.
          2    1    1    2    0  502 -0.42373292185E+01 -0.22262408487E+02  0.54486764712E+01  0.23307892919E+02  0.25500000000E-02 0.  1.
         -2    1    1    2  502    0  0.42373292185E+01  0.22262408487E+02  0.37599099856E+02  0.43900593470E+02  0.25500000000E-02 0.  1.
<mgrwt>
<rscale>  0 0.51612688E+02</rscale>
<asrwt>0</asrwt>
<pdfrwt beam="2">  1        1 0.18585162E-02 0.51612688E+02</pdfrwt>
<pdfrwt beam="1">  1       -1 0.84812509E-02 0.51612688E+02</pdfrwt>
<totfact> 0.37382199E+05</totfact>
</mgrwt>
</event>
<event>
 4    1  0.3883670E-002  0.5515384E+02  0.7818608E-02  0.1419373E+00
          1   -1    0    0    0  501  0.00000000000E+00  0.00000000000E+00  0.38318573968E+01  0.38318607114E+01  0.50400000000E-02 0.  1.
         -1   -1    0    0  501    0 -0.00000000000E+00 -0.00000000000E+00 -0.19846408448E+03  0.19846408454E+03  0.50400000000E-02 0.  1.
          2    1    1    2    0  502  0.15803725976E+02  0.17278219836E+02 -0.43887276563E+02  0.49743217488E+02  0.25500000000E-02 0.  1.
         -2    1    1    2  502    0 -0.15803725976E+02 -0.17278219836E+02 -0.15074495052E+03  0.15255272776E+03  0.25500000000E-02 0.  1.
<mgrwt>
<rscale>  0 0.55153836E+02</rscale>
<asrwt>0</asrwt>
<pdfrwt beam="1">  1        1 0.58951694E-03 0.55153836E+02</pdfrwt>
<pdfrwt beam="2">  1       -1 0.30532928E-01 0.55153836E+02</pdfrwt>
<totfact> 0.25160879E+05</totfact>
</mgrwt>
</event>
<event>
 4    1  0.3883670E-002  0.6524657E+02  0.7818608E-02  0.1377046E+00
          1   -1    0    0    0  501  0.00000000000E+00  0.00000000000E+00  0.21685920463E+03  0.21685920469E+03  0.50400000000E-02 0. -1.
         -1   -1    0    0  501    0 -0.00000000000E+00 -0.00000000000E+00 -0.49076937450E+01  0.49076963329E+01  0.50400000000E-02 0. -1.
          2    1    1    2    0  502  0.24814764234E+02  0.37712663625E+01  0.17680716220E+03  0.17857986333E+03  0.25500000000E-02 0.  1.
         -2    1    1    2  502    0 -0.24814764234E+02 -0.37712663625E+01  0.35144348690E+02  0.43187037700E+02  0.25500000000E-02 0.  1.
<mgrwt>
<rscale>  0 0.65246574E+02</rscale>
<asrwt>0</asrwt>
<pdfrwt beam="1">  1        1 0.33362954E-01 0.65246574E+02</pdfrwt>
<pdfrwt beam="2">  1       -1 0.75503003E-03 0.65246574E+02</pdfrwt>
<totfact> 0.28986158E+05</totfact>
</mgrwt>
</event>
<event>
 4    1  0.3883670E-002  0.4421116E+02  0.7818608E-02  0.1479327E+00
          1   -1    0    0    0  501  0.00000000000E+00  0.00000000000E+00  0.15131937232E+02  0.15131938071E+02  0.50400000000E-02 0. -1.
         -1   -1    0    0  501    0 -0.00000000000E+00 -0.00000000000E+00 -0.32293062531E+02  0.32293062925E+02  0.50400000000E-02 0. -1.
          2    1    1    2    0  502 -0.12975752303E+02 -0.17717539105E+02 -0.11289038875E+02  0.24692584818E+02  0.25500000000E-02 0. -1.
         -2    1    1    2  502    0  0.12975752303E+02  0.17717539105E+02 -0.58720864248E+01  0.22732416177E+02  0.25500000000E-02 0. -1.
<mgrwt>
<rscale>  0 0.44211158E+02</rscale>
<asrwt>0</asrwt>
<pdfrwt beam="1">  1        1 0.23279905E-02 0.44211158E+02</pdfrwt>
<pdfrwt beam="2">  1       -1 0.49681635E-02 0.44211158E+02</pdfrwt>
<totfact> 0.57598472E+05</totfact>
</mgrwt>
</event>
<event>
 4    1  0.3883670E-002  0.4391681E+02  0.7818608E-02  0.1481219E+00
         -1   -1    0    0  501    0 -0.00000000000E+00  0.00000000000E+00  0.62688293443E+01  0.62688313703E+01  0.50400000000E-02 0.  1.
          1   -1    0    0    0  501  0.00000000000E+00 -0.00000000000E+00 -0.76915702832E+02  0.76915702997E+02  0.50400000000E-02 0.  1.
          2    1    1    2    0  502 -0.14289789574E+02 -0.16459549156E+02 -0.40355096530E+02  0.45865549892E+02  0.25500000000E-02 0.  1.
         -2    1    1    2  502    0  0.14289789574E+02  0.16459549156E+02 -0.30291776958E+02  0.37318984475E+02  0.25500000000E-02 0.  1.
<mgrwt>
<rscale>  0 0.43916808E+02</rscale>
<asrwt>0</asrwt>
<pdfrwt beam="2">  1        1 0.11833185E-01 0.43916808E+02</pdfrwt>
<pdfrwt beam="1">  1       -1 0.96443551E-03 0.43916808E+02</pdfrwt>
<totfact> 0.67674775E+05</totfact>
</mgrwt>
</event>
<event>
 4    1  0.3883670E-002  0.1364569E+03  0.7818608E-02  0.1218178E+00
          1   -1    0    0    0  501  0.00000000000E+00  0.00000000000E+00  0.61516834459E+03  0.61516834461E+03  0.50400000000E-02 0. -1.
         -1   -1    0    0  501    0 -0.00000000000E+00 -0.00000000000E+00 -0.75672331443E+01  0.75672348227E+01  0.50400000000E-02 0. -1.
          2    1    1    2    0  502  0.60392597971E+02 -0.30725366229E+02  0.34025482229E+03  0.34693610091E+03  0.25500000000E-02 0.  1.
         -2    1    1    2  502    0 -0.60392597971E+02  0.30725366229E+02  0.26734628916E+03  0.27579947852E+03  0.25500000000E-02 0.  1.
<mgrwt>
<rscale>  0 0.13645692E+03</rscale>
<asrwt>0</asrwt>
<pdfrwt beam="1">  1        1 0.94641297E-01 0.13645692E+03</pdfrwt>
<pdfrwt beam="2">  1       -1 0.11641897E-02 0.13645692E+03</pdfrwt>
<totfact> 0.47762390E+04</totfact>
</mgrwt>
</event>
<event>
 4    1  0.3883670E-002  0.9750207E+02  0.7818608E-02  0.1285638E+00
         -1   -1    0    0  501    0 -0.00000000000E+00  0.00000000000E+00  0.23831082211E+01  0.23831135506E+01  0.50400000000E-02 0. -1.
          1   -1    0    0    0  501  0.00000000000E+00 -0.00000000000E+00 -0.99729446562E+03  0.99729446564E+03  0.50400000000E-02 0. -1.
          2    1    1    2    0  502  0.32882809119E+02 -0.11609680092E+02 -0.84674661324E+03  0.84746438913E+03  0.25500000000E-02 0. -1.
         -2    1    1    2  502    0 -0.32882809119E+02  0.11609680092E+02 -0.14816474416E+03  0.15221319005E+03  0.25500000000E-02 0. -1.
<mgrwt>
<rscale>  0 0.97502068E+02</rscale>
<asrwt>0</asrwt>
<pdfrwt beam="2">  1        1 0.15342959E+00 0.97502068E+02</pdfrwt>
<pdfrwt beam="1">  1       -1 0.36663324E-03 0.97502068E+02</pdfrwt>
<totfact> 0.11393384E+05</totfact>
</mgrwt>
</event>
<event>
 4    1  0.3883670E-002  0.5586241E+02  0.7818608E-02  0.1416064E+00
          1   -1    0    0    0  501  0.00000000000E+00  0.00000000000E+00  0.71732121106E+02  0.71732121283E+02  0.50400000000E-02 0. -1.
         -1   -1    0    0  501    0 -0.00000000000E+00 -0.00000000000E+00 -0.10875912461E+02  0.10875913629E+02  0.50400000000E-02 0. -1.
          2    1    1    2    0  502 -0.10437779956E+02 -0.19174548137E+02  0.46641912822E+01  0.22324095356E+02  0.25500000000E-02 0. -1.
         -2    1    1    2  502    0  0.10437779956E+02  0.19174548137E+02  0.56192017362E+02  0.60283939556E+02  0.25500000000E-02 0. -1.
<mgrwt>
<rscale>  0 0.55862414E+02</rscale>
<asrwt>0</asrwt>
<pdfrwt beam="1">  1        1 0.11035711E-01 0.55862414E+02</pdfrwt>
<pdfrwt beam="2">  1       -1 0.16732174E-02 0.55862414E+02</pdfrwt>
<totfact> 0.36494538E+05</totfact>
</mgrwt>
</event>
<event>
 4    1  0.3883670E-002  0.5645261E+02  0.7818608E-02  0.1413352E+00
         -1   -1    0    0  501    0 -0.00000000000E+00  0.00000000000E+00  0.11349114436E+03  0.11349114448E+03  0.50400000000E-02 0. -1.
          1   -1    0    0    0  501  0.00000000000E+00 -0.00000000000E+00 -0.70201452478E+01  0.70201470570E+01  0.50400000000E-02 0. -1.
          2    1    1    2    0  502 -0.27703609116E+02  0.44821185499E+01  0.46779886582E+02  0.54552150644E+02  0.25500000000E-02 0. -1.
         -2    1    1    2  502    0  0.27703609116E+02 -0.44821185499E+01  0.59691112535E+02  0.65959140889E+02  0.25500000000E-02 0. -1.
<mgrwt>
<rscale>  0 0.56452615E+02</rscale>
<asrwt>0</asrwt>
<pdfrwt beam="2">  1        1 0.10800226E-02 0.56452615E+02</pdfrwt>
<pdfrwt beam="1">  1       -1 0.17460175E-01 0.56452615E+02</pdfrwt>
<totfact> 0.26918497E+05</totfact>
</mgrwt>
</event>
<event>
 4    1  0.3883670E-002  0.4555389E+02  0.7818608E-02  0.1470913E+00
          1   -1    0    0    0  501  0.00000000000E+00  0.00000000000E+00  0.92141109979E+00  0.92142488377E+00  0.50400000000E-02 0. -1.
         -1   -1    0    0  501    0 -0.00000000000E+00 -0.00000000000E+00 -0.56303354131E+03  0.56303354133E+03  0.50400000000E-02 0. -1.
          2    1    1    2    0  502 -0.55672354307E+01 -0.20589054642E+02 -0.18210472998E+03  0.18334949132E+03  0.25500000000E-02 0.  1.
         -2    1    1    2  502    0  0.55672354307E+01  0.20589054642E+02 -0.38000740023E+03  0.38060547489E+03  0.25500000000E-02 0.  1.
<mgrwt>
<rscale>  0 0.45553891E+02</rscale>
<asrwt>0</asrwt>
<pdfrwt beam="1">  1        1 0.14175707E-03 0.45553891E+02</pdfrwt>
<pdfrwt beam="2">  1       -1 0.86620271E-01 0.45553891E+02</pdfrwt>
<totfact> 0.25401470E+05</totfact>
</mgrwt>
</event>
<event>
 4    1  0.3883670E-002  0.7118782E+02  0.7818608E-02  0.1356100E+00
          1   -1    0    0    0  501  0.00000000000E+00  0.00000000000E+00  0.11118947998E+04  0.11118947998E+04  0.50400000000E-02 0.  1.
         -1   -1    0    0  501    0 -0.00000000000E+00 -0.00000000000E+00 -0.11394245379E+01  0.11394356845E+01  0.50400000000E-02 0.  1.
          2    1    1    2    0  502  0.10466168409E+02 -0.30881862521E+02  0.33222896365E+03  0.33382527527E+03  0.25500000000E-02 0.  1.
         -2    1    1    2  502    0 -0.10466168409E+02  0.30881862521E+02  0.77852641164E+03  0.77920896025E+03  0.25500000000E-02 0.  1.
<mgrwt>
<rscale>  0 0.71187820E+02</rscale>
<asrwt>0</asrwt>
<pdfrwt beam="1">  1        1 0.17105969E+00 0.71187820E+02</pdfrwt>
<pdfrwt beam="2">  1       -1 0.17529802E-03 0.71187820E+02</pdfrwt>
<totfact> 0.25095808E+05</totfact>
</mgrwt>
</event>
<event>
 4    1  0.3883670E-002  0.6966237E+02  0.7818608E-02  0.1361245E+00
         -1   -1    0    0  501    0 -0.00000000000E+00  0.00000000000E+00  0.51301865904E+01  0.51301890661E+01  0.50400000000E-02 0. -1.
          1   -1    0    0    0  501  0.00000000000E+00 -0.00000000000E+00 -0.23648482168E+03  0.23648482174E+03  0.50400000000E-02 0. -1.
          2    1    1    2    0  502  0.26711912588E+02  0.69637805302E+01 -0.18934989804E+03  0.19135152053E+03  0.25500000000E-02 0. -1.
         -2    1    1    2  502    0 -0.26711912588E+02 -0.69637805302E+01 -0.42004737048E+02  0.50263490272E+02  0.25500000000E-02 0. -1.
<mgrwt>
<rscale>  0 0.69662373E+02</rscale>
<asrwt>0</asrwt>
<pdfrwt beam="2">  1        1 0.36382272E-01 0.69662373E+02</pdfrwt>
<pdfrwt beam="1">  1       -1 0.78925985E-03 0.69662373E+02</pdfrwt>
<totfact> 0.24859653E+05</totfact>
</mgrwt>
</event>
<event>
 4    1  0.3883670E-002  0.8665246E+02  0.7818608E-02  0.1311167E+00
         -1   -1    0    0  501    0 -0.00000000000E+00  0.00000000000E+00  0.27380555104E+01  0.27380601490E+01  0.50400000000E-02 0. -1.
          1   -1    0    0    0  501  0.00000000000E+00 -0.00000000000E+00 -0.68558164655E+03  0.68558164657E+03  0.50400000000E-02 0. -1.
          2    1    1    2    0  502  0.27473717639E+02  0.30605980746E+02 -0.23319506487E+03  0.23679415006E+03  0.25500000000E-02 0. -1.
         -2    1    1    2  502    0 -0.27473717639E+02 -0.30605980746E+02 -0.44964852617E+03  0.45152555665E+03  0.25500000000E-02 0. -1.
<mgrwt>
<rscale>  0 0.86652460E+02</rscale>
<asrwt>0</asrwt>
<pdfrwt beam="2">  1        1 0.10547396E+00 0.86652460E+02</pdfrwt>
<pdfrwt beam="1">  1       -1 0.42124021E-03 0.86652460E+02</pdfrwt>
<totfact> 0.16261916E+05</totfact>
</mgrwt>
</event>
<event>
 4    1  0.3883670E-002  0.6246202E+02  0.7818608E-02  0.1387781E+00
          1   -1    0    0    0  501  0.00000000000E+00  0.00000000000E+00  0.17279711778E+04  0.17279711778E+04  0.50400000000E-02 0. -1.
         -1   -1    0    0  501    0 -0.00000000000E+00 -0.00000000000E+00 -0.56445178442E+00  0.56447428509E+00  0.50400000000E-02 0. -1.
          2    1    1    2    0  502 -0.20779589778E+02  0.18103762214E+02  0.12702651926E+04  0.12705641256E+04  0.25500000000E-02 0. -1.
         -2    1    1    2  502    0  0.20779589778E+02 -0.18103762214E+02  0.45714153335E+03  0.45797152649E+03  0.25500000000E-02 0. -1.
<mgrwt>
<rscale>  0 0.62462016E+02</rscale>
<asrwt>0</asrwt>
<pdfrwt beam="1">  1        1 0.26584033E+00 0.62462016E+02</pdfrwt>
<pdfrwt beam="2">  1       -1 0.86840923E-04 0.62462016E+02</pdfrwt>
<totfact> 0.25826696E+05</totfact>
</mgrwt>
</event>
<event>
 4    1  0.3883670E-002  0.6012368E+02  0.7818608E-02  0.1397313E+00
         -1   -1    0    0  501    0 -0.00000000000E+00  0.00000000000E+00  0.29662725738E+01  0.29662768555E+01  0.50400000000E-02 0.  1.
          1   -1    0    0    0  501  0.00000000000E+00 -0.00000000000E+00 -0.30466304342E+03  0.30466304346E+03  0.50400000000E-02 0.  1.
          2    1    1    2    0  502 -0.71422426704E+01 -0.20260989757E+02 -0.25844263096E+03  0.25933397934E+03  0.25500000000E-02 0.  1.
         -2    1    1    2  502    0  0.71422426704E+01  0.20260989757E+02 -0.43254139886E+02  0.48295340977E+02  0.25500000000E-02 0.  1.
<mgrwt>
<rscale>  0 0.60123682E+02</rscale>
<asrwt>0</asrwt>
<pdfrwt beam="2">  1        1 0.46871213E-01 0.60123682E+02</pdfrwt>
<pdfrwt beam="1">  1       -1 0.45635020E-03 0.60123682E+02</pdfrwt>
<totfact> 0.38026315E+05</totfact>
</mgrwt>
</event>
<event>
 4    1  0.3883670E-002  0.1020593E+03  0.7818608E-02  0.1276024E+00
          1   -1    0    0    0  501  0.00000000000E+00  0.00000000000E+00  0.47298752048E+03  0.47298752051E+03  0.50400000000E-02 0. -1.
         -1   -1    0    0  501    0 -0.00000000000E+00 -0.00000000000E+00 -0.55054829068E+01  0.55054852137E+01  0.50400000000E-02 0. -1.
          2    1    1    2    0  502  0.70543648957E+01  0.47478717355E+02  0.15253144698E+03  0.15990570656E+03  0.25500000000E-02 0. -1.
         -2    1    1    2  502    0 -0.70543648957E+01 -0.47478717355E+02  0.31495059059E+03  0.31858729916E+03  0.25500000000E-02 0. -1.
<mgrwt>
<rscale>  0 0.10205930E+03</rscale>
<asrwt>0</asrwt>
<pdfrwt beam="1">  1        1 0.72767317E-01 0.10205930E+03</pdfrwt>
<pdfrwt beam="2">  1       -1 0.84699748E-03 0.10205930E+03</pdfrwt>
<totfact> 0.10238762E+05</totfact>
</mgrwt>
</event>
<event>
 4    1  0.3883670E-002  0.4369895E+02  0.7818608E-02  0.1482631E+00
         -1   -1    0    0  501    0 -0.00000000000E+00  0.00000000000E+00  0.10927076297E+01  0.10927192528E+01  0.50400000000E-02 0. -1.
          1   -1    0    0    0  501  0.00000000000E+00 -0.00000000000E+00 -0.43689353443E+03  0.43689353445E+03  0.50400000000E-02 0. -1.
          2    1    1    2    0  502 -0.20699517460E+02 -0.57142035858E+01 -0.17746324985E+03  0.17875773325E+03  0.25500000000E-02 0.  1.
         -2    1    1    2  502    0  0.20699517460E+02  0.57142035858E+01 -0.25833757695E+03  0.25922852045E+03  0.25500000000E-02 0.  1.
<mgrwt>
<rscale>  0 0.43698945E+02</rscale>
<asrwt>0</asrwt>
<pdfrwt beam="2">  1        1 0.67214252E-01 0.43698945E+02</pdfrwt>
<pdfrwt beam="1">  1       -1 0.16811011E-03 0.43698945E+02</pdfrwt>
<totfact> 0.89329803E+05</totfact>
</mgrwt>
</event>
<event>
 4    1  0.3883670E-002  0.7953355E+02  0.7818608E-02  0.1330380E+00
         -1   -1    0    0  501    0 -0.00000000000E+00  0.00000000000E+00  0.13460386895E+02  0.13460387839E+02  0.50400000000E-02 0.  1.
          1   -1    0    0    0  501  0.00000000000E+00 -0.00000000000E+00 -0.11748520099E+03  0.11748520109E+03  0.50400000000E-02 0.  1.
          2    1    1    2    0  502  0.16399879598E+02  0.35563569975E+02 -0.63380187334E+02  0.74503501349E+02  0.25500000000E-02 0.  1.
         -2    1    1    2  502    0 -0.16399879598E+02 -0.35563569975E+02 -0.40644626756E+02  0.56442087584E+02  0.25500000000E-02 0.  1.
<mgrwt>
<rscale>  0 0.79533548E+02</rscale>
<asrwt>0</asrwt>
<pdfrwt beam="2">  1        1 0.18074646E-01 0.79533548E+02</pdfrwt>
<pdfrwt beam="1">  1       -1 0.20708289E-02 0.79533548E+02</pdfrwt>
<totfact> 0.15501126E+05</totfact>
</mgrwt>
</event>
<event>
 4    1  0.3883670E-002  0.4244463E+02  0.7818608E-02  0.1490955E+00
          1   -1    0    0    0  501  0.00000000000E+00  0.00000000000E+00  0.91855022999E+03  0.91855023001E+03  0.50400000000E-02 0.  1.
         -1   -1    0    0  501    0 -0.00000000000E+00 -0.00000000000E+00 -0.49031047924E+00  0.49033638214E+00  0.50400000000E-02 0.  1.
          2    1    1    2    0  502 -0.83309990991E+01  0.18863452404E+02  0.56762058260E+03  0.56799503623E+03  0.25500000000E-02 0.  1.
         -2    1    1    2  502    0  0.83309990991E+01 -0.18863452404E+02  0.35043933691E+03  0.35104553016E+03  0.25500000000E-02 0.  1.
<mgrwt>
<rscale>  0 0.42444633E+02</rscale>
<asrwt>0</asrwt>
<pdfrwt beam="1">  1        1 0.14131544E+00 0.42444633E+02</pdfrwt>
<pdfrwt beam="2">  1       -1 0.75434364E-04 0.42444633E+02</pdfrwt>
<totfact> 0.96745013E+05</totfact>
</mgrwt>
</event>
<event>
 4    1  0.3883670E-002  0.6627756E+02  0.7818608E-02  0.1373229E+00
          1   -1    0    0    0  501  0.00000000000E+00  0.00000000000E+00  0.25706494465E+03  0.25706494470E+03  0.50400000000E-02 0.  1.
         -1   -1    0    0  501    0 -0.00000000000E+00 -0.00000000000E+00 -0.42719875885E+01  0.42719905615E+01  0.50400000000E-02 0.  1.
          2    1    1    2    0  502 -0.69888904775E+00  0.21927156030E+02  0.22433153407E+03  0.22540169875E+03  0.25500000000E-02 0. -1.
         -2    1    1    2  502    0  0.69888904775E+00 -0.21927156030E+02  0.28461422993E+02  0.35935236507E+02  0.25500000000E-02 0. -1.
<mgrwt>
<rscale>  0 0.66277557E+02</rscale>
<asrwt>0</asrwt>
<pdfrwt beam="1">  1        1 0.39548448E-01 0.66277557E+02</pdfrwt>
<pdfrwt beam="2">  1       -1 0.65722917E-03 0.66277557E+02</pdfrwt>
<totfact> 0.28718614E+05</totfact>
</mgrwt>
</event>
<event>
 4    1  0.3883670E-002  0.4620765E+02  0.7818608E-02  0.1466940E+00
         -1   -1    0    0  501    0 -0.00000000000E+00  0.00000000000E+00  0.30078157071E+01  0.30078199297E+01  0.50400000000E-02 0.  1.
          1   -1    0    0    0  501  0.00000000000E+00 -0.00000000000E+00 -0.17746643060E+03  0.17746643067E+03  0.50400000000E-02 0.  1.
          2    1    1    2    0  502 -0.12086531786E+02 -0.19472311372E+02 -0.75821162478E+02  0.79209240918E+02  0.25500000000E-02 0.  1.
         -2    1    1    2  502    0  0.12086531786E+02  0.19472311372E+02 -0.98637452418E+02  0.10126500969E+03  0.25500000000E-02 0.  1.
<mgrwt>
<rscale>  0 0.46207649E+02</rscale>
<asrwt>0</asrwt>
<pdfrwt beam="2">  1        1 0.27302520E-01 0.46207649E+02</pdfrwt>
<pdfrwt beam="1">  1       -1 0.46274135E-03 0.46207649E+02</pdfrwt>
<totfact> 0.67047402E+05</totfact>
</mgrwt>
</event>
<event>
 4    1  0.3883670E-002  0.6052344E+02  0.7818608E-02  0.1395648E+00
          1   -1    0    0    0  501  0.00000000000E+00  0.00000000000E+00  0.22760311196E+04  0.22760311196E+04  0.50400000000E-02 0. -1.
         -1   -1    0    0  501    0 -0.00000000000E+00 -0.00000000000E+00 -0.40233887008E+00  0.40237043626E+00  0.50400000000E-02 0. -1.
          2    1    1    2    0  502  0.20779370146E+02  0.17986946513E+02  0.66136833717E+03  0.66193911343E+03  0.25500000000E-02 0.  1.
         -2    1    1    2  502    0 -0.20779370146E+02 -0.17986946513E+02  0.16142604435E+04  0.16144943766E+04  0.25500000000E-02 0.  1.
<mgrwt>
<rscale>  0 0.60523441E+02</rscale>
<asrwt>0</asrwt>
<pdfrwt beam="1">  1        1 0.35015836E+00 0.60523441E+02</pdfrwt>
<pdfrwt beam="2">  1       -1 0.61900766E-04 0.60523441E+02</pdfrwt>
<totfact> 0.18638233E+05</totfact>
</mgrwt>
</event>
<event>
 4    1  0.3883670E-002  0.4178091E+02  0.7818608E-02  0.1495500E+00
         -1   -1    0    0  501    0 -0.00000000000E+00  0.00000000000E+00  0.11332647882E+03  0.11332647893E+03  0.50400000000E-02 0.  1.
          1   -1    0    0    0  501  0.00000000000E+00 -0.00000000000E+00 -0.38509170692E+01  0.38509203674E+01  0.50400000000E-02 0.  1.
          2    1    1    2    0  502  0.11189391962E+02  0.17232738376E+02  0.44154000847E+02  0.48700570446E+02  0.25500000000E-02 0.  1.
         -2    1    1    2  502    0 -0.11189391962E+02 -0.17232738376E+02  0.65321560899E+02  0.68476828849E+02  0.25500000000E-02 0.  1.
<mgrwt>
<rscale>  0 0.41780908E+02</rscale>
<asrwt>0</asrwt>
<pdfrwt beam="2">  1        1 0.59244908E-03 0.41780908E+02</pdfrwt>
<pdfrwt beam="1">  1       -1 0.17434842E-01 0.41780908E+02</pdfrwt>
<totfact> 0.56576305E+05</totfact>
</mgrwt>
</event>
<event>
 4    1  0.3883670E-002  0.7609901E+02  0.7818608E-02  0.1340501E+00
          1   -1    0    0    0  501  0.00000000000E+00  0.00000000000E+00  0.12584578375E+04  0.12584578375E+04  0.50400000000E-02 0.  1.
         -1   -1    0    0  501    0 -0.00000000000E+00 -0.00000000000E+00 -0.11504223201E+01  0.11504333601E+01  0.50400000000E-02 0.  1.
          2    1    1    2    0  502  0.33722501519E+01 -0.29514499914E+02  0.10221956645E+04  0.10226272314E+04  0.25500000000E-02 0.  1.
         -2    1    1    2  502    0 -0.33722501519E+01  0.29514499914E+02  0.23511175070E+03  0.23698103953E+03  0.25500000000E-02 0.  1.
<mgrwt>
<rscale>  0 0.76099013E+02</rscale>
<asrwt>0</asrwt>
<pdfrwt beam="1">  1        1 0.19361007E+00 0.76099013E+02</pdfrwt>
<pdfrwt beam="2">  1       -1 0.17698783E-03 0.76099013E+02</pdfrwt>
<totfact> 0.19966898E+05</totfact>
</mgrwt>
</event>
<event>
 4    1  0.3883670E-002  0.4854958E+02  0.7818608E-02  0.1453325E+00
          1   -1    0    0    0  501  0.00000000000E+00  0.00000000000E+00  0.81659573671E+02  0.81659573826E+02  0.50400000000E-02 0. -1.
         -1   -1    0    0  501    0 -0.00000000000E+00 -0.00000000000E+00 -0.72161217794E+01  0.72161235395E+01  0.50400000000E-02 0. -1.
          2    1    1    2    0  502 -0.13882389198E+02 -0.17257874907E+02  0.55409487693E+02  0.59672156900E+02  0.25500000000E-02 0.  1.
         -2    1    1    2  502    0  0.13882389198E+02  0.17257874907E+02  0.19033964198E+02  0.29203540466E+02  0.25500000000E-02 0.  1.
<mgrwt>
<rscale>  0 0.48549583E+02</rscale>
<asrwt>0</asrwt>
<pdfrwt beam="1">  1        1 0.12563012E-01 0.48549583E+02</pdfrwt>
<pdfrwt beam="2">  1       -1 0.11101727E-02 0.48549583E+02</pdfrwt>
<totfact> 0.52997974E+05</totfact>
</mgrwt>
</event>
<event>
 4    1  0.3883670E-002  0.6460242E+02  0.7818608E-02  0.1379473E+00
          1   -1    0    0    0  501  0.00000000000E+00  0.00000000000E+00  0.35602634990E+02  0.35602635347E+02  0.50400000000E-02 0. -1.
         -1   -1    0    0  501    0 -0.00000000000E+00 -0.00000000000E+00 -0.29305924625E+02  0.29305925058E+02  0.50400000000E-02 0. -1.
          2    1    1    2    0  502  0.14896040141E+02  0.14223003667E+02 -0.21852937346E+02  0.30028931422E+02  0.25500000000E-02 0. -1.
         -2    1    1    2  502    0 -0.14896040141E+02 -0.14223003667E+02  0.28149647712E+02  0.34879628983E+02  0.25500000000E-02 0. -1.
<mgrwt>
<rscale>  0 0.64602420E+02</rscale>
<asrwt>0</asrwt>
<pdfrwt beam="1">  1        1 0.54773285E-02 0.64602420E+02</pdfrwt>
<pdfrwt beam="2">  1       -1 0.45086039E-02 0.64602420E+02</pdfrwt>
<totfact> 0.23035416E+05</totfact>
</mgrwt>
</event>
<event>
 4    1  0.3883670E-002  0.6985206E+02  0.7818608E-02  0.1360597E+00
          1   -1    0    0    0  501  0.00000000000E+00  0.00000000000E+00  0.36949227099E+02  0.36949227442E+02  0.50400000000E-02 0.  1.
         -1   -1    0    0  501    0 -0.00000000000E+00 -0.00000000000E+00 -0.33013610835E+02  0.33013611219E+02  0.50400000000E-02 0.  1.
          2    1    1    2    0  502  0.12523683396E+02 -0.30249842235E+02 -0.10214204128E+02  0.34296145170E+02  0.25500000000E-02 0. -1.
         -2    1    1    2  502    0 -0.12523683396E+02  0.30249842235E+02  0.14149820392E+02  0.35666693492E+02  0.25500000000E-02 0. -1.
<mgrwt>
<rscale>  0 0.69852056E+02</rscale>
<asrwt>0</asrwt>
<pdfrwt beam="1">  1        1 0.56844965E-02 0.69852056E+02</pdfrwt>
<pdfrwt beam="2">  1       -1 0.50790171E-02 0.69852056E+02</pdfrwt>
<totfact> 0.18741292E+05</totfact>
</mgrwt>
</event>
<event>
 4    1  0.3883670E-002  0.5917208E+02  0.7818608E-02  0.1401339E+00
         -1   -1    0    0  501    0 -0.00000000000E+00  0.00000000000E+00  0.34542936783E+02  0.34542937151E+02  0.50400000000E-02 0.  1.
          1   -1    0    0    0  501  0.00000000000E+00 -0.00000000000E+00 -0.25340451460E+02  0.25340451962E+02  0.50400000000E-02 0.  1.
          2    1    1    2    0  502 -0.38861120652E+01  0.22251988349E+02 -0.14735532664E+02  0.26970146123E+02  0.25500000000E-02 0.  1.
         -2    1    1    2  502    0  0.38861120652E+01 -0.22251988349E+02  0.23938017987E+02  0.32913242990E+02  0.25500000000E-02 0.  1.
<mgrwt>
<rscale>  0 0.59172076E+02</rscale>
<asrwt>0</asrwt>
<pdfrwt beam="2">  1        1 0.38985311E-02 0.59172076E+02</pdfrwt>
<pdfrwt beam="1">  1       -1 0.53142980E-02 0.59172076E+02</pdfrwt>
<totfact> 0.28081222E+05</totfact>
</mgrwt>
</event>
<event>
 4    1  0.3883670E-002  0.7812699E+02  0.7818608E-02  0.1334452E+00
         -1   -1    0    0  501    0 -0.00000000000E+00  0.00000000000E+00  0.14117313628E+02  0.14117314528E+02  0.50400000000E-02 0.  1.
          1   -1    0    0    0  501  0.00000000000E+00 -0.00000000000E+00 -0.10809115538E+03  0.10809115549E+03  0.50400000000E-02 0.  1.
          2    1    1    2    0  502 -0.38465400173E+02  0.59542536412E+01 -0.52155187106E+02  0.65078442632E+02  0.25500000000E-02 0.  1.
         -2    1    1    2  502    0  0.38465400173E+02 -0.59542536412E+01 -0.41818654643E+02  0.57130027390E+02  0.25500000000E-02 0.  1.
<mgrwt>
<rscale>  0 0.78126994E+02</rscale>
<asrwt>0</asrwt>
<pdfrwt beam="2">  1        1 0.16629408E-01 0.78126994E+02</pdfrwt>
<pdfrwt beam="1">  1       -1 0.21718945E-02 0.78126994E+02</pdfrwt>
<totfact> 0.16039627E+05</totfact>
</mgrwt>
</event>
<event>
 4    1  0.3883670E-002  0.8561379E+02  0.7818608E-02  0.1313835E+00
          1   -1    0    0    0  501  0.00000000000E+00  0.00000000000E+00  0.52778689260E+03  0.52778689262E+03  0.50400000000E-02 0. -1.
         -1   -1    0    0  501    0 -0.00000000000E+00 -0.00000000000E+00 -0.34719114568E+01  0.34719151149E+01  0.50400000000E-02 0. -1.
          2    1    1    2    0  502  0.22520617386E+02  0.32500863925E+02  0.36392166870E+03  0.36606347171E+03  0.25500000000E-02 0. -1.
         -2    1    1    2  502    0 -0.22520617386E+02 -0.32500863925E+02  0.16039331244E+03  0.16519533603E+03  0.25500000000E-02 0. -1.
<mgrwt>
<rscale>  0 0.85613792E+02</rscale>
<asrwt>0</asrwt>
<pdfrwt beam="1">  1        1 0.81197943E-01 0.85613792E+02</pdfrwt>
<pdfrwt beam="2">  1       -1 0.53414077E-03 0.85613792E+02</pdfrwt>
<totfact> 0.16543224E+05</totfact>
</mgrwt>
</event>
<event>
 4    1  0.3883670E-002  0.5418870E+02  0.7818608E-02  0.1423975E+00
          1   -1    0    0    0  501  0.00000000000E+00  0.00000000000E+00  0.12862669995E+03  0.12862670005E+03  0.50400000000E-02 0. -1.
         -1   -1    0    0  501    0 -0.00000000000E+00 -0.00000000000E+00 -0.57072415874E+01  0.57072438128E+01  0.50400000000E-02 0. -1.
          2    1    1    2    0  502 -0.22106702582E+02  0.11527579645E+02  0.35164482850E+02  0.43106058184E+02  0.25500000000E-02 0. -1.
         -2    1    1    2  502    0  0.22106702582E+02 -0.11527579645E+02  0.87754975510E+02  0.91227885676E+02  0.25500000000E-02 0. -1.
<mgrwt>
<rscale>  0 0.54188700E+02</rscale>
<asrwt>0</asrwt>
<pdfrwt beam="1">  1        1 0.19788723E-01 0.54188700E+02</pdfrwt>
<pdfrwt beam="2">  1       -1 0.87803737E-03 0.54188700E+02</pdfrwt>
<totfact> 0.42693210E+05</totfact>
</mgrwt>
</event>
<event>
 4    1  0.3883670E-002  0.4888476E+02  0.7818608E-02  0.1451451E+00
          1   -1    0    0    0  501  0.00000000000E+00  0.00000000000E+00  0.77993613793E+00  0.77995242217E+00  0.50400000000E-02 0. -1.
         -1   -1    0    0  501    0 -0.00000000000E+00 -0.00000000000E+00 -0.76599050261E+03  0.76599050263E+03  0.50400000000E-02 0. -1.
          2    1    1    2    0  502 -0.99655596998E+01  0.21833363472E+02 -0.31000812306E+03  0.31093575625E+03  0.25500000000E-02 0.  1.
         -2    1    1    2  502    0  0.99655596998E+01 -0.21833363472E+02 -0.45520244341E+03  0.45583469881E+03  0.25500000000E-02 0.  1.
<mgrwt>
<rscale>  0 0.48884759E+02</rscale>
<asrwt>0</asrwt>
<pdfrwt beam="1">  1        1 0.11999204E-03 0.48884759E+02</pdfrwt>
<pdfrwt beam="2">  1       -1 0.11784409E+00 0.48884759E+02</pdfrwt>
<totfact> 0.16698584E+05</totfact>
</mgrwt>
</event>
<event>
 4    1  0.3883670E-002  0.8181919E+02  0.7818608E-02  0.1323967E+00
         -1   -1    0    0  501    0 -0.00000000000E+00  0.00000000000E+00  0.76360390004E+01  0.76360406637E+01  0.50400000000E-02 0. -1.
          1   -1    0    0    0  501  0.00000000000E+00 -0.00000000000E+00 -0.21917051346E+03  0.21917051352E+03  0.50400000000E-02 0. -1.
          2    1    1    2    0  502 -0.27479592336E+02  0.53877128756E+01 -0.23095205026E+02  0.36297988191E+02  0.25500000000E-02 0. -1.
         -2    1    1    2  502    0  0.27479592336E+02 -0.53877128756E+01 -0.18843926943E+03  0.19050856599E+03  0.25500000000E-02 0. -1.
<mgrwt>
<rscale>  0 0.81819186E+02</rscale>
<asrwt>0</asrwt>
<pdfrwt beam="2">  1        1 0.33718536E-01 0.81819186E+02</pdfrwt>
<pdfrwt beam="1">  1       -1 0.11747755E-02 0.81819186E+02</pdfrwt>
<totfact> 0.16077915E+05</totfact>
</mgrwt>
</event>
<event>
 4    1  0.3883670E-002  0.5695391E+02  0.7818608E-02  0.1411078E+00
          1   -1    0    0    0  501  0.00000000000E+00  0.00000000000E+00  0.35907960157E+02  0.35907960511E+02  0.50400000000E-02 0.  1.
         -1   -1    0    0  501    0 -0.00000000000E+00 -0.00000000000E+00 -0.22583762014E+02  0.22583762577E+02  0.50400000000E-02 0.  1.
          2    1    1    2    0  502 -0.13911223102E+02  0.16076523395E+02  0.26119910859E+02  0.33678279089E+02  0.25500000000E-02 0.  1.
         -2    1    1    2  502    0  0.13911223102E+02 -0.16076523395E+02 -0.12795712716E+02  0.24813443998E+02  0.25500000000E-02 0.  1.
<mgrwt>
<rscale>  0 0.56953906E+02</rscale>
<asrwt>0</asrwt>
<pdfrwt beam="1">  1        1 0.55243016E-02 0.56953906E+02</pdfrwt>
<pdfrwt beam="2">  1       -1 0.34744250E-02 0.56953906E+02</pdfrwt>
<totfact> 0.32205794E+05</totfact>
</mgrwt>
</event>
<event>
 4    1  0.3883670E-002  0.6537934E+02  0.7818608E-02  0.1376550E+00
         -1   -1    0    0  501    0 -0.00000000000E+00  0.00000000000E+00  0.80628295612E+00  0.80629870825E+00  0.50400000000E-02 0. -1.
          1   -1    0    0    0  501  0.00000000000E+00 -0.00000000000E+00 -0.13253460291E+04  0.13253460291E+04  0.50400000000E-02 0. -1.
          2    1    1    2    0  502  0.30987261595E+02  0.99554159801E+01 -0.72410660741E+03  0.72483770569E+03  0.25500000000E-02 0. -1.
         -2    1    1    2  502    0 -0.30987261595E+02 -0.99554159801E+01 -0.60043313870E+03  0.60131462209E+03  0.25500000000E-02 0. -1.
<mgrwt>
<rscale>  0 0.65379335E+02</rscale>
<asrwt>0</asrwt>
<pdfrwt beam="2">  1        1 0.20389765E+00 0.65379335E+02</pdfrwt>
<pdfrwt beam="1">  1       -1 0.12404580E-03 0.65379335E+02</pdfrwt>
<totfact> 0.28682795E+05</totfact>
</mgrwt>
</event>
<event>
 4    1  0.3883670E-002  0.7275120E+02  0.7818608E-02  0.1350980E+00
          1   -1    0    0    0  501  0.00000000000E+00  0.00000000000E+00  0.15837193320E+03  0.15837193328E+03  0.50400000000E-02 0. -1.
         -1   -1    0    0  501    0 -0.00000000000E+00 -0.00000000000E+00 -0.83549164078E+01  0.83549179280E+01  0.50400000000E-02 0. -1.
          2    1    1    2    0  502 -0.74496993744E+01 -0.35537042912E+02  0.69984968883E+02  0.78843359364E+02  0.25500000000E-02 0. -1.
         -2    1    1    2  502    0  0.74496993744E+01  0.35537042912E+02  0.80032047910E+02  0.87883491845E+02  0.25500000000E-02 0. -1.
<mgrwt>
<rscale>  0 0.72751203E+02</rscale>
<asrwt>0</asrwt>
<pdfrwt beam="1">  1        1 0.24364913E-01 0.72751203E+02</pdfrwt>
<pdfrwt beam="2">  1       -1 0.12853719E-02 0.72751203E+02</pdfrwt>
<totfact> 0.20641194E+05</totfact>
</mgrwt>
</event>
<event>
 4    1  0.3883670E-002  0.5692832E+02  0.7818608E-02  0.1411194E+00
         -1   -1    0    0  501    0 -0.00000000000E+00  0.00000000000E+00  0.83157678283E+01  0.83157693556E+01  0.50400000000E-02 0. -1.
          1   -1    0    0    0  501  0.00000000000E+00 -0.00000000000E+00 -0.97430377860E+02  0.97430377990E+02  0.50400000000E-02 0. -1.
          2    1    1    2    0  502 -0.40364383198E-01  0.23362863383E+02 -0.74760529526E+02  0.78325996937E+02  0.25500000000E-02 0. -1.
         -2    1    1    2  502    0  0.40364383198E-01 -0.23362863383E+02 -0.14354080506E+02  0.27420150408E+02  0.25500000000E-02 0. -1.
<mgrwt>
<rscale>  0 0.56928323E+02</rscale>
<asrwt>0</asrwt>
<pdfrwt beam="2">  1        1 0.14989288E-01 0.56928323E+02</pdfrwt>
<pdfrwt beam="1">  1       -1 0.12793491E-02 0.56928323E+02</pdfrwt>
<totfact> 0.36157206E+05</totfact>
</mgrwt>
</event>
<event>
 4    1  0.3883670E-002  0.4574100E+02  0.7818608E-02  0.1469768E+00
          1   -1    0    0    0  501  0.00000000000E+00  0.00000000000E+00  0.11620658129E+02  0.11620659222E+02  0.50400000000E-02 0. -1.
         -1   -1    0    0  501    0 -0.00000000000E+00 -0.00000000000E+00 -0.45011187960E+02  0.45011188243E+02  0.50400000000E-02 0. -1.
          2    1    1    2    0  502  0.21739538012E+02 -0.67228714348E+01 -0.13857035299E+02  0.26642483876E+02  0.25500000000E-02 0.  1.
         -2    1    1    2  502    0 -0.21739538012E+02  0.67228714348E+01 -0.19533494532E+02  0.29989363589E+02  0.25500000000E-02 0.  1.
<mgrwt>
<rscale>  0 0.45740995E+02</rscale>
<asrwt>0</asrwt>
<pdfrwt beam="1">  1        1 0.17877937E-02 0.45740995E+02</pdfrwt>
<pdfrwt beam="2">  1       -1 0.69247982E-02 0.45740995E+02</pdfrwt>
<totfact> 0.51386236E+05</totfact>
</mgrwt>
</event>
<event>
 4    1  0.3883670E-002  0.5287670E+02  0.7818608E-02  0.1430415E+00
         -1   -1    0    0  501    0 -0.00000000000E+00  0.00000000000E+00  0.21975775345E+03  0.21975775351E+03  0.50400000000E-02 0. -1.
          1   -1    0    0    0  501  0.00000000000E+00 -0.00000000000E+00 -0.31807105831E+01  0.31807145762E+01  0.50400000000E-02 0. -1.
          2    1    1    2    0  502 -0.20350719703E+02 -0.54931776674E+01  0.41006255921E+02  0.46106830562E+02  0.25500000000E-02 0.  1.
         -2    1    1    2  502    0  0.20350719703E+02  0.54931776674E+01  0.17557078695E+03  0.17683163752E+03  0.25500000000E-02 0.  1.
<mgrwt>
<rscale>  0 0.52876697E+02</rscale>
<asrwt>0</asrwt>
<pdfrwt beam="2">  1        1 0.48934053E-03 0.52876697E+02</pdfrwt>
<pdfrwt beam="1">  1       -1 0.33808877E-01 0.52876697E+02</pdfrwt>
<totfact> 0.27148865E+05</totfact>
</mgrwt>
</event>
<event>
 4    1  0.3883670E-002  0.5690712E+02  0.7818608E-02  0.1411289E+00
          1   -1    0    0    0  501  0.00000000000E+00  0.00000000000E+00  0.17989092479E+04  0.17989092479E+04  0.50400000000E-02 0. -1.
         -1   -1    0    0  501    0 -0.00000000000E+00 -0.00000000000E+00 -0.45003912247E+00  0.45006734313E+00  0.50400000000E-02 0. -1.
          2    1    1    2    0  502  0.17540052173E+02 -0.21835702411E+02  0.10578106918E+04  0.10581814169E+04  0.25500000000E-02 0.  1.
         -2    1    1    2  502    0 -0.17540052173E+02  0.21835702411E+02  0.74064851697E+03  0.74117789837E+03  0.25500000000E-02 0.  1.
<mgrwt>
<rscale>  0 0.56907115E+02</rscale>
<asrwt>0</asrwt>
<pdfrwt beam="1">  1        1 0.27676271E+00 0.56907115E+02</pdfrwt>
<pdfrwt beam="2">  1       -1 0.69237098E-04 0.56907115E+02</pdfrwt>
<totfact> 0.31263676E+05</totfact>
</mgrwt>
</event>
<event>
 4    1  0.3883670E-002  0.6225275E+02  0.7818608E-02  0.1388614E+00
          1   -1    0    0    0  501  0.00000000000E+00  0.00000000000E+00  0.28081263602E+02  0.28081264054E+02  0.50400000000E-02 0. -1.
         -1   -1    0    0  501    0 -0.00000000000E+00 -0.00000000000E+00 -0.34501697197E+02  0.34501697566E+02  0.50400000000E-02 0. -1.
          2    1    1    2    0  502  0.22206083762E+02 -0.15858412835E+02  0.11844257114E+02  0.29747030890E+02  0.25500000000E-02 0.  1.
         -2    1    1    2  502    0 -0.22206083762E+02  0.15858412835E+02 -0.18264690709E+02  0.32835930730E+02  0.25500000000E-02 0.  1.
<mgrwt>
<rscale>  0 0.62252752E+02</rscale>
<asrwt>0</asrwt>
<pdfrwt beam="1">  1        1 0.43201944E-02 0.62252752E+02</pdfrwt>
<pdfrwt beam="2">  1       -1 0.53079535E-02 0.62252752E+02</pdfrwt>
<totfact> 0.24784646E+05</totfact>
</mgrwt>
</event>
<event>
 4    1  0.3883670E-002  0.4823252E+02  0.7818608E-02  0.1455115E+00
         -1   -1    0    0  501    0 -0.00000000000E+00  0.00000000000E+00  0.42162855750E+00  0.42165867962E+00  0.50400000000E-02 0.  1.
          1   -1    0    0    0  501  0.00000000000E+00 -0.00000000000E+00 -0.13793496788E+04  0.13793496789E+04  0.50400000000E-02 0.  1.
          2    1    1    2    0  502  0.11117868704E+02 -0.21226233924E+02 -0.61146700676E+03  0.61193632052E+03  0.25500000000E-02 0. -1.
         -2    1    1    2  502    0 -0.11117868704E+02  0.21226233924E+02 -0.76746104353E+03  0.76783501701E+03  0.25500000000E-02 0. -1.
<mgrwt>
<rscale>  0 0.48232520E+02</rscale>
<asrwt>0</asrwt>
<pdfrwt beam="2">  1        1 0.21220403E+00 0.48232520E+02</pdfrwt>
<pdfrwt beam="1">  1       -1 0.64869354E-04 0.48232520E+02</pdfrwt>
<totfact> 0.60197143E+05</totfact>
</mgrwt>
</event>
<event>
 4    1  0.3883670E-002  0.6170344E+02  0.7818608E-02  0.1390819E+00
          1   -1    0    0    0  501  0.00000000000E+00  0.00000000000E+00  0.20758687228E+01  0.20758748411E+01  0.50400000000E-02 0. -1.
         -1   -1    0    0  501    0 -0.00000000000E+00 -0.00000000000E+00 -0.45851993141E+03  0.45851993144E+03  0.50400000000E-02 0. -1.
          2    1    1    2    0  502  0.26221139336E+02 -0.69144807322E+01 -0.11839484186E+03  0.12146067997E+03  0.25500000000E-02 0. -1.
         -2    1    1    2  502    0 -0.26221139336E+02  0.69144807322E+01 -0.33804922083E+03  0.33913512631E+03  0.25500000000E-02 0. -1.
<mgrwt>
<rscale>  0 0.61703439E+02</rscale>
<asrwt>0</asrwt>
<pdfrwt beam="1">  1        1 0.31936526E-03 0.61703439E+02</pdfrwt>
<pdfrwt beam="2">  1       -1 0.70541448E-01 0.61703439E+02</pdfrwt>
<totfact> 0.13556619E+05</totfact>
</mgrwt>
</event>
<event>
 4    1  0.3883670E-002  0.9480704E+02  0.7818608E-02  0.1291611E+00
         -1   -1    0    0  501    0 -0.00000000000E+00  0.00000000000E+00  0.16380725262E+01  0.16380802797E+01  0.50400000000E-02 0.  1.
          1   -1    0    0    0  501  0.00000000000E+00 -0.00000000000E+00 -0.13717880310E+04  0.13717880310E+04  0.50400000000E-02 0.  1.
          2    1    1    2    0  502 -0.72951162237E+01  0.33088719582E+02 -0.20482666987E+03  0.20761032436E+03  0.25500000000E-02 0. -1.
         -2    1    1    2  502    0  0.72951162237E+01 -0.33088719582E+02 -0.11653232886E+04  0.11658157869E+04  0.25500000000E-02 0. -1.
<mgrwt>
<rscale>  0 0.94807038E+02</rscale>
<asrwt>0</asrwt>
<pdfrwt beam="2">  1        1 0.21104339E+00 0.94807038E+02</pdfrwt>
<pdfrwt beam="1">  1       -1 0.25201285E-03 0.94807038E+02</pdfrwt>
<totfact> 0.10645051E+05</totfact>
</mgrwt>
</event>
<event>
 4    1  0.3883670E-002  0.4198259E+02  0.7818608E-02  0.1494109E+00
          1   -1    0    0    0  501  0.00000000000E+00  0.00000000000E+00  0.71253326646E+03  0.71253326648E+03  0.50400000000E-02 0. -1.
         -1   -1    0    0  501    0 -0.00000000000E+00 -0.00000000000E+00 -0.61839518867E+00  0.61841572665E+00  0.50400000000E-02 0. -1.
          2    1    1    2    0  502 -0.20440728204E+02 -0.47563601768E+01  0.34858946585E+03  0.34922064951E+03  0.25500000000E-02 0.  1.
         -2    1    1    2  502    0  0.20440728204E+02  0.47563601768E+01  0.36332540542E+03  0.36393103270E+03  0.25500000000E-02 0.  1.
<mgrwt>
<rscale>  0 0.41982590E+02</rscale>
<asrwt>0</asrwt>
<pdfrwt beam="1">  1        1 0.10962095E+00 0.41982590E+02</pdfrwt>
<pdfrwt beam="2">  1       -1 0.95138912E-04 0.41982590E+02</pdfrwt>
<totfact> 0.10185838E+06</totfact>
</mgrwt>
</event>
<event>
 4    1  0.3883670E-002  0.5127605E+02  0.7818608E-02  0.1438578E+00
         -1   -1    0    0  501    0 -0.00000000000E+00  0.00000000000E+00  0.25781742825E+01  0.25781792088E+01  0.50400000000E-02 0.  1.
          1   -1    0    0    0  501  0.00000000000E+00 -0.00000000000E+00 -0.25495084920E+03  0.25495084925E+03  0.50400000000E-02 0.  1.
          2    1    1    2    0  502  0.20048985866E+02  0.15933024634E+02 -0.12006549498E+03  0.12276622581E+03  0.25500000000E-02 0.  1.
         -2    1    1    2  502    0 -0.20048985866E+02 -0.15933024634E+02 -0.13230717994E+03  0.13476280265E+03  0.25500000000E-02 0.  1.
<mgrwt>
<rscale>  0 0.51276051E+02</rscale>
<asrwt>0</asrwt>
<pdfrwt beam="2">  1        1 0.39223188E-01 0.51276051E+02</pdfrwt>
<pdfrwt beam="1">  1       -1 0.39664278E-03 0.51276051E+02</pdfrwt>
<totfact> 0.55067584E+05</totfact>
</mgrwt>
</event>
<event>
 4    1  0.3883670E-002  0.4238098E+02  0.7818608E-02  0.1491387E+00
          1   -1    0    0    0  501  0.00000000000E+00  0.00000000000E+00  0.87850506950E+02  0.87850507094E+02  0.50400000000E-02 0. -1.
         -1   -1    0    0  501    0 -0.00000000000E+00 -0.00000000000E+00 -0.51113741656E+01  0.51113766504E+01  0.50400000000E-02 0. -1.
          2    1    1    2    0  502  0.21075851272E+02 -0.16782080874E+01  0.38245077433E+02  0.43700043977E+02  0.25500000000E-02 0. -1.
         -2    1    1    2  502    0 -0.21075851272E+02  0.16782080874E+01  0.44494055351E+02  0.49261839768E+02  0.25500000000E-02 0. -1.
<mgrwt>
<rscale>  0 0.42380983E+02</rscale>
<asrwt>0</asrwt>
<pdfrwt beam="1">  1        1 0.13515463E-01 0.42380983E+02</pdfrwt>
<pdfrwt beam="2">  1       -1 0.78636545E-03 0.42380983E+02</pdfrwt>
<totfact> 0.75090565E+05</totfact>
</mgrwt>
</event>
<event>
 4    1  0.3883670E-002  0.4593768E+02  0.7818608E-02  0.1468571E+00
          1   -1    0    0    0  501  0.00000000000E+00  0.00000000000E+00  0.31361981940E+03  0.31361981944E+03  0.50400000000E-02 0. -1.
         -1   -1    0    0  501    0 -0.00000000000E+00 -0.00000000000E+00 -0.16821842916E+01  0.16821918417E+01  0.50400000000E-02 0. -1.
          2    1    1    2    0  502 -0.20543605459E+02 -0.65913507301E+01  0.21004925499E+03  0.21115438702E+03  0.25500000000E-02 0.  1.
         -2    1    1    2  502    0  0.20543605459E+02  0.65913507301E+01  0.10188838012E+03  0.10414762427E+03  0.25500000000E-02 0.  1.
<mgrwt>
<rscale>  0 0.45937676E+02</rscale>
<asrwt>0</asrwt>
<pdfrwt beam="1">  1        1 0.48249197E-01 0.45937676E+02</pdfrwt>
<pdfrwt beam="2">  1       -1 0.25879820E-03 0.45937676E+02</pdfrwt>
<totfact> 0.75048651E+05</totfact>
</mgrwt>
</event>
<event>
 4    1  0.3883670E-002  0.1497635E+03  0.7818608E-02  0.1200764E+00
         -1   -1    0    0  501    0 -0.00000000000E+00  0.00000000000E+00  0.40616002053E+01  0.40616033323E+01  0.50400000000E-02 0. -1.
          1   -1    0    0    0  501  0.00000000000E+00 -0.00000000000E+00 -0.13805585133E+04  0.13805585133E+04  0.50400000000E-02 0. -1.
          2    1    1    2    0  502  0.28095263884E+02  0.11418849525E+02 -0.55257823268E+02  0.63033015286E+02  0.25500000000E-02 0.  1.
         -2    1    1    2  502    0 -0.28095263884E+02 -0.11418849525E+02 -0.13212390898E+04  0.13215871013E+04  0.25500000000E-02 0.  1.
<mgrwt>
<rscale>  0 0.14976353E+03</rscale>
<asrwt>0</asrwt>
<pdfrwt beam="2">  1        1 0.21239324E+00 0.14976353E+03</pdfrwt>
<pdfrwt beam="1">  1       -1 0.62486291E-03 0.14976353E+03</pdfrwt>
<totfact> 0.30680396E+04</totfact>
</mgrwt>
</event>
<event>
 4    1  0.3883670E-002  0.7870811E+02  0.7818608E-02  0.1332758E+00
         -1   -1    0    0  501    0 -0.00000000000E+00  0.00000000000E+00  0.94223164268E+02  0.94223164403E+02  0.50400000000E-02 0. -1.
          1   -1    0    0    0  501  0.00000000000E+00 -0.00000000000E+00 -0.16436952979E+02  0.16436953751E+02  0.50400000000E-02 0. -1.
          2    1    1    2    0  502 -0.28353317869E+02  0.27095870651E+02  0.34305956020E+02  0.52105618367E+02  0.25500000000E-02 0.  1.
         -2    1    1    2  502    0  0.28353317869E+02 -0.27095870651E+02  0.43480255269E+02  0.58554499787E+02  0.25500000000E-02 0.  1.
<mgrwt>
<rscale>  0 0.78708113E+02</rscale>
<asrwt>0</asrwt>
<pdfrwt beam="2">  1        1 0.25287621E-02 0.78708113E+02</pdfrwt>
<pdfrwt beam="1">  1       -1 0.14495871E-01 0.78708113E+02</pdfrwt>
<totfact> 0.11992583E+05</totfact>
</mgrwt>
</event>
<event>
 4    1  0.3883670E-002  0.7407752E+02  0.7818608E-02  0.1346752E+00
         -1   -1    0    0  501    0 -0.00000000000E+00  0.00000000000E+00  0.39589598775E+01  0.39589630856E+01  0.50400000000E-02 0. -1.
          1   -1    0    0    0  501  0.00000000000E+00 -0.00000000000E+00 -0.34652259348E+03  0.34652259352E+03  0.50400000000E-02 0. -1.
          2    1    1    2    0  502 -0.91475922769E+01  0.29185083563E+02 -0.27012167239E+03  0.27184768796E+03  0.25500000000E-02 0.  1.
         -2    1    1    2  502    0  0.91475922769E+01 -0.29185083563E+02 -0.72441961211E+02  0.78633868643E+02  0.25500000000E-02 0.  1.
<mgrwt>
<rscale>  0 0.74077517E+02</rscale>
<asrwt>0</asrwt>
<pdfrwt beam="2">  1        1 0.53311145E-01 0.74077517E+02</pdfrwt>
<pdfrwt beam="1">  1       -1 0.60907127E-03 0.74077517E+02</pdfrwt>
<totfact> 0.22727257E+05</totfact>
</mgrwt>
</event>
<event>
 4    1  0.3883670E-002  0.4402070E+02  0.7818608E-02  0.1480549E+00
          1   -1    0    0    0  501  0.00000000000E+00  0.00000000000E+00  0.30459306906E+02  0.30459307323E+02  0.50400000000E-02 0.  1.
         -1   -1    0    0  501    0 -0.00000000000E+00 -0.00000000000E+00 -0.15905009490E+02  0.15905010289E+02  0.50400000000E-02 0.  1.
          2    1    1    2    0  502 -0.20723005198E+02 -0.62376405985E+01  0.11503837526E+02  0.24508965482E+02  0.25500000000E-02 0.  1.
         -2    1    1    2  502    0  0.20723005198E+02  0.62376405985E+01  0.30504598895E+01  0.21855352130E+02  0.25500000000E-02 0.  1.
<mgrwt>
<rscale>  0 0.44020704E+02</rscale>
<asrwt>0</asrwt>
<pdfrwt beam="1">  1        1 0.46860473E-02 0.44020704E+02</pdfrwt>
<pdfrwt beam="2">  1       -1 0.24469246E-02 0.44020704E+02</pdfrwt>
<totfact> 0.61684841E+05</totfact>
</mgrwt>
</event>
<event>
 4    1  0.3883670E-002  0.5283873E+02  0.7818608E-02  0.1430605E+00
         -1   -1    0    0  501    0 -0.00000000000E+00  0.00000000000E+00  0.26755902162E+00  0.26760648656E+00  0.50400000000E-02 0.  1.
          1   -1    0    0    0  501  0.00000000000E+00 -0.00000000000E+00 -0.26084749996E+04  0.26084749996E+04  0.50400000000E-02 0.  1.
          2    1    1    2    0  502 -0.14753602143E+02  0.20977932083E+02 -0.99091174647E+03  0.99124357839E+03  0.25500000000E-02 0. -1.
         -2    1    1    2  502    0  0.14753602143E+02 -0.20977932083E+02 -0.16172956941E+04  0.16174990277E+04  0.25500000000E-02 0. -1.
<mgrwt>
<rscale>  0 0.52838733E+02</rscale>
<asrwt>0</asrwt>
<pdfrwt beam="2">  1        1 0.40128349E+00 0.52838733E+02</pdfrwt>
<pdfrwt beam="1">  1       -1 0.41168667E-04 0.52838733E+02</pdfrwt>
<totfact> 0.19564796E+05</totfact>
</mgrwt>
</event>
<event>
 4    1  0.3883670E-002  0.4267085E+02  0.7818608E-02  0.1489429E+00
         -1   -1    0    0  501    0 -0.00000000000E+00  0.00000000000E+00  0.82389467999E+00  0.82391009541E+00  0.50400000000E-02 0. -1.
          1   -1    0    0    0  501  0.00000000000E+00 -0.00000000000E+00 -0.55249301970E+03  0.55249301972E+03  0.50400000000E-02 0. -1.
          2    1    1    2    0  502  0.76212923010E+01  0.19514069906E+02 -0.32821472928E+03  0.32888264098E+03  0.25500000000E-02 0.  1.
         -2    1    1    2  502    0 -0.76212923010E+01 -0.19514069906E+02 -0.22345439574E+03  0.22443428883E+03  0.25500000000E-02 0.  1.
<mgrwt>
<rscale>  0 0.42670849E+02</rscale>
<asrwt>0</asrwt>
<pdfrwt beam="2">  1        1 0.84998631E-01 0.42670849E+02</pdfrwt>
<pdfrwt beam="1">  1       -1 0.12675466E-03 0.42670849E+02</pdfrwt>
<totfact> 0.97113913E+05</totfact>
</mgrwt>
</event>
<event>
 4    1  0.3883670E-002  0.7966804E+02  0.7818608E-02  0.1329996E+00
         -1   -1    0    0  501    0 -0.00000000000E+00  0.00000000000E+00  0.74834449048E+01  0.74834466020E+01  0.50400000000E-02 0. -1.
          1   -1    0    0    0  501  0.00000000000E+00 -0.00000000000E+00 -0.21203458068E+03  0.21203458074E+03  0.50400000000E-02 0. -1.
          2    1    1    2    0  502 -0.16130603237E+02  0.14157680224E+02 -0.98106415010E+01  0.23598410185E+02  0.25500000000E-02 0.  1.
         -2    1    1    2  502    0  0.16130603237E+02 -0.14157680224E+02 -0.19474049428E+03  0.19591961716E+03  0.25500000000E-02 0.  1.
<mgrwt>
<rscale>  0 0.79668044E+02</rscale>
<asrwt>0</asrwt>
<pdfrwt beam="2">  1        1 0.32620700E-01 0.79668044E+02</pdfrwt>
<pdfrwt beam="1">  1       -1 0.11512995E-02 0.79668044E+02</pdfrwt>
<totfact> 0.17142767E+05</totfact>
</mgrwt>
</event>
<event>
 4    1  0.3883670E-002  0.4269921E+02  0.7818608E-02  0.1489238E+00
          1   -1    0    0    0  501  0.00000000000E+00  0.00000000000E+00  0.40908309781E+02  0.40908310091E+02  0.50400000000E-02 0.  1.
         -1   -1    0    0  501    0 -0.00000000000E+00 -0.00000000000E+00 -0.11142129771E+02  0.11142130911E+02  0.50400000000E-02 0.  1.
          2    1    1    2    0  502  0.71740689253E+01 -0.20102159614E+02  0.15482315439E+02  0.26367900636E+02  0.25500000000E-02 0. -1.
         -2    1    1    2  502    0 -0.71740689253E+01  0.20102159614E+02  0.14283864571E+02  0.25682540366E+02  0.25500000000E-02 0. -1.
<mgrwt>
<rscale>  0 0.42699215E+02</rscale>
<asrwt>0</asrwt>
<pdfrwt beam="1">  1        1 0.62935863E-02 0.42699215E+02</pdfrwt>
<pdfrwt beam="2">  1       -1 0.17141739E-02 0.42699215E+02</pdfrwt>
<totfact> 0.68253938E+05</totfact>
</mgrwt>
</event>
<event>
 4    1  0.3883670E-002  0.1141745E+03  0.7818608E-02  0.1253029E+00
         -1   -1    0    0  501    0 -0.00000000000E+00  0.00000000000E+00  0.35897703891E+02  0.35897704245E+02  0.50400000000E-02 0. -1.
          1   -1    0    0    0  501  0.00000000000E+00 -0.00000000000E+00 -0.90784478355E+02  0.90784478494E+02  0.50400000000E-02 0. -1.
          2    1    1    2    0  502 -0.56388454995E+02 -0.84962503382E+01 -0.30401998636E+02  0.64622949902E+02  0.25500000000E-02 0.  1.
         -2    1    1    2  502    0  0.56388454995E+02  0.84962503382E+01 -0.24484775828E+02  0.62059232837E+02  0.25500000000E-02 0.  1.
<mgrwt>
<rscale>  0 0.11417450E+03</rscale>
<asrwt>0</asrwt>
<pdfrwt beam="2">  1        1 0.13966843E-01 0.11417450E+03</pdfrwt>
<pdfrwt beam="1">  1       -1 0.55227237E-02 0.11417450E+03</pdfrwt>
<totfact> 0.55034830E+04</totfact>
</mgrwt>
</event>
<event>
 4    1  0.3883670E-002  0.7334729E+02  0.7818608E-02  0.1349067E+00
         -1   -1    0    0  501    0 -0.00000000000E+00  0.00000000000E+00  0.89561948651E+00  0.89563366742E+00  0.50400000000E-02 0. -1.
          1   -1    0    0    0  501  0.00000000000E+00 -0.00000000000E+00 -0.15016929705E+04  0.15016929706E+04  0.50400000000E-02 0. -1.
          2    1    1    2    0  502 -0.24990595221E+02 -0.26529891101E+02 -0.83384256436E+03  0.83463871652E+03  0.25500000000E-02 0.  1.
         -2    1    1    2  502    0  0.24990595221E+02  0.26529891101E+02 -0.66695478671E+03  0.66794988771E+03  0.25500000000E-02 0.  1.
<mgrwt>
<rscale>  0 0.73347288E+02</rscale>
<asrwt>0</asrwt>
<pdfrwt beam="2">  1        1 0.23102767E+00 0.73347288E+02</pdfrwt>
<pdfrwt beam="1">  1       -1 0.13778991E-03 0.73347288E+02</pdfrwt>
<totfact> 0.19527743E+05</totfact>
</mgrwt>
</event>
<event>
 4    1  0.3883670E-002  0.7161183E+02  0.7818608E-02  0.1354696E+00
          1   -1    0    0    0  501  0.00000000000E+00  0.00000000000E+00  0.40544320733E+03  0.40544320736E+03  0.50400000000E-02 0. -1.
         -1   -1    0    0  501    0 -0.00000000000E+00 -0.00000000000E+00 -0.31621264200E+01  0.31621304365E+01  0.50400000000E-02 0. -1.
          2    1    1    2    0  502  0.25259311630E+01 -0.25824407997E+02  0.34192365627E+03  0.34290679069E+03  0.25500000000E-02 0. -1.
         -2    1    1    2  502    0 -0.25259311630E+01  0.25824407997E+02  0.60357424638E+02  0.65698547108E+02  0.25500000000E-02 0. -1.
<mgrwt>
<rscale>  0 0.71611829E+02</rscale>
<asrwt>0</asrwt>
<pdfrwt beam="1">  1        1 0.62375883E-01 0.71611829E+02</pdfrwt>
<pdfrwt beam="2">  1       -1 0.48648126E-03 0.71611829E+02</pdfrwt>
<totfact> 0.25468369E+05</totfact>
</mgrwt>
</event>
<event>
 4    1  0.3883670E-002  0.1052708E+03  0.7818608E-02  0.1269587E+00
         -1   -1    0    0  501    0 -0.00000000000E+00  0.00000000000E+00  0.15267628043E+02  0.15267628874E+02  0.50400000000E-02 0.  1.
          1   -1    0    0    0  501  0.00000000000E+00 -0.00000000000E+00 -0.18146151354E+03  0.18146151361E+03  0.50400000000E-02 0.  1.
          2    1    1    2    0  502  0.18785947334E+02  0.32952160404E+02 -0.15129449450E+03  0.15597685971E+03  0.25500000000E-02 0. -1.
         -2    1    1    2  502    0 -0.18785947334E+02 -0.32952160404E+02 -0.14899390994E+02  0.40752282771E+02  0.25500000000E-02 0. -1.
<mgrwt>
<rscale>  0 0.10527083E+03</rscale>
<asrwt>0</asrwt>
<pdfrwt beam="2">  1        1 0.27917154E-01 0.10527083E+03</pdfrwt>
<pdfrwt beam="1">  1       -1 0.23488661E-02 0.10527083E+03</pdfrwt>
<totfact> 0.78714361E+04</totfact>
</mgrwt>
</event>
<event>
 4    1  0.3883670E-002  0.4482421E+02  0.7818608E-02  0.1475442E+00
         -1   -1    0    0  501    0 -0.00000000000E+00  0.00000000000E+00  0.17612128111E+02  0.17612128832E+02  0.50400000000E-02 0.  1.
          1   -1    0    0    0  501  0.00000000000E+00 -0.00000000000E+00 -0.28520252998E+02  0.28520253443E+02  0.50400000000E-02 0.  1.
          2    1    1    2    0  502 -0.21243102537E+02 -0.29908478437E+01 -0.12130908303E+02  0.24644949157E+02  0.25500000000E-02 0.  1.
         -2    1    1    2  502    0  0.21243102537E+02  0.29908478437E+01  0.12227834157E+01  0.21487433118E+02  0.25500000000E-02 0.  1.
<mgrwt>
<rscale>  0 0.44824207E+02</rscale>
<asrwt>0</asrwt>
<pdfrwt beam="2">  1        1 0.43877313E-02 0.44824207E+02</pdfrwt>
<pdfrwt beam="1">  1       -1 0.27095583E-02 0.44824207E+02</pdfrwt>
<totfact> 0.58598414E+05</totfact>
</mgrwt>
</event>
<event>
 4    1  0.3883670E-002  0.8913667E+02  0.7818608E-02  0.1304956E+00
          1   -1    0    0    0  501  0.00000000000E+00  0.00000000000E+00  0.37629702359E+03  0.37629702363E+03  0.50400000000E-02 0. -1.
         -1   -1    0    0  501    0 -0.00000000000E+00 -0.00000000000E+00 -0.52786380912E+01  0.52786404973E+01  0.50400000000E-02 0. -1.
          2    1    1    2    0  502 -0.26309836365E+02  0.34714778747E+02  0.22589704720E+03  0.23005825196E+03  0.25500000000E-02 0.  1.
         -2    1    1    2  502    0  0.26309836365E+02 -0.34714778747E+02  0.14512133830E+03  0.15151741216E+03  0.25500000000E-02 0.  1.
<mgrwt>
<rscale>  0 0.89136665E+02</rscale>
<asrwt>0</asrwt>
<pdfrwt beam="1">  1        1 0.57891883E-01 0.89136665E+02</pdfrwt>
<pdfrwt beam="2">  1       -1 0.81209790E-03 0.89136665E+02</pdfrwt>
<totfact> 0.14177442E+05</totfact>
</mgrwt>
</event>
<event>
 4    1  0.3883670E-002  0.5766166E+02  0.7818608E-02  0.1407915E+00
         -1   -1    0    0  501    0 -0.00000000000E+00  0.00000000000E+00  0.19302055005E+03  0.19302055011E+03  0.50400000000E-02 0. -1.
          1   -1    0    0    0  501  0.00000000000E+00 -0.00000000000E+00 -0.43063628039E+01  0.43063657532E+01  0.50400000000E-02 0. -1.
          2    1    1    2    0  502 -0.27123684179E+01  0.20725727074E+02  0.26403125745E+02  0.33675477143E+02  0.25500000000E-02 0. -1.
         -2    1    1    2  502    0  0.27123684179E+01 -0.20725727074E+02  0.16231106150E+03  0.16365143872E+03  0.25500000000E-02 0. -1.
<mgrwt>
<rscale>  0 0.57661662E+02</rscale>
<asrwt>0</asrwt>
<pdfrwt beam="2">  1        1 0.66251749E-03 0.57661662E+02</pdfrwt>
<pdfrwt beam="1">  1       -1 0.29695474E-01 0.57661662E+02</pdfrwt>
<totfact> 0.22677402E+05</totfact>
</mgrwt>
</event>
<event>
 4    1  0.3883670E-002  0.4957066E+02  0.7818608E-02  0.1447671E+00
         -1   -1    0    0  501    0 -0.00000000000E+00  0.00000000000E+00  0.24225319351E+02  0.24225319875E+02  0.50400000000E-02 0.  1.
          1   -1    0    0    0  501  0.00000000000E+00 -0.00000000000E+00 -0.25358284008E+02  0.25358284509E+02  0.50400000000E-02 0.  1.
          2    1    1    2    0  502 -0.20129988662E+02 -0.11901275892E+02  0.76488066538E+01  0.24604086269E+02  0.25500000000E-02 0. -1.
         -2    1    1    2  502    0  0.20129988662E+02  0.11901275892E+02 -0.87817713107E+01  0.24979518115E+02  0.25500000000E-02 0. -1.
<mgrwt>
<rscale>  0 0.49570659E+02</rscale>
<asrwt>0</asrwt>
<pdfrwt beam="2">  1        1 0.39012746E-02 0.49570659E+02</pdfrwt>
<pdfrwt beam="1">  1       -1 0.37269723E-02 0.49570659E+02</pdfrwt>
<totfact> 0.44785296E+05</totfact>
</mgrwt>
</event>
<event>
 4    1  0.3883670E-002  0.8232845E+02  0.7818608E-02  0.1322571E+00
          1   -1    0    0    0  501  0.00000000000E+00  0.00000000000E+00  0.57228032806E+03  0.57228032808E+03  0.50400000000E-02 0.  1.
         -1   -1    0    0  501    0 -0.00000000000E+00 -0.00000000000E+00 -0.29609477599E+01  0.29609520494E+01  0.50400000000E-02 0.  1.
          2    1    1    2    0  502 -0.26709941158E+02 -0.28603601629E+02  0.37384004369E+03  0.37588291430E+03  0.25500000000E-02 0. -1.
         -2    1    1    2  502    0  0.26709941158E+02  0.28603601629E+02  0.19547933660E+03  0.19935836584E+03  0.25500000000E-02 0. -1.
<mgrwt>
<rscale>  0 0.82328449E+02</rscale>
<asrwt>0</asrwt>
<pdfrwt beam="1">  1        1 0.88043188E-01 0.82328449E+02</pdfrwt>
<pdfrwt beam="2">  1       -1 0.45553045E-03 0.82328449E+02</pdfrwt>
<totfact> 0.18466527E+05</totfact>
</mgrwt>
</event>
<event>
 4    1  0.3883670E-002  0.1237596E+03  0.7818608E-02  0.1237021E+00
         -1   -1    0    0  501    0 -0.00000000000E+00  0.00000000000E+00  0.16501281624E+03  0.16501281632E+03  0.50400000000E-02 0.  1.
          1   -1    0    0    0  501  0.00000000000E+00 -0.00000000000E+00 -0.23204917551E+02  0.23204918098E+02  0.50400000000E-02 0.  1.
          2    1    1    2    0  502 -0.66657587436E+01 -0.61151921118E+02  0.60688401280E+02  0.86412220504E+02  0.25500000000E-02 0. -1.
         -2    1    1    2  502    0  0.66657587436E+01  0.61151921118E+02  0.81119497409E+02  0.10180551391E+03  0.25500000000E-02 0. -1.
<mgrwt>
<rscale>  0 0.12375959E+03</rscale>
<asrwt>0</asrwt>
<pdfrwt beam="2">  1        1 0.35699872E-02 0.12375959E+03</pdfrwt>
<pdfrwt beam="1">  1       -1 0.25386588E-01 0.12375959E+03</pdfrwt>
<totfact> 0.32845512E+04</totfact>
</mgrwt>
</event>
<event>
 4    1  0.3883670E-002  0.5056086E+02  0.7818608E-02  0.1442340E+00
          1   -1    0    0    0  501  0.00000000000E+00  0.00000000000E+00  0.35796353734E+01  0.35796389215E+01  0.50400000000E-02 0. -1.
         -1   -1    0    0  501    0 -0.00000000000E+00 -0.00000000000E+00 -0.17853769084E+03  0.17853769091E+03  0.50400000000E-02 0. -1.
          2    1    1    2    0  502  0.15935262112E+02 -0.18817506747E+02 -0.10755610901E+03  0.11034648944E+03  0.25500000000E-02 0. -1.
         -2    1    1    2  502    0 -0.15935262112E+02  0.18817506747E+02 -0.67401946459E+02  0.71770840400E+02  0.25500000000E-02 0. -1.
<mgrwt>
<rscale>  0 0.50560861E+02</rscale>
<asrwt>0</asrwt>
<pdfrwt beam="1">  1        1 0.55071355E-03 0.50560861E+02</pdfrwt>
<pdfrwt beam="2">  1       -1 0.27467330E-01 0.50560861E+02</pdfrwt>
<totfact> 0.32137153E+05</totfact>
</mgrwt>
</event>
<event>
 4    1  0.3883670E-002  0.6056006E+02  0.7818608E-02  0.1395496E+00
         -1   -1    0    0  501    0 -0.00000000000E+00  0.00000000000E+00  0.16445282708E+03  0.16445282716E+03  0.50400000000E-02 0.  1.
          1   -1    0    0    0  501  0.00000000000E+00 -0.00000000000E+00 -0.55753376242E+01  0.55753399023E+01  0.50400000000E-02 0.  1.
          2    1    1    2    0  502 -0.17449259347E+02 -0.17229809676E+02  0.29566389340E+02  0.38412424791E+02  0.25500000000E-02 0. -1.
         -2    1    1    2  502    0  0.17449259347E+02  0.17229809676E+02  0.12931110012E+03  0.13161574227E+03  0.25500000000E-02 0. -1.
<mgrwt>
<rscale>  0 0.60560061E+02</rscale>
<asrwt>0</asrwt>
<pdfrwt beam="2">  1        1 0.85774433E-03 0.60560061E+02</pdfrwt>
<pdfrwt beam="1">  1       -1 0.25300438E-01 0.60560061E+02</pdfrwt>
<totfact> 0.20878017E+05</totfact>
</mgrwt>
</event>
<event>
 4    1  0.3883670E-002  0.6579475E+02  0.7818608E-02  0.1375007E+00
         -1   -1    0    0  501    0 -0.00000000000E+00  0.00000000000E+00  0.12552913469E+01  0.12553014646E+01  0.50400000000E-02 0. -1.
          1   -1    0    0    0  501  0.00000000000E+00 -0.00000000000E+00 -0.86213681163E+03  0.86213681164E+03  0.50400000000E-02 0. -1.
          2    1    1    2    0  502  0.26898270535E+02  0.14002957326E+02 -0.59779131397E+03  0.59855998433E+03  0.25500000000E-02 0. -1.
         -2    1    1    2  502    0 -0.26898270535E+02 -0.14002957326E+02 -0.26309020631E+03  0.26483212878E+03  0.25500000000E-02 0. -1.
<mgrwt>
<rscale>  0 0.65794749E+02</rscale>
<asrwt>0</asrwt>
<pdfrwt beam="2">  1        1 0.13263596E+00 0.65794749E+02</pdfrwt>
<pdfrwt beam="1">  1       -1 0.19312321E-03 0.65794749E+02</pdfrwt>
<totfact> 0.32734882E+05</totfact>
</mgrwt>
</event>
<event>
 4    1  0.3883670E-002  0.5420329E+02  0.7818608E-02  0.1423905E+00
          1   -1    0    0    0  501  0.00000000000E+00  0.00000000000E+00  0.13243729043E+04  0.13243729043E+04  0.50400000000E-02 0. -1.
         -1   -1    0    0  501    0 -0.00000000000E+00 -0.00000000000E+00 -0.55458991570E+00  0.55461281647E+00  0.50400000000E-02 0. -1.
          2    1    1    2    0  502 -0.39202595046E+01  0.25637502018E+02  0.85414445946E+03  0.85453812529E+03  0.25500000000E-02 0. -1.
         -2    1    1    2  502    0  0.39202595046E+01 -0.25637502018E+02  0.46967385489E+03  0.47038939180E+03  0.25500000000E-02 0. -1.
<mgrwt>
<rscale>  0 0.54203285E+02</rscale>
<asrwt>0</asrwt>
<pdfrwt beam="1">  1        1 0.20374948E+00 0.54203285E+02</pdfrwt>
<pdfrwt beam="2">  1       -1 0.85323372E-04 0.54203285E+02</pdfrwt>
<totfact> 0.46149012E+05</totfact>
</mgrwt>
</event>
<event>
 4    1  0.3883670E-002  0.9010688E+02  0.7818608E-02  0.1302593E+00
          1   -1    0    0    0  501  0.00000000000E+00  0.00000000000E+00  0.13486045883E+02  0.13486046825E+02  0.50400000000E-02 0.  1.
         -1   -1    0    0  501    0 -0.00000000000E+00 -0.00000000000E+00 -0.15051206049E+03  0.15051206057E+03  0.50400000000E-02 0.  1.
          2    1    1    2    0  502 -0.28924029007E+02 -0.14001288235E+02 -0.12598642371E+03  0.13002005419E+03  0.25500000000E-02 0.  1.
         -2    1    1    2  502    0  0.28924029007E+02  0.14001288235E+02 -0.11039590901E+02  0.33978053211E+02  0.25500000000E-02 0.  1.
<mgrwt>
<rscale>  0 0.90106884E+02</rscale>
<asrwt>0</asrwt>
<pdfrwt beam="1">  1        1 0.20747765E-02 0.90106884E+02</pdfrwt>
<pdfrwt beam="2">  1       -1 0.23155700E-01 0.90106884E+02</pdfrwt>
<totfact> 0.77051591E+04</totfact>
</mgrwt>
</event>
<event>
 4    1  0.3883670E-002  0.4472066E+02  0.7818608E-02  0.1476093E+00
         -1   -1    0    0  501    0 -0.00000000000E+00  0.00000000000E+00  0.10087330453E+01  0.10087456360E+01  0.50400000000E-02 0. -1.
          1   -1    0    0    0  501  0.00000000000E+00 -0.00000000000E+00 -0.49565262082E+03  0.49565262085E+03  0.50400000000E-02 0. -1.
          2    1    1    2    0  502 -0.14599895692E+02  0.14100625983E+02 -0.14313992164E+03  0.14457185681E+03  0.25500000000E-02 0. -1.
         -2    1    1    2  502    0  0.14599895692E+02 -0.14100625983E+02 -0.35150396614E+03  0.35208950967E+03  0.25500000000E-02 0. -1.
<mgrwt>
<rscale>  0 0.44720658E+02</rscale>
<asrwt>0</asrwt>
<pdfrwt beam="2">  1        1 0.76254056E-01 0.44720658E+02</pdfrwt>
<pdfrwt beam="1">  1       -1 0.15519107E-03 0.44720658E+02</pdfrwt>
<totfact> 0.85726271E+05</totfact>
</mgrwt>
</event>
<event>
 4    1  0.3883670E-002  0.4763829E+02  0.7818608E-02  0.1458513E+00
         -1   -1    0    0  501    0 -0.00000000000E+00  0.00000000000E+00  0.26242059127E+04  0.26242059127E+04  0.50400000000E-02 0. -1.
          1   -1    0    0    0  501  0.00000000000E+00 -0.00000000000E+00 -0.21617002756E+00  0.21622877333E+00  0.50400000000E-02 0. -1.
          2    1    1    2    0  502  0.35706252928E+01 -0.23453438335E+02  0.11946296998E+04  0.11948652362E+04  0.25500000000E-02 0. -1.
         -2    1    1    2  502    0 -0.35706252928E+01  0.23453438335E+02  0.14293600429E+04  0.14295569052E+04  0.25500000000E-02 0. -1.
<mgrwt>
<rscale>  0 0.47638294E+02</rscale>
<asrwt>0</asrwt>
<pdfrwt beam="2">  1        1 0.33261518E-04 0.47638294E+02</pdfrwt>
<pdfrwt beam="1">  1       -1 0.40372313E+00 0.47638294E+02</pdfrwt>
<totfact> 0.13620443E+04</totfact>
</mgrwt>
</event>
<event>
 4    1  0.3883670E-002  0.4643929E+02  0.7818608E-02  0.1465551E+00
         -1   -1    0    0  501    0 -0.00000000000E+00  0.00000000000E+00  0.16331953811E+01  0.16332031578E+01  0.50400000000E-02 0. -1.
          1   -1    0    0    0  501  0.00000000000E+00 -0.00000000000E+00 -0.33012012837E+03  0.33012012841E+03  0.50400000000E-02 0. -1.
          2    1    1    2    0  502 -0.43610445594E+01 -0.20798816953E+02 -0.23108387263E+03  0.23205897029E+03  0.25500000000E-02 0.  1.
         -2    1    1    2  502    0  0.43610445594E+01  0.20798816953E+02 -0.97403060354E+02  0.99694361270E+02  0.25500000000E-02 0.  1.
<mgrwt>
<rscale>  0 0.46439292E+02</rscale>
<asrwt>0</asrwt>
<pdfrwt beam="2">  1        1 0.50787659E-01 0.46439292E+02</pdfrwt>
<pdfrwt beam="1">  1       -1 0.25126169E-03 0.46439292E+02</pdfrwt>
<totfact> 0.73697893E+05</totfact>
</mgrwt>
</event>
<event>
 4    1  0.3883670E-002  0.6419900E+02  0.7818608E-02  0.1381010E+00
          1   -1    0    0    0  501  0.00000000000E+00  0.00000000000E+00  0.11582828143E+03  0.11582828154E+03  0.50400000000E-02 0. -1.
         -1   -1    0    0  501    0 -0.00000000000E+00 -0.00000000000E+00 -0.88957372586E+01  0.88957386863E+01  0.50400000000E-02 0. -1.
          2    1    1    2    0  502  0.13313567474E+02 -0.29011237463E+02  0.46885157114E+02  0.56719669799E+02  0.25500000000E-02 0. -1.
         -2    1    1    2  502    0 -0.13313567474E+02  0.29011237463E+02  0.60047387058E+02  0.68004350427E+02  0.25500000000E-02 0. -1.
<mgrwt>
<rscale>  0 0.64199005E+02</rscale>
<asrwt>0</asrwt>
<pdfrwt beam="1">  1        1 0.17819733E-01 0.64199005E+02</pdfrwt>
<pdfrwt beam="2">  1       -1 0.13685753E-02 0.64199005E+02</pdfrwt>
<totfact> 0.27182024E+05</totfact>
</mgrwt>
</event>
<event>
 4    1  0.3883670E-002  0.6688486E+02  0.7818608E-02  0.1371018E+00
          1   -1    0    0    0  501  0.00000000000E+00  0.00000000000E+00  0.54755168827E+03  0.54755168830E+03  0.50400000000E-02 0.  1.
         -1   -1    0    0  501    0 -0.00000000000E+00 -0.00000000000E+00 -0.20425365252E+01  0.20425427433E+01  0.50400000000E-02 0.  1.
          2    1    1    2    0  502 -0.25599377742E+02 -0.12077668747E+02  0.12640905031E+03  0.12953936170E+03  0.25500000000E-02 0.  1.
         -2    1    1    2  502    0  0.25599377742E+02  0.12077668747E+02  0.41910010144E+03  0.42005486934E+03  0.25500000000E-02 0.  1.
<mgrwt>
<rscale>  0 0.66884857E+02</rscale>
<asrwt>0</asrwt>
<pdfrwt beam="1">  1        1 0.84238766E-01 0.66884857E+02</pdfrwt>
<pdfrwt beam="2">  1       -1 0.31423670E-03 0.66884857E+02</pdfrwt>
<totfact> 0.31535420E+05</totfact>
</mgrwt>
</event>
<event>
 4    1  0.3883670E-002  0.9861144E+02  0.7818608E-02  0.1283243E+00
         -1   -1    0    0  501    0 -0.00000000000E+00  0.00000000000E+00  0.15015548960E+03  0.15015548968E+03  0.50400000000E-02 0.  1.
          1   -1    0    0    0  501  0.00000000000E+00 -0.00000000000E+00 -0.16190243629E+02  0.16190244414E+02  0.50400000000E-02 0.  1.
          2    1    1    2    0  502  0.47007493945E+02 -0.14612471907E+02  0.71701429330E+02  0.86973121116E+02  0.25500000000E-02 0.  1.
         -2    1    1    2  502    0 -0.47007493945E+02  0.14612471907E+02  0.62263816637E+02  0.79372612978E+02  0.25500000000E-02 0.  1.
<mgrwt>
<rscale>  0 0.98611440E+02</rscale>
<asrwt>0</asrwt>
<pdfrwt beam="2">  1        1 0.24908068E-02 0.98611440E+02</pdfrwt>
<pdfrwt beam="1">  1       -1 0.23100845E-01 0.98611440E+02</pdfrwt>
<totfact> 0.60974512E+04</totfact>
</mgrwt>
</event>
<event>
 4    1  0.3883670E-002  0.4390644E+02  0.7818608E-02  0.1481286E+00
          1   -1    0    0    0  501  0.00000000000E+00  0.00000000000E+00  0.94516569514E+02  0.94516569649E+02  0.50400000000E-02 0. -1.
         -1   -1    0    0  501    0 -0.00000000000E+00 -0.00000000000E+00 -0.50990398689E+01  0.50990423597E+01  0.50400000000E-02 0. -1.
          2    1    1    2    0  502 -0.12675698688E+02 -0.16607677664E+02  0.29412239021E+02  0.36077251910E+02  0.25500000000E-02 0. -1.
         -2    1    1    2  502    0  0.12675698688E+02  0.16607677664E+02  0.60005290624E+02  0.63538360098E+02  0.25500000000E-02 0. -1.
<mgrwt>
<rscale>  0 0.43906441E+02</rscale>
<asrwt>0</asrwt>
<pdfrwt beam="1">  1        1 0.14541011E-01 0.43906441E+02</pdfrwt>
<pdfrwt beam="2">  1       -1 0.78446785E-03 0.43906441E+02</pdfrwt>
<totfact> 0.69408195E+05</totfact>
</mgrwt>
</event>
<event>
 4    1  0.3883670E-002  0.5336291E+02  0.7818608E-02  0.1428003E+00
         -1   -1    0    0  501    0 -0.00000000000E+00  0.00000000000E+00  0.39326151519E+02  0.39326151842E+02  0.50400000000E-02 0.  1.
          1   -1    0    0    0  501  0.00000000000E+00 -0.00000000000E+00 -0.18102459933E+02  0.18102460635E+02  0.50400000000E-02 0.  1.
          2    1    1    2    0  502 -0.26609953978E+02  0.19209535701E+01  0.10238434689E+02  0.28576306002E+02  0.25500000000E-02 0.  1.
         -2    1    1    2  502    0  0.26609953978E+02 -0.19209535701E+01  0.10985256897E+02  0.28852306475E+02  0.25500000000E-02 0.  1.
<mgrwt>
<rscale>  0 0.53362913E+02</rscale>
<asrwt>0</asrwt>
<pdfrwt beam="2">  1        1 0.27849939E-02 0.53362913E+02</pdfrwt>
<pdfrwt beam="1">  1       -1 0.60501773E-02 0.53362913E+02</pdfrwt>
<totfact> 0.35728472E+05</totfact>
</mgrwt>
</event>
<event>
 4    1  0.3883670E-002  0.7465961E+02  0.7818608E-02  0.1344928E+00
          1   -1    0    0    0  501  0.00000000000E+00  0.00000000000E+00  0.17909567921E+03  0.17909567928E+03  0.50400000000E-02 0.  1.
         -1   -1    0    0  501    0 -0.00000000000E+00 -0.00000000000E+00 -0.77808355083E+01  0.77808371406E+01  0.50400000000E-02 0.  1.
          2    1    1    2    0  502 -0.28037991762E+02 -0.13437757560E+02  0.33945904798E+02  0.46032887910E+02  0.25500000000E-02 0.  1.
         -2    1    1    2  502    0  0.28037991762E+02  0.13437757560E+02  0.13736893891E+03  0.14084362852E+03  0.25500000000E-02 0.  1.
<mgrwt>
<rscale>  0 0.74659606E+02</rscale>
<asrwt>0</asrwt>
<pdfrwt beam="1">  1        1 0.27553182E-01 0.74659606E+02</pdfrwt>
<pdfrwt beam="2">  1       -1 0.11970517E-02 0.74659606E+02</pdfrwt>
<totfact> 0.19711942E+05</totfact>
</mgrwt>
</event>
<event>
 4    1  0.3883670E-002  0.4844059E+02  0.7818608E-02  0.1453939E+00
          1   -1    0    0    0  501  0.00000000000E+00  0.00000000000E+00  0.92770369062E+03  0.92770369063E+03  0.50400000000E-02 0.  1.
         -1   -1    0    0  501    0 -0.00000000000E+00 -0.00000000000E+00 -0.63232841255E+00  0.63234849799E+00  0.50400000000E-02 0.  1.
          2    1    1    2    0  502 -0.89389804730E+01  0.21892562808E+02  0.36315900914E+03  0.36392809126E+03  0.25500000000E-02 0. -1.
         -2    1    1    2  502    0  0.89389804730E+01 -0.21892562808E+02  0.56391235307E+03  0.56440794788E+03  0.25500000000E-02 0. -1.
<mgrwt>
<rscale>  0 0.48440592E+02</rscale>
<asrwt>0</asrwt>
<pdfrwt beam="1">  1        1 0.14272445E+00 0.48440592E+02</pdfrwt>
<pdfrwt beam="2">  1       -1 0.97282290E-04 0.48440592E+02</pdfrwt>
<totfact> 0.69832943E+05</totfact>
</mgrwt>
</event>
<event>
 4    1  0.3883670E-002  0.5185582E+02  0.7818608E-02  0.1435581E+00
         -1   -1    0    0  501    0 -0.00000000000E+00  0.00000000000E+00  0.79187398542E+00  0.79189002417E+00  0.50400000000E-02 0. -1.
          1   -1    0    0    0  501  0.00000000000E+00 -0.00000000000E+00 -0.84893510038E+03  0.84893510040E+03  0.50400000000E-02 0. -1.
          2    1    1    2    0  502 -0.14543645176E+02  0.20679234984E+02 -0.51835795893E+03  0.51897410529E+03  0.25500000000E-02 0.  1.
         -2    1    1    2  502    0  0.14543645176E+02 -0.20679234984E+02 -0.32978526747E+03  0.33075288513E+03  0.25500000000E-02 0.  1.
<mgrwt>
<rscale>  0 0.51855817E+02</rscale>
<asrwt>0</asrwt>
<pdfrwt beam="2">  1        1 0.13060467E+00 0.51855817E+02</pdfrwt>
<pdfrwt beam="1">  1       -1 0.12182868E-03 0.51855817E+02</pdfrwt>
<totfact> 0.59820285E+05</totfact>
</mgrwt>
</event>
<event>
 4    1  0.3883670E-002  0.9320013E+02  0.7818608E-02  0.1295282E+00
          1   -1    0    0    0  501  0.00000000000E+00  0.00000000000E+00  0.71103646092E+03  0.71103646094E+03  0.50400000000E-02 0.  1.
         -1   -1    0    0  501    0 -0.00000000000E+00 -0.00000000000E+00 -0.30540834889E+01  0.30540876475E+01  0.50400000000E-02 0.  1.
          2    1    1    2    0  502  0.40116798204E+02 -0.22746317733E+02  0.30270005418E+03  0.30619287267E+03  0.25500000000E-02 0. -1.
         -2    1    1    2  502    0 -0.40116798204E+02  0.22746317733E+02  0.40528232325E+03  0.40789767591E+03  0.25500000000E-02 0. -1.
<mgrwt>
<rscale>  0 0.93200133E+02</rscale>
<asrwt>0</asrwt>
<pdfrwt beam="1">  1        1 0.10939028E+00 0.93200133E+02</pdfrwt>
<pdfrwt beam="2">  1       -1 0.46985909E-03 0.93200133E+02</pdfrwt>
<totfact> 0.13412029E+05</totfact>
</mgrwt>
</event>
<event>
 4    1  0.3883670E-002  0.5080251E+02  0.7818608E-02  0.1441061E+00
         -1   -1    0    0  501    0 -0.00000000000E+00  0.00000000000E+00  0.82787934917E+00  0.82789469040E+00  0.50400000000E-02 0. -1.
          1   -1    0    0    0  501  0.00000000000E+00 -0.00000000000E+00 -0.77936197000E+03  0.77936197002E+03  0.50400000000E-02 0. -1.
          2    1    1    2    0  502  0.14041129378E+02  0.15830132801E+02 -0.17345598739E+03  0.17474188390E+03  0.25500000000E-02 0.  1.
         -2    1    1    2  502    0 -0.14041129378E+02 -0.15830132801E+02 -0.60507810326E+03  0.60544798081E+03  0.25500000000E-02 0.  1.
<mgrwt>
<rscale>  0 0.50802507E+02</rscale>
<asrwt>0</asrwt>
<pdfrwt beam="2">  1        1 0.11990126E+00 0.50802507E+02</pdfrwt>
<pdfrwt beam="1">  1       -1 0.12736786E-03 0.50802507E+02</pdfrwt>
<totfact> 0.63495608E+05</totfact>
</mgrwt>
</event>
<event>
 4    1  0.3883670E-002  0.8645853E+02  0.7818608E-02  0.1311662E+00
          1   -1    0    0    0  501  0.00000000000E+00  0.00000000000E+00  0.52219854530E+03  0.52219854533E+03  0.50400000000E-02 0. -1.
         -1   -1    0    0  501    0 -0.00000000000E+00 -0.00000000000E+00 -0.35786547346E+01  0.35786582836E+01  0.50400000000E-02 0. -1.
          2    1    1    2    0  502 -0.37347139617E+02  0.48385531697E+00  0.39167021871E+03  0.39344707800E+03  0.25500000000E-02 0. -1.
         -2    1    1    2  502    0  0.37347139617E+02 -0.48385531697E+00  0.12694967185E+03  0.13233012561E+03  0.25500000000E-02 0. -1.
<mgrwt>
<rscale>  0 0.86458527E+02</rscale>
<asrwt>0</asrwt>
<pdfrwt beam="1">  1        1 0.80338219E-01 0.86458527E+02</pdfrwt>
<pdfrwt beam="2">  1       -1 0.55056267E-03 0.86458527E+02</pdfrwt>
<totfact> 0.16103220E+05</totfact>
</mgrwt>
</event>
<event>
 4    1  0.3883670E-002  0.4053271E+02  0.7818608E-02  0.1504327E+00
         -1   -1    0    0  501    0 -0.00000000000E+00  0.00000000000E+00  0.35268306860E+02  0.35268307220E+02  0.50400000000E-02 0. -1.
          1   -1    0    0    0  501  0.00000000000E+00 -0.00000000000E+00 -0.11645727874E+02  0.11645728965E+02  0.50400000000E-02 0. -1.
          2    1    1    2    0  502  0.10149524380E+01  0.20128756413E+02  0.14274255717E+02  0.24697193079E+02  0.25500000000E-02 0.  1.
         -2    1    1    2  502    0 -0.10149524380E+01 -0.20128756413E+02  0.93483232680E+01  0.22216843106E+02  0.25500000000E-02 0.  1.
<mgrwt>
<rscale>  0 0.40532710E+02</rscale>
<asrwt>0</asrwt>
<pdfrwt beam="2">  1        1 0.17916506E-02 0.40532710E+02</pdfrwt>
<pdfrwt beam="1">  1       -1 0.54258935E-02 0.40532710E+02</pdfrwt>
<totfact> 0.70465490E+05</totfact>
</mgrwt>
</event>
<event>
 4    1  0.3883670E-002  0.6699690E+02  0.7818608E-02  0.1370614E+00
         -1   -1    0    0  501    0 -0.00000000000E+00  0.00000000000E+00  0.45350935532E+00  0.45353736005E+00  0.50400000000E-02 0. -1.
          1   -1    0    0    0  501  0.00000000000E+00 -0.00000000000E+00 -0.24742848665E+04  0.24742848665E+04  0.50400000000E-02 0. -1.
          2    1    1    2    0  502  0.24990552827E+02  0.17048719691E+02 -0.70552098574E+03  0.70616927709E+03  0.25500000000E-02 0.  1.
         -2    1    1    2  502    0 -0.24990552827E+02 -0.17048719691E+02 -0.17683103714E+04  0.17685691268E+04  0.25500000000E-02 0.  1.
<mgrwt>
<rscale>  0 0.66996895E+02</rscale>
<asrwt>0</asrwt>
<pdfrwt beam="2">  1        1 0.38064840E+00 0.66996895E+02</pdfrwt>
<pdfrwt beam="1">  1       -1 0.69774806E-04 0.66996895E+02</pdfrwt>
<totfact> 0.12051069E+05</totfact>
</mgrwt>
</event>
<event>
 4    1  0.3883670E-002  0.4875801E+02  0.7818608E-02  0.1452158E+00
          1   -1    0    0    0  501  0.00000000000E+00  0.00000000000E+00  0.12777708940E+01  0.12777808338E+01  0.50400000000E-02 0.  1.
         -1   -1    0    0  501    0 -0.00000000000E+00 -0.00000000000E+00 -0.46513311882E+03  0.46513311885E+03  0.50400000000E-02 0.  1.
          2    1    1    2    0  502  0.21618108228E+02 -0.99291933114E+01 -0.28290951285E+03  0.28390794978E+03  0.25500000000E-02 0.  1.
         -2    1    1    2  502    0 -0.21618108228E+02  0.99291933114E+01 -0.18094583508E+03  0.18250294990E+03  0.25500000000E-02 0.  1.
<mgrwt>
<rscale>  0 0.48758010E+02</rscale>
<asrwt>0</asrwt>
<pdfrwt beam="1">  1        1 0.19658128E-03 0.48758010E+02</pdfrwt>
<pdfrwt beam="2">  1       -1 0.71558807E-01 0.48758010E+02</pdfrwt>
<totfact> 0.24235736E+05</totfact>
</mgrwt>
</event>
<event>
 4    1  0.3883670E-002  0.5800259E+02  0.7818608E-02  0.1406410E+00
          1   -1    0    0    0  501  0.00000000000E+00  0.00000000000E+00  0.58344052955E+01  0.58344074724E+01  0.50400000000E-02 0.  1.
         -1   -1    0    0  501    0 -0.00000000000E+00 -0.00000000000E+00 -0.14415776523E+03  0.14415776532E+03  0.50400000000E-02 0.  1.
          2    1    1    2    0  502  0.20055011304E+02  0.19656193419E+02 -0.50423649332E+02  0.57715802312E+02  0.25500000000E-02 0.  1.
         -2    1    1    2  502    0 -0.20055011304E+02 -0.19656193419E+02 -0.87899710604E+02  0.92276370479E+02  0.25500000000E-02 0.  1.
<mgrwt>
<rscale>  0 0.58002586E+02</rscale>
<asrwt>0</asrwt>
<pdfrwt beam="1">  1        1 0.89760110E-03 0.58002586E+02</pdfrwt>
<pdfrwt beam="2">  1       -1 0.22178115E-01 0.58002586E+02</pdfrwt>
<totfact> 0.23981428E+05</totfact>
</mgrwt>
</event>
<event>
 4    1  0.3883670E-002  0.4991295E+02  0.7818608E-02  0.1445812E+00
          1   -1    0    0    0  501  0.00000000000E+00  0.00000000000E+00  0.12106331792E+04  0.12106331792E+04  0.50400000000E-02 0.  1.
         -1   -1    0    0  501    0 -0.00000000000E+00 -0.00000000000E+00 -0.51445042747E+00  0.51447511497E+00  0.50400000000E-02 0.  1.
          2    1    1    2    0  502 -0.39552053793E+01  0.22884281229E+02  0.38333901279E+03  0.38404183719E+03  0.25500000000E-02 0. -1.
         -2    1    1    2  502    0  0.39552053793E+01 -0.22884281229E+02  0.82677971597E+03  0.82710581712E+03  0.25500000000E-02 0. -1.
<mgrwt>
<rscale>  0 0.49912953E+02</rscale>
<asrwt>0</asrwt>
<pdfrwt beam="1">  1        1 0.18625125E+00 0.49912953E+02</pdfrwt>
<pdfrwt beam="2">  1       -1 0.79148124E-04 0.49912953E+02</pdfrwt>
<totfact> 0.59484657E+05</totfact>
</mgrwt>
</event>
<event>
 4    1  0.3883670E-002  0.5238985E+02  0.7818608E-02  0.1432862E+00
         -1   -1    0    0  501    0 -0.00000000000E+00  0.00000000000E+00  0.24286000240E+01  0.24286052536E+01  0.50400000000E-02 0.  1.
          1   -1    0    0    0  501  0.00000000000E+00 -0.00000000000E+00 -0.28253862476E+03  0.28253862481E+03  0.50400000000E-02 0.  1.
          2    1    1    2    0  502 -0.11290310116E+02 -0.23636698033E+02 -0.14058404395E+03  0.14300362939E+03  0.25500000000E-02 0. -1.
         -2    1    1    2  502    0  0.11290310116E+02  0.23636698033E+02 -0.13952598079E+03  0.14196360068E+03  0.25500000000E-02 0. -1.
<mgrwt>
<rscale>  0 0.52389849E+02</rscale>
<asrwt>0</asrwt>
<pdfrwt beam="2">  1        1 0.43467455E-01 0.52389849E+02</pdfrwt>
<pdfrwt beam="1">  1       -1 0.37363140E-03 0.52389849E+02</pdfrwt>
<totfact> 0.53143727E+05</totfact>
</mgrwt>
</event>
<event>
 4    1  0.3883670E-002  0.5386598E+02  0.7818608E-02  0.1425539E+00
         -1   -1    0    0  501    0 -0.00000000000E+00  0.00000000000E+00  0.36977424083E+02  0.36977424426E+02  0.50400000000E-02 0. -1.
          1   -1    0    0    0  501  0.00000000000E+00 -0.00000000000E+00 -0.19616996525E+02  0.19616997173E+02  0.50400000000E-02 0. -1.
          2    1    1    2    0  502  0.19946693661E+02  0.18029165817E+02  0.10329642019E+02  0.28803175498E+02  0.25500000000E-02 0. -1.
         -2    1    1    2  502    0 -0.19946693661E+02 -0.18029165817E+02  0.70307855386E+01  0.27791246101E+02  0.25500000000E-02 0. -1.
<mgrwt>
<rscale>  0 0.53865983E+02</rscale>
<asrwt>0</asrwt>
<pdfrwt beam="2">  1        1 0.30179996E-02 0.53865983E+02</pdfrwt>
<pdfrwt beam="1">  1       -1 0.56888345E-02 0.53865983E+02</pdfrwt>
<totfact> 0.35134400E+05</totfact>
</mgrwt>
</event>
<event>
 4    1  0.3883670E-002  0.6610415E+02  0.7818608E-02  0.1373866E+00
         -1   -1    0    0  501    0 -0.00000000000E+00  0.00000000000E+00  0.32536420845E+02  0.32536421235E+02  0.50400000000E-02 0. -1.
          1   -1    0    0    0  501  0.00000000000E+00 -0.00000000000E+00 -0.33575904936E+02  0.33575905314E+02  0.50400000000E-02 0. -1.
          2    1    1    2    0  502  0.21239460767E+02 -0.59956922797E+01 -0.25127189423E+02  0.33443066163E+02  0.25500000000E-02 0. -1.
         -2    1    1    2  502    0 -0.21239460767E+02  0.59956922797E+01  0.24087705332E+02  0.32669260387E+02  0.25500000000E-02 0. -1.
<mgrwt>
<rscale>  0 0.66104154E+02</rscale>
<asrwt>0</asrwt>
<pdfrwt beam="2">  1        1 0.51655239E-02 0.66104154E+02</pdfrwt>
<pdfrwt beam="1">  1       -1 0.50056032E-02 0.66104154E+02</pdfrwt>
<totfact> 0.21511367E+05</totfact>
</mgrwt>
</event>
<event>
 4    1  0.3883670E-002  0.4183307E+02  0.7818608E-02  0.1495140E+00
         -1   -1    0    0  501    0 -0.00000000000E+00  0.00000000000E+00  0.62262157916E+00  0.62264197773E+00  0.50400000000E-02 0.  1.
          1   -1    0    0    0  501  0.00000000000E+00 -0.00000000000E+00 -0.70266464958E+03  0.70266464960E+03  0.50400000000E-02 0.  1.
          2    1    1    2    0  502  0.17806831586E+02 -0.98520867958E+01 -0.26977572523E+03  0.27054221260E+03  0.25500000000E-02 0. -1.
         -2    1    1    2  502    0 -0.17806831586E+02  0.98520867958E+01 -0.43226630277E+03  0.43274507898E+03  0.25500000000E-02 0. -1.
<mgrwt>
<rscale>  0 0.41833066E+02</rscale>
<asrwt>0</asrwt>
<pdfrwt beam="2">  1        1 0.10810162E+00 0.41833066E+02</pdfrwt>
<pdfrwt beam="1">  1       -1 0.95790067E-04 0.41833066E+02</pdfrwt>
<totfact> 0.10277254E+06</totfact>
</mgrwt>
</event>
<event>
 4    1  0.3883670E-002  0.5459377E+02  0.7818608E-02  0.1422030E+00
         -1   -1    0    0  501    0 -0.00000000000E+00  0.00000000000E+00  0.55365150367E+00  0.55367444325E+00  0.50400000000E-02 0. -1.
          1   -1    0    0    0  501  0.00000000000E+00 -0.00000000000E+00 -0.13458003488E+04  0.13458003488E+04  0.50400000000E-02 0. -1.
          2    1    1    2    0  502  0.20484416874E+02  0.81703341982E+01 -0.10693212130E+04  0.10695486068E+04  0.25500000000E-02 0.  1.
         -2    1    1    2  502    0 -0.20484416874E+02 -0.81703341982E+01 -0.27592548425E+03  0.27680541642E+03  0.25500000000E-02 0.  1.
<mgrwt>
<rscale>  0 0.54593767E+02</rscale>
<asrwt>0</asrwt>
<pdfrwt beam="2">  1        1 0.20704359E+00 0.54593767E+02</pdfrwt>
<pdfrwt beam="1">  1       -1 0.85179997E-04 0.54593767E+02</pdfrwt>
<totfact> 0.44883556E+05</totfact>
</mgrwt>
</event>
<event>
 4    1  0.3883670E-002  0.4400953E+02  0.7818608E-02  0.1480621E+00
         -1   -1    0    0  501    0 -0.00000000000E+00  0.00000000000E+00  0.43667558456E+00  0.43670466879E+00  0.50400000000E-02 0.  1.
          1   -1    0    0    0  501  0.00000000000E+00 -0.00000000000E+00 -0.11088177540E+04  0.11088177541E+04  0.50400000000E-02 0.  1.
          2    1    1    2    0  502 -0.13829898732E+02  0.16787664583E+02 -0.47014831055E+03  0.47065117199E+03  0.25500000000E-02 0. -1.
         -2    1    1    2  502    0  0.13829898732E+02 -0.16787664583E+02 -0.63823276791E+03  0.63860328673E+03  0.25500000000E-02 0. -1.
<mgrwt>
<rscale>  0 0.44009534E+02</rscale>
<asrwt>0</asrwt>
<pdfrwt beam="2">  1        1 0.17058510E+00 0.44009534E+02</pdfrwt>
<pdfrwt beam="1">  1       -1 0.67183985E-04 0.44009534E+02</pdfrwt>
<totfact> 0.84171050E+05</totfact>
</mgrwt>
</event>
<event>
 4    1  0.3883670E-002  0.4391912E+02  0.7818608E-02  0.1481204E+00
         -1   -1    0    0  501    0 -0.00000000000E+00  0.00000000000E+00  0.95958934786E+00  0.95960258343E+00  0.50400000000E-02 0.  1.
          1   -1    0    0    0  501  0.00000000000E+00 -0.00000000000E+00 -0.50252642454E+03  0.50252642456E+03  0.50400000000E-02 0.  1.
          2    1    1    2    0  502  0.87683832264E+01 -0.18118891780E+02 -0.15015934019E+03  0.15150249581E+03  0.25500000000E-02 0.  1.
         -2    1    1    2  502    0 -0.87683832264E+01  0.18118891780E+02 -0.35140749500E+03  0.35198353134E+03  0.25500000000E-02 0.  1.
<mgrwt>
<rscale>  0 0.43919123E+02</rscale>
<asrwt>0</asrwt>
<pdfrwt beam="2">  1        1 0.77311548E-01 0.43919123E+02</pdfrwt>
<pdfrwt beam="1">  1       -1 0.14763055E-03 0.43919123E+02</pdfrwt>
<totfact> 0.89736398E+05</totfact>
</mgrwt>
</event>
<event>
 4    1  0.3883670E-002  0.5097213E+02  0.7818608E-02  0.1440168E+00
          1   -1    0    0    0  501  0.00000000000E+00  0.00000000000E+00  0.13555378092E+04  0.13555378092E+04  0.50400000000E-02 0.  1.
         -1   -1    0    0  501    0 -0.00000000000E+00 -0.00000000000E+00 -0.47916141317E+00  0.47918791874E+00  0.50400000000E-02 0.  1.
          2    1    1    2    0  502  0.22322923230E+02  0.56115602884E+01  0.96863209973E+03  0.96890554088E+03  0.25500000000E-02 0.  1.
         -2    1    1    2  502    0 -0.22322923230E+02 -0.56115602884E+01  0.38642654806E+03  0.38711145625E+03  0.25500000000E-02 0.  1.
<mgrwt>
<rscale>  0 0.50972125E+02</rscale>
<asrwt>0</asrwt>
<pdfrwt beam="1">  1        1 0.20854555E+00 0.50972125E+02</pdfrwt>
<pdfrwt beam="2">  1       -1 0.73718732E-04 0.50972125E+02</pdfrwt>
<totfact> 0.53053670E+05</totfact>
</mgrwt>
</event>
<event>
 4    1  0.3883670E-002  0.5353620E+02  0.7818608E-02  0.1427151E+00
          1   -1    0    0    0  501  0.00000000000E+00  0.00000000000E+00  0.30226053875E+03  0.30226053880E+03  0.50400000000E-02 0.  1.
         -1   -1    0    0  501    0 -0.00000000000E+00 -0.00000000000E+00 -0.23705720254E+01  0.23705773830E+01  0.50400000000E-02 0.  1.
          2    1    1    2    0  502 -0.12883127575E+02 -0.22270877951E+02  0.19197704185E+03  0.19369344745E+03  0.25500000000E-02 0.  1.
         -2    1    1    2  502    0  0.12883127575E+02  0.22270877951E+02  0.10791292487E+03  0.11093766873E+03  0.25500000000E-02 0.  1.
<mgrwt>
<rscale>  0 0.53536201E+02</rscale>
<asrwt>0</asrwt>
<pdfrwt beam="1">  1        1 0.46501583E-01 0.53536201E+02</pdfrwt>
<pdfrwt beam="2">  1       -1 0.36470411E-03 0.53536201E+02</pdfrwt>
<totfact> 0.50934395E+05</totfact>
</mgrwt>
</event>
<event>
 4    1  0.3883670E-002  0.5714263E+02  0.7818608E-02  0.1410230E+00
          1   -1    0    0    0  501  0.00000000000E+00  0.00000000000E+00  0.31299945937E+03  0.31299945941E+03  0.50400000000E-02 0.  1.
         -1   -1    0    0  501    0 -0.00000000000E+00 -0.00000000000E+00 -0.26080535290E+01  0.26080583989E+01  0.50400000000E-02 0.  1.
          2    1    1    2    0  502 -0.24339307118E+02 -0.13437866384E+02  0.19155717965E+03  0.19356428185E+03  0.25500000000E-02 0. -1.
         -2    1    1    2  502    0  0.24339307118E+02  0.13437866384E+02  0.11883422619E+03  0.12204323596E+03  0.25500000000E-02 0. -1.
<mgrwt>
<rscale>  0 0.57142633E+02</rscale>
<asrwt>0</asrwt>
<pdfrwt beam="1">  1        1 0.48153774E-01 0.57142633E+02</pdfrwt>
<pdfrwt beam="2">  1       -1 0.40123929E-03 0.57142633E+02</pdfrwt>
<totfact> 0.43474108E+05</totfact>
</mgrwt>
</event>
<event>
 4    1  0.3883670E-002  0.4920001E+02  0.7818608E-02  0.1449705E+00
         -1   -1    0    0  501    0 -0.00000000000E+00  0.00000000000E+00  0.24209913642E+03  0.24209913647E+03  0.50400000000E-02 0. -1.
          1   -1    0    0    0  501  0.00000000000E+00 -0.00000000000E+00 -0.24996353646E+01  0.24996404456E+01  0.50400000000E-02 0. -1.
          2    1    1    2    0  502  0.13540635372E+02 -0.18135448474E+02  0.71877584993E+02  0.75356688678E+02  0.25500000000E-02 0. -1.
         -2    1    1    2  502    0 -0.13540635372E+02  0.18135448474E+02  0.16772191606E+03  0.16924208824E+03  0.25500000000E-02 0. -1.
<mgrwt>
<rscale>  0 0.49200008E+02</rscale>
<asrwt>0</asrwt>
<pdfrwt beam="2">  1        1 0.38455967E-03 0.49200008E+02</pdfrwt>
<pdfrwt beam="1">  1       -1 0.37246022E-01 0.49200008E+02</pdfrwt>
<totfact> 0.31504666E+05</totfact>
</mgrwt>
</event>
<event>
 4    1  0.3883670E-002  0.4658841E+02  0.7818608E-02  0.1464662E+00
         -1   -1    0    0  501    0 -0.00000000000E+00  0.00000000000E+00  0.62075038866E+01  0.62075059326E+01  0.50400000000E-02 0. -1.
          1   -1    0    0    0  501  0.00000000000E+00 -0.00000000000E+00 -0.87413529556E+02  0.87413529701E+02  0.50400000000E-02 0. -1.
          2    1    1    2    0  502 -0.15359815872E+02  0.13634111531E+02 -0.62690259908E+02  0.65968792884E+02  0.25500000000E-02 0. -1.
         -2    1    1    2  502    0  0.15359815872E+02 -0.13634111531E+02 -0.18515765762E+02  0.27652242750E+02  0.25500000000E-02 0. -1.
<mgrwt>
<rscale>  0 0.46588407E+02</rscale>
<asrwt>0</asrwt>
<pdfrwt beam="2">  1        1 0.13448235E-01 0.46588407E+02</pdfrwt>
<pdfrwt beam="1">  1       -1 0.95500083E-03 0.46588407E+02</pdfrwt>
<totfact> 0.59277488E+05</totfact>
</mgrwt>
</event>
<event>
 4    1  0.3883670E-002  0.4201569E+02  0.7818608E-02  0.1493881E+00
         -1   -1    0    0  501    0 -0.00000000000E+00  0.00000000000E+00  0.21854817513E+02  0.21854818095E+02  0.50400000000E-02 0.  1.
          1   -1    0    0    0  501  0.00000000000E+00 -0.00000000000E+00 -0.20193697024E+02  0.20193697653E+02  0.50400000000E-02 0.  1.
          2    1    1    2    0  502  0.19706388485E+02  0.67774335525E+01  0.34886151546E+01  0.21129263946E+02  0.25500000000E-02 0. -1.
         -2    1    1    2  502    0 -0.19706388485E+02 -0.67774335525E+01 -0.18274946650E+01  0.20919251802E+02  0.25500000000E-02 0. -1.
<mgrwt>
<rscale>  0 0.42015692E+02</rscale>
<asrwt>0</asrwt>
<pdfrwt beam="2">  1        1 0.31067227E-02 0.42015692E+02</pdfrwt>
<pdfrwt beam="1">  1       -1 0.33622797E-02 0.42015692E+02</pdfrwt>
<totfact> 0.67230354E+05</totfact>
</mgrwt>
</event>
<event>
 4    1  0.3883670E-002  0.4623637E+02  0.7818608E-02  0.1466768E+00
         -1   -1    0    0  501    0 -0.00000000000E+00  0.00000000000E+00  0.14726368991E+01  0.14726455236E+01  0.50400000000E-02 0.  1.
          1   -1    0    0    0  501  0.00000000000E+00 -0.00000000000E+00 -0.36291967244E+03  0.36291967247E+03  0.50400000000E-02 0.  1.
          2    1    1    2    0  502 -0.54356419044E+01 -0.20399115198E+02 -0.10646539715E+03  0.10853824626E+03  0.25500000000E-02 0.  1.
         -2    1    1    2  502    0  0.54356419044E+01  0.20399115198E+02 -0.25498163838E+03  0.25585407174E+03  0.25500000000E-02 0.  1.
<mgrwt>
<rscale>  0 0.46236370E+02</rscale>
<asrwt>0</asrwt>
<pdfrwt beam="2">  1        1 0.55833725E-01 0.46236370E+02</pdfrwt>
<pdfrwt beam="1">  1       -1 0.22656048E-03 0.46236370E+02</pdfrwt>
<totfact> 0.75658601E+05</totfact>
</mgrwt>
</event>
<event>
 4    1  0.3883670E-002  0.4413029E+02  0.7818608E-02  0.1479845E+00
          1   -1    0    0    0  501  0.00000000000E+00  0.00000000000E+00  0.11963847155E+02  0.11963848216E+02  0.50400000000E-02 0. -1.
         -1   -1    0    0  501    0 -0.00000000000E+00 -0.00000000000E+00 -0.40695152870E+02  0.40695153182E+02  0.50400000000E-02 0. -1.
          2    1    1    2    0  502 -0.17898417363E+02 -0.12638192581E+02 -0.17475780685E+02  0.28026419194E+02  0.25500000000E-02 0. -1.
         -2    1    1    2  502    0  0.17898417363E+02  0.12638192581E+02 -0.11255525031E+02  0.24632582204E+02  0.25500000000E-02 0. -1.
<mgrwt>
<rscale>  0 0.44130290E+02</rscale>
<asrwt>0</asrwt>
<pdfrwt beam="1">  1        1 0.18405920E-02 0.44130290E+02</pdfrwt>
<pdfrwt beam="2">  1       -1 0.62607928E-02 0.44130290E+02</pdfrwt>
<totfact> 0.56634910E+05</totfact>
</mgrwt>
</event>
<event>
 4    1  0.3883670E-002  0.5261034E+02  0.7818608E-02  0.1431750E+00
         -1   -1    0    0  501    0 -0.00000000000E+00  0.00000000000E+00  0.61501857009E+03  0.61501857011E+03  0.50400000000E-02 0.  1.
          1   -1    0    0    0  501  0.00000000000E+00 -0.00000000000E+00 -0.11251015971E+01  0.11251128857E+01  0.50400000000E-02 0.  1.
          2    1    1    2    0  502  0.22359060505E+02  0.13839272788E+02  0.31530050128E+03  0.31639509979E+03  0.25500000000E-02 0. -1.
         -2    1    1    2  502    0 -0.22359060505E+02 -0.13839272788E+02  0.29859296721E+03  0.29974858321E+03  0.25500000000E-02 0. -1.
<mgrwt>
<rscale>  0 0.52610336E+02</rscale>
<asrwt>0</asrwt>
<pdfrwt beam="2">  1        1 0.17309287E-03 0.52610336E+02</pdfrwt>
<pdfrwt beam="1">  1       -1 0.94618545E-01 0.52610336E+02</pdfrwt>
<totfact> 0.16706147E+05</totfact>
</mgrwt>
</event>
<event>
 4    1  0.3883670E-002  0.7766291E+02  0.7818608E-02  0.1335818E+00
          1   -1    0    0    0  501  0.00000000000E+00  0.00000000000E+00  0.36270623332E+02  0.36270623683E+02  0.50400000000E-02 0.  1.
         -1   -1    0    0  501    0 -0.00000000000E+00 -0.00000000000E+00 -0.41573084441E+02  0.41573084747E+02  0.50400000000E-02 0.  1.
          2    1    1    2    0  502 -0.21642362625E+02  0.18589864013E+02  0.23752206026E+02  0.37123337695E+02  0.25500000000E-02 0. -1.
         -2    1    1    2  502    0  0.21642362625E+02 -0.18589864013E+02 -0.29054667135E+02  0.40720370735E+02  0.25500000000E-02 0. -1.
<mgrwt>
<rscale>  0 0.77662905E+02</rscale>
<asrwt>0</asrwt>
<pdfrwt beam="1">  1        1 0.55800960E-02 0.77662905E+02</pdfrwt>
<pdfrwt beam="2">  1       -1 0.63958591E-02 0.77662905E+02</pdfrwt>
<totfact> 0.13993240E+05</totfact>
</mgrwt>
</event>
<event>
 4    1  0.3883670E-002  0.1125708E+03  0.7818608E-02  0.1255882E+00
          1   -1    0    0    0  501  0.00000000000E+00  0.00000000000E+00  0.84305213547E+01  0.84305228612E+01  0.50400000000E-02 0. -1.
         -1   -1    0    0  501    0 -0.00000000000E+00 -0.00000000000E+00 -0.37578261734E+03  0.37578261738E+03  0.50400000000E-02 0. -1.
          2    1    1    2    0  502  0.25004975027E+02 -0.36130329617E+02 -0.30373669285E+03  0.30689840027E+03  0.25500000000E-02 0.  1.
         -2    1    1    2  502    0 -0.25004975027E+02  0.36130329617E+02 -0.63615403136E+02  0.77314739972E+02  0.25500000000E-02 0.  1.
<mgrwt>
<rscale>  0 0.11257075E+03</rscale>
<asrwt>0</asrwt>
<pdfrwt beam="1">  1        1 0.12970037E-02 0.11257075E+03</pdfrwt>
<pdfrwt beam="2">  1       -1 0.57812698E-01 0.11257075E+03</pdfrwt>
<totfact> 0.31508958E+04</totfact>
</mgrwt>
</event>
<event>
 4    1  0.3883670E-002  0.4407746E+02  0.7818608E-02  0.1480184E+00
         -1   -1    0    0  501    0 -0.00000000000E+00  0.00000000000E+00  0.55780298086E+03  0.55780298089E+03  0.50400000000E-02 0. -1.
          1   -1    0    0    0  501  0.00000000000E+00 -0.00000000000E+00 -0.87074020006E+00  0.87075478615E+00  0.50400000000E-02 0. -1.
          2    1    1    2    0  502 -0.19155593494E+02  0.90364629856E+01  0.35567971999E+03  0.35630977764E+03  0.25500000000E-02 0. -1.
         -2    1    1    2  502    0  0.19155593494E+02 -0.90364629856E+01  0.20125252067E+03  0.20236395803E+03  0.25500000000E-02 0. -1.
<mgrwt>
<rscale>  0 0.44077457E+02</rscale>
<asrwt>0</asrwt>
<pdfrwt beam="2">  1        1 0.13396127E-03 0.44077457E+02</pdfrwt>
<pdfrwt beam="1">  1       -1 0.85815773E-01 0.44077457E+02</pdfrwt>
<totfact> 0.27708257E+05</totfact>
</mgrwt>
</event>
<event>
 4    1  0.3883670E-002  0.8848932E+02  0.7818608E-02  0.1306552E+00
          1   -1    0    0    0  501  0.00000000000E+00  0.00000000000E+00  0.10496173921E+03  0.10496173933E+03  0.50400000000E-02 0.  1.
         -1   -1    0    0  501    0 -0.00000000000E+00 -0.00000000000E+00 -0.18650508471E+02  0.18650509152E+02  0.50400000000E-02 0.  1.
          2    1    1    2    0  502  0.30155772596E+02  0.98245800828E+01  0.61301082543E-01  0.31715875504E+02  0.25500000000E-02 0.  1.
         -2    1    1    2  502    0 -0.30155772596E+02 -0.98245800828E+01  0.86249929658E+02  0.91896372982E+02  0.25500000000E-02 0.  1.
<mgrwt>
<rscale>  0 0.88489318E+02</rscale>
<asrwt>0</asrwt>
<pdfrwt beam="1">  1        1 0.16147960E-01 0.88489318E+02</pdfrwt>
<pdfrwt beam="2">  1       -1 0.28693090E-02 0.88489318E+02</pdfrwt>
<totfact> 0.11421118E+05</totfact>
</mgrwt>
</event>
<event>
 4    1  0.3883670E-002  0.5680660E+02  0.7818608E-02  0.1411743E+00
          1   -1    0    0    0  501  0.00000000000E+00  0.00000000000E+00  0.56197584089E+01  0.56197606689E+01  0.50400000000E-02 0. -1.
         -1   -1    0    0  501    0 -0.00000000000E+00 -0.00000000000E+00 -0.14355553206E+03  0.14355553215E+03  0.50400000000E-02 0. -1.
          2    1    1    2    0  502  0.23093486488E+02 -0.16237090710E+02 -0.77186677465E+02  0.82187197406E+02  0.25500000000E-02 0.  1.
         -2    1    1    2  502    0 -0.23093486488E+02  0.16237090710E+02 -0.60749096187E+02  0.66988095412E+02  0.25500000000E-02 0.  1.
<mgrwt>
<rscale>  0 0.56806605E+02</rscale>
<asrwt>0</asrwt>
<pdfrwt beam="1">  1        1 0.86457850E-03 0.56806605E+02</pdfrwt>
<pdfrwt beam="2">  1       -1 0.22085464E-01 0.56806605E+02</pdfrwt>
<totfact> 0.25291248E+05</totfact>
</mgrwt>
</event>
<event>
 4    1  0.3883670E-002  0.5321797E+02  0.7818608E-02  0.1428719E+00
          1   -1    0    0    0  501  0.00000000000E+00  0.00000000000E+00  0.31159446487E+01  0.31159487248E+01  0.50400000000E-02 0.  1.
         -1   -1    0    0  501    0 -0.00000000000E+00 -0.00000000000E+00 -0.22723052024E+03  0.22723052030E+03  0.50400000000E-02 0.  1.
          2    1    1    2    0  502  0.12656520849E+00  0.25232684701E+02 -0.14861431651E+03  0.15074123349E+03  0.25500000000E-02 0. -1.
         -2    1    1    2  502    0 -0.12656520849E+00 -0.25232684701E+02 -0.75500259085E+02  0.79605235533E+02  0.25500000000E-02 0. -1.
<mgrwt>
<rscale>  0 0.53217974E+02</rscale>
<asrwt>0</asrwt>
<pdfrwt beam="1">  1        1 0.47937660E-03 0.53217974E+02</pdfrwt>
<pdfrwt beam="2">  1       -1 0.34958529E-01 0.53217974E+02</pdfrwt>
<totfact> 0.26446810E+05</totfact>
</mgrwt>
</event>
<event>
 4    1  0.3883670E-002  0.1077891E+03  0.7818608E-02  0.1264720E+00
         -1   -1    0    0  501    0 -0.00000000000E+00  0.00000000000E+00  0.56467305745E+01  0.56467328237E+01  0.50400000000E-02 0. -1.
          1   -1    0    0    0  501  0.00000000000E+00 -0.00000000000E+00 -0.51438980377E+03  0.51438980380E+03  0.50400000000E-02 0. -1.
          2    1    1    2    0  502  0.50880340108E+02  0.15976302766E+02 -0.29191961728E+03  0.29675092960E+03  0.25500000000E-02 0. -1.
         -2    1    1    2  502    0 -0.50880340108E+02 -0.15976302766E+02 -0.21682345592E+03  0.22328560702E+03  0.25500000000E-02 0. -1.
<mgrwt>
<rscale>  0 0.10778908E+03</rscale>
<asrwt>0</asrwt>
<pdfrwt beam="2">  1        1 0.79136856E-01 0.10778908E+03</pdfrwt>
<pdfrwt beam="1">  1       -1 0.86872836E-03 0.10778908E+03</pdfrwt>
<totfact> 0.89342899E+04</totfact>
</mgrwt>
</event>
<event>
 4    1  0.3883670E-002  0.5760155E+02  0.7818608E-02  0.1408182E+00
         -1   -1    0    0  501    0 -0.00000000000E+00  0.00000000000E+00  0.20704230835E+01  0.20704292179E+01  0.50400000000E-02 0.  1.
          1   -1    0    0    0  501  0.00000000000E+00 -0.00000000000E+00 -0.40063474606E+03  0.40063474609E+03  0.50400000000E-02 0.  1.
          2    1    1    2    0  502 -0.11493297933E+02  0.19353777431E+02 -0.73669536078E+02  0.77031585410E+02  0.25500000000E-02 0.  1.
         -2    1    1    2  502    0  0.11493297933E+02 -0.19353777431E+02 -0.32489478689E+03  0.32567358990E+03  0.25500000000E-02 0.  1.
<mgrwt>
<rscale>  0 0.57601551E+02</rscale>
<asrwt>0</asrwt>
<pdfrwt beam="2">  1        1 0.61636054E-01 0.57601551E+02</pdfrwt>
<pdfrwt beam="1">  1       -1 0.31852742E-03 0.57601551E+02</pdfrwt>
<totfact> 0.44380618E+05</totfact>
</mgrwt>
</event>
<event>
 4    1  0.3883670E-002  0.4915670E+02  0.7818608E-02  0.1449944E+00
          1   -1    0    0    0  501  0.00000000000E+00  0.00000000000E+00  0.29062878445E+02  0.29062878882E+02  0.50400000000E-02 0. -1.
         -1   -1    0    0  501    0 -0.00000000000E+00 -0.00000000000E+00 -0.20785800461E+02  0.20785801072E+02  0.50400000000E-02 0. -1.
          2    1    1    2    0  502 -0.20528642793E+02 -0.89068452276E+01 -0.61700992208E+01  0.23212651674E+02  0.25500000000E-02 0. -1.
         -2    1    1    2  502    0  0.20528642793E+02  0.89068452276E+01  0.14447177205E+02  0.26636028280E+02  0.25500000000E-02 0. -1.
<mgrwt>
<rscale>  0 0.49156697E+02</rscale>
<asrwt>0</asrwt>
<pdfrwt beam="1">  1        1 0.44712121E-02 0.49156697E+02</pdfrwt>
<pdfrwt beam="2">  1       -1 0.31978156E-02 0.49156697E+02</pdfrwt>
<totfact> 0.46324703E+05</totfact>
</mgrwt>
</event>
<event>
 4    1  0.3883670E-002  0.4255677E+02  0.7818608E-02  0.1490197E+00
         -1   -1    0    0  501    0 -0.00000000000E+00  0.00000000000E+00  0.55463318343E+02  0.55463318572E+02  0.50400000000E-02 0.  1.
          1   -1    0    0    0  501  0.00000000000E+00 -0.00000000000E+00 -0.81634070671E+01  0.81634086229E+01  0.50400000000E-02 0.  1.
          2    1    1    2    0  502  0.80698302220E+01  0.19687387472E+02  0.23301529698E+02  0.31554344837E+02  0.25500000000E-02 0. -1.
         -2    1    1    2  502    0 -0.80698302220E+01 -0.19687387472E+02  0.23998381577E+02  0.32072382358E+02  0.25500000000E-02 0. -1.
<mgrwt>
<rscale>  0 0.42556772E+02</rscale>
<asrwt>0</asrwt>
<pdfrwt beam="2">  1        1 0.12559089E-02 0.42556772E+02</pdfrwt>
<pdfrwt beam="1">  1       -1 0.85328185E-02 0.42556772E+02</pdfrwt>
<totfact> 0.59893123E+05</totfact>
</mgrwt>
</event>
<event>
 4    1  0.3883670E-002  0.8684310E+02  0.7818608E-02  0.1310682E+00
         -1   -1    0    0  501    0 -0.00000000000E+00  0.00000000000E+00  0.23795506817E+02  0.23795507351E+02  0.50400000000E-02 0.  1.
          1   -1    0    0    0  501  0.00000000000E+00 -0.00000000000E+00 -0.79234747779E+02  0.79234747939E+02  0.50400000000E-02 0.  1.
          2    1    1    2    0  502 -0.39118258080E+02  0.48294112810E+01 -0.61067104303E+01  0.39885501718E+02  0.25500000000E-02 0.  1.
         -2    1    1    2  502    0  0.39118258080E+02 -0.48294112810E+01 -0.49332530532E+02  0.63144753572E+02  0.25500000000E-02 0.  1.
<mgrwt>
<rscale>  0 0.86843100E+02</rscale>
<asrwt>0</asrwt>
<pdfrwt beam="2">  1        1 0.12189961E-01 0.86843100E+02</pdfrwt>
<pdfrwt beam="1">  1       -1 0.36608473E-02 0.86843100E+02</pdfrwt>
<totfact> 0.11491835E+05</totfact>
</mgrwt>
</event>
<event>
 4    1  0.3883670E-002  0.9314072E+02  0.7818608E-02  0.1295419E+00
          1   -1    0    0    0  501  0.00000000000E+00  0.00000000000E+00  0.21948528741E+03  0.21948528747E+03  0.50400000000E-02 0.  1.
         -1   -1    0    0  501    0 -0.00000000000E+00 -0.00000000000E+00 -0.98812927202E+01  0.98812940055E+01  0.50400000000E-02 0.  1.
          2    1    1    2    0  502  0.37942377676E+02  0.10993664090E+02  0.16553914496E+03  0.17018722982E+03  0.25500000000E-02 0.  1.
         -2    1    1    2  502    0 -0.37942377676E+02 -0.10993664090E+02  0.44064849734E+02  0.59179351655E+02  0.25500000000E-02 0.  1.
<mgrwt>
<rscale>  0 0.93140722E+02</rscale>
<asrwt>0</asrwt>
<pdfrwt beam="1">  1        1 0.33766970E-01 0.93140722E+02</pdfrwt>
<pdfrwt beam="2">  1       -1 0.15201989E-02 0.93140722E+02</pdfrwt>
<totfact> 0.11386916E+05</totfact>
</mgrwt>
</event>
<event>
 4    1  0.3883670E-002  0.4852595E+02  0.7818608E-02  0.1453458E+00
          1   -1    0    0    0  501  0.00000000000E+00  0.00000000000E+00  0.46717587661E+01  0.46717614847E+01  0.50400000000E-02 0.  1.
         -1   -1    0    0  501    0 -0.00000000000E+00 -0.00000000000E+00 -0.12601075369E+03  0.12601075379E+03  0.50400000000E-02 0.  1.
          2    1    1    2    0  502 -0.16589210650E+02 -0.12497483701E+02 -0.94445786421E+02  0.96702614174E+02  0.25500000000E-02 0. -1.
         -2    1    1    2  502    0  0.16589210650E+02  0.12497483701E+02 -0.26893208507E+02  0.33979901106E+02  0.25500000000E-02 0. -1.
<mgrwt>
<rscale>  0 0.48525953E+02</rscale>
<asrwt>0</asrwt>
<pdfrwt beam="1">  1        1 0.71873243E-03 0.48525953E+02</pdfrwt>
<pdfrwt beam="2">  1       -1 0.19386267E-01 0.48525953E+02</pdfrwt>
<totfact> 0.38443106E+05</totfact>
</mgrwt>
</event>
<event>
 4    1  0.3883670E-002  0.6447495E+02  0.7818608E-02  0.1379957E+00
         -1   -1    0    0  501    0 -0.00000000000E+00  0.00000000000E+00  0.49581967710E+01  0.49581993326E+01  0.50400000000E-02 0.  1.
          1   -1    0    0    0  501  0.00000000000E+00 -0.00000000000E+00 -0.20960333822E+03  0.20960333828E+03  0.50400000000E-02 0.  1.
          2    1    1    2    0  502 -0.19114584340E+02 -0.22979068588E+02 -0.14251219739E+03  0.14561295045E+03  0.25500000000E-02 0.  1.
         -2    1    1    2  502    0  0.19114584340E+02  0.22979068588E+02 -0.62132944057E+02  0.68948587160E+02  0.25500000000E-02 0.  1.
<mgrwt>
<rscale>  0 0.64474953E+02</rscale>
<asrwt>0</asrwt>
<pdfrwt beam="2">  1        1 0.32246661E-01 0.64474953E+02</pdfrwt>
<pdfrwt beam="1">  1       -1 0.76279987E-03 0.64474953E+02</pdfrwt>
<totfact> 0.29705219E+05</totfact>
</mgrwt>
</event>
<event>
 4    1  0.3883670E-002  0.4866884E+02  0.7818608E-02  0.1452657E+00
         -1   -1    0    0  501    0 -0.00000000000E+00  0.00000000000E+00  0.34587615438E+03  0.34587615441E+03  0.50400000000E-02 0. -1.
          1   -1    0    0    0  501  0.00000000000E+00 -0.00000000000E+00 -0.17120655534E+01  0.17120729717E+01  0.50400000000E-02 0. -1.
          2    1    1    2    0  502 -0.22211021562E+02  0.97242839643E+01  0.15731925587E+03  0.15917675537E+03  0.25500000000E-02 0. -1.
         -2    1    1    2  502    0  0.22211021562E+02 -0.97242839643E+01  0.18684483296E+03  0.18841147201E+03  0.25500000000E-02 0. -1.
<mgrwt>
<rscale>  0 0.48668838E+02</rscale>
<asrwt>0</asrwt>
<pdfrwt beam="2">  1        1 0.26339539E-03 0.48668838E+02</pdfrwt>
<pdfrwt beam="1">  1       -1 0.53211693E-01 0.48668838E+02</pdfrwt>
<totfact> 0.28271651E+05</totfact>
</mgrwt>
</event>
<event>
 4    1  0.3883670E-002  0.4394863E+02  0.7818608E-02  0.1481014E+00
         -1   -1    0    0  501    0 -0.00000000000E+00  0.00000000000E+00  0.11135500613E+02  0.11135501753E+02  0.50400000000E-02 0.  1.
          1   -1    0    0    0  501  0.00000000000E+00 -0.00000000000E+00 -0.43363160275E+02  0.43363160568E+02  0.50400000000E-02 0.  1.
          2    1    1    2    0  502  0.52820058573E+01  0.20043828198E+02 -0.70677340593E+01  0.21899943058E+02  0.25500000000E-02 0.  1.
         -2    1    1    2  502    0 -0.52820058573E+01 -0.20043828198E+02 -0.25159925603E+02  0.32598719263E+02  0.25500000000E-02 0.  1.
<mgrwt>
<rscale>  0 0.43948631E+02</rscale>
<asrwt>0</asrwt>
<pdfrwt beam="2">  1        1 0.66712554E-02 0.43948631E+02</pdfrwt>
<pdfrwt beam="1">  1       -1 0.17131541E-02 0.43948631E+02</pdfrwt>
<totfact> 0.63803346E+05</totfact>
</mgrwt>
</event>
<event>
 4    1  0.3883670E-002  0.8565961E+02  0.7818608E-02  0.1313717E+00
         -1   -1    0    0  501    0 -0.00000000000E+00  0.00000000000E+00  0.11362597510E+01  0.11362709286E+01  0.50400000000E-02 0.  1.
          1   -1    0    0    0  501  0.00000000000E+00 -0.00000000000E+00 -0.16144048121E+04  0.16144048121E+04  0.50400000000E-02 0.  1.
          2    1    1    2    0  502 -0.60232320007E+01  0.39162808957E+02 -0.11132978627E+04  0.11140027541E+04  0.25500000000E-02 0. -1.
         -2    1    1    2  502    0  0.60232320007E+01 -0.39162808957E+02 -0.49997068960E+03  0.50153832894E+03  0.25500000000E-02 0. -1.
<mgrwt>
<rscale>  0 0.85659611E+02</rscale>
<asrwt>0</asrwt>
<pdfrwt beam="2">  1        1 0.24836814E+00 0.85659611E+02</pdfrwt>
<pdfrwt beam="1">  1       -1 0.17481134E-03 0.85659611E+02</pdfrwt>
<totfact> 0.12208111E+05</totfact>
</mgrwt>
</event>
<event>
 4    1  0.3883670E-002  0.5214571E+02  0.7818608E-02  0.1434100E+00
         -1   -1    0    0  501    0 -0.00000000000E+00  0.00000000000E+00  0.12623175932E+01  0.12623276547E+01  0.50400000000E-02 0. -1.
          1   -1    0    0    0  501  0.00000000000E+00 -0.00000000000E+00 -0.53852612676E+03  0.53852612678E+03  0.50400000000E-02 0. -1.
          2    1    1    2    0  502 -0.17044206896E+02 -0.19621019898E+02 -0.24715573905E+03  0.24851850789E+03  0.25500000000E-02 0.  1.
         -2    1    1    2  502    0  0.17044206896E+02  0.19621019898E+02 -0.29010807011E+03  0.29126994654E+03  0.25500000000E-02 0.  1.
<mgrwt>
<rscale>  0 0.52145708E+02</rscale>
<asrwt>0</asrwt>
<pdfrwt beam="2">  1        1 0.82849991E-01 0.52145708E+02</pdfrwt>
<pdfrwt beam="1">  1       -1 0.19420391E-03 0.52145708E+02</pdfrwt>
<totfact> 0.59119687E+05</totfact>
</mgrwt>
</event>
<event>
 4    1  0.3883670E-002  0.5283195E+02  0.7818608E-02  0.1430639E+00
          1   -1    0    0    0  501  0.00000000000E+00  0.00000000000E+00  0.10438373790E+02  0.10438375007E+02  0.50400000000E-02 0. -1.
         -1   -1    0    0  501    0 -0.00000000000E+00 -0.00000000000E+00 -0.66849833511E+02  0.66849833701E+02  0.50400000000E-02 0. -1.
          2    1    1    2    0  502 -0.61127694996E+01 -0.25239635029E+02 -0.35282097319E+02  0.43809034743E+02  0.25500000000E-02 0. -1.
         -2    1    1    2  502    0  0.61127694996E+01  0.25239635029E+02 -0.21129362402E+02  0.33479173965E+02  0.25500000000E-02 0. -1.
<mgrwt>
<rscale>  0 0.52831945E+02</rscale>
<asrwt>0</asrwt>
<pdfrwt beam="1">  1        1 0.16059038E-02 0.52831945E+02</pdfrwt>
<pdfrwt beam="2">  1       -1 0.10284590E-01 0.52831945E+02</pdfrwt>
<totfact> 0.34453774E+05</totfact>
</mgrwt>
</event>
<event>
 4    1  0.3883670E-002  0.6692619E+02  0.7818608E-02  0.1370869E+00
         -1   -1    0    0  501    0 -0.00000000000E+00  0.00000000000E+00  0.42681851578E+02  0.42681851876E+02  0.50400000000E-02 0.  1.
          1   -1    0    0    0  501  0.00000000000E+00 -0.00000000000E+00 -0.26235476116E+02  0.26235476601E+02  0.50400000000E-02 0.  1.
          2    1    1    2    0  502  0.17908850932E+02 -0.17496750493E+02  0.31085416667E+02  0.39914488039E+02  0.25500000000E-02 0.  1.
         -2    1    1    2  502    0 -0.17908850932E+02  0.17496750493E+02 -0.14639041206E+02  0.29002840437E+02  0.25500000000E-02 0.  1.
<mgrwt>
<rscale>  0 0.66926190E+02</rscale>
<asrwt>0</asrwt>
<pdfrwt beam="2">  1        1 0.40362272E-02 0.66926190E+02</pdfrwt>
<pdfrwt beam="1">  1       -1 0.65664387E-02 0.66926190E+02</pdfrwt>
<totfact> 0.20211268E+05</totfact>
</mgrwt>
</event>
<event>
 4    1  0.3883670E-002  0.7282155E+02  0.7818608E-02  0.1350753E+00
          1   -1    0    0    0  501  0.00000000000E+00  0.00000000000E+00  0.22569016948E+01  0.22569073224E+01  0.50400000000E-02 0.  1.
         -1   -1    0    0  501    0 -0.00000000000E+00 -0.00000000000E+00 -0.58741726477E+03  0.58741726479E+03  0.50400000000E-02 0.  1.
          2    1    1    2    0  502 -0.32302840437E+02  0.26329971853E+01 -0.42694502108E+03  0.42817339619E+03  0.25500000000E-02 0. -1.
         -2    1    1    2  502    0  0.32302840437E+02 -0.26329971853E+01 -0.15821534199E+03  0.16150077592E+03  0.25500000000E-02 0. -1.
<mgrwt>
<rscale>  0 0.72821554E+02</rscale>
<asrwt>0</asrwt>
<pdfrwt beam="1">  1        1 0.34721655E-03 0.72821554E+02</pdfrwt>
<pdfrwt beam="2">  1       -1 0.90371766E-01 0.72821554E+02</pdfrwt>
<totfact> 0.75815087E+04</totfact>
</mgrwt>
</event>
<event>
 4    1  0.3883670E-002  0.7841483E+02  0.7818608E-02  0.1333611E+00
          1   -1    0    0    0  501  0.00000000000E+00  0.00000000000E+00  0.52769609969E+02  0.52769610210E+02  0.50400000000E-02 0.  1.
         -1   -1    0    0  501    0 -0.00000000000E+00 -0.00000000000E+00 -0.29130804708E+02  0.29130805144E+02  0.50400000000E-02 0.  1.
          2    1    1    2    0  502  0.23232845467E+02 -0.24075922895E+02 -0.95294866551E+01  0.34788306859E+02  0.25500000000E-02 0.  1.
         -2    1    1    2  502    0 -0.23232845467E+02  0.24075922895E+02  0.33168291916E+02  0.47112108495E+02  0.25500000000E-02 0.  1.
<mgrwt>
<rscale>  0 0.78414826E+02</rscale>
<asrwt>0</asrwt>
<pdfrwt beam="1">  1        1 0.81184015E-02 0.78414826E+02</pdfrwt>
<pdfrwt beam="2">  1       -1 0.44816624E-02 0.78414826E+02</pdfrwt>
<totfact> 0.14320699E+05</totfact>
</mgrwt>
</event>
<event>
 4    1  0.3883670E-002  0.4157216E+02  0.7818608E-02  0.1496951E+00
          1   -1    0    0    0  501  0.00000000000E+00  0.00000000000E+00  0.29793151330E+03  0.29793151334E+03  0.50400000000E-02 0. -1.
         -1   -1    0    0  501    0 -0.00000000000E+00 -0.00000000000E+00 -0.14501981239E+01  0.14502068818E+01  0.50400000000E-02 0. -1.
          2    1    1    2    0  502  0.20672448622E+02 -0.13213632130E-01  0.13261038158E+03  0.13421200996E+03  0.25500000000E-02 0. -1.
         -2    1    1    2  502    0 -0.20672448622E+02  0.13213632130E-01  0.16387093359E+03  0.16516971026E+03  0.25500000000E-02 0. -1.
<mgrwt>
<rscale>  0 0.41572156E+02</rscale>
<asrwt>0</asrwt>
<pdfrwt beam="1">  1        1 0.45835695E-01 0.41572156E+02</pdfrwt>
<pdfrwt beam="2">  1       -1 0.22310771E-03 0.41572156E+02</pdfrwt>
<totfact> 0.95038808E+05</totfact>
</mgrwt>
</event>
<event>
 4    1  0.3883670E-002  0.5529846E+02  0.7818608E-02  0.1418693E+00
         -1   -1    0    0  501    0 -0.00000000000E+00  0.00000000000E+00  0.50722719661E+01  0.50722744700E+01  0.50400000000E-02 0.  1.
          1   -1    0    0    0  501  0.00000000000E+00 -0.00000000000E+00 -0.15071740120E+03  0.15071740128E+03  0.50400000000E-02 0.  1.
          2    1    1    2    0  502  0.25292428027E+02  0.76148845416E+01 -0.49799142576E+02  0.56370630562E+02  0.25500000000E-02 0.  1.
         -2    1    1    2  502    0 -0.25292428027E+02 -0.76148845416E+01 -0.95845986656E+02  0.99419045191E+02  0.25500000000E-02 0.  1.
<mgrwt>
<rscale>  0 0.55298458E+02</rscale>
<asrwt>0</asrwt>
<pdfrwt beam="2">  1        1 0.23187289E-01 0.55298458E+02</pdfrwt>
<pdfrwt beam="1">  1       -1 0.78034985E-03 0.55298458E+02</pdfrwt>
<totfact> 0.41571987E+05</totfact>
</mgrwt>
</event>
<event>
 4    1  0.3883670E-002  0.5263248E+02  0.7818608E-02  0.1431639E+00
          1   -1    0    0    0  501  0.00000000000E+00  0.00000000000E+00  0.23779646159E+02  0.23779646693E+02  0.50400000000E-02 0. -1.
         -1   -1    0    0  501    0 -0.00000000000E+00 -0.00000000000E+00 -0.29123412893E+02  0.29123413330E+02  0.50400000000E-02 0. -1.
          2    1    1    2    0  502  0.15568803406E+02  0.19174477619E+02  0.64575546113E+01  0.25529360538E+02  0.25500000000E-02 0.  1.
         -2    1    1    2  502    0 -0.15568803406E+02 -0.19174477619E+02 -0.11801321346E+02  0.27373699484E+02  0.25500000000E-02 0.  1.
<mgrwt>
<rscale>  0 0.52632480E+02</rscale>
<asrwt>0</asrwt>
<pdfrwt beam="1">  1        1 0.36584072E-02 0.52632480E+02</pdfrwt>
<pdfrwt beam="2">  1       -1 0.44805251E-02 0.52632480E+02</pdfrwt>
<totfact> 0.38069551E+05</totfact>
</mgrwt>
</event>
<event>
 4    1  0.3883670E-002  0.4140161E+02  0.7818608E-02  0.1498143E+00
          1   -1    0    0    0  501  0.00000000000E+00  0.00000000000E+00  0.64365199219E+00  0.64367172429E+00  0.50400000000E-02 0. -1.
         -1   -1    0    0  501    0 -0.00000000000E+00 -0.00000000000E+00 -0.66575850605E+03  0.66575850607E+03  0.50400000000E-02 0. -1.
          2    1    1    2    0  502  0.15063823444E+02 -0.14097948320E+02 -0.30537254859E+03  0.30606872490E+03  0.25500000000E-02 0. -1.
         -2    1    1    2  502    0 -0.15063823444E+02  0.14097948320E+02 -0.35974230547E+03  0.36033345289E+03  0.25500000000E-02 0. -1.
<mgrwt>
<rscale>  0 0.41401612E+02</rscale>
<asrwt>0</asrwt>
<pdfrwt beam="1">  1        1 0.99025436E-04 0.41401612E+02</pdfrwt>
<pdfrwt beam="2">  1       -1 0.10242384E+00 0.41401612E+02</pdfrwt>
<totfact> 0.28295039E+05</totfact>
</mgrwt>
</event>
<event>
 4    1  0.3883670E-002  0.9699801E+02  0.7818608E-02  0.1286738E+00
         -1   -1    0    0  501    0 -0.00000000000E+00  0.00000000000E+00  0.15770803458E+01  0.15770883991E+01  0.50400000000E-02 0. -1.
          1   -1    0    0    0  501  0.00000000000E+00 -0.00000000000E+00 -0.14914568731E+04  0.14914568731E+04  0.50400000000E-02 0. -1.
          2    1    1    2    0  502  0.21731439719E+02 -0.83678361634E+01 -0.90105584166E+02  0.93066065022E+02  0.25500000000E-02 0.  1.
         -2    1    1    2  502    0 -0.21731439719E+02  0.83678361634E+01 -0.13997742086E+04  0.13999678965E+04  0.25500000000E-02 0.  1.
<mgrwt>
<rscale>  0 0.96998007E+02</rscale>
<asrwt>0</asrwt>
<pdfrwt beam="2">  1        1 0.22945378E+00 0.96998007E+02</pdfrwt>
<pdfrwt beam="1">  1       -1 0.24262956E-03 0.96998007E+02</pdfrwt>
<totfact> 0.94202741E+04</totfact>
</mgrwt>
</event>
<event>
 4    1  0.3883670E-002  0.4053172E+02  0.7818608E-02  0.1504335E+00
          1   -1    0    0    0  501  0.00000000000E+00  0.00000000000E+00  0.82434051183E+03  0.82434051185E+03  0.50400000000E-02 0.  1.
         -1   -1    0    0  501    0 -0.00000000000E+00 -0.00000000000E+00 -0.49820993700E+00  0.49823542922E+00  0.50400000000E-02 0.  1.
          2    1    1    2    0  502 -0.13933333032E+02 -0.14711873888E+02  0.41920607527E+03  0.41969549742E+03  0.25500000000E-02 0.  1.
         -2    1    1    2  502    0  0.13933333032E+02  0.14711873888E+02  0.40463622662E+03  0.40514324986E+03  0.25500000000E-02 0.  1.
<mgrwt>
<rscale>  0 0.40531724E+02</rscale>
<asrwt>0</asrwt>
<pdfrwt beam="1">  1        1 0.12682109E+00 0.40531724E+02</pdfrwt>
<pdfrwt beam="2">  1       -1 0.76649966E-04 0.40531724E+02</pdfrwt>
<totfact> 0.10991950E+06</totfact>
</mgrwt>
</event>
<event>
 4    1  0.3883670E-002  0.6764331E+02  0.7818608E-02  0.1368296E+00
         -1   -1    0    0  501    0 -0.00000000000E+00  0.00000000000E+00  0.27968402535E+01  0.27968447946E+01  0.50400000000E-02 0.  1.
          1   -1    0    0    0  501  0.00000000000E+00 -0.00000000000E+00 -0.40899848318E+03  0.40899848321E+03  0.50400000000E-02 0.  1.
          2    1    1    2    0  502 -0.16461659709E+02 -0.14647259174E+02 -0.46896325963E+02  0.51814996257E+02  0.25500000000E-02 0. -1.
         -2    1    1    2  502    0  0.16461659709E+02  0.14647259174E+02 -0.35930531696E+03  0.35998033175E+03  0.25500000000E-02 0. -1.
<mgrwt>
<rscale>  0 0.67643310E+02</rscale>
<asrwt>0</asrwt>
<pdfrwt beam="2">  1        1 0.62922797E-01 0.67643310E+02</pdfrwt>
<pdfrwt beam="1">  1       -1 0.43028379E-03 0.67643310E+02</pdfrwt>
<totfact> 0.29546407E+05</totfact>
</mgrwt>
</event>
<event>
 4    1  0.3883670E-002  0.5138575E+02  0.7818608E-02  0.1438007E+00
          1   -1    0    0    0  501  0.00000000000E+00  0.00000000000E+00  0.13614303635E+02  0.13614304568E+02  0.50400000000E-02 0.  1.
         -1   -1    0    0  501    0 -0.00000000000E+00 -0.00000000000E+00 -0.48487521021E+02  0.48487521283E+02  0.50400000000E-02 0.  1.
          2    1    1    2    0  502  0.25056150994E+02  0.34715255697E+01 -0.22876613622E+02  0.34105742181E+02  0.25500000000E-02 0.  1.
         -2    1    1    2  502    0 -0.25056150994E+02 -0.34715255697E+01 -0.11996603764E+02  0.27996083669E+02  0.25500000000E-02 0.  1.
<mgrwt>
<rscale>  0 0.51385752E+02</rscale>
<asrwt>0</asrwt>
<pdfrwt beam="1">  1        1 0.20945084E-02 0.51385752E+02</pdfrwt>
<pdfrwt beam="2">  1       -1 0.74596186E-02 0.51385752E+02</pdfrwt>
<totfact> 0.38344397E+05</totfact>
</mgrwt>
</event>
<event>
 4    1  0.3883670E-002  0.2164645E+03  0.7818608E-02  0.1136547E+00
          1   -1    0    0    0  501  0.00000000000E+00  0.00000000000E+00  0.12704805720E+04  0.12704805720E+04  0.50400000000E-02 0.  1.
         -1   -1    0    0  501    0 -0.00000000000E+00 -0.00000000000E+00 -0.92203029474E+01  0.92203043249E+01  0.50400000000E-02 0.  1.
          2    1    1    2    0  502  0.29848485323E+01 -0.10693083119E+03  0.53329035911E+03  0.54391333786E+03  0.25500000000E-02 0. -1.
         -2    1    1    2  502    0 -0.29848485323E+01  0.10693083119E+03  0.72796990993E+03  0.73578753846E+03  0.25500000000E-02 0. -1.
<mgrwt>
<rscale>  0 0.21646447E+03</rscale>
<asrwt>0</asrwt>
<pdfrwt beam="1">  1        1 0.19545856E+00 0.21646447E+03</pdfrwt>
<pdfrwt beam="2">  1       -1 0.14185081E-02 0.21646447E+03</pdfrwt>
<totfact> 0.11471249E+04</totfact>
</mgrwt>
</event>
<event>
 4    1  0.3883670E-002  0.1194452E+03  0.7818608E-02  0.1244015E+00
          1   -1    0    0    0  501  0.00000000000E+00  0.00000000000E+00  0.94052935175E+03  0.94052935176E+03  0.50400000000E-02 0. -1.
         -1   -1    0    0  501    0 -0.00000000000E+00 -0.00000000000E+00 -0.37923176984E+01  0.37923210475E+01  0.50400000000E-02 0. -1.
          2    1    1    2    0  502  0.37171167308E+02 -0.41996069325E+02  0.30607169303E+03  0.31116755422E+03  0.25500000000E-02 0. -1.
         -2    1    1    2  502    0 -0.37171167308E+02  0.41996069325E+02  0.63066534102E+03  0.63315411859E+03  0.25500000000E-02 0. -1.
<mgrwt>
<rscale>  0 0.11944518E+03</rscale>
<asrwt>0</asrwt>
<pdfrwt beam="1">  1        1 0.14469674E+00 0.11944518E+03</pdfrwt>
<pdfrwt beam="2">  1       -1 0.58343410E-03 0.11944518E+03</pdfrwt>
<totfact> 0.66975343E+04</totfact>
</mgrwt>
</event>
<event>
 4    1  0.3883670E-002  0.5525047E+02  0.7818608E-02  0.1418918E+00
          1   -1    0    0    0  501  0.00000000000E+00  0.00000000000E+00  0.37870414574E+03  0.37870414577E+03  0.50400000000E-02 0. -1.
         -1   -1    0    0  501    0 -0.00000000000E+00 -0.00000000000E+00 -0.20151675706E+01  0.20151738732E+01  0.50400000000E-02 0. -1.
          2    1    1    2    0  502 -0.17883086750E+02 -0.18972674364E+02  0.12542047159E+03  0.12810176370E+03  0.25500000000E-02 0. -1.
         -2    1    1    2  502    0  0.17883086750E+02  0.18972674364E+02  0.25126850658E+03  0.25261755594E+03  0.25500000000E-02 0. -1.
<mgrwt>
<rscale>  0 0.55250467E+02</rscale>
<asrwt>0</asrwt>
<pdfrwt beam="1">  1        1 0.58262224E-01 0.55250467E+02</pdfrwt>
<pdfrwt beam="2">  1       -1 0.31002602E-03 0.55250467E+02</pdfrwt>
<totfact> 0.48868871E+05</totfact>
</mgrwt>
</event>
<event>
 4    1  0.3883670E-002  0.7373000E+02  0.7818608E-02  0.1347850E+00
          1   -1    0    0    0  501  0.00000000000E+00  0.00000000000E+00  0.83528792480E+02  0.83528792632E+02  0.50400000000E-02 0.  1.
         -1   -1    0    0  501    0 -0.00000000000E+00 -0.00000000000E+00 -0.16270174812E+02  0.16270175593E+02  0.50400000000E-02 0.  1.
          2    1    1    2    0  502 -0.10639241296E+02  0.22579783599E+02 -0.30919201373E+01  0.25151541889E+02  0.25500000000E-02 0. -1.
         -2    1    1    2  502    0  0.10639241296E+02 -0.22579783599E+02  0.70350537805E+02  0.74647426337E+02  0.25500000000E-02 0. -1.
<mgrwt>
<rscale>  0 0.73729997E+02</rscale>
<asrwt>0</asrwt>
<pdfrwt beam="1">  1        1 0.12850583E-01 0.73729997E+02</pdfrwt>
<pdfrwt beam="2">  1       -1 0.25031039E-02 0.73729997E+02</pdfrwt>
<totfact> 0.18002424E+05</totfact>
</mgrwt>
</event>
<event>
 4    1  0.3883670E-002  0.4195399E+02  0.7818608E-02  0.1494305E+00
         -1   -1    0    0  501    0 -0.00000000000E+00  0.00000000000E+00  0.27217893622E+03  0.27217893627E+03  0.50400000000E-02 0. -1.
          1   -1    0    0    0  501  0.00000000000E+00 -0.00000000000E+00 -0.16167060042E+01  0.16167138601E+01  0.50400000000E-02 0. -1.
          2    1    1    2    0  502  0.99603021849E+01  0.18133940081E+02  0.15787590794E+03  0.15922578220E+03  0.25500000000E-02 0.  1.
         -2    1    1    2  502    0 -0.99603021849E+01 -0.18133940081E+02  0.11268632228E+03  0.11456986793E+03  0.25500000000E-02 0.  1.
<mgrwt>
<rscale>  0 0.41953994E+02</rscale>
<asrwt>0</asrwt>
<pdfrwt beam="2">  1        1 0.24872438E-03 0.41953994E+02</pdfrwt>
<pdfrwt beam="1">  1       -1 0.41873722E-01 0.41953994E+02</pdfrwt>
<totfact> 0.44741804E+05</totfact>
</mgrwt>
</event>
<event>
 4    1  0.3883670E-002  0.9469894E+02  0.7818608E-02  0.1291856E+00
         -1   -1    0    0  501    0 -0.00000000000E+00  0.00000000000E+00  0.14860690502E+01  0.14860775967E+01  0.50400000000E-02 0.  1.
          1   -1    0    0    0  501  0.00000000000E+00 -0.00000000000E+00 -0.15086551653E+04  0.15086551653E+04  0.50400000000E-02 0.  1.
          2    1    1    2    0  502 -0.41811147761E+02 -0.17709217673E+02 -0.96764195098E+03  0.96870673259E+03  0.25500000000E-02 0. -1.
         -2    1    1    2  502    0  0.41811147761E+02  0.17709217673E+02 -0.53952714529E+03  0.54143451033E+03  0.25500000000E-02 0. -1.
<mgrwt>
<rscale>  0 0.94698938E+02</rscale>
<asrwt>0</asrwt>
<pdfrwt beam="2">  1        1 0.23209957E+00 0.94698938E+02</pdfrwt>
<pdfrwt beam="1">  1       -1 0.22862787E-03 0.94698938E+02</pdfrwt>
<totfact> 0.99470474E+04</totfact>
</mgrwt>
</event>
<event>
 4    1  0.3883670E-002  0.7341332E+02  0.7818608E-02  0.1348856E+00
         -1   -1    0    0  501    0 -0.00000000000E+00  0.00000000000E+00  0.24562381372E+02  0.24562381889E+02  0.50400000000E-02 0.  1.
          1   -1    0    0    0  501  0.00000000000E+00 -0.00000000000E+00 -0.54855384584E+02  0.54855384815E+02  0.50400000000E-02 0.  1.
          2    1    1    2    0  502  0.12885117951E+02 -0.27256976096E+02  0.75042685644E+01  0.31069004871E+02  0.25500000000E-02 0.  1.
         -2    1    1    2  502    0 -0.12885117951E+02  0.27256976096E+02 -0.37797271776E+02  0.48348761833E+02  0.25500000000E-02 0.  1.
<mgrwt>
<rscale>  0 0.73413320E+02</rscale>
<asrwt>0</asrwt>
<pdfrwt beam="2">  1        1 0.84392900E-02 0.73413320E+02</pdfrwt>
<pdfrwt beam="1">  1       -1 0.37788280E-02 0.73413320E+02</pdfrwt>
<totfact> 0.17206549E+05</totfact>
</mgrwt>
</event>
<event>
 4    1  0.3883670E-002  0.4150994E+02  0.7818608E-02  0.1497385E+00
          1   -1    0    0    0  501  0.00000000000E+00  0.00000000000E+00  0.51081570228E+02  0.51081570476E+02  0.50400000000E-02 0. -1.
         -1   -1    0    0  501    0 -0.00000000000E+00 -0.00000000000E+00 -0.84329558481E+01  0.84329573542E+01  0.50400000000E-02 0. -1.
          2    1    1    2    0  502 -0.48726821861E+00 -0.20670108444E+02  0.23920076241E+02  0.31617413988E+02  0.25500000000E-02 0.  1.
         -2    1    1    2  502    0  0.48726821861E+00  0.20670108444E+02  0.18728538139E+02  0.27897113843E+02  0.25500000000E-02 0.  1.
<mgrwt>
<rscale>  0 0.41509935E+02</rscale>
<asrwt>0</asrwt>
<pdfrwt beam="1">  1        1 0.78587031E-02 0.41509935E+02</pdfrwt>
<pdfrwt beam="2">  1       -1 0.12973780E-02 0.41509935E+02</pdfrwt>
<totfact> 0.74680634E+05</totfact>
</mgrwt>
</event>
<event>
 4    1  0.3883670E-002  0.5168576E+02  0.7818608E-02  0.1436455E+00
          1   -1    0    0    0  501  0.00000000000E+00  0.00000000000E+00  0.35453922512E+03  0.35453922515E+03  0.50400000000E-02 0.  1.
         -1   -1    0    0  501    0 -0.00000000000E+00 -0.00000000000E+00 -0.18837219821E+01  0.18837287245E+01  0.50400000000E-02 0.  1.
          2    1    1    2    0  502  0.25175662551E+02 -0.55850374897E+01  0.16469031163E+03  0.16669704671E+03  0.25500000000E-02 0. -1.
         -2    1    1    2  502    0 -0.25175662551E+02  0.55850374897E+01  0.18796519150E+03  0.18972590717E+03  0.25500000000E-02 0. -1.
<mgrwt>
<rscale>  0 0.51685764E+02</rscale>
<asrwt>0</asrwt>
<pdfrwt beam="1">  1        1 0.54544441E-01 0.51685764E+02</pdfrwt>
<pdfrwt beam="2">  1       -1 0.28980420E-03 0.51685764E+02</pdfrwt>
<totfact> 0.57160714E+05</totfact>
</mgrwt>
</event>
<event>
 4    1  0.3883670E-002  0.5795844E+02  0.7818608E-02  0.1406605E+00
          1   -1    0    0    0  501  0.00000000000E+00  0.00000000000E+00  0.71566493567E+02  0.71566493745E+02  0.50400000000E-02 0. -1.
         -1   -1    0    0  501    0 -0.00000000000E+00 -0.00000000000E+00 -0.11734473219E+02  0.11734474301E+02  0.50400000000E-02 0. -1.
          2    1    1    2    0  502  0.14451425862E+02  0.15376778787E+02  0.58462994653E+02  0.62154732608E+02  0.25500000000E-02 0. -1.
         -2    1    1    2  502    0 -0.14451425862E+02 -0.15376778787E+02  0.13690256960E+01  0.21146235438E+02  0.25500000000E-02 0. -1.
<mgrwt>
<rscale>  0 0.57958439E+02</rscale>
<asrwt>0</asrwt>
<pdfrwt beam="1">  1        1 0.11010230E-01 0.57958439E+02</pdfrwt>
<pdfrwt beam="2">  1       -1 0.18053037E-02 0.57958439E+02</pdfrwt>
<totfact> 0.33175515E+05</totfact>
</mgrwt>
</event>
<event>
 4    1  0.3883670E-002  0.1159870E+03  0.7818608E-02  0.1249868E+00
          1   -1    0    0    0  501  0.00000000000E+00  0.00000000000E+00  0.10315022237E+03  0.10315022249E+03  0.50400000000E-02 0. -1.
         -1   -1    0    0  501    0 -0.00000000000E+00 -0.00000000000E+00 -0.32605309666E+02  0.32605310056E+02  0.50400000000E-02 0. -1.
          2    1    1    2    0  502  0.53832141217E+02 -0.19454560409E+02  0.24363774956E+02  0.62209106129E+02  0.25500000000E-02 0.  1.
         -2    1    1    2  502    0 -0.53832141217E+02  0.19454560409E+02  0.46181137744E+02  0.73546426416E+02  0.25500000000E-02 0.  1.
<mgrwt>
<rscale>  0 0.11598698E+03</rscale>
<asrwt>0</asrwt>
<pdfrwt beam="1">  1        1 0.15869265E-01 0.11598698E+03</pdfrwt>
<pdfrwt beam="2">  1       -1 0.50162016E-02 0.11598698E+03</pdfrwt>
<totfact> 0.53915700E+04</totfact>
</mgrwt>
</event>
<event>
 4    1  0.3883670E-002  0.5674216E+02  0.7818608E-02  0.1412035E+00
          1   -1    0    0    0  501  0.00000000000E+00  0.00000000000E+00  0.59826800856E+03  0.59826800858E+03  0.50400000000E-02 0. -1.
         -1   -1    0    0  501    0 -0.00000000000E+00 -0.00000000000E+00 -0.13454093755E+01  0.13454188155E+01  0.50400000000E-02 0. -1.
          2    1    1    2    0  502 -0.15126055664E+02 -0.21057779232E+02  0.17673468632E+03  0.17862636138E+03  0.25500000000E-02 0. -1.
         -2    1    1    2  502    0  0.15126055664E+02  0.21057779232E+02  0.42018791286E+03  0.42098706601E+03  0.25500000000E-02 0. -1.
<mgrwt>
<rscale>  0 0.56742162E+02</rscale>
<asrwt>0</asrwt>
<pdfrwt beam="1">  1        1 0.92041456E-01 0.56742162E+02</pdfrwt>
<pdfrwt beam="2">  1       -1 0.20698628E-03 0.56742162E+02</pdfrwt>
<totfact> 0.48205157E+05</totfact>
</mgrwt>
</event>
<event>
 4    1  0.3883670E-002  0.1207688E+03  0.7818608E-02  0.1241834E+00
          1   -1    0    0    0  501  0.00000000000E+00  0.00000000000E+00  0.13587674233E+03  0.13587674242E+03  0.50400000000E-02 0. -1.
         -1   -1    0    0  501    0 -0.00000000000E+00 -0.00000000000E+00 -0.26835191289E+02  0.26835191762E+02  0.50400000000E-02 0. -1.
          2    1    1    2    0  502 -0.55199664968E+02 -0.21360048511E+02  0.70633483773E+02  0.92153913219E+02  0.25500000000E-02 0. -1.
         -2    1    1    2  502    0  0.55199664968E+02  0.21360048511E+02  0.38408067268E+02  0.70558020967E+02  0.25500000000E-02 0. -1.
<mgrwt>
<rscale>  0 0.12076884E+03</rscale>
<asrwt>0</asrwt>
<pdfrwt beam="1">  1        1 0.20904114E-01 0.12076884E+03</pdfrwt>
<pdfrwt beam="2">  1       -1 0.41284910E-02 0.12076884E+03</pdfrwt>
<totfact> 0.50796575E+04</totfact>
</mgrwt>
</event>
<event>
 4    1  0.3883670E-002  0.5315252E+02  0.7818608E-02  0.1429043E+00
         -1   -1    0    0  501    0 -0.00000000000E+00  0.00000000000E+00  0.11635675983E+01  0.11635785136E+01  0.50400000000E-02 0. -1.
          1   -1    0    0    0  501  0.00000000000E+00 -0.00000000000E+00 -0.60700743580E+03  0.60700743582E+03  0.50400000000E-02 0. -1.
          2    1    1    2    0  502  0.47431876237E+00  0.24608065931E+02 -0.18820734498E+03  0.18980986960E+03  0.25500000000E-02 0.  1.
         -2    1    1    2  502    0 -0.47431876237E+00 -0.24608065931E+02 -0.41763652322E+03  0.41836114473E+03  0.25500000000E-02 0.  1.
<mgrwt>
<rscale>  0 0.53152517E+02</rscale>
<asrwt>0</asrwt>
<pdfrwt beam="2">  1        1 0.93385507E-01 0.53152517E+02</pdfrwt>
<pdfrwt beam="1">  1       -1 0.17901173E-03 0.53152517E+02</pdfrwt>
<totfact> 0.56834196E+05</totfact>
</mgrwt>
</event>
<event>
 4    1  0.3883670E-002  0.4601053E+02  0.7818608E-02  0.1468130E+00
         -1   -1    0    0  501    0 -0.00000000000E+00  0.00000000000E+00  0.63844789428E+01  0.63844809321E+01  0.50400000000E-02 0. -1.
          1   -1    0    0    0  501  0.00000000000E+00 -0.00000000000E+00 -0.82895103388E+02  0.82895103541E+02  0.50400000000E-02 0. -1.
          2    1    1    2    0  502 -0.20583436768E+02  0.64680631141E+01 -0.53745673186E+02  0.57914688140E+02  0.25500000000E-02 0. -1.
         -2    1    1    2  502    0  0.20583436768E+02 -0.64680631141E+01 -0.22764951259E+02  0.31364896333E+02  0.25500000000E-02 0. -1.
<mgrwt>
<rscale>  0 0.46010527E+02</rscale>
<asrwt>0</asrwt>
<pdfrwt beam="2">  1        1 0.12753092E-01 0.46010527E+02</pdfrwt>
<pdfrwt beam="1">  1       -1 0.98222775E-03 0.46010527E+02</pdfrwt>
<totfact> 0.60767258E+05</totfact>
</mgrwt>
</event>
<event>
 4    1  0.3883670E-002  0.5196657E+02  0.7818608E-02  0.1435014E+00
          1   -1    0    0    0  501  0.00000000000E+00  0.00000000000E+00  0.24383490898E+02  0.24383491419E+02  0.50400000000E-02 0.  1.
         -1   -1    0    0  501    0 -0.00000000000E+00 -0.00000000000E+00 -0.27688041989E+02  0.27688042448E+02  0.50400000000E-02 0.  1.
          2    1    1    2    0  502  0.23357761372E+02  0.10741163445E+02  0.21201034871E+01  0.25796365127E+02  0.25500000000E-02 0.  1.
         -2    1    1    2  502    0 -0.23357761372E+02 -0.10741163445E+02 -0.54246545787E+01  0.26275168739E+02  0.25500000000E-02 0.  1.
<mgrwt>
<rscale>  0 0.51966572E+02</rscale>
<asrwt>0</asrwt>
<pdfrwt beam="1">  1        1 0.37513064E-02 0.51966572E+02</pdfrwt>
<pdfrwt beam="2">  1       -1 0.42596988E-02 0.51966572E+02</pdfrwt>
<totfact> 0.39458743E+05</totfact>
</mgrwt>
</event>
<event>
 4    1  0.3883670E-002  0.4073095E+02  0.7818608E-02  0.1502900E+00
         -1   -1    0    0  501    0 -0.00000000000E+00  0.00000000000E+00  0.30666844055E+02  0.30666844469E+02  0.50400000000E-02 0. -1.
          1   -1    0    0    0  501  0.00000000000E+00 -0.00000000000E+00 -0.13524459229E+02  0.13524460168E+02  0.50400000000E-02 0. -1.
          2    1    1    2    0  502 -0.80691031074E+01  0.18570430940E+02  0.61988375866E+01  0.21175384865E+02  0.25500000000E-02 0. -1.
         -2    1    1    2  502    0  0.80691031074E+01 -0.18570430940E+02  0.10943547239E+02  0.23015919772E+02  0.25500000000E-02 0. -1.
<mgrwt>
<rscale>  0 0.40730947E+02</rscale>
<asrwt>0</asrwt>
<pdfrwt beam="2">  1        1 0.20806861E-02 0.40730947E+02</pdfrwt>
<pdfrwt beam="1">  1       -1 0.47179761E-02 0.40730947E+02</pdfrwt>
<totfact> 0.70483961E+05</totfact>
</mgrwt>
</event>
<event>
 4    1  0.3883670E-002  0.5692070E+02  0.7818608E-02  0.1411228E+00
          1   -1    0    0    0  501  0.00000000000E+00  0.00000000000E+00  0.47723819725E+03  0.47723819728E+03  0.50400000000E-02 0. -1.
         -1   -1    0    0  501    0 -0.00000000000E+00 -0.00000000000E+00 -0.16972441787E+01  0.16972516619E+01  0.50400000000E-02 0. -1.
          2    1    1    2    0  502 -0.25494537174E+02  0.10636200640E+02  0.29538780677E+03  0.29667668696E+03  0.25500000000E-02 0. -1.
         -2    1    1    2  502    0  0.25494537174E+02 -0.10636200640E+02  0.18015314630E+03  0.18225876198E+03  0.25500000000E-02 0. -1.
<mgrwt>
<rscale>  0 0.56920701E+02</rscale>
<asrwt>0</asrwt>
<pdfrwt beam="1">  1        1 0.73421276E-01 0.56920701E+02</pdfrwt>
<pdfrwt beam="2">  1       -1 0.26111502E-03 0.56920701E+02</pdfrwt>
<totfact> 0.46854776E+05</totfact>
</mgrwt>
</event>
<event>
 4    1  0.3883670E-002  0.7826196E+02  0.7818608E-02  0.1334057E+00
         -1   -1    0    0  501    0 -0.00000000000E+00  0.00000000000E+00  0.22543999730E+01  0.22544056067E+01  0.50400000000E-02 0. -1.
          1   -1    0    0    0  501  0.00000000000E+00 -0.00000000000E+00 -0.67921910051E+03  0.67921910053E+03  0.50400000000E-02 0. -1.
          2    1    1    2    0  502  0.28986788821E+01 -0.38593600721E+02 -0.38877961846E+03  0.39070124148E+03  0.25500000000E-02 0. -1.
         -2    1    1    2  502    0 -0.28986788821E+01  0.38593600721E+02 -0.28818508207E+03  0.29077226465E+03  0.25500000000E-02 0. -1.
<mgrwt>
<rscale>  0 0.78261956E+02</rscale>
<asrwt>0</asrwt>
<pdfrwt beam="2">  1        1 0.10449508E+00 0.78261956E+02</pdfrwt>
<pdfrwt beam="1">  1       -1 0.34683174E-03 0.78261956E+02</pdfrwt>
<totfact> 0.21231817E+05</totfact>
</mgrwt>
</event>
<event>
 4    1  0.3883670E-002  0.4912693E+02  0.7818608E-02  0.1450108E+00
          1   -1    0    0    0  501  0.00000000000E+00  0.00000000000E+00  0.15887749218E+03  0.15887749226E+03  0.50400000000E-02 0. -1.
         -1   -1    0    0  501    0 -0.00000000000E+00 -0.00000000000E+00 -0.37976646426E+01  0.37976679869E+01  0.50400000000E-02 0. -1.
          2    1    1    2    0  502 -0.20560703669E+02  0.40243378091E+01  0.12000057337E+03  0.12181574384E+03  0.25500000000E-02 0. -1.
         -2    1    1    2  502    0  0.20560703669E+02 -0.40243378091E+01  0.35079254167E+02  0.40859416413E+02  0.25500000000E-02 0. -1.
<mgrwt>
<rscale>  0 0.49126926E+02</rscale>
<asrwt>0</asrwt>
<pdfrwt beam="1">  1        1 0.24442689E-01 0.49126926E+02</pdfrwt>
<pdfrwt beam="2">  1       -1 0.58425642E-03 0.49126926E+02</pdfrwt>
<totfact> 0.56519060E+05</totfact>
</mgrwt>
</event>
<event>
 4    1  0.3883670E-002  0.5544998E+02  0.7818608E-02  0.1417983E+00
          1   -1    0    0    0  501  0.00000000000E+00  0.00000000000E+00  0.22981651635E+02  0.22981652188E+02  0.50400000000E-02 0. -1.
         -1   -1    0    0  501    0 -0.00000000000E+00 -0.00000000000E+00 -0.33447342403E+02  0.33447342783E+02  0.50400000000E-02 0. -1.
          2    1    1    2    0  502  0.32404141113E+01  0.25992085946E+02  0.40153093849E+01  0.26499274167E+02  0.25500000000E-02 0. -1.
         -2    1    1    2  502    0 -0.32404141113E+01 -0.25992085946E+02 -0.14481000153E+02  0.29929720803E+02  0.25500000000E-02 0. -1.
<mgrwt>
<rscale>  0 0.55449985E+02</rscale>
<asrwt>0</asrwt>
<pdfrwt beam="1">  1        1 0.35356388E-02 0.55449985E+02</pdfrwt>
<pdfrwt beam="2">  1       -1 0.51457450E-02 0.55449985E+02</pdfrwt>
<totfact> 0.33054312E+05</totfact>
</mgrwt>
</event>
<event>
 4    1  0.3883670E-002  0.4183250E+02  0.7818608E-02  0.1495144E+00
          1   -1    0    0    0  501  0.00000000000E+00  0.00000000000E+00  0.20720736554E+03  0.20720736561E+03  0.50400000000E-02 0.  1.
         -1   -1    0    0  501    0 -0.00000000000E+00 -0.00000000000E+00 -0.21113573609E+01  0.21113633764E+01  0.50400000000E-02 0.  1.
          2    1    1    2    0  502  0.16845911200E+02  0.12397469657E+02  0.10211617559E+03  0.10423624755E+03  0.25500000000E-02 0. -1.
         -2    1    1    2  502    0 -0.16845911200E+02 -0.12397469657E+02  0.10297983259E+03  0.10508248144E+03  0.25500000000E-02 0. -1.
<mgrwt>
<rscale>  0 0.41832496E+02</rscale>
<asrwt>0</asrwt>
<pdfrwt beam="1">  1        1 0.31878048E-01 0.41832496E+02</pdfrwt>
<pdfrwt beam="2">  1       -1 0.32482476E-03 0.41832496E+02</pdfrwt>
<totfact> 0.87945776E+05</totfact>
</mgrwt>
</event>
<event>
 4    1  0.3883670E-002  0.4633473E+02  0.7818608E-02  0.1466177E+00
         -1   -1    0    0  501    0 -0.00000000000E+00  0.00000000000E+00  0.11113611320E+01  0.11113725601E+01  0.50400000000E-02 0. -1.
          1   -1    0    0    0  501  0.00000000000E+00 -0.00000000000E+00 -0.48294294996E+03  0.48294294999E+03  0.50400000000E-02 0. -1.
          2    1    1    2    0  502 -0.46303232105E+01 -0.19885879118E+02 -0.35527892288E+03  0.35586514459E+03  0.25500000000E-02 0.  1.
         -2    1    1    2  502    0  0.46303232105E+01  0.19885879118E+02 -0.12655266595E+03  0.12818917796E+03  0.25500000000E-02 0.  1.
<mgrwt>
<rscale>  0 0.46334730E+02</rscale>
<asrwt>0</asrwt>
<pdfrwt beam="2">  1        1 0.74298749E-01 0.46334730E+02</pdfrwt>
<pdfrwt beam="1">  1       -1 0.17097990E-03 0.46334730E+02</pdfrwt>
<totfact> 0.78351145E+05</totfact>
</mgrwt>
</event>
<event>
 4    1  0.3883670E-002  0.5234959E+02  0.7818608E-02  0.1433065E+00
          1   -1    0    0    0  501  0.00000000000E+00  0.00000000000E+00  0.16580811885E+02  0.16580812651E+02  0.50400000000E-02 0.  1.
         -1   -1    0    0  501    0 -0.00000000000E+00 -0.00000000000E+00 -0.41320049019E+02  0.41320049326E+02  0.50400000000E-02 0.  1.
          2    1    1    2    0  502 -0.11153052274E+02 -0.23133345571E+02 -0.17963364422E+02  0.31340464581E+02  0.25500000000E-02 0. -1.
         -2    1    1    2  502    0  0.11153052274E+02  0.23133345571E+02 -0.67758727115E+01  0.26560397396E+02  0.25500000000E-02 0. -1.
<mgrwt>
<rscale>  0 0.52349594E+02</rscale>
<asrwt>0</asrwt>
<pdfrwt beam="1">  1        1 0.25508942E-02 0.52349594E+02</pdfrwt>
<pdfrwt beam="2">  1       -1 0.63569307E-02 0.52349594E+02</pdfrwt>
<totfact> 0.37262744E+05</totfact>
</mgrwt>
</event>
<event>
 4    1  0.3883670E-002  0.1086669E+03  0.7818608E-02  0.1263059E+00
          1   -1    0    0    0  501  0.00000000000E+00  0.00000000000E+00  0.21581552478E+03  0.21581552484E+03  0.50400000000E-02 0. -1.
         -1   -1    0    0  501    0 -0.00000000000E+00 -0.00000000000E+00 -0.13678932472E+02  0.13678933400E+02  0.50400000000E-02 0. -1.
          2    1    1    2    0  502  0.25191127249E+02 -0.44592988778E+02  0.62761859857E+02  0.81007274979E+02  0.25500000000E-02 0.  1.
         -2    1    1    2  502    0 -0.25191127249E+02  0.44592988778E+02  0.13937473245E+03  0.14848718326E+03  0.25500000000E-02 0.  1.
<mgrwt>
<rscale>  0 0.10866694E+03</rscale>
<asrwt>0</asrwt>
<pdfrwt beam="1">  1        1 0.33202385E-01 0.10866694E+03</pdfrwt>
<pdfrwt beam="2">  1       -1 0.21044515E-02 0.10866694E+03</pdfrwt>
<totfact> 0.74756254E+04</totfact>
</mgrwt>
</event>
<event>
 4    1  0.3883670E-002  0.4492778E+02  0.7818608E-02  0.1474793E+00
          1   -1    0    0    0  501  0.00000000000E+00  0.00000000000E+00  0.77248129114E+01  0.77248145555E+01  0.50400000000E-02 0.  1.
         -1   -1    0    0  501    0 -0.00000000000E+00 -0.00000000000E+00 -0.65325362888E+02  0.65325363082E+02  0.50400000000E-02 0.  1.
          2    1    1    2    0  502 -0.10652820638E+02 -0.18973334025E+02 -0.19724596116E+02  0.29368855784E+02  0.25500000000E-02 0. -1.
         -2    1    1    2  502    0  0.10652820638E+02  0.18973334025E+02 -0.37875953860E+02  0.43681321854E+02  0.25500000000E-02 0. -1.
<mgrwt>
<rscale>  0 0.44927776E+02</rscale>
<asrwt>0</asrwt>
<pdfrwt beam="1">  1        1 0.11884329E-02 0.44927776E+02</pdfrwt>
<pdfrwt beam="2">  1       -1 0.10050056E-01 0.44927776E+02</pdfrwt>
<totfact> 0.51475846E+05</totfact>
</mgrwt>
</event>
<event>
 4    1  0.3883670E-002  0.4023504E+02  0.7818608E-02  0.1506489E+00
         -1   -1    0    0  501    0 -0.00000000000E+00  0.00000000000E+00  0.83392799597E+00  0.83394322592E+00  0.50400000000E-02 0. -1.
          1   -1    0    0    0  501  0.00000000000E+00 -0.00000000000E+00 -0.48530682038E+03  0.48530682040E+03  0.50400000000E-02 0. -1.
          2    1    1    2    0  502 -0.82382854121E+01  0.18344690320E+02 -0.23542682799E+03  0.23628412632E+03  0.25500000000E-02 0.  1.
         -2    1    1    2  502    0  0.82382854121E+01 -0.18344690320E+02 -0.24904606439E+03  0.24985663731E+03  0.25500000000E-02 0.  1.
<mgrwt>
<rscale>  0 0.40235042E+02</rscale>
<asrwt>0</asrwt>
<pdfrwt beam="2">  1        1 0.74662363E-01 0.40235042E+02</pdfrwt>
<pdfrwt beam="1">  1       -1 0.12829818E-03 0.40235042E+02</pdfrwt>
<totfact> 0.11061642E+06</totfact>
</mgrwt>
</event>
<event>
 4    1  0.3883670E-002  0.4712368E+02  0.7818608E-02  0.1461503E+00
          1   -1    0    0    0  501  0.00000000000E+00  0.00000000000E+00  0.72607993861E+00  0.72609743069E+00  0.50400000000E-02 0.  1.
         -1   -1    0    0  501    0 -0.00000000000E+00 -0.00000000000E+00 -0.76459009350E+03  0.76459009351E+03  0.50400000000E-02 0.  1.
          2    1    1    2    0  502  0.22956866129E+02 -0.34036895839E+01 -0.44801626447E+03  0.44861695916E+03  0.25500000000E-02 0.  1.
         -2    1    1    2  502    0 -0.22956866129E+02  0.34036895839E+01 -0.31584774909E+03  0.31669923179E+03  0.25500000000E-02 0.  1.
<mgrwt>
<rscale>  0 0.47123677E+02</rscale>
<asrwt>0</asrwt>
<pdfrwt beam="1">  1        1 0.11170656E-03 0.47123677E+02</pdfrwt>
<pdfrwt beam="2">  1       -1 0.11762860E+00 0.47123677E+02</pdfrwt>
<totfact> 0.18309851E+05</totfact>
</mgrwt>
</event>
<event>
 4    1  0.3883670E-002  0.4758114E+02  0.7818608E-02  0.1458843E+00
          1   -1    0    0    0  501  0.00000000000E+00  0.00000000000E+00  0.15722432409E+04  0.15722432409E+04  0.50400000000E-02 0. -1.
         -1   -1    0    0  501    0 -0.00000000000E+00 -0.00000000000E+00 -0.35997199252E+00  0.36000727354E+00  0.50400000000E-02 0. -1.
          2    1    1    2    0  502 -0.20459102027E+02  0.10729895493E+02  0.59814413167E+03  0.59859009996E+03  0.25500000000E-02 0.  1.
         -2    1    1    2  502    0  0.20459102027E+02 -0.10729895493E+02  0.97373913725E+03  0.97401314823E+03  0.25500000000E-02 0.  1.
<mgrwt>
<rscale>  0 0.47581142E+02</rscale>
<asrwt>0</asrwt>
<pdfrwt beam="1">  1        1 0.24188929E+00 0.47581142E+02</pdfrwt>
<pdfrwt beam="2">  1       -1 0.55381714E-04 0.47581142E+02</pdfrwt>
<totfact> 0.56311424E+05</totfact>
</mgrwt>
</event>
<event>
 4    1  0.3883670E-002  0.4593488E+02  0.7818608E-02  0.1468588E+00
         -1   -1    0    0  501    0 -0.00000000000E+00  0.00000000000E+00  0.64772298513E+02  0.64772298709E+02  0.50400000000E-02 0.  1.
          1   -1    0    0    0  501  0.00000000000E+00 -0.00000000000E+00 -0.81439629053E+01  0.81439644649E+01  0.50400000000E-02 0.  1.
          2    1    1    2    0  502 -0.21317796103E+02  0.81106992074E+01  0.24033709198E+02  0.33133835525E+02  0.25500000000E-02 0. -1.
         -2    1    1    2  502    0  0.21317796103E+02 -0.81106992074E+01  0.32594626410E+02  0.39782427649E+02  0.25500000000E-02 0. -1.
<mgrwt>
<rscale>  0 0.45934878E+02</rscale>
<asrwt>0</asrwt>
<pdfrwt beam="2">  1        1 0.12529175E-02 0.45934878E+02</pdfrwt>
<pdfrwt beam="1">  1       -1 0.99649688E-02 0.45934878E+02</pdfrwt>
<totfact> 0.48811594E+05</totfact>
</mgrwt>
</event>
<event>
 4    1  0.3883670E-002  0.4192910E+02  0.7818608E-02  0.1494477E+00
          1   -1    0    0    0  501  0.00000000000E+00  0.00000000000E+00  0.17286123734E+04  0.17286123734E+04  0.50400000000E-02 0.  1.
         -1   -1    0    0  501    0 -0.00000000000E+00 -0.00000000000E+00 -0.25423238404E+00  0.25428233658E+00  0.50400000000E-02 0.  1.
          2    1    1    2    0  502  0.17803552786E+02 -0.10867759201E+02  0.95104050831E+03  0.95126921696E+03  0.25500000000E-02 0. -1.
         -2    1    1    2  502    0 -0.17803552786E+02  0.10867759201E+02  0.77731763275E+03  0.77759743883E+03  0.25500000000E-02 0. -1.
<mgrwt>
<rscale>  0 0.41929104E+02</rscale>
<asrwt>0</asrwt>
<pdfrwt beam="1">  1        1 0.26593898E+00 0.41929104E+02</pdfrwt>
<pdfrwt beam="2">  1       -1 0.39116722E-04 0.41929104E+02</pdfrwt>
<totfact> 0.70123578E+05</totfact>
</mgrwt>
</event>
<event>
 4    1  0.3883670E-002  0.4624745E+02  0.7818608E-02  0.1466701E+00
         -1   -1    0    0  501    0 -0.00000000000E+00  0.00000000000E+00  0.72117633955E+02  0.72117634131E+02  0.50400000000E-02 0.  1.
          1   -1    0    0    0  501  0.00000000000E+00 -0.00000000000E+00 -0.74143678179E+01  0.74143695309E+01  0.50400000000E-02 0.  1.
          2    1    1    2    0  502  0.42637566708E+01 -0.21340305702E+02  0.45795998750E+02  0.50703666302E+02  0.25500000000E-02 0.  1.
         -2    1    1    2  502    0 -0.42637566708E+01  0.21340305702E+02  0.18907267387E+02  0.28828337360E+02  0.25500000000E-02 0.  1.
<mgrwt>
<rscale>  0 0.46247454E+02</rscale>
<asrwt>0</asrwt>
<pdfrwt beam="2">  1        1 0.11406721E-02 0.46247454E+02</pdfrwt>
<pdfrwt beam="1">  1       -1 0.11095021E-01 0.46247454E+02</pdfrwt>
<totfact> 0.47347273E+05</totfact>
</mgrwt>
</event>
<event>
 4    1  0.3883670E-002  0.4199310E+02  0.7818608E-02  0.1494036E+00
          1   -1    0    0    0  501  0.00000000000E+00  0.00000000000E+00  0.24682983554E+03  0.24682983559E+03  0.50400000000E-02 0. -1.
         -1   -1    0    0  501    0 -0.00000000000E+00 -0.00000000000E+00 -0.17860649933E+01  0.17860721043E+01  0.50400000000E-02 0. -1.
          2    1    1    2    0  502  0.13907520956E+01 -0.20663765225E+02  0.14297052715E+03  0.14446278769E+03  0.25500000000E-02 0. -1.
         -2    1    1    2  502    0 -0.13907520956E+01  0.20663765225E+02  0.10207324339E+03  0.10415312001E+03  0.25500000000E-02 0. -1.
<mgrwt>
<rscale>  0 0.41993096E+02</rscale>
<asrwt>0</asrwt>
<pdfrwt beam="1">  1        1 0.37973826E-01 0.41993096E+02</pdfrwt>
<pdfrwt beam="2">  1       -1 0.27477975E-03 0.41993096E+02</pdfrwt>
<totfact> 0.89771084E+05</totfact>
</mgrwt>
</event>
<event>
 4    1  0.3883670E-002  0.1181357E+03  0.7818608E-02  0.1246205E+00
          1   -1    0    0    0  501  0.00000000000E+00  0.00000000000E+00  0.83938535135E+01  0.83938550266E+01  0.50400000000E-02 0. -1.
         -1   -1    0    0  501    0 -0.00000000000E+00 -0.00000000000E+00 -0.41566267534E+03  0.41566267537E+03  0.50400000000E-02 0. -1.
          2    1    1    2    0  502 -0.39954851923E+02 -0.35938908599E+02 -0.29163503675E+03  0.29654508934E+03  0.25500000000E-02 0. -1.
         -2    1    1    2  502    0  0.39954851923E+02  0.35938908599E+02 -0.11563378508E+03  0.12751144106E+03  0.25500000000E-02 0. -1.
<mgrwt>
<rscale>  0 0.11813572E+03</rscale>
<asrwt>0</asrwt>
<pdfrwt beam="1">  1        1 0.12913625E-02 0.11813572E+03</pdfrwt>
<pdfrwt beam="2">  1       -1 0.63948088E-01 0.11813572E+03</pdfrwt>
<totfact> 0.26334574E+04</totfact>
</mgrwt>
</event>
<event>
 4    1  0.3883670E-002  0.4379034E+02  0.7818608E-02  0.1482038E+00
         -1   -1    0    0  501    0 -0.00000000000E+00  0.00000000000E+00  0.19267869666E+03  0.19267869673E+03  0.50400000000E-02 0.  1.
          1   -1    0    0    0  501  0.00000000000E+00 -0.00000000000E+00 -0.24880692730E+01  0.24880743777E+01  0.50400000000E-02 0.  1.
          2    1    1    2    0  502  0.21707785544E+02 -0.28420669432E+01  0.96455528508E+02  0.98908919133E+02  0.25500000000E-02 0. -1.
         -2    1    1    2  502    0 -0.21707785544E+02  0.28420669432E+01  0.93735098884E+02  0.96257851976E+02  0.25500000000E-02 0. -1.
<mgrwt>
<rscale>  0 0.43790339E+02</rscale>
<asrwt>0</asrwt>
<pdfrwt beam="2">  1        1 0.38278021E-03 0.43790339E+02</pdfrwt>
<pdfrwt beam="1">  1       -1 0.29642882E-01 0.43790339E+02</pdfrwt>
<totfact> 0.44881809E+05</totfact>
</mgrwt>
</event>
<event>
 4    1  0.3883670E-002  0.1673856E+03  0.7818608E-02  0.1180602E+00
          1   -1    0    0    0  501  0.00000000000E+00  0.00000000000E+00  0.25397273306E+03  0.25397273311E+03  0.50400000000E-02 0.  1.
         -1   -1    0    0  501    0 -0.00000000000E+00 -0.00000000000E+00 -0.27579668024E+02  0.27579668485E+02  0.50400000000E-02 0.  1.
          2    1    1    2    0  502  0.65336558812E+02  0.33839079317E+02  0.46113494109E+02  0.86835497073E+02  0.25500000000E-02 0.  1.
         -2    1    1    2  502    0 -0.65336558812E+02 -0.33839079317E+02  0.18027957092E+03  0.19471690452E+03  0.25500000000E-02 0.  1.
<mgrwt>
<rscale>  0 0.16738559E+03</rscale>
<asrwt>0</asrwt>
<pdfrwt beam="1">  1        1 0.39072727E-01 0.16738559E+03</pdfrwt>
<pdfrwt beam="2">  1       -1 0.42430260E-02 0.16738559E+03</pdfrwt>
<totfact> 0.23130475E+04</totfact>
</mgrwt>
</event>
<event>
 4    1  0.3883670E-002  0.1124584E+03  0.7818608E-02  0.1256084E+00
          1   -1    0    0    0  501  0.00000000000E+00  0.00000000000E+00  0.66645295032E+03  0.66645295034E+03  0.50400000000E-02 0. -1.
         -1   -1    0    0  501    0 -0.00000000000E+00 -0.00000000000E+00 -0.47441075114E+01  0.47441101886E+01  0.50400000000E-02 0. -1.
          2    1    1    2    0  502  0.14679474287E+02 -0.54279226969E+02  0.33048168497E+03  0.33523106293E+03  0.25500000000E-02 0.  1.
         -2    1    1    2  502    0 -0.14679474287E+02  0.54279226969E+02  0.33122715784E+03  0.33596599760E+03  0.25500000000E-02 0.  1.
<mgrwt>
<rscale>  0 0.11245844E+03</rscale>
<asrwt>0</asrwt>
<pdfrwt beam="1">  1        1 0.10253117E+00 0.11245844E+03</pdfrwt>
<pdfrwt beam="2">  1       -1 0.72986328E-03 0.11245844E+03</pdfrwt>
<totfact> 0.81151176E+04</totfact>
</mgrwt>
</event>
<event>
 4    1  0.3883670E-002  0.5957422E+02  0.7818608E-02  0.1399627E+00
          1   -1    0    0    0  501  0.00000000000E+00  0.00000000000E+00  0.13873289420E+03  0.13873289429E+03  0.50400000000E-02 0.  1.
         -1   -1    0    0  501    0 -0.00000000000E+00 -0.00000000000E+00 -0.63955397703E+01  0.63955417562E+01  0.50400000000E-02 0.  1.
          2    1    1    2    0  502  0.55227348783E+01  0.20887547248E+02  0.11612237987E+03  0.11811518676E+03  0.25500000000E-02 0. -1.
         -2    1    1    2  502    0 -0.55227348783E+01 -0.20887547248E+02  0.16214974563E+02  0.27013249290E+02  0.25500000000E-02 0. -1.
<mgrwt>
<rscale>  0 0.59574219E+02</rscale>
<asrwt>0</asrwt>
<pdfrwt beam="1">  1        1 0.21343521E-01 0.59574219E+02</pdfrwt>
<pdfrwt beam="2">  1       -1 0.98392944E-03 0.59574219E+02</pdfrwt>
<totfact> 0.33913711E+05</totfact>
</mgrwt>
</event>
<event>
 4    1  0.3883670E-002  0.5221805E+02  0.7818608E-02  0.1433732E+00
          1   -1    0    0    0  501  0.00000000000E+00  0.00000000000E+00  0.34369292008E+02  0.34369292377E+02  0.50400000000E-02 0.  1.
         -1   -1    0    0  501    0 -0.00000000000E+00 -0.00000000000E+00 -0.19834019590E+02  0.19834020230E+02  0.50400000000E-02 0.  1.
          2    1    1    2    0  502 -0.59514156736E+01  0.25363720703E+02  0.90485433382E+01  0.27579228043E+02  0.25500000000E-02 0. -1.
         -2    1    1    2  502    0  0.59514156736E+01 -0.25363720703E+02  0.54867290799E+01  0.26624084565E+02  0.25500000000E-02 0. -1.
<mgrwt>
<rscale>  0 0.52218052E+02</rscale>
<asrwt>0</asrwt>
<pdfrwt beam="1">  1        1 0.52875834E-02 0.52218052E+02</pdfrwt>
<pdfrwt beam="2">  1       -1 0.30513877E-02 0.52218052E+02</pdfrwt>
<totfact> 0.40231118E+05</totfact>
</mgrwt>
</event>
