<event>
 4    1  0.1537855E-002  0.4244417E+02  0.7818608E-02  0.1490958E+00
          3   -1    0    0    0  501  0.00000000000E+00  0.00000000000E+00  0.34167315153E+02  0.34167464433E+02  0.10100000000E+00 0.  1.
         -3   -1    0    0  501    0 -0.00000000000E+00 -0.00000000000E+00 -0.13181141902E+02  0.13181528851E+02  0.10100000000E+00 0.  1.
          2    1    1    2    0  502  0.21198241029E+02  0.35881687560E+00  0.94449679818E+01  0.23209946122E+02  0.25500000000E-02 0. -1.
         -2    1    1    2  502    0 -0.21198241029E+02 -0.35881687560E+00  0.11541205269E+02  0.24139047161E+02  0.25500000000E-02 0. -1.
<mgrwt>
<rscale>  0 0.42444172E+02</rscale>
<asrwt>0</asrwt>
<pdfrwt beam="1">  1        3 0.52565513E-02 0.42444172E+02</pdfrwt>
<pdfrwt beam="2">  1       -3 0.20279092E-02 0.42444172E+02</pdfrwt>
<totfact> 0.28663753E+05</totfact>
</mgrwt>
</event>
<event>
 4    1  0.1537855E-002  0.6671078E+02  0.7818608E-02  0.1371649E+00
          3   -1    0    0    0  501  0.00000000000E+00  0.00000000000E+00  0.17073532267E+03  0.17073535254E+03  0.10100000000E+00 0. -1.
         -3   -1    0    0  501    0 -0.00000000000E+00 -0.00000000000E+00 -0.65159919053E+01  0.65167746247E+01  0.10100000000E+00 0. -1.
          2    1    1    2    0  502 -0.14255381094E+02 -0.30011169160E+02  0.89944879558E+02  0.95885178884E+02  0.25500000000E-02 0. -1.
         -2    1    1    2  502    0  0.14255381094E+02  0.30011169160E+02  0.74274451203E+02  0.81366948280E+02  0.25500000000E-02 0. -1.
<mgrwt>
<rscale>  0 0.66710779E+02</rscale>
<asrwt>0</asrwt>
<pdfrwt beam="1">  1        3 0.26267035E-01 0.66710779E+02</pdfrwt>
<pdfrwt beam="2">  1       -3 0.10025228E-02 0.66710779E+02</pdfrwt>
<totfact> 0.67984071E+04</totfact>
</mgrwt>
</event>
<event>
 4    1  0.1537855E-002  0.5146739E+02  0.7818608E-02  0.1437584E+00
          3   -1    0    0    0  501  0.00000000000E+00  0.00000000000E+00  0.40553335546E+00  0.41792140695E+00  0.10100000000E+00 0.  1.
         -3   -1    0    0  501    0 -0.00000000000E+00 -0.00000000000E+00 -0.16083891439E+04  0.16083891470E+04  0.10100000000E+00 0.  1.
          2    1    1    2    0  502 -0.24994090518E+02 -0.53746485207E+01 -0.71215517685E+03  0.71261391183E+03  0.25500000000E-02 0. -1.
         -2    1    1    2  502    0  0.24994090518E+02  0.53746485207E+01 -0.89582843366E+03  0.89619315661E+03  0.25500000000E-02 0. -1.
<mgrwt>
<rscale>  0 0.51467386E+02</rscale>
<asrwt>0</asrwt>
<pdfrwt beam="1">  1        3 0.63344206E-04 0.51467386E+02</pdfrwt>
<pdfrwt beam="2">  1       -3 0.24744041E+00 0.51467386E+02</pdfrwt>
<totfact> 0.23898636E+04</totfact>
</mgrwt>
</event>
<event>
 4    1  0.1537855E-002  0.6229748E+02  0.7818608E-02  0.1388436E+00
         -3   -1    0    0  501    0 -0.00000000000E+00  0.00000000000E+00  0.50671097744E+01  0.50681162640E+01  0.10100000000E+00 0.  1.
          3   -1    0    0    0  501  0.00000000000E+00 -0.00000000000E+00 -0.19145876720E+03  0.19145879384E+03  0.10100000000E+00 0.  1.
          2    1    1    2    0  502  0.47976123366E+01 -0.28460924265E+02 -0.13014740964E+03  0.13330937528E+03  0.25500000000E-02 0. -1.
         -2    1    1    2  502    0 -0.47976123366E+01  0.28460924265E+02 -0.56244247782E+02  0.63217534824E+02  0.25500000000E-02 0. -1.
<mgrwt>
<rscale>  0 0.62297483E+02</rscale>
<asrwt>0</asrwt>
<pdfrwt beam="2">  1        3 0.29455269E-01 0.62297483E+02</pdfrwt>
<pdfrwt beam="1">  1       -3 0.77963497E-03 0.62297483E+02</pdfrwt>
<totfact> 0.78218653E+04</totfact>
</mgrwt>
</event>
<event>
 4    1  0.1537855E-002  0.1063938E+03  0.7818608E-02  0.1267398E+00
          3   -1    0    0    0  501  0.00000000000E+00  0.00000000000E+00  0.59196356833E+02  0.59196442995E+02  0.10100000000E+00 0.  1.
         -3   -1    0    0  501    0 -0.00000000000E+00 -0.00000000000E+00 -0.47805317320E+02  0.47805424014E+02  0.10100000000E+00 0.  1.
          2    1    1    2    0  502 -0.37732409433E+02  0.19630634647E+02 -0.26437265284E+02  0.50080191098E+02  0.25500000000E-02 0. -1.
         -2    1    1    2  502    0  0.37732409433E+02 -0.19630634647E+02  0.37828304796E+02  0.56921675911E+02  0.25500000000E-02 0. -1.
<mgrwt>
<rscale>  0 0.10639381E+03</rscale>
<asrwt>0</asrwt>
<pdfrwt beam="1">  1        3 0.91071466E-02 0.10639381E+03</pdfrwt>
<pdfrwt beam="2">  1       -3 0.73546791E-02 0.10639381E+03</pdfrwt>
<totfact> 0.22355825E+04</totfact>
</mgrwt>
</event>
<event>
 4    1  0.1537855E-002  0.5766392E+02  0.7818608E-02  0.1407905E+00
          3   -1    0    0    0  501  0.00000000000E+00  0.00000000000E+00  0.55816150250E+01  0.55825287538E+01  0.10100000000E+00 0. -1.
         -3   -1    0    0  501    0 -0.00000000000E+00 -0.00000000000E+00 -0.14891901307E+03  0.14891904732E+03  0.10100000000E+00 0. -1.
          2    1    1    2    0  502  0.11671447687E+02 -0.25363005550E+02 -0.90948279086E+02  0.95137238854E+02  0.25500000000E-02 0.  1.
         -2    1    1    2  502    0 -0.11671447687E+02  0.25363005550E+02 -0.52389118957E+02  0.59364337217E+02  0.25500000000E-02 0.  1.
<mgrwt>
<rscale>  0 0.57663917E+02</rscale>
<asrwt>0</asrwt>
<pdfrwt beam="1">  1        3 0.85878304E-03 0.57663917E+02</pdfrwt>
<pdfrwt beam="2">  1       -3 0.22910687E-01 0.57663917E+02</pdfrwt>
<totfact> 0.10346742E+05</totfact>
</mgrwt>
</event>
<event>
 4    1  0.1537855E-002  0.6929299E+02  0.7818608E-02  0.1362514E+00
         -3   -1    0    0  501    0 -0.00000000000E+00  0.00000000000E+00  0.40007122137E+01  0.40019869086E+01  0.10100000000E+00 0. -1.
          3   -1    0    0    0  501  0.00000000000E+00 -0.00000000000E+00 -0.29999242782E+03  0.29999244482E+03  0.10100000000E+00 0. -1.
          2    1    1    2    0  502  0.25990125153E+02 -0.16191644027E+02 -0.76886626643E+02  0.82759949884E+02  0.25500000000E-02 0.  1.
         -2    1    1    2  502    0 -0.25990125153E+02  0.16191644027E+02 -0.21910508896E+03  0.22123448184E+03  0.25500000000E-02 0.  1.
<mgrwt>
<rscale>  0 0.69292993E+02</rscale>
<asrwt>0</asrwt>
<pdfrwt beam="2">  1        3 0.46152763E-01 0.69292993E+02</pdfrwt>
<pdfrwt beam="1">  1       -3 0.61559378E-03 0.69292993E+02</pdfrwt>
<totfact> 0.49252005E+04</totfact>
</mgrwt>
</event>
<event>
 4    1  0.1537855E-002  0.4536544E+02  0.7818608E-02  0.1472073E+00
          3   -1    0    0    0  501  0.00000000000E+00  0.00000000000E+00  0.38838133007E+02  0.38838264334E+02  0.10100000000E+00 0. -1.
         -3   -1    0    0  501    0 -0.00000000000E+00 -0.00000000000E+00 -0.13247094153E+02  0.13247479175E+02  0.10100000000E+00 0. -1.
          2    1    1    2    0  502 -0.18758459191E+02  0.12056712978E+02  0.17565711050E+02  0.28386587154E+02  0.25500000000E-02 0.  1.
         -2    1    1    2  502    0  0.18758459191E+02 -0.12056712978E+02  0.80253278038E+01  0.23699156355E+02  0.25500000000E-02 0.  1.
<mgrwt>
<rscale>  0 0.45365443E+02</rscale>
<asrwt>0</asrwt>
<pdfrwt beam="1">  1        3 0.59751371E-02 0.45365443E+02</pdfrwt>
<pdfrwt beam="2">  1       -3 0.20380542E-02 0.45365443E+02</pdfrwt>
<totfact> 0.23988804E+05</totfact>
</mgrwt>
</event>
<event>
 4    1  0.1537855E-002  0.5578775E+02  0.7818608E-02  0.1416410E+00
          3   -1    0    0    0  501  0.00000000000E+00  0.00000000000E+00  0.33958521494E+03  0.33958522996E+03  0.10100000000E+00 0.  1.
         -3   -1    0    0  501    0 -0.00000000000E+00 -0.00000000000E+00 -0.22901028772E+01  0.22923289877E+01  0.10100000000E+00 0.  1.
          2    1    1    2    0  502 -0.18476357108E+02 -0.18355163754E+02  0.10743305671E+03  0.11054478500E+03  0.25500000000E-02 0. -1.
         -2    1    1    2  502    0  0.18476357108E+02  0.18355163754E+02  0.22986205535E+03  0.23133277396E+03  0.25500000000E-02 0. -1.
<mgrwt>
<rscale>  0 0.55787747E+02</rscale>
<asrwt>0</asrwt>
<pdfrwt beam="1">  1        3 0.52244059E-01 0.55787747E+02</pdfrwt>
<pdfrwt beam="2">  1       -3 0.35249587E-03 0.55787747E+02</pdfrwt>
<totfact> 0.80666713E+04</totfact>
</mgrwt>
</event>
<event>
 4    1  0.1537855E-002  0.1365407E+03  0.7818608E-02  0.1218061E+00
         -3   -1    0    0  501    0 -0.00000000000E+00  0.00000000000E+00  0.53851908603E+03  0.53851909550E+03  0.10100000000E+00 0.  1.
          3   -1    0    0    0  501  0.00000000000E+00 -0.00000000000E+00 -0.86546167515E+01  0.86552060701E+01  0.10100000000E+00 0.  1.
          2    1    1    2    0  502 -0.58641186442E+02 -0.23152413685E+01  0.12514943121E+03  0.13822636951E+03  0.25500000000E-02 0. -1.
         -2    1    1    2  502    0  0.58641186442E+02  0.23152413685E+01  0.40471503807E+03  0.40894793206E+03  0.25500000000E-02 0. -1.
<mgrwt>
<rscale>  0 0.13654069E+03</rscale>
<asrwt>0</asrwt>
<pdfrwt beam="2">  1        3 0.13315260E-02 0.13654069E+03</pdfrwt>
<pdfrwt beam="1">  1       -3 0.82849107E-01 0.13654069E+03</pdfrwt>
<totfact> 0.55823577E+03</totfact>
</mgrwt>
</event>
<event>
 4    1  0.1537855E-002  0.4196862E+02  0.7818608E-02  0.1494205E+00
          3   -1    0    0    0  501  0.00000000000E+00  0.00000000000E+00  0.97204466962E+00  0.97727777000E+00  0.10100000000E+00 0. -1.
         -3   -1    0    0  501    0 -0.00000000000E+00 -0.00000000000E+00 -0.45178389769E+03  0.45178390898E+03  0.10100000000E+00 0. -1.
          2    1    1    2    0  502 -0.14423924193E+02  0.14835743037E+02 -0.18773636618E+03  0.18887321688E+03  0.25500000000E-02 0.  1.
         -2    1    1    2  502    0  0.14423924193E+02 -0.14835743037E+02 -0.26307548684E+03  0.26388796987E+03  0.25500000000E-02 0.  1.
<mgrwt>
<rscale>  0 0.41968624E+02</rscale>
<asrwt>0</asrwt>
<pdfrwt beam="1">  1        3 0.14994911E-03 0.41968624E+02</pdfrwt>
<pdfrwt beam="2">  1       -3 0.69505451E-01 0.41968624E+02</pdfrwt>
<totfact> 0.13776209E+05</totfact>
</mgrwt>
</event>
<event>
 4    1  0.1537855E-002  0.4092797E+02  0.7818608E-02  0.1501492E+00
         -3   -1    0    0  501    0 -0.00000000000E+00  0.00000000000E+00  0.71603920333E+01  0.71611043192E+01  0.10100000000E+00 0.  1.
          3   -1    0    0    0  501  0.00000000000E+00 -0.00000000000E+00 -0.58481219291E+02  0.58481306507E+02  0.10100000000E+00 0.  1.
          2    1    1    2    0  502 -0.20219335597E+02 -0.14700407205E+01 -0.30137470953E+02  0.36321477306E+02  0.25500000000E-02 0.  1.
         -2    1    1    2  502    0  0.20219335597E+02  0.14700407205E+01 -0.21183356304E+02  0.29320933520E+02  0.25500000000E-02 0.  1.
<mgrwt>
<rscale>  0 0.40927971E+02</rscale>
<asrwt>0</asrwt>
<pdfrwt beam="2">  1        3 0.89971719E-02 0.40927971E+02</pdfrwt>
<pdfrwt beam="1">  1       -3 0.11016603E-02 0.40927971E+02</pdfrwt>
<totfact> 0.29825925E+05</totfact>
</mgrwt>
</event>
<event>
 4    1  0.1537855E-002  0.5529392E+02  0.7818608E-02  0.1418714E+00
          3   -1    0    0    0  501  0.00000000000E+00  0.00000000000E+00  0.15796239731E+03  0.15796242960E+03  0.10100000000E+00 0. -1.
         -3   -1    0    0  501    0 -0.00000000000E+00 -0.00000000000E+00 -0.48382778061E+01  0.48393318887E+01  0.10100000000E+00 0. -1.
          2    1    1    2    0  502  0.23366703456E+02  0.62318098718E+01  0.11601082596E+03  0.11850464139E+03  0.25500000000E-02 0.  1.
         -2    1    1    2  502    0 -0.23366703456E+02 -0.62318098718E+01  0.37113293541E+02  0.44297120094E+02  0.25500000000E-02 0.  1.
<mgrwt>
<rscale>  0 0.55293920E+02</rscale>
<asrwt>0</asrwt>
<pdfrwt beam="1">  1        3 0.24301989E-01 0.55293920E+02</pdfrwt>
<pdfrwt beam="2">  1       -3 0.74443406E-03 0.55293920E+02</pdfrwt>
<totfact> 0.11319673E+05</totfact>
</mgrwt>
</event>
<event>
 4    1  0.1537855E-002  0.4387965E+02  0.7818608E-02  0.1481459E+00
          3   -1    0    0    0  501  0.00000000000E+00  0.00000000000E+00  0.17409224759E+02  0.17409517733E+02  0.10100000000E+00 0. -1.
         -3   -1    0    0  501    0 -0.00000000000E+00 -0.00000000000E+00 -0.27648857518E+02  0.27649041992E+02  0.10100000000E+00 0. -1.
          2    1    1    2    0  502 -0.20167345374E+02  0.20127302250E+01  0.35072724921E+01  0.20568759545E+02  0.25500000000E-02 0.  1.
         -2    1    1    2  502    0  0.20167345374E+02 -0.20127302250E+01 -0.13746905251E+02  0.24489800180E+02  0.25500000000E-02 0.  1.
<mgrwt>
<rscale>  0 0.43879650E+02</rscale>
<asrwt>0</asrwt>
<pdfrwt beam="1">  1        3 0.26783790E-02 0.43879650E+02</pdfrwt>
<pdfrwt beam="2">  1       -3 0.42537071E-02 0.43879650E+02</pdfrwt>
<totfact> 0.26570547E+05</totfact>
</mgrwt>
</event>
<event>
 4    1  0.1537855E-002  0.6313614E+02  0.7818608E-02  0.1385123E+00
         -3   -1    0    0  501    0 -0.00000000000E+00  0.00000000000E+00  0.25408869968E+02  0.25409070704E+02  0.10100000000E+00 0. -1.
          3   -1    0    0    0  501  0.00000000000E+00 -0.00000000000E+00 -0.39219866562E+02  0.39219996611E+02  0.10100000000E+00 0. -1.
          2    1    1    2    0  502 -0.25456207129E+02  0.30616613242E+01  0.11946019946E+02  0.28286032782E+02  0.25500000000E-02 0. -1.
         -2    1    1    2  502    0  0.25456207129E+02 -0.30616613242E+01 -0.25757016541E+02  0.36343034533E+02  0.25500000000E-02 0. -1.
<mgrwt>
<rscale>  0 0.63136144E+02</rscale>
<asrwt>0</asrwt>
<pdfrwt beam="2">  1        3 0.60338511E-02 0.63136144E+02</pdfrwt>
<pdfrwt beam="1">  1       -3 0.39090823E-02 0.63136144E+02</pdfrwt>
<totfact> 0.10007034E+05</totfact>
</mgrwt>
</event>
<event>
 4    1  0.1537855E-002  0.4369972E+02  0.7818608E-02  0.1482626E+00
          3   -1    0    0    0  501  0.00000000000E+00  0.00000000000E+00  0.22559043468E+03  0.22559045729E+03  0.10100000000E+00 0.  1.
         -3   -1    0    0  501    0 -0.00000000000E+00 -0.00000000000E+00 -0.21150693066E+01  0.21174794384E+01  0.10100000000E+00 0.  1.
          2    1    1    2    0  502 -0.17267947781E+02  0.10910250732E+02  0.71307976901E+02  0.74175758627E+02  0.25500000000E-02 0. -1.
         -2    1    1    2  502    0  0.17267947781E+02 -0.10910250732E+02  0.15216738848E+03  0.15353217810E+03  0.25500000000E-02 0. -1.
<mgrwt>
<rscale>  0 0.43699720E+02</rscale>
<asrwt>0</asrwt>
<pdfrwt beam="1">  1        3 0.34706390E-01 0.43699720E+02</pdfrwt>
<pdfrwt beam="2">  1       -3 0.32558258E-03 0.43699720E+02</pdfrwt>
<totfact> 0.17953091E+05</totfact>
</mgrwt>
</event>
<event>
 4    1  0.1537855E-002  0.5745466E+02  0.7818608E-02  0.1408835E+00
         -3   -1    0    0  501    0 -0.00000000000E+00  0.00000000000E+00  0.36458548982E+02  0.36458688881E+02  0.10100000000E+00 0. -1.
          3   -1    0    0    0  501  0.00000000000E+00 -0.00000000000E+00 -0.22635262177E+02  0.22635487510E+02  0.10100000000E+00 0. -1.
          2    1    1    2    0  502  0.21012081409E+01  0.25712744825E+02  0.19909473936E+02  0.32587535669E+02  0.25500000000E-02 0.  1.
         -2    1    1    2  502    0 -0.21012081409E+01 -0.25712744825E+02 -0.60861871311E+01  0.26506640722E+02  0.25500000000E-02 0.  1.
<mgrwt>
<rscale>  0 0.57454664E+02</rscale>
<asrwt>0</asrwt>
<pdfrwt beam="2">  1        3 0.34823761E-02 0.57454664E+02</pdfrwt>
<pdfrwt beam="1">  1       -3 0.56090357E-02 0.57454664E+02</pdfrwt>
<totfact> 0.12950557E+05</totfact>
</mgrwt>
</event>
<event>
 4    1  0.1537855E-002  0.8234951E+02  0.7818608E-02  0.1322513E+00
         -3   -1    0    0  501    0 -0.00000000000E+00  0.00000000000E+00  0.42064740567E+01  0.42076864177E+01  0.10100000000E+00 0. -1.
          3   -1    0    0    0  501  0.00000000000E+00 -0.00000000000E+00 -0.40297666386E+03  0.40297667651E+03  0.10100000000E+00 0. -1.
          2    1    1    2    0  502  0.30500989726E+02  0.23962344065E+02 -0.26769488798E+03  0.27049040161E+03  0.25500000000E-02 0. -1.
         -2    1    1    2  502    0 -0.30500989726E+02 -0.23962344065E+02 -0.13107530182E+03  0.13669396132E+03  0.25500000000E-02 0. -1.
<mgrwt>
<rscale>  0 0.82349506E+02</rscale>
<asrwt>0</asrwt>
<pdfrwt beam="2">  1        3 0.61996474E-01 0.82349506E+02</pdfrwt>
<pdfrwt beam="1">  1       -3 0.64724440E-03 0.82349506E+02</pdfrwt>
<totfact> 0.26735750E+04</totfact>
</mgrwt>
</event>
<event>
 4    1  0.1537855E-002  0.5366029E+02  0.7818608E-02  0.1426543E+00
         -3   -1    0    0  501    0 -0.00000000000E+00  0.00000000000E+00  0.15229710309E+03  0.15229713658E+03  0.10100000000E+00 0. -1.
          3   -1    0    0    0  501  0.00000000000E+00 -0.00000000000E+00 -0.47260865015E+01  0.47271656011E+01  0.10100000000E+00 0. -1.
          2    1    1    2    0  502  0.24213518649E+02 -0.10933025420E+02  0.84746748593E+02  0.88813495224E+02  0.25500000000E-02 0.  1.
         -2    1    1    2  502    0 -0.24213518649E+02  0.10933025420E+02  0.62824267994E+02  0.68210806957E+02  0.25500000000E-02 0.  1.
<mgrwt>
<rscale>  0 0.53660288E+02</rscale>
<asrwt>0</asrwt>
<pdfrwt beam="2">  1        3 0.72717595E-03 0.53660288E+02</pdfrwt>
<pdfrwt beam="1">  1       -3 0.23430405E-01 0.53660288E+02</pdfrwt>
<totfact> 0.12356408E+05</totfact>
</mgrwt>
</event>
<event>
 4    1  0.1537855E-002  0.4156241E+02  0.7818608E-02  0.1497019E+00
         -3   -1    0    0  501    0 -0.00000000000E+00  0.00000000000E+00  0.14901130903E+02  0.14901473188E+02  0.10100000000E+00 0. -1.
          3   -1    0    0    0  501  0.00000000000E+00 -0.00000000000E+00 -0.28980831659E+02  0.28981007654E+02  0.10100000000E+00 0. -1.
          2    1    1    2    0  502  0.13895862361E+02 -0.15362046568E+02 -0.87974252938E+01  0.22505158604E+02  0.25500000000E-02 0. -1.
         -2    1    1    2  502    0 -0.13895862361E+02  0.15362046568E+02 -0.52822754624E+01  0.21377322238E+02  0.25500000000E-02 0. -1.
<mgrwt>
<rscale>  0 0.41562413E+02</rscale>
<asrwt>0</asrwt>
<pdfrwt beam="2">  1        3 0.44586294E-02 0.41562413E+02</pdfrwt>
<pdfrwt beam="1">  1       -3 0.22925215E-02 0.41562413E+02</pdfrwt>
<totfact> 0.30477678E+05</totfact>
</mgrwt>
</event>
<event>
 4    1  0.1537855E-002  0.1191182E+03  0.7818608E-02  0.1244559E+00
         -3   -1    0    0  501    0 -0.00000000000E+00  0.00000000000E+00  0.77584511908E+02  0.77584577650E+02  0.10100000000E+00 0.  1.
          3   -1    0    0    0  501  0.00000000000E+00 -0.00000000000E+00 -0.45721459339E+02  0.45721570895E+02  0.10100000000E+00 0.  1.
          2    1    1    2    0  502  0.47441745729E+02  0.32152569361E+02  0.32711974380E+02  0.65989243280E+02  0.25500000000E-02 0. -1.
         -2    1    1    2  502    0 -0.47441745729E+02 -0.32152569361E+02 -0.84892181026E+00  0.57316905264E+02  0.25500000000E-02 0. -1.
<mgrwt>
<rscale>  0 0.11911823E+03</rscale>
<asrwt>0</asrwt>
<pdfrwt beam="2">  1        3 0.70340844E-02 0.11911823E+03</pdfrwt>
<pdfrwt beam="1">  1       -3 0.11936092E-01 0.11911823E+03</pdfrwt>
<totfact> 0.15784237E+04</totfact>
</mgrwt>
</event>
<event>
 4    1  0.1537855E-002  0.4870230E+02  0.7818608E-02  0.1452469E+00
          3   -1    0    0    0  501  0.00000000000E+00  0.00000000000E+00  0.17048072196E+01  0.17077964328E+01  0.10100000000E+00 0.  1.
         -3   -1    0    0  501    0 -0.00000000000E+00 -0.00000000000E+00 -0.34751967983E+03  0.34751969451E+03  0.10100000000E+00 0.  1.
          2    1    1    2    0  502  0.13463029323E+02  0.20234599048E+02 -0.18375010856E+03  0.18535046415E+03  0.25500000000E-02 0.  1.
         -2    1    1    2  502    0 -0.13463029323E+02 -0.20234599048E+02 -0.16206476405E+03  0.16387702679E+03  0.25500000000E-02 0.  1.
<mgrwt>
<rscale>  0 0.48702303E+02</rscale>
<asrwt>0</asrwt>
<pdfrwt beam="1">  1        3 0.26250938E-03 0.48702303E+02</pdfrwt>
<pdfrwt beam="2">  1       -3 0.53464741E-01 0.48702303E+02</pdfrwt>
<totfact> 0.11187412E+05</totfact>
</mgrwt>
</event>
<event>
 4    1  0.1537855E-002  0.4220925E+02  0.7818608E-02  0.1492556E+00
         -3   -1    0    0  501    0 -0.00000000000E+00  0.00000000000E+00  0.16178453264E+01  0.16209949106E+01  0.10100000000E+00 0. -1.
          3   -1    0    0    0  501  0.00000000000E+00 -0.00000000000E+00 -0.27503682411E+03  0.27503684266E+03  0.10100000000E+00 0. -1.
          2    1    1    2    0  502  0.48378118797E+00  0.20957751823E+02 -0.15268923782E+03  0.15412159082E+03  0.25500000000E-02 0. -1.
         -2    1    1    2  502    0 -0.48378118797E+00 -0.20957751823E+02 -0.12072974097E+03  0.12253624674E+03  0.25500000000E-02 0. -1.
<mgrwt>
<rscale>  0 0.42209254E+02</rscale>
<asrwt>0</asrwt>
<pdfrwt beam="2">  1        3 0.42313564E-01 0.42209254E+02</pdfrwt>
<pdfrwt beam="1">  1       -3 0.24914320E-03 0.42209254E+02</pdfrwt>
<totfact> 0.17911552E+05</totfact>
</mgrwt>
</event>
<event>
 4    1  0.1537855E-002  0.4554764E+02  0.7818608E-02  0.1470952E+00
          3   -1    0    0    0  501  0.00000000000E+00  0.00000000000E+00  0.58155860445E+01  0.58164630181E+01  0.10100000000E+00 0. -1.
         -3   -1    0    0  501    0 -0.00000000000E+00 -0.00000000000E+00 -0.89174582810E+02  0.89174640007E+02  0.10100000000E+00 0. -1.
          2    1    1    2    0  502  0.85902957296E+01 -0.19727958774E+02 -0.26120068498E+02  0.33841446822E+02  0.25500000000E-02 0.  1.
         -2    1    1    2  502    0 -0.85902957296E+01  0.19727958774E+02 -0.57238928267E+02  0.61149656204E+02  0.25500000000E-02 0.  1.
<mgrwt>
<rscale>  0 0.45547638E+02</rscale>
<asrwt>0</asrwt>
<pdfrwt beam="1">  1        3 0.89477747E-03 0.45547638E+02</pdfrwt>
<pdfrwt beam="2">  1       -3 0.13719237E-01 0.45547638E+02</pdfrwt>
<totfact> 0.21315714E+05</totfact>
</mgrwt>
</event>
<event>
 4    1  0.1537855E-002  0.6254749E+02  0.7818608E-02  0.1387442E+00
          3   -1    0    0    0  501  0.00000000000E+00  0.00000000000E+00  0.27871040446E+01  0.27889334799E+01  0.10100000000E+00 0. -1.
         -3   -1    0    0  501    0 -0.00000000000E+00 -0.00000000000E+00 -0.35080181218E+03  0.35080182672E+03  0.10100000000E+00 0. -1.
          2    1    1    2    0  502  0.84084101779E+01 -0.28310758999E+02 -0.11584664398E+03  0.11955185220E+03  0.25500000000E-02 0. -1.
         -2    1    1    2  502    0 -0.84084101779E+01  0.28310758999E+02 -0.23216806416E+03  0.23403890800E+03  0.25500000000E-02 0. -1.
<mgrwt>
<rscale>  0 0.62547491E+02</rscale>
<asrwt>0</asrwt>
<pdfrwt beam="1">  1        3 0.42892736E-03 0.62547491E+02</pdfrwt>
<pdfrwt beam="2">  1       -3 0.53969616E-01 0.62547491E+02</pdfrwt>
<totfact> 0.59226130E+04</totfact>
</mgrwt>
</event>
<event>
 4    1  0.1537855E-002  0.5991212E+02  0.7818608E-02  0.1398201E+00
          3   -1    0    0    0  501  0.00000000000E+00  0.00000000000E+00  0.60099998824E+01  0.60108484914E+01  0.10100000000E+00 0.  1.
         -3   -1    0    0  501    0 -0.00000000000E+00 -0.00000000000E+00 -0.14930066747E+03  0.14930070164E+03  0.10100000000E+00 0.  1.
          2    1    1    2    0  502  0.16142419315E+02 -0.14027123848E+02 -0.12602406112E+03  0.12782566993E+03  0.25500000000E-02 0.  1.
         -2    1    1    2  502    0 -0.16142419315E+02  0.14027123848E+02 -0.17266606468E+02  0.27485880197E+02  0.25500000000E-02 0.  1.
<mgrwt>
<rscale>  0 0.59912121E+02</rscale>
<asrwt>0</asrwt>
<pdfrwt beam="1">  1        3 0.92468338E-03 0.59912121E+02</pdfrwt>
<pdfrwt beam="2">  1       -3 0.22969399E-01 0.59912121E+02</pdfrwt>
<totfact> 0.93682526E+04</totfact>
</mgrwt>
</event>
<event>
 4    1  0.1537855E-002  0.1221292E+03  0.7818608E-02  0.1239625E+00
         -3   -1    0    0  501    0 -0.00000000000E+00  0.00000000000E+00  0.41837554118E+02  0.41837676030E+02  0.10100000000E+00 0. -1.
          3   -1    0    0    0  501  0.00000000000E+00 -0.00000000000E+00 -0.89127403181E+02  0.89127460408E+02  0.10100000000E+00 0. -1.
          2    1    1    2    0  502 -0.14371879025E+02  0.59135992478E+02 -0.18254541031E+02  0.63536169131E+02  0.25500000000E-02 0.  1.
         -2    1    1    2  502    0  0.14371879025E+02 -0.59135992478E+02 -0.29035308032E+02  0.67428967307E+02  0.25500000000E-02 0.  1.
<mgrwt>
<rscale>  0 0.12212918E+03</rscale>
<asrwt>0</asrwt>
<pdfrwt beam="2">  1        3 0.13711922E-01 0.12212918E+03</pdfrwt>
<pdfrwt beam="1">  1       -3 0.64365606E-02 0.12212918E+03</pdfrwt>
<totfact> 0.14496615E+04</totfact>
</mgrwt>
</event>
<event>
 4    1  0.1537855E-002  0.4789106E+02  0.7818608E-02  0.1457060E+00
          3   -1    0    0    0  501  0.00000000000E+00  0.00000000000E+00  0.89346413097E+01  0.89352121594E+01  0.10100000000E+00 0. -1.
         -3   -1    0    0  501    0 -0.00000000000E+00 -0.00000000000E+00 -0.64173223792E+02  0.64173303273E+02  0.10100000000E+00 0. -1.
          2    1    1    2    0  502 -0.11108326630E+02 -0.20804399431E+02 -0.21293635875E+02  0.31774783893E+02  0.25500000000E-02 0. -1.
         -2    1    1    2  502    0  0.11108326630E+02  0.20804399431E+02 -0.33944946608E+02  0.41333731539E+02  0.25500000000E-02 0. -1.
<mgrwt>
<rscale>  0 0.47891064E+02</rscale>
<asrwt>0</asrwt>
<pdfrwt beam="1">  1        3 0.13746103E-02 0.47891064E+02</pdfrwt>
<pdfrwt beam="2">  1       -3 0.98728534E-02 0.47891064E+02</pdfrwt>
<totfact> 0.19840922E+05</totfact>
</mgrwt>
</event>
<event>
 4    1  0.1537855E-002  0.8927919E+02  0.7818608E-02  0.1304607E+00
         -3   -1    0    0  501    0 -0.00000000000E+00  0.00000000000E+00  0.50922241935E+01  0.50932257202E+01  0.10100000000E+00 0. -1.
          3   -1    0    0    0  501  0.00000000000E+00 -0.00000000000E+00 -0.39128131540E+03  0.39128132844E+03  0.10100000000E+00 0. -1.
          2    1    1    2    0  502  0.43837165810E+02 -0.20189863991E+01 -0.22941346985E+03  0.23357292986E+03  0.25500000000E-02 0. -1.
         -2    1    1    2  502    0 -0.43837165810E+02  0.20189863991E+01 -0.15677562136E+03  0.16280162429E+03  0.25500000000E-02 0. -1.
<mgrwt>
<rscale>  0 0.89279186E+02</rscale>
<asrwt>0</asrwt>
<pdfrwt beam="2">  1        3 0.60197180E-01 0.89279186E+02</pdfrwt>
<pdfrwt beam="1">  1       -3 0.78349746E-03 0.89279186E+02</pdfrwt>
<totfact> 0.21921180E+04</totfact>
</mgrwt>
</event>
<event>
 4    1  0.1537855E-002  0.1307220E+03  0.7818608E-02  0.1226388E+00
         -3   -1    0    0  501    0 -0.00000000000E+00  0.00000000000E+00  0.15180734194E+03  0.15180737554E+03  0.10100000000E+00 0.  1.
          3   -1    0    0    0  501  0.00000000000E+00 -0.00000000000E+00 -0.28141202040E+02  0.28141383286E+02  0.10100000000E+00 0.  1.
          2    1    1    2    0  502 -0.91927644149E+01 -0.59581188411E+02  0.96593600986E+02  0.11386285034E+03  0.25500000000E-02 0. -1.
         -2    1    1    2  502    0  0.91927644149E+01  0.59581188411E+02  0.27072538914E+02  0.66085908482E+02  0.25500000000E-02 0. -1.
<mgrwt>
<rscale>  0 0.13072200E+03</rscale>
<asrwt>0</asrwt>
<pdfrwt beam="2">  1        3 0.43294322E-02 0.13072200E+03</pdfrwt>
<pdfrwt beam="1">  1       -3 0.23354993E-01 0.13072200E+03</pdfrwt>
<totfact> 0.10928366E+04</totfact>
</mgrwt>
</event>
<event>
 4    1  0.1537855E-002  0.5566213E+02  0.7818608E-02  0.1416993E+00
         -3   -1    0    0  501    0 -0.00000000000E+00  0.00000000000E+00  0.15542310756E+02  0.15542638921E+02  0.10100000000E+00 0.  1.
          3   -1    0    0    0  501  0.00000000000E+00 -0.00000000000E+00 -0.49835190265E+02  0.49835292613E+02  0.10100000000E+00 0.  1.
          2    1    1    2    0  502  0.22343808588E+02 -0.68400865756E+01  0.60968669968E+00  0.23375292318E+02  0.25500000000E-02 0.  1.
         -2    1    1    2  502    0 -0.22343808588E+02  0.68400865756E+01 -0.34902566209E+02  0.42002639216E+02  0.25500000000E-02 0.  1.
<mgrwt>
<rscale>  0 0.55662127E+02</rscale>
<asrwt>0</asrwt>
<pdfrwt beam="2">  1        3 0.76669854E-02 0.55662127E+02</pdfrwt>
<pdfrwt beam="1">  1       -3 0.23911579E-02 0.55662127E+02</pdfrwt>
<totfact> 0.13826004E+05</totfact>
</mgrwt>
</event>
<event>
 4    1  0.1537855E-002  0.6532547E+02  0.7818608E-02  0.1376751E+00
         -3   -1    0    0  501    0 -0.00000000000E+00  0.00000000000E+00  0.59016210740E+02  0.59016297165E+02  0.10100000000E+00 0.  1.
          3   -1    0    0    0  501  0.00000000000E+00 -0.00000000000E+00 -0.18077065372E+02  0.18077347523E+02  0.10100000000E+00 0.  1.
          2    1    1    2    0  502  0.88051848181E+01  0.31097340204E+02  0.26039847625E+02  0.41504813194E+02  0.25500000000E-02 0.  1.
         -2    1    1    2  502    0 -0.88051848181E+01 -0.31097340204E+02  0.14899297742E+02  0.35588831494E+02  0.25500000000E-02 0.  1.
<mgrwt>
<rscale>  0 0.65325465E+02</rscale>
<asrwt>0</asrwt>
<pdfrwt beam="2">  1        3 0.27811153E-02 0.65325465E+02</pdfrwt>
<pdfrwt beam="1">  1       -3 0.90794454E-02 0.65325465E+02</pdfrwt>
<totfact> 0.88829748E+04</totfact>
</mgrwt>
</event>
<event>
 4    1  0.1537855E-002  0.6511238E+02  0.7818608E-02  0.1377549E+00
          3   -1    0    0    0  501  0.00000000000E+00  0.00000000000E+00  0.12866653818E+02  0.12867050224E+02  0.10100000000E+00 0. -1.
         -3   -1    0    0  501    0 -0.00000000000E+00 -0.00000000000E+00 -0.82374454221E+02  0.82374516139E+02  0.10100000000E+00 0. -1.
          2    1    1    2    0  502  0.23399765397E+02  0.58556343725E+01 -0.27717407142E+01  0.24280033518E+02  0.25500000000E-02 0.  1.
         -2    1    1    2  502    0 -0.23399765397E+02 -0.58556343725E+01 -0.66736059689E+02  0.70961532846E+02  0.25500000000E-02 0.  1.
<mgrwt>
<rscale>  0 0.65112377E+02</rscale>
<asrwt>0</asrwt>
<pdfrwt beam="1">  1        3 0.19795205E-02 0.65112377E+02</pdfrwt>
<pdfrwt beam="2">  1       -3 0.12673028E-01 0.65112377E+02</pdfrwt>
<totfact> 0.85902108E+04</totfact>
</mgrwt>
</event>
<event>
 4    1  0.1537855E-002  0.5855705E+02  0.7818608E-02  0.1403989E+00
         -3   -1    0    0  501    0 -0.00000000000E+00  0.00000000000E+00  0.11140370545E+03  0.11140375124E+03  0.10100000000E+00 0.  1.
          3   -1    0    0    0  501  0.00000000000E+00 -0.00000000000E+00 -0.76944456614E+01  0.76951085137E+01  0.10100000000E+00 0.  1.
          2    1    1    2    0  502  0.21136471339E+02 -0.20250322839E+02  0.53150517014E+02  0.60677866320E+02  0.25500000000E-02 0.  1.
         -2    1    1    2  502    0 -0.21136471339E+02  0.20250322839E+02  0.50558742777E+02  0.58420993431E+02  0.25500000000E-02 0.  1.
<mgrwt>
<rscale>  0 0.58557048E+02</rscale>
<asrwt>0</asrwt>
<pdfrwt beam="2">  1        3 0.11838154E-02 0.58557048E+02</pdfrwt>
<pdfrwt beam="1">  1       -3 0.17139086E-01 0.58557048E+02</pdfrwt>
<totfact> 0.10716100E+05</totfact>
</mgrwt>
</event>
<event>
 4    1  0.1537855E-002  0.5322755E+02  0.7818608E-02  0.1428672E+00
          3   -1    0    0    0  501  0.00000000000E+00  0.00000000000E+00  0.24287015451E+03  0.24287017551E+03  0.10100000000E+00 0.  1.
         -3   -1    0    0  501    0 -0.00000000000E+00 -0.00000000000E+00 -0.29154486341E+01  0.29171975829E+01  0.10100000000E+00 0.  1.
          2    1    1    2    0  502  0.23798327710E+02 -0.10240039059E+02  0.14809369416E+03  0.15034281179E+03  0.25500000000E-02 0. -1.
         -2    1    1    2  502    0 -0.23798327710E+02  0.10240039059E+02  0.91861011714E+02  0.95444561297E+02  0.25500000000E-02 0. -1.
<mgrwt>
<rscale>  0 0.53227548E+02</rscale>
<asrwt>0</asrwt>
<pdfrwt beam="1">  1        3 0.37364780E-01 0.53227548E+02</pdfrwt>
<pdfrwt beam="2">  1       -3 0.44866665E-03 0.53227548E+02</pdfrwt>
<totfact> 0.10660594E+05</totfact>
</mgrwt>
</event>
<event>
 4    1  0.1537855E-002  0.4411927E+02  0.7818608E-02  0.1479916E+00
         -3   -1    0    0  501    0 -0.00000000000E+00  0.00000000000E+00  0.33825401670E+02  0.33825552459E+02  0.10100000000E+00 0.  1.
          3   -1    0    0    0  501  0.00000000000E+00 -0.00000000000E+00 -0.14386088607E+02  0.14386443147E+02  0.10100000000E+00 0.  1.
          2    1    1    2    0  502  0.18584691508E+02 -0.10618721372E+02  0.38879959878E+01  0.21754643673E+02  0.25500000000E-02 0.  1.
         -2    1    1    2  502    0 -0.18584691508E+02  0.10618721372E+02  0.15551317076E+02  0.26457351933E+02  0.25500000000E-02 0.  1.
<mgrwt>
<rscale>  0 0.44119266E+02</rscale>
<asrwt>0</asrwt>
<pdfrwt beam="2">  1        3 0.22132833E-02 0.44119266E+02</pdfrwt>
<pdfrwt beam="1">  1       -3 0.52039468E-02 0.44119266E+02</pdfrwt>
<totfact> 0.25984625E+05</totfact>
</mgrwt>
</event>
<event>
 4    1  0.1537855E-002  0.4627114E+02  0.7818608E-02  0.1466559E+00
         -3   -1    0    0  501    0 -0.00000000000E+00  0.00000000000E+00  0.54614262897E+01  0.54623601235E+01  0.10100000000E+00 0.  1.
          3   -1    0    0    0  501  0.00000000000E+00 -0.00000000000E+00 -0.97997035038E+02  0.97997087086E+02  0.10100000000E+00 0.  1.
          2    1    1    2    0  502 -0.20335005490E+02 -0.34287065820E+01 -0.22818559592E+02  0.30756383817E+02  0.25500000000E-02 0.  1.
         -2    1    1    2  502    0  0.20335005490E+02  0.34287065820E+01 -0.69717049156E+02  0.72703063393E+02  0.25500000000E-02 0.  1.
<mgrwt>
<rscale>  0 0.46271139E+02</rscale>
<asrwt>0</asrwt>
<pdfrwt beam="2">  1        3 0.15076542E-01 0.46271139E+02</pdfrwt>
<pdfrwt beam="1">  1       -3 0.84029534E-03 0.46271139E+02</pdfrwt>
<totfact> 0.20094347E+05</totfact>
</mgrwt>
</event>
<event>
 4    1  0.1537855E-002  0.6205462E+02  0.7818608E-02  0.1389406E+00
          3   -1    0    0    0  501  0.00000000000E+00  0.00000000000E+00  0.10599081027E+02  0.10599562237E+02  0.10100000000E+00 0. -1.
         -3   -1    0    0  501    0 -0.00000000000E+00 -0.00000000000E+00 -0.90825479105E+02  0.90825535262E+02  0.10100000000E+00 0. -1.
          2    1    1    2    0  502  0.28611877977E+02  0.92995907732E+01 -0.27711629738E+02  0.40903011859E+02  0.25500000000E-02 0.  1.
         -2    1    1    2  502    0 -0.28611877977E+02 -0.92995907732E+01 -0.52514768340E+02  0.60522085640E+02  0.25500000000E-02 0.  1.
<mgrwt>
<rscale>  0 0.62054617E+02</rscale>
<asrwt>0</asrwt>
<pdfrwt beam="1">  1        3 0.16306692E-02 0.62054617E+02</pdfrwt>
<pdfrwt beam="2">  1       -3 0.13973191E-01 0.62054617E+02</pdfrwt>
<totfact> 0.95989008E+04</totfact>
</mgrwt>
</event>
<event>
 4    1  0.1537855E-002  0.4966543E+02  0.7818608E-02  0.1447155E+00
         -3   -1    0    0  501    0 -0.00000000000E+00  0.00000000000E+00  0.50152357860E+02  0.50152459560E+02  0.10100000000E+00 0. -1.
          3   -1    0    0    0  501  0.00000000000E+00 -0.00000000000E+00 -0.12295485549E+02  0.12295900369E+02  0.10100000000E+00 0. -1.
          2    1    1    2    0  502  0.18652903418E+02  0.11227893970E+02  0.33947022969E+02  0.40328609992E+02  0.25500000000E-02 0. -1.
         -2    1    1    2  502    0 -0.18652903418E+02 -0.11227893970E+02  0.39098493427E+01  0.22119749937E+02  0.25500000000E-02 0. -1.
<mgrwt>
<rscale>  0 0.49665429E+02</rscale>
<asrwt>0</asrwt>
<pdfrwt beam="2">  1        3 0.18916529E-02 0.49665429E+02</pdfrwt>
<pdfrwt beam="1">  1       -3 0.77157871E-02 0.49665429E+02</pdfrwt>
<totfact> 0.18607556E+05</totfact>
</mgrwt>
</event>
<event>
 4    1  0.1537855E-002  0.4867005E+02  0.7818608E-02  0.1452650E+00
         -3   -1    0    0  501    0 -0.00000000000E+00  0.00000000000E+00  0.18561303689E+04  0.18561303716E+04  0.10100000000E+00 0.  1.
          3   -1    0    0    0  501  0.00000000000E+00 -0.00000000000E+00 -0.31105114076E+00  0.32703793690E+00  0.10100000000E+00 0.  1.
          2    1    1    2    0  502  0.86290601863E+01 -0.22141323464E+02  0.11279169765E+04  0.11281672769E+04  0.25500000000E-02 0. -1.
         -2    1    1    2  502    0 -0.86290601863E+01  0.22141323464E+02  0.72790234127E+03  0.72829013266E+03  0.25500000000E-02 0. -1.
<mgrwt>
<rscale>  0 0.48670047E+02</rscale>
<asrwt>0</asrwt>
<pdfrwt beam="2">  1        3 0.49084347E-04 0.48670047E+02</pdfrwt>
<pdfrwt beam="1">  1       -3 0.28555765E+00 0.48670047E+02</pdfrwt>
<totfact> 0.21426907E+04</totfact>
</mgrwt>
</event>
<event>
 4    1  0.1537855E-002  0.4202974E+02  0.7818608E-02  0.1493785E+00
         -3   -1    0    0  501    0 -0.00000000000E+00  0.00000000000E+00  0.79307879288E+02  0.79307943601E+02  0.10100000000E+00 0. -1.
          3   -1    0    0    0  501  0.00000000000E+00 -0.00000000000E+00 -0.55679598808E+01  0.55688758501E+01  0.10100000000E+00 0. -1.
          2    1    1    2    0  502  0.20906627625E+02 -0.90448359410E+00  0.32975245200E+02  0.39054730466E+02  0.25500000000E-02 0. -1.
         -2    1    1    2  502    0 -0.20906627625E+02  0.90448359410E+00  0.40764674207E+02  0.45822088985E+02  0.25500000000E-02 0. -1.
<mgrwt>
<rscale>  0 0.42029737E+02</rscale>
<asrwt>0</asrwt>
<pdfrwt beam="2">  1        3 0.85668461E-03 0.42029737E+02</pdfrwt>
<pdfrwt beam="1">  1       -3 0.12201288E-01 0.42029737E+02</pdfrwt>
<totfact> 0.26626082E+05</totfact>
</mgrwt>
</event>
<event>
 4    1  0.1537855E-002  0.4733800E+02  0.7818608E-02  0.1460252E+00
         -3   -1    0    0  501    0 -0.00000000000E+00  0.00000000000E+00  0.34033287297E+02  0.34033437164E+02  0.10100000000E+00 0.  1.
          3   -1    0    0    0  501  0.00000000000E+00 -0.00000000000E+00 -0.16460649048E+02  0.16460958905E+02  0.10100000000E+00 0.  1.
          2    1    1    2    0  502  0.11605320320E+01 -0.23496152291E+02  0.11569017860E+02  0.26215609622E+02  0.25500000000E-02 0. -1.
         -2    1    1    2  502    0 -0.11605320320E+01  0.23496152291E+02  0.60036203883E+01  0.24278786447E+02  0.25500000000E-02 0. -1.
<mgrwt>
<rscale>  0 0.47338002E+02</rscale>
<asrwt>0</asrwt>
<pdfrwt beam="2">  1        3 0.25324429E-02 0.47338002E+02</pdfrwt>
<pdfrwt beam="1">  1       -3 0.52359257E-02 0.47338002E+02</pdfrwt>
<totfact> 0.21662887E+05</totfact>
</mgrwt>
</event>
<event>
 4    1  0.1537855E-002  0.5933387E+02  0.7818608E-02  0.1400649E+00
          3   -1    0    0    0  501  0.00000000000E+00  0.00000000000E+00  0.18613912891E+01  0.18641294298E+01  0.10100000000E+00 0.  1.
         -3   -1    0    0  501    0 -0.00000000000E+00 -0.00000000000E+00 -0.47248263853E+03  0.47248264932E+03  0.10100000000E+00 0.  1.
          2    1    1    2    0  502 -0.23116740294E+02  0.15802016414E+02 -0.15696431934E+03  0.15944241893E+03  0.25500000000E-02 0.  1.
         -2    1    1    2  502    0  0.23116740294E+02 -0.15802016414E+02 -0.31365692790E+03  0.31490435982E+03  0.25500000000E-02 0.  1.
<mgrwt>
<rscale>  0 0.59333870E+02</rscale>
<asrwt>0</asrwt>
<pdfrwt beam="1">  1        3 0.28657972E-03 0.59333870E+02</pdfrwt>
<pdfrwt beam="2">  1       -3 0.72689753E-01 0.59333870E+02</pdfrwt>
<totfact> 0.56656059E+04</totfact>
</mgrwt>
</event>
<event>
 4    1  0.1537855E-002  0.4476909E+02  0.7818608E-02  0.1475788E+00
          3   -1    0    0    0  501  0.00000000000E+00  0.00000000000E+00  0.77206732004E+01  0.77213338011E+01  0.10100000000E+00 0. -1.
         -3   -1    0    0  501    0 -0.00000000000E+00 -0.00000000000E+00 -0.64896017691E+02  0.64896096285E+02  0.10100000000E+00 0. -1.
          2    1    1    2    0  502 -0.12345194983E+02 -0.16860152451E+02 -0.15570913171E+02  0.26059967830E+02  0.25500000000E-02 0.  1.
         -2    1    1    2  502    0  0.12345194983E+02  0.16860152451E+02 -0.41604431320E+02  0.46557462256E+02  0.25500000000E-02 0.  1.
<mgrwt>
<rscale>  0 0.44769087E+02</rscale>
<asrwt>0</asrwt>
<pdfrwt beam="1">  1        3 0.11878528E-02 0.44769087E+02</pdfrwt>
<pdfrwt beam="2">  1       -3 0.99840592E-02 0.44769087E+02</pdfrwt>
<totfact> 0.23495889E+05</totfact>
</mgrwt>
</event>
<event>
 4    1  0.1537855E-002  0.4449553E+02  0.7818608E-02  0.1477516E+00
         -3   -1    0    0  501    0 -0.00000000000E+00  0.00000000000E+00  0.10423919129E+01  0.10472735555E+01  0.10100000000E+00 0.  1.
          3   -1    0    0    0  501  0.00000000000E+00 -0.00000000000E+00 -0.47371978856E+03  0.47371979933E+03  0.10100000000E+00 0.  1.
          2    1    1    2    0  502 -0.13020930498E+02  0.17445120687E+02 -0.28533497826E+03  0.28616416039E+03  0.25500000000E-02 0. -1.
         -2    1    1    2  502    0  0.13020930498E+02 -0.17445120687E+02 -0.18734241839E+03  0.18860291250E+03  0.25500000000E-02 0. -1.
<mgrwt>
<rscale>  0 0.44495530E+02</rscale>
<asrwt>0</asrwt>
<pdfrwt beam="2">  1        3 0.72880172E-01 0.44495530E+02</pdfrwt>
<pdfrwt beam="1">  1       -3 0.16074470E-03 0.44495530E+02</pdfrwt>
<totfact> 0.11594522E+05</totfact>
</mgrwt>
</event>
<event>
 4    1  0.1537855E-002  0.4401618E+02  0.7818608E-02  0.1480579E+00
          3   -1    0    0    0  501  0.00000000000E+00  0.00000000000E+00  0.10012632692E+03  0.10012637786E+03  0.10100000000E+00 0.  1.
         -3   -1    0    0  501    0 -0.00000000000E+00 -0.00000000000E+00 -0.48368690356E+01  0.48379234251E+01  0.10100000000E+00 0.  1.
          2    1    1    2    0  502 -0.20742639182E+02 -0.67904609921E+01  0.40904700419E+02  0.46363368769E+02  0.25500000000E-02 0.  1.
         -2    1    1    2  502    0  0.20742639182E+02  0.67904609921E+01  0.54384757463E+02  0.58600932515E+02  0.25500000000E-02 0.  1.
<mgrwt>
<rscale>  0 0.44016176E+02</rscale>
<asrwt>0</asrwt>
<pdfrwt beam="1">  1        3 0.15404135E-01 0.44016176E+02</pdfrwt>
<pdfrwt beam="2">  1       -3 0.74421871E-03 0.44016176E+02</pdfrwt>
<totfact> 0.22658769E+05</totfact>
</mgrwt>
</event>
<event>
 4    1  0.1537855E-002  0.6236756E+02  0.7818608E-02  0.1388156E+00
         -3   -1    0    0  501    0 -0.00000000000E+00  0.00000000000E+00  0.29011142608E+01  0.29028718460E+01  0.10100000000E+00 0. -1.
          3   -1    0    0    0  501  0.00000000000E+00 -0.00000000000E+00 -0.33508800334E+03  0.33508801856E+03  0.10100000000E+00 0. -1.
          2    1    1    2    0  502 -0.16318364742E+02 -0.16630856033E+02 -0.53773986047E+02  0.58604743683E+02  0.25500000000E-02 0. -1.
         -2    1    1    2  502    0  0.16318364742E+02  0.16630856033E+02 -0.27841290303E+03  0.27938614672E+03  0.25500000000E-02 0. -1.
<mgrwt>
<rscale>  0 0.62367561E+02</rscale>
<asrwt>0</asrwt>
<pdfrwt beam="2">  1        3 0.51552106E-01 0.62367561E+02</pdfrwt>
<pdfrwt beam="1">  1       -3 0.44646191E-03 0.62367561E+02</pdfrwt>
<totfact> 0.61171981E+04</totfact>
</mgrwt>
</event>
<event>
 4    1  0.1537855E-002  0.5892507E+02  0.7818608E-02  0.1402399E+00
         -3   -1    0    0  501    0 -0.00000000000E+00  0.00000000000E+00  0.17864899193E+03  0.17864902048E+03  0.10100000000E+00 0.  1.
          3   -1    0    0    0  501  0.00000000000E+00 -0.00000000000E+00 -0.48583650018E+01  0.48594147272E+01  0.10100000000E+00 0.  1.
          2    1    1    2    0  502  0.20487425123E+02  0.18714351523E+02  0.11773747641E+03  0.12096311379E+03  0.25500000000E-02 0. -1.
         -2    1    1    2  502    0 -0.20487425123E+02 -0.18714351523E+02  0.56053150520E+02  0.62545321414E+02  0.25500000000E-02 0. -1.
<mgrwt>
<rscale>  0 0.58925069E+02</rscale>
<asrwt>0</asrwt>
<pdfrwt beam="2">  1        3 0.74752385E-03 0.58925069E+02</pdfrwt>
<pdfrwt beam="1">  1       -3 0.27484538E-01 0.58925069E+02</pdfrwt>
<totfact> 0.92454396E+04</totfact>
</mgrwt>
</event>
<event>
 4    1  0.1537855E-002  0.4283881E+02  0.7818608E-02  0.1488303E+00
         -3   -1    0    0  501    0 -0.00000000000E+00  0.00000000000E+00  0.75993820383E+01  0.76000531816E+01  0.10100000000E+00 0.  1.
          3   -1    0    0    0  501  0.00000000000E+00 -0.00000000000E+00 -0.60368756980E+02  0.60368841469E+02  0.10100000000E+00 0.  1.
          2    1    1    2    0  502 -0.20596520241E+02  0.40787673840E+01 -0.33104528170E+02  0.39201566056E+02  0.25500000000E-02 0.  1.
         -2    1    1    2  502    0  0.20596520241E+02 -0.40787673840E+01 -0.19664846772E+02  0.28767328595E+02  0.25500000000E-02 0.  1.
<mgrwt>
<rscale>  0 0.42838811E+02</rscale>
<asrwt>0</asrwt>
<pdfrwt beam="2">  1        3 0.92875589E-02 0.42838811E+02</pdfrwt>
<pdfrwt beam="1">  1       -3 0.11691939E-02 0.42838811E+02</pdfrwt>
<totfact> 0.26511313E+05</totfact>
</mgrwt>
</event>
<event>
 4    1  0.1537855E-002  0.4100119E+02  0.7818608E-02  0.1500970E+00
          3   -1    0    0    0  501  0.00000000000E+00  0.00000000000E+00  0.53602396082E+00  0.54545640209E+00  0.10100000000E+00 0. -1.
         -3   -1    0    0  501    0 -0.00000000000E+00 -0.00000000000E+00 -0.77721114652E+03  0.77721115309E+03  0.10100000000E+00 0. -1.
          2    1    1    2    0  502  0.30120170188E+01 -0.20102304535E+02 -0.33779455510E+03  0.33840557967E+03  0.25500000000E-02 0.  1.
         -2    1    1    2  502    0 -0.30120170188E+01  0.20102304535E+02 -0.43888056746E+03  0.43935102981E+03  0.25500000000E-02 0.  1.
<mgrwt>
<rscale>  0 0.41001190E+02</rscale>
<asrwt>0</asrwt>
<pdfrwt beam="1">  1        3 0.83191924E-04 0.41001190E+02</pdfrwt>
<pdfrwt beam="2">  1       -3 0.11957078E+00 0.41001190E+02</pdfrwt>
<totfact> 0.96288270E+04</totfact>
</mgrwt>
</event>
<event>
 4    1  0.1537855E-002  0.5531353E+02  0.7818608E-02  0.1418622E+00
         -3   -1    0    0  501    0 -0.00000000000E+00  0.00000000000E+00  0.26738585162E+01  0.26757653792E+01  0.10100000000E+00 0. -1.
          3   -1    0    0    0  501  0.00000000000E+00 -0.00000000000E+00 -0.28596082468E+03  0.28596084251E+03  0.10100000000E+00 0. -1.
          2    1    1    2    0  502  0.12549744820E+02 -0.16679440569E+02 -0.23632120741E+03  0.23724125465E+03  0.25500000000E-02 0.  1.
         -2    1    1    2  502    0 -0.12549744820E+02  0.16679440569E+02 -0.46965758756E+02  0.51395353241E+02  0.25500000000E-02 0.  1.
<mgrwt>
<rscale>  0 0.55313527E+02</rscale>
<asrwt>0</asrwt>
<pdfrwt beam="2">  1        3 0.43994097E-01 0.55313527E+02</pdfrwt>
<pdfrwt beam="1">  1       -3 0.41151113E-03 0.55313527E+02</pdfrwt>
<totfact> 0.89884099E+04</totfact>
</mgrwt>
</event>
<event>
 4    1  0.1537855E-002  0.5997139E+02  0.7818608E-02  0.1397952E+00
         -3   -1    0    0  501    0 -0.00000000000E+00  0.00000000000E+00  0.32643434814E+03  0.32643436376E+03  0.10100000000E+00 0.  1.
          3   -1    0    0    0  501  0.00000000000E+00 -0.00000000000E+00 -0.27534929115E+01  0.27553446633E+01  0.10100000000E+00 0.  1.
          2    1    1    2    0  502 -0.19965971371E+02  0.15937408662E+02  0.75659442019E+02  0.79856071659E+02  0.25500000000E-02 0.  1.
         -2    1    1    2  502    0  0.19965971371E+02 -0.15937408662E+02  0.24802141321E+03  0.24933363677E+03  0.25500000000E-02 0.  1.
<mgrwt>
<rscale>  0 0.59971394E+02</rscale>
<asrwt>0</asrwt>
<pdfrwt beam="2">  1        3 0.42375817E-03 0.59971394E+02</pdfrwt>
<pdfrwt beam="1">  1       -3 0.50220785E-01 0.59971394E+02</pdfrwt>
<totfact> 0.68515967E+04</totfact>
</mgrwt>
</event>
<event>
 4    1  0.1537855E-002  0.4080792E+02  0.7818608E-02  0.1502349E+00
          3   -1    0    0    0  501  0.00000000000E+00  0.00000000000E+00  0.64285511152E+00  0.65074088115E+00  0.10100000000E+00 0.  1.
         -3   -1    0    0  501    0 -0.00000000000E+00 -0.00000000000E+00 -0.64365754231E+03  0.64365755024E+03  0.10100000000E+00 0.  1.
          2    1    1    2    0  502 -0.19000260498E+02  0.72160467842E+01 -0.34992840148E+03  0.35051814133E+03  0.25500000000E-02 0.  1.
         -2    1    1    2  502    0  0.19000260498E+02 -0.72160467842E+01 -0.29308628572E+03  0.29379014979E+03  0.25500000000E-02 0.  1.
<mgrwt>
<rscale>  0 0.40807916E+02</rscale>
<asrwt>0</asrwt>
<pdfrwt beam="1">  1        3 0.99508508E-04 0.40807916E+02</pdfrwt>
<pdfrwt beam="2">  1       -3 0.99024332E-01 0.40807916E+02</pdfrwt>
<totfact> 0.11417358E+05</totfact>
</mgrwt>
</event>
<event>
 4    1  0.1537855E-002  0.4472758E+02  0.7818608E-02  0.1476049E+00
          3   -1    0    0    0  501  0.00000000000E+00  0.00000000000E+00  0.10862276416E+03  0.10862281112E+03  0.10100000000E+00 0.  1.
         -3   -1    0    0  501    0 -0.00000000000E+00 -0.00000000000E+00 -0.46037654720E+01  0.46048732362E+01  0.10100000000E+00 0.  1.
          2    1    1    2    0  502 -0.18914902976E+02 -0.90554379657E+01  0.32341130797E+02  0.38545080867E+02  0.25500000000E-02 0. -1.
         -2    1    1    2  502    0  0.18914902976E+02  0.90554379657E+01  0.71677867896E+02  0.74682603490E+02  0.25500000000E-02 0. -1.
<mgrwt>
<rscale>  0 0.44727580E+02</rscale>
<asrwt>0</asrwt>
<pdfrwt beam="1">  1        3 0.16711282E-01 0.44727580E+02</pdfrwt>
<pdfrwt beam="2">  1       -3 0.70836051E-03 0.44727580E+02</pdfrwt>
<totfact> 0.21372679E+05</totfact>
</mgrwt>
</event>
<event>
 4    1  0.1537855E-002  0.5308929E+02  0.7818608E-02  0.1429357E+00
          3   -1    0    0    0  501  0.00000000000E+00  0.00000000000E+00  0.33757977648E+01  0.33773083290E+01  0.10100000000E+00 0. -1.
         -3   -1    0    0  501    0 -0.00000000000E+00 -0.00000000000E+00 -0.20867821020E+03  0.20867823464E+03  0.10100000000E+00 0. -1.
          2    1    1    2    0  502  0.18419873774E+01 -0.23951060495E+02 -0.57536271636E+02  0.62349569178E+02  0.25500000000E-02 0. -1.
         -2    1    1    2  502    0 -0.18419873774E+01  0.23951060495E+02 -0.14776614080E+03  0.14970597379E+03  0.25500000000E-02 0. -1.
<mgrwt>
<rscale>  0 0.53089290E+02</rscale>
<asrwt>0</asrwt>
<pdfrwt beam="1">  1        3 0.51947175E-03 0.53089290E+02</pdfrwt>
<pdfrwt beam="2">  1       -3 0.32104448E-01 0.53089290E+02</pdfrwt>
<totfact> 0.11407201E+05</totfact>
</mgrwt>
</event>
<event>
 4    1  0.1537855E-002  0.4949812E+02  0.7818608E-02  0.1448067E+00
          3   -1    0    0    0  501  0.00000000000E+00  0.00000000000E+00  0.15443656714E+03  0.15443660016E+03  0.10100000000E+00 0. -1.
         -3   -1    0    0  501    0 -0.00000000000E+00 -0.00000000000E+00 -0.39654571464E+01  0.39667431704E+01  0.10100000000E+00 0. -1.
          2    1    1    2    0  502  0.16705383392E+02 -0.13880365692E+02  0.11320625990E+03  0.11527094896E+03  0.25500000000E-02 0.  1.
         -2    1    1    2  502    0 -0.16705383392E+02  0.13880365692E+02  0.37264850087E+02  0.43132394375E+02  0.25500000000E-02 0.  1.
<mgrwt>
<rscale>  0 0.49498124E+02</rscale>
<asrwt>0</asrwt>
<pdfrwt beam="1">  1        3 0.23759568E-01 0.49498124E+02</pdfrwt>
<pdfrwt beam="2">  1       -3 0.61017193E-03 0.49498124E+02</pdfrwt>
<totfact> 0.15087862E+05</totfact>
</mgrwt>
</event>
<event>
 4    1  0.1537855E-002  0.4149738E+02  0.7818608E-02  0.1497473E+00
          3   -1    0    0    0  501  0.00000000000E+00  0.00000000000E+00  0.29817145797E+02  0.29817316856E+02  0.10100000000E+00 0.  1.
         -3   -1    0    0  501    0 -0.00000000000E+00 -0.00000000000E+00 -0.14437887715E+02  0.14438240983E+02  0.10100000000E+00 0.  1.
          2    1    1    2    0  502 -0.75193161779E+01 -0.19173293835E+02  0.10377650000E+02  0.23061893640E+02  0.25500000000E-02 0.  1.
         -2    1    1    2  502    0  0.75193161779E+01  0.19173293835E+02  0.50016080817E+01  0.21193664199E+02  0.25500000000E-02 0.  1.
<mgrwt>
<rscale>  0 0.41497383E+02</rscale>
<asrwt>0</asrwt>
<pdfrwt beam="1">  1        3 0.45872936E-02 0.41497383E+02</pdfrwt>
<pdfrwt beam="2">  1       -3 0.22212538E-02 0.41497383E+02</pdfrwt>
<totfact> 0.30562594E+05</totfact>
</mgrwt>
</event>
<event>
 4    1  0.1537855E-002  0.4193524E+02  0.7818608E-02  0.1494435E+00
          3   -1    0    0    0  501  0.00000000000E+00  0.00000000000E+00  0.12198166284E+02  0.12198584413E+02  0.10100000000E+00 0.  1.
         -3   -1    0    0  501    0 -0.00000000000E+00 -0.00000000000E+00 -0.36040460560E+02  0.36040602081E+02  0.10100000000E+00 0.  1.
          2    1    1    2    0  502 -0.18942446321E+02  0.88373524334E+01 -0.10021906538E+02  0.23180890574E+02  0.25500000000E-02 0. -1.
         -2    1    1    2  502    0  0.18942446321E+02 -0.88373524334E+01 -0.13820387739E+02  0.25058295920E+02  0.25500000000E-02 0. -1.
<mgrwt>
<rscale>  0 0.41935237E+02</rscale>
<asrwt>0</asrwt>
<pdfrwt beam="1">  1        3 0.18766840E-02 0.41935237E+02</pdfrwt>
<pdfrwt beam="2">  1       -3 0.55447292E-02 0.41935237E+02</pdfrwt>
<totfact> 0.29455014E+05</totfact>
</mgrwt>
</event>
<event>
 4    1  0.1537855E-002  0.2934202E+03  0.7818608E-02  0.1088577E+00
         -3   -1    0    0  501    0 -0.00000000000E+00  0.00000000000E+00  0.14431712350E+02  0.14432065769E+02  0.10100000000E+00 0.  1.
          3   -1    0    0    0  501  0.00000000000E+00 -0.00000000000E+00 -0.14914088303E+04  0.14914088337E+04  0.10100000000E+00 0.  1.
          2    1    1    2    0  502 -0.23704084829E+02 -0.10778134150E+03 -0.24237368287E+03  0.26631504533E+03  0.25500000000E-02 0. -1.
         -2    1    1    2  502    0  0.23704084829E+02  0.10778134150E+03 -0.12346034351E+04  0.12395258541E+04  0.25500000000E-02 0. -1.
<mgrwt>
<rscale>  0 0.29342019E+03</rscale>
<asrwt>0</asrwt>
<pdfrwt beam="2">  1        3 0.22944742E+00 0.29342019E+03</pdfrwt>
<pdfrwt beam="1">  1       -3 0.22202921E-02 0.29342019E+03</pdfrwt>
<totfact> 0.22235377E+02</totfact>
</mgrwt>
</event>
<event>
 4    1  0.1537855E-002  0.5546905E+02  0.7818608E-02  0.1417894E+00
         -3   -1    0    0  501    0 -0.00000000000E+00  0.00000000000E+00  0.35710948918E+03  0.35710950346E+03  0.10100000000E+00 0.  1.
          3   -1    0    0    0  501  0.00000000000E+00 -0.00000000000E+00 -0.21527740427E+01  0.21551420090E+01  0.10100000000E+00 0.  1.
          2    1    1    2    0  502 -0.26785141319E+02 -0.49887652481E+01  0.14390329437E+03  0.14645985700E+03  0.25500000000E-02 0. -1.
         -2    1    1    2  502    0  0.26785141319E+02  0.49887652481E+01  0.21105342076E+03  0.21280478847E+03  0.25500000000E-02 0. -1.
<mgrwt>
<rscale>  0 0.55469053E+02</rscale>
<asrwt>0</asrwt>
<pdfrwt beam="2">  1        3 0.33137906E-03 0.55469053E+02</pdfrwt>
<pdfrwt beam="1">  1       -3 0.54940137E-01 0.55469053E+02</pdfrwt>
<totfact> 0.79597776E+04</totfact>
</mgrwt>
</event>
<event>
 4    1  0.1537855E-002  0.4660820E+02  0.7818608E-02  0.1464545E+00
         -3   -1    0    0  501    0 -0.00000000000E+00  0.00000000000E+00  0.37181615152E+02  0.37181752330E+02  0.10100000000E+00 0. -1.
          3   -1    0    0    0  501  0.00000000000E+00 -0.00000000000E+00 -0.14605833044E+02  0.14606182249E+02  0.10100000000E+00 0. -1.
          2    1    1    2    0  502 -0.18525676607E+02 -0.13086800858E+02  0.53440014361E+01  0.23302862663E+02  0.25500000000E-02 0. -1.
         -2    1    1    2  502    0  0.18525676607E+02  0.13086800858E+02  0.17231780673E+02  0.28485071917E+02  0.25500000000E-02 0. -1.
<mgrwt>
<rscale>  0 0.46608199E+02</rscale>
<asrwt>0</asrwt>
<pdfrwt beam="2">  1        3 0.22470886E-02 0.46608199E+02</pdfrwt>
<pdfrwt beam="1">  1       -3 0.57202859E-02 0.46608199E+02</pdfrwt>
<totfact> 0.22443435E+05</totfact>
</mgrwt>
</event>
<event>
 4    1  0.1537855E-002  0.4142457E+02  0.7818608E-02  0.1497982E+00
          3   -1    0    0    0  501  0.00000000000E+00  0.00000000000E+00  0.17706905742E+03  0.17706908622E+03  0.10100000000E+00 0. -1.
         -3   -1    0    0  501    0 -0.00000000000E+00 -0.00000000000E+00 -0.24216946957E+01  0.24237999503E+01  0.10100000000E+00 0. -1.
          2    1    1    2    0  502 -0.17541579520E+02 -0.10940178592E+02  0.92811726786E+02  0.95086335271E+02  0.25500000000E-02 0.  1.
         -2    1    1    2  502    0  0.17541579520E+02  0.10940178592E+02  0.81835635936E+02  0.84406550902E+02  0.25500000000E-02 0.  1.
<mgrwt>
<rscale>  0 0.41424569E+02</rscale>
<asrwt>0</asrwt>
<pdfrwt beam="1">  1        3 0.27241561E-01 0.41424569E+02</pdfrwt>
<pdfrwt beam="2">  1       -3 0.37273253E-03 0.41424569E+02</pdfrwt>
<totfact> 0.22418514E+05</totfact>
</mgrwt>
</event>
<event>
 4    1  0.1537855E-002  0.5362452E+02  0.7818608E-02  0.1426718E+00
         -3   -1    0    0  501    0 -0.00000000000E+00  0.00000000000E+00  0.14533746200E+03  0.14533749709E+03  0.10100000000E+00 0.  1.
          3   -1    0    0    0  501  0.00000000000E+00 -0.00000000000E+00 -0.49458496997E+01  0.49468808609E+01  0.10100000000E+00 0.  1.
          2    1    1    2    0  502 -0.96760224978E+01 -0.19541749962E+02  0.26473455239E+02  0.34297948069E+02  0.25500000000E-02 0.  1.
         -2    1    1    2  502    0  0.96760224978E+01  0.19541749962E+02  0.11391815706E+03  0.11598642989E+03  0.25500000000E-02 0.  1.
<mgrwt>
<rscale>  0 0.53624523E+02</rscale>
<asrwt>0</asrwt>
<pdfrwt beam="2">  1        3 0.76098211E-03 0.53624523E+02</pdfrwt>
<pdfrwt beam="1">  1       -3 0.22359687E-01 0.53624523E+02</pdfrwt>
<totfact> 0.12549084E+05</totfact>
</mgrwt>
</event>
<event>
 4    1  0.1537855E-002  0.5107157E+02  0.7818608E-02  0.1439646E+00
         -3   -1    0    0  501    0 -0.00000000000E+00  0.00000000000E+00  0.28956253134E+02  0.28956429279E+02  0.10100000000E+00 0.  1.
          3   -1    0    0    0  501  0.00000000000E+00 -0.00000000000E+00 -0.22519006900E+02  0.22519233397E+02  0.10100000000E+00 0.  1.
          2    1    1    2    0  502  0.20280146292E+02  0.60879835434E+00  0.18846835619E+02  0.27692204470E+02  0.25500000000E-02 0. -1.
         -2    1    1    2  502    0 -0.20280146292E+02 -0.60879835434E+00 -0.12409589384E+02  0.23783458206E+02  0.25500000000E-02 0. -1.
<mgrwt>
<rscale>  0 0.51071574E+02</rscale>
<asrwt>0</asrwt>
<pdfrwt beam="2">  1        3 0.34644936E-02 0.51071574E+02</pdfrwt>
<pdfrwt beam="1">  1       -3 0.44548392E-02 0.51071574E+02</pdfrwt>
<totfact> 0.17847749E+05</totfact>
</mgrwt>
</event>
<event>
 4    1  0.1537855E-002  0.4209875E+02  0.7818608E-02  0.1493311E+00
          3   -1    0    0    0  501  0.00000000000E+00  0.00000000000E+00  0.27268237139E+02  0.27268424188E+02  0.10100000000E+00 0.  1.
         -3   -1    0    0  501    0 -0.00000000000E+00 -0.00000000000E+00 -0.16248398612E+02  0.16248712517E+02  0.10100000000E+00 0.  1.
          2    1    1    2    0  502 -0.15882574340E+02  0.12752633185E+02  0.21583214167E-01  0.20368757771E+02  0.25500000000E-02 0.  1.
         -2    1    1    2  502    0  0.15882574340E+02 -0.12752633185E+02  0.10998255313E+02  0.23148378933E+02  0.25500000000E-02 0.  1.
<mgrwt>
<rscale>  0 0.42098745E+02</rscale>
<asrwt>0</asrwt>
<pdfrwt beam="1">  1        3 0.41951519E-02 0.42098745E+02</pdfrwt>
<pdfrwt beam="2">  1       -3 0.24997922E-02 0.42098745E+02</pdfrwt>
<totfact> 0.29563261E+05</totfact>
</mgrwt>
</event>
<event>
 4    1  0.1537855E-002  0.4304570E+02  0.7818608E-02  0.1486924E+00
          3   -1    0    0    0  501  0.00000000000E+00  0.00000000000E+00  0.35538641066E+02  0.35538784585E+02  0.10100000000E+00 0.  1.
         -3   -1    0    0  501    0 -0.00000000000E+00 -0.00000000000E+00 -0.13034264748E+02  0.13034656057E+02  0.10100000000E+00 0.  1.
          2    1    1    2    0  502  0.86357494572E-01  0.21049684855E+02  0.61885872401E+01  0.21940722610E+02  0.25500000000E-02 0.  1.
         -2    1    1    2  502    0 -0.86357494572E-01 -0.21049684855E+02  0.16315789077E+02  0.26632718033E+02  0.25500000000E-02 0.  1.
<mgrwt>
<rscale>  0 0.43045699E+02</rscale>
<asrwt>0</asrwt>
<pdfrwt beam="1">  1        3 0.54675243E-02 0.43045699E+02</pdfrwt>
<pdfrwt beam="2">  1       -3 0.20053127E-02 0.43045699E+02</pdfrwt>
<totfact> 0.27592514E+05</totfact>
</mgrwt>
</event>
<event>
 4    1  0.1537855E-002  0.4089647E+02  0.7818608E-02  0.1501716E+00
          3   -1    0    0    0  501  0.00000000000E+00  0.00000000000E+00  0.44531421635E+03  0.44531422780E+03  0.10100000000E+00 0. -1.
         -3   -1    0    0  501    0 -0.00000000000E+00 -0.00000000000E+00 -0.93622806196E+00  0.94166022747E+00  0.10100000000E+00 0. -1.
          2    1    1    2    0  502  0.34224904176E+01  0.19984691562E+02  0.19325935568E+03  0.19432004503E+03  0.25500000000E-02 0.  1.
         -2    1    1    2  502    0 -0.34224904176E+01 -0.19984691562E+02  0.25111863261E+03  0.25193584300E+03  0.25500000000E-02 0.  1.
<mgrwt>
<rscale>  0 0.40896468E+02</rscale>
<asrwt>0</asrwt>
<pdfrwt beam="1">  1        3 0.68510242E-01 0.40896468E+02</pdfrwt>
<pdfrwt beam="2">  1       -3 0.14445395E-03 0.40896468E+02</pdfrwt>
<totfact> 0.14815719E+05</totfact>
</mgrwt>
</event>
<event>
 4    1  0.1537855E-002  0.4749211E+02  0.7818608E-02  0.1459358E+00
          3   -1    0    0    0  501  0.00000000000E+00  0.00000000000E+00  0.53506497029E+00  0.54451402409E+00  0.10100000000E+00 0.  1.
         -3   -1    0    0  501    0 -0.00000000000E+00 -0.00000000000E+00 -0.10446109000E+04  0.10446109049E+04  0.10100000000E+00 0.  1.
          2    1    1    2    0  502 -0.11534447406E+02  0.20756461039E+02 -0.52136464207E+03  0.52190512946E+03  0.25500000000E-02 0.  1.
         -2    1    1    2  502    0  0.11534447406E+02 -0.20756461039E+02 -0.52271119297E+03  0.52325028945E+03  0.25500000000E-02 0.  1.
<mgrwt>
<rscale>  0 0.47492109E+02</rscale>
<asrwt>0</asrwt>
<pdfrwt beam="1">  1        3 0.83045750E-04 0.47492109E+02</pdfrwt>
<pdfrwt beam="2">  1       -3 0.16070848E+00 0.47492109E+02</pdfrwt>
<totfact> 0.50574616E+04</totfact>
</mgrwt>
</event>
<event>
 4    1  0.1537855E-002  0.7164668E+02  0.7818608E-02  0.1354581E+00
          3   -1    0    0    0  501  0.00000000000E+00  0.00000000000E+00  0.34561060574E+02  0.34561208153E+02  0.10100000000E+00 0. -1.
         -3   -1    0    0  501    0 -0.00000000000E+00 -0.00000000000E+00 -0.37131426150E+02  0.37131563513E+02  0.10100000000E+00 0. -1.
          2    1    1    2    0  502  0.29829961509E+02  0.16933035813E+02  0.90538100686E+01  0.35475707023E+02  0.25500000000E-02 0. -1.
         -2    1    1    2  502    0 -0.29829961509E+02 -0.16933035813E+02 -0.11624175644E+02  0.36217064644E+02  0.25500000000E-02 0. -1.
<mgrwt>
<rscale>  0 0.71646680E+02</rscale>
<asrwt>0</asrwt>
<pdfrwt beam="1">  1        3 0.53171081E-02 0.71646680E+02</pdfrwt>
<pdfrwt beam="2">  1       -3 0.57125491E-02 0.71646680E+02</pdfrwt>
<totfact> 0.70565374E+04</totfact>
</mgrwt>
</event>
<event>
 4    1  0.1537855E-002  0.5739703E+02  0.7818608E-02  0.1409092E+00
          3   -1    0    0    0  501  0.00000000000E+00  0.00000000000E+00  0.16056881898E+03  0.16056885074E+03  0.10100000000E+00 0.  1.
         -3   -1    0    0  501    0 -0.00000000000E+00 -0.00000000000E+00 -0.51287655599E+01  0.51297599523E+01  0.10100000000E+00 0.  1.
          2    1    1    2    0  502  0.17752249466E+02 -0.22507639868E+02  0.73773723126E+02  0.79147321142E+02  0.25500000000E-02 0. -1.
         -2    1    1    2  502    0 -0.17752249466E+02  0.22507639868E+02  0.81666330292E+02  0.86551289554E+02  0.25500000000E-02 0. -1.
<mgrwt>
<rscale>  0 0.57397033E+02</rscale>
<asrwt>0</asrwt>
<pdfrwt beam="1">  1        3 0.24702971E-01 0.57397033E+02</pdfrwt>
<pdfrwt beam="2">  1       -3 0.78911989E-03 0.57397033E+02</pdfrwt>
<totfact> 0.10236141E+05</totfact>
</mgrwt>
</event>
<event>
 4    1  0.1537855E-002  0.5250816E+02  0.7818608E-02  0.1432264E+00
          3   -1    0    0    0  501  0.00000000000E+00  0.00000000000E+00  0.62956331837E+02  0.62956412854E+02  0.10100000000E+00 0.  1.
         -3   -1    0    0  501    0 -0.00000000000E+00 -0.00000000000E+00 -0.10948169983E+02  0.10948635850E+02  0.10100000000E+00 0.  1.
          2    1    1    2    0  502 -0.23520646223E+02 -0.62328294010E+01  0.12127004805E+02  0.27187004490E+02  0.25500000000E-02 0. -1.
         -2    1    1    2  502    0  0.23520646223E+02  0.62328294010E+01  0.39881157049E+02  0.46718044214E+02  0.25500000000E-02 0. -1.
<mgrwt>
<rscale>  0 0.52508164E+02</rscale>
<asrwt>0</asrwt>
<pdfrwt beam="1">  1        3 0.96856316E-02 0.52508164E+02</pdfrwt>
<pdfrwt beam="2">  1       -3 0.16843759E-02 0.52508164E+02</pdfrwt>
<totfact> 0.15706259E+05</totfact>
</mgrwt>
</event>
<event>
 4    1  0.1537855E-002  0.4542428E+02  0.7818608E-02  0.1471710E+00
         -3   -1    0    0  501    0 -0.00000000000E+00  0.00000000000E+00  0.64317085064E+02  0.64317164366E+02  0.10100000000E+00 0. -1.
          3   -1    0    0    0  501  0.00000000000E+00 -0.00000000000E+00 -0.80198807523E+01  0.80205167091E+01  0.10100000000E+00 0. -1.
          2    1    1    2    0  502 -0.11489648787E+02  0.19530443234E+02  0.25686171686E+02  0.34252440272E+02  0.25500000000E-02 0.  1.
         -2    1    1    2  502    0  0.11489648787E+02 -0.19530443234E+02  0.30611032626E+02  0.38085240804E+02  0.25500000000E-02 0.  1.
<mgrwt>
<rscale>  0 0.45424276E+02</rscale>
<asrwt>0</asrwt>
<pdfrwt beam="2">  1        3 0.12338829E-02 0.45424276E+02</pdfrwt>
<pdfrwt beam="1">  1       -3 0.98949909E-02 0.45424276E+02</pdfrwt>
<totfact> 0.22679880E+05</totfact>
</mgrwt>
</event>
<event>
 4    1  0.1537855E-002  0.4506863E+02  0.7818608E-02  0.1473914E+00
          3   -1    0    0    0  501  0.00000000000E+00  0.00000000000E+00  0.93510971308E+00  0.94054833767E+00  0.10100000000E+00 0. -1.
         -3   -1    0    0  501    0 -0.00000000000E+00 -0.00000000000E+00 -0.54145294062E+03  0.54145295004E+03  0.10100000000E+00 0. -1.
          2    1    1    2    0  502  0.11457696909E+02  0.18472914832E+02 -0.34173000506E+03  0.34242068245E+03  0.25500000000E-02 0. -1.
         -2    1    1    2  502    0 -0.11457696909E+02 -0.18472914832E+02 -0.19878782584E+03  0.19997281593E+03  0.25500000000E-02 0. -1.
<mgrwt>
<rscale>  0 0.45068632E+02</rscale>
<asrwt>0</asrwt>
<pdfrwt beam="1">  1        3 0.14428255E-03 0.45068632E+02</pdfrwt>
<pdfrwt beam="2">  1       -3 0.83300622E-01 0.45068632E+02</pdfrwt>
<totfact> 0.10231041E+05</totfact>
</mgrwt>
</event>
<event>
 4    1  0.1537855E-002  0.7158681E+02  0.7818608E-02  0.1354779E+00
          3   -1    0    0    0  501  0.00000000000E+00  0.00000000000E+00  0.10236295928E+02  0.10236794191E+02  0.10100000000E+00 0. -1.
         -3   -1    0    0  501    0 -0.00000000000E+00 -0.00000000000E+00 -0.12515574803E+03  0.12515578878E+03  0.10100000000E+00 0. -1.
          2    1    1    2    0  502  0.19569490472E+02  0.13694254643E+02 -0.10787892320E+03  0.11049144602E+03  0.25500000000E-02 0.  1.
         -2    1    1    2  502    0 -0.19569490472E+02 -0.13694254643E+02 -0.70405289004E+01  0.24901136947E+02  0.25500000000E-02 0.  1.
<mgrwt>
<rscale>  0 0.71586808E+02</rscale>
<asrwt>0</asrwt>
<pdfrwt beam="1">  1        3 0.15748563E-02 0.71586808E+02</pdfrwt>
<pdfrwt beam="2">  1       -3 0.19254771E-01 0.71586808E+02</pdfrwt>
<totfact> 0.61465135E+04</totfact>
</mgrwt>
</event>
<event>
 4    1  0.1537855E-002  0.4436088E+02  0.7818608E-02  0.1478371E+00
          3   -1    0    0    0  501  0.00000000000E+00  0.00000000000E+00  0.40575001632E+02  0.40575127338E+02  0.10100000000E+00 0. -1.
         -3   -1    0    0  501    0 -0.00000000000E+00 -0.00000000000E+00 -0.12124643167E+02  0.12125063832E+02  0.10100000000E+00 0. -1.
          2    1    1    2    0  502  0.17847116190E+02 -0.11612085121E+02  0.21607139644E+02  0.30335269362E+02  0.25500000000E-02 0.  1.
         -2    1    1    2  502    0 -0.17847116190E+02  0.11612085121E+02  0.68432188213E+01  0.22364921808E+02  0.25500000000E-02 0.  1.
<mgrwt>
<rscale>  0 0.44360875E+02</rscale>
<asrwt>0</asrwt>
<pdfrwt beam="1">  1        3 0.62423498E-02 0.44360875E+02</pdfrwt>
<pdfrwt beam="2">  1       -3 0.18653718E-02 0.44360875E+02</pdfrwt>
<totfact> 0.25320384E+05</totfact>
</mgrwt>
</event>
<event>
 4    1  0.1537855E-002  0.4434169E+02  0.7818608E-02  0.1478494E+00
          3   -1    0    0    0  501  0.00000000000E+00  0.00000000000E+00  0.12140415427E+03  0.12140419629E+03  0.10100000000E+00 0. -1.
         -3   -1    0    0  501    0 -0.00000000000E+00 -0.00000000000E+00 -0.40481701992E+01  0.40494299551E+01  0.10100000000E+00 0. -1.
          2    1    1    2    0  502 -0.16467945913E+02  0.12157698651E+02  0.82775386828E+02  0.85268795875E+02  0.25500000000E-02 0.  1.
         -2    1    1    2  502    0  0.16467945913E+02 -0.12157698651E+02  0.34580597248E+02  0.40184830367E+02  0.25500000000E-02 0.  1.
<mgrwt>
<rscale>  0 0.44341688E+02</rscale>
<asrwt>0</asrwt>
<pdfrwt beam="1">  1        3 0.18677660E-01 0.44341688E+02</pdfrwt>
<pdfrwt beam="2">  1       -3 0.62289562E-03 0.44341688E+02</pdfrwt>
<totfact> 0.21247820E+05</totfact>
</mgrwt>
</event>
<event>
 4    1  0.1537855E-002  0.5178236E+02  0.7818608E-02  0.1435958E+00
         -3   -1    0    0  501    0 -0.00000000000E+00  0.00000000000E+00  0.10443309553E+02  0.10443797940E+02  0.10100000000E+00 0. -1.
          3   -1    0    0    0  501  0.00000000000E+00 -0.00000000000E+00 -0.64187703120E+02  0.64187782582E+02  0.10100000000E+00 0. -1.
          2    1    1    2    0  502 -0.24173161390E+01  0.24173812585E+02 -0.13970220079E+02  0.28024697818E+02  0.25500000000E-02 0. -1.
         -2    1    1    2  502    0  0.24173161390E+01 -0.24173812585E+02 -0.39774173489E+02  0.46606882705E+02  0.25500000000E-02 0. -1.
<mgrwt>
<rscale>  0 0.51782362E+02</rscale>
<asrwt>0</asrwt>
<pdfrwt beam="2">  1        3 0.98750747E-02 0.51782362E+02</pdfrwt>
<pdfrwt beam="1">  1       -3 0.16067067E-02 0.51782362E+02</pdfrwt>
<totfact> 0.16241583E+05</totfact>
</mgrwt>
</event>
<event>
 4    1  0.1537855E-002  0.5225525E+02  0.7818608E-02  0.1433544E+00
          3   -1    0    0    0  501  0.00000000000E+00  0.00000000000E+00  0.16390332844E+02  0.16390644031E+02  0.10100000000E+00 0.  1.
         -3   -1    0    0  501    0 -0.00000000000E+00 -0.00000000000E+00 -0.41648953862E+02  0.41649076326E+02  0.10100000000E+00 0.  1.
          2    1    1    2    0  502  0.78070075842E+01 -0.24398661816E+02 -0.69215055629E+01  0.26535849555E+02  0.25500000000E-02 0.  1.
         -2    1    1    2  502    0 -0.78070075842E+01  0.24398661816E+02 -0.18337115454E+02  0.31503870802E+02  0.25500000000E-02 0.  1.
<mgrwt>
<rscale>  0 0.52255250E+02</rscale>
<asrwt>0</asrwt>
<pdfrwt beam="1">  1        3 0.25216230E-02 0.52255250E+02</pdfrwt>
<pdfrwt beam="2">  1       -3 0.64075647E-02 0.52255250E+02</pdfrwt>
<totfact> 0.16552810E+05</totfact>
</mgrwt>
</event>
<event>
 4    1  0.1537855E-002  0.4163721E+02  0.7818608E-02  0.1496498E+00
         -3   -1    0    0  501    0 -0.00000000000E+00  0.00000000000E+00  0.13596096556E+03  0.13596100307E+03  0.10100000000E+00 0.  1.
          3   -1    0    0    0  501  0.00000000000E+00 -0.00000000000E+00 -0.31869476397E+01  0.31885476722E+01  0.10100000000E+00 0.  1.
          2    1    1    2    0  502  0.48738379229E+01 -0.20224897295E+02  0.69004924837E+02  0.72072743981E+02  0.25500000000E-02 0.  1.
         -2    1    1    2  502    0 -0.48738379229E+01  0.20224897295E+02  0.63769093082E+02  0.67076806764E+02  0.25500000000E-02 0.  1.
<mgrwt>
<rscale>  0 0.41637215E+02</rscale>
<asrwt>0</asrwt>
<pdfrwt beam="2">  1        3 0.49042546E-03 0.41637215E+02</pdfrwt>
<pdfrwt beam="1">  1       -3 0.20917203E-01 0.41637215E+02</pdfrwt>
<totfact> 0.24063158E+05</totfact>
</mgrwt>
</event>
<event>
 4    1  0.1537855E-002  0.6290084E+02  0.7818608E-02  0.1386046E+00
          3   -1    0    0    0  501  0.00000000000E+00  0.00000000000E+00  0.61513867678E+01  0.61522158745E+01  0.10100000000E+00 0. -1.
         -3   -1    0    0  501    0 -0.00000000000E+00 -0.00000000000E+00 -0.16078602830E+03  0.16078606002E+03  0.10100000000E+00 0. -1.
          2    1    1    2    0  502 -0.24284063296E+02 -0.19590770956E+02 -0.87804736302E+02  0.93183613154E+02  0.25500000000E-02 0. -1.
         -2    1    1    2  502    0  0.24284063296E+02  0.19590770956E+02 -0.66829905232E+02  0.73754662745E+02  0.25500000000E-02 0. -1.
<mgrwt>
<rscale>  0 0.62900839E+02</rscale>
<asrwt>0</asrwt>
<pdfrwt beam="1">  1        3 0.94643353E-03 0.62900839E+02</pdfrwt>
<pdfrwt beam="2">  1       -3 0.24736375E-01 0.62900839E+02</pdfrwt>
<totfact> 0.80778146E+04</totfact>
</mgrwt>
</event>
<event>
 4    1  0.1537855E-002  0.4254554E+02  0.7818608E-02  0.1490273E+00
         -3   -1    0    0  501    0 -0.00000000000E+00  0.00000000000E+00  0.26532513992E+03  0.26532515914E+03  0.10100000000E+00 0. -1.
          3   -1    0    0    0  501  0.00000000000E+00 -0.00000000000E+00 -0.17040560420E+01  0.17070465706E+01  0.10100000000E+00 0. -1.
          2    1    1    2    0  502 -0.18183875701E+02  0.10693011759E+02  0.14904137835E+03  0.15052682918E+03  0.25500000000E-02 0.  1.
         -2    1    1    2  502    0  0.18183875701E+02 -0.10693011759E+02  0.11457970553E+03  0.11650537653E+03  0.25500000000E-02 0.  1.
<mgrwt>
<rscale>  0 0.42545541E+02</rscale>
<asrwt>0</asrwt>
<pdfrwt beam="2">  1        3 0.26239407E-03 0.42545541E+02</pdfrwt>
<pdfrwt beam="1">  1       -3 0.40819471E-01 0.42545541E+02</pdfrwt>
<totfact> 0.17861858E+05</totfact>
</mgrwt>
</event>
<event>
 4    1  0.1537855E-002  0.6263539E+02  0.7818608E-02  0.1387094E+00
          3   -1    0    0    0  501  0.00000000000E+00  0.00000000000E+00  0.23213192041E+04  0.23213192063E+04  0.10100000000E+00 0. -1.
         -3   -1    0    0  501    0 -0.00000000000E+00 -0.00000000000E+00 -0.41647941461E+00  0.42855116706E+00  0.10100000000E+00 0. -1.
          2    1    1    2    0  502 -0.29131923078E+02  0.12032384350E+00  0.15865111625E+04  0.15867786084E+04  0.25500000000E-02 0.  1.
         -2    1    1    2  502    0  0.29131923078E+02 -0.12032384350E+00  0.73439156222E+03  0.73496914907E+03  0.25500000000E-02 0.  1.
<mgrwt>
<rscale>  0 0.62635388E+02</rscale>
<asrwt>0</asrwt>
<pdfrwt beam="1">  1        3 0.35713133E+00 0.62635388E+02</pdfrwt>
<pdfrwt beam="2">  1       -3 0.65001727E-04 0.62635388E+02</pdfrwt>
<totfact> 0.68955897E+03</totfact>
</mgrwt>
</event>
<event>
 4    1  0.1537855E-002  0.5230032E+02  0.7818608E-02  0.1433315E+00
         -3   -1    0    0  501    0 -0.00000000000E+00  0.00000000000E+00  0.18779530372E+02  0.18779801969E+02  0.10100000000E+00 0.  1.
          3   -1    0    0    0  501  0.00000000000E+00 -0.00000000000E+00 -0.36413031279E+02  0.36413171352E+02  0.10100000000E+00 0.  1.
          2    1    1    2    0  502  0.25368448430E+02 -0.54459870615E+01 -0.53786420592E+01  0.26498051772E+02  0.25500000000E-02 0. -1.
         -2    1    1    2  502    0 -0.25368448430E+02  0.54459870615E+01 -0.12254858848E+02  0.28694921549E+02  0.25500000000E-02 0. -1.
<mgrwt>
<rscale>  0 0.52300325E+02</rscale>
<asrwt>0</asrwt>
<pdfrwt beam="2">  1        3 0.56020365E-02 0.52300325E+02</pdfrwt>
<pdfrwt beam="1">  1       -3 0.28891902E-02 0.52300325E+02</pdfrwt>
<totfact> 0.16638897E+05</totfact>
</mgrwt>
</event>
<event>
 4    1  0.1537855E-002  0.4060491E+02  0.7818608E-02  0.1503807E+00
         -3   -1    0    0  501    0 -0.00000000000E+00  0.00000000000E+00  0.27066595076E+01  0.27085432782E+01  0.10100000000E+00 0.  1.
          3   -1    0    0    0  501  0.00000000000E+00 -0.00000000000E+00 -0.15223238491E+03  0.15223241842E+03  0.10100000000E+00 0.  1.
          2    1    1    2    0  502 -0.59222563479E+01  0.19345202273E+02 -0.81238279464E+02  0.83719579717E+02  0.25500000000E-02 0. -1.
         -2    1    1    2  502    0  0.59222563479E+01 -0.19345202273E+02 -0.68287445941E+02  0.71221381979E+02  0.25500000000E-02 0. -1.
<mgrwt>
<rscale>  0 0.40604914E+02</rscale>
<asrwt>0</asrwt>
<pdfrwt beam="2">  1        3 0.23420508E-01 0.40604914E+02</pdfrwt>
<pdfrwt beam="1">  1       -3 0.41655676E-03 0.40604914E+02</pdfrwt>
<totfact> 0.24733816E+05</totfact>
</mgrwt>
</event>
<event>
 4    1  0.1537855E-002  0.6947367E+02  0.7818608E-02  0.1361892E+00
         -3   -1    0    0  501    0 -0.00000000000E+00  0.00000000000E+00  0.20110920430E+01  0.20136266301E+01  0.10100000000E+00 0.  1.
          3   -1    0    0    0  501  0.00000000000E+00 -0.00000000000E+00 -0.59961588834E+03  0.59961589684E+03  0.10100000000E+00 0.  1.
          2    1    1    2    0  502 -0.13805167197E+02  0.28330861685E+02 -0.17228974971E+03  0.17514844626E+03  0.25500000000E-02 0.  1.
         -2    1    1    2  502    0  0.13805167197E+02 -0.28330861685E+02 -0.42531504658E+03  0.42648107721E+03  0.25500000000E-02 0.  1.
<mgrwt>
<rscale>  0 0.69473671E+02</rscale>
<asrwt>0</asrwt>
<pdfrwt beam="2">  1        3 0.92248651E-01 0.69473671E+02</pdfrwt>
<pdfrwt beam="1">  1       -3 0.30959488E-03 0.69473671E+02</pdfrwt>
<totfact> 0.32002116E+04</totfact>
</mgrwt>
</event>
<event>
 4    1  0.1537855E-002  0.7243476E+02  0.7818608E-02  0.1352004E+00
         -3   -1    0    0  501    0 -0.00000000000E+00  0.00000000000E+00  0.19080138187E+03  0.19080140860E+03  0.10100000000E+00 0.  1.
          3   -1    0    0    0  501  0.00000000000E+00 -0.00000000000E+00 -0.68742830205E+01  0.68750249488E+01  0.10100000000E+00 0.  1.
          2    1    1    2    0  502 -0.14251018009E+02  0.33121161195E+02  0.82670487434E+02  0.90191531378E+02  0.25500000000E-02 0.  1.
         -2    1    1    2  502    0  0.14251018009E+02 -0.33121161195E+02  0.10125661141E+03  0.10748490217E+03  0.25500000000E-02 0.  1.
<mgrwt>
<rscale>  0 0.72434762E+02</rscale>
<asrwt>0</asrwt>
<pdfrwt beam="2">  1        3 0.10576411E-02 0.72434762E+02</pdfrwt>
<pdfrwt beam="1">  1       -3 0.29354118E-01 0.72434762E+02</pdfrwt>
<totfact> 0.52768748E+04</totfact>
</mgrwt>
</event>
<event>
 4    1  0.1537855E-002  0.4038119E+02  0.7818608E-02  0.1505425E+00
         -3   -1    0    0  501    0 -0.00000000000E+00  0.00000000000E+00  0.20538451228E+02  0.20538699565E+02  0.10100000000E+00 0.  1.
          3   -1    0    0    0  501  0.00000000000E+00 -0.00000000000E+00 -0.19848131698E+02  0.19848388673E+02  0.10100000000E+00 0.  1.
          2    1    1    2    0  502  0.82225723403E+01 -0.18402516837E+02  0.15271786669E+01  0.20213747872E+02  0.25500000000E-02 0.  1.
         -2    1    1    2  502    0 -0.82225723403E+01  0.18402516837E+02 -0.83685913708E+00  0.20173340367E+02  0.25500000000E-02 0.  1.
<mgrwt>
<rscale>  0 0.40381188E+02</rscale>
<asrwt>0</asrwt>
<pdfrwt beam="2">  1        3 0.30535976E-02 0.40381188E+02</pdfrwt>
<pdfrwt beam="1">  1       -3 0.31598006E-02 0.40381188E+02</pdfrwt>
<totfact> 0.33039994E+05</totfact>
</mgrwt>
</event>
<event>
 4    1  0.1537855E-002  0.7147900E+02  0.7818608E-02  0.1355135E+00
         -3   -1    0    0  501    0 -0.00000000000E+00  0.00000000000E+00  0.26769978635E+02  0.26770169165E+02  0.10100000000E+00 0.  1.
          3   -1    0    0    0  501  0.00000000000E+00 -0.00000000000E+00 -0.47713930483E+02  0.47714037381E+02  0.10100000000E+00 0.  1.
          2    1    1    2    0  502  0.31739010820E+02 -0.13448683878E+02 -0.20307012249E+02  0.40007582517E+02  0.25500000000E-02 0.  1.
         -2    1    1    2  502    0 -0.31739010820E+02  0.13448683878E+02 -0.63693959855E+00  0.34476624029E+02  0.25500000000E-02 0.  1.
<mgrwt>
<rscale>  0 0.71479003E+02</rscale>
<asrwt>0</asrwt>
<pdfrwt beam="2">  1        3 0.73406276E-02 0.71479003E+02</pdfrwt>
<pdfrwt beam="1">  1       -3 0.41184811E-02 0.71479003E+02</pdfrwt>
<totfact> 0.70536069E+04</totfact>
</mgrwt>
</event>
<event>
 4    1  0.1537855E-002  0.4495689E+02  0.7818608E-02  0.1474611E+00
          3   -1    0    0    0  501  0.00000000000E+00  0.00000000000E+00  0.13089401638E+01  0.13128310449E+01  0.10100000000E+00 0. -1.
         -3   -1    0    0  501    0 -0.00000000000E+00 -0.00000000000E+00 -0.38544576331E+03  0.38544577654E+03  0.10100000000E+00 0. -1.
          2    1    1    2    0  502  0.21072953067E+01  0.20134462243E+02 -0.27611423273E+03  0.27685538966E+03  0.25500000000E-02 0.  1.
         -2    1    1    2  502    0 -0.21072953067E+01 -0.20134462243E+02 -0.10802259042E+03  0.10990321793E+03  0.25500000000E-02 0.  1.
<mgrwt>
<rscale>  0 0.44956887E+02</rscale>
<asrwt>0</asrwt>
<pdfrwt beam="1">  1        3 0.20167603E-03 0.44956887E+02</pdfrwt>
<pdfrwt beam="2">  1       -3 0.59299558E-01 0.44956887E+02</pdfrwt>
<totfact> 0.12850288E+05</totfact>
</mgrwt>
</event>
<event>
 4    1  0.1537855E-002  0.6157407E+02  0.7818608E-02  0.1391342E+00
         -3   -1    0    0  501    0 -0.00000000000E+00  0.00000000000E+00  0.69642803081E+02  0.69642876319E+02  0.10100000000E+00 0. -1.
          3   -1    0    0    0  501  0.00000000000E+00 -0.00000000000E+00 -0.13609773566E+02  0.13610148328E+02  0.10100000000E+00 0. -1.
          2    1    1    2    0  502 -0.23955898759E+02 -0.84135659065E+01  0.51558551704E+02  0.57471361885E+02  0.25500000000E-02 0.  1.
         -2    1    1    2  502    0  0.23955898759E+02  0.84135659065E+01  0.44744778113E+01  0.25781662763E+02  0.25500000000E-02 0.  1.
<mgrwt>
<rscale>  0 0.61574067E+02</rscale>
<asrwt>0</asrwt>
<pdfrwt beam="2">  1        3 0.20938458E-02 0.61574067E+02</pdfrwt>
<pdfrwt beam="1">  1       -3 0.10714312E-01 0.61574067E+02</pdfrwt>
<totfact> 0.10211427E+05</totfact>
</mgrwt>
</event>
<event>
 4    1  0.1537855E-002  0.4615017E+02  0.7818608E-02  0.1467287E+00
          3   -1    0    0    0  501  0.00000000000E+00  0.00000000000E+00  0.44977836250E+02  0.44977949650E+02  0.10100000000E+00 0.  1.
         -3   -1    0    0  501    0 -0.00000000000E+00 -0.00000000000E+00 -0.11837921462E+02  0.11838352315E+02  0.10100000000E+00 0.  1.
          2    1    1    2    0  502  0.88746485055E+01 -0.19868664941E+02  0.71186661847E+01  0.22895384849E+02  0.25500000000E-02 0. -1.
         -2    1    1    2  502    0 -0.88746485055E+01  0.19868664941E+02  0.26021248603E+02  0.33920917116E+02  0.25500000000E-02 0. -1.
<mgrwt>
<rscale>  0 0.46150170E+02</rscale>
<asrwt>0</asrwt>
<pdfrwt beam="1">  1        3 0.69197089E-02 0.46150170E+02</pdfrwt>
<pdfrwt beam="2">  1       -3 0.18212606E-02 0.46150170E+02</pdfrwt>
<totfact> 0.22694429E+05</totfact>
</mgrwt>
</event>
<event>
 4    1  0.1537855E-002  0.4615301E+02  0.7818608E-02  0.1467269E+00
          3   -1    0    0    0  501  0.00000000000E+00  0.00000000000E+00  0.60493913269E+03  0.60493914112E+03  0.10100000000E+00 0.  1.
         -3   -1    0    0  501    0 -0.00000000000E+00 -0.00000000000E+00 -0.87738965958E+00  0.88318379442E+00  0.10100000000E+00 0.  1.
          2    1    1    2    0  502 -0.20525868919E+02 -0.10537749867E+02  0.30743537014E+03  0.30829995505E+03  0.25500000000E-02 0. -1.
         -2    1    1    2  502    0  0.20525868919E+02  0.10537749867E+02  0.29662637289E+03  0.29752236986E+03  0.25500000000E-02 0. -1.
<mgrwt>
<rscale>  0 0.46153006E+02</rscale>
<asrwt>0</asrwt>
<pdfrwt beam="1">  1        3 0.93068140E-01 0.46153006E+02</pdfrwt>
<pdfrwt beam="2">  1       -3 0.13542918E-03 0.46153006E+02</pdfrwt>
<totfact> 0.89029712E+04</totfact>
</mgrwt>
</event>
<event>
 4    1  0.1537855E-002  0.6175494E+02  0.7818608E-02  0.1390611E+00
         -3   -1    0    0  501    0 -0.00000000000E+00  0.00000000000E+00  0.33437064634E+02  0.33437217174E+02  0.10100000000E+00 0.  1.
          3   -1    0    0    0  501  0.00000000000E+00 -0.00000000000E+00 -0.28513506039E+02  0.28513684918E+02  0.10100000000E+00 0.  1.
          2    1    1    2    0  502  0.27011271105E+02  0.10052987217E+02  0.13576054791E+02  0.31858760002E+02  0.25500000000E-02 0. -1.
         -2    1    1    2  502    0 -0.27011271105E+02 -0.10052987217E+02 -0.86524961956E+01  0.30092142090E+02  0.25500000000E-02 0. -1.
<mgrwt>
<rscale>  0 0.61754942E+02</rscale>
<asrwt>0</asrwt>
<pdfrwt beam="2">  1        3 0.43867187E-02 0.61754942E+02</pdfrwt>
<pdfrwt beam="1">  1       -3 0.51441893E-02 0.61754942E+02</pdfrwt>
<totfact> 0.10670452E+05</totfact>
</mgrwt>
</event>
<event>
 4    1  0.1537855E-002  0.1148818E+03  0.7818608E-02  0.1251788E+00
          3   -1    0    0    0  501  0.00000000000E+00  0.00000000000E+00  0.12595131831E+02  0.12595536782E+02  0.10100000000E+00 0. -1.
         -3   -1    0    0  501    0 -0.00000000000E+00 -0.00000000000E+00 -0.26195809266E+03  0.26195811213E+03  0.10100000000E+00 0. -1.
          2    1    1    2    0  502 -0.36836135451E+01  0.52612653330E+02 -0.17906344698E+03  0.18666916818E+03  0.25500000000E-02 0.  1.
         -2    1    1    2  502    0  0.36836135451E+01 -0.52612653330E+02 -0.70299513849E+02  0.87884480730E+02  0.25500000000E-02 0.  1.
<mgrwt>
<rscale>  0 0.11488176E+03</rscale>
<asrwt>0</asrwt>
<pdfrwt beam="1">  1        3 0.19377454E-02 0.11488176E+03</pdfrwt>
<pdfrwt beam="2">  1       -3 0.40301274E-01 0.11488176E+03</pdfrwt>
<totfact> 0.13340562E+04</totfact>
</mgrwt>
</event>
<event>
 4    1  0.1537855E-002  0.6074318E+02  0.7818608E-02  0.1394739E+00
         -3   -1    0    0  501    0 -0.00000000000E+00  0.00000000000E+00  0.33399176357E+03  0.33399177884E+03  0.10100000000E+00 0. -1.
          3   -1    0    0    0  501  0.00000000000E+00 -0.00000000000E+00 -0.27609064551E+01  0.27627532379E+01  0.10100000000E+00 0. -1.
          2    1    1    2    0  502  0.16283035682E+02 -0.25624513460E+02  0.16104180585E+03  0.16387866297E+03  0.25500000000E-02 0. -1.
         -2    1    1    2  502    0 -0.16283035682E+02  0.25624513460E+02  0.17018905127E+03  0.17287586911E+03  0.25500000000E-02 0. -1.
<mgrwt>
<rscale>  0 0.60743182E+02</rscale>
<asrwt>0</asrwt>
<pdfrwt beam="2">  1        3 0.42489817E-03 0.60743182E+02</pdfrwt>
<pdfrwt beam="1">  1       -3 0.51383480E-01 0.60743182E+02</pdfrwt>
<totfact> 0.65527858E+04</totfact>
</mgrwt>
</event>
<event>
 4    1  0.1537855E-002  0.4933499E+02  0.7818608E-02  0.1448962E+00
          3   -1    0    0    0  501  0.00000000000E+00  0.00000000000E+00  0.38995479002E+03  0.38995480310E+03  0.10100000000E+00 0.  1.
         -3   -1    0    0  501    0 -0.00000000000E+00 -0.00000000000E+00 -0.15587523945E+01  0.15620211353E+01  0.10100000000E+00 0.  1.
          2    1    1    2    0  502  0.20632001480E+02  0.23396387808E+00  0.30147966725E+03  0.30218491689E+03  0.25500000000E-02 0. -1.
         -2    1    1    2  502    0 -0.20632001480E+02 -0.23396387808E+00  0.86916370383E+02  0.89331907353E+02  0.25500000000E-02 0. -1.
<mgrwt>
<rscale>  0 0.49334994E+02</rscale>
<asrwt>0</asrwt>
<pdfrwt beam="1">  1        3 0.59993393E-01 0.49334994E+02</pdfrwt>
<pdfrwt beam="2">  1       -3 0.24006013E-03 0.49334994E+02</pdfrwt>
<totfact> 0.10156056E+05</totfact>
</mgrwt>
</event>
<event>
 4    1  0.1537855E-002  0.4389045E+02  0.7818608E-02  0.1481390E+00
         -3   -1    0    0  501    0 -0.00000000000E+00  0.00000000000E+00  0.58627519379E+01  0.58636218573E+01  0.10100000000E+00 0.  1.
          3   -1    0    0    0  501  0.00000000000E+00 -0.00000000000E+00 -0.82137524476E+02  0.82137586573E+02  0.10100000000E+00 0.  1.
          2    1    1    2    0  502 -0.55574082425E+00 -0.20717276517E+02 -0.23668070934E+02  0.31459370343E+02  0.25500000000E-02 0.  1.
         -2    1    1    2  502    0  0.55574082425E+00  0.20717276517E+02 -0.52606701604E+02  0.56541838088E+02  0.25500000000E-02 0.  1.
<mgrwt>
<rscale>  0 0.43890452E+02</rscale>
<asrwt>0</asrwt>
<pdfrwt beam="2">  1        3 0.12636613E-01 0.43890452E+02</pdfrwt>
<pdfrwt beam="1">  1       -3 0.90203359E-03 0.43890452E+02</pdfrwt>
<totfact> 0.23753195E+05</totfact>
</mgrwt>
</event>
<event>
 4    1  0.1537855E-002  0.4931296E+02  0.7818608E-02  0.1449083E+00
          3   -1    0    0    0  501  0.00000000000E+00  0.00000000000E+00  0.73349694643E+01  0.73356647990E+01  0.10100000000E+00 0. -1.
         -3   -1    0    0  501    0 -0.00000000000E+00 -0.00000000000E+00 -0.82878026171E+02  0.82878087713E+02  0.10100000000E+00 0. -1.
          2    1    1    2    0  502  0.74437674692E+00 -0.23879273993E+02 -0.26618395036E+02  0.35767482215E+02  0.25500000000E-02 0.  1.
         -2    1    1    2  502    0 -0.74437674692E+00  0.23879273993E+02 -0.48924661671E+02  0.54446270298E+02  0.25500000000E-02 0.  1.
<mgrwt>
<rscale>  0 0.49312957E+02</rscale>
<asrwt>0</asrwt>
<pdfrwt beam="1">  1        3 0.11285151E-02 0.49312957E+02</pdfrwt>
<pdfrwt beam="2">  1       -3 0.12750523E-01 0.49312957E+02</pdfrwt>
<totfact> 0.17687302E+05</totfact>
</mgrwt>
</event>
<event>
 4    1  0.1537855E-002  0.8204705E+02  0.7818608E-02  0.1323341E+00
          3   -1    0    0    0  501  0.00000000000E+00  0.00000000000E+00  0.60733635364E+03  0.60733636204E+03  0.10100000000E+00 0.  1.
         -3   -1    0    0  501    0 -0.00000000000E+00 -0.00000000000E+00 -0.27700725112E+01  0.27719131872E+01  0.10100000000E+00 0.  1.
          2    1    1    2    0  502  0.31602405857E+02 -0.81119977945E+01  0.48720289437E+03  0.48829414992E+03  0.25500000000E-02 0.  1.
         -2    1    1    2  502    0 -0.31602405857E+02  0.81119977945E+01  0.11736338676E+03  0.12181412530E+03  0.25500000000E-02 0.  1.
<mgrwt>
<rscale>  0 0.82047055E+02</rscale>
<asrwt>0</asrwt>
<pdfrwt beam="1">  1        3 0.93436611E-01 0.82047055E+02</pdfrwt>
<pdfrwt beam="2">  1       -3 0.42630675E-03 0.82047055E+02</pdfrwt>
<totfact> 0.20529148E+04</totfact>
</mgrwt>
</event>
<event>
 4    1  0.1537855E-002  0.8823328E+02  0.7818608E-02  0.1307187E+00
         -3   -1    0    0  501    0 -0.00000000000E+00  0.00000000000E+00  0.11243336595E+03  0.11243341132E+03  0.10100000000E+00 0. -1.
          3   -1    0    0    0  501  0.00000000000E+00 -0.00000000000E+00 -0.17310304297E+02  0.17310598946E+02  0.10100000000E+00 0. -1.
          2    1    1    2    0  502 -0.24931872127E+02 -0.28806189789E+02  0.80273461396E+02  0.88855069799E+02  0.25500000000E-02 0.  1.
         -2    1    1    2  502    0  0.24931872127E+02  0.28806189789E+02  0.14849600259E+02  0.40888940464E+02  0.25500000000E-02 0.  1.
<mgrwt>
<rscale>  0 0.88233278E+02</rscale>
<asrwt>0</asrwt>
<pdfrwt beam="2">  1        3 0.26631500E-02 0.88233278E+02</pdfrwt>
<pdfrwt beam="1">  1       -3 0.17297467E-01 0.88233278E+02</pdfrwt>
<totfact> 0.35618486E+04</totfact>
</mgrwt>
</event>
<event>
 4    1  0.1537855E-002  0.4614477E+02  0.7818608E-02  0.1467319E+00
          3   -1    0    0    0  501  0.00000000000E+00  0.00000000000E+00  0.25365796874E+01  0.25385896696E+01  0.10100000000E+00 0.  1.
         -3   -1    0    0  501    0 -0.00000000000E+00 -0.00000000000E+00 -0.20977813559E+03  0.20977815990E+03  0.10100000000E+00 0.  1.
          2    1    1    2    0  502  0.18442078034E+02  0.13506605709E+02 -0.11802175990E+03  0.12021511742E+03  0.25500000000E-02 0. -1.
         -2    1    1    2  502    0 -0.18442078034E+02 -0.13506605709E+02 -0.89219796004E+02  0.92101632154E+02  0.25500000000E-02 0. -1.
<mgrwt>
<rscale>  0 0.46144768E+02</rscale>
<asrwt>0</asrwt>
<pdfrwt beam="1">  1        3 0.39039968E-03 0.46144768E+02</pdfrwt>
<pdfrwt beam="2">  1       -3 0.32273702E-01 0.46144768E+02</pdfrwt>
<totfact> 0.16160109E+05</totfact>
</mgrwt>
</event>
<event>
 4    1  0.1537855E-002  0.7015392E+02  0.7818608E-02  0.1359570E+00
          3   -1    0    0    0  501  0.00000000000E+00  0.00000000000E+00  0.12790718199E+04  0.12790718238E+04  0.10100000000E+00 0.  1.
         -3   -1    0    0  501    0 -0.00000000000E+00 -0.00000000000E+00 -0.95928696480E+00  0.96458928091E+00  0.10100000000E+00 0.  1.
          2    1    1    2    0  502 -0.24834341314E+02 -0.14696739965E+02  0.10029070148E+04  0.10033220913E+04  0.25500000000E-02 0. -1.
         -2    1    1    2  502    0  0.24834341314E+02  0.14696739965E+02  0.27520551812E+03  0.27671432179E+03  0.25500000000E-02 0. -1.
<mgrwt>
<rscale>  0 0.70153918E+02</rscale>
<asrwt>0</asrwt>
<pdfrwt beam="1">  1        3 0.19678146E+00 0.70153918E+02</pdfrwt>
<pdfrwt beam="2">  1       -3 0.14799021E-03 0.70153918E+02</pdfrwt>
<totfact> 0.15062082E+04</totfact>
</mgrwt>
</event>
<event>
 4    1  0.1537855E-002  0.6930751E+02  0.7818608E-02  0.1362464E+00
          3   -1    0    0    0  501  0.00000000000E+00  0.00000000000E+00  0.26762822244E+01  0.26781873617E+01  0.10100000000E+00 0. -1.
         -3   -1    0    0  501    0 -0.00000000000E+00 -0.00000000000E+00 -0.44855151620E+03  0.44855152757E+03  0.10100000000E+00 0. -1.
          2    1    1    2    0  502  0.21465470085E+02 -0.16192784021E+02 -0.36526567198E+03  0.36625398810E+03  0.25500000000E-02 0.  1.
         -2    1    1    2  502    0 -0.21465470085E+02  0.16192784021E+02 -0.80609561992E+02  0.84975726836E+02  0.25500000000E-02 0.  1.
<mgrwt>
<rscale>  0 0.69307513E+02</rscale>
<asrwt>0</asrwt>
<pdfrwt beam="1">  1        3 0.41188351E-03 0.69307513E+02</pdfrwt>
<pdfrwt beam="2">  1       -3 0.69008013E-01 0.69307513E+02</pdfrwt>
<totfact> 0.39334139E+04</totfact>
</mgrwt>
</event>
<event>
 4    1  0.1537855E-002  0.4251410E+02  0.7818608E-02  0.1490485E+00
          3   -1    0    0    0  501  0.00000000000E+00  0.00000000000E+00  0.19760593034E+03  0.19760595615E+03  0.10100000000E+00 0.  1.
         -3   -1    0    0  501    0 -0.00000000000E+00 -0.00000000000E+00 -0.22855416273E+01  0.22877721762E+01  0.10100000000E+00 0.  1.
          2    1    1    2    0  502  0.10047858286E+02 -0.18611733216E+02  0.87679455242E+02  0.90194472932E+02  0.25500000000E-02 0.  1.
         -2    1    1    2  502    0 -0.10047858286E+02  0.18611733216E+02  0.10764093347E+03  0.10969925539E+03  0.25500000000E-02 0.  1.
<mgrwt>
<rscale>  0 0.42514096E+02</rscale>
<asrwt>0</asrwt>
<pdfrwt beam="1">  1        3 0.30401092E-01 0.42514096E+02</pdfrwt>
<pdfrwt beam="2">  1       -3 0.35179529E-03 0.42514096E+02</pdfrwt>
<totfact> 0.20227143E+05</totfact>
</mgrwt>
</event>
<event>
 4    1  0.1537855E-002  0.5069739E+02  0.7818608E-02  0.1441616E+00
          3   -1    0    0    0  501  0.00000000000E+00  0.00000000000E+00  0.11072513059E+01  0.11118482155E+01  0.10100000000E+00 0. -1.
         -3   -1    0    0  501    0 -0.00000000000E+00 -0.00000000000E+00 -0.57910997182E+03  0.57910998062E+03  0.10100000000E+00 0. -1.
          2    1    1    2    0  502 -0.22602418841E+02 -0.11423389124E+02 -0.27649939374E+03  0.27765676275E+03  0.25500000000E-02 0. -1.
         -2    1    1    2  502    0  0.22602418841E+02  0.11423389124E+02 -0.30150332677E+03  0.30256506609E+03  0.25500000000E-02 0. -1.
<mgrwt>
<rscale>  0 0.50697394E+02</rscale>
<asrwt>0</asrwt>
<pdfrwt beam="1">  1        3 0.17070110E-03 0.50697394E+02</pdfrwt>
<pdfrwt beam="2">  1       -3 0.89093955E-01 0.50697394E+02</pdfrwt>
<totfact> 0.72875187E+04</totfact>
</mgrwt>
</event>
<event>
 4    1  0.1537855E-002  0.9789516E+02  0.7818608E-02  0.1284785E+00
         -3   -1    0    0  501    0 -0.00000000000E+00  0.00000000000E+00  0.19685948067E+03  0.19685950657E+03  0.10100000000E+00 0.  1.
          3   -1    0    0    0  501  0.00000000000E+00 -0.00000000000E+00 -0.12170199860E+02  0.12170618950E+02  0.10100000000E+00 0.  1.
          2    1    1    2    0  502 -0.28805898584E+02 -0.29436286505E+02  0.35867884112E+02  0.54614831993E+02  0.25500000000E-02 0. -1.
         -2    1    1    2  502    0  0.28805898584E+02  0.29436286505E+02  0.14882139669E+03  0.15441529353E+03  0.25500000000E-02 0. -1.
<mgrwt>
<rscale>  0 0.97895163E+02</rscale>
<asrwt>0</asrwt>
<pdfrwt beam="2">  1        3 0.18723728E-02 0.97895163E+02</pdfrwt>
<pdfrwt beam="1">  1       -3 0.30286107E-01 0.97895163E+02</pdfrwt>
<totfact> 0.23122037E+04</totfact>
</mgrwt>
</event>
<event>
 4    1  0.1537855E-002  0.4855878E+02  0.7818608E-02  0.1453274E+00
          3   -1    0    0    0  501  0.00000000000E+00  0.00000000000E+00  0.14087177072E+01  0.14123337348E+01  0.10100000000E+00 0.  1.
         -3   -1    0    0  501    0 -0.00000000000E+00 -0.00000000000E+00 -0.41791766130E+03  0.41791767350E+03  0.10100000000E+00 0.  1.
          2    1    1    2    0  502  0.15237803469E+02  0.18862144445E+02 -0.21889251914E+03  0.22023148297E+03  0.25500000000E-02 0. -1.
         -2    1    1    2  502    0 -0.15237803469E+02 -0.18862144445E+02 -0.19761642445E+03  0.19909852427E+03  0.25500000000E-02 0. -1.
<mgrwt>
<rscale>  0 0.48558778E+02</rscale>
<asrwt>0</asrwt>
<pdfrwt beam="1">  1        3 0.21700523E-03 0.48558778E+02</pdfrwt>
<pdfrwt beam="2">  1       -3 0.64295205E-01 0.48558778E+02</pdfrwt>
<totfact> 0.10124976E+05</totfact>
</mgrwt>
</event>
<event>
 4    1  0.1537855E-002  0.4828901E+02  0.7818608E-02  0.1454795E+00
         -3   -1    0    0  501    0 -0.00000000000E+00  0.00000000000E+00  0.23516879325E+03  0.23516881494E+03  0.10100000000E+00 0. -1.
          3   -1    0    0    0  501  0.00000000000E+00 -0.00000000000E+00 -0.24778373468E+01  0.24798949408E+01  0.10100000000E+00 0. -1.
          2    1    1    2    0  502  0.68957753773E+01  0.21557841787E+02  0.15771579037E+03  0.15933161268E+03  0.25500000000E-02 0.  1.
         -2    1    1    2  502    0 -0.68957753773E+01 -0.21557841787E+02  0.74975165535E+02  0.78317097201E+02  0.25500000000E-02 0.  1.
<mgrwt>
<rscale>  0 0.48289009E+02</rscale>
<asrwt>0</asrwt>
<pdfrwt beam="2">  1        3 0.38136570E-03 0.48289009E+02</pdfrwt>
<pdfrwt beam="1">  1       -3 0.36179973E-01 0.48289009E+02</pdfrwt>
<totfact> 0.13787522E+05</totfact>
</mgrwt>
</event>
<event>
 4    1  0.1537855E-002  0.5682042E+02  0.7818608E-02  0.1411681E+00
          3   -1    0    0    0  501  0.00000000000E+00  0.00000000000E+00  0.42391118961E+02  0.42391239281E+02  0.10100000000E+00 0. -1.
         -3   -1    0    0  501    0 -0.00000000000E+00 -0.00000000000E+00 -0.19040029862E+02  0.19040297744E+02  0.10100000000E+00 0. -1.
          2    1    1    2    0  502  0.22715868845E+02  0.13378746805E+02  0.23124459904E+02  0.35067680502E+02  0.25500000000E-02 0.  1.
         -2    1    1    2  502    0 -0.22715868845E+02 -0.13378746805E+02  0.22662919511E+00  0.26363856523E+02  0.25500000000E-02 0.  1.
<mgrwt>
<rscale>  0 0.56820422E+02</rscale>
<asrwt>0</asrwt>
<pdfrwt beam="1">  1        3 0.65217403E-02 0.56820422E+02</pdfrwt>
<pdfrwt beam="2">  1       -3 0.29292653E-02 0.56820422E+02</pdfrwt>
<totfact> 0.13246269E+05</totfact>
</mgrwt>
</event>
<event>
 4    1  0.1537855E-002  0.4904894E+02  0.7818608E-02  0.1450540E+00
         -3   -1    0    0  501    0 -0.00000000000E+00  0.00000000000E+00  0.14695585279E+02  0.14695932352E+02  0.10100000000E+00 0.  1.
          3   -1    0    0    0  501  0.00000000000E+00 -0.00000000000E+00 -0.40926337330E+02  0.40926461956E+02  0.10100000000E+00 0.  1.
          2    1    1    2    0  502  0.20081160700E+02  0.41125137650E+01  0.21532364068E+01  0.20610730654E+02  0.25500000000E-02 0. -1.
         -2    1    1    2  502    0 -0.20081160700E+02 -0.41125137650E+01 -0.28383988458E+02  0.35011663654E+02  0.25500000000E-02 0. -1.
<mgrwt>
<rscale>  0 0.49048939E+02</rscale>
<asrwt>0</asrwt>
<pdfrwt beam="2">  1        3 0.62963958E-02 0.49048939E+02</pdfrwt>
<pdfrwt beam="1">  1       -3 0.22608956E-02 0.49048939E+02</pdfrwt>
<totfact> 0.19545352E+05</totfact>
</mgrwt>
</event>
<event>
 4    1  0.1537855E-002  0.9384870E+02  0.7818608E-02  0.1293790E+00
         -3   -1    0    0  501    0 -0.00000000000E+00  0.00000000000E+00  0.86188896471E+03  0.86188897063E+03  0.10100000000E+00 0.  1.
          3   -1    0    0    0  501  0.00000000000E+00 -0.00000000000E+00 -0.25537269482E+01  0.25557234448E+01  0.10100000000E+00 0.  1.
          2    1    1    2    0  502  0.44543546797E+02 -0.52873603213E+01  0.55656990202E+03  0.55837455134E+03  0.25500000000E-02 0.  1.
         -2    1    1    2  502    0 -0.44543546797E+02  0.52873603213E+01  0.30276533574E+03  0.30607014273E+03  0.25500000000E-02 0.  1.
<mgrwt>
<rscale>  0 0.93848699E+02</rscale>
<asrwt>0</asrwt>
<pdfrwt beam="2">  1        3 0.39303479E-03 0.93848699E+02</pdfrwt>
<pdfrwt beam="1">  1       -3 0.13259856E+00 0.93848699E+02</pdfrwt>
<totfact> 0.10670004E+04</totfact>
</mgrwt>
</event>
<event>
 4    1  0.1537855E-002  0.4129841E+02  0.7818608E-02  0.1498868E+00
         -3   -1    0    0  501    0 -0.00000000000E+00  0.00000000000E+00  0.12213692756E+02  0.12214110354E+02  0.10100000000E+00 0.  1.
          3   -1    0    0    0  501  0.00000000000E+00 -0.00000000000E+00 -0.34909705971E+02  0.34909852076E+02  0.10100000000E+00 0.  1.
          2    1    1    2    0  502  0.12527450107E+02 -0.16111860293E+02 -0.14931125538E+02  0.25287695913E+02  0.25500000000E-02 0.  1.
         -2    1    1    2  502    0 -0.12527450107E+02  0.16111860293E+02 -0.77648876770E+01  0.21836266517E+02  0.25500000000E-02 0.  1.
<mgrwt>
<rscale>  0 0.41298412E+02</rscale>
<asrwt>0</asrwt>
<pdfrwt beam="2">  1        3 0.53707673E-02 0.41298412E+02</pdfrwt>
<pdfrwt beam="1">  1       -3 0.18790730E-02 0.41298412E+02</pdfrwt>
<totfact> 0.30675610E+05</totfact>
</mgrwt>
</event>
<event>
 4    1  0.1537855E-002  0.6257079E+02  0.7818608E-02  0.1387349E+00
         -3   -1    0    0  501    0 -0.00000000000E+00  0.00000000000E+00  0.27897591973E+03  0.27897593801E+03  0.10100000000E+00 0. -1.
          3   -1    0    0    0  501  0.00000000000E+00 -0.00000000000E+00 -0.35077152296E+01  0.35091690087E+01  0.10100000000E+00 0. -1.
          2    1    1    2    0  502 -0.25224435082E+02 -0.23314343463E+01  0.54847784125E+02  0.60415123448E+02  0.25500000000E-02 0.  1.
         -2    1    1    2  502    0  0.25224435082E+02  0.23314343463E+01  0.22062042038E+03  0.22206998357E+03  0.25500000000E-02 0.  1.
<mgrwt>
<rscale>  0 0.62570792E+02</rscale>
<asrwt>0</asrwt>
<pdfrwt beam="2">  1        3 0.53976184E-03 0.62570792E+02</pdfrwt>
<pdfrwt beam="1">  1       -3 0.42919477E-01 0.62570792E+02</pdfrwt>
<totfact> 0.66388364E+04</totfact>
</mgrwt>
</event>
<event>
 4    1  0.1537855E-002  0.4175634E+02  0.7818608E-02  0.1495671E+00
         -3   -1    0    0  501    0 -0.00000000000E+00  0.00000000000E+00  0.21400174570E+03  0.21400176953E+03  0.10100000000E+00 0.  1.
          3   -1    0    0    0  501  0.00000000000E+00 -0.00000000000E+00 -0.20356135845E+01  0.20381176771E+01  0.10100000000E+00 0.  1.
          2    1    1    2    0  502  0.17754274769E+02 -0.10506193006E+02  0.89375534297E+02  0.91725571688E+02  0.25500000000E-02 0.  1.
         -2    1    1    2  502    0 -0.17754274769E+02  0.10506193006E+02  0.12259059782E+03  0.12431431552E+03  0.25500000000E-02 0.  1.
<mgrwt>
<rscale>  0 0.41756337E+02</rscale>
<asrwt>0</asrwt>
<pdfrwt beam="2">  1        3 0.31336579E-03 0.41756337E+02</pdfrwt>
<pdfrwt beam="1">  1       -3 0.32923538E-01 0.41756337E+02</pdfrwt>
<totfact> 0.20494036E+05</totfact>
</mgrwt>
</event>
<event>
 4    1  0.1537855E-002  0.7741823E+02  0.7818608E-02  0.1336542E+00
         -3   -1    0    0  501    0 -0.00000000000E+00  0.00000000000E+00  0.22219693031E+03  0.22219695327E+03  0.10100000000E+00 0.  1.
          3   -1    0    0    0  501  0.00000000000E+00 -0.00000000000E+00 -0.67431467744E+01  0.67439031296E+01  0.10100000000E+00 0.  1.
          2    1    1    2    0  502  0.25926495684E+02 -0.10272587644E+02  0.18711459410E+03  0.18918134307E+03  0.25500000000E-02 0. -1.
         -2    1    1    2  502    0 -0.25926495684E+02  0.10272587644E+02  0.28339189445E+02  0.39759513330E+02  0.25500000000E-02 0. -1.
<mgrwt>
<rscale>  0 0.77418234E+02</rscale>
<asrwt>0</asrwt>
<pdfrwt beam="2">  1        3 0.10374671E-02 0.77418234E+02</pdfrwt>
<pdfrwt beam="1">  1       -3 0.34184205E-01 0.77418234E+02</pdfrwt>
<totfact> 0.41856920E+04</totfact>
</mgrwt>
</event>
<event>
 4    1  0.1537855E-002  0.4643726E+02  0.7818608E-02  0.1465563E+00
         -3   -1    0    0  501    0 -0.00000000000E+00  0.00000000000E+00  0.31743653869E+03  0.31743655476E+03  0.10100000000E+00 0. -1.
          3   -1    0    0    0  501  0.00000000000E+00 -0.00000000000E+00 -0.16967898613E+01  0.16997931737E+01  0.10100000000E+00 0. -1.
          2    1    1    2    0  502  0.20749075605E+02 -0.84078353801E+01  0.11556732699E+03  0.11771585666E+03  0.25500000000E-02 0. -1.
         -2    1    1    2  502    0 -0.20749075605E+02  0.84078353801E+01  0.20017242184E+03  0.20142049127E+03  0.25500000000E-02 0. -1.
<mgrwt>
<rscale>  0 0.46437265E+02</rscale>
<asrwt>0</asrwt>
<pdfrwt beam="2">  1        3 0.26127693E-03 0.46437265E+02</pdfrwt>
<pdfrwt beam="1">  1       -3 0.48836608E-01 0.46437265E+02</pdfrwt>
<totfact> 0.13204926E+05</totfact>
</mgrwt>
</event>
<event>
 4    1  0.1537855E-002  0.1074820E+03  0.7818608E-02  0.1265305E+00
          3   -1    0    0    0  501  0.00000000000E+00  0.00000000000E+00  0.19393974197E+03  0.19393976827E+03  0.10100000000E+00 0. -1.
         -3   -1    0    0  501    0 -0.00000000000E+00 -0.00000000000E+00 -0.14891523813E+02  0.14891866319E+02  0.10100000000E+00 0. -1.
          2    1    1    2    0  502 -0.30363364667E+02 -0.41391835789E+02  0.58627086177E+02  0.77925305415E+02  0.25500000000E-02 0. -1.
         -2    1    1    2  502    0  0.30363364667E+02  0.41391835789E+02  0.12042113198E+03  0.13090632917E+03  0.25500000000E-02 0. -1.
<mgrwt>
<rscale>  0 0.10748203E+03</rscale>
<asrwt>0</asrwt>
<pdfrwt beam="1">  1        3 0.29836913E-01 0.10748203E+03</pdfrwt>
<pdfrwt beam="2">  1       -3 0.22910319E-02 0.10748203E+03</pdfrwt>
<totfact> 0.17916422E+04</totfact>
</mgrwt>
</event>
<event>
 4    1  0.1537855E-002  0.5665753E+02  0.7818608E-02  0.1412419E+00
         -3   -1    0    0  501    0 -0.00000000000E+00  0.00000000000E+00  0.62048172010E+03  0.62048172832E+03  0.10100000000E+00 0. -1.
          3   -1    0    0    0  501  0.00000000000E+00 -0.00000000000E+00 -0.12914004957E+01  0.12953440625E+01  0.10100000000E+00 0. -1.
          2    1    1    2    0  502  0.17336382495E+02 -0.18110356660E+02  0.45434944761E+03  0.45504060888E+03  0.25500000000E-02 0.  1.
         -2    1    1    2  502    0 -0.17336382495E+02  0.18110356660E+02  0.16484087199E+03  0.16673646351E+03  0.25500000000E-02 0.  1.
<mgrwt>
<rscale>  0 0.56657531E+02</rscale>
<asrwt>0</asrwt>
<pdfrwt beam="2">  1        3 0.19898113E-03 0.56657531E+02</pdfrwt>
<pdfrwt beam="1">  1       -3 0.95458957E-01 0.56657531E+02</pdfrwt>
<totfact> 0.52358506E+04</totfact>
</mgrwt>
</event>
<event>
 4    1  0.1537855E-002  0.4773620E+02  0.7818608E-02  0.1457949E+00
          3   -1    0    0    0  501  0.00000000000E+00  0.00000000000E+00  0.22341578737E+01  0.22364396716E+01  0.10100000000E+00 0.  1.
         -3   -1    0    0  501    0 -0.00000000000E+00 -0.00000000000E+00 -0.25485675852E+03  0.25485677853E+03  0.10100000000E+00 0.  1.
          2    1    1    2    0  502  0.19958862434E+01  0.22537671039E+02 -0.85381358606E+02  0.88328401897E+02  0.25500000000E-02 0. -1.
         -2    1    1    2  502    0 -0.19958862434E+01 -0.22537671039E+02 -0.16724124204E+03  0.16876481631E+03  0.25500000000E-02 0. -1.
<mgrwt>
<rscale>  0 0.47736197E+02</rscale>
<asrwt>0</asrwt>
<pdfrwt beam="1">  1        3 0.34389386E-03 0.47736197E+02</pdfrwt>
<pdfrwt beam="2">  1       -3 0.39208886E-01 0.47736197E+02</pdfrwt>
<totfact> 0.13703505E+05</totfact>
</mgrwt>
</event>
<event>
 4    1  0.1537855E-002  0.6702015E+02  0.7818608E-02  0.1370530E+00
         -3   -1    0    0  501    0 -0.00000000000E+00  0.00000000000E+00  0.51498138422E+03  0.51498139413E+03  0.10100000000E+00 0.  1.
          3   -1    0    0    0  501  0.00000000000E+00 -0.00000000000E+00 -0.21793366737E+01  0.21816758094E+01  0.10100000000E+00 0.  1.
          2    1    1    2    0  502 -0.79979875612E+01 -0.28871878299E+02  0.37224464670E+03  0.37344829651E+03  0.25500000000E-02 0.  1.
         -2    1    1    2  502    0  0.79979875612E+01  0.28871878299E+02  0.14055740084E+03  0.14371477342E+03  0.25500000000E-02 0.  1.
<mgrwt>
<rscale>  0 0.67020153E+02</rscale>
<asrwt>0</asrwt>
<pdfrwt beam="2">  1        3 0.33546346E-03 0.67020153E+02</pdfrwt>
<pdfrwt beam="1">  1       -3 0.79228040E-01 0.67020153E+02</pdfrwt>
<totfact> 0.39140442E+04</totfact>
</mgrwt>
</event>
<event>
 4    1  0.1537855E-002  0.4615865E+02  0.7818608E-02  0.1467235E+00
         -3   -1    0    0  501    0 -0.00000000000E+00  0.00000000000E+00  0.12872442536E+03  0.12872446498E+03  0.10100000000E+00 0. -1.
          3   -1    0    0    0  501  0.00000000000E+00 -0.00000000000E+00 -0.41372926903E+01  0.41385253177E+01  0.10100000000E+00 0. -1.
          2    1    1    2    0  502  0.22276840259E+02 -0.60319899615E+01  0.62616920744E+02  0.66734708247E+02  0.25500000000E-02 0. -1.
         -2    1    1    2  502    0 -0.22276840259E+02  0.60319899615E+01  0.61970211921E+02  0.66128282050E+02  0.25500000000E-02 0. -1.
<mgrwt>
<rscale>  0 0.46158646E+02</rscale>
<asrwt>0</asrwt>
<pdfrwt beam="2">  1        3 0.63660445E-03 0.46158646E+02</pdfrwt>
<pdfrwt beam="1">  1       -3 0.19803855E-01 0.46158646E+02</pdfrwt>
<totfact> 0.18935751E+05</totfact>
</mgrwt>
</event>
<event>
 4    1  0.1537855E-002  0.6781132E+02  0.7818608E-02  0.1367698E+00
         -3   -1    0    0  501    0 -0.00000000000E+00  0.00000000000E+00  0.20138104127E+03  0.20138106660E+03  0.10100000000E+00 0.  1.
          3   -1    0    0    0  501  0.00000000000E+00 -0.00000000000E+00 -0.57080772314E+01  0.57089707198E+01  0.10100000000E+00 0.  1.
          2    1    1    2    0  502 -0.18078216426E+02  0.28643876354E+02  0.93204882058E+02  0.99168763266E+02  0.25500000000E-02 0. -1.
         -2    1    1    2  502    0  0.18078216426E+02 -0.28643876354E+02  0.10246808198E+03  0.10792127406E+03  0.25500000000E-02 0. -1.
<mgrwt>
<rscale>  0 0.67811317E+02</rscale>
<asrwt>0</asrwt>
<pdfrwt beam="2">  1        3 0.87823636E-03 0.67811317E+02</pdfrwt>
<pdfrwt beam="1">  1       -3 0.30981771E-01 0.67811317E+02</pdfrwt>
<totfact> 0.61590781E+04</totfact>
</mgrwt>
</event>
<event>
 4    1  0.1537855E-002  0.9574289E+02  0.7818608E-02  0.1289512E+00
         -3   -1    0    0  501    0 -0.00000000000E+00  0.00000000000E+00  0.54187985501E+03  0.54187986442E+03  0.10100000000E+00 0. -1.
          3   -1    0    0    0  501  0.00000000000E+00 -0.00000000000E+00 -0.42285078174E+01  0.42297138629E+01  0.10100000000E+00 0. -1.
          2    1    1    2    0  502 -0.17770954553E+01 -0.21863555470E+02  0.51152734958E+03  0.51199746337E+03  0.25500000000E-02 0. -1.
         -2    1    1    2  502    0  0.17770954553E+01  0.21863555470E+02  0.26123997617E+02  0.34112114916E+02  0.25500000000E-02 0. -1.
<mgrwt>
<rscale>  0 0.95742887E+02</rscale>
<asrwt>0</asrwt>
<pdfrwt beam="2">  1        3 0.65063321E-03 0.95742887E+02</pdfrwt>
<pdfrwt beam="1">  1       -3 0.83366218E-01 0.95742887E+02</pdfrwt>
<totfact> 0.14763152E+04</totfact>
</mgrwt>
</event>
<event>
 4    1  0.1537855E-002  0.4391363E+02  0.7818608E-02  0.1481240E+00
          3   -1    0    0    0  501  0.00000000000E+00  0.00000000000E+00  0.92960252916E+02  0.92960307784E+02  0.10100000000E+00 0.  1.
         -3   -1    0    0  501    0 -0.00000000000E+00 -0.00000000000E+00 -0.51855582710E+01  0.51865417748E+01  0.10100000000E+00 0.  1.
          2    1    1    2    0  502 -0.19170811412E+02  0.79894161154E+01  0.59809405824E+02  0.63312840811E+02  0.25500000000E-02 0. -1.
         -2    1    1    2  502    0  0.19170811412E+02 -0.79894161154E+01  0.27965288821E+02  0.34834008747E+02  0.25500000000E-02 0. -1.
<mgrwt>
<rscale>  0 0.43913632E+02</rscale>
<asrwt>0</asrwt>
<pdfrwt beam="1">  1        3 0.14301657E-01 0.43913632E+02</pdfrwt>
<pdfrwt beam="2">  1       -3 0.79785807E-03 0.43913632E+02</pdfrwt>
<totfact> 0.23154659E+05</totfact>
</mgrwt>
</event>
<event>
 4    1  0.1537855E-002  0.9445337E+02  0.7818608E-02  0.1292412E+00
         -3   -1    0    0  501    0 -0.00000000000E+00  0.00000000000E+00  0.82188005692E+01  0.82194211351E+01  0.10100000000E+00 0. -1.
          3   -1    0    0    0  501  0.00000000000E+00 -0.00000000000E+00 -0.27136205092E+03  0.27136206972E+03  0.10100000000E+00 0. -1.
          2    1    1    2    0  502 -0.40196658238E+01 -0.44963263757E+02 -0.17264064813E+03  0.17844507893E+03  0.25500000000E-02 0.  1.
         -2    1    1    2  502    0  0.40196658238E+01  0.44963263757E+02 -0.90502602223E+02  0.10113641192E+03  0.25500000000E-02 0.  1.
<mgrwt>
<rscale>  0 0.94453374E+02</rscale>
<asrwt>0</asrwt>
<pdfrwt beam="2">  1        3 0.41748050E-01 0.94453374E+02</pdfrwt>
<pdfrwt beam="1">  1       -3 0.12644802E-02 0.94453374E+02</pdfrwt>
<totfact> 0.22588409E+04</totfact>
</mgrwt>
</event>
<event>
 4    1  0.1537855E-002  0.5192733E+02  0.7818608E-02  0.1435215E+00
         -3   -1    0    0  501    0 -0.00000000000E+00  0.00000000000E+00  0.16653630179E+01  0.16684229025E+01  0.10100000000E+00 0. -1.
          3   -1    0    0    0  501  0.00000000000E+00 -0.00000000000E+00 -0.40440919246E+03  0.40440920507E+03  0.10100000000E+00 0. -1.
          2    1    1    2    0  502 -0.95387956676E+01  0.18240467751E+02 -0.77624047484E+02  0.80306886634E+02  0.25500000000E-02 0.  1.
         -2    1    1    2  502    0  0.95387956676E+01 -0.18240467751E+02 -0.32511978195E+03  0.32577074134E+03  0.25500000000E-02 0.  1.
<mgrwt>
<rscale>  0 0.51927332E+02</rscale>
<asrwt>0</asrwt>
<pdfrwt beam="2">  1        3 0.62216957E-01 0.51927332E+02</pdfrwt>
<pdfrwt beam="1">  1       -3 0.25644636E-03 0.51927332E+02</pdfrwt>
<totfact> 0.87504277E+04</totfact>
</mgrwt>
</event>
<event>
 4    1  0.1537855E-002  0.9458961E+02  0.7818608E-02  0.1292103E+00
         -3   -1    0    0  501    0 -0.00000000000E+00  0.00000000000E+00  0.20188700182E+02  0.20188952822E+02  0.10100000000E+00 0.  1.
          3   -1    0    0    0  501  0.00000000000E+00 -0.00000000000E+00 -0.11079361918E+03  0.11079366522E+03  0.10100000000E+00 0.  1.
          2    1    1    2    0  502 -0.29131967966E+02 -0.35624839864E+02 -0.30196791277E+02  0.55042229086E+02  0.25500000000E-02 0.  1.
         -2    1    1    2  502    0  0.29131967966E+02  0.35624839864E+02 -0.60408127723E+02  0.75940388953E+02  0.25500000000E-02 0.  1.
<mgrwt>
<rscale>  0 0.94589613E+02</rscale>
<asrwt>0</asrwt>
<pdfrwt beam="2">  1        3 0.17045195E-01 0.94589613E+02</pdfrwt>
<pdfrwt beam="1">  1       -3 0.31059769E-02 0.94589613E+02</pdfrwt>
<totfact> 0.29415883E+04</totfact>
</mgrwt>
</event>
<event>
 4    1  0.1537855E-002  0.6320726E+02  0.7818608E-02  0.1384845E+00
         -3   -1    0    0  501    0 -0.00000000000E+00  0.00000000000E+00  0.18444514931E+02  0.18444791461E+02  0.10100000000E+00 0.  1.
          3   -1    0    0    0  501  0.00000000000E+00 -0.00000000000E+00 -0.54150289632E+02  0.54150383824E+02  0.10100000000E+00 0.  1.
          2    1    1    2    0  502 -0.23456392997E+02  0.21153665109E+02 -0.16643191512E+02  0.35702601448E+02  0.25500000000E-02 0.  1.
         -2    1    1    2  502    0  0.23456392997E+02 -0.21153665109E+02 -0.19062583189E+02  0.36892573837E+02  0.25500000000E-02 0.  1.
<mgrwt>
<rscale>  0 0.63207255E+02</rscale>
<asrwt>0</asrwt>
<pdfrwt beam="2">  1        3 0.83308423E-02 0.63207255E+02</pdfrwt>
<pdfrwt beam="1">  1       -3 0.28376462E-02 0.63207255E+02</pdfrwt>
<totfact> 0.97854814E+04</totfact>
</mgrwt>
</event>
<event>
 4    1  0.1537855E-002  0.4987838E+02  0.7818608E-02  0.1445999E+00
         -3   -1    0    0  501    0 -0.00000000000E+00  0.00000000000E+00  0.86585011221E+00  0.87172095123E+00  0.10100000000E+00 0.  1.
          3   -1    0    0    0  501  0.00000000000E+00 -0.00000000000E+00 -0.71589358225E+03  0.71589358937E+03  0.10100000000E+00 0.  1.
          2    1    1    2    0  502 -0.36054744372E+01 -0.24654645761E+02 -0.37266805538E+03  0.37350010778E+03  0.25500000000E-02 0.  1.
         -2    1    1    2  502    0  0.36054744372E+01  0.24654645761E+02 -0.34235967676E+03  0.34326520255E+03  0.25500000000E-02 0.  1.
<mgrwt>
<rscale>  0 0.49878376E+02</rscale>
<asrwt>0</asrwt>
<pdfrwt beam="2">  1        3 0.11013745E+00 0.49878376E+02</pdfrwt>
<pdfrwt beam="1">  1       -3 0.13366043E-03 0.49878376E+02</pdfrwt>
<totfact> 0.64204322E+04</totfact>
</mgrwt>
</event>
<event>
 4    1  0.1537855E-002  0.6404945E+02  0.7818608E-02  0.1381583E+00
          3   -1    0    0    0  501  0.00000000000E+00  0.00000000000E+00  0.98118556490E+02  0.98118608473E+02  0.10100000000E+00 0.  1.
         -3   -1    0    0  501    0 -0.00000000000E+00 -0.00000000000E+00 -0.10452190577E+02  0.10452678550E+02  0.10100000000E+00 0.  1.
          2    1    1    2    0  502  0.11780640503E+02  0.19207497804E+02  0.52577653622E+01  0.23137751958E+02  0.25500000000E-02 0.  1.
         -2    1    1    2  502    0 -0.11780640503E+02 -0.19207497804E+02  0.82408600551E+02  0.85433535065E+02  0.25500000000E-02 0.  1.
<mgrwt>
<rscale>  0 0.64049455E+02</rscale>
<asrwt>0</asrwt>
<pdfrwt beam="1">  1        3 0.15095204E-01 0.64049455E+02</pdfrwt>
<pdfrwt beam="2">  1       -3 0.16080709E-02 0.64049455E+02</pdfrwt>
<totfact> 0.87022384E+04</totfact>
</mgrwt>
</event>
<event>
 4    1  0.1537855E-002  0.6773855E+02  0.7818608E-02  0.1367957E+00
         -3   -1    0    0  501    0 -0.00000000000E+00  0.00000000000E+00  0.46339327600E+03  0.46339328701E+03  0.10100000000E+00 0. -1.
          3   -1    0    0    0  501  0.00000000000E+00 -0.00000000000E+00 -0.24744535710E+01  0.24765139763E+01  0.10100000000E+00 0. -1.
          2    1    1    2    0  502 -0.23006603719E+02 -0.24136971812E+02  0.18963803883E+03  0.19254735262E+03  0.25500000000E-02 0.  1.
         -2    1    1    2  502    0  0.23006603719E+02  0.24136971812E+02  0.27128078360E+03  0.27332244837E+03  0.25500000000E-02 0.  1.
<mgrwt>
<rscale>  0 0.67738546E+02</rscale>
<asrwt>0</asrwt>
<pdfrwt beam="2">  1        3 0.38084482E-03 0.67738546E+02</pdfrwt>
<pdfrwt beam="1">  1       -3 0.71291373E-01 0.67738546E+02</pdfrwt>
<totfact> 0.40872137E+04</totfact>
</mgrwt>
</event>
<event>
 4    1  0.1537855E-002  0.8569735E+02  0.7818608E-02  0.1313619E+00
         -3   -1    0    0  501    0 -0.00000000000E+00  0.00000000000E+00  0.60349165637E+03  0.60349166482E+03  0.10100000000E+00 0. -1.
          3   -1    0    0    0  501  0.00000000000E+00 -0.00000000000E+00 -0.30414640144E+01  0.30431405408E+01  0.10100000000E+00 0. -1.
          2    1    1    2    0  502  0.72906054564E+01 -0.39202267482E+02  0.41124217523E+03  0.41317078479E+03  0.25500000000E-02 0.  1.
         -2    1    1    2  502    0 -0.72906054564E+01  0.39202267482E+02  0.18920801712E+03  0.19336402058E+03  0.25500000000E-02 0.  1.
<mgrwt>
<rscale>  0 0.85697355E+02</rscale>
<asrwt>0</asrwt>
<pdfrwt beam="2">  1        3 0.46804716E-03 0.85697355E+02</pdfrwt>
<pdfrwt beam="1">  1       -3 0.92844999E-01 0.85697355E+02</pdfrwt>
<totfact> 0.18353615E+04</totfact>
</mgrwt>
</event>
<event>
 4    1  0.1537855E-002  0.9297159E+02  0.7818608E-02  0.1295811E+00
         -3   -1    0    0  501    0 -0.00000000000E+00  0.00000000000E+00  0.24892858462E+01  0.24913339849E+01  0.10100000000E+00 0.  1.
          3   -1    0    0    0  501  0.00000000000E+00 -0.00000000000E+00 -0.86773298125E+03  0.86773298713E+03  0.10100000000E+00 0.  1.
          2    1    1    2    0  502 -0.14253403108E+02 -0.18032230659E+02 -0.54421470648E+02  0.59076368513E+02  0.25500000000E-02 0. -1.
         -2    1    1    2  502    0  0.14253403108E+02  0.18032230659E+02 -0.81082222475E+03  0.81114795260E+03  0.25500000000E-02 0. -1.
<mgrwt>
<rscale>  0 0.92971590E+02</rscale>
<asrwt>0</asrwt>
<pdfrwt beam="2">  1        3 0.13349730E+00 0.92971590E+02</pdfrwt>
<pdfrwt beam="1">  1       -3 0.38312575E-03 0.92971590E+02</pdfrwt>
<totfact> 0.10907478E+04</totfact>
</mgrwt>
</event>
<event>
 4    1  0.1537855E-002  0.4859847E+02  0.7818608E-02  0.1453051E+00
         -3   -1    0    0  501    0 -0.00000000000E+00  0.00000000000E+00  0.14164971167E+03  0.14164974768E+03  0.10100000000E+00 0.  1.
          3   -1    0    0    0  501  0.00000000000E+00 -0.00000000000E+00 -0.41677530392E+01  0.41689766605E+01  0.10100000000E+00 0.  1.
          2    1    1    2    0  502 -0.56495214641E+01  0.21606637101E+02  0.40010076265E+02  0.45821065775E+02  0.25500000000E-02 0.  1.
         -2    1    1    2  502    0  0.56495214641E+01 -0.21606637101E+02  0.97471882370E+02  0.99997658567E+02  0.25500000000E-02 0.  1.
<mgrwt>
<rscale>  0 0.48598471E+02</rscale>
<asrwt>0</asrwt>
<pdfrwt beam="2">  1        3 0.64128965E-03 0.48598471E+02</pdfrwt>
<pdfrwt beam="1">  1       -3 0.21792361E-01 0.48598471E+02</pdfrwt>
<totfact> 0.16210560E+05</totfact>
</mgrwt>
</event>
<event>
 4    1  0.1537855E-002  0.9387514E+02  0.7818608E-02  0.1293730E+00
          3   -1    0    0    0  501  0.00000000000E+00  0.00000000000E+00  0.85139956790E+02  0.85140016697E+02  0.10100000000E+00 0.  1.
         -3   -1    0    0  501    0 -0.00000000000E+00 -0.00000000000E+00 -0.25876467674E+02  0.25876664782E+02  0.10100000000E+00 0.  1.
          2    1    1    2    0  502 -0.51794819439E+01 -0.24271735942E+02  0.76745994525E+02  0.80659109101E+02  0.25500000000E-02 0. -1.
         -2    1    1    2  502    0  0.51794819439E+01  0.24271735942E+02 -0.17482505408E+02  0.30357572379E+02  0.25500000000E-02 0. -1.
<mgrwt>
<rscale>  0 0.93875143E+02</rscale>
<asrwt>0</asrwt>
<pdfrwt beam="1">  1        3 0.13098475E-01 0.93875143E+02</pdfrwt>
<pdfrwt beam="2">  1       -3 0.39810148E-02 0.93875143E+02</pdfrwt>
<totfact> 0.31283013E+04</totfact>
</mgrwt>
</event>
<event>
 4    1  0.1537855E-002  0.5238074E+02  0.7818608E-02  0.1432908E+00
         -3   -1    0    0  501    0 -0.00000000000E+00  0.00000000000E+00  0.13269678024E+01  0.13308059771E+01  0.10100000000E+00 0. -1.
          3   -1    0    0    0  501  0.00000000000E+00 -0.00000000000E+00 -0.51616907693E+03  0.51616908681E+03  0.10100000000E+00 0. -1.
          2    1    1    2    0  502 -0.22992653215E+01 -0.24960709319E+02 -0.33240949695E+03  0.33335326202E+03  0.25500000000E-02 0. -1.
         -2    1    1    2  502    0  0.22992653215E+01  0.24960709319E+02 -0.18243261217E+03  0.18414663076E+03  0.25500000000E-02 0. -1.
<mgrwt>
<rscale>  0 0.52380738E+02</rscale>
<asrwt>0</asrwt>
<pdfrwt beam="2">  1        3 0.79410764E-01 0.52380738E+02</pdfrwt>
<pdfrwt beam="1">  1       -3 0.20444531E-03 0.52380738E+02</pdfrwt>
<totfact> 0.73107449E+04</totfact>
</mgrwt>
</event>
<event>
 4    1  0.1537855E-002  0.6389458E+02  0.7818608E-02  0.1382179E+00
          3   -1    0    0    0  501  0.00000000000E+00  0.00000000000E+00  0.23550836274E+01  0.23572483730E+01  0.10100000000E+00 0.  1.
         -3   -1    0    0  501    0 -0.00000000000E+00 -0.00000000000E+00 -0.43317156998E+03  0.43317158175E+03  0.10100000000E+00 0.  1.
          2    1    1    2    0  502  0.29182928007E+02  0.12988743806E+02 -0.21900532581E+03  0.22132257791E+03  0.25500000000E-02 0.  1.
         -2    1    1    2  502    0 -0.29182928007E+02 -0.12988743806E+02 -0.21181116054E+03  0.21420625221E+03  0.25500000000E-02 0.  1.
<mgrwt>
<rscale>  0 0.63894577E+02</rscale>
<asrwt>0</asrwt>
<pdfrwt beam="1">  1        3 0.36248833E-03 0.63894577E+02</pdfrwt>
<pdfrwt beam="2">  1       -3 0.66641884E-01 0.63894577E+02</pdfrwt>
<totfact> 0.49590893E+04</totfact>
</mgrwt>
</event>
<event>
 4    1  0.1537855E-002  0.5102444E+02  0.7818608E-02  0.1439893E+00
          3   -1    0    0    0  501  0.00000000000E+00  0.00000000000E+00  0.40240335368E+03  0.40240336635E+03  0.10100000000E+00 0.  1.
         -3   -1    0    0  501    0 -0.00000000000E+00 -0.00000000000E+00 -0.16158757475E+01  0.16190291632E+01  0.10100000000E+00 0.  1.
          2    1    1    2    0  502 -0.16374631750E+02  0.15331683992E+02  0.29662016196E+03  0.29746715716E+03  0.25500000000E-02 0. -1.
         -2    1    1    2  502    0  0.16374631750E+02 -0.15331683992E+02  0.10416731597E+03  0.10655523836E+03  0.25500000000E-02 0. -1.
<mgrwt>
<rscale>  0 0.51024441E+02</rscale>
<asrwt>0</asrwt>
<pdfrwt beam="1">  1        3 0.61908501E-01 0.51024441E+02</pdfrwt>
<pdfrwt beam="2">  1       -3 0.24883962E-03 0.51024441E+02</pdfrwt>
<totfact> 0.91687453E+04</totfact>
</mgrwt>
</event>
<event>
 4    1  0.1537855E-002  0.6613237E+02  0.7818608E-02  0.1373762E+00
          3   -1    0    0    0  501  0.00000000000E+00  0.00000000000E+00  0.15786330956E+02  0.15786654049E+02  0.10100000000E+00 0. -1.
         -3   -1    0    0  501    0 -0.00000000000E+00 -0.00000000000E+00 -0.69259656392E+02  0.69259730036E+02  0.10100000000E+00 0. -1.
          2    1    1    2    0  502  0.23897580730E+02  0.18907599941E+02 -0.43244695949E+02  0.52902697800E+02  0.25500000000E-02 0. -1.
         -2    1    1    2  502    0 -0.23897580730E+02 -0.18907599941E+02 -0.10228629488E+02  0.32143686285E+02  0.25500000000E-02 0. -1.
<mgrwt>
<rscale>  0 0.66132374E+02</rscale>
<asrwt>0</asrwt>
<pdfrwt beam="1">  1        3 0.24286968E-02 0.66132374E+02</pdfrwt>
<pdfrwt beam="2">  1       -3 0.10655362E-01 0.66132374E+02</pdfrwt>
<totfact> 0.84431415E+04</totfact>
</mgrwt>
</event>
<event>
 4    1  0.1537855E-002  0.4734617E+02  0.7818608E-02  0.1460205E+00
          3   -1    0    0    0  501  0.00000000000E+00  0.00000000000E+00  0.35932097877E+03  0.35932099296E+03  0.10100000000E+00 0.  1.
         -3   -1    0    0  501    0 -0.00000000000E+00 -0.00000000000E+00 -0.15580005048E+01  0.15612708199E+01  0.10100000000E+00 0.  1.
          2    1    1    2    0  502  0.21697943924E+02 -0.93386458819E+01  0.19069920407E+03  0.19215670042E+03  0.25500000000E-02 0. -1.
         -2    1    1    2  502    0 -0.21697943924E+02  0.93386458819E+01  0.16706377420E+03  0.16872556336E+03  0.25500000000E-02 0. -1.
<mgrwt>
<rscale>  0 0.47346169E+02</rscale>
<asrwt>0</asrwt>
<pdfrwt beam="1">  1        3 0.55280403E-01 0.47346169E+02</pdfrwt>
<pdfrwt beam="2">  1       -3 0.23994504E-03 0.47346169E+02</pdfrwt>
<totfact> 0.11783403E+05</totfact>
</mgrwt>
</event>
<event>
 4    1  0.1537855E-002  0.6815128E+02  0.7818608E-02  0.1366495E+00
          3   -1    0    0    0  501  0.00000000000E+00  0.00000000000E+00  0.29375804263E+03  0.29375805999E+03  0.10100000000E+00 0.  1.
         -3   -1    0    0  501    0 -0.00000000000E+00 -0.00000000000E+00 -0.39520778633E+01  0.39533682396E+01  0.10100000000E+00 0.  1.
          2    1    1    2    0  502  0.30843314397E+02  0.12950814520E+02  0.17325234885E+03  0.17645228825E+03  0.25500000000E-02 0.  1.
         -2    1    1    2  502    0 -0.30843314397E+02 -0.12950814520E+02  0.11655361591E+03  0.12125913998E+03  0.25500000000E-02 0.  1.
<mgrwt>
<rscale>  0 0.68151282E+02</rscale>
<asrwt>0</asrwt>
<pdfrwt beam="1">  1        3 0.45193642E-01 0.68151282E+02</pdfrwt>
<pdfrwt beam="2">  1       -3 0.60811262E-03 0.68151282E+02</pdfrwt>
<totfact> 0.51950017E+04</totfact>
</mgrwt>
</event>
<event>
 4    1  0.1537855E-002  0.5462293E+02  0.7818608E-02  0.1421891E+00
          3   -1    0    0    0  501  0.00000000000E+00  0.00000000000E+00  0.73180268273E+02  0.73180337971E+02  0.10100000000E+00 0. -1.
         -3   -1    0    0  501    0 -0.00000000000E+00 -0.00000000000E+00 -0.10192533810E+02  0.10193034213E+02  0.10100000000E+00 0. -1.
          2    1    1    2    0  502 -0.25609074421E+02  0.19133694615E+01  0.45683976573E+02  0.52407169332E+02  0.25500000000E-02 0. -1.
         -2    1    1    2  502    0  0.25609074421E+02 -0.19133694615E+01  0.17303757891E+02  0.30966202852E+02  0.25500000000E-02 0. -1.
<mgrwt>
<rscale>  0 0.54622930E+02</rscale>
<asrwt>0</asrwt>
<pdfrwt beam="1">  1        3 0.11258547E-01 0.54622930E+02</pdfrwt>
<pdfrwt beam="2">  1       -3 0.15681259E-02 0.54622930E+02</pdfrwt>
<totfact> 0.13882183E+05</totfact>
</mgrwt>
</event>
<event>
 4    1  0.1537855E-002  0.1273342E+03  0.7818608E-02  0.1231466E+00
         -3   -1    0    0  501    0 -0.00000000000E+00  0.00000000000E+00  0.10163822469E+02  0.10164324285E+02  0.10100000000E+00 0. -1.
          3   -1    0    0    0  501  0.00000000000E+00 -0.00000000000E+00 -0.39880592222E+03  0.39880593501E+03  0.10100000000E+00 0. -1.
          2    1    1    2    0  502  0.51303329103E+02 -0.27764617191E+02 -0.11239892491E+03  0.12663500255E+03  0.25500000000E-02 0. -1.
         -2    1    1    2  502    0 -0.51303329103E+02  0.27764617191E+02 -0.27624317485E+03  0.28233525674E+03  0.25500000000E-02 0. -1.
<mgrwt>
<rscale>  0 0.12733417E+03</rscale>
<asrwt>0</asrwt>
<pdfrwt beam="2">  1        3 0.61354785E-01 0.12733417E+03</pdfrwt>
<pdfrwt beam="1">  1       -3 0.15637049E-02 0.12733417E+03</pdfrwt>
<totfact> 0.81819251E+03</totfact>
</mgrwt>
</event>
<event>
 4    1  0.1537855E-002  0.2052729E+03  0.7818608E-02  0.1145365E+00
          3   -1    0    0    0  501  0.00000000000E+00  0.00000000000E+00  0.49142109898E+03  0.49142110936E+03  0.10100000000E+00 0.  1.
         -3   -1    0    0  501    0 -0.00000000000E+00 -0.00000000000E+00 -0.21436156961E+02  0.21436394898E+02  0.10100000000E+00 0.  1.
          2    1    1    2    0  502  0.86982993454E+02  0.45762798633E+02  0.30885309213E+03  0.32411496018E+03  0.25500000000E-02 0.  1.
         -2    1    1    2  502    0 -0.86982993454E+02 -0.45762798633E+02  0.16113184989E+03  0.18874254408E+03  0.25500000000E-02 0.  1.
<mgrwt>
<rscale>  0 0.20527293E+03</rscale>
<asrwt>0</asrwt>
<pdfrwt beam="1">  1        3 0.75603260E-01 0.20527293E+03</pdfrwt>
<pdfrwt beam="2">  1       -3 0.32978896E-02 0.20527293E+03</pdfrwt>
<totfact> 0.18209328E+03</totfact>
</mgrwt>
</event>
<event>
 4    1  0.1537855E-002  0.5487602E+02  0.7818608E-02  0.1420686E+00
         -3   -1    0    0  501    0 -0.00000000000E+00  0.00000000000E+00  0.26966565483E+02  0.26966754624E+02  0.10100000000E+00 0.  1.
          3   -1    0    0    0  501  0.00000000000E+00 -0.00000000000E+00 -0.27917314904E+02  0.27917497604E+02  0.10100000000E+00 0.  1.
          2    1    1    2    0  502 -0.21083584357E+02  0.12550328267E+02 -0.12757935498E+02  0.27654894569E+02  0.25500000000E-02 0. -1.
         -2    1    1    2  502    0  0.21083584357E+02 -0.12550328267E+02  0.11807186078E+02  0.27229357659E+02  0.25500000000E-02 0. -1.
<mgrwt>
<rscale>  0 0.54876017E+02</rscale>
<asrwt>0</asrwt>
<pdfrwt beam="2">  1        3 0.42950001E-02 0.54876017E+02</pdfrwt>
<pdfrwt beam="1">  1       -3 0.41487310E-02 0.54876017E+02</pdfrwt>
<totfact> 0.14729347E+05</totfact>
</mgrwt>
</event>
<event>
 4    1  0.1537855E-002  0.6157895E+02  0.7818608E-02  0.1391323E+00
         -3   -1    0    0  501    0 -0.00000000000E+00  0.00000000000E+00  0.28609636030E+03  0.28609637813E+03  0.10100000000E+00 0. -1.
          3   -1    0    0    0  501  0.00000000000E+00 -0.00000000000E+00 -0.33127522300E+01  0.33142915287E+01  0.10100000000E+00 0. -1.
          2    1    1    2    0  502  0.27533556320E+02  0.98770064815E+01  0.18655414978E+03  0.18883353195E+03  0.25500000000E-02 0. -1.
         -2    1    1    2  502    0 -0.27533556320E+02 -0.98770064815E+01  0.96229458284E+02  0.10057713770E+03  0.25500000000E-02 0. -1.
<mgrwt>
<rscale>  0 0.61578947E+02</rscale>
<asrwt>0</asrwt>
<pdfrwt beam="2">  1        3 0.50977401E-03 0.61578947E+02</pdfrwt>
<pdfrwt beam="1">  1       -3 0.44014941E-01 0.61578947E+02</pdfrwt>
<totfact> 0.68357106E+04</totfact>
</mgrwt>
</event>
<event>
 4    1  0.1537855E-002  0.4630338E+02  0.7818608E-02  0.1466365E+00
          3   -1    0    0    0  501  0.00000000000E+00  0.00000000000E+00  0.17744675542E+02  0.17744962978E+02  0.10100000000E+00 0.  1.
         -3   -1    0    0  501    0 -0.00000000000E+00 -0.00000000000E+00 -0.30205665756E+02  0.30205834614E+02  0.10100000000E+00 0.  1.
          2    1    1    2    0  502 -0.22542862408E+02  0.23109606917E+01 -0.11140437158E+02  0.25251347121E+02  0.25500000000E-02 0. -1.
         -2    1    1    2  502    0  0.22542862408E+02 -0.23109606917E+01 -0.13205530547E+01  0.22699450472E+02  0.25500000000E-02 0. -1.
<mgrwt>
<rscale>  0 0.46303377E+02</rscale>
<asrwt>0</asrwt>
<pdfrwt beam="1">  1        3 0.27299852E-02 0.46303377E+02</pdfrwt>
<pdfrwt beam="2">  1       -3 0.46470606E-02 0.46303377E+02</pdfrwt>
<totfact> 0.23053839E+05</totfact>
</mgrwt>
</event>
<event>
 4    1  0.1537855E-002  0.6729297E+02  0.7818608E-02  0.1369548E+00
          3   -1    0    0    0  501  0.00000000000E+00  0.00000000000E+00  0.62043133685E+01  0.62051354034E+01  0.10100000000E+00 0.  1.
         -3   -1    0    0  501    0 -0.00000000000E+00 -0.00000000000E+00 -0.18245464052E+03  0.18245466847E+03  0.10100000000E+00 0.  1.
          2    1    1    2    0  502 -0.30981609045E+02  0.63989694118E+01 -0.56002809676E+02  0.64320460250E+02  0.25500000000E-02 0. -1.
         -2    1    1    2  502    0  0.30981609045E+02 -0.63989694118E+01 -0.12024751747E+03  0.12433934363E+03  0.25500000000E-02 0. -1.
<mgrwt>
<rscale>  0 0.67292970E+02</rscale>
<asrwt>0</asrwt>
<pdfrwt beam="1">  1        3 0.95457527E-03 0.67292970E+02</pdfrwt>
<pdfrwt beam="2">  1       -3 0.28070006E-01 0.67292970E+02</pdfrwt>
<totfact> 0.65034087E+04</totfact>
</mgrwt>
</event>
<event>
 4    1  0.1537855E-002  0.4495373E+02  0.7818608E-02  0.1474631E+00
          3   -1    0    0    0  501  0.00000000000E+00  0.00000000000E+00  0.31821216039E+02  0.31821376325E+02  0.10100000000E+00 0.  1.
         -3   -1    0    0  501    0 -0.00000000000E+00 -0.00000000000E+00 -0.15876139464E+02  0.15876460729E+02  0.10100000000E+00 0.  1.
          2    1    1    2    0  502  0.20456494140E+02  0.49465919539E+01  0.16345545674E+02  0.26647960416E+02  0.25500000000E-02 0.  1.
         -2    1    1    2  502    0 -0.20456494140E+02 -0.49465919539E+01 -0.40046909917E+00  0.21049876638E+02  0.25500000000E-02 0.  1.
<mgrwt>
<rscale>  0 0.44953734E+02</rscale>
<asrwt>0</asrwt>
<pdfrwt beam="1">  1        3 0.48956087E-02 0.44953734E+02</pdfrwt>
<pdfrwt beam="2">  1       -3 0.24425201E-02 0.44953734E+02</pdfrwt>
<totfact> 0.24835646E+05</totfact>
</mgrwt>
</event>
<event>
 4    1  0.1537855E-002  0.5838158E+02  0.7818608E-02  0.1404752E+00
         -3   -1    0    0  501    0 -0.00000000000E+00  0.00000000000E+00  0.12239138532E+03  0.12239142699E+03  0.10100000000E+00 0. -1.
          3   -1    0    0    0  501  0.00000000000E+00 -0.00000000000E+00 -0.69617004902E+01  0.69624331031E+01  0.10100000000E+00 0. -1.
          2    1    1    2    0  502  0.14122589207E+02 -0.24489812070E+02  0.73830463585E+02  0.79057800253E+02  0.25500000000E-02 0. -1.
         -2    1    1    2  502    0 -0.14122589207E+02  0.24489812070E+02  0.41599221245E+02  0.50296059844E+02  0.25500000000E-02 0. -1.
<mgrwt>
<rscale>  0 0.58381581E+02</rscale>
<asrwt>0</asrwt>
<pdfrwt beam="2">  1        3 0.10710904E-02 0.58381581E+02</pdfrwt>
<pdfrwt beam="1">  1       -3 0.18829504E-01 0.58381581E+02</pdfrwt>
<totfact> 0.10563288E+05</totfact>
</mgrwt>
</event>
<event>
 4    1  0.1537855E-002  0.7659064E+02  0.7818608E-02  0.1339015E+00
          3   -1    0    0    0  501  0.00000000000E+00  0.00000000000E+00  0.27528372899E+03  0.27528374751E+03  0.10100000000E+00 0.  1.
         -3   -1    0    0  501    0 -0.00000000000E+00 -0.00000000000E+00 -0.53268486274E+01  0.53278060493E+01  0.10100000000E+00 0.  1.
          2    1    1    2    0  502 -0.15900051797E+02 -0.30702996223E+02  0.19529705672E+03  0.19833412715E+03  0.25500000000E-02 0.  1.
         -2    1    1    2  502    0  0.15900051797E+02  0.30702996223E+02  0.74659823640E+02  0.82277426411E+02  0.25500000000E-02 0.  1.
<mgrwt>
<rscale>  0 0.76590644E+02</rscale>
<asrwt>0</asrwt>
<pdfrwt beam="1">  1        3 0.42351404E-01 0.76590644E+02</pdfrwt>
<pdfrwt beam="2">  1       -3 0.81959053E-03 0.76590644E+02</pdfrwt>
<totfact> 0.39413816E+04</totfact>
</mgrwt>
</event>
<event>
 4    1  0.1537855E-002  0.7111149E+02  0.7818608E-02  0.1356354E+00
         -3   -1    0    0  501    0 -0.00000000000E+00  0.00000000000E+00  0.26364440976E+02  0.26364634436E+02  0.10100000000E+00 0.  1.
          3   -1    0    0    0  501  0.00000000000E+00 -0.00000000000E+00 -0.47950946685E+02  0.47951053054E+02  0.10100000000E+00 0.  1.
          2    1    1    2    0  502 -0.10631688343E+02  0.33416294184E+02 -0.46522965074E+01  0.35374077844E+02  0.25500000000E-02 0.  1.
         -2    1    1    2  502    0  0.10631688343E+02 -0.33416294184E+02 -0.16934209203E+02  0.38941609646E+02  0.25500000000E-02 0.  1.
<mgrwt>
<rscale>  0 0.71111491E+02</rscale>
<asrwt>0</asrwt>
<pdfrwt beam="2">  1        3 0.73770918E-02 0.71111491E+02</pdfrwt>
<pdfrwt beam="1">  1       -3 0.40560909E-02 0.71111491E+02</pdfrwt>
<totfact> 0.71531666E+04</totfact>
</mgrwt>
</event>
<event>
 4    1  0.1537855E-002  0.7109218E+02  0.7818608E-02  0.1356418E+00
          3   -1    0    0    0  501  0.00000000000E+00  0.00000000000E+00  0.28128229971E+02  0.28128411301E+02  0.10100000000E+00 0.  1.
         -3   -1    0    0  501    0 -0.00000000000E+00 -0.00000000000E+00 -0.44919769383E+02  0.44919882930E+02  0.10100000000E+00 0.  1.
          2    1    1    2    0  502 -0.23895332362E+02 -0.10317673266E+02  0.16479503656E+02  0.30806092540E+02  0.25500000000E-02 0. -1.
         -2    1    1    2  502    0  0.23895332362E+02  0.10317673266E+02 -0.33271043068E+02  0.42242201690E+02  0.25500000000E-02 0. -1.
<mgrwt>
<rscale>  0 0.71092176E+02</rscale>
<asrwt>0</asrwt>
<pdfrwt beam="1">  1        3 0.43274427E-02 0.71092176E+02</pdfrwt>
<pdfrwt beam="2">  1       -3 0.69107564E-02 0.71092176E+02</pdfrwt>
<totfact> 0.71800164E+04</totfact>
</mgrwt>
</event>
<event>
 4    1  0.1537855E-002  0.6840705E+02  0.7818608E-02  0.1365595E+00
         -3   -1    0    0  501    0 -0.00000000000E+00  0.00000000000E+00  0.21626058310E+03  0.21626060668E+03  0.10100000000E+00 0. -1.
          3   -1    0    0    0  501  0.00000000000E+00 -0.00000000000E+00 -0.54090941295E+01  0.54100369963E+01  0.10100000000E+00 0. -1.
          2    1    1    2    0  502  0.18522668622E+02 -0.21006489420E+02  0.41800376907E+02  0.50315339279E+02  0.25500000000E-02 0. -1.
         -2    1    1    2  502    0 -0.18522668622E+02  0.21006489420E+02  0.16905111206E+03  0.17135530440E+03  0.25500000000E-02 0. -1.
<mgrwt>
<rscale>  0 0.68407045E+02</rscale>
<asrwt>0</asrwt>
<pdfrwt beam="2">  1        3 0.83224270E-03 0.68407045E+02</pdfrwt>
<pdfrwt beam="1">  1       -3 0.33270932E-01 0.68407045E+02</pdfrwt>
<totfact> 0.58626384E+04</totfact>
</mgrwt>
</event>
<event>
 4    1  0.1537855E-002  0.4340994E+02  0.7818608E-02  0.1484519E+00
         -3   -1    0    0  501    0 -0.00000000000E+00  0.00000000000E+00  0.12749457264E+02  0.12749857314E+02  0.10100000000E+00 0.  1.
          3   -1    0    0    0  501  0.00000000000E+00 -0.00000000000E+00 -0.36949994434E+02  0.36950132471E+02  0.10100000000E+00 0.  1.
          2    1    1    2    0  502  0.17974182536E+02  0.99404480749E+01 -0.40678431072E+01  0.20938746376E+02  0.25500000000E-02 0.  1.
         -2    1    1    2  502    0 -0.17974182536E+02 -0.99404480749E+01 -0.20132694062E+02  0.28761243410E+02  0.25500000000E-02 0.  1.
<mgrwt>
<rscale>  0 0.43409941E+02</rscale>
<asrwt>0</asrwt>
<pdfrwt beam="2">  1        3 0.56846559E-02 0.43409941E+02</pdfrwt>
<pdfrwt beam="1">  1       -3 0.19614964E-02 0.43409941E+02</pdfrwt>
<totfact> 0.26938704E+05</totfact>
</mgrwt>
</event>
<event>
 4    1  0.1537855E-002  0.5672242E+02  0.7818608E-02  0.1412125E+00
          3   -1    0    0    0  501  0.00000000000E+00  0.00000000000E+00  0.87047350857E+02  0.87047409452E+02  0.10100000000E+00 0. -1.
         -3   -1    0    0  501    0 -0.00000000000E+00 -0.00000000000E+00 -0.92401315961E+01  0.92406835739E+01  0.10100000000E+00 0. -1.
          2    1    1    2    0  502  0.24341337936E+02 -0.14299839220E+02  0.34294497407E+02  0.44419575562E+02  0.25500000000E-02 0. -1.
         -2    1    1    2  502    0 -0.24341337936E+02  0.14299839220E+02  0.43512721854E+02  0.51868517464E+02  0.25500000000E-02 0. -1.
<mgrwt>
<rscale>  0 0.56722425E+02</rscale>
<asrwt>0</asrwt>
<pdfrwt beam="1">  1        3 0.13391946E-01 0.56722425E+02</pdfrwt>
<pdfrwt beam="2">  1       -3 0.14216057E-02 0.56722425E+02</pdfrwt>
<totfact> 0.12232343E+05</totfact>
</mgrwt>
</event>
<event>
 4    1  0.1537855E-002  0.5260701E+02  0.7818608E-02  0.1431767E+00
         -3   -1    0    0  501    0 -0.00000000000E+00  0.00000000000E+00  0.27956419266E+01  0.27974657785E+01  0.10100000000E+00 0.  1.
          3   -1    0    0    0  501  0.00000000000E+00 -0.00000000000E+00 -0.24740066489E+03  0.24740068550E+03  0.10100000000E+00 0.  1.
          2    1    1    2    0  502 -0.38440179375E+01  0.25294622639E+02 -0.93263729203E+02  0.96709449382E+02  0.25500000000E-02 0. -1.
         -2    1    1    2  502    0  0.38440179375E+01 -0.25294622639E+02 -0.15134129376E+03  0.15348870190E+03  0.25500000000E-02 0. -1.
<mgrwt>
<rscale>  0 0.52607011E+02</rscale>
<asrwt>0</asrwt>
<pdfrwt beam="2">  1        3 0.38061765E-01 0.52607011E+02</pdfrwt>
<pdfrwt beam="1">  1       -3 0.43024084E-03 0.52607011E+02</pdfrwt>
<totfact> 0.10893931E+05</totfact>
</mgrwt>
</event>
<event>
 4    1  0.1537855E-002  0.4249745E+02  0.7818608E-02  0.1490598E+00
          3   -1    0    0    0  501  0.00000000000E+00  0.00000000000E+00  0.53480462502E+01  0.53489998780E+01  0.10100000000E+00 0. -1.
         -3   -1    0    0  501    0 -0.00000000000E+00 -0.00000000000E+00 -0.84416389231E+02  0.84416449651E+02  0.10100000000E+00 0. -1.
          2    1    1    2    0  502 -0.16241799751E+02 -0.13043770265E+02 -0.30679750787E+02  0.37083461499E+02  0.25500000000E-02 0.  1.
         -2    1    1    2  502    0  0.16241799751E+02  0.13043770265E+02 -0.48388592194E+02  0.52681988031E+02  0.25500000000E-02 0.  1.
<mgrwt>
<rscale>  0 0.42497448E+02</rscale>
<asrwt>0</asrwt>
<pdfrwt beam="1">  1        3 0.82285441E-03 0.42497448E+02</pdfrwt>
<pdfrwt beam="2">  1       -3 0.12987214E-01 0.42497448E+02</pdfrwt>
<totfact> 0.25608612E+05</totfact>
</mgrwt>
</event>
<event>
 4    1  0.1537855E-002  0.4336943E+02  0.7818608E-02  0.1484785E+00
         -3   -1    0    0  501    0 -0.00000000000E+00  0.00000000000E+00  0.35260508419E+02  0.35260653071E+02  0.10100000000E+00 0. -1.
          3   -1    0    0    0  501  0.00000000000E+00 -0.00000000000E+00 -0.13335430145E+02  0.13335812617E+02  0.10100000000E+00 0. -1.
          2    1    1    2    0  502  0.19025710263E+02 -0.81017828805E+01  0.36481454724E+01  0.20998226324E+02  0.25500000000E-02 0. -1.
         -2    1    1    2  502    0 -0.19025710263E+02  0.81017828805E+01  0.18276932801E+02  0.27598239364E+02  0.25500000000E-02 0. -1.
<mgrwt>
<rscale>  0 0.43369430E+02</rscale>
<asrwt>0</asrwt>
<pdfrwt beam="2">  1        3 0.20516452E-02 0.43369430E+02</pdfrwt>
<pdfrwt beam="1">  1       -3 0.54247341E-02 0.43369430E+02</pdfrwt>
<totfact> 0.27084970E+05</totfact>
</mgrwt>
</event>
<event>
 4    1  0.1537855E-002  0.6044901E+02  0.7818608E-02  0.1395957E+00
         -3   -1    0    0  501    0 -0.00000000000E+00  0.00000000000E+00  0.85076603239E+01  0.85082598213E+01  0.10100000000E+00 0.  1.
          3   -1    0    0    0  501  0.00000000000E+00 -0.00000000000E+00 -0.10737183892E+03  0.10737188642E+03  0.10100000000E+00 0.  1.
          2    1    1    2    0  502  0.12401078179E+02 -0.17161896725E+02 -0.90778822010E+02  0.93215406297E+02  0.25500000000E-02 0.  1.
         -2    1    1    2  502    0 -0.12401078179E+02  0.17161896725E+02 -0.80853565846E+01  0.22664739945E+02  0.25500000000E-02 0.  1.
<mgrwt>
<rscale>  0 0.60449007E+02</rscale>
<asrwt>0</asrwt>
<pdfrwt beam="2">  1        3 0.16518793E-01 0.60449007E+02</pdfrwt>
<pdfrwt beam="1">  1       -3 0.13089207E-02 0.60449007E+02</pdfrwt>
<totfact> 0.99450908E+04</totfact>
</mgrwt>
</event>
<event>
 4    1  0.1537855E-002  0.5136156E+02  0.7818608E-02  0.1438133E+00
         -3   -1    0    0  501    0 -0.00000000000E+00  0.00000000000E+00  0.12682380396E+02  0.12682782561E+02  0.10100000000E+00 0.  1.
          3   -1    0    0    0  501  0.00000000000E+00 -0.00000000000E+00 -0.52000188542E+02  0.52000286628E+02  0.10100000000E+00 0.  1.
          2    1    1    2    0  502  0.19205927478E+02  0.16774899375E+02 -0.15831287941E+02  0.30014906025E+02  0.25500000000E-02 0. -1.
         -2    1    1    2  502    0 -0.19205927478E+02 -0.16774899375E+02 -0.23486520205E+02  0.34668163164E+02  0.25500000000E-02 0. -1.
<mgrwt>
<rscale>  0 0.51361556E+02</rscale>
<asrwt>0</asrwt>
<pdfrwt beam="2">  1        3 0.80000674E-02 0.51361556E+02</pdfrwt>
<pdfrwt beam="1">  1       -3 0.19511740E-02 0.51361556E+02</pdfrwt>
<totfact> 0.16998596E+05</totfact>
</mgrwt>
</event>
<event>
 4    1  0.1537855E-002  0.4679428E+02  0.7818608E-02  0.1463441E+00
          3   -1    0    0    0  501  0.00000000000E+00  0.00000000000E+00  0.37604450271E+02  0.37604585907E+02  0.10100000000E+00 0.  1.
         -3   -1    0    0  501    0 -0.00000000000E+00 -0.00000000000E+00 -0.14557148448E+02  0.14557498821E+02  0.10100000000E+00 0.  1.
          2    1    1    2    0  502 -0.21800264739E+02  0.84546015085E+01  0.12452549780E+02  0.26491467152E+02  0.25500000000E-02 0.  1.
         -2    1    1    2  502    0  0.21800264739E+02 -0.84546015085E+01  0.10594752044E+02  0.25670617575E+02  0.25500000000E-02 0.  1.
<mgrwt>
<rscale>  0 0.46794283E+02</rscale>
<asrwt>0</asrwt>
<pdfrwt beam="1">  1        3 0.57853373E-02 0.46794283E+02</pdfrwt>
<pdfrwt beam="2">  1       -3 0.22395987E-02 0.46794283E+02</pdfrwt>
<totfact> 0.22197339E+05</totfact>
</mgrwt>
</event>
<event>
 4    1  0.1537855E-002  0.5749582E+02  0.7818608E-02  0.1408652E+00
         -3   -1    0    0  501    0 -0.00000000000E+00  0.00000000000E+00  0.11851696509E+03  0.11851700813E+03  0.10100000000E+00 0.  1.
          3   -1    0    0    0  501  0.00000000000E+00 -0.00000000000E+00 -0.69727875205E+01  0.69735189686E+01  0.10100000000E+00 0.  1.
          2    1    1    2    0  502 -0.16751806932E+02  0.11456935468E+02  0.10021139263E+03  0.10224581959E+03  0.25500000000E-02 0. -1.
         -2    1    1    2  502    0  0.16751806932E+02 -0.11456935468E+02  0.11332784947E+02  0.23244707504E+02  0.25500000000E-02 0. -1.
<mgrwt>
<rscale>  0 0.57495816E+02</rscale>
<asrwt>0</asrwt>
<pdfrwt beam="2">  1        3 0.10727961E-02 0.57495816E+02</pdfrwt>
<pdfrwt beam="1">  1       -3 0.18233438E-01 0.57495816E+02</pdfrwt>
<totfact> 0.11075223E+05</totfact>
</mgrwt>
</event>
<event>
 4    1  0.1537855E-002  0.4179507E+02  0.7818608E-02  0.1495402E+00
         -3   -1    0    0  501    0 -0.00000000000E+00  0.00000000000E+00  0.42943267950E+02  0.42943386723E+02  0.10100000000E+00 0.  1.
          3   -1    0    0    0  501  0.00000000000E+00 -0.00000000000E+00 -0.10169007894E+02  0.10169509455E+02  0.10100000000E+00 0.  1.
          2    1    1    2    0  502 -0.13290886326E+02 -0.15784529953E+02  0.20584184390E+02  0.29146315353E+02  0.25500000000E-02 0.  1.
         -2    1    1    2  502    0  0.13290886326E+02  0.15784529953E+02  0.12190075665E+02  0.23966580824E+02  0.25500000000E-02 0.  1.
<mgrwt>
<rscale>  0 0.41795067E+02</rscale>
<asrwt>0</asrwt>
<pdfrwt beam="2">  1        3 0.15645104E-02 0.41795067E+02</pdfrwt>
<pdfrwt beam="1">  1       -3 0.66067045E-02 0.41795067E+02</pdfrwt>
<totfact> 0.29301757E+05</totfact>
</mgrwt>
</event>
<event>
 4    1  0.1537855E-002  0.6149807E+02  0.7818608E-02  0.1391650E+00
          3   -1    0    0    0  501  0.00000000000E+00  0.00000000000E+00  0.79474941769E+01  0.79481359256E+01  0.10100000000E+00 0.  1.
         -3   -1    0    0  501    0 -0.00000000000E+00 -0.00000000000E+00 -0.11896323996E+03  0.11896328284E+03  0.10100000000E+00 0.  1.
          2    1    1    2    0  502  0.50885933094E+00 -0.25836491213E+02 -0.89898706862E+02  0.93539086579E+02  0.25500000000E-02 0. -1.
         -2    1    1    2  502    0 -0.50885933094E+00  0.25836491213E+02 -0.21117038925E+02  0.33372332186E+02  0.25500000000E-02 0. -1.
<mgrwt>
<rscale>  0 0.61498068E+02</rscale>
<asrwt>0</asrwt>
<pdfrwt beam="1">  1        3 0.12227442E-02 0.61498068E+02</pdfrwt>
<pdfrwt beam="2">  1       -3 0.18302088E-01 0.61498068E+02</pdfrwt>
<totfact> 0.92920902E+04</totfact>
</mgrwt>
</event>
<event>
 4    1  0.1537855E-002  0.1004543E+03  0.7818608E-02  0.1279344E+00
         -3   -1    0    0  501    0 -0.00000000000E+00  0.00000000000E+00  0.94290099720E+02  0.94290153814E+02  0.10100000000E+00 0. -1.
          3   -1    0    0    0  501  0.00000000000E+00 -0.00000000000E+00 -0.26755201553E+02  0.26755392188E+02  0.10100000000E+00 0. -1.
          2    1    1    2    0  502  0.21857440866E+02 -0.45058392725E+02  0.29138225745E+02  0.57939992080E+02  0.25500000000E-02 0.  1.
         -2    1    1    2  502    0 -0.21857440866E+02  0.45058392725E+02  0.38396672422E+02  0.63105553921E+02  0.25500000000E-02 0.  1.
<mgrwt>
<rscale>  0 0.10045428E+03</rscale>
<asrwt>0</asrwt>
<pdfrwt beam="2">  1        3 0.41162037E-02 0.10045428E+03</pdfrwt>
<pdfrwt beam="1">  1       -3 0.14506188E-01 0.10045428E+03</pdfrwt>
<totfact> 0.25454700E+04</totfact>
</mgrwt>
</event>
<event>
 4    1  0.1537855E-002  0.4480399E+02  0.7818608E-02  0.1475569E+00
         -3   -1    0    0  501    0 -0.00000000000E+00  0.00000000000E+00  0.37117546206E+02  0.37117683620E+02  0.10100000000E+00 0.  1.
          3   -1    0    0    0  501  0.00000000000E+00 -0.00000000000E+00 -0.13520189286E+02  0.13520566531E+02  0.10100000000E+00 0.  1.
          2    1    1    2    0  502  0.53011056399E+01 -0.21585289741E+02  0.14959818409E+02  0.26792212069E+02  0.25500000000E-02 0. -1.
         -2    1    1    2  502    0 -0.53011056399E+01  0.21585289741E+02  0.86375385115E+01  0.23846038083E+02  0.25500000000E-02 0. -1.
<mgrwt>
<rscale>  0 0.44803986E+02</rscale>
<asrwt>0</asrwt>
<pdfrwt beam="2">  1        3 0.20800687E-02 0.44803986E+02</pdfrwt>
<pdfrwt beam="1">  1       -3 0.57104313E-02 0.44803986E+02</pdfrwt>
<totfact> 0.24843028E+05</totfact>
</mgrwt>
</event>
<event>
 4    1  0.1537855E-002  0.4028260E+02  0.7818608E-02  0.1506142E+00
         -3   -1    0    0  501    0 -0.00000000000E+00  0.00000000000E+00  0.47807840631E+01  0.47818508193E+01  0.10100000000E+00 0. -1.
          3   -1    0    0    0  501  0.00000000000E+00 -0.00000000000E+00 -0.84844142130E+02  0.84844202247E+02  0.10100000000E+00 0. -1.
          2    1    1    2    0  502  0.18500044979E+02  0.78624846607E+01 -0.37215856345E+02  0.42297639405E+02  0.25500000000E-02 0. -1.
         -2    1    1    2  502    0 -0.18500044979E+02 -0.78624846607E+01 -0.42847501723E+02  0.47328413661E+02  0.25500000000E-02 0. -1.
<mgrwt>
<rscale>  0 0.40282603E+02</rscale>
<asrwt>0</asrwt>
<pdfrwt beam="2">  1        3 0.13053031E-01 0.40282603E+02</pdfrwt>
<pdfrwt beam="1">  1       -3 0.73559199E-03 0.40282603E+02</pdfrwt>
<totfact> 0.29186118E+05</totfact>
</mgrwt>
</event>
<event>
 4    1  0.1537855E-002  0.4593161E+02  0.7818608E-02  0.1468608E+00
          3   -1    0    0    0  501  0.00000000000E+00  0.00000000000E+00  0.15747456528E+03  0.15747459767E+03  0.10100000000E+00 0. -1.
         -3   -1    0    0  501    0 -0.00000000000E+00 -0.00000000000E+00 -0.33484966736E+01  0.33500195482E+01  0.10100000000E+00 0. -1.
          2    1    1    2    0  502  0.76551684377E+01 -0.20418452186E+02  0.10229088730E+03  0.10458938964E+03  0.25500000000E-02 0.  1.
         -2    1    1    2  502    0 -0.76551684377E+01  0.20418452186E+02  0.51835181309E+02  0.56235227583E+02  0.25500000000E-02 0.  1.
<mgrwt>
<rscale>  0 0.45931607E+02</rscale>
<asrwt>0</asrwt>
<pdfrwt beam="1">  1        3 0.24226973E-01 0.45931607E+02</pdfrwt>
<pdfrwt beam="2">  1       -3 0.51527303E-03 0.45931607E+02</pdfrwt>
<totfact> 0.18074396E+05</totfact>
</mgrwt>
</event>
<event>
 4    1  0.1537855E-002  0.8536192E+02  0.7818608E-02  0.1314489E+00
          3   -1    0    0    0  501  0.00000000000E+00  0.00000000000E+00  0.83504446178E+01  0.83510554012E+01  0.10100000000E+00 0. -1.
         -3   -1    0    0  501    0 -0.00000000000E+00 -0.00000000000E+00 -0.21814318389E+03  0.21814320727E+03  0.10100000000E+00 0. -1.
          2    1    1    2    0  502 -0.19480507049E+02 -0.35658634889E+02 -0.70236386858E+02  0.81142950663E+02  0.25500000000E-02 0. -1.
         -2    1    1    2  502    0  0.19480507049E+02  0.35658634889E+02 -0.13955635241E+03  0.14535131201E+03  0.25500000000E-02 0. -1.
<mgrwt>
<rscale>  0 0.85361921E+02</rscale>
<asrwt>0</asrwt>
<pdfrwt beam="1">  1        3 0.12847327E-02 0.85361921E+02</pdfrwt>
<pdfrwt beam="2">  1       -3 0.33560534E-01 0.85361921E+02</pdfrwt>
<totfact> 0.32432045E+04</totfact>
</mgrwt>
</event>
<event>
 4    1  0.1537855E-002  0.4343722E+02  0.7818608E-02  0.1484340E+00
          3   -1    0    0    0  501  0.00000000000E+00  0.00000000000E+00  0.24286499879E+03  0.24286501979E+03  0.10100000000E+00 0. -1.
         -3   -1    0    0  501    0 -0.00000000000E+00 -0.00000000000E+00 -0.19408892629E+01  0.19435154054E+01  0.10100000000E+00 0. -1.
          2    1    1    2    0  502  0.87008243843E+01 -0.18943348893E+02  0.86113808552E+02  0.88601031834E+02  0.25500000000E-02 0.  1.
         -2    1    1    2  502    0 -0.87008243843E+01  0.18943348893E+02  0.15481030098E+03  0.15620750336E+03  0.25500000000E-02 0.  1.
<mgrwt>
<rscale>  0 0.43437223E+02</rscale>
<asrwt>0</asrwt>
<pdfrwt beam="1">  1        3 0.37364053E-01 0.43437223E+02</pdfrwt>
<pdfrwt beam="2">  1       -3 0.29880194E-03 0.43437223E+02</pdfrwt>
<totfact> 0.17663757E+05</totfact>
</mgrwt>
</event>
<event>
 4    1  0.1537855E-002  0.4513622E+02  0.7818608E-02  0.1473493E+00
          3   -1    0    0    0  501  0.00000000000E+00  0.00000000000E+00  0.14449884110E+03  0.14449887640E+03  0.10100000000E+00 0. -1.
         -3   -1    0    0  501    0 -0.00000000000E+00 -0.00000000000E+00 -0.35239715654E+01  0.35254186409E+01  0.10100000000E+00 0. -1.
          2    1    1    2    0  502 -0.92037214214E+00  0.22536794072E+02  0.68021602931E+02  0.71663747067E+02  0.25500000000E-02 0.  1.
         -2    1    1    2  502    0  0.92037214214E+00 -0.22536794072E+02  0.72953266607E+02  0.76360547974E+02  0.25500000000E-02 0.  1.
<mgrwt>
<rscale>  0 0.45136217E+02</rscale>
<asrwt>0</asrwt>
<pdfrwt beam="1">  1        3 0.22230708E-01 0.45136217E+02</pdfrwt>
<pdfrwt beam="2">  1       -3 0.54226343E-03 0.45136217E+02</pdfrwt>
<totfact> 0.19376263E+05</totfact>
</mgrwt>
</event>
<event>
 4    1  0.1537855E-002  0.7347600E+02  0.7818608E-02  0.1348656E+00
          3   -1    0    0    0  501  0.00000000000E+00  0.00000000000E+00  0.71096095117E+01  0.71103268848E+01  0.10100000000E+00 0.  1.
         -3   -1    0    0  501    0 -0.00000000000E+00 -0.00000000000E+00 -0.18982861373E+03  0.18982864060E+03  0.10100000000E+00 0.  1.
          2    1    1    2    0  502 -0.27128255971E+02  0.16935631371E+02 -0.42896679411E+02  0.53505915495E+02  0.25500000000E-02 0. -1.
         -2    1    1    2  502    0  0.27128255971E+02 -0.16935631371E+02 -0.13982232481E+03  0.14343305199E+03  0.25500000000E-02 0. -1.
<mgrwt>
<rscale>  0 0.73475999E+02</rscale>
<asrwt>0</asrwt>
<pdfrwt beam="1">  1        3 0.10938435E-02 0.73475999E+02</pdfrwt>
<pdfrwt beam="2">  1       -3 0.29204456E-01 0.73475999E+02</pdfrwt>
<totfact> 0.50901296E+04</totfact>
</mgrwt>
</event>
<event>
 4    1  0.1537855E-002  0.5024420E+02  0.7818608E-02  0.1444029E+00
         -3   -1    0    0  501    0 -0.00000000000E+00  0.00000000000E+00  0.15715348569E+04  0.15715348601E+04  0.10100000000E+00 0.  1.
          3   -1    0    0    0  501  0.00000000000E+00 -0.00000000000E+00 -0.39524102960E+00  0.40794175011E+00  0.10100000000E+00 0.  1.
          2    1    1    2    0  502 -0.24591079656E+02 -0.51293399359E+01  0.77625542758E+03  0.77666177978E+03  0.25500000000E-02 0.  1.
         -2    1    1    2  502    0  0.24591079656E+02  0.51293399359E+01  0.79488418828E+03  0.79528102209E+03  0.25500000000E-02 0.  1.
<mgrwt>
<rscale>  0 0.50244202E+02</rscale>
<asrwt>0</asrwt>
<pdfrwt beam="2">  1        3 0.61783918E-04 0.50244202E+02</pdfrwt>
<pdfrwt beam="1">  1       -3 0.24177409E+00 0.50244202E+02</pdfrwt>
<totfact> 0.26311302E+04</totfact>
</mgrwt>
</event>
<event>
 4    1  0.1537855E-002  0.4215087E+02  0.7818608E-02  0.1492955E+00
         -3   -1    0    0  501    0 -0.00000000000E+00  0.00000000000E+00  0.98967446151E+01  0.98972599732E+01  0.10100000000E+00 0.  1.
          3   -1    0    0    0  501  0.00000000000E+00 -0.00000000000E+00 -0.44879077945E+02  0.44879191594E+02  0.10100000000E+00 0.  1.
          2    1    1    2    0  502 -0.10282424636E+02 -0.17950635677E+02 -0.12257352128E+02  0.24045711994E+02  0.25500000000E-02 0.  1.
         -2    1    1    2  502    0  0.10282424636E+02  0.17950635677E+02 -0.22724981201E+02  0.30730739573E+02  0.25500000000E-02 0.  1.
<mgrwt>
<rscale>  0 0.42150872E+02</rscale>
<asrwt>0</asrwt>
<pdfrwt beam="2">  1        3 0.69045218E-02 0.42150872E+02</pdfrwt>
<pdfrwt beam="1">  1       -3 0.15226245E-02 0.42150872E+02</pdfrwt>
<totfact> 0.28566275E+05</totfact>
</mgrwt>
</event>
<event>
 4    1  0.1537855E-002  0.7561015E+02  0.7818608E-02  0.1341992E+00
         -3   -1    0    0  501    0 -0.00000000000E+00  0.00000000000E+00  0.46323933492E+02  0.46324043597E+02  0.10100000000E+00 0.  1.
          3   -1    0    0    0  501  0.00000000000E+00 -0.00000000000E+00 -0.30852582774E+02  0.30852748092E+02  0.10100000000E+00 0.  1.
          2    1    1    2    0  502  0.67872991186E+00  0.37720708757E+02  0.10217320655E+02  0.39085882251E+02  0.25500000000E-02 0.  1.
         -2    1    1    2  502    0 -0.67872991186E+00 -0.37720708757E+02  0.52540300627E+01  0.38090909438E+02  0.25500000000E-02 0.  1.
<mgrwt>
<rscale>  0 0.75610148E+02</rscale>
<asrwt>0</asrwt>
<pdfrwt beam="2">  1        3 0.47465724E-02 0.75610148E+02</pdfrwt>
<pdfrwt beam="1">  1       -3 0.71267802E-02 0.75610148E+02</pdfrwt>
<totfact> 0.60392888E+04</totfact>
</mgrwt>
</event>
<event>
 4    1  0.1537855E-002  0.5980106E+02  0.7818608E-02  0.1398669E+00
          3   -1    0    0    0  501  0.00000000000E+00  0.00000000000E+00  0.14779627855E+01  0.14814097999E+01  0.10100000000E+00 0.  1.
         -3   -1    0    0  501    0 -0.00000000000E+00 -0.00000000000E+00 -0.60420676133E+03  0.60420676977E+03  0.10100000000E+00 0.  1.
          2    1    1    2    0  502  0.73251037294E+01 -0.27999052743E+02 -0.22527502881E+03  0.22712649055E+03  0.25500000000E-02 0. -1.
         -2    1    1    2  502    0 -0.73251037294E+01  0.27999052743E+02 -0.37745376974E+03  0.37856168902E+03  0.25500000000E-02 0. -1.
<mgrwt>
<rscale>  0 0.59801056E+02</rscale>
<asrwt>0</asrwt>
<pdfrwt beam="1">  1        3 0.22764518E-03 0.59801056E+02</pdfrwt>
<pdfrwt beam="2">  1       -3 0.92954955E-01 0.59801056E+02</pdfrwt>
<totfact> 0.46626876E+04</totfact>
</mgrwt>
</event>
<event>
 4    1  0.1537855E-002  0.4651175E+02  0.7818608E-02  0.1465119E+00
          3   -1    0    0    0  501  0.00000000000E+00  0.00000000000E+00  0.74263899967E+02  0.74263968647E+02  0.10100000000E+00 0.  1.
         -3   -1    0    0  501    0 -0.00000000000E+00 -0.00000000000E+00 -0.72821971042E+01  0.72828974773E+01  0.10100000000E+00 0.  1.
          2    1    1    2    0  502  0.22943976209E+02 -0.13374521368E+01  0.39719438004E+02  0.45889525867E+02  0.25500000000E-02 0. -1.
         -2    1    1    2  502    0 -0.22943976209E+02  0.13374521368E+01  0.27262264859E+02  0.35657340257E+02  0.25500000000E-02 0. -1.
<mgrwt>
<rscale>  0 0.46511750E+02</rscale>
<asrwt>0</asrwt>
<pdfrwt beam="1">  1        3 0.11425274E-01 0.46511750E+02</pdfrwt>
<pdfrwt beam="2">  1       -3 0.11203972E-02 0.46511750E+02</pdfrwt>
<totfact> 0.20897501E+05</totfact>
</mgrwt>
</event>
<event>
 4    1  0.1537855E-002  0.7771854E+02  0.7818608E-02  0.1335653E+00
         -3   -1    0    0  501    0 -0.00000000000E+00  0.00000000000E+00  0.84085922709E+02  0.84085983367E+02  0.10100000000E+00 0.  1.
          3   -1    0    0    0  501  0.00000000000E+00 -0.00000000000E+00 -0.17958121906E+02  0.17958405926E+02  0.10100000000E+00 0.  1.
          2    1    1    2    0  502  0.20713987568E+02  0.77234552334E+01  0.75024897545E+02  0.78214169432E+02  0.25500000000E-02 0. -1.
         -2    1    1    2  502    0 -0.20713987568E+02 -0.77234552334E+01 -0.88970967425E+01  0.23830219861E+02  0.25500000000E-02 0. -1.
<mgrwt>
<rscale>  0 0.77718539E+02</rscale>
<asrwt>0</asrwt>
<pdfrwt beam="2">  1        3 0.27628145E-02 0.77718539E+02</pdfrwt>
<pdfrwt beam="1">  1       -3 0.12936322E-01 0.77718539E+02</pdfrwt>
<totfact> 0.53072025E+04</totfact>
</mgrwt>
</event>
<event>
 4    1  0.1537855E-002  0.5947924E+02  0.7818608E-02  0.1400030E+00
          3   -1    0    0    0  501  0.00000000000E+00  0.00000000000E+00  0.44841305004E+02  0.44841418749E+02  0.10100000000E+00 0. -1.
         -3   -1    0    0  501    0 -0.00000000000E+00 -0.00000000000E+00 -0.19723623961E+02  0.19723882558E+02  0.10100000000E+00 0. -1.
          2    1    1    2    0  502  0.27434746748E+02 -0.81047511812E+01  0.21383757009E+02  0.35715786302E+02  0.25500000000E-02 0.  1.
         -2    1    1    2  502    0 -0.27434746748E+02  0.81047511812E+01  0.37339240336E+01  0.28849515005E+02  0.25500000000E-02 0.  1.
<mgrwt>
<rscale>  0 0.59479242E+02</rscale>
<asrwt>0</asrwt>
<pdfrwt beam="1">  1        3 0.68986909E-02 0.59479242E+02</pdfrwt>
<pdfrwt beam="2">  1       -3 0.30344323E-02 0.59479242E+02</pdfrwt>
<totfact> 0.11682370E+05</totfact>
</mgrwt>
</event>
<event>
 4    1  0.1537855E-002  0.6503054E+02  0.7818608E-02  0.1377857E+00
          3   -1    0    0    0  501  0.00000000000E+00  0.00000000000E+00  0.70362583280E+02  0.70362655769E+02  0.10100000000E+00 0. -1.
         -3   -1    0    0  501    0 -0.00000000000E+00 -0.00000000000E+00 -0.15025388350E+02  0.15025727805E+02  0.10100000000E+00 0. -1.
          2    1    1    2    0  502 -0.12107411256E+02  0.29374944764E+02  0.18593724047E+02  0.36813086908E+02  0.25500000000E-02 0. -1.
         -2    1    1    2  502    0  0.12107411256E+02 -0.29374944764E+02  0.36743470883E+02  0.48575296667E+02  0.25500000000E-02 0. -1.
<mgrwt>
<rscale>  0 0.65030538E+02</rscale>
<asrwt>0</asrwt>
<pdfrwt beam="1">  1        3 0.10825045E-01 0.65030538E+02</pdfrwt>
<pdfrwt beam="2">  1       -3 0.23116299E-02 0.65030538E+02</pdfrwt>
<totfact> 0.88145124E+04</totfact>
</mgrwt>
</event>
<event>
 4    1  0.1537855E-002  0.4405847E+02  0.7818608E-02  0.1480306E+00
          3   -1    0    0    0  501  0.00000000000E+00  0.00000000000E+00  0.20740015521E+01  0.20764593514E+01  0.10100000000E+00 0.  1.
         -3   -1    0    0  501    0 -0.00000000000E+00 -0.00000000000E+00 -0.23384491651E+03  0.23384493832E+03  0.10100000000E+00 0.  1.
          2    1    1    2    0  502  0.10170406961E+02  0.18833532187E+02 -0.87985239266E+02  0.90551319414E+02  0.25500000000E-02 0.  1.
         -2    1    1    2  502    0 -0.10170406961E+02 -0.18833532187E+02 -0.14378567569E+03  0.14537007826E+03  0.25500000000E-02 0.  1.
<mgrwt>
<rscale>  0 0.44058471E+02</rscale>
<asrwt>0</asrwt>
<pdfrwt beam="1">  1        3 0.31926809E-03 0.44058471E+02</pdfrwt>
<pdfrwt beam="2">  1       -3 0.35976311E-01 0.44058471E+02</pdfrwt>
<totfact> 0.17334546E+05</totfact>
</mgrwt>
</event>
<event>
 4    1  0.1537855E-002  0.7262288E+02  0.7818608E-02  0.1351394E+00
         -3   -1    0    0  501    0 -0.00000000000E+00  0.00000000000E+00  0.12777025547E+03  0.12777029539E+03  0.10100000000E+00 0. -1.
          3   -1    0    0    0  501  0.00000000000E+00 -0.00000000000E+00 -0.10319177297E+02  0.10319671559E+02  0.10100000000E+00 0. -1.
          2    1    1    2    0  502 -0.35739937224E+02  0.93847145653E+00  0.46655053365E+02  0.58778549254E+02  0.25500000000E-02 0. -1.
         -2    1    1    2  502    0  0.35739937224E+02 -0.93847145653E+00  0.70796024805E+02  0.79311417691E+02  0.25500000000E-02 0. -1.
<mgrwt>
<rscale>  0 0.72622883E+02</rscale>
<asrwt>0</asrwt>
<pdfrwt beam="2">  1        3 0.15876069E-02 0.72622883E+02</pdfrwt>
<pdfrwt beam="1">  1       -3 0.19657003E-01 0.72622883E+02</pdfrwt>
<totfact> 0.58860036E+04</totfact>
</mgrwt>
</event>
<event>
 4    1  0.1537855E-002  0.1206109E+03  0.7818608E-02  0.1242093E+00
          3   -1    0    0    0  501  0.00000000000E+00  0.00000000000E+00  0.15000040349E+03  0.15000043749E+03  0.10100000000E+00 0.  1.
         -3   -1    0    0  501    0 -0.00000000000E+00 -0.00000000000E+00 -0.24244767893E+02  0.24244978267E+02  0.10100000000E+00 0.  1.
          2    1    1    2    0  502  0.59209638814E+02 -0.11279796966E+02  0.65668391251E+02  0.89136708287E+02  0.25500000000E-02 0.  1.
         -2    1    1    2  502    0 -0.59209638814E+02  0.11279796966E+02  0.60087244345E+02  0.85108707472E+02  0.25500000000E-02 0.  1.
<mgrwt>
<rscale>  0 0.12061088E+03</rscale>
<asrwt>0</asrwt>
<pdfrwt beam="1">  1        3 0.23077004E-01 0.12061088E+03</pdfrwt>
<pdfrwt beam="2">  1       -3 0.37299831E-02 0.12061088E+03</pdfrwt>
<totfact> 0.13843178E+04</totfact>
</mgrwt>
</event>
<event>
 4    1  0.1537855E-002  0.8611535E+02  0.7818608E-02  0.1312541E+00
          3   -1    0    0    0  501  0.00000000000E+00  0.00000000000E+00  0.67154829488E+02  0.67154905439E+02  0.10100000000E+00 0. -1.
         -3   -1    0    0  501    0 -0.00000000000E+00 -0.00000000000E+00 -0.27607113314E+02  0.27607298066E+02  0.10100000000E+00 0. -1.
          2    1    1    2    0  502 -0.26024899647E+02 -0.55581966307E+01 -0.17474243057E+02  0.31836113587E+02  0.25500000000E-02 0. -1.
         -2    1    1    2  502    0  0.26024899647E+02  0.55581966307E+01  0.57021959231E+02  0.62926089918E+02  0.25500000000E-02 0. -1.
<mgrwt>
<rscale>  0 0.86115349E+02</rscale>
<asrwt>0</asrwt>
<pdfrwt beam="1">  1        3 0.10331532E-01 0.86115349E+02</pdfrwt>
<pdfrwt beam="2">  1       -3 0.42472682E-02 0.86115349E+02</pdfrwt>
<totfact> 0.40934322E+04</totfact>
</mgrwt>
</event>
<event>
 4    1  0.1537855E-002  0.1044722E+03  0.7818608E-02  0.1271163E+00
         -3   -1    0    0  501    0 -0.00000000000E+00  0.00000000000E+00  0.60340242119E+03  0.60340242964E+03  0.10100000000E+00 0.  1.
          3   -1    0    0    0  501  0.00000000000E+00 -0.00000000000E+00 -0.45214642505E+01  0.45225921736E+01  0.10100000000E+00 0.  1.
          2    1    1    2    0  502 -0.44019727069E+02  0.25312233240E+02  0.37074712352E+03  0.37420833119E+03  0.25500000000E-02 0. -1.
         -2    1    1    2  502    0  0.44019727069E+02 -0.25312233240E+02  0.22813383342E+03  0.23371669063E+03  0.25500000000E-02 0. -1.
<mgrwt>
<rscale>  0 0.10447216E+03</rscale>
<asrwt>0</asrwt>
<pdfrwt beam="2">  1        3 0.69569725E-03 0.10447216E+03</pdfrwt>
<pdfrwt beam="1">  1       -3 0.92831235E-01 0.10447216E+03</pdfrwt>
<totfact> 0.10786461E+04</totfact>
</mgrwt>
</event>
<event>
 4    1  0.1537855E-002  0.4501014E+02  0.7818608E-02  0.1474278E+00
         -3   -1    0    0  501    0 -0.00000000000E+00  0.00000000000E+00  0.10142788167E+03  0.10142793196E+03  0.10100000000E+00 0. -1.
          3   -1    0    0    0  501  0.00000000000E+00 -0.00000000000E+00 -0.49929189198E+01  0.49939403621E+01  0.10100000000E+00 0. -1.
          2    1    1    2    0  502 -0.58987390555E+01  0.21675582209E+02  0.44999620688E+02  0.50295048018E+02  0.25500000000E-02 0. -1.
         -2    1    1    2  502    0  0.58987390555E+01 -0.21675582209E+02  0.51435342061E+02  0.56126824300E+02  0.25500000000E-02 0. -1.
<mgrwt>
<rscale>  0 0.45010142E+02</rscale>
<asrwt>0</asrwt>
<pdfrwt beam="2">  1        3 0.76822382E-03 0.45010142E+02</pdfrwt>
<pdfrwt beam="1">  1       -3 0.15604372E-01 0.45010142E+02</pdfrwt>
<totfact> 0.21374178E+05</totfact>
</mgrwt>
</event>
<event>
 4    1  0.1537855E-002  0.7293580E+02  0.7818608E-02  0.1350385E+00
          3   -1    0    0    0  501  0.00000000000E+00  0.00000000000E+00  0.73071443128E+02  0.73071512930E+02  0.10100000000E+00 0. -1.
         -3   -1    0    0  501    0 -0.00000000000E+00 -0.00000000000E+00 -0.18199882743E+02  0.18200162990E+02  0.10100000000E+00 0. -1.
          2    1    1    2    0  502 -0.24076620057E+02 -0.22012206099E+02  0.47833437191E+02  0.57898692305E+02  0.25500000000E-02 0.  1.
         -2    1    1    2  502    0  0.24076620057E+02  0.22012206099E+02  0.70381231953E+01  0.33372983614E+02  0.25500000000E-02 0.  1.
<mgrwt>
<rscale>  0 0.72935798E+02</rscale>
<asrwt>0</asrwt>
<pdfrwt beam="1">  1        3 0.11241788E-01 0.72935798E+02</pdfrwt>
<pdfrwt beam="2">  1       -3 0.28000089E-02 0.72935798E+02</pdfrwt>
<totfact> 0.64336030E+04</totfact>
</mgrwt>
</event>
<event>
 4    1  0.1537855E-002  0.4502491E+02  0.7818608E-02  0.1474186E+00
          3   -1    0    0    0  501  0.00000000000E+00  0.00000000000E+00  0.23321729845E+03  0.23321732032E+03  0.10100000000E+00 0. -1.
         -3   -1    0    0  501    0 -0.00000000000E+00 -0.00000000000E+00 -0.21719304770E+01  0.21742775805E+01  0.10100000000E+00 0. -1.
          2    1    1    2    0  502 -0.92695001085E+01  0.19572856716E+02  0.14766134777E+03  0.14924105998E+03  0.25500000000E-02 0. -1.
         -2    1    1    2  502    0  0.92695001085E+01 -0.19572856716E+02  0.83384020208E+02  0.86150537925E+02  0.25500000000E-02 0. -1.
<mgrwt>
<rscale>  0 0.45024908E+02</rscale>
<asrwt>0</asrwt>
<pdfrwt beam="1">  1        3 0.35879755E-01 0.45024908E+02</pdfrwt>
<pdfrwt beam="2">  1       -3 0.33432549E-03 0.45024908E+02</pdfrwt>
<totfact> 0.16453409E+05</totfact>
</mgrwt>
</event>
<event>
 4    1  0.1537855E-002  0.4798268E+02  0.7818608E-02  0.1456536E+00
          3   -1    0    0    0  501  0.00000000000E+00  0.00000000000E+00  0.24831966575E+02  0.24832171975E+02  0.10100000000E+00 0. -1.
         -3   -1    0    0  501    0 -0.00000000000E+00 -0.00000000000E+00 -0.23178757852E+02  0.23178977902E+02  0.10100000000E+00 0. -1.
          2    1    1    2    0  502  0.22358893023E+02  0.84184812423E+01  0.30172922550E+01  0.24081008756E+02  0.25500000000E-02 0.  1.
         -2    1    1    2  502    0 -0.22358893023E+02 -0.84184812423E+01 -0.13640835319E+01  0.23930141120E+02  0.25500000000E-02 0.  1.
<mgrwt>
<rscale>  0 0.47982678E+02</rscale>
<asrwt>0</asrwt>
<pdfrwt beam="1">  1        3 0.38203353E-02 0.47982678E+02</pdfrwt>
<pdfrwt beam="2">  1       -3 0.35659955E-02 0.47982678E+02</pdfrwt>
<totfact> 0.21081598E+05</totfact>
</mgrwt>
</event>
<event>
 4    1  0.1537855E-002  0.5483630E+02  0.7818608E-02  0.1420875E+00
         -3   -1    0    0  501    0 -0.00000000000E+00  0.00000000000E+00  0.23845450605E+01  0.23866830845E+01  0.10100000000E+00 0.  1.
          3   -1    0    0    0  501  0.00000000000E+00 -0.00000000000E+00 -0.31511792603E+03  0.31511794222E+03  0.10100000000E+00 0.  1.
          2    1    1    2    0  502  0.23060990130E+02 -0.23113356760E+01 -0.24118706099E+03  0.24229806011E+03  0.25500000000E-02 0. -1.
         -2    1    1    2  502    0 -0.23060990130E+02  0.23113356760E+01 -0.71546319978E+02  0.75206565188E+02  0.25500000000E-02 0. -1.
<mgrwt>
<rscale>  0 0.54836297E+02</rscale>
<asrwt>0</asrwt>
<pdfrwt beam="2">  1        3 0.48479814E-01 0.54836297E+02</pdfrwt>
<pdfrwt beam="1">  1       -3 0.36701904E-03 0.54836297E+02</pdfrwt>
<totfact> 0.87593075E+04</totfact>
</mgrwt>
</event>
<event>
 4    1  0.1537855E-002  0.6067375E+02  0.7818608E-02  0.1395026E+00
          3   -1    0    0    0  501  0.00000000000E+00  0.00000000000E+00  0.83728886811E+01  0.83734978275E+01  0.10100000000E+00 0. -1.
         -3   -1    0    0  501    0 -0.00000000000E+00 -0.00000000000E+00 -0.10991274223E+03  0.10991278863E+03  0.10100000000E+00 0. -1.
          2    1    1    2    0  502 -0.17375007018E+02 -0.20721854592E+02 -0.23965273701E+02  0.36133370680E+02  0.25500000000E-02 0.  1.
         -2    1    1    2  502    0  0.17375007018E+02  0.20721854592E+02 -0.77574579848E+02  0.82152915783E+02  0.25500000000E-02 0.  1.
<mgrwt>
<rscale>  0 0.60673748E+02</rscale>
<asrwt>0</asrwt>
<pdfrwt beam="1">  1        3 0.12881872E-02 0.60673748E+02</pdfrwt>
<pdfrwt beam="2">  1       -3 0.16909702E-01 0.60673748E+02</pdfrwt>
<totfact> 0.98001768E+04</totfact>
</mgrwt>
</event>
<event>
 4    1  0.1537855E-002  0.6269526E+02  0.7818608E-02  0.1386857E+00
          3   -1    0    0    0  501  0.00000000000E+00  0.00000000000E+00  0.59335360678E+01  0.59343956110E+01  0.10100000000E+00 0. -1.
         -3   -1    0    0  501    0 -0.00000000000E+00 -0.00000000000E+00 -0.16560067174E+03  0.16560070254E+03  0.10100000000E+00 0. -1.
          2    1    1    2    0  502 -0.27965697057E+02 -0.76219907968E+01 -0.47172969992E+02  0.55366633092E+02  0.25500000000E-02 0. -1.
         -2    1    1    2  502    0  0.27965697057E+02  0.76219907968E+01 -0.11249416568E+03  0.11616846506E+03  0.25500000000E-02 0. -1.
<mgrwt>
<rscale>  0 0.62695260E+02</rscale>
<asrwt>0</asrwt>
<pdfrwt beam="1">  1        3 0.91292032E-03 0.62695260E+02</pdfrwt>
<pdfrwt beam="2">  1       -3 0.25477091E-01 0.62695260E+02</pdfrwt>
<totfact> 0.80730989E+04</totfact>
</mgrwt>
</event>
<event>
 4    1  0.1537855E-002  0.8380471E+02  0.7818608E-02  0.1318588E+00
          3   -1    0    0    0  501  0.00000000000E+00  0.00000000000E+00  0.89873949747E+02  0.89874006498E+02  0.10100000000E+00 0. -1.
         -3   -1    0    0  501    0 -0.00000000000E+00 -0.00000000000E+00 -0.19536138789E+02  0.19536399868E+02  0.10100000000E+00 0. -1.
          2    1    1    2    0  502 -0.15848537655E+02  0.31053887899E+02  0.48228282245E+01  0.35196303472E+02  0.25500000000E-02 0. -1.
         -2    1    1    2  502    0  0.15848537655E+02 -0.31053887899E+02  0.65514982733E+02  0.74214102895E+02  0.25500000000E-02 0. -1.
<mgrwt>
<rscale>  0 0.83804710E+02</rscale>
<asrwt>0</asrwt>
<pdfrwt beam="1">  1        3 0.13826786E-01 0.83804710E+02</pdfrwt>
<pdfrwt beam="2">  1       -3 0.30055842E-02 0.83804710E+02</pdfrwt>
<totfact> 0.42680466E+04</totfact>
</mgrwt>
</event>
<event>
 4    1  0.1537855E-002  0.4834675E+02  0.7818608E-02  0.1454468E+00
          3   -1    0    0    0  501  0.00000000000E+00  0.00000000000E+00  0.53068198411E+02  0.53068294523E+02  0.10100000000E+00 0. -1.
         -3   -1    0    0  501    0 -0.00000000000E+00 -0.00000000000E+00 -0.11011003231E+02  0.11011466440E+02  0.10100000000E+00 0. -1.
          2    1    1    2    0  502  0.96943384279E+01  0.20814461853E+02  0.31046705762E+02  0.38615022529E+02  0.25500000000E-02 0. -1.
         -2    1    1    2  502    0 -0.96943384279E+01 -0.20814461853E+02  0.11010489417E+02  0.25464738434E+02  0.25500000000E-02 0. -1.
<mgrwt>
<rscale>  0 0.48346749E+02</rscale>
<asrwt>0</asrwt>
<pdfrwt beam="1">  1        3 0.81643813E-02 0.48346749E+02</pdfrwt>
<pdfrwt beam="2">  1       -3 0.16940435E-02 0.48346749E+02</pdfrwt>
<totfact> 0.19823219E+05</totfact>
</mgrwt>
</event>
<event>
 4    1  0.1537855E-002  0.6060149E+02  0.7818608E-02  0.1395325E+00
         -3   -1    0    0  501    0 -0.00000000000E+00  0.00000000000E+00  0.44407069185E+02  0.44407184042E+02  0.10100000000E+00 0. -1.
          3   -1    0    0    0  501  0.00000000000E+00 -0.00000000000E+00 -0.20675161515E+02  0.20675408211E+02  0.10100000000E+00 0. -1.
          2    1    1    2    0  502 -0.19983733396E+02  0.18083809785E+02 -0.30057951717E+01  0.27118417872E+02  0.25500000000E-02 0. -1.
         -2    1    1    2  502    0  0.19983733396E+02 -0.18083809785E+02  0.26737702841E+02  0.37964174381E+02  0.25500000000E-02 0. -1.
<mgrwt>
<rscale>  0 0.60601488E+02</rscale>
<asrwt>0</asrwt>
<pdfrwt beam="2">  1        3 0.31808219E-02 0.60601488E+02</pdfrwt>
<pdfrwt beam="1">  1       -3 0.68318845E-02 0.60601488E+02</pdfrwt>
<totfact> 0.11117698E+05</totfact>
</mgrwt>
</event>
<event>
 4    1  0.1537855E-002  0.5406829E+02  0.7818608E-02  0.1424557E+00
         -3   -1    0    0  501    0 -0.00000000000E+00  0.00000000000E+00  0.34594172531E+01  0.34608913203E+01  0.10100000000E+00 0.  1.
          3   -1    0    0    0  501  0.00000000000E+00 -0.00000000000E+00 -0.21121597986E+03  0.21121600400E+03  0.10100000000E+00 0.  1.
          2    1    1    2    0  502 -0.17775559756E+02 -0.19355077769E+02 -0.78686723304E+02  0.82958965706E+02  0.25500000000E-02 0.  1.
         -2    1    1    2  502    0  0.17775559756E+02  0.19355077769E+02 -0.12906983930E+03  0.13171792962E+03  0.25500000000E-02 0.  1.
<mgrwt>
<rscale>  0 0.54068291E+02</rscale>
<asrwt>0</asrwt>
<pdfrwt beam="2">  1        3 0.32494871E-01 0.54068291E+02</pdfrwt>
<pdfrwt beam="1">  1       -3 0.53233345E-03 0.54068291E+02</pdfrwt>
<totfact> 0.10841653E+05</totfact>
</mgrwt>
</event>
<event>
 4    1  0.1537855E-002  0.6536613E+02  0.7818608E-02  0.1376600E+00
          3   -1    0    0    0  501  0.00000000000E+00  0.00000000000E+00  0.13277567271E+02  0.13277951409E+02  0.10100000000E+00 0.  1.
         -3   -1    0    0  501    0 -0.00000000000E+00 -0.00000000000E+00 -0.80448612186E+02  0.80448675587E+02  0.10100000000E+00 0.  1.
          2    1    1    2    0  502 -0.11731031370E+02  0.28663107656E+02 -0.48555029016E+02  0.57591507071E+02  0.25500000000E-02 0.  1.
         -2    1    1    2  502    0  0.11731031370E+02 -0.28663107656E+02 -0.18616015899E+02  0.36135119924E+02  0.25500000000E-02 0.  1.
<mgrwt>
<rscale>  0 0.65366133E+02</rscale>
<asrwt>0</asrwt>
<pdfrwt beam="1">  1        3 0.20427371E-02 0.65366133E+02</pdfrwt>
<pdfrwt beam="2">  1       -3 0.12376744E-01 0.65366133E+02</pdfrwt>
<totfact> 0.85327154E+04</totfact>
</mgrwt>
</event>
<event>
 4    1  0.1537855E-002  0.6103180E+02  0.7818608E-02  0.1393552E+00
          3   -1    0    0    0  501  0.00000000000E+00  0.00000000000E+00  0.96338390732E+03  0.96338391261E+03  0.10100000000E+00 0.  1.
         -3   -1    0    0  501    0 -0.00000000000E+00 -0.00000000000E+00 -0.96397019769E+00  0.96924689426E+00  0.10100000000E+00 0.  1.
          2    1    1    2    0  502 -0.24256021860E+02 -0.18481405152E+02  0.49924841120E+03  0.50017886103E+03  0.25500000000E-02 0. -1.
         -2    1    1    2  502    0  0.24256021860E+02  0.18481405152E+02  0.46317152592E+03  0.46417429847E+03  0.25500000000E-02 0. -1.
<mgrwt>
<rscale>  0 0.61031802E+02</rscale>
<asrwt>0</asrwt>
<pdfrwt beam="1">  1        3 0.14821366E+00 0.61031802E+02</pdfrwt>
<pdfrwt beam="2">  1       -3 0.14870907E-03 0.61031802E+02</pdfrwt>
<totfact> 0.29487037E+04</totfact>
</mgrwt>
</event>
<event>
 4    1  0.1537855E-002  0.8867714E+02  0.7818608E-02  0.1306087E+00
          3   -1    0    0    0  501  0.00000000000E+00  0.00000000000E+00  0.42158364175E+02  0.42158485159E+02  0.10100000000E+00 0. -1.
         -3   -1    0    0  501    0 -0.00000000000E+00 -0.00000000000E+00 -0.46631279524E+02  0.46631388904E+02  0.10100000000E+00 0. -1.
          2    1    1    2    0  502 -0.29292441229E+02  0.30709456382E+02 -0.15089866858E+02  0.45042445678E+02  0.25500000000E-02 0.  1.
         -2    1    1    2  502    0  0.29292441229E+02 -0.30709456382E+02  0.10616951508E+02  0.43747428384E+02  0.25500000000E-02 0.  1.
<mgrwt>
<rscale>  0 0.88677138E+02</rscale>
<asrwt>0</asrwt>
<pdfrwt beam="1">  1        3 0.64859199E-02 0.88677138E+02</pdfrwt>
<pdfrwt beam="2">  1       -3 0.71740608E-02 0.88677138E+02</pdfrwt>
<totfact> 0.38310514E+04</totfact>
</mgrwt>
</event>
<event>
 4    1  0.1537855E-002  0.7939675E+02  0.7818608E-02  0.1330772E+00
          3   -1    0    0    0  501  0.00000000000E+00  0.00000000000E+00  0.67424101075E+01  0.67431665453E+01  0.10100000000E+00 0.  1.
         -3   -1    0    0  501    0 -0.00000000000E+00 -0.00000000000E+00 -0.23372467256E+03  0.23372469438E+03  0.10100000000E+00 0.  1.
          2    1    1    2    0  502  0.57276039831E+01  0.35470253273E+02 -0.62359511088E+02  0.71969805782E+02  0.25500000000E-02 0. -1.
         -2    1    1    2  502    0 -0.57276039831E+01 -0.35470253273E+02 -0.16462275136E+03  0.16849805514E+03  0.25500000000E-02 0. -1.
<mgrwt>
<rscale>  0 0.79396755E+02</rscale>
<asrwt>0</asrwt>
<pdfrwt beam="1">  1        3 0.10373539E-02 0.79396755E+02</pdfrwt>
<pdfrwt beam="2">  1       -3 0.35957696E-01 0.79396755E+02</pdfrwt>
<totfact> 0.38369695E+04</totfact>
</mgrwt>
</event>
<event>
 4    1  0.1537855E-002  0.5843962E+02  0.7818608E-02  0.1404499E+00
          3   -1    0    0    0  501  0.00000000000E+00  0.00000000000E+00  0.33290142673E+02  0.33290295887E+02  0.10100000000E+00 0.  1.
         -3   -1    0    0  501    0 -0.00000000000E+00 -0.00000000000E+00 -0.25646840294E+02  0.25647039167E+02  0.10100000000E+00 0.  1.
          2    1    1    2    0  502  0.20876395393E+02  0.48201031470E+01  0.23858928144E+02  0.32067206577E+02  0.25500000000E-02 0. -1.
         -2    1    1    2  502    0 -0.20876395393E+02 -0.48201031470E+01 -0.16215625764E+02  0.26870128477E+02  0.25500000000E-02 0. -1.
<mgrwt>
<rscale>  0 0.58439622E+02</rscale>
<asrwt>0</asrwt>
<pdfrwt beam="1">  1        3 0.51215875E-02 0.58439622E+02</pdfrwt>
<pdfrwt beam="2">  1       -3 0.39456949E-02 0.58439622E+02</pdfrwt>
<totfact> 0.12400523E+05</totfact>
</mgrwt>
</event>
<event>
 4    1  0.1537855E-002  0.8904503E+02  0.7818608E-02  0.1305181E+00
          3   -1    0    0    0  501  0.00000000000E+00  0.00000000000E+00  0.67665811952E+01  0.67673349312E+01  0.10100000000E+00 0. -1.
         -3   -1    0    0  501    0 -0.00000000000E+00 -0.00000000000E+00 -0.29293062943E+03  0.29293064685E+03  0.10100000000E+00 0. -1.
          2    1    1    2    0  502 -0.43732684187E+02  0.74142061929E+01 -0.13016184257E+03  0.13751226632E+03  0.25500000000E-02 0.  1.
         -2    1    1    2  502    0  0.43732684187E+02 -0.74142061929E+01 -0.15600220567E+03  0.16218571546E+03  0.25500000000E-02 0.  1.
<mgrwt>
<rscale>  0 0.89045032E+02</rscale>
<asrwt>0</asrwt>
<pdfrwt beam="1">  1        3 0.10410720E-02 0.89045032E+02</pdfrwt>
<pdfrwt beam="2">  1       -3 0.45066300E-01 0.89045032E+02</pdfrwt>
<totfact> 0.25606765E+04</totfact>
</mgrwt>
</event>
<event>
 4    1  0.1537855E-002  0.5183543E+02  0.7818608E-02  0.1435686E+00
          3   -1    0    0    0  501  0.00000000000E+00  0.00000000000E+00  0.35365510600E+03  0.35365512042E+03  0.10100000000E+00 0. -1.
         -3   -1    0    0  501    0 -0.00000000000E+00 -0.00000000000E+00 -0.18980299523E+01  0.19007153127E+01  0.10100000000E+00 0. -1.
          2    1    1    2    0  502 -0.15965488858E+02  0.14879777591E+02  0.27176765146E+03  0.27264255170E+03  0.25500000000E-02 0. -1.
         -2    1    1    2  502    0  0.15965488858E+02 -0.14879777591E+02  0.79989424590E+02  0.82913284028E+02  0.25500000000E-02 0. -1.
<mgrwt>
<rscale>  0 0.51835430E+02</rscale>
<asrwt>0</asrwt>
<pdfrwt beam="1">  1        3 0.54408668E-01 0.51835430E+02</pdfrwt>
<pdfrwt beam="2">  1       -3 0.29221238E-03 0.51835430E+02</pdfrwt>
<totfact> 0.94933394E+04</totfact>
</mgrwt>
</event>
<event>
 4    1  0.1537855E-002  0.5160755E+02  0.7818608E-02  0.1436859E+00
         -3   -1    0    0  501    0 -0.00000000000E+00  0.00000000000E+00  0.25985492452E+03  0.25985494415E+03  0.10100000000E+00 0. -1.
          3   -1    0    0    0  501  0.00000000000E+00 -0.00000000000E+00 -0.25613175436E+01  0.25633081280E+01  0.10100000000E+00 0. -1.
          2    1    1    2    0  502 -0.12455042424E+02  0.20703169677E+02  0.82577270603E+02  0.86039263962E+02  0.25500000000E-02 0. -1.
         -2    1    1    2  502    0  0.12455042424E+02 -0.20703169677E+02  0.17471633638E+03  0.17637898832E+03  0.25500000000E-02 0. -1.
<mgrwt>
<rscale>  0 0.51607547E+02</rscale>
<asrwt>0</asrwt>
<pdfrwt beam="2">  1        3 0.39420373E-03 0.51607547E+02</pdfrwt>
<pdfrwt beam="1">  1       -3 0.39977811E-01 0.51607547E+02</pdfrwt>
<totfact> 0.11186311E+05</totfact>
</mgrwt>
</event>
<event>
 4    1  0.1537855E-002  0.4737639E+02  0.7818608E-02  0.1460029E+00
          3   -1    0    0    0  501  0.00000000000E+00  0.00000000000E+00  0.22320912631E+02  0.22321141137E+02  0.10100000000E+00 0. -1.
         -3   -1    0    0  501    0 -0.00000000000E+00 -0.00000000000E+00 -0.25138775993E+02  0.25138978886E+02  0.10100000000E+00 0. -1.
          2    1    1    2    0  502  0.14540128730E+02 -0.17930704784E+02  0.39113047593E+01  0.23414180083E+02  0.25500000000E-02 0. -1.
         -2    1    1    2  502    0 -0.14540128730E+02  0.17930704784E+02 -0.67291681216E+01  0.24045939941E+02  0.25500000000E-02 0. -1.
<mgrwt>
<rscale>  0 0.47376393E+02</rscale>
<asrwt>0</asrwt>
<pdfrwt beam="1">  1        3 0.34340197E-02 0.47376393E+02</pdfrwt>
<pdfrwt beam="2">  1       -3 0.38675372E-02 0.47376393E+02</pdfrwt>
<totfact> 0.21797923E+05</totfact>
</mgrwt>
</event>
<event>
 4    1  0.1537855E-002  0.4511905E+02  0.7818608E-02  0.1473600E+00
          3   -1    0    0    0  501  0.00000000000E+00  0.00000000000E+00  0.38383169466E+01  0.38396455542E+01  0.10100000000E+00 0.  1.
         -3   -1    0    0  501    0 -0.00000000000E+00 -0.00000000000E+00 -0.13256826459E+03  0.13256830307E+03  0.10100000000E+00 0.  1.
          2    1    1    2    0  502  0.69358857221E+01 -0.19856162076E+02 -0.39699942320E+02  0.44927264661E+02  0.25500000000E-02 0.  1.
         -2    1    1    2  502    0 -0.69358857221E+01  0.19856162076E+02 -0.89030005328E+02  0.91480683963E+02  0.25500000000E-02 0.  1.
<mgrwt>
<rscale>  0 0.45119054E+02</rscale>
<asrwt>0</asrwt>
<pdfrwt beam="1">  1        3 0.59061556E-03 0.45119054E+02</pdfrwt>
<pdfrwt beam="2">  1       -3 0.20395219E-01 0.45119054E+02</pdfrwt>
<totfact> 0.19880005E+05</totfact>
</mgrwt>
</event>
<event>
 4    1  0.1537855E-002  0.4961756E+02  0.7818608E-02  0.1447415E+00
         -3   -1    0    0  501    0 -0.00000000000E+00  0.00000000000E+00  0.59201728295E+00  0.60057094778E+00  0.10100000000E+00 0. -1.
          3   -1    0    0    0  501  0.00000000000E+00 -0.00000000000E+00 -0.10321591773E+04  0.10321591823E+04  0.10100000000E+00 0. -1.
          2    1    1    2    0  502  0.21467818282E+02  0.91011262242E+01 -0.33944025044E+03  0.34024018185E+03  0.25500000000E-02 0.  1.
         -2    1    1    2  502    0 -0.21467818282E+02 -0.91011262242E+01 -0.69212690962E+03  0.69251957138E+03  0.25500000000E-02 0.  1.
<mgrwt>
<rscale>  0 0.49617559E+02</rscale>
<asrwt>0</asrwt>
<pdfrwt beam="2">  1        3 0.15879295E+00 0.49617559E+02</pdfrwt>
<pdfrwt beam="1">  1       -3 0.91738763E-04 0.49617559E+02</pdfrwt>
<totfact> 0.46173783E+04</totfact>
</mgrwt>
</event>
<event>
 4    1  0.1537855E-002  0.4732768E+02  0.7818608E-02  0.1460312E+00
         -3   -1    0    0  501    0 -0.00000000000E+00  0.00000000000E+00  0.27329285670E+04  0.27329285689E+04  0.10100000000E+00 0.  1.
          3   -1    0    0    0  501  0.00000000000E+00 -0.00000000000E+00 -0.19245182992E+00  0.21734467290E+00  0.10100000000E+00 0.  1.
          2    1    1    2    0  502 -0.22781079863E+02 -0.39749221030E+01  0.10764696062E+04  0.10767179718E+04  0.25500000000E-02 0.  1.
         -2    1    1    2  502    0  0.22781079863E+02  0.39749221030E+01  0.16562665090E+04  0.16564279418E+04  0.25500000000E-02 0.  1.
<mgrwt>
<rscale>  0 0.47327683E+02</rscale>
<asrwt>0</asrwt>
<pdfrwt beam="2">  1        3 0.31524586E-04 0.47327683E+02</pdfrwt>
<pdfrwt beam="1">  1       -3 0.42043066E+00 0.47327683E+02</pdfrwt>
<totfact> 0.82885337E+03</totfact>
</mgrwt>
</event>
<event>
 4    1  0.1537855E-002  0.1041585E+03  0.7818608E-02  0.1271787E+00
         -3   -1    0    0  501    0 -0.00000000000E+00  0.00000000000E+00  0.18765215408E+02  0.18765487212E+02  0.10100000000E+00 0.  1.
          3   -1    0    0    0  501  0.00000000000E+00 -0.00000000000E+00 -0.14453452657E+03  0.14453456186E+03  0.10100000000E+00 0.  1.
          2    1    1    2    0  502  0.43662234440E+02 -0.28368523183E+02 -0.64516052241E+02  0.82906482420E+02  0.25500000000E-02 0.  1.
         -2    1    1    2  502    0 -0.43662234440E+02  0.28368523183E+02 -0.61253258918E+02  0.80393566649E+02  0.25500000000E-02 0.  1.
<mgrwt>
<rscale>  0 0.10415847E+03</rscale>
<asrwt>0</asrwt>
<pdfrwt beam="2">  1        3 0.22236104E-01 0.10415847E+03</pdfrwt>
<pdfrwt beam="1">  1       -3 0.28869799E-02 0.10415847E+03</pdfrwt>
<totfact> 0.21219233E+04</totfact>
</mgrwt>
</event>
<event>
 4    1  0.1537855E-002  0.5773496E+02  0.7818608E-02  0.1407591E+00
         -3   -1    0    0  501    0 -0.00000000000E+00  0.00000000000E+00  0.26741872156E+01  0.26760938444E+01  0.10100000000E+00 0.  1.
          3   -1    0    0    0  501  0.00000000000E+00 -0.00000000000E+00 -0.31150752144E+03  0.31150753781E+03  0.10100000000E+00 0.  1.
          2    1    1    2    0  502 -0.22728874126E+02  0.11103425501E+02 -0.23010378888E+03  0.23149004610E+03  0.25500000000E-02 0.  1.
         -2    1    1    2  502    0  0.22728874126E+02 -0.11103425501E+02 -0.78729545339E+02  0.82693585559E+02  0.25500000000E-02 0.  1.
<mgrwt>
<rscale>  0 0.57734964E+02</rscale>
<asrwt>0</asrwt>
<pdfrwt beam="2">  1        3 0.47924353E-01 0.57734964E+02</pdfrwt>
<pdfrwt beam="1">  1       -3 0.41156159E-03 0.57734964E+02</pdfrwt>
<totfact> 0.77329574E+04</totfact>
</mgrwt>
</event>
<event>
 4    1  0.1537855E-002  0.4581073E+02  0.7818608E-02  0.1469343E+00
         -3   -1    0    0  501    0 -0.00000000000E+00  0.00000000000E+00  0.18315864346E+02  0.18316142818E+02  0.10100000000E+00 0. -1.
          3   -1    0    0    0  501  0.00000000000E+00 -0.00000000000E+00 -0.28644290654E+02  0.28644468717E+02  0.10100000000E+00 0. -1.
          2    1    1    2    0  502 -0.21479370108E+02  0.79534980097E+01 -0.49746828191E+01  0.23438620832E+02  0.25500000000E-02 0.  1.
         -2    1    1    2  502    0  0.21479370108E+02 -0.79534980097E+01 -0.53537434891E+01  0.23521990704E+02  0.25500000000E-02 0.  1.
<mgrwt>
<rscale>  0 0.45810726E+02</rscale>
<asrwt>0</asrwt>
<pdfrwt beam="2">  1        3 0.44068490E-02 0.45810726E+02</pdfrwt>
<pdfrwt beam="1">  1       -3 0.28178604E-02 0.45810726E+02</pdfrwt>
<totfact> 0.23742218E+05</totfact>
</mgrwt>
</event>
<event>
 4    1  0.1537855E-002  0.4053953E+02  0.7818608E-02  0.1504278E+00
         -3   -1    0    0  501    0 -0.00000000000E+00  0.00000000000E+00  0.56844882919E+03  0.56844883816E+03  0.10100000000E+00 0.  1.
          3   -1    0    0    0  501  0.00000000000E+00 -0.00000000000E+00 -0.71924261707E+00  0.72629948521E+00  0.10100000000E+00 0.  1.
          2    1    1    2    0  502  0.10593230824E+02 -0.17281391679E+02  0.28357795549E+03  0.28430145952E+03  0.25500000000E-02 0. -1.
         -2    1    1    2  502    0 -0.10593230824E+02  0.17281391679E+02  0.28415163108E+03  0.28487367812E+03  0.25500000000E-02 0. -1.
<mgrwt>
<rscale>  0 0.40539534E+02</rscale>
<asrwt>0</asrwt>
<pdfrwt beam="2">  1        3 0.11119641E-03 0.40539534E+02</pdfrwt>
<pdfrwt beam="1">  1       -3 0.87454071E-01 0.40539534E+02</pdfrwt>
<totfact> 0.12765307E+05</totfact>
</mgrwt>
</event>
<event>
 4    1  0.1537855E-002  0.6602285E+02  0.7818608E-02  0.1374165E+00
         -3   -1    0    0  501    0 -0.00000000000E+00  0.00000000000E+00  0.31834658244E+02  0.31834818462E+02  0.10100000000E+00 0.  1.
          3   -1    0    0    0  501  0.00000000000E+00 -0.00000000000E+00 -0.34231370424E+02  0.34231519425E+02  0.10100000000E+00 0.  1.
          2    1    1    2    0  502  0.25783584709E+01 -0.31315507573E+02 -0.11326546456E+02  0.33400592930E+02  0.25500000000E-02 0.  1.
         -2    1    1    2  502    0 -0.25783584709E+01  0.31315507573E+02  0.89298342758E+01  0.32665744957E+02  0.25500000000E-02 0.  1.
<mgrwt>
<rscale>  0 0.66022850E+02</rscale>
<asrwt>0</asrwt>
<pdfrwt beam="2">  1        3 0.52663884E-02 0.66022850E+02</pdfrwt>
<pdfrwt beam="1">  1       -3 0.48976635E-02 0.66022850E+02</pdfrwt>
<totfact> 0.88709587E+04</totfact>
</mgrwt>
</event>
<event>
 4    1  0.1537855E-002  0.8031360E+02  0.7818608E-02  0.1328164E+00
          3   -1    0    0    0  501  0.00000000000E+00  0.00000000000E+00  0.12154426202E+03  0.12154430398E+03  0.10100000000E+00 0. -1.
         -3   -1    0    0  501    0 -0.00000000000E+00 -0.00000000000E+00 -0.13267100076E+02  0.13267484518E+02  0.10100000000E+00 0. -1.
          2    1    1    2    0  502  0.31626115645E+02  0.14868132853E+02  0.20934496677E+02  0.40737276823E+02  0.25500000000E-02 0.  1.
         -2    1    1    2  502    0 -0.31626115645E+02 -0.14868132853E+02  0.87342665267E+02  0.94074511679E+02  0.25500000000E-02 0.  1.
<mgrwt>
<rscale>  0 0.80313601E+02</rscale>
<asrwt>0</asrwt>
<pdfrwt beam="1">  1        3 0.18699150E-01 0.80313601E+02</pdfrwt>
<pdfrwt beam="2">  1       -3 0.20411251E-02 0.80313601E+02</pdfrwt>
<totfact> 0.45375253E+04</totfact>
</mgrwt>
</event>
<event>
 4    1  0.1537855E-002  0.4582119E+02  0.7818608E-02  0.1469279E+00
         -3   -1    0    0  501    0 -0.00000000000E+00  0.00000000000E+00  0.18075556298E+01  0.18103751972E+01  0.10100000000E+00 0. -1.
          3   -1    0    0    0  501  0.00000000000E+00 -0.00000000000E+00 -0.29016047718E+03  0.29016049476E+03  0.10100000000E+00 0. -1.
          2    1    1    2    0  502  0.11478103750E+02  0.18830499586E+02 -0.10460827364E+03  0.10690755586E+03  0.25500000000E-02 0. -1.
         -2    1    1    2  502    0 -0.11478103750E+02 -0.18830499586E+02 -0.18374464792E+03  0.18506331410E+03  0.25500000000E-02 0. -1.
<mgrwt>
<rscale>  0 0.45821191E+02</rscale>
<asrwt>0</asrwt>
<pdfrwt beam="2">  1        3 0.44640255E-01 0.45821191E+02</pdfrwt>
<pdfrwt beam="1">  1       -3 0.27830395E-03 0.45821191E+02</pdfrwt>
<totfact> 0.14278694E+05</totfact>
</mgrwt>
</event>
<event>
 4    1  0.1537855E-002  0.6795356E+02  0.7818608E-02  0.1367194E+00
         -3   -1    0    0  501    0 -0.00000000000E+00  0.00000000000E+00  0.79335904003E+01  0.79342332736E+01  0.10100000000E+00 0.  1.
          3   -1    0    0    0  501  0.00000000000E+00 -0.00000000000E+00 -0.14550403320E+03  0.14550406825E+03  0.10100000000E+00 0.  1.
          2    1    1    2    0  502  0.15479556333E+02 -0.13606010777E+02 -0.12977937119E+03  0.13140557594E+03  0.25500000000E-02 0. -1.
         -2    1    1    2  502    0 -0.15479556333E+02  0.13606010777E+02 -0.77910716018E+01  0.22032725586E+02  0.25500000000E-02 0. -1.
<mgrwt>
<rscale>  0 0.67953555E+02</rscale>
<asrwt>0</asrwt>
<pdfrwt beam="2">  1        3 0.22385286E-01 0.67953555E+02</pdfrwt>
<pdfrwt beam="1">  1       -3 0.12206046E-02 0.67953555E+02</pdfrwt>
<totfact> 0.67898786E+04</totfact>
</mgrwt>
</event>
<event>
 4    1  0.1537855E-002  0.5074098E+02  0.7818608E-02  0.1441385E+00
          3   -1    0    0    0  501  0.00000000000E+00  0.00000000000E+00  0.42435063113E+01  0.42447080953E+01  0.10100000000E+00 0. -1.
         -3   -1    0    0  501    0 -0.00000000000E+00 -0.00000000000E+00 -0.15165891219E+03  0.15165894582E+03  0.10100000000E+00 0. -1.
          2    1    1    2    0  502 -0.14876907005E+02  0.15249901227E+02 -0.11603520415E+03  0.11797478739E+03  0.25500000000E-02 0.  1.
         -2    1    1    2  502    0  0.14876907005E+02 -0.15249901227E+02 -0.31380201728E+02  0.37928866532E+02  0.25500000000E-02 0.  1.
<mgrwt>
<rscale>  0 0.50740984E+02</rscale>
<asrwt>0</asrwt>
<pdfrwt beam="1">  1        3 0.65294227E-03 0.50740984E+02</pdfrwt>
<pdfrwt beam="2">  1       -3 0.23332231E-01 0.50740984E+02</pdfrwt>
<totfact> 0.14255690E+05</totfact>
</mgrwt>
</event>
<event>
 4    1  0.1537855E-002  0.4905841E+02  0.7818608E-02  0.1450487E+00
          3   -1    0    0    0  501  0.00000000000E+00  0.00000000000E+00  0.83084370113E+02  0.83084431503E+02  0.10100000000E+00 0.  1.
         -3   -1    0    0  501    0 -0.00000000000E+00 -0.00000000000E+00 -0.72414017293E+01  0.72421060477E+01  0.10100000000E+00 0.  1.
          2    1    1    2    0  502 -0.13862459530E+02 -0.20221734501E+02  0.39342371458E+02  0.46356321348E+02  0.25500000000E-02 0. -1.
         -2    1    1    2  502    0  0.13862459530E+02  0.20221734501E+02  0.36500596926E+02  0.43970216202E+02  0.25500000000E-02 0. -1.
<mgrwt>
<rscale>  0 0.49058409E+02</rscale>
<asrwt>0</asrwt>
<pdfrwt beam="1">  1        3 0.12782270E-01 0.49058409E+02</pdfrwt>
<pdfrwt beam="2">  1       -3 0.11141207E-02 0.49058409E+02</pdfrwt>
<totfact> 0.17911116E+05</totfact>
</mgrwt>
</event>
<event>
 4    1  0.1537855E-002  0.6018139E+02  0.7818608E-02  0.1397072E+00
          3   -1    0    0    0  501  0.00000000000E+00  0.00000000000E+00  0.15891070931E+02  0.15891391895E+02  0.10100000000E+00 0. -1.
         -3   -1    0    0  501    0 -0.00000000000E+00 -0.00000000000E+00 -0.56977586071E+02  0.56977675588E+02  0.10100000000E+00 0. -1.
          2    1    1    2    0  502 -0.39344936515E+01 -0.28074330234E+02 -0.83264361948E+01  0.29546197803E+02  0.25500000000E-02 0. -1.
         -2    1    1    2  502    0  0.39344936515E+01  0.28074330234E+02 -0.32760078945E+02  0.43322869680E+02  0.25500000000E-02 0. -1.
<mgrwt>
<rscale>  0 0.60181386E+02</rscale>
<asrwt>0</asrwt>
<pdfrwt beam="1">  1        3 0.24448117E-02 0.60181386E+02</pdfrwt>
<pdfrwt beam="2">  1       -3 0.87658140E-02 0.60181386E+02</pdfrwt>
<totfact> 0.11105402E+05</totfact>
</mgrwt>
</event>
<event>
 4    1  0.1537855E-002  0.5517998E+02  0.7818608E-02  0.1419250E+00
          3   -1    0    0    0  501  0.00000000000E+00  0.00000000000E+00  0.34303835395E+02  0.34303984081E+02  0.10100000000E+00 0.  1.
         -3   -1    0    0  501    0 -0.00000000000E+00 -0.00000000000E+00 -0.22189849458E+02  0.22190079314E+02  0.10100000000E+00 0.  1.
          2    1    1    2    0  502  0.26386715180E+02  0.32764122166E+01 -0.14813697892E+01  0.26630585386E+02  0.25500000000E-02 0.  1.
         -2    1    1    2  502    0 -0.26386715180E+02 -0.32764122166E+01  0.13595355726E+02  0.29863478010E+02  0.25500000000E-02 0.  1.
<mgrwt>
<rscale>  0 0.55179983E+02</rscale>
<asrwt>0</asrwt>
<pdfrwt beam="1">  1        3 0.52775422E-02 0.55179983E+02</pdfrwt>
<pdfrwt beam="2">  1       -3 0.34138521E-02 0.55179983E+02</pdfrwt>
<totfact> 0.14461426E+05</totfact>
</mgrwt>
</event>
<event>
 4    1  0.1537855E-002  0.4819988E+02  0.7818608E-02  0.1455300E+00
         -3   -1    0    0  501    0 -0.00000000000E+00  0.00000000000E+00  0.10222763261E+01  0.10272535651E+01  0.10100000000E+00 0. -1.
          3   -1    0    0    0  501  0.00000000000E+00 -0.00000000000E+00 -0.56676613653E+03  0.56676614553E+03  0.10100000000E+00 0. -1.
          2    1    1    2    0  502  0.16508086570E+02 -0.14929588183E+02 -0.39173167132E+03  0.39236349454E+03  0.25500000000E-02 0.  1.
         -2    1    1    2  502    0 -0.16508086570E+02  0.14929588183E+02 -0.17401218889E+03  0.17542990456E+03  0.25500000000E-02 0.  1.
<mgrwt>
<rscale>  0 0.48199883E+02</rscale>
<asrwt>0</asrwt>
<pdfrwt beam="2">  1        3 0.87194923E-01 0.48199883E+02</pdfrwt>
<pdfrwt beam="1">  1       -3 0.15765729E-03 0.48199883E+02</pdfrwt>
<totfact> 0.84034050E+04</totfact>
</mgrwt>
</event>
<event>
 4    1  0.1537855E-002  0.4500565E+02  0.7818608E-02  0.1474306E+00
          3   -1    0    0    0  501  0.00000000000E+00  0.00000000000E+00  0.43841182226E+02  0.43841298566E+02  0.10100000000E+00 0.  1.
         -3   -1    0    0  501    0 -0.00000000000E+00 -0.00000000000E+00 -0.11549908163E+02  0.11550349760E+02  0.10100000000E+00 0.  1.
          2    1    1    2    0  502  0.18363496619E+02 -0.11571107410E+02  0.23454856653E+02  0.31956827782E+02  0.25500000000E-02 0.  1.
         -2    1    1    2  502    0 -0.18363496619E+02  0.11571107410E+02  0.88364174097E+01  0.23434820543E+02  0.25500000000E-02 0.  1.
<mgrwt>
<rscale>  0 0.45005648E+02</rscale>
<asrwt>0</asrwt>
<pdfrwt beam="1">  1        3 0.67448400E-02 0.45005648E+02</pdfrwt>
<pdfrwt beam="2">  1       -3 0.17769519E-02 0.45005648E+02</pdfrwt>
<totfact> 0.24251356E+05</totfact>
</mgrwt>
</event>
<event>
 4    1  0.1537855E-002  0.8275729E+02  0.7818608E-02  0.1321404E+00
         -3   -1    0    0  501    0 -0.00000000000E+00  0.00000000000E+00  0.16174653680E+02  0.16174969016E+02  0.10100000000E+00 0. -1.
          3   -1    0    0    0  501  0.00000000000E+00 -0.00000000000E+00 -0.10585513652E+03  0.10585518470E+03  0.10100000000E+00 0. -1.
          2    1    1    2    0  502 -0.30150414047E+02  0.23262082308E+02 -0.68708923729E+02  0.78556273760E+02  0.25500000000E-02 0.  1.
         -2    1    1    2  502    0  0.30150414047E+02 -0.23262082308E+02 -0.20971559107E+02  0.43473879956E+02  0.25500000000E-02 0.  1.
<mgrwt>
<rscale>  0 0.82757292E+02</rscale>
<asrwt>0</asrwt>
<pdfrwt beam="2">  1        3 0.16285433E-01 0.82757292E+02</pdfrwt>
<pdfrwt beam="1">  1       -3 0.24884363E-02 0.82757292E+02</pdfrwt>
<totfact> 0.42991239E+04</totfact>
</mgrwt>
</event>
<event>
 4    1  0.1537855E-002  0.4581711E+02  0.7818608E-02  0.1469304E+00
         -3   -1    0    0  501    0 -0.00000000000E+00  0.00000000000E+00  0.93566810820E+02  0.93566865332E+02  0.10100000000E+00 0. -1.
          3   -1    0    0    0  501  0.00000000000E+00 -0.00000000000E+00 -0.56083362637E+01  0.56092456397E+01  0.10100000000E+00 0. -1.
          2    1    1    2    0  502 -0.19295380628E+02  0.99779785440E+01  0.28231035694E+02  0.35621105433E+02  0.25500000000E-02 0. -1.
         -2    1    1    2  502    0  0.19295380628E+02 -0.99779785440E+01  0.59727438863E+02  0.63555005539E+02  0.25500000000E-02 0. -1.
<mgrwt>
<rscale>  0 0.45817112E+02</rscale>
<asrwt>0</asrwt>
<pdfrwt beam="2">  1        3 0.86289515E-03 0.45817112E+02</pdfrwt>
<pdfrwt beam="1">  1       -3 0.14394968E-01 0.45817112E+02</pdfrwt>
<totfact> 0.20800507E+05</totfact>
</mgrwt>
</event>
<event>
 4    1  0.1537855E-002  0.1299521E+03  0.7818608E-02  0.1227527E+00
         -3   -1    0    0  501    0 -0.00000000000E+00  0.00000000000E+00  0.54538458478E+03  0.54538459413E+03  0.10100000000E+00 0.  1.
          3   -1    0    0    0  501  0.00000000000E+00 -0.00000000000E+00 -0.77407820889E+01  0.77414409736E+01  0.10100000000E+00 0.  1.
          2    1    1    2    0  502  0.15158539804E+02  0.63074686281E+02  0.25307290862E+03  0.26125484582E+03  0.25500000000E-02 0. -1.
         -2    1    1    2  502    0 -0.15158539804E+02 -0.63074686281E+02  0.28457089406E+03  0.29187118928E+03  0.25500000000E-02 0. -1.
<mgrwt>
<rscale>  0 0.12995211E+03</rscale>
<asrwt>0</asrwt>
<pdfrwt beam="2">  1        3 0.11909412E-02 0.12995211E+03</pdfrwt>
<pdfrwt beam="1">  1       -3 0.83905354E-01 0.12995211E+03</pdfrwt>
<totfact> 0.63576404E+03</totfact>
</mgrwt>
</event>
<event>
 4    1  0.1537855E-002  0.4529405E+02  0.7818608E-02  0.1472514E+00
         -3   -1    0    0  501    0 -0.00000000000E+00  0.00000000000E+00  0.12770263871E+03  0.12770267865E+03  0.10100000000E+00 0. -1.
          3   -1    0    0    0  501  0.00000000000E+00 -0.00000000000E+00 -0.40155906702E+01  0.40168606436E+01  0.10100000000E+00 0. -1.
          2    1    1    2    0  502 -0.20785908534E+02 -0.59642125045E+01  0.42278710087E+02  0.47488052787E+02  0.25500000000E-02 0.  1.
         -2    1    1    2  502    0  0.20785908534E+02  0.59642125045E+01  0.81408337954E+02  0.84231486508E+02  0.25500000000E-02 0.  1.
<mgrwt>
<rscale>  0 0.45294052E+02</rscale>
<asrwt>0</asrwt>
<pdfrwt beam="2">  1        3 0.61788398E-03 0.45294052E+02</pdfrwt>
<pdfrwt beam="1">  1       -3 0.19646659E-01 0.45294052E+02</pdfrwt>
<totfact> 0.19891095E+05</totfact>
</mgrwt>
</event>
<event>
 4    1  0.1537855E-002  0.5995707E+02  0.7818608E-02  0.1398012E+00
         -3   -1    0    0  501    0 -0.00000000000E+00  0.00000000000E+00  0.13410043490E+01  0.13448024629E+01  0.10100000000E+00 0. -1.
          3   -1    0    0    0  501  0.00000000000E+00 -0.00000000000E+00 -0.66922709966E+03  0.66922710728E+03  0.10100000000E+00 0. -1.
          2    1    1    2    0  502  0.76975311598E+01  0.20536907709E+02 -0.10536470494E+03  0.10762312771E+03  0.25500000000E-02 0.  1.
         -2    1    1    2  502    0 -0.76975311598E+01 -0.20536907709E+02 -0.56252139036E+03  0.56294878203E+03  0.25500000000E-02 0.  1.
<mgrwt>
<rscale>  0 0.59957067E+02</rscale>
<asrwt>0</asrwt>
<pdfrwt beam="2">  1        3 0.10295804E+00 0.59957067E+02</pdfrwt>
<pdfrwt beam="1">  1       -3 0.20660164E-03 0.59957067E+02</pdfrwt>
<totfact> 0.42814978E+04</totfact>
</mgrwt>
</event>
<event>
 4    1  0.1537855E-002  0.4112531E+02  0.7818608E-02  0.1500090E+00
          3   -1    0    0    0  501  0.00000000000E+00  0.00000000000E+00  0.19157010836E+03  0.19157013499E+03  0.10100000000E+00 0. -1.
         -3   -1    0    0  501    0 -0.00000000000E+00 -0.00000000000E+00 -0.22059613213E+01  0.22082722548E+01  0.10100000000E+00 0. -1.
          2    1    1    2    0  502 -0.19073288468E+02 -0.70276003464E+01  0.10931571556E+03  0.11118949220E+03  0.25500000000E-02 0.  1.
         -2    1    1    2  502    0  0.19073288468E+02  0.70276003464E+01  0.80048431480E+02  0.82588915046E+02  0.25500000000E-02 0.  1.
<mgrwt>
<rscale>  0 0.41125308E+02</rscale>
<asrwt>0</asrwt>
<pdfrwt beam="1">  1        3 0.29472510E-01 0.41125308E+02</pdfrwt>
<pdfrwt beam="2">  1       -3 0.33955841E-03 0.41125308E+02</pdfrwt>
<totfact> 0.22185541E+05</totfact>
</mgrwt>
</event>
<event>
 4    1  0.1537855E-002  0.4337210E+02  0.7818608E-02  0.1484768E+00
         -3   -1    0    0  501    0 -0.00000000000E+00  0.00000000000E+00  0.68542086721E+01  0.68549527731E+01  0.10100000000E+00 0. -1.
          3   -1    0    0    0  501  0.00000000000E+00 -0.00000000000E+00 -0.68608050513E+02  0.68608124856E+02  0.10100000000E+00 0. -1.
          2    1    1    2    0  502  0.75785185442E+01 -0.18947837443E+02 -0.18111433975E+02  0.27285133941E+02  0.25500000000E-02 0. -1.
         -2    1    1    2  502    0 -0.75785185442E+01  0.18947837443E+02 -0.43642407867E+02  0.48177943688E+02  0.25500000000E-02 0. -1.
<mgrwt>
<rscale>  0 0.43372101E+02</rscale>
<asrwt>0</asrwt>
<pdfrwt beam="2">  1        3 0.10555147E-01 0.43372101E+02</pdfrwt>
<pdfrwt beam="1">  1       -3 0.10545566E-02 0.43372101E+02</pdfrwt>
<totfact> 0.25227921E+05</totfact>
</mgrwt>
</event>
<event>
 4    1  0.1537855E-002  0.4475449E+02  0.7818608E-02  0.1475880E+00
          3   -1    0    0    0  501  0.00000000000E+00  0.00000000000E+00  0.17278908829E+03  0.17278911781E+03  0.10100000000E+00 0. -1.
         -3   -1    0    0  501    0 -0.00000000000E+00 -0.00000000000E+00 -0.28970804920E+01  0.28988405229E+01  0.10100000000E+00 0. -1.
          2    1    1    2    0  502 -0.21361627717E+02 -0.80121609969E+00  0.58971737858E+02  0.62726604870E+02  0.25500000000E-02 0. -1.
         -2    1    1    2  502    0  0.21361627717E+02  0.80121609969E+00  0.11092026994E+03  0.11296135347E+03  0.25500000000E-02 0. -1.
<mgrwt>
<rscale>  0 0.44754490E+02</rscale>
<asrwt>0</asrwt>
<pdfrwt beam="1">  1        3 0.26583087E-01 0.44754490E+02</pdfrwt>
<pdfrwt beam="2">  1       -3 0.44584214E-03 0.44754490E+02</pdfrwt>
<totfact> 0.18700583E+05</totfact>
</mgrwt>
</event>
<event>
 4    1  0.1537855E-002  0.5038547E+02  0.7818608E-02  0.1443273E+00
          3   -1    0    0    0  501  0.00000000000E+00  0.00000000000E+00  0.22470150390E+02  0.22470377379E+02  0.10100000000E+00 0. -1.
         -3   -1    0    0  501    0 -0.00000000000E+00 -0.00000000000E+00 -0.28244742356E+02  0.28244922937E+02  0.10100000000E+00 0. -1.
          2    1    1    2    0  502  0.22318911989E+02  0.10423347720E+02 -0.82033391686E+01  0.25962950335E+02  0.25500000000E-02 0.  1.
         -2    1    1    2  502    0 -0.22318911989E+02 -0.10423347720E+02  0.24287472029E+01  0.24752349981E+02  0.25500000000E-02 0.  1.
<mgrwt>
<rscale>  0 0.50385472E+02</rscale>
<asrwt>0</asrwt>
<pdfrwt beam="1">  1        3 0.34569776E-02 0.50385472E+02</pdfrwt>
<pdfrwt beam="2">  1       -3 0.43453763E-02 0.50385472E+02</pdfrwt>
<totfact> 0.18505827E+05</totfact>
</mgrwt>
</event>
<event>
 4    1  0.1537855E-002  0.6870862E+02  0.7818608E-02  0.1364540E+00
         -3   -1    0    0  501    0 -0.00000000000E+00  0.00000000000E+00  0.88387411701E+02  0.88387469407E+02  0.10100000000E+00 0.  1.
          3   -1    0    0    0  501  0.00000000000E+00 -0.00000000000E+00 -0.13352536832E+02  0.13352918813E+02  0.10100000000E+00 0.  1.
          2    1    1    2    0  502 -0.28846214571E+02 -0.14850033448E+02  0.54243437771E+02  0.63205839416E+02  0.25500000000E-02 0.  1.
         -2    1    1    2  502    0  0.28846214571E+02  0.14850033448E+02  0.20791437098E+02  0.38534548805E+02  0.25500000000E-02 0.  1.
<mgrwt>
<rscale>  0 0.68708618E+02</rscale>
<asrwt>0</asrwt>
<pdfrwt beam="2">  1        3 0.20542702E-02 0.68708618E+02</pdfrwt>
<pdfrwt beam="1">  1       -3 0.13598097E-01 0.68708618E+02</pdfrwt>
<totfact> 0.73554003E+04</totfact>
</mgrwt>
</event>
<event>
 4    1  0.1537855E-002  0.4211102E+02  0.7818608E-02  0.1493227E+00
          3   -1    0    0    0  501  0.00000000000E+00  0.00000000000E+00  0.58274685901E+01  0.58283437758E+01  0.10100000000E+00 0. -1.
         -3   -1    0    0  501    0 -0.00000000000E+00 -0.00000000000E+00 -0.76070059563E+02  0.76070126613E+02  0.10100000000E+00 0. -1.
          2    1    1    2    0  502 -0.12017230571E+02  0.16335525075E+02 -0.24107475120E+02  0.31502913726E+02  0.25500000000E-02 0. -1.
         -2    1    1    2  502    0  0.12017230571E+02 -0.16335525075E+02 -0.46135115853E+02  0.50395556662E+02  0.25500000000E-02 0. -1.
<mgrwt>
<rscale>  0 0.42111018E+02</rscale>
<asrwt>0</asrwt>
<pdfrwt beam="1">  1        3 0.89660616E-03 0.42111018E+02</pdfrwt>
<pdfrwt beam="2">  1       -3 0.11703158E-01 0.42111018E+02</pdfrwt>
<totfact> 0.26695524E+05</totfact>
</mgrwt>
</event>
<event>
 4    1  0.1537855E-002  0.5981354E+02  0.7818608E-02  0.1398616E+00
         -3   -1    0    0  501    0 -0.00000000000E+00  0.00000000000E+00  0.25127050581E+01  0.25147341229E+01  0.10100000000E+00 0.  1.
          3   -1    0    0    0  501  0.00000000000E+00 -0.00000000000E+00 -0.35581121609E+03  0.35581123043E+03  0.10100000000E+00 0.  1.
          2    1    1    2    0  502  0.29050031233E+02 -0.65268819064E+01 -0.15980028061E+03  0.16255040508E+03  0.25500000000E-02 0. -1.
         -2    1    1    2  502    0 -0.29050031233E+02  0.65268819064E+01 -0.19349823042E+03  0.19577555947E+03  0.25500000000E-02 0. -1.
<mgrwt>
<rscale>  0 0.59813535E+02</rscale>
<asrwt>0</asrwt>
<pdfrwt beam="2">  1        3 0.54740305E-01 0.59813535E+02</pdfrwt>
<pdfrwt beam="1">  1       -3 0.38672747E-03 0.59813535E+02</pdfrwt>
<totfact> 0.65910368E+04</totfact>
</mgrwt>
</event>
<event>
 4    1  0.1537855E-002  0.7388860E+02  0.7818608E-02  0.1347348E+00
          3   -1    0    0    0  501  0.00000000000E+00  0.00000000000E+00  0.15795163966E+03  0.15795167195E+03  0.10100000000E+00 0.  1.
         -3   -1    0    0  501    0 -0.00000000000E+00 -0.00000000000E+00 -0.86408065718E+01  0.86413968322E+01  0.10100000000E+00 0.  1.
          2    1    1    2    0  502  0.10332060524E+02  0.21219745601E+02  0.13873880458E+03  0.14073196147E+03  0.25500000000E-02 0.  1.
         -2    1    1    2  502    0 -0.10332060524E+02 -0.21219745601E+02  0.10572028513E+02  0.25861107313E+02  0.25500000000E-02 0.  1.
<mgrwt>
<rscale>  0 0.73888603E+02</rscale>
<asrwt>0</asrwt>
<pdfrwt beam="1">  1        3 0.24300299E-01 0.73888603E+02</pdfrwt>
<pdfrwt beam="2">  1       -3 0.13294028E-02 0.73888603E+02</pdfrwt>
<totfact> 0.53134995E+04</totfact>
</mgrwt>
</event>
<event>
 4    1  0.1537855E-002  0.7027990E+02  0.7818608E-02  0.1359144E+00
          3   -1    0    0    0  501  0.00000000000E+00  0.00000000000E+00  0.10097857233E+02  0.10098362328E+02  0.10100000000E+00 0. -1.
         -3   -1    0    0  501    0 -0.00000000000E+00 -0.00000000000E+00 -0.12228139372E+03  0.12228143543E+03  0.10100000000E+00 0. -1.
          2    1    1    2    0  502  0.30238559631E+02  0.16120751376E+02 -0.41432609646E+02  0.53767185737E+02  0.25500000000E-02 0.  1.
         -2    1    1    2  502    0 -0.30238559631E+02 -0.16120751376E+02 -0.70750926842E+02  0.78612612023E+02  0.25500000000E-02 0.  1.
<mgrwt>
<rscale>  0 0.70279905E+02</rscale>
<asrwt>0</asrwt>
<pdfrwt beam="1">  1        3 0.15535586E-02 0.70279905E+02</pdfrwt>
<pdfrwt beam="2">  1       -3 0.18812563E-01 0.70279905E+02</pdfrwt>
<totfact> 0.64913281E+04</totfact>
</mgrwt>
</event>
<event>
 4    1  0.1537855E-002  0.9360343E+02  0.7818608E-02  0.1294353E+00
         -3   -1    0    0  501    0 -0.00000000000E+00  0.00000000000E+00  0.18695150616E+03  0.18695153344E+03  0.10100000000E+00 0.  1.
          3   -1    0    0    0  501  0.00000000000E+00 -0.00000000000E+00 -0.11716163790E+02  0.11716599120E+02  0.10100000000E+00 0.  1.
          2    1    1    2    0  502 -0.15487662258E+02  0.29224289130E+02  0.17337055451E+02  0.37343008121E+02  0.25500000000E-02 0.  1.
         -2    1    1    2  502    0  0.15487662258E+02 -0.29224289130E+02  0.15789828692E+03  0.16132512444E+03  0.25500000000E-02 0.  1.
<mgrwt>
<rscale>  0 0.93603428E+02</rscale>
<asrwt>0</asrwt>
<pdfrwt beam="2">  1        3 0.18025224E-02 0.93603428E+02</pdfrwt>
<pdfrwt beam="1">  1       -3 0.28761804E-01 0.93603428E+02</pdfrwt>
<totfact> 0.26606418E+04</totfact>
</mgrwt>
</event>
<event>
 4    1  0.1537855E-002  0.4554420E+02  0.7818608E-02  0.1470973E+00
          3   -1    0    0    0  501  0.00000000000E+00  0.00000000000E+00  0.23783410475E+03  0.23783412620E+03  0.10100000000E+00 0.  1.
         -3   -1    0    0  501    0 -0.00000000000E+00 -0.00000000000E+00 -0.21791882066E+01  0.21815275015E+01  0.10100000000E+00 0.  1.
          2    1    1    2    0  502  0.21425484704E+02  0.59952791558E+01  0.92240341670E+02  0.94885591134E+02  0.25500000000E-02 0. -1.
         -2    1    1    2  502    0 -0.21425484704E+02 -0.59952791558E+01  0.14341457488E+03  0.14513006257E+03  0.25500000000E-02 0. -1.
<mgrwt>
<rscale>  0 0.45544202E+02</rscale>
<asrwt>0</asrwt>
<pdfrwt beam="1">  1        3 0.36590052E-01 0.45544202E+02</pdfrwt>
<pdfrwt beam="2">  1       -3 0.33544124E-03 0.45544202E+02</pdfrwt>
<totfact> 0.15863327E+05</totfact>
</mgrwt>
</event>
<event>
 4    1  0.1537855E-002  0.7060299E+02  0.7818608E-02  0.1358054E+00
          3   -1    0    0    0  501  0.00000000000E+00  0.00000000000E+00  0.37035165639E+02  0.37035303359E+02  0.10100000000E+00 0.  1.
         -3   -1    0    0  501    0 -0.00000000000E+00 -0.00000000000E+00 -0.33648702665E+02  0.33648854246E+02  0.10100000000E+00 0.  1.
          2    1    1    2    0  502  0.35078977861E+02 -0.24331621614E+01  0.48178015713E+01  0.35491776292E+02  0.25500000000E-02 0. -1.
         -2    1    1    2  502    0 -0.35078977861E+02  0.24331621614E+01 -0.14313385975E+01  0.35192381314E+02  0.25500000000E-02 0. -1.
<mgrwt>
<rscale>  0 0.70602989E+02</rscale>
<asrwt>0</asrwt>
<pdfrwt beam="1">  1        3 0.56977400E-02 0.70602989E+02</pdfrwt>
<pdfrwt beam="2">  1       -3 0.51767458E-02 0.70602989E+02</pdfrwt>
<totfact> 0.73531595E+04</totfact>
</mgrwt>
</event>
<event>
 4    1  0.1537855E-002  0.4140166E+02  0.7818608E-02  0.1498143E+00
         -3   -1    0    0  501    0 -0.00000000000E+00  0.00000000000E+00  0.88850472690E+02  0.88850530096E+02  0.10100000000E+00 0. -1.
          3   -1    0    0    0  501  0.00000000000E+00 -0.00000000000E+00 -0.48223957744E+01  0.48234533278E+01  0.10100000000E+00 0. -1.
          2    1    1    2    0  502 -0.16644947653E+02  0.12180931039E+02  0.38033597165E+02  0.43266429055E+02  0.25500000000E-02 0. -1.
         -2    1    1    2  502    0  0.16644947653E+02 -0.12180931039E+02  0.45994479751E+02  0.50407554368E+02  0.25500000000E-02 0. -1.
<mgrwt>
<rscale>  0 0.41401660E+02</rscale>
<asrwt>0</asrwt>
<pdfrwt beam="2">  1        3 0.74199281E-03 0.41401660E+02</pdfrwt>
<pdfrwt beam="1">  1       -3 0.13669389E-01 0.41401660E+02</pdfrwt>
<totfact> 0.27040817E+05</totfact>
</mgrwt>
</event>
<event>
 4    1  0.1537855E-002  0.4523308E+02  0.7818608E-02  0.1472892E+00
         -3   -1    0    0  501    0 -0.00000000000E+00  0.00000000000E+00  0.21573267157E+02  0.21573503583E+02  0.10100000000E+00 0.  1.
          3   -1    0    0    0  501  0.00000000000E+00 -0.00000000000E+00 -0.23709792190E+02  0.23710007311E+02  0.10100000000E+00 0.  1.
          2    1    1    2    0  502 -0.21942262012E+02  0.27338985814E+01  0.36879114467E+01  0.22417354014E+02  0.25500000000E-02 0. -1.
         -2    1    1    2  502    0  0.21942262012E+02 -0.27338985814E+01 -0.58244364793E+01  0.22866156880E+02  0.25500000000E-02 0. -1.
<mgrwt>
<rscale>  0 0.45233081E+02</rscale>
<asrwt>0</asrwt>
<pdfrwt beam="2">  1        3 0.36476951E-02 0.45233081E+02</pdfrwt>
<pdfrwt beam="1">  1       -3 0.33189989E-02 0.45233081E+02</pdfrwt>
<totfact> 0.24619896E+05</totfact>
</mgrwt>
</event>
<event>
 4    1  0.1537855E-002  0.8186937E+02  0.7818608E-02  0.1323829E+00
         -3   -1    0    0  501    0 -0.00000000000E+00  0.00000000000E+00  0.28137550529E+02  0.28137731799E+02  0.10100000000E+00 0.  1.
          3   -1    0    0    0  501  0.00000000000E+00 -0.00000000000E+00 -0.59551617451E+02  0.59551703099E+02  0.10100000000E+00 0.  1.
          2    1    1    2    0  502  0.21446345292E+02 -0.23235271994E+02  0.12137688181E+02  0.33869559665E+02  0.25500000000E-02 0. -1.
         -2    1    1    2  502    0 -0.21446345292E+02  0.23235271994E+02 -0.43551755103E+02  0.53819875233E+02  0.25500000000E-02 0. -1.
<mgrwt>
<rscale>  0 0.81869368E+02</rscale>
<asrwt>0</asrwt>
<pdfrwt beam="2">  1        3 0.91618078E-02 0.81869368E+02</pdfrwt>
<pdfrwt beam="1">  1       -3 0.43288745E-02 0.81869368E+02</pdfrwt>
<totfact> 0.47649611E+04</totfact>
</mgrwt>
</event>
<event>
 4    1  0.1537855E-002  0.7125636E+02  0.7818608E-02  0.1355872E+00
          3   -1    0    0    0  501  0.00000000000E+00  0.00000000000E+00  0.11097818139E+02  0.11098277724E+02  0.10100000000E+00 0. -1.
         -3   -1    0    0  501    0 -0.00000000000E+00 -0.00000000000E+00 -0.11437702454E+03  0.11437706914E+03  0.10100000000E+00 0. -1.
          2    1    1    2    0  502  0.28422623683E+02  0.46214132196E+01 -0.88583447151E+02  0.93146283409E+02  0.25500000000E-02 0. -1.
         -2    1    1    2  502    0 -0.28422623683E+02 -0.46214132196E+01 -0.14695759251E+02  0.32329063451E+02  0.25500000000E-02 0. -1.
<mgrwt>
<rscale>  0 0.71256355E+02</rscale>
<asrwt>0</asrwt>
<pdfrwt beam="1">  1        3 0.17073955E-02 0.71256355E+02</pdfrwt>
<pdfrwt beam="2">  1       -3 0.17596503E-01 0.71256355E+02</pdfrwt>
<totfact> 0.63512810E+04</totfact>
</mgrwt>
</event>
<event>
 4    1  0.1537855E-002  0.8153830E+02  0.7818608E-02  0.1324742E+00
         -3   -1    0    0  501    0 -0.00000000000E+00  0.00000000000E+00  0.40235023779E+01  0.40247698549E+01  0.10100000000E+00 0. -1.
          3   -1    0    0    0  501  0.00000000000E+00 -0.00000000000E+00 -0.41303731138E+03  0.41303732373E+03  0.10100000000E+00 0. -1.
          2    1    1    2    0  502  0.39653928065E+02  0.28124264218E+01 -0.15825156106E+03  0.16316831903E+03  0.25500000000E-02 0.  1.
         -2    1    1    2  502    0 -0.39653928065E+02 -0.28124264218E+01 -0.25076224795E+03  0.25389377455E+03  0.25500000000E-02 0.  1.
<mgrwt>
<rscale>  0 0.81538297E+02</rscale>
<asrwt>0</asrwt>
<pdfrwt beam="2">  1        3 0.63544267E-01 0.81538297E+02</pdfrwt>
<pdfrwt beam="1">  1       -3 0.61909914E-03 0.81538297E+02</pdfrwt>
<totfact> 0.27051616E+04</totfact>
</mgrwt>
</event>
<event>
 4    1  0.1537855E-002  0.1097960E+03  0.7818608E-02  0.1260948E+00
         -3   -1    0    0  501    0 -0.00000000000E+00  0.00000000000E+00  0.24074262459E+02  0.24074474323E+02  0.10100000000E+00 0. -1.
          3   -1    0    0    0  501  0.00000000000E+00 -0.00000000000E+00 -0.12518639318E+03  0.12518643393E+03  0.10100000000E+00 0. -1.
          2    1    1    2    0  502  0.18684981169E+02 -0.30038833131E+02  0.65133141120E+01  0.35970589158E+02  0.25500000000E-02 0. -1.
         -2    1    1    2  502    0 -0.18684981169E+02  0.30038833131E+02 -0.10762544484E+03  0.11329031909E+03  0.25500000000E-02 0. -1.
<mgrwt>
<rscale>  0 0.10979597E+03</rscale>
<asrwt>0</asrwt>
<pdfrwt beam="2">  1        3 0.19259464E-01 0.10979597E+03</pdfrwt>
<pdfrwt beam="1">  1       -3 0.37037522E-02 0.10979597E+03</pdfrwt>
<totfact> 0.18843729E+04</totfact>
</mgrwt>
</event>
<event>
 4    1  0.1537855E-002  0.4699786E+02  0.7818608E-02  0.1462241E+00
         -3   -1    0    0  501    0 -0.00000000000E+00  0.00000000000E+00  0.14426625203E+03  0.14426628738E+03  0.10100000000E+00 0. -1.
          3   -1    0    0    0  501  0.00000000000E+00 -0.00000000000E+00 -0.38269412059E+01  0.38282737616E+01  0.10100000000E+00 0. -1.
          2    1    1    2    0  502 -0.39764846434E+01 -0.22514098950E+02  0.53104074668E+02  0.57816432219E+02  0.25500000000E-02 0. -1.
         -2    1    1    2  502    0  0.39764846434E+01  0.22514098950E+02  0.87335236151E+02  0.90278128923E+02  0.25500000000E-02 0. -1.
<mgrwt>
<rscale>  0 0.46997862E+02</rscale>
<asrwt>0</asrwt>
<pdfrwt beam="2">  1        3 0.58886549E-03 0.46997862E+02</pdfrwt>
<pdfrwt beam="1">  1       -3 0.22194910E-01 0.46997862E+02</pdfrwt>
<totfact> 0.17532960E+05</totfact>
</mgrwt>
</event>
<event>
 4    1  0.1537855E-002  0.4967675E+02  0.7818608E-02  0.1447093E+00
          3   -1    0    0    0  501  0.00000000000E+00  0.00000000000E+00  0.53103634861E+02  0.53103730909E+02  0.10100000000E+00 0. -1.
         -3   -1    0    0  501    0 -0.00000000000E+00 -0.00000000000E+00 -0.11617428309E+02  0.11617867339E+02  0.10100000000E+00 0. -1.
          2    1    1    2    0  502  0.21196456371E+02  0.11734810397E+02  0.13613089208E+02  0.27790497333E+02  0.25500000000E-02 0. -1.
         -2    1    1    2  502    0 -0.21196456371E+02 -0.11734810397E+02  0.27873117345E+02  0.36931100915E+02  0.25500000000E-02 0. -1.
<mgrwt>
<rscale>  0 0.49676755E+02</rscale>
<asrwt>0</asrwt>
<pdfrwt beam="1">  1        3 0.81698311E-02 0.49676755E+02</pdfrwt>
<pdfrwt beam="2">  1       -3 0.17873378E-02 0.49676755E+02</pdfrwt>
<totfact> 0.18487131E+05</totfact>
</mgrwt>
</event>
<event>
 4    1  0.1537855E-002  0.5496548E+02  0.7818608E-02  0.1420262E+00
          3   -1    0    0    0  501  0.00000000000E+00  0.00000000000E+00  0.31961176612E+02  0.31961336196E+02  0.10100000000E+00 0. -1.
         -3   -1    0    0  501    0 -0.00000000000E+00 -0.00000000000E+00 -0.23631499093E+02  0.23631714927E+02  0.10100000000E+00 0. -1.
          2    1    1    2    0  502 -0.22538917718E+02  0.17380920129E+01  0.19972657149E+02  0.30165059520E+02  0.25500000000E-02 0. -1.
         -2    1    1    2  502    0  0.22538917718E+02 -0.17380920129E+01 -0.11642979630E+02  0.25427991602E+02  0.25500000000E-02 0. -1.
<mgrwt>
<rscale>  0 0.54965478E+02</rscale>
<asrwt>0</asrwt>
<pdfrwt beam="1">  1        3 0.49171330E-02 0.54965478E+02</pdfrwt>
<pdfrwt beam="2">  1       -3 0.36356441E-02 0.54965478E+02</pdfrwt>
<totfact> 0.14640591E+05</totfact>
</mgrwt>
</event>
<event>
 4    1  0.1537855E-002  0.4057487E+02  0.7818608E-02  0.1504023E+00
          3   -1    0    0    0  501  0.00000000000E+00  0.00000000000E+00  0.28835275458E+02  0.28835452342E+02  0.10100000000E+00 0. -1.
         -3   -1    0    0  501    0 -0.00000000000E+00 -0.00000000000E+00 -0.14273087460E+02  0.14273444807E+02  0.10100000000E+00 0. -1.
          2    1    1    2    0  502 -0.20145973172E+02 -0.23596222939E+01  0.76951299911E+01  0.21694309957E+02  0.25500000000E-02 0.  1.
         -2    1    1    2  502    0  0.20145973172E+02  0.23596222939E+01  0.68670580066E+01  0.21414587192E+02  0.25500000000E-02 0.  1.
<mgrwt>
<rscale>  0 0.40574865E+02</rscale>
<asrwt>0</asrwt>
<pdfrwt beam="1">  1        3 0.44362372E-02 0.40574865E+02</pdfrwt>
<pdfrwt beam="2">  1       -3 0.21959007E-02 0.40574865E+02</pdfrwt>
<totfact> 0.32399782E+05</totfact>
</mgrwt>
</event>
<event>
 4    1  0.1537855E-002  0.5379356E+02  0.7818608E-02  0.1425892E+00
         -3   -1    0    0  501    0 -0.00000000000E+00  0.00000000000E+00  0.57736384349E+03  0.57736385232E+03  0.10100000000E+00 0.  1.
          3   -1    0    0    0  501  0.00000000000E+00 -0.00000000000E+00 -0.12509553944E+01  0.12550260550E+01  0.10100000000E+00 0.  1.
          2    1    1    2    0  502 -0.99618162540E+01 -0.24858544120E+02  0.26116219772E+03  0.26253167147E+03  0.25500000000E-02 0. -1.
         -2    1    1    2  502    0  0.99618162540E+01  0.24858544120E+02  0.31495069037E+03  0.31608720691E+03  0.25500000000E-02 0. -1.
<mgrwt>
<rscale>  0 0.53793555E+02</rscale>
<asrwt>0</asrwt>
<pdfrwt beam="2">  1        3 0.19276891E-03 0.53793555E+02</pdfrwt>
<pdfrwt beam="1">  1       -3 0.88825326E-01 0.53793555E+02</pdfrwt>
<totfact> 0.63004833E+04</totfact>
</mgrwt>
</event>
<event>
 4    1  0.1537855E-002  0.4249677E+02  0.7818608E-02  0.1490603E+00
          3   -1    0    0    0  501  0.00000000000E+00  0.00000000000E+00  0.71012908387E+01  0.71020090520E+01  0.10100000000E+00 0. -1.
         -3   -1    0    0  501    0 -0.00000000000E+00 -0.00000000000E+00 -0.63575142096E+02  0.63575222323E+02  0.10100000000E+00 0. -1.
          2    1    1    2    0  502  0.21262261411E+01 -0.20891638968E+02 -0.22844627475E+02  0.31029960157E+02  0.25500000000E-02 0.  1.
         -2    1    1    2  502    0 -0.21262261411E+01  0.20891638968E+02 -0.33629223782E+02  0.39647271219E+02  0.25500000000E-02 0.  1.
<mgrwt>
<rscale>  0 0.42496766E+02</rscale>
<asrwt>0</asrwt>
<pdfrwt beam="1">  1        3 0.10925677E-02 0.42496766E+02</pdfrwt>
<pdfrwt beam="2">  1       -3 0.97808521E-02 0.42496766E+02</pdfrwt>
<totfact> 0.26853326E+05</totfact>
</mgrwt>
</event>
<event>
 4    1  0.1537855E-002  0.4629306E+02  0.7818608E-02  0.1466427E+00
          3   -1    0    0    0  501  0.00000000000E+00  0.00000000000E+00  0.25059839668E+02  0.25060043200E+02  0.10100000000E+00 0. -1.
         -3   -1    0    0  501    0 -0.00000000000E+00 -0.00000000000E+00 -0.21378891682E+02  0.21379130257E+02  0.10100000000E+00 0. -1.
          2    1    1    2    0  502 -0.12982728779E+02  0.19126934343E+02  0.66588426630E+00  0.23126484217E+02  0.25500000000E-02 0.  1.
         -2    1    1    2  502    0  0.12982728779E+02 -0.19126934343E+02  0.30150637197E+01  0.23312689240E+02  0.25500000000E-02 0.  1.
<mgrwt>
<rscale>  0 0.46293061E+02</rscale>
<asrwt>0</asrwt>
<pdfrwt beam="1">  1        3 0.38553940E-02 0.46293061E+02</pdfrwt>
<pdfrwt beam="2">  1       -3 0.32890943E-02 0.46293061E+02</pdfrwt>
<totfact> 0.23162264E+05</totfact>
</mgrwt>
</event>
<event>
 4    1  0.1537855E-002  0.4575097E+02  0.7818608E-02  0.1469707E+00
         -3   -1    0    0  501    0 -0.00000000000E+00  0.00000000000E+00  0.66643360483E+03  0.66643361248E+03  0.10100000000E+00 0.  1.
          3   -1    0    0    0  501  0.00000000000E+00 -0.00000000000E+00 -0.78195073118E+00  0.78844653971E+00  0.10100000000E+00 0.  1.
          2    1    1    2    0  502  0.17216900632E+01 -0.22360686133E+02  0.39857158732E+03  0.39920204750E+03  0.25500000000E-02 0. -1.
         -2    1    1    2  502    0 -0.17216900632E+01  0.22360686133E+02  0.26708006677E+03  0.26802001152E+03  0.25500000000E-02 0. -1.
<mgrwt>
<rscale>  0 0.45750972E+02</rscale>
<asrwt>0</asrwt>
<pdfrwt beam="2">  1        3 0.12080030E-03 0.45750972E+02</pdfrwt>
<pdfrwt beam="1">  1       -3 0.10252882E+00 0.45750972E+02</pdfrwt>
<totfact> 0.84093957E+04</totfact>
</mgrwt>
</event>
<event>
 4    1  0.1537855E-002  0.4922054E+02  0.7818608E-02  0.1449592E+00
          3   -1    0    0    0  501  0.00000000000E+00  0.00000000000E+00  0.14463432900E+03  0.14463436426E+03  0.10100000000E+00 0. -1.
         -3   -1    0    0  501    0 -0.00000000000E+00 -0.00000000000E+00 -0.41869179625E+01  0.41881359845E+01  0.10100000000E+00 0. -1.
          2    1    1    2    0  502  0.21399711894E+02  0.10397046413E+02  0.51192143715E+02  0.56450702635E+02  0.25500000000E-02 0. -1.
         -2    1    1    2  502    0 -0.21399711894E+02 -0.10397046413E+02  0.89255267322E+02  0.92371797614E+02  0.25500000000E-02 0. -1.
<mgrwt>
<rscale>  0 0.49220538E+02</rscale>
<asrwt>0</asrwt>
<pdfrwt beam="1">  1        3 0.22251534E-01 0.49220538E+02</pdfrwt>
<pdfrwt beam="2">  1       -3 0.64423755E-03 0.49220538E+02</pdfrwt>
<totfact> 0.15605570E+05</totfact>
</mgrwt>
</event>
<event>
 4    1  0.1537855E-002  0.1025040E+03  0.7818608E-02  0.1275117E+00
          3   -1    0    0    0  501  0.00000000000E+00  0.00000000000E+00  0.97787873324E+02  0.97787925483E+02  0.10100000000E+00 0. -1.
         -3   -1    0    0  501    0 -0.00000000000E+00 -0.00000000000E+00 -0.26861745272E+02  0.26861935151E+02  0.10100000000E+00 0. -1.
          2    1    1    2    0  502  0.12154682770E+02  0.46248029711E+02  0.57890886433E+02  0.75086425564E+02  0.25500000000E-02 0.  1.
         -2    1    1    2  502    0 -0.12154682770E+02 -0.46248029711E+02  0.13035241619E+02  0.49563435071E+02  0.25500000000E-02 0.  1.
<mgrwt>
<rscale>  0 0.10250401E+03</rscale>
<asrwt>0</asrwt>
<pdfrwt beam="1">  1        3 0.15044307E-01 0.10250401E+03</pdfrwt>
<pdfrwt beam="2">  1       -3 0.41325948E-02 0.10250401E+03</pdfrwt>
<totfact> 0.23903458E+04</totfact>
</mgrwt>
</event>
<event>
 4    1  0.1537855E-002  0.4652250E+02  0.7818608E-02  0.1465055E+00
          3   -1    0    0    0  501  0.00000000000E+00  0.00000000000E+00  0.45095883370E+02  0.45095996473E+02  0.10100000000E+00 0. -1.
         -3   -1    0    0  501    0 -0.00000000000E+00 -0.00000000000E+00 -0.11998220599E+02  0.11998645696E+02  0.10100000000E+00 0. -1.
          2    1    1    2    0  502  0.17038664676E+02 -0.15825452399E+02  0.15849540356E+02  0.28141943315E+02  0.25500000000E-02 0. -1.
         -2    1    1    2  502    0 -0.17038664676E+02  0.15825452399E+02  0.17248122415E+02  0.28952698854E+02  0.25500000000E-02 0. -1.
<mgrwt>
<rscale>  0 0.46522499E+02</rscale>
<asrwt>0</asrwt>
<pdfrwt beam="1">  1        3 0.69378695E-02 0.46522499E+02</pdfrwt>
<pdfrwt beam="2">  1       -3 0.18459215E-02 0.46522499E+02</pdfrwt>
<totfact> 0.22227438E+05</totfact>
</mgrwt>
</event>
<event>
 4    1  0.1537855E-002  0.1497125E+03  0.7818608E-02  0.1200827E+00
         -3   -1    0    0  501    0 -0.00000000000E+00  0.00000000000E+00  0.23110585076E+02  0.23110805774E+02  0.10100000000E+00 0.  1.
          3   -1    0    0    0  501  0.00000000000E+00 -0.00000000000E+00 -0.24246139677E+03  0.24246141781E+03  0.10100000000E+00 0.  1.
          2    1    1    2    0  502 -0.62045504189E+02 -0.18773148798E+02 -0.43270101650E+02  0.77938292316E+02  0.25500000000E-02 0. -1.
         -2    1    1    2  502    0  0.62045504189E+02  0.18773148798E+02 -0.17608071005E+03  0.18763393127E+03  0.25500000000E-02 0. -1.
<mgrwt>
<rscale>  0 0.14971248E+03</rscale>
<asrwt>0</asrwt>
<pdfrwt beam="2">  1        3 0.37301770E-01 0.14971248E+03</pdfrwt>
<pdfrwt beam="1">  1       -3 0.35554934E-02 0.14971248E+03</pdfrwt>
<totfact> 0.64362021E+03</totfact>
</mgrwt>
</event>
<event>
 4    1  0.1537855E-002  0.4319576E+02  0.7818608E-02  0.1485930E+00
          3   -1    0    0    0  501  0.00000000000E+00  0.00000000000E+00  0.18548997191E+01  0.18576474283E+01  0.10100000000E+00 0. -1.
         -3   -1    0    0  501    0 -0.00000000000E+00 -0.00000000000E+00 -0.25129017366E+03  0.25129019395E+03  0.10100000000E+00 0. -1.
          2    1    1    2    0  502 -0.10246439423E+02 -0.17352945417E+02 -0.79188774032E+02  0.81712766289E+02  0.25500000000E-02 0. -1.
         -2    1    1    2  502    0  0.10246439423E+02  0.17352945417E+02 -0.17024649991E+03  0.17143507509E+03  0.25500000000E-02 0. -1.
<mgrwt>
<rscale>  0 0.43195760E+02</rscale>
<asrwt>0</asrwt>
<pdfrwt beam="1">  1        3 0.28558231E-03 0.43195760E+02</pdfrwt>
<pdfrwt beam="2">  1       -3 0.38660213E-01 0.43195760E+02</pdfrwt>
<totfact> 0.17639809E+05</totfact>
</mgrwt>
</event>
<event>
 4    1  0.1537855E-002  0.4412652E+02  0.7818608E-02  0.1479869E+00
          3   -1    0    0    0  501  0.00000000000E+00  0.00000000000E+00  0.44568633490E+01  0.44580076168E+01  0.10100000000E+00 0.  1.
         -3   -1    0    0  501    0 -0.00000000000E+00 -0.00000000000E+00 -0.10920677255E+03  0.10920681925E+03  0.10100000000E+00 0.  1.
          2    1    1    2    0  502 -0.20866150183E+01 -0.21701058209E+02 -0.43640671794E+02  0.48783174668E+02  0.25500000000E-02 0.  1.
         -2    1    1    2  502    0  0.20866150183E+01  0.21701058209E+02 -0.61109237405E+02  0.64881652201E+02  0.25500000000E-02 0.  1.
<mgrwt>
<rscale>  0 0.44126516E+02</rscale>
<asrwt>0</asrwt>
<pdfrwt beam="1">  1        3 0.68576298E-03 0.44126516E+02</pdfrwt>
<pdfrwt beam="2">  1       -3 0.16801132E-01 0.44126516E+02</pdfrwt>
<totfact> 0.22079016E+05</totfact>
</mgrwt>
</event>
<event>
 4    1  0.1537855E-002  0.4061874E+02  0.7818608E-02  0.1503707E+00
         -3   -1    0    0  501    0 -0.00000000000E+00  0.00000000000E+00  0.54447453796E+03  0.54447454733E+03  0.10100000000E+00 0.  1.
          3   -1    0    0    0  501  0.00000000000E+00 -0.00000000000E+00 -0.75418123779E+00  0.76091414722E+00  0.10100000000E+00 0.  1.
          2    1    1    2    0  502  0.15100184967E+02 -0.13336558713E+02  0.30632198196E+03  0.30698377160E+03  0.25500000000E-02 0. -1.
         -2    1    1    2  502    0 -0.15100184967E+02  0.13336558713E+02  0.23739837476E+03  0.23825168988E+03  0.25500000000E-02 0. -1.
<mgrwt>
<rscale>  0 0.40618741E+02</rscale>
<asrwt>0</asrwt>
<pdfrwt beam="2">  1        3 0.11654632E-03 0.40618741E+02</pdfrwt>
<pdfrwt beam="1">  1       -3 0.83765974E-01 0.40618741E+02</pdfrwt>
<totfact> 0.13113450E+05</totfact>
</mgrwt>
</event>
<event>
 4    1  0.1537855E-002  0.4282544E+02  0.7818608E-02  0.1488392E+00
         -3   -1    0    0  501    0 -0.00000000000E+00  0.00000000000E+00  0.27295677274E+01  0.27314356991E+01  0.10100000000E+00 0. -1.
          3   -1    0    0    0  501  0.00000000000E+00 -0.00000000000E+00 -0.16791765285E+03  0.16791768322E+03  0.10100000000E+00 0. -1.
          2    1    1    2    0  502 -0.81410798352E+01 -0.19612243512E+02 -0.93570085072E+02  0.95949351761E+02  0.25500000000E-02 0.  1.
         -2    1    1    2  502    0  0.81410798352E+01  0.19612243512E+02 -0.71618000048E+02  0.74699767161E+02  0.25500000000E-02 0.  1.
<mgrwt>
<rscale>  0 0.42825440E+02</rscale>
<asrwt>0</asrwt>
<pdfrwt beam="2">  1        3 0.25833623E-01 0.42825440E+02</pdfrwt>
<pdfrwt beam="1">  1       -3 0.42007966E-03 0.42825440E+02</pdfrwt>
<totfact> 0.21045212E+05</totfact>
</mgrwt>
</event>
<event>
 4    1  0.1537855E-002  0.4688532E+02  0.7818608E-02  0.1462904E+00
          3   -1    0    0    0  501  0.00000000000E+00  0.00000000000E+00  0.15143802350E+03  0.15143805718E+03  0.10100000000E+00 0. -1.
         -3   -1    0    0  501    0 -0.00000000000E+00 -0.00000000000E+00 -0.36281945383E+01  0.36296000617E+01  0.10100000000E+00 0. -1.
          2    1    1    2    0  502  0.10684864894E+02 -0.20859072233E+02  0.75688932113E+02  0.79234346613E+02  0.25500000000E-02 0.  1.
         -2    1    1    2  502    0 -0.10684864894E+02  0.20859072233E+02  0.72120896845E+02  0.75833310626E+02  0.25500000000E-02 0.  1.
<mgrwt>
<rscale>  0 0.46885315E+02</rscale>
<asrwt>0</asrwt>
<pdfrwt beam="1">  1        3 0.23298263E-01 0.46885315E+02</pdfrwt>
<pdfrwt beam="2">  1       -3 0.55829462E-03 0.46885315E+02</pdfrwt>
<totfact> 0.17382622E+05</totfact>
</mgrwt>
</event>
<event>
 4    1  0.1537855E-002  0.4426882E+02  0.7818608E-02  0.1478959E+00
         -3   -1    0    0  501    0 -0.00000000000E+00  0.00000000000E+00  0.18179808229E+02  0.18180088785E+02  0.10100000000E+00 0.  1.
          3   -1    0    0    0  501  0.00000000000E+00 -0.00000000000E+00 -0.26948657200E+02  0.26948846466E+02  0.10100000000E+00 0.  1.
          2    1    1    2    0  502 -0.36792858487E+01  0.21803408056E+02 -0.33618054061E+01  0.22365766012E+02  0.25500000000E-02 0.  1.
         -2    1    1    2  502    0  0.36792858487E+01 -0.21803408056E+02 -0.54070435649E+01  0.22763169240E+02  0.25500000000E-02 0.  1.
<mgrwt>
<rscale>  0 0.44268816E+02</rscale>
<asrwt>0</asrwt>
<pdfrwt beam="2">  1        3 0.41459834E-02 0.44268816E+02</pdfrwt>
<pdfrwt beam="1">  1       -3 0.27969297E-02 0.44268816E+02</pdfrwt>
<totfact> 0.25988192E+05</totfact>
</mgrwt>
</event>
<event>
 4    1  0.1537855E-002  0.8445161E+02  0.7818608E-02  0.1316873E+00
          3   -1    0    0    0  501  0.00000000000E+00  0.00000000000E+00  0.30118049740E+02  0.30118219089E+02  0.10100000000E+00 0.  1.
         -3   -1    0    0  501    0 -0.00000000000E+00 -0.00000000000E+00 -0.59200619164E+02  0.59200705320E+02  0.10100000000E+00 0.  1.
          2    1    1    2    0  502  0.50358778805E+01 -0.41919795148E+02 -0.15201188834E+02  0.44874329407E+02  0.25500000000E-02 0. -1.
         -2    1    1    2  502    0 -0.50358778805E+01  0.41919795148E+02 -0.13881380590E+02  0.44444595002E+02  0.25500000000E-02 0. -1.
<mgrwt>
<rscale>  0 0.84451610E+02</rscale>
<asrwt>0</asrwt>
<pdfrwt beam="1">  1        3 0.46335658E-02 0.84451610E+02</pdfrwt>
<pdfrwt beam="2">  1       -3 0.91078072E-02 0.84451610E+02</pdfrwt>
<totfact> 0.43669199E+04</totfact>
</mgrwt>
</event>
<event>
 4    1  0.1537855E-002  0.4092641E+02  0.7818608E-02  0.1501503E+00
          3   -1    0    0    0  501  0.00000000000E+00  0.00000000000E+00  0.99852873387E+00  0.10036237504E+01  0.10100000000E+00 0. -1.
         -3   -1    0    0  501    0 -0.00000000000E+00 -0.00000000000E+00 -0.41828744377E+03  0.41828745597E+03  0.10100000000E+00 0. -1.
          2    1    1    2    0  502  0.19930184615E+02 -0.25192668221E+01 -0.16872343749E+03  0.16991514744E+03  0.25500000000E-02 0. -1.
         -2    1    1    2  502    0 -0.19930184615E+02  0.25192668221E+01 -0.24856547755E+03  0.24937593228E+03  0.25500000000E-02 0. -1.
<mgrwt>
<rscale>  0 0.40926409E+02</rscale>
<asrwt>0</asrwt>
<pdfrwt beam="1">  1        3 0.15401300E-03 0.40926409E+02</pdfrwt>
<pdfrwt beam="2">  1       -3 0.64352168E-01 0.40926409E+02</pdfrwt>
<totfact> 0.15372269E+05</totfact>
</mgrwt>
</event>
<event>
 4    1  0.1537855E-002  0.1356557E+03  0.7818608E-02  0.1219297E+00
         -3   -1    0    0  501    0 -0.00000000000E+00  0.00000000000E+00  0.16001012975E+03  0.16001016163E+03  0.10100000000E+00 0. -1.
          3   -1    0    0    0  501  0.00000000000E+00 -0.00000000000E+00 -0.28751923682E+02  0.28752101078E+02  0.10100000000E+00 0. -1.
          2    1    1    2    0  502  0.95962644230E+01  0.46392919715E+02 -0.19147239958E+01  0.47413684364E+02  0.25500000000E-02 0. -1.
         -2    1    1    2  502    0 -0.95962644230E+01 -0.46392919715E+02  0.13317293006E+03  0.14134857834E+03  0.25500000000E-02 0. -1.
<mgrwt>
<rscale>  0 0.13565572E+03</rscale>
<asrwt>0</asrwt>
<pdfrwt beam="2">  1        3 0.44233890E-02 0.13565572E+03</pdfrwt>
<pdfrwt beam="1">  1       -3 0.24616959E-01 0.13565572E+03</pdfrwt>
<totfact> 0.96879025E+03</totfact>
</mgrwt>
</event>
<event>
 4    1  0.1537855E-002  0.1299982E+03  0.7818608E-02  0.1227458E+00
          3   -1    0    0    0  501  0.00000000000E+00  0.00000000000E+00  0.22768046195E+02  0.22768270214E+02  0.10100000000E+00 0.  1.
         -3   -1    0    0  501    0 -0.00000000000E+00 -0.00000000000E+00 -0.18556088423E+03  0.18556091172E+03  0.10100000000E+00 0.  1.
          2    1    1    2    0  502 -0.20159534381E+02 -0.28087412495E+02  0.68106824428E+01  0.35237692446E+02  0.25500000000E-02 0.  1.
         -2    1    1    2  502    0  0.20159534381E+02  0.28087412495E+02 -0.16960352048E+03  0.17309148949E+03  0.25500000000E-02 0.  1.
<mgrwt>
<rscale>  0 0.12999823E+03</rscale>
<asrwt>0</asrwt>
<pdfrwt beam="1">  1        3 0.35027958E-02 0.12999823E+03</pdfrwt>
<pdfrwt beam="2">  1       -3 0.28547847E-01 0.12999823E+03</pdfrwt>
<totfact> 0.10560331E+04</totfact>
</mgrwt>
</event>
<event>
 4    1  0.1537855E-002  0.4581443E+02  0.7818608E-02  0.1469320E+00
         -3   -1    0    0  501    0 -0.00000000000E+00  0.00000000000E+00  0.56523949143E+02  0.56524039379E+02  0.10100000000E+00 0. -1.
          3   -1    0    0    0  501  0.00000000000E+00 -0.00000000000E+00 -0.92831344069E+01  0.92836838279E+01  0.10100000000E+00 0. -1.
          2    1    1    2    0  502  0.43243605973E+01 -0.20994991093E+02  0.12017489444E+02  0.24574576387E+02  0.25500000000E-02 0. -1.
         -2    1    1    2  502    0 -0.43243605973E+01  0.20994991093E+02  0.35223325292E+02  0.41233146820E+02  0.25500000000E-02 0. -1.
<mgrwt>
<rscale>  0 0.45814428E+02</rscale>
<asrwt>0</asrwt>
<pdfrwt beam="2">  1        3 0.14282237E-02 0.45814428E+02</pdfrwt>
<pdfrwt beam="1">  1       -3 0.86960415E-02 0.45814428E+02</pdfrwt>
<totfact> 0.22576067E+05</totfact>
</mgrwt>
</event>
<event>
 4    1  0.1537855E-002  0.5378501E+02  0.7818608E-02  0.1425934E+00
          3   -1    0    0    0  501  0.00000000000E+00  0.00000000000E+00  0.27057580459E+03  0.27057582344E+03  0.10100000000E+00 0. -1.
         -3   -1    0    0  501    0 -0.00000000000E+00 -0.00000000000E+00 -0.26718708302E+01  0.26737791108E+01  0.10100000000E+00 0. -1.
          2    1    1    2    0  502 -0.23818395741E+02  0.83640361418E+00  0.19724151658E+03  0.19867619741E+03  0.25500000000E-02 0.  1.
         -2    1    1    2  502    0  0.23818395741E+02 -0.83640361418E+00  0.70662417182E+02  0.74573405147E+02  0.25500000000E-02 0.  1.
<mgrwt>
<rscale>  0 0.53785013E+02</rscale>
<asrwt>0</asrwt>
<pdfrwt beam="1">  1        3 0.41627184E-01 0.53785013E+02</pdfrwt>
<pdfrwt beam="2">  1       -3 0.41120541E-03 0.53785013E+02</pdfrwt>
<totfact> 0.99001750E+04</totfact>
</mgrwt>
</event>
<event>
 4    1  0.1537855E-002  0.5613210E+02  0.7818608E-02  0.1414820E+00
         -3   -1    0    0  501    0 -0.00000000000E+00  0.00000000000E+00  0.36017172260E+02  0.36017313873E+02  0.10100000000E+00 0.  1.
          3   -1    0    0    0  501  0.00000000000E+00 -0.00000000000E+00 -0.21869908973E+02  0.21870142192E+02  0.10100000000E+00 0.  1.
          2    1    1    2    0  502 -0.22872979945E+02 -0.93900245942E+01  0.20768881604E+02  0.32290745161E+02  0.25500000000E-02 0. -1.
         -2    1    1    2  502    0  0.22872979945E+02  0.93900245942E+01 -0.66216183170E+01  0.25596710904E+02  0.25500000000E-02 0. -1.
<mgrwt>
<rscale>  0 0.56132099E+02</rscale>
<asrwt>0</asrwt>
<pdfrwt beam="2">  1        3 0.33646302E-02 0.56132099E+02</pdfrwt>
<pdfrwt beam="1">  1       -3 0.55411323E-02 0.56132099E+02</pdfrwt>
<totfact> 0.13791672E+05</totfact>
</mgrwt>
</event>
<event>
 4    1  0.1537855E-002  0.6548522E+02  0.7818608E-02  0.1376156E+00
         -3   -1    0    0  501    0 -0.00000000000E+00  0.00000000000E+00  0.37496665003E+01  0.37510265080E+01  0.10100000000E+00 0. -1.
          3   -1    0    0    0  501  0.00000000000E+00 -0.00000000000E+00 -0.28585985357E+03  0.28585987141E+03  0.10100000000E+00 0. -1.
          2    1    1    2    0  502 -0.89164229578E+01 -0.28412944155E+02 -0.80856464597E+02  0.86165920569E+02  0.25500000000E-02 0. -1.
         -2    1    1    2  502    0  0.89164229578E+01  0.28412944155E+02 -0.20125372247E+03  0.20344497735E+03  0.25500000000E-02 0. -1.
<mgrwt>
<rscale>  0 0.65485224E+02</rscale>
<asrwt>0</asrwt>
<pdfrwt beam="2">  1        3 0.43978528E-01 0.65485224E+02</pdfrwt>
<pdfrwt beam="1">  1       -3 0.57697798E-03 0.65485224E+02</pdfrwt>
<totfact> 0.58368054E+04</totfact>
</mgrwt>
</event>
<event>
 4    1  0.1537855E-002  0.4364420E+02  0.7818608E-02  0.1482988E+00
          3   -1    0    0    0  501  0.00000000000E+00  0.00000000000E+00  0.57399926609E+01  0.57408811822E+01  0.10100000000E+00 0.  1.
         -3   -1    0    0  501    0 -0.00000000000E+00 -0.00000000000E+00 -0.82955141088E+02  0.82955202573E+02  0.10100000000E+00 0.  1.
          2    1    1    2    0  502  0.11348132008E+02  0.18595666543E+02 -0.36016860485E+02  0.42092673471E+02  0.25500000000E-02 0.  1.
         -2    1    1    2  502    0 -0.11348132008E+02 -0.18595666543E+02 -0.41198287942E+02  0.46603410284E+02  0.25500000000E-02 0.  1.
<mgrwt>
<rscale>  0 0.43644199E+02</rscale>
<asrwt>0</asrwt>
<pdfrwt beam="1">  1        3 0.88314893E-03 0.43644199E+02</pdfrwt>
<pdfrwt beam="2">  1       -3 0.12762402E-01 0.43644199E+02</pdfrwt>
<totfact> 0.24047956E+05</totfact>
</mgrwt>
</event>
<event>
 4    1  0.1537855E-002  0.6263107E+02  0.7818608E-02  0.1387111E+00
         -3   -1    0    0  501    0 -0.00000000000E+00  0.00000000000E+00  0.71843436429E+03  0.71843437139E+03  0.10100000000E+00 0.  1.
          3   -1    0    0    0  501  0.00000000000E+00 -0.00000000000E+00 -0.13631243187E+01  0.13668609689E+01  0.10100000000E+00 0.  1.
          2    1    1    2    0  502  0.11528877998E+02  0.29093665718E+02  0.34540015001E+03  0.34681496514E+03  0.25500000000E-02 0.  1.
         -2    1    1    2  502    0 -0.11528877998E+02 -0.29093665718E+02  0.37167108996E+03  0.37298626722E+03  0.25500000000E-02 0.  1.
<mgrwt>
<rscale>  0 0.62631070E+02</rscale>
<asrwt>0</asrwt>
<pdfrwt beam="2">  1        3 0.20999938E-03 0.62631070E+02</pdfrwt>
<pdfrwt beam="1">  1       -3 0.11052867E+00 0.62631070E+02</pdfrwt>
<totfact> 0.36051275E+04</totfact>
</mgrwt>
</event>
<event>
 4    1  0.1537855E-002  0.7154416E+02  0.7818608E-02  0.1354919E+00
         -3   -1    0    0  501    0 -0.00000000000E+00  0.00000000000E+00  0.13396304290E+03  0.13396308097E+03  0.10100000000E+00 0. -1.
          3   -1    0    0    0  501  0.00000000000E+00 -0.00000000000E+00 -0.95518937183E+01  0.95524276812E+01  0.10100000000E+00 0. -1.
          2    1    1    2    0  502  0.84282665359E+01 -0.29665733892E+02  0.98565718595E+02  0.10327774365E+03  0.25500000000E-02 0.  1.
         -2    1    1    2  502    0 -0.84282665359E+01  0.29665733892E+02  0.25845430586E+02  0.40237765008E+02  0.25500000000E-02 0.  1.
<mgrwt>
<rscale>  0 0.71544162E+02</rscale>
<asrwt>0</asrwt>
<pdfrwt beam="2">  1        3 0.14695663E-02 0.71544162E+02</pdfrwt>
<pdfrwt beam="1">  1       -3 0.20609740E-01 0.71544162E+02</pdfrwt>
<totfact> 0.60546725E+04</totfact>
</mgrwt>
</event>
<event>
 4    1  0.1537855E-002  0.4446766E+02  0.7818608E-02  0.1477693E+00
         -3   -1    0    0  501    0 -0.00000000000E+00  0.00000000000E+00  0.11114707154E+04  0.11114707200E+04  0.10100000000E+00 0. -1.
          3   -1    0    0    0  501  0.00000000000E+00 -0.00000000000E+00 -0.43902629919E+00  0.45049427453E+00  0.10100000000E+00 0. -1.
          2    1    1    2    0  502  0.20076791756E+02  0.46871478244E+01  0.76366971921E+03  0.76394796090E+03  0.25500000000E-02 0.  1.
         -2    1    1    2  502    0 -0.20076791756E+02 -0.46871478244E+01  0.34736196993E+03  0.34797325340E+03  0.25500000000E-02 0.  1.
<mgrwt>
<rscale>  0 0.44467657E+02</rscale>
<asrwt>0</asrwt>
<pdfrwt beam="2">  1        3 0.68424957E-04 0.44467657E+02</pdfrwt>
<pdfrwt beam="1">  1       -3 0.17099651E+00 0.44467657E+02</pdfrwt>
<totfact> 0.55565430E+04</totfact>
</mgrwt>
</event>
<event>
 4    1  0.1537855E-002  0.5537070E+02  0.7818608E-02  0.1418354E+00
          3   -1    0    0    0  501  0.00000000000E+00  0.00000000000E+00  0.36198013824E+02  0.36198154729E+02  0.10100000000E+00 0. -1.
         -3   -1    0    0  501    0 -0.00000000000E+00 -0.00000000000E+00 -0.21174299573E+02  0.21174540453E+02  0.10100000000E+00 0. -1.
          2    1    1    2    0  502  0.20121617452E+02  0.10652624470E+02  0.23833230506E+02  0.32960290955E+02  0.25500000000E-02 0. -1.
         -2    1    1    2  502    0 -0.20121617452E+02 -0.10652624470E+02 -0.88095162551E+01  0.24412404227E+02  0.25500000000E-02 0. -1.
<mgrwt>
<rscale>  0 0.55370698E+02</rscale>
<asrwt>0</asrwt>
<pdfrwt beam="1">  1        3 0.55689546E-02 0.55370698E+02</pdfrwt>
<pdfrwt beam="2">  1       -3 0.32576139E-02 0.55370698E+02</pdfrwt>
<totfact> 0.14301733E+05</totfact>
</mgrwt>
</event>
<event>
 4    1  0.1537855E-002  0.4061699E+02  0.7818608E-02  0.1503720E+00
         -3   -1    0    0  501    0 -0.00000000000E+00  0.00000000000E+00  0.22150074523E+03  0.22150076826E+03  0.10100000000E+00 0.  1.
          3   -1    0    0    0  501  0.00000000000E+00 -0.00000000000E+00 -0.18606095569E+01  0.18633488464E+01  0.10100000000E+00 0.  1.
          2    1    1    2    0  502 -0.19928493163E+02  0.38417878943E+01  0.10581380581E+03  0.10774258991E+03  0.25500000000E-02 0.  1.
         -2    1    1    2  502    0  0.19928493163E+02 -0.38417878943E+01  0.11382632987E+03  0.11562152720E+03  0.25500000000E-02 0.  1.
<mgrwt>
<rscale>  0 0.40616987E+02</rscale>
<asrwt>0</asrwt>
<pdfrwt beam="2">  1        3 0.28646022E-03 0.40616987E+02</pdfrwt>
<pdfrwt beam="1">  1       -3 0.34077237E-01 0.40616987E+02</pdfrwt>
<totfact> 0.21616955E+05</totfact>
</mgrwt>
</event>
<event>
 4    1  0.1537855E-002  0.4635210E+02  0.7818608E-02  0.1466073E+00
          3   -1    0    0    0  501  0.00000000000E+00  0.00000000000E+00  0.10478334575E+01  0.10526898663E+01  0.10100000000E+00 0.  1.
         -3   -1    0    0  501    0 -0.00000000000E+00 -0.00000000000E+00 -0.51141933520E+03  0.51141934518E+03  0.10100000000E+00 0.  1.
          2    1    1    2    0  502  0.20484441787E+02  0.10131328721E+02 -0.29782413161E+03  0.29869963099E+03  0.25500000000E-02 0.  1.
         -2    1    1    2  502    0 -0.20484441787E+02 -0.10131328721E+02 -0.21254737014E+03  0.21377240406E+03  0.25500000000E-02 0.  1.
<mgrwt>
<rscale>  0 0.46352097E+02</rscale>
<asrwt>0</asrwt>
<pdfrwt beam="1">  1        3 0.16157989E-03 0.46352097E+02</pdfrwt>
<pdfrwt beam="2">  1       -3 0.78680073E-01 0.46352097E+02</pdfrwt>
<totfact> 0.99455402E+04</totfact>
</mgrwt>
</event>
<event>
 4    1  0.1537855E-002  0.4604832E+02  0.7818608E-02  0.1467901E+00
         -3   -1    0    0  501    0 -0.00000000000E+00  0.00000000000E+00  0.93428585217E+01  0.93434044307E+01  0.10100000000E+00 0. -1.
          3   -1    0    0    0  501  0.00000000000E+00 -0.00000000000E+00 -0.56737542291E+02  0.56737632187E+02  0.10100000000E+00 0. -1.
          2    1    1    2    0  502 -0.11598374444E+02  0.19439830690E+02 -0.29731757673E+02  0.37368525898E+02  0.25500000000E-02 0.  1.
         -2    1    1    2  502    0  0.11598374444E+02 -0.19439830690E+02 -0.17662926096E+02  0.28712510719E+02  0.25500000000E-02 0.  1.
<mgrwt>
<rscale>  0 0.46048315E+02</rscale>
<asrwt>0</asrwt>
<pdfrwt beam="2">  1        3 0.87289013E-02 0.46048315E+02</pdfrwt>
<pdfrwt beam="1">  1       -3 0.14374118E-02 0.46048315E+02</pdfrwt>
<totfact> 0.22273774E+05</totfact>
</mgrwt>
</event>
<event>
 4    1  0.1537855E-002  0.4745967E+02  0.7818608E-02  0.1459546E+00
          3   -1    0    0    0  501  0.00000000000E+00  0.00000000000E+00  0.28556031399E+04  0.28556031417E+04  0.10100000000E+00 0. -1.
         -3   -1    0    0  501    0 -0.00000000000E+00 -0.00000000000E+00 -0.18425841218E+00  0.21012415963E+00  0.10100000000E+00 0. -1.
          2    1    1    2    0  502  0.22181258215E+02  0.83773033367E+01  0.13700645694E+04  0.13702697222E+04  0.25500000000E-02 0.  1.
         -2    1    1    2  502    0 -0.22181258215E+02 -0.83773033367E+01  0.14853543121E+04  0.14855435436E+04  0.25500000000E-02 0.  1.
<mgrwt>
<rscale>  0 0.47459674E+02</rscale>
<asrwt>0</asrwt>
<pdfrwt beam="1">  1        3 0.43935077E+00 0.47459674E+02</pdfrwt>
<pdfrwt beam="2">  1       -3 0.30335517E-04 0.47459674E+02</pdfrwt>
<totfact> 0.74493120E+03</totfact>
</mgrwt>
</event>
<event>
 4    1  0.1537855E-002  0.4762991E+02  0.7818608E-02  0.1458561E+00
          3   -1    0    0    0  501  0.00000000000E+00  0.00000000000E+00  0.16998048927E+02  0.16998348988E+02  0.10100000000E+00 0. -1.
         -3   -1    0    0  501    0 -0.00000000000E+00 -0.00000000000E+00 -0.33365038824E+02  0.33365191694E+02  0.10100000000E+00 0. -1.
          2    1    1    2    0  502 -0.20035648656E+02 -0.11614784397E+02 -0.23131500498E+01  0.23274043553E+02  0.25500000000E-02 0.  1.
         -2    1    1    2  502    0  0.20035648656E+02  0.11614784397E+02 -0.14053839848E+02  0.27089497128E+02  0.25500000000E-02 0.  1.
<mgrwt>
<rscale>  0 0.47629905E+02</rscale>
<asrwt>0</asrwt>
<pdfrwt beam="1">  1        3 0.26151193E-02 0.47629905E+02</pdfrwt>
<pdfrwt beam="2">  1       -3 0.51331177E-02 0.47629905E+02</pdfrwt>
<totfact> 0.21339226E+05</totfact>
</mgrwt>
</event>
<event>
 4    1  0.1537855E-002  0.4795318E+02  0.7818608E-02  0.1456705E+00
          3   -1    0    0    0  501  0.00000000000E+00  0.00000000000E+00  0.37601176969E+01  0.37614739258E+01  0.10100000000E+00 0.  1.
         -3   -1    0    0  501    0 -0.00000000000E+00 -0.00000000000E+00 -0.15285903498E+03  0.15285906835E+03  0.10100000000E+00 0.  1.
          2    1    1    2    0  502 -0.12016942408E+02 -0.17731622991E+02 -0.10973559122E+03  0.11180660690E+03  0.25500000000E-02 0.  1.
         -2    1    1    2  502    0  0.12016942408E+02  0.17731622991E+02 -0.39363326061E+02  0.44813935375E+02  0.25500000000E-02 0.  1.
<mgrwt>
<rscale>  0 0.47953176E+02</rscale>
<asrwt>0</asrwt>
<pdfrwt beam="1">  1        3 0.57858665E-03 0.47953176E+02</pdfrwt>
<pdfrwt beam="2">  1       -3 0.23516877E-01 0.47953176E+02</pdfrwt>
<totfact> 0.16387364E+05</totfact>
</mgrwt>
</event>
<event>
 4    1  0.1537855E-002  0.5393613E+02  0.7818608E-02  0.1425198E+00
         -3   -1    0    0  501    0 -0.00000000000E+00  0.00000000000E+00  0.24949392027E+03  0.24949394071E+03  0.10100000000E+00 0.  1.
          3   -1    0    0    0  501  0.00000000000E+00 -0.00000000000E+00 -0.29141112132E+01  0.29158609643E+01  0.10100000000E+00 0.  1.
          2    1    1    2    0  502  0.14157439577E+02  0.18450453250E+02  0.59393341147E+02  0.63784177502E+02  0.25500000000E-02 0.  1.
         -2    1    1    2  502    0 -0.14157439577E+02 -0.18450453250E+02  0.18718646791E+03  0.18862562417E+03  0.25500000000E-02 0.  1.
<mgrwt>
<rscale>  0 0.53936127E+02</rscale>
<asrwt>0</asrwt>
<pdfrwt beam="2">  1        3 0.44846112E-03 0.53936127E+02</pdfrwt>
<pdfrwt beam="1">  1       -3 0.38383804E-01 0.53936127E+02</pdfrwt>
<totfact> 0.10190713E+05</totfact>
</mgrwt>
</event>
<event>
 4    1  0.1537855E-002  0.1166378E+03  0.7818608E-02  0.1248749E+00
          3   -1    0    0    0  501  0.00000000000E+00  0.00000000000E+00  0.15095061401E+03  0.15095064780E+03  0.10100000000E+00 0. -1.
         -3   -1    0    0  501    0 -0.00000000000E+00 -0.00000000000E+00 -0.22531003027E+02  0.22531229403E+02  0.10100000000E+00 0. -1.
          2    1    1    2    0  502  0.36331076386E+01 -0.47547839141E+02  0.14275938619E+02  0.49777493992E+02  0.25500000000E-02 0.  1.
         -2    1    1    2  502    0 -0.36331076386E+01  0.47547839141E+02  0.11414367236E+03  0.12370438321E+03  0.25500000000E-02 0.  1.
<mgrwt>
<rscale>  0 0.11663775E+03</rscale>
<asrwt>0</asrwt>
<pdfrwt beam="1">  1        3 0.23223192E-01 0.11663775E+03</pdfrwt>
<pdfrwt beam="2">  1       -3 0.34663281E-02 0.11663775E+03</pdfrwt>
<totfact> 0.15221884E+04</totfact>
</mgrwt>
</event>
<event>
 4    1  0.1537855E-002  0.1009117E+03  0.7818608E-02  0.1278390E+00
          3   -1    0    0    0  501  0.00000000000E+00  0.00000000000E+00  0.22821550122E+02  0.22821773616E+02  0.10100000000E+00 0. -1.
         -3   -1    0    0  501    0 -0.00000000000E+00 -0.00000000000E+00 -0.11155131253E+03  0.11155135825E+03  0.10100000000E+00 0. -1.
          2    1    1    2    0  502  0.47745831043E+02 -0.18553718009E+01 -0.65946735791E+02  0.81437575814E+02  0.25500000000E-02 0.  1.
         -2    1    1    2  502    0 -0.47745831043E+02  0.18553718009E+01 -0.22783026617E+02  0.52935556055E+02  0.25500000000E-02 0.  1.
<mgrwt>
<rscale>  0 0.10091168E+03</rscale>
<asrwt>0</asrwt>
<pdfrwt beam="1">  1        3 0.35110285E-02 0.10091168E+03</pdfrwt>
<pdfrwt beam="2">  1       -3 0.17161761E-01 0.10091168E+03</pdfrwt>
<totfact> 0.24476878E+04</totfact>
</mgrwt>
</event>
<event>
 4    1  0.1537855E-002  0.5092580E+02  0.7818608E-02  0.1440411E+00
         -3   -1    0    0  501    0 -0.00000000000E+00  0.00000000000E+00  0.25310298559E+02  0.25310500077E+02  0.10100000000E+00 0.  1.
          3   -1    0    0    0  501  0.00000000000E+00 -0.00000000000E+00 -0.25616021572E+02  0.25616220685E+02  0.10100000000E+00 0.  1.
          2    1    1    2    0  502  0.14401166272E+02 -0.17128301173E+02  0.11995898786E+02  0.25390429009E+02  0.25500000000E-02 0.  1.
         -2    1    1    2  502    0 -0.14401166272E+02  0.17128301173E+02 -0.12301621799E+02  0.25536291753E+02  0.25500000000E-02 0.  1.
<mgrwt>
<rscale>  0 0.50925803E+02</rscale>
<asrwt>0</asrwt>
<pdfrwt beam="2">  1        3 0.39409572E-02 0.50925803E+02</pdfrwt>
<pdfrwt beam="1">  1       -3 0.38939229E-02 0.50925803E+02</pdfrwt>
<totfact> 0.18003440E+05</totfact>
</mgrwt>
</event>
<event>
 4    1  0.1537855E-002  0.5755942E+02  0.7818608E-02  0.1408369E+00
         -3   -1    0    0  501    0 -0.00000000000E+00  0.00000000000E+00  0.33338902815E+03  0.33338904345E+03  0.10100000000E+00 0.  1.
          3   -1    0    0    0  501  0.00000000000E+00 -0.00000000000E+00 -0.24833577325E+01  0.24854107563E+01  0.10100000000E+00 0.  1.
          2    1    1    2    0  502 -0.15552386966E+02  0.16663213557E+02  0.62922702481E+02  0.66923881541E+02  0.25500000000E-02 0.  1.
         -2    1    1    2  502    0  0.15552386966E+02 -0.16663213557E+02  0.26798296794E+03  0.26895057267E+03  0.25500000000E-02 0.  1.
<mgrwt>
<rscale>  0 0.57559415E+02</rscale>
<asrwt>0</asrwt>
<pdfrwt beam="2">  1        3 0.38221404E-03 0.57559415E+02</pdfrwt>
<pdfrwt beam="1">  1       -3 0.51290792E-01 0.57559415E+02</pdfrwt>
<totfact> 0.75224722E+04</totfact>
</mgrwt>
</event>
<event>
 4    1  0.1537855E-002  0.4776073E+02  0.7818608E-02  0.1457808E+00
         -3   -1    0    0  501    0 -0.00000000000E+00  0.00000000000E+00  0.29338774287E+03  0.29338776025E+03  0.10100000000E+00 0.  1.
          3   -1    0    0    0  501  0.00000000000E+00 -0.00000000000E+00 -0.19424185853E+01  0.19450426629E+01  0.10100000000E+00 0.  1.
          2    1    1    2    0  502 -0.10557689756E+02  0.17323076324E+02  0.67819712513E+02  0.70788891771E+02  0.25500000000E-02 0. -1.
         -2    1    1    2  502    0  0.10557689756E+02 -0.17323076324E+02  0.22362561177E+03  0.22454391114E+03  0.25500000000E-02 0. -1.
<mgrwt>
<rscale>  0 0.47760731E+02</rscale>
<asrwt>0</asrwt>
<pdfrwt beam="2">  1        3 0.29903702E-03 0.47760731E+02</pdfrwt>
<pdfrwt beam="1">  1       -3 0.45136748E-01 0.47760731E+02</pdfrwt>
<totfact> 0.12816522E+05</totfact>
</mgrwt>
</event>
<event>
 4    1  0.1537855E-002  0.5721019E+02  0.7818608E-02  0.1409927E+00
         -3   -1    0    0  501    0 -0.00000000000E+00  0.00000000000E+00  0.90821166325E+03  0.90821166887E+03  0.10100000000E+00 0. -1.
          3   -1    0    0    0  501  0.00000000000E+00 -0.00000000000E+00 -0.89811184862E+00  0.90377314224E+00  0.10100000000E+00 0. -1.
          2    1    1    2    0  502 -0.13716277968E+02 -0.21759465338E+02  0.25477348954E+03  0.25606862673E+03  0.25500000000E-02 0.  1.
         -2    1    1    2  502    0  0.13716277968E+02  0.21759465338E+02  0.65254006186E+03  0.65304681528E+03  0.25500000000E-02 0.  1.
<mgrwt>
<rscale>  0 0.57210194E+02</rscale>
<asrwt>0</asrwt>
<pdfrwt beam="2">  1        3 0.13860653E-03 0.57210194E+02</pdfrwt>
<pdfrwt beam="1">  1       -3 0.13972575E+00 0.57210194E+02</pdfrwt>
<totfact> 0.36669729E+04</totfact>
</mgrwt>
</event>
<event>
 4    1  0.1537855E-002  0.8604765E+02  0.7818608E-02  0.1312715E+00
          3   -1    0    0    0  501  0.00000000000E+00  0.00000000000E+00  0.11578605389E+02  0.11579045891E+02  0.10100000000E+00 0.  1.
         -3   -1    0    0  501    0 -0.00000000000E+00 -0.00000000000E+00 -0.15986458414E+03  0.15986461605E+03  0.10100000000E+00 0.  1.
          2    1    1    2    0  502  0.14311086610E+02 -0.34342757482E+02 -0.31094702760E+02  0.48488274229E+02  0.25500000000E-02 0.  1.
         -2    1    1    2  502    0 -0.14311086610E+02  0.34342757482E+02 -0.11719127599E+03  0.12295538771E+03  0.25500000000E-02 0.  1.
<mgrwt>
<rscale>  0 0.86047648E+02</rscale>
<asrwt>0</asrwt>
<pdfrwt beam="1">  1        3 0.17813604E-02 0.86047648E+02</pdfrwt>
<pdfrwt beam="2">  1       -3 0.24594586E-01 0.86047648E+02</pdfrwt>
<totfact> 0.35109100E+04</totfact>
</mgrwt>
</event>
<event>
 4    1  0.1537855E-002  0.6625383E+02  0.7818608E-02  0.1373316E+00
          3   -1    0    0    0  501  0.00000000000E+00  0.00000000000E+00  0.43251732507E+03  0.43251733687E+03  0.10100000000E+00 0.  1.
         -3   -1    0    0  501    0 -0.00000000000E+00 -0.00000000000E+00 -0.25362047727E+01  0.25382150518E+01  0.10100000000E+00 0.  1.
          2    1    1    2    0  502  0.24474732663E+02  0.60740209049E+01  0.35605354152E+03  0.35694541698E+03  0.25500000000E-02 0.  1.
         -2    1    1    2  502    0 -0.24474732663E+02 -0.60740209049E+01  0.73927578782E+02  0.78110134937E+02  0.25500000000E-02 0.  1.
<mgrwt>
<rscale>  0 0.66253826E+02</rscale>
<asrwt>0</asrwt>
<pdfrwt beam="1">  1        3 0.66541289E-01 0.66253826E+02</pdfrwt>
<pdfrwt beam="2">  1       -3 0.39034085E-03 0.66253826E+02</pdfrwt>
<totfact> 0.45253811E+04</totfact>
</mgrwt>
</event>
<event>
 4    1  0.1537855E-002  0.7608287E+02  0.7818608E-02  0.1340550E+00
         -3   -1    0    0  501    0 -0.00000000000E+00  0.00000000000E+00  0.27575608710E+02  0.27575793673E+02  0.10100000000E+00 0.  1.
          3   -1    0    0    0  501  0.00000000000E+00 -0.00000000000E+00 -0.52478963605E+02  0.52479060796E+02  0.10100000000E+00 0.  1.
          2    1    1    2    0  502  0.32070080779E+02 -0.22816592702E+01 -0.33846797066E+02  0.46682991852E+02  0.25500000000E-02 0.  1.
         -2    1    1    2  502    0 -0.32070080779E+02  0.22816592702E+01  0.89434421703E+01  0.33371862617E+02  0.25500000000E-02 0.  1.
<mgrwt>
<rscale>  0 0.76082867E+02</rscale>
<asrwt>0</asrwt>
<pdfrwt beam="2">  1        3 0.80737084E-02 0.76082867E+02</pdfrwt>
<pdfrwt beam="1">  1       -3 0.42424231E-02 0.76082867E+02</pdfrwt>
<totfact> 0.59002297E+04</totfact>
</mgrwt>
</event>
<event>
 4    1  0.1537855E-002  0.4089578E+02  0.7818608E-02  0.1501721E+00
          3   -1    0    0    0  501  0.00000000000E+00  0.00000000000E+00  0.28477611289E+01  0.28495516222E+01  0.10100000000E+00 0.  1.
         -3   -1    0    0  501    0 -0.00000000000E+00 -0.00000000000E+00 -0.14677483844E+03  0.14677487319E+03  0.10100000000E+00 0.  1.
          2    1    1    2    0  502  0.12838293325E+02 -0.15741586459E+02 -0.63385598259E+02  0.66560899880E+02  0.25500000000E-02 0. -1.
         -2    1    1    2  502    0 -0.12838293325E+02  0.15741586459E+02 -0.80541479054E+02  0.83063524934E+02  0.25500000000E-02 0. -1.
<mgrwt>
<rscale>  0 0.40895781E+02</rscale>
<asrwt>0</asrwt>
<pdfrwt beam="1">  1        3 0.43825761E-03 0.40895781E+02</pdfrwt>
<pdfrwt beam="2">  1       -3 0.22580879E-01 0.40895781E+02</pdfrwt>
<totfact> 0.24583718E+05</totfact>
</mgrwt>
</event>
<event>
 4    1  0.1537855E-002  0.5512590E+02  0.7818608E-02  0.1419504E+00
          3   -1    0    0    0  501  0.00000000000E+00  0.00000000000E+00  0.18981665790E+04  0.18981665817E+04  0.10100000000E+00 0. -1.
         -3   -1    0    0  501    0 -0.00000000000E+00 -0.00000000000E+00 -0.39386224300E+00  0.40660603348E+00  0.10100000000E+00 0. -1.
          2    1    1    2    0  502 -0.20091035937E+02 -0.18848523620E+02  0.97968317647E+03  0.98007042749E+03  0.25500000000E-02 0.  1.
         -2    1    1    2  502    0  0.20091035937E+02  0.18848523620E+02  0.91808954032E+03  0.91850276026E+03  0.25500000000E-02 0.  1.
<mgrwt>
<rscale>  0 0.55125898E+02</rscale>
<asrwt>0</asrwt>
<pdfrwt beam="1">  1        3 0.29203472E+00 0.55125898E+02</pdfrwt>
<pdfrwt beam="2">  1       -3 0.61572980E-04 0.55125898E+02</pdfrwt>
<totfact> 0.15186002E+04</totfact>
</mgrwt>
</event>
<event>
 4    1  0.1537855E-002  0.6245489E+02  0.7818608E-02  0.1387809E+00
         -3   -1    0    0  501    0 -0.00000000000E+00  0.00000000000E+00  0.10192148721E+03  0.10192153726E+03  0.10100000000E+00 0. -1.
          3   -1    0    0    0  501  0.00000000000E+00 -0.00000000000E+00 -0.95673727419E+01  0.95679058410E+01  0.10100000000E+00 0. -1.
          2    1    1    2    0  502 -0.11367274104E+02 -0.22974149956E+02  0.14337467260E+02  0.29369873352E+02  0.25500000000E-02 0.  1.
         -2    1    1    2  502    0  0.11367274104E+02  0.22974149956E+02  0.78016647212E+02  0.82119569747E+02  0.25500000000E-02 0.  1.
<mgrwt>
<rscale>  0 0.62454891E+02</rscale>
<asrwt>0</asrwt>
<pdfrwt beam="2">  1        3 0.14719484E-02 0.62454891E+02</pdfrwt>
<pdfrwt beam="1">  1       -3 0.15680274E-01 0.62454891E+02</pdfrwt>
<totfact> 0.92321140E+04</totfact>
</mgrwt>
</event>
<event>
 4    1  0.1537855E-002  0.5162059E+02  0.7818608E-02  0.1436792E+00
          3   -1    0    0    0  501  0.00000000000E+00  0.00000000000E+00  0.77362005420E+01  0.77368598169E+01  0.10100000000E+00 0. -1.
         -3   -1    0    0  501    0 -0.00000000000E+00 -0.00000000000E+00 -0.86106548092E+02  0.86106607327E+02  0.10100000000E+00 0. -1.
          2    1    1    2    0  502  0.59618517626E+00 -0.24361569231E+02 -0.23724103324E+02  0.34009918806E+02  0.25500000000E-02 0.  1.
         -2    1    1    2  502    0 -0.59618517626E+00  0.24361569231E+02 -0.54646244226E+02  0.59833548338E+02  0.25500000000E-02 0.  1.
<mgrwt>
<rscale>  0 0.51620586E+02</rscale>
<asrwt>0</asrwt>
<pdfrwt beam="1">  1        3 0.11902400E-02 0.51620586E+02</pdfrwt>
<pdfrwt beam="2">  1       -3 0.13247216E-01 0.51620586E+02</pdfrwt>
<totfact> 0.15633753E+05</totfact>
</mgrwt>
</event>
<event>
 4    1  0.1537855E-002  0.4625034E+02  0.7818608E-02  0.1466684E+00
         -3   -1    0    0  501    0 -0.00000000000E+00  0.00000000000E+00  0.60933724105E+02  0.60933807810E+02  0.10100000000E+00 0.  1.
          3   -1    0    0    0  501  0.00000000000E+00 -0.00000000000E+00 -0.87759326794E+01  0.87765138519E+01  0.10100000000E+00 0.  1.
          2    1    1    2    0  502 -0.15734776982E+02 -0.14058519497E+02  0.40341890818E+02  0.45526841955E+02  0.25500000000E-02 0.  1.
         -2    1    1    2  502    0  0.15734776982E+02  0.14058519497E+02  0.11815900608E+02  0.24183479708E+02  0.25500000000E-02 0.  1.
<mgrwt>
<rscale>  0 0.46250338E+02</rscale>
<asrwt>0</asrwt>
<pdfrwt beam="2">  1        3 0.13501947E-02 0.46250338E+02</pdfrwt>
<pdfrwt beam="1">  1       -3 0.93744701E-02 0.46250338E+02</pdfrwt>
<totfact> 0.21830785E+05</totfact>
</mgrwt>
</event>
<event>
 4    1  0.1537855E-002  0.9599251E+02  0.7818608E-02  0.1288956E+00
         -3   -1    0    0  501    0 -0.00000000000E+00  0.00000000000E+00  0.27218475243E+02  0.27218662633E+02  0.10100000000E+00 0.  1.
          3   -1    0    0    0  501  0.00000000000E+00 -0.00000000000E+00 -0.84634668665E+02  0.84634728930E+02  0.10100000000E+00 0.  1.
          2    1    1    2    0  502  0.34010658384E+02  0.29517809310E+02 -0.93633582254E+01  0.45996721991E+02  0.25500000000E-02 0.  1.
         -2    1    1    2  502    0 -0.34010658384E+02 -0.29517809310E+02 -0.48052835197E+02  0.65856669572E+02  0.25500000000E-02 0.  1.
<mgrwt>
<rscale>  0 0.95992510E+02</rscale>
<asrwt>0</asrwt>
<pdfrwt beam="2">  1        3 0.13020737E-01 0.95992510E+02</pdfrwt>
<pdfrwt beam="1">  1       -3 0.41874768E-02 0.95992510E+02</pdfrwt>
<totfact> 0.29381071E+04</totfact>
</mgrwt>
</event>
<event>
 4    1  0.1537855E-002  0.7246349E+02  0.7818608E-02  0.1351911E+00
         -3   -1    0    0  501    0 -0.00000000000E+00  0.00000000000E+00  0.74164398166E+01  0.74171275136E+01  0.10100000000E+00 0. -1.
          3   -1    0    0    0  501  0.00000000000E+00 -0.00000000000E+00 -0.17699505621E+03  0.17699508503E+03  0.10100000000E+00 0. -1.
          2    1    1    2    0  502  0.23854277421E+02 -0.18802187531E+00 -0.15388788645E+02  0.28387967979E+02  0.25500000000E-02 0.  1.
         -2    1    1    2  502    0 -0.23854277421E+02  0.18802187531E+00 -0.15418982775E+03  0.15602424456E+03  0.25500000000E-02 0.  1.
<mgrwt>
<rscale>  0 0.72463487E+02</rscale>
<asrwt>0</asrwt>
<pdfrwt beam="2">  1        3 0.27230061E-01 0.72463487E+02</pdfrwt>
<pdfrwt beam="1">  1       -3 0.11410460E-02 0.72463487E+02</pdfrwt>
<totfact> 0.54043388E+04</totfact>
</mgrwt>
</event>
<event>
 4    1  0.1537855E-002  0.5832945E+02  0.7818608E-02  0.1404979E+00
         -3   -1    0    0  501    0 -0.00000000000E+00  0.00000000000E+00  0.16513627585E+03  0.16513630673E+03  0.10100000000E+00 0. -1.
          3   -1    0    0    0  501  0.00000000000E+00 -0.00000000000E+00 -0.51502577167E+01  0.51512479603E+01  0.10100000000E+00 0. -1.
          2    1    1    2    0  502 -0.21834631632E+02  0.11589899033E+02  0.12517358432E+03  0.12759115611E+03  0.25500000000E-02 0.  1.
         -2    1    1    2  502    0  0.21834631632E+02 -0.11589899033E+02  0.34812433805E+02  0.42696398584E+02  0.25500000000E-02 0.  1.
<mgrwt>
<rscale>  0 0.58329455E+02</rscale>
<asrwt>0</asrwt>
<pdfrwt beam="2">  1        3 0.79242599E-03 0.58329455E+02</pdfrwt>
<pdfrwt beam="1">  1       -3 0.25405656E-01 0.58329455E+02</pdfrwt>
<totfact> 0.97359607E+04</totfact>
</mgrwt>
</event>
<event>
 4    1  0.1537855E-002  0.4311124E+02  0.7818608E-02  0.1486489E+00
         -3   -1    0    0  501    0 -0.00000000000E+00  0.00000000000E+00  0.29312979603E+03  0.29312981343E+03  0.10100000000E+00 0. -1.
          3   -1    0    0    0  501  0.00000000000E+00 -0.00000000000E+00 -0.15834896956E+01  0.15867074765E+01  0.10100000000E+00 0. -1.
          2    1    1    2    0  502 -0.11139826451E+02  0.17967640495E+02  0.11700190228E+03  0.11889649693E+03  0.25500000000E-02 0.  1.
         -2    1    1    2  502    0  0.11139826451E+02 -0.17967640495E+02  0.17454440405E+03  0.17582002398E+03  0.25500000000E-02 0.  1.
<mgrwt>
<rscale>  0 0.43111239E+02</rscale>
<asrwt>0</asrwt>
<pdfrwt beam="2">  1        3 0.24386283E-03 0.43111239E+02</pdfrwt>
<pdfrwt beam="1">  1       -3 0.45097109E-01 0.43111239E+02</pdfrwt>
<totfact> 0.16495847E+05</totfact>
</mgrwt>
</event>
<event>
 4    1  0.1537855E-002  0.4594242E+02  0.7818608E-02  0.1468543E+00
          3   -1    0    0    0  501  0.00000000000E+00  0.00000000000E+00  0.29294795321E+00  0.30987013939E+00  0.10100000000E+00 0.  1.
         -3   -1    0    0  501    0 -0.00000000000E+00 -0.00000000000E+00 -0.17506818904E+04  0.17506818933E+04  0.10100000000E+00 0.  1.
          2    1    1    2    0  502 -0.19911820206E+02 -0.11102580535E+02 -0.76787764624E+03  0.76821600314E+03  0.25500000000E-02 0. -1.
         -2    1    1    2  502    0  0.19911820206E+02  0.11102580535E+02 -0.98251129623E+03  0.98277576034E+03  0.25500000000E-02 0. -1.
<mgrwt>
<rscale>  0 0.45942419E+02</rscale>
<asrwt>0</asrwt>
<pdfrwt beam="1">  1        3 0.46372248E-04 0.45942419E+02</pdfrwt>
<pdfrwt beam="2">  1       -3 0.26932884E+00 0.45942419E+02</pdfrwt>
<totfact> 0.27542680E+04</totfact>
</mgrwt>
</event>
<event>
 4    1  0.1537855E-002  0.4614820E+02  0.7818608E-02  0.1467298E+00
          3   -1    0    0    0  501  0.00000000000E+00  0.00000000000E+00  0.12869851947E+03  0.12869855910E+03  0.10100000000E+00 0.  1.
         -3   -1    0    0  501    0 -0.00000000000E+00 -0.00000000000E+00 -0.41362530506E+01  0.41374859878E+01  0.10100000000E+00 0.  1.
          2    1    1    2    0  502  0.22081420983E+02  0.49017741405E+01  0.49154059665E+02  0.54108577235E+02  0.25500000000E-02 0.  1.
         -2    1    1    2  502    0 -0.22081420983E+02 -0.49017741405E+01  0.75408206755E+02  0.78727467855E+02  0.25500000000E-02 0.  1.
<mgrwt>
<rscale>  0 0.46148203E+02</rscale>
<asrwt>0</asrwt>
<pdfrwt beam="1">  1        3 0.19799871E-01 0.46148203E+02</pdfrwt>
<pdfrwt beam="2">  1       -3 0.63644450E-03 0.46148203E+02</pdfrwt>
<totfact> 0.18945361E+05</totfact>
</mgrwt>
</event>
<event>
 4    1  0.1537855E-002  0.4093749E+02  0.7818608E-02  0.1501424E+00
          3   -1    0    0    0  501  0.00000000000E+00  0.00000000000E+00  0.13902753616E+01  0.13939392315E+01  0.10100000000E+00 0. -1.
         -3   -1    0    0  501    0 -0.00000000000E+00 -0.00000000000E+00 -0.30095703745E+03  0.30095705440E+03  0.10100000000E+00 0. -1.
          2    1    1    2    0  502  0.11549822505E+02 -0.16884561502E+02 -0.14465165762E+03  0.14609102941E+03  0.25500000000E-02 0. -1.
         -2    1    1    2  502    0 -0.11549822505E+02  0.16884561502E+02 -0.15491510447E+03  0.15625996422E+03  0.25500000000E-02 0. -1.
<mgrwt>
<rscale>  0 0.40937494E+02</rscale>
<asrwt>0</asrwt>
<pdfrwt beam="1">  1        3 0.21417190E-03 0.40937494E+02</pdfrwt>
<pdfrwt beam="2">  1       -3 0.46301314E-01 0.40937494E+02</pdfrwt>
<totfact> 0.18461807E+05</totfact>
</mgrwt>
</event>
<event>
 4    1  0.1537855E-002  0.6696190E+02  0.7818608E-02  0.1370740E+00
          3   -1    0    0    0  501  0.00000000000E+00  0.00000000000E+00  0.83017298204E+00  0.83629431429E+00  0.10100000000E+00 0. -1.
         -3   -1    0    0  501    0 -0.00000000000E+00 -0.00000000000E+00 -0.13453234662E+04  0.13453234700E+04  0.10100000000E+00 0. -1.
          2    1    1    2    0  502 -0.24456670945E+02 -0.20384330614E+02 -0.46398098669E+03  0.46507204357E+03  0.25500000000E-02 0.  1.
         -2    1    1    2  502    0  0.24456670945E+02  0.20384330614E+02 -0.88051230651E+03  0.88108772072E+03  0.25500000000E-02 0.  1.
<mgrwt>
<rscale>  0 0.66961896E+02</rscale>
<asrwt>0</asrwt>
<pdfrwt beam="1">  1        3 0.12819116E-03 0.66961896E+02</pdfrwt>
<pdfrwt beam="2">  1       -3 0.20697157E+00 0.66961896E+02</pdfrwt>
<totfact> 0.15826288E+04</totfact>
</mgrwt>
</event>
<event>
 4    1  0.1537855E-002  0.9931887E+02  0.7818608E-02  0.1281735E+00
          3   -1    0    0    0  501  0.00000000000E+00  0.00000000000E+00  0.93819681116E+03  0.93819681660E+03  0.10100000000E+00 0. -1.
         -3   -1    0    0  501    0 -0.00000000000E+00 -0.00000000000E+00 -0.26275338654E+01  0.26294743227E+01  0.10100000000E+00 0. -1.
          2    1    1    2    0  502  0.15719036234E+02  0.14328475253E+02  0.42703917709E+02  0.47707629342E+02  0.25500000000E-02 0. -1.
         -2    1    1    2  502    0 -0.15719036234E+02 -0.14328475253E+02  0.89286535959E+03  0.89311866158E+03  0.25500000000E-02 0. -1.
<mgrwt>
<rscale>  0 0.99318866E+02</rscale>
<asrwt>0</asrwt>
<pdfrwt beam="1">  1        3 0.14433827E+00 0.99318866E+02</pdfrwt>
<pdfrwt beam="2">  1       -3 0.40438523E-03 0.99318866E+02</pdfrwt>
<totfact> 0.84792340E+03</totfact>
</mgrwt>
</event>
<event>
 4    1  0.1537855E-002  0.4991825E+02  0.7818608E-02  0.1445783E+00
          3   -1    0    0    0  501  0.00000000000E+00  0.00000000000E+00  0.26243076100E+02  0.26243270455E+02  0.10100000000E+00 0. -1.
         -3   -1    0    0  501    0 -0.00000000000E+00 -0.00000000000E+00 -0.23737598737E+02  0.23737813606E+02  0.10100000000E+00 0. -1.
          2    1    1    2    0  502 -0.22487447276E+02 -0.65081290018E+01  0.99190834955E+01  0.25424972999E+02  0.25500000000E-02 0.  1.
         -2    1    1    2  502    0  0.22487447276E+02  0.65081290018E+01 -0.74136061323E+01  0.24556111062E+02  0.25500000000E-02 0.  1.
<mgrwt>
<rscale>  0 0.49918247E+02</rscale>
<asrwt>0</asrwt>
<pdfrwt beam="1">  1        3 0.40374278E-02 0.49918247E+02</pdfrwt>
<pdfrwt beam="2">  1       -3 0.36519698E-02 0.49918247E+02</pdfrwt>
<totfact> 0.18983187E+05</totfact>
</mgrwt>
</event>
<event>
 4    1  0.1537855E-002  0.4713928E+02  0.7818608E-02  0.1461412E+00
          3   -1    0    0    0  501  0.00000000000E+00  0.00000000000E+00  0.48377523113E+02  0.48377628544E+02  0.10100000000E+00 0.  1.
         -3   -1    0    0  501    0 -0.00000000000E+00 -0.00000000000E+00 -0.11482843902E+02  0.11483288078E+02  0.10100000000E+00 0.  1.
          2    1    1    2    0  502 -0.20337033666E+02  0.11802575663E+02  0.20507612302E+02  0.31200286849E+02  0.25500000000E-02 0.  1.
         -2    1    1    2  502    0  0.20337033666E+02 -0.11802575663E+02  0.16387066909E+02  0.28660629773E+02  0.25500000000E-02 0.  1.
<mgrwt>
<rscale>  0 0.47139283E+02</rscale>
<asrwt>0</asrwt>
<pdfrwt beam="1">  1        3 0.74427381E-02 0.47139283E+02</pdfrwt>
<pdfrwt beam="2">  1       -3 0.17666337E-02 0.47139283E+02</pdfrwt>
<totfact> 0.21351502E+05</totfact>
</mgrwt>
</event>
<event>
 4    1  0.1537855E-002  0.4105788E+02  0.7818608E-02  0.1500568E+00
         -3   -1    0    0  501    0 -0.00000000000E+00  0.00000000000E+00  0.16265894038E+02  0.16266207605E+02  0.10100000000E+00 0.  1.
          3   -1    0    0    0  501  0.00000000000E+00 -0.00000000000E+00 -0.25908603866E+02  0.25908800730E+02  0.10100000000E+00 0.  1.
          2    1    1    2    0  502  0.33299850683E+01  0.20145062014E+02 -0.70064472044E+01  0.21587094132E+02  0.25500000000E-02 0. -1.
         -2    1    1    2  502    0 -0.33299850683E+01 -0.20145062014E+02 -0.26362626242E+01  0.20587914203E+02  0.25500000000E-02 0. -1.
<mgrwt>
<rscale>  0 0.41057880E+02</rscale>
<asrwt>0</asrwt>
<pdfrwt beam="2">  1        3 0.39859783E-02 0.41057880E+02</pdfrwt>
<pdfrwt beam="1">  1       -3 0.25024845E-02 0.41057880E+02</pdfrwt>
<totfact> 0.31558302E+05</totfact>
</mgrwt>
</event>
<event>
 4    1  0.1537855E-002  0.6044034E+02  0.7818608E-02  0.1395993E+00
         -3   -1    0    0  501    0 -0.00000000000E+00  0.00000000000E+00  0.17040436128E+03  0.17040439121E+03  0.10100000000E+00 0.  1.
          3   -1    0    0    0  501  0.00000000000E+00 -0.00000000000E+00 -0.53588561340E+01  0.53598078384E+01  0.10100000000E+00 0.  1.
          2    1    1    2    0  502 -0.14800985668E+02 -0.17067964741E+02  0.14089255111E+03  0.14269231080E+03  0.25500000000E-02 0.  1.
         -2    1    1    2  502    0  0.14800985668E+02  0.17067964741E+02  0.24152954037E+02  0.33071888249E+02  0.25500000000E-02 0.  1.
<mgrwt>
<rscale>  0 0.60440342E+02</rscale>
<asrwt>0</asrwt>
<pdfrwt beam="2">  1        3 0.82451509E-03 0.60440342E+02</pdfrwt>
<pdfrwt beam="1">  1       -3 0.26216126E-01 0.60440342E+02</pdfrwt>
<totfact> 0.87957382E+04</totfact>
</mgrwt>
</event>
<event>
 4    1  0.1537855E-002  0.1269938E+03  0.7818608E-02  0.1231986E+00
         -3   -1    0    0  501    0 -0.00000000000E+00  0.00000000000E+00  0.27549005963E+01  0.27567514026E+01  0.10100000000E+00 0.  1.
          3   -1    0    0    0  501  0.00000000000E+00 -0.00000000000E+00 -0.14630292058E+04  0.14630292093E+04  0.10100000000E+00 0.  1.
          2    1    1    2    0  502 -0.46279220426E+01 -0.28749397850E+02 -0.78855983049E+02  0.84060761407E+02  0.25500000000E-02 0. -1.
         -2    1    1    2  502    0  0.46279220426E+01  0.28749397850E+02 -0.13814183222E+04  0.13817251993E+04  0.25500000000E-02 0. -1.
<mgrwt>
<rscale>  0 0.12699384E+03</rscale>
<asrwt>0</asrwt>
<pdfrwt beam="2">  1        3 0.22508094E+00 0.12699384E+03</pdfrwt>
<pdfrwt beam="1">  1       -3 0.42397467E-03 0.12699384E+03</pdfrwt>
<totfact> 0.25737664E+03</totfact>
</mgrwt>
</event>
<event>
 4    1  0.1537855E-002  0.4693119E+02  0.7818608E-02  0.1462634E+00
         -3   -1    0    0  501    0 -0.00000000000E+00  0.00000000000E+00  0.19472078019E+02  0.19472339957E+02  0.10100000000E+00 0. -1.
          3   -1    0    0    0  501  0.00000000000E+00 -0.00000000000E+00 -0.28277600379E+02  0.28277780751E+02  0.10100000000E+00 0. -1.
          2    1    1    2    0  502  0.11961093735E+02  0.18087522644E+02 -0.13526280520E+02  0.25557513766E+02  0.25500000000E-02 0.  1.
         -2    1    1    2  502    0 -0.11961093735E+02 -0.18087522644E+02  0.47207581604E+01  0.22192606941E+02  0.25500000000E-02 0.  1.
<mgrwt>
<rscale>  0 0.46931192E+02</rscale>
<asrwt>0</asrwt>
<pdfrwt beam="2">  1        3 0.43504341E-02 0.46931192E+02</pdfrwt>
<pdfrwt beam="1">  1       -3 0.29957383E-02 0.46931192E+02</pdfrwt>
<totfact> 0.22301991E+05</totfact>
</mgrwt>
</event>
<event>
 4    1  0.1537855E-002  0.4862085E+02  0.7818608E-02  0.1452925E+00
          3   -1    0    0    0  501  0.00000000000E+00  0.00000000000E+00  0.15076831114E+03  0.15076834497E+03  0.10100000000E+00 0. -1.
         -3   -1    0    0  501    0 -0.00000000000E+00 -0.00000000000E+00 -0.39192153906E+01  0.39205165830E+01  0.10100000000E+00 0. -1.
          2    1    1    2    0  502  0.21155226603E+02 -0.15201144830E+01  0.35626861782E+02  0.41462364230E+02  0.25500000000E-02 0. -1.
         -2    1    1    2  502    0 -0.21155226603E+02  0.15201144830E+01  0.11122223397E+03  0.11322649732E+03  0.25500000000E-02 0. -1.
<mgrwt>
<rscale>  0 0.48620849E+02</rscale>
<asrwt>0</asrwt>
<pdfrwt beam="1">  1        3 0.23195229E-01 0.48620849E+02</pdfrwt>
<pdfrwt beam="2">  1       -3 0.60305888E-03 0.48620849E+02</pdfrwt>
<totfact> 0.15895362E+05</totfact>
</mgrwt>
</event>
<event>
 4    1  0.1537855E-002  0.4305598E+02  0.7818608E-02  0.1486856E+00
         -3   -1    0    0  501    0 -0.00000000000E+00  0.00000000000E+00  0.10879868588E+04  0.10879868635E+04  0.10100000000E+00 0.  1.
          3   -1    0    0    0  501  0.00000000000E+00 -0.00000000000E+00 -0.41998257645E+00  0.43195643822E+00  0.10100000000E+00 0.  1.
          2    1    1    2    0  502 -0.10898435060E+02  0.17264200393E+02  0.71639735763E+03  0.71668821849E+03  0.25500000000E-02 0. -1.
         -2    1    1    2  502    0  0.10898435060E+02 -0.17264200393E+02  0.37116951863E+03  0.37173060147E+03  0.25500000000E-02 0. -1.
<mgrwt>
<rscale>  0 0.43055979E+02</rscale>
<asrwt>0</asrwt>
<pdfrwt beam="2">  1        3 0.65534310E-04 0.43055979E+02</pdfrwt>
<pdfrwt beam="1">  1       -3 0.16738306E+00 0.43055979E+02</pdfrwt>
<totfact> 0.61529399E+04</totfact>
</mgrwt>
</event>
<event>
 4    1  0.1537855E-002  0.4233192E+02  0.7818608E-02  0.1491720E+00
          3   -1    0    0    0  501  0.00000000000E+00  0.00000000000E+00  0.90897698644E+02  0.90897754756E+02  0.10100000000E+00 0.  1.
         -3   -1    0    0  501    0 -0.00000000000E+00 -0.00000000000E+00 -0.49280192203E+01  0.49290541116E+01  0.10100000000E+00 0.  1.
          2    1    1    2    0  502  0.46397139289E+01  0.20649456805E+02  0.43587431769E+02  0.48454011458E+02  0.25500000000E-02 0.  1.
         -2    1    1    2  502    0 -0.46397139289E+01 -0.20649456805E+02  0.42382247654E+02  0.47372797409E+02  0.25500000000E-02 0.  1.
<mgrwt>
<rscale>  0 0.42331921E+02</rscale>
<asrwt>0</asrwt>
<pdfrwt beam="1">  1        3 0.13984344E-01 0.42331921E+02</pdfrwt>
<pdfrwt beam="2">  1       -3 0.75824079E-03 0.42331921E+02</pdfrwt>
<totfact> 0.25477954E+05</totfact>
</mgrwt>
</event>
<event>
 4    1  0.1537855E-002  0.5825778E+02  0.7818608E-02  0.1405292E+00
         -3   -1    0    0  501    0 -0.00000000000E+00  0.00000000000E+00  0.68211126955E+01  0.68218604064E+01  0.10100000000E+00 0. -1.
          3   -1    0    0    0  501  0.00000000000E+00 -0.00000000000E+00 -0.12438445251E+03  0.12438449352E+03  0.10100000000E+00 0. -1.
          2    1    1    2    0  502 -0.25644565001E+02 -0.72036024506E+01 -0.85330195250E+02  0.89391150738E+02  0.25500000000E-02 0. -1.
         -2    1    1    2  502    0  0.25644565001E+02  0.72036024506E+01 -0.32233144566E+02  0.41815203186E+02  0.25500000000E-02 0. -1.
<mgrwt>
<rscale>  0 0.58257776E+02</rscale>
<asrwt>0</asrwt>
<pdfrwt beam="2">  1        3 0.19136129E-01 0.58257776E+02</pdfrwt>
<pdfrwt beam="1">  1       -3 0.10494627E-02 0.58257776E+02</pdfrwt>
<totfact> 0.10578050E+05</totfact>
</mgrwt>
</event>
<event>
 4    1  0.1537855E-002  0.5666065E+02  0.7818608E-02  0.1412405E+00
          3   -1    0    0    0  501  0.00000000000E+00  0.00000000000E+00  0.16352856076E+02  0.16353167976E+02  0.10100000000E+00 0.  1.
         -3   -1    0    0  501    0 -0.00000000000E+00 -0.00000000000E+00 -0.49079735438E+02  0.49079839361E+02  0.10100000000E+00 0.  1.
          2    1    1    2    0  502  0.21138240789E+02 -0.41860568635E+01  0.48758539423E+01  0.22093488948E+02  0.25500000000E-02 0.  1.
         -2    1    1    2  502    0 -0.21138240789E+02  0.41860568635E+01 -0.37602733304E+02  0.43339518389E+02  0.25500000000E-02 0.  1.
<mgrwt>
<rscale>  0 0.56660655E+02</rscale>
<asrwt>0</asrwt>
<pdfrwt beam="1">  1        3 0.25158560E-02 0.56660655E+02</pdfrwt>
<pdfrwt beam="2">  1       -3 0.75507604E-02 0.56660655E+02</pdfrwt>
<totfact> 0.13209037E+05</totfact>
</mgrwt>
</event>
<event>
 4    1  0.1537855E-002  0.5216000E+02  0.7818608E-02  0.1434028E+00
         -3   -1    0    0  501    0 -0.00000000000E+00  0.00000000000E+00  0.56004295108E+03  0.56004296018E+03  0.10100000000E+00 0.  1.
          3   -1    0    0    0  501  0.00000000000E+00 -0.00000000000E+00 -0.12123805791E+01  0.12165803174E+01  0.10100000000E+00 0.  1.
          2    1    1    2    0  502  0.23342524542E+02 -0.89409693823E+01  0.35947104009E+03  0.36033906679E+03  0.25500000000E-02 0.  1.
         -2    1    1    2  502    0 -0.23342524542E+02  0.89409693823E+01  0.19935953041E+03  0.20092047371E+03  0.25500000000E-02 0.  1.
<mgrwt>
<rscale>  0 0.52159997E+02</rscale>
<asrwt>0</asrwt>
<pdfrwt beam="2">  1        3 0.18684412E-03 0.52159997E+02</pdfrwt>
<pdfrwt beam="1">  1       -3 0.86160650E-01 0.52159997E+02</pdfrwt>
<totfact> 0.69603084E+04</totfact>
</mgrwt>
</event>
<event>
 4    1  0.1537855E-002  0.5446360E+02  0.7818608E-02  0.1422653E+00
          3   -1    0    0    0  501  0.00000000000E+00  0.00000000000E+00  0.11724509820E+02  0.11724944841E+02  0.10100000000E+00 0. -1.
         -3   -1    0    0  501    0 -0.00000000000E+00 -0.00000000000E+00 -0.63247993445E+02  0.63248074088E+02  0.10100000000E+00 0. -1.
          2    1    1    2    0  502  0.10138763629E+02  0.23773403866E+02 -0.37571548600E+02  0.45602527671E+02  0.25500000000E-02 0. -1.
         -2    1    1    2  502    0 -0.10138763629E+02 -0.23773403866E+02 -0.13951935025E+02  0.29370491258E+02  0.25500000000E-02 0. -1.
<mgrwt>
<rscale>  0 0.54463604E+02</rscale>
<asrwt>0</asrwt>
<pdfrwt beam="1">  1        3 0.18038104E-02 0.54463604E+02</pdfrwt>
<pdfrwt beam="2">  1       -3 0.97305000E-02 0.54463604E+02</pdfrwt>
<totfact> 0.14274501E+05</totfact>
</mgrwt>
</event>
<event>
 4    1  0.1537855E-002  0.4514296E+02  0.7818608E-02  0.1473451E+00
          3   -1    0    0    0  501  0.00000000000E+00  0.00000000000E+00  0.16655415053E+02  0.16655721287E+02  0.10100000000E+00 0.  1.
         -3   -1    0    0  501    0 -0.00000000000E+00 -0.00000000000E+00 -0.30588276232E+02  0.30588442979E+02  0.10100000000E+00 0.  1.
          2    1    1    2    0  502  0.17276964285E+02 -0.14524993390E+02 -0.70205560046E+01  0.23638044356E+02  0.25500000000E-02 0. -1.
         -2    1    1    2  502    0 -0.17276964285E+02  0.14524993390E+02 -0.69123051743E+01  0.23606119910E+02  0.25500000000E-02 0. -1.
<mgrwt>
<rscale>  0 0.45142956E+02</rscale>
<asrwt>0</asrwt>
<pdfrwt beam="1">  1        3 0.25624079E-02 0.45142956E+02</pdfrwt>
<pdfrwt beam="2">  1       -3 0.47059250E-02 0.45142956E+02</pdfrwt>
<totfact> 0.24608991E+05</totfact>
</mgrwt>
</event>
<event>
 4    1  0.1537855E-002  0.4305999E+02  0.7818608E-02  0.1486829E+00
         -3   -1    0    0  501    0 -0.00000000000E+00  0.00000000000E+00  0.39347413757E+01  0.39360374355E+01  0.10100000000E+00 0.  1.
          3   -1    0    0    0  501  0.00000000000E+00 -0.00000000000E+00 -0.11778642269E+03  0.11778646599E+03  0.10100000000E+00 0.  1.
          2    1    1    2    0  502 -0.69477199780E+01 -0.18827698583E+02 -0.78965474681E+02  0.81475758634E+02  0.25500000000E-02 0.  1.
         -2    1    1    2  502    0  0.69477199780E+01  0.18827698583E+02 -0.34886206633E+02  0.40246744795E+02  0.25500000000E-02 0.  1.
<mgrwt>
<rscale>  0 0.43059987E+02</rscale>
<asrwt>0</asrwt>
<pdfrwt beam="2">  1        3 0.18121088E-01 0.43059987E+02</pdfrwt>
<pdfrwt beam="1">  1       -3 0.60544794E-03 0.43059987E+02</pdfrwt>
<totfact> 0.23026169E+05</totfact>
</mgrwt>
</event>
<event>
 4    1  0.1537855E-002  0.4942898E+02  0.7818608E-02  0.1448446E+00
         -3   -1    0    0  501    0 -0.00000000000E+00  0.00000000000E+00  0.11352968498E+01  0.11397806531E+01  0.10100000000E+00 0. -1.
          3   -1    0    0    0  501  0.00000000000E+00 -0.00000000000E+00 -0.53694959571E+03  0.53694960521E+03  0.10100000000E+00 0. -1.
          2    1    1    2    0  502 -0.21043362200E+02  0.14339366365E+01 -0.12768034730E+03  0.12941078147E+03  0.25500000000E-02 0. -1.
         -2    1    1    2  502    0  0.21043362200E+02 -0.14339366365E+01 -0.40813395156E+03  0.40867860440E+03  0.25500000000E-02 0. -1.
<mgrwt>
<rscale>  0 0.49428983E+02</rscale>
<asrwt>0</asrwt>
<pdfrwt beam="2">  1        3 0.82607773E-01 0.49428983E+02</pdfrwt>
<pdfrwt beam="1">  1       -3 0.17500712E-03 0.49428983E+02</pdfrwt>
<totfact> 0.82119826E+04</totfact>
</mgrwt>
</event>
<event>
 4    1  0.1537855E-002  0.4857268E+02  0.7818608E-02  0.1453196E+00
         -3   -1    0    0  501    0 -0.00000000000E+00  0.00000000000E+00  0.12951003421E+03  0.12951007359E+03  0.10100000000E+00 0. -1.
          3   -1    0    0    0  501  0.00000000000E+00 -0.00000000000E+00 -0.45536905105E+01  0.45548104533E+01  0.10100000000E+00 0. -1.
          2    1    1    2    0  502 -0.54110839688E+01  0.23462544816E+02  0.53725827869E+02  0.58874743530E+02  0.25500000000E-02 0. -1.
         -2    1    1    2  502    0  0.54110839688E+01 -0.23462544816E+02  0.71230515830E+02  0.75190140516E+02  0.25500000000E-02 0. -1.
<mgrwt>
<rscale>  0 0.48572681E+02</rscale>
<asrwt>0</asrwt>
<pdfrwt beam="2">  1        3 0.70065690E-03 0.48572681E+02</pdfrwt>
<pdfrwt beam="1">  1       -3 0.19924711E-01 0.48572681E+02</pdfrwt>
<totfact> 0.16641215E+05</totfact>
</mgrwt>
</event>
<event>
 4    1  0.1537855E-002  0.6259669E+02  0.7818608E-02  0.1387247E+00
          3   -1    0    0    0  501  0.00000000000E+00  0.00000000000E+00  0.10065936790E+02  0.10066443486E+02  0.10100000000E+00 0.  1.
         -3   -1    0    0  501    0 -0.00000000000E+00 -0.00000000000E+00 -0.97313977694E+02  0.97314030107E+02  0.10100000000E+00 0.  1.
          2    1    1    2    0  502  0.22938878827E+02  0.13570841087E+02 -0.71771067061E+02  0.76560080742E+02  0.25500000000E-02 0.  1.
         -2    1    1    2  502    0 -0.22938878827E+02 -0.13570841087E+02 -0.15476973844E+02  0.30820392851E+02  0.25500000000E-02 0.  1.
<mgrwt>
<rscale>  0 0.62596689E+02</rscale>
<asrwt>0</asrwt>
<pdfrwt beam="1">  1        3 0.15486487E-02 0.62596689E+02</pdfrwt>
<pdfrwt beam="2">  1       -3 0.14971424E-01 0.62596689E+02</pdfrwt>
<totfact> 0.92615998E+04</totfact>
</mgrwt>
</event>
<event>
 4    1  0.1537855E-002  0.5696330E+02  0.7818608E-02  0.1411036E+00
         -3   -1    0    0  501    0 -0.00000000000E+00  0.00000000000E+00  0.90229395965E+02  0.90229452493E+02  0.10100000000E+00 0.  1.
          3   -1    0    0    0  501  0.00000000000E+00 -0.00000000000E+00 -0.89901248884E+01  0.89906922152E+01  0.10100000000E+00 0.  1.
          2    1    1    2    0  502  0.18419114393E+02  0.11983656507E+02  0.72181434260E+02  0.75452178607E+02  0.25500000000E-02 0. -1.
         -2    1    1    2  502    0 -0.18419114393E+02 -0.11983656507E+02  0.90578368169E+01  0.23767966101E+02  0.25500000000E-02 0. -1.
<mgrwt>
<rscale>  0 0.56963304E+02</rscale>
<asrwt>0</asrwt>
<pdfrwt beam="2">  1        3 0.13831442E-02 0.56963304E+02</pdfrwt>
<pdfrwt beam="1">  1       -3 0.13881493E-01 0.56963304E+02</pdfrwt>
<totfact> 0.12020712E+05</totfact>
</mgrwt>
</event>
<event>
 4    1  0.1537855E-002  0.5291013E+02  0.7818608E-02  0.1430249E+00
         -3   -1    0    0  501    0 -0.00000000000E+00  0.00000000000E+00  0.40247986610E+02  0.40248113337E+02  0.10100000000E+00 0.  1.
          3   -1    0    0    0  501  0.00000000000E+00 -0.00000000000E+00 -0.17388656879E+02  0.17388950200E+02  0.10100000000E+00 0.  1.
          2    1    1    2    0  502  0.14892211781E+02  0.21810989829E+02  0.13107840359E+02  0.29484109863E+02  0.25500000000E-02 0. -1.
         -2    1    1    2  502    0 -0.14892211781E+02 -0.21810989829E+02  0.97514893724E+01  0.28152953674E+02  0.25500000000E-02 0. -1.
<mgrwt>
<rscale>  0 0.52910133E+02</rscale>
<asrwt>0</asrwt>
<pdfrwt beam="2">  1        3 0.26752103E-02 0.52910133E+02</pdfrwt>
<pdfrwt beam="1">  1       -3 0.61920302E-02 0.52910133E+02</pdfrwt>
<totfact> 0.16053028E+05</totfact>
</mgrwt>
</event>
<event>
 4    1  0.1537855E-002  0.5473281E+02  0.7818608E-02  0.1421367E+00
          3   -1    0    0    0  501  0.00000000000E+00  0.00000000000E+00  0.36531483570E+03  0.36531484967E+03  0.10100000000E+00 0. -1.
         -3   -1    0    0  501    0 -0.00000000000E+00 -0.00000000000E+00 -0.20488098670E+01  0.20512978504E+01  0.10100000000E+00 0. -1.
          2    1    1    2    0  502  0.19383989897E+02  0.17938504362E+02  0.22974970005E+03  0.23126273734E+03  0.25500000000E-02 0. -1.
         -2    1    1    2  502    0 -0.19383989897E+02 -0.17938504362E+02  0.13351632579E+03  0.13610341017E+03  0.25500000000E-02 0. -1.
<mgrwt>
<rscale>  0 0.54732813E+02</rscale>
<asrwt>0</asrwt>
<pdfrwt beam="1">  1        3 0.56202433E-01 0.54732813E+02</pdfrwt>
<pdfrwt beam="2">  1       -3 0.31539421E-03 0.54732813E+02</pdfrwt>
<totfact> 0.81334692E+04</totfact>
</mgrwt>
</event>
<event>
 4    1  0.1537855E-002  0.4617695E+02  0.7818608E-02  0.1467125E+00
          3   -1    0    0    0  501  0.00000000000E+00  0.00000000000E+00  0.63242583265E+00  0.64044003138E+00  0.10100000000E+00 0.  1.
         -3   -1    0    0  501    0 -0.00000000000E+00 -0.00000000000E+00 -0.83759432784E+03  0.83759433393E+03  0.10100000000E+00 0.  1.
          2    1    1    2    0  502 -0.13180515196E+02 -0.18906417589E+02 -0.39346513511E+03  0.39413955797E+03  0.25500000000E-02 0. -1.
         -2    1    1    2  502    0  0.13180515196E+02  0.18906417589E+02 -0.44349676690E+03  0.44409521599E+03  0.25500000000E-02 0. -1.
<mgrwt>
<rscale>  0 0.46176952E+02</rscale>
<asrwt>0</asrwt>
<pdfrwt beam="1">  1        3 0.97913898E-04 0.46176952E+02</pdfrwt>
<pdfrwt beam="2">  1       -3 0.12886040E+00 0.46176952E+02</pdfrwt>
<totfact> 0.67396963E+04</totfact>
</mgrwt>
</event>
<event>
 4    1  0.1537855E-002  0.4507594E+02  0.7818608E-02  0.1473868E+00
         -3   -1    0    0  501    0 -0.00000000000E+00  0.00000000000E+00  0.24485951124E+01  0.24506772584E+01  0.10100000000E+00 0. -1.
          3   -1    0    0    0  501  0.00000000000E+00 -0.00000000000E+00 -0.20735938148E+03  0.20735940607E+03  0.10100000000E+00 0. -1.
          2    1    1    2    0  502  0.19107004759E+02 -0.74583962969E+01 -0.58976713528E+02  0.62441637160E+02  0.25500000000E-02 0.  1.
         -2    1    1    2  502    0 -0.19107004759E+02  0.74583962969E+01 -0.14593407284E+03  0.14736844617E+03  0.25500000000E-02 0.  1.
<mgrwt>
<rscale>  0 0.45075944E+02</rscale>
<asrwt>0</asrwt>
<pdfrwt beam="2">  1        3 0.31901591E-01 0.45075944E+02</pdfrwt>
<pdfrwt beam="1">  1       -3 0.37686916E-03 0.45075944E+02</pdfrwt>
<totfact> 0.17200826E+05</totfact>
</mgrwt>
</event>
<event>
 4    1  0.1537855E-002  0.4539773E+02  0.7818608E-02  0.1471874E+00
         -3   -1    0    0  501    0 -0.00000000000E+00  0.00000000000E+00  0.12027409087E+02  0.12027833153E+02  0.10100000000E+00 0.  1.
          3   -1    0    0    0  501  0.00000000000E+00 -0.00000000000E+00 -0.42837451736E+02  0.42837570802E+02  0.10100000000E+00 0.  1.
          2    1    1    2    0  502  0.21028099552E+02  0.23074529134E+01 -0.54586411793E+01  0.21847244214E+02  0.25500000000E-02 0.  1.
         -2    1    1    2  502    0 -0.21028099552E+02 -0.23074529134E+01 -0.25351401469E+02  0.33018159741E+02  0.25500000000E-02 0.  1.
<mgrwt>
<rscale>  0 0.45397729E+02</rscale>
<asrwt>0</asrwt>
<pdfrwt beam="2">  1        3 0.65904189E-02 0.45397729E+02</pdfrwt>
<pdfrwt beam="1">  1       -3 0.18504124E-02 0.45397729E+02</pdfrwt>
<totfact> 0.23767146E+05</totfact>
</mgrwt>
</event>
<event>
 4    1  0.1537855E-002  0.4881942E+02  0.7818608E-02  0.1451815E+00
          3   -1    0    0    0  501  0.00000000000E+00  0.00000000000E+00  0.77677084887E+02  0.77677150550E+02  0.10100000000E+00 0. -1.
         -3   -1    0    0  501    0 -0.00000000000E+00 -0.00000000000E+00 -0.76702505770E+01  0.76709155200E+01  0.10100000000E+00 0. -1.
          2    1    1    2    0  502 -0.22470896462E+02  0.34349930232E+01  0.19455524994E+02  0.29920859349E+02  0.25500000000E-02 0. -1.
         -2    1    1    2  502    0  0.22470896462E+02 -0.34349930232E+01  0.50551309316E+02  0.55427206721E+02  0.25500000000E-02 0. -1.
<mgrwt>
<rscale>  0 0.48819418E+02</rscale>
<asrwt>0</asrwt>
<pdfrwt beam="1">  1        3 0.11950377E-01 0.48819418E+02</pdfrwt>
<pdfrwt beam="2">  1       -3 0.11800948E-02 0.48819418E+02</pdfrwt>
<totfact> 0.18348407E+05</totfact>
</mgrwt>
</event>
<event>
 4    1  0.1537855E-002  0.5860966E+02  0.7818608E-02  0.1403761E+00
          3   -1    0    0    0  501  0.00000000000E+00  0.00000000000E+00  0.14530271235E+04  0.14530271270E+04  0.10100000000E+00 0.  1.
         -3   -1    0    0  501    0 -0.00000000000E+00 -0.00000000000E+00 -0.58670490472E+00  0.59533490173E+00  0.10100000000E+00 0.  1.
          2    1    1    2    0  502  0.20027193477E+02 -0.21392914238E+02  0.73035450610E+03  0.73094216587E+03  0.25500000000E-02 0.  1.
         -2    1    1    2  502    0 -0.20027193477E+02  0.21392914238E+02  0.72208591247E+03  0.72268029601E+03  0.25500000000E-02 0.  1.
<mgrwt>
<rscale>  0 0.58609660E+02</rscale>
<asrwt>0</asrwt>
<pdfrwt beam="1">  1        3 0.22354067E+00 0.58609660E+02</pdfrwt>
<pdfrwt beam="2">  1       -3 0.90927477E-04 0.58609660E+02</pdfrwt>
<totfact> 0.20188219E+04</totfact>
</mgrwt>
</event>
<event>
 4    1  0.1537855E-002  0.4317823E+02  0.7818608E-02  0.1486046E+00
          3   -1    0    0    0  501  0.00000000000E+00  0.00000000000E+00  0.11262900529E+03  0.11262905057E+03  0.10100000000E+00 0. -1.
         -3   -1    0    0  501    0 -0.00000000000E+00 -0.00000000000E+00 -0.41376141772E+01  0.41388467088E+01  0.10100000000E+00 0. -1.
          2    1    1    2    0  502  0.12637540088E+02 -0.17421071211E+02  0.49649281255E+02  0.54113328093E+02  0.25500000000E-02 0. -1.
         -2    1    1    2  502    0 -0.12637540088E+02  0.17421071211E+02  0.58842109856E+02  0.62654569191E+02  0.25500000000E-02 0. -1.
<mgrwt>
<rscale>  0 0.43178234E+02</rscale>
<asrwt>0</asrwt>
<pdfrwt beam="1">  1        3 0.17327636E-01 0.43178234E+02</pdfrwt>
<pdfrwt beam="2">  1       -3 0.63665438E-03 0.43178234E+02</pdfrwt>
<totfact> 0.23126198E+05</totfact>
</mgrwt>
</event>
<event>
 4    1  0.1537855E-002  0.5362428E+02  0.7818608E-02  0.1426719E+00
          3   -1    0    0    0  501  0.00000000000E+00  0.00000000000E+00  0.47804250488E+03  0.47804251555E+03  0.10100000000E+00 0. -1.
         -3   -1    0    0  501    0 -0.00000000000E+00 -0.00000000000E+00 -0.15021152202E+01  0.15055069362E+01  0.10100000000E+00 0. -1.
          2    1    1    2    0  502  0.67479110260E+01  0.25940635329E+02  0.23233924746E+03  0.23388026164E+03  0.25500000000E-02 0. -1.
         -2    1    1    2  502    0 -0.67479110260E+01 -0.25940635329E+02  0.24420114220E+03  0.24566776085E+03  0.25500000000E-02 0. -1.
<mgrwt>
<rscale>  0 0.53624275E+02</rscale>
<asrwt>0</asrwt>
<pdfrwt beam="1">  1        3 0.73545341E-01 0.53624275E+02</pdfrwt>
<pdfrwt beam="2">  1       -3 0.23135612E-03 0.53624275E+02</pdfrwt>
<totfact> 0.72636252E+04</totfact>
</mgrwt>
</event>
<event>
 4    1  0.1537855E-002  0.4458717E+02  0.7818608E-02  0.1476935E+00
          3   -1    0    0    0  501  0.00000000000E+00  0.00000000000E+00  0.23433951941E+03  0.23433954118E+03  0.10100000000E+00 0. -1.
         -3   -1    0    0  501    0 -0.00000000000E+00 -0.00000000000E+00 -0.21196471612E+01  0.21220520936E+01  0.10100000000E+00 0. -1.
          2    1    1    2    0  502 -0.76241042352E+01 -0.20912725774E+02  0.10953947816E+03  0.11177820157E+03  0.25500000000E-02 0. -1.
         -2    1    1    2  502    0  0.76241042352E+01  0.20912725774E+02  0.12268039409E+03  0.12468339169E+03  0.25500000000E-02 0. -1.
<mgrwt>
<rscale>  0 0.44587173E+02</rscale>
<asrwt>0</asrwt>
<pdfrwt beam="1">  1        3 0.36052394E-01 0.44587173E+02</pdfrwt>
<pdfrwt beam="2">  1       -3 0.32628647E-03 0.44587173E+02</pdfrwt>
<totfact> 0.16820035E+05</totfact>
</mgrwt>
</event>
<event>
 4    1  0.1537855E-002  0.6650246E+02  0.7818608E-02  0.1372407E+00
         -3   -1    0    0  501    0 -0.00000000000E+00  0.00000000000E+00  0.82873493235E+02  0.82873554781E+02  0.10100000000E+00 0. -1.
          3   -1    0    0    0  501  0.00000000000E+00 -0.00000000000E+00 -0.13341091044E+02  0.13341473353E+02  0.10100000000E+00 0. -1.
          2    1    1    2    0  502  0.28239633672E+02  0.15482723061E+02  0.46736362685E+02  0.56758076313E+02  0.25500000000E-02 0. -1.
         -2    1    1    2  502    0 -0.28239633672E+02 -0.15482723061E+02  0.22796039506E+02  0.39456951820E+02  0.25500000000E-02 0. -1.
<mgrwt>
<rscale>  0 0.66502456E+02</rscale>
<asrwt>0</asrwt>
<pdfrwt beam="2">  1        3 0.20525097E-02 0.66502456E+02</pdfrwt>
<pdfrwt beam="1">  1       -3 0.12749802E-01 0.66502456E+02</pdfrwt>
<totfact> 0.81112894E+04</totfact>
</mgrwt>
</event>
<event>
 4    1  0.1537855E-002  0.8918520E+02  0.7818608E-02  0.1304837E+00
          3   -1    0    0    0  501  0.00000000000E+00  0.00000000000E+00  0.10606953386E+02  0.10607434239E+02  0.10100000000E+00 0.  1.
         -3   -1    0    0  501    0 -0.00000000000E+00 -0.00000000000E+00 -0.18746661439E+03  0.18746664160E+03  0.10100000000E+00 0.  1.
          2    1    1    2    0  502  0.31864319705E+02  0.16743715839E+02 -0.14688768643E+03  0.15123385640E+03  0.25500000000E-02 0.  1.
         -2    1    1    2  502    0 -0.31864319705E+02 -0.16743715839E+02 -0.29971974571E+02  0.46840219433E+02  0.25500000000E-02 0.  1.
<mgrwt>
<rscale>  0 0.89185200E+02</rscale>
<asrwt>0</asrwt>
<pdfrwt beam="1">  1        3 0.16318782E-02 0.89185200E+02</pdfrwt>
<pdfrwt beam="2">  1       -3 0.28841054E-01 0.89185200E+02</pdfrwt>
<totfact> 0.30348533E+04</totfact>
</mgrwt>
</event>
<event>
 4    1  0.1537855E-002  0.8417839E+02  0.7818608E-02  0.1317595E+00
          3   -1    0    0    0  501  0.00000000000E+00  0.00000000000E+00  0.37021119124E+02  0.37021256897E+02  0.10100000000E+00 0.  1.
         -3   -1    0    0  501    0 -0.00000000000E+00 -0.00000000000E+00 -0.47850797040E+02  0.47850903632E+02  0.10100000000E+00 0.  1.
          2    1    1    2    0  502 -0.35171771061E+02 -0.18821654133E+02 -0.18949042947E+02  0.44163043136E+02  0.25500000000E-02 0. -1.
         -2    1    1    2  502    0  0.35171771061E+02  0.18821654133E+02  0.81193650315E+01  0.40709117393E+02  0.25500000000E-02 0. -1.
<mgrwt>
<rscale>  0 0.84178392E+02</rscale>
<asrwt>0</asrwt>
<pdfrwt beam="1">  1        3 0.56955756E-02 0.84178392E+02</pdfrwt>
<pdfrwt beam="2">  1       -3 0.73616798E-02 0.84178392E+02</pdfrwt>
<totfact> 0.44489692E+04</totfact>
</mgrwt>
</event>
<event>
 4    1  0.1537855E-002  0.4233137E+02  0.7818608E-02  0.1491724E+00
         -3   -1    0    0  501    0 -0.00000000000E+00  0.00000000000E+00  0.26757568484E+03  0.26757570390E+03  0.10100000000E+00 0.  1.
          3   -1    0    0    0  501  0.00000000000E+00 -0.00000000000E+00 -0.16726991149E+01  0.16757456039E+01  0.10100000000E+00 0.  1.
          2    1    1    2    0  502 -0.16913582010E+02  0.12540720787E+02  0.11923953997E+03  0.12108429639E+03  0.25500000000E-02 0.  1.
         -2    1    1    2  502    0  0.16913582010E+02 -0.12540720787E+02  0.14666344576E+03  0.14816715312E+03  0.25500000000E-02 0.  1.
<mgrwt>
<rscale>  0 0.42331374E+02</rscale>
<asrwt>0</asrwt>
<pdfrwt beam="2">  1        3 0.25757427E-03 0.42331374E+02</pdfrwt>
<pdfrwt beam="1">  1       -3 0.41165705E-01 0.42331374E+02</pdfrwt>
<totfact> 0.18012318E+05</totfact>
</mgrwt>
</event>
<event>
 4    1  0.1537855E-002  0.5257016E+02  0.7818608E-02  0.1431952E+00
          3   -1    0    0    0  501  0.00000000000E+00  0.00000000000E+00  0.12573291268E+03  0.12573295325E+03  0.10100000000E+00 0. -1.
         -3   -1    0    0  501    0 -0.00000000000E+00 -0.00000000000E+00 -0.54945188559E+01  0.54954470663E+01  0.10100000000E+00 0. -1.
          2    1    1    2    0  502 -0.10604467757E+02  0.23456706973E+02  0.73383105238E+02  0.77767293764E+02  0.25500000000E-02 0. -1.
         -2    1    1    2  502    0  0.10604467757E+02 -0.23456706973E+02  0.46855288586E+02  0.53461106549E+02  0.25500000000E-02 0. -1.
<mgrwt>
<rscale>  0 0.52570160E+02</rscale>
<asrwt>0</asrwt>
<pdfrwt beam="1">  1        3 0.19343600E-01 0.52570160E+02</pdfrwt>
<pdfrwt beam="2">  1       -3 0.84538508E-03 0.52570160E+02</pdfrwt>
<totfact> 0.13732130E+05</totfact>
</mgrwt>
</event>
<event>
 4    1  0.1537855E-002  0.4266973E+02  0.7818608E-02  0.1489436E+00
         -3   -1    0    0  501    0 -0.00000000000E+00  0.00000000000E+00  0.91517250038E+00  0.92072889900E+00  0.10100000000E+00 0.  1.
          3   -1    0    0    0  501  0.00000000000E+00 -0.00000000000E+00 -0.49585590199E+03  0.49585591228E+03  0.10100000000E+00 0.  1.
          2    1    1    2    0  502  0.21160118178E+02  0.19103400701E+01 -0.22484588468E+03  0.22584745265E+03  0.25500000000E-02 0.  1.
         -2    1    1    2  502    0 -0.21160118178E+02 -0.19103400701E+01 -0.27009484481E+03  0.27092918853E+03  0.25500000000E-02 0.  1.
<mgrwt>
<rscale>  0 0.42669726E+02</rscale>
<asrwt>0</asrwt>
<pdfrwt beam="2">  1        3 0.76285738E-01 0.42669726E+02</pdfrwt>
<pdfrwt beam="1">  1       -3 0.14122437E-03 0.42669726E+02</pdfrwt>
<totfact> 0.12450960E+05</totfact>
</mgrwt>
</event>
<event>
 4    1  0.1537855E-002  0.4690131E+02  0.7818608E-02  0.1462810E+00
          3   -1    0    0    0  501  0.00000000000E+00  0.00000000000E+00  0.36613472418E+03  0.36613473811E+03  0.10100000000E+00 0.  1.
         -3   -1    0    0  501    0 -0.00000000000E+00 -0.00000000000E+00 -0.15002849743E+01  0.15036808186E+01  0.10100000000E+00 0.  1.
          2    1    1    2    0  502 -0.17717760836E+02 -0.14841549283E+02  0.15121626970E+03  0.15297238595E+03  0.25500000000E-02 0.  1.
         -2    1    1    2  502    0  0.17717760836E+02  0.14841549283E+02  0.21341816950E+03  0.21466603298E+03  0.25500000000E-02 0.  1.
<mgrwt>
<rscale>  0 0.46901309E+02</rscale>
<asrwt>0</asrwt>
<pdfrwt beam="1">  1        3 0.56328686E-01 0.46901309E+02</pdfrwt>
<pdfrwt beam="2">  1       -3 0.23107534E-03 0.46901309E+02</pdfrwt>
<totfact> 0.11934566E+05</totfact>
</mgrwt>
</event>
<event>
 4    1  0.1537855E-002  0.7926594E+02  0.7818608E-02  0.1331148E+00
         -3   -1    0    0  501    0 -0.00000000000E+00  0.00000000000E+00  0.81786840099E+03  0.81786840723E+03  0.10100000000E+00 0. -1.
          3   -1    0    0    0  501  0.00000000000E+00 -0.00000000000E+00 -0.19192342452E+01  0.19218899781E+01  0.10100000000E+00 0. -1.
          2    1    1    2    0  502  0.22918786126E+02  0.32311029915E+02  0.39531320446E+03  0.39729309463E+03  0.25500000000E-02 0. -1.
         -2    1    1    2  502    0 -0.22918786126E+02 -0.32311029915E+02  0.42063596229E+03  0.42249720258E+03  0.25500000000E-02 0. -1.
<mgrwt>
<rscale>  0 0.79265936E+02</rscale>
<asrwt>0</asrwt>
<pdfrwt beam="2">  1        3 0.29547164E-03 0.79265936E+02</pdfrwt>
<pdfrwt beam="1">  1       -3 0.12582608E+00 0.79265936E+02</pdfrwt>
<totfact> 0.17505682E+04</totfact>
</mgrwt>
</event>
<event>
 4    1  0.1537855E-002  0.4383107E+02  0.7818608E-02  0.1481774E+00
          3   -1    0    0    0  501  0.00000000000E+00  0.00000000000E+00  0.22711950218E+01  0.22734396466E+01  0.10100000000E+00 0.  1.
         -3   -1    0    0  501    0 -0.00000000000E+00 -0.00000000000E+00 -0.21136378966E+03  0.21136381379E+03  0.10100000000E+00 0.  1.
          2    1    1    2    0  502 -0.18826520163E+02 -0.10522360916E+02 -0.85585600181E+02  0.88261276364E+02  0.25500000000E-02 0. -1.
         -2    1    1    2  502    0  0.18826520163E+02  0.10522360916E+02 -0.12350699446E+03  0.12537597707E+03  0.25500000000E-02 0. -1.
<mgrwt>
<rscale>  0 0.43831073E+02</rscale>
<asrwt>0</asrwt>
<pdfrwt beam="1">  1        3 0.34958930E-03 0.43831073E+02</pdfrwt>
<pdfrwt beam="2">  1       -3 0.32517665E-01 0.43831073E+02</pdfrwt>
<totfact> 0.18291989E+05</totfact>
</mgrwt>
</event>
<event>
 4    1  0.1537855E-002  0.4545890E+02  0.7818608E-02  0.1471497E+00
          3   -1    0    0    0  501  0.00000000000E+00  0.00000000000E+00  0.10786220944E+02  0.10786693806E+02  0.10100000000E+00 0.  1.
         -3   -1    0    0  501    0 -0.00000000000E+00 -0.00000000000E+00 -0.47895442100E+02  0.47895548592E+02  0.10100000000E+00 0.  1.
          2    1    1    2    0  502  0.37670437652E+01  0.22359288572E+02 -0.20595438854E+02  0.30631691305E+02  0.25500000000E-02 0.  1.
         -2    1    1    2  502    0 -0.37670437652E+01 -0.22359288572E+02 -0.16513782302E+02  0.28050551092E+02  0.25500000000E-02 0.  1.
<mgrwt>
<rscale>  0 0.45458897E+02</rscale>
<asrwt>0</asrwt>
<pdfrwt beam="1">  1        3 0.16594632E-02 0.45458897E+02</pdfrwt>
<pdfrwt beam="2">  1       -3 0.73685740E-02 0.45458897E+02</pdfrwt>
<totfact> 0.23449614E+05</totfact>
</mgrwt>
</event>
<event>
 4    1  0.1537855E-002  0.5535692E+02  0.7818608E-02  0.1418419E+00
          3   -1    0    0    0  501  0.00000000000E+00  0.00000000000E+00  0.12486737715E+03  0.12486741800E+03  0.10100000000E+00 0.  1.
         -3   -1    0    0  501    0 -0.00000000000E+00 -0.00000000000E+00 -0.61348280543E+01  0.61356593986E+01  0.10100000000E+00 0.  1.
          2    1    1    2    0  502 -0.25938879762E+02 -0.56475485253E+01  0.77906348761E+02  0.82305039161E+02  0.25500000000E-02 0. -1.
         -2    1    1    2  502    0  0.25938879762E+02  0.56475485253E+01  0.40826200337E+02  0.48698038236E+02  0.25500000000E-02 0. -1.
<mgrwt>
<rscale>  0 0.55356915E+02</rscale>
<asrwt>0</asrwt>
<pdfrwt beam="1">  1        3 0.19210432E-01 0.55356915E+02</pdfrwt>
<pdfrwt beam="2">  1       -3 0.94388682E-03 0.55356915E+02</pdfrwt>
<totfact> 0.12053920E+05</totfact>
</mgrwt>
</event>
<event>
 4    1  0.1537855E-002  0.9345890E+02  0.7818608E-02  0.1294685E+00
          3   -1    0    0    0  501  0.00000000000E+00  0.00000000000E+00  0.15721190547E+02  0.15721514979E+02  0.10100000000E+00 0.  1.
         -3   -1    0    0  501    0 -0.00000000000E+00 -0.00000000000E+00 -0.13889620333E+03  0.13889624006E+03  0.10100000000E+00 0.  1.
          2    1    1    2    0  502 -0.44480802028E+02  0.53829837285E+01 -0.39631814286E+02  0.59818048890E+02  0.25500000000E-02 0.  1.
         -2    1    1    2  502    0  0.44480802028E+02 -0.53829837285E+01 -0.83543198501E+02  0.94799706145E+02  0.25500000000E-02 0.  1.
<mgrwt>
<rscale>  0 0.93458902E+02</rscale>
<asrwt>0</asrwt>
<pdfrwt beam="1">  1        3 0.24186726E-02 0.93458902E+02</pdfrwt>
<pdfrwt beam="2">  1       -3 0.21368674E-01 0.93458902E+02</pdfrwt>
<totfact> 0.29013622E+04</totfact>
</mgrwt>
</event>
<event>
 4    1  0.1537855E-002  0.6594181E+02  0.7818608E-02  0.1374463E+00
          3   -1    0    0    0  501  0.00000000000E+00  0.00000000000E+00  0.25463608792E+02  0.25463809097E+02  0.10100000000E+00 0.  1.
         -3   -1    0    0  501    0 -0.00000000000E+00 -0.00000000000E+00 -0.42691114062E+02  0.42691233536E+02  0.10100000000E+00 0.  1.
          2    1    1    2    0  502 -0.32395055274E+02  0.13836643237E+01 -0.14791538532E+02  0.35639076192E+02  0.25500000000E-02 0. -1.
         -2    1    1    2  502    0  0.32395055274E+02 -0.13836643237E+01 -0.24359667371E+01  0.32515966441E+02  0.25500000000E-02 0. -1.
<mgrwt>
<rscale>  0 0.65941814E+02</rscale>
<asrwt>0</asrwt>
<pdfrwt beam="1">  1        3 0.39175029E-02 0.65941814E+02</pdfrwt>
<pdfrwt beam="2">  1       -3 0.65678883E-02 0.65941814E+02</pdfrwt>
<totfact> 0.88547369E+04</totfact>
</mgrwt>
</event>
<event>
 4    1  0.1537855E-002  0.5185082E+02  0.7818608E-02  0.1435607E+00
          3   -1    0    0    0  501  0.00000000000E+00  0.00000000000E+00  0.36275369166E+02  0.36275509770E+02  0.10100000000E+00 0.  1.
         -3   -1    0    0  501    0 -0.00000000000E+00 -0.00000000000E+00 -0.18528150242E+02  0.18528425523E+02  0.10100000000E+00 0.  1.
          2    1    1    2    0  502 -0.64687558083E+01 -0.22146229216E+02 -0.36246929400E+01  0.23354628570E+02  0.25500000000E-02 0.  1.
         -2    1    1    2  502    0  0.64687558083E+01  0.22146229216E+02  0.21371911864E+02  0.31449306724E+02  0.25500000000E-02 0.  1.
<mgrwt>
<rscale>  0 0.51850820E+02</rscale>
<asrwt>0</asrwt>
<pdfrwt beam="1">  1        3 0.55808580E-02 0.51850820E+02</pdfrwt>
<pdfrwt beam="2">  1       -3 0.28505167E-02 0.51850820E+02</pdfrwt>
<totfact> 0.17025678E+05</totfact>
</mgrwt>
</event>
<event>
 4    1  0.1537855E-002  0.4890545E+02  0.7818608E-02  0.1451336E+00
         -3   -1    0    0  501    0 -0.00000000000E+00  0.00000000000E+00  0.33575729053E+03  0.33575730572E+03  0.10100000000E+00 0. -1.
          3   -1    0    0    0  501  0.00000000000E+00 -0.00000000000E+00 -0.17794098068E+01  0.17822739017E+01  0.10100000000E+00 0. -1.
          2    1    1    2    0  502 -0.64746778644E+01 -0.23564669797E+02  0.17284793086E+03  0.17456695657E+03  0.25500000000E-02 0. -1.
         -2    1    1    2  502    0  0.64746778644E+01  0.23564669797E+02  0.16112994986E+03  0.16297262305E+03  0.25500000000E-02 0. -1.
<mgrwt>
<rscale>  0 0.48905450E+02</rscale>
<asrwt>0</asrwt>
<pdfrwt beam="2">  1        3 0.27397690E-03 0.48905450E+02</pdfrwt>
<pdfrwt beam="1">  1       -3 0.51655178E-01 0.48905450E+02</pdfrwt>
<totfact> 0.11280482E+05</totfact>
</mgrwt>
</event>
<event>
 4    1  0.1537855E-002  0.4428121E+02  0.7818608E-02  0.1478879E+00
          3   -1    0    0    0  501  0.00000000000E+00  0.00000000000E+00  0.20544839066E+01  0.20569650271E+01  0.10100000000E+00 0. -1.
         -3   -1    0    0  501    0 -0.00000000000E+00 -0.00000000000E+00 -0.23845666156E+03  0.23845668295E+03  0.10100000000E+00 0. -1.
          2    1    1    2    0  502 -0.39395356188E+01  0.19915320232E+02 -0.16619126267E+03  0.16742662786E+03  0.25500000000E-02 0.  1.
         -2    1    1    2  502    0  0.39395356188E+01 -0.19915320232E+02 -0.70210914979E+02  0.73087020117E+02  0.25500000000E-02 0.  1.
<mgrwt>
<rscale>  0 0.44281207E+02</rscale>
<asrwt>0</asrwt>
<pdfrwt beam="1">  1        3 0.31626714E-03 0.44281207E+02</pdfrwt>
<pdfrwt beam="2">  1       -3 0.36685811E-01 0.44281207E+02</pdfrwt>
<totfact> 0.16980176E+05</totfact>
</mgrwt>
</event>
<event>
 4    1  0.1537855E-002  0.6293864E+02  0.7818608E-02  0.1385898E+00
          3   -1    0    0    0  501  0.00000000000E+00  0.00000000000E+00  0.85678143954E+02  0.85678203485E+02  0.10100000000E+00 0.  1.
         -3   -1    0    0  501    0 -0.00000000000E+00 -0.00000000000E+00 -0.11558301373E+02  0.11558742649E+02  0.10100000000E+00 0.  1.
          2    1    1    2    0  502  0.24657995944E+02  0.12867577110E+02  0.14315740456E+02  0.31281491908E+02  0.25500000000E-02 0. -1.
         -2    1    1    2  502    0 -0.24657995944E+02 -0.12867577110E+02  0.59804102125E+02  0.65955454226E+02  0.25500000000E-02 0. -1.
<mgrwt>
<rscale>  0 0.62938642E+02</rscale>
<asrwt>0</asrwt>
<pdfrwt beam="1">  1        3 0.13181291E-01 0.62938642E+02</pdfrwt>
<pdfrwt beam="2">  1       -3 0.17782388E-02 0.62938642E+02</pdfrwt>
<totfact> 0.93407498E+04</totfact>
</mgrwt>
</event>
<event>
 4    1  0.1537855E-002  0.8055073E+02  0.7818608E-02  0.1327496E+00
         -3   -1    0    0  501    0 -0.00000000000E+00  0.00000000000E+00  0.21162678483E+02  0.21162919496E+02  0.10100000000E+00 0.  1.
          3   -1    0    0    0  501  0.00000000000E+00 -0.00000000000E+00 -0.76648622737E+02  0.76648689281E+02  0.10100000000E+00 0.  1.
          2    1    1    2    0  502 -0.20975229326E+02 -0.31687284872E+02 -0.43946337015E+02  0.58097545656E+02  0.25500000000E-02 0.  1.
         -2    1    1    2  502    0  0.20975229326E+02  0.31687284872E+02 -0.11539607239E+02  0.39714063121E+02  0.25500000000E-02 0.  1.
<mgrwt>
<rscale>  0 0.80550734E+02</rscale>
<asrwt>0</asrwt>
<pdfrwt beam="2">  1        3 0.11792119E-01 0.80550734E+02</pdfrwt>
<pdfrwt beam="1">  1       -3 0.32558204E-02 0.80550734E+02</pdfrwt>
<totfact> 0.48670018E+04</totfact>
</mgrwt>
</event>
<event>
 4    1  0.1537855E-002  0.4355302E+02  0.7818608E-02  0.1483582E+00
          3   -1    0    0    0  501  0.00000000000E+00  0.00000000000E+00  0.88017552654E+01  0.88023347330E+01  0.10100000000E+00 0.  1.
         -3   -1    0    0  501    0 -0.00000000000E+00 -0.00000000000E+00 -0.53875067841E+02  0.53875162514E+02  0.10100000000E+00 0.  1.
          2    1    1    2    0  502 -0.25826744061E+01  0.21585025617E+02 -0.24375532470E+02  0.32661140943E+02  0.25500000000E-02 0.  1.
         -2    1    1    2  502    0  0.25826744061E+01 -0.21585025617E+02 -0.20697780106E+02  0.30016356304E+02  0.25500000000E-02 0.  1.
<mgrwt>
<rscale>  0 0.43553015E+02</rscale>
<asrwt>0</asrwt>
<pdfrwt beam="1">  1        3 0.13541681E-02 0.43553015E+02</pdfrwt>
<pdfrwt beam="2">  1       -3 0.82885237E-02 0.43553015E+02</pdfrwt>
<totfact> 0.25806537E+05</totfact>
</mgrwt>
</event>
<event>
 4    1  0.1537855E-002  0.1228594E+03  0.7818608E-02  0.1238453E+00
          3   -1    0    0    0  501  0.00000000000E+00  0.00000000000E+00  0.18593863740E+03  0.18593866483E+03  0.10100000000E+00 0. -1.
         -3   -1    0    0  501    0 -0.00000000000E+00 -0.00000000000E+00 -0.20294747013E+02  0.20294998333E+02  0.10100000000E+00 0. -1.
          2    1    1    2    0  502 -0.26682960842E+02  0.28787801199E+02  0.35015669570E+01  0.39407852959E+02  0.25500000000E-02 0.  1.
         -2    1    1    2  502    0  0.26682960842E+02 -0.28787801199E+02  0.16214232343E+03  0.16682581021E+03  0.25500000000E-02 0.  1.
<mgrwt>
<rscale>  0 0.12285937E+03</rscale>
<asrwt>0</asrwt>
<pdfrwt beam="1">  1        3 0.28605967E-01 0.12285937E+03</pdfrwt>
<pdfrwt beam="2">  1       -3 0.31222901E-02 0.12285937E+03</pdfrwt>
<totfact> 0.12418865E+04</totfact>
</mgrwt>
</event>
<event>
 4    1  0.1537855E-002  0.4055218E+02  0.7818608E-02  0.1504187E+00
         -3   -1    0    0  501    0 -0.00000000000E+00  0.00000000000E+00  0.58045841687E+00  0.58917991626E+00  0.10100000000E+00 0. -1.
          3   -1    0    0    0  501  0.00000000000E+00 -0.00000000000E+00 -0.70297755389E+03  0.70297756115E+03  0.10100000000E+00 0. -1.
          2    1    1    2    0  502  0.87733504709E+01 -0.18158467227E+02 -0.38766683605E+03  0.38819103209E+03  0.25500000000E-02 0. -1.
         -2    1    1    2  502    0 -0.87733504709E+01  0.18158467227E+02 -0.31473025942E+03  0.31537570898E+03  0.25500000000E-02 0. -1.
<mgrwt>
<rscale>  0 0.40552181E+02</rscale>
<asrwt>0</asrwt>
<pdfrwt beam="2">  1        3 0.10815039E+00 0.40552181E+02</pdfrwt>
<pdfrwt beam="1">  1       -3 0.89973300E-04 0.40552181E+02</pdfrwt>
<totfact> 0.10803977E+05</totfact>
</mgrwt>
</event>
<event>
 4    1  0.1537855E-002  0.4734393E+02  0.7818608E-02  0.1460218E+00
          3   -1    0    0    0  501  0.00000000000E+00  0.00000000000E+00  0.12095333476E+03  0.12095337693E+03  0.10100000000E+00 0. -1.
         -3   -1    0    0  501    0 -0.00000000000E+00 -0.00000000000E+00 -0.46322835985E+01  0.46333845445E+01  0.10100000000E+00 0. -1.
          2    1    1    2    0  502 -0.22968106353E+02  0.57249272365E+01  0.57548569982E+02  0.62226574828E+02  0.25500000000E-02 0.  1.
         -2    1    1    2  502    0  0.22968106353E+02 -0.57249272365E+01  0.58772481178E+02  0.63360186645E+02  0.25500000000E-02 0.  1.
<mgrwt>
<rscale>  0 0.47343930E+02</rscale>
<asrwt>0</asrwt>
<pdfrwt beam="1">  1        3 0.18608295E-01 0.47343930E+02</pdfrwt>
<pdfrwt beam="2">  1       -3 0.71274689E-03 0.47343930E+02</pdfrwt>
<totfact> 0.18063111E+05</totfact>
</mgrwt>
</event>
<event>
 4    1  0.1537855E-002  0.4761387E+02  0.7818608E-02  0.1458654E+00
          3   -1    0    0    0  501  0.00000000000E+00  0.00000000000E+00  0.36439393902E+01  0.36453388429E+01  0.10100000000E+00 0. -1.
         -3   -1    0    0  501    0 -0.00000000000E+00 -0.00000000000E+00 -0.15550648443E+03  0.15550651723E+03  0.10100000000E+00 0. -1.
          2    1    1    2    0  502  0.13389790853E+02 -0.16589538834E+02 -0.11134827202E+03  0.11337079424E+03  0.25500000000E-02 0.  1.
         -2    1    1    2  502    0 -0.13389790853E+02  0.16589538834E+02 -0.40514273016E+02  0.45781061830E+02  0.25500000000E-02 0.  1.
<mgrwt>
<rscale>  0 0.47613871E+02</rscale>
<asrwt>0</asrwt>
<pdfrwt beam="1">  1        3 0.56071635E-03 0.47613871E+02</pdfrwt>
<pdfrwt beam="2">  1       -3 0.23924180E-01 0.47613871E+02</pdfrwt>
<totfact> 0.16592556E+05</totfact>
</mgrwt>
</event>
<event>
 4    1  0.1537855E-002  0.6361484E+02  0.7818608E-02  0.1383259E+00
         -3   -1    0    0  501    0 -0.00000000000E+00  0.00000000000E+00  0.55240062836E+01  0.55249295399E+01  0.10100000000E+00 0.  1.
          3   -1    0    0    0  501  0.00000000000E+00 -0.00000000000E+00 -0.18313198991E+03  0.18313201777E+03  0.10100000000E+00 0.  1.
          2    1    1    2    0  502  0.99360749579E+01 -0.29699178310E+02 -0.10530121966E+03  0.10985951777E+03  0.25500000000E-02 0. -1.
         -2    1    1    2  502    0 -0.99360749579E+01  0.29699178310E+02 -0.72306763974E+02  0.78797429531E+02  0.25500000000E-02 0. -1.
<mgrwt>
<rscale>  0 0.63614840E+02</rscale>
<asrwt>0</asrwt>
<pdfrwt beam="2">  1        3 0.28174221E-01 0.63614840E+02</pdfrwt>
<pdfrwt beam="1">  1       -3 0.84992042E-03 0.63614840E+02</pdfrwt>
<totfact> 0.75225329E+04</totfact>
</mgrwt>
</event>
<event>
 4    1  0.1537855E-002  0.4764738E+02  0.7818608E-02  0.1458460E+00
         -3   -1    0    0  501    0 -0.00000000000E+00  0.00000000000E+00  0.12166760098E+04  0.12166760140E+04  0.10100000000E+00 0.  1.
          3   -1    0    0    0  501  0.00000000000E+00 -0.00000000000E+00 -0.46101965653E+00  0.47195351859E+00  0.10100000000E+00 0.  1.
          2    1    1    2    0  502  0.22695608312E+02 -0.20927172720E+00  0.42313393926E+03  0.42374221526E+03  0.25500000000E-02 0. -1.
         -2    1    1    2  502    0 -0.22695608312E+02  0.20927172720E+00  0.79308105091E+03  0.79340575228E+03  0.25500000000E-02 0. -1.
<mgrwt>
<rscale>  0 0.47647377E+02</rscale>
<asrwt>0</asrwt>
<pdfrwt beam="2">  1        3 0.71767446E-04 0.47647377E+02</pdfrwt>
<pdfrwt beam="1">  1       -3 0.18718188E+00 0.47647377E+02</pdfrwt>
<totfact> 0.42289063E+04</totfact>
</mgrwt>
</event>
<event>
 4    1  0.1537855E-002  0.4677521E+02  0.7818608E-02  0.1463554E+00
         -3   -1    0    0  501    0 -0.00000000000E+00  0.00000000000E+00  0.26643164628E+03  0.26643166542E+03  0.10100000000E+00 0. -1.
          3   -1    0    0    0  501  0.00000000000E+00 -0.00000000000E+00 -0.20517234881E+01  0.20542079427E+01  0.10100000000E+00 0. -1.
          2    1    1    2    0  502  0.17433196499E+02  0.13114007282E+02  0.83795061366E+02  0.86588139159E+02  0.25500000000E-02 0. -1.
         -2    1    1    2  502    0 -0.17433196499E+02 -0.13114007282E+02  0.18058486142E+03  0.18189773420E+03  0.25500000000E-02 0. -1.
<mgrwt>
<rscale>  0 0.46775214E+02</rscale>
<asrwt>0</asrwt>
<pdfrwt beam="2">  1        3 0.31584231E-03 0.46775214E+02</pdfrwt>
<pdfrwt beam="1">  1       -3 0.40989681E-01 0.46775214E+02</pdfrwt>
<totfact> 0.14125195E+05</totfact>
</mgrwt>
</event>
<event>
 4    1  0.1537855E-002  0.5615357E+02  0.7818608E-02  0.1414721E+00
          3   -1    0    0    0  501  0.00000000000E+00  0.00000000000E+00  0.10153433712E+03  0.10153438735E+03  0.10100000000E+00 0.  1.
         -3   -1    0    0  501    0 -0.00000000000E+00 -0.00000000000E+00 -0.77635533263E+01  0.77642102786E+01  0.10100000000E+00 0.  1.
          2    1    1    2    0  502  0.68613105268E+01  0.20613531113E+02  0.81502764715E+02  0.84348656835E+02  0.25500000000E-02 0. -1.
         -2    1    1    2  502    0 -0.68613105268E+01 -0.20613531113E+02  0.12268019074E+02  0.24949940793E+02  0.25500000000E-02 0. -1.
<mgrwt>
<rscale>  0 0.56153571E+02</rscale>
<asrwt>0</asrwt>
<pdfrwt beam="1">  1        3 0.15620720E-01 0.56153571E+02</pdfrwt>
<pdfrwt beam="2">  1       -3 0.11944473E-02 0.56153571E+02</pdfrwt>
<totfact> 0.12186354E+05</totfact>
</mgrwt>
</event>
<event>
 4    1  0.1537855E-002  0.4139979E+02  0.7818608E-02  0.1498156E+00
          3   -1    0    0    0  501  0.00000000000E+00  0.00000000000E+00  0.40123126858E+01  0.40135836964E+01  0.10100000000E+00 0.  1.
         -3   -1    0    0  501    0 -0.00000000000E+00 -0.00000000000E+00 -0.10677446018E+03  0.10677450795E+03  0.10100000000E+00 0.  1.
          2    1    1    2    0  502  0.20114741197E+02  0.31788240315E+01 -0.61314187559E+02  0.64607564094E+02  0.25500000000E-02 0. -1.
         -2    1    1    2  502    0 -0.20114741197E+02 -0.31788240315E+01 -0.41447959939E+02  0.46180527555E+02  0.25500000000E-02 0. -1.
<mgrwt>
<rscale>  0 0.41399786E+02</rscale>
<asrwt>0</asrwt>
<pdfrwt beam="1">  1        3 0.61738040E-03 0.41399786E+02</pdfrwt>
<pdfrwt beam="2">  1       -3 0.16426939E-01 0.41399786E+02</pdfrwt>
<totfact> 0.25981796E+05</totfact>
</mgrwt>
</event>
<event>
 4    1  0.1537855E-002  0.5223910E+02  0.7818608E-02  0.1433625E+00
         -3   -1    0    0  501    0 -0.00000000000E+00  0.00000000000E+00  0.37746166508E+01  0.37759676720E+01  0.10100000000E+00 0. -1.
          3   -1    0    0    0  501  0.00000000000E+00 -0.00000000000E+00 -0.18070808502E+03  0.18070811325E+03  0.10100000000E+00 0. -1.
          2    1    1    2    0  502  0.12920765166E+02 -0.20074571674E+02 -0.12589037471E+03  0.12813399648E+03  0.25500000000E-02 0.  1.
         -2    1    1    2  502    0 -0.12920765166E+02  0.20074571674E+02 -0.51043093659E+02  0.56350084447E+02  0.25500000000E-02 0.  1.
<mgrwt>
<rscale>  0 0.52239103E+02</rscale>
<asrwt>0</asrwt>
<pdfrwt beam="2">  1        3 0.27801343E-01 0.52239103E+02</pdfrwt>
<pdfrwt beam="1">  1       -3 0.58081649E-03 0.52239103E+02</pdfrwt>
<totfact> 0.12519136E+05</totfact>
</mgrwt>
</event>
<event>
 4    1  0.1537855E-002  0.4623323E+02  0.7818608E-02  0.1466786E+00
         -3   -1    0    0  501    0 -0.00000000000E+00  0.00000000000E+00  0.20086441936E+03  0.20086444476E+03  0.10100000000E+00 0.  1.
          3   -1    0    0    0  501  0.00000000000E+00 -0.00000000000E+00 -0.26594071138E+01  0.26613243314E+01  0.10100000000E+00 0.  1.
          2    1    1    2    0  502  0.19404873583E+02  0.10481039777E+02  0.68610920089E+02  0.72068437443E+02  0.25500000000E-02 0. -1.
         -2    1    1    2  502    0 -0.19404873583E+02 -0.10481039777E+02  0.12959409216E+03  0.13145733164E+03  0.25500000000E-02 0. -1.
<mgrwt>
<rscale>  0 0.46233233E+02</rscale>
<asrwt>0</asrwt>
<pdfrwt beam="2">  1        3 0.40928891E-03 0.46233233E+02</pdfrwt>
<pdfrwt beam="1">  1       -3 0.30902374E-01 0.46233233E+02</pdfrwt>
<totfact> 0.16352993E+05</totfact>
</mgrwt>
</event>
<event>
 4    1  0.1537855E-002  0.6438657E+02  0.7818608E-02  0.1380294E+00
          3   -1    0    0    0  501  0.00000000000E+00  0.00000000000E+00  0.32450215445E+03  0.32450217017E+03  0.10100000000E+00 0.  1.
         -3   -1    0    0  501    0 -0.00000000000E+00 -0.00000000000E+00 -0.31930244571E+01  0.31946214460E+01  0.10100000000E+00 0.  1.
          2    1    1    2    0  502  0.27594061868E+02  0.15985531578E+02  0.13821556158E+03  0.14184678685E+03  0.25500000000E-02 0.  1.
         -2    1    1    2  502    0 -0.27594061868E+02 -0.15985531578E+02  0.18309356842E+03  0.18585000477E+03  0.25500000000E-02 0.  1.
<mgrwt>
<rscale>  0 0.64386569E+02</rscale>
<asrwt>0</asrwt>
<pdfrwt beam="1">  1        3 0.49923530E-01 0.64386569E+02</pdfrwt>
<pdfrwt beam="2">  1       -3 0.49135861E-03 0.64386569E+02</pdfrwt>
<totfact> 0.57301417E+04</totfact>
</mgrwt>
</event>
<event>
 4    1  0.1537855E-002  0.4122853E+02  0.7818608E-02  0.1499361E+00
         -3   -1    0    0  501    0 -0.00000000000E+00  0.00000000000E+00  0.64078063662E+00  0.64869162494E+00  0.10100000000E+00 0.  1.
          3   -1    0    0    0  501  0.00000000000E+00 -0.00000000000E+00 -0.65909556924E+03  0.65909557698E+03  0.10100000000E+00 0.  1.
          2    1    1    2    0  502 -0.16644336958E+02 -0.12051310863E+02 -0.35542292362E+03  0.35601646406E+03  0.25500000000E-02 0.  1.
         -2    1    1    2  502    0  0.16644336958E+02  0.12051310863E+02 -0.30303186499E+03  0.30372780454E+03  0.25500000000E-02 0.  1.
<mgrwt>
<rscale>  0 0.41228526E+02</rscale>
<asrwt>0</asrwt>
<pdfrwt beam="2">  1        3 0.10139939E+00 0.41228526E+02</pdfrwt>
<pdfrwt beam="1">  1       -3 0.99191296E-04 0.41228526E+02</pdfrwt>
<totfact> 0.10949451E+05</totfact>
</mgrwt>
</event>
<event>
 4    1  0.1537855E-002  0.4028207E+02  0.7818608E-02  0.1506146E+00
          3   -1    0    0    0  501  0.00000000000E+00  0.00000000000E+00  0.22336362839E+01  0.22359186141E+01  0.10100000000E+00 0. -1.
         -3   -1    0    0  501    0 -0.00000000000E+00 -0.00000000000E+00 -0.18151973673E+03  0.18151976483E+03  0.10100000000E+00 0. -1.
          2    1    1    2    0  502  0.19556126395E+02 -0.43833565035E+01 -0.80513394487E+02  0.82970251248E+02  0.25500000000E-02 0. -1.
         -2    1    1    2  502    0 -0.19556126395E+02  0.43833565035E+01 -0.98772705959E+02  0.10078543220E+03  0.25500000000E-02 0. -1.
<mgrwt>
<rscale>  0 0.40282073E+02</rscale>
<asrwt>0</asrwt>
<pdfrwt beam="1">  1        3 0.34381422E-03 0.40282073E+02</pdfrwt>
<pdfrwt beam="2">  1       -3 0.27926279E-01 0.40282073E+02</pdfrwt>
<totfact> 0.23789081E+05</totfact>
</mgrwt>
</event>
<event>
 4    1  0.1537855E-002  0.5794086E+02  0.7818608E-02  0.1406682E+00
         -3   -1    0    0  501    0 -0.00000000000E+00  0.00000000000E+00  0.10333122885E+02  0.10333616480E+02  0.10100000000E+00 0. -1.
          3   -1    0    0    0  501  0.00000000000E+00 -0.00000000000E+00 -0.81220384632E+02  0.81220447430E+02  0.10100000000E+00 0. -1.
          2    1    1    2    0  502  0.49658300902E+01  0.24155899151E+02 -0.59465694311E+02  0.64376515428E+02  0.25500000000E-02 0.  1.
         -2    1    1    2  502    0 -0.49658300902E+01 -0.24155899151E+02 -0.11421567436E+02  0.27177548482E+02  0.25500000000E-02 0.  1.
<mgrwt>
<rscale>  0 0.57940856E+02</rscale>
<asrwt>0</asrwt>
<pdfrwt beam="2">  1        3 0.12495486E-01 0.57940856E+02</pdfrwt>
<pdfrwt beam="1">  1       -3 0.15897541E-02 0.57940856E+02</pdfrwt>
<totfact> 0.11711889E+05</totfact>
</mgrwt>
</event>
<event>
 4    1  0.1537855E-002  0.4938938E+02  0.7818608E-02  0.1448663E+00
          3   -1    0    0    0  501  0.00000000000E+00  0.00000000000E+00  0.13680322389E+01  0.13717555200E+01  0.10100000000E+00 0. -1.
         -3   -1    0    0  501    0 -0.00000000000E+00 -0.00000000000E+00 -0.44516045111E+03  0.44516046257E+03  0.10100000000E+00 0. -1.
          2    1    1    2    0  502 -0.14256072164E+02 -0.16534167432E+02 -0.32624638409E+03  0.32697601965E+03  0.25500000000E-02 0. -1.
         -2    1    1    2  502    0  0.14256072164E+02  0.16534167432E+02 -0.11754603478E+03  0.11955619844E+03  0.25500000000E-02 0. -1.
<mgrwt>
<rscale>  0 0.49389379E+02</rscale>
<asrwt>0</asrwt>
<pdfrwt beam="1">  1        3 0.21075414E-03 0.49389379E+02</pdfrwt>
<pdfrwt beam="2">  1       -3 0.68486395E-01 0.49389379E+02</pdfrwt>
<totfact> 0.93313424E+04</totfact>
</mgrwt>
</event>
<event>
 4    1  0.1537855E-002  0.4280030E+02  0.7818608E-02  0.1488560E+00
          3   -1    0    0    0  501  0.00000000000E+00  0.00000000000E+00  0.28023662086E+02  0.28023844092E+02  0.10100000000E+00 0.  1.
         -3   -1    0    0  501    0 -0.00000000000E+00 -0.00000000000E+00 -0.16341743191E+02  0.16342055302E+02  0.10100000000E+00 0.  1.
          2    1    1    2    0  502 -0.19570079211E+01  0.21146029499E+02  0.31019572372E+01  0.21461747105E+02  0.25500000000E-02 0.  1.
         -2    1    1    2  502    0  0.19570079211E+01 -0.21146029499E+02  0.85799616582E+01  0.22904152290E+02  0.25500000000E-02 0.  1.
<mgrwt>
<rscale>  0 0.42800301E+02</rscale>
<asrwt>0</asrwt>
<pdfrwt beam="1">  1        3 0.43113706E-02 0.42800301E+02</pdfrwt>
<pdfrwt beam="2">  1       -3 0.25141524E-02 0.42800301E+02</pdfrwt>
<totfact> 0.28316332E+05</totfact>
</mgrwt>
</event>
<event>
 4    1  0.1537855E-002  0.5155933E+02  0.7818608E-02  0.1437108E+00
         -3   -1    0    0  501    0 -0.00000000000E+00  0.00000000000E+00  0.40343782717E+03  0.40343783981E+03  0.10100000000E+00 0.  1.
          3   -1    0    0    0  501  0.00000000000E+00 -0.00000000000E+00 -0.16457592292E+01  0.16488554941E+01  0.10100000000E+00 0.  1.
          2    1    1    2    0  502 -0.22932746538E+02 -0.10088944159E+02  0.24861773371E+03  0.24987692006E+03  0.25500000000E-02 0. -1.
         -2    1    1    2  502    0  0.22932746538E+02  0.10088944159E+02  0.15317433423E+03  0.15520977525E+03  0.25500000000E-02 0. -1.
<mgrwt>
<rscale>  0 0.51559333E+02</rscale>
<asrwt>0</asrwt>
<pdfrwt beam="2">  1        3 0.25343319E-03 0.51559333E+02</pdfrwt>
<pdfrwt beam="1">  1       -3 0.62067521E-01 0.51559333E+02</pdfrwt>
<totfact> 0.89136613E+04</totfact>
</mgrwt>
</event>
<event>
 4    1  0.1537855E-002  0.4355691E+02  0.7818608E-02  0.1483557E+00
          3   -1    0    0    0  501  0.00000000000E+00  0.00000000000E+00  0.76445306141E+02  0.76445372862E+02  0.10100000000E+00 0.  1.
         -3   -1    0    0  501    0 -0.00000000000E+00 -0.00000000000E+00 -0.62039686931E+01  0.62047907737E+01  0.10100000000E+00 0.  1.
          2    1    1    2    0  502 -0.15386357542E+02  0.14064105144E+02  0.23155451936E+02  0.31156283681E+02  0.25500000000E-02 0. -1.
         -2    1    1    2  502    0  0.15386357542E+02 -0.14064105144E+02  0.47085885512E+02  0.51493879955E+02  0.25500000000E-02 0. -1.
<mgrwt>
<rscale>  0 0.43556906E+02</rscale>
<asrwt>0</asrwt>
<pdfrwt beam="1">  1        3 0.11760885E-01 0.43556906E+02</pdfrwt>
<pdfrwt beam="2">  1       -3 0.95452509E-03 0.43556906E+02</pdfrwt>
<totfact> 0.24522470E+05</totfact>
</mgrwt>
</event>
<event>
 4    1  0.1537855E-002  0.5836388E+02  0.7818608E-02  0.1404829E+00
          3   -1    0    0    0  501  0.00000000000E+00  0.00000000000E+00  0.11464793026E+02  0.11465237901E+02  0.10100000000E+00 0.  1.
         -3   -1    0    0  501    0 -0.00000000000E+00 -0.00000000000E+00 -0.74276410970E+02  0.74276479639E+02  0.10100000000E+00 0.  1.
          2    1    1    2    0  502  0.25818467769E+02  0.75179492191E+01 -0.14754296648E+02  0.30672497689E+02  0.25500000000E-02 0. -1.
         -2    1    1    2  502    0 -0.25818467769E+02 -0.75179492191E+01 -0.48057321295E+02  0.55069219851E+02  0.25500000000E-02 0. -1.
<mgrwt>
<rscale>  0 0.58363882E+02</rscale>
<asrwt>0</asrwt>
<pdfrwt beam="1">  1        3 0.17638539E-02 0.58363882E+02</pdfrwt>
<pdfrwt beam="2">  1       -3 0.11427179E-01 0.58363882E+02</pdfrwt>
<totfact> 0.11653543E+05</totfact>
</mgrwt>
</event>
<event>
 4    1  0.1537855E-002  0.1484324E+03  0.7818608E-02  0.1202413E+00
          3   -1    0    0    0  501  0.00000000000E+00  0.00000000000E+00  0.49543755190E+01  0.49554049061E+01  0.10100000000E+00 0.  1.
         -3   -1    0    0  501    0 -0.00000000000E+00 -0.00000000000E+00 -0.11116364502E+04  0.11116364548E+04  0.10100000000E+00 0.  1.
          2    1    1    2    0  502 -0.69909370222E+02  0.23077342909E+02 -0.48270986718E+03  0.48829161336E+03  0.25500000000E-02 0.  1.
         -2    1    1    2  502    0  0.69909370222E+02 -0.23077342909E+02 -0.62397220749E+03  0.62830024632E+03  0.25500000000E-02 0.  1.
<mgrwt>
<rscale>  0 0.14843236E+03</rscale>
<asrwt>0</asrwt>
<pdfrwt beam="1">  1        3 0.76229204E-03 0.14843236E+03</pdfrwt>
<pdfrwt beam="2">  1       -3 0.17102087E+00 0.14843236E+03</pdfrwt>
<totfact> 0.23439146E+03</totfact>
</mgrwt>
</event>
<event>
 4    1  0.1537855E-002  0.6658145E+02  0.7818608E-02  0.1372120E+00
          3   -1    0    0    0  501  0.00000000000E+00  0.00000000000E+00  0.92905273210E+02  0.92905328110E+02  0.10100000000E+00 0. -1.
         -3   -1    0    0  501    0 -0.00000000000E+00 -0.00000000000E+00 -0.11928785732E+02  0.11929213304E+02  0.10100000000E+00 0. -1.
          2    1    1    2    0  502  0.25478226618E+02  0.18452040275E+02  0.57639398359E+02  0.65665196807E+02  0.25500000000E-02 0. -1.
         -2    1    1    2  502    0 -0.25478226618E+02 -0.18452040275E+02  0.23337089118E+02  0.39169344607E+02  0.25500000000E-02 0. -1.
<mgrwt>
<rscale>  0 0.66581450E+02</rscale>
<asrwt>0</asrwt>
<pdfrwt beam="1">  1        3 0.14293157E-01 0.66581450E+02</pdfrwt>
<pdfrwt beam="2">  1       -3 0.18352349E-02 0.66581450E+02</pdfrwt>
<totfact> 0.79311648E+04</totfact>
</mgrwt>
</event>
<event>
 4    1  0.1537855E-002  0.7710577E+02  0.7818608E-02  0.1337471E+00
          3   -1    0    0    0  501  0.00000000000E+00  0.00000000000E+00  0.44520348109E+03  0.44520349255E+03  0.10100000000E+00 0.  1.
         -3   -1    0    0  501    0 -0.00000000000E+00 -0.00000000000E+00 -0.33377543586E+01  0.33392821322E+01  0.10100000000E+00 0.  1.
          2    1    1    2    0  502 -0.19823257162E+02 -0.33027699124E+02  0.21167152573E+03  0.21514791480E+03  0.25500000000E-02 0. -1.
         -2    1    1    2  502    0  0.19823257162E+02  0.33027699124E+02  0.23019420100E+03  0.23339485987E+03  0.25500000000E-02 0. -1.
<mgrwt>
<rscale>  0 0.77105773E+02</rscale>
<asrwt>0</asrwt>
<pdfrwt beam="1">  1        3 0.68492977E-01 0.77105773E+02</pdfrwt>
<pdfrwt beam="2">  1       -3 0.51361896E-03 0.77105773E+02</pdfrwt>
<totfact> 0.29952014E+04</totfact>
</mgrwt>
</event>
<event>
 4    1  0.1537855E-002  0.4677908E+02  0.7818608E-02  0.1463531E+00
          3   -1    0    0    0  501  0.00000000000E+00  0.00000000000E+00  0.74626272352E+02  0.74626340699E+02  0.10100000000E+00 0.  1.
         -3   -1    0    0  501    0 -0.00000000000E+00 -0.00000000000E+00 -0.73303842314E+01  0.73310800009E+01  0.10100000000E+00 0.  1.
          2    1    1    2    0  502  0.46421885298E+01  0.22032413374E+02  0.22554329552E+02  0.31869655497E+02  0.25500000000E-02 0.  1.
         -2    1    1    2  502    0 -0.46421885298E+01 -0.22032413374E+02  0.44741558568E+02  0.50087765203E+02  0.25500000000E-02 0.  1.
<mgrwt>
<rscale>  0 0.46779079E+02</rscale>
<asrwt>0</asrwt>
<pdfrwt beam="1">  1        3 0.11481024E-01 0.46779079E+02</pdfrwt>
<pdfrwt beam="2">  1       -3 0.11278102E-02 0.46779079E+02</pdfrwt>
<totfact> 0.20580764E+05</totfact>
</mgrwt>
</event>
<event>
 4    1  0.1537855E-002  0.4042357E+02  0.7818608E-02  0.1505117E+00
         -3   -1    0    0  501    0 -0.00000000000E+00  0.00000000000E+00  0.16025448241E+02  0.16025766513E+02  0.10100000000E+00 0. -1.
          3   -1    0    0    0  501  0.00000000000E+00 -0.00000000000E+00 -0.25491051469E+02  0.25491251558E+02  0.10100000000E+00 0. -1.
          2    1    1    2    0  502 -0.11345517553E+02  0.16669126107E+02 -0.61617470997E+01  0.21084299076E+02  0.25500000000E-02 0.  1.
         -2    1    1    2  502    0  0.11345517553E+02 -0.16669126107E+02 -0.33038561276E+01  0.20432718995E+02  0.25500000000E-02 0.  1.
<mgrwt>
<rscale>  0 0.40423572E+02</rscale>
<asrwt>0</asrwt>
<pdfrwt beam="2">  1        3 0.39217401E-02 0.40423572E+02</pdfrwt>
<pdfrwt beam="1">  1       -3 0.24654934E-02 0.40423572E+02</pdfrwt>
<totfact> 0.32847172E+05</totfact>
</mgrwt>
</event>
<event>
 4    1  0.1537855E-002  0.5016387E+02  0.7818608E-02  0.1444460E+00
         -3   -1    0    0  501    0 -0.00000000000E+00  0.00000000000E+00  0.11060204455E+03  0.11060209067E+03  0.10100000000E+00 0. -1.
          3   -1    0    0    0  501  0.00000000000E+00 -0.00000000000E+00 -0.56874950970E+01  0.56883918183E+01  0.10100000000E+00 0. -1.
          2    1    1    2    0  502 -0.14407044449E+02  0.15650692237E+02  0.21650661045E+02  0.30352235955E+02  0.25500000000E-02 0.  1.
         -2    1    1    2  502    0  0.14407044449E+02 -0.15650692237E+02  0.83263888407E+02  0.85938246529E+02  0.25500000000E-02 0.  1.
<mgrwt>
<rscale>  0 0.50163868E+02</rscale>
<asrwt>0</asrwt>
<pdfrwt beam="2">  1        3 0.87507183E-03 0.50163868E+02</pdfrwt>
<pdfrwt beam="1">  1       -3 0.17015771E-01 0.50163868E+02</pdfrwt>
<totfact> 0.15960911E+05</totfact>
</mgrwt>
</event>
<event>
 4    1  0.1537855E-002  0.4883710E+02  0.7818608E-02  0.1451717E+00
         -3   -1    0    0  501    0 -0.00000000000E+00  0.00000000000E+00  0.66645479388E+02  0.66645555920E+02  0.10100000000E+00 0. -1.
          3   -1    0    0    0  501  0.00000000000E+00 -0.00000000000E+00 -0.89464593748E+01  0.89470294704E+01  0.10100000000E+00 0. -1.
          2    1    1    2    0  502  0.17236226449E+02 -0.14979868561E+02  0.42234762526E+02  0.48013114213E+02  0.25500000000E-02 0.  1.
         -2    1    1    2  502    0 -0.17236226449E+02  0.14979868561E+02  0.15464257488E+02  0.27579471178E+02  0.25500000000E-02 0.  1.
<mgrwt>
<rscale>  0 0.48837097E+02</rscale>
<asrwt>0</asrwt>
<pdfrwt beam="2">  1        3 0.13764281E-02 0.48837097E+02</pdfrwt>
<pdfrwt beam="1">  1       -3 0.10253200E-01 0.48837097E+02</pdfrwt>
<totfact> 0.18776178E+05</totfact>
</mgrwt>
</event>
<event>
 4    1  0.1537855E-002  0.5128741E+02  0.7818608E-02  0.1438519E+00
          3   -1    0    0    0  501  0.00000000000E+00  0.00000000000E+00  0.48527413837E+02  0.48527518943E+02  0.10100000000E+00 0. -1.
         -3   -1    0    0  501    0 -0.00000000000E+00 -0.00000000000E+00 -0.13550785458E+02  0.13551161852E+02  0.10100000000E+00 0. -1.
          2    1    1    2    0  502 -0.17804733003E+02  0.17967948292E+02  0.12389661637E+02  0.28166636382E+02  0.25500000000E-02 0. -1.
         -2    1    1    2  502    0  0.17804733003E+02 -0.17967948292E+02  0.22586966742E+02  0.33912044412E+02  0.25500000000E-02 0. -1.
<mgrwt>
<rscale>  0 0.51287407E+02</rscale>
<asrwt>0</asrwt>
<pdfrwt beam="1">  1        3 0.74657931E-02 0.51287407E+02</pdfrwt>
<pdfrwt beam="2">  1       -3 0.20847732E-02 0.51287407E+02</pdfrwt>
<totfact> 0.17174757E+05</totfact>
</mgrwt>
</event>
<event>
 4    1  0.1537855E-002  0.4889699E+02  0.7818608E-02  0.1451383E+00
         -3   -1    0    0  501    0 -0.00000000000E+00  0.00000000000E+00  0.46790707165E+03  0.46790708255E+03  0.10100000000E+00 0. -1.
          3   -1    0    0    0  501  0.00000000000E+00 -0.00000000000E+00 -0.12754449694E+01  0.12794377163E+01  0.10100000000E+00 0. -1.
          2    1    1    2    0  502 -0.62041544581E+01 -0.23525848938E+02  0.25636844219E+03  0.25752035892E+03  0.25500000000E-02 0. -1.
         -2    1    1    2  502    0  0.62041544581E+01  0.23525848938E+02  0.21026318450E+03  0.21166616135E+03  0.25500000000E-02 0. -1.
<mgrwt>
<rscale>  0 0.48896992E+02</rscale>
<asrwt>0</asrwt>
<pdfrwt beam="2">  1        3 0.19653013E-03 0.48896992E+02</pdfrwt>
<pdfrwt beam="1">  1       -3 0.71986064E-01 0.48896992E+02</pdfrwt>
<totfact> 0.92606741E+04</totfact>
</mgrwt>
</event>
<event>
 4    1  0.1537855E-002  0.4765172E+02  0.7818608E-02  0.1458435E+00
          3   -1    0    0    0  501  0.00000000000E+00  0.00000000000E+00  0.11729500812E+01  0.11772904879E+01  0.10100000000E+00 0.  1.
         -3   -1    0    0  501    0 -0.00000000000E+00 -0.00000000000E+00 -0.48307090857E+03  0.48307091913E+03  0.10100000000E+00 0.  1.
          2    1    1    2    0  502 -0.19607605446E+02  0.63032484234E+01 -0.11922145906E+03  0.12098737719E+03  0.25500000000E-02 0.  1.
         -2    1    1    2  502    0  0.19607605446E+02 -0.63032484234E+01 -0.36267649943E+03  0.36326083243E+03  0.25500000000E-02 0.  1.
<mgrwt>
<rscale>  0 0.47651717E+02</rscale>
<asrwt>0</asrwt>
<pdfrwt beam="1">  1        3 0.18078893E-03 0.47651717E+02</pdfrwt>
<pdfrwt beam="2">  1       -3 0.74318777E-01 0.47651717E+02</pdfrwt>
<totfact> 0.96620019E+04</totfact>
</mgrwt>
</event>
<event>
 4    1  0.1537855E-002  0.8312315E+02  0.7818608E-02  0.1320415E+00
          3   -1    0    0    0  501  0.00000000000E+00  0.00000000000E+00  0.11030825269E+03  0.11030829893E+03  0.10100000000E+00 0. -1.
         -3   -1    0    0  501    0 -0.00000000000E+00 -0.00000000000E+00 -0.15659219632E+02  0.15659545348E+02  0.10100000000E+00 0. -1.
          2    1    1    2    0  502  0.49380595022E+01  0.30820446354E+02  0.57374468669E+01  0.31736456138E+02  0.25500000000E-02 0. -1.
         -2    1    1    2  502    0 -0.49380595022E+01 -0.30820446354E+02  0.88911586192E+02  0.94231388140E+02  0.25500000000E-02 0. -1.
<mgrwt>
<rscale>  0 0.83123152E+02</rscale>
<asrwt>0</asrwt>
<pdfrwt beam="1">  1        3 0.16970529E-01 0.83123152E+02</pdfrwt>
<pdfrwt beam="2">  1       -3 0.24091393E-02 0.83123152E+02</pdfrwt>
<totfact> 0.42141344E+04</totfact>
</mgrwt>
</event>
<event>
 4    1  0.1537855E-002  0.8073469E+02  0.7818608E-02  0.1326979E+00
         -3   -1    0    0  501    0 -0.00000000000E+00  0.00000000000E+00  0.18056432835E+03  0.18056435659E+03  0.10100000000E+00 0.  1.
          3   -1    0    0    0  501  0.00000000000E+00 -0.00000000000E+00 -0.90242972944E+01  0.90248624730E+01  0.10100000000E+00 0.  1.
          2    1    1    2    0  502 -0.78027788279E+01 -0.38523025495E+02  0.10737125282E+03  0.11433937550E+03  0.25500000000E-02 0.  1.
         -2    1    1    2  502    0  0.78027788279E+01  0.38523025495E+02  0.64168778230E+02  0.75249843566E+02  0.25500000000E-02 0.  1.
<mgrwt>
<rscale>  0 0.80734687E+02</rscale>
<asrwt>0</asrwt>
<pdfrwt beam="2">  1        3 0.13883993E-02 0.80734687E+02</pdfrwt>
<pdfrwt beam="1">  1       -3 0.27779169E-01 0.80734687E+02</pdfrwt>
<totfact> 0.40228088E+04</totfact>
</mgrwt>
</event>
<event>
 4    1  0.1537855E-002  0.7667975E+02  0.7818608E-02  0.1338747E+00
          3   -1    0    0    0  501  0.00000000000E+00  0.00000000000E+00  0.89320989333E+01  0.89326699455E+01  0.10100000000E+00 0. -1.
         -3   -1    0    0  501    0 -0.00000000000E+00 -0.00000000000E+00 -0.16456309783E+03  0.16456312883E+03  0.10100000000E+00 0. -1.
          2    1    1    2    0  502  0.47746435711E+01  0.24583010324E+02 -0.12128892226E+02  0.27825018435E+02  0.25500000000E-02 0.  1.
         -2    1    1    2  502    0 -0.47746435711E+01 -0.24583010324E+02 -0.14350210668E+03  0.14567078034E+03  0.25500000000E-02 0.  1.
<mgrwt>
<rscale>  0 0.76679752E+02</rscale>
<asrwt>0</asrwt>
<pdfrwt beam="1">  1        3 0.13742155E-02 0.76679752E+02</pdfrwt>
<pdfrwt beam="2">  1       -3 0.25317444E-01 0.76679752E+02</pdfrwt>
<totfact> 0.47547347E+04</totfact>
</mgrwt>
</event>
<event>
 4    1  0.1537855E-002  0.4946871E+02  0.7818608E-02  0.1448228E+00
         -3   -1    0    0  501    0 -0.00000000000E+00  0.00000000000E+00  0.12411428210E+02  0.12411839155E+02  0.10100000000E+00 0.  1.
          3   -1    0    0    0  501  0.00000000000E+00 -0.00000000000E+00 -0.49291051574E+02  0.49291155051E+02  0.10100000000E+00 0.  1.
          2    1    1    2    0  502  0.51375533878E+01 -0.22770941380E+02 -0.82394098234E+01  0.24754759277E+02  0.25500000000E-02 0.  1.
         -2    1    1    2  502    0 -0.51375533878E+01  0.22770941380E+02 -0.28640213541E+02  0.36948234928E+02  0.25500000000E-02 0.  1.
<mgrwt>
<rscale>  0 0.49468706E+02</rscale>
<asrwt>0</asrwt>
<pdfrwt beam="2">  1        3 0.75832782E-02 0.49468706E+02</pdfrwt>
<pdfrwt beam="1">  1       -3 0.19094901E-02 0.49468706E+02</pdfrwt>
<totfact> 0.18828945E+05</totfact>
</mgrwt>
</event>
<event>
 4    1  0.1537855E-002  0.4909858E+02  0.7818608E-02  0.1450265E+00
         -3   -1    0    0  501    0 -0.00000000000E+00  0.00000000000E+00  0.10422249167E+01  0.10471073379E+01  0.10100000000E+00 0. -1.
          3   -1    0    0    0  501  0.00000000000E+00 -0.00000000000E+00 -0.57689493152E+03  0.57689494036E+03  0.10100000000E+00 0. -1.
          2    1    1    2    0  502 -0.95410713905E+01 -0.22510310200E+02 -0.31404001607E+03  0.31499028209E+03  0.25500000000E-02 0.  1.
         -2    1    1    2  502    0  0.95410713905E+01  0.22510310200E+02 -0.26181269053E+03  0.26295176561E+03  0.25500000000E-02 0.  1.
<mgrwt>
<rscale>  0 0.49098582E+02</rscale>
<asrwt>0</asrwt>
<pdfrwt beam="2">  1        3 0.88753188E-01 0.49098582E+02</pdfrwt>
<pdfrwt beam="1">  1       -3 0.16071901E-03 0.49098582E+02</pdfrwt>
<totfact> 0.79242642E+04</totfact>
</mgrwt>
</event>
<event>
 4    1  0.1537855E-002  0.9988436E+02  0.7818608E-02  0.1280539E+00
          3   -1    0    0    0  501  0.00000000000E+00  0.00000000000E+00  0.26272193134E+03  0.26272195076E+03  0.10100000000E+00 0. -1.
         -3   -1    0    0  501    0 -0.00000000000E+00 -0.00000000000E+00 -0.94934804817E+01  0.94940177299E+01  0.10100000000E+00 0. -1.
          2    1    1    2    0  502 -0.11619333161E+02  0.47881182023E+02  0.14885597000E+03  0.15679833005E+03  0.25500000000E-02 0. -1.
         -2    1    1    2  502    0  0.11619333161E+02 -0.47881182023E+02  0.10437248086E+03  0.11541763844E+03  0.25500000000E-02 0. -1.
<mgrwt>
<rscale>  0 0.99884359E+02</rscale>
<asrwt>0</asrwt>
<pdfrwt beam="1">  1        3 0.40418806E-01 0.99884359E+02</pdfrwt>
<pdfrwt beam="2">  1       -3 0.14605781E-02 0.99884359E+02</pdfrwt>
<totfact> 0.19650806E+04</totfact>
</mgrwt>
</event>
<event>
 4    1  0.1537855E-002  0.6800809E+02  0.7818608E-02  0.1367001E+00
         -3   -1    0    0  501    0 -0.00000000000E+00  0.00000000000E+00  0.22487797037E+03  0.22487799305E+03  0.10100000000E+00 0. -1.
          3   -1    0    0    0  501  0.00000000000E+00 -0.00000000000E+00 -0.51412698156E+01  0.51422617900E+01  0.10100000000E+00 0. -1.
          2    1    1    2    0  502  0.17758445355E+02  0.28709831096E+02  0.96063874992E+02  0.10182281114E+03  0.25500000000E-02 0. -1.
         -2    1    1    2  502    0 -0.17758445355E+02 -0.28709831096E+02  0.12367282556E+03  0.12819744370E+03  0.25500000000E-02 0. -1.
<mgrwt>
<rscale>  0 0.68008088E+02</rscale>
<asrwt>0</asrwt>
<pdfrwt beam="2">  1        3 0.79104274E-03 0.68008088E+02</pdfrwt>
<pdfrwt beam="1">  1       -3 0.34596684E-01 0.68008088E+02</pdfrwt>
<totfact> 0.58638059E+04</totfact>
</mgrwt>
</event>
<event>
 4    1  0.1537855E-002  0.4507611E+02  0.7818608E-02  0.1473867E+00
         -3   -1    0    0  501    0 -0.00000000000E+00  0.00000000000E+00  0.36860462543E+01  0.36874297266E+01  0.10100000000E+00 0.  1.
          3   -1    0    0    0  501  0.00000000000E+00 -0.00000000000E+00 -0.13777999293E+03  0.13778002995E+03  0.10100000000E+00 0.  1.
          2    1    1    2    0  502 -0.20672495657E+02  0.21578529049E+01 -0.94399013182E+02  0.96660137089E+02  0.25500000000E-02 0.  1.
         -2    1    1    2  502    0  0.20672495657E+02 -0.21578529049E+01 -0.39694933497E+02  0.44807322590E+02  0.25500000000E-02 0.  1.
<mgrwt>
<rscale>  0 0.45076109E+02</rscale>
<asrwt>0</asrwt>
<pdfrwt beam="2">  1        3 0.21197027E-01 0.45076109E+02</pdfrwt>
<pdfrwt beam="1">  1       -3 0.56719341E-03 0.45076109E+02</pdfrwt>
<totfact> 0.19710616E+05</totfact>
</mgrwt>
</event>
<event>
 4    1  0.1537855E-002  0.7152459E+02  0.7818608E-02  0.1354984E+00
         -3   -1    0    0  501    0 -0.00000000000E+00  0.00000000000E+00  0.64486321466E+00  0.65272472423E+00  0.10100000000E+00 0.  1.
          3   -1    0    0    0  501  0.00000000000E+00 -0.00000000000E+00 -0.19712522919E+04  0.19712522945E+04  0.10100000000E+00 0.  1.
          2    1    1    2    0  502 -0.34981443198E+02 -0.17019436255E+01 -0.11847669634E+04  0.11852845041E+04  0.25500000000E-02 0.  1.
         -2    1    1    2  502    0  0.34981443198E+02  0.17019436255E+01 -0.78584046531E+03  0.78662051518E+03  0.25500000000E-02 0.  1.
<mgrwt>
<rscale>  0 0.71524589E+02</rscale>
<asrwt>0</asrwt>
<pdfrwt beam="2">  1        3 0.30326539E+00 0.71524589E+02</pdfrwt>
<pdfrwt beam="1">  1       -3 0.99816234E-04 0.71524589E+02</pdfrwt>
<totfact> 0.71869971E+03</totfact>
</mgrwt>
</event>
<event>
 4    1  0.1537855E-002  0.5318109E+02  0.7818608E-02  0.1428902E+00
         -3   -1    0    0  501    0 -0.00000000000E+00  0.00000000000E+00  0.92485849584E+02  0.92485904733E+02  0.10100000000E+00 0.  1.
          3   -1    0    0    0  501  0.00000000000E+00 -0.00000000000E+00 -0.76446395773E+01  0.76453067478E+01  0.10100000000E+00 0.  1.
          2    1    1    2    0  502 -0.22072468427E+02 -0.76142293850E+01  0.66376804638E+02  0.70363701949E+02  0.25500000000E-02 0. -1.
         -2    1    1    2  502    0  0.22072468427E+02  0.76142293850E+01  0.18464405369E+02  0.29767509532E+02  0.25500000000E-02 0. -1.
<mgrwt>
<rscale>  0 0.53181092E+02</rscale>
<asrwt>0</asrwt>
<pdfrwt beam="2">  1        3 0.11761540E-02 0.53181092E+02</pdfrwt>
<pdfrwt beam="1">  1       -3 0.14228647E-01 0.53181092E+02</pdfrwt>
<totfact> 0.14288813E+05</totfact>
</mgrwt>
</event>
<event>
 4    1  0.1537855E-002  0.9112363E+02  0.7818608E-02  0.1300153E+00
          3   -1    0    0    0  501  0.00000000000E+00  0.00000000000E+00  0.58394352318E+03  0.58394353191E+03  0.10100000000E+00 0. -1.
         -3   -1    0    0  501    0 -0.00000000000E+00 -0.00000000000E+00 -0.35542048332E+01  0.35556396044E+01  0.10100000000E+00 0. -1.
          2    1    1    2    0  502 -0.36908594307E+02  0.23154084408E+02  0.20429261198E+03  0.20888711610E+03  0.25500000000E-02 0.  1.
         -2    1    1    2  502    0  0.36908594307E+02 -0.23154084408E+02  0.37609670637E+03  0.37861205542E+03  0.25500000000E-02 0.  1.
<mgrwt>
<rscale>  0 0.91123629E+02</rscale>
<asrwt>0</asrwt>
<pdfrwt beam="1">  1        3 0.89837577E-01 0.91123629E+02</pdfrwt>
<pdfrwt beam="2">  1       -3 0.54691178E-03 0.91123629E+02</pdfrwt>
<totfact> 0.16001785E+04</totfact>
</mgrwt>
</event>
<event>
 4    1  0.1537855E-002  0.6018111E+02  0.7818608E-02  0.1397073E+00
          3   -1    0    0    0  501  0.00000000000E+00  0.00000000000E+00  0.12361441695E+02  0.12361854302E+02  0.10100000000E+00 0. -1.
         -3   -1    0    0  501    0 -0.00000000000E+00 -0.00000000000E+00 -0.73245573205E+02  0.73245642840E+02  0.10100000000E+00 0. -1.
          2    1    1    2    0  502  0.85134777059E+01 -0.20403143950E+02 -0.59478933468E+02  0.63454795868E+02  0.25500000000E-02 0. -1.
         -2    1    1    2  502    0 -0.85134777059E+01  0.20403143950E+02 -0.14051980418E+01  0.22152701274E+02  0.25500000000E-02 0. -1.
<mgrwt>
<rscale>  0 0.60181111E+02</rscale>
<asrwt>0</asrwt>
<pdfrwt beam="1">  1        3 0.19017974E-02 0.60181111E+02</pdfrwt>
<pdfrwt beam="2">  1       -3 0.11268587E-01 0.60181111E+02</pdfrwt>
<totfact> 0.10772997E+05</totfact>
</mgrwt>
</event>
<event>
 4    1  0.1537855E-002  0.5735791E+02  0.7818608E-02  0.1409266E+00
         -3   -1    0    0  501    0 -0.00000000000E+00  0.00000000000E+00  0.43586913563E+01  0.43598613899E+01  0.10100000000E+00 0.  1.
          3   -1    0    0    0  501  0.00000000000E+00 -0.00000000000E+00 -0.18867287542E+03  0.18867290245E+03  0.10100000000E+00 0.  1.
          2    1    1    2    0  502  0.16393932523E+02 -0.11989892646E+02 -0.24015779228E+02  0.31452761527E+02  0.25500000000E-02 0. -1.
         -2    1    1    2  502    0 -0.16393932523E+02  0.11989892646E+02 -0.16029840483E+03  0.16158000231E+03  0.25500000000E-02 0. -1.
<mgrwt>
<rscale>  0 0.57357907E+02</rscale>
<asrwt>0</asrwt>
<pdfrwt beam="2">  1        3 0.29026682E-01 0.57357907E+02</pdfrwt>
<pdfrwt beam="1">  1       -3 0.67066013E-03 0.57357907E+02</pdfrwt>
<totfact> 0.97230479E+04</totfact>
</mgrwt>
</event>
<event>
 4    1  0.1537855E-002  0.4163899E+02  0.7818608E-02  0.1496485E+00
          3   -1    0    0    0  501  0.00000000000E+00  0.00000000000E+00  0.15250553414E+03  0.15250556759E+03  0.10100000000E+00 0.  1.
         -3   -1    0    0  501    0 -0.00000000000E+00 -0.00000000000E+00 -0.28412698181E+01  0.28430643994E+01  0.10100000000E+00 0.  1.
          2    1    1    2    0  502 -0.19863853343E+02  0.45068710631E+01  0.90908049353E+02  0.93161998691E+02  0.25500000000E-02 0.  1.
         -2    1    1    2  502    0  0.19863853343E+02 -0.45068710631E+01  0.58756214969E+02  0.62186633294E+02  0.25500000000E-02 0.  1.
<mgrwt>
<rscale>  0 0.41638989E+02</rscale>
<asrwt>0</asrwt>
<pdfrwt beam="1">  1        3 0.23462533E-01 0.41638989E+02</pdfrwt>
<pdfrwt beam="2">  1       -3 0.43725901E-03 0.41638989E+02</pdfrwt>
<totfact> 0.23250038E+05</totfact>
</mgrwt>
</event>
<event>
 4    1  0.1537855E-002  0.4230034E+02  0.7818608E-02  0.1491935E+00
          3   -1    0    0    0  501  0.00000000000E+00  0.00000000000E+00  0.13651793687E+03  0.13651797423E+03  0.10100000000E+00 0. -1.
         -3   -1    0    0  501    0 -0.00000000000E+00 -0.00000000000E+00 -0.32758943935E+01  0.32774510031E+01  0.10100000000E+00 0. -1.
          2    1    1    2    0  502  0.65994792315E+01  0.19013662874E+02  0.45137786048E+02  0.49421576642E+02  0.25500000000E-02 0. -1.
         -2    1    1    2  502    0 -0.65994792315E+01 -0.19013662874E+02  0.88104256431E+02  0.90373848595E+02  0.25500000000E-02 0. -1.
<mgrwt>
<rscale>  0 0.42300343E+02</rscale>
<asrwt>0</asrwt>
<pdfrwt beam="1">  1        3 0.21002889E-01 0.42300343E+02</pdfrwt>
<pdfrwt beam="2">  1       -3 0.50410620E-03 0.42300343E+02</pdfrwt>
<totfact> 0.23120268E+05</totfact>
</mgrwt>
</event>
<event>
 4    1  0.1537855E-002  0.5693180E+02  0.7818608E-02  0.1411178E+00
         -3   -1    0    0  501    0 -0.00000000000E+00  0.00000000000E+00  0.46968919995E+02  0.46969028588E+02  0.10100000000E+00 0. -1.
          3   -1    0    0    0  501  0.00000000000E+00 -0.00000000000E+00 -0.17251718398E+02  0.17252014047E+02  0.10100000000E+00 0. -1.
          2    1    1    2    0  502 -0.22967975312E+02 -0.15847527802E+02  0.85139174441E+01  0.29174626374E+02  0.25500000000E-02 0. -1.
         -2    1    1    2  502    0  0.22967975312E+02  0.15847527802E+02  0.21203284153E+02  0.35046416261E+02  0.25500000000E-02 0. -1.
<mgrwt>
<rscale>  0 0.56931803E+02</rscale>
<asrwt>0</asrwt>
<pdfrwt beam="2">  1        3 0.26541416E-02 0.56931803E+02</pdfrwt>
<pdfrwt beam="1">  1       -3 0.72260189E-02 0.56931803E+02</pdfrwt>
<totfact> 0.13087860E+05</totfact>
</mgrwt>
</event>
<event>
 4    1  0.1537855E-002  0.9359432E+02  0.7818608E-02  0.1294374E+00
         -3   -1    0    0  501    0 -0.00000000000E+00  0.00000000000E+00  0.27999267390E+02  0.27999449554E+02  0.10100000000E+00 0.  1.
          3   -1    0    0    0  501  0.00000000000E+00 -0.00000000000E+00 -0.78214935625E+02  0.78215000837E+02  0.10100000000E+00 0.  1.
          2    1    1    2    0  502 -0.46443190075E+02 -0.57440575833E+01 -0.24994773648E+02  0.53053772892E+02  0.25500000000E-02 0. -1.
         -2    1    1    2  502    0  0.46443190075E+02  0.57440575833E+01 -0.25220894588E+02  0.53160677499E+02  0.25500000000E-02 0. -1.
<mgrwt>
<rscale>  0 0.93594317E+02</rscale>
<asrwt>0</asrwt>
<pdfrwt beam="2">  1        3 0.12033086E-01 0.93594317E+02</pdfrwt>
<pdfrwt beam="1">  1       -3 0.43075987E-02 0.93594317E+02</pdfrwt>
<totfact> 0.31858746E+04</totfact>
</mgrwt>
</event>
<event>
 4    1  0.1537855E-002  0.1166700E+03  0.7818608E-02  0.1248694E+00
          3   -1    0    0    0  501  0.00000000000E+00  0.00000000000E+00  0.27729994582E+04  0.27729994600E+04  0.10100000000E+00 0. -1.
         -3   -1    0    0  501    0 -0.00000000000E+00 -0.00000000000E+00 -0.12251003353E+01  0.12292566175E+01  0.10100000000E+00 0. -1.
          2    1    1    2    0  502 -0.13418252654E+02  0.31144250751E+02  0.25723639787E+03  0.25946209407E+03  0.25500000000E-02 0.  1.
         -2    1    1    2  502    0  0.13418252654E+02 -0.31144250751E+02  0.25145379600E+04  0.25147666226E+04  0.25500000000E-02 0.  1.
<mgrwt>
<rscale>  0 0.11666997E+03</rscale>
<asrwt>0</asrwt>
<pdfrwt beam="1">  1        3 0.42661190E+00 0.11666997E+03</pdfrwt>
<pdfrwt beam="2">  1       -3 0.18879847E-03 0.11666997E+03</pdfrwt>
<totfact> 0.75217321E+02</totfact>
</mgrwt>
</event>
<event>
 4    1  0.1537855E-002  0.4331416E+02  0.7818608E-02  0.1485149E+00
         -3   -1    0    0  501    0 -0.00000000000E+00  0.00000000000E+00  0.29601586961E+02  0.29601759265E+02  0.10100000000E+00 0. -1.
          3   -1    0    0    0  501  0.00000000000E+00 -0.00000000000E+00 -0.15844350992E+02  0.15844672901E+02  0.10100000000E+00 0. -1.
          2    1    1    2    0  502 -0.15030247596E+01  0.20135625420E+02 -0.13380273377E+01  0.20235928893E+02  0.25500000000E-02 0.  1.
         -2    1    1    2  502    0  0.15030247596E+01 -0.20135625420E+02  0.15095263307E+02  0.25210503274E+02  0.25500000000E-02 0.  1.
<mgrwt>
<rscale>  0 0.43314162E+02</rscale>
<asrwt>0</asrwt>
<pdfrwt beam="2">  1        3 0.24376305E-02 0.43314162E+02</pdfrwt>
<pdfrwt beam="1">  1       -3 0.45541282E-02 0.43314162E+02</pdfrwt>
<totfact> 0.27409624E+05</totfact>
</mgrwt>
</event>
<event>
 4    1  0.1537855E-002  0.5556516E+02  0.7818608E-02  0.1417445E+00
          3   -1    0    0    0  501  0.00000000000E+00  0.00000000000E+00  0.12557392626E+01  0.12597944656E+01  0.10100000000E+00 0. -1.
         -3   -1    0    0  501    0 -0.00000000000E+00 -0.00000000000E+00 -0.61368030103E+03  0.61368030934E+03  0.10100000000E+00 0. -1.
          2    1    1    2    0  502  0.22070280614E+02 -0.11136863571E+02 -0.16589901725E+03  0.16773076923E+03  0.25500000000E-02 0. -1.
         -2    1    1    2  502    0 -0.22070280614E+02  0.11136863571E+02 -0.44652554452E+03  0.44720933458E+03  0.25500000000E-02 0. -1.
<mgrwt>
<rscale>  0 0.55565164E+02</rscale>
<asrwt>0</asrwt>
<pdfrwt beam="1">  1        3 0.19350372E-03 0.55565164E+02</pdfrwt>
<pdfrwt beam="2">  1       -3 0.94412427E-01 0.55565164E+02</pdfrwt>
<totfact> 0.55458299E+04</totfact>
</mgrwt>
</event>
<event>
 4    1  0.1537855E-002  0.5030169E+02  0.7818608E-02  0.1443721E+00
         -3   -1    0    0  501    0 -0.00000000000E+00  0.00000000000E+00  0.81027504425E+01  0.81033798957E+01  0.10100000000E+00 0.  1.
          3   -1    0    0    0  501  0.00000000000E+00 -0.00000000000E+00 -0.78064228968E+02  0.78064294305E+02  0.10100000000E+00 0.  1.
          2    1    1    2    0  502  0.21380038594E+02  0.13237544722E+02 -0.34165924525E+02  0.42422270634E+02  0.25500000000E-02 0.  1.
         -2    1    1    2  502    0 -0.21380038594E+02 -0.13237544722E+02 -0.35795554000E+02  0.43745403567E+02  0.25500000000E-02 0.  1.
<mgrwt>
<rscale>  0 0.50301686E+02</rscale>
<asrwt>0</asrwt>
<pdfrwt beam="2">  1        3 0.12009934E-01 0.50301686E+02</pdfrwt>
<pdfrwt beam="1">  1       -3 0.12466305E-02 0.50301686E+02</pdfrwt>
<totfact> 0.16989193E+05</totfact>
</mgrwt>
</event>
<event>
 4    1  0.1537855E-002  0.4599954E+02  0.7818608E-02  0.1468196E+00
         -3   -1    0    0  501    0 -0.00000000000E+00  0.00000000000E+00  0.26611628621E+02  0.26611820285E+02  0.10100000000E+00 0. -1.
          3   -1    0    0    0  501  0.00000000000E+00 -0.00000000000E+00 -0.19877738552E+02  0.19877995144E+02  0.10100000000E+00 0. -1.
          2    1    1    2    0  502 -0.27586419097E+01 -0.21296599399E+02  0.11690877631E+02  0.24450600758E+02  0.25500000000E-02 0. -1.
         -2    1    1    2  502    0  0.27586419097E+01  0.21296599399E+02 -0.49569875626E+01  0.22039214671E+02  0.25500000000E-02 0. -1.
<mgrwt>
<rscale>  0 0.45999540E+02</rscale>
<asrwt>0</asrwt>
<pdfrwt beam="2">  1        3 0.30581481E-02 0.45999540E+02</pdfrwt>
<pdfrwt beam="1">  1       -3 0.40941312E-02 0.45999540E+02</pdfrwt>
<totfact> 0.23530670E+05</totfact>
</mgrwt>
</event>
<event>
 4    1  0.1537855E-002  0.6941931E+02  0.7818608E-02  0.1362079E+00
         -3   -1    0    0  501    0 -0.00000000000E+00  0.00000000000E+00  0.70986028310E+01  0.70993213163E+01  0.10100000000E+00 0. -1.
          3   -1    0    0    0  501  0.00000000000E+00 -0.00000000000E+00 -0.16970860440E+03  0.16970863446E+03  0.10100000000E+00 0. -1.
          2    1    1    2    0  502 -0.30962771992E+02  0.11039378813E+02 -0.52920544353E+02  0.62298837510E+02  0.25500000000E-02 0.  1.
         -2    1    1    2  502    0  0.30962771992E+02 -0.11039378813E+02 -0.10968945722E+03  0.11450911826E+03  0.25500000000E-02 0.  1.
<mgrwt>
<rscale>  0 0.69419310E+02</rscale>
<asrwt>0</asrwt>
<pdfrwt beam="2">  1        3 0.26109071E-01 0.69419310E+02</pdfrwt>
<pdfrwt beam="1">  1       -3 0.10921504E-02 0.69419310E+02</pdfrwt>
<totfact> 0.61344948E+04</totfact>
</mgrwt>
</event>
<event>
 4    1  0.1537855E-002  0.1877911E+03  0.7818608E-02  0.1160469E+00
         -3   -1    0    0  501    0 -0.00000000000E+00  0.00000000000E+00  0.17970265151E+02  0.17970548979E+02  0.10100000000E+00 0. -1.
          3   -1    0    0    0  501  0.00000000000E+00 -0.00000000000E+00 -0.49060500771E+03  0.49060501811E+03  0.10100000000E+00 0. -1.
          2    1    1    2    0  502  0.29796842134E+02  0.44383455858E+02 -0.44536910576E+03  0.44856591860E+03  0.25500000000E-02 0.  1.
         -2    1    1    2  502    0 -0.29796842134E+02 -0.44383455858E+02 -0.27265636799E+02  0.60009648487E+02  0.25500000000E-02 0.  1.
<mgrwt>
<rscale>  0 0.18779113E+03</rscale>
<asrwt>0</asrwt>
<pdfrwt beam="2">  1        3 0.75477706E-01 0.18779113E+03</pdfrwt>
<pdfrwt beam="1">  1       -3 0.27646792E-02 0.18779113E+03</pdfrwt>
<totfact> 0.23730332E+03</totfact>
</mgrwt>
</event>
<event>
 4    1  0.1537855E-002  0.7537688E+02  0.7818608E-02  0.1342708E+00
          3   -1    0    0    0  501  0.00000000000E+00  0.00000000000E+00  0.70908535760E+01  0.70915728464E+01  0.10100000000E+00 0.  1.
         -3   -1    0    0  501    0 -0.00000000000E+00 -0.00000000000E+00 -0.20030613083E+03  0.20030615629E+03  0.10100000000E+00 0.  1.
          2    1    1    2    0  502  0.17486691100E+02 -0.28279443665E+02 -0.14543432192E+03  0.14918663914E+03  0.25500000000E-02 0. -1.
         -2    1    1    2  502    0 -0.17486691100E+02  0.28279443665E+02 -0.47780955334E+02  0.58211089998E+02  0.25500000000E-02 0. -1.
<mgrwt>
<rscale>  0 0.75376884E+02</rscale>
<asrwt>0</asrwt>
<pdfrwt beam="1">  1        3 0.10909580E-02 0.75376884E+02</pdfrwt>
<pdfrwt beam="2">  1       -3 0.30816381E-01 0.75376884E+02</pdfrwt>
<totfact> 0.46690689E+04</totfact>
</mgrwt>
</event>
<event>
 4    1  0.1537855E-002  0.5120711E+02  0.7818608E-02  0.1438937E+00
         -3   -1    0    0  501    0 -0.00000000000E+00  0.00000000000E+00  0.41984378286E+00  0.43182149321E+00  0.10100000000E+00 0. -1.
          3   -1    0    0    0  501  0.00000000000E+00 -0.00000000000E+00 -0.15394241191E+04  0.15394241225E+04  0.10100000000E+00 0. -1.
          2    1    1    2    0  502 -0.15899838257E+02 -0.17908184599E+02 -0.49713967273E+03  0.49771614615E+03  0.25500000000E-02 0. -1.
         -2    1    1    2  502    0  0.15899838257E+02  0.17908184599E+02 -0.10418646026E+04  0.10421397978E+04  0.25500000000E-02 0. -1.
<mgrwt>
<rscale>  0 0.51207114E+02</rscale>
<asrwt>0</asrwt>
<pdfrwt beam="2">  1        3 0.23683095E+00 0.51207114E+02</pdfrwt>
<pdfrwt beam="1">  1       -3 0.65514201E-04 0.51207114E+02</pdfrwt>
<totfact> 0.26107530E+04</totfact>
</mgrwt>
</event>
<event>
 4    1  0.1537855E-002  0.8680676E+02  0.7818608E-02  0.1310774E+00
          3   -1    0    0    0  501  0.00000000000E+00  0.00000000000E+00  0.64125518384E+03  0.64125519179E+03  0.10100000000E+00 0.  1.
         -3   -1    0    0  501    0 -0.00000000000E+00 -0.00000000000E+00 -0.29368833853E+01  0.29386195771E+01  0.10100000000E+00 0.  1.
          2    1    1    2    0  502  0.38376053783E+02  0.14296897188E+02  0.42585941035E+03  0.42782398269E+03  0.25500000000E-02 0. -1.
         -2    1    1    2  502    0 -0.38376053783E+02 -0.14296897188E+02  0.21245889010E+03  0.21636982868E+03  0.25500000000E-02 0. -1.
<mgrwt>
<rscale>  0 0.86806762E+02</rscale>
<asrwt>0</asrwt>
<pdfrwt beam="1">  1        3 0.98654777E-01 0.86806762E+02</pdfrwt>
<pdfrwt beam="2">  1       -3 0.45196238E-03 0.86806762E+02</pdfrwt>
<totfact> 0.16961646E+04</totfact>
</mgrwt>
</event>
<event>
 4    1  0.1537855E-002  0.4384321E+02  0.7818608E-02  0.1481695E+00
         -3   -1    0    0  501    0 -0.00000000000E+00  0.00000000000E+00  0.32134785260E+03  0.32134786847E+03  0.10100000000E+00 0. -1.
          3   -1    0    0    0  501  0.00000000000E+00 -0.00000000000E+00 -0.14937198741E+01  0.14971306096E+01  0.10100000000E+00 0. -1.
          2    1    1    2    0  502  0.17766758718E+02 -0.11072714378E+02  0.20781559340E+03  0.20886738277E+03  0.25500000000E-02 0. -1.
         -2    1    1    2  502    0 -0.17766758718E+02  0.11072714378E+02  0.11203853932E+03  0.11397761631E+03  0.25500000000E-02 0. -1.
<mgrwt>
<rscale>  0 0.43843212E+02</rscale>
<asrwt>0</asrwt>
<pdfrwt beam="2">  1        3 0.23006677E-03 0.43843212E+02</pdfrwt>
<pdfrwt beam="1">  1       -3 0.49438367E-01 0.43843212E+02</pdfrwt>
<totfact> 0.15111024E+05</totfact>
</mgrwt>
</event>
<event>
 4    1  0.1537855E-002  0.8433721E+02  0.7818608E-02  0.1317175E+00
         -3   -1    0    0  501    0 -0.00000000000E+00  0.00000000000E+00  0.24251407296E+04  0.24251407317E+04  0.10100000000E+00 0. -1.
          3   -1    0    0    0  501  0.00000000000E+00 -0.00000000000E+00 -0.72975199691E+00  0.73670820342E+00  0.10100000000E+00 0. -1.
          2    1    1    2    0  502  0.30283269052E+02  0.26316982001E+02  0.15856189500E+04  0.15861264498E+04  0.25500000000E-02 0.  1.
         -2    1    1    2  502    0 -0.30283269052E+02 -0.26316982001E+02  0.83879202752E+03  0.83975099010E+03  0.25500000000E-02 0.  1.
<mgrwt>
<rscale>  0 0.84337211E+02</rscale>
<asrwt>0</asrwt>
<pdfrwt beam="2">  1        3 0.11280447E-03 0.84337211E+02</pdfrwt>
<pdfrwt beam="1">  1       -3 0.37310018E+00 0.84337211E+02</pdfrwt>
<totfact> 0.26981534E+03</totfact>
</mgrwt>
</event>
<event>
 4    1  0.1537855E-002  0.1744966E+03  0.7818608E-02  0.1173238E+00
         -3   -1    0    0  501    0 -0.00000000000E+00  0.00000000000E+00  0.18260705497E+03  0.18260708290E+03  0.10100000000E+00 0. -1.
          3   -1    0    0    0  501  0.00000000000E+00 -0.00000000000E+00 -0.41686492149E+02  0.41686614502E+02  0.10100000000E+00 0. -1.
          2    1    1    2    0  502  0.37340367694E+02  0.68382745874E+02  0.12093091172E+03  0.14385683303E+03  0.25500000000E-02 0. -1.
         -2    1    1    2  502    0 -0.37340367694E+02 -0.68382745874E+02  0.19989651100E+02  0.80436864375E+02  0.25500000000E-02 0. -1.
<mgrwt>
<rscale>  0 0.17449658E+03</rscale>
<asrwt>0</asrwt>
<pdfrwt beam="2">  1        3 0.64133179E-02 0.17449658E+03</pdfrwt>
<pdfrwt beam="1">  1       -3 0.28093405E-01 0.17449658E+03</pdfrwt>
<totfact> 0.44230635E+03</totfact>
</mgrwt>
</event>
<event>
 4    1  0.1537855E-002  0.8417161E+02  0.7818608E-02  0.1317613E+00
         -3   -1    0    0  501    0 -0.00000000000E+00  0.00000000000E+00  0.25225783688E+02  0.25225985881E+02  0.10100000000E+00 0. -1.
          3   -1    0    0    0  501  0.00000000000E+00 -0.00000000000E+00 -0.70213955825E+02  0.70214028467E+02  0.10100000000E+00 0. -1.
          2    1    1    2    0  502  0.31503893145E+02  0.13997499962E+02  0.48788157318E+01  0.34817066762E+02  0.25500000000E-02 0. -1.
         -2    1    1    2  502    0 -0.31503893145E+02 -0.13997499962E+02 -0.49866987869E+02  0.60622947586E+02  0.25500000000E-02 0. -1.
<mgrwt>
<rscale>  0 0.84171615E+02</rscale>
<asrwt>0</asrwt>
<pdfrwt beam="2">  1        3 0.10802168E-01 0.84171615E+02</pdfrwt>
<pdfrwt beam="1">  1       -3 0.38809110E-02 0.84171615E+02</pdfrwt>
<totfact> 0.43469946E+04</totfact>
</mgrwt>
</event>
<event>
 4    1  0.1537855E-002  0.5920146E+02  0.7818608E-02  0.1401214E+00
         -3   -1    0    0  501    0 -0.00000000000E+00  0.00000000000E+00  0.18257829026E+03  0.18257831820E+03  0.10100000000E+00 0. -1.
          3   -1    0    0    0  501  0.00000000000E+00 -0.00000000000E+00 -0.47984957768E+01  0.47995585964E+01  0.10100000000E+00 0. -1.
          2    1    1    2    0  502 -0.20685393002E+02  0.55253225897E+01  0.24195869356E+02  0.32308741445E+02  0.25500000000E-02 0.  1.
         -2    1    1    2  502    0  0.20685393002E+02 -0.55253225897E+01  0.15358392513E+03  0.15506913535E+03  0.25500000000E-02 0.  1.
<mgrwt>
<rscale>  0 0.59201464E+02</rscale>
<asrwt>0</asrwt>
<pdfrwt beam="2">  1        3 0.73831412E-03 0.59201464E+02</pdfrwt>
<pdfrwt beam="1">  1       -3 0.28089048E-01 0.59201464E+02</pdfrwt>
<totfact> 0.90679193E+04</totfact>
</mgrwt>
</event>
<event>
 4    1  0.1537855E-002  0.4570548E+02  0.7818608E-02  0.1469985E+00
         -3   -1    0    0  501    0 -0.00000000000E+00  0.00000000000E+00  0.12818472084E+01  0.12858200752E+01  0.10100000000E+00 0.  1.
          3   -1    0    0    0  501  0.00000000000E+00 -0.00000000000E+00 -0.40678370120E+03  0.40678371374E+03  0.10100000000E+00 0.  1.
          2    1    1    2    0  502  0.66320631287E+01  0.21785572469E+02 -0.18568823512E+03  0.18707943793E+03  0.25500000000E-02 0. -1.
         -2    1    1    2  502    0 -0.66320631287E+01 -0.21785572469E+02 -0.21981361888E+03  0.22099009588E+03  0.25500000000E-02 0. -1.
<mgrwt>
<rscale>  0 0.45705479E+02</rscale>
<asrwt>0</asrwt>
<pdfrwt beam="2">  1        3 0.62582312E-01 0.45705479E+02</pdfrwt>
<pdfrwt beam="1">  1       -3 0.19751416E-03 0.45705479E+02</pdfrwt>
<totfact> 0.11958530E+05</totfact>
</mgrwt>
</event>
<event>
 4    1  0.1537855E-002  0.6433842E+02  0.7818608E-02  0.1380478E+00
         -3   -1    0    0  501    0 -0.00000000000E+00  0.00000000000E+00  0.22755887646E+02  0.22756111784E+02  0.10100000000E+00 0. -1.
          3   -1    0    0    0  501  0.00000000000E+00 -0.00000000000E+00 -0.45475989259E+02  0.45476101417E+02  0.10100000000E+00 0. -1.
          2    1    1    2    0  502  0.12020939475E+02  0.23785444048E+02 -0.30467312516E+02  0.40478481603E+02  0.25500000000E-02 0.  1.
         -2    1    1    2  502    0 -0.12020939475E+02 -0.23785444048E+02  0.77472109024E+01  0.27753731599E+02  0.25500000000E-02 0.  1.
<mgrwt>
<rscale>  0 0.64338417E+02</rscale>
<asrwt>0</asrwt>
<pdfrwt beam="2">  1        3 0.69963319E-02 0.64338417E+02</pdfrwt>
<pdfrwt beam="1">  1       -3 0.35009317E-02 0.64338417E+02</pdfrwt>
<totfact> 0.94419187E+04</totfact>
</mgrwt>
</event>
<event>
 4    1  0.1537855E-002  0.4742002E+02  0.7818608E-02  0.1459776E+00
          3   -1    0    0    0  501  0.00000000000E+00  0.00000000000E+00  0.16168469724E+04  0.16168469756E+04  0.10100000000E+00 0. -1.
         -3   -1    0    0  501    0 -0.00000000000E+00 -0.00000000000E+00 -0.34035386144E+00  0.35502359217E+00  0.10100000000E+00 0. -1.
          2    1    1    2    0  502 -0.15645099356E+02  0.14985528208E+02  0.47967019456E+03  0.48015917231E+03  0.25500000000E-02 0. -1.
         -2    1    1    2  502    0  0.15645099356E+02 -0.14985528208E+02  0.11368364240E+04  0.11370428268E+04  0.25500000000E-02 0. -1.
<mgrwt>
<rscale>  0 0.47420020E+02</rscale>
<asrwt>0</asrwt>
<pdfrwt beam="1">  1        3 0.24874639E+00 0.47420020E+02</pdfrwt>
<pdfrwt beam="2">  1       -3 0.53490908E-04 0.47420020E+02</pdfrwt>
<totfact> 0.29341361E+04</totfact>
</mgrwt>
</event>
<event>
 4    1  0.1537855E-002  0.7128242E+02  0.7818608E-02  0.1355786E+00
          3   -1    0    0    0  501  0.00000000000E+00  0.00000000000E+00  0.81981391548E+01  0.81987612846E+01  0.10100000000E+00 0.  1.
         -3   -1    0    0  501    0 -0.00000000000E+00 -0.00000000000E+00 -0.15494276510E+03  0.15494279802E+03  0.10100000000E+00 0.  1.
          2    1    1    2    0  502  0.21661733742E+02 -0.28288367216E+02 -0.75461585684E+02  0.83450065002E+02  0.25500000000E-02 0.  1.
         -2    1    1    2  502    0 -0.21661733742E+02  0.28288367216E+02 -0.71283040259E+02  0.79691494299E+02  0.25500000000E-02 0.  1.
<mgrwt>
<rscale>  0 0.71282418E+02</rscale>
<asrwt>0</asrwt>
<pdfrwt beam="1">  1        3 0.12613027E-02 0.71282418E+02</pdfrwt>
<pdfrwt beam="2">  1       -3 0.23837397E-01 0.71282418E+02</pdfrwt>
<totfact> 0.58782523E+04</totfact>
</mgrwt>
</event>
<event>
 4    1  0.1537855E-002  0.5700847E+02  0.7818608E-02  0.1410833E+00
          3   -1    0    0    0  501  0.00000000000E+00  0.00000000000E+00  0.11417567410E+01  0.11462152746E+01  0.10100000000E+00 0. -1.
         -3   -1    0    0  501    0 -0.00000000000E+00 -0.00000000000E+00 -0.71022410800E+03  0.71022411518E+03  0.10100000000E+00 0. -1.
          2    1    1    2    0  502 -0.14848552015E+02 -0.17657900560E+02 -0.14566033836E+03  0.14747615104E+03  0.25500000000E-02 0.  1.
         -2    1    1    2  502    0  0.14848552015E+02  0.17657900560E+02 -0.56342201290E+03  0.56389417941E+03  0.25500000000E-02 0.  1.
<mgrwt>
<rscale>  0 0.57008475E+02</rscale>
<asrwt>0</asrwt>
<pdfrwt beam="1">  1        3 0.17599897E-03 0.57008475E+02</pdfrwt>
<pdfrwt beam="2">  1       -3 0.10926524E+00 0.57008475E+02</pdfrwt>
<totfact> 0.46192605E+04</totfact>
</mgrwt>
</event>
<event>
 4    1  0.1537855E-002  0.7083734E+02  0.7818608E-02  0.1357269E+00
         -3   -1    0    0  501    0 -0.00000000000E+00  0.00000000000E+00  0.25556363964E+02  0.25556563541E+02  0.10100000000E+00 0. -1.
          3   -1    0    0    0  501  0.00000000000E+00 -0.00000000000E+00 -0.49086440388E+02  0.49086544297E+02  0.10100000000E+00 0. -1.
          2    1    1    2    0  502  0.16563039661E+02 -0.18251065490E+02 -0.38568767860E+02  0.45771011951E+02  0.25500000000E-02 0. -1.
         -2    1    1    2  502    0 -0.16563039661E+02  0.18251065490E+02  0.15038691435E+02  0.28872095887E+02  0.25500000000E-02 0. -1.
<mgrwt>
<rscale>  0 0.70837342E+02</rscale>
<asrwt>0</asrwt>
<pdfrwt beam="2">  1        3 0.75517834E-02 0.70837342E+02</pdfrwt>
<pdfrwt beam="1">  1       -3 0.39317717E-02 0.70837342E+02</pdfrwt>
<totfact> 0.72209052E+04</totfact>
</mgrwt>
</event>
<event>
 4    1  0.1537855E-002  0.4782631E+02  0.7818608E-02  0.1457431E+00
         -3   -1    0    0  501    0 -0.00000000000E+00  0.00000000000E+00  0.62628137724E+02  0.62628219165E+02  0.10100000000E+00 0.  1.
          3   -1    0    0    0  501  0.00000000000E+00 -0.00000000000E+00 -0.91303389206E+01  0.91308975356E+01  0.10100000000E+00 0.  1.
          2    1    1    2    0  502  0.23434956164E+02 -0.46814684840E+01  0.25470672608E+02  0.34926615742E+02  0.25500000000E-02 0.  1.
         -2    1    1    2  502    0 -0.23434956164E+02  0.46814684840E+01  0.28027126195E+02  0.36832500958E+02  0.25500000000E-02 0.  1.
<mgrwt>
<rscale>  0 0.47826314E+02</rscale>
<asrwt>0</asrwt>
<pdfrwt beam="2">  1        3 0.14047167E-02 0.47826314E+02</pdfrwt>
<pdfrwt beam="1">  1       -3 0.96351475E-02 0.47826314E+02</pdfrwt>
<totfact> 0.19975723E+05</totfact>
</mgrwt>
</event>
<event>
 4    1  0.1537855E-002  0.6246685E+02  0.7818608E-02  0.1387762E+00
         -3   -1    0    0  501    0 -0.00000000000E+00  0.00000000000E+00  0.61192072981E+01  0.61200407643E+01  0.10100000000E+00 0.  1.
          3   -1    0    0    0  501  0.00000000000E+00 -0.00000000000E+00 -0.15940877497E+03  0.15940880696E+03  0.10100000000E+00 0.  1.
          2    1    1    2    0  502  0.93749177569E+01 -0.20048025624E+02 -0.13504502114E+03  0.13684652043E+03  0.25500000000E-02 0. -1.
         -2    1    1    2  502    0 -0.93749177569E+01  0.20048025624E+02 -0.18244546532E+02  0.28682327295E+02  0.25500000000E-02 0. -1.
<mgrwt>
<rscale>  0 0.62466854E+02</rscale>
<asrwt>0</asrwt>
<pdfrwt beam="2">  1        3 0.24524490E-01 0.62466854E+02</pdfrwt>
<pdfrwt beam="1">  1       -3 0.94148320E-03 0.62466854E+02</pdfrwt>
<totfact> 0.82459495E+04</totfact>
</mgrwt>
</event>
<event>
 4    1  0.1537855E-002  0.5090702E+02  0.7818608E-02  0.1440510E+00
         -3   -1    0    0  501    0 -0.00000000000E+00  0.00000000000E+00  0.52494868976E+01  0.52504584264E+01  0.10100000000E+00 0.  1.
          3   -1    0    0    0  501  0.00000000000E+00 -0.00000000000E+00 -0.12340560924E+03  0.12340565057E+03  0.10100000000E+00 0.  1.
          2    1    1    2    0  502 -0.15898868483E+02  0.18641956314E+02 -0.76511636918E+02  0.80338827130E+02  0.25500000000E-02 0. -1.
         -2    1    1    2  502    0  0.15898868483E+02 -0.18641956314E+02 -0.41644485420E+02  0.48317281863E+02  0.25500000000E-02 0. -1.
<mgrwt>
<rscale>  0 0.50907024E+02</rscale>
<asrwt>0</asrwt>
<pdfrwt beam="2">  1        3 0.18985554E-01 0.50907024E+02</pdfrwt>
<pdfrwt beam="1">  1       -3 0.80769137E-03 0.50907024E+02</pdfrwt>
<totfact> 0.14971249E+05</totfact>
</mgrwt>
</event>
<event>
 4    1  0.1537855E-002  0.5453199E+02  0.7818608E-02  0.1422325E+00
         -3   -1    0    0  501    0 -0.00000000000E+00  0.00000000000E+00  0.29072009606E+02  0.29072185049E+02  0.10100000000E+00 0. -1.
          3   -1    0    0    0  501  0.00000000000E+00 -0.00000000000E+00 -0.25571825629E+02  0.25572025086E+02  0.10100000000E+00 0. -1.
          2    1    1    2    0  502  0.11146542909E+02 -0.24781988896E+02  0.40001980730E+01  0.27466233517E+02  0.25500000000E-02 0.  1.
         -2    1    1    2  502    0 -0.11146542909E+02  0.24781988896E+02 -0.50001409573E+00  0.27177976618E+02  0.25500000000E-02 0.  1.
<mgrwt>
<rscale>  0 0.54531994E+02</rscale>
<asrwt>0</asrwt>
<pdfrwt beam="2">  1        3 0.39341559E-02 0.54531994E+02</pdfrwt>
<pdfrwt beam="1">  1       -3 0.44726457E-02 0.54531994E+02</pdfrwt>
<totfact> 0.14977628E+05</totfact>
</mgrwt>
</event>
<event>
 4    1  0.1537855E-002  0.6436141E+02  0.7818608E-02  0.1380390E+00
         -3   -1    0    0  501    0 -0.00000000000E+00  0.00000000000E+00  0.24644906805E+02  0.24645113763E+02  0.10100000000E+00 0. -1.
          3   -1    0    0    0  501  0.00000000000E+00 -0.00000000000E+00 -0.42020318410E+02  0.42020439792E+02  0.10100000000E+00 0. -1.
          2    1    1    2    0  502  0.74071690808E+01 -0.30192036193E+02 -0.17302459835E+02  0.35578087725E+02  0.25500000000E-02 0.  1.
         -2    1    1    2  502    0 -0.74071690808E+01  0.30192036193E+02 -0.72951770534E-01  0.31087465830E+02  0.25500000000E-02 0.  1.
<mgrwt>
<rscale>  0 0.64361410E+02</rscale>
<asrwt>0</asrwt>
<pdfrwt beam="2">  1        3 0.64646896E-02 0.64361410E+02</pdfrwt>
<pdfrwt beam="1">  1       -3 0.37915494E-02 0.64361410E+02</pdfrwt>
<totfact> 0.94693814E+04</totfact>
</mgrwt>
</event>
<event>
 4    1  0.1537855E-002  0.4720601E+02  0.7818608E-02  0.1461022E+00
          3   -1    0    0    0  501  0.00000000000E+00  0.00000000000E+00  0.19302385240E+01  0.19328791374E+01  0.10100000000E+00 0. -1.
         -3   -1    0    0  501    0 -0.00000000000E+00 -0.00000000000E+00 -0.28841820627E+03  0.28841822395E+03  0.10100000000E+00 0. -1.
          2    1    1    2    0  502 -0.21705465799E+02 -0.14206290351E+01 -0.19960166543E+03  0.20078339145E+03  0.25500000000E-02 0. -1.
         -2    1    1    2  502    0  0.21705465799E+02  0.14206290351E+01 -0.86886302311E+02  0.89567711638E+02  0.25500000000E-02 0. -1.
<mgrwt>
<rscale>  0 0.47206010E+02</rscale>
<asrwt>0</asrwt>
<pdfrwt beam="1">  1        3 0.29716449E-03 0.47206010E+02</pdfrwt>
<pdfrwt beam="2">  1       -3 0.44372202E-01 0.47206010E+02</pdfrwt>
<totfact> 0.13302466E+05</totfact>
</mgrwt>
</event>
<event>
 4    1  0.1537855E-002  0.5816866E+02  0.7818608E-02  0.1405682E+00
          3   -1    0    0    0  501  0.00000000000E+00  0.00000000000E+00  0.57847911497E+02  0.57847999668E+02  0.10100000000E+00 0. -1.
         -3   -1    0    0  501    0 -0.00000000000E+00 -0.00000000000E+00 -0.14622523177E+02  0.14622871984E+02  0.10100000000E+00 0. -1.
          2    1    1    2    0  502  0.19306338720E+02  0.21204492237E+02  0.27656541929E+02  0.39840300246E+02  0.25500000000E-02 0.  1.
         -2    1    1    2  502    0 -0.19306338720E+02 -0.21204492237E+02  0.15568846392E+02  0.32630571406E+02  0.25500000000E-02 0.  1.
<mgrwt>
<rscale>  0 0.58168660E+02</rscale>
<asrwt>0</asrwt>
<pdfrwt beam="1">  1        3 0.88997123E-02 0.58168660E+02</pdfrwt>
<pdfrwt beam="2">  1       -3 0.22496526E-02 0.58168660E+02</pdfrwt>
<totfact> 0.12133617E+05</totfact>
</mgrwt>
</event>
<event>
 4    1  0.1537855E-002  0.6952390E+02  0.7818608E-02  0.1361720E+00
          3   -1    0    0    0  501  0.00000000000E+00  0.00000000000E+00  0.97587942593E+03  0.97587943115E+03  0.10100000000E+00 0. -1.
         -3   -1    0    0  501    0 -0.00000000000E+00 -0.00000000000E+00 -0.12361960398E+01  0.12403151410E+01  0.10100000000E+00 0. -1.
          2    1    1    2    0  502 -0.30519217989E+02 -0.13340394631E+02  0.62716470733E+03  0.62804853230E+03  0.25500000000E-02 0. -1.
         -2    1    1    2  502    0  0.30519217989E+02  0.13340394631E+02  0.34747852255E+03  0.34907121399E+03  0.25500000000E-02 0. -1.
<mgrwt>
<rscale>  0 0.69523903E+02</rscale>
<asrwt>0</asrwt>
<pdfrwt beam="1">  1        3 0.15013601E+00 0.69523903E+02</pdfrwt>
<pdfrwt beam="2">  1       -3 0.19050076E-03 0.69523903E+02</pdfrwt>
<totfact> 0.20854662E+04</totfact>
</mgrwt>
</event>
<event>
 4    1  0.1537855E-002  0.4557968E+02  0.7818608E-02  0.1470755E+00
         -3   -1    0    0  501    0 -0.00000000000E+00  0.00000000000E+00  0.12630173019E+02  0.12630576847E+02  0.10100000000E+00 0. -1.
          3   -1    0    0    0  501  0.00000000000E+00 -0.00000000000E+00 -0.41120784300E+02  0.41120908337E+02  0.10100000000E+00 0. -1.
          2    1    1    2    0  502  0.17888442237E+02  0.11518560048E+02 -0.23876775317E+02  0.31980837971E+02  0.25500000000E-02 0. -1.
         -2    1    1    2  502    0 -0.17888442237E+02 -0.11518560048E+02 -0.46138359639E+01  0.21770647213E+02  0.25500000000E-02 0. -1.
<mgrwt>
<rscale>  0 0.45579680E+02</rscale>
<asrwt>0</asrwt>
<pdfrwt beam="2">  1        3 0.63263151E-02 0.45579680E+02</pdfrwt>
<pdfrwt beam="1">  1       -3 0.19431442E-02 0.45579680E+02</pdfrwt>
<totfact> 0.23602336E+05</totfact>
</mgrwt>
</event>
<event>
 4    1  0.1537855E-002  0.4468266E+02  0.7818608E-02  0.1476333E+00
          3   -1    0    0    0  501  0.00000000000E+00  0.00000000000E+00  0.10448913455E+03  0.10448918336E+03  0.10100000000E+00 0.  1.
         -3   -1    0    0  501    0 -0.00000000000E+00 -0.00000000000E+00 -0.47763238008E+01  0.47773915530E+01  0.10100000000E+00 0.  1.
          2    1    1    2    0  502  0.15887703155E+02 -0.15333417153E+02  0.41526934083E+02  0.47032106628E+02  0.25500000000E-02 0. -1.
         -2    1    1    2  502    0 -0.15887703155E+02  0.15333417153E+02  0.58185876662E+02  0.62234468284E+02  0.25500000000E-02 0. -1.
<mgrwt>
<rscale>  0 0.44682656E+02</rscale>
<asrwt>0</asrwt>
<pdfrwt beam="1">  1        3 0.16075336E-01 0.44682656E+02</pdfrwt>
<pdfrwt beam="2">  1       -3 0.73490499E-03 0.44682656E+02</pdfrwt>
<totfact> 0.21619315E+05</totfact>
</mgrwt>
</event>
<event>
 4    1  0.1537855E-002  0.9179920E+02  0.7818608E-02  0.1298552E+00
         -3   -1    0    0  501    0 -0.00000000000E+00  0.00000000000E+00  0.16091304771E+03  0.16091307940E+03  0.10100000000E+00 0.  1.
          3   -1    0    0    0  501  0.00000000000E+00 -0.00000000000E+00 -0.13092390871E+02  0.13092780442E+02  0.10100000000E+00 0.  1.
          2    1    1    2    0  502 -0.43117289189E+02 -0.14347205165E+02  0.86169755106E+02  0.97417501634E+02  0.25500000000E-02 0. -1.
         -2    1    1    2  502    0  0.43117289189E+02  0.14347205165E+02  0.61650901730E+02  0.76588358212E+02  0.25500000000E-02 0. -1.
<mgrwt>
<rscale>  0 0.91799198E+02</rscale>
<asrwt>0</asrwt>
<pdfrwt beam="2">  1        3 0.20142464E-02 0.91799198E+02</pdfrwt>
<pdfrwt beam="1">  1       -3 0.24755886E-01 0.91799198E+02</pdfrwt>
<totfact> 0.29354152E+04</totfact>
</mgrwt>
</event>
<event>
 4    1  0.1537855E-002  0.6300532E+02  0.7818608E-02  0.1385636E+00
         -3   -1    0    0  501    0 -0.00000000000E+00  0.00000000000E+00  0.93213789484E+01  0.93219261153E+01  0.10100000000E+00 0. -1.
          3   -1    0    0    0  501  0.00000000000E+00 -0.00000000000E+00 -0.10646313354E+03  0.10646318145E+03  0.10100000000E+00 0. -1.
          2    1    1    2    0  502  0.26829844793E+02  0.42469878376E+00 -0.78901155807E+02  0.83339146473E+02  0.25500000000E-02 0. -1.
         -2    1    1    2  502    0 -0.26829844793E+02 -0.42469878376E+00 -0.18240598789E+02  0.32445961095E+02  0.25500000000E-02 0. -1.
<mgrwt>
<rscale>  0 0.63005322E+02</rscale>
<asrwt>0</asrwt>
<pdfrwt beam="2">  1        3 0.16378989E-01 0.63005322E+02</pdfrwt>
<pdfrwt beam="1">  1       -3 0.14341041E-02 0.63005322E+02</pdfrwt>
<totfact> 0.89394930E+04</totfact>
</mgrwt>
</event>
<event>
 4    1  0.1537855E-002  0.6871487E+02  0.7818608E-02  0.1364519E+00
         -3   -1    0    0  501    0 -0.00000000000E+00  0.00000000000E+00  0.14729164572E+02  0.14729510853E+02  0.10100000000E+00 0.  1.
          3   -1    0    0    0  501  0.00000000000E+00 -0.00000000000E+00 -0.80141264369E+02  0.80141328013E+02  0.10100000000E+00 0.  1.
          2    1    1    2    0  502  0.91298038101E+01 -0.19332920903E+02 -0.69837909594E+02  0.73037310816E+02  0.25500000000E-02 0. -1.
         -2    1    1    2  502    0 -0.91298038101E+01  0.19332920903E+02  0.44258097970E+01  0.21833528050E+02  0.25500000000E-02 0. -1.
<mgrwt>
<rscale>  0 0.68714869E+02</rscale>
<asrwt>0</asrwt>
<pdfrwt beam="2">  1        3 0.12329457E-01 0.68714869E+02</pdfrwt>
<pdfrwt beam="1">  1       -3 0.22660569E-02 0.68714869E+02</pdfrwt>
<totfact> 0.74667316E+04</totfact>
</mgrwt>
</event>
<event>
 4    1  0.1537855E-002  0.4259656E+02  0.7818608E-02  0.1489929E+00
         -3   -1    0    0  501    0 -0.00000000000E+00  0.00000000000E+00  0.28149625243E+02  0.28149806435E+02  0.10100000000E+00 0. -1.
          3   -1    0    0    0  501  0.00000000000E+00 -0.00000000000E+00 -0.16114095570E+02  0.16114412091E+02  0.10100000000E+00 0. -1.
          2    1    1    2    0  502 -0.17940538553E+02 -0.11029270153E+02  0.93217123629E+01  0.23030459213E+02  0.25500000000E-02 0. -1.
         -2    1    1    2  502    0  0.17940538553E+02  0.11029270153E+02  0.27138173110E+01  0.21233759313E+02  0.25500000000E-02 0. -1.
<mgrwt>
<rscale>  0 0.42596562E+02</rscale>
<asrwt>0</asrwt>
<pdfrwt beam="2">  1        3 0.24791300E-02 0.42596562E+02</pdfrwt>
<pdfrwt beam="1">  1       -3 0.43307498E-02 0.42596562E+02</pdfrwt>
<totfact> 0.28660309E+05</totfact>
</mgrwt>
</event>
<event>
 4    1  0.1537855E-002  0.4738579E+02  0.7818608E-02  0.1459974E+00
          3   -1    0    0    0  501  0.00000000000E+00  0.00000000000E+00  0.15034867873E+02  0.15035207114E+02  0.10100000000E+00 0. -1.
         -3   -1    0    0  501    0 -0.00000000000E+00 -0.00000000000E+00 -0.37335938669E+02  0.37336075280E+02  0.10100000000E+00 0. -1.
          2    1    1    2    0  502 -0.16073702047E+02  0.16957654595E+02 -0.15491553377E+02  0.28034160936E+02  0.25500000000E-02 0. -1.
         -2    1    1    2  502    0  0.16073702047E+02 -0.16957654595E+02 -0.68095174202E+01  0.24337121458E+02  0.25500000000E-02 0. -1.
<mgrwt>
<rscale>  0 0.47385794E+02</rscale>
<asrwt>0</asrwt>
<pdfrwt beam="1">  1        3 0.23130932E-02 0.47385794E+02</pdfrwt>
<pdfrwt beam="2">  1       -3 0.57440272E-02 0.47385794E+02</pdfrwt>
<totfact> 0.21499337E+05</totfact>
</mgrwt>
</event>
<event>
 4    1  0.1537855E-002  0.9057565E+02  0.7818608E-02  0.1301464E+00
         -3   -1    0    0  501    0 -0.00000000000E+00  0.00000000000E+00  0.11503850949E+02  0.11504294314E+02  0.10100000000E+00 0.  1.
          3   -1    0    0    0  501  0.00000000000E+00 -0.00000000000E+00 -0.17828311708E+03  0.17828314569E+03  0.10100000000E+00 0.  1.
          2    1    1    2    0  502  0.15652816294E+02  0.29285237701E+02 -0.14791650887E+03  0.15159792019E+03  0.25500000000E-02 0.  1.
         -2    1    1    2  502    0 -0.15652816294E+02 -0.29285237701E+02 -0.18862757264E+02  0.38189519809E+02  0.25500000000E-02 0.  1.
<mgrwt>
<rscale>  0 0.90575652E+02</rscale>
<asrwt>0</asrwt>
<pdfrwt beam="2">  1        3 0.27428206E-01 0.90575652E+02</pdfrwt>
<pdfrwt beam="1">  1       -3 0.17698597E-02 0.90575652E+02</pdfrwt>
<totfact> 0.29557873E+04</totfact>
</mgrwt>
</event>
<event>
 4    1  0.1537855E-002  0.4686867E+02  0.7818608E-02  0.1463002E+00
         -3   -1    0    0  501    0 -0.00000000000E+00  0.00000000000E+00  0.61688732201E+02  0.61688814883E+02  0.10100000000E+00 0.  1.
          3   -1    0    0    0  501  0.00000000000E+00 -0.00000000000E+00 -0.89018663332E+01  0.89024392845E+01  0.10100000000E+00 0.  1.
          2    1    1    2    0  502  0.66334870094E+01 -0.19838162730E+02  0.10481461240E+02  0.23396941822E+02  0.25500000000E-02 0. -1.
         -2    1    1    2  502    0 -0.66334870094E+01  0.19838162730E+02  0.42305404628E+02  0.47194312345E+02  0.25500000000E-02 0. -1.
<mgrwt>
<rscale>  0 0.46868667E+02</rscale>
<asrwt>0</asrwt>
<pdfrwt beam="2">  1        3 0.13695683E-02 0.46868667E+02</pdfrwt>
<pdfrwt beam="1">  1       -3 0.94906247E-02 0.46868667E+02</pdfrwt>
<totfact> 0.21072802E+05</totfact>
</mgrwt>
</event>
<event>
 4    1  0.1537855E-002  0.1179274E+03  0.7818608E-02  0.1246556E+00
         -3   -1    0    0  501    0 -0.00000000000E+00  0.00000000000E+00  0.69498071215E+02  0.69498144606E+02  0.10100000000E+00 0. -1.
          3   -1    0    0    0  501  0.00000000000E+00 -0.00000000000E+00 -0.50025987146E+02  0.50026089103E+02  0.10100000000E+00 0. -1.
          2    1    1    2    0  502  0.51609155746E+01  0.56321990388E+02  0.26632660178E+02  0.62514800212E+02  0.25500000000E-02 0.  1.
         -2    1    1    2  502    0 -0.51609155746E+01 -0.56321990388E+02 -0.71605761087E+01  0.57009433496E+02  0.25500000000E-02 0.  1.
<mgrwt>
<rscale>  0 0.11792744E+03</rscale>
<asrwt>0</asrwt>
<pdfrwt beam="2">  1        3 0.76963192E-02 0.11792744E+03</pdfrwt>
<pdfrwt beam="1">  1       -3 0.10692024E-01 0.11792744E+03</pdfrwt>
<totfact> 0.16357232E+04</totfact>
</mgrwt>
</event>
<event>
 4    1  0.1537855E-002  0.4777749E+02  0.7818608E-02  0.1457712E+00
          3   -1    0    0    0  501  0.00000000000E+00  0.00000000000E+00  0.24940293051E+03  0.24940295097E+03  0.10100000000E+00 0. -1.
         -3   -1    0    0  501    0 -0.00000000000E+00 -0.00000000000E+00 -0.22870181555E+01  0.22892472657E+01  0.10100000000E+00 0. -1.
          2    1    1    2    0  502 -0.18588435042E+02 -0.14847095714E+02  0.11212995726E+03  0.11462588491E+03  0.25500000000E-02 0.  1.
         -2    1    1    2  502    0  0.18588435042E+02  0.14847095714E+02  0.13498595510E+03  0.13706631332E+03  0.25500000000E-02 0.  1.
<mgrwt>
<rscale>  0 0.47777490E+02</rscale>
<asrwt>0</asrwt>
<pdfrwt beam="1">  1        3 0.38369848E-01 0.47777490E+02</pdfrwt>
<pdfrwt beam="2">  1       -3 0.35202206E-03 0.47777490E+02</pdfrwt>
<totfact> 0.13806871E+05</totfact>
</mgrwt>
</event>
<event>
 4    1  0.1537855E-002  0.4244376E+02  0.7818608E-02  0.1490961E+00
         -3   -1    0    0  501    0 -0.00000000000E+00  0.00000000000E+00  0.98745564650E+01  0.98750729810E+01  0.10100000000E+00 0. -1.
          3   -1    0    0    0  501  0.00000000000E+00 -0.00000000000E+00 -0.45607181269E+02  0.45607293105E+02  0.10100000000E+00 0. -1.
          2    1    1    2    0  502 -0.17513177406E+02  0.11625364906E+02 -0.14053502258E+02  0.25285597171E+02  0.25500000000E-02 0. -1.
         -2    1    1    2  502    0  0.17513177406E+02 -0.11625364906E+02 -0.21679122546E+02  0.30196768915E+02  0.25500000000E-02 0. -1.
<mgrwt>
<rscale>  0 0.42443757E+02</rscale>
<asrwt>0</asrwt>
<pdfrwt beam="2">  1        3 0.70165376E-02 0.42443757E+02</pdfrwt>
<pdfrwt beam="1">  1       -3 0.15192109E-02 0.42443757E+02</pdfrwt>
<totfact> 0.28030853E+05</totfact>
</mgrwt>
</event>
<event>
 4    1  0.1537855E-002  0.1341431E+03  0.7818608E-02  0.1221434E+00
          3   -1    0    0    0  501  0.00000000000E+00  0.00000000000E+00  0.25156509695E+04  0.25156509716E+04  0.10100000000E+00 0.  1.
         -3   -1    0    0  501    0 -0.00000000000E+00 -0.00000000000E+00 -0.17868147107E+01  0.17896669551E+01  0.10100000000E+00 0.  1.
          2    1    1    2    0  502  0.28270266381E+02 -0.55027298599E+02  0.77066364525E+03  0.77314272012E+03  0.25500000000E-02 0. -1.
         -2    1    1    2  502    0 -0.28270266381E+02  0.55027298599E+02  0.17432005096E+04  0.17442979184E+04  0.25500000000E-02 0. -1.
<mgrwt>
<rscale>  0 0.13414313E+03</rscale>
<asrwt>0</asrwt>
<pdfrwt beam="1">  1        3 0.38702521E+00 0.13414313E+03</pdfrwt>
<pdfrwt beam="2">  1       -3 0.27511288E-03 0.13414313E+03</pdfrwt>
<totfact> 0.69923187E+02</totfact>
</mgrwt>
</event>
<event>
 4    1  0.1537855E-002  0.4038546E+02  0.7818608E-02  0.1505394E+00
          3   -1    0    0    0  501  0.00000000000E+00  0.00000000000E+00  0.13434459465E+02  0.13434839117E+02  0.10100000000E+00 0. -1.
         -3   -1    0    0  501    0 -0.00000000000E+00 -0.00000000000E+00 -0.30349884420E+02  0.30350052476E+02  0.10100000000E+00 0. -1.
          2    1    1    2    0  502 -0.14496295647E+02  0.14056668032E+02 -0.83304779148E+01  0.21843291245E+02  0.25500000000E-02 0. -1.
         -2    1    1    2  502    0  0.14496295647E+02 -0.14056668032E+02 -0.85849470405E+01  0.21941600348E+02  0.25500000000E-02 0. -1.
<mgrwt>
<rscale>  0 0.40385457E+02</rscale>
<asrwt>0</asrwt>
<pdfrwt beam="1">  1        3 0.20668821E-02 0.40385457E+02</pdfrwt>
<pdfrwt beam="2">  1       -3 0.46692551E-02 0.40385457E+02</pdfrwt>
<totfact> 0.32711048E+05</totfact>
</mgrwt>
</event>
<event>
 4    1  0.1537855E-002  0.7884505E+02  0.7818608E-02  0.1332361E+00
          3   -1    0    0    0  501  0.00000000000E+00  0.00000000000E+00  0.33014577070E+02  0.33014731562E+02  0.10100000000E+00 0.  1.
         -3   -1    0    0  501    0 -0.00000000000E+00 -0.00000000000E+00 -0.47073903518E+02  0.47074011868E+02  0.10100000000E+00 0.  1.
          2    1    1    2    0  502  0.73457921249E-01  0.24293812958E+02 -0.38566796769E+02  0.45580616095E+02  0.25500000000E-02 0. -1.
         -2    1    1    2  502    0 -0.73457921249E-01 -0.24293812958E+02  0.24507470321E+02  0.34508127335E+02  0.25500000000E-02 0. -1.
<mgrwt>
<rscale>  0 0.78845052E+02</rscale>
<asrwt>0</asrwt>
<pdfrwt beam="1">  1        3 0.50791859E-02 0.78845052E+02</pdfrwt>
<pdfrwt beam="2">  1       -3 0.72421592E-02 0.78845052E+02</pdfrwt>
<totfact> 0.53629590E+04</totfact>
</mgrwt>
</event>
<event>
 4    1  0.1537855E-002  0.5306758E+02  0.7818608E-02  0.1429465E+00
         -3   -1    0    0  501    0 -0.00000000000E+00  0.00000000000E+00  0.20013067582E+01  0.20038537223E+01  0.10100000000E+00 0.  1.
          3   -1    0    0    0  501  0.00000000000E+00 -0.00000000000E+00 -0.35156486682E+03  0.35156488133E+03  0.10100000000E+00 0.  1.
          2    1    1    2    0  502  0.13660967945E+02 -0.22255397704E+02 -0.20611532819E+03  0.20776297383E+03  0.25500000000E-02 0. -1.
         -2    1    1    2  502    0 -0.13660967945E+02  0.22255397704E+02 -0.14344823188E+03  0.14580576123E+03  0.25500000000E-02 0. -1.
<mgrwt>
<rscale>  0 0.53067578E+02</rscale>
<asrwt>0</asrwt>
<pdfrwt beam="2">  1        3 0.54087050E-01 0.53067578E+02</pdfrwt>
<pdfrwt beam="1">  1       -3 0.30809066E-03 0.53067578E+02</pdfrwt>
<totfact> 0.89794860E+04</totfact>
</mgrwt>
</event>
<event>
 4    1  0.1537855E-002  0.5265354E+02  0.7818608E-02  0.1431533E+00
          3   -1    0    0    0  501  0.00000000000E+00  0.00000000000E+00  0.14920060605E+03  0.14920064023E+03  0.10100000000E+00 0.  1.
         -3   -1    0    0  501    0 -0.00000000000E+00 -0.00000000000E+00 -0.46448312150E+01  0.46459291875E+01  0.10100000000E+00 0.  1.
          2    1    1    2    0  502 -0.19773947489E+02 -0.16963595251E+02  0.61218653515E+02  0.66531917963E+02  0.25500000000E-02 0.  1.
         -2    1    1    2  502    0  0.19773947489E+02  0.16963595251E+02  0.83337121315E+02  0.87314651455E+02  0.25500000000E-02 0.  1.
<mgrwt>
<rscale>  0 0.52653536E+02</rscale>
<asrwt>0</asrwt>
<pdfrwt beam="1">  1        3 0.22954026E-01 0.52653536E+02</pdfrwt>
<pdfrwt beam="2">  1       -3 0.71467653E-03 0.52653536E+02</pdfrwt>
<totfact> 0.13044830E+05</totfact>
</mgrwt>
</event>
<event>
 4    1  0.1537855E-002  0.4670567E+02  0.7818608E-02  0.1463966E+00
         -3   -1    0    0  501    0 -0.00000000000E+00  0.00000000000E+00  0.52005088716E+02  0.52005186792E+02  0.10100000000E+00 0.  1.
          3   -1    0    0    0  501  0.00000000000E+00 -0.00000000000E+00 -0.10486214698E+02  0.10486701087E+02  0.10100000000E+00 0.  1.
          2    1    1    2    0  502 -0.51362162082E+01  0.22758156293E+02  0.19394692242E+02  0.30339223597E+02  0.25500000000E-02 0. -1.
         -2    1    1    2  502    0  0.51362162082E+01 -0.22758156293E+02  0.22124181775E+02  0.32152664283E+02  0.25500000000E-02 0. -1.
<mgrwt>
<rscale>  0 0.46705665E+02</rscale>
<asrwt>0</asrwt>
<pdfrwt beam="2">  1        3 0.16133087E-02 0.46705665E+02</pdfrwt>
<pdfrwt beam="1">  1       -3 0.80008280E-02 0.46705665E+02</pdfrwt>
<totfact> 0.21702540E+05</totfact>
</mgrwt>
</event>
<event>
 4    1  0.1537855E-002  0.9649273E+02  0.7818608E-02  0.1287849E+00
          3   -1    0    0    0  501  0.00000000000E+00  0.00000000000E+00  0.54218825196E+02  0.54218919268E+02  0.10100000000E+00 0.  1.
         -3   -1    0    0  501    0 -0.00000000000E+00 -0.00000000000E+00 -0.42931605193E+02  0.42931723998E+02  0.10100000000E+00 0.  1.
          2    1    1    2    0  502  0.36743061986E+02  0.76259750196E+00  0.37114975238E+02  0.52231748511E+02  0.25500000000E-02 0. -1.
         -2    1    1    2  502    0 -0.36743061986E+02 -0.76259750196E+00 -0.25827755235E+02  0.44918894755E+02  0.25500000000E-02 0. -1.
<mgrwt>
<rscale>  0 0.96492726E+02</rscale>
<asrwt>0</asrwt>
<pdfrwt beam="1">  1        3 0.83413741E-02 0.96492726E+02</pdfrwt>
<pdfrwt beam="2">  1       -3 0.66048787E-02 0.96492726E+02</pdfrwt>
<totfact> 0.29875110E+04</totfact>
</mgrwt>
</event>
<event>
 4    1  0.1537855E-002  0.8473246E+02  0.7818608E-02  0.1316134E+00
          3   -1    0    0    0  501  0.00000000000E+00  0.00000000000E+00  0.91131722083E+02  0.91131778051E+02  0.10100000000E+00 0.  1.
         -3   -1    0    0  501    0 -0.00000000000E+00 -0.00000000000E+00 -0.19695447981E+02  0.19695706948E+02  0.10100000000E+00 0.  1.
          2    1    1    2    0  502 -0.36330109000E+02 -0.15057200007E+02  0.56328577559E+02  0.68698651722E+02  0.25500000000E-02 0. -1.
         -2    1    1    2  502    0  0.36330109000E+02  0.15057200007E+02  0.15107696543E+02  0.42128833278E+02  0.25500000000E-02 0. -1.
<mgrwt>
<rscale>  0 0.84732462E+02</rscale>
<asrwt>0</asrwt>
<pdfrwt beam="1">  1        3 0.14020289E-01 0.84732462E+02</pdfrwt>
<pdfrwt beam="2">  1       -3 0.30300931E-02 0.84732462E+02</pdfrwt>
<totfact> 0.41310396E+04</totfact>
</mgrwt>
</event>
<event>
 4    1  0.1537855E-002  0.4278311E+02  0.7818608E-02  0.1488676E+00
         -3   -1    0    0  501    0 -0.00000000000E+00  0.00000000000E+00  0.28239333824E+00  0.29991164946E+00  0.10100000000E+00 0.  1.
          3   -1    0    0    0  501  0.00000000000E+00 -0.00000000000E+00 -0.15716628806E+04  0.15716628839E+04  0.10100000000E+00 0.  1.
          2    1    1    2    0  502  0.62576375344E+01 -0.20011940773E+02 -0.94141499361E+03  0.94164846200E+03  0.25500000000E-02 0. -1.
         -2    1    1    2  502    0 -0.62576375344E+01  0.20011940773E+02 -0.62996549369E+03  0.63031433352E+03  0.25500000000E-02 0. -1.
<mgrwt>
<rscale>  0 0.42783112E+02</rscale>
<asrwt>0</asrwt>
<pdfrwt beam="2">  1        3 0.24178884E+00 0.42783112E+02</pdfrwt>
<pdfrwt beam="1">  1       -3 0.44794199E-04 0.42783112E+02</pdfrwt>
<totfact> 0.39490541E+04</totfact>
</mgrwt>
</event>
<event>
 4    1  0.1537855E-002  0.4796811E+02  0.7818608E-02  0.1456620E+00
          3   -1    0    0    0  501  0.00000000000E+00  0.00000000000E+00  0.85114753920E+01  0.85120746207E+01  0.10100000000E+00 0.  1.
         -3   -1    0    0  501    0 -0.00000000000E+00 -0.00000000000E+00 -0.67580430929E+02  0.67580506402E+02  0.10100000000E+00 0.  1.
          2    1    1    2    0  502 -0.24969978717E+01  0.20233560316E+02 -0.94939070884E+01  0.22489247203E+02  0.25500000000E-02 0. -1.
         -2    1    1    2  502    0  0.24969978717E+01 -0.20233560316E+02 -0.49575048448E+02  0.53603333820E+02  0.25500000000E-02 0. -1.
<mgrwt>
<rscale>  0 0.47968108E+02</rscale>
<asrwt>0</asrwt>
<pdfrwt beam="1">  1        3 0.13095097E-02 0.47968108E+02</pdfrwt>
<pdfrwt beam="2">  1       -3 0.10397041E-01 0.47968108E+02</pdfrwt>
<totfact> 0.19614785E+05</totfact>
</mgrwt>
</event>
<event>
 4    1  0.1537855E-002  0.5557115E+02  0.7818608E-02  0.1417417E+00
         -3   -1    0    0  501    0 -0.00000000000E+00  0.00000000000E+00  0.37899689491E+03  0.37899690836E+03  0.10100000000E+00 0. -1.
          3   -1    0    0    0  501  0.00000000000E+00 -0.00000000000E+00 -0.20357915249E+01  0.20382953988E+01  0.10100000000E+00 0. -1.
          2    1    1    2    0  502 -0.12211253339E+02  0.21898225880E+02  0.10637415005E+03  0.10928909740E+03  0.25500000000E-02 0. -1.
         -2    1    1    2  502    0  0.12211253339E+02 -0.21898225880E+02  0.27058695333E+03  0.27174610636E+03  0.25500000000E-02 0. -1.
<mgrwt>
<rscale>  0 0.55571153E+02</rscale>
<asrwt>0</asrwt>
<pdfrwt beam="2">  1        3 0.31339260E-03 0.55571153E+02</pdfrwt>
<pdfrwt beam="1">  1       -3 0.58307359E-01 0.55571153E+02</pdfrwt>
<totfact> 0.76615499E+04</totfact>
</mgrwt>
</event>
<event>
 4    1  0.1537855E-002  0.6139875E+02  0.7818608E-02  0.1392054E+00
         -3   -1    0    0  501    0 -0.00000000000E+00  0.00000000000E+00  0.10088146125E+02  0.10088651706E+02  0.10100000000E+00 0. -1.
          3   -1    0    0    0  501  0.00000000000E+00 -0.00000000000E+00 -0.93418809152E+02  0.93418863750E+02  0.10100000000E+00 0. -1.
          2    1    1    2    0  502  0.23701376144E+02  0.17821946192E+02 -0.55054067088E+02  0.62532609946E+02  0.25500000000E-02 0.  1.
         -2    1    1    2  502    0 -0.23701376144E+02 -0.17821946192E+02 -0.28276595939E+02  0.40974905510E+02  0.25500000000E-02 0.  1.
<mgrwt>
<rscale>  0 0.61398749E+02</rscale>
<asrwt>0</asrwt>
<pdfrwt beam="2">  1        3 0.14372167E-01 0.61398749E+02</pdfrwt>
<pdfrwt beam="1">  1       -3 0.15520656E-02 0.61398749E+02</pdfrwt>
<totfact> 0.98187512E+04</totfact>
</mgrwt>
</event>
<event>
 4    1  0.1537855E-002  0.6890015E+02  0.7818608E-02  0.1363874E+00
         -3   -1    0    0  501    0 -0.00000000000E+00  0.00000000000E+00  0.13286403399E+03  0.13286407237E+03  0.10100000000E+00 0.  1.
          3   -1    0    0    0  501  0.00000000000E+00 -0.00000000000E+00 -0.89321728082E+01  0.89327438157E+01  0.10100000000E+00 0.  1.
          2    1    1    2    0  502  0.20412730312E+02 -0.81137283003E+01  0.73494413871E+01  0.23163040408E+02  0.25500000000E-02 0. -1.
         -2    1    1    2  502    0 -0.20412730312E+02  0.81137283003E+01  0.11658241979E+03  0.11863377578E+03  0.25500000000E-02 0. -1.
<mgrwt>
<rscale>  0 0.68900151E+02</rscale>
<asrwt>0</asrwt>
<pdfrwt beam="2">  1        3 0.13742272E-02 0.68900151E+02</pdfrwt>
<pdfrwt beam="1">  1       -3 0.20440670E-01 0.68900151E+02</pdfrwt>
<totfact> 0.67057156E+04</totfact>
</mgrwt>
</event>
<event>
 4    1  0.1537855E-002  0.6982478E+02  0.7818608E-02  0.1360690E+00
         -3   -1    0    0  501    0 -0.00000000000E+00  0.00000000000E+00  0.21519553062E+02  0.21519790078E+02  0.10100000000E+00 0. -1.
          3   -1    0    0    0  501  0.00000000000E+00 -0.00000000000E+00 -0.56639760226E+02  0.56639850277E+02  0.10100000000E+00 0. -1.
          2    1    1    2    0  502  0.25363710326E+02 -0.13264407410E+02  0.48164215586E+01  0.29025165435E+02  0.25500000000E-02 0. -1.
         -2    1    1    2  502    0 -0.25363710326E+02  0.13264407410E+02 -0.39936628722E+02  0.49134474920E+02  0.25500000000E-02 0. -1.
<mgrwt>
<rscale>  0 0.69824784E+02</rscale>
<asrwt>0</asrwt>
<pdfrwt beam="2">  1        3 0.87138344E-02 0.69824784E+02</pdfrwt>
<pdfrwt beam="1">  1       -3 0.33107256E-02 0.69824784E+02</pdfrwt>
<totfact> 0.74387491E+04</totfact>
</mgrwt>
</event>
<event>
 4    1  0.1537855E-002  0.4125986E+02  0.7818608E-02  0.1499140E+00
          3   -1    0    0    0  501  0.00000000000E+00  0.00000000000E+00  0.44574152807E+02  0.44574267234E+02  0.10100000000E+00 0.  1.
         -3   -1    0    0  501    0 -0.00000000000E+00 -0.00000000000E+00 -0.95476081208E+01  0.95481423234E+01  0.10100000000E+00 0.  1.
          2    1    1    2    0  502 -0.40576452462E+01 -0.19810284836E+02  0.22870945817E+02  0.30528544664E+02  0.25500000000E-02 0. -1.
         -2    1    1    2  502    0  0.40576452462E+01  0.19810284836E+02  0.12155598870E+02  0.23593864894E+02  0.25500000000E-02 0. -1.
<mgrwt>
<rscale>  0 0.41259864E+02</rscale>
<asrwt>0</asrwt>
<pdfrwt beam="1">  1        3 0.68576119E-02 0.41259864E+02</pdfrwt>
<pdfrwt beam="2">  1       -3 0.14689127E-02 0.41259864E+02</pdfrwt>
<totfact> 0.30156295E+05</totfact>
</mgrwt>
</event>
<event>
 4    1  0.1537855E-002  0.4301769E+02  0.7818608E-02  0.1487110E+00
          3   -1    0    0    0  501  0.00000000000E+00  0.00000000000E+00  0.46746694549E+02  0.46746803658E+02  0.10100000000E+00 0.  1.
         -3   -1    0    0  501    0 -0.00000000000E+00 -0.00000000000E+00 -0.98961610971E+01  0.98966764855E+01  0.10100000000E+00 0.  1.
          2    1    1    2    0  502  0.20668563430E+02  0.13275842263E+01  0.10783756327E+02  0.23350404732E+02  0.25500000000E-02 0. -1.
         -2    1    1    2  502    0 -0.20668563430E+02 -0.13275842263E+01  0.26066777125E+02  0.33293075412E+02  0.25500000000E-02 0. -1.
<mgrwt>
<rscale>  0 0.43017694E+02</rscale>
<asrwt>0</asrwt>
<pdfrwt beam="1">  1        3 0.71918472E-02 0.43017694E+02</pdfrwt>
<pdfrwt beam="2">  1       -3 0.15225344E-02 0.43017694E+02</pdfrwt>
<totfact> 0.27034658E+05</totfact>
</mgrwt>
</event>
<event>
 4    1  0.1537855E-002  0.1105390E+03  0.7818608E-02  0.1259575E+00
         -3   -1    0    0  501    0 -0.00000000000E+00  0.00000000000E+00  0.49169881952E+02  0.49169985684E+02  0.10100000000E+00 0. -1.
          3   -1    0    0    0  501  0.00000000000E+00 -0.00000000000E+00 -0.62125582456E+02  0.62125664555E+02  0.10100000000E+00 0. -1.
          2    1    1    2    0  502 -0.37609342104E+02 -0.21096998414E+02  0.28330050664E+02  0.51595908100E+02  0.25500000000E-02 0. -1.
         -2    1    1    2  502    0  0.37609342104E+02  0.21096998414E+02 -0.41285751167E+02  0.59699742139E+02  0.25500000000E-02 0. -1.
<mgrwt>
<rscale>  0 0.11053900E+03</rscale>
<asrwt>0</asrwt>
<pdfrwt beam="2">  1        3 0.95577962E-02 0.11053900E+03</pdfrwt>
<pdfrwt beam="1">  1       -3 0.75646115E-02 0.11053900E+03</pdfrwt>
<totfact> 0.19929097E+04</totfact>
</mgrwt>
</event>
<event>
 4    1  0.1537855E-002  0.1047128E+03  0.7818608E-02  0.1270687E+00
          3   -1    0    0    0  501  0.00000000000E+00  0.00000000000E+00  0.23051035023E+03  0.23051037236E+03  0.10100000000E+00 0.  1.
         -3   -1    0    0  501    0 -0.00000000000E+00 -0.00000000000E+00 -0.11891594635E+02  0.11892023543E+02  0.10100000000E+00 0.  1.
          2    1    1    2    0  502 -0.44151488049E+02 -0.95618446155E+01  0.48044337576E+02  0.65947260360E+02  0.25500000000E-02 0. -1.
         -2    1    1    2  502    0  0.44151488049E+02  0.95618446155E+01  0.17057441802E+03  0.17645513554E+03  0.25500000000E-02 0. -1.
<mgrwt>
<rscale>  0 0.10471276E+03</rscale>
<asrwt>0</asrwt>
<pdfrwt beam="1">  1        3 0.35463168E-01 0.10471276E+03</pdfrwt>
<pdfrwt beam="2">  1       -3 0.18295107E-02 0.10471276E+03</pdfrwt>
<totfact> 0.18160303E+04</totfact>
</mgrwt>
</event>
<event>
 4    1  0.1537855E-002  0.5295559E+02  0.7818608E-02  0.1430022E+00
         -3   -1    0    0  501    0 -0.00000000000E+00  0.00000000000E+00  0.45440050189E+03  0.45440051311E+03  0.10100000000E+00 0. -1.
          3   -1    0    0    0  501  0.00000000000E+00 -0.00000000000E+00 -0.15411898350E+01  0.15444957454E+01  0.10100000000E+00 0. -1.
          2    1    1    2    0  502 -0.77978065766E+01  0.22883059060E+02  0.31941451387E+03  0.32032806910E+03  0.25500000000E-02 0.  1.
         -2    1    1    2  502    0  0.77978065766E+01 -0.22883059060E+02  0.13344479819E+03  0.13561693976E+03  0.25500000000E-02 0.  1.
<mgrwt>
<rscale>  0 0.52955591E+02</rscale>
<asrwt>0</asrwt>
<pdfrwt beam="2">  1        3 0.23736123E-03 0.52955591E+02</pdfrwt>
<pdfrwt beam="1">  1       -3 0.69908043E-01 0.52955591E+02</pdfrwt>
<totfact> 0.77414544E+04</totfact>
</mgrwt>
</event>
<event>
 4    1  0.1537855E-002  0.5864669E+02  0.7818608E-02  0.1403600E+00
         -3   -1    0    0  501    0 -0.00000000000E+00  0.00000000000E+00  0.28225923732E+02  0.28226104434E+02  0.10100000000E+00 0. -1.
          3   -1    0    0    0  501  0.00000000000E+00 -0.00000000000E+00 -0.30463076715E+02  0.30463244147E+02  0.10100000000E+00 0. -1.
          2    1    1    2    0  502  0.63650023271E+01  0.20915428886E+02  0.18437649432E+02  0.28599219276E+02  0.25500000000E-02 0. -1.
         -2    1    1    2  502    0 -0.63650023271E+01 -0.20915428886E+02 -0.20674802416E+02  0.30090129304E+02  0.25500000000E-02 0. -1.
<mgrwt>
<rscale>  0 0.58646695E+02</rscale>
<asrwt>0</asrwt>
<pdfrwt beam="2">  1        3 0.46866540E-02 0.58646695E+02</pdfrwt>
<pdfrwt beam="1">  1       -3 0.43424766E-02 0.58646695E+02</pdfrwt>
<totfact> 0.12295852E+05</totfact>
</mgrwt>
</event>
<event>
 4    1  0.1537855E-002  0.6996261E+02  0.7818608E-02  0.1360220E+00
          3   -1    0    0    0  501  0.00000000000E+00  0.00000000000E+00  0.14638720250E+03  0.14638723735E+03  0.10100000000E+00 0.  1.
         -3   -1    0    0  501    0 -0.00000000000E+00 -0.00000000000E+00 -0.83589386444E+01  0.83595488072E+01  0.10100000000E+00 0.  1.
          2    1    1    2    0  502 -0.21251501766E+02  0.13265222569E+02  0.12301675932E+03  0.12554168845E+03  0.25500000000E-02 0.  1.
         -2    1    1    2  502    0  0.21251501766E+02 -0.13265222569E+02  0.15011504535E+02  0.29205097706E+02  0.25500000000E-02 0.  1.
<mgrwt>
<rscale>  0 0.69962606E+02</rscale>
<asrwt>0</asrwt>
<pdfrwt beam="1">  1        3 0.22521157E-01 0.69962606E+02</pdfrwt>
<pdfrwt beam="2">  1       -3 0.12860402E-02 0.69962606E+02</pdfrwt>
<totfact> 0.62760223E+04</totfact>
</mgrwt>
</event>
<event>
 4    1  0.1537855E-002  0.8148041E+02  0.7818608E-02  0.1324902E+00
          3   -1    0    0    0  501  0.00000000000E+00  0.00000000000E+00  0.46632565365E+02  0.46632674741E+02  0.10100000000E+00 0. -1.
         -3   -1    0    0  501    0 -0.00000000000E+00 -0.00000000000E+00 -0.35592160034E+02  0.35592303338E+02  0.10100000000E+00 0. -1.
          2    1    1    2    0  502 -0.33515784016E+02 -0.12672621065E+02  0.25084498544E+02  0.43739400734E+02  0.25500000000E-02 0.  1.
         -2    1    1    2  502    0  0.33515784016E+02  0.12672621065E+02 -0.14044093213E+02  0.38485577345E+02  0.25500000000E-02 0.  1.
<mgrwt>
<rscale>  0 0.81480405E+02</rscale>
<asrwt>0</asrwt>
<pdfrwt beam="1">  1        3 0.71742603E-02 0.81480405E+02</pdfrwt>
<pdfrwt beam="2">  1       -3 0.54757364E-02 0.81480405E+02</pdfrwt>
<totfact> 0.48859576E+04</totfact>
</mgrwt>
</event>
<event>
 4    1  0.1537855E-002  0.4934373E+02  0.7818608E-02  0.1448914E+00
          3   -1    0    0    0  501  0.00000000000E+00  0.00000000000E+00  0.33318446297E+02  0.33318599380E+02  0.10100000000E+00 0.  1.
         -3   -1    0    0  501    0 -0.00000000000E+00 -0.00000000000E+00 -0.18268854023E+02  0.18269133212E+02  0.10100000000E+00 0.  1.
          2    1    1    2    0  502  0.17665654972E+02 -0.16521363949E+02  0.12611247334E+02  0.27277727144E+02  0.25500000000E-02 0. -1.
         -2    1    1    2  502    0 -0.17665654972E+02  0.16521363949E+02  0.24383449403E+01  0.24310005448E+02  0.25500000000E-02 0. -1.
<mgrwt>
<rscale>  0 0.49343732E+02</rscale>
<asrwt>0</asrwt>
<pdfrwt beam="1">  1        3 0.51259480E-02 0.49343732E+02</pdfrwt>
<pdfrwt beam="2">  1       -3 0.28106262E-02 0.49343732E+02</pdfrwt>
<totfact> 0.19460738E+05</totfact>
</mgrwt>
</event>
<event>
 4    1  0.1537855E-002  0.4503190E+02  0.7818608E-02  0.1474143E+00
          3   -1    0    0    0  501  0.00000000000E+00  0.00000000000E+00  0.42875119031E+02  0.42875237992E+02  0.10100000000E+00 0.  1.
         -3   -1    0    0  501    0 -0.00000000000E+00 -0.00000000000E+00 -0.11823940424E+02  0.11824371787E+02  0.10100000000E+00 0.  1.
          2    1    1    2    0  502  0.19849879622E+02 -0.77699118505E+01  0.67177638143E+01  0.22349890567E+02  0.25500000000E-02 0.  1.
         -2    1    1    2  502    0 -0.19849879622E+02  0.77699118505E+01  0.24333414792E+02  0.32349719213E+02  0.25500000000E-02 0.  1.
<mgrwt>
<rscale>  0 0.45031896E+02</rscale>
<asrwt>0</asrwt>
<pdfrwt beam="1">  1        3 0.65962145E-02 0.45031896E+02</pdfrwt>
<pdfrwt beam="2">  1       -3 0.18191101E-02 0.45031896E+02</pdfrwt>
<totfact> 0.24261348E+05</totfact>
</mgrwt>
</event>
<event>
 4    1  0.1537855E-002  0.4996987E+02  0.7818608E-02  0.1445504E+00
         -3   -1    0    0  501    0 -0.00000000000E+00  0.00000000000E+00  0.54022572485E+01  0.54032013084E+01  0.10100000000E+00 0.  1.
          3   -1    0    0    0  501  0.00000000000E+00 -0.00000000000E+00 -0.11554192386E+03  0.11554196800E+03  0.10100000000E+00 0.  1.
          2    1    1    2    0  502 -0.15995594837E+02 -0.19120771424E+02 -0.59108281109E+02  0.64150228808E+02  0.25500000000E-02 0.  1.
         -2    1    1    2  502    0  0.15995594837E+02  0.19120771424E+02 -0.51031385503E+02  0.56794940505E+02  0.25500000000E-02 0.  1.
<mgrwt>
<rscale>  0 0.49969869E+02</rscale>
<asrwt>0</asrwt>
<pdfrwt beam="2">  1        3 0.17775755E-01 0.49969869E+02</pdfrwt>
<pdfrwt beam="1">  1       -3 0.83119260E-03 0.49969869E+02</pdfrwt>
<totfact> 0.15949808E+05</totfact>
</mgrwt>
</event>
<event>
 4    1  0.1537855E-002  0.9698952E+02  0.7818608E-02  0.1286757E+00
          3   -1    0    0    0  501  0.00000000000E+00  0.00000000000E+00  0.40902854906E+03  0.40902856153E+03  0.10100000000E+00 0.  1.
         -3   -1    0    0  501    0 -0.00000000000E+00 -0.00000000000E+00 -0.57491219103E+01  0.57500090208E+01  0.10100000000E+00 0.  1.
          2    1    1    2    0  502 -0.40171423448E+02 -0.21712210003E+02  0.13181585354E+03  0.13950119203E+03  0.25500000000E-02 0.  1.
         -2    1    1    2  502    0  0.40171423448E+02  0.21712210003E+02  0.27146357360E+03  0.27527737852E+03  0.25500000000E-02 0.  1.
<mgrwt>
<rscale>  0 0.96989516E+02</rscale>
<asrwt>0</asrwt>
<pdfrwt beam="1">  1        3 0.62927548E-01 0.96989516E+02</pdfrwt>
<pdfrwt beam="2">  1       -3 0.88454936E-03 0.96989516E+02</pdfrwt>
<totfact> 0.17090657E+04</totfact>
</mgrwt>
</event>
<event>
 4    1  0.1537855E-002  0.9767077E+02  0.7818608E-02  0.1285272E+00
         -3   -1    0    0  501    0 -0.00000000000E+00  0.00000000000E+00  0.37854971405E+03  0.37854972753E+03  0.10100000000E+00 0.  1.
          3   -1    0    0    0  501  0.00000000000E+00 -0.00000000000E+00 -0.62996648268E+01  0.63004744210E+01  0.10100000000E+00 0.  1.
          2    1    1    2    0  502  0.47629021793E+02  0.10035989609E+02  0.20171274898E+03  0.20750247688E+03  0.25500000000E-02 0.  1.
         -2    1    1    2  502    0 -0.47629021793E+02 -0.10035989609E+02  0.17053730025E+03  0.17734772507E+03  0.25500000000E-02 0.  1.
<mgrwt>
<rscale>  0 0.97670767E+02</rscale>
<asrwt>0</asrwt>
<pdfrwt beam="2">  1        3 0.96924263E-03 0.97670767E+02</pdfrwt>
<pdfrwt beam="1">  1       -3 0.58238474E-01 0.97670767E+02</pdfrwt>
<totfact> 0.17508567E+04</totfact>
</mgrwt>
</event>
<event>
 4    1  0.1537855E-002  0.6538115E+02  0.7818608E-02  0.1376543E+00
          3   -1    0    0    0  501  0.00000000000E+00  0.00000000000E+00  0.21897978730E+03  0.21897981060E+03  0.10100000000E+00 0. -1.
         -3   -1    0    0  501    0 -0.00000000000E+00 -0.00000000000E+00 -0.48796921663E+01  0.48807373048E+01  0.10100000000E+00 0. -1.
          2    1    1    2    0  502  0.10527205185E+02  0.30871532976E+02  0.99548638200E+02  0.10475593048E+03  0.25500000000E-02 0. -1.
         -2    1    1    2  502    0 -0.10527205185E+02 -0.30871532976E+02  0.11455145694E+03  0.11910461742E+03  0.25500000000E-02 0. -1.
<mgrwt>
<rscale>  0 0.65381145E+02</rscale>
<asrwt>0</asrwt>
<pdfrwt beam="1">  1        3 0.33689280E-01 0.65381145E+02</pdfrwt>
<pdfrwt beam="2">  1       -3 0.75080407E-03 0.65381145E+02</pdfrwt>
<totfact> 0.65664757E+04</totfact>
</mgrwt>
</event>
<event>
 4    1  0.1537855E-002  0.6663417E+02  0.7818608E-02  0.1371928E+00
          3   -1    0    0    0  501  0.00000000000E+00  0.00000000000E+00  0.80170042778E+02  0.80170106399E+02  0.10100000000E+00 0.  1.
         -3   -1    0    0  501    0 -0.00000000000E+00 -0.00000000000E+00 -0.13845668151E+02  0.13846036528E+02  0.10100000000E+00 0.  1.
          2    1    1    2    0  502  0.77392348132E+01 -0.18954084722E+02 -0.39234026081E+01  0.20845771218E+02  0.25500000000E-02 0. -1.
         -2    1    1    2  502    0 -0.77392348132E+01  0.18954084722E+02  0.70247777236E+02  0.73170371710E+02  0.25500000000E-02 0. -1.
<mgrwt>
<rscale>  0 0.66634169E+02</rscale>
<asrwt>0</asrwt>
<pdfrwt beam="1">  1        3 0.12333886E-01 0.66634169E+02</pdfrwt>
<pdfrwt beam="2">  1       -3 0.21301360E-02 0.66634169E+02</pdfrwt>
<totfact> 0.81088685E+04</totfact>
</mgrwt>
</event>
<event>
 4    1  0.1537855E-002  0.1118747E+03  0.7818608E-02  0.1257137E+00
          3   -1    0    0    0  501  0.00000000000E+00  0.00000000000E+00  0.30793940301E+02  0.30794105934E+02  0.10100000000E+00 0.  1.
         -3   -1    0    0  501    0 -0.00000000000E+00 -0.00000000000E+00 -0.10161004448E+03  0.10161009467E+03  0.10100000000E+00 0.  1.
          2    1    1    2    0  502 -0.36123267315E+02 -0.37652736788E+02 -0.11550270766E+02  0.53441816870E+02  0.25500000000E-02 0. -1.
         -2    1    1    2  502    0  0.36123267315E+02  0.37652736788E+02 -0.59265833409E+02  0.78962383736E+02  0.25500000000E-02 0. -1.
<mgrwt>
<rscale>  0 0.11187471E+03</rscale>
<asrwt>0</asrwt>
<pdfrwt beam="1">  1        3 0.47375459E-02 0.11187471E+03</pdfrwt>
<pdfrwt beam="2">  1       -3 0.15632331E-01 0.11187471E+03</pdfrwt>
<totfact> 0.18478639E+04</totfact>
</mgrwt>
</event>
<event>
 4    1  0.1537855E-002  0.1311013E+03  0.7818608E-02  0.1225831E+00
         -3   -1    0    0  501    0 -0.00000000000E+00  0.00000000000E+00  0.11003093291E+02  0.11003556832E+02  0.10100000000E+00 0.  1.
          3   -1    0    0    0  501  0.00000000000E+00 -0.00000000000E+00 -0.39050762990E+03  0.39050764296E+03  0.10100000000E+00 0.  1.
          2    1    1    2    0  502  0.10620299150E+02  0.63353595812E+02 -0.22973286743E+03  0.23854487888E+03  0.25500000000E-02 0.  1.
         -2    1    1    2  502    0 -0.10620299150E+02 -0.63353595812E+02 -0.14977166917E+03  0.16296632090E+03  0.25500000000E-02 0.  1.
<mgrwt>
<rscale>  0 0.13110130E+03</rscale>
<asrwt>0</asrwt>
<pdfrwt beam="2">  1        3 0.60078123E-01 0.13110130E+03</pdfrwt>
<pdfrwt beam="1">  1       -3 0.16928205E-02 0.13110130E+03</pdfrwt>
<totfact> 0.76249842E+03</totfact>
</mgrwt>
</event>
<event>
 4    1  0.1537855E-002  0.5400360E+02  0.7818608E-02  0.1424871E+00
         -3   -1    0    0  501    0 -0.00000000000E+00  0.00000000000E+00  0.52325061475E+03  0.52325062450E+03  0.10100000000E+00 0.  1.
          3   -1    0    0    0  501  0.00000000000E+00 -0.00000000000E+00 -0.13915595593E+01  0.13952200569E+01  0.10100000000E+00 0.  1.
          2    1    1    2    0  502 -0.19728603826E+02 -0.41507773303E+01  0.86423816444E+02  0.88744142436E+02  0.25500000000E-02 0. -1.
         -2    1    1    2  502    0  0.19728603826E+02  0.41507773303E+01  0.43543523875E+03  0.43590170212E+03  0.25500000000E-02 0. -1.
<mgrwt>
<rscale>  0 0.54003599E+02</rscale>
<asrwt>0</asrwt>
<pdfrwt beam="2">  1        3 0.21436854E-03 0.54003599E+02</pdfrwt>
<pdfrwt beam="1">  1       -3 0.80500331E-01 0.54003599E+02</pdfrwt>
<totfact> 0.67004539E+04</totfact>
</mgrwt>
</event>
<event>
 4    1  0.1537855E-002  0.6008809E+02  0.7818608E-02  0.1397462E+00
         -3   -1    0    0  501    0 -0.00000000000E+00  0.00000000000E+00  0.82817542216E+01  0.82823700707E+01  0.10100000000E+00 0. -1.
          3   -1    0    0    0  501  0.00000000000E+00 -0.00000000000E+00 -0.10898726110E+03  0.10898730790E+03  0.10100000000E+00 0. -1.
          2    1    1    2    0  502  0.25067291675E+02 -0.16299940005E+02 -0.56071860547E+02  0.63546130550E+02  0.25500000000E-02 0.  1.
         -2    1    1    2  502    0 -0.25067291675E+02  0.16299940005E+02 -0.44633646335E+02  0.53723547423E+02  0.25500000000E-02 0.  1.
<mgrwt>
<rscale>  0 0.60088087E+02</rscale>
<asrwt>0</asrwt>
<pdfrwt beam="2">  1        3 0.16767321E-01 0.60088087E+02</pdfrwt>
<pdfrwt beam="1">  1       -3 0.12741671E-02 0.60088087E+02</pdfrwt>
<totfact> 0.10068769E+05</totfact>
</mgrwt>
</event>
<event>
 4    1  0.1537855E-002  0.5854957E+02  0.7818608E-02  0.1404021E+00
         -3   -1    0    0  501    0 -0.00000000000E+00  0.00000000000E+00  0.10207124591E+03  0.10207129588E+03  0.10100000000E+00 0.  1.
          3   -1    0    0    0  501  0.00000000000E+00 -0.00000000000E+00 -0.83958674461E+01  0.83964749254E+01  0.10100000000E+00 0.  1.
          2    1    1    2    0  502 -0.26095598748E+02 -0.38087731872E+01  0.70816797269E+02  0.75567888743E+02  0.25500000000E-02 0.  1.
         -2    1    1    2  502    0  0.26095598748E+02  0.38087731872E+01  0.22858581195E+02  0.34899882062E+02  0.25500000000E-02 0.  1.
<mgrwt>
<rscale>  0 0.58549568E+02</rscale>
<asrwt>0</asrwt>
<pdfrwt beam="2">  1        3 0.12917226E-02 0.58549568E+02</pdfrwt>
<pdfrwt beam="1">  1       -3 0.15703318E-01 0.58549568E+02</pdfrwt>
<totfact> 0.10924599E+05</totfact>
</mgrwt>
</event>
<event>
 4    1  0.1537855E-002  0.8101208E+02  0.7818608E-02  0.1326204E+00
          3   -1    0    0    0  501  0.00000000000E+00  0.00000000000E+00  0.22676745310E+03  0.22676747559E+03  0.10100000000E+00 0. -1.
         -3   -1    0    0  501    0 -0.00000000000E+00 -0.00000000000E+00 -0.72349628911E+01  0.72356678362E+01  0.10100000000E+00 0. -1.
          2    1    1    2    0  502  0.56038006365E+01  0.34276911280E+02  0.49561348844E+02  0.60519720210E+02  0.25500000000E-02 0. -1.
         -2    1    1    2  502    0 -0.56038006365E+01 -0.34276911280E+02  0.16997114136E+03  0.17348342322E+03  0.25500000000E-02 0. -1.
<mgrwt>
<rscale>  0 0.81012079E+02</rscale>
<asrwt>0</asrwt>
<pdfrwt beam="1">  1        3 0.34887363E-01 0.81012079E+02</pdfrwt>
<pdfrwt beam="2">  1       -3 0.11131270E-02 0.81012079E+02</pdfrwt>
<totfact> 0.36792420E+04</totfact>
</mgrwt>
</event>
<event>
 4    1  0.1537855E-002  0.1467739E+03  0.7818608E-02  0.1204494E+00
         -3   -1    0    0  501    0 -0.00000000000E+00  0.00000000000E+00  0.38361973464E+02  0.38362106420E+02  0.10100000000E+00 0. -1.
          3   -1    0    0    0  501  0.00000000000E+00 -0.00000000000E+00 -0.14038970247E+03  0.14038973880E+03  0.10100000000E+00 0. -1.
          2    1    1    2    0  502  0.27098354264E+02 -0.60999486616E+02 -0.88161631467E+02  0.11057907325E+03  0.25500000000E-02 0. -1.
         -2    1    1    2  502    0 -0.27098354264E+02  0.60999486616E+02 -0.13866097543E+02  0.68172771975E+02  0.25500000000E-02 0. -1.
<mgrwt>
<rscale>  0 0.14677386E+03</rscale>
<asrwt>0</asrwt>
<pdfrwt beam="2">  1        3 0.21598429E-01 0.14677386E+03</pdfrwt>
<pdfrwt beam="1">  1       -3 0.59018552E-02 0.14677386E+03</pdfrwt>
<totfact> 0.78772928E+03</totfact>
</mgrwt>
</event>
<event>
 4    1  0.1537855E-002  0.4684582E+02  0.7818608E-02  0.1463137E+00
         -3   -1    0    0  501    0 -0.00000000000E+00  0.00000000000E+00  0.10944300575E+02  0.10944766607E+02  0.10100000000E+00 0.  1.
          3   -1    0    0    0  501  0.00000000000E+00 -0.00000000000E+00 -0.50127948487E+02  0.50128050236E+02  0.10100000000E+00 0.  1.
          2    1    1    2    0  502 -0.19613392947E+02 -0.12304874037E+02 -0.14975634604E+02  0.27574712080E+02  0.25500000000E-02 0. -1.
         -2    1    1    2  502    0  0.19613392947E+02  0.12304874037E+02 -0.24208013307E+02  0.33498104764E+02  0.25500000000E-02 0. -1.
<mgrwt>
<rscale>  0 0.46845818E+02</rscale>
<asrwt>0</asrwt>
<pdfrwt beam="2">  1        3 0.77120356E-02 0.46845818E+02</pdfrwt>
<pdfrwt beam="1">  1       -3 0.16837823E-02 0.46845818E+02</pdfrwt>
<totfact> 0.21618620E+05</totfact>
</mgrwt>
</event>
<event>
 4    1  0.1537855E-002  0.5239568E+02  0.7818608E-02  0.1432832E+00
          3   -1    0    0    0  501  0.00000000000E+00  0.00000000000E+00  0.49946641695E+02  0.49946743814E+02  0.10100000000E+00 0. -1.
         -3   -1    0    0  501    0 -0.00000000000E+00 -0.00000000000E+00 -0.13740900716E+02  0.13741271902E+02  0.10100000000E+00 0. -1.
          2    1    1    2    0  502  0.23063861620E+02 -0.54241000742E+01  0.45148795430E+01  0.24119426159E+02  0.25500000000E-02 0. -1.
         -2    1    1    2  502    0 -0.23063861620E+02  0.54241000742E+01  0.31690861436E+02  0.39568589557E+02  0.25500000000E-02 0. -1.
<mgrwt>
<rscale>  0 0.52395684E+02</rscale>
<asrwt>0</asrwt>
<pdfrwt beam="1">  1        3 0.76841352E-02 0.52395684E+02</pdfrwt>
<pdfrwt beam="2">  1       -3 0.21140211E-02 0.52395684E+02</pdfrwt>
<totfact> 0.16202036E+05</totfact>
</mgrwt>
</event>
<event>
 4    1  0.1537855E-002  0.4711800E+02  0.7818608E-02  0.1461537E+00
         -3   -1    0    0  501    0 -0.00000000000E+00  0.00000000000E+00  0.60107144311E+02  0.60107229168E+02  0.10100000000E+00 0.  1.
          3   -1    0    0    0  501  0.00000000000E+00 -0.00000000000E+00 -0.92335853720E+01  0.92341377412E+01  0.10100000000E+00 0.  1.
          2    1    1    2    0  502 -0.11649465308E+02 -0.18931551663E+02  0.13951013377E+02  0.26243941608E+02  0.25500000000E-02 0. -1.
         -2    1    1    2  502    0  0.11649465308E+02  0.18931551663E+02  0.36922545562E+02  0.43097425301E+02  0.25500000000E-02 0. -1.
<mgrwt>
<rscale>  0 0.47118003E+02</rscale>
<asrwt>0</asrwt>
<pdfrwt beam="2">  1        3 0.14206007E-02 0.47118003E+02</pdfrwt>
<pdfrwt beam="1">  1       -3 0.92473016E-02 0.47118003E+02</pdfrwt>
<totfact> 0.20861653E+05</totfact>
</mgrwt>
</event>
<event>
 4    1  0.1537855E-002  0.4899272E+02  0.7818608E-02  0.1450851E+00
         -3   -1    0    0  501    0 -0.00000000000E+00  0.00000000000E+00  0.38548820078E+02  0.38548952390E+02  0.10100000000E+00 0.  1.
          3   -1    0    0    0  501  0.00000000000E+00 -0.00000000000E+00 -0.15566216327E+02  0.15566543988E+02  0.10100000000E+00 0.  1.
          2    1    1    2    0  502 -0.17985236587E+02  0.11527549510E+02 -0.17504830166E+01  0.21434022723E+02  0.25500000000E-02 0.  1.
         -2    1    1    2  502    0  0.17985236587E+02 -0.11527549510E+02  0.24733086767E+02  0.32681473656E+02  0.25500000000E-02 0.  1.
<mgrwt>
<rscale>  0 0.48992723E+02</rscale>
<asrwt>0</asrwt>
<pdfrwt beam="2">  1        3 0.23948379E-02 0.48992723E+02</pdfrwt>
<pdfrwt beam="1">  1       -3 0.59306230E-02 0.48992723E+02</pdfrwt>
<totfact> 0.19681273E+05</totfact>
</mgrwt>
</event>
<event>
 4    1  0.1537855E-002  0.5434234E+02  0.7818608E-02  0.1423235E+00
          3   -1    0    0    0  501  0.00000000000E+00  0.00000000000E+00  0.25710501407E+02  0.25710699788E+02  0.10100000000E+00 0.  1.
         -3   -1    0    0  501    0 -0.00000000000E+00 -0.00000000000E+00 -0.28714424074E+02  0.28714601702E+02  0.10100000000E+00 0.  1.
          2    1    1    2    0  502 -0.62705249502E+01  0.24019268618E+02  0.95615186676E+01  0.26602018604E+02  0.25500000000E-02 0. -1.
         -2    1    1    2  502    0  0.62705249502E+01 -0.24019268618E+02 -0.12565441335E+02  0.27823282886E+02  0.25500000000E-02 0. -1.
<mgrwt>
<rscale>  0 0.54342340E+02</rscale>
<asrwt>0</asrwt>
<pdfrwt beam="1">  1        3 0.39554907E-02 0.54342340E+02</pdfrwt>
<pdfrwt beam="2">  1       -3 0.44176326E-02 0.54342340E+02</pdfrwt>
<totfact> 0.15120367E+05</totfact>
</mgrwt>
</event>
<event>
 4    1  0.1537855E-002  0.4219017E+02  0.7818608E-02  0.1492686E+00
          3   -1    0    0    0  501  0.00000000000E+00  0.00000000000E+00  0.27493594328E+03  0.27493596183E+03  0.10100000000E+00 0.  1.
         -3   -1    0    0  501    0 -0.00000000000E+00 -0.00000000000E+00 -0.16169739561E+01  0.16201252343E+01  0.10100000000E+00 0.  1.
          2    1    1    2    0  502  0.99527520748E+01  0.18563078547E+02  0.14429656640E+03  0.14582573243E+03  0.25500000000E-02 0.  1.
         -2    1    1    2  502    0 -0.99527520748E+01 -0.18563078547E+02  0.12902240293E+03  0.13073035463E+03  0.25500000000E-02 0.  1.
<mgrwt>
<rscale>  0 0.42190168E+02</rscale>
<asrwt>0</asrwt>
<pdfrwt beam="1">  1        3 0.42298072E-01 0.42190168E+02</pdfrwt>
<pdfrwt beam="2">  1       -3 0.24900911E-03 0.42190168E+02</pdfrwt>
<totfact> 0.17934344E+05</totfact>
</mgrwt>
</event>
<event>
 4    1  0.1537855E-002  0.5219987E+02  0.7818608E-02  0.1433825E+00
          3   -1    0    0    0  501  0.00000000000E+00  0.00000000000E+00  0.47528726158E+00  0.48590017599E+00  0.10100000000E+00 0.  1.
         -3   -1    0    0  501    0 -0.00000000000E+00 -0.00000000000E+00 -0.14174166501E+04  0.14174166537E+04  0.10100000000E+00 0.  1.
          2    1    1    2    0  502  0.90220441384E+00  0.23097318304E+02 -0.10376992622E+04  0.10379566748E+04  0.25500000000E-02 0. -1.
         -2    1    1    2  502    0 -0.90220441384E+00 -0.23097318304E+02 -0.37924210066E+03  0.37994587905E+03  0.25500000000E-02 0. -1.
<mgrwt>
<rscale>  0 0.52199871E+02</rscale>
<asrwt>0</asrwt>
<pdfrwt beam="1">  1        3 0.73938907E-04 0.52199871E+02</pdfrwt>
<pdfrwt beam="2">  1       -3 0.21806157E+00 0.52199871E+02</pdfrwt>
<totfact> 0.27766665E+04</totfact>
</mgrwt>
</event>
<event>
 4    1  0.1537855E-002  0.7159159E+02  0.7818608E-02  0.1354763E+00
          3   -1    0    0    0  501  0.00000000000E+00  0.00000000000E+00  0.86353620671E+02  0.86353679736E+02  0.10100000000E+00 0. -1.
         -3   -1    0    0  501    0 -0.00000000000E+00 -0.00000000000E+00 -0.14838040998E+02  0.14838384739E+02  0.10100000000E+00 0. -1.
          2    1    1    2    0  502 -0.30634284240E+02  0.15376359057E+02  0.50340943919E+02  0.60902400855E+02  0.25500000000E-02 0.  1.
         -2    1    1    2  502    0  0.30634284240E+02 -0.15376359057E+02  0.21174635754E+02  0.40289663619E+02  0.25500000000E-02 0.  1.
<mgrwt>
<rscale>  0 0.71591590E+02</rscale>
<asrwt>0</asrwt>
<pdfrwt beam="1">  1        3 0.13285203E-01 0.71591590E+02</pdfrwt>
<pdfrwt beam="2">  1       -3 0.22828066E-02 0.71591590E+02</pdfrwt>
<totfact> 0.66095193E+04</totfact>
</mgrwt>
</event>
<event>
 4    1  0.1537855E-002  0.1247661E+03  0.7818608E-02  0.1235435E+00
         -3   -1    0    0  501    0 -0.00000000000E+00  0.00000000000E+00  0.44685448407E+02  0.44685562549E+02  0.10100000000E+00 0.  1.
          3   -1    0    0    0  501  0.00000000000E+00 -0.00000000000E+00 -0.87089459458E+02  0.87089518024E+02  0.10100000000E+00 0.  1.
          2    1    1    2    0  502  0.16629566825E+02  0.59567207848E+02 -0.29837388142E+02  0.68666327128E+02  0.25500000000E-02 0.  1.
         -2    1    1    2  502    0 -0.16629566825E+02 -0.59567207848E+02 -0.12566622909E+02  0.63108753446E+02  0.25500000000E-02 0.  1.
<mgrwt>
<rscale>  0 0.12476607E+03</rscale>
<asrwt>0</asrwt>
<pdfrwt beam="2">  1        3 0.13398392E-01 0.12476607E+03</pdfrwt>
<pdfrwt beam="1">  1       -3 0.68746977E-02 0.12476607E+03</pdfrwt>
<totfact> 0.13629003E+04</totfact>
</mgrwt>
</event>
<event>
 4    1  0.1537855E-002  0.4786803E+02  0.7818608E-02  0.1457192E+00
         -3   -1    0    0  501    0 -0.00000000000E+00  0.00000000000E+00  0.75101695887E+01  0.75108487038E+01  0.10100000000E+00 0. -1.
          3   -1    0    0    0  501  0.00000000000E+00 -0.00000000000E+00 -0.76270687419E+02  0.76270754293E+02  0.10100000000E+00 0. -1.
          2    1    1    2    0  502  0.17769866635E+02 -0.14837153234E+02 -0.23744227080E+02  0.33161688776E+02  0.25500000000E-02 0. -1.
         -2    1    1    2  502    0 -0.17769866635E+02  0.14837153234E+02 -0.45016290750E+02  0.50619914221E+02  0.25500000000E-02 0. -1.
<mgrwt>
<rscale>  0 0.47868029E+02</rscale>
<asrwt>0</asrwt>
<pdfrwt beam="2">  1        3 0.11734009E-01 0.47868029E+02</pdfrwt>
<pdfrwt beam="1">  1       -3 0.11554681E-02 0.47868029E+02</pdfrwt>
<totfact> 0.19346840E+05</totfact>
</mgrwt>
</event>
<event>
 4    1  0.1537855E-002  0.6720381E+02  0.7818608E-02  0.1369868E+00
         -3   -1    0    0  501    0 -0.00000000000E+00  0.00000000000E+00  0.76548824998E+02  0.76548891629E+02  0.10100000000E+00 0.  1.
          3   -1    0    0    0  501  0.00000000000E+00 -0.00000000000E+00 -0.14749658928E+02  0.14750004728E+02  0.10100000000E+00 0.  1.
          2    1    1    2    0  502  0.31699464225E+02 -0.15846128421E-01  0.15757427851E+02  0.35399898619E+02  0.25500000000E-02 0.  1.
         -2    1    1    2  502    0 -0.31699464225E+02  0.15846128421E-01  0.46041738219E+02  0.55898997737E+02  0.25500000000E-02 0.  1.
<mgrwt>
<rscale>  0 0.67203806E+02</rscale>
<asrwt>0</asrwt>
<pdfrwt beam="2">  1        3 0.22692101E-02 0.67203806E+02</pdfrwt>
<pdfrwt beam="1">  1       -3 0.11776774E-01 0.67203806E+02</pdfrwt>
<totfact> 0.79798665E+04</totfact>
</mgrwt>
</event>
<event>
 4    1  0.1537855E-002  0.6047152E+02  0.7818608E-02  0.1395864E+00
          3   -1    0    0    0  501  0.00000000000E+00  0.00000000000E+00  0.75188981568E+03  0.75188982247E+03  0.10100000000E+00 0. -1.
         -3   -1    0    0  501    0 -0.00000000000E+00 -0.00000000000E+00 -0.12137669875E+01  0.12179619451E+01  0.10100000000E+00 0. -1.
          2    1    1    2    0  502  0.21233855085E+02  0.18593437504E+00  0.10727758611E+03  0.10935900356E+03  0.25500000000E-02 0. -1.
         -2    1    1    2  502    0 -0.21233855085E+02 -0.18593437504E+00  0.64339846259E+03  0.64374878085E+03  0.25500000000E-02 0. -1.
<mgrwt>
<rscale>  0 0.60471521E+02</rscale>
<asrwt>0</asrwt>
<pdfrwt beam="1">  1        3 0.11567566E+00 0.60471521E+02</pdfrwt>
<pdfrwt beam="2">  1       -3 0.18705663E-03 0.60471521E+02</pdfrwt>
<totfact> 0.38007409E+04</totfact>
</mgrwt>
</event>
<event>
 4    1  0.1537855E-002  0.5920248E+02  0.7818608E-02  0.1401209E+00
          3   -1    0    0    0  501  0.00000000000E+00  0.00000000000E+00  0.14313570361E+01  0.14349160131E+01  0.10100000000E+00 0.  1.
         -3   -1    0    0  501    0 -0.00000000000E+00 -0.00000000000E+00 -0.61140595665E+03  0.61140596499E+03  0.10100000000E+00 0.  1.
          2    1    1    2    0  502 -0.64173139179E+01  0.19635000836E+02 -0.85514118299E+02  0.87973743871E+02  0.25500000000E-02 0.  1.
         -2    1    1    2  502    0  0.64173139179E+01 -0.19635000836E+02 -0.52446048131E+03  0.52486713713E+03  0.25500000000E-02 0.  1.
<mgrwt>
<rscale>  0 0.59202477E+02</rscale>
<asrwt>0</asrwt>
<pdfrwt beam="1">  1        3 0.22048367E-03 0.59202477E+02</pdfrwt>
<pdfrwt beam="2">  1       -3 0.94062521E-01 0.59202477E+02</pdfrwt>
<totfact> 0.47397709E+04</totfact>
</mgrwt>
</event>
<event>
 4    1  0.1537855E-002  0.8022734E+02  0.7818608E-02  0.1328408E+00
         -3   -1    0    0  501    0 -0.00000000000E+00  0.00000000000E+00  0.12565513917E+03  0.12565517976E+03  0.10100000000E+00 0.  1.
          3   -1    0    0    0  501  0.00000000000E+00 -0.00000000000E+00 -0.12805493371E+02  0.12805891671E+02  0.10100000000E+00 0.  1.
          2    1    1    2    0  502  0.12531422194E+02  0.19447545171E+02  0.11298095763E+03  0.11532536732E+03  0.25500000000E-02 0. -1.
         -2    1    1    2  502    0 -0.12531422194E+02 -0.19447545171E+02 -0.13131182657E+00  0.23135704110E+02  0.25500000000E-02 0. -1.
<mgrwt>
<rscale>  0 0.80227338E+02</rscale>
<asrwt>0</asrwt>
<pdfrwt beam="2">  1        3 0.19701095E-02 0.80227338E+02</pdfrwt>
<pdfrwt beam="1">  1       -3 0.19331595E-01 0.80227338E+02</pdfrwt>
<totfact> 0.45172298E+04</totfact>
</mgrwt>
</event>
<event>
 4    1  0.1537855E-002  0.4036203E+02  0.7818608E-02  0.1505564E+00
         -3   -1    0    0  501    0 -0.00000000000E+00  0.00000000000E+00  0.60060083378E+01  0.60068575107E+01  0.10100000000E+00 0. -1.
          3   -1    0    0    0  501  0.00000000000E+00 -0.00000000000E+00 -0.67805299668E+02  0.67805374891E+02  0.10100000000E+00 0. -1.
          2    1    1    2    0  502  0.14446585211E+02 -0.14015770830E+02 -0.28232140517E+02  0.34672747525E+02  0.25500000000E-02 0.  1.
         -2    1    1    2  502    0 -0.14446585211E+02  0.14015770830E+02 -0.33567150813E+02  0.39139484877E+02  0.25500000000E-02 0.  1.
<mgrwt>
<rscale>  0 0.40362027E+02</rscale>
<asrwt>0</asrwt>
<pdfrwt beam="2">  1        3 0.10431655E-01 0.40362027E+02</pdfrwt>
<pdfrwt beam="1">  1       -3 0.92407244E-03 0.40362027E+02</pdfrwt>
<totfact> 0.30211335E+05</totfact>
</mgrwt>
</event>
<event>
 4    1  0.1537855E-002  0.4279010E+02  0.7818608E-02  0.1488629E+00
         -3   -1    0    0  501    0 -0.00000000000E+00  0.00000000000E+00  0.11694979370E+03  0.11694983731E+03  0.10100000000E+00 0. -1.
          3   -1    0    0    0  501  0.00000000000E+00 -0.00000000000E+00 -0.39133611070E+01  0.39146642453E+01  0.10100000000E+00 0. -1.
          2    1    1    2    0  502 -0.19789375653E+02 -0.76070897061E+01  0.48399815064E+02  0.52839656578E+02  0.25500000000E-02 0. -1.
         -2    1    1    2  502    0  0.19789375653E+02  0.76070897061E+01  0.64636617528E+02  0.68024844979E+02  0.25500000000E-02 0. -1.
<mgrwt>
<rscale>  0 0.42790100E+02</rscale>
<asrwt>0</asrwt>
<pdfrwt beam="2">  1        3 0.60215912E-03 0.42790100E+02</pdfrwt>
<pdfrwt beam="1">  1       -3 0.17992380E-01 0.42790100E+02</pdfrwt>
<totfact> 0.23431173E+05</totfact>
</mgrwt>
</event>
<event>
 4    1  0.1537855E-002  0.5340222E+02  0.7818608E-02  0.1427810E+00
          3   -1    0    0    0  501  0.00000000000E+00  0.00000000000E+00  0.73753895894E+01  0.73760811137E+01  0.10100000000E+00 0. -1.
         -3   -1    0    0  501    0 -0.00000000000E+00 -0.00000000000E+00 -0.96660715769E+02  0.96660768536E+02  0.10100000000E+00 0. -1.
          2    1    1    2    0  502  0.16141330050E+02  0.15750013646E+02 -0.16793732362E+02  0.28118231075E+02  0.25500000000E-02 0.  1.
         -2    1    1    2  502    0 -0.16141330050E+02 -0.15750013646E+02 -0.72491593818E+02  0.75918618575E+02  0.25500000000E-02 0.  1.
<mgrwt>
<rscale>  0 0.53402215E+02</rscale>
<asrwt>0</asrwt>
<pdfrwt beam="1">  1        3 0.11347326E-02 0.53402215E+02</pdfrwt>
<pdfrwt beam="2">  1       -3 0.14870936E-01 0.53402215E+02</pdfrwt>
<totfact> 0.14013636E+05</totfact>
</mgrwt>
</event>
<event>
 4    1  0.1537855E-002  0.5205154E+02  0.7818608E-02  0.1434580E+00
         -3   -1    0    0  501    0 -0.00000000000E+00  0.00000000000E+00  0.10635966806E+01  0.10683814389E+01  0.10100000000E+00 0. -1.
          3   -1    0    0    0  501  0.00000000000E+00 -0.00000000000E+00 -0.63540586860E+03  0.63540587663E+03  0.10100000000E+00 0. -1.
          2    1    1    2    0  502 -0.99263262293E+01  0.22446834894E+02 -0.42303032550E+03  0.42374172399E+03  0.25500000000E-02 0. -1.
         -2    1    1    2  502    0  0.99263262293E+01 -0.22446834894E+02 -0.21131194642E+03  0.21273253408E+03  0.25500000000E-02 0. -1.
<mgrwt>
<rscale>  0 0.52051544E+02</rscale>
<asrwt>0</asrwt>
<pdfrwt beam="2">  1        3 0.97754815E-01 0.52051544E+02</pdfrwt>
<pdfrwt beam="1">  1       -3 0.16399944E-03 0.52051544E+02</pdfrwt>
<totfact> 0.63676438E+04</totfact>
</mgrwt>
</event>
<event>
 4    1  0.1537855E-002  0.5052542E+02  0.7818608E-02  0.1442528E+00
          3   -1    0    0    0  501  0.00000000000E+00  0.00000000000E+00  0.19276835922E+02  0.19277100513E+02  0.10100000000E+00 0. -1.
         -3   -1    0    0  501    0 -0.00000000000E+00 -0.00000000000E+00 -0.33106754243E+02  0.33106908305E+02  0.10100000000E+00 0. -1.
          2    1    1    2    0  502  0.20109726357E+02  0.70666754102E+01 -0.20973455444E+02  0.29903592348E+02  0.25500000000E-02 0. -1.
         -2    1    1    2  502    0 -0.20109726357E+02 -0.70666754102E+01  0.71435371234E+01  0.22480416470E+02  0.25500000000E-02 0. -1.
<mgrwt>
<rscale>  0 0.50525417E+02</rscale>
<asrwt>0</asrwt>
<pdfrwt beam="1">  1        3 0.29656993E-02 0.50525417E+02</pdfrwt>
<pdfrwt beam="2">  1       -3 0.50933790E-02 0.50525417E+02</pdfrwt>
<totfact> 0.18295179E+05</totfact>
</mgrwt>
</event>
<event>
 4    1  0.1537855E-002  0.7390156E+02  0.7818608E-02  0.1347307E+00
         -3   -1    0    0  501    0 -0.00000000000E+00  0.00000000000E+00  0.23592696091E+02  0.23592912279E+02  0.10100000000E+00 0.  1.
          3   -1    0    0    0  501  0.00000000000E+00 -0.00000000000E+00 -0.57871636233E+02  0.57871724367E+02  0.10100000000E+00 0.  1.
          2    1    1    2    0  502  0.20611710803E+02  0.14009709878E+02  0.12933315921E+02  0.28078199022E+02  0.25500000000E-02 0.  1.
         -2    1    1    2  502    0 -0.20611710803E+02 -0.14009709878E+02 -0.47212256063E+02  0.53386437624E+02  0.25500000000E-02 0.  1.
<mgrwt>
<rscale>  0 0.73901565E+02</rscale>
<asrwt>0</asrwt>
<pdfrwt beam="2">  1        3 0.89033520E-02 0.73901565E+02</pdfrwt>
<pdfrwt beam="1">  1       -3 0.36296690E-02 0.73901565E+02</pdfrwt>
<totfact> 0.63539073E+04</totfact>
</mgrwt>
</event>
<event>
 4    1  0.1537855E-002  0.4095519E+02  0.7818608E-02  0.1501298E+00
         -3   -1    0    0  501    0 -0.00000000000E+00  0.00000000000E+00  0.15284162938E+04  0.15284162972E+04  0.10100000000E+00 0.  1.
          3   -1    0    0    0  501  0.00000000000E+00 -0.00000000000E+00 -0.26505830006E+00  0.28364925953E+00  0.10100000000E+00 0.  1.
          2    1    1    2    0  502 -0.98874832900E+01 -0.17853652742E+02  0.82671954295E+03  0.82697141302E+03  0.25500000000E-02 0.  1.
         -2    1    1    2  502    0  0.98874832900E+01  0.17853652742E+02  0.70143169259E+03  0.70172853342E+03  0.25500000000E-02 0.  1.
<mgrwt>
<rscale>  0 0.40955190E+02</rscale>
<asrwt>0</asrwt>
<pdfrwt beam="2">  1        3 0.42207231E-04 0.40955190E+02</pdfrwt>
<pdfrwt beam="1">  1       -3 0.23514964E+00 0.40955190E+02</pdfrwt>
<totfact> 0.45401605E+04</totfact>
</mgrwt>
</event>
<event>
 4    1  0.1537855E-002  0.4734253E+02  0.7818608E-02  0.1460226E+00
          3   -1    0    0    0  501  0.00000000000E+00  0.00000000000E+00  0.94996326200E+01  0.95001695204E+01  0.10100000000E+00 0. -1.
         -3   -1    0    0  501    0 -0.00000000000E+00 -0.00000000000E+00 -0.58982016313E+02  0.58982102788E+02  0.10100000000E+00 0. -1.
          2    1    1    2    0  502  0.10927482234E+02  0.20654580455E+02 -0.30212673666E+02  0.38194596716E+02  0.25500000000E-02 0. -1.
         -2    1    1    2  502    0 -0.10927482234E+02 -0.20654580455E+02 -0.19269710026E+02  0.30287675592E+02  0.25500000000E-02 0. -1.
<mgrwt>
<rscale>  0 0.47342532E+02</rscale>
<asrwt>0</asrwt>
<pdfrwt beam="1">  1        3 0.14615299E-02 0.47342532E+02</pdfrwt>
<pdfrwt beam="2">  1       -3 0.90742041E-02 0.47342532E+02</pdfrwt>
<totfact> 0.20660500E+05</totfact>
</mgrwt>
</event>
<event>
 4    1  0.1537855E-002  0.4511598E+02  0.7818608E-02  0.1473619E+00
         -3   -1    0    0  501    0 -0.00000000000E+00  0.00000000000E+00  0.77875876054E+03  0.77875876709E+03  0.10100000000E+00 0. -1.
          3   -1    0    0    0  501  0.00000000000E+00 -0.00000000000E+00 -0.64951877696E+00  0.65732460902E+00  0.10100000000E+00 0. -1.
          2    1    1    2    0  502 -0.18057517211E+02  0.96731086386E+01  0.22587344048E+03  0.22680047195E+03  0.25500000000E-02 0.  1.
         -2    1    1    2  502    0  0.18057517211E+02 -0.96731086386E+01  0.55223580128E+03  0.55261561974E+03  0.25500000000E-02 0.  1.
<mgrwt>
<rscale>  0 0.45115983E+02</rscale>
<asrwt>0</asrwt>
<pdfrwt beam="2">  1        3 0.10052679E-03 0.45115983E+02</pdfrwt>
<pdfrwt beam="1">  1       -3 0.11980980E+00 0.45115983E+02</pdfrwt>
<totfact> 0.76221768E+04</totfact>
</mgrwt>
</event>
<event>
 4    1  0.1537855E-002  0.7855389E+02  0.7818608E-02  0.1333206E+00
         -3   -1    0    0  501    0 -0.00000000000E+00  0.00000000000E+00  0.71057159157E+02  0.71057230938E+02  0.10100000000E+00 0. -1.
          3   -1    0    0    0  501  0.00000000000E+00 -0.00000000000E+00 -0.21710187677E+02  0.21710422612E+02  0.10100000000E+00 0. -1.
          2    1    1    2    0  502  0.36572391926E+02 -0.10798174374E+02  0.35785527524E+02  0.52294783752E+02  0.25500000000E-02 0.  1.
         -2    1    1    2  502    0 -0.36572391926E+02  0.10798174374E+02  0.13561443956E+02  0.40472869797E+02  0.25500000000E-02 0.  1.
<mgrwt>
<rscale>  0 0.78553892E+02</rscale>
<asrwt>0</asrwt>
<pdfrwt beam="2">  1        3 0.33400525E-02 0.78553892E+02</pdfrwt>
<pdfrwt beam="1">  1       -3 0.10931894E-01 0.78553892E+02</pdfrwt>
<totfact> 0.52639013E+04</totfact>
</mgrwt>
</event>
<event>
 4    1  0.1537855E-002  0.6897775E+02  0.7818608E-02  0.1363604E+00
          3   -1    0    0    0  501  0.00000000000E+00  0.00000000000E+00  0.53291746658E+03  0.53291747615E+03  0.10100000000E+00 0.  1.
         -3   -1    0    0  501    0 -0.00000000000E+00 -0.00000000000E+00 -0.22308677774E+01  0.22331529370E+01  0.10100000000E+00 0.  1.
          2    1    1    2    0  502 -0.38426174081E+01  0.33940926760E+02  0.30233195791E+03  0.30425542723E+03  0.25500000000E-02 0. -1.
         -2    1    1    2  502    0  0.38426174081E+01 -0.33940926760E+02  0.22835464089E+03  0.23089520185E+03  0.25500000000E-02 0. -1.
<mgrwt>
<rscale>  0 0.68977748E+02</rscale>
<asrwt>0</asrwt>
<pdfrwt beam="1">  1        3 0.81987597E-01 0.68977748E+02</pdfrwt>
<pdfrwt beam="2">  1       -3 0.34338645E-03 0.68977748E+02</pdfrwt>
<totfact> 0.35524375E+04</totfact>
</mgrwt>
</event>
<event>
 4    1  0.1537855E-002  0.5424199E+02  0.7818608E-02  0.1423718E+00
          3   -1    0    0    0  501  0.00000000000E+00  0.00000000000E+00  0.52690921618E+01  0.52700600764E+01  0.10100000000E+00 0.  1.
         -3   -1    0    0  501    0 -0.00000000000E+00 -0.00000000000E+00 -0.13958301086E+03  0.13958304740E+03  0.10100000000E+00 0.  1.
          2    1    1    2    0  502 -0.42369780185E+01  0.26749088469E+02 -0.63302945507E+02  0.68852949341E+02  0.25500000000E-02 0. -1.
         -2    1    1    2  502    0  0.42369780185E+01 -0.26749088469E+02 -0.71010973188E+02  0.76000158133E+02  0.25500000000E-02 0. -1.
<mgrwt>
<rscale>  0 0.54241995E+02</rscale>
<asrwt>0</asrwt>
<pdfrwt beam="1">  1        3 0.81070694E-03 0.54241995E+02</pdfrwt>
<pdfrwt beam="2">  1       -3 0.21474384E-01 0.54241995E+02</pdfrwt>
<totfact> 0.12328561E+05</totfact>
</mgrwt>
</event>
<event>
 4    1  0.1537855E-002  0.4343182E+02  0.7818608E-02  0.1484376E+00
          3   -1    0    0    0  501  0.00000000000E+00  0.00000000000E+00  0.37210103190E+02  0.37210240263E+02  0.10100000000E+00 0.  1.
         -3   -1    0    0  501    0 -0.00000000000E+00 -0.00000000000E+00 -0.12673097711E+02  0.12673500171E+02  0.10100000000E+00 0.  1.
          2    1    1    2    0  502  0.16727760993E+02  0.13847089887E+02  0.12434299715E+02  0.25023423069E+02  0.25500000000E-02 0.  1.
         -2    1    1    2  502    0 -0.16727760993E+02 -0.13847089887E+02  0.12102705764E+02  0.24860317365E+02  0.25500000000E-02 0.  1.
<mgrwt>
<rscale>  0 0.43431819E+02</rscale>
<asrwt>0</asrwt>
<pdfrwt beam="1">  1        3 0.57246728E-02 0.43431819E+02</pdfrwt>
<pdfrwt beam="2">  1       -3 0.19497488E-02 0.43431819E+02</pdfrwt>
<totfact> 0.26891483E+05</totfact>
</mgrwt>
</event>
<event>
 4    1  0.1537855E-002  0.6543496E+02  0.7818608E-02  0.1376343E+00
         -3   -1    0    0  501    0 -0.00000000000E+00  0.00000000000E+00  0.19432819498E+03  0.19432822123E+03  0.10100000000E+00 0. -1.
          3   -1    0    0    0  501  0.00000000000E+00 -0.00000000000E+00 -0.55078893383E+01  0.55088152957E+01  0.10100000000E+00 0. -1.
          2    1    1    2    0  502  0.14041042708E+02 -0.23141669707E+02  0.15053575380E+03  0.15294999489E+03  0.25500000000E-02 0.  1.
         -2    1    1    2  502    0 -0.14041042708E+02  0.23141669707E+02  0.38284551843E+02  0.46887041637E+02  0.25500000000E-02 0.  1.
<mgrwt>
<rscale>  0 0.65434955E+02</rscale>
<asrwt>0</asrwt>
<pdfrwt beam="2">  1        3 0.84744101E-03 0.65434955E+02</pdfrwt>
<pdfrwt beam="1">  1       -3 0.29896713E-01 0.65434955E+02</pdfrwt>
<totfact> 0.68475579E+04</totfact>
</mgrwt>
</event>
<event>
 4    1  0.1537855E-002  0.4203942E+02  0.7818608E-02  0.1493718E+00
          3   -1    0    0    0  501  0.00000000000E+00  0.00000000000E+00  0.17877540539E+01  0.17906048020E+01  0.10100000000E+00 0.  1.
         -3   -1    0    0  501    0 -0.00000000000E+00 -0.00000000000E+00 -0.24694172130E+03  0.24694174195E+03  0.10100000000E+00 0.  1.
          2    1    1    2    0  502  0.16294693026E+02 -0.12037710929E+02 -0.15573378174E+03  0.15704596234E+03  0.25500000000E-02 0.  1.
         -2    1    1    2  502    0 -0.16294693026E+02  0.12037710929E+02 -0.89420185498E+02  0.91686384410E+02  0.25500000000E-02 0.  1.
<mgrwt>
<rscale>  0 0.42039418E+02</rscale>
<asrwt>0</asrwt>
<pdfrwt beam="1">  1        3 0.27526016E-03 0.42039418E+02</pdfrwt>
<pdfrwt beam="2">  1       -3 0.37991228E-01 0.42039418E+02</pdfrwt>
<totfact> 0.18991623E+05</totfact>
</mgrwt>
</event>
<event>
 4    1  0.1537855E-002  0.6084603E+02  0.7818608E-02  0.1394315E+00
          3   -1    0    0    0  501  0.00000000000E+00  0.00000000000E+00  0.16983746960E+03  0.16983749963E+03  0.10100000000E+00 0.  1.
         -3   -1    0    0  501    0 -0.00000000000E+00 -0.00000000000E+00 -0.54491806818E+01  0.54501166137E+01  0.10100000000E+00 0.  1.
          2    1    1    2    0  502 -0.15262547425E+02  0.18731157361E+02  0.28936932589E+02  0.37698112474E+02  0.25500000000E-02 0.  1.
         -2    1    1    2  502    0  0.15262547425E+02 -0.18731157361E+02  0.13545135633E+03  0.13758950377E+03  0.25500000000E-02 0.  1.
<mgrwt>
<rscale>  0 0.60846026E+02</rscale>
<asrwt>0</asrwt>
<pdfrwt beam="1">  1        3 0.26128912E-01 0.60846026E+02</pdfrwt>
<pdfrwt beam="2">  1       -3 0.83840992E-03 0.60846026E+02</pdfrwt>
<totfact> 0.86541084E+04</totfact>
</mgrwt>
</event>
<event>
 4    1  0.1537855E-002  0.8030088E+02  0.7818608E-02  0.1328200E+00
          3   -1    0    0    0  501  0.00000000000E+00  0.00000000000E+00  0.65450773345E+02  0.65450851274E+02  0.10100000000E+00 0.  1.
         -3   -1    0    0  501    0 -0.00000000000E+00 -0.00000000000E+00 -0.24629883496E+02  0.24630090581E+02  0.10100000000E+00 0.  1.
          2    1    1    2    0  502  0.36164230877E+02  0.16704438471E+02  0.14782678614E+02  0.42490204201E+02  0.25500000000E-02 0. -1.
         -2    1    1    2  502    0 -0.36164230877E+02 -0.16704438471E+02  0.26038211235E+02  0.47590737653E+02  0.25500000000E-02 0. -1.
<mgrwt>
<rscale>  0 0.80300878E+02</rscale>
<asrwt>0</asrwt>
<pdfrwt beam="1">  1        3 0.10069372E-01 0.80300878E+02</pdfrwt>
<pdfrwt beam="2">  1       -3 0.37892348E-02 0.80300878E+02</pdfrwt>
<totfact> 0.49922128E+04</totfact>
</mgrwt>
</event>
<event>
 4    1  0.1537855E-002  0.4756077E+02  0.7818608E-02  0.1458960E+00
          3   -1    0    0    0  501  0.00000000000E+00  0.00000000000E+00  0.28342380818E+03  0.28342382617E+03  0.10100000000E+00 0. -1.
         -3   -1    0    0  501    0 -0.00000000000E+00 -0.00000000000E+00 -0.19939725688E+01  0.19965288892E+01  0.10100000000E+00 0. -1.
          2    1    1    2    0  502 -0.79942129707E+01 -0.20452962572E+02  0.85950958430E+02  0.88711884100E+02  0.25500000000E-02 0. -1.
         -2    1    1    2  502    0  0.79942129707E+01  0.20452962572E+02  0.19547887718E+03  0.19670847096E+03  0.25500000000E-02 0. -1.
<mgrwt>
<rscale>  0 0.47560769E+02</rscale>
<asrwt>0</asrwt>
<pdfrwt beam="1">  1        3 0.43603864E-01 0.47560769E+02</pdfrwt>
<pdfrwt beam="2">  1       -3 0.30696301E-03 0.47560769E+02</pdfrwt>
<totfact> 0.13171505E+05</totfact>
</mgrwt>
</event>
<event>
 4    1  0.1537855E-002  0.6484794E+02  0.7818608E-02  0.1378544E+00
          3   -1    0    0    0  501  0.00000000000E+00  0.00000000000E+00  0.73899698026E+02  0.73899767045E+02  0.10100000000E+00 0. -1.
         -3   -1    0    0  501    0 -0.00000000000E+00 -0.00000000000E+00 -0.14225971729E+02  0.14226330259E+02  0.10100000000E+00 0. -1.
          2    1    1    2    0  502  0.10845773194E+02  0.30169992083E+02  0.23255397299E+02  0.39606473316E+02  0.25500000000E-02 0.  1.
         -2    1    1    2  502    0 -0.10845773194E+02 -0.30169992083E+02  0.36418328998E+02  0.48519623988E+02  0.25500000000E-02 0.  1.
<mgrwt>
<rscale>  0 0.64847941E+02</rscale>
<asrwt>0</asrwt>
<pdfrwt beam="1">  1        3 0.11369218E-01 0.64847941E+02</pdfrwt>
<pdfrwt beam="2">  1       -3 0.21886439E-02 0.64847941E+02</pdfrwt>
<totfact> 0.88233774E+04</totfact>
</mgrwt>
</event>
<event>
 4    1  0.1537855E-002  0.1107693E+03  0.7818608E-02  0.1259152E+00
          3   -1    0    0    0  501  0.00000000000E+00  0.00000000000E+00  0.37973906634E+01  0.37987335851E+01  0.10100000000E+00 0.  1.
         -3   -1    0    0  501    0 -0.00000000000E+00 -0.00000000000E+00 -0.80763678784E+03  0.80763679415E+03  0.10100000000E+00 0.  1.
          2    1    1    2    0  502  0.33400155196E+02  0.43879451347E+02 -0.36422158072E+03  0.36837255121E+03  0.25500000000E-02 0.  1.
         -2    1    1    2  502    0 -0.33400155196E+02 -0.43879451347E+02 -0.43961781645E+03  0.44306297652E+03  0.25500000000E-02 0.  1.
<mgrwt>
<rscale>  0 0.11076931E+03</rscale>
<asrwt>0</asrwt>
<pdfrwt beam="1">  1        3 0.58431838E-03 0.11076931E+03</pdfrwt>
<pdfrwt beam="2">  1       -3 0.12425178E+00 0.11076931E+03</pdfrwt>
<totfact> 0.72414881E+03</totfact>
</mgrwt>
</event>
<event>
 4    1  0.1537855E-002  0.4856979E+02  0.7818608E-02  0.1453212E+00
         -3   -1    0    0  501    0 -0.00000000000E+00  0.00000000000E+00  0.53382057623E+02  0.53382153170E+02  0.10100000000E+00 0. -1.
          3   -1    0    0    0  501  0.00000000000E+00 -0.00000000000E+00 -0.11047498637E+02  0.11047960316E+02  0.10100000000E+00 0. -1.
          2    1    1    2    0  502  0.20401041797E+02  0.11577584288E+02  0.29505890188E+02  0.37694038344E+02  0.25500000000E-02 0. -1.
         -2    1    1    2  502    0 -0.20401041797E+02 -0.11577584288E+02  0.12828668797E+02  0.26736075142E+02  0.25500000000E-02 0. -1.
<mgrwt>
<rscale>  0 0.48569791E+02</rscale>
<asrwt>0</asrwt>
<pdfrwt beam="2">  1        3 0.16996581E-02 0.48569791E+02</pdfrwt>
<pdfrwt beam="1">  1       -3 0.82126670E-02 0.48569791E+02</pdfrwt>
<totfact> 0.19579863E+05</totfact>
</mgrwt>
</event>
<event>
 4    1  0.1537855E-002  0.5534508E+02  0.7818608E-02  0.1418474E+00
          3   -1    0    0    0  501  0.00000000000E+00  0.00000000000E+00  0.53617656610E+02  0.53617751737E+02  0.10100000000E+00 0. -1.
         -3   -1    0    0  501    0 -0.00000000000E+00 -0.00000000000E+00 -0.14281754105E+02  0.14282111234E+02  0.10100000000E+00 0. -1.
          2    1    1    2    0  502 -0.14266207579E+02  0.23559028847E+02  0.16372091736E+02  0.32040566680E+02  0.25500000000E-02 0.  1.
         -2    1    1    2  502    0  0.14266207579E+02 -0.23559028847E+02  0.22963810770E+02  0.35859296291E+02  0.25500000000E-02 0.  1.
<mgrwt>
<rscale>  0 0.55345083E+02</rscale>
<asrwt>0</asrwt>
<pdfrwt beam="1">  1        3 0.82489049E-02 0.55345083E+02</pdfrwt>
<pdfrwt beam="2">  1       -3 0.21972278E-02 0.55345083E+02</pdfrwt>
<totfact> 0.13941439E+05</totfact>
</mgrwt>
</event>
<event>
 4    1  0.1537855E-002  0.4667416E+02  0.7818608E-02  0.1464153E+00
         -3   -1    0    0  501    0 -0.00000000000E+00  0.00000000000E+00  0.31787455942E+02  0.31787616398E+02  0.10100000000E+00 0.  1.
          3   -1    0    0    0  501  0.00000000000E+00 -0.00000000000E+00 -0.17132800641E+02  0.17133098342E+02  0.10100000000E+00 0.  1.
          2    1    1    2    0  502  0.22207114613E+02  0.31350644983E+01  0.56424984639E+00  0.22434414484E+02  0.25500000000E-02 0. -1.
         -2    1    1    2  502    0 -0.22207114613E+02 -0.31350644983E+01  0.14090405455E+02  0.26486300256E+02  0.25500000000E-02 0. -1.
<mgrwt>
<rscale>  0 0.46674162E+02</rscale>
<asrwt>0</asrwt>
<pdfrwt beam="2">  1        3 0.26358507E-02 0.46674162E+02</pdfrwt>
<pdfrwt beam="1">  1       -3 0.48904131E-02 0.46674162E+02</pdfrwt>
<totfact> 0.22538657E+05</totfact>
</mgrwt>
</event>
<event>
 4    1  0.1537855E-002  0.7265488E+02  0.7818608E-02  0.1351291E+00
         -3   -1    0    0  501    0 -0.00000000000E+00  0.00000000000E+00  0.75743750558E+02  0.75743817897E+02  0.10100000000E+00 0.  1.
          3   -1    0    0    0  501  0.00000000000E+00 -0.00000000000E+00 -0.17422773470E+02  0.17423066217E+02  0.10100000000E+00 0.  1.
          2    1    1    2    0  502 -0.12223039573E+02 -0.34205025524E+02  0.28462232373E+02  0.46146344879E+02  0.25500000000E-02 0. -1.
         -2    1    1    2  502    0  0.12223039573E+02  0.34205025524E+02  0.29858744715E+02  0.47020539235E+02  0.25500000000E-02 0. -1.
<mgrwt>
<rscale>  0 0.72654882E+02</rscale>
<asrwt>0</asrwt>
<pdfrwt beam="2">  1        3 0.26804544E-02 0.72654882E+02</pdfrwt>
<pdfrwt beam="1">  1       -3 0.11652912E-01 0.72654882E+02</pdfrwt>
<totfact> 0.64723527E+04</totfact>
</mgrwt>
</event>
<event>
 4    1  0.1537855E-002  0.4872001E+02  0.7818608E-02  0.1452370E+00
          3   -1    0    0    0  501  0.00000000000E+00  0.00000000000E+00  0.82701192087E+01  0.82707359240E+01  0.10100000000E+00 0.  1.
         -3   -1    0    0  501    0 -0.00000000000E+00 -0.00000000000E+00 -0.71750167651E+02  0.71750238737E+02  0.10100000000E+00 0.  1.
          2    1    1    2    0  502 -0.98825928725E+01 -0.19978383773E+02 -0.15596287059E+02  0.27203779822E+02  0.25500000000E-02 0.  1.
         -2    1    1    2  502    0  0.98825928725E+01  0.19978383773E+02 -0.47883761383E+02  0.52817194840E+02  0.25500000000E-02 0.  1.
<mgrwt>
<rscale>  0 0.48720015E+02</rscale>
<asrwt>0</asrwt>
<pdfrwt beam="1">  1        3 0.12723790E-02 0.48720015E+02</pdfrwt>
<pdfrwt beam="2">  1       -3 0.11038540E-01 0.48720015E+02</pdfrwt>
<totfact> 0.18684401E+05</totfact>
</mgrwt>
</event>
<event>
 4    1  0.1537855E-002  0.4681629E+02  0.7818608E-02  0.1463311E+00
         -3   -1    0    0  501    0 -0.00000000000E+00  0.00000000000E+00  0.27351659472E+03  0.27351661337E+03  0.10100000000E+00 0.  1.
          3   -1    0    0    0  501  0.00000000000E+00 -0.00000000000E+00 -0.20020278747E+01  0.20045739225E+01  0.10100000000E+00 0.  1.
          2    1    1    2    0  502  0.11176465215E+02  0.20384232831E+02  0.15188608153E+03  0.15365484728E+03  0.25500000000E-02 0.  1.
         -2    1    1    2  502    0 -0.11176465215E+02 -0.20384232831E+02  0.11962848532E+03  0.12186634001E+03  0.25500000000E-02 0.  1.
<mgrwt>
<rscale>  0 0.46816286E+02</rscale>
<asrwt>0</asrwt>
<pdfrwt beam="2">  1        3 0.30820180E-03 0.46816286E+02</pdfrwt>
<pdfrwt beam="1">  1       -3 0.42079642E-01 0.46816286E+02</pdfrwt>
<totfact> 0.13924501E+05</totfact>
</mgrwt>
</event>
<event>
 4    1  0.1537855E-002  0.4416633E+02  0.7818608E-02  0.1479614E+00
         -3   -1    0    0  501    0 -0.00000000000E+00  0.00000000000E+00  0.53720546162E+02  0.53720641107E+02  0.10100000000E+00 0. -1.
          3   -1    0    0    0  501  0.00000000000E+00 -0.00000000000E+00 -0.90774482729E+01  0.90780101425E+01  0.10100000000E+00 0. -1.
          2    1    1    2    0  502 -0.18601422503E+02  0.11062488397E+02  0.28563939020E+02  0.35836994678E+02  0.25500000000E-02 0. -1.
         -2    1    1    2  502    0  0.18601422503E+02 -0.11062488397E+02  0.16079158869E+02  0.26961656572E+02  0.25500000000E-02 0. -1.
<mgrwt>
<rscale>  0 0.44166327E+02</rscale>
<asrwt>0</asrwt>
<pdfrwt beam="2">  1        3 0.13965810E-02 0.44166327E+02</pdfrwt>
<pdfrwt beam="1">  1       -3 0.82647499E-02 0.44166327E+02</pdfrwt>
<totfact> 0.24920418E+05</totfact>
</mgrwt>
</event>
<event>
 4    1  0.1537855E-002  0.9838650E+02  0.7818608E-02  0.1283726E+00
         -3   -1    0    0  501    0 -0.00000000000E+00  0.00000000000E+00  0.70269315740E+03  0.70269316466E+03  0.10100000000E+00 0. -1.
          3   -1    0    0    0  501  0.00000000000E+00 -0.00000000000E+00 -0.34431109551E+01  0.34445920004E+01  0.10100000000E+00 0. -1.
          2    1    1    2    0  502  0.29329748015E+02  0.11495995855E+02  0.62080319981E+03  0.62160196665E+03  0.25500000000E-02 0.  1.
         -2    1    1    2  502    0 -0.29329748015E+02 -0.11495995855E+02  0.78446846631E+02  0.84535790008E+02  0.25500000000E-02 0.  1.
<mgrwt>
<rscale>  0 0.98386503E+02</rscale>
<asrwt>0</asrwt>
<pdfrwt beam="2">  1        3 0.52982365E-03 0.98386503E+02</pdfrwt>
<pdfrwt beam="1">  1       -3 0.10810680E+00 0.98386503E+02</pdfrwt>
<totfact> 0.11249164E+04</totfact>
</mgrwt>
</event>
<event>
 4    1  0.1537855E-002  0.4616561E+02  0.7818608E-02  0.1467193E+00
          3   -1    0    0    0  501  0.00000000000E+00  0.00000000000E+00  0.25014500856E+02  0.25014704757E+02  0.10100000000E+00 0.  1.
         -3   -1    0    0  501    0 -0.00000000000E+00 -0.00000000000E+00 -0.21299874658E+02  0.21300114118E+02  0.10100000000E+00 0.  1.
          2    1    1    2    0  502 -0.17061943012E+02  0.15430893792E+02 -0.44495767341E-01  0.23004877068E+02  0.25500000000E-02 0. -1.
         -2    1    1    2  502    0  0.17061943012E+02 -0.15430893792E+02  0.37591219655E+01  0.23309941806E+02  0.25500000000E-02 0. -1.
<mgrwt>
<rscale>  0 0.46165615E+02</rscale>
<asrwt>0</asrwt>
<pdfrwt beam="1">  1        3 0.38484189E-02 0.46165615E+02</pdfrwt>
<pdfrwt beam="2">  1       -3 0.32769379E-02 0.46165615E+02</pdfrwt>
<totfact> 0.23330434E+05</totfact>
</mgrwt>
</event>
<event>
 4    1  0.1537855E-002  0.7562959E+02  0.7818608E-02  0.1341932E+00
         -3   -1    0    0  501    0 -0.00000000000E+00  0.00000000000E+00  0.49268727792E+02  0.49268831316E+02  0.10100000000E+00 0. -1.
          3   -1    0    0    0  501  0.00000000000E+00 -0.00000000000E+00 -0.29023439937E+02  0.29023615674E+02  0.10100000000E+00 0. -1.
          2    1    1    2    0  502 -0.19909011964E+02 -0.41833010712E+01  0.43121144730E+02  0.47679155766E+02  0.25500000000E-02 0. -1.
         -2    1    1    2  502    0  0.19909011964E+02  0.41833010712E+01 -0.22875856876E+02  0.30613291223E+02  0.25500000000E-02 0. -1.
<mgrwt>
<rscale>  0 0.75629595E+02</rscale>
<asrwt>0</asrwt>
<pdfrwt beam="2">  1        3 0.44651661E-02 0.75629595E+02</pdfrwt>
<pdfrwt beam="1">  1       -3 0.75798257E-02 0.75629595E+02</pdfrwt>
<totfact> 0.60196295E+04</totfact>
</mgrwt>
</event>
<event>
 4    1  0.1537855E-002  0.1915469E+03  0.7818608E-02  0.1157074E+00
          3   -1    0    0    0  501  0.00000000000E+00  0.00000000000E+00  0.51131904540E+03  0.51131905537E+03  0.10100000000E+00 0. -1.
         -3   -1    0    0  501    0 -0.00000000000E+00 -0.00000000000E+00 -0.17938846422E+02  0.17939130747E+02  0.10100000000E+00 0. -1.
          2    1    1    2    0  502  0.26842835868E+02  0.69708386803E+02  0.41230762271E+03  0.41901953746E+03  0.25500000000E-02 0.  1.
         -2    1    1    2  502    0 -0.26842835868E+02 -0.69708386803E+02  0.81072576269E+02  0.11023864866E+03  0.25500000000E-02 0.  1.
<mgrwt>
<rscale>  0 0.19154688E+03</rscale>
<asrwt>0</asrwt>
<pdfrwt beam="1">  1        3 0.78664491E-01 0.19154688E+03</pdfrwt>
<pdfrwt beam="2">  1       -3 0.27598452E-02 0.19154688E+03</pdfrwt>
<totfact> 0.21822292E+03</totfact>
</mgrwt>
</event>
<event>
 4    1  0.1537855E-002  0.4552630E+02  0.7818608E-02  0.1471083E+00
         -3   -1    0    0  501    0 -0.00000000000E+00  0.00000000000E+00  0.67250917680E+00  0.68005116931E+00  0.10100000000E+00 0.  1.
          3   -1    0    0    0  501  0.00000000000E+00 -0.00000000000E+00 -0.76618527407E+03  0.76618528073E+03  0.10100000000E+00 0.  1.
          2    1    1    2    0  502  0.80220362451E+01  0.21249378857E+02 -0.40814537621E+03  0.40877687960E+03  0.25500000000E-02 0.  1.
         -2    1    1    2  502    0 -0.80220362451E+01 -0.21249378857E+02 -0.35736738868E+03  0.35808845229E+03  0.25500000000E-02 0.  1.
<mgrwt>
<rscale>  0 0.45526301E+02</rscale>
<asrwt>0</asrwt>
<pdfrwt beam="2">  1        3 0.11787454E+00 0.45526301E+02</pdfrwt>
<pdfrwt beam="1">  1       -3 0.10404423E-03 0.45526301E+02</pdfrwt>
<totfact> 0.75836959E+04</totfact>
</mgrwt>
</event>
<event>
 4    1  0.1537855E-002  0.5406853E+02  0.7818608E-02  0.1424556E+00
          3   -1    0    0    0  501  0.00000000000E+00  0.00000000000E+00  0.19107640474E+03  0.19107643143E+03  0.10100000000E+00 0. -1.
         -3   -1    0    0  501    0 -0.00000000000E+00 -0.00000000000E+00 -0.38242241675E+01  0.38255576696E+01  0.10100000000E+00 0. -1.
          2    1    1    2    0  502  0.23346783873E+02  0.95268595102E+01  0.58488251701E+02  0.63692299086E+02  0.25500000000E-02 0.  1.
         -2    1    1    2  502    0 -0.23346783873E+02 -0.95268595102E+01  0.12876392887E+03  0.13120969002E+03  0.25500000000E-02 0.  1.
<mgrwt>
<rscale>  0 0.54068533E+02</rscale>
<asrwt>0</asrwt>
<pdfrwt beam="1">  1        3 0.29396475E-01 0.54068533E+02</pdfrwt>
<pdfrwt beam="2">  1       -3 0.58844680E-03 0.54068533E+02</pdfrwt>
<totfact> 0.11251537E+05</totfact>
</mgrwt>
</event>
<event>
 4    1  0.1537855E-002  0.5082542E+02  0.7818608E-02  0.1440940E+00
         -3   -1    0    0  501    0 -0.00000000000E+00  0.00000000000E+00  0.74762645654E+01  0.74769467600E+01  0.10100000000E+00 0. -1.
          3   -1    0    0    0  501  0.00000000000E+00 -0.00000000000E+00 -0.86376164558E+02  0.86376223608E+02  0.10100000000E+00 0. -1.
          2    1    1    2    0  502 -0.44444744101E+01  0.24772663046E+02 -0.45943938814E+02  0.52385911345E+02  0.25500000000E-02 0. -1.
         -2    1    1    2  502    0  0.44444744101E+01 -0.24772663046E+02 -0.32955961178E+02  0.41467259022E+02  0.25500000000E-02 0. -1.
<mgrwt>
<rscale>  0 0.50825421E+02</rscale>
<asrwt>0</asrwt>
<pdfrwt beam="2">  1        3 0.13288697E-01 0.50825421E+02</pdfrwt>
<pdfrwt beam="1">  1       -3 0.11502516E-02 0.50825421E+02</pdfrwt>
<totfact> 0.16254115E+05</totfact>
</mgrwt>
</event>
<event>
 4    1  0.1537855E-002  0.5025505E+02  0.7818608E-02  0.1443971E+00
          3   -1    0    0    0  501  0.00000000000E+00  0.00000000000E+00  0.46047338565E+02  0.46047449331E+02  0.10100000000E+00 0.  1.
         -3   -1    0    0  501    0 -0.00000000000E+00 -0.00000000000E+00 -0.13711499693E+02  0.13711871675E+02  0.10100000000E+00 0.  1.
          2    1    1    2    0  502 -0.10601371422E+02  0.21591759644E+02  0.24808444619E+02  0.34555058841E+02  0.25500000000E-02 0.  1.
         -2    1    1    2  502    0  0.10601371422E+02 -0.21591759644E+02  0.75273942524E+01  0.25204262165E+02  0.25500000000E-02 0.  1.
<mgrwt>
<rscale>  0 0.50255049E+02</rscale>
<asrwt>0</asrwt>
<pdfrwt beam="1">  1        3 0.70842432E-02 0.50255049E+02</pdfrwt>
<pdfrwt beam="2">  1       -3 0.21094986E-02 0.50255049E+02</pdfrwt>
<totfact> 0.18187524E+05</totfact>
</mgrwt>
</event>
<event>
 4    1  0.1537855E-002  0.4636461E+02  0.7818608E-02  0.1465998E+00
          3   -1    0    0    0  501  0.00000000000E+00  0.00000000000E+00  0.27501784915E+02  0.27501970375E+02  0.10100000000E+00 0.  1.
         -3   -1    0    0  501    0 -0.00000000000E+00 -0.00000000000E+00 -0.19540872542E+02  0.19541133557E+02  0.10100000000E+00 0.  1.
          2    1    1    2    0  502  0.19806036135E+02  0.11964951536E+02  0.25526547290E+01  0.23279930956E+02  0.25500000000E-02 0.  1.
         -2    1    1    2  502    0 -0.19806036135E+02 -0.11964951536E+02  0.54082576437E+01  0.23763172976E+02  0.25500000000E-02 0.  1.
<mgrwt>
<rscale>  0 0.46364615E+02</rscale>
<asrwt>0</asrwt>
<pdfrwt beam="1">  1        3 0.42310782E-02 0.46364615E+02</pdfrwt>
<pdfrwt beam="2">  1       -3 0.30063224E-02 0.46364615E+02</pdfrwt>
<totfact> 0.23034902E+05</totfact>
</mgrwt>
</event>
<event>
 4    1  0.1537855E-002  0.1110728E+03  0.7818608E-02  0.1258596E+00
         -3   -1    0    0  501    0 -0.00000000000E+00  0.00000000000E+00  0.69776710610E+02  0.69776783707E+02  0.10100000000E+00 0. -1.
          3   -1    0    0    0  501  0.00000000000E+00 -0.00000000000E+00 -0.44202175005E+02  0.44202290395E+02  0.10100000000E+00 0. -1.
          2    1    1    2    0  502 -0.51200801258E+02  0.16165234176E+01  0.34799837976E+02  0.61928700350E+02  0.25500000000E-02 0. -1.
         -2    1    1    2  502    0  0.51200801258E+02 -0.16165234176E+01 -0.92253023711E+01  0.52050373752E+02  0.25500000000E-02 0. -1.
<mgrwt>
<rscale>  0 0.11107283E+03</rscale>
<asrwt>0</asrwt>
<pdfrwt beam="2">  1        3 0.68003491E-02 0.11107283E+03</pdfrwt>
<pdfrwt beam="1">  1       -3 0.10734893E-01 0.11107283E+03</pdfrwt>
<totfact> 0.19556512E+04</totfact>
</mgrwt>
</event>
<event>
 4    1  0.1537855E-002  0.4733171E+02  0.7818608E-02  0.1460289E+00
         -3   -1    0    0  501    0 -0.00000000000E+00  0.00000000000E+00  0.89287835533E+03  0.89287836104E+03  0.10100000000E+00 0.  1.
          3   -1    0    0    0  501  0.00000000000E+00 -0.00000000000E+00 -0.62319502894E+00  0.63132641644E+00  0.10100000000E+00 0.  1.
          2    1    1    2    0  502 -0.13015286460E+02 -0.15863039962E+02  0.66872250500E+03  0.66903723545E+03  0.25500000000E-02 0. -1.
         -2    1    1    2  502    0  0.13015286460E+02  0.15863039962E+02  0.22353265530E+03  0.22447245200E+03  0.25500000000E-02 0. -1.
<mgrwt>
<rscale>  0 0.47331707E+02</rscale>
<asrwt>0</asrwt>
<pdfrwt beam="2">  1        3 0.96502388E-04 0.47331707E+02</pdfrwt>
<pdfrwt beam="1">  1       -3 0.13736610E+00 0.47331707E+02</pdfrwt>
<totfact> 0.59740932E+04</totfact>
</mgrwt>
</event>
<event>
 4    1  0.1537855E-002  0.5577643E+02  0.7818608E-02  0.1416462E+00
          3   -1    0    0    0  501  0.00000000000E+00  0.00000000000E+00  0.87954773365E+02  0.87954831355E+02  0.10100000000E+00 0. -1.
         -3   -1    0    0  501    0 -0.00000000000E+00 -0.00000000000E+00 -0.88422927645E+01  0.88428695758E+01  0.10100000000E+00 0. -1.
          2    1    1    2    0  502 -0.18471835662E+02 -0.83135332854E+01  0.62902048016E+01  0.21210616006E+02  0.25500000000E-02 0. -1.
         -2    1    1    2  502    0  0.18471835662E+02  0.83135332854E+01  0.72822275799E+02  0.75587084925E+02  0.25500000000E-02 0. -1.
<mgrwt>
<rscale>  0 0.55776432E+02</rscale>
<asrwt>0</asrwt>
<pdfrwt beam="1">  1        3 0.13531552E-01 0.55776432E+02</pdfrwt>
<pdfrwt beam="2">  1       -3 0.13604016E-02 0.55776432E+02</pdfrwt>
<totfact> 0.12754170E+05</totfact>
</mgrwt>
</event>
<event>
 4    1  0.1537855E-002  0.2424212E+03  0.7818608E-02  0.1118190E+00
          3   -1    0    0    0  501  0.00000000000E+00  0.00000000000E+00  0.47708237000E+03  0.47708238069E+03  0.10100000000E+00 0.  1.
         -3   -1    0    0  501    0 -0.00000000000E+00 -0.00000000000E+00 -0.30795442587E+02  0.30795608211E+02  0.10100000000E+00 0.  1.
          2    1    1    2    0  502  0.53954000976E+02 -0.95372026330E+02  0.33170427753E+03  0.34933448923E+03  0.25500000000E-02 0.  1.
         -2    1    1    2  502    0 -0.53954000976E+02  0.95372026330E+02  0.11458264989E+03  0.15854349967E+03  0.25500000000E-02 0.  1.
<mgrwt>
<rscale>  0 0.24242118E+03</rscale>
<asrwt>0</asrwt>
<pdfrwt beam="1">  1        3 0.73397296E-01 0.24242118E+03</pdfrwt>
<pdfrwt beam="2">  1       -3 0.47377743E-02 0.24242118E+03</pdfrwt>
<totfact> 0.11206133E+03</totfact>
</mgrwt>
</event>
<event>
 4    1  0.1537855E-002  0.4870272E+02  0.7818608E-02  0.1452467E+00
          3   -1    0    0    0  501  0.00000000000E+00  0.00000000000E+00  0.37737765431E+02  0.37737900587E+02  0.10100000000E+00 0. -1.
         -3   -1    0    0  501    0 -0.00000000000E+00 -0.00000000000E+00 -0.15713080162E+02  0.15713404761E+02  0.10100000000E+00 0. -1.
          2    1    1    2    0  502  0.16223693053E+02 -0.17811651381E+02  0.71281067186E+01  0.25125147822E+02  0.25500000000E-02 0. -1.
         -2    1    1    2  502    0 -0.16223693053E+02  0.17811651381E+02  0.14896578550E+02  0.28326157526E+02  0.25500000000E-02 0. -1.
<mgrwt>
<rscale>  0 0.48702724E+02</rscale>
<asrwt>0</asrwt>
<pdfrwt beam="1">  1        3 0.58058454E-02 0.48702724E+02</pdfrwt>
<pdfrwt beam="2">  1       -3 0.24174323E-02 0.48702724E+02</pdfrwt>
<totfact> 0.20011438E+05</totfact>
</mgrwt>
</event>
<event>
 4    1  0.1537855E-002  0.5897213E+02  0.7818608E-02  0.1402197E+00
          3   -1    0    0    0  501  0.00000000000E+00  0.00000000000E+00  0.51143997979E+03  0.51143998976E+03  0.10100000000E+00 0.  1.
         -3   -1    0    0  501    0 -0.00000000000E+00 -0.00000000000E+00 -0.16984506380E+01  0.17014510189E+01  0.10100000000E+00 0.  1.
          2    1    1    2    0  502 -0.14389607098E+02  0.15642243017E+02  0.43270524384E+03  0.43322692508E+03  0.25500000000E-02 0.  1.
         -2    1    1    2  502    0  0.14389607098E+02 -0.15642243017E+02  0.77036285309E+02  0.79914515701E+02  0.25500000000E-02 0.  1.
<mgrwt>
<rscale>  0 0.58972127E+02</rscale>
<asrwt>0</asrwt>
<pdfrwt beam="1">  1        3 0.78683395E-01 0.58972127E+02</pdfrwt>
<pdfrwt beam="2">  1       -3 0.26153137E-03 0.58972127E+02</pdfrwt>
<totfact> 0.54604227E+04</totfact>
</mgrwt>
</event>
<event>
 4    1  0.1537855E-002  0.5348129E+02  0.7818608E-02  0.1427421E+00
          3   -1    0    0    0  501  0.00000000000E+00  0.00000000000E+00  0.86170250338E+03  0.86170250930E+03  0.10100000000E+00 0. -1.
         -3   -1    0    0  501    0 -0.00000000000E+00 -0.00000000000E+00 -0.82674563942E+00  0.83289216126E+00  0.10100000000E+00 0. -1.
          2    1    1    2    0  502  0.17413001623E+02  0.16005022041E+02  0.22920280338E+03  0.23041983083E+03  0.25500000000E-02 0. -1.
         -2    1    1    2  502    0 -0.17413001623E+02 -0.16005022041E+02  0.63167295435E+03  0.63211557062E+03  0.25500000000E-02 0. -1.
<mgrwt>
<rscale>  0 0.53481291E+02</rscale>
<asrwt>0</asrwt>
<pdfrwt beam="1">  1        3 0.13256978E+00 0.53481291E+02</pdfrwt>
<pdfrwt beam="2">  1       -3 0.12766520E-03 0.53481291E+02</pdfrwt>
<totfact> 0.45801015E+04</totfact>
</mgrwt>
</event>
<event>
 4    1  0.1537855E-002  0.4566979E+02  0.7818608E-02  0.1470203E+00
          3   -1    0    0    0  501  0.00000000000E+00  0.00000000000E+00  0.84772271376E+02  0.84772331543E+02  0.10100000000E+00 0.  1.
         -3   -1    0    0  501    0 -0.00000000000E+00 -0.00000000000E+00 -0.61505018537E+01  0.61513310798E+01  0.10100000000E+00 0.  1.
          2    1    1    2    0  502 -0.10993978086E+02  0.19667187797E+02  0.31923998891E+02  0.39074384726E+02  0.25500000000E-02 0.  1.
         -2    1    1    2  502    0  0.10993978086E+02 -0.19667187797E+02  0.46697770631E+02  0.51849277897E+02  0.25500000000E-02 0.  1.
<mgrwt>
<rscale>  0 0.45669791E+02</rscale>
<asrwt>0</asrwt>
<pdfrwt beam="1">  1        3 0.13041956E-01 0.45669791E+02</pdfrwt>
<pdfrwt beam="2">  1       -3 0.94629949E-03 0.45669791E+02</pdfrwt>
<totfact> 0.21377896E+05</totfact>
</mgrwt>
</event>
<event>
 4    1  0.1537855E-002  0.4383004E+02  0.7818608E-02  0.1481780E+00
         -3   -1    0    0  501    0 -0.00000000000E+00  0.00000000000E+00  0.11395724485E+04  0.11395724530E+04  0.10100000000E+00 0. -1.
          3   -1    0    0    0  501  0.00000000000E+00 -0.00000000000E+00 -0.41539017485E+00  0.42749268691E+00  0.10100000000E+00 0. -1.
          2    1    1    2    0  502  0.10225331000E+02  0.19158768205E+02  0.49307176044E+03  0.49354977129E+03  0.25500000000E-02 0.  1.
         -2    1    1    2  502    0 -0.10225331000E+02 -0.19158768205E+02  0.64608529790E+03  0.64645017439E+03  0.25500000000E-02 0.  1.
<mgrwt>
<rscale>  0 0.43830042E+02</rscale>
<asrwt>0</asrwt>
<pdfrwt beam="2">  1        3 0.64837587E-04 0.43830042E+02</pdfrwt>
<pdfrwt beam="1">  1       -3 0.17531950E+00 0.43830042E+02</pdfrwt>
<totfact> 0.55977537E+04</totfact>
</mgrwt>
</event>
<event>
 4    1  0.1537855E-002  0.6736011E+02  0.7818608E-02  0.1369307E+00
         -3   -1    0    0  501    0 -0.00000000000E+00  0.00000000000E+00  0.78181117659E+00  0.78830813508E+00  0.10100000000E+00 0. -1.
          3   -1    0    0    0  501  0.00000000000E+00 -0.00000000000E+00 -0.14449105970E+04  0.14449106005E+04  0.10100000000E+00 0. -1.
          2    1    1    2    0  502 -0.16465518015E+02  0.14262474859E+02 -0.12733619097E+04  0.12735482262E+04  0.25500000000E-02 0.  1.
         -2    1    1    2  502    0  0.16465518015E+02 -0.14262474859E+02 -0.17076687611E+03  0.17215068241E+03  0.25500000000E-02 0.  1.
<mgrwt>
<rscale>  0 0.67360110E+02</rscale>
<asrwt>0</asrwt>
<pdfrwt beam="2">  1        3 0.22229231E+00 0.67360110E+02</pdfrwt>
<pdfrwt beam="1">  1       -3 0.12077984E-03 0.67360110E+02</pdfrwt>
<totfact> 0.14252146E+04</totfact>
</mgrwt>
</event>
<event>
 4    1  0.1537855E-002  0.4454219E+02  0.7818608E-02  0.1477220E+00
          3   -1    0    0    0  501  0.00000000000E+00  0.00000000000E+00  0.20759239649E+02  0.20759485346E+02  0.10100000000E+00 0.  1.
         -3   -1    0    0  501    0 -0.00000000000E+00 -0.00000000000E+00 -0.23892566030E+02  0.23892779506E+02  0.10100000000E+00 0.  1.
          2    1    1    2    0  502 -0.17783677209E+02 -0.11996680480E+02  0.44332947661E+01  0.21905105035E+02  0.25500000000E-02 0.  1.
         -2    1    1    2  502    0  0.17783677209E+02  0.11996680480E+02 -0.75666211472E+01  0.22747159816E+02  0.25500000000E-02 0.  1.
<mgrwt>
<rscale>  0 0.44542194E+02</rscale>
<asrwt>0</asrwt>
<pdfrwt beam="1">  1        3 0.31937645E-02 0.44542194E+02</pdfrwt>
<pdfrwt beam="2">  1       -3 0.36758147E-02 0.44542194E+02</pdfrwt>
<totfact> 0.25627444E+05</totfact>
</mgrwt>
</event>
<event>
 4    1  0.1537855E-002  0.4876994E+02  0.7818608E-02  0.1452091E+00
          3   -1    0    0    0  501  0.00000000000E+00  0.00000000000E+00  0.18426985318E+03  0.18426988086E+03  0.10100000000E+00 0.  1.
         -3   -1    0    0  501    0 -0.00000000000E+00 -0.00000000000E+00 -0.32261161327E+01  0.32276967488E+01  0.10100000000E+00 0.  1.
          2    1    1    2    0  502  0.18581508604E+02  0.15777532671E+02  0.88019330782E+02  0.91332390733E+02  0.25500000000E-02 0.  1.
         -2    1    1    2  502    0 -0.18581508604E+02 -0.15777532671E+02  0.93024406262E+02  0.96165186872E+02  0.25500000000E-02 0.  1.
<mgrwt>
<rscale>  0 0.48769938E+02</rscale>
<asrwt>0</asrwt>
<pdfrwt beam="1">  1        3 0.28349334E-01 0.48769938E+02</pdfrwt>
<pdfrwt beam="2">  1       -3 0.49644924E-03 0.48769938E+02</pdfrwt>
<totfact> 0.14775117E+05</totfact>
</mgrwt>
</event>
<event>
 4    1  0.1537855E-002  0.1014443E+03  0.7818608E-02  0.1277288E+00
          3   -1    0    0    0  501  0.00000000000E+00  0.00000000000E+00  0.40985357158E+02  0.40985481605E+02  0.10100000000E+00 0.  1.
         -3   -1    0    0  501    0 -0.00000000000E+00 -0.00000000000E+00 -0.62771884231E+02  0.62771965486E+02  0.10100000000E+00 0.  1.
          2    1    1    2    0  502 -0.46925728200E+02  0.80084961218E+01  0.70153714276E+01  0.48118348060E+02  0.25500000000E-02 0. -1.
         -2    1    1    2  502    0  0.46925728200E+02 -0.80084961218E+01 -0.28801898501E+02  0.55639099031E+02  0.25500000000E-02 0. -1.
<mgrwt>
<rscale>  0 0.10144434E+03</rscale>
<asrwt>0</asrwt>
<pdfrwt beam="1">  1        3 0.63054554E-02 0.10144434E+03</pdfrwt>
<pdfrwt beam="2">  1       -3 0.96572288E-02 0.10144434E+03</pdfrwt>
<totfact> 0.25673651E+04</totfact>
</mgrwt>
</event>
<event>
 4    1  0.1537855E-002  0.5673180E+02  0.7818608E-02  0.1412082E+00
         -3   -1    0    0  501    0 -0.00000000000E+00  0.00000000000E+00  0.90717964744E+02  0.90718020968E+02  0.10100000000E+00 0.  1.
          3   -1    0    0    0  501  0.00000000000E+00 -0.00000000000E+00 -0.88691679445E+01  0.88697430080E+01  0.10100000000E+00 0.  1.
          2    1    1    2    0  502  0.41150132151E+01  0.26832340148E+02  0.26479097117E+02  0.37921635015E+02  0.25500000000E-02 0. -1.
         -2    1    1    2  502    0 -0.41150132151E+01 -0.26832340148E+02  0.55369699683E+02  0.61666128961E+02  0.25500000000E-02 0. -1.
<mgrwt>
<rscale>  0 0.56731801E+02</rscale>
<asrwt>0</asrwt>
<pdfrwt beam="2">  1        3 0.13645358E-02 0.56731801E+02</pdfrwt>
<pdfrwt beam="1">  1       -3 0.13956659E-01 0.56731801E+02</pdfrwt>
<totfact> 0.12136290E+05</totfact>
</mgrwt>
</event>
<event>
 4    1  0.1537855E-002  0.6263424E+02  0.7818608E-02  0.1387098E+00
          3   -1    0    0    0  501  0.00000000000E+00  0.00000000000E+00  0.50736985344E+02  0.50737085872E+02  0.10100000000E+00 0. -1.
         -3   -1    0    0  501    0 -0.00000000000E+00 -0.00000000000E+00 -0.19330065735E+02  0.19330329596E+02  0.10100000000E+00 0. -1.
          2    1    1    2    0  502 -0.26187569074E+02  0.12085792246E+02  0.29354371365E+02  0.41152573103E+02  0.25500000000E-02 0. -1.
         -2    1    1    2  502    0  0.26187569074E+02 -0.12085792246E+02  0.20525482436E+01  0.28914842365E+02  0.25500000000E-02 0. -1.
<mgrwt>
<rscale>  0 0.62634241E+02</rscale>
<asrwt>0</asrwt>
<pdfrwt beam="1">  1        3 0.78057179E-02 0.62634241E+02</pdfrwt>
<pdfrwt beam="2">  1       -3 0.29738844E-02 0.62634241E+02</pdfrwt>
<totfact> 0.10082021E+05</totfact>
</mgrwt>
</event>
<event>
 4    1  0.1537855E-002  0.5588958E+02  0.7818608E-02  0.1415938E+00
          3   -1    0    0    0  501  0.00000000000E+00  0.00000000000E+00  0.25492503384E+02  0.25492703462E+02  0.10100000000E+00 0.  1.
         -3   -1    0    0  501    0 -0.00000000000E+00 -0.00000000000E+00 -0.30632569058E+02  0.30632735563E+02  0.10100000000E+00 0.  1.
          2    1    1    2    0  502 -0.21161912038E+02  0.14768029171E+02 -0.13338623619E+02  0.29048925853E+02  0.25500000000E-02 0. -1.
         -2    1    1    2  502    0  0.21161912038E+02 -0.14768029171E+02  0.81985579451E+01  0.27076513172E+02  0.25500000000E-02 0. -1.
<mgrwt>
<rscale>  0 0.55889575E+02</rscale>
<asrwt>0</asrwt>
<pdfrwt beam="1">  1        3 0.39219518E-02 0.55889575E+02</pdfrwt>
<pdfrwt beam="2">  1       -3 0.47127311E-02 0.55889575E+02</pdfrwt>
<totfact> 0.14009085E+05</totfact>
</mgrwt>
</event>
<event>
 4    1  0.1537855E-002  0.4440039E+02  0.7818608E-02  0.1478120E+00
         -3   -1    0    0  501    0 -0.00000000000E+00  0.00000000000E+00  0.58800608588E+00  0.59661726176E+00  0.10100000000E+00 0. -1.
          3   -1    0    0    0  501  0.00000000000E+00 -0.00000000000E+00 -0.83206802440E+03  0.83206803053E+03  0.10100000000E+00 0. -1.
          2    1    1    2    0  502  0.35373407711E+00  0.20991293976E+02 -0.28039041640E+03  0.28117529259E+03  0.25500000000E-02 0. -1.
         -2    1    1    2  502    0 -0.35373407711E+00 -0.20991293976E+02 -0.55108960192E+03  0.55148935520E+03  0.25500000000E-02 0. -1.
<mgrwt>
<rscale>  0 0.44400392E+02</rscale>
<asrwt>0</asrwt>
<pdfrwt beam="2">  1        3 0.12801019E+00 0.44400392E+02</pdfrwt>
<pdfrwt beam="1">  1       -3 0.91126011E-04 0.44400392E+02</pdfrwt>
<totfact> 0.74855983E+04</totfact>
</mgrwt>
</event>
<event>
 4    1  0.1537855E-002  0.1019426E+03  0.7818608E-02  0.1276263E+00
          3   -1    0    0    0  501  0.00000000000E+00  0.00000000000E+00  0.16174415711E+03  0.16174418864E+03  0.10100000000E+00 0. -1.
         -3   -1    0    0  501    0 -0.00000000000E+00 -0.00000000000E+00 -0.16062676227E+02  0.16062993762E+02  0.10100000000E+00 0. -1.
          2    1    1    2    0  502  0.22638726349E+02 -0.41193472448E+02  0.10722652295E+03  0.11707664726E+03  0.25500000000E-02 0.  1.
         -2    1    1    2  502    0 -0.22638726349E+02  0.41193472448E+02  0.38454957931E+02  0.60730535145E+02  0.25500000000E-02 0.  1.
<mgrwt>
<rscale>  0 0.10194263E+03</rscale>
<asrwt>0</asrwt>
<pdfrwt beam="1">  1        3 0.24883743E-01 0.10194263E+03</pdfrwt>
<pdfrwt beam="2">  1       -3 0.24712079E-02 0.10194263E+03</pdfrwt>
<totfact> 0.21907835E+04</totfact>
</mgrwt>
</event>
<event>
 4    1  0.1537855E-002  0.5597180E+02  0.7818608E-02  0.1415558E+00
         -3   -1    0    0  501    0 -0.00000000000E+00  0.00000000000E+00  0.72136590588E+01  0.72143660856E+01  0.10100000000E+00 0. -1.
          3   -1    0    0    0  501  0.00000000000E+00 -0.00000000000E+00 -0.10856721450E+03  0.10856726148E+03  0.10100000000E+00 0. -1.
          2    1    1    2    0  502 -0.55120456751E+01 -0.26548892862E+02 -0.65005891124E+02  0.70434311575E+02  0.25500000000E-02 0. -1.
         -2    1    1    2  502    0  0.55120456751E+01  0.26548892862E+02 -0.36347664317E+02  0.45347315990E+02  0.25500000000E-02 0. -1.
<mgrwt>
<rscale>  0 0.55971797E+02</rscale>
<asrwt>0</asrwt>
<pdfrwt beam="2">  1        3 0.16702705E-01 0.55971797E+02</pdfrwt>
<pdfrwt beam="1">  1       -3 0.11098518E-02 0.55971797E+02</pdfrwt>
<totfact> 0.12112265E+05</totfact>
</mgrwt>
</event>
<event>
 4    1  0.1537855E-002  0.4633476E+02  0.7818608E-02  0.1466177E+00
          3   -1    0    0    0  501  0.00000000000E+00  0.00000000000E+00  0.20137764877E+02  0.20138018156E+02  0.10100000000E+00 0. -1.
         -3   -1    0    0  501    0 -0.00000000000E+00 -0.00000000000E+00 -0.26652266305E+02  0.26652457677E+02  0.10100000000E+00 0. -1.
          2    1    1    2    0  502 -0.10202476625E+02 -0.19166259543E+02  0.49025331821E+01  0.22259175013E+02  0.25500000000E-02 0.  1.
         -2    1    1    2  502    0  0.10202476625E+02  0.19166259543E+02 -0.11417034610E+02  0.24531300820E+02  0.25500000000E-02 0.  1.
<mgrwt>
<rscale>  0 0.46334759E+02</rscale>
<asrwt>0</asrwt>
<pdfrwt beam="1">  1        3 0.30981519E-02 0.46334759E+02</pdfrwt>
<pdfrwt beam="2">  1       -3 0.41003829E-02 0.46334759E+02</pdfrwt>
<totfact> 0.23088353E+05</totfact>
</mgrwt>
</event>
<event>
 4    1  0.1537855E-002  0.5249582E+02  0.7818608E-02  0.1432327E+00
          3   -1    0    0    0  501  0.00000000000E+00  0.00000000000E+00  0.18286689025E+02  0.18286967942E+02  0.10100000000E+00 0.  1.
         -3   -1    0    0  501    0 -0.00000000000E+00 -0.00000000000E+00 -0.37674465729E+02  0.37674601112E+02  0.10100000000E+00 0.  1.
          2    1    1    2    0  502 -0.22877700123E+02  0.49014379669E+00 -0.23400570261E+02  0.32729437802E+02  0.25500000000E-02 0.  1.
         -2    1    1    2  502    0  0.22877700123E+02 -0.49014379669E+00  0.40127935567E+01  0.23232131251E+02  0.25500000000E-02 0.  1.
<mgrwt>
<rscale>  0 0.52495822E+02</rscale>
<asrwt>0</asrwt>
<pdfrwt beam="1">  1        3 0.28133686E-02 0.52495822E+02</pdfrwt>
<pdfrwt beam="2">  1       -3 0.57961035E-02 0.52495822E+02</pdfrwt>
<totfact> 0.16449183E+05</totfact>
</mgrwt>
</event>
<event>
 4    1  0.1537855E-002  0.4280515E+02  0.7818608E-02  0.1488528E+00
         -3   -1    0    0  501    0 -0.00000000000E+00  0.00000000000E+00  0.25395656326E+02  0.25395857166E+02  0.10100000000E+00 0. -1.
          3   -1    0    0    0  501  0.00000000000E+00 -0.00000000000E+00 -0.18036928593E+02  0.18037211371E+02  0.10100000000E+00 0. -1.
          2    1    1    2    0  502  0.14432900704E+02 -0.14599479680E+02 -0.24605766265E+01  0.20676263528E+02  0.25500000000E-02 0.  1.
         -2    1    1    2  502    0 -0.14432900704E+02  0.14599479680E+02  0.98193043596E+01  0.22756805010E+02  0.25500000000E-02 0.  1.
<mgrwt>
<rscale>  0 0.42805147E+02</rscale>
<asrwt>0</asrwt>
<pdfrwt beam="2">  1        3 0.27749493E-02 0.42805147E+02</pdfrwt>
<pdfrwt beam="1">  1       -3 0.39070613E-02 0.42805147E+02</pdfrwt>
<totfact> 0.28383869E+05</totfact>
</mgrwt>
</event>
<event>
 4    1  0.1537855E-002  0.4862534E+02  0.7818608E-02  0.1452900E+00
          3   -1    0    0    0  501  0.00000000000E+00  0.00000000000E+00  0.25360694500E+01  0.25380798362E+01  0.10100000000E+00 0.  1.
         -3   -1    0    0  501    0 -0.00000000000E+00 -0.00000000000E+00 -0.23298513984E+03  0.23298516174E+03  0.10100000000E+00 0.  1.
          2    1    1    2    0  502 -0.55384127878E+01  0.23494847731E+02 -0.10116637675E+03  0.10400633479E+03  0.25500000000E-02 0. -1.
         -2    1    1    2  502    0  0.55384127878E+01 -0.23494847731E+02 -0.12928269365E+03  0.13151690678E+03  0.25500000000E-02 0. -1.
<mgrwt>
<rscale>  0 0.48625336E+02</rscale>
<asrwt>0</asrwt>
<pdfrwt beam="1">  1        3 0.39032104E-03 0.48625336E+02</pdfrwt>
<pdfrwt beam="2">  1       -3 0.35844007E-01 0.48625336E+02</pdfrwt>
<totfact> 0.13604525E+05</totfact>
</mgrwt>
</event>
<event>
 4    1  0.1537855E-002  0.5391360E+02  0.7818608E-02  0.1425308E+00
         -3   -1    0    0  501    0 -0.00000000000E+00  0.00000000000E+00  0.29686570531E+03  0.29686572249E+03  0.10100000000E+00 0.  1.
          3   -1    0    0    0  501  0.00000000000E+00 -0.00000000000E+00 -0.24467445216E+01  0.24488282410E+01  0.10100000000E+00 0.  1.
          2    1    1    2    0  502  0.20848306636E+02 -0.28296831906E+01  0.53648167187E+02  0.57626251358E+02  0.25500000000E-02 0.  1.
         -2    1    1    2  502    0 -0.20848306636E+02  0.28296831906E+01  0.24077079360E+03  0.24168829937E+03  0.25500000000E-02 0.  1.
<mgrwt>
<rscale>  0 0.53913596E+02</rscale>
<asrwt>0</asrwt>
<pdfrwt beam="2">  1        3 0.37658426E-03 0.53913596E+02</pdfrwt>
<pdfrwt beam="1">  1       -3 0.45671758E-01 0.53913596E+02</pdfrwt>
<totfact> 0.94154656E+04</totfact>
</mgrwt>
</event>
<event>
 4    1  0.1537855E-002  0.4377207E+02  0.7818608E-02  0.1482156E+00
          3   -1    0    0    0  501  0.00000000000E+00  0.00000000000E+00  0.15856924862E+03  0.15856928079E+03  0.10100000000E+00 0.  1.
         -3   -1    0    0  501    0 -0.00000000000E+00 -0.00000000000E+00 -0.30198759185E+01  0.30215644232E+01  0.10100000000E+00 0.  1.
          2    1    1    2    0  502  0.81188731494E+01 -0.19434070636E+02  0.99738959174E+02  0.10193850689E+03  0.25500000000E-02 0. -1.
         -2    1    1    2  502    0 -0.81188731494E+01  0.19434070636E+02  0.55810413531E+02  0.59652338325E+02  0.25500000000E-02 0. -1.
<mgrwt>
<rscale>  0 0.43772068E+02</rscale>
<asrwt>0</asrwt>
<pdfrwt beam="1">  1        3 0.24395406E-01 0.43772068E+02</pdfrwt>
<pdfrwt beam="2">  1       -3 0.46472857E-03 0.43772068E+02</pdfrwt>
<totfact> 0.20317665E+05</totfact>
</mgrwt>
</event>
<event>
 4    1  0.1537855E-002  0.5509139E+02  0.7818608E-02  0.1419667E+00
          3   -1    0    0    0  501  0.00000000000E+00  0.00000000000E+00  0.21319141410E+01  0.21343052511E+01  0.10100000000E+00 0.  1.
         -3   -1    0    0  501    0 -0.00000000000E+00 -0.00000000000E+00 -0.35570610617E+03  0.35570612051E+03  0.10100000000E+00 0.  1.
          2    1    1    2    0  502 -0.20874318906E+02  0.11162461072E+02 -0.26828405210E+03  0.26932632686E+03  0.25500000000E-02 0.  1.
         -2    1    1    2  502    0  0.20874318906E+02 -0.11162461072E+02 -0.85290139938E+02  0.88514098901E+02  0.25500000000E-02 0.  1.
<mgrwt>
<rscale>  0 0.55091388E+02</rscale>
<asrwt>0</asrwt>
<pdfrwt beam="1">  1        3 0.32817211E-03 0.55091388E+02</pdfrwt>
<pdfrwt beam="2">  1       -3 0.54724154E-01 0.55091388E+02</pdfrwt>
<totfact> 0.81158233E+04</totfact>
</mgrwt>
</event>
<event>
 4    1  0.1537855E-002  0.5405262E+02  0.7818608E-02  0.1424633E+00
         -3   -1    0    0  501    0 -0.00000000000E+00  0.00000000000E+00  0.53525548414E+02  0.53525643705E+02  0.10100000000E+00 0.  1.
          3   -1    0    0    0  501  0.00000000000E+00 -0.00000000000E+00 -0.13645926120E+02  0.13646299889E+02  0.10100000000E+00 0.  1.
          2    1    1    2    0  502  0.10851878136E+02 -0.24696319303E+02  0.22000611654E+02  0.34809457995E+02  0.25500000000E-02 0. -1.
         -2    1    1    2  502    0 -0.10851878136E+02  0.24696319303E+02  0.17879010640E+02  0.32362485599E+02  0.25500000000E-02 0. -1.
<mgrwt>
<rscale>  0 0.54052620E+02</rscale>
<asrwt>0</asrwt>
<pdfrwt beam="2">  1        3 0.20994094E-02 0.54052620E+02</pdfrwt>
<pdfrwt beam="1">  1       -3 0.82347357E-02 0.54052620E+02</pdfrwt>
<totfact> 0.14837005E+05</totfact>
</mgrwt>
</event>
<event>
 4    1  0.1537855E-002  0.5225285E+02  0.7818608E-02  0.1433556E+00
          3   -1    0    0    0  501  0.00000000000E+00  0.00000000000E+00  0.15145886652E+03  0.15145890020E+03  0.10100000000E+00 0.  1.
         -3   -1    0    0  501    0 -0.00000000000E+00 -0.00000000000E+00 -0.45061685612E+01  0.45073003119E+01  0.10100000000E+00 0.  1.
          2    1    1    2    0  502 -0.17777444595E+02  0.19021330455E+02  0.79975833081E+02  0.84106970176E+02  0.25500000000E-02 0. -1.
         -2    1    1    2  502    0  0.17777444595E+02 -0.19021330455E+02  0.66976864879E+02  0.71859230333E+02  0.25500000000E-02 0. -1.
<mgrwt>
<rscale>  0 0.52252849E+02</rscale>
<asrwt>0</asrwt>
<pdfrwt beam="1">  1        3 0.23301452E-01 0.52252849E+02</pdfrwt>
<pdfrwt beam="2">  1       -3 0.69334642E-03 0.52252849E+02</pdfrwt>
<totfact> 0.13240944E+05</totfact>
</mgrwt>
</event>
<event>
 4    1  0.1537855E-002  0.4903394E+02  0.7818608E-02  0.1450623E+00
         -3   -1    0    0  501    0 -0.00000000000E+00  0.00000000000E+00  0.10546221547E+02  0.10546705169E+02  0.10100000000E+00 0. -1.
          3   -1    0    0    0  501  0.00000000000E+00 -0.00000000000E+00 -0.56993168541E+02  0.56993258035E+02  0.10100000000E+00 0. -1.
          2    1    1    2    0  502 -0.11010176252E+02 -0.17415112396E+02 -0.41526574175E+02  0.46356946514E+02  0.25500000000E-02 0.  1.
         -2    1    1    2  502    0  0.11010176252E+02  0.17415112396E+02 -0.49203728197E+01  0.21183016689E+02  0.25500000000E-02 0.  1.
<mgrwt>
<rscale>  0 0.49033945E+02</rscale>
<asrwt>0</asrwt>
<pdfrwt beam="2">  1        3 0.87682237E-02 0.49033945E+02</pdfrwt>
<pdfrwt beam="1">  1       -3 0.16225397E-02 0.49033945E+02</pdfrwt>
<totfact> 0.18965405E+05</totfact>
</mgrwt>
</event>
<event>
 4    1  0.1537855E-002  0.6396744E+02  0.7818608E-02  0.1381898E+00
          3   -1    0    0    0  501  0.00000000000E+00  0.00000000000E+00  0.90661260053E+01  0.90666885766E+01  0.10100000000E+00 0. -1.
         -3   -1    0    0  501    0 -0.00000000000E+00 -0.00000000000E+00 -0.11282892804E+03  0.11282897325E+03  0.10100000000E+00 0. -1.
          2    1    1    2    0  502 -0.25902705691E+02  0.13861633957E+02 -0.27787694700E+02  0.40438237366E+02  0.25500000000E-02 0. -1.
         -2    1    1    2  502    0  0.25902705691E+02 -0.13861633957E+02 -0.75975107339E+02  0.81457424460E+02  0.25500000000E-02 0. -1.
<mgrwt>
<rscale>  0 0.63967439E+02</rscale>
<asrwt>0</asrwt>
<pdfrwt beam="1">  1        3 0.13948355E-02 0.63967439E+02</pdfrwt>
<pdfrwt beam="2">  1       -3 0.17358342E-01 0.63967439E+02</pdfrwt>
<totfact> 0.84831454E+04</totfact>
</mgrwt>
</event>
<event>
 4    1  0.1537855E-002  0.7670043E+02  0.7818608E-02  0.1338685E+00
         -3   -1    0    0  501    0 -0.00000000000E+00  0.00000000000E+00  0.97819327063E+00  0.98339365195E+00  0.10100000000E+00 0.  1.
          3   -1    0    0    0  501  0.00000000000E+00 -0.00000000000E+00 -0.14995348513E+04  0.14995348547E+04  0.10100000000E+00 0.  1.
          2    1    1    2    0  502 -0.23614532932E+02  0.26005284633E+02 -0.10503368308E+04  0.10509240596E+04  0.25500000000E-02 0. -1.
         -2    1    1    2  502    0  0.23614532932E+02 -0.26005284633E+02 -0.44821982727E+03  0.44959418875E+03  0.25500000000E-02 0. -1.
<mgrwt>
<rscale>  0 0.76700432E+02</rscale>
<asrwt>0</asrwt>
<pdfrwt beam="2">  1        3 0.23069624E+00 0.76700432E+02</pdfrwt>
<pdfrwt beam="1">  1       -3 0.15089276E-03 0.76700432E+02</pdfrwt>
<totfact> 0.96458763E+03</totfact>
</mgrwt>
</event>
<event>
 4    1  0.1537855E-002  0.4122980E+02  0.7818608E-02  0.1499352E+00
          3   -1    0    0    0  501  0.00000000000E+00  0.00000000000E+00  0.18505008340E+01  0.18532550652E+01  0.10100000000E+00 0.  1.
         -3   -1    0    0  501    0 -0.00000000000E+00 -0.00000000000E+00 -0.22948004510E+03  0.22948006732E+03  0.10100000000E+00 0.  1.
          2    1    1    2    0  502 -0.10158729221E+02  0.17796341606E+02 -0.10118779644E+03  0.10324185057E+03  0.25500000000E-02 0.  1.
         -2    1    1    2  502    0  0.10158729221E+02 -0.17796341606E+02 -0.12644174782E+03  0.12809147182E+03  0.25500000000E-02 0.  1.
<mgrwt>
<rscale>  0 0.41229803E+02</rscale>
<asrwt>0</asrwt>
<pdfrwt beam="1">  1        3 0.28490619E-03 0.41229803E+02</pdfrwt>
<pdfrwt beam="2">  1       -3 0.35304813E-01 0.41229803E+02</pdfrwt>
<totfact> 0.20544172E+05</totfact>
</mgrwt>
</event>
<event>
 4    1  0.1537855E-002  0.6673692E+02  0.7818608E-02  0.1371554E+00
         -3   -1    0    0  501    0 -0.00000000000E+00  0.00000000000E+00  0.97915504654E+01  0.97920713599E+01  0.10100000000E+00 0. -1.
          3   -1    0    0    0  501  0.00000000000E+00 -0.00000000000E+00 -0.11371225385E+03  0.11371229871E+03  0.10100000000E+00 0. -1.
          2    1    1    2    0  502  0.71996881546E+00 -0.27393684170E+02 -0.87196082307E+02  0.91400706035E+02  0.25500000000E-02 0. -1.
         -2    1    1    2  502    0 -0.71996881546E+00  0.27393684170E+02 -0.16724621081E+02  0.32103664032E+02  0.25500000000E-02 0. -1.
<mgrwt>
<rscale>  0 0.66736923E+02</rscale>
<asrwt>0</asrwt>
<pdfrwt beam="2">  1        3 0.17494235E-01 0.66736923E+02</pdfrwt>
<pdfrwt beam="1">  1       -3 0.15064360E-02 0.66736923E+02</pdfrwt>
<totfact> 0.75705830E+04</totfact>
</mgrwt>
</event>
<event>
 4    1  0.1537855E-002  0.5692747E+02  0.7818608E-02  0.1411198E+00
         -3   -1    0    0  501    0 -0.00000000000E+00  0.00000000000E+00  0.27534137428E+03  0.27534139281E+03  0.10100000000E+00 0. -1.
          3   -1    0    0    0  501  0.00000000000E+00 -0.00000000000E+00 -0.29415864749E+01  0.29433198925E+01  0.10100000000E+00 0. -1.
          2    1    1    2    0  502  0.20295145888E+02  0.13504305863E+02  0.64367733885E+02  0.68829240846E+02  0.25500000000E-02 0. -1.
         -2    1    1    2  502    0 -0.20295145888E+02 -0.13504305863E+02  0.20803205392E+03  0.20945547185E+03  0.25500000000E-02 0. -1.
<mgrwt>
<rscale>  0 0.56927471E+02</rscale>
<asrwt>0</asrwt>
<pdfrwt beam="2">  1        3 0.45268657E-03 0.56927471E+02</pdfrwt>
<pdfrwt beam="1">  1       -3 0.42360342E-01 0.56927471E+02</pdfrwt>
<totfact> 0.85039991E+04</totfact>
</mgrwt>
</event>
<event>
 4    1  0.1537855E-002  0.4273642E+02  0.7818608E-02  0.1488989E+00
         -3   -1    0    0  501    0 -0.00000000000E+00  0.00000000000E+00  0.41291992868E+02  0.41292116390E+02  0.10100000000E+00 0.  1.
          3   -1    0    0    0  501  0.00000000000E+00 -0.00000000000E+00 -0.11057474762E+02  0.11057936024E+02  0.10100000000E+00 0.  1.
          2    1    1    2    0  502 -0.20799630620E+02  0.48414072723E+01  0.16014581824E+02  0.26693270608E+02  0.25500000000E-02 0.  1.
         -2    1    1    2  502    0  0.20799630620E+02 -0.48414072723E+01  0.14219936282E+02  0.25656781806E+02  0.25500000000E-02 0.  1.
<mgrwt>
<rscale>  0 0.42736424E+02</rscale>
<asrwt>0</asrwt>
<pdfrwt beam="2">  1        3 0.17011949E-02 0.42736424E+02</pdfrwt>
<pdfrwt beam="1">  1       -3 0.63526593E-02 0.42736424E+02</pdfrwt>
<totfact> 0.27799266E+05</totfact>
</mgrwt>
</event>
<event>
 4    1  0.1537855E-002  0.4375365E+02  0.7818608E-02  0.1482276E+00
         -3   -1    0    0  501    0 -0.00000000000E+00  0.00000000000E+00  0.98925176989E+00  0.99439432029E+00  0.10100000000E+00 0. -1.
          3   -1    0    0    0  501  0.00000000000E+00 -0.00000000000E+00 -0.48253604031E+03  0.48253605088E+03  0.10100000000E+00 0. -1.
          2    1    1    2    0  502 -0.21251552658E+02  0.44135995630E+01 -0.27101234517E+03  0.27188011989E+03  0.25500000000E-02 0.  1.
         -2    1    1    2  502    0  0.21251552658E+02 -0.44135995630E+01 -0.21053444337E+03  0.21165032531E+03  0.25500000000E-02 0.  1.
<mgrwt>
<rscale>  0 0.43753650E+02</rscale>
<asrwt>0</asrwt>
<pdfrwt beam="2">  1        3 0.74236523E-01 0.43753650E+02</pdfrwt>
<pdfrwt beam="1">  1       -3 0.15258936E-03 0.43753650E+02</pdfrwt>
<totfact> 0.11932265E+05</totfact>
</mgrwt>
</event>
<event>
 4    1  0.1537855E-002  0.4417454E+02  0.7818608E-02  0.1479562E+00
         -3   -1    0    0  501    0 -0.00000000000E+00  0.00000000000E+00  0.80903048712E+01  0.80909352926E+01  0.10100000000E+00 0. -1.
          3   -1    0    0    0  501  0.00000000000E+00 -0.00000000000E+00 -0.60297244681E+02  0.60297329270E+02  0.10100000000E+00 0. -1.
          2    1    1    2    0  502  0.29424808361E+01 -0.21607670656E+02 -0.31532536722E+02  0.38338629387E+02  0.25500000000E-02 0. -1.
         -2    1    1    2  502    0 -0.29424808361E+01  0.21607670656E+02 -0.20674403087E+02  0.30049635175E+02  0.25500000000E-02 0. -1.
<mgrwt>
<rscale>  0 0.44174542E+02</rscale>
<asrwt>0</asrwt>
<pdfrwt beam="2">  1        3 0.92765539E-02 0.44174542E+02</pdfrwt>
<pdfrwt beam="1">  1       -3 0.12447173E-02 0.44174542E+02</pdfrwt>
<totfact> 0.24548012E+05</totfact>
</mgrwt>
</event>
<event>
 4    1  0.1537855E-002  0.1711637E+03  0.7818608E-02  0.1176640E+00
         -3   -1    0    0  501    0 -0.00000000000E+00  0.00000000000E+00  0.34104878301E+03  0.34104879796E+03  0.10100000000E+00 0.  1.
          3   -1    0    0    0  501  0.00000000000E+00 -0.00000000000E+00 -0.21475549824E+02  0.21475787325E+02  0.10100000000E+00 0.  1.
          2    1    1    2    0  502 -0.32657960053E+02  0.56139834829E+02  0.41746749896E+02  0.77207606768E+02  0.25500000000E-02 0. -1.
         -2    1    1    2  502    0  0.32657960053E+02 -0.56139834829E+02  0.27782648329E+03  0.28531697852E+03  0.25500000000E-02 0. -1.
<mgrwt>
<rscale>  0 0.17116373E+03</rscale>
<asrwt>0</asrwt>
<pdfrwt beam="2">  1        3 0.33039501E-02 0.17116373E+03</pdfrwt>
<pdfrwt beam="1">  1       -3 0.52469064E-01 0.17116373E+03</pdfrwt>
<totfact> 0.37824672E+03</totfact>
</mgrwt>
</event>
<event>
 4    1  0.1537855E-002  0.5393612E+02  0.7818608E-02  0.1425198E+00
         -3   -1    0    0  501    0 -0.00000000000E+00  0.00000000000E+00  0.32404295259E+02  0.32404452661E+02  0.10100000000E+00 0. -1.
          3   -1    0    0    0  501  0.00000000000E+00 -0.00000000000E+00 -0.22443493725E+02  0.22443720983E+02  0.10100000000E+00 0. -1.
          2    1    1    2    0  502  0.19886456965E+01  0.22606154195E+02  0.19796720359E+02  0.30114831274E+02  0.25500000000E-02 0. -1.
         -2    1    1    2  502    0 -0.19886456965E+01 -0.22606154195E+02 -0.98359188238E+01  0.24733342370E+02  0.25500000000E-02 0. -1.
<mgrwt>
<rscale>  0 0.53936116E+02</rscale>
<asrwt>0</asrwt>
<pdfrwt beam="2">  1        3 0.34528748E-02 0.53936116E+02</pdfrwt>
<pdfrwt beam="1">  1       -3 0.49853057E-02 0.53936116E+02</pdfrwt>
<totfact> 0.15396097E+05</totfact>
</mgrwt>
</event>
<event>
 4    1  0.1537855E-002  0.5322733E+02  0.7818608E-02  0.1428673E+00
         -3   -1    0    0  501    0 -0.00000000000E+00  0.00000000000E+00  0.74728155496E+03  0.74728156179E+03  0.10100000000E+00 0.  1.
          3   -1    0    0    0  501  0.00000000000E+00 -0.00000000000E+00 -0.94512095449E+00  0.95050229806E+00  0.10100000000E+00 0.  1.
          2    1    1    2    0  502  0.15387152491E+01 -0.23447308792E+02  0.19751209244E+03  0.19890492854E+03  0.25500000000E-02 0.  1.
         -2    1    1    2  502    0 -0.15387152491E+01  0.23447308792E+02  0.54882434157E+03  0.54932713554E+03  0.25500000000E-02 0.  1.
<mgrwt>
<rscale>  0 0.53227333E+02</rscale>
<asrwt>0</asrwt>
<pdfrwt beam="2">  1        3 0.14581766E-03 0.53227333E+02</pdfrwt>
<pdfrwt beam="1">  1       -3 0.11496684E+00 0.53227333E+02</pdfrwt>
<totfact> 0.52542384E+04</totfact>
</mgrwt>
</event>
<event>
 4    1  0.1537855E-002  0.9066967E+02  0.7818608E-02  0.1301238E+00
         -3   -1    0    0  501    0 -0.00000000000E+00  0.00000000000E+00  0.50715749432E+02  0.50715850003E+02  0.10100000000E+00 0.  1.
          3   -1    0    0    0  501  0.00000000000E+00 -0.00000000000E+00 -0.40524630736E+02  0.40524756598E+02  0.10100000000E+00 0.  1.
          2    1    1    2    0  502 -0.41392999080E+02  0.13610852437E+02  0.17688819440E+02  0.47026907368E+02  0.25500000000E-02 0. -1.
         -2    1    1    2  502    0  0.41392999080E+02 -0.13610852437E+02 -0.74977007440E+01  0.44213699233E+02  0.25500000000E-02 0. -1.
<mgrwt>
<rscale>  0 0.90669672E+02</rscale>
<asrwt>0</asrwt>
<pdfrwt beam="2">  1        3 0.62345760E-02 0.90669672E+02</pdfrwt>
<pdfrwt beam="1">  1       -3 0.78024404E-02 0.90669672E+02</pdfrwt>
<totfact> 0.35874873E+04</totfact>
</mgrwt>
</event>
<event>
 4    1  0.1537855E-002  0.4134414E+02  0.7818608E-02  0.1498547E+00
          3   -1    0    0    0  501  0.00000000000E+00  0.00000000000E+00  0.24985701977E+01  0.25006107320E+01  0.10100000000E+00 0.  1.
         -3   -1    0    0  501    0 -0.00000000000E+00 -0.00000000000E+00 -0.17095974174E+03  0.17095977157E+03  0.10100000000E+00 0.  1.
          2    1    1    2    0  502 -0.13313517235E+02  0.15813165058E+02 -0.84939385116E+02  0.87418562564E+02  0.25500000000E-02 0.  1.
         -2    1    1    2  502    0  0.13313517235E+02 -0.15813165058E+02 -0.83521786425E+02  0.86041819742E+02  0.25500000000E-02 0.  1.
<mgrwt>
<rscale>  0 0.41344140E+02</rscale>
<asrwt>0</asrwt>
<pdfrwt beam="1">  1        3 0.38455481E-03 0.41344140E+02</pdfrwt>
<pdfrwt beam="2">  1       -3 0.26301649E-01 0.41344140E+02</pdfrwt>
<totfact> 0.22798560E+05</totfact>
</mgrwt>
</event>
<event>
 4    1  0.1537855E-002  0.6730850E+02  0.7818608E-02  0.1369492E+00
          3   -1    0    0    0  501  0.00000000000E+00  0.00000000000E+00  0.11024874597E+02  0.11025337223E+02  0.10100000000E+00 0. -1.
         -3   -1    0    0  501    0 -0.00000000000E+00 -0.00000000000E+00 -0.10272944840E+03  0.10272949805E+03  0.10100000000E+00 0. -1.
          2    1    1    2    0  502 -0.33006572270E+02 -0.59839447560E+01 -0.41265109212E+02  0.53179419446E+02  0.25500000000E-02 0.  1.
         -2    1    1    2  502    0  0.33006572270E+02  0.59839447560E+01 -0.50439464594E+02  0.60575415829E+02  0.25500000000E-02 0.  1.
<mgrwt>
<rscale>  0 0.67308496E+02</rscale>
<asrwt>0</asrwt>
<pdfrwt beam="1">  1        3 0.16961740E-02 0.67308496E+02</pdfrwt>
<pdfrwt beam="2">  1       -3 0.15804569E-01 0.67308496E+02</pdfrwt>
<totfact> 0.75608654E+04</totfact>
</mgrwt>
</event>
<event>
 4    1  0.1537855E-002  0.5356665E+02  0.7818608E-02  0.1427001E+00
          3   -1    0    0    0  501  0.00000000000E+00  0.00000000000E+00  0.50070754328E+01  0.50080939877E+01  0.10100000000E+00 0.  1.
         -3   -1    0    0  501    0 -0.00000000000E+00 -0.00000000000E+00 -0.14325097477E+03  0.14325101038E+03  0.10100000000E+00 0.  1.
          2    1    1    2    0  502  0.19002683339E+02 -0.77425348773E+01 -0.11676406541E+03  0.11855334579E+03  0.25500000000E-02 0.  1.
         -2    1    1    2  502    0 -0.19002683339E+02  0.77425348773E+01 -0.21479833931E+02  0.29705758577E+02  0.25500000000E-02 0.  1.
<mgrwt>
<rscale>  0 0.53566653E+02</rscale>
<asrwt>0</asrwt>
<pdfrwt beam="1">  1        3 0.77040050E-03 0.53566653E+02</pdfrwt>
<pdfrwt beam="2">  1       -3 0.22038689E-01 0.53566653E+02</pdfrwt>
<totfact> 0.12636069E+05</totfact>
</mgrwt>
</event>
<event>
 4    1  0.1537855E-002  0.1604528E+03  0.7818608E-02  0.1188187E+00
         -3   -1    0    0  501    0 -0.00000000000E+00  0.00000000000E+00  0.11218121316E+04  0.11218121362E+04  0.10100000000E+00 0. -1.
          3   -1    0    0    0  501  0.00000000000E+00 -0.00000000000E+00 -0.57369395804E+01  0.57378285744E+01  0.10100000000E+00 0. -1.
          2    1    1    2    0  502  0.38126685605E+02 -0.41296047455E+02  0.96033232737E+03  0.96197566845E+03  0.25500000000E-02 0. -1.
         -2    1    1    2  502    0 -0.38126685605E+02  0.41296047455E+02  0.15574286468E+03  0.16557429630E+03  0.25500000000E-02 0. -1.
<mgrwt>
<rscale>  0 0.16045276E+03</rscale>
<asrwt>0</asrwt>
<pdfrwt beam="2">  1        3 0.88267492E-03 0.16045276E+03</pdfrwt>
<pdfrwt beam="1">  1       -3 0.17258653E+00 0.16045276E+03</pdfrwt>
<totfact> 0.18627630E+03</totfact>
</mgrwt>
</event>
<event>
 4    1  0.1537855E-002  0.5469087E+02  0.7818608E-02  0.1421566E+00
         -3   -1    0    0  501    0 -0.00000000000E+00  0.00000000000E+00  0.18173623111E+03  0.18173625917E+03  0.10100000000E+00 0. -1.
          3   -1    0    0    0  501  0.00000000000E+00 -0.00000000000E+00 -0.41139567668E+01  0.41151963840E+01  0.10100000000E+00 0. -1.
          2    1    1    2    0  502  0.22998960192E+02 -0.14683412997E+02  0.94907129746E+02  0.98751800340E+02  0.25500000000E-02 0. -1.
         -2    1    1    2  502    0 -0.22998960192E+02  0.14683412997E+02  0.82715144593E+02  0.87099655216E+02  0.25500000000E-02 0. -1.
<mgrwt>
<rscale>  0 0.54690869E+02</rscale>
<asrwt>0</asrwt>
<pdfrwt beam="2">  1        3 0.63301400E-03 0.54690869E+02</pdfrwt>
<pdfrwt beam="1">  1       -3 0.27959515E-01 0.54690869E+02</pdfrwt>
<totfact> 0.11122725E+05</totfact>
</mgrwt>
</event>
<event>
 4    1  0.1537855E-002  0.5476575E+02  0.7818608E-02  0.1421210E+00
          3   -1    0    0    0  501  0.00000000000E+00  0.00000000000E+00  0.92334791506E+01  0.92340315261E+01  0.10100000000E+00 0. -1.
         -3   -1    0    0  501    0 -0.00000000000E+00 -0.00000000000E+00 -0.81203850803E+02  0.81203913614E+02  0.10100000000E+00 0. -1.
          2    1    1    2    0  502 -0.54722057323E+01  0.26475832157E+02 -0.28804685926E+02  0.39504742269E+02  0.25500000000E-02 0. -1.
         -2    1    1    2  502    0  0.54722057323E+01 -0.26475832157E+02 -0.43165685726E+02  0.50933202871E+02  0.25500000000E-02 0. -1.
<mgrwt>
<rscale>  0 0.54765751E+02</rscale>
<asrwt>0</asrwt>
<pdfrwt beam="1">  1        3 0.14205826E-02 0.54765751E+02</pdfrwt>
<pdfrwt beam="2">  1       -3 0.12492947E-01 0.54765751E+02</pdfrwt>
<totfact> 0.13563119E+05</totfact>
</mgrwt>
</event>
<event>
 4    1  0.1537855E-002  0.4324505E+02  0.7818608E-02  0.1485605E+00
         -3   -1    0    0  501    0 -0.00000000000E+00  0.00000000000E+00  0.53502803087E+02  0.53502898418E+02  0.10100000000E+00 0.  1.
          3   -1    0    0    0  501  0.00000000000E+00 -0.00000000000E+00 -0.87380918163E+01  0.87386755055E+01  0.10100000000E+00 0.  1.
          2    1    1    2    0  502 -0.10573315617E+02  0.18317057971E+02  0.28854926313E+02  0.35775919204E+02  0.25500000000E-02 0.  1.
         -2    1    1    2  502    0  0.10573315617E+02 -0.18317057971E+02  0.15909784957E+02  0.26465654720E+02  0.25500000000E-02 0.  1.
<mgrwt>
<rscale>  0 0.43245048E+02</rscale>
<asrwt>0</asrwt>
<pdfrwt beam="2">  1        3 0.13443740E-02 0.43245048E+02</pdfrwt>
<pdfrwt beam="1">  1       -3 0.82312528E-02 0.43245048E+02</pdfrwt>
<totfact> 0.26293394E+05</totfact>
</mgrwt>
</event>
<event>
 4    1  0.1537855E-002  0.5188933E+02  0.7818608E-02  0.1435409E+00
          3   -1    0    0    0  501  0.00000000000E+00  0.00000000000E+00  0.15388902603E+04  0.15388902636E+04  0.10100000000E+00 0.  1.
         -3   -1    0    0  501    0 -0.00000000000E+00 -0.00000000000E+00 -0.43157609923E+00  0.44323687733E+00  0.10100000000E+00 0.  1.
          2    1    1    2    0  502  0.73341524771E+01 -0.19947031019E+02  0.12106923221E+04  0.12108788431E+04  0.25500000000E-02 0.  1.
         -2    1    1    2  502    0 -0.73341524771E+01  0.19947031019E+02  0.32776636202E+03  0.32845465732E+03  0.25500000000E-02 0.  1.
<mgrwt>
<rscale>  0 0.51889332E+02</rscale>
<asrwt>0</asrwt>
<pdfrwt beam="1">  1        3 0.23675200E+00 0.51889332E+02</pdfrwt>
<pdfrwt beam="2">  1       -3 0.67293914E-04 0.51889332E+02</pdfrwt>
<totfact> 0.25269579E+04</totfact>
</mgrwt>
</event>
<event>
 4    1  0.1537855E-002  0.4898982E+02  0.7818608E-02  0.1450868E+00
          3   -1    0    0    0  501  0.00000000000E+00  0.00000000000E+00  0.37992341137E+02  0.37992475388E+02  0.10100000000E+00 0. -1.
         -3   -1    0    0  501    0 -0.00000000000E+00 -0.00000000000E+00 -0.15792346321E+02  0.15792669291E+02  0.10100000000E+00 0. -1.
          2    1    1    2    0  502 -0.22842630547E+02  0.62186684395E+01  0.18003837828E+02  0.29742155109E+02  0.25500000000E-02 0. -1.
         -2    1    1    2  502    0  0.22842630547E+02 -0.62186684395E+01  0.41961569880E+01  0.24042989570E+02  0.25500000000E-02 0. -1.
<mgrwt>
<rscale>  0 0.48989815E+02</rscale>
<asrwt>0</asrwt>
<pdfrwt beam="1">  1        3 0.58450107E-02 0.48989815E+02</pdfrwt>
<pdfrwt beam="2">  1       -3 0.24296269E-02 0.48989815E+02</pdfrwt>
<totfact> 0.19700435E+05</totfact>
</mgrwt>
</event>
<event>
 4    1  0.1537855E-002  0.4116897E+02  0.7818608E-02  0.1499781E+00
         -3   -1    0    0  501    0 -0.00000000000E+00  0.00000000000E+00  0.52463553747E+00  0.53426907750E+00  0.10100000000E+00 0.  1.
          3   -1    0    0    0  501  0.00000000000E+00 -0.00000000000E+00 -0.80029084393E+03  0.80029085031E+03  0.10100000000E+00 0.  1.
          2    1    1    2    0  502 -0.98028607445E+01  0.17553327700E+02 -0.31397251613E+03  0.31461556905E+03  0.25500000000E-02 0. -1.
         -2    1    1    2  502    0  0.98028607445E+01 -0.17553327700E+02 -0.48579369226E+03  0.48620955034E+03  0.25500000000E-02 0. -1.
<mgrwt>
<rscale>  0 0.41168966E+02</rscale>
<asrwt>0</asrwt>
<pdfrwt beam="2">  1        3 0.12312144E+00 0.41168966E+02</pdfrwt>
<pdfrwt beam="1">  1       -3 0.81455332E-04 0.41168966E+02</pdfrwt>
<totfact> 0.93133479E+04</totfact>
</mgrwt>
</event>
<event>
 4    1  0.1537855E-002  0.4560272E+02  0.7818608E-02  0.1470614E+00
          3   -1    0    0    0  501  0.00000000000E+00  0.00000000000E+00  0.14051220408E+03  0.14051224038E+03  0.10100000000E+00 0.  1.
         -3   -1    0    0  501    0 -0.00000000000E+00 -0.00000000000E+00 -0.36993224694E+01  0.37007009785E+01  0.10100000000E+00 0.  1.
          2    1    1    2    0  502  0.21291916284E+02  0.45236313053E+01  0.46936486992E+02  0.51738213700E+02  0.25500000000E-02 0. -1.
         -2    1    1    2  502    0 -0.21291916284E+02 -0.45236313053E+01  0.89876394616E+02  0.92474727655E+02  0.25500000000E-02 0. -1.
<mgrwt>
<rscale>  0 0.45602718E+02</rscale>
<asrwt>0</asrwt>
<pdfrwt beam="1">  1        3 0.21617371E-01 0.45602718E+02</pdfrwt>
<pdfrwt beam="2">  1       -3 0.56923538E-03 0.45602718E+02</pdfrwt>
<totfact> 0.19042713E+05</totfact>
</mgrwt>
</event>
<event>
 4    1  0.1537855E-002  0.4134134E+02  0.7818608E-02  0.1498566E+00
         -3   -1    0    0  501    0 -0.00000000000E+00  0.00000000000E+00  0.78856953610E+01  0.78863421386E+01  0.10100000000E+00 0.  1.
          3   -1    0    0    0  501  0.00000000000E+00 -0.00000000000E+00 -0.54180844271E+02  0.54180938410E+02  0.10100000000E+00 0.  1.
          2    1    1    2    0  502  0.20154211184E+02  0.32585447388E+01 -0.18290505586E+02  0.27410817998E+02  0.25500000000E-02 0. -1.
         -2    1    1    2  502    0 -0.20154211184E+02 -0.32585447388E+01 -0.28004643324E+02  0.34656462550E+02  0.25500000000E-02 0. -1.
<mgrwt>
<rscale>  0 0.41341341E+02</rscale>
<asrwt>0</asrwt>
<pdfrwt beam="2">  1        3 0.83355712E-02 0.41341341E+02</pdfrwt>
<pdfrwt beam="1">  1       -3 0.12132409E-02 0.41341341E+02</pdfrwt>
<totfact> 0.29377131E+05</totfact>
</mgrwt>
</event>
<event>
 4    1  0.1537855E-002  0.5455230E+02  0.7818608E-02  0.1422228E+00
         -3   -1    0    0  501    0 -0.00000000000E+00  0.00000000000E+00  0.31118646630E+02  0.31118810535E+02  0.10100000000E+00 0.  1.
          3   -1    0    0    0  501  0.00000000000E+00 -0.00000000000E+00 -0.23907790040E+02  0.23908003379E+02  0.10100000000E+00 0.  1.
          2    1    1    2    0  502 -0.41493856047E+01  0.25482351223E+02 -0.52700170330E+01  0.26350345553E+02  0.25500000000E-02 0. -1.
         -2    1    1    2  502    0  0.41493856047E+01 -0.25482351223E+02  0.12480873624E+02  0.28676468361E+02  0.25500000000E-02 0. -1.
<mgrwt>
<rscale>  0 0.54552303E+02</rscale>
<asrwt>0</asrwt>
<pdfrwt beam="2">  1        3 0.36781506E-02 0.54552303E+02</pdfrwt>
<pdfrwt beam="1">  1       -3 0.47875131E-02 0.54552303E+02</pdfrwt>
<totfact> 0.14948364E+05</totfact>
</mgrwt>
</event>
<event>
 4    1  0.1537855E-002  0.5384934E+02  0.7818608E-02  0.1425620E+00
          3   -1    0    0    0  501  0.00000000000E+00  0.00000000000E+00  0.84235816693E+01  0.84241871501E+01  0.10100000000E+00 0. -1.
         -3   -1    0    0  501    0 -0.00000000000E+00 -0.00000000000E+00 -0.86056810141E+02  0.86056869410E+02  0.10100000000E+00 0. -1.
          2    1    1    2    0  502 -0.16235964120E+01  0.26774188912E+02 -0.34722578705E+02  0.43876539695E+02  0.25500000000E-02 0.  1.
         -2    1    1    2  502    0  0.16235964120E+01 -0.26774188912E+02 -0.42910649767E+02  0.50604516865E+02  0.25500000000E-02 0.  1.
<mgrwt>
<rscale>  0 0.53849344E+02</rscale>
<asrwt>0</asrwt>
<pdfrwt beam="1">  1        3 0.12959868E-02 0.53849344E+02</pdfrwt>
<pdfrwt beam="2">  1       -3 0.13239560E-01 0.53849344E+02</pdfrwt>
<totfact> 0.14025083E+05</totfact>
</mgrwt>
</event>
<event>
 4    1  0.1537855E-002  0.5580495E+02  0.7818608E-02  0.1416330E+00
          3   -1    0    0    0  501  0.00000000000E+00  0.00000000000E+00  0.14326031009E+01  0.14361589901E+01  0.10100000000E+00 0. -1.
         -3   -1    0    0  501    0 -0.00000000000E+00 -0.00000000000E+00 -0.54277284119E+03  0.54277285059E+03  0.10100000000E+00 0. -1.
          2    1    1    2    0  502 -0.22937952961E+02 -0.81767182545E+00 -0.42539508231E+03  0.42601384289E+03  0.25500000000E-02 0.  1.
         -2    1    1    2  502    0  0.22937952961E+02  0.81767182545E+00 -0.11594515578E+03  0.11819516669E+03  0.25500000000E-02 0.  1.
<mgrwt>
<rscale>  0 0.55804953E+02</rscale>
<asrwt>0</asrwt>
<pdfrwt beam="1">  1        3 0.22067516E-03 0.55804953E+02</pdfrwt>
<pdfrwt beam="2">  1       -3 0.83503624E-01 0.55804953E+02</pdfrwt>
<totfact> 0.60115985E+04</totfact>
</mgrwt>
</event>
<event>
 4    1  0.1537855E-002  0.6487727E+02  0.7818608E-02  0.1378434E+00
          3   -1    0    0    0  501  0.00000000000E+00  0.00000000000E+00  0.31132604923E+02  0.31132768754E+02  0.10100000000E+00 0. -1.
         -3   -1    0    0  501    0 -0.00000000000E+00 -0.00000000000E+00 -0.33799124276E+02  0.33799275182E+02  0.10100000000E+00 0. -1.
          2    1    1    2    0  502  0.12118120832E+02  0.29568266550E+02 -0.69177336239E+01  0.32695355699E+02  0.25500000000E-02 0.  1.
         -2    1    1    2  502    0 -0.12118120832E+02 -0.29568266550E+02  0.42512142711E+01  0.32236688238E+02  0.25500000000E-02 0.  1.
<mgrwt>
<rscale>  0 0.64877269E+02</rscale>
<asrwt>0</asrwt>
<pdfrwt beam="1">  1        3 0.47896557E-02 0.64877269E+02</pdfrwt>
<pdfrwt beam="2">  1       -3 0.51998895E-02 0.64877269E+02</pdfrwt>
<totfact> 0.93131684E+04</totfact>
</mgrwt>
</event>
<event>
 4    1  0.1537855E-002  0.4518250E+02  0.7818608E-02  0.1473206E+00
         -3   -1    0    0  501    0 -0.00000000000E+00  0.00000000000E+00  0.31837606972E+02  0.31837767175E+02  0.10100000000E+00 0.  1.
          3   -1    0    0    0  501  0.00000000000E+00 -0.00000000000E+00 -0.16029882563E+02  0.16030200746E+02  0.10100000000E+00 0.  1.
          2    1    1    2    0  502  0.10022809842E+01  0.20099589932E+02 -0.29710545850E+01  0.20342695359E+02  0.25500000000E-02 0. -1.
         -2    1    1    2  502    0 -0.10022809842E+01 -0.20099589932E+02  0.18778778994E+02  0.27525272562E+02  0.25500000000E-02 0. -1.
<mgrwt>
<rscale>  0 0.45182499E+02</rscale>
<asrwt>0</asrwt>
<pdfrwt beam="2">  1        3 0.24661726E-02 0.45182499E+02</pdfrwt>
<pdfrwt beam="1">  1       -3 0.48981302E-02 0.45182499E+02</pdfrwt>
<totfact> 0.24513115E+05</totfact>
</mgrwt>
</event>
<event>
 4    1  0.1537855E-002  0.6034000E+02  0.7818608E-02  0.1396410E+00
          3   -1    0    0    0  501  0.00000000000E+00  0.00000000000E+00  0.25242068923E+02  0.25242270985E+02  0.10100000000E+00 0.  1.
         -3   -1    0    0  501    0 -0.00000000000E+00 -0.00000000000E+00 -0.36059574608E+02  0.36059716054E+02  0.10100000000E+00 0.  1.
          2    1    1    2    0  502 -0.21395607144E+02  0.37645860843E+00  0.16198014553E+02  0.26838207990E+02  0.25500000000E-02 0. -1.
         -2    1    1    2  502    0  0.21395607144E+02 -0.37645860843E+00 -0.27015520238E+02  0.34463779050E+02  0.25500000000E-02 0. -1.
<mgrwt>
<rscale>  0 0.60339997E+02</rscale>
<asrwt>0</asrwt>
<pdfrwt beam="1">  1        3 0.38834216E-02 0.60339997E+02</pdfrwt>
<pdfrwt beam="2">  1       -3 0.55476533E-02 0.60339997E+02</pdfrwt>
<totfact> 0.11349178E+05</totfact>
</mgrwt>
</event>
<event>
 4    1  0.1537855E-002  0.5874400E+02  0.7818608E-02  0.1403179E+00
         -3   -1    0    0  501    0 -0.00000000000E+00  0.00000000000E+00  0.43600180467E+01  0.43611877244E+01  0.10100000000E+00 0. -1.
          3   -1    0    0    0  501  0.00000000000E+00 -0.00000000000E+00 -0.19784170179E+03  0.19784172757E+03  0.10100000000E+00 0. -1.
          2    1    1    2    0  502 -0.52846589447E+01  0.28680973432E+02 -0.10875787004E+03  0.11260017833E+03  0.25500000000E-02 0.  1.
         -2    1    1    2  502    0  0.52846589447E+01 -0.28680973432E+02 -0.84723813702E+02  0.89602736966E+02  0.25500000000E-02 0.  1.
<mgrwt>
<rscale>  0 0.58743996E+02</rscale>
<asrwt>0</asrwt>
<pdfrwt beam="2">  1        3 0.30437270E-01 0.58743996E+02</pdfrwt>
<pdfrwt beam="1">  1       -3 0.67086412E-03 0.58743996E+02</pdfrwt>
<totfact> 0.89927486E+04</totfact>
</mgrwt>
</event>
<event>
 4    1  0.1537855E-002  0.4669442E+02  0.7818608E-02  0.1464033E+00
         -3   -1    0    0  501    0 -0.00000000000E+00  0.00000000000E+00  0.29588516133E+03  0.29588517857E+03  0.10100000000E+00 0.  1.
          3   -1    0    0    0  501  0.00000000000E+00 -0.00000000000E+00 -0.18408409936E+01  0.18436096560E+01  0.10100000000E+00 0.  1.
          2    1    1    2    0  502 -0.12115143911E+02 -0.19103601183E+02  0.18385376469E+03  0.18524019836E+03  0.25500000000E-02 0. -1.
         -2    1    1    2  502    0  0.12115143911E+02  0.19103601183E+02  0.11019055565E+03  0.11248858987E+03  0.25500000000E-02 0. -1.
<mgrwt>
<rscale>  0 0.46694422E+02</rscale>
<asrwt>0</asrwt>
<pdfrwt beam="2">  1        3 0.28342062E-03 0.46694422E+02</pdfrwt>
<pdfrwt beam="1">  1       -3 0.45521006E-01 0.46694422E+02</pdfrwt>
<totfact> 0.13496107E+05</totfact>
</mgrwt>
</event>
<event>
 4    1  0.1537855E-002  0.4322137E+02  0.7818608E-02  0.1485761E+00
          3   -1    0    0    0  501  0.00000000000E+00  0.00000000000E+00  0.10098716423E+03  0.10098721474E+03  0.10100000000E+00 0. -1.
         -3   -1    0    0  501    0 -0.00000000000E+00 -0.00000000000E+00 -0.46239608568E+01  0.46250637839E+01  0.10100000000E+00 0. -1.
          2    1    1    2    0  502 -0.31763056157E+01  0.20920306966E+02  0.58909026868E+02  0.62594102071E+02  0.25500000000E-02 0. -1.
         -2    1    1    2  502    0  0.31763056157E+01 -0.20920306966E+02  0.37454176508E+02  0.43018176453E+02  0.25500000000E-02 0. -1.
<mgrwt>
<rscale>  0 0.43221365E+02</rscale>
<asrwt>0</asrwt>
<pdfrwt beam="1">  1        3 0.15536574E-01 0.43221365E+02</pdfrwt>
<pdfrwt beam="2">  1       -3 0.71146739E-03 0.43221365E+02</pdfrwt>
<totfact> 0.23663259E+05</totfact>
</mgrwt>
</event>
<event>
 4    1  0.1537855E-002  0.4647574E+02  0.7818608E-02  0.1465334E+00
          3   -1    0    0    0  501  0.00000000000E+00  0.00000000000E+00  0.54346856708E+03  0.54346857646E+03  0.10100000000E+00 0.  1.
         -3   -1    0    0  501    0 -0.00000000000E+00 -0.00000000000E+00 -0.99103905949E+00  0.99617238340E+00  0.10100000000E+00 0.  1.
          2    1    1    2    0  502  0.17249579559E+02  0.15569885727E+02  0.27324199516E+03  0.27422829406E+03  0.25500000000E-02 0. -1.
         -2    1    1    2  502    0 -0.17249579559E+02 -0.15569885727E+02  0.26923553286E+03  0.27023645479E+03  0.25500000000E-02 0. -1.
<mgrwt>
<rscale>  0 0.46475739E+02</rscale>
<asrwt>0</asrwt>
<pdfrwt beam="1">  1        3 0.83610862E-01 0.46475739E+02</pdfrwt>
<pdfrwt beam="2">  1       -3 0.15286329E-03 0.46475739E+02</pdfrwt>
<totfact> 0.94763112E+04</totfact>
</mgrwt>
</event>
<event>
 4    1  0.1537855E-002  0.4545062E+02  0.7818608E-02  0.1471548E+00
         -3   -1    0    0  501    0 -0.00000000000E+00  0.00000000000E+00  0.14191856210E+01  0.14227750443E+01  0.10100000000E+00 0.  1.
          3   -1    0    0    0  501  0.00000000000E+00 -0.00000000000E+00 -0.36343540812E+03  0.36343542215E+03  0.10100000000E+00 0.  1.
          2    1    1    2    0  502  0.14988847106E+02 -0.13698319992E+02 -0.99091385404E+02  0.10115044328E+03  0.25500000000E-02 0. -1.
         -2    1    1    2  502    0 -0.14988847106E+02  0.13698319992E+02 -0.26292483709E+03  0.26370775391E+03  0.25500000000E-02 0. -1.
<mgrwt>
<rscale>  0 0.45450618E+02</rscale>
<asrwt>0</asrwt>
<pdfrwt beam="2">  1        3 0.55913343E-01 0.45450618E+02</pdfrwt>
<pdfrwt beam="1">  1       -3 0.21861373E-03 0.45450618E+02</pdfrwt>
<totfact> 0.12947671E+05</totfact>
</mgrwt>
</event>
<event>
 4    1  0.1537855E-002  0.6669439E+02  0.7818608E-02  0.1371709E+00
         -3   -1    0    0  501    0 -0.00000000000E+00  0.00000000000E+00  0.37960109079E+02  0.37960243443E+02  0.10100000000E+00 0. -1.
          3   -1    0    0    0  501  0.00000000000E+00 -0.00000000000E+00 -0.29294569552E+02  0.29294743663E+02  0.10100000000E+00 0. -1.
          2    1    1    2    0  502  0.14499942916E+02  0.18853324612E+02 -0.19237599088E+02  0.30590544596E+02  0.25500000000E-02 0. -1.
         -2    1    1    2  502    0 -0.14499942916E+02 -0.18853324612E+02  0.27903138615E+02  0.36664442510E+02  0.25500000000E-02 0. -1.
<mgrwt>
<rscale>  0 0.66694390E+02</rscale>
<asrwt>0</asrwt>
<pdfrwt beam="2">  1        3 0.45068806E-02 0.66694390E+02</pdfrwt>
<pdfrwt beam="1">  1       -3 0.58400405E-02 0.66694390E+02</pdfrwt>
<totfact> 0.86137664E+04</totfact>
</mgrwt>
</event>
<event>
 4    1  0.1537855E-002  0.5338360E+02  0.7818608E-02  0.1427901E+00
         -3   -1    0    0  501    0 -0.00000000000E+00  0.00000000000E+00  0.21029614092E+01  0.21053854014E+01  0.10100000000E+00 0.  1.
          3   -1    0    0    0  501  0.00000000000E+00 -0.00000000000E+00 -0.33858756621E+03  0.33858758127E+03  0.10100000000E+00 0.  1.
          2    1    1    2    0  502 -0.25992696417E+02  0.43146009911E+01 -0.14100387602E+03  0.14344451578E+03  0.25500000000E-02 0. -1.
         -2    1    1    2  502    0  0.25992696417E+02 -0.43146009911E+01 -0.19548072879E+03  0.19724845090E+03  0.25500000000E-02 0. -1.
<mgrwt>
<rscale>  0 0.53383596E+02</rscale>
<asrwt>0</asrwt>
<pdfrwt beam="2">  1        3 0.52090539E-01 0.53383596E+02</pdfrwt>
<pdfrwt beam="1">  1       -3 0.32372041E-03 0.53383596E+02</pdfrwt>
<totfact> 0.90281632E+04</totfact>
</mgrwt>
</event>
<event>
 4    1  0.1537855E-002  0.4220136E+02  0.7818608E-02  0.1492610E+00
         -3   -1    0    0  501    0 -0.00000000000E+00  0.00000000000E+00  0.60408915023E+01  0.60417357723E+01  0.10100000000E+00 0. -1.
          3   -1    0    0    0  501  0.00000000000E+00 -0.00000000000E+00 -0.73698104858E+02  0.73698174066E+02  0.10100000000E+00 0. -1.
          2    1    1    2    0  502 -0.54775038528E+01 -0.19846280426E+02 -0.42561492737E+02  0.47279578738E+02  0.25500000000E-02 0.  1.
         -2    1    1    2  502    0  0.54775038528E+01  0.19846280426E+02 -0.25095720619E+02  0.32460331100E+02  0.25500000000E-02 0.  1.
<mgrwt>
<rscale>  0 0.42201359E+02</rscale>
<asrwt>0</asrwt>
<pdfrwt beam="2">  1        3 0.11338240E-01 0.42201359E+02</pdfrwt>
<pdfrwt beam="1">  1       -3 0.92943824E-03 0.42201359E+02</pdfrwt>
<totfact> 0.26695097E+05</totfact>
</mgrwt>
</event>
<event>
 4    1  0.1537855E-002  0.4766268E+02  0.7818608E-02  0.1458372E+00
          3   -1    0    0    0  501  0.00000000000E+00  0.00000000000E+00  0.30890783489E+02  0.30890948603E+02  0.10100000000E+00 0.  1.
         -3   -1    0    0  501    0 -0.00000000000E+00 -0.00000000000E+00 -0.18384830107E+02  0.18385107535E+02  0.10100000000E+00 0.  1.
          2    1    1    2    0  502 -0.20778017389E+02  0.61911267698E+01  0.16481125630E+02  0.27233867992E+02  0.25500000000E-02 0.  1.
         -2    1    1    2  502    0  0.20778017389E+02 -0.61911267698E+01 -0.39751722475E+01  0.22042188145E+02  0.25500000000E-02 0.  1.
<mgrwt>
<rscale>  0 0.47662678E+02</rscale>
<asrwt>0</asrwt>
<pdfrwt beam="1">  1        3 0.47524622E-02 0.47662678E+02</pdfrwt>
<pdfrwt beam="2">  1       -3 0.28284695E-02 0.47662678E+02</pdfrwt>
<totfact> 0.21364782E+05</totfact>
</mgrwt>
</event>
<event>
 4    1  0.1537855E-002  0.4729707E+02  0.7818608E-02  0.1460491E+00
         -3   -1    0    0  501    0 -0.00000000000E+00  0.00000000000E+00  0.27763014500E+02  0.27763198215E+02  0.10100000000E+00 0.  1.
          3   -1    0    0    0  501  0.00000000000E+00 -0.00000000000E+00 -0.20143446814E+02  0.20143700021E+02  0.10100000000E+00 0.  1.
          2    1    1    2    0  502  0.93452026599E+01  0.20226400567E+02  0.11837447264E+02  0.25230244883E+02  0.25500000000E-02 0.  1.
         -2    1    1    2  502    0 -0.93452026599E+01 -0.20226400567E+02 -0.42178795779E+01  0.22676653353E+02  0.25500000000E-02 0.  1.
<mgrwt>
<rscale>  0 0.47297073E+02</rscale>
<asrwt>0</asrwt>
<pdfrwt beam="2">  1        3 0.30990254E-02 0.47297073E+02</pdfrwt>
<pdfrwt beam="1">  1       -3 0.42712666E-02 0.47297073E+02</pdfrwt>
<totfact> 0.21863383E+05</totfact>
</mgrwt>
</event>
<event>
 4    1  0.1537855E-002  0.4759850E+02  0.7818608E-02  0.1458742E+00
         -3   -1    0    0  501    0 -0.00000000000E+00  0.00000000000E+00  0.89800004173E+02  0.89800060972E+02  0.10100000000E+00 0.  1.
          3   -1    0    0    0  501  0.00000000000E+00 -0.00000000000E+00 -0.63069347298E+01  0.63077433909E+01  0.10100000000E+00 0.  1.
          2    1    1    2    0  502 -0.22780715046E+02 -0.25696530506E+01  0.54650095643E+02  0.59263792108E+02  0.25500000000E-02 0. -1.
         -2    1    1    2  502    0  0.22780715046E+02  0.25696530506E+01  0.28842973801E+02  0.36844012254E+02  0.25500000000E-02 0. -1.
<mgrwt>
<rscale>  0 0.47598502E+02</rscale>
<asrwt>0</asrwt>
<pdfrwt beam="2">  1        3 0.97036429E-03 0.47598502E+02</pdfrwt>
<pdfrwt beam="1">  1       -3 0.13815451E-01 0.47598502E+02</pdfrwt>
<totfact> 0.19055325E+05</totfact>
</mgrwt>
</event>
<event>
 4    1  0.1537855E-002  0.6250788E+02  0.7818608E-02  0.1387599E+00
          3   -1    0    0    0  501  0.00000000000E+00  0.00000000000E+00  0.23108647458E+01  0.23130708752E+01  0.10100000000E+00 0. -1.
         -3   -1    0    0  501    0 -0.00000000000E+00 -0.00000000000E+00 -0.42249878126E+03  0.42249879333E+03  0.10100000000E+00 0. -1.
          2    1    1    2    0  502 -0.99258439610E+01 -0.27766005873E+02 -0.28050374483E+03  0.28204932961E+03  0.25500000000E-02 0.  1.
         -2    1    1    2  502    0  0.99258439610E+01  0.27766005873E+02 -0.13968417168E+03  0.14276253460E+03  0.25500000000E-02 0.  1.
<mgrwt>
<rscale>  0 0.62507878E+02</rscale>
<asrwt>0</asrwt>
<pdfrwt beam="1">  1        3 0.35568862E-03 0.62507878E+02</pdfrwt>
<pdfrwt beam="2">  1       -3 0.64999922E-01 0.62507878E+02</pdfrwt>
<totfact> 0.53277790E+04</totfact>
</mgrwt>
</event>
<event>
 4    1  0.1537855E-002  0.6060774E+02  0.7818608E-02  0.1395299E+00
         -3   -1    0    0  501    0 -0.00000000000E+00  0.00000000000E+00  0.80451296877E+00  0.81082804399E+00  0.10100000000E+00 0. -1.
          3   -1    0    0    0  501  0.00000000000E+00 -0.00000000000E+00 -0.11369975374E+04  0.11369975419E+04  0.10100000000E+00 0. -1.
          2    1    1    2    0  502  0.55786673601E+01  0.19930814097E+02 -0.15254598322E+03  0.15394361267E+03  0.25500000000E-02 0.  1.
         -2    1    1    2  502    0 -0.55786673601E+01 -0.19930814097E+02 -0.98364704120E+03  0.98386475724E+03  0.25500000000E-02 0.  1.
<mgrwt>
<rscale>  0 0.60607738E+02</rscale>
<asrwt>0</asrwt>
<pdfrwt beam="2">  1        3 0.17492190E+00 0.60607738E+02</pdfrwt>
<pdfrwt beam="1">  1       -3 0.12425826E-03 0.60607738E+02</pdfrwt>
<totfact> 0.25181482E+04</totfact>
</mgrwt>
</event>
<event>
 4    1  0.1537855E-002  0.4636117E+02  0.7818608E-02  0.1466019E+00
          3   -1    0    0    0  501  0.00000000000E+00  0.00000000000E+00  0.15527755645E+02  0.15528084118E+02  0.10100000000E+00 0.  1.
         -3   -1    0    0  501    0 -0.00000000000E+00 -0.00000000000E+00 -0.34604336576E+02  0.34604483971E+02  0.10100000000E+00 0.  1.
          2    1    1    2    0  502  0.22515626706E+02 -0.54340162905E+01 -0.85368749564E+01  0.24685222695E+02  0.25500000000E-02 0.  1.
         -2    1    1    2  502    0 -0.22515626706E+02  0.54340162905E+01 -0.10539705975E+02  0.25447345393E+02  0.25500000000E-02 0.  1.
<mgrwt>
<rscale>  0 0.46361174E+02</rscale>
<asrwt>0</asrwt>
<pdfrwt beam="1">  1        3 0.23889221E-02 0.46361174E+02</pdfrwt>
<pdfrwt beam="2">  1       -3 0.53237807E-02 0.46361174E+02</pdfrwt>
<totfact> 0.22845517E+05</totfact>
</mgrwt>
</event>
<event>
 4    1  0.1537855E-002  0.5875611E+02  0.7818608E-02  0.1403127E+00
         -3   -1    0    0  501    0 -0.00000000000E+00  0.00000000000E+00  0.19847663379E+02  0.19847920360E+02  0.10100000000E+00 0.  1.
          3   -1    0    0    0  501  0.00000000000E+00 -0.00000000000E+00 -0.43484128230E+02  0.43484245525E+02  0.10100000000E+00 0.  1.
          2    1    1    2    0  502  0.16879284603E+02 -0.16093855505E+02  0.74378164941E+01  0.24479451678E+02  0.25500000000E-02 0.  1.
         -2    1    1    2  502    0 -0.16879284603E+02  0.16093855505E+02 -0.31074281344E+02  0.38852714208E+02  0.25500000000E-02 0.  1.
<mgrwt>
<rscale>  0 0.58756113E+02</rscale>
<asrwt>0</asrwt>
<pdfrwt beam="2">  1        3 0.66898946E-02 0.58756113E+02</pdfrwt>
<pdfrwt beam="1">  1       -3 0.30535155E-02 0.58756113E+02</pdfrwt>
<totfact> 0.12094115E+05</totfact>
</mgrwt>
</event>
<event>
 4    1  0.1537855E-002  0.4801543E+02  0.7818608E-02  0.1456349E+00
         -3   -1    0    0  501    0 -0.00000000000E+00  0.00000000000E+00  0.30022109429E+01  0.30039093771E+01  0.10100000000E+00 0.  1.
          3   -1    0    0    0  501  0.00000000000E+00 -0.00000000000E+00 -0.19192599648E+03  0.19192602306E+03  0.10100000000E+00 0.  1.
          2    1    1    2    0  502  0.16387214747E+00 -0.24000809417E+02 -0.92220783493E+02  0.95292909607E+02  0.25500000000E-02 0. -1.
         -2    1    1    2  502    0 -0.16387214747E+00  0.24000809417E+02 -0.96703002045E+02  0.99637022826E+02  0.25500000000E-02 0. -1.
<mgrwt>
<rscale>  0 0.48015433E+02</rscale>
<asrwt>0</asrwt>
<pdfrwt beam="2">  1        3 0.29527199E-01 0.48015433E+02</pdfrwt>
<pdfrwt beam="1">  1       -3 0.46201145E-03 0.48015433E+02</pdfrwt>
<totfact> 0.15139343E+05</totfact>
</mgrwt>
</event>
<event>
 4    1  0.1537855E-002  0.5193137E+02  0.7818608E-02  0.1435194E+00
          3   -1    0    0    0  501  0.00000000000E+00  0.00000000000E+00  0.19523236931E+03  0.19523239544E+03  0.10100000000E+00 0.  1.
         -3   -1    0    0  501    0 -0.00000000000E+00 -0.00000000000E+00 -0.34526423135E+01  0.34541192720E+01  0.10100000000E+00 0.  1.
          2    1    1    2    0  502 -0.16770900794E+02 -0.19560985296E+02  0.83598162621E+02  0.87478843495E+02  0.25500000000E-02 0. -1.
         -2    1    1    2  502    0  0.16770900794E+02  0.19560985296E+02  0.10818156438E+03  0.11120767121E+03  0.25500000000E-02 0. -1.
<mgrwt>
<rscale>  0 0.51931372E+02</rscale>
<asrwt>0</asrwt>
<pdfrwt beam="1">  1        3 0.30035862E-01 0.51931372E+02</pdfrwt>
<pdfrwt beam="2">  1       -3 0.53129141E-03 0.51931372E+02</pdfrwt>
<totfact> 0.12364401E+05</totfact>
</mgrwt>
</event>
<event>
 4    1  0.1537855E-002  0.4797431E+02  0.7818608E-02  0.1456584E+00
         -3   -1    0    0  501    0 -0.00000000000E+00  0.00000000000E+00  0.27520451549E+03  0.27520453402E+03  0.10100000000E+00 0.  1.
          3   -1    0    0    0  501  0.00000000000E+00 -0.00000000000E+00 -0.20895111237E+01  0.20919507011E+01  0.10100000000E+00 0.  1.
          2    1    1    2    0  502 -0.56225448785E+01  0.23310844662E+02  0.13301692887E+03  0.13516105897E+03  0.25500000000E-02 0. -1.
         -2    1    1    2  502    0  0.56225448785E+01 -0.23310844662E+02  0.14009807549E+03  0.14213542575E+03  0.25500000000E-02 0. -1.
<mgrwt>
<rscale>  0 0.47974314E+02</rscale>
<asrwt>0</asrwt>
<pdfrwt beam="2">  1        3 0.32165229E-03 0.47974314E+02</pdfrwt>
<pdfrwt beam="1">  1       -3 0.42339351E-01 0.47974314E+02</pdfrwt>
<totfact> 0.13069591E+05</totfact>
</mgrwt>
</event>
<event>
 4    1  0.1537855E-002  0.5286303E+02  0.7818608E-02  0.1430484E+00
          3   -1    0    0    0  501  0.00000000000E+00  0.00000000000E+00  0.57976643892E+00  0.58849819345E+00  0.10100000000E+00 0. -1.
         -3   -1    0    0  501    0 -0.00000000000E+00 -0.00000000000E+00 -0.11959958730E+04  0.11959958773E+04  0.10100000000E+00 0. -1.
          2    1    1    2    0  502  0.25532539316E+02  0.40233336369E+01 -0.47264343253E+03  0.47334967212E+03  0.25500000000E-02 0.  1.
         -2    1    1    2  502    0 -0.25532539316E+02 -0.40233336369E+01 -0.72277267402E+03  0.72323470332E+03  0.25500000000E-02 0.  1.
<mgrwt>
<rscale>  0 0.52863028E+02</rscale>
<asrwt>0</asrwt>
<pdfrwt beam="1">  1        3 0.89867795E-04 0.52863028E+02</pdfrwt>
<pdfrwt beam="2">  1       -3 0.18399808E+00 0.52863028E+02</pdfrwt>
<totfact> 0.33348540E+04</totfact>
</mgrwt>
</event>
<event>
 4    1  0.1537855E-002  0.6025451E+02  0.7818608E-02  0.1396767E+00
          3   -1    0    0    0  501  0.00000000000E+00  0.00000000000E+00  0.10566853175E+03  0.10566858002E+03  0.10100000000E+00 0. -1.
         -3   -1    0    0  501    0 -0.00000000000E+00 -0.00000000000E+00 -0.85892616989E+01  0.85898555013E+01  0.10100000000E+00 0. -1.
          2    1    1    2    0  502  0.73495324139E-02 -0.29791893921E+02  0.40039306235E+02  0.49906943882E+02  0.25500000000E-02 0.  1.
         -2    1    1    2  502    0 -0.73495324139E-02  0.29791893921E+02  0.57039963820E+02  0.64351491641E+02  0.25500000000E-02 0.  1.
<mgrwt>
<rscale>  0 0.60254505E+02</rscale>
<asrwt>0</asrwt>
<pdfrwt beam="1">  1        3 0.16256747E-01 0.60254505E+02</pdfrwt>
<pdfrwt beam="2">  1       -3 0.13214743E-02 0.60254505E+02</pdfrwt>
<totfact> 0.10063426E+05</totfact>
</mgrwt>
</event>
<event>
 4    1  0.1537855E-002  0.4717672E+02  0.7818608E-02  0.1461193E+00
         -3   -1    0    0  501    0 -0.00000000000E+00  0.00000000000E+00  0.93983495976E+02  0.93983550246E+02  0.10100000000E+00 0.  1.
          3   -1    0    0    0  501  0.00000000000E+00 -0.00000000000E+00 -0.59198162125E+01  0.59206777475E+01  0.10100000000E+00 0.  1.
          2    1    1    2    0  502  0.15901400590E+01 -0.20229455860E+02  0.18562521106E+02  0.27501393166E+02  0.25500000000E-02 0. -1.
         -2    1    1    2  502    0 -0.15901400590E+01  0.20229455860E+02  0.69501158658E+02  0.72402834827E+02  0.25500000000E-02 0. -1.
<mgrwt>
<rscale>  0 0.47176722E+02</rscale>
<asrwt>0</asrwt>
<pdfrwt beam="2">  1        3 0.91081152E-03 0.47176722E+02</pdfrwt>
<pdfrwt beam="1">  1       -3 0.14459068E-01 0.47176722E+02</pdfrwt>
<totfact> 0.19310300E+05</totfact>
</mgrwt>
</event>
<event>
 4    1  0.1537855E-002  0.4080617E+02  0.7818608E-02  0.1502361E+00
          3   -1    0    0    0  501  0.00000000000E+00  0.00000000000E+00  0.14450824763E+03  0.14450828293E+03  0.10100000000E+00 0.  1.
         -3   -1    0    0  501    0 -0.00000000000E+00 -0.00000000000E+00 -0.28797856931E+01  0.28815562875E+01  0.10100000000E+00 0.  1.
          2    1    1    2    0  502  0.16755359206E+02  0.11559072050E+02  0.75834260354E+02  0.78518719161E+02  0.25500000000E-02 0. -1.
         -2    1    1    2  502    0 -0.16755359206E+02 -0.11559072050E+02  0.65794201585E+02  0.68871120054E+02  0.25500000000E-02 0. -1.
<mgrwt>
<rscale>  0 0.40806170E+02</rscale>
<asrwt>0</asrwt>
<pdfrwt beam="1">  1        3 0.22232177E-01 0.40806170E+02</pdfrwt>
<pdfrwt beam="2">  1       -3 0.44318287E-03 0.40806170E+02</pdfrwt>
<totfact> 0.24828878E+05</totfact>
</mgrwt>
</event>
<event>
 4    1  0.1537855E-002  0.5195443E+02  0.7818608E-02  0.1435076E+00
         -3   -1    0    0  501    0 -0.00000000000E+00  0.00000000000E+00  0.46811843702E+01  0.46822738181E+01  0.10100000000E+00 0.  1.
          3   -1    0    0    0  501  0.00000000000E+00 -0.00000000000E+00 -0.14413702643E+03  0.14413706182E+03  0.10100000000E+00 0.  1.
          2    1    1    2    0  502 -0.24773155924E+02 -0.73488820035E+01 -0.77360602597E+02  0.81562112293E+02  0.25500000000E-02 0.  1.
         -2    1    1    2  502    0  0.24773155924E+02  0.73488820035E+01 -0.62095239465E+02  0.67257223343E+02  0.25500000000E-02 0.  1.
<mgrwt>
<rscale>  0 0.51954430E+02</rscale>
<asrwt>0</asrwt>
<pdfrwt beam="2">  1        3 0.22175010E-01 0.51954430E+02</pdfrwt>
<pdfrwt beam="1">  1       -3 0.72026884E-03 0.51954430E+02</pdfrwt>
<totfact> 0.13631984E+05</totfact>
</mgrwt>
</event>
<event>
 4    1  0.1537855E-002  0.7427384E+02  0.7818608E-02  0.1346135E+00
         -3   -1    0    0  501    0 -0.00000000000E+00  0.00000000000E+00  0.51534545151E+01  0.51544441445E+01  0.10100000000E+00 0.  1.
          3   -1    0    0    0  501  0.00000000000E+00 -0.00000000000E+00 -0.26759010812E+03  0.26759012718E+03  0.10100000000E+00 0.  1.
          2    1    1    2    0  502 -0.27291824890E+02 -0.83582983973E+01 -0.43975151446E+02  0.52426317905E+02  0.25500000000E-02 0. -1.
         -2    1    1    2  502    0  0.27291824890E+02  0.83582983973E+01 -0.21846150216E+03  0.22031825342E+03  0.25500000000E-02 0. -1.
<mgrwt>
<rscale>  0 0.74273845E+02</rscale>
<asrwt>0</asrwt>
<pdfrwt beam="2">  1        3 0.41167776E-01 0.74273845E+02</pdfrwt>
<pdfrwt beam="1">  1       -3 0.79291696E-03 0.74273845E+02</pdfrwt>
<totfact> 0.43288203E+04</totfact>
</mgrwt>
</event>
<event>
 4    1  0.1537855E-002  0.1431059E+03  0.7818608E-02  0.1209210E+00
          3   -1    0    0    0  501  0.00000000000E+00  0.00000000000E+00  0.42811890814E+02  0.42812009951E+02  0.10100000000E+00 0.  1.
         -3   -1    0    0  501    0 -0.00000000000E+00 -0.00000000000E+00 -0.11958861660E+03  0.11958865925E+03  0.10100000000E+00 0.  1.
          2    1    1    2    0  502  0.52604044080E+02 -0.92149536858E+01  0.15652905199E+02  0.55651722998E+02  0.25500000000E-02 0.  1.
         -2    1    1    2  502    0 -0.52604044080E+02  0.92149536858E+01 -0.92429630989E+02  0.10674894621E+03  0.25500000000E-02 0.  1.
<mgrwt>
<rscale>  0 0.14310595E+03</rscale>
<asrwt>0</asrwt>
<pdfrwt beam="1">  1        3 0.65864572E-02 0.14310595E+03</pdfrwt>
<pdfrwt beam="2">  1       -3 0.18398261E-01 0.14310595E+03</pdfrwt>
<totfact> 0.87198281E+03</totfact>
</mgrwt>
</event>
<event>
 4    1  0.1537855E-002  0.4116412E+02  0.7818608E-02  0.1499815E+00
         -3   -1    0    0  501    0 -0.00000000000E+00  0.00000000000E+00  0.13257183528E+03  0.13257187376E+03  0.10100000000E+00 0.  1.
          3   -1    0    0    0  501  0.00000000000E+00 -0.00000000000E+00 -0.31945721448E+01  0.31961683604E+01  0.10100000000E+00 0.  1.
          2    1    1    2    0  502  0.19589763720E+02  0.61362506619E+01  0.59786773133E+02  0.63212899498E+02  0.25500000000E-02 0.  1.
         -2    1    1    2  502    0 -0.19589763720E+02 -0.61362506619E+01  0.69590490005E+02  0.72555142619E+02  0.25500000000E-02 0.  1.
<mgrwt>
<rscale>  0 0.41164123E+02</rscale>
<asrwt>0</asrwt>
<pdfrwt beam="2">  1        3 0.49159848E-03 0.41164123E+02</pdfrwt>
<pdfrwt beam="1">  1       -3 0.20395789E-01 0.41164123E+02</pdfrwt>
<totfact> 0.24921898E+05</totfact>
</mgrwt>
</event>
<event>
 4    1  0.1537855E-002  0.4717784E+02  0.7818608E-02  0.1461186E+00
          3   -1    0    0    0  501  0.00000000000E+00  0.00000000000E+00  0.19809621517E+03  0.19809624091E+03  0.10100000000E+00 0. -1.
         -3   -1    0    0  501    0 -0.00000000000E+00 -0.00000000000E+00 -0.28079898540E+01  0.28098056908E+01  0.10100000000E+00 0. -1.
          2    1    1    2    0  502  0.17697586712E+02 -0.15561916689E+02  0.10202708554E+03  0.10471343761E+03  0.25500000000E-02 0. -1.
         -2    1    1    2  502    0 -0.17697586712E+02  0.15561916689E+02  0.93261139774E+02  0.96192608993E+02  0.25500000000E-02 0. -1.
<mgrwt>
<rscale>  0 0.47177840E+02</rscale>
<asrwt>0</asrwt>
<pdfrwt beam="1">  1        3 0.30476496E-01 0.47177840E+02</pdfrwt>
<pdfrwt beam="2">  1       -3 0.43213991E-03 0.47177840E+02</pdfrwt>
<totfact> 0.15633941E+05</totfact>
</mgrwt>
</event>
<event>
 4    1  0.1537855E-002  0.4323616E+02  0.7818608E-02  0.1485663E+00
          3   -1    0    0    0  501  0.00000000000E+00  0.00000000000E+00  0.86936096859E+01  0.86941963614E+01  0.10100000000E+00 0. -1.
         -3   -1    0    0  501    0 -0.00000000000E+00 -0.00000000000E+00 -0.53754445809E+02  0.53754540694E+02  0.10100000000E+00 0. -1.
          2    1    1    2    0  502 -0.54832645827E+01 -0.20865229496E+02 -0.20530377157E+02  0.29781208590E+02  0.25500000000E-02 0.  1.
         -2    1    1    2  502    0  0.54832645827E+01  0.20865229496E+02 -0.24530458967E+02  0.32667528465E+02  0.25500000000E-02 0.  1.
<mgrwt>
<rscale>  0 0.43236163E+02</rscale>
<asrwt>0</asrwt>
<pdfrwt beam="1">  1        3 0.13375309E-02 0.43236163E+02</pdfrwt>
<pdfrwt beam="2">  1       -3 0.82699670E-02 0.43236163E+02</pdfrwt>
<totfact> 0.26292437E+05</totfact>
</mgrwt>
</event>
<event>
 4    1  0.1537855E-002  0.6273168E+02  0.7818608E-02  0.1386713E+00
          3   -1    0    0    0  501  0.00000000000E+00  0.00000000000E+00  0.29744869767E+02  0.29745041242E+02  0.10100000000E+00 0. -1.
         -3   -1    0    0  501    0 -0.00000000000E+00 -0.00000000000E+00 -0.33074806529E+02  0.33074960740E+02  0.10100000000E+00 0. -1.
          2    1    1    2    0  502 -0.17405090679E+02 -0.16855413214E+02 -0.21612196214E+02  0.32467355419E+02  0.25500000000E-02 0. -1.
         -2    1    1    2  502    0  0.17405090679E+02  0.16855413214E+02  0.18282259453E+02  0.30352646563E+02  0.25500000000E-02 0. -1.
<mgrwt>
<rscale>  0 0.62731684E+02</rscale>
<asrwt>0</asrwt>
<pdfrwt beam="1">  1        3 0.45761589E-02 0.62731684E+02</pdfrwt>
<pdfrwt beam="2">  1       -3 0.50884568E-02 0.62731684E+02</pdfrwt>
<totfact> 0.10221926E+05</totfact>
</mgrwt>
</event>
<event>
 4    1  0.1537855E-002  0.4191844E+02  0.7818608E-02  0.1494550E+00
         -3   -1    0    0  501    0 -0.00000000000E+00  0.00000000000E+00  0.16038164211E+02  0.16038482231E+02  0.10100000000E+00 0.  1.
          3   -1    0    0    0  501  0.00000000000E+00 -0.00000000000E+00 -0.27389541620E+02  0.27389727840E+02  0.10100000000E+00 0.  1.
          2    1    1    2    0  502  0.14796330275E+02  0.14716246146E+02 -0.36588806939E+01  0.21186946563E+02  0.25500000000E-02 0. -1.
         -2    1    1    2  502    0 -0.14796330275E+02 -0.14716246146E+02 -0.76924967149E+01  0.22241263508E+02  0.25500000000E-02 0. -1.
<mgrwt>
<rscale>  0 0.41918441E+02</rscale>
<asrwt>0</asrwt>
<pdfrwt beam="2">  1        3 0.42138144E-02 0.41918441E+02</pdfrwt>
<pdfrwt beam="1">  1       -3 0.24674487E-02 0.41918441E+02</pdfrwt>
<totfact> 0.29884457E+05</totfact>
</mgrwt>
</event>
