<event>
 4    1  0.7692565E-003  0.4300112E+02  0.7818608E-02  0.1487220E+00
         -3   -1    0    0  501    0 -0.00000000000E+00  0.00000000000E+00  0.49414763840E+02  0.49414867058E+02  0.10100000000E+00 0.  1.
          3   -1    0    0    0  501  0.00000000000E+00 -0.00000000000E+00 -0.93545913926E+01  0.93551366170E+01  0.10100000000E+00 0.  1.
          2    1    1    2    0  502 -0.91362826063E+01  0.19111986216E+02  0.25058069486E+02  0.32812292359E+02  0.25500000000E-02 0.  1.
         -2    1    1    2  502    0  0.91362826063E+01 -0.19111986216E+02  0.15002102961E+02  0.25957711316E+02  0.25500000000E-02 0.  1.
<mgrwt>
<rscale>  0 0.43001115E+02</rscale>
<asrwt>0</asrwt>
<pdfrwt beam="2">  1        3 0.14392178E-02 0.43001115E+02</pdfrwt>
<pdfrwt beam="1">  1       -3 0.76023212E-02 0.43001115E+02</pdfrwt>
<totfact> 0.26909435E+05</totfact>
</mgrwt>
</event>
<event>
 4    1  0.7692565E-003  0.7618903E+02  0.7818608E-02  0.1340228E+00
         -3   -1    0    0  501    0 -0.00000000000E+00  0.00000000000E+00  0.40579690308E+02  0.40579815999E+02  0.10100000000E+00 0.  1.
          3   -1    0    0    0  501  0.00000000000E+00 -0.00000000000E+00 -0.35761282950E+02  0.35761425576E+02  0.10100000000E+00 0.  1.
          2    1    1    2    0  502 -0.37717634776E+02  0.30905251027E+01 -0.19607826033E+01  0.37894801667E+02  0.25500000000E-02 0.  1.
         -2    1    1    2  502    0  0.37717634776E+02 -0.30905251027E+01  0.67791899616E+01  0.38446439907E+02  0.25500000000E-02 0.  1.
<mgrwt>
<rscale>  0 0.76189029E+02</rscale>
<asrwt>0</asrwt>
<pdfrwt beam="2">  1        3 0.55017564E-02 0.76189029E+02</pdfrwt>
<pdfrwt beam="1">  1       -3 0.62430500E-02 0.76189029E+02</pdfrwt>
<totfact> 0.59290613E+04</totfact>
</mgrwt>
</event>
<event>
 4    1  0.7692565E-003  0.4637598E+02  0.7818608E-02  0.1465930E+00
         -3   -1    0    0  501    0 -0.00000000000E+00  0.00000000000E+00  0.33121576696E+03  0.33121578236E+03  0.10100000000E+00 0.  1.
          3   -1    0    0    0  501  0.00000000000E+00 -0.00000000000E+00 -0.16217748389E+01  0.16249168065E+01  0.10100000000E+00 0.  1.
          2    1    1    2    0  502  0.18847401952E+02  0.97291704095E+01  0.97546675375E+02  0.99826024665E+02  0.25500000000E-02 0.  1.
         -2    1    1    2  502    0 -0.18847401952E+02 -0.97291704095E+01  0.23204731675E+03  0.23301467450E+03  0.25500000000E-02 0.  1.
<mgrwt>
<rscale>  0 0.46375978E+02</rscale>
<asrwt>0</asrwt>
<pdfrwt beam="2">  1        3 0.24974694E-03 0.46375978E+02</pdfrwt>
<pdfrwt beam="1">  1       -3 0.50956466E-01 0.46375978E+02</pdfrwt>
<totfact> 0.12956677E+05</totfact>
</mgrwt>
</event>
<event>
 4    1  0.7692565E-003  0.6708005E+02  0.7818608E-02  0.1370314E+00
          3   -1    0    0    0  501  0.00000000000E+00  0.00000000000E+00  0.45224165495E+02  0.45224278277E+02  0.10100000000E+00 0. -1.
         -3   -1    0    0  501    0 -0.00000000000E+00 -0.00000000000E+00 -0.24874355999E+02  0.24874561048E+02  0.10100000000E+00 0. -1.
          2    1    1    2    0  502  0.31455808126E+02  0.11310319572E+02  0.13044751984E+02  0.35882541082E+02  0.25500000000E-02 0.  1.
         -2    1    1    2  502    0 -0.31455808126E+02 -0.11310319572E+02  0.73050575123E+01  0.34216298243E+02  0.25500000000E-02 0.  1.
<mgrwt>
<rscale>  0 0.67080046E+02</rscale>
<asrwt>0</asrwt>
<pdfrwt beam="1">  1        3 0.69575884E-02 0.67080046E+02</pdfrwt>
<pdfrwt beam="2">  1       -3 0.38268484E-02 0.67080046E+02</pdfrwt>
<totfact> 0.84259279E+04</totfact>
</mgrwt>
</event>
<event>
 4    1  0.7692565E-003  0.5020793E+02  0.7818608E-02  0.1444223E+00
         -3   -1    0    0  501    0 -0.00000000000E+00  0.00000000000E+00  0.55325979352E+02  0.55326071542E+02  0.10100000000E+00 0. -1.
          3   -1    0    0    0  501  0.00000000000E+00 -0.00000000000E+00 -0.11390507915E+02  0.11390955691E+02  0.10100000000E+00 0. -1.
          2    1    1    2    0  502 -0.13094851250E+02  0.20786561961E+02  0.28827910599E+02  0.37876176199E+02  0.25500000000E-02 0. -1.
         -2    1    1    2  502    0  0.13094851250E+02 -0.20786561961E+02  0.15107560838E+02  0.28840851035E+02  0.25500000000E-02 0. -1.
<mgrwt>
<rscale>  0 0.50207928E+02</rscale>
<asrwt>0</asrwt>
<pdfrwt beam="2">  1        3 0.17524274E-02 0.50207928E+02</pdfrwt>
<pdfrwt beam="1">  1       -3 0.85117305E-02 0.50207928E+02</pdfrwt>
<totfact> 0.17909295E+05</totfact>
</mgrwt>
</event>
<event>
 4    1  0.7692565E-003  0.4513035E+02  0.7818608E-02  0.1473530E+00
          3   -1    0    0    0  501  0.00000000000E+00  0.00000000000E+00  0.12447466884E+01  0.12488375868E+01  0.10100000000E+00 0.  1.
         -3   -1    0    0  501    0 -0.00000000000E+00 -0.00000000000E+00 -0.40839364158E+03  0.40839365407E+03  0.10100000000E+00 0.  1.
          2    1    1    2    0  502 -0.18987280929E+02  0.11702367266E+02 -0.17249381172E+03  0.17392980574E+03  0.25500000000E-02 0.  1.
         -2    1    1    2  502    0  0.18987280929E+02 -0.11702367266E+02 -0.23465508317E+03  0.23571268592E+03  0.25500000000E-02 0.  1.
<mgrwt>
<rscale>  0 0.45130349E+02</rscale>
<asrwt>0</asrwt>
<pdfrwt beam="1">  1        3 0.19181546E-03 0.45130349E+02</pdfrwt>
<pdfrwt beam="2">  1       -3 0.62830000E-01 0.45130349E+02</pdfrwt>
<totfact> 0.12297503E+05</totfact>
</mgrwt>
</event>
<event>
 4    1  0.7692565E-003  0.1417893E+03  0.7818608E-02  0.1210941E+00
         -3   -1    0    0  501    0 -0.00000000000E+00  0.00000000000E+00  0.26041969879E+02  0.26042165735E+02  0.10100000000E+00 0.  1.
          3   -1    0    0    0  501  0.00000000000E+00 -0.00000000000E+00 -0.19299718003E+03  0.19299720645E+03  0.10100000000E+00 0.  1.
          2    1    1    2    0  502  0.43791666534E+01 -0.27774932921E+02  0.17059724533E+02  0.32888572590E+02  0.25500000000E-02 0. -1.
         -2    1    1    2  502    0 -0.43791666534E+01  0.27774932921E+02 -0.18401493468E+03  0.18615079960E+03  0.25500000000E-02 0. -1.
<mgrwt>
<rscale>  0 0.14178930E+03</rscale>
<asrwt>0</asrwt>
<pdfrwt beam="2">  1        3 0.29691890E-01 0.14178930E+03</pdfrwt>
<pdfrwt beam="1">  1       -3 0.40064741E-02 0.14178930E+03</pdfrwt>
<totfact> 0.81103519E+03</totfact>
</mgrwt>
</event>
<event>
 4    1  0.7692565E-003  0.5168400E+02  0.7818608E-02  0.1436465E+00
          3   -1    0    0    0  501  0.00000000000E+00  0.00000000000E+00  0.73391009556E+01  0.73397958989E+01  0.10100000000E+00 0.  1.
         -3   -1    0    0  501    0 -0.00000000000E+00 -0.00000000000E+00 -0.90988267554E+02  0.90988323611E+02  0.10100000000E+00 0.  1.
          2    1    1    2    0  502 -0.10110104903E+01 -0.24983765508E+02 -0.54241615780E+02  0.59727410542E+02  0.25500000000E-02 0. -1.
         -2    1    1    2  502    0  0.10110104903E+01  0.24983765508E+02 -0.29407550819E+02  0.38600708968E+02  0.25500000000E-02 0. -1.
<mgrwt>
<rscale>  0 0.51684002E+02</rscale>
<asrwt>0</asrwt>
<pdfrwt beam="1">  1        3 0.11291503E-02 0.51684002E+02</pdfrwt>
<pdfrwt beam="2">  1       -3 0.13998252E-01 0.51684002E+02</pdfrwt>
<totfact> 0.15423590E+05</totfact>
</mgrwt>
</event>
<event>
 4    1  0.7692565E-003  0.4539848E+02  0.7818608E-02  0.1471869E+00
          3   -1    0    0    0  501  0.00000000000E+00  0.00000000000E+00  0.10971389431E+04  0.10971389477E+04  0.10100000000E+00 0.  1.
         -3   -1    0    0  501    0 -0.00000000000E+00 -0.00000000000E+00 -0.46420067026E+00  0.47506132475E+00  0.10100000000E+00 0.  1.
          2    1    1    2    0  502  0.16171514776E+02 -0.12808576536E+02  0.77729300198E+03  0.77756670997E+03  0.25500000000E-02 0.  1.
         -2    1    1    2  502    0 -0.16171514776E+02  0.12808576536E+02  0.31938174043E+03  0.32004729908E+03  0.25500000000E-02 0.  1.
<mgrwt>
<rscale>  0 0.45398483E+02</rscale>
<asrwt>0</asrwt>
<pdfrwt beam="1">  1        3 0.16878985E+00 0.45398483E+02</pdfrwt>
<pdfrwt beam="2">  1       -3 0.72251963E-04 0.45398483E+02</pdfrwt>
<totfact> 0.53832567E+04</totfact>
</mgrwt>
</event>
<event>
 4    1  0.7692565E-003  0.4300497E+02  0.7818608E-02  0.1487195E+00
         -3   -1    0    0  501    0 -0.00000000000E+00  0.00000000000E+00  0.51323056641E+02  0.51323156022E+02  0.10100000000E+00 0. -1.
          3   -1    0    0    0  501  0.00000000000E+00 -0.00000000000E+00 -0.90083635347E+01  0.90089297130E+01  0.10100000000E+00 0. -1.
          2    1    1    2    0  502 -0.14179838987E+02 -0.16092905106E+02  0.19026311467E+02  0.28671413690E+02  0.25500000000E-02 0.  1.
         -2    1    1    2  502    0  0.14179838987E+02  0.16092905106E+02  0.23288381640E+02  0.31660672045E+02  0.25500000000E-02 0.  1.
<mgrwt>
<rscale>  0 0.43004969E+02</rscale>
<asrwt>0</asrwt>
<pdfrwt beam="2">  1        3 0.13859533E-02 0.43004969E+02</pdfrwt>
<pdfrwt beam="1">  1       -3 0.78959061E-02 0.43004969E+02</pdfrwt>
<totfact> 0.26792215E+05</totfact>
</mgrwt>
</event>
<event>
 4    1  0.7692565E-003  0.7240717E+02  0.7818608E-02  0.1352094E+00
          3   -1    0    0    0  501  0.00000000000E+00  0.00000000000E+00  0.18182115584E+02  0.18182396105E+02  0.10100000000E+00 0.  1.
         -3   -1    0    0  501    0 -0.00000000000E+00 -0.00000000000E+00 -0.72086416969E+02  0.72086487725E+02  0.10100000000E+00 0.  1.
          2    1    1    2    0  502 -0.27723946104E+02 -0.11333082624E+01 -0.55943871695E+02  0.62446924360E+02  0.25500000000E-02 0. -1.
         -2    1    1    2  502    0  0.27723946104E+02  0.11333082624E+01  0.20395703102E+01  0.27821959470E+02  0.25500000000E-02 0. -1.
<mgrwt>
<rscale>  0 0.72407166E+02</rscale>
<asrwt>0</asrwt>
<pdfrwt beam="1">  1        3 0.27972756E-02 0.72407166E+02</pdfrwt>
<pdfrwt beam="2">  1       -3 0.11090245E-01 0.72407166E+02</pdfrwt>
<totfact> 0.65737724E+04</totfact>
</mgrwt>
</event>
<event>
 4    1  0.7692565E-003  0.5240556E+02  0.7818608E-02  0.1432782E+00
          3   -1    0    0    0  501  0.00000000000E+00  0.00000000000E+00  0.69272395898E+03  0.69272396634E+03  0.10100000000E+00 0. -1.
         -3   -1    0    0  501    0 -0.00000000000E+00 -0.00000000000E+00 -0.98855842759E+00  0.99370456614E+00  0.10100000000E+00 0. -1.
          2    1    1    2    0  502  0.22040279540E+02 -0.87595854122E+01  0.49332242740E+03  0.49389221663E+03  0.25500000000E-02 0. -1.
         -2    1    1    2  502    0 -0.22040279540E+02  0.87595854122E+01  0.19841297314E+03  0.19982545428E+03  0.25500000000E-02 0. -1.
<mgrwt>
<rscale>  0 0.52405558E+02</rscale>
<asrwt>0</asrwt>
<pdfrwt beam="1">  1        3 0.10657333E+00 0.52405558E+02</pdfrwt>
<pdfrwt beam="2">  1       -3 0.15248231E-03 0.52405558E+02</pdfrwt>
<totfact> 0.58375662E+04</totfact>
</mgrwt>
</event>
<event>
 4    1  0.7692565E-003  0.6287439E+02  0.7818608E-02  0.1386150E+00
          3   -1    0    0    0  501  0.00000000000E+00  0.00000000000E+00  0.34064044701E+02  0.34064194434E+02  0.10100000000E+00 0.  1.
         -3   -1    0    0  501    0 -0.00000000000E+00 -0.00000000000E+00 -0.29012616858E+02  0.29012792661E+02  0.10100000000E+00 0.  1.
          2    1    1    2    0  502  0.29957340474E+02  0.69231797263E+01 -0.40470892053E+01  0.31012120265E+02  0.25500000000E-02 0.  1.
         -2    1    1    2  502    0 -0.29957340474E+02 -0.69231797263E+01  0.90985170483E+01  0.32064866829E+02  0.25500000000E-02 0.  1.
<mgrwt>
<rscale>  0 0.62874394E+02</rscale>
<asrwt>0</asrwt>
<pdfrwt beam="1">  1        3 0.52406473E-02 0.62874394E+02</pdfrwt>
<pdfrwt beam="2">  1       -3 0.44635045E-02 0.62874394E+02</pdfrwt>
<totfact> 0.10154980E+05</totfact>
</mgrwt>
</event>
<event>
 4    1  0.7692565E-003  0.4813443E+02  0.7818608E-02  0.1455672E+00
         -3   -1    0    0  501    0 -0.00000000000E+00  0.00000000000E+00  0.30352725919E+01  0.30369525362E+01  0.10100000000E+00 0. -1.
          3   -1    0    0    0  501  0.00000000000E+00 -0.00000000000E+00 -0.19077874043E+03  0.19077876717E+03  0.10100000000E+00 0. -1.
          2    1    1    2    0  502  0.13328050811E+02  0.20021737111E+02 -0.90445685939E+02  0.93589150048E+02  0.25500000000E-02 0. -1.
         -2    1    1    2  502    0 -0.13328050811E+02 -0.20021737111E+02 -0.97297781901E+02  0.10022656965E+03  0.25500000000E-02 0. -1.
<mgrwt>
<rscale>  0 0.48134431E+02</rscale>
<asrwt>0</asrwt>
<pdfrwt beam="2">  1        3 0.29350697E-01 0.48134431E+02</pdfrwt>
<pdfrwt beam="1">  1       -3 0.46709645E-03 0.48134431E+02</pdfrwt>
<totfact> 0.15078946E+05</totfact>
</mgrwt>
</event>
<event>
 4    1  0.7692565E-003  0.4628370E+02  0.7818608E-02  0.1466483E+00
         -3   -1    0    0  501    0 -0.00000000000E+00  0.00000000000E+00  0.75329825143E+02  0.75329892852E+02  0.10100000000E+00 0.  1.
          3   -1    0    0    0  501  0.00000000000E+00 -0.00000000000E+00 -0.71089083623E+01  0.71096258062E+01  0.10100000000E+00 0.  1.
          2    1    1    2    0  502 -0.17915831931E+02  0.11281921276E+02  0.17469410089E+02  0.27448844726E+02  0.25500000000E-02 0. -1.
         -2    1    1    2  502    0  0.17915831931E+02 -0.11281921276E+02  0.50751506692E+02  0.54990673932E+02  0.25500000000E-02 0. -1.
<mgrwt>
<rscale>  0 0.46283699E+02</rscale>
<asrwt>0</asrwt>
<pdfrwt beam="2">  1        3 0.10937386E-02 0.46283699E+02</pdfrwt>
<pdfrwt beam="1">  1       -3 0.11589264E-01 0.46283699E+02</pdfrwt>
<totfact> 0.21110987E+05</totfact>
</mgrwt>
</event>
<event>
 4    1  0.7692565E-003  0.5281635E+02  0.7818608E-02  0.1430717E+00
         -3   -1    0    0  501    0 -0.00000000000E+00  0.00000000000E+00  0.17058482971E+02  0.17058781969E+02  0.10100000000E+00 0.  1.
          3   -1    0    0    0  501  0.00000000000E+00 -0.00000000000E+00 -0.40881683811E+02  0.40881808573E+02  0.10100000000E+00 0.  1.
          2    1    1    2    0  502 -0.24708018015E+02  0.31229754612E+01 -0.21547448051E+02  0.32932228196E+02  0.25500000000E-02 0.  1.
         -2    1    1    2  502    0  0.24708018015E+02 -0.31229754612E+01 -0.22757527888E+01  0.25008362346E+02  0.25500000000E-02 0.  1.
<mgrwt>
<rscale>  0 0.52816353E+02</rscale>
<asrwt>0</asrwt>
<pdfrwt beam="2">  1        3 0.62895224E-02 0.52816353E+02</pdfrwt>
<pdfrwt beam="1">  1       -3 0.26244146E-02 0.52816353E+02</pdfrwt>
<totfact> 0.16112191E+05</totfact>
</mgrwt>
</event>
<event>
 4    1  0.7692565E-003  0.6367809E+02  0.7818608E-02  0.1383014E+00
          3   -1    0    0    0  501  0.00000000000E+00  0.00000000000E+00  0.28690469471E+03  0.28690471249E+03  0.10100000000E+00 0. -1.
         -3   -1    0    0  501    0 -0.00000000000E+00 -0.00000000000E+00 -0.35325754493E+01  0.35340190018E+01  0.10100000000E+00 0. -1.
          2    1    1    2    0  502 -0.38097843877E+01 -0.27155590720E+02  0.21548262922E+03  0.21722040435E+03  0.25500000000E-02 0. -1.
         -2    1    1    2  502    0  0.38097843877E+01  0.27155590720E+02  0.67889490043E+02  0.73218327140E+02  0.25500000000E-02 0. -1.
<mgrwt>
<rscale>  0 0.63678087E+02</rscale>
<asrwt>0</asrwt>
<pdfrwt beam="1">  1        3 0.44139291E-01 0.63678087E+02</pdfrwt>
<pdfrwt beam="2">  1       -3 0.54358563E-03 0.63678087E+02</pdfrwt>
<totfact> 0.62641470E+04</totfact>
</mgrwt>
</event>
<event>
 4    1  0.7692565E-003  0.5069324E+02  0.7818608E-02  0.1441638E+00
          3   -1    0    0    0  501  0.00000000000E+00  0.00000000000E+00  0.75251108556E+02  0.75251176335E+02  0.10100000000E+00 0. -1.
         -3   -1    0    0  501    0 -0.00000000000E+00 -0.00000000000E+00 -0.85370596955E+01  0.85376571285E+01  0.10100000000E+00 0. -1.
          2    1    1    2    0  502  0.15934992067E+02 -0.14105075030E+02  0.56114571671E+02  0.60014350568E+02  0.25500000000E-02 0. -1.
         -2    1    1    2  502    0 -0.15934992067E+02  0.14105075030E+02  0.10599477189E+02  0.23774482896E+02  0.25500000000E-02 0. -1.
<mgrwt>
<rscale>  0 0.50693237E+02</rscale>
<asrwt>0</asrwt>
<pdfrwt beam="1">  1        3 0.11577144E-01 0.50693237E+02</pdfrwt>
<pdfrwt beam="2">  1       -3 0.13134450E-02 0.50693237E+02</pdfrwt>
<totfact> 0.16756783E+05</totfact>
</mgrwt>
</event>
<event>
 4    1  0.7692565E-003  0.5028913E+02  0.7818608E-02  0.1443788E+00
          3   -1    0    0    0  501  0.00000000000E+00  0.00000000000E+00  0.44241882791E+02  0.44241998077E+02  0.10100000000E+00 0. -1.
         -3   -1    0    0  501    0 -0.00000000000E+00 -0.00000000000E+00 -0.14290424935E+02  0.14290781848E+02  0.10100000000E+00 0. -1.
          2    1    1    2    0  502 -0.21938086238E+02  0.11533717528E+02  0.10045458366E+02  0.26743550775E+02  0.25500000000E-02 0. -1.
         -2    1    1    2  502    0  0.21938086238E+02 -0.11533717528E+02  0.19905999489E+02  0.31789229150E+02  0.25500000000E-02 0. -1.
<mgrwt>
<rscale>  0 0.50289129E+02</rscale>
<asrwt>0</asrwt>
<pdfrwt beam="1">  1        3 0.68064797E-02 0.50289129E+02</pdfrwt>
<pdfrwt beam="2">  1       -3 0.21985633E-02 0.50289129E+02</pdfrwt>
<totfact> 0.18214543E+05</totfact>
</mgrwt>
</event>
<event>
 4    1  0.7692565E-003  0.5469142E+02  0.7818608E-02  0.1421564E+00
          3   -1    0    0    0  501  0.00000000000E+00  0.00000000000E+00  0.21414449904E+03  0.21414452286E+03  0.10100000000E+00 0. -1.
         -3   -1    0    0  501    0 -0.00000000000E+00 -0.00000000000E+00 -0.34912229226E+01  0.34926835665E+01  0.10100000000E+00 0. -1.
          2    1    1    2    0  502  0.11029026498E+02  0.19704712244E+02  0.16670088772E+03  0.16822336663E+03  0.25500000000E-02 0.  1.
         -2    1    1    2  502    0 -0.11029026498E+02 -0.19704712244E+02  0.43952388401E+02  0.49413839789E+02  0.25500000000E-02 0.  1.
<mgrwt>
<rscale>  0 0.54691415E+02</rscale>
<asrwt>0</asrwt>
<pdfrwt beam="1">  1        3 0.32945420E-01 0.54691415E+02</pdfrwt>
<pdfrwt beam="2">  1       -3 0.53722544E-03 0.54691415E+02</pdfrwt>
<totfact> 0.10475365E+05</totfact>
</mgrwt>
</event>
<event>
 4    1  0.7692565E-003  0.4250472E+02  0.7818608E-02  0.1490549E+00
         -3   -1    0    0  501    0 -0.00000000000E+00  0.00000000000E+00  0.37812373132E+02  0.37812508021E+02  0.10100000000E+00 0.  1.
          3   -1    0    0    0  501  0.00000000000E+00 -0.00000000000E+00 -0.11944472721E+02  0.11944899731E+02  0.10100000000E+00 0.  1.
          2    1    1    2    0  502  0.61071055454E+01  0.20298869195E+02  0.11150126220E+02  0.23951328772E+02  0.25500000000E-02 0. -1.
         -2    1    1    2  502    0 -0.61071055454E+01 -0.20298869195E+02  0.14717774191E+02  0.25806078981E+02  0.25500000000E-02 0. -1.
<mgrwt>
<rscale>  0 0.42504722E+02</rscale>
<asrwt>0</asrwt>
<pdfrwt beam="2">  1        3 0.18376544E-02 0.42504722E+02</pdfrwt>
<pdfrwt beam="1">  1       -3 0.58173315E-02 0.42504722E+02</pdfrwt>
<totfact> 0.28374844E+05</totfact>
</mgrwt>
</event>
<event>
 4    1  0.7692565E-003  0.5233547E+02  0.7818608E-02  0.1433137E+00
          3   -1    0    0    0  501  0.00000000000E+00  0.00000000000E+00  0.24160247228E+03  0.24160249339E+03  0.10100000000E+00 0.  1.
         -3   -1    0    0  501    0 -0.00000000000E+00 -0.00000000000E+00 -0.28332820845E+01  0.28350817220E+01  0.10100000000E+00 0.  1.
          2    1    1    2    0  502 -0.64713645177E+01  0.22025379963E+02  0.17804739048E+03  0.17952122210E+03  0.25500000000E-02 0. -1.
         -2    1    1    2  502    0  0.64713645177E+01 -0.22025379963E+02  0.60721799712E+02  0.64916353010E+02  0.25500000000E-02 0. -1.
<mgrwt>
<rscale>  0 0.52335475E+02</rscale>
<asrwt>0</asrwt>
<pdfrwt beam="1">  1        3 0.37169748E-01 0.52335475E+02</pdfrwt>
<pdfrwt beam="2">  1       -3 0.43602964E-03 0.52335475E+02</pdfrwt>
<totfact> 0.11149376E+05</totfact>
</mgrwt>
</event>
<event>
 4    1  0.7692565E-003  0.5503957E+02  0.7818608E-02  0.1419912E+00
          3   -1    0    0    0  501  0.00000000000E+00  0.00000000000E+00  0.65046397963E+01  0.65054238816E+01  0.10100000000E+00 0.  1.
         -3   -1    0    0  501    0 -0.00000000000E+00 -0.00000000000E+00 -0.11642267433E+03  0.11642271814E+03  0.10100000000E+00 0.  1.
          2    1    1    2    0  502  0.16705497807E+02 -0.20695062913E+02 -0.39169430314E+02  0.47345575966E+02  0.25500000000E-02 0.  1.
         -2    1    1    2  502    0 -0.16705497807E+02  0.20695062913E+02 -0.70748604223E+02  0.75582566058E+02  0.25500000000E-02 0.  1.
<mgrwt>
<rscale>  0 0.55039566E+02</rscale>
<asrwt>0</asrwt>
<pdfrwt beam="1">  1        3 0.10007776E-02 0.55039566E+02</pdfrwt>
<pdfrwt beam="2">  1       -3 0.17911243E-01 0.55039566E+02</pdfrwt>
<totfact> 0.12446702E+05</totfact>
</mgrwt>
</event>
<event>
 4    1  0.7692565E-003  0.4322408E+02  0.7818608E-02  0.1485743E+00
         -3   -1    0    0  501    0 -0.00000000000E+00  0.00000000000E+00  0.64595677022E+02  0.64595755983E+02  0.10100000000E+00 0.  1.
          3   -1    0    0    0  501  0.00000000000E+00 -0.00000000000E+00 -0.72303925775E+01  0.72310979681E+01  0.10100000000E+00 0.  1.
          2    1    1    2    0  502  0.19178908209E+02 -0.98905077936E+01  0.26697166668E+02  0.34327705707E+02  0.25500000000E-02 0. -1.
         -2    1    1    2  502    0 -0.19178908209E+02  0.98905077936E+01  0.30668117777E+02  0.37499148244E+02  0.25500000000E-02 0. -1.
<mgrwt>
<rscale>  0 0.43224080E+02</rscale>
<asrwt>0</asrwt>
<pdfrwt beam="2">  1        3 0.11124284E-02 0.43224080E+02</pdfrwt>
<pdfrwt beam="1">  1       -3 0.99378566E-02 0.43224080E+02</pdfrwt>
<totfact> 0.25680002E+05</totfact>
</mgrwt>
</event>
<event>
 4    1  0.7692565E-003  0.1033780E+03  0.7818608E-02  0.1273349E+00
          3   -1    0    0    0  501  0.00000000000E+00  0.00000000000E+00  0.79922360191E+02  0.79922424009E+02  0.10100000000E+00 0.  1.
         -3   -1    0    0  501    0 -0.00000000000E+00 -0.00000000000E+00 -0.33429208464E+02  0.33429361040E+02  0.10100000000E+00 0.  1.
          2    1    1    2    0  502 -0.37059487775E+02  0.88454675340E+01 -0.15053433372E+02  0.40966495979E+02  0.25500000000E-02 0.  1.
         -2    1    1    2  502    0  0.37059487775E+02 -0.88454675340E+01  0.61546585098E+02  0.72385289070E+02  0.25500000000E-02 0.  1.
<mgrwt>
<rscale>  0 0.10337802E+03</rscale>
<asrwt>0</asrwt>
<pdfrwt beam="1">  1        3 0.12295764E-01 0.10337802E+03</pdfrwt>
<pdfrwt beam="2">  1       -3 0.51429718E-02 0.10337802E+03</pdfrwt>
<totfact> 0.23891413E+04</totfact>
</mgrwt>
</event>
<event>
 4    1  0.7692565E-003  0.5659793E+02  0.7818608E-02  0.1412690E+00
         -3   -1    0    0  501    0 -0.00000000000E+00  0.00000000000E+00  0.25990017066E+03  0.25990019029E+03  0.10100000000E+00 0.  1.
          3   -1    0    0    0  501  0.00000000000E+00 -0.00000000000E+00 -0.30804566805E+01  0.30821119968E+01  0.10100000000E+00 0.  1.
          2    1    1    2    0  502 -0.69986703220E+01  0.23177169297E+02  0.60331272420E+02  0.65007884147E+02  0.25500000000E-02 0. -1.
         -2    1    1    2  502    0  0.69986703220E+01 -0.23177169297E+02  0.19648844156E+03  0.19797441814E+03  0.25500000000E-02 0. -1.
<mgrwt>
<rscale>  0 0.56597931E+02</rscale>
<asrwt>0</asrwt>
<pdfrwt beam="2">  1        3 0.47404512E-03 0.56597931E+02</pdfrwt>
<pdfrwt beam="1">  1       -3 0.39984782E-01 0.56597931E+02</pdfrwt>
<totfact> 0.88593282E+04</totfact>
</mgrwt>
</event>
<event>
 4    1  0.7692565E-003  0.4199788E+02  0.7818608E-02  0.1494004E+00
          3   -1    0    0    0  501  0.00000000000E+00  0.00000000000E+00  0.47240815863E+03  0.47240816942E+03  0.10100000000E+00 0. -1.
         -3   -1    0    0  501    0 -0.00000000000E+00 -0.00000000000E+00 -0.93067746713E+00  0.93614184173E+00  0.10100000000E+00 0. -1.
          2    1    1    2    0  502  0.20893862061E+02 -0.25760822891E+00  0.25920665436E+03  0.26004751394E+03  0.25500000000E-02 0. -1.
         -2    1    1    2  502    0 -0.20893862061E+02  0.25760822891E+00  0.21227082680E+03  0.21329679733E+03  0.25500000000E-02 0. -1.
<mgrwt>
<rscale>  0 0.41997878E+02</rscale>
<asrwt>0</asrwt>
<pdfrwt beam="1">  1        3 0.72678839E-01 0.41997878E+02</pdfrwt>
<pdfrwt beam="2">  1       -3 0.14360184E-03 0.41997878E+02</pdfrwt>
<totfact> 0.13368483E+05</totfact>
</mgrwt>
</event>
<event>
 4    1  0.7692565E-003  0.4861862E+02  0.7818608E-02  0.1452938E+00
          3   -1    0    0    0  501  0.00000000000E+00  0.00000000000E+00  0.45141311433E+01  0.45152608982E+01  0.10100000000E+00 0.  1.
         -3   -1    0    0  501    0 -0.00000000000E+00 -0.00000000000E+00 -0.13089194839E+03  0.13089198736E+03  0.10100000000E+00 0.  1.
          2    1    1    2    0  502  0.65497881526E+00 -0.22299557568E+02 -0.36295363952E+02  0.42603435494E+02  0.25500000000E-02 0. -1.
         -2    1    1    2  502    0 -0.65497881526E+00  0.22299557568E+02 -0.90082453295E+02  0.92803812761E+02  0.25500000000E-02 0. -1.
<mgrwt>
<rscale>  0 0.48618620E+02</rscale>
<asrwt>0</asrwt>
<pdfrwt beam="1">  1        3 0.69457172E-03 0.48618620E+02</pdfrwt>
<pdfrwt beam="2">  1       -3 0.20137310E-01 0.48618620E+02</pdfrwt>
<totfact> 0.16554430E+05</totfact>
</mgrwt>
</event>
<event>
 4    1  0.7692565E-003  0.4087676E+02  0.7818608E-02  0.1501857E+00
          3   -1    0    0    0  501  0.00000000000E+00  0.00000000000E+00  0.63178207419E+02  0.63178288151E+02  0.10100000000E+00 0.  1.
         -3   -1    0    0  501    0 -0.00000000000E+00 -0.00000000000E+00 -0.66114211304E+01  0.66121925534E+01  0.10100000000E+00 0.  1.
          2    1    1    2    0  502 -0.18068556331E+02 -0.95195300069E+01  0.29642080252E+02  0.35996487434E+02  0.25500000000E-02 0. -1.
         -2    1    1    2  502    0  0.18068556331E+02  0.95195300069E+01  0.26924706037E+02  0.33793993270E+02  0.25500000000E-02 0. -1.
<mgrwt>
<rscale>  0 0.40876765E+02</rscale>
<asrwt>0</asrwt>
<pdfrwt beam="1">  1        3 0.97197902E-02 0.40876765E+02</pdfrwt>
<pdfrwt beam="2">  1       -3 0.10172072E-02 0.40876765E+02</pdfrwt>
<totfact> 0.29596168E+05</totfact>
</mgrwt>
</event>
<event>
 4    1  0.7692565E-003  0.6485414E+02  0.7818608E-02  0.1378521E+00
          3   -1    0    0    0  501  0.00000000000E+00  0.00000000000E+00  0.11304969795E+02  0.11305420960E+02  0.10100000000E+00 0. -1.
         -3   -1    0    0  501    0 -0.00000000000E+00 -0.00000000000E+00 -0.93011185112E+02  0.93011239950E+02  0.10100000000E+00 0. -1.
          2    1    1    2    0  502  0.23047218569E+02  0.21405874815E+02 -0.28174719555E+02  0.42227959800E+02  0.25500000000E-02 0.  1.
         -2    1    1    2  502    0 -0.23047218569E+02 -0.21405874815E+02 -0.53531495762E+02  0.62088701109E+02  0.25500000000E-02 0.  1.
<mgrwt>
<rscale>  0 0.64854145E+02</rscale>
<asrwt>0</asrwt>
<pdfrwt beam="1">  1        3 0.17392651E-02 0.64854145E+02</pdfrwt>
<pdfrwt beam="2">  1       -3 0.14309451E-01 0.64854145E+02</pdfrwt>
<totfact> 0.85045305E+04</totfact>
</mgrwt>
</event>
<event>
 4    1  0.7692565E-003  0.4451497E+02  0.7818608E-02  0.1477392E+00
          3   -1    0    0    0  501  0.00000000000E+00  0.00000000000E+00  0.88454295870E+01  0.88460061937E+01  0.10100000000E+00 0. -1.
         -3   -1    0    0  501    0 -0.00000000000E+00 -0.00000000000E+00 -0.56003382167E+02  0.56003473242E+02  0.10100000000E+00 0. -1.
          2    1    1    2    0  502  0.16042012311E+02 -0.13976866609E+02 -0.14059844196E+02  0.25502513297E+02  0.25500000000E-02 0.  1.
         -2    1    1    2  502    0 -0.16042012311E+02  0.13976866609E+02 -0.33098108384E+02  0.39346966138E+02  0.25500000000E-02 0.  1.
<mgrwt>
<rscale>  0 0.44514969E+02</rscale>
<asrwt>0</asrwt>
<pdfrwt beam="1">  1        3 0.13608867E-02 0.44514969E+02</pdfrwt>
<pdfrwt beam="2">  1       -3 0.86159561E-02 0.44514969E+02</pdfrwt>
<totfact> 0.24309227E+05</totfact>
</mgrwt>
</event>
<event>
 4    1  0.7692565E-003  0.4343723E+02  0.7818608E-02  0.1484340E+00
          3   -1    0    0    0  501  0.00000000000E+00  0.00000000000E+00  0.22821326521E+02  0.22821550016E+02  0.10100000000E+00 0. -1.
         -3   -1    0    0  501    0 -0.00000000000E+00 -0.00000000000E+00 -0.20668740311E+02  0.20668987083E+02  0.10100000000E+00 0. -1.
          2    1    1    2    0  502 -0.27013210392E+01 -0.21532423312E+02  0.19467862199E+01  0.21788354048E+02  0.25500000000E-02 0.  1.
         -2    1    1    2  502    0  0.27013210392E+01  0.21532423312E+02  0.20579999002E+00  0.21702183051E+02  0.25500000000E-02 0.  1.
<mgrwt>
<rscale>  0 0.43437233E+02</rscale>
<asrwt>0</asrwt>
<pdfrwt beam="1">  1        3 0.35110095E-02 0.43437233E+02</pdfrwt>
<pdfrwt beam="2">  1       -3 0.31798424E-02 0.43437233E+02</pdfrwt>
<totfact> 0.27366960E+05</totfact>
</mgrwt>
</event>
<event>
 4    1  0.7692565E-003  0.7446190E+02  0.7818608E-02  0.1345545E+00
         -3   -1    0    0  501    0 -0.00000000000E+00  0.00000000000E+00  0.19990287698E+02  0.19990542846E+02  0.10100000000E+00 0.  1.
          3   -1    0    0    0  501  0.00000000000E+00 -0.00000000000E+00 -0.69340118990E+02  0.69340192547E+02  0.10100000000E+00 0.  1.
          2    1    1    2    0  502 -0.31791309812E+02  0.39707986568E+01 -0.19223504757E+01  0.32095950825E+02  0.25500000000E-02 0.  1.
         -2    1    1    2  502    0  0.31791309812E+02 -0.39707986568E+01 -0.47427480816E+02  0.57234784568E+02  0.25500000000E-02 0.  1.
<mgrwt>
<rscale>  0 0.74461899E+02</rscale>
<asrwt>0</asrwt>
<pdfrwt beam="2">  1        3 0.10667736E-01 0.74461899E+02</pdfrwt>
<pdfrwt beam="1">  1       -3 0.30754542E-02 0.74461899E+02</pdfrwt>
<totfact> 0.61171699E+04</totfact>
</mgrwt>
</event>
<event>
 4    1  0.7692565E-003  0.5770439E+02  0.7818608E-02  0.1407726E+00
         -3   -1    0    0  501    0 -0.00000000000E+00  0.00000000000E+00  0.63286548996E+01  0.63294607857E+01  0.10100000000E+00 0.  1.
          3   -1    0    0    0  501  0.00000000000E+00 -0.00000000000E+00 -0.13152730772E+03  0.13152734650E+03  0.10100000000E+00 0.  1.
          2    1    1    2    0  502 -0.43903517211E-01 -0.28181633229E+02 -0.47825463449E+02  0.55511092041E+02  0.25500000000E-02 0.  1.
         -2    1    1    2  502    0  0.43903517211E-01  0.28181633229E+02 -0.77373189370E+02  0.82345715243E+02  0.25500000000E-02 0.  1.
<mgrwt>
<rscale>  0 0.57704390E+02</rscale>
<asrwt>0</asrwt>
<pdfrwt beam="2">  1        3 0.20235033E-01 0.57704390E+02</pdfrwt>
<pdfrwt beam="1">  1       -3 0.97370429E-03 0.57704390E+02</pdfrwt>
<totfact> 0.10688179E+05</totfact>
</mgrwt>
</event>
<event>
 4    1  0.7692565E-003  0.5681669E+02  0.7818608E-02  0.1411698E+00
          3   -1    0    0    0  501  0.00000000000E+00  0.00000000000E+00  0.26914552764E+03  0.26914554659E+03  0.10100000000E+00 0. -1.
         -3   -1    0    0  501    0 -0.00000000000E+00 -0.00000000000E+00 -0.29976349633E+01  0.29993359887E+01  0.10100000000E+00 0. -1.
          2    1    1    2    0  502 -0.20937704005E+02 -0.27592210656E+01  0.42062108281E+02  0.47066141858E+02  0.25500000000E-02 0. -1.
         -2    1    1    2  502    0  0.20937704005E+02  0.27592210656E+01  0.22408578440E+03  0.22507874072E+03  0.25500000000E-02 0. -1.
<mgrwt>
<rscale>  0 0.56816691E+02</rscale>
<asrwt>0</asrwt>
<pdfrwt beam="1">  1        3 0.41407146E-01 0.56816691E+02</pdfrwt>
<pdfrwt beam="2">  1       -3 0.46130681E-03 0.56816691E+02</pdfrwt>
<totfact> 0.86377264E+04</totfact>
</mgrwt>
</event>
<event>
 4    1  0.7692565E-003  0.6666726E+02  0.7818608E-02  0.1371807E+00
         -3   -1    0    0  501    0 -0.00000000000E+00  0.00000000000E+00  0.15083590679E+03  0.15083594061E+03  0.10100000000E+00 0. -1.
          3   -1    0    0    0  501  0.00000000000E+00 -0.00000000000E+00 -0.73661063349E+01  0.73667987306E+01  0.10100000000E+00 0. -1.
          2    1    1    2    0  502 -0.72262752683E+01  0.19194116403E+02  0.93782890853E+01  0.22551839646E+02  0.25500000000E-02 0. -1.
         -2    1    1    2  502    0  0.72262752683E+01 -0.19194116403E+02  0.13409151137E+03  0.13565089969E+03  0.25500000000E-02 0. -1.
<mgrwt>
<rscale>  0 0.66667257E+02</rscale>
<asrwt>0</asrwt>
<pdfrwt beam="2">  1        3 0.11333030E-02 0.66667257E+02</pdfrwt>
<pdfrwt beam="1">  1       -3 0.23205581E-01 0.66667257E+02</pdfrwt>
<totfact> 0.70690768E+04</totfact>
</mgrwt>
</event>
<event>
 4    1  0.7692565E-003  0.6674573E+02  0.7818608E-02  0.1371523E+00
          3   -1    0    0    0  501  0.00000000000E+00  0.00000000000E+00  0.67140157229E+02  0.67140233197E+02  0.10100000000E+00 0.  1.
         -3   -1    0    0  501    0 -0.00000000000E+00 -0.00000000000E+00 -0.16588164589E+02  0.16588472065E+02  0.10100000000E+00 0.  1.
          2    1    1    2    0  502  0.27781141627E+02  0.11343625672E+02  0.43595946680E+02  0.52925194822E+02  0.25500000000E-02 0.  1.
         -2    1    1    2  502    0 -0.27781141627E+02 -0.11343625672E+02  0.69560459593E+01  0.30803510439E+02  0.25500000000E-02 0.  1.
<mgrwt>
<rscale>  0 0.66745727E+02</rscale>
<asrwt>0</asrwt>
<pdfrwt beam="1">  1        3 0.10329284E-01 0.66745727E+02</pdfrwt>
<pdfrwt beam="2">  1       -3 0.25520549E-02 0.66745727E+02</pdfrwt>
<totfact> 0.82661827E+04</totfact>
</mgrwt>
</event>
<event>
 4    1  0.7692565E-003  0.4052998E+02  0.7818608E-02  0.1504347E+00
          3   -1    0    0    0  501  0.00000000000E+00  0.00000000000E+00  0.26510364801E+03  0.26510366725E+03  0.10100000000E+00 0. -1.
         -3   -1    0    0  501    0 -0.00000000000E+00 -0.00000000000E+00 -0.15474256007E+01  0.15507182174E+01  0.10100000000E+00 0. -1.
          2    1    1    2    0  502  0.12924028113E+02  0.15371594336E+02  0.14961888822E+03  0.15096068406E+03  0.25500000000E-02 0. -1.
         -2    1    1    2  502    0 -0.12924028113E+02 -0.15371594336E+02  0.11393733419E+03  0.11569370140E+03  0.25500000000E-02 0. -1.
<mgrwt>
<rscale>  0 0.40529976E+02</rscale>
<asrwt>0</asrwt>
<pdfrwt beam="1">  1        3 0.40785390E-01 0.40529976E+02</pdfrwt>
<pdfrwt beam="2">  1       -3 0.23832048E-03 0.40529976E+02</pdfrwt>
<totfact> 0.20105597E+05</totfact>
</mgrwt>
</event>
<event>
 4    1  0.7692565E-003  0.5055178E+02  0.7818608E-02  0.1442388E+00
          3   -1    0    0    0  501  0.00000000000E+00  0.00000000000E+00  0.84925948748E+02  0.84926008806E+02  0.10100000000E+00 0. -1.
         -3   -1    0    0  501    0 -0.00000000000E+00 -0.00000000000E+00 -0.75222778898E+01  0.75229559118E+01  0.10100000000E+00 0. -1.
          2    1    1    2    0  502  0.16355186606E+02  0.18530304637E+02  0.29023647608E+02  0.38121338458E+02  0.25500000000E-02 0. -1.
         -2    1    1    2  502    0 -0.16355186606E+02 -0.18530304637E+02  0.48380023250E+02  0.54327626260E+02  0.25500000000E-02 0. -1.
<mgrwt>
<rscale>  0 0.50551784E+02</rscale>
<asrwt>0</asrwt>
<pdfrwt beam="1">  1        3 0.13065587E-01 0.50551784E+02</pdfrwt>
<pdfrwt beam="2">  1       -3 0.11573303E-02 0.50551784E+02</pdfrwt>
<totfact> 0.16530575E+05</totfact>
</mgrwt>
</event>
<event>
 4    1  0.7692565E-003  0.5351960E+02  0.7818608E-02  0.1427232E+00
          3   -1    0    0    0  501  0.00000000000E+00  0.00000000000E+00  0.66408890009E+00  0.67172544036E+00  0.10100000000E+00 0.  1.
         -3   -1    0    0  501    0 -0.00000000000E+00 -0.00000000000E+00 -0.10721278310E+04  0.10721278357E+04  0.10100000000E+00 0.  1.
          2    1    1    2    0  502 -0.11987692463E+02 -0.19713691969E+02 -0.80745235637E+03  0.80778192740E+03  0.25500000000E-02 0.  1.
         -2    1    1    2  502    0  0.11987692463E+02  0.19713691969E+02 -0.26401138570E+03  0.26501763377E+03  0.25500000000E-02 0.  1.
<mgrwt>
<rscale>  0 0.53519603E+02</rscale>
<asrwt>0</asrwt>
<pdfrwt beam="1">  1        3 0.10275617E-03 0.53519603E+02</pdfrwt>
<pdfrwt beam="2">  1       -3 0.16494195E+00 0.53519603E+02</pdfrwt>
<totfact> 0.36574681E+04</totfact>
</mgrwt>
</event>
<event>
 4    1  0.7692565E-003  0.5337711E+02  0.7818608E-02  0.1427933E+00
          3   -1    0    0    0  501  0.00000000000E+00  0.00000000000E+00  0.12277505970E+04  0.12277506012E+04  0.10100000000E+00 0.  1.
         -3   -1    0    0  501    0 -0.00000000000E+00 -0.00000000000E+00 -0.57574946536E+00  0.58454122769E+00  0.10100000000E+00 0.  1.
          2    1    1    2    0  502  0.15520785661E+02 -0.15307072879E+02  0.25925807600E+03  0.26017292566E+03  0.25500000000E-02 0.  1.
         -2    1    1    2  502    0 -0.15520785661E+02  0.15307072879E+02  0.96791677158E+03  0.96816221677E+03  0.25500000000E-02 0.  1.
<mgrwt>
<rscale>  0 0.53377107E+02</rscale>
<asrwt>0</asrwt>
<pdfrwt beam="1">  1        3 0.18888466E+00 0.53377107E+02</pdfrwt>
<pdfrwt beam="2">  1       -3 0.89253793E-04 0.53377107E+02</pdfrwt>
<totfact> 0.31732464E+04</totfact>
</mgrwt>
</event>
<event>
 4    1  0.7692565E-003  0.6216280E+02  0.7818608E-02  0.1388973E+00
         -3   -1    0    0  501    0 -0.00000000000E+00  0.00000000000E+00  0.54181961720E+02  0.54182055856E+02  0.10100000000E+00 0.  1.
          3   -1    0    0    0  501  0.00000000000E+00 -0.00000000000E+00 -0.17829545420E+02  0.17829831488E+02  0.10100000000E+00 0.  1.
          2    1    1    2    0  502  0.25689920018E+02 -0.76789652055E+00  0.38423800275E+02  0.46227157490E+02  0.25500000000E-02 0. -1.
         -2    1    1    2  502    0 -0.25689920018E+02  0.76789652055E+00 -0.20713839750E+01  0.25784729854E+02  0.25500000000E-02 0. -1.
<mgrwt>
<rscale>  0 0.62162800E+02</rscale>
<asrwt>0</asrwt>
<pdfrwt beam="2">  1        3 0.27430362E-02 0.62162800E+02</pdfrwt>
<pdfrwt beam="1">  1       -3 0.83357157E-02 0.62162800E+02</pdfrwt>
<totfact> 0.10233937E+05</totfact>
</mgrwt>
</event>
<event>
 4    1  0.7692565E-003  0.4873354E+02  0.7818608E-02  0.1452295E+00
          3   -1    0    0    0  501  0.00000000000E+00  0.00000000000E+00  0.15328401760E+02  0.15328734504E+02  0.10100000000E+00 0. -1.
         -3   -1    0    0  501    0 -0.00000000000E+00 -0.00000000000E+00 -0.38733776492E+02  0.38733908173E+02  0.10100000000E+00 0. -1.
          2    1    1    2    0  502 -0.17420675761E+02 -0.17009495455E+02 -0.12776271551E+02  0.27496108832E+02  0.25500000000E-02 0.  1.
         -2    1    1    2  502    0  0.17420675761E+02  0.17009495455E+02 -0.10629103181E+02  0.26566533846E+02  0.25500000000E-02 0.  1.
<mgrwt>
<rscale>  0 0.48733538E+02</rscale>
<asrwt>0</asrwt>
<pdfrwt beam="1">  1        3 0.23582514E-02 0.48733538E+02</pdfrwt>
<pdfrwt beam="2">  1       -3 0.59590782E-02 0.48733538E+02</pdfrwt>
<totfact> 0.19948289E+05</totfact>
</mgrwt>
</event>
<event>
 4    1  0.7692565E-003  0.4669675E+02  0.7818608E-02  0.1464019E+00
         -3   -1    0    0  501    0 -0.00000000000E+00  0.00000000000E+00  0.11497777115E+03  0.11497781551E+03  0.10100000000E+00 0. -1.
          3   -1    0    0    0  501  0.00000000000E+00 -0.00000000000E+00 -0.47407378206E+01  0.47418135859E+01  0.10100000000E+00 0. -1.
          2    1    1    2    0  502 -0.12525321574E+02  0.17066467592E+02  0.80368511245E+02  0.83109840590E+02  0.25500000000E-02 0.  1.
         -2    1    1    2  502    0  0.12525321574E+02 -0.17066467592E+02  0.29868522089E+02  0.36609788511E+02  0.25500000000E-02 0.  1.
<mgrwt>
<rscale>  0 0.46696746E+02</rscale>
<asrwt>0</asrwt>
<pdfrwt beam="2">  1        3 0.72943041E-03 0.46696746E+02</pdfrwt>
<pdfrwt beam="1">  1       -3 0.17688975E-01 0.46696746E+02</pdfrwt>
<totfact> 0.18936100E+05</totfact>
</mgrwt>
</event>
<event>
 4    1  0.7692565E-003  0.4931784E+02  0.7818608E-02  0.1449056E+00
         -3   -1    0    0  501    0 -0.00000000000E+00  0.00000000000E+00  0.68564224161E+03  0.68564224904E+03  0.10100000000E+00 0. -1.
          3   -1    0    0    0  501  0.00000000000E+00 -0.00000000000E+00 -0.88396773303E+00  0.88971903039E+00  0.10100000000E+00 0. -1.
          2    1    1    2    0  502  0.16813414363E+02 -0.18033287517E+02  0.33660553890E+03  0.33750730242E+03  0.25500000000E-02 0.  1.
         -2    1    1    2  502    0 -0.16813414363E+02  0.18033287517E+02  0.34815273497E+03  0.34902466565E+03  0.25500000000E-02 0.  1.
<mgrwt>
<rscale>  0 0.49317842E+02</rscale>
<asrwt>0</asrwt>
<pdfrwt beam="2">  1        3 0.13643821E-03 0.49317842E+02</pdfrwt>
<pdfrwt beam="1">  1       -3 0.10548371E+00 0.49317842E+02</pdfrwt>
<totfact> 0.68297852E+04</totfact>
</mgrwt>
</event>
<event>
 4    1  0.7692565E-003  0.1110712E+03  0.7818608E-02  0.1258599E+00
         -3   -1    0    0  501    0 -0.00000000000E+00  0.00000000000E+00  0.44026927951E+02  0.44027043800E+02  0.10100000000E+00 0.  1.
          3   -1    0    0    0  501  0.00000000000E+00 -0.00000000000E+00 -0.70052347471E+02  0.70052420281E+02  0.10100000000E+00 0.  1.
          2    1    1    2    0  502 -0.71535405926E+01  0.31644942481E+02  0.33281635097E+02  0.46478411859E+02  0.25500000000E-02 0.  1.
         -2    1    1    2  502    0  0.71535405926E+01 -0.31644942481E+02 -0.59307054618E+02  0.67601052223E+02  0.25500000000E-02 0.  1.
<mgrwt>
<rscale>  0 0.11107116E+03</rscale>
<asrwt>0</asrwt>
<pdfrwt beam="2">  1        3 0.10777299E-01 0.11107116E+03</pdfrwt>
<pdfrwt beam="1">  1       -3 0.67733881E-02 0.11107116E+03</pdfrwt>
<totfact> 0.19553062E+04</totfact>
</mgrwt>
</event>
<event>
 4    1  0.7692565E-003  0.4355464E+02  0.7818608E-02  0.1483572E+00
         -3   -1    0    0  501    0 -0.00000000000E+00  0.00000000000E+00  0.22529644706E+03  0.22529646970E+03  0.10100000000E+00 0. -1.
          3   -1    0    0    0  501  0.00000000000E+00 -0.00000000000E+00 -0.21037775619E+01  0.21062006149E+01  0.10100000000E+00 0. -1.
          2    1    1    2    0  502 -0.72832756584E+01 -0.19207212203E+02  0.73842199439E+02  0.76646157956E+02  0.25500000000E-02 0.  1.
         -2    1    1    2  502    0  0.72832756584E+01  0.19207212203E+02  0.14935047006E+03  0.15075651236E+03  0.25500000000E-02 0.  1.
<mgrwt>
<rscale>  0 0.43554641E+02</rscale>
<asrwt>0</asrwt>
<pdfrwt beam="2">  1        3 0.32384612E-03 0.43554641E+02</pdfrwt>
<pdfrwt beam="1">  1       -3 0.34661190E-01 0.43554641E+02</pdfrwt>
<totfact> 0.18108850E+05</totfact>
</mgrwt>
</event>
<event>
 4    1  0.7692565E-003  0.5471834E+02  0.7818608E-02  0.1421436E+00
         -3   -1    0    0  501    0 -0.00000000000E+00  0.00000000000E+00  0.72360266441E+02  0.72360336929E+02  0.10100000000E+00 0.  1.
          3   -1    0    0    0  501  0.00000000000E+00 -0.00000000000E+00 -0.10344087034E+02  0.10344580106E+02  0.10100000000E+00 0.  1.
          2    1    1    2    0  502 -0.17724806263E+02 -0.13676932692E+02  0.72392605156E+01  0.23529431447E+02  0.25500000000E-02 0.  1.
         -2    1    1    2  502    0  0.17724806263E+02  0.13676932692E+02  0.54776918891E+02  0.59175485588E+02  0.25500000000E-02 0.  1.
<mgrwt>
<rscale>  0 0.54718341E+02</rscale>
<asrwt>0</asrwt>
<pdfrwt beam="2">  1        3 0.15914414E-02 0.54718341E+02</pdfrwt>
<pdfrwt beam="1">  1       -3 0.11132392E-01 0.54718341E+02</pdfrwt>
<totfact> 0.13844050E+05</totfact>
</mgrwt>
</event>
<event>
 4    1  0.7692565E-003  0.4386944E+02  0.7818608E-02  0.1481525E+00
         -3   -1    0    0  501    0 -0.00000000000E+00  0.00000000000E+00  0.92197591363E+03  0.92197591916E+03  0.10100000000E+00 0. -1.
          3   -1    0    0    0  501  0.00000000000E+00 -0.00000000000E+00 -0.51695626244E+00  0.52673026995E+00  0.10100000000E+00 0. -1.
          2    1    1    2    0  502  0.11006603494E+02 -0.17182278525E+02  0.29151188795E+03  0.29222518173E+03  0.25500000000E-02 0. -1.
         -2    1    1    2  502    0 -0.11006603494E+02  0.17182278525E+02  0.62994706942E+03  0.63027746770E+03  0.25500000000E-02 0. -1.
<mgrwt>
<rscale>  0 0.43869444E+02</rscale>
<asrwt>0</asrwt>
<pdfrwt beam="2">  1        3 0.80284210E-04 0.43869444E+02</pdfrwt>
<pdfrwt beam="1">  1       -3 0.14184284E+00 0.43869444E+02</pdfrwt>
<totfact> 0.69726268E+04</totfact>
</mgrwt>
</event>
<event>
 4    1  0.7692565E-003  0.4828054E+02  0.7818608E-02  0.1454843E+00
         -3   -1    0    0  501    0 -0.00000000000E+00  0.00000000000E+00  0.68666112161E+02  0.68666186441E+02  0.10100000000E+00 0.  1.
          3   -1    0    0    0  501  0.00000000000E+00 -0.00000000000E+00 -0.84863771308E+01  0.84869781316E+01  0.10100000000E+00 0.  1.
          2    1    1    2    0  502 -0.26868568155E+01  0.21987486449E+02  0.45424496832E+02  0.50537646154E+02  0.25500000000E-02 0.  1.
         -2    1    1    2  502    0  0.26868568155E+01 -0.21987486449E+02  0.14755238199E+02  0.26615518418E+02  0.25500000000E-02 0.  1.
<mgrwt>
<rscale>  0 0.48280537E+02</rscale>
<asrwt>0</asrwt>
<pdfrwt beam="2">  1        3 0.13056485E-02 0.48280537E+02</pdfrwt>
<pdfrwt beam="1">  1       -3 0.10564069E-01 0.48280537E+02</pdfrwt>
<totfact> 0.19248258E+05</totfact>
</mgrwt>
</event>
<event>
 4    1  0.7692565E-003  0.6249075E+02  0.7818608E-02  0.1387667E+00
          3   -1    0    0    0  501  0.00000000000E+00  0.00000000000E+00  0.94878617954E+01  0.94883993618E+01  0.10100000000E+00 0. -1.
         -3   -1    0    0  501    0 -0.00000000000E+00 -0.00000000000E+00 -0.10289363595E+03  0.10289368552E+03  0.10100000000E+00 0. -1.
          2    1    1    2    0  502 -0.21287977736E+02 -0.14294660752E+02 -0.78810797522E+02  0.82877362016E+02  0.25500000000E-02 0. -1.
         -2    1    1    2  502    0  0.21287977736E+02  0.14294660752E+02 -0.14594976635E+02  0.29504722869E+02  0.25500000000E-02 0. -1.
<mgrwt>
<rscale>  0 0.62490754E+02</rscale>
<asrwt>0</asrwt>
<pdfrwt beam="1">  1        3 0.14597163E-02 0.62490754E+02</pdfrwt>
<pdfrwt beam="2">  1       -3 0.15829835E-01 0.62490754E+02</pdfrwt>
<totfact> 0.92004194E+04</totfact>
</mgrwt>
</event>
<event>
 4    1  0.7692565E-003  0.4978191E+02  0.7818608E-02  0.1446521E+00
         -3   -1    0    0  501    0 -0.00000000000E+00  0.00000000000E+00  0.67392015499E+01  0.67399583478E+01  0.10100000000E+00 0.  1.
          3   -1    0    0    0  501  0.00000000000E+00 -0.00000000000E+00 -0.91927734750E+02  0.91927790234E+02  0.10100000000E+00 0.  1.
          2    1    1    2    0  502 -0.23988258428E+02  0.62818171549E+01 -0.46873656692E+02  0.53028647610E+02  0.25500000000E-02 0.  1.
         -2    1    1    2  502    0  0.23988258428E+02 -0.62818171549E+01 -0.38314876508E+02  0.45639100971E+02  0.25500000000E-02 0.  1.
<mgrwt>
<rscale>  0 0.49781909E+02</rscale>
<asrwt>0</asrwt>
<pdfrwt beam="2">  1        3 0.14142790E-01 0.49781909E+02</pdfrwt>
<pdfrwt beam="1">  1       -3 0.10368628E-02 0.49781909E+02</pdfrwt>
<totfact> 0.16931348E+05</totfact>
</mgrwt>
</event>
<event>
 4    1  0.7692565E-003  0.7268581E+02  0.7818608E-02  0.1351191E+00
          3   -1    0    0    0  501  0.00000000000E+00  0.00000000000E+00  0.35052846085E+02  0.35052991594E+02  0.10100000000E+00 0.  1.
         -3   -1    0    0  501    0 -0.00000000000E+00 -0.00000000000E+00 -0.37680147168E+02  0.37680282531E+02  0.10100000000E+00 0.  1.
          2    1    1    2    0  502  0.31569922006E+02 -0.10596413734E+02  0.13251357288E+02  0.35840513891E+02  0.25500000000E-02 0.  1.
         -2    1    1    2  502    0 -0.31569922006E+02  0.10596413734E+02 -0.15878658371E+02  0.36892760234E+02  0.25500000000E-02 0.  1.
<mgrwt>
<rscale>  0 0.72685806E+02</rscale>
<asrwt>0</asrwt>
<pdfrwt beam="1">  1        3 0.53927672E-02 0.72685806E+02</pdfrwt>
<pdfrwt beam="2">  1       -3 0.57969673E-02 0.72685806E+02</pdfrwt>
<totfact> 0.67759702E+04</totfact>
</mgrwt>
</event>
<event>
 4    1  0.7692565E-003  0.5805136E+02  0.7818608E-02  0.1406196E+00
         -3   -1    0    0  501    0 -0.00000000000E+00  0.00000000000E+00  0.19440208210E+02  0.19440470577E+02  0.10100000000E+00 0.  1.
          3   -1    0    0    0  501  0.00000000000E+00 -0.00000000000E+00 -0.43336889705E+02  0.43337007399E+02  0.10100000000E+00 0.  1.
          2    1    1    2    0  502 -0.19572320409E+02 -0.18768715213E+02 -0.75429910339E+00  0.27127649558E+02  0.25500000000E-02 0.  1.
         -2    1    1    2  502    0  0.19572320409E+02  0.18768715213E+02 -0.23142382392E+02  0.35649828417E+02  0.25500000000E-02 0.  1.
<mgrwt>
<rscale>  0 0.58051360E+02</rscale>
<asrwt>0</asrwt>
<pdfrwt beam="2">  1        3 0.66672430E-02 0.58051360E+02</pdfrwt>
<pdfrwt beam="1">  1       -3 0.29908305E-02 0.58051360E+02</pdfrwt>
<totfact> 0.12493403E+05</totfact>
</mgrwt>
</event>
<event>
 4    1  0.7692565E-003  0.5128851E+02  0.7818608E-02  0.1438513E+00
         -3   -1    0    0  501    0 -0.00000000000E+00  0.00000000000E+00  0.67063578342E+02  0.67063654396E+02  0.10100000000E+00 0. -1.
          3   -1    0    0    0  501  0.00000000000E+00 -0.00000000000E+00 -0.98056931579E+01  0.98062133011E+01  0.10100000000E+00 0. -1.
          2    1    1    2    0  502 -0.12906263299E+02 -0.18908117610E+02  0.11309237073E+02  0.25534043816E+02  0.25500000000E-02 0. -1.
         -2    1    1    2  502    0  0.12906263299E+02  0.18908117610E+02  0.45948648110E+02  0.51335823882E+02  0.25500000000E-02 0. -1.
<mgrwt>
<rscale>  0 0.51288509E+02</rscale>
<asrwt>0</asrwt>
<pdfrwt beam="2">  1        3 0.15086140E-02 0.51288509E+02</pdfrwt>
<pdfrwt beam="1">  1       -3 0.10317520E-01 0.51288509E+02</pdfrwt>
<totfact> 0.16549183E+05</totfact>
</mgrwt>
</event>
<event>
 4    1  0.7692565E-003  0.4485018E+02  0.7818608E-02  0.1475279E+00
          3   -1    0    0    0  501  0.00000000000E+00  0.00000000000E+00  0.87676325447E+03  0.87676326029E+03  0.10100000000E+00 0. -1.
         -3   -1    0    0  501    0 -0.00000000000E+00 -0.00000000000E+00 -0.56911734166E+00  0.57800999003E+00  0.10100000000E+00 0. -1.
          2    1    1    2    0  502  0.17111197439E+02 -0.10925677431E+02  0.25177743719E+03  0.25259461869E+03  0.25500000000E-02 0.  1.
         -2    1    1    2  502    0 -0.17111197439E+02  0.10925677431E+02  0.62441669994E+03  0.62474665159E+03  0.25500000000E-02 0.  1.
<mgrwt>
<rscale>  0 0.44850179E+02</rscale>
<asrwt>0</asrwt>
<pdfrwt beam="1">  1        3 0.13488782E+00 0.44850179E+02</pdfrwt>
<pdfrwt beam="2">  1       -3 0.88240696E-04 0.44850179E+02</pdfrwt>
<totfact> 0.69579737E+04</totfact>
</mgrwt>
</event>
<event>
 4    1  0.7692565E-003  0.4749643E+02  0.7818608E-02  0.1459333E+00
          3   -1    0    0    0  501  0.00000000000E+00  0.00000000000E+00  0.41166938047E+01  0.41179325980E+01  0.10100000000E+00 0. -1.
         -3   -1    0    0  501    0 -0.00000000000E+00 -0.00000000000E+00 -0.13697587302E+03  0.13697591025E+03  0.10100000000E+00 0. -1.
          2    1    1    2    0  502 -0.23455354257E+02 -0.18557420284E+01 -0.76000482019E+02  0.79559227595E+02  0.25500000000E-02 0. -1.
         -2    1    1    2  502    0  0.23455354257E+02  0.18557420284E+01 -0.56858697192E+02  0.61534615256E+02  0.25500000000E-02 0. -1.
<mgrwt>
<rscale>  0 0.47496431E+02</rscale>
<asrwt>0</asrwt>
<pdfrwt beam="1">  1        3 0.63343577E-03 0.47496431E+02</pdfrwt>
<pdfrwt beam="2">  1       -3 0.21073306E-01 0.47496431E+02</pdfrwt>
<totfact> 0.17333314E+05</totfact>
</mgrwt>
</event>
<event>
 4    1  0.7692565E-003  0.4409571E+02  0.7818608E-02  0.1480067E+00
         -3   -1    0    0  501    0 -0.00000000000E+00  0.00000000000E+00  0.21261378821E+02  0.21261618714E+02  0.10100000000E+00 0.  1.
          3   -1    0    0    0  501  0.00000000000E+00 -0.00000000000E+00 -0.22862939014E+02  0.22863162103E+02  0.10100000000E+00 0.  1.
          2    1    1    2    0  502 -0.27619738411E+01 -0.21829152257E+02  0.60279493486E+00  0.22011446022E+02  0.25500000000E-02 0.  1.
         -2    1    1    2  502    0  0.27619738411E+01  0.21829152257E+02 -0.22043551279E+01  0.22113334795E+02  0.25500000000E-02 0.  1.
<mgrwt>
<rscale>  0 0.44095706E+02</rscale>
<asrwt>0</asrwt>
<pdfrwt beam="2">  1        3 0.35174108E-02 0.44095706E+02</pdfrwt>
<pdfrwt beam="1">  1       -3 0.32710170E-02 0.44095706E+02</pdfrwt>
<totfact> 0.26316309E+05</totfact>
</mgrwt>
</event>
<event>
 4    1  0.7692565E-003  0.7730007E+02  0.7818608E-02  0.1336893E+00
         -3   -1    0    0  501    0 -0.00000000000E+00  0.00000000000E+00  0.42573292564E+02  0.42573412369E+02  0.10100000000E+00 0. -1.
          3   -1    0    0    0  501  0.00000000000E+00 -0.00000000000E+00 -0.35088079546E+02  0.35088224909E+02  0.10100000000E+00 0. -1.
          2    1    1    2    0  502 -0.11323234373E+01 -0.30713928050E+02  0.27287191426E+02  0.41100101643E+02  0.25500000000E-02 0.  1.
         -2    1    1    2  502    0  0.11323234373E+01  0.30713928050E+02 -0.19801978408E+02  0.36561535635E+02  0.25500000000E-02 0.  1.
<mgrwt>
<rscale>  0 0.77300074E+02</rscale>
<asrwt>0</asrwt>
<pdfrwt beam="2">  1        3 0.53981865E-02 0.77300074E+02</pdfrwt>
<pdfrwt beam="1">  1       -3 0.65497577E-02 0.77300074E+02</pdfrwt>
<totfact> 0.56865030E+04</totfact>
</mgrwt>
</event>
<event>
 4    1  0.7692565E-003  0.4144416E+02  0.7818608E-02  0.1497845E+00
          3   -1    0    0    0  501  0.00000000000E+00  0.00000000000E+00  0.47578017262E+01  0.47588736341E+01  0.10100000000E+00 0. -1.
         -3   -1    0    0  501    0 -0.00000000000E+00 -0.00000000000E+00 -0.90241458933E+02  0.90241515453E+02  0.10100000000E+00 0. -1.
          2    1    1    2    0  502  0.19886756952E+02 -0.57738067175E+01 -0.44494488671E+02  0.49077280636E+02  0.25500000000E-02 0. -1.
         -2    1    1    2  502    0 -0.19886756952E+02  0.57738067175E+01 -0.40989168536E+02  0.45923108451E+02  0.25500000000E-02 0. -1.
<mgrwt>
<rscale>  0 0.41444159E+02</rscale>
<asrwt>0</asrwt>
<pdfrwt beam="1">  1        3 0.73205637E-03 0.41444159E+02</pdfrwt>
<pdfrwt beam="2">  1       -3 0.13883387E-01 0.41444159E+02</pdfrwt>
<totfact> 0.26887824E+05</totfact>
</mgrwt>
</event>
<event>
 4    1  0.7692565E-003  0.6536551E+02  0.7818608E-02  0.1376602E+00
          3   -1    0    0    0  501  0.00000000000E+00  0.00000000000E+00  0.35565998296E+01  0.35580336350E+01  0.10100000000E+00 0.  1.
         -3   -1    0    0  501    0 -0.00000000000E+00 -0.00000000000E+00 -0.30027054391E+03  0.30027056089E+03  0.10100000000E+00 0.  1.
          2    1    1    2    0  502 -0.31527040708E+02 -0.41702549594E+01 -0.11332052901E+03  0.11769829066E+03  0.25500000000E-02 0. -1.
         -2    1    1    2  502    0  0.31527040708E+02  0.41702549594E+01 -0.18339341507E+03  0.18613030387E+03  0.25500000000E-02 0. -1.
<mgrwt>
<rscale>  0 0.65365513E+02</rscale>
<asrwt>0</asrwt>
<pdfrwt beam="1">  1        3 0.54728104E-03 0.65365513E+02</pdfrwt>
<pdfrwt beam="2">  1       -3 0.46195560E-01 0.65365513E+02</pdfrwt>
<totfact> 0.57267194E+04</totfact>
</mgrwt>
</event>
<event>
 4    1  0.7692565E-003  0.5654515E+02  0.7818608E-02  0.1412930E+00
         -3   -1    0    0  501    0 -0.00000000000E+00  0.00000000000E+00  0.82783043873E+02  0.82783105486E+02  0.10100000000E+00 0. -1.
          3   -1    0    0    0  501  0.00000000000E+00 -0.00000000000E+00 -0.96554943926E+01  0.96560226266E+01  0.10100000000E+00 0. -1.
          2    1    1    2    0  502 -0.12416300342E+01 -0.27804812419E+02  0.44686734169E+02  0.52645545453E+02  0.25500000000E-02 0. -1.
         -2    1    1    2  502    0  0.12416300342E+01  0.27804812419E+02  0.28440815311E+02  0.39793582660E+02  0.25500000000E-02 0. -1.
<mgrwt>
<rscale>  0 0.56545149E+02</rscale>
<asrwt>0</asrwt>
<pdfrwt beam="2">  1        3 0.14855061E-02 0.56545149E+02</pdfrwt>
<pdfrwt beam="1">  1       -3 0.12735898E-01 0.56545149E+02</pdfrwt>
<totfact> 0.12442121E+05</totfact>
</mgrwt>
</event>
<event>
 4    1  0.7692565E-003  0.5022557E+02  0.7818608E-02  0.1444129E+00
         -3   -1    0    0  501    0 -0.00000000000E+00  0.00000000000E+00  0.89461037709E+01  0.89466738892E+01  0.10100000000E+00 0. -1.
          3   -1    0    0    0  501  0.00000000000E+00 -0.00000000000E+00 -0.70491746494E+02  0.70491818850E+02  0.10100000000E+00 0. -1.
          2    1    1    2    0  502 -0.73558873407E+01 -0.21449100030E+02 -0.47842681652E+02  0.52944264702E+02  0.25500000000E-02 0.  1.
         -2    1    1    2  502    0  0.73558873407E+01  0.21449100030E+02 -0.13702961071E+02  0.26494228037E+02  0.25500000000E-02 0.  1.
<mgrwt>
<rscale>  0 0.50225571E+02</rscale>
<asrwt>0</asrwt>
<pdfrwt beam="2">  1        3 0.10844933E-01 0.50225571E+02</pdfrwt>
<pdfrwt beam="1">  1       -3 0.13763731E-02 0.50225571E+02</pdfrwt>
<totfact> 0.17333853E+05</totfact>
</mgrwt>
</event>
<event>
 4    1  0.7692565E-003  0.5437051E+02  0.7818608E-02  0.1423099E+00
          3   -1    0    0    0  501  0.00000000000E+00  0.00000000000E+00  0.11837963325E+02  0.11838394177E+02  0.10100000000E+00 0.  1.
         -3   -1    0    0  501    0 -0.00000000000E+00 -0.00000000000E+00 -0.62427894178E+02  0.62427975880E+02  0.10100000000E+00 0.  1.
          2    1    1    2    0  502 -0.62021792922E+01 -0.24675826489E+02 -0.12216597926E+02  0.28224257515E+02  0.25500000000E-02 0.  1.
         -2    1    1    2  502    0  0.62021792922E+01  0.24675826489E+02 -0.38373332927E+02  0.46042112542E+02  0.25500000000E-02 0.  1.
<mgrwt>
<rscale>  0 0.54370512E+02</rscale>
<asrwt>0</asrwt>
<pdfrwt beam="1">  1        3 0.18212646E-02 0.54370512E+02</pdfrwt>
<pdfrwt beam="2">  1       -3 0.96043307E-02 0.54370512E+02</pdfrwt>
<totfact> 0.14361796E+05</totfact>
</mgrwt>
</event>
<event>
 4    1  0.7692565E-003  0.5322754E+02  0.7818608E-02  0.1428672E+00
          3   -1    0    0    0  501  0.00000000000E+00  0.00000000000E+00  0.97676609529E+02  0.97676661747E+02  0.10100000000E+00 0. -1.
         -3   -1    0    0  501    0 -0.00000000000E+00 -0.00000000000E+00 -0.72510010122E+01  0.72517043982E+01  0.10100000000E+00 0. -1.
          2    1    1    2    0  502 -0.66189323920E+01 -0.21017473152E+02  0.74634233985E+02  0.77819106476E+02  0.25500000000E-02 0. -1.
         -2    1    1    2  502    0  0.66189323920E+01  0.21017473152E+02  0.15791374531E+02  0.27109259669E+02  0.25500000000E-02 0. -1.
<mgrwt>
<rscale>  0 0.53227543E+02</rscale>
<asrwt>0</asrwt>
<pdfrwt beam="1">  1        3 0.15027227E-01 0.53227543E+02</pdfrwt>
<pdfrwt beam="2">  1       -3 0.11155969E-02 0.53227543E+02</pdfrwt>
<totfact> 0.14100370E+05</totfact>
</mgrwt>
</event>
<event>
 4    1  0.7692565E-003  0.4168139E+02  0.7818608E-02  0.1496191E+00
          3   -1    0    0    0  501  0.00000000000E+00  0.00000000000E+00  0.15128576240E+02  0.15128913380E+02  0.10100000000E+00 0. -1.
         -3   -1    0    0  501    0 -0.00000000000E+00 -0.00000000000E+00 -0.28708800695E+02  0.28708978358E+02  0.10100000000E+00 0. -1.
          2    1    1    2    0  502 -0.65113337938E+00  0.20825372360E+02 -0.63030670055E+01  0.21768067641E+02  0.25500000000E-02 0. -1.
         -2    1    1    2  502    0  0.65113337938E+00 -0.20825372360E+02 -0.72771574491E+01  0.22069824097E+02  0.25500000000E-02 0. -1.
<mgrwt>
<rscale>  0 0.41681390E+02</rscale>
<asrwt>0</asrwt>
<pdfrwt beam="1">  1        3 0.23275129E-02 0.41681390E+02</pdfrwt>
<pdfrwt beam="2">  1       -3 0.44167782E-02 0.41681390E+02</pdfrwt>
<totfact> 0.30269488E+05</totfact>
</mgrwt>
</event>
<event>
 4    1  0.7692565E-003  0.4661377E+02  0.7818608E-02  0.1464512E+00
         -3   -1    0    0  501    0 -0.00000000000E+00  0.00000000000E+00  0.18559267217E+02  0.18559542037E+02  0.10100000000E+00 0. -1.
          3   -1    0    0    0  501  0.00000000000E+00 -0.00000000000E+00 -0.29268409089E+02  0.29268583355E+02  0.10100000000E+00 0. -1.
          2    1    1    2    0  502 -0.23261126112E+02 -0.76597719610E+00 -0.40795192719E+01  0.23628567309E+02  0.25500000000E-02 0.  1.
         -2    1    1    2  502    0  0.23261126112E+02  0.76597719610E+00 -0.66296226005E+01  0.24199558083E+02  0.25500000000E-02 0.  1.
<mgrwt>
<rscale>  0 0.46613773E+02</rscale>
<asrwt>0</asrwt>
<pdfrwt beam="2">  1        3 0.45028667E-02 0.46613773E+02</pdfrwt>
<pdfrwt beam="1">  1       -3 0.28553064E-02 0.46613773E+02</pdfrwt>
<totfact> 0.22679030E+05</totfact>
</mgrwt>
</event>
<event>
 4    1  0.7692565E-003  0.1581969E+03  0.7818608E-02  0.1190748E+00
          3   -1    0    0    0  501  0.00000000000E+00  0.00000000000E+00  0.11244343350E+03  0.11244347886E+03  0.10100000000E+00 0. -1.
         -3   -1    0    0  501    0 -0.00000000000E+00 -0.00000000000E+00 -0.55641788387E+02  0.55641880054E+02  0.10100000000E+00 0. -1.
          2    1    1    2    0  502 -0.43990102985E+02 -0.65636337395E+02  0.32276760280E+02  0.85352488001E+02  0.25500000000E-02 0. -1.
         -2    1    1    2  502    0  0.43990102985E+02  0.65636337395E+02  0.24524884834E+02  0.82732870915E+02  0.25500000000E-02 0. -1.
<mgrwt>
<rscale>  0 0.15819691E+03</rscale>
<asrwt>0</asrwt>
<pdfrwt beam="1">  1        3 0.17299000E-01 0.15819691E+03</pdfrwt>
<pdfrwt beam="2">  1       -3 0.85602858E-02 0.15819691E+03</pdfrwt>
<totfact> 0.64702069E+03</totfact>
</mgrwt>
</event>
<event>
 4    1  0.7692565E-003  0.5463633E+02  0.7818608E-02  0.1421827E+00
         -3   -1    0    0  501    0 -0.00000000000E+00  0.00000000000E+00  0.12221790176E+03  0.12221794349E+03  0.10100000000E+00 0.  1.
          3   -1    0    0    0  501  0.00000000000E+00 -0.00000000000E+00 -0.61056997725E+01  0.61065350823E+01  0.10100000000E+00 0.  1.
          2    1    1    2    0  502  0.22844770729E+02 -0.14816257911E+02  0.63242976902E+02  0.68855494930E+02  0.25500000000E-02 0. -1.
         -2    1    1    2  502    0 -0.22844770729E+02  0.14816257911E+02  0.52869225087E+02  0.59468983647E+02  0.25500000000E-02 0. -1.
<mgrwt>
<rscale>  0 0.54636328E+02</rscale>
<asrwt>0</asrwt>
<pdfrwt beam="2">  1        3 0.93940591E-03 0.54636328E+02</pdfrwt>
<pdfrwt beam="1">  1       -3 0.18802821E-01 0.54636328E+02</pdfrwt>
<totfact> 0.12534601E+05</totfact>
</mgrwt>
</event>
<event>
 4    1  0.7692565E-003  0.6678550E+02  0.7818608E-02  0.1371378E+00
          3   -1    0    0    0  501  0.00000000000E+00  0.00000000000E+00  0.10783047622E+03  0.10783052353E+03  0.10100000000E+00 0. -1.
         -3   -1    0    0  501    0 -0.00000000000E+00 -0.00000000000E+00 -0.10340710538E+02  0.10341203771E+02  0.10100000000E+00 0. -1.
          2    1    1    2    0  502  0.98519167443E+01  0.22822739420E+02  0.88196961064E+02  0.91633190743E+02  0.25500000000E-02 0.  1.
         -2    1    1    2  502    0 -0.98519167443E+01 -0.22822739420E+02  0.92928046214E+01  0.26538536554E+02  0.25500000000E-02 0.  1.
<mgrwt>
<rscale>  0 0.66785498E+02</rscale>
<asrwt>0</asrwt>
<pdfrwt beam="1">  1        3 0.16589347E-01 0.66785498E+02</pdfrwt>
<pdfrwt beam="2">  1       -3 0.15909200E-02 0.66785498E+02</pdfrwt>
<totfact> 0.76426861E+04</totfact>
</mgrwt>
</event>
<event>
 4    1  0.7692565E-003  0.7303059E+02  0.7818608E-02  0.1350080E+00
         -3   -1    0    0  501    0 -0.00000000000E+00  0.00000000000E+00  0.86395549750E+01  0.86401453209E+01  0.10100000000E+00 0. -1.
          3   -1    0    0    0  501  0.00000000000E+00 -0.00000000000E+00 -0.15432694565E+03  0.15432697870E+03  0.10100000000E+00 0. -1.
          2    1    1    2    0  502  0.23654176476E+02  0.26613018313E+02 -0.54770805699E+02  0.65326977367E+02  0.25500000000E-02 0.  1.
         -2    1    1    2  502    0 -0.23654176476E+02 -0.26613018313E+02 -0.90916584980E+02  0.97640146658E+02  0.25500000000E-02 0.  1.
<mgrwt>
<rscale>  0 0.73030594E+02</rscale>
<asrwt>0</asrwt>
<pdfrwt beam="2">  1        3 0.23742653E-01 0.73030594E+02</pdfrwt>
<pdfrwt beam="1">  1       -3 0.13292104E-02 0.73030594E+02</pdfrwt>
<totfact> 0.55180023E+04</totfact>
</mgrwt>
</event>
<event>
 4    1  0.7692565E-003  0.5058026E+02  0.7818608E-02  0.1442237E+00
         -3   -1    0    0  501    0 -0.00000000000E+00  0.00000000000E+00  0.38360665879E+01  0.38373959748E+01  0.10100000000E+00 0. -1.
          3   -1    0    0    0  501  0.00000000000E+00 -0.00000000000E+00 -0.16670063484E+03  0.16670066543E+03  0.10100000000E+00 0. -1.
          2    1    1    2    0  502 -0.19886764424E+02  0.12723157625E+02 -0.11200623632E+03  0.11446728407E+03  0.25500000000E-02 0. -1.
         -2    1    1    2  502    0  0.19886764424E+02 -0.12723157625E+02 -0.50858331924E+02  0.56070777343E+02  0.25500000000E-02 0. -1.
<mgrwt>
<rscale>  0 0.50580261E+02</rscale>
<asrwt>0</asrwt>
<pdfrwt beam="2">  1        3 0.25646351E-01 0.50580261E+02</pdfrwt>
<pdfrwt beam="1">  1       -3 0.59026883E-03 0.50580261E+02</pdfrwt>
<totfact> 0.13950011E+05</totfact>
</mgrwt>
</event>
<event>
 4    1  0.7692565E-003  0.4666365E+02  0.7818608E-02  0.1464215E+00
         -3   -1    0    0  501    0 -0.00000000000E+00  0.00000000000E+00  0.93192924935E+02  0.93192979665E+02  0.10100000000E+00 0.  1.
          3   -1    0    0    0  501  0.00000000000E+00 -0.00000000000E+00 -0.58408727604E+01  0.58417459379E+01  0.10100000000E+00 0.  1.
          2    1    1    2    0  502 -0.12003149711E+02 -0.19267969478E+02  0.55113624809E+02  0.59605720337E+02  0.25500000000E-02 0.  1.
         -2    1    1    2  502    0  0.12003149711E+02  0.19267969478E+02  0.32238427365E+02  0.39429005266E+02  0.25500000000E-02 0.  1.
<mgrwt>
<rscale>  0 0.46663646E+02</rscale>
<asrwt>0</asrwt>
<pdfrwt beam="2">  1        3 0.89866722E-03 0.46663646E+02</pdfrwt>
<pdfrwt beam="1">  1       -3 0.14337444E-01 0.46663646E+02</pdfrwt>
<totfact> 0.19882903E+05</totfact>
</mgrwt>
</event>
<event>
 4    1  0.7692565E-003  0.5206475E+02  0.7818608E-02  0.1434513E+00
          3   -1    0    0    0  501  0.00000000000E+00  0.00000000000E+00  0.80200897531E+02  0.80200961127E+02  0.10100000000E+00 0.  1.
         -3   -1    0    0  501    0 -0.00000000000E+00 -0.00000000000E+00 -0.84494682518E+01  0.84500718777E+01  0.10100000000E+00 0.  1.
          2    1    1    2    0  502 -0.25279604380E+02  0.25883937352E+00  0.46448843556E+02  0.52883083019E+02  0.25500000000E-02 0. -1.
         -2    1    1    2  502    0  0.25279604380E+02 -0.25883937352E+00  0.25302585723E+02  0.35767949986E+02  0.25500000000E-02 0. -1.
<mgrwt>
<rscale>  0 0.52064749E+02</rscale>
<asrwt>0</asrwt>
<pdfrwt beam="1">  1        3 0.12338651E-01 0.52064749E+02</pdfrwt>
<pdfrwt beam="2">  1       -3 0.12999695E-02 0.52064749E+02</pdfrwt>
<totfact> 0.15485528E+05</totfact>
</mgrwt>
</event>
<event>
 4    1  0.7692565E-003  0.5380263E+02  0.7818608E-02  0.1425848E+00
          3   -1    0    0    0  501  0.00000000000E+00  0.00000000000E+00  0.75139827727E+02  0.75139895607E+02  0.10100000000E+00 0. -1.
         -3   -1    0    0  501    0 -0.00000000000E+00 -0.00000000000E+00 -0.96307849621E+01  0.96313145514E+01  0.10100000000E+00 0. -1.
          2    1    1    2    0  502 -0.50622519494E+01 -0.21568624260E+02  0.56797149388E+02  0.60965138665E+02  0.25500000000E-02 0. -1.
         -2    1    1    2  502    0  0.50622519494E+01  0.21568624260E+02  0.87118933764E+01  0.23806071494E+02  0.25500000000E-02 0. -1.
<mgrwt>
<rscale>  0 0.53802634E+02</rscale>
<asrwt>0</asrwt>
<pdfrwt beam="1">  1        3 0.11560019E-01 0.53802634E+02</pdfrwt>
<pdfrwt beam="2">  1       -3 0.14817052E-02 0.53802634E+02</pdfrwt>
<totfact> 0.14379409E+05</totfact>
</mgrwt>
</event>
<event>
 4    1  0.7692565E-003  0.8962529E+02  0.7818608E-02  0.1303762E+00
          3   -1    0    0    0  501  0.00000000000E+00  0.00000000000E+00  0.22127063556E+02  0.22127294065E+02  0.10100000000E+00 0.  1.
         -3   -1    0    0  501    0 -0.00000000000E+00 -0.00000000000E+00 -0.90755686118E+02  0.90755742318E+02  0.10100000000E+00 0.  1.
          2    1    1    2    0  502  0.38040878774E+02 -0.13705775788E+02 -0.58646344644E+02  0.71234475462E+02  0.25500000000E-02 0. -1.
         -2    1    1    2  502    0 -0.38040878774E+02  0.13705775788E+02 -0.99822779177E+01  0.41648560920E+02  0.25500000000E-02 0. -1.
<mgrwt>
<rscale>  0 0.89625287E+02</rscale>
<asrwt>0</asrwt>
<pdfrwt beam="1">  1        3 0.34041857E-02 0.89625287E+02</pdfrwt>
<pdfrwt beam="2">  1       -3 0.13962435E-01 0.89625287E+02</pdfrwt>
<totfact> 0.35349225E+04</totfact>
</mgrwt>
</event>
<event>
 4    1  0.7692565E-003  0.4777756E+02  0.7818608E-02  0.1457711E+00
         -3   -1    0    0  501    0 -0.00000000000E+00  0.00000000000E+00  0.20839269178E+02  0.20839513931E+02  0.10100000000E+00 0.  1.
          3   -1    0    0    0  501  0.00000000000E+00 -0.00000000000E+00 -0.27384043910E+02  0.27384230168E+02  0.10100000000E+00 0.  1.
          2    1    1    2    0  502  0.49430353872E+01  0.23347756811E+02 -0.22030115654E+01  0.23966739732E+02  0.25500000000E-02 0.  1.
         -2    1    1    2  502    0 -0.49430353872E+01 -0.23347756811E+02 -0.43417631671E+01  0.24257004366E+02  0.25500000000E-02 0.  1.
<mgrwt>
<rscale>  0 0.47777562E+02</rscale>
<asrwt>0</asrwt>
<pdfrwt beam="2">  1        3 0.42129630E-02 0.47777562E+02</pdfrwt>
<pdfrwt beam="1">  1       -3 0.32060746E-02 0.47777562E+02</pdfrwt>
<totfact> 0.21297323E+05</totfact>
</mgrwt>
</event>
<event>
 4    1  0.7692565E-003  0.7879388E+02  0.7818608E-02  0.1332509E+00
          3   -1    0    0    0  501  0.00000000000E+00  0.00000000000E+00  0.17514199183E+03  0.17514202095E+03  0.10100000000E+00 0. -1.
         -3   -1    0    0  501    0 -0.00000000000E+00 -0.00000000000E+00 -0.88617417035E+01  0.88623172489E+01  0.10100000000E+00 0. -1.
          2    1    1    2    0  502  0.22648811379E+02  0.27418029673E+02  0.12272964823E+03  0.12777825937E+03  0.25500000000E-02 0.  1.
         -2    1    1    2  502    0 -0.22648811379E+02 -0.27418029673E+02  0.43550601899E+02  0.56226078827E+02  0.25500000000E-02 0.  1.
<mgrwt>
<rscale>  0 0.78793876E+02</rscale>
<asrwt>0</asrwt>
<pdfrwt beam="1">  1        3 0.26944964E-01 0.78793876E+02</pdfrwt>
<pdfrwt beam="2">  1       -3 0.13633916E-02 0.78793876E+02</pdfrwt>
<totfact> 0.43366166E+04</totfact>
</mgrwt>
</event>
<event>
 4    1  0.7692565E-003  0.7205740E+02  0.7818608E-02  0.1353233E+00
          3   -1    0    0    0  501  0.00000000000E+00  0.00000000000E+00  0.22214427968E+02  0.22214657570E+02  0.10100000000E+00 0. -1.
         -3   -1    0    0  501    0 -0.00000000000E+00 -0.00000000000E+00 -0.58432941048E+02  0.58433028336E+02  0.10100000000E+00 0. -1.
          2    1    1    2    0  502  0.25831017606E+02 -0.23816204798E+02 -0.27035934348E+02  0.44332773815E+02  0.25500000000E-02 0. -1.
         -2    1    1    2  502    0 -0.25831017606E+02  0.23816204798E+02 -0.91825787316E+01  0.36314912092E+02  0.25500000000E-02 0. -1.
<mgrwt>
<rscale>  0 0.72057398E+02</rscale>
<asrwt>0</asrwt>
<pdfrwt beam="1">  1        3 0.34176287E-02 0.72057398E+02</pdfrwt>
<pdfrwt beam="2">  1       -3 0.89897075E-02 0.72057398E+02</pdfrwt>
<totfact> 0.68066318E+04</totfact>
</mgrwt>
</event>
<event>
 4    1  0.7692565E-003  0.4507725E+02  0.7818608E-02  0.1473860E+00
         -3   -1    0    0  501    0 -0.00000000000E+00  0.00000000000E+00  0.16492701071E+02  0.16493010326E+02  0.10100000000E+00 0.  1.
          3   -1    0    0    0  501  0.00000000000E+00 -0.00000000000E+00 -0.30800188032E+02  0.30800353631E+02  0.10100000000E+00 0.  1.
          2    1    1    2    0  502  0.12623022843E+02  0.18584414784E+02 -0.52570100565E+01  0.23072870212E+02  0.25500000000E-02 0.  1.
         -2    1    1    2  502    0 -0.12623022843E+02 -0.18584414784E+02 -0.90504769044E+01  0.24220493745E+02  0.25500000000E-02 0.  1.
<mgrwt>
<rscale>  0 0.45077246E+02</rscale>
<asrwt>0</asrwt>
<pdfrwt beam="2">  1        3 0.47385270E-02 0.45077246E+02</pdfrwt>
<pdfrwt beam="1">  1       -3 0.25373752E-02 0.45077246E+02</pdfrwt>
<totfact> 0.24694185E+05</totfact>
</mgrwt>
</event>
<event>
 4    1  0.7692565E-003  0.6812547E+02  0.7818608E-02  0.1366586E+00
         -3   -1    0    0  501    0 -0.00000000000E+00  0.00000000000E+00  0.17031320326E+02  0.17031619801E+02  0.10100000000E+00 0.  1.
          3   -1    0    0    0  501  0.00000000000E+00 -0.00000000000E+00 -0.68124727400E+02  0.68124802270E+02  0.10100000000E+00 0.  1.
          2    1    1    2    0  502  0.86591511313E+01  0.22812594351E+02 -0.55255421700E+02  0.60403286277E+02  0.25500000000E-02 0. -1.
         -2    1    1    2  502    0 -0.86591511313E+01 -0.22812594351E+02  0.41620146253E+01  0.24753135793E+02  0.25500000000E-02 0. -1.
<mgrwt>
<rscale>  0 0.68125472E+02</rscale>
<asrwt>0</asrwt>
<pdfrwt beam="2">  1        3 0.10480756E-01 0.68125472E+02</pdfrwt>
<pdfrwt beam="1">  1       -3 0.26202319E-02 0.68125472E+02</pdfrwt>
<totfact> 0.78084848E+04</totfact>
</mgrwt>
</event>
<event>
 4    1  0.7692565E-003  0.4634403E+02  0.7818608E-02  0.1466121E+00
          3   -1    0    0    0  501  0.00000000000E+00  0.00000000000E+00  0.44622729687E+01  0.44634158497E+01  0.10100000000E+00 0. -1.
         -3   -1    0    0  501    0 -0.00000000000E+00 -0.00000000000E+00 -0.12031276811E+03  0.12031281051E+03  0.10100000000E+00 0. -1.
          2    1    1    2    0  502 -0.22344213685E+02 -0.57224821260E+01 -0.63904334366E+02  0.67939492521E+02  0.25500000000E-02 0.  1.
         -2    1    1    2  502    0  0.22344213685E+02  0.57224821260E+01 -0.51946160778E+02  0.56836733834E+02  0.25500000000E-02 0.  1.
<mgrwt>
<rscale>  0 0.46344033E+02</rscale>
<asrwt>0</asrwt>
<pdfrwt beam="1">  1        3 0.68659480E-03 0.46344033E+02</pdfrwt>
<pdfrwt beam="2">  1       -3 0.18509745E-01 0.46344033E+02</pdfrwt>
<totfact> 0.19081652E+05</totfact>
</mgrwt>
</event>
<event>
 4    1  0.7692565E-003  0.4562844E+02  0.7818608E-02  0.1470456E+00
         -3   -1    0    0  501    0 -0.00000000000E+00  0.00000000000E+00  0.11921058321E+02  0.11921486169E+02  0.10100000000E+00 0.  1.
          3   -1    0    0    0  501  0.00000000000E+00 -0.00000000000E+00 -0.43660011857E+02  0.43660128680E+02  0.10100000000E+00 0.  1.
          2    1    1    2    0  502 -0.13780093590E+02  0.15685010016E+02 -0.46667270501E+01  0.21393664165E+02  0.25500000000E-02 0. -1.
         -2    1    1    2  502    0  0.13780093590E+02 -0.15685010016E+02 -0.27072226486E+02  0.34187950684E+02  0.25500000000E-02 0. -1.
<mgrwt>
<rscale>  0 0.45628442E+02</rscale>
<asrwt>0</asrwt>
<pdfrwt beam="2">  1        3 0.67169667E-02 0.45628442E+02</pdfrwt>
<pdfrwt beam="1">  1       -3 0.18340509E-02 0.45628442E+02</pdfrwt>
<totfact> 0.23423908E+05</totfact>
</mgrwt>
</event>
<event>
 4    1  0.7692565E-003  0.4208560E+02  0.7818608E-02  0.1493402E+00
         -3   -1    0    0  501    0 -0.00000000000E+00  0.00000000000E+00  0.13659875556E+02  0.13660248943E+02  0.10100000000E+00 0.  1.
          3   -1    0    0    0  501  0.00000000000E+00 -0.00000000000E+00 -0.32415163905E+02  0.32415321253E+02  0.10100000000E+00 0.  1.
          2    1    1    2    0  502  0.19701962285E+02  0.34874558927E+01 -0.16512359199E+02  0.25942006077E+02  0.25500000000E-02 0.  1.
         -2    1    1    2  502    0 -0.19701962285E+02 -0.34874558927E+01 -0.22429291496E+01  0.20133564120E+02  0.25500000000E-02 0.  1.
<mgrwt>
<rscale>  0 0.42085595E+02</rscale>
<asrwt>0</asrwt>
<pdfrwt beam="2">  1        3 0.49869891E-02 0.42085595E+02</pdfrwt>
<pdfrwt beam="1">  1       -3 0.21015602E-02 0.42085595E+02</pdfrwt>
<totfact> 0.29372595E+05</totfact>
</mgrwt>
</event>
<event>
 4    1  0.7692565E-003  0.4635253E+02  0.7818608E-02  0.1466070E+00
         -3   -1    0    0  501    0 -0.00000000000E+00  0.00000000000E+00  0.14660906378E+03  0.14660909857E+03  0.10100000000E+00 0.  1.
          3   -1    0    0    0  501  0.00000000000E+00 -0.00000000000E+00 -0.36630205891E+01  0.36644127547E+01  0.10100000000E+00 0.  1.
          2    1    1    2    0  502 -0.24946141828E+01 -0.22423895982E+02  0.54292104039E+02  0.58793594705E+02  0.25500000000E-02 0. -1.
         -2    1    1    2  502    0  0.24946141828E+01  0.22423895982E+02  0.88653939149E+02  0.91479916616E+02  0.25500000000E-02 0. -1.
<mgrwt>
<rscale>  0 0.46352529E+02</rscale>
<asrwt>0</asrwt>
<pdfrwt beam="2">  1        3 0.56365157E-03 0.46352529E+02</pdfrwt>
<pdfrwt beam="1">  1       -3 0.22555343E-01 0.46352529E+02</pdfrwt>
<totfact> 0.18061336E+05</totfact>
</mgrwt>
</event>
<event>
 4    1  0.7692565E-003  0.6960188E+02  0.7818608E-02  0.1361452E+00
          3   -1    0    0    0  501  0.00000000000E+00  0.00000000000E+00  0.13507635576E+03  0.13507639352E+03  0.10100000000E+00 0. -1.
         -3   -1    0    0  501    0 -0.00000000000E+00 -0.00000000000E+00 -0.89657578399E+01  0.89663267086E+01  0.10100000000E+00 0. -1.
          2    1    1    2    0  502 -0.28838659439E+02  0.14612213063E+02  0.36397739975E+02  0.48682445816E+02  0.25500000000E-02 0. -1.
         -2    1    1    2  502    0  0.28838659439E+02 -0.14612213063E+02  0.89712857942E+02  0.95360274410E+02  0.25500000000E-02 0. -1.
<mgrwt>
<rscale>  0 0.69601885E+02</rscale>
<asrwt>0</asrwt>
<pdfrwt beam="1">  1        3 0.20781024E-01 0.69601885E+02</pdfrwt>
<pdfrwt beam="2">  1       -3 0.13793940E-02 0.69601885E+02</pdfrwt>
<totfact> 0.65000936E+04</totfact>
</mgrwt>
</event>
<event>
 4    1  0.7692565E-003  0.9338942E+02  0.7818608E-02  0.1294845E+00
         -3   -1    0    0  501    0 -0.00000000000E+00  0.00000000000E+00  0.69091382131E+02  0.69091455953E+02  0.10100000000E+00 0.  1.
          3   -1    0    0    0  501  0.00000000000E+00 -0.00000000000E+00 -0.31557971596E+02  0.31558133219E+02  0.10100000000E+00 0.  1.
          2    1    1    2    0  502  0.18473186829E+02  0.33029606561E+02 -0.10712653254E+02  0.39331596553E+02  0.25500000000E-02 0.  1.
         -2    1    1    2  502    0 -0.18473186829E+02 -0.33029606561E+02  0.48246063789E+02  0.61317992619E+02  0.25500000000E-02 0.  1.
<mgrwt>
<rscale>  0 0.93389415E+02</rscale>
<asrwt>0</asrwt>
<pdfrwt beam="2">  1        3 0.48550907E-02 0.93389415E+02</pdfrwt>
<pdfrwt beam="1">  1       -3 0.10629461E-01 0.93389415E+02</pdfrwt>
<totfact> 0.32430394E+04</totfact>
</mgrwt>
</event>
<event>
 4    1  0.7692565E-003  0.4146084E+02  0.7818608E-02  0.1497728E+00
          3   -1    0    0    0  501  0.00000000000E+00  0.00000000000E+00  0.11500883747E+01  0.11545147334E+01  0.10100000000E+00 0. -1.
         -3   -1    0    0  501    0 -0.00000000000E+00 -0.00000000000E+00 -0.37294501125E+03  0.37294502492E+03  0.10100000000E+00 0. -1.
          2    1    1    2    0  502  0.15255277384E+02 -0.14029383889E+02 -0.18996398102E+03  0.19109123788E+03  0.25500000000E-02 0. -1.
         -2    1    1    2  502    0 -0.15255277384E+02  0.14029383889E+02 -0.18183094185E+03  0.18300830178E+03  0.25500000000E-02 0. -1.
<mgrwt>
<rscale>  0 0.41460836E+02</rscale>
<asrwt>0</asrwt>
<pdfrwt beam="1">  1        3 0.17727851E-03 0.41460836E+02</pdfrwt>
<pdfrwt beam="2">  1       -3 0.57376401E-01 0.41460836E+02</pdfrwt>
<totfact> 0.15954130E+05</totfact>
</mgrwt>
</event>
<event>
 4    1  0.7692565E-003  0.4398328E+02  0.7818608E-02  0.1480790E+00
          3   -1    0    0    0  501  0.00000000000E+00  0.00000000000E+00  0.19200268500E+03  0.19200271156E+03  0.10100000000E+00 0.  1.
         -3   -1    0    0  501    0 -0.00000000000E+00 -0.00000000000E+00 -0.25178437739E+01  0.25198687009E+01  0.10100000000E+00 0.  1.
          2    1    1    2    0  502  0.19697311336E+02 -0.91012009057E+01  0.11057547365E+03  0.11268429932E+03  0.25500000000E-02 0. -1.
         -2    1    1    2  502    0 -0.19697311336E+02  0.91012009057E+01  0.78909367569E+02  0.81838280947E+02  0.25500000000E-02 0. -1.
<mgrwt>
<rscale>  0 0.43983283E+02</rscale>
<asrwt>0</asrwt>
<pdfrwt beam="1">  1        3 0.29539042E-01 0.43983283E+02</pdfrwt>
<pdfrwt beam="2">  1       -3 0.38751826E-03 0.43983283E+02</pdfrwt>
<totfact> 0.18808806E+05</totfact>
</mgrwt>
</event>
<event>
 4    1  0.7692565E-003  0.5149536E+02  0.7818608E-02  0.1437439E+00
         -3   -1    0    0  501    0 -0.00000000000E+00  0.00000000000E+00  0.11484024342E+02  0.11484468472E+02  0.10100000000E+00 0. -1.
          3   -1    0    0    0  501  0.00000000000E+00 -0.00000000000E+00 -0.57725801878E+02  0.57725890235E+02  0.10100000000E+00 0. -1.
          2    1    1    2    0  502  0.21504228638E+02 -0.29786658526E+01 -0.41726526612E+02  0.47036234215E+02  0.25500000000E-02 0. -1.
         -2    1    1    2  502    0 -0.21504228638E+02  0.29786658526E+01 -0.45152509241E+01  0.22174124492E+02  0.25500000000E-02 0. -1.
<mgrwt>
<rscale>  0 0.51495357E+02</rscale>
<asrwt>0</asrwt>
<pdfrwt beam="2">  1        3 0.88809334E-02 0.51495357E+02</pdfrwt>
<pdfrwt beam="1">  1       -3 0.17668140E-02 0.51495357E+02</pdfrwt>
<totfact> 0.16695172E+05</totfact>
</mgrwt>
</event>
<event>
 4    1  0.7692565E-003  0.4779120E+02  0.7818608E-02  0.1457633E+00
         -3   -1    0    0  501    0 -0.00000000000E+00  0.00000000000E+00  0.21478453995E+01  0.21502187935E+01  0.10100000000E+00 0.  1.
          3   -1    0    0    0  501  0.00000000000E+00 -0.00000000000E+00 -0.26569851341E+03  0.26569853261E+03  0.10100000000E+00 0.  1.
          2    1    1    2    0  502 -0.11170220189E+02 -0.17043334076E+02 -0.61830335879E+02  0.65101762625E+02  0.25500000000E-02 0.  1.
         -2    1    1    2  502    0  0.11170220189E+02  0.17043334076E+02 -0.20172033213E+03  0.20274698877E+03  0.25500000000E-02 0.  1.
<mgrwt>
<rscale>  0 0.47791202E+02</rscale>
<asrwt>0</asrwt>
<pdfrwt beam="2">  1        3 0.40876852E-01 0.47791202E+02</pdfrwt>
<pdfrwt beam="1">  1       -3 0.33062201E-03 0.47791202E+02</pdfrwt>
<totfact> 0.13412745E+05</totfact>
</mgrwt>
</event>
<event>
 4    1  0.7692565E-003  0.5067654E+02  0.7818608E-02  0.1441726E+00
         -3   -1    0    0  501    0 -0.00000000000E+00  0.00000000000E+00  0.59733712065E+00  0.60581567799E+00  0.10100000000E+00 0.  1.
          3   -1    0    0    0  501  0.00000000000E+00 -0.00000000000E+00 -0.10672341073E+04  0.10672341120E+04  0.10100000000E+00 0.  1.
          2    1    1    2    0  502 -0.24035295334E+02  0.29531691283E+01 -0.37618054394E+03  0.37695917322E+03  0.25500000000E-02 0. -1.
         -2    1    1    2  502    0  0.24035295334E+02 -0.29531691283E+01 -0.69045622619E+03  0.69088075449E+03  0.25500000000E-02 0. -1.
<mgrwt>
<rscale>  0 0.50676541E+02</rscale>
<asrwt>0</asrwt>
<pdfrwt beam="2">  1        3 0.16418900E+00 0.50676541E+02</pdfrwt>
<pdfrwt beam="1">  1       -3 0.92551437E-04 0.50676541E+02</pdfrwt>
<totfact> 0.42296284E+04</totfact>
</mgrwt>
</event>
<event>
 4    1  0.7692565E-003  0.4968010E+02  0.7818608E-02  0.1447075E+00
         -3   -1    0    0  501    0 -0.00000000000E+00  0.00000000000E+00  0.13203277556E+03  0.13203281419E+03  0.10100000000E+00 0. -1.
          3   -1    0    0    0  501  0.00000000000E+00 -0.00000000000E+00 -0.46727094190E+01  0.46738008424E+01  0.10100000000E+00 0. -1.
          2    1    1    2    0  502 -0.24422812762E+02  0.30088019740E+01  0.54347884634E+02  0.59659192445E+02  0.25500000000E-02 0. -1.
         -2    1    1    2  502    0  0.24422812762E+02 -0.30088019740E+01  0.73012181508E+02  0.77047422589E+02  0.25500000000E-02 0. -1.
<mgrwt>
<rscale>  0 0.49680098E+02</rscale>
<asrwt>0</asrwt>
<pdfrwt beam="2">  1        3 0.71896531E-03 0.49680098E+02</pdfrwt>
<pdfrwt beam="1">  1       -3 0.20312821E-01 0.49680098E+02</pdfrwt>
<totfact> 0.15642788E+05</totfact>
</mgrwt>
</event>
<event>
 4    1  0.7692565E-003  0.4742639E+02  0.7818608E-02  0.1459739E+00
         -3   -1    0    0  501    0 -0.00000000000E+00  0.00000000000E+00  0.23031329233E+03  0.23031331448E+03  0.10100000000E+00 0.  1.
          3   -1    0    0    0  501  0.00000000000E+00 -0.00000000000E+00 -0.24404579159E+01  0.24425469984E+01  0.10100000000E+00 0.  1.
          2    1    1    2    0  502  0.22305870281E+02  0.74948895230E+01  0.99552189208E+02  0.10229547204E+03  0.25500000000E-02 0. -1.
         -2    1    1    2  502    0 -0.22305870281E+02 -0.74948895230E+01  0.12832064521E+03  0.13046038943E+03  0.25500000000E-02 0. -1.
<mgrwt>
<rscale>  0 0.47426389E+02</rscale>
<asrwt>0</asrwt>
<pdfrwt beam="2">  1        3 0.37561740E-03 0.47426389E+02</pdfrwt>
<pdfrwt beam="1">  1       -3 0.35432983E-01 0.47426389E+02</pdfrwt>
<totfact> 0.14544552E+05</totfact>
</mgrwt>
</event>
<event>
 4    1  0.7692565E-003  0.8465728E+02  0.7818608E-02  0.1316331E+00
          3   -1    0    0    0  501  0.00000000000E+00  0.00000000000E+00  0.26679769793E+03  0.26679771705E+03  0.10100000000E+00 0.  1.
         -3   -1    0    0  501    0 -0.00000000000E+00 -0.00000000000E+00 -0.67152274475E+01  0.67159869470E+01  0.10100000000E+00 0.  1.
          2    1    1    2    0  502  0.41185398577E+02 -0.29425302800E+01  0.99937521771E+02  0.10813141914E+03  0.25500000000E-02 0.  1.
         -2    1    1    2  502    0 -0.41185398577E+02  0.29425302800E+01  0.16014494872E+03  0.16538228486E+03  0.25500000000E-02 0.  1.
<mgrwt>
<rscale>  0 0.84657279E+02</rscale>
<asrwt>0</asrwt>
<pdfrwt beam="1">  1        3 0.41045849E-01 0.84657279E+02</pdfrwt>
<pdfrwt beam="2">  1       -3 0.10331721E-02 0.84657279E+02</pdfrwt>
<totfact> 0.30596191E+04</totfact>
</mgrwt>
</event>
<event>
 4    1  0.7692565E-003  0.4581702E+02  0.7818608E-02  0.1469305E+00
         -3   -1    0    0  501    0 -0.00000000000E+00  0.00000000000E+00  0.57454766125E+02  0.57454854900E+02  0.10100000000E+00 0. -1.
          3   -1    0    0    0  501  0.00000000000E+00 -0.00000000000E+00 -0.91337638479E+01  0.91343222534E+01  0.10100000000E+00 0. -1.
          2    1    1    2    0  502 -0.16892234410E+02  0.15129016822E+02  0.19436466484E+02  0.29866552685E+02  0.25500000000E-02 0.  1.
         -2    1    1    2  502    0  0.16892234410E+02 -0.15129016822E+02  0.28884535793E+02  0.36722624468E+02  0.25500000000E-02 0.  1.
<mgrwt>
<rscale>  0 0.45817019E+02</rscale>
<asrwt>0</asrwt>
<pdfrwt beam="2">  1        3 0.14052442E-02 0.45817019E+02</pdfrwt>
<pdfrwt beam="1">  1       -3 0.88392444E-02 0.45817019E+02</pdfrwt>
<totfact> 0.22527640E+05</totfact>
</mgrwt>
</event>
<event>
 4    1  0.7692565E-003  0.4250875E+02  0.7818608E-02  0.1490522E+00
         -3   -1    0    0  501    0 -0.00000000000E+00  0.00000000000E+00  0.16514568633E+02  0.16514877478E+02  0.10100000000E+00 0. -1.
          3   -1    0    0    0  501  0.00000000000E+00 -0.00000000000E+00 -0.27353886432E+02  0.27354072895E+02  0.10100000000E+00 0. -1.
          2    1    1    2    0  502 -0.15641950023E+02  0.14003030608E+02 -0.88413241063E+01  0.22779914074E+02  0.25500000000E-02 0.  1.
         -2    1    1    2  502    0  0.15641950023E+02 -0.14003030608E+02 -0.19979936927E+01  0.21089036299E+02  0.25500000000E-02 0.  1.
<mgrwt>
<rscale>  0 0.42508752E+02</rscale>
<asrwt>0</asrwt>
<pdfrwt beam="2">  1        3 0.42083283E-02 0.42508752E+02</pdfrwt>
<pdfrwt beam="1">  1       -3 0.25407410E-02 0.42508752E+02</pdfrwt>
<totfact> 0.28837718E+05</totfact>
</mgrwt>
</event>
<event>
 4    1  0.7692565E-003  0.4517498E+02  0.7818608E-02  0.1473252E+00
         -3   -1    0    0  501    0 -0.00000000000E+00  0.00000000000E+00  0.19145191741E+01  0.19171814385E+01  0.10100000000E+00 0. -1.
          3   -1    0    0    0  501  0.00000000000E+00 -0.00000000000E+00 -0.26629928460E+03  0.26629930375E+03  0.10100000000E+00 0. -1.
          2    1    1    2    0  502 -0.12232174225E+02 -0.16350625884E+02 -0.74865918143E+02  0.77600739423E+02  0.25500000000E-02 0. -1.
         -2    1    1    2  502    0  0.12232174225E+02  0.16350625884E+02 -0.18951884728E+03  0.19061574577E+03  0.25500000000E-02 0. -1.
<mgrwt>
<rscale>  0 0.45174979E+02</rscale>
<asrwt>0</asrwt>
<pdfrwt beam="2">  1        3 0.40969298E-01 0.45174979E+02</pdfrwt>
<pdfrwt beam="1">  1       -3 0.29474789E-03 0.45174979E+02</pdfrwt>
<totfact> 0.15397751E+05</totfact>
</mgrwt>
</event>
<event>
 4    1  0.7692565E-003  0.6066593E+02  0.7818608E-02  0.1395058E+00
         -3   -1    0    0  501    0 -0.00000000000E+00  0.00000000000E+00  0.37832164352E+03  0.37832165700E+03  0.10100000000E+00 0. -1.
          3   -1    0    0    0  501  0.00000000000E+00 -0.00000000000E+00 -0.24309654102E+01  0.24330626431E+01  0.10100000000E+00 0. -1.
          2    1    1    2    0  502  0.13784850119E+02  0.17482475058E+02  0.58643915448E+02  0.62727727940E+02  0.25500000000E-02 0.  1.
         -2    1    1    2  502    0 -0.13784850119E+02 -0.17482475058E+02  0.31724676266E+03  0.31802699170E+03  0.25500000000E-02 0.  1.
<mgrwt>
<rscale>  0 0.60665927E+02</rscale>
<asrwt>0</asrwt>
<pdfrwt beam="2">  1        3 0.37415691E-03 0.60665927E+02</pdfrwt>
<pdfrwt beam="1">  1       -3 0.58203513E-01 0.60665927E+02</pdfrwt>
<totfact> 0.61394832E+04</totfact>
</mgrwt>
</event>
<event>
 4    1  0.7692565E-003  0.7068965E+02  0.7818608E-02  0.1357763E+00
          3   -1    0    0    0  501  0.00000000000E+00  0.00000000000E+00  0.93558294325E+01  0.93563745848E+01  0.10100000000E+00 0. -1.
         -3   -1    0    0  501    0 -0.00000000000E+00 -0.00000000000E+00 -0.13352264411E+03  0.13352268231E+03  0.10100000000E+00 0. -1.
          2    1    1    2    0  502 -0.89114661173E+01  0.33912979926E+02 -0.71066414245E+02  0.79246070413E+02  0.25500000000E-02 0. -1.
         -2    1    1    2  502    0  0.89114661173E+01 -0.33912979926E+02 -0.53100400430E+02  0.63632986479E+02  0.25500000000E-02 0. -1.
<mgrwt>
<rscale>  0 0.70689653E+02</rscale>
<asrwt>0</asrwt>
<pdfrwt beam="1">  1        3 0.14394033E-02 0.70689653E+02</pdfrwt>
<pdfrwt beam="2">  1       -3 0.20541989E-01 0.70689653E+02</pdfrwt>
<totfact> 0.62566152E+04</totfact>
</mgrwt>
</event>
<event>
 4    1  0.7692565E-003  0.7451636E+02  0.7818608E-02  0.1345375E+00
          3   -1    0    0    0  501  0.00000000000E+00  0.00000000000E+00  0.32970631800E+03  0.32970633347E+03  0.10100000000E+00 0.  1.
         -3   -1    0    0  501    0 -0.00000000000E+00 -0.00000000000E+00 -0.42097078969E+01  0.42109193268E+01  0.10100000000E+00 0.  1.
          2    1    1    2    0  502  0.56305792815E+01  0.21997321835E+02  0.29511888013E+03  0.29599111305E+03  0.25500000000E-02 0.  1.
         -2    1    1    2  502    0 -0.56305792815E+01 -0.21997321835E+02  0.30377729969E+02  0.37926139739E+02  0.25500000000E-02 0.  1.
<mgrwt>
<rscale>  0 0.74516364E+02</rscale>
<asrwt>0</asrwt>
<pdfrwt beam="1">  1        3 0.50724150E-01 0.74516364E+02</pdfrwt>
<pdfrwt beam="2">  1       -3 0.64774166E-03 0.74516364E+02</pdfrwt>
<totfact> 0.38857526E+04</totfact>
</mgrwt>
</event>
<event>
 4    1  0.7692565E-003  0.6578435E+02  0.7818608E-02  0.1375045E+00
          3   -1    0    0    0  501  0.00000000000E+00  0.00000000000E+00  0.21957733299E+01  0.21980949743E+01  0.10100000000E+00 0.  1.
         -3   -1    0    0  501    0 -0.00000000000E+00 -0.00000000000E+00 -0.49245450426E+03  0.49245451461E+03  0.10100000000E+00 0.  1.
          2    1    1    2    0  502 -0.24514728130E+02  0.19163470296E+02 -0.32530248509E+03  0.32678726612E+03  0.25500000000E-02 0. -1.
         -2    1    1    2  502    0  0.24514728130E+02 -0.19163470296E+02 -0.16495624584E+03  0.16786534347E+03  0.25500000000E-02 0. -1.
<mgrwt>
<rscale>  0 0.65784352E+02</rscale>
<asrwt>0</asrwt>
<pdfrwt beam="1">  1        3 0.33799106E-03 0.65784352E+02</pdfrwt>
<pdfrwt beam="2">  1       -3 0.75762323E-01 0.65784352E+02</pdfrwt>
<totfact> 0.42337578E+04</totfact>
</mgrwt>
</event>
<event>
 4    1  0.7692565E-003  0.6898607E+02  0.7818608E-02  0.1363575E+00
         -3   -1    0    0  501    0 -0.00000000000E+00  0.00000000000E+00  0.41563442116E+01  0.41575711906E+01  0.10100000000E+00 0. -1.
          3   -1    0    0    0  501  0.00000000000E+00 -0.00000000000E+00 -0.28621031256E+03  0.28621033038E+03  0.10100000000E+00 0. -1.
          2    1    1    2    0  502 -0.21070278992E+02  0.27203266746E+02 -0.13089462015E+03  0.13534170078E+03  0.25500000000E-02 0.  1.
         -2    1    1    2  502    0  0.21070278992E+02 -0.27203266746E+02 -0.15115934820E+03  0.15502620079E+03  0.25500000000E-02 0.  1.
<mgrwt>
<rscale>  0 0.68986065E+02</rscale>
<asrwt>0</asrwt>
<pdfrwt beam="2">  1        3 0.44032436E-01 0.68986065E+02</pdfrwt>
<pdfrwt beam="1">  1       -3 0.63953355E-03 0.68986065E+02</pdfrwt>
<totfact> 0.50950285E+04</totfact>
</mgrwt>
</event>
<event>
 4    1  0.7692565E-003  0.4380215E+02  0.7818608E-02  0.1481961E+00
         -3   -1    0    0  501    0 -0.00000000000E+00  0.00000000000E+00  0.46907923855E+02  0.46908032589E+02  0.10100000000E+00 0. -1.
          3   -1    0    0    0  501  0.00000000000E+00 -0.00000000000E+00 -0.10225134682E+02  0.10225633489E+02  0.10100000000E+00 0. -1.
          2    1    1    2    0  502 -0.11886583134E+02 -0.16133093067E+02  0.68150043626E+01  0.21166290215E+02  0.25500000000E-02 0.  1.
         -2    1    1    2  502    0  0.11886583134E+02  0.16133093067E+02  0.29867784810E+02  0.35967375863E+02  0.25500000000E-02 0.  1.
<mgrwt>
<rscale>  0 0.43802155E+02</rscale>
<asrwt>0</asrwt>
<pdfrwt beam="2">  1        3 0.15731444E-02 0.43802155E+02</pdfrwt>
<pdfrwt beam="1">  1       -3 0.72166505E-02 0.43802155E+02</pdfrwt>
<totfact> 0.25820494E+05</totfact>
</mgrwt>
</event>
<event>
 4    1  0.7692565E-003  0.4937298E+02  0.7818608E-02  0.1448753E+00
         -3   -1    0    0  501    0 -0.00000000000E+00  0.00000000000E+00  0.27714508064E+02  0.27714692100E+02  0.10100000000E+00 0.  1.
          3   -1    0    0    0  501  0.00000000000E+00 -0.00000000000E+00 -0.21988934552E+02  0.21989166508E+02  0.10100000000E+00 0.  1.
          2    1    1    2    0  502  0.20980879794E+02 -0.10406884418E+02 -0.49947930942E+01  0.23946785271E+02  0.25500000000E-02 0.  1.
         -2    1    1    2  502    0 -0.20980879794E+02  0.10406884418E+02  0.10720366606E+02  0.25757073337E+02  0.25500000000E-02 0.  1.
<mgrwt>
<rscale>  0 0.49372982E+02</rscale>
<asrwt>0</asrwt>
<pdfrwt beam="2">  1        3 0.33829450E-02 0.49372982E+02</pdfrwt>
<pdfrwt beam="1">  1       -3 0.42638025E-02 0.49372982E+02</pdfrwt>
<totfact> 0.19530930E+05</totfact>
</mgrwt>
</event>
<event>
 4    1  0.7692565E-003  0.4062504E+02  0.7818608E-02  0.1503662E+00
          3   -1    0    0    0  501  0.00000000000E+00  0.00000000000E+00  0.22095527359E+01  0.22118599170E+01  0.10100000000E+00 0. -1.
         -3   -1    0    0  501    0 -0.00000000000E+00 -0.00000000000E+00 -0.18663418265E+03  0.18663420998E+03  0.10100000000E+00 0. -1.
          2    1    1    2    0  502 -0.13255043797E+02  0.15258130682E+02 -0.82809261135E+02  0.85240134175E+02  0.25500000000E-02 0. -1.
         -2    1    1    2  502    0  0.13255043797E+02 -0.15258130682E+02 -0.10161536878E+03  0.10360593572E+03  0.25500000000E-02 0. -1.
<mgrwt>
<rscale>  0 0.40625041E+02</rscale>
<asrwt>0</asrwt>
<pdfrwt beam="1">  1        3 0.34011091E-03 0.40625041E+02</pdfrwt>
<pdfrwt beam="2">  1       -3 0.28713118E-01 0.40625041E+02</pdfrwt>
<totfact> 0.23074169E+05</totfact>
</mgrwt>
</event>
<event>
 4    1  0.7692565E-003  0.7582190E+02  0.7818608E-02  0.1341345E+00
         -3   -1    0    0  501    0 -0.00000000000E+00  0.00000000000E+00  0.20131235383E+02  0.20131488744E+02  0.10100000000E+00 0.  1.
          3   -1    0    0    0  501  0.00000000000E+00 -0.00000000000E+00 -0.71392793416E+02  0.71392864858E+02  0.10100000000E+00 0.  1.
          2    1    1    2    0  502 -0.11338632587E+02 -0.35079453344E+02 -0.36298901181E+02  0.51737248375E+02  0.25500000000E-02 0.  1.
         -2    1    1    2  502    0  0.11338632587E+02  0.35079453344E+02 -0.14962656851E+02  0.39787105228E+02  0.25500000000E-02 0.  1.
<mgrwt>
<rscale>  0 0.75821896E+02</rscale>
<asrwt>0</asrwt>
<pdfrwt beam="2">  1        3 0.10983532E-01 0.75821896E+02</pdfrwt>
<pdfrwt beam="1">  1       -3 0.30971382E-02 0.75821896E+02</pdfrwt>
<totfact> 0.58014351E+04</totfact>
</mgrwt>
</event>
<event>
 4    1  0.7692565E-003  0.4617489E+02  0.7818608E-02  0.1467138E+00
         -3   -1    0    0  501    0 -0.00000000000E+00  0.00000000000E+00  0.10578449011E+03  0.10578453832E+03  0.10100000000E+00 0.  1.
          3   -1    0    0    0  501  0.00000000000E+00 -0.00000000000E+00 -0.50382755690E+01  0.50392878176E+01  0.10100000000E+00 0.  1.
          2    1    1    2    0  502  0.53577125394E+01 -0.22446489986E+02  0.48709980470E+02  0.53900020410E+02  0.25500000000E-02 0.  1.
         -2    1    1    2  502    0 -0.53577125394E+01  0.22446489986E+02  0.52036234068E+02  0.56923805730E+02  0.25500000000E-02 0.  1.
<mgrwt>
<rscale>  0 0.46174892E+02</rscale>
<asrwt>0</asrwt>
<pdfrwt beam="2">  1        3 0.77520093E-03 0.46174892E+02</pdfrwt>
<pdfrwt beam="1">  1       -3 0.16274618E-01 0.46174892E+02</pdfrwt>
<totfact> 0.19863455E+05</totfact>
</mgrwt>
</event>
<event>
 4    1  0.7692565E-003  0.4725284E+02  0.7818608E-02  0.1460748E+00
          3   -1    0    0    0  501  0.00000000000E+00  0.00000000000E+00  0.19167817662E+02  0.19168083758E+02  0.10100000000E+00 0. -1.
         -3   -1    0    0  501    0 -0.00000000000E+00 -0.00000000000E+00 -0.29121579112E+02  0.29121754256E+02  0.10100000000E+00 0. -1.
          2    1    1    2    0  502  0.52834992665E+01 -0.22162436125E+02 -0.11368644563E+02  0.25462423789E+02  0.25500000000E-02 0.  1.
         -2    1    1    2  502    0 -0.52834992665E+01  0.22162436125E+02  0.14148831141E+01  0.22827414225E+02  0.25500000000E-02 0.  1.
<mgrwt>
<rscale>  0 0.47252842E+02</rscale>
<asrwt>0</asrwt>
<pdfrwt beam="1">  1        3 0.29489290E-02 0.47252842E+02</pdfrwt>
<pdfrwt beam="2">  1       -3 0.44802769E-02 0.47252842E+02</pdfrwt>
<totfact> 0.21891833E+05</totfact>
</mgrwt>
</event>
<event>
 4    1  0.7692565E-003  0.4564424E+02  0.7818608E-02  0.1470359E+00
          3   -1    0    0    0  501  0.00000000000E+00  0.00000000000E+00  0.17445177254E+03  0.17445180178E+03  0.10100000000E+00 0.  1.
         -3   -1    0    0  501    0 -0.00000000000E+00 -0.00000000000E+00 -0.29847501308E+01  0.29864584952E+01  0.10100000000E+00 0.  1.
          2    1    1    2    0  502 -0.22198646846E+02 -0.65524393469E+00  0.65295951370E+02  0.68969344916E+02  0.25500000000E-02 0. -1.
         -2    1    1    2  502    0  0.22198646846E+02  0.65524393469E+00  0.10617107104E+03  0.10846891536E+03  0.25500000000E-02 0. -1.
<mgrwt>
<rscale>  0 0.45644238E+02</rscale>
<asrwt>0</asrwt>
<pdfrwt beam="1">  1        3 0.26838874E-01 0.45644238E+02</pdfrwt>
<pdfrwt beam="2">  1       -3 0.45932589E-03 0.45644238E+02</pdfrwt>
<totfact> 0.17753991E+05</totfact>
</mgrwt>
</event>
<event>
 4    1  0.7692565E-003  0.4790025E+02  0.7818608E-02  0.1457008E+00
         -3   -1    0    0  501    0 -0.00000000000E+00  0.00000000000E+00  0.46497277284E+01  0.46508245450E+01  0.10100000000E+00 0. -1.
          3   -1    0    0    0  501  0.00000000000E+00 -0.00000000000E+00 -0.12334820067E+03  0.12334824202E+03  0.10100000000E+00 0. -1.
          2    1    1    2    0  502  0.19872369187E+02 -0.11135403604E+02 -0.79112705319E+02  0.82326960468E+02  0.25500000000E-02 0. -1.
         -2    1    1    2  502    0 -0.19872369187E+02  0.11135403604E+02 -0.39585767619E+02  0.45672106093E+02  0.25500000000E-02 0. -1.
<mgrwt>
<rscale>  0 0.47900246E+02</rscale>
<asrwt>0</asrwt>
<pdfrwt beam="2">  1        3 0.18976731E-01 0.47900246E+02</pdfrwt>
<pdfrwt beam="1">  1       -3 0.71543037E-03 0.47900246E+02</pdfrwt>
<totfact> 0.17454057E+05</totfact>
</mgrwt>
</event>
<event>
 4    1  0.7692565E-003  0.4121084E+02  0.7818608E-02  0.1499485E+00
         -3   -1    0    0  501    0 -0.00000000000E+00  0.00000000000E+00  0.28931803461E+02  0.28931979754E+02  0.10100000000E+00 0. -1.
          3   -1    0    0    0  501  0.00000000000E+00 -0.00000000000E+00 -0.14674919310E+02  0.14675266872E+02  0.10100000000E+00 0. -1.
          2    1    1    2    0  502  0.18465189469E+02  0.88678427983E+01  0.94901414041E+01  0.22575753551E+02  0.25500000000E-02 0.  1.
         -2    1    1    2  502    0 -0.18465189469E+02 -0.88678427983E+01  0.47667427460E+01  0.21031493075E+02  0.25500000000E-02 0.  1.
<mgrwt>
<rscale>  0 0.41210839E+02</rscale>
<asrwt>0</asrwt>
<pdfrwt beam="2">  1        3 0.22577202E-02 0.41210839E+02</pdfrwt>
<pdfrwt beam="1">  1       -3 0.44510870E-02 0.41210839E+02</pdfrwt>
<totfact> 0.31145279E+05</totfact>
</mgrwt>
</event>
<event>
 4    1  0.7692565E-003  0.4015185E+02  0.7818608E-02  0.1507097E+00
          3   -1    0    0    0  501  0.00000000000E+00  0.00000000000E+00  0.14806185926E+02  0.14806530406E+02  0.10100000000E+00 0. -1.
         -3   -1    0    0  501    0 -0.00000000000E+00 -0.00000000000E+00 -0.27220490661E+02  0.27220678038E+02  0.10100000000E+00 0. -1.
          2    1    1    2    0  502 -0.45290886434E+00 -0.20070240220E+02 -0.60479068858E+01  0.20966565125E+02  0.25500000000E-02 0. -1.
         -2    1    1    2  502    0  0.45290886434E+00  0.20070240220E+02 -0.63663978498E+01  0.21060643319E+02  0.25500000000E-02 0. -1.
<mgrwt>
<rscale>  0 0.40151853E+02</rscale>
<asrwt>0</asrwt>
<pdfrwt beam="1">  1        3 0.22779157E-02 0.40151853E+02</pdfrwt>
<pdfrwt beam="2">  1       -3 0.41878087E-02 0.40151853E+02</pdfrwt>
<totfact> 0.33345827E+05</totfact>
</mgrwt>
</event>
<event>
 4    1  0.7692565E-003  0.6510207E+02  0.7818608E-02  0.1377588E+00
          3   -1    0    0    0  501  0.00000000000E+00  0.00000000000E+00  0.24205027996E+02  0.24205238715E+02  0.10100000000E+00 0. -1.
         -3   -1    0    0  501    0 -0.00000000000E+00 -0.00000000000E+00 -0.43774329787E+02  0.43774446304E+02  0.10100000000E+00 0. -1.
          2    1    1    2    0  502  0.22965367688E+02  0.90806570576E+01 -0.31928212906E+02  0.40364306404E+02  0.25500000000E-02 0.  1.
         -2    1    1    2  502    0 -0.22965367688E+02 -0.90806570576E+01  0.12358911115E+02  0.27615378616E+02  0.25500000000E-02 0.  1.
<mgrwt>
<rscale>  0 0.65102074E+02</rscale>
<asrwt>0</asrwt>
<pdfrwt beam="1">  1        3 0.37238756E-02 0.65102074E+02</pdfrwt>
<pdfrwt beam="2">  1       -3 0.67345374E-02 0.65102074E+02</pdfrwt>
<totfact> 0.91609369E+04</totfact>
</mgrwt>
</event>
<event>
 4    1  0.7692565E-003  0.6437973E+02  0.7818608E-02  0.1380320E+00
          3   -1    0    0    0  501  0.00000000000E+00  0.00000000000E+00  0.13268595259E+02  0.13268979657E+02  0.10100000000E+00 0.  1.
         -3   -1    0    0  501    0 -0.00000000000E+00 -0.00000000000E+00 -0.78091686014E+02  0.78091751328E+02  0.10100000000E+00 0.  1.
          2    1    1    2    0  502 -0.10224858201E+02  0.27164226915E+02 -0.12658905183E+02  0.31665293873E+02  0.25500000000E-02 0. -1.
         -2    1    1    2  502    0  0.10224858201E+02 -0.27164226915E+02 -0.52164185573E+02  0.59695437113E+02  0.25500000000E-02 0. -1.
<mgrwt>
<rscale>  0 0.64379733E+02</rscale>
<asrwt>0</asrwt>
<pdfrwt beam="1">  1        3 0.20413570E-02 0.64379733E+02</pdfrwt>
<pdfrwt beam="2">  1       -3 0.12014140E-01 0.64379733E+02</pdfrwt>
<totfact> 0.89259332E+04</totfact>
</mgrwt>
</event>
<event>
 4    1  0.7692565E-003  0.4036578E+02  0.7818608E-02  0.1505537E+00
          3   -1    0    0    0  501  0.00000000000E+00  0.00000000000E+00  0.23230145341E+02  0.23230364903E+02  0.10100000000E+00 0.  1.
         -3   -1    0    0  501    0 -0.00000000000E+00 -0.00000000000E+00 -0.17534919645E+02  0.17535210519E+02  0.10100000000E+00 0.  1.
          2    1    1    2    0  502 -0.40223873462E+01 -0.19704885408E+02  0.45635647848E+01  0.20622517765E+02  0.25500000000E-02 0.  1.
         -2    1    1    2  502    0  0.40223873462E+01  0.19704885408E+02  0.11316609107E+01  0.20143057658E+02  0.25500000000E-02 0.  1.
<mgrwt>
<rscale>  0 0.40365784E+02</rscale>
<asrwt>0</asrwt>
<pdfrwt beam="1">  1        3 0.35739078E-02 0.40365784E+02</pdfrwt>
<pdfrwt beam="2">  1       -3 0.26977192E-02 0.40365784E+02</pdfrwt>
<totfact> 0.33034105E+05</totfact>
</mgrwt>
</event>
<event>
 4    1  0.7692565E-003  0.7604416E+02  0.7818608E-02  0.1340668E+00
          3   -1    0    0    0  501  0.00000000000E+00  0.00000000000E+00  0.95631653459E+02  0.95631706794E+02  0.10100000000E+00 0. -1.
         -3   -1    0    0  501    0 -0.00000000000E+00 -0.00000000000E+00 -0.15116930581E+02  0.15117267981E+02  0.10100000000E+00 0. -1.
          2    1    1    2    0  502  0.20228044923E+02  0.22186754815E+02  0.62812114087E+01  0.30673759370E+02  0.25500000000E-02 0.  1.
         -2    1    1    2  502    0 -0.20228044923E+02 -0.22186754815E+02  0.74233511469E+02  0.80075215405E+02  0.25500000000E-02 0.  1.
<mgrwt>
<rscale>  0 0.76044164E+02</rscale>
<asrwt>0</asrwt>
<pdfrwt beam="1">  1        3 0.14712593E-01 0.76044164E+02</pdfrwt>
<pdfrwt beam="2">  1       -3 0.23257116E-02 0.76044164E+02</pdfrwt>
<totfact> 0.55188493E+04</totfact>
</mgrwt>
</event>
<event>
 4    1  0.7692565E-003  0.8445127E+02  0.7818608E-02  0.1316874E+00
         -3   -1    0    0  501    0 -0.00000000000E+00  0.00000000000E+00  0.81137045580E+02  0.81137108443E+02  0.10100000000E+00 0.  1.
          3   -1    0    0    0  501  0.00000000000E+00 -0.00000000000E+00 -0.21975028491E+02  0.21975260594E+02  0.10100000000E+00 0.  1.
          2    1    1    2    0  502  0.33658330859E+02 -0.25496041105E+02  0.29910310087E+02  0.51745125415E+02  0.25500000000E-02 0.  1.
         -2    1    1    2  502    0 -0.33658330859E+02  0.25496041105E+02  0.29251707003E+02  0.51367243622E+02  0.25500000000E-02 0.  1.
<mgrwt>
<rscale>  0 0.84451266E+02</rscale>
<asrwt>0</asrwt>
<pdfrwt beam="2">  1        3 0.33807963E-02 0.84451266E+02</pdfrwt>
<pdfrwt beam="1">  1       -3 0.12482645E-01 0.84451266E+02</pdfrwt>
<totfact> 0.42375512E+04</totfact>
</mgrwt>
</event>
<event>
 4    1  0.7692565E-003  0.4985030E+02  0.7818608E-02  0.1446151E+00
         -3   -1    0    0  501    0 -0.00000000000E+00  0.00000000000E+00  0.49879378784E+02  0.49879481040E+02  0.10100000000E+00 0. -1.
          3   -1    0    0    0  501  0.00000000000E+00 -0.00000000000E+00 -0.12454990635E+02  0.12455400143E+02  0.10100000000E+00 0. -1.
          2    1    1    2    0  502 -0.20411140215E+02  0.13700824168E+02  0.23858168631E+02  0.34256961988E+02  0.25500000000E-02 0.  1.
         -2    1    1    2  502    0  0.20411140215E+02 -0.13700824168E+02  0.13566219518E+02  0.28077919195E+02  0.25500000000E-02 0.  1.
<mgrwt>
<rscale>  0 0.49850302E+02</rscale>
<asrwt>0</asrwt>
<pdfrwt beam="2">  1        3 0.19161917E-02 0.49850302E+02</pdfrwt>
<pdfrwt beam="1">  1       -3 0.76737901E-02 0.49850302E+02</pdfrwt>
<totfact> 0.18439811E+05</totfact>
</mgrwt>
</event>
<event>
 4    1  0.7692565E-003  0.7249636E+02  0.7818608E-02  0.1351804E+00
          3   -1    0    0    0  501  0.00000000000E+00  0.00000000000E+00  0.47764249799E+01  0.47774927095E+01  0.10100000000E+00 0. -1.
         -3   -1    0    0  501    0 -0.00000000000E+00 -0.00000000000E+00 -0.27505481108E+03  0.27505482962E+03  0.10100000000E+00 0. -1.
          2    1    1    2    0  502 -0.32912159725E+01  0.34405049289E+02 -0.92962969313E+02  0.99179903152E+02  0.25500000000E-02 0.  1.
         -2    1    1    2  502    0  0.32912159725E+01 -0.34405049289E+02 -0.17731541678E+03  0.18065241918E+03  0.25500000000E-02 0.  1.
<mgrwt>
<rscale>  0 0.72496363E+02</rscale>
<asrwt>0</asrwt>
<pdfrwt beam="1">  1        3 0.73491839E-03 0.72496363E+02</pdfrwt>
<pdfrwt beam="2">  1       -3 0.42316196E-01 0.72496363E+02</pdfrwt>
<totfact> 0.45560259E+04</totfact>
</mgrwt>
</event>
<event>
 4    1  0.7692565E-003  0.4474026E+02  0.7818608E-02  0.1475970E+00
         -3   -1    0    0  501    0 -0.00000000000E+00  0.00000000000E+00  0.20711298543E+01  0.20735910575E+01  0.10100000000E+00 0.  1.
          3   -1    0    0    0  501  0.00000000000E+00 -0.00000000000E+00 -0.24147230622E+03  0.24147232734E+03  0.10100000000E+00 0.  1.
          2    1    1    2    0  502  0.21076833602E+02  0.68251367422E+01 -0.13657328655E+03  0.13835851261E+03  0.25500000000E-02 0. -1.
         -2    1    1    2  502    0 -0.21076833602E+02 -0.68251367422E+01 -0.10282788981E+03  0.10518740578E+03  0.25500000000E-02 0. -1.
<mgrwt>
<rscale>  0 0.44740263E+02</rscale>
<asrwt>0</asrwt>
<pdfrwt beam="2">  1        3 0.37149754E-01 0.44740263E+02</pdfrwt>
<pdfrwt beam="1">  1       -3 0.31882650E-03 0.44740263E+02</pdfrwt>
<totfact> 0.16467889E+05</totfact>
</mgrwt>
</event>
<event>
 4    1  0.7692565E-003  0.4689807E+02  0.7818608E-02  0.1462829E+00
          3   -1    0    0    0  501  0.00000000000E+00  0.00000000000E+00  0.11457645487E+02  0.11458090640E+02  0.10100000000E+00 0.  1.
         -3   -1    0    0  501    0 -0.00000000000E+00 -0.00000000000E+00 -0.47988999999E+02  0.47989106283E+02  0.10100000000E+00 0.  1.
          2    1    1    2    0  502  0.19624261302E+02 -0.12559819369E+02 -0.21618581192E+02  0.31784017265E+02  0.25500000000E-02 0. -1.
         -2    1    1    2  502    0 -0.19624261302E+02  0.12559819369E+02 -0.14912773319E+02  0.27663179658E+02  0.25500000000E-02 0. -1.
<mgrwt>
<rscale>  0 0.46898074E+02</rscale>
<asrwt>0</asrwt>
<pdfrwt beam="1">  1        3 0.17627571E-02 0.46898074E+02</pdfrwt>
<pdfrwt beam="2">  1       -3 0.73829654E-02 0.46898074E+02</pdfrwt>
<totfact> 0.21652274E+05</totfact>
</mgrwt>
</event>
<event>
 4    1  0.7692565E-003  0.9227572E+02  0.7818608E-02  0.1297432E+00
          3   -1    0    0    0  501  0.00000000000E+00  0.00000000000E+00  0.26928818727E+02  0.26929008133E+02  0.10100000000E+00 0.  1.
         -3   -1    0    0  501    0 -0.00000000000E+00 -0.00000000000E+00 -0.79048725504E+02  0.79048790028E+02  0.10100000000E+00 0.  1.
          2    1    1    2    0  502 -0.12828916230E+02  0.23088098692E+02 -0.69506622627E+02  0.74355981524E+02  0.25500000000E-02 0. -1.
         -2    1    1    2  502    0  0.12828916230E+02 -0.23088098692E+02  0.17386715850E+02  0.31621816637E+02  0.25500000000E-02 0. -1.
<mgrwt>
<rscale>  0 0.92275723E+02</rscale>
<asrwt>0</asrwt>
<pdfrwt beam="1">  1        3 0.41429147E-02 0.92275723E+02</pdfrwt>
<pdfrwt beam="2">  1       -3 0.12161362E-01 0.92275723E+02</pdfrwt>
<totfact> 0.33135013E+04</totfact>
</mgrwt>
</event>
<event>
 4    1  0.7692565E-003  0.5303067E+02  0.7818608E-02  0.1429648E+00
          3   -1    0    0    0  501  0.00000000000E+00  0.00000000000E+00  0.35348674054E+03  0.35348675497E+03  0.10100000000E+00 0. -1.
         -3   -1    0    0  501    0 -0.00000000000E+00 -0.00000000000E+00 -0.19876410471E+01  0.19902055000E+01  0.10100000000E+00 0. -1.
          2    1    1    2    0  502 -0.21239726516E+02 -0.13893512625E+02  0.22719765335E+03  0.22861086888E+03  0.25500000000E-02 0.  1.
         -2    1    1    2  502    0  0.21239726516E+02  0.13893512625E+02  0.12430144614E+03  0.12686609159E+03  0.25500000000E-02 0.  1.
<mgrwt>
<rscale>  0 0.53030675E+02</rscale>
<asrwt>0</asrwt>
<pdfrwt beam="1">  1        3 0.54382777E-01 0.53030675E+02</pdfrwt>
<pdfrwt beam="2">  1       -3 0.30598929E-03 0.53030675E+02</pdfrwt>
<totfact> 0.89683357E+04</totfact>
</mgrwt>
</event>
<event>
 4    1  0.7692565E-003  0.5496230E+02  0.7818608E-02  0.1420277E+00
         -3   -1    0    0  501    0 -0.00000000000E+00  0.00000000000E+00  0.18246671670E+04  0.18246671698E+04  0.10100000000E+00 0.  1.
          3   -1    0    0    0  501  0.00000000000E+00 -0.00000000000E+00 -0.40772674672E+00  0.42005011605E+00  0.10100000000E+00 0.  1.
          2    1    1    2    0  502 -0.20277797305E+02  0.15534353738E+02  0.12486582725E+04  0.12489195277E+04  0.25500000000E-02 0.  1.
         -2    1    1    2  502    0  0.20277797305E+02 -0.15534353738E+02  0.57560116773E+03  0.57616769218E+03  0.25500000000E-02 0.  1.
<mgrwt>
<rscale>  0 0.54962305E+02</rscale>
<asrwt>0</asrwt>
<pdfrwt beam="2">  1        3 0.63674898E-04 0.54962305E+02</pdfrwt>
<pdfrwt beam="1">  1       -3 0.28072100E+00 0.54962305E+02</pdfrwt>
<totfact> 0.16293142E+04</totfact>
</mgrwt>
</event>
<event>
 4    1  0.7692565E-003  0.5747695E+02  0.7818608E-02  0.1408735E+00
          3   -1    0    0    0  501  0.00000000000E+00  0.00000000000E+00  0.10254272281E+03  0.10254277255E+03  0.10100000000E+00 0.  1.
         -3   -1    0    0  501    0 -0.00000000000E+00 -0.00000000000E+00 -0.80538356044E+01  0.80544688802E+01  0.10100000000E+00 0.  1.
          2    1    1    2    0  502  0.59057949001E+00 -0.26047458588E+02  0.23908303791E+02  0.35361361395E+02  0.25500000000E-02 0.  1.
         -2    1    1    2  502    0 -0.59057949001E+00  0.26047458588E+02  0.70580583412E+02  0.75235880033E+02  0.25500000000E-02 0.  1.
<mgrwt>
<rscale>  0 0.57476952E+02</rscale>
<asrwt>0</asrwt>
<pdfrwt beam="1">  1        3 0.15775855E-01 0.57476952E+02</pdfrwt>
<pdfrwt beam="2">  1       -3 0.12391042E-02 0.57476952E+02</pdfrwt>
<totfact> 0.11449552E+05</totfact>
</mgrwt>
</event>
<event>
 4    1  0.7692565E-003  0.4407497E+02  0.7818608E-02  0.1480200E+00
          3   -1    0    0    0  501  0.00000000000E+00  0.00000000000E+00  0.31606625356E+03  0.31606626970E+03  0.10100000000E+00 0.  1.
         -3   -1    0    0  501    0 -0.00000000000E+00 -0.00000000000E+00 -0.15348715185E+01  0.15381910084E+01  0.10100000000E+00 0.  1.
          2    1    1    2    0  502  0.15139193161E+02  0.15595172905E+02  0.13103920038E+03  0.13282950211E+03  0.25500000000E-02 0. -1.
         -2    1    1    2  502    0 -0.15139193161E+02 -0.15595172905E+02  0.18349218166E+03  0.18477495860E+03  0.25500000000E-02 0. -1.
<mgrwt>
<rscale>  0 0.44074972E+02</rscale>
<asrwt>0</asrwt>
<pdfrwt beam="1">  1        3 0.48625758E-01 0.44074972E+02</pdfrwt>
<pdfrwt beam="2">  1       -3 0.23639104E-03 0.44074972E+02</pdfrwt>
<totfact> 0.15051161E+05</totfact>
</mgrwt>
</event>
<event>
 4    1  0.7692565E-003  0.4596369E+02  0.7818608E-02  0.1468414E+00
         -3   -1    0    0  501    0 -0.00000000000E+00  0.00000000000E+00  0.91366440724E+00  0.91922992176E+00  0.10100000000E+00 0.  1.
          3   -1    0    0    0  501  0.00000000000E+00 -0.00000000000E+00 -0.57631268142E+03  0.57631269027E+03  0.10100000000E+00 0.  1.
          2    1    1    2    0  502 -0.65719536754E+01  0.21904480263E+02 -0.25914905024E+03  0.26015615902E+03  0.25500000000E-02 0. -1.
         -2    1    1    2  502    0  0.65719536754E+01 -0.21904480263E+02 -0.31624996678E+03  0.31707576118E+03  0.25500000000E-02 0. -1.
<mgrwt>
<rscale>  0 0.45963691E+02</rscale>
<asrwt>0</asrwt>
<pdfrwt beam="2">  1        3 0.88663629E-01 0.45963691E+02</pdfrwt>
<pdfrwt beam="1">  1       -3 0.14099301E-03 0.45963691E+02</pdfrwt>
<totfact> 0.93283000E+04</totfact>
</mgrwt>
</event>
<event>
 4    1  0.7692565E-003  0.5607700E+02  0.7818608E-02  0.1415073E+00
          3   -1    0    0    0  501  0.00000000000E+00  0.00000000000E+00  0.14542301297E+02  0.14542652028E+02  0.10100000000E+00 0. -1.
         -3   -1    0    0  501    0 -0.00000000000E+00 -0.00000000000E+00 -0.54058996395E+02  0.54059090745E+02  0.10100000000E+00 0. -1.
          2    1    1    2    0  502 -0.26407962122E+02  0.89141827914E+01 -0.16024756245E+02  0.32150208980E+02  0.25500000000E-02 0.  1.
         -2    1    1    2  502    0  0.26407962122E+02 -0.89141827914E+01 -0.23491938853E+02  0.36451533793E+02  0.25500000000E-02 0.  1.
<mgrwt>
<rscale>  0 0.56077000E+02</rscale>
<asrwt>0</asrwt>
<pdfrwt beam="1">  1        3 0.22373114E-02 0.56077000E+02</pdfrwt>
<pdfrwt beam="2">  1       -3 0.83168028E-02 0.56077000E+02</pdfrwt>
<totfact> 0.13457848E+05</totfact>
</mgrwt>
</event>
<event>
 4    1  0.7692565E-003  0.1560965E+03  0.7818608E-02  0.1193176E+00
          3   -1    0    0    0  501  0.00000000000E+00  0.00000000000E+00  0.11532553025E+03  0.11532557448E+03  0.10100000000E+00 0.  1.
         -3   -1    0    0  501    0 -0.00000000000E+00 -0.00000000000E+00 -0.52820185080E+02  0.52820281643E+02  0.10100000000E+00 0.  1.
          2    1    1    2    0  502  0.63117060372E+02  0.44065545008E+02  0.45130989229E+02  0.89231954827E+02  0.25500000000E-02 0. -1.
         -2    1    1    2  502    0 -0.63117060372E+02 -0.44065545008E+02  0.17374355946E+02  0.78913901297E+02  0.25500000000E-02 0. -1.
<mgrwt>
<rscale>  0 0.15609648E+03</rscale>
<asrwt>0</asrwt>
<pdfrwt beam="1">  1        3 0.17742400E-01 0.15609648E+03</pdfrwt>
<pdfrwt beam="2">  1       -3 0.81261932E-02 0.15609648E+03</pdfrwt>
<totfact> 0.67240736E+03</totfact>
</mgrwt>
</event>
<event>
 4    1  0.7692565E-003  0.4454793E+02  0.7818608E-02  0.1477184E+00
          3   -1    0    0    0  501  0.00000000000E+00  0.00000000000E+00  0.48296581554E+01  0.48307141188E+01  0.10100000000E+00 0.  1.
         -3   -1    0    0  501    0 -0.00000000000E+00 -0.00000000000E+00 -0.10271329062E+03  0.10271334027E+03  0.10100000000E+00 0.  1.
          2    1    1    2    0  502  0.16240977175E+02 -0.14216431341E+02 -0.35663438844E+02  0.41686414290E+02  0.25500000000E-02 0.  1.
         -2    1    1    2  502    0 -0.16240977175E+02  0.14216431341E+02 -0.62220193618E+02  0.65857640103E+02  0.25500000000E-02 0.  1.
<mgrwt>
<rscale>  0 0.44547931E+02</rscale>
<asrwt>0</asrwt>
<pdfrwt beam="1">  1        3 0.74310946E-03 0.44547931E+02</pdfrwt>
<pdfrwt beam="2">  1       -3 0.15802128E-01 0.44547931E+02</pdfrwt>
<totfact> 0.21869892E+05</totfact>
</mgrwt>
</event>
<event>
 4    1  0.7692565E-003  0.6920824E+02  0.7818608E-02  0.1362806E+00
         -3   -1    0    0  501    0 -0.00000000000E+00  0.00000000000E+00  0.35654821072E+02  0.35654964124E+02  0.10100000000E+00 0.  1.
          3   -1    0    0    0  501  0.00000000000E+00 -0.00000000000E+00 -0.33584098491E+02  0.33584250363E+02  0.10100000000E+00 0.  1.
          2    1    1    2    0  502  0.22520396768E+02  0.25970161005E+02  0.50155449789E+01  0.34738641757E+02  0.25500000000E-02 0.  1.
         -2    1    1    2  502    0 -0.22520396768E+02 -0.25970161005E+02 -0.29448223981E+01  0.34500572729E+02  0.25500000000E-02 0.  1.
<mgrwt>
<rscale>  0 0.69208243E+02</rscale>
<asrwt>0</asrwt>
<pdfrwt beam="2">  1        3 0.51668071E-02 0.69208243E+02</pdfrwt>
<pdfrwt beam="1">  1       -3 0.54853797E-02 0.69208243E+02</pdfrwt>
<totfact> 0.77774352E+04</totfact>
</mgrwt>
</event>
<event>
 4    1  0.7692565E-003  0.4633423E+02  0.7818608E-02  0.1466180E+00
          3   -1    0    0    0  501  0.00000000000E+00  0.00000000000E+00  0.25848314339E+01  0.25868039240E+01  0.10100000000E+00 0.  1.
         -3   -1    0    0  501    0 -0.00000000000E+00 -0.00000000000E+00 -0.20755916395E+03  0.20755918853E+03  0.10100000000E+00 0.  1.
          2    1    1    2    0  502 -0.22666327926E+02  0.44711392838E+01 -0.94681768619E+02  0.97459688197E+02  0.25500000000E-02 0.  1.
         -2    1    1    2  502    0  0.22666327926E+02 -0.44711392838E+01 -0.11029256390E+03  0.11268630425E+03  0.25500000000E-02 0.  1.
<mgrwt>
<rscale>  0 0.46334233E+02</rscale>
<asrwt>0</asrwt>
<pdfrwt beam="1">  1        3 0.39782016E-03 0.46334233E+02</pdfrwt>
<pdfrwt beam="2">  1       -3 0.31932320E-01 0.46334233E+02</pdfrwt>
<totfact> 0.16062980E+05</totfact>
</mgrwt>
</event>
<event>
 4    1  0.7692565E-003  0.6659796E+02  0.7818608E-02  0.1372059E+00
         -3   -1    0    0  501    0 -0.00000000000E+00  0.00000000000E+00  0.91258832062E+03  0.91258832621E+03  0.10100000000E+00 0. -1.
          3   -1    0    0    0  501  0.00000000000E+00 -0.00000000000E+00 -0.12129253798E+01  0.12171232382E+01  0.10100000000E+00 0. -1.
          2    1    1    2    0  502  0.28817321756E+02  0.11441228720E+02  0.62232139327E+03  0.62309329660E+03  0.25500000000E-02 0.  1.
         -2    1    1    2  502    0 -0.28817321756E+02 -0.11441228720E+02  0.28905400197E+03  0.29071215284E+03  0.25500000000E-02 0.  1.
<mgrwt>
<rscale>  0 0.66597961E+02</rscale>
<asrwt>0</asrwt>
<pdfrwt beam="2">  1        3 0.18692783E-03 0.66597961E+02</pdfrwt>
<pdfrwt beam="1">  1       -3 0.14039809E+00 0.66597961E+02</pdfrwt>
<totfact> 0.24804499E+04</totfact>
</mgrwt>
</event>
<event>
 4    1  0.7692565E-003  0.5553752E+02  0.7818608E-02  0.1417574E+00
         -3   -1    0    0  501    0 -0.00000000000E+00  0.00000000000E+00  0.37963376063E+02  0.37963510416E+02  0.10100000000E+00 0.  1.
          3   -1    0    0    0  501  0.00000000000E+00 -0.00000000000E+00 -0.20311493396E+02  0.20311744509E+02  0.10100000000E+00 0.  1.
          2    1    1    2    0  502  0.16263213343E+02  0.21441092303E+02  0.16406409409E+01  0.26961162003E+02  0.25500000000E-02 0. -1.
         -2    1    1    2  502    0 -0.16263213343E+02 -0.21441092303E+02  0.16011241726E+02  0.31314092921E+02  0.25500000000E-02 0. -1.
<mgrwt>
<rscale>  0 0.55537522E+02</rscale>
<asrwt>0</asrwt>
<pdfrwt beam="2">  1        3 0.31248748E-02 0.55537522E+02</pdfrwt>
<pdfrwt beam="1">  1       -3 0.58405490E-02 0.55537522E+02</pdfrwt>
<totfact> 0.14159609E+05</totfact>
</mgrwt>
</event>
<event>
 4    1  0.7692565E-003  0.1493939E+03  0.7818608E-02  0.1201220E+00
         -3   -1    0    0  501    0 -0.00000000000E+00  0.00000000000E+00  0.20680794898E+03  0.20680797364E+03  0.10100000000E+00 0.  1.
          3   -1    0    0    0  501  0.00000000000E+00 -0.00000000000E+00 -0.26979653353E+02  0.26979842402E+02  0.10100000000E+00 0.  1.
          2    1    1    2    0  502 -0.60975328659E+02  0.39001305130E+02  0.11879251886E+03  0.13910699138E+03  0.25500000000E-02 0.  1.
         -2    1    1    2  502    0  0.60975328659E+02 -0.39001305130E+02  0.61035776760E+02  0.94680824659E+02  0.25500000000E-02 0.  1.
<mgrwt>
<rscale>  0 0.14939387E+03</rscale>
<asrwt>0</asrwt>
<pdfrwt beam="2">  1        3 0.41507323E-02 0.14939387E+03</pdfrwt>
<pdfrwt beam="1">  1       -3 0.31816625E-01 0.14939387E+03</pdfrwt>
<totfact> 0.68172559E+03</totfact>
</mgrwt>
</event>
<event>
 4    1  0.7692565E-003  0.7488547E+02  0.7818608E-02  0.1344226E+00
          3   -1    0    0    0  501  0.00000000000E+00  0.00000000000E+00  0.17454595761E+03  0.17454598683E+03  0.10100000000E+00 0.  1.
         -3   -1    0    0  501    0 -0.00000000000E+00 -0.00000000000E+00 -0.80316831663E+01  0.80323181887E+01  0.10100000000E+00 0.  1.
          2    1    1    2    0  502  0.13702353426E+02 -0.30881618712E+02  0.43903929721E+02  0.55398410764E+02  0.25500000000E-02 0.  1.
         -2    1    1    2  502    0 -0.13702353426E+02  0.30881618712E+02  0.12261034472E+03  0.12717989426E+03  0.25500000000E-02 0.  1.
<mgrwt>
<rscale>  0 0.74885472E+02</rscale>
<asrwt>0</asrwt>
<pdfrwt beam="1">  1        3 0.26853274E-01 0.74885472E+02</pdfrwt>
<pdfrwt beam="2">  1       -3 0.12356947E-02 0.74885472E+02</pdfrwt>
<totfact> 0.49746629E+04</totfact>
</mgrwt>
</event>
<event>
 4    1  0.7692565E-003  0.6059734E+02  0.7818608E-02  0.1395342E+00
         -3   -1    0    0  501    0 -0.00000000000E+00  0.00000000000E+00  0.69122495656E+02  0.69122569445E+02  0.10100000000E+00 0. -1.
          3   -1    0    0    0  501  0.00000000000E+00 -0.00000000000E+00 -0.13280632891E+02  0.13281016941E+02  0.10100000000E+00 0. -1.
          2    1    1    2    0  502  0.20398157957E+02  0.52726623898E+01  0.57530925386E+02  0.61267390992E+02  0.25500000000E-02 0.  1.
         -2    1    1    2  502    0 -0.20398157957E+02 -0.52726623898E+01 -0.16890626209E+01  0.21136195395E+02  0.25500000000E-02 0.  1.
<mgrwt>
<rscale>  0 0.60597338E+02</rscale>
<asrwt>0</asrwt>
<pdfrwt beam="2">  1        3 0.20432095E-02 0.60597338E+02</pdfrwt>
<pdfrwt beam="1">  1       -3 0.10634265E-01 0.60597338E+02</pdfrwt>
<totfact> 0.10663350E+05</totfact>
</mgrwt>
</event>
<event>
 4    1  0.7692565E-003  0.1762692E+03  0.7818608E-02  0.1171463E+00
         -3   -1    0    0  501    0 -0.00000000000E+00  0.00000000000E+00  0.40314788809E+04  0.40314788822E+04  0.10100000000E+00 0. -1.
          3   -1    0    0    0  501  0.00000000000E+00 -0.00000000000E+00 -0.19254392457E+01  0.19280864319E+01  0.10100000000E+00 0. -1.
          2    1    1    2    0  502  0.61369905309E+02  0.22499810471E+02  0.33675708918E+04  0.33682051924E+04  0.25500000000E-02 0. -1.
         -2    1    1    2  502    0 -0.61369905309E+02 -0.22499810471E+02  0.66198254988E+03  0.66520177623E+03  0.25500000000E-02 0. -1.
<mgrwt>
<rscale>  0 0.17626921E+03</rscale>
<asrwt>0</asrwt>
<pdfrwt beam="2">  1        3 0.29642731E-03 0.17626921E+03</pdfrwt>
<pdfrwt beam="1">  1       -3 0.62022321E+00 0.17626921E+03</pdfrwt>
<totfact> 0.39479336E+01</totfact>
</mgrwt>
</event>
<event>
 4    1  0.7692565E-003  0.1688254E+03  0.7818608E-02  0.1179078E+00
          3   -1    0    0    0  501  0.00000000000E+00  0.00000000000E+00  0.26082236201E+01  0.26101784331E+01  0.10100000000E+00 0. -1.
         -3   -1    0    0  501    0 -0.00000000000E+00 -0.00000000000E+00 -0.27309128251E+04  0.27309128270E+04  0.10100000000E+00 0. -1.
          2    1    1    2    0  502  0.28237794434E+02  0.72785195629E+02 -0.84439821287E+03  0.84799964602E+03  0.25500000000E-02 0.  1.
         -2    1    1    2  502    0 -0.28237794434E+02 -0.72785195629E+02 -0.18839063886E+04  0.18855233594E+04  0.25500000000E-02 0.  1.
<mgrwt>
<rscale>  0 0.16882542E+03</rscale>
<asrwt>0</asrwt>
<pdfrwt beam="1">  1        3 0.40141787E-03 0.16882542E+03</pdfrwt>
<pdfrwt beam="2">  1       -3 0.42013830E+00 0.16882542E+03</pdfrwt>
<totfact> 0.26467372E+02</totfact>
</mgrwt>
</event>
<event>
 4    1  0.7692565E-003  0.5700158E+02  0.7818608E-02  0.1410864E+00
         -3   -1    0    0  501    0 -0.00000000000E+00  0.00000000000E+00  0.25594608067E+01  0.25614528340E+01  0.10100000000E+00 0.  1.
          3   -1    0    0    0  501  0.00000000000E+00 -0.00000000000E+00 -0.31724412998E+03  0.31724414606E+03  0.10100000000E+00 0.  1.
          2    1    1    2    0  502 -0.18342484678E+02  0.21102509251E+02 -0.12634106847E+03  0.12939794523E+03  0.25500000000E-02 0. -1.
         -2    1    1    2  502    0  0.18342484678E+02 -0.21102509251E+02 -0.18834360070E+03  0.19040765366E+03  0.25500000000E-02 0. -1.
<mgrwt>
<rscale>  0 0.57001580E+02</rscale>
<asrwt>0</asrwt>
<pdfrwt beam="2">  1        3 0.48806913E-01 0.57001580E+02</pdfrwt>
<pdfrwt beam="1">  1       -3 0.39391792E-03 0.57001580E+02</pdfrwt>
<totfact> 0.79146264E+04</totfact>
</mgrwt>
</event>
<event>
 4    1  0.7692565E-003  0.4114849E+02  0.7818608E-02  0.1499926E+00
         -3   -1    0    0  501    0 -0.00000000000E+00  0.00000000000E+00  0.23478265658E+02  0.23478482900E+02  0.10100000000E+00 0. -1.
          3   -1    0    0    0  501  0.00000000000E+00 -0.00000000000E+00 -0.18028981199E+02  0.18029264102E+02  0.10100000000E+00 0. -1.
          2    1    1    2    0  502 -0.12343455143E+02  0.16455647908E+02  0.23335062183E+01  0.20702523776E+02  0.25500000000E-02 0. -1.
         -2    1    1    2  502    0  0.12343455143E+02 -0.16455647908E+02  0.31157782409E+01  0.20805223226E+02  0.25500000000E-02 0. -1.
<mgrwt>
<rscale>  0 0.41148492E+02</rscale>
<asrwt>0</asrwt>
<pdfrwt beam="2">  1        3 0.27737279E-02 0.41148492E+02</pdfrwt>
<pdfrwt beam="1">  1       -3 0.36120793E-02 0.41148492E+02</pdfrwt>
<totfact> 0.31448976E+05</totfact>
</mgrwt>
</event>
<event>
 4    1  0.7692565E-003  0.5504291E+02  0.7818608E-02  0.1419896E+00
          3   -1    0    0    0  501  0.00000000000E+00  0.00000000000E+00  0.53036136376E+03  0.53036137338E+03  0.10100000000E+00 0. -1.
         -3   -1    0    0  501    0 -0.00000000000E+00 -0.00000000000E+00 -0.14263448935E+01  0.14299163455E+01  0.10100000000E+00 0. -1.
          2    1    1    2    0  502 -0.59933671690E+01  0.26856535224E+02  0.26916566599E+03  0.27056856745E+03  0.25500000000E-02 0. -1.
         -2    1    1    2  502    0  0.59933671690E+01 -0.26856535224E+02  0.25976935287E+03  0.26122272228E+03  0.25500000000E-02 0. -1.
<mgrwt>
<rscale>  0 0.55042907E+02</rscale>
<asrwt>0</asrwt>
<pdfrwt beam="1">  1        3 0.81594450E-01 0.55042907E+02</pdfrwt>
<pdfrwt beam="2">  1       -3 0.21971282E-03 0.55042907E+02</pdfrwt>
<totfact> 0.63350839E+04</totfact>
</mgrwt>
</event>
<event>
 4    1  0.7692565E-003  0.8457407E+02  0.7818608E-02  0.1316550E+00
          3   -1    0    0    0  501  0.00000000000E+00  0.00000000000E+00  0.11570915284E+02  0.11571356079E+02  0.10100000000E+00 0.  1.
         -3   -1    0    0  501    0 -0.00000000000E+00 -0.00000000000E+00 -0.15453869509E+03  0.15453872809E+03  0.10100000000E+00 0.  1.
          2    1    1    2    0  502 -0.39532557630E+02  0.16753488772E+01 -0.10078511663E+03  0.10827404882E+03  0.25500000000E-02 0.  1.
         -2    1    1    2  502    0  0.39532557630E+02 -0.16753488772E+01 -0.42182663175E+02  0.57836035355E+02  0.25500000000E-02 0.  1.
<mgrwt>
<rscale>  0 0.84574074E+02</rscale>
<asrwt>0</asrwt>
<pdfrwt beam="1">  1        3 0.17801774E-02 0.84574074E+02</pdfrwt>
<pdfrwt beam="2">  1       -3 0.23775219E-01 0.84574074E+02</pdfrwt>
<totfact> 0.37149134E+04</totfact>
</mgrwt>
</event>
<event>
 4    1  0.7692565E-003  0.4453627E+02  0.7818608E-02  0.1477258E+00
          3   -1    0    0    0  501  0.00000000000E+00  0.00000000000E+00  0.20352110126E+03  0.20352112632E+03  0.10100000000E+00 0. -1.
         -3   -1    0    0  501    0 -0.00000000000E+00 -0.00000000000E+00 -0.24353820557E+01  0.24374754885E+01  0.10100000000E+00 0. -1.
          2    1    1    2    0  502  0.22252417960E+02  0.79092401364E+00  0.10180192974E+03  0.10420858204E+03  0.25500000000E-02 0. -1.
         -2    1    1    2  502    0 -0.22252417960E+02 -0.79092401364E+00  0.99283789466E+02  0.10175001977E+03  0.25500000000E-02 0. -1.
<mgrwt>
<rscale>  0 0.44536268E+02</rscale>
<asrwt>0</asrwt>
<pdfrwt beam="1">  1        3 0.31311109E-01 0.44536268E+02</pdfrwt>
<pdfrwt beam="2">  1       -3 0.37483704E-03 0.44536268E+02</pdfrwt>
<totfact> 0.17846583E+05</totfact>
</mgrwt>
</event>
<event>
 4    1  0.7692565E-003  0.5993822E+02  0.7818608E-02  0.1398091E+00
         -3   -1    0    0  501    0 -0.00000000000E+00  0.00000000000E+00  0.53359034295E+01  0.53368592270E+01  0.10100000000E+00 0.  1.
          3   -1    0    0    0  501  0.00000000000E+00 -0.00000000000E+00 -0.16830552131E+03  0.16830555162E+03  0.10100000000E+00 0.  1.
          2    1    1    2    0  502  0.28093558821E+02  0.76925411561E+01 -0.61056301586E+02  0.67648320057E+02  0.25500000000E-02 0.  1.
         -2    1    1    2  502    0 -0.28093558821E+02 -0.76925411561E+01 -0.10191331630E+03  0.10599409079E+03  0.25500000000E-02 0.  1.
<mgrwt>
<rscale>  0 0.59938222E+02</rscale>
<asrwt>0</asrwt>
<pdfrwt beam="2">  1        3 0.25893229E-01 0.59938222E+02</pdfrwt>
<pdfrwt beam="1">  1       -3 0.82098420E-03 0.59938222E+02</pdfrwt>
<totfact> 0.90224819E+04</totfact>
</mgrwt>
</event>
<event>
 4    1  0.7692565E-003  0.4133249E+02  0.7818608E-02  0.1498629E+00
         -3   -1    0    0  501    0 -0.00000000000E+00  0.00000000000E+00  0.70796556398E+01  0.70803760478E+01  0.10100000000E+00 0. -1.
          3   -1    0    0    0  501  0.00000000000E+00 -0.00000000000E+00 -0.60323065769E+02  0.60323150322E+02  0.10100000000E+00 0. -1.
          2    1    1    2    0  502  0.43805483874E+01  0.20195659605E+02 -0.26296435477E+02  0.33444826152E+02  0.25500000000E-02 0.  1.
         -2    1    1    2  502    0 -0.43805483874E+01 -0.20195659605E+02 -0.26946974652E+02  0.33958700217E+02  0.25500000000E-02 0.  1.
<mgrwt>
<rscale>  0 0.41332489E+02</rscale>
<asrwt>0</asrwt>
<pdfrwt beam="2">  1        3 0.92805333E-02 0.41332489E+02</pdfrwt>
<pdfrwt beam="1">  1       -3 0.10892397E-02 0.41332489E+02</pdfrwt>
<totfact> 0.28984156E+05</totfact>
</mgrwt>
</event>
<event>
 4    1  0.7692565E-003  0.4789548E+02  0.7818608E-02  0.1457035E+00
         -3   -1    0    0  501    0 -0.00000000000E+00  0.00000000000E+00  0.17676593025E+02  0.17676881569E+02  0.10100000000E+00 0. -1.
          3   -1    0    0    0  501  0.00000000000E+00 -0.00000000000E+00 -0.32443075517E+02  0.32443232730E+02  0.10100000000E+00 0. -1.
          2    1    1    2    0  502 -0.14319886082E+02  0.17825217849E+02 -0.14834116414E+02  0.27255248028E+02  0.25500000000E-02 0. -1.
         -2    1    1    2  502    0  0.14319886082E+02 -0.17825217849E+02  0.67633922840E-01  0.22864866271E+02  0.25500000000E-02 0. -1.
<mgrwt>
<rscale>  0 0.47895478E+02</rscale>
<asrwt>0</asrwt>
<pdfrwt beam="2">  1        3 0.49912767E-02 0.47895478E+02</pdfrwt>
<pdfrwt beam="1">  1       -3 0.27195101E-02 0.47895478E+02</pdfrwt>
<totfact> 0.21056814E+05</totfact>
</mgrwt>
</event>
<event>
 4    1  0.7692565E-003  0.4099301E+02  0.7818608E-02  0.1501029E+00
         -3   -1    0    0  501    0 -0.00000000000E+00  0.00000000000E+00  0.21153607730E+02  0.21153848846E+02  0.10100000000E+00 0. -1.
          3   -1    0    0    0  501  0.00000000000E+00 -0.00000000000E+00 -0.19859333459E+02  0.19859590289E+02  0.10100000000E+00 0. -1.
          2    1    1    2    0  502 -0.20339542325E+02  0.16571295991E+01  0.25621687560E+01  0.20567152835E+02  0.25500000000E-02 0.  1.
         -2    1    1    2  502    0  0.20339542325E+02 -0.16571295991E+01 -0.12678944855E+01  0.20446286300E+02  0.25500000000E-02 0.  1.
<mgrwt>
<rscale>  0 0.40993012E+02</rscale>
<asrwt>0</asrwt>
<pdfrwt beam="2">  1        3 0.30553204E-02 0.40993012E+02</pdfrwt>
<pdfrwt beam="1">  1       -3 0.32544395E-02 0.40993012E+02</pdfrwt>
<totfact> 0.31787403E+05</totfact>
</mgrwt>
</event>
<event>
 4    1  0.7692565E-003  0.9334054E+02  0.7818608E-02  0.1294958E+00
          3   -1    0    0    0  501  0.00000000000E+00  0.00000000000E+00  0.47713138748E+03  0.47713139817E+03  0.10100000000E+00 0.  1.
         -3   -1    0    0  501    0 -0.00000000000E+00 -0.00000000000E+00 -0.45644506190E+01  0.45655679223E+01  0.10100000000E+00 0.  1.
          2    1    1    2    0  502 -0.15832107191E+02  0.35642312430E+02  0.10399739827E+03  0.11106974794E+03  0.25500000000E-02 0.  1.
         -2    1    1    2  502    0  0.15832107191E+02 -0.35642312430E+02  0.36856953859E+03  0.37062721815E+03  0.25500000000E-02 0.  1.
<mgrwt>
<rscale>  0 0.93340545E+02</rscale>
<asrwt>0</asrwt>
<pdfrwt beam="1">  1        3 0.73404878E-01 0.93340545E+02</pdfrwt>
<pdfrwt beam="2">  1       -3 0.70231030E-03 0.93340545E+02</pdfrwt>
<totfact> 0.17246618E+04</totfact>
</mgrwt>
</event>
<event>
 4    1  0.7692565E-003  0.5826103E+02  0.7818608E-02  0.1405278E+00
          3   -1    0    0    0  501  0.00000000000E+00  0.00000000000E+00  0.62576631623E+01  0.62584781899E+01  0.10100000000E+00 0. -1.
         -3   -1    0    0  501    0 -0.00000000000E+00 -0.00000000000E+00 -0.13559796845E+03  0.13559800607E+03  0.10100000000E+00 0. -1.
          2    1    1    2    0  502 -0.11629498979E+01  0.21174201765E+02 -0.16041043823E+02  0.26589741750E+02  0.25500000000E-02 0.  1.
         -2    1    1    2  502    0  0.11629498979E+01 -0.21174201765E+02 -0.11329926147E+03  0.11526674251E+03  0.25500000000E-02 0.  1.
<mgrwt>
<rscale>  0 0.58261029E+02</rscale>
<asrwt>0</asrwt>
<pdfrwt beam="1">  1        3 0.96278309E-03 0.58261029E+02</pdfrwt>
<pdfrwt beam="2">  1       -3 0.20861289E-01 0.58261029E+02</pdfrwt>
<totfact> 0.10343577E+05</totfact>
</mgrwt>
</event>
<event>
 4    1  0.7692565E-003  0.4901186E+02  0.7818608E-02  0.1450745E+00
         -3   -1    0    0  501    0 -0.00000000000E+00  0.00000000000E+00  0.19426450128E+02  0.19426712681E+02  0.10100000000E+00 0. -1.
          3   -1    0    0    0  501  0.00000000000E+00 -0.00000000000E+00 -0.30912997902E+02  0.30913162897E+02  0.10100000000E+00 0. -1.
          2    1    1    2    0  502  0.24233698639E+02 -0.34953998652E+01 -0.67960330438E+01  0.25410156268E+02  0.25500000000E-02 0. -1.
         -2    1    1    2  502    0 -0.24233698639E+02  0.34953998652E+01 -0.46905147301E+01  0.24929719310E+02  0.25500000000E-02 0. -1.
<mgrwt>
<rscale>  0 0.49011859E+02</rscale>
<asrwt>0</asrwt>
<pdfrwt beam="2">  1        3 0.47558787E-02 0.49011859E+02</pdfrwt>
<pdfrwt beam="1">  1       -3 0.29887175E-02 0.49011859E+02</pdfrwt>
<totfact> 0.19860739E+05</totfact>
</mgrwt>
</event>
<event>
 4    1  0.7692565E-003  0.4669257E+02  0.7818608E-02  0.1464044E+00
         -3   -1    0    0  501    0 -0.00000000000E+00  0.00000000000E+00  0.41610969348E+02  0.41611091924E+02  0.10100000000E+00 0.  1.
          3   -1    0    0    0  501  0.00000000000E+00 -0.00000000000E+00 -0.13098349327E+02  0.13098738721E+02  0.10100000000E+00 0.  1.
          2    1    1    2    0  502  0.11913981604E+02 -0.19752494337E+02  0.10040617123E+02  0.25157861375E+02  0.25500000000E-02 0. -1.
         -2    1    1    2  502    0 -0.11913981604E+02  0.19752494337E+02  0.18472002898E+02  0.29551969271E+02  0.25500000000E-02 0. -1.
<mgrwt>
<rscale>  0 0.46692570E+02</rscale>
<asrwt>0</asrwt>
<pdfrwt beam="2">  1        3 0.20151701E-02 0.46692570E+02</pdfrwt>
<pdfrwt beam="1">  1       -3 0.64017270E-02 0.46692570E+02</pdfrwt>
<totfact> 0.22167938E+05</totfact>
</mgrwt>
</event>
<event>
 4    1  0.7692565E-003  0.5755379E+02  0.7818608E-02  0.1408394E+00
         -3   -1    0    0  501    0 -0.00000000000E+00  0.00000000000E+00  0.24361973616E+01  0.24382900944E+01  0.10100000000E+00 0. -1.
          3   -1    0    0    0  501  0.00000000000E+00 -0.00000000000E+00 -0.33977097727E+03  0.33977099228E+03  0.10100000000E+00 0. -1.
          2    1    1    2    0  502  0.18862512257E+02 -0.18971538089E+02 -0.10563067356E+03  0.10896583331E+03  0.25500000000E-02 0.  1.
         -2    1    1    2  502    0 -0.18862512257E+02  0.18971538089E+02 -0.23170410635E+03  0.23324344906E+03  0.25500000000E-02 0.  1.
<mgrwt>
<rscale>  0 0.57553794E+02</rscale>
<asrwt>0</asrwt>
<pdfrwt beam="2">  1        3 0.52272583E-01 0.57553794E+02</pdfrwt>
<pdfrwt beam="1">  1       -3 0.37496200E-03 0.57553794E+02</pdfrwt>
<totfact> 0.74523808E+04</totfact>
</mgrwt>
</event>
<event>
 4    1  0.7692565E-003  0.5739410E+02  0.7818608E-02  0.1409105E+00
         -3   -1    0    0  501    0 -0.00000000000E+00  0.00000000000E+00  0.64273034679E+03  0.64273035472E+03  0.10100000000E+00 0.  1.
          3   -1    0    0    0  501  0.00000000000E+00 -0.00000000000E+00 -0.12792867289E+01  0.12832675227E+01  0.10100000000E+00 0.  1.
          2    1    1    2    0  502  0.24288471230E+02 -0.12221066018E+02  0.42371146884E+03  0.42458296377E+03  0.25500000000E-02 0. -1.
         -2    1    1    2  502    0 -0.24288471230E+02  0.12221066018E+02  0.21773959122E+03  0.21943065848E+03  0.25500000000E-02 0. -1.
<mgrwt>
<rscale>  0 0.57394104E+02</rscale>
<asrwt>0</asrwt>
<pdfrwt beam="2">  1        3 0.19712010E-03 0.57394104E+02</pdfrwt>
<pdfrwt beam="1">  1       -3 0.98881933E-01 0.57394104E+02</pdfrwt>
<totfact> 0.49298469E+04</totfact>
</mgrwt>
</event>
<event>
 4    1  0.7692565E-003  0.4438766E+02  0.7818608E-02  0.1478201E+00
          3   -1    0    0    0  501  0.00000000000E+00  0.00000000000E+00  0.15483859197E+02  0.15484188601E+02  0.10100000000E+00 0. -1.
         -3   -1    0    0  501    0 -0.00000000000E+00 -0.00000000000E+00 -0.31810832089E+02  0.31810992427E+02  0.10100000000E+00 0. -1.
          2    1    1    2    0  502 -0.18306364244E+02  0.91564488576E+01  0.97766552799E+00  0.20491934119E+02  0.25500000000E-02 0. -1.
         -2    1    1    2  502    0  0.18306364244E+02 -0.91564488576E+01 -0.17304638420E+02  0.26803246909E+02  0.25500000000E-02 0. -1.
<mgrwt>
<rscale>  0 0.44387657E+02</rscale>
<asrwt>0</asrwt>
<pdfrwt beam="1">  1        3 0.23821699E-02 0.44387657E+02</pdfrwt>
<pdfrwt beam="2">  1       -3 0.48940118E-02 0.44387657E+02</pdfrwt>
<totfact> 0.25660798E+05</totfact>
</mgrwt>
</event>
<event>
 4    1  0.7692565E-003  0.6912560E+02  0.7818608E-02  0.1363092E+00
         -3   -1    0    0  501    0 -0.00000000000E+00  0.00000000000E+00  0.17881231304E+02  0.17881516545E+02  0.10100000000E+00 0. -1.
          3   -1    0    0    0  501  0.00000000000E+00 -0.00000000000E+00 -0.66805906665E+02  0.66805983013E+02  0.10100000000E+00 0. -1.
          2    1    1    2    0  502  0.21059113783E+02 -0.90134307732E+01 -0.56170573334E+02  0.60661862177E+02  0.25500000000E-02 0.  1.
         -2    1    1    2  502    0 -0.21059113783E+02  0.90134307732E+01  0.72458979729E+01  0.24025637381E+02  0.25500000000E-02 0.  1.
<mgrwt>
<rscale>  0 0.69125601E+02</rscale>
<asrwt>0</asrwt>
<pdfrwt beam="2">  1        3 0.10277859E-01 0.69125601E+02</pdfrwt>
<pdfrwt beam="1">  1       -3 0.27509865E-02 0.69125601E+02</pdfrwt>
<totfact> 0.75233162E+04</totfact>
</mgrwt>
</event>
<event>
 4    1  0.7692565E-003  0.9523002E+02  0.7818608E-02  0.1290659E+00
          3   -1    0    0    0  501  0.00000000000E+00  0.00000000000E+00  0.12386920579E+02  0.12387332337E+02  0.10100000000E+00 0.  1.
         -3   -1    0    0  501    0 -0.00000000000E+00 -0.00000000000E+00 -0.18302742597E+03  0.18302745384E+03  0.10100000000E+00 0.  1.
          2    1    1    2    0  502  0.74306899339E+01  0.24157755112E+02 -0.16812610079E+03  0.17001528772E+03  0.25500000000E-02 0.  1.
         -2    1    1    2  502    0 -0.74306899339E+01 -0.24157755112E+02 -0.25144046046E+01  0.25399498459E+02  0.25500000000E-02 0.  1.
<mgrwt>
<rscale>  0 0.95230019E+02</rscale>
<asrwt>0</asrwt>
<pdfrwt beam="1">  1        3 0.19057140E-02 0.95230019E+02</pdfrwt>
<pdfrwt beam="2">  1       -3 0.28158097E-01 0.95230019E+02</pdfrwt>
<totfact> 0.25542221E+04</totfact>
</mgrwt>
</event>
<event>
 4    1  0.7692565E-003  0.1246570E+03  0.7818608E-02  0.1235606E+00
         -3   -1    0    0  501    0 -0.00000000000E+00  0.00000000000E+00  0.20322788473E+04  0.20322788499E+04  0.10100000000E+00 0. -1.
          3   -1    0    0    0  501  0.00000000000E+00 -0.00000000000E+00 -0.19102319855E+01  0.19129002165E+01  0.10100000000E+00 0. -1.
          2    1    1    2    0  502 -0.51043451802E+02  0.25517906047E+01  0.43298516390E+03  0.43599093772E+03  0.25500000000E-02 0.  1.
         -2    1    1    2  502    0  0.51043451802E+02 -0.25517906047E+01  0.15973834515E+04  0.15982008124E+04  0.25500000000E-02 0.  1.
<mgrwt>
<rscale>  0 0.12465698E+03</rscale>
<asrwt>0</asrwt>
<pdfrwt beam="2">  1        3 0.29408655E-03 0.12465698E+03</pdfrwt>
<pdfrwt beam="1">  1       -3 0.31265927E+00 0.12465698E+03</pdfrwt>
<totfact> 0.14780476E+03</totfact>
</mgrwt>
</event>
<event>
 4    1  0.7692565E-003  0.4636002E+02  0.7818608E-02  0.1466026E+00
         -3   -1    0    0  501    0 -0.00000000000E+00  0.00000000000E+00  0.53081994808E+01  0.53091602658E+01  0.10100000000E+00 0.  1.
          3   -1    0    0    0  501  0.00000000000E+00 -0.00000000000E+00 -0.10121303952E+03  0.10121308992E+03  0.10100000000E+00 0.  1.
          2    1    1    2    0  502 -0.21697700828E+02  0.71086224336E+01 -0.38764386458E+02  0.44988891942E+02  0.25500000000E-02 0. -1.
         -2    1    1    2  502    0  0.21697700828E+02 -0.71086224336E+01 -0.57140453583E+02  0.61533358241E+02  0.25500000000E-02 0. -1.
<mgrwt>
<rscale>  0 0.46360020E+02</rscale>
<asrwt>0</asrwt>
<pdfrwt beam="2">  1        3 0.15571313E-01 0.46360020E+02</pdfrwt>
<pdfrwt beam="1">  1       -3 0.81672393E-03 0.46360020E+02</pdfrwt>
<totfact> 0.19858506E+05</totfact>
</mgrwt>
</event>
<event>
 4    1  0.7692565E-003  0.5056249E+02  0.7818608E-02  0.1442331E+00
          3   -1    0    0    0  501  0.00000000000E+00  0.00000000000E+00  0.61903827265E+02  0.61903909659E+02  0.10100000000E+00 0.  1.
         -3   -1    0    0  501    0 -0.00000000000E+00 -0.00000000000E+00 -0.10324408861E+02  0.10324902872E+02  0.10100000000E+00 0.  1.
          2    1    1    2    0  502  0.23993990617E+02  0.57785488799E+00  0.14442683302E+02  0.28011365720E+02  0.25500000000E-02 0.  1.
         -2    1    1    2  502    0 -0.23993990617E+02 -0.57785488799E+00  0.37136735102E+02  0.44217446811E+02  0.25500000000E-02 0.  1.
<mgrwt>
<rscale>  0 0.50562486E+02</rscale>
<asrwt>0</asrwt>
<pdfrwt beam="1">  1        3 0.95237101E-02 0.50562486E+02</pdfrwt>
<pdfrwt beam="2">  1       -3 0.15884149E-02 0.50562486E+02</pdfrwt>
<totfact> 0.17350851E+05</totfact>
</mgrwt>
</event>
<event>
 4    1  0.7692565E-003  0.5201268E+02  0.7818608E-02  0.1434778E+00
          3   -1    0    0    0  501  0.00000000000E+00  0.00000000000E+00  0.40528595852E+03  0.40528597111E+03  0.10100000000E+00 0. -1.
         -3   -1    0    0  501    0 -0.00000000000E+00 -0.00000000000E+00 -0.16672308204E+01  0.16702872832E+01  0.10100000000E+00 0. -1.
          2    1    1    2    0  502 -0.61893594786E+01 -0.19301090176E+02  0.74323466834E+02  0.77037769837E+02  0.25500000000E-02 0. -1.
         -2    1    1    2  502    0  0.61893594786E+01  0.19301090176E+02  0.32929526087E+03  0.32991848855E+03  0.25500000000E-02 0. -1.
<mgrwt>
<rscale>  0 0.52012680E+02</rscale>
<asrwt>0</asrwt>
<pdfrwt beam="1">  1        3 0.62351933E-01 0.52012680E+02</pdfrwt>
<pdfrwt beam="2">  1       -3 0.25673309E-03 0.52012680E+02</pdfrwt>
<totfact> 0.87032362E+04</totfact>
</mgrwt>
</event>
<event>
 4    1  0.7692565E-003  0.4113853E+02  0.7818608E-02  0.1499996E+00
          3   -1    0    0    0  501  0.00000000000E+00  0.00000000000E+00  0.14313838182E+02  0.14314194511E+02  0.10100000000E+00 0.  1.
         -3   -1    0    0  501    0 -0.00000000000E+00 -0.00000000000E+00 -0.29557621194E+02  0.29557793755E+02  0.10100000000E+00 0.  1.
          2    1    1    2    0  502 -0.16122806834E+02 -0.12768295464E+02 -0.79918307789E+01  0.22064533418E+02  0.25500000000E-02 0.  1.
         -2    1    1    2  502    0  0.16122806834E+02  0.12768295464E+02 -0.72519522332E+01  0.21807454848E+02  0.25500000000E-02 0.  1.
<mgrwt>
<rscale>  0 0.41138527E+02</rscale>
<asrwt>0</asrwt>
<pdfrwt beam="1">  1        3 0.22021696E-02 0.41138527E+02</pdfrwt>
<pdfrwt beam="2">  1       -3 0.45473670E-02 0.41138527E+02</pdfrwt>
<totfact> 0.31256159E+05</totfact>
</mgrwt>
</event>
<event>
 4    1  0.7692565E-003  0.4396051E+02  0.7818608E-02  0.1480937E+00
          3   -1    0    0    0  501  0.00000000000E+00  0.00000000000E+00  0.22481421252E+03  0.22481423521E+03  0.10100000000E+00 0. -1.
         -3   -1    0    0  501    0 -0.00000000000E+00 -0.00000000000E+00 -0.21478164502E+01  0.21501898762E+01  0.10100000000E+00 0. -1.
          2    1    1    2    0  502  0.10602983629E+02  0.19027888564E+02  0.12651583041E+03  0.12837733116E+03  0.25500000000E-02 0.  1.
         -2    1    1    2  502    0 -0.10602983629E+02 -0.19027888564E+02  0.96150565662E+02  0.98587093926E+02  0.25500000000E-02 0.  1.
<mgrwt>
<rscale>  0 0.43960509E+02</rscale>
<asrwt>0</asrwt>
<pdfrwt beam="1">  1        3 0.34586964E-01 0.43960509E+02</pdfrwt>
<pdfrwt beam="2">  1       -3 0.33061783E-03 0.43960509E+02</pdfrwt>
<totfact> 0.17717655E+05</totfact>
</mgrwt>
</event>
<event>
 4    1  0.7692565E-003  0.4570840E+02  0.7818608E-02  0.1469967E+00
         -3   -1    0    0  501    0 -0.00000000000E+00  0.00000000000E+00  0.35409710408E+03  0.35409711848E+03  0.10100000000E+00 0.  1.
          3   -1    0    0    0  501  0.00000000000E+00 -0.00000000000E+00 -0.14733166896E+01  0.14767745488E+01  0.10100000000E+00 0.  1.
          2    1    1    2    0  502 -0.14902875689E+02  0.13947338479E+02  0.25628645660E+03  0.25709798093E+03  0.25500000000E-02 0. -1.
         -2    1    1    2  502    0  0.14902875689E+02 -0.13947338479E+02  0.96337330782E+02  0.98475912096E+02  0.25500000000E-02 0. -1.
<mgrwt>
<rscale>  0 0.45708402E+02</rscale>
<asrwt>0</asrwt>
<pdfrwt beam="2">  1        3 0.22693121E-03 0.45708402E+02</pdfrwt>
<pdfrwt beam="1">  1       -3 0.54476744E-01 0.45708402E+02</pdfrwt>
<totfact> 0.12949429E+05</totfact>
</mgrwt>
</event>
<event>
 4    1  0.7692565E-003  0.7743453E+02  0.7818608E-02  0.1336494E+00
          3   -1    0    0    0  501  0.00000000000E+00  0.00000000000E+00  0.74822048058E+02  0.74822116226E+02  0.10100000000E+00 0. -1.
         -3   -1    0    0  501    0 -0.00000000000E+00 -0.00000000000E+00 -0.20034354774E+02  0.20034609360E+02  0.10100000000E+00 0. -1.
          2    1    1    2    0  502 -0.26215227028E+02  0.25976476443E+02  0.13055085376E+02  0.39146528802E+02  0.25500000000E-02 0.  1.
         -2    1    1    2  502    0  0.26215227028E+02 -0.25976476443E+02  0.41732607907E+02  0.55710196785E+02  0.25500000000E-02 0.  1.
<mgrwt>
<rscale>  0 0.77434534E+02</rscale>
<asrwt>0</asrwt>
<pdfrwt beam="1">  1        3 0.11511109E-01 0.77434534E+02</pdfrwt>
<pdfrwt beam="2">  1       -3 0.30822333E-02 0.77434534E+02</pdfrwt>
<totfact> 0.54441716E+04</totfact>
</mgrwt>
</event>
<event>
 4    1  0.7692565E-003  0.7726549E+02  0.7818608E-02  0.1336996E+00
          3   -1    0    0    0  501  0.00000000000E+00  0.00000000000E+00  0.40020871913E+03  0.40020873188E+03  0.10100000000E+00 0.  1.
         -3   -1    0    0  501    0 -0.00000000000E+00 -0.00000000000E+00 -0.37285803372E+01  0.37299480333E+01  0.10100000000E+00 0.  1.
          2    1    1    2    0  502 -0.34977911697E+02  0.82570364844E+00  0.11259879242E+03  0.11790938959E+03  0.25500000000E-02 0.  1.
         -2    1    1    2  502    0  0.34977911697E+02 -0.82570364844E+00  0.28388134638E+03  0.28602929032E+03  0.25500000000E-02 0.  1.
<mgrwt>
<rscale>  0 0.77265495E+02</rscale>
<asrwt>0</asrwt>
<pdfrwt beam="1">  1        3 0.61570673E-01 0.77265495E+02</pdfrwt>
<pdfrwt beam="2">  1       -3 0.57373398E-03 0.77265495E+02</pdfrwt>
<totfact> 0.31770527E+04</totfact>
</mgrwt>
</event>
<event>
 4    1  0.7692565E-003  0.7609298E+02  0.7818608E-02  0.1340519E+00
         -3   -1    0    0  501    0 -0.00000000000E+00  0.00000000000E+00  0.61386749791E+01  0.61395058025E+01  0.10100000000E+00 0. -1.
          3   -1    0    0    0  501  0.00000000000E+00 -0.00000000000E+00 -0.23578905227E+03  0.23578907390E+03  0.10100000000E+00 0. -1.
          2    1    1    2    0  502 -0.12108440774E+02 -0.29815833939E+02 -0.17935465377E+03  0.18221879740E+03  0.25500000000E-02 0.  1.
         -2    1    1    2  502    0  0.12108440774E+02  0.29815833939E+02 -0.50295723519E+02  0.59709782300E+02  0.25500000000E-02 0.  1.
<mgrwt>
<rscale>  0 0.76092982E+02</rscale>
<asrwt>0</asrwt>
<pdfrwt beam="2">  1        3 0.36275297E-01 0.76092982E+02</pdfrwt>
<pdfrwt beam="1">  1       -3 0.94447729E-03 0.76092982E+02</pdfrwt>
<totfact> 0.42824819E+04</totfact>
</mgrwt>
</event>
<event>
 4    1  0.7692565E-003  0.6110413E+02  0.7818608E-02  0.1393256E+00
         -3   -1    0    0  501    0 -0.00000000000E+00  0.00000000000E+00  0.22395587506E+03  0.22395589784E+03  0.10100000000E+00 0. -1.
          3   -1    0    0    0  501  0.00000000000E+00 -0.00000000000E+00 -0.41672791342E+01  0.41685028946E+01  0.10100000000E+00 0. -1.
          2    1    1    2    0  502 -0.24376718554E+00  0.29785625581E+02  0.13526636671E+03  0.13850715824E+03  0.25500000000E-02 0. -1.
         -2    1    1    2  502    0  0.24376718554E+00 -0.29785625581E+02  0.84522229220E+02  0.89617242496E+02  0.25500000000E-02 0. -1.
<mgrwt>
<rscale>  0 0.61104135E+02</rscale>
<asrwt>0</asrwt>
<pdfrwt beam="2">  1        3 0.64121572E-03 0.61104135E+02</pdfrwt>
<pdfrwt beam="1">  1       -3 0.34454848E-01 0.61104135E+02</pdfrwt>
<totfact> 0.77540435E+04</totfact>
</mgrwt>
</event>
<event>
 4    1  0.7692565E-003  0.6003951E+02  0.7818608E-02  0.1397666E+00
          3   -1    0    0    0  501  0.00000000000E+00  0.00000000000E+00  0.78979517518E+02  0.78979582098E+02  0.10100000000E+00 0. -1.
         -3   -1    0    0  501    0 -0.00000000000E+00 -0.00000000000E+00 -0.11410078935E+02  0.11410525943E+02  0.10100000000E+00 0. -1.
          2    1    1    2    0  502  0.23795907419E+02  0.56700828076E+01  0.75875138125E+01  0.25611821905E+02  0.25500000000E-02 0. -1.
         -2    1    1    2  502    0 -0.23795907419E+02 -0.56700828076E+01  0.59981924771E+02  0.64778286136E+02  0.25500000000E-02 0. -1.
<mgrwt>
<rscale>  0 0.60039509E+02</rscale>
<asrwt>0</asrwt>
<pdfrwt beam="1">  1        3 0.12150735E-01 0.60039509E+02</pdfrwt>
<pdfrwt beam="2">  1       -3 0.17554361E-02 0.60039509E+02</pdfrwt>
<totfact> 0.10717420E+05</totfact>
</mgrwt>
</event>
<event>
 4    1  0.7692565E-003  0.8841901E+02  0.7818608E-02  0.1306726E+00
          3   -1    0    0    0  501  0.00000000000E+00  0.00000000000E+00  0.57076504938E+02  0.57076594301E+02  0.10100000000E+00 0.  1.
         -3   -1    0    0  501    0 -0.00000000000E+00 -0.00000000000E+00 -0.34242978947E+02  0.34243127897E+02  0.10100000000E+00 0.  1.
          2    1    1    2    0  502  0.11773732510E+02 -0.31021280902E+02 -0.18757092540E+02  0.38115209209E+02  0.25500000000E-02 0. -1.
         -2    1    1    2  502    0 -0.11773732510E+02  0.31021280902E+02  0.41590618531E+02  0.53204512988E+02  0.25500000000E-02 0. -1.
<mgrwt>
<rscale>  0 0.88419012E+02</rscale>
<asrwt>0</asrwt>
<pdfrwt beam="1">  1        3 0.87810190E-02 0.88419012E+02</pdfrwt>
<pdfrwt beam="2">  1       -3 0.52681690E-02 0.88419012E+02</pdfrwt>
<totfact> 0.38400473E+04</totfact>
</mgrwt>
</event>
<event>
 4    1  0.7692565E-003  0.5062959E+02  0.7818608E-02  0.1441975E+00
         -3   -1    0    0  501    0 -0.00000000000E+00  0.00000000000E+00  0.33705069258E+01  0.33720198601E+01  0.10100000000E+00 0. -1.
          3   -1    0    0    0  501  0.00000000000E+00 -0.00000000000E+00 -0.19008707368E+03  0.19008710051E+03  0.10100000000E+00 0. -1.
          2    1    1    2    0  502  0.18205511676E+02  0.13082227606E+02 -0.13828686840E+03  0.14009226714E+03  0.25500000000E-02 0.  1.
         -2    1    1    2  502    0 -0.18205511676E+02 -0.13082227606E+02 -0.48429698348E+02  0.53366853224E+02  0.25500000000E-02 0.  1.
<mgrwt>
<rscale>  0 0.50629586E+02</rscale>
<asrwt>0</asrwt>
<pdfrwt beam="2">  1        3 0.29244275E-01 0.50629586E+02</pdfrwt>
<pdfrwt beam="1">  1       -3 0.51865812E-03 0.50629586E+02</pdfrwt>
<totfact> 0.13306602E+05</totfact>
</mgrwt>
</event>
<event>
 4    1  0.7692565E-003  0.6667949E+02  0.7818608E-02  0.1371763E+00
          3   -1    0    0    0  501  0.00000000000E+00  0.00000000000E+00  0.17009845318E+02  0.17010145171E+02  0.10100000000E+00 0. -1.
         -3   -1    0    0  501    0 -0.00000000000E+00 -0.00000000000E+00 -0.65345865366E+02  0.65345943420E+02  0.10100000000E+00 0. -1.
          2    1    1    2    0  502 -0.26640294663E+02 -0.17211758261E+02 -0.36859486473E+02  0.48626861628E+02  0.25500000000E-02 0.  1.
         -2    1    1    2  502    0  0.26640294663E+02  0.17211758261E+02 -0.11476533574E+02  0.33729226964E+02  0.25500000000E-02 0.  1.
<mgrwt>
<rscale>  0 0.66679491E+02</rscale>
<asrwt>0</asrwt>
<pdfrwt beam="1">  1        3 0.26169284E-02 0.66679491E+02</pdfrwt>
<pdfrwt beam="2">  1       -3 0.10053239E-01 0.66679491E+02</pdfrwt>
<totfact> 0.83148564E+04</totfact>
</mgrwt>
</event>
<event>
 4    1  0.7692565E-003  0.5004449E+02  0.7818608E-02  0.1445102E+00
          3   -1    0    0    0  501  0.00000000000E+00  0.00000000000E+00  0.16051894262E+01  0.16083637941E+01  0.10100000000E+00 0. -1.
         -3   -1    0    0  501    0 -0.00000000000E+00 -0.00000000000E+00 -0.38966691416E+03  0.38966692725E+03  0.10100000000E+00 0. -1.
          2    1    1    2    0  502 -0.59174786328E+01 -0.24291030447E+02 -0.18604952811E+03  0.18772186242E+03  0.25500000000E-02 0.  1.
         -2    1    1    2  502    0  0.59174786328E+01  0.24291030447E+02 -0.20201219662E+03  0.20355342862E+03  0.25500000000E-02 0.  1.
<mgrwt>
<rscale>  0 0.50044492E+02</rscale>
<asrwt>0</asrwt>
<pdfrwt beam="1">  1        3 0.24719772E-03 0.50044492E+02</pdfrwt>
<pdfrwt beam="2">  1       -3 0.59948926E-01 0.50044492E+02</pdfrwt>
<totfact> 0.98004155E+04</totfact>
</mgrwt>
</event>
<event>
 4    1  0.7692565E-003  0.4048519E+02  0.7818608E-02  0.1504671E+00
         -3   -1    0    0  501    0 -0.00000000000E+00  0.00000000000E+00  0.49497842857E+03  0.49497843888E+03  0.10100000000E+00 0.  1.
          3   -1    0    0    0  501  0.00000000000E+00 -0.00000000000E+00 -0.82474834248E+00  0.83090963914E+00  0.10100000000E+00 0.  1.
          2    1    1    2    0  502 -0.16721939521E+02 -0.11384682759E+02  0.23817518947E+03  0.23903274911E+03  0.25500000000E-02 0.  1.
         -2    1    1    2  502    0  0.16721939521E+02  0.11384682759E+02  0.25597849076E+03  0.25677659941E+03  0.25500000000E-02 0.  1.
<mgrwt>
<rscale>  0 0.40485187E+02</rscale>
<asrwt>0</asrwt>
<pdfrwt beam="2">  1        3 0.12735918E-03 0.40485187E+02</pdfrwt>
<pdfrwt beam="1">  1       -3 0.76150953E-01 0.40485187E+02</pdfrwt>
<totfact> 0.14137806E+05</totfact>
</mgrwt>
</event>
<event>
 4    1  0.7692565E-003  0.5423509E+02  0.7818608E-02  0.1423751E+00
          3   -1    0    0    0  501  0.00000000000E+00  0.00000000000E+00  0.40893887577E+01  0.40906358200E+01  0.10100000000E+00 0.  1.
         -3   -1    0    0  501    0 -0.00000000000E+00 -0.00000000000E+00 -0.17979311260E+03  0.17979314097E+03  0.10100000000E+00 0.  1.
          2    1    1    2    0  502  0.22341347563E+02  0.14804173478E+02 -0.73847096032E+02  0.78560123232E+02  0.25500000000E-02 0. -1.
         -2    1    1    2  502    0 -0.22341347563E+02 -0.14804173478E+02 -0.10185662781E+03  0.10532365356E+03  0.25500000000E-02 0. -1.
<mgrwt>
<rscale>  0 0.54235088E+02</rscale>
<asrwt>0</asrwt>
<pdfrwt beam="1">  1        3 0.62923498E-03 0.54235088E+02</pdfrwt>
<pdfrwt beam="2">  1       -3 0.27660571E-01 0.54235088E+02</pdfrwt>
<totfact> 0.11403864E+05</totfact>
</mgrwt>
</event>
<event>
 4    1  0.7692565E-003  0.8311693E+02  0.7818608E-02  0.1320432E+00
         -3   -1    0    0  501    0 -0.00000000000E+00  0.00000000000E+00  0.26897045979E+01  0.26916002348E+01  0.10100000000E+00 0.  1.
          3   -1    0    0    0  501  0.00000000000E+00 -0.00000000000E+00 -0.64188921164E+03  0.64188921958E+03  0.10100000000E+00 0.  1.
          2    1    1    2    0  502 -0.77061824394E+01 -0.25416678761E+02 -0.71713539637E+02  0.76473685544E+02  0.25500000000E-02 0.  1.
         -2    1    1    2  502    0  0.77061824394E+01  0.25416678761E+02 -0.56748596740E+03  0.56810713427E+03  0.25500000000E-02 0.  1.
<mgrwt>
<rscale>  0 0.83116927E+02</rscale>
<asrwt>0</asrwt>
<pdfrwt beam="2">  1        3 0.98752211E-01 0.83116927E+02</pdfrwt>
<pdfrwt beam="1">  1       -3 0.41394765E-03 0.83116927E+02</pdfrwt>
<totfact> 0.19012777E+04</totfact>
</mgrwt>
</event>
<event>
 4    1  0.7692565E-003  0.5539336E+02  0.7818608E-02  0.1418248E+00
          3   -1    0    0    0  501  0.00000000000E+00  0.00000000000E+00  0.17830124046E+03  0.17830126907E+03  0.10100000000E+00 0. -1.
         -3   -1    0    0  501    0 -0.00000000000E+00 -0.00000000000E+00 -0.43016820406E+01  0.43028675762E+01  0.10100000000E+00 0. -1.
          2    1    1    2    0  502  0.27170226035E+02  0.11480977944E+01  0.69691817976E+02  0.74809683936E+02  0.25500000000E-02 0. -1.
         -2    1    1    2  502    0 -0.27170226035E+02 -0.11480977944E+01  0.10430774044E+03  0.10779445271E+03  0.25500000000E-02 0. -1.
<mgrwt>
<rscale>  0 0.55393361E+02</rscale>
<asrwt>0</asrwt>
<pdfrwt beam="1">  1        3 0.27431052E-01 0.55393361E+02</pdfrwt>
<pdfrwt beam="2">  1       -3 0.66189067E-03 0.55393361E+02</pdfrwt>
<totfact> 0.10836984E+05</totfact>
</mgrwt>
</event>
<event>
 4    1  0.7692565E-003  0.4804949E+02  0.7818608E-02  0.1456155E+00
         -3   -1    0    0  501    0 -0.00000000000E+00  0.00000000000E+00  0.71103208670E+01  0.71110381684E+01  0.10100000000E+00 0. -1.
          3   -1    0    0    0  501  0.00000000000E+00 -0.00000000000E+00 -0.81171304263E+02  0.81171367099E+02  0.10100000000E+00 0. -1.
          2    1    1    2    0  502  0.89169269840E+01  0.22036018407E+02 -0.43419184941E+02  0.49500740616E+02  0.25500000000E-02 0.  1.
         -2    1    1    2  502    0 -0.89169269840E+01 -0.22036018407E+02 -0.30641798455E+02  0.38781664652E+02  0.25500000000E-02 0.  1.
<mgrwt>
<rscale>  0 0.48049493E+02</rscale>
<asrwt>0</asrwt>
<pdfrwt beam="2">  1        3 0.12487952E-01 0.48049493E+02</pdfrwt>
<pdfrwt beam="1">  1       -3 0.10939556E-02 0.48049493E+02</pdfrwt>
<totfact> 0.18958347E+05</totfact>
</mgrwt>
</event>
<event>
 4    1  0.7692565E-003  0.4530347E+02  0.7818608E-02  0.1472456E+00
         -3   -1    0    0  501    0 -0.00000000000E+00  0.00000000000E+00  0.65723327750E+03  0.65723328526E+03  0.10100000000E+00 0. -1.
          3   -1    0    0    0  501  0.00000000000E+00 -0.00000000000E+00 -0.77742433433E+00  0.78395764912E+00  0.10100000000E+00 0. -1.
          2    1    1    2    0  502 -0.11956380346E+02  0.18177959149E+02  0.41975394819E+03  0.42031746366E+03  0.25500000000E-02 0. -1.
         -2    1    1    2  502    0  0.11956380346E+02 -0.18177959149E+02  0.23670190497E+03  0.23769977924E+03  0.25500000000E-02 0. -1.
<mgrwt>
<rscale>  0 0.45303475E+02</rscale>
<asrwt>0</asrwt>
<pdfrwt beam="2">  1        3 0.12010670E-03 0.45303475E+02</pdfrwt>
<pdfrwt beam="1">  1       -3 0.10111349E+00 0.45303475E+02</pdfrwt>
<totfact> 0.87124402E+04</totfact>
</mgrwt>
</event>
<event>
 4    1  0.7692565E-003  0.4106183E+02  0.7818608E-02  0.1500540E+00
          3   -1    0    0    0  501  0.00000000000E+00  0.00000000000E+00  0.25768241902E+02  0.25768439838E+02  0.10100000000E+00 0. -1.
         -3   -1    0    0  501    0 -0.00000000000E+00 -0.00000000000E+00 -0.16357644451E+02  0.16357956259E+02  0.10100000000E+00 0. -1.
          2    1    1    2    0  502 -0.15979191241E+02  0.12886528856E+02  0.50625961866E+01  0.21143014574E+02  0.25500000000E-02 0.  1.
         -2    1    1    2  502    0  0.15979191241E+02 -0.12886528856E+02  0.43480012641E+01  0.20983381523E+02  0.25500000000E-02 0.  1.
<mgrwt>
<rscale>  0 0.41061830E+02</rscale>
<asrwt>0</asrwt>
<pdfrwt beam="1">  1        3 0.39643841E-02 0.41061830E+02</pdfrwt>
<pdfrwt beam="2">  1       -3 0.25165999E-02 0.41061830E+02</pdfrwt>
<totfact> 0.31555252E+05</totfact>
</mgrwt>
</event>
<event>
 4    1  0.7692565E-003  0.4167793E+02  0.7818608E-02  0.1496215E+00
          3   -1    0    0    0  501  0.00000000000E+00  0.00000000000E+00  0.13171946775E+03  0.13171950648E+03  0.10100000000E+00 0. -1.
         -3   -1    0    0  501    0 -0.00000000000E+00 -0.00000000000E+00 -0.32960608483E+01  0.32976079384E+01  0.10100000000E+00 0. -1.
          2    1    1    2    0  502 -0.11202525473E+02  0.17378579575E+02  0.55794630329E+02  0.59502540996E+02  0.25500000000E-02 0.  1.
         -2    1    1    2  502    0  0.11202525473E+02 -0.17378579575E+02  0.72628776577E+02  0.75514573418E+02  0.25500000000E-02 0.  1.
<mgrwt>
<rscale>  0 0.41677929E+02</rscale>
<asrwt>0</asrwt>
<pdfrwt beam="1">  1        3 0.20264650E-01 0.41677929E+02</pdfrwt>
<pdfrwt beam="2">  1       -3 0.50720841E-03 0.41677929E+02</pdfrwt>
<totfact> 0.24217903E+05</totfact>
</mgrwt>
</event>
<event>
 4    1  0.7692565E-003  0.5971963E+02  0.7818608E-02  0.1399012E+00
          3   -1    0    0    0  501  0.00000000000E+00  0.00000000000E+00  0.17939917968E+02  0.17940202276E+02  0.10100000000E+00 0. -1.
         -3   -1    0    0  501    0 -0.00000000000E+00 -0.00000000000E+00 -0.49698974822E+02  0.49699077449E+02  0.10100000000E+00 0. -1.
          2    1    1    2    0  502  0.93698387470E+01  0.27748536543E+02 -0.22467549936E+02  0.36912951183E+02  0.25500000000E-02 0.  1.
         -2    1    1    2  502    0 -0.93698387470E+01 -0.27748536543E+02 -0.92915069169E+01  0.30726328542E+02  0.25500000000E-02 0.  1.
<mgrwt>
<rscale>  0 0.59719632E+02</rscale>
<asrwt>0</asrwt>
<pdfrwt beam="1">  1        3 0.27600172E-02 0.59719632E+02</pdfrwt>
<pdfrwt beam="2">  1       -3 0.76460258E-02 0.59719632E+02</pdfrwt>
<totfact> 0.11474150E+05</totfact>
</mgrwt>
</event>
<event>
 4    1  0.7692565E-003  0.8335611E+02  0.7818608E-02  0.1319788E+00
          3   -1    0    0    0  501  0.00000000000E+00  0.00000000000E+00  0.38141076517E+02  0.38141210243E+02  0.10100000000E+00 0.  1.
         -3   -1    0    0  501    0 -0.00000000000E+00 -0.00000000000E+00 -0.45542760928E+02  0.45542872921E+02  0.10100000000E+00 0.  1.
          2    1    1    2    0  502 -0.83516767242E+00  0.41057948951E+02 -0.10842729441E+02  0.42473726766E+02  0.25500000000E-02 0. -1.
         -2    1    1    2  502    0  0.83516767242E+00 -0.41057948951E+02  0.34410450297E+01  0.41210356399E+02  0.25500000000E-02 0. -1.
<mgrwt>
<rscale>  0 0.83356109E+02</rscale>
<asrwt>0</asrwt>
<pdfrwt beam="1">  1        3 0.58678768E-02 0.83356109E+02</pdfrwt>
<pdfrwt beam="2">  1       -3 0.70065975E-02 0.83356109E+02</pdfrwt>
<totfact> 0.45805332E+04</totfact>
</mgrwt>
</event>
<event>
 4    1  0.7692565E-003  0.7275880E+02  0.7818608E-02  0.1350955E+00
         -3   -1    0    0  501    0 -0.00000000000E+00  0.00000000000E+00  0.12576502200E+03  0.12576506256E+03  0.10100000000E+00 0. -1.
          3   -1    0    0    0  501  0.00000000000E+00 -0.00000000000E+00 -0.10522998360E+02  0.10523483049E+02  0.10100000000E+00 0. -1.
          2    1    1    2    0  502  0.33003307067E+02  0.51460898833E+01  0.84620477851E+02  0.90974313940E+02  0.25500000000E-02 0. -1.
         -2    1    1    2  502    0 -0.33003307067E+02 -0.51460898833E+01  0.30621545788E+02  0.45314231665E+02  0.25500000000E-02 0. -1.
<mgrwt>
<rscale>  0 0.72758805E+02</rscale>
<asrwt>0</asrwt>
<pdfrwt beam="2">  1        3 0.16189633E-02 0.72758805E+02</pdfrwt>
<pdfrwt beam="1">  1       -3 0.19348505E-01 0.72758805E+02</pdfrwt>
<totfact> 0.58788096E+04</totfact>
</mgrwt>
</event>
<event>
 4    1  0.7692565E-003  0.5334257E+02  0.7818608E-02  0.1428104E+00
         -3   -1    0    0  501    0 -0.00000000000E+00  0.00000000000E+00  0.75546542208E+01  0.75553293373E+01  0.10100000000E+00 0. -1.
          3   -1    0    0    0  501  0.00000000000E+00 -0.00000000000E+00 -0.94156575500E+02  0.94156629670E+02  0.10100000000E+00 0. -1.
          2    1    1    2    0  502 -0.10245142305E+02 -0.24440757048E+02 -0.37566717391E+02  0.45973599032E+02  0.25500000000E-02 0. -1.
         -2    1    1    2  502    0  0.10245142305E+02  0.24440757048E+02 -0.49035203889E+02  0.55738359976E+02  0.25500000000E-02 0. -1.
<mgrwt>
<rscale>  0 0.53342571E+02</rscale>
<asrwt>0</asrwt>
<pdfrwt beam="2">  1        3 0.14485682E-01 0.53342571E+02</pdfrwt>
<pdfrwt beam="1">  1       -3 0.11623107E-02 0.53342571E+02</pdfrwt>
<totfact> 0.14126525E+05</totfact>
</mgrwt>
</event>
<event>
 4    1  0.7692565E-003  0.5583864E+02  0.7818608E-02  0.1416174E+00
          3   -1    0    0    0  501  0.00000000000E+00  0.00000000000E+00  0.17402905798E+02  0.17403198878E+02  0.10100000000E+00 0.  1.
         -3   -1    0    0  501    0 -0.00000000000E+00 -0.00000000000E+00 -0.44789983311E+02  0.44790097187E+02  0.10100000000E+00 0.  1.
          2    1    1    2    0  502 -0.19428293377E+02  0.10133699016E+02  0.55768153143E+01  0.22610867184E+02  0.25500000000E-02 0.  1.
         -2    1    1    2  502    0  0.19428293377E+02 -0.10133699016E+02 -0.32963892827E+02  0.39582428881E+02  0.25500000000E-02 0.  1.
<mgrwt>
<rscale>  0 0.55838643E+02</rscale>
<asrwt>0</asrwt>
<pdfrwt beam="1">  1        3 0.26774014E-02 0.55838643E+02</pdfrwt>
<pdfrwt beam="2">  1       -3 0.68907980E-02 0.55838643E+02</pdfrwt>
<totfact> 0.13825855E+05</totfact>
</mgrwt>
</event>
<event>
 4    1  0.7692565E-003  0.4637893E+02  0.7818608E-02  0.1465912E+00
         -3   -1    0    0  501    0 -0.00000000000E+00  0.00000000000E+00  0.30059325069E+01  0.30076288395E+01  0.10100000000E+00 0. -1.
          3   -1    0    0    0  501  0.00000000000E+00 -0.00000000000E+00 -0.17884446220E+03  0.17884449072E+03  0.10100000000E+00 0. -1.
          2    1    1    2    0  502 -0.53344248662E+01  0.20571553237E+02 -0.12430366177E+03  0.12610727666E+03  0.25500000000E-02 0. -1.
         -2    1    1    2  502    0  0.53344248662E+01 -0.20571553237E+02 -0.51534867924E+02  0.55744842898E+02  0.25500000000E-02 0. -1.
<mgrwt>
<rscale>  0 0.46378927E+02</rscale>
<asrwt>0</asrwt>
<pdfrwt beam="2">  1        3 0.27514657E-01 0.46378927E+02</pdfrwt>
<pdfrwt beam="1">  1       -3 0.46258398E-03 0.46378927E+02</pdfrwt>
<totfact> 0.16920101E+05</totfact>
</mgrwt>
</event>
<event>
 4    1  0.7692565E-003  0.4840234E+02  0.7818608E-02  0.1454154E+00
         -3   -1    0    0  501    0 -0.00000000000E+00  0.00000000000E+00  0.59258723486E+02  0.59258809557E+02  0.10100000000E+00 0. -1.
          3   -1    0    0    0  501  0.00000000000E+00 -0.00000000000E+00 -0.98833671537E+01  0.98838832093E+01  0.10100000000E+00 0. -1.
          2    1    1    2    0  502 -0.73668714693E+00  0.22700426883E+02  0.12749284584E+02  0.26046042934E+02  0.25500000000E-02 0.  1.
         -2    1    1    2  502    0  0.73668714693E+00 -0.22700426883E+02  0.36626071748E+02  0.43096649833E+02  0.25500000000E-02 0.  1.
<mgrwt>
<rscale>  0 0.48402336E+02</rscale>
<asrwt>0</asrwt>
<pdfrwt beam="2">  1        3 0.15205643E-02 0.48402336E+02</pdfrwt>
<pdfrwt beam="1">  1       -3 0.91167731E-02 0.48402336E+02</pdfrwt>
<totfact> 0.19514476E+05</totfact>
</mgrwt>
</event>
<event>
 4    1  0.7692565E-003  0.1167937E+03  0.7818608E-02  0.1248482E+00
          3   -1    0    0    0  501  0.00000000000E+00  0.00000000000E+00  0.36869346621E+02  0.36869484961E+02  0.10100000000E+00 0.  1.
         -3   -1    0    0  501    0 -0.00000000000E+00 -0.00000000000E+00 -0.92493614984E+02  0.92493670129E+02  0.10100000000E+00 0.  1.
          2    1    1    2    0  502  0.30634338366E+02 -0.15437383916E+02 -0.80157234363E+02  0.87189206536E+02  0.25500000000E-02 0.  1.
         -2    1    1    2  502    0 -0.30634338366E+02  0.15437383916E+02  0.24532966000E+02  0.42173948553E+02  0.25500000000E-02 0.  1.
<mgrwt>
<rscale>  0 0.11679369E+03</rscale>
<asrwt>0</asrwt>
<pdfrwt beam="1">  1        3 0.56722221E-02 0.11679369E+03</pdfrwt>
<pdfrwt beam="2">  1       -3 0.14229802E-01 0.11679369E+03</pdfrwt>
<totfact> 0.16484039E+04</totfact>
</mgrwt>
</event>
<event>
 4    1  0.7692565E-003  0.5433428E+02  0.7818608E-02  0.1423274E+00
         -3   -1    0    0  501    0 -0.00000000000E+00  0.00000000000E+00  0.13140215583E+03  0.13140219465E+03  0.10100000000E+00 0. -1.
          3   -1    0    0    0  501  0.00000000000E+00 -0.00000000000E+00 -0.56162592988E+01  0.56171673921E+01  0.10100000000E+00 0. -1.
          2    1    1    2    0  502 -0.12140646126E+02  0.19336453975E+02  0.10002058557E+03  0.10259342711E+03  0.25500000000E-02 0.  1.
         -2    1    1    2  502    0  0.12140646126E+02 -0.19336453975E+02  0.25765310961E+02  0.34425934934E+02  0.25500000000E-02 0.  1.
<mgrwt>
<rscale>  0 0.54334278E+02</rscale>
<asrwt>0</asrwt>
<pdfrwt beam="2">  1        3 0.86411281E-03 0.54334278E+02</pdfrwt>
<pdfrwt beam="1">  1       -3 0.20215787E-01 0.54334278E+02</pdfrwt>
<totfact> 0.12478737E+05</totfact>
</mgrwt>
</event>
<event>
 4    1  0.7692565E-003  0.8740310E+02  0.7818608E-02  0.1309265E+00
         -3   -1    0    0  501    0 -0.00000000000E+00  0.00000000000E+00  0.20662842474E+02  0.20663089317E+02  0.10100000000E+00 0.  1.
          3   -1    0    0    0  501  0.00000000000E+00 -0.00000000000E+00 -0.92427177770E+02  0.92427232954E+02  0.10100000000E+00 0.  1.
          2    1    1    2    0  502  0.34308447850E+02  0.14062538594E+02 -0.65810037123E+02  0.75536650562E+02  0.25500000000E-02 0.  1.
         -2    1    1    2  502    0 -0.34308447850E+02 -0.14062538594E+02 -0.59542981734E+01  0.37553671709E+02  0.25500000000E-02 0.  1.
<mgrwt>
<rscale>  0 0.87403096E+02</rscale>
<asrwt>0</asrwt>
<pdfrwt beam="2">  1        3 0.14219589E-01 0.87403096E+02</pdfrwt>
<pdfrwt beam="1">  1       -3 0.31789221E-02 0.87403096E+02</pdfrwt>
<totfact> 0.37813976E+04</totfact>
</mgrwt>
</event>
<event>
 4    1  0.7692565E-003  0.1476009E+03  0.7818608E-02  0.1203452E+00
          3   -1    0    0    0  501  0.00000000000E+00  0.00000000000E+00  0.23099758725E+01  0.23121828499E+01  0.10100000000E+00 0.  1.
         -3   -1    0    0  501    0 -0.00000000000E+00 -0.00000000000E+00 -0.23566906041E+04  0.23566906063E+04  0.10100000000E+00 0.  1.
          2    1    1    2    0  502 -0.49467427174E+01  0.39355160655E+02 -0.18252999535E+03  0.18678998405E+03  0.25500000000E-02 0. -1.
         -2    1    1    2  502    0  0.49467427174E+01 -0.39355160655E+02 -0.21718506329E+04  0.21722128051E+04  0.25500000000E-02 0. -1.
<mgrwt>
<rscale>  0 0.14760087E+03</rscale>
<asrwt>0</asrwt>
<pdfrwt beam="1">  1        3 0.35555272E-03 0.14760087E+03</pdfrwt>
<pdfrwt beam="2">  1       -3 0.36256603E+00 0.14760087E+03</pdfrwt>
<totfact> 0.62768616E+02</totfact>
</mgrwt>
</event>
<event>
 4    1  0.7692565E-003  0.5537806E+02  0.7818608E-02  0.1418319E+00
         -3   -1    0    0  501    0 -0.00000000000E+00  0.00000000000E+00  0.29575082240E+01  0.29592323151E+01  0.10100000000E+00 0.  1.
          3   -1    0    0    0  501  0.00000000000E+00 -0.00000000000E+00 -0.25915527961E+03  0.25915529929E+03  0.10100000000E+00 0.  1.
          2    1    1    2    0  502 -0.24495769301E+02 -0.65793278641E+01 -0.75530253197E+02  0.79675274855E+02  0.25500000000E-02 0.  1.
         -2    1    1    2  502    0  0.24495769301E+02  0.65793278641E+01 -0.18066751819E+03  0.18243925675E+03  0.25500000000E-02 0.  1.
<mgrwt>
<rscale>  0 0.55378061E+02</rscale>
<asrwt>0</asrwt>
<pdfrwt beam="2">  1        3 0.39870159E-01 0.55378061E+02</pdfrwt>
<pdfrwt beam="1">  1       -3 0.45513561E-03 0.55378061E+02</pdfrwt>
<totfact> 0.93765162E+04</totfact>
</mgrwt>
</event>
<event>
 4    1  0.7692565E-003  0.5986978E+02  0.7818608E-02  0.1398379E+00
         -3   -1    0    0  501    0 -0.00000000000E+00  0.00000000000E+00  0.36930249023E+02  0.36930387135E+02  0.10100000000E+00 0. -1.
          3   -1    0    0    0  501  0.00000000000E+00 -0.00000000000E+00 -0.24264305593E+02  0.24264515797E+02  0.10100000000E+00 0. -1.
          2    1    1    2    0  502 -0.22952826396E+02  0.18209151654E+02  0.57700059740E-01  0.29298613949E+02  0.25500000000E-02 0.  1.
         -2    1    1    2  502    0  0.22952826396E+02 -0.18209151654E+02  0.12608243371E+02  0.31896288984E+02  0.25500000000E-02 0.  1.
<mgrwt>
<rscale>  0 0.59869776E+02</rscale>
<asrwt>0</asrwt>
<pdfrwt beam="2">  1        3 0.37329969E-02 0.59869776E+02</pdfrwt>
<pdfrwt beam="1">  1       -3 0.56816036E-02 0.59869776E+02</pdfrwt>
<totfact> 0.11584232E+05</totfact>
</mgrwt>
</event>
<event>
 4    1  0.7692565E-003  0.4318506E+02  0.7818608E-02  0.1486001E+00
         -3   -1    0    0  501    0 -0.00000000000E+00  0.00000000000E+00  0.10303735069E+02  0.10304230072E+02  0.10100000000E+00 0.  1.
          3   -1    0    0    0  501  0.00000000000E+00 -0.00000000000E+00 -0.45247718055E+02  0.45247830779E+02  0.10100000000E+00 0.  1.
          2    1    1    2    0  502  0.20949852328E+02 -0.45760007680E+01 -0.14217373978E+02  0.25728774260E+02  0.25500000000E-02 0. -1.
         -2    1    1    2  502    0 -0.20949852328E+02  0.45760007680E+01 -0.20726609008E+02  0.29823286590E+02  0.25500000000E-02 0. -1.
<mgrwt>
<rscale>  0 0.43185061E+02</rscale>
<asrwt>0</asrwt>
<pdfrwt beam="2">  1        3 0.69612340E-02 0.43185061E+02</pdfrwt>
<pdfrwt beam="1">  1       -3 0.15852368E-02 0.43185061E+02</pdfrwt>
<totfact> 0.26855108E+05</totfact>
</mgrwt>
</event>
<event>
 4    1  0.7692565E-003  0.4889462E+02  0.7818608E-02  0.1451396E+00
          3   -1    0    0    0  501  0.00000000000E+00  0.00000000000E+00  0.83570905311E+03  0.83570905922E+03  0.10100000000E+00 0. -1.
         -3   -1    0    0  501    0 -0.00000000000E+00 -0.00000000000E+00 -0.71159428156E+00  0.71872624938E+00  0.10100000000E+00 0. -1.
          2    1    1    2    0  502 -0.19863922194E+02  0.12720783185E+02  0.52740510029E+03  0.52793231909E+03  0.25500000000E-02 0. -1.
         -2    1    1    2  502    0  0.19863922194E+02 -0.12720783185E+02  0.30759235855E+03  0.30849546637E+03  0.25500000000E-02 0. -1.
<mgrwt>
<rscale>  0 0.48894622E+02</rscale>
<asrwt>0</asrwt>
<pdfrwt beam="1">  1        3 0.12857088E+00 0.48894622E+02</pdfrwt>
<pdfrwt beam="2">  1       -3 0.11002537E-03 0.48894622E+02</pdfrwt>
<totfact> 0.58859487E+04</totfact>
</mgrwt>
</event>
<event>
 4    1  0.7692565E-003  0.4556703E+02  0.7818608E-02  0.1470833E+00
          3   -1    0    0    0  501  0.00000000000E+00  0.00000000000E+00  0.36783929686E+03  0.36783931073E+03  0.10100000000E+00 0.  1.
         -3   -1    0    0  501    0 -0.00000000000E+00 -0.00000000000E+00 -0.14093619642E+01  0.14129763431E+01  0.10100000000E+00 0.  1.
          2    1    1    2    0  502  0.20179749649E+02 -0.22646459867E+01  0.26693536680E+03  0.26770663229E+03  0.25500000000E-02 0. -1.
         -2    1    1    2  502    0 -0.20179749649E+02  0.22646459867E+01  0.99494568105E+02  0.10154565479E+03  0.25500000000E-02 0. -1.
<mgrwt>
<rscale>  0 0.45567031E+02</rscale>
<asrwt>0</asrwt>
<pdfrwt beam="1">  1        3 0.56591041E-01 0.45567031E+02</pdfrwt>
<pdfrwt beam="2">  1       -3 0.21710363E-03 0.45567031E+02</pdfrwt>
<totfact> 0.12779331E+05</totfact>
</mgrwt>
</event>
<event>
 4    1  0.7692565E-003  0.6334412E+02  0.7818608E-02  0.1384311E+00
         -3   -1    0    0  501    0 -0.00000000000E+00  0.00000000000E+00  0.51240778120E+03  0.51240779116E+03  0.10100000000E+00 0. -1.
          3   -1    0    0    0  501  0.00000000000E+00 -0.00000000000E+00 -0.19563459309E+01  0.19589513525E+01  0.10100000000E+00 0. -1.
          2    1    1    2    0  502  0.30131013190E+02 -0.68971255798E+01  0.31129107632E+03  0.31282196614E+03  0.25500000000E-02 0.  1.
         -2    1    1    2  502    0 -0.30131013190E+02  0.68971255798E+01  0.19916035895E+03  0.20154477637E+03  0.25500000000E-02 0.  1.
<mgrwt>
<rscale>  0 0.63344124E+02</rscale>
<asrwt>0</asrwt>
<pdfrwt beam="2">  1        3 0.30117735E-03 0.63344124E+02</pdfrwt>
<pdfrwt beam="1">  1       -3 0.78832201E-01 0.63344124E+02</pdfrwt>
<totfact> 0.45401737E+04</totfact>
</mgrwt>
</event>
<event>
 4    1  0.7692565E-003  0.7598243E+02  0.7818608E-02  0.1340855E+00
          3   -1    0    0    0  501  0.00000000000E+00  0.00000000000E+00  0.13833944275E+02  0.13834312965E+02  0.10100000000E+00 0. -1.
         -3   -1    0    0  501    0 -0.00000000000E+00 -0.00000000000E+00 -0.10433088149E+03  0.10433093038E+03  0.10100000000E+00 0. -1.
          2    1    1    2    0  502  0.10241499228E+02  0.23912188382E+02 -0.88308615644E+02  0.92060266474E+02  0.25500000000E-02 0.  1.
         -2    1    1    2  502    0 -0.10241499228E+02 -0.23912188382E+02 -0.21883215722E+01  0.26104976871E+02  0.25500000000E-02 0.  1.
<mgrwt>
<rscale>  0 0.75982426E+02</rscale>
<asrwt>0</asrwt>
<pdfrwt beam="1">  1        3 0.21283313E-02 0.75982426E+02</pdfrwt>
<pdfrwt beam="2">  1       -3 0.16050936E-01 0.75982426E+02</pdfrwt>
<totfact> 0.54445009E+04</totfact>
</mgrwt>
</event>
<event>
 4    1  0.7692565E-003  0.5077127E+02  0.7818608E-02  0.1441225E+00
         -3   -1    0    0  501    0 -0.00000000000E+00  0.00000000000E+00  0.33219004226E+03  0.33219005761E+03  0.10100000000E+00 0. -1.
          3   -1    0    0    0  501  0.00000000000E+00 -0.00000000000E+00 -0.19386153265E+01  0.19412445452E+01  0.10100000000E+00 0. -1.
          2    1    1    2    0  502  0.20628178445E+02  0.14758210309E+02  0.15821085311E+03  0.16023108490E+03  0.25500000000E-02 0. -1.
         -2    1    1    2  502    0 -0.20628178445E+02 -0.14758210309E+02  0.17204057382E+03  0.17390021726E+03  0.25500000000E-02 0. -1.
<mgrwt>
<rscale>  0 0.50771272E+02</rscale>
<asrwt>0</asrwt>
<pdfrwt beam="2">  1        3 0.29845248E-03 0.50771272E+02</pdfrwt>
<pdfrwt beam="1">  1       -3 0.51106271E-01 0.50771272E+02</pdfrwt>
<totfact> 0.10336433E+05</totfact>
</mgrwt>
</event>
<event>
 4    1  0.7692565E-003  0.8807114E+02  0.7818608E-02  0.1307591E+00
          3   -1    0    0    0  501  0.00000000000E+00  0.00000000000E+00  0.38327637846E+02  0.38327770922E+02  0.10100000000E+00 0.  1.
         -3   -1    0    0  501    0 -0.00000000000E+00 -0.00000000000E+00 -0.50593277522E+02  0.50593378335E+02  0.10100000000E+00 0.  1.
          2    1    1    2    0  502  0.43827445083E+02  0.38323488605E+00 -0.10432963070E+02  0.45053729439E+02  0.25500000000E-02 0. -1.
         -2    1    1    2  502    0 -0.43827445083E+02 -0.38323488605E+00 -0.18326766061E+01  0.43867419818E+02  0.25500000000E-02 0. -1.
<mgrwt>
<rscale>  0 0.88071135E+02</rscale>
<asrwt>0</asrwt>
<pdfrwt beam="1">  1        3 0.58965776E-02 0.88071135E+02</pdfrwt>
<pdfrwt beam="2">  1       -3 0.77835992E-02 0.88071135E+02</pdfrwt>
<totfact> 0.39018399E+04</totfact>
</mgrwt>
</event>
<event>
 4    1  0.7692565E-003  0.5812619E+02  0.7818608E-02  0.1405868E+00
          3   -1    0    0    0  501  0.00000000000E+00  0.00000000000E+00  0.50368897680E+02  0.50368998942E+02  0.10100000000E+00 0. -1.
         -3   -1    0    0  501    0 -0.00000000000E+00 -0.00000000000E+00 -0.16769273879E+02  0.16769578034E+02  0.10100000000E+00 0. -1.
          2    1    1    2    0  502 -0.12676702122E+02 -0.22478203617E+02  0.32240139860E+02  0.41296428892E+02  0.25500000000E-02 0. -1.
         -2    1    1    2  502    0  0.12676702122E+02  0.22478203617E+02  0.13594839405E+01  0.25842148085E+02  0.25500000000E-02 0. -1.
<mgrwt>
<rscale>  0 0.58126189E+02</rscale>
<asrwt>0</asrwt>
<pdfrwt beam="1">  1        3 0.77490921E-02 0.58126189E+02</pdfrwt>
<pdfrwt beam="2">  1       -3 0.25799196E-02 0.58126189E+02</pdfrwt>
<totfact> 0.12316885E+05</totfact>
</mgrwt>
</event>
<event>
 4    1  0.7692565E-003  0.4052431E+02  0.7818608E-02  0.1504388E+00
          3   -1    0    0    0  501  0.00000000000E+00  0.00000000000E+00  0.35854565849E+01  0.35868788552E+01  0.10100000000E+00 0. -1.
         -3   -1    0    0  501    0 -0.00000000000E+00 -0.00000000000E+00 -0.11448145446E+03  0.11448149901E+03  0.10100000000E+00 0. -1.
          2    1    1    2    0  502  0.17049561296E+02  0.10883670059E+02 -0.58911359361E+02  0.62287158248E+02  0.25500000000E-02 0. -1.
         -2    1    1    2  502    0 -0.17049561296E+02 -0.10883670059E+02 -0.51984638509E+02  0.55781219615E+02  0.25500000000E-02 0. -1.
<mgrwt>
<rscale>  0 0.40524308E+02</rscale>
<asrwt>0</asrwt>
<pdfrwt beam="1">  1        3 0.55172163E-03 0.40524308E+02</pdfrwt>
<pdfrwt beam="2">  1       -3 0.17612641E-01 0.40524308E+02</pdfrwt>
<totfact> 0.26919026E+05</totfact>
</mgrwt>
</event>
<event>
 4    1  0.7692565E-003  0.5966456E+02  0.7818608E-02  0.1399245E+00
          3   -1    0    0    0  501  0.00000000000E+00  0.00000000000E+00  0.54625202211E+02  0.54625295583E+02  0.10100000000E+00 0. -1.
         -3   -1    0    0  501    0 -0.00000000000E+00 -0.00000000000E+00 -0.16291939684E+02  0.16292252750E+02  0.10100000000E+00 0. -1.
          2    1    1    2    0  502 -0.16727937871E+02 -0.22274266571E+02  0.64759194043E+01  0.28599027873E+02  0.25500000000E-02 0. -1.
         -2    1    1    2  502    0  0.16727937871E+02  0.22274266571E+02  0.31857343122E+02  0.42318520460E+02  0.25500000000E-02 0. -1.
<mgrwt>
<rscale>  0 0.59664559E+02</rscale>
<asrwt>0</asrwt>
<pdfrwt beam="1">  1        3 0.84039084E-02 0.59664559E+02</pdfrwt>
<pdfrwt beam="2">  1       -3 0.25064836E-02 0.59664559E+02</pdfrwt>
<totfact> 0.11408604E+05</totfact>
</mgrwt>
</event>
<event>
 4    1  0.7692565E-003  0.6275412E+02  0.7818608E-02  0.1386624E+00
          3   -1    0    0    0  501  0.00000000000E+00  0.00000000000E+00  0.97408830130E+03  0.97408830653E+03  0.10100000000E+00 0. -1.
         -3   -1    0    0  501    0 -0.00000000000E+00 -0.00000000000E+00 -0.10081805251E+01  0.10132270088E+01  0.10100000000E+00 0. -1.
          2    1    1    2    0  502 -0.17597336456E+02  0.15601780382E+02  0.16378964143E+03  0.16546941847E+03  0.25500000000E-02 0.  1.
         -2    1    1    2  502    0  0.17597336456E+02 -0.15601780382E+02  0.80929047934E+03  0.80963211507E+03  0.25500000000E-02 0.  1.
<mgrwt>
<rscale>  0 0.62754118E+02</rscale>
<asrwt>0</asrwt>
<pdfrwt beam="1">  1        3 0.14986054E+00 0.62754118E+02</pdfrwt>
<pdfrwt beam="2">  1       -3 0.15549286E-03 0.62754118E+02</pdfrwt>
<totfact> 0.27170379E+04</totfact>
</mgrwt>
</event>
<event>
 4    1  0.7692565E-003  0.1541843E+03  0.7818608E-02  0.1195424E+00
          3   -1    0    0    0  501  0.00000000000E+00  0.00000000000E+00  0.13111611775E+04  0.13111611814E+04  0.10100000000E+00 0. -1.
         -3   -1    0    0  501    0 -0.00000000000E+00 -0.00000000000E+00 -0.45322087773E+01  0.45333340271E+01  0.10100000000E+00 0. -1.
          2    1    1    2    0  502 -0.29185199216E+02 -0.49579179393E+02  0.10912068968E+04  0.10927224545E+04  0.25500000000E-02 0. -1.
         -2    1    1    2  502    0  0.29185199216E+02  0.49579179393E+02  0.21542207189E+03  0.22297206091E+03  0.25500000000E-02 0. -1.
<mgrwt>
<rscale>  0 0.15418429E+03</rscale>
<asrwt>0</asrwt>
<pdfrwt beam="1">  1        3 0.20171731E+00 0.15418429E+03</pdfrwt>
<pdfrwt beam="2">  1       -3 0.69734934E-03 0.15418429E+03</pdfrwt>
<totfact> 0.17382641E+03</totfact>
</mgrwt>
</event>
<event>
 4    1  0.7692565E-003  0.5113853E+02  0.7818608E-02  0.1439296E+00
         -3   -1    0    0  501    0 -0.00000000000E+00  0.00000000000E+00  0.39558382613E+02  0.39558511549E+02  0.10100000000E+00 0.  1.
          3   -1    0    0    0  501  0.00000000000E+00 -0.00000000000E+00 -0.16526838819E+02  0.16527147436E+02  0.10100000000E+00 0.  1.
          2    1    1    2    0  502  0.68155537807E+00  0.24711535002E+02  0.18679321294E+02  0.30984536956E+02  0.25500000000E-02 0.  1.
         -2    1    1    2  502    0 -0.68155537807E+00 -0.24711535002E+02  0.43522224996E+01  0.25101122028E+02  0.25500000000E-02 0.  1.
<mgrwt>
<rscale>  0 0.51138529E+02</rscale>
<asrwt>0</asrwt>
<pdfrwt beam="2">  1        3 0.25426243E-02 0.51138529E+02</pdfrwt>
<pdfrwt beam="1">  1       -3 0.60859386E-02 0.51138529E+02</pdfrwt>
<totfact> 0.17573816E+05</totfact>
</mgrwt>
</event>
<event>
 4    1  0.7692565E-003  0.4346889E+02  0.7818608E-02  0.1484133E+00
          3   -1    0    0    0  501  0.00000000000E+00  0.00000000000E+00  0.99086956751E+01  0.99092104117E+01  0.10100000000E+00 0.  1.
         -3   -1    0    0  501    0 -0.00000000000E+00 -0.00000000000E+00 -0.47672080247E+02  0.47672187238E+02  0.10100000000E+00 0.  1.
          2    1    1    2    0  502 -0.97225011129E+01  0.19238855568E+02 -0.22563534872E+02  0.31205347360E+02  0.25500000000E-02 0.  1.
         -2    1    1    2  502    0  0.97225011129E+01 -0.19238855568E+02 -0.15199849700E+02  0.26376050289E+02  0.25500000000E-02 0.  1.
<mgrwt>
<rscale>  0 0.43468887E+02</rscale>
<asrwt>0</asrwt>
<pdfrwt beam="1">  1        3 0.15244626E-02 0.43468887E+02</pdfrwt>
<pdfrwt beam="2">  1       -3 0.73342139E-02 0.43468887E+02</pdfrwt>
<totfact> 0.26282062E+05</totfact>
</mgrwt>
</event>
<event>
 4    1  0.7692565E-003  0.7678145E+02  0.7818608E-02  0.1338442E+00
         -3   -1    0    0  501    0 -0.00000000000E+00  0.00000000000E+00  0.62450938046E+02  0.62451019718E+02  0.10100000000E+00 0. -1.
          3   -1    0    0    0  501  0.00000000000E+00 -0.00000000000E+00 -0.23599886644E+02  0.23600102767E+02  0.10100000000E+00 0. -1.
          2    1    1    2    0  502  0.19231965012E+02  0.16615643825E+02  0.51672509176E+02  0.57584688147E+02  0.25500000000E-02 0. -1.
         -2    1    1    2  502    0 -0.19231965012E+02 -0.16615643825E+02 -0.12821457774E+02  0.28466434338E+02  0.25500000000E-02 0. -1.
<mgrwt>
<rscale>  0 0.76781453E+02</rscale>
<asrwt>0</asrwt>
<pdfrwt beam="2">  1        3 0.36307747E-02 0.76781453E+02</pdfrwt>
<pdfrwt beam="1">  1       -3 0.96078595E-02 0.76781453E+02</pdfrwt>
<totfact> 0.56799131E+04</totfact>
</mgrwt>
</event>
<event>
 4    1  0.7692565E-003  0.7340660E+02  0.7818608E-02  0.1348877E+00
         -3   -1    0    0  501    0 -0.00000000000E+00  0.00000000000E+00  0.13890947694E+03  0.13890951366E+03  0.10100000000E+00 0. -1.
          3   -1    0    0    0  501  0.00000000000E+00 -0.00000000000E+00 -0.96976137326E+01  0.96981396725E+01  0.10100000000E+00 0. -1.
          2    1    1    2    0  502  0.43698277575E+01  0.21511627935E+02  0.50553397520E+01  0.22525585398E+02  0.25500000000E-02 0.  1.
         -2    1    1    2  502    0 -0.43698277575E+01 -0.21511627935E+02  0.12415652346E+03  0.12608206793E+03  0.25500000000E-02 0.  1.
<mgrwt>
<rscale>  0 0.73406601E+02</rscale>
<asrwt>0</asrwt>
<pdfrwt beam="2">  1        3 0.14919838E-02 0.73406601E+02</pdfrwt>
<pdfrwt beam="1">  1       -3 0.21370733E-01 0.73406601E+02</pdfrwt>
<totfact> 0.56014254E+04</totfact>
</mgrwt>
</event>
<event>
 4    1  0.7692565E-003  0.5533483E+02  0.7818608E-02  0.1418522E+00
         -3   -1    0    0  501    0 -0.00000000000E+00  0.00000000000E+00  0.12690347962E+03  0.12690351981E+03  0.10100000000E+00 0.  1.
          3   -1    0    0    0  501  0.00000000000E+00 -0.00000000000E+00 -0.60315682802E+01  0.60324138551E+01  0.10100000000E+00 0.  1.
          2    1    1    2    0  502  0.17079465866E+02  0.19059668613E+02  0.85690422501E+02  0.89430574396E+02  0.25500000000E-02 0.  1.
         -2    1    1    2  502    0 -0.17079465866E+02 -0.19059668613E+02  0.35181488839E+02  0.43505359271E+02  0.25500000000E-02 0.  1.
<mgrwt>
<rscale>  0 0.55334831E+02</rscale>
<asrwt>0</asrwt>
<pdfrwt beam="2">  1        3 0.92800175E-03 0.55334831E+02</pdfrwt>
<pdfrwt beam="1">  1       -3 0.19523680E-01 0.55334831E+02</pdfrwt>
<totfact> 0.12017721E+05</totfact>
</mgrwt>
</event>
<event>
 4    1  0.7692565E-003  0.6720323E+02  0.7818608E-02  0.1369870E+00
          3   -1    0    0    0  501  0.00000000000E+00  0.00000000000E+00  0.37091358162E+01  0.37105106795E+01  0.10100000000E+00 0.  1.
         -3   -1    0    0  501    0 -0.00000000000E+00 -0.00000000000E+00 -0.30434422348E+03  0.30434424023E+03  0.10100000000E+00 0.  1.
          2    1    1    2    0  502 -0.19082897366E+02  0.25462685579E+02 -0.10082744970E+03  0.10572927669E+03  0.25500000000E-02 0. -1.
         -2    1    1    2  502    0  0.19082897366E+02 -0.25462685579E+02 -0.19980763796E+03  0.20232547423E+03  0.25500000000E-02 0. -1.
<mgrwt>
<rscale>  0 0.67203226E+02</rscale>
<asrwt>0</asrwt>
<pdfrwt beam="1">  1        3 0.57074357E-03 0.67203226E+02</pdfrwt>
<pdfrwt beam="2">  1       -3 0.46822276E-01 0.67203226E+02</pdfrwt>
<totfact> 0.52946249E+04</totfact>
</mgrwt>
</event>
<event>
 4    1  0.7692565E-003  0.4672107E+02  0.7818608E-02  0.1463875E+00
         -3   -1    0    0  501    0 -0.00000000000E+00  0.00000000000E+00  0.33561922037E+02  0.33562074009E+02  0.10100000000E+00 0.  1.
          3   -1    0    0    0  501  0.00000000000E+00 -0.00000000000E+00 -0.16259587320E+02  0.16259901009E+02  0.10100000000E+00 0.  1.
          2    1    1    2    0  502 -0.18275272673E+02  0.14407439664E+02  0.10824755669E+02  0.25665838205E+02  0.25500000000E-02 0. -1.
         -2    1    1    2  502    0  0.18275272673E+02 -0.14407439664E+02  0.64775790480E+01  0.24156136814E+02  0.25500000000E-02 0. -1.
<mgrwt>
<rscale>  0 0.46721070E+02</rscale>
<asrwt>0</asrwt>
<pdfrwt beam="2">  1        3 0.25015108E-02 0.46721070E+02</pdfrwt>
<pdfrwt beam="1">  1       -3 0.51634084E-02 0.46721070E+02</pdfrwt>
<totfact> 0.22426958E+05</totfact>
</mgrwt>
</event>
<event>
 4    1  0.7692565E-003  0.4962626E+02  0.7818608E-02  0.1447368E+00
          3   -1    0    0    0  501  0.00000000000E+00  0.00000000000E+00  0.21383027636E+02  0.21383266165E+02  0.10100000000E+00 0.  1.
         -3   -1    0    0  501    0 -0.00000000000E+00 -0.00000000000E+00 -0.28792978325E+02  0.28793155468E+02  0.10100000000E+00 0.  1.
          2    1    1    2    0  502  0.23976236367E+02 -0.51378298771E+01 -0.75463395573E+01  0.25655495579E+02  0.25500000000E-02 0.  1.
         -2    1    1    2  502    0 -0.23976236367E+02  0.51378298771E+01  0.13638886854E+00  0.24520926055E+02  0.25500000000E-02 0.  1.
<mgrwt>
<rscale>  0 0.49626262E+02</rscale>
<asrwt>0</asrwt>
<pdfrwt beam="1">  1        3 0.32897285E-02 0.49626262E+02</pdfrwt>
<pdfrwt beam="2">  1       -3 0.44297210E-02 0.49626262E+02</pdfrwt>
<totfact> 0.19256196E+05</totfact>
</mgrwt>
</event>
<event>
 4    1  0.7692565E-003  0.6488399E+02  0.7818608E-02  0.1378408E+00
         -3   -1    0    0  501    0 -0.00000000000E+00  0.00000000000E+00  0.31895605553E+02  0.31895765465E+02  0.10100000000E+00 0.  1.
          3   -1    0    0    0  501  0.00000000000E+00 -0.00000000000E+00 -0.32997423338E+02  0.32997577910E+02  0.10100000000E+00 0.  1.
          2    1    1    2    0  502  0.25089917960E+02 -0.20349746216E+02  0.24272447447E+01  0.32396105906E+02  0.25500000000E-02 0. -1.
         -2    1    1    2  502    0 -0.25089917960E+02  0.20349746216E+02 -0.35290625300E+01  0.32497237470E+02  0.25500000000E-02 0. -1.
<mgrwt>
<rscale>  0 0.64883989E+02</rscale>
<asrwt>0</asrwt>
<pdfrwt beam="2">  1        3 0.50765508E-02 0.64883989E+02</pdfrwt>
<pdfrwt beam="1">  1       -3 0.49070404E-02 0.64883989E+02</pdfrwt>
<totfact> 0.93114822E+04</totfact>
</mgrwt>
</event>
<event>
 4    1  0.7692565E-003  0.9344206E+02  0.7818608E-02  0.1294724E+00
         -3   -1    0    0  501    0 -0.00000000000E+00  0.00000000000E+00  0.15970086758E+02  0.15970406133E+02  0.10100000000E+00 0.  1.
          3   -1    0    0    0  501  0.00000000000E+00 -0.00000000000E+00 -0.13668225646E+03  0.13668229378E+03  0.10100000000E+00 0.  1.
          2    1    1    2    0  502  0.34531190560E+02 -0.26672295456E+02 -0.87645580002E+02  0.97905884229E+02  0.25500000000E-02 0.  1.
         -2    1    1    2  502    0 -0.34531190560E+02  0.26672295456E+02 -0.33066589702E+02  0.54746815682E+02  0.25500000000E-02 0.  1.
<mgrwt>
<rscale>  0 0.93442062E+02</rscale>
<asrwt>0</asrwt>
<pdfrwt beam="2">  1        3 0.21028066E-01 0.93442062E+02</pdfrwt>
<pdfrwt beam="1">  1       -3 0.24569640E-02 0.93442062E+02</pdfrwt>
<totfact> 0.29137699E+04</totfact>
</mgrwt>
</event>
<event>
 4    1  0.7692565E-003  0.4734284E+02  0.7818608E-02  0.1460224E+00
          3   -1    0    0    0  501  0.00000000000E+00  0.00000000000E+00  0.88707650700E+02  0.88707708197E+02  0.10100000000E+00 0.  1.
         -3   -1    0    0  501    0 -0.00000000000E+00 -0.00000000000E+00 -0.63161971373E+01  0.63170046128E+01  0.10100000000E+00 0.  1.
          2    1    1    2    0  502  0.19792838081E+02 -0.12786856249E+02  0.45717842656E+02  0.51433270124E+02  0.25500000000E-02 0. -1.
         -2    1    1    2  502    0 -0.19792838081E+02  0.12786856249E+02  0.36673610906E+02  0.43591442686E+02  0.25500000000E-02 0. -1.
<mgrwt>
<rscale>  0 0.47342839E+02</rscale>
<asrwt>0</asrwt>
<pdfrwt beam="1">  1        3 0.13647398E-01 0.47342839E+02</pdfrwt>
<pdfrwt beam="2">  1       -3 0.97178915E-03 0.47342839E+02</pdfrwt>
<totfact> 0.19359643E+05</totfact>
</mgrwt>
</event>
<event>
 4    1  0.7692565E-003  0.4298108E+02  0.7818608E-02  0.1487354E+00
          3   -1    0    0    0  501  0.00000000000E+00  0.00000000000E+00  0.15810837729E+01  0.15843064403E+01  0.10100000000E+00 0. -1.
         -3   -1    0    0  501    0 -0.00000000000E+00 -0.00000000000E+00 -0.29180491526E+03  0.29180493274E+03  0.10100000000E+00 0. -1.
          2    1    1    2    0  502 -0.15836023896E+01 -0.21384877460E+02 -0.13540423961E+03  0.13709168061E+03  0.25500000000E-02 0.  1.
         -2    1    1    2  502    0  0.15836023896E+01  0.21384877460E+02 -0.15481959188E+03  0.15629755858E+03  0.25500000000E-02 0.  1.
<mgrwt>
<rscale>  0 0.42981081E+02</rscale>
<asrwt>0</asrwt>
<pdfrwt beam="1">  1        3 0.24349313E-03 0.42981081E+02</pdfrwt>
<pdfrwt beam="2">  1       -3 0.44893270E-01 0.42981081E+02</pdfrwt>
<totfact> 0.16655115E+05</totfact>
</mgrwt>
</event>
<event>
 4    1  0.7692565E-003  0.6986500E+02  0.7818608E-02  0.1360553E+00
         -3   -1    0    0  501    0 -0.00000000000E+00  0.00000000000E+00  0.19427912331E+01  0.19454148081E+01  0.10100000000E+00 0. -1.
          3   -1    0    0    0  501  0.00000000000E+00 -0.00000000000E+00 -0.62768000852E+03  0.62768001665E+03  0.10100000000E+00 0. -1.
          2    1    1    2    0  502 -0.19332931169E+02  0.27237275180E+02 -0.40505964395E+03  0.40643443081E+03  0.25500000000E-02 0.  1.
         -2    1    1    2  502    0  0.19332931169E+02 -0.27237275180E+02 -0.22067757334E+03  0.22319100065E+03  0.25500000000E-02 0.  1.
<mgrwt>
<rscale>  0 0.69865004E+02</rscale>
<asrwt>0</asrwt>
<pdfrwt beam="2">  1        3 0.96566196E-01 0.69865004E+02</pdfrwt>
<pdfrwt beam="1">  1       -3 0.29909390E-03 0.69865004E+02</pdfrwt>
<totfact> 0.30456278E+04</totfact>
</mgrwt>
</event>
<event>
 4    1  0.7692565E-003  0.6019754E+02  0.7818608E-02  0.1397005E+00
         -3   -1    0    0  501    0 -0.00000000000E+00  0.00000000000E+00  0.33772370608E+02  0.33772521634E+02  0.10100000000E+00 0.  1.
          3   -1    0    0    0  501  0.00000000000E+00 -0.00000000000E+00 -0.26824459960E+02  0.26824650103E+02  0.10100000000E+00 0.  1.
          2    1    1    2    0  502 -0.21747608667E+02 -0.31501503715E+01  0.24178778176E+02  0.32672545825E+02  0.25500000000E-02 0.  1.
         -2    1    1    2  502    0  0.21747608667E+02  0.31501503715E+01 -0.17230867528E+02  0.27924625912E+02  0.25500000000E-02 0.  1.
<mgrwt>
<rscale>  0 0.60197539E+02</rscale>
<asrwt>0</asrwt>
<pdfrwt beam="2">  1        3 0.41268663E-02 0.60197539E+02</pdfrwt>
<pdfrwt beam="1">  1       -3 0.51957755E-02 0.60197539E+02</pdfrwt>
<totfact> 0.11439014E+05</totfact>
</mgrwt>
</event>
<event>
 4    1  0.7692565E-003  0.4531407E+02  0.7818608E-02  0.1472390E+00
          3   -1    0    0    0  501  0.00000000000E+00  0.00000000000E+00  0.75275971822E+02  0.75276039580E+02  0.10100000000E+00 0.  1.
         -3   -1    0    0  501    0 -0.00000000000E+00 -0.00000000000E+00 -0.68190111912E+01  0.68197591325E+01  0.10100000000E+00 0.  1.
          2    1    1    2    0  502 -0.93013483901E+01 -0.20626669083E+02  0.36346404173E+02  0.42813965737E+02  0.25500000000E-02 0. -1.
         -2    1    1    2  502    0  0.93013483901E+01  0.20626669083E+02  0.32110556458E+02  0.39281832975E+02  0.25500000000E-02 0. -1.
<mgrwt>
<rscale>  0 0.45314067E+02</rscale>
<asrwt>0</asrwt>
<pdfrwt beam="1">  1        3 0.11580982E-01 0.45314067E+02</pdfrwt>
<pdfrwt beam="2">  1       -3 0.10491414E-02 0.45314067E+02</pdfrwt>
<totfact> 0.22266924E+05</totfact>
</mgrwt>
</event>
<event>
 4    1  0.7692565E-003  0.4851743E+02  0.7818608E-02  0.1453506E+00
          3   -1    0    0    0  501  0.00000000000E+00  0.00000000000E+00  0.82453241445E+03  0.82453242063E+03  0.10100000000E+00 0.  1.
         -3   -1    0    0  501    0 -0.00000000000E+00 -0.00000000000E+00 -0.71014062868E+00  0.71728705028E+00  0.10100000000E+00 0.  1.
          2    1    1    2    0  502 -0.10412958162E+02  0.18346121577E+02  0.20817112722E+03  0.20923725312E+03  0.25500000000E-02 0. -1.
         -2    1    1    2  502    0  0.10412958162E+02 -0.18346121577E+02  0.61565114659E+03  0.61601245457E+03  0.25500000000E-02 0. -1.
<mgrwt>
<rscale>  0 0.48517432E+02</rscale>
<asrwt>0</asrwt>
<pdfrwt beam="1">  1        3 0.12685229E+00 0.48517432E+02</pdfrwt>
<pdfrwt beam="2">  1       -3 0.10980208E-03 0.48517432E+02</pdfrwt>
<totfact> 0.60737847E+04</totfact>
</mgrwt>
</event>
<event>
 4    1  0.7692565E-003  0.5213687E+02  0.7818608E-02  0.1434145E+00
          3   -1    0    0    0  501  0.00000000000E+00  0.00000000000E+00  0.24580271738E+02  0.24580479241E+02  0.10100000000E+00 0. -1.
         -3   -1    0    0  501    0 -0.00000000000E+00 -0.00000000000E+00 -0.27646282752E+02  0.27646467242E+02  0.10100000000E+00 0. -1.
          2    1    1    2    0  502  0.17880740010E+02 -0.18777546235E+02 -0.42295451203E+01  0.26271775051E+02  0.25500000000E-02 0. -1.
         -2    1    1    2  502    0 -0.17880740010E+02  0.18777546235E+02  0.11635341065E+01  0.25955171432E+02  0.25500000000E-02 0. -1.
<mgrwt>
<rscale>  0 0.52136873E+02</rscale>
<asrwt>0</asrwt>
<pdfrwt beam="1">  1        3 0.37816104E-02 0.52136873E+02</pdfrwt>
<pdfrwt beam="2">  1       -3 0.42533044E-02 0.52136873E+02</pdfrwt>
<totfact> 0.16903934E+05</totfact>
</mgrwt>
</event>
<event>
 4    1  0.7692565E-003  0.5850432E+02  0.7818608E-02  0.1404218E+00
         -3   -1    0    0  501    0 -0.00000000000E+00  0.00000000000E+00  0.35102504274E+01  0.35117031571E+01  0.10100000000E+00 0.  1.
          3   -1    0    0    0  501  0.00000000000E+00 -0.00000000000E+00 -0.24371671748E+03  0.24371673841E+03  0.10100000000E+00 0.  1.
          2    1    1    2    0  502 -0.16552275758E+02 -0.21709698837E+02 -0.16450446907E+03  0.16675433790E+03  0.25500000000E-02 0. -1.
         -2    1    1    2  502    0  0.16552275758E+02  0.21709698837E+02 -0.75701997977E+02  0.80474103664E+02  0.25500000000E-02 0. -1.
<mgrwt>
<rscale>  0 0.58504320E+02</rscale>
<asrwt>0</asrwt>
<pdfrwt beam="2">  1        3 0.37494980E-01 0.58504320E+02</pdfrwt>
<pdfrwt beam="1">  1       -3 0.54015208E-03 0.58504320E+02</pdfrwt>
<totfact> 0.83737676E+04</totfact>
</mgrwt>
</event>
<event>
 4    1  0.7692565E-003  0.8820676E+02  0.7818608E-02  0.1307253E+00
         -3   -1    0    0  501    0 -0.00000000000E+00  0.00000000000E+00  0.12208498299E+02  0.12208916075E+02  0.10100000000E+00 0.  1.
          3   -1    0    0    0  501  0.00000000000E+00 -0.00000000000E+00 -0.15932093431E+03  0.15932096632E+03  0.10100000000E+00 0.  1.
          2    1    1    2    0  502 -0.97178108776E+01 -0.39564175886E+02 -0.40706971931E+02  0.57591817406E+02  0.25500000000E-02 0.  1.
         -2    1    1    2  502    0  0.97178108776E+01  0.39564175886E+02 -0.10640546407E+03  0.11393806499E+03  0.25500000000E-02 0.  1.
<mgrwt>
<rscale>  0 0.88206756E+02</rscale>
<asrwt>0</asrwt>
<pdfrwt beam="2">  1        3 0.24510946E-01 0.88206756E+02</pdfrwt>
<pdfrwt beam="1">  1       -3 0.18782652E-02 0.88206756E+02</pdfrwt>
<totfact> 0.32842941E+04</totfact>
</mgrwt>
</event>
<event>
 4    1  0.7692565E-003  0.5376741E+02  0.7818608E-02  0.1426019E+00
         -3   -1    0    0  501    0 -0.00000000000E+00  0.00000000000E+00  0.11832640634E+03  0.11832644944E+03  0.10100000000E+00 0.  1.
          3   -1    0    0    0  501  0.00000000000E+00 -0.00000000000E+00 -0.61075042046E+01  0.61083392677E+01  0.10100000000E+00 0.  1.
          2    1    1    2    0  502 -0.10947607734E+02 -0.19671447991E+02  0.22102572232E+02  0.31549004532E+02  0.25500000000E-02 0. -1.
         -2    1    1    2  502    0  0.10947607734E+02  0.19671447991E+02  0.90116329901E+02  0.92885784178E+02  0.25500000000E-02 0. -1.
<mgrwt>
<rscale>  0 0.53767412E+02</rscale>
<asrwt>0</asrwt>
<pdfrwt beam="2">  1        3 0.93968365E-03 0.53767412E+02</pdfrwt>
<pdfrwt beam="1">  1       -3 0.18204129E-01 0.53767412E+02</pdfrwt>
<totfact> 0.13164513E+05</totfact>
</mgrwt>
</event>
<event>
 4    1  0.7692565E-003  0.4236328E+02  0.7818608E-02  0.1491507E+00
         -3   -1    0    0  501    0 -0.00000000000E+00  0.00000000000E+00  0.70341900130E+00  0.71063302160E+00  0.10100000000E+00 0. -1.
          3   -1    0    0    0  501  0.00000000000E+00 -0.00000000000E+00 -0.63456891663E+03  0.63456892467E+03  0.10100000000E+00 0. -1.
          2    1    1    2    0  502 -0.63156102534E+01  0.20185916748E+02 -0.29981063624E+03  0.30055577815E+03  0.25500000000E-02 0.  1.
         -2    1    1    2  502    0  0.63156102534E+01 -0.20185916748E+02 -0.33405486139E+03  0.33472377954E+03  0.25500000000E-02 0.  1.
<mgrwt>
<rscale>  0 0.42363278E+02</rscale>
<asrwt>0</asrwt>
<pdfrwt beam="2">  1        3 0.97626088E-01 0.42363278E+02</pdfrwt>
<pdfrwt beam="1">  1       -3 0.10877436E-03 0.42363278E+02</pdfrwt>
<totfact> 0.10570161E+05</totfact>
</mgrwt>
</event>
<event>
 4    1  0.7692565E-003  0.9464240E+02  0.7818608E-02  0.1291984E+00
         -3   -1    0    0  501    0 -0.00000000000E+00  0.00000000000E+00  0.60187547582E+03  0.60187548429E+03  0.10100000000E+00 0.  1.
          3   -1    0    0    0  501  0.00000000000E+00 -0.00000000000E+00 -0.37198363692E+01  0.37212072791E+01  0.10100000000E+00 0.  1.
          2    1    1    2    0  502 -0.11838674882E+02  0.38891422667E+02  0.14410040955E+03  0.14972516494E+03  0.25500000000E-02 0. -1.
         -2    1    1    2  502    0  0.11838674882E+02 -0.38891422667E+02  0.45405522990E+03  0.45587152662E+03  0.25500000000E-02 0. -1.
<mgrwt>
<rscale>  0 0.94642400E+02</rscale>
<asrwt>0</asrwt>
<pdfrwt beam="2">  1        3 0.57238842E-03 0.94642400E+02</pdfrwt>
<pdfrwt beam="1">  1       -3 0.92596366E-01 0.94642400E+02</pdfrwt>
<totfact> 0.14111782E+04</totfact>
</mgrwt>
</event>
<event>
 4    1  0.7692565E-003  0.6928806E+02  0.7818608E-02  0.1362531E+00
          3   -1    0    0    0  501  0.00000000000E+00  0.00000000000E+00  0.41464222888E+02  0.41464345898E+02  0.10100000000E+00 0. -1.
         -3   -1    0    0  501    0 -0.00000000000E+00 -0.00000000000E+00 -0.28945393725E+02  0.28945569935E+02  0.10100000000E+00 0. -1.
          2    1    1    2    0  502 -0.30105684032E+02  0.30112029664E+01 -0.10889522564E+02  0.32155890013E+02  0.25500000000E-02 0. -1.
         -2    1    1    2  502    0  0.30105684032E+02 -0.30112029664E+01  0.23408351728E+02  0.38254025820E+02  0.25500000000E-02 0. -1.
<mgrwt>
<rscale>  0 0.69288059E+02</rscale>
<asrwt>0</asrwt>
<pdfrwt beam="1">  1        3 0.63791342E-02 0.69288059E+02</pdfrwt>
<pdfrwt beam="2">  1       -3 0.44531605E-02 0.69288059E+02</pdfrwt>
<totfact> 0.77321805E+04</totfact>
</mgrwt>
</event>
<event>
 4    1  0.7692565E-003  0.4533281E+02  0.7818608E-02  0.1472275E+00
          3   -1    0    0    0  501  0.00000000000E+00  0.00000000000E+00  0.17401872260E+02  0.17402165358E+02  0.10100000000E+00 0.  1.
         -3   -1    0    0  501    0 -0.00000000000E+00 -0.00000000000E+00 -0.29522967743E+02  0.29523140507E+02  0.10100000000E+00 0.  1.
          2    1    1    2    0  502 -0.21198181386E+02  0.77786436608E+01 -0.40174730653E+01  0.22934914161E+02  0.25500000000E-02 0.  1.
         -2    1    1    2  502    0  0.21198181386E+02 -0.77786436608E+01 -0.81036224184E+01  0.23990391703E+02  0.25500000000E-02 0.  1.
<mgrwt>
<rscale>  0 0.45332807E+02</rscale>
<asrwt>0</asrwt>
<pdfrwt beam="1">  1        3 0.26772470E-02 0.45332807E+02</pdfrwt>
<pdfrwt beam="2">  1       -3 0.45420309E-02 0.45332807E+02</pdfrwt>
<totfact> 0.24374476E+05</totfact>
</mgrwt>
</event>
<event>
 4    1  0.7692565E-003  0.7639549E+02  0.7818608E-02  0.1339603E+00
         -3   -1    0    0  501    0 -0.00000000000E+00  0.00000000000E+00  0.21214346047E+01  0.21238375131E+01  0.10100000000E+00 0. -1.
          3   -1    0    0    0  501  0.00000000000E+00 -0.00000000000E+00 -0.68738238539E+03  0.68738239281E+03  0.10100000000E+00 0. -1.
          2    1    1    2    0  502 -0.29570642234E+02 -0.24034197859E+02 -0.36651339584E+03  0.36848898883E+03  0.25500000000E-02 0.  1.
         -2    1    1    2  502    0  0.29570642234E+02  0.24034197859E+02 -0.31874755494E+03  0.32101724149E+03  0.25500000000E-02 0.  1.
<mgrwt>
<rscale>  0 0.76395491E+02</rscale>
<asrwt>0</asrwt>
<pdfrwt beam="2">  1        3 0.10575114E+00 0.76395491E+02</pdfrwt>
<pdfrwt beam="1">  1       -3 0.32656051E-03 0.76395491E+02</pdfrwt>
<totfact> 0.22454631E+04</totfact>
</mgrwt>
</event>
<event>
 4    1  0.7692565E-003  0.1407221E+03  0.7818608E-02  0.1212361E+00
         -3   -1    0    0  501    0 -0.00000000000E+00  0.00000000000E+00  0.17042953094E+03  0.17042956087E+03  0.10100000000E+00 0.  1.
          3   -1    0    0    0  501  0.00000000000E+00 -0.00000000000E+00 -0.29048129586E+02  0.29048305173E+02  0.10100000000E+00 0.  1.
          2    1    1    2    0  502  0.31972186842E+02 -0.12149535772E+02  0.15785264232E+03  0.16151559877E+03  0.25500000000E-02 0. -1.
         -2    1    1    2  502    0 -0.31972186842E+02  0.12149535772E+02 -0.16471240968E+02  0.37962267272E+02  0.25500000000E-02 0. -1.
<mgrwt>
<rscale>  0 0.14072213E+03</rscale>
<asrwt>0</asrwt>
<pdfrwt beam="2">  1        3 0.44689588E-02 0.14072213E+03</pdfrwt>
<pdfrwt beam="1">  1       -3 0.26219943E-01 0.14072213E+03</pdfrwt>
<totfact> 0.85675635E+03</totfact>
</mgrwt>
</event>
<event>
 4    1  0.7692565E-003  0.4017603E+02  0.7818608E-02  0.1506920E+00
          3   -1    0    0    0  501  0.00000000000E+00  0.00000000000E+00  0.77637300521E+00  0.78291509324E+00  0.10100000000E+00 0. -1.
         -3   -1    0    0  501    0 -0.00000000000E+00 -0.00000000000E+00 -0.51757372294E+03  0.51757373280E+03  0.10100000000E+00 0. -1.
          2    1    1    2    0  502 -0.25149677789E+00  0.20018335095E+02 -0.23707545789E+03  0.23791925044E+03  0.25500000000E-02 0.  1.
         -2    1    1    2  502    0  0.25149677789E+00 -0.20018335095E+02 -0.27972189205E+03  0.28043739745E+03  0.25500000000E-02 0.  1.
<mgrwt>
<rscale>  0 0.40176032E+02</rscale>
<asrwt>0</asrwt>
<pdfrwt beam="1">  1        3 0.11994641E-03 0.40176032E+02</pdfrwt>
<pdfrwt beam="2">  1       -3 0.79626956E-01 0.40176032E+02</pdfrwt>
<totfact> 0.13960695E+05</totfact>
</mgrwt>
</event>
<event>
 4    1  0.7692565E-003  0.4253641E+02  0.7818608E-02  0.1490335E+00
          3   -1    0    0    0  501  0.00000000000E+00  0.00000000000E+00  0.79272992444E+03  0.79272993087E+03  0.10100000000E+00 0.  1.
         -3   -1    0    0  501    0 -0.00000000000E+00 -0.00000000000E+00 -0.56613023545E+00  0.57506907714E+00  0.10100000000E+00 0.  1.
          2    1    1    2    0  502  0.16262553242E+02  0.13561352211E+02  0.35898941378E+03  0.35961337590E+03  0.25500000000E-02 0. -1.
         -2    1    1    2  502    0 -0.16262553242E+02 -0.13561352211E+02  0.43317438042E+03  0.43369162405E+03  0.25500000000E-02 0. -1.
<mgrwt>
<rscale>  0 0.42536409E+02</rscale>
<asrwt>0</asrwt>
<pdfrwt beam="1">  1        3 0.12195958E+00 0.42536409E+02</pdfrwt>
<pdfrwt beam="2">  1       -3 0.87784738E-04 0.42536409E+02</pdfrwt>
<totfact> 0.86803498E+04</totfact>
</mgrwt>
</event>
<event>
 4    1  0.7692565E-003  0.5963892E+02  0.7818608E-02  0.1399353E+00
         -3   -1    0    0  501    0 -0.00000000000E+00  0.00000000000E+00  0.16557028210E+02  0.16557336264E+02  0.10100000000E+00 0.  1.
          3   -1    0    0    0  501  0.00000000000E+00 -0.00000000000E+00 -0.53704446092E+02  0.53704541066E+02  0.10100000000E+00 0.  1.
          2    1    1    2    0  502  0.49350054477E+01  0.27130391148E+02 -0.31943582713E+02  0.42199583952E+02  0.25500000000E-02 0. -1.
         -2    1    1    2  502    0 -0.49350054477E+01 -0.27130391148E+02 -0.52038351690E+01  0.28062293377E+02  0.25500000000E-02 0. -1.
<mgrwt>
<rscale>  0 0.59638920E+02</rscale>
<asrwt>0</asrwt>
<pdfrwt beam="2">  1        3 0.82622534E-02 0.59638920E+02</pdfrwt>
<pdfrwt beam="1">  1       -3 0.25472661E-02 0.59638920E+02</pdfrwt>
<totfact> 0.11439584E+05</totfact>
</mgrwt>
</event>
<event>
 4    1  0.7692565E-003  0.4550641E+02  0.7818608E-02  0.1471205E+00
         -3   -1    0    0  501    0 -0.00000000000E+00  0.00000000000E+00  0.58856708280E+02  0.58856794940E+02  0.10100000000E+00 0. -1.
          3   -1    0    0    0  501  0.00000000000E+00 -0.00000000000E+00 -0.87956974354E+01  0.87962773021E+01  0.10100000000E+00 0. -1.
          2    1    1    2    0  502  0.15559804131E+02  0.15049159841E+02  0.14610687444E+02  0.26116219301E+02  0.25500000000E-02 0.  1.
         -2    1    1    2  502    0 -0.15559804131E+02 -0.15049159841E+02  0.35450323401E+02  0.41536852941E+02  0.25500000000E-02 0.  1.
<mgrwt>
<rscale>  0 0.45506410E+02</rscale>
<asrwt>0</asrwt>
<pdfrwt beam="2">  1        3 0.13532355E-02 0.45506410E+02</pdfrwt>
<pdfrwt beam="1">  1       -3 0.90549294E-02 0.45506410E+02</pdfrwt>
<totfact> 0.22849512E+05</totfact>
</mgrwt>
</event>
<event>
 4    1  0.7692565E-003  0.1115952E+03  0.7818608E-02  0.1257644E+00
          3   -1    0    0    0  501  0.00000000000E+00  0.00000000000E+00  0.96957162890E+01  0.96962423318E+01  0.10100000000E+00 0.  1.
         -3   -1    0    0  501    0 -0.00000000000E+00 -0.00000000000E+00 -0.32109850092E+03  0.32109851680E+03  0.10100000000E+00 0.  1.
          2    1    1    2    0  502 -0.42099044282E+02  0.32351653561E+02 -0.20656298870E+03  0.21327734836E+03  0.25500000000E-02 0.  1.
         -2    1    1    2  502    0  0.42099044282E+02 -0.32351653561E+02 -0.10483979593E+03  0.11751741078E+03  0.25500000000E-02 0.  1.
<mgrwt>
<rscale>  0 0.11159515E+03</rscale>
<asrwt>0</asrwt>
<pdfrwt beam="1">  1        3 0.14916906E-02 0.11159515E+03</pdfrwt>
<pdfrwt beam="2">  1       -3 0.49399803E-01 0.11159515E+03</pdfrwt>
<totfact> 0.13220521E+04</totfact>
</mgrwt>
</event>
<event>
 4    1  0.7692565E-003  0.6702936E+02  0.7818608E-02  0.1370496E+00
         -3   -1    0    0  501    0 -0.00000000000E+00  0.00000000000E+00  0.35990138386E+02  0.35990280105E+02  0.10100000000E+00 0.  1.
          3   -1    0    0    0  501  0.00000000000E+00 -0.00000000000E+00 -0.31209202085E+02  0.31209365514E+02  0.10100000000E+00 0.  1.
          2    1    1    2    0  502  0.18190616057E+02  0.14005402843E+02  0.26869376467E+02  0.35341381121E+02  0.25500000000E-02 0.  1.
         -2    1    1    2  502    0 -0.18190616057E+02 -0.14005402843E+02 -0.22088440167E+02  0.31858264498E+02  0.25500000000E-02 0.  1.
<mgrwt>
<rscale>  0 0.67029359E+02</rscale>
<asrwt>0</asrwt>
<pdfrwt beam="2">  1        3 0.48014392E-02 0.67029359E+02</pdfrwt>
<pdfrwt beam="1">  1       -3 0.55369678E-02 0.67029359E+02</pdfrwt>
<totfact> 0.85021904E+04</totfact>
</mgrwt>
</event>
<event>
 4    1  0.7692565E-003  0.5401217E+02  0.7818608E-02  0.1424829E+00
         -3   -1    0    0  501    0 -0.00000000000E+00  0.00000000000E+00  0.11698402586E+01  0.11741921608E+01  0.10100000000E+00 0.  1.
          3   -1    0    0    0  501  0.00000000000E+00 -0.00000000000E+00 -0.62228113081E+03  0.62228113901E+03  0.10100000000E+00 0.  1.
          2    1    1    2    0  502  0.26757437892E+02 -0.11677890600E+01 -0.27056255464E+03  0.27188493926E+03  0.25500000000E-02 0. -1.
         -2    1    1    2  502    0 -0.26757437892E+02  0.11677890600E+01 -0.35054873591E+03  0.35157039191E+03  0.25500000000E-02 0. -1.
<mgrwt>
<rscale>  0 0.54012172E+02</rscale>
<asrwt>0</asrwt>
<pdfrwt beam="2">  1        3 0.95735630E-01 0.54012172E+02</pdfrwt>
<pdfrwt beam="1">  1       -3 0.18031131E-03 0.54012172E+02</pdfrwt>
<totfact> 0.59012152E+04</totfact>
</mgrwt>
</event>
<event>
 4    1  0.7692565E-003  0.4290045E+02  0.7818608E-02  0.1487891E+00
          3   -1    0    0    0  501  0.00000000000E+00  0.00000000000E+00  0.37307640918E+02  0.37307777633E+02  0.10100000000E+00 0.  1.
         -3   -1    0    0  501    0 -0.00000000000E+00 -0.00000000000E+00 -0.12332551837E+02  0.12332965410E+02  0.10100000000E+00 0.  1.
          2    1    1    2    0  502  0.14791714108E+02 -0.15503821525E+02  0.13614635662E+02  0.25387429938E+02  0.25500000000E-02 0. -1.
         -2    1    1    2  502    0 -0.14791714108E+02  0.15503821525E+02  0.11360453419E+02  0.24253313104E+02  0.25500000000E-02 0. -1.
<mgrwt>
<rscale>  0 0.42900446E+02</rscale>
<asrwt>0</asrwt>
<pdfrwt beam="1">  1        3 0.57396795E-02 0.42900446E+02</pdfrwt>
<pdfrwt beam="2">  1       -3 0.18973580E-02 0.42900446E+02</pdfrwt>
<totfact> 0.27742068E+05</totfact>
</mgrwt>
</event>
<event>
 4    1  0.7692565E-003  0.7220338E+02  0.7818608E-02  0.1352757E+00
          3   -1    0    0    0  501  0.00000000000E+00  0.00000000000E+00  0.26048209978E+03  0.26048211936E+03  0.10100000000E+00 0.  1.
         -3   -1    0    0  501    0 -0.00000000000E+00 -0.00000000000E+00 -0.50030080248E+01  0.50040274076E+01  0.10100000000E+00 0.  1.
          2    1    1    2    0  502 -0.34372100646E-01 -0.24419700467E+02  0.29971526714E+02  0.38660255721E+02  0.25500000000E-02 0. -1.
         -2    1    1    2  502    0  0.34372100646E-01  0.24419700467E+02  0.22550756504E+03  0.22682589104E+03  0.25500000000E-02 0. -1.
<mgrwt>
<rscale>  0 0.72203378E+02</rscale>
<asrwt>0</asrwt>
<pdfrwt beam="1">  1        3 0.40074256E-01 0.72203378E+02</pdfrwt>
<pdfrwt beam="2">  1       -3 0.76977332E-03 0.72203378E+02</pdfrwt>
<totfact> 0.47182019E+04</totfact>
</mgrwt>
</event>
<event>
 4    1  0.7692565E-003  0.5309009E+02  0.7818608E-02  0.1429353E+00
          3   -1    0    0    0  501  0.00000000000E+00  0.00000000000E+00  0.18865291886E+01  0.18892308963E+01  0.10100000000E+00 0.  1.
         -3   -1    0    0  501    0 -0.00000000000E+00 -0.00000000000E+00 -0.37324110313E+03  0.37324111679E+03  0.10100000000E+00 0.  1.
          2    1    1    2    0  502 -0.24466232112E+02 -0.98650350215E+01 -0.16480696326E+03  0.16690491478E+03  0.25500000000E-02 0. -1.
         -2    1    1    2  502    0  0.24466232112E+02  0.98650350215E+01 -0.20654761067E+03  0.20822543291E+03  0.25500000000E-02 0. -1.
<mgrwt>
<rscale>  0 0.53090095E+02</rscale>
<asrwt>0</asrwt>
<pdfrwt beam="1">  1        3 0.29044443E-03 0.53090095E+02</pdfrwt>
<pdfrwt beam="2">  1       -3 0.57421858E-01 0.53090095E+02</pdfrwt>
<totfact> 0.86703716E+04</totfact>
</mgrwt>
</event>
<event>
 4    1  0.7692565E-003  0.9242562E+02  0.7818608E-02  0.1297082E+00
          3   -1    0    0    0  501  0.00000000000E+00  0.00000000000E+00  0.46998463996E+02  0.46998572521E+02  0.10100000000E+00 0.  1.
         -3   -1    0    0  501    0 -0.00000000000E+00 -0.00000000000E+00 -0.45440076077E+02  0.45440188323E+02  0.10100000000E+00 0.  1.
          2    1    1    2    0  502 -0.37553928640E+01  0.27212926263E+02 -0.36387595624E+02  0.45592800453E+02  0.25500000000E-02 0.  1.
         -2    1    1    2  502    0  0.37553928640E+01 -0.27212926263E+02  0.37945983543E+02  0.46845960391E+02  0.25500000000E-02 0.  1.
<mgrwt>
<rscale>  0 0.92425624E+02</rscale>
<asrwt>0</asrwt>
<pdfrwt beam="1">  1        3 0.72305499E-02 0.92425624E+02</pdfrwt>
<pdfrwt beam="2">  1       -3 0.69907979E-02 0.92425624E+02</pdfrwt>
<totfact> 0.33956364E+04</totfact>
</mgrwt>
</event>
<event>
 4    1  0.7692565E-003  0.1132875E+03  0.7818608E-02  0.1254600E+00
         -3   -1    0    0  501    0 -0.00000000000E+00  0.00000000000E+00  0.26699505719E+02  0.26699696752E+02  0.10100000000E+00 0.  1.
          3   -1    0    0    0  501  0.00000000000E+00 -0.00000000000E+00 -0.12017070355E+03  0.12017074600E+03  0.10100000000E+00 0.  1.
          2    1    1    2    0  502  0.51850954827E+01  0.41495883979E+02 -0.96267774158E+02  0.10495845821E+03  0.25500000000E-02 0. -1.
         -2    1    1    2  502    0 -0.51850954827E+01 -0.41495883979E+02  0.27965763226E+01  0.41911984539E+02  0.25500000000E-02 0. -1.
<mgrwt>
<rscale>  0 0.11328752E+03</rscale>
<asrwt>0</asrwt>
<pdfrwt beam="2">  1        3 0.18487818E-01 0.11328752E+03</pdfrwt>
<pdfrwt beam="1">  1       -3 0.41076343E-02 0.11328752E+03</pdfrwt>
<totfact> 0.17351965E+04</totfact>
</mgrwt>
</event>
<event>
 4    1  0.7692565E-003  0.6357011E+02  0.7818608E-02  0.1383432E+00
          3   -1    0    0    0  501  0.00000000000E+00  0.00000000000E+00  0.18943112211E+01  0.18970018456E+01  0.10100000000E+00 0. -1.
         -3   -1    0    0  501    0 -0.00000000000E+00 -0.00000000000E+00 -0.53294714638E+03  0.53294715595E+03  0.10100000000E+00 0. -1.
          2    1    1    2    0  502  0.30678933484E+02 -0.14706770580E+01 -0.19669532659E+03  0.19907890737E+03  0.25500000000E-02 0.  1.
         -2    1    1    2  502    0 -0.30678933484E+02  0.14706770580E+01 -0.33435750857E+03  0.33576525043E+03  0.25500000000E-02 0.  1.
<mgrwt>
<rscale>  0 0.63570114E+02</rscale>
<asrwt>0</asrwt>
<pdfrwt beam="1">  1        3 0.29164063E-03 0.63570114E+02</pdfrwt>
<pdfrwt beam="2">  1       -3 0.81991957E-01 0.63570114E+02</pdfrwt>
<totfact> 0.43767396E+04</totfact>
</mgrwt>
</event>
<event>
 4    1  0.7692565E-003  0.4311290E+02  0.7818608E-02  0.1486478E+00
         -3   -1    0    0  501    0 -0.00000000000E+00  0.00000000000E+00  0.13519065454E+04  0.13519065492E+04  0.10100000000E+00 0. -1.
          3   -1    0    0    0  501  0.00000000000E+00 -0.00000000000E+00 -0.33629903947E+00  0.35113821203E+00  0.10100000000E+00 0. -1.
          2    1    1    2    0  502 -0.96884058233E+01 -0.18916444930E+02  0.78880306828E+03  0.78908933438E+03  0.25500000000E-02 0.  1.
         -2    1    1    2  502    0  0.96884058233E+01  0.18916444930E+02  0.56276717811E+03  0.56316835303E+03  0.25500000000E-02 0.  1.
<mgrwt>
<rscale>  0 0.43112901E+02</rscale>
<asrwt>0</asrwt>
<pdfrwt beam="2">  1        3 0.52879056E-04 0.43112901E+02</pdfrwt>
<pdfrwt beam="1">  1       -3 0.20799079E+00 0.43112901E+02</pdfrwt>
<totfact> 0.47428587E+04</totfact>
</mgrwt>
</event>
<event>
 4    1  0.7692565E-003  0.4811648E+02  0.7818608E-02  0.1455774E+00
          3   -1    0    0    0  501  0.00000000000E+00  0.00000000000E+00  0.12524718056E+02  0.12525125284E+02  0.10100000000E+00 0. -1.
         -3   -1    0    0  501    0 -0.00000000000E+00 -0.00000000000E+00 -0.46211308835E+02  0.46211419208E+02  0.10100000000E+00 0. -1.
          2    1    1    2    0  502  0.10518123286E+02  0.19030817628E+02 -0.42755013210E+01  0.22160389327E+02  0.25500000000E-02 0.  1.
         -2    1    1    2  502    0 -0.10518123286E+02 -0.19030817628E+02 -0.29411089459E+02  0.36576155166E+02  0.25500000000E-02 0.  1.
<mgrwt>
<rscale>  0 0.48116476E+02</rscale>
<asrwt>0</asrwt>
<pdfrwt beam="1">  1        3 0.19269195E-02 0.48116476E+02</pdfrwt>
<pdfrwt beam="2">  1       -3 0.71094719E-02 0.48116476E+02</pdfrwt>
<totfact> 0.20344012E+05</totfact>
</mgrwt>
</event>
<event>
 4    1  0.7692565E-003  0.6872227E+02  0.7818608E-02  0.1364493E+00
         -3   -1    0    0  501    0 -0.00000000000E+00  0.00000000000E+00  0.41874511400E+02  0.41874633204E+02  0.10100000000E+00 0.  1.
          3   -1    0    0    0  501  0.00000000000E+00 -0.00000000000E+00 -0.28195600118E+02  0.28195781014E+02  0.10100000000E+00 0.  1.
          2    1    1    2    0  502  0.23877755527E+02  0.19977767210E+02 -0.79863963257E+01  0.32140954007E+02  0.25500000000E-02 0.  1.
         -2    1    1    2  502    0 -0.23877755527E+02 -0.19977767210E+02  0.21665307607E+02  0.37929460211E+02  0.25500000000E-02 0.  1.
<mgrwt>
<rscale>  0 0.68722270E+02</rscale>
<asrwt>0</asrwt>
<pdfrwt beam="2">  1        3 0.43378079E-02 0.68722270E+02</pdfrwt>
<pdfrwt beam="1">  1       -3 0.64422559E-02 0.68722270E+02</pdfrwt>
<totfact> 0.79076213E+04</totfact>
</mgrwt>
</event>
<event>
 4    1  0.7692565E-003  0.1104901E+03  0.7818608E-02  0.1259665E+00
          3   -1    0    0    0  501  0.00000000000E+00  0.00000000000E+00  0.72077195508E+02  0.72077266272E+02  0.10100000000E+00 0. -1.
         -3   -1    0    0  501    0 -0.00000000000E+00 -0.00000000000E+00 -0.42343536497E+02  0.42343656952E+02  0.10100000000E+00 0. -1.
          2    1    1    2    0  502 -0.53300547160E+01 -0.39440882989E+02  0.54544702831E+02  0.67521236272E+02  0.25500000000E-02 0. -1.
         -2    1    1    2  502    0  0.53300547160E+01  0.39440882989E+02 -0.24811043820E+02  0.46899686952E+02  0.25500000000E-02 0. -1.
<mgrwt>
<rscale>  0 0.11049008E+03</rscale>
<asrwt>0</asrwt>
<pdfrwt beam="1">  1        3 0.11088814E-01 0.11049008E+03</pdfrwt>
<pdfrwt beam="2">  1       -3 0.65144050E-02 0.11049008E+03</pdfrwt>
<totfact> 0.19827575E+04</totfact>
</mgrwt>
</event>
<event>
 4    1  0.7692565E-003  0.5222960E+02  0.7818608E-02  0.1433674E+00
          3   -1    0    0    0  501  0.00000000000E+00  0.00000000000E+00  0.42798718102E+01  0.42810633857E+01  0.10100000000E+00 0.  1.
         -3   -1    0    0  501    0 -0.00000000000E+00 -0.00000000000E+00 -0.15932313451E+03  0.15932316653E+03  0.10100000000E+00 0.  1.
          2    1    1    2    0  502 -0.14039342743E+01  0.25259484145E+02 -0.57228554739E+02  0.62570920201E+02  0.25500000000E-02 0. -1.
         -2    1    1    2  502    0  0.14039342743E+01 -0.25259484145E+02 -0.97814707963E+02  0.10103330971E+03  0.25500000000E-02 0. -1.
<mgrwt>
<rscale>  0 0.52229596E+02</rscale>
<asrwt>0</asrwt>
<pdfrwt beam="1">  1        3 0.65853606E-03 0.52229596E+02</pdfrwt>
<pdfrwt beam="2">  1       -3 0.24511341E-01 0.52229596E+02</pdfrwt>
<totfact> 0.13053165E+05</totfact>
</mgrwt>
</event>
<event>
 4    1  0.7692565E-003  0.5992939E+02  0.7818608E-02  0.1398128E+00
          3   -1    0    0    0  501  0.00000000000E+00  0.00000000000E+00  0.79355735692E+02  0.79355799965E+02  0.10100000000E+00 0.  1.
         -3   -1    0    0  501    0 -0.00000000000E+00 -0.00000000000E+00 -0.11314363566E+02  0.11314814356E+02  0.10100000000E+00 0.  1.
          2    1    1    2    0  502 -0.59760183123E+00  0.28055576136E+02  0.18123074035E+02  0.33405363331E+02  0.25500000000E-02 0. -1.
         -2    1    1    2  502    0  0.59760183123E+00 -0.28055576136E+02  0.49918298090E+02  0.57265250991E+02  0.25500000000E-02 0. -1.
<mgrwt>
<rscale>  0 0.59929392E+02</rscale>
<asrwt>0</asrwt>
<pdfrwt beam="1">  1        3 0.12208614E-01 0.59929392E+02</pdfrwt>
<pdfrwt beam="2">  1       -3 0.17407110E-02 0.59929392E+02</pdfrwt>
<totfact> 0.10761207E+05</totfact>
</mgrwt>
</event>
<event>
 4    1  0.7692565E-003  0.7758267E+02  0.7818608E-02  0.1336055E+00
         -3   -1    0    0  501    0 -0.00000000000E+00  0.00000000000E+00  0.42961197409E+03  0.42961198596E+03  0.10100000000E+00 0.  1.
          3   -1    0    0    0  501  0.00000000000E+00 -0.00000000000E+00 -0.35018808182E+01  0.35033370185E+01  0.10100000000E+00 0.  1.
          2    1    1    2    0  502  0.71704570263E+01  0.29166545981E+02  0.76005759256E+02  0.81725016396E+02  0.25500000000E-02 0.  1.
         -2    1    1    2  502    0 -0.71704570263E+01 -0.29166545981E+02  0.35010433402E+03  0.35139030659E+03  0.25500000000E-02 0.  1.
<mgrwt>
<rscale>  0 0.77582675E+02</rscale>
<asrwt>0</asrwt>
<pdfrwt beam="2">  1        3 0.53886380E-03 0.77582675E+02</pdfrwt>
<pdfrwt beam="1">  1       -3 0.66094266E-01 0.77582675E+02</pdfrwt>
<totfact> 0.30101216E+04</totfact>
</mgrwt>
</event>
<event>
 4    1  0.7692565E-003  0.4844587E+02  0.7818608E-02  0.1453909E+00
          3   -1    0    0    0  501  0.00000000000E+00  0.00000000000E+00  0.17575776457E+02  0.17576066655E+02  0.10100000000E+00 0. -1.
         -3   -1    0    0  501    0 -0.00000000000E+00 -0.00000000000E+00 -0.33383400297E+02  0.33383553082E+02  0.10100000000E+00 0. -1.
          2    1    1    2    0  502 -0.46133874261E+01  0.19615364792E+02 -0.22043962785E+02  0.29866070737E+02  0.25500000000E-02 0. -1.
         -2    1    1    2  502    0  0.46133874261E+01 -0.19615364792E+02  0.62363389453E+01  0.21093549000E+02  0.25500000000E-02 0. -1.
<mgrwt>
<rscale>  0 0.48445865E+02</rscale>
<asrwt>0</asrwt>
<pdfrwt beam="1">  1        3 0.27039997E-02 0.48445865E+02</pdfrwt>
<pdfrwt beam="2">  1       -3 0.51359418E-02 0.48445865E+02</pdfrwt>
<totfact> 0.20415750E+05</totfact>
</mgrwt>
</event>
<event>
 4    1  0.7692565E-003  0.5509173E+02  0.7818608E-02  0.1419666E+00
          3   -1    0    0    0  501  0.00000000000E+00  0.00000000000E+00  0.24613345925E+04  0.24613345946E+04  0.10100000000E+00 0.  1.
         -3   -1    0    0  501    0 -0.00000000000E+00 -0.00000000000E+00 -0.30000299817E+00  0.31654825684E+00  0.10100000000E+00 0.  1.
          2    1    1    2    0  502  0.23565601249E+02  0.10156374136E+02  0.16779814513E+04  0.16781776546E+04  0.25500000000E-02 0. -1.
         -2    1    1    2  502    0 -0.23565601249E+02 -0.10156374136E+02  0.78305313822E+03  0.78347348825E+03  0.25500000000E-02 0. -1.
<mgrwt>
<rscale>  0 0.55091726E+02</rscale>
<asrwt>0</asrwt>
<pdfrwt beam="1">  1        3 0.37866831E+00 0.55091726E+02</pdfrwt>
<pdfrwt beam="2">  1       -3 0.47427157E-04 0.55091726E+02</pdfrwt>
<totfact> 0.81639925E+03</totfact>
</mgrwt>
</event>
<event>
 4    1  0.7692565E-003  0.4872260E+02  0.7818608E-02  0.1452356E+00
          3   -1    0    0    0  501  0.00000000000E+00  0.00000000000E+00  0.38770238803E+03  0.38770240119E+03  0.10100000000E+00 0. -1.
         -3   -1    0    0  501    0 -0.00000000000E+00 -0.00000000000E+00 -0.15290644741E+01  0.15323965433E+01  0.10100000000E+00 0. -1.
          2    1    1    2    0  502 -0.54272906469E+01  0.21050907382E+02  0.10525468643E+03  0.10747625415E+03  0.25500000000E-02 0. -1.
         -2    1    1    2  502    0  0.54272906469E+01 -0.21050907382E+02  0.28091863713E+03  0.28175854358E+03  0.25500000000E-02 0. -1.
<mgrwt>
<rscale>  0 0.48722602E+02</rscale>
<asrwt>0</asrwt>
<pdfrwt beam="1">  1        3 0.59646832E-01 0.48722602E+02</pdfrwt>
<pdfrwt beam="2">  1       -3 0.23549780E-03 0.48722602E+02</pdfrwt>
<totfact> 0.10510903E+05</totfact>
</mgrwt>
</event>
<event>
 4    1  0.7692565E-003  0.4286484E+02  0.7818608E-02  0.1488129E+00
          3   -1    0    0    0  501  0.00000000000E+00  0.00000000000E+00  0.15382554686E+02  0.15382886260E+02  0.10100000000E+00 0.  1.
         -3   -1    0    0  501    0 -0.00000000000E+00 -0.00000000000E+00 -0.29860925625E+02  0.29861096433E+02  0.10100000000E+00 0.  1.
          2    1    1    2    0  502 -0.17852324836E+02  0.11855701426E+02 -0.75478572179E+01  0.22720768328E+02  0.25500000000E-02 0.  1.
         -2    1    1    2  502    0  0.17852324836E+02 -0.11855701426E+02 -0.69305137204E+01  0.22523214364E+02  0.25500000000E-02 0.  1.
<mgrwt>
<rscale>  0 0.42864843E+02</rscale>
<asrwt>0</asrwt>
<pdfrwt beam="1">  1        3 0.23665855E-02 0.42864843E+02</pdfrwt>
<pdfrwt beam="2">  1       -3 0.45940272E-02 0.42864843E+02</pdfrwt>
<totfact> 0.28142522E+05</totfact>
</mgrwt>
</event>
<event>
 4    1  0.7692565E-003  0.9030765E+02  0.7818608E-02  0.1302108E+00
         -3   -1    0    0  501    0 -0.00000000000E+00  0.00000000000E+00  0.82888141073E+01  0.82894294318E+01  0.10100000000E+00 0.  1.
          3   -1    0    0    0  501  0.00000000000E+00 -0.00000000000E+00 -0.24596847795E+03  0.24596849869E+03  0.10100000000E+00 0.  1.
          2    1    1    2    0  502 -0.41772588580E+02 -0.11574916840E+02 -0.15444626743E+03  0.16041376932E+03  0.25500000000E-02 0. -1.
         -2    1    1    2  502    0  0.41772588580E+02  0.11574916840E+02 -0.83233396416E+02  0.93844158806E+02  0.25500000000E-02 0. -1.
<mgrwt>
<rscale>  0 0.90307649E+02</rscale>
<asrwt>0</asrwt>
<pdfrwt beam="2">  1        3 0.37841348E-01 0.90307649E+02</pdfrwt>
<pdfrwt beam="1">  1       -3 0.12752513E-02 0.90307649E+02</pdfrwt>
<totfact> 0.26591047E+04</totfact>
</mgrwt>
</event>
<event>
 4    1  0.7692565E-003  0.6847891E+02  0.7818608E-02  0.1365343E+00
          3   -1    0    0    0  501  0.00000000000E+00  0.00000000000E+00  0.59949123055E+02  0.59949208135E+02  0.10100000000E+00 0.  1.
         -3   -1    0    0  501    0 -0.00000000000E+00 -0.00000000000E+00 -0.19555357373E+02  0.19555618195E+02  0.10100000000E+00 0.  1.
          2    1    1    2    0  502  0.30794044078E+02  0.62984659858E+01  0.35962570809E+02  0.47762436393E+02  0.25500000000E-02 0. -1.
         -2    1    1    2  502    0 -0.30794044078E+02 -0.62984659858E+01  0.44311948725E+01  0.31742389938E+02  0.25500000000E-02 0. -1.
<mgrwt>
<rscale>  0 0.68478910E+02</rscale>
<asrwt>0</asrwt>
<pdfrwt beam="1">  1        3 0.92229685E-02 0.68478910E+02</pdfrwt>
<pdfrwt beam="2">  1       -3 0.30085432E-02 0.68478910E+02</pdfrwt>
<totfact> 0.78051256E+04</totfact>
</mgrwt>
</event>
<event>
 4    1  0.7692565E-003  0.1259089E+03  0.7818608E-02  0.1233656E+00
          3   -1    0    0    0  501  0.00000000000E+00  0.00000000000E+00  0.92449527847E+02  0.92449583017E+02  0.10100000000E+00 0. -1.
         -3   -1    0    0  501    0 -0.00000000000E+00 -0.00000000000E+00 -0.42869366814E+02  0.42869485792E+02  0.10100000000E+00 0. -1.
          2    1    1    2    0  502 -0.48851226152E+02 -0.36345505283E+02  0.41980053546E+02  0.73957845784E+02  0.25500000000E-02 0. -1.
         -2    1    1    2  502    0  0.48851226152E+02  0.36345505283E+02  0.76001074860E+01  0.61361223025E+02  0.25500000000E-02 0. -1.
<mgrwt>
<rscale>  0 0.12590893E+03</rscale>
<asrwt>0</asrwt>
<pdfrwt beam="1">  1        3 0.14223018E-01 0.12590893E+03</pdfrwt>
<pdfrwt beam="2">  1       -3 0.65953006E-02 0.12590893E+03</pdfrwt>
<totfact> 0.13192857E+04</totfact>
</mgrwt>
</event>
<event>
 4    1  0.7692565E-003  0.4507954E+02  0.7818608E-02  0.1473846E+00
          3   -1    0    0    0  501  0.00000000000E+00  0.00000000000E+00  0.28699959550E+01  0.28717725853E+01  0.10100000000E+00 0. -1.
         -3   -1    0    0  501    0 -0.00000000000E+00 -0.00000000000E+00 -0.17696154363E+03  0.17696157245E+03  0.10100000000E+00 0. -1.
          2    1    1    2    0  502 -0.14801433374E+01 -0.22286799274E+02 -0.74979377655E+02  0.78235537490E+02  0.25500000000E-02 0.  1.
         -2    1    1    2  502    0  0.14801433374E+01  0.22286799274E+02 -0.99112170020E+02  0.10159780755E+03  0.25500000000E-02 0.  1.
<mgrwt>
<rscale>  0 0.45079541E+02</rscale>
<asrwt>0</asrwt>
<pdfrwt beam="1">  1        3 0.44167686E-03 0.45079541E+02</pdfrwt>
<pdfrwt beam="2">  1       -3 0.27224983E-01 0.45079541E+02</pdfrwt>
<totfact> 0.18221227E+05</totfact>
</mgrwt>
</event>
<event>
 4    1  0.7692565E-003  0.4911431E+02  0.7818608E-02  0.1450178E+00
         -3   -1    0    0  501    0 -0.00000000000E+00  0.00000000000E+00  0.45119182386E+02  0.45119295431E+02  0.10100000000E+00 0.  1.
          3   -1    0    0    0  501  0.00000000000E+00 -0.00000000000E+00 -0.13365475972E+02  0.13365857584E+02  0.10100000000E+00 0.  1.
          2    1    1    2    0  502 -0.20371458862E+02  0.44073739067E+01  0.41333631109E+00  0.20846873490E+02  0.25500000000E-02 0. -1.
         -2    1    1    2  502    0  0.20371458862E+02 -0.44073739067E+01  0.31340370103E+02  0.37638279525E+02  0.25500000000E-02 0. -1.
<mgrwt>
<rscale>  0 0.49114308E+02</rscale>
<asrwt>0</asrwt>
<pdfrwt beam="2">  1        3 0.20562651E-02 0.49114308E+02</pdfrwt>
<pdfrwt beam="1">  1       -3 0.69414507E-02 0.49114308E+02</pdfrwt>
<totfact> 0.19335074E+05</totfact>
</mgrwt>
</event>
<event>
 4    1  0.7692565E-003  0.4448783E+02  0.7818608E-02  0.1477565E+00
         -3   -1    0    0  501    0 -0.00000000000E+00  0.00000000000E+00  0.15221596762E+03  0.15221600113E+03  0.10100000000E+00 0. -1.
          3   -1    0    0    0  501  0.00000000000E+00 -0.00000000000E+00 -0.32497716749E+01  0.32513407910E+01  0.10100000000E+00 0. -1.
          2    1    1    2    0  502  0.11839616124E+02  0.18185938003E+02  0.57403505779E+02  0.61368292572E+02  0.25500000000E-02 0.  1.
         -2    1    1    2  502    0 -0.11839616124E+02 -0.18185938003E+02  0.91562690164E+02  0.94099049345E+02  0.25500000000E-02 0.  1.
<mgrwt>
<rscale>  0 0.44487828E+02</rscale>
<asrwt>0</asrwt>
<pdfrwt beam="2">  1        3 0.50008814E-03 0.44487828E+02</pdfrwt>
<pdfrwt beam="1">  1       -3 0.23417965E-01 0.44487828E+02</pdfrwt>
<totfact> 0.19772627E+05</totfact>
</mgrwt>
</event>
<event>
 4    1  0.7692565E-003  0.7686883E+02  0.7818608E-02  0.1338180E+00
         -3   -1    0    0  501    0 -0.00000000000E+00  0.00000000000E+00  0.16916656666E+01  0.16946780601E+01  0.10100000000E+00 0.  1.
          3   -1    0    0    0  501  0.00000000000E+00 -0.00000000000E+00 -0.87244488404E+03  0.87244488988E+03  0.10100000000E+00 0.  1.
          2    1    1    2    0  502 -0.10965370797E+02  0.21746845974E+02 -0.77349310684E+03  0.77387644428E+03  0.25500000000E-02 0.  1.
         -2    1    1    2  502    0  0.10965370797E+02 -0.21746845974E+02 -0.97260111529E+02  0.10026312367E+03  0.25500000000E-02 0.  1.
<mgrwt>
<rscale>  0 0.76868829E+02</rscale>
<asrwt>0</asrwt>
<pdfrwt beam="2">  1        3 0.13422216E+00 0.76868829E+02</pdfrwt>
<pdfrwt beam="1">  1       -3 0.26048913E-03 0.76868829E+02</pdfrwt>
<totfact> 0.17927517E+04</totfact>
</mgrwt>
</event>
<event>
 4    1  0.7692565E-003  0.1080466E+03  0.7818608E-02  0.1264231E+00
         -3   -1    0    0  501    0 -0.00000000000E+00  0.00000000000E+00  0.14664011092E+02  0.14664358912E+02  0.10100000000E+00 0. -1.
          3   -1    0    0    0  501  0.00000000000E+00 -0.00000000000E+00 -0.19902317481E+03  0.19902320043E+03  0.10100000000E+00 0. -1.
          2    1    1    2    0  502 -0.52112171882E+02 -0.10341241637E+02 -0.72812094218E+02  0.90134459602E+02  0.25500000000E-02 0.  1.
         -2    1    1    2  502    0  0.52112171882E+02  0.10341241637E+02 -0.11154706950E+03  0.12355309974E+03  0.25500000000E-02 0.  1.
<mgrwt>
<rscale>  0 0.10804662E+03</rscale>
<asrwt>0</asrwt>
<pdfrwt beam="2">  1        3 0.30618977E-01 0.10804662E+03</pdfrwt>
<pdfrwt beam="1">  1       -3 0.22560306E-02 0.10804662E+03</pdfrwt>
<totfact> 0.17510232E+04</totfact>
</mgrwt>
</event>
<event>
 4    1  0.7692565E-003  0.4364368E+02  0.7818608E-02  0.1482991E+00
          3   -1    0    0    0  501  0.00000000000E+00  0.00000000000E+00  0.32279045111E+02  0.32279203124E+02  0.10100000000E+00 0.  1.
         -3   -1    0    0  501    0 -0.00000000000E+00 -0.00000000000E+00 -0.14752013334E+02  0.14752359079E+02  0.10100000000E+00 0.  1.
          2    1    1    2    0  502  0.21340002363E+02 -0.26083846619E+01  0.12794668237E+02  0.25018051747E+02  0.25500000000E-02 0.  1.
         -2    1    1    2  502    0 -0.21340002363E+02  0.26083846619E+01  0.47323635410E+01  0.22013510456E+02  0.25500000000E-02 0.  1.
<mgrwt>
<rscale>  0 0.43643682E+02</rscale>
<asrwt>0</asrwt>
<pdfrwt beam="1">  1        3 0.49660456E-02 0.43643682E+02</pdfrwt>
<pdfrwt beam="2">  1       -3 0.22695793E-02 0.43643682E+02</pdfrwt>
<totfact> 0.26779319E+05</totfact>
</mgrwt>
</event>
<event>
 4    1  0.7692565E-003  0.6899480E+02  0.7818608E-02  0.1363545E+00
          3   -1    0    0    0  501  0.00000000000E+00  0.00000000000E+00  0.54491124643E+01  0.54500484079E+01  0.10100000000E+00 0. -1.
         -3   -1    0    0  501    0 -0.00000000000E+00 -0.00000000000E+00 -0.21837745985E+03  0.21837748321E+03  0.10100000000E+00 0. -1.
          2    1    1    2    0  502  0.26345992115E+02 -0.21334520139E+02 -0.12718536173E+03  0.13162594462E+03  0.25500000000E-02 0. -1.
         -2    1    1    2  502    0 -0.26345992115E+02  0.21334520139E+02 -0.85742985654E+02  0.92201587000E+02  0.25500000000E-02 0. -1.
<mgrwt>
<rscale>  0 0.68994803E+02</rscale>
<asrwt>0</asrwt>
<pdfrwt beam="1">  1        3 0.83839895E-03 0.68994803E+02</pdfrwt>
<pdfrwt beam="2">  1       -3 0.33596599E-01 0.68994803E+02</pdfrwt>
<totfact> 0.57114497E+04</totfact>
</mgrwt>
</event>
<event>
 4    1  0.7692565E-003  0.5679781E+02  0.7818608E-02  0.1411783E+00
         -3   -1    0    0  501    0 -0.00000000000E+00  0.00000000000E+00  0.98433591169E+02  0.98433642985E+02  0.10100000000E+00 0. -1.
          3   -1    0    0    0  501  0.00000000000E+00 -0.00000000000E+00 -0.81929537216E+01  0.81935762451E+01  0.10100000000E+00 0. -1.
          2    1    1    2    0  502  0.24728816021E+02 -0.84419952565E+01  0.24239393595E+02  0.35641686746E+02  0.25500000000E-02 0.  1.
         -2    1    1    2  502    0 -0.24728816021E+02  0.84419952565E+01  0.66001243852E+02  0.70985532485E+02  0.25500000000E-02 0.  1.
<mgrwt>
<rscale>  0 0.56797810E+02</rscale>
<asrwt>0</asrwt>
<pdfrwt beam="2">  1        3 0.12605063E-02 0.56797810E+02</pdfrwt>
<pdfrwt beam="1">  1       -3 0.15143681E-01 0.56797810E+02</pdfrwt>
<totfact> 0.11908949E+05</totfact>
</mgrwt>
</event>
<event>
 4    1  0.7692565E-003  0.5749232E+02  0.7818608E-02  0.1408667E+00
         -3   -1    0    0  501    0 -0.00000000000E+00  0.00000000000E+00  0.66901746800E+02  0.66901823038E+02  0.10100000000E+00 0.  1.
          3   -1    0    0    0  501  0.00000000000E+00 -0.00000000000E+00 -0.12351283212E+02  0.12351696158E+02  0.10100000000E+00 0.  1.
          2    1    1    2    0  502 -0.27609092251E+02  0.67418440159E+01  0.33224785737E+02  0.43721857571E+02  0.25500000000E-02 0. -1.
         -2    1    1    2  502    0  0.27609092251E+02 -0.67418440159E+01  0.21325677850E+02  0.35531661626E+02  0.25500000000E-02 0. -1.
<mgrwt>
<rscale>  0 0.57492323E+02</rscale>
<asrwt>0</asrwt>
<pdfrwt beam="2">  1        3 0.19002350E-02 0.57492323E+02</pdfrwt>
<pdfrwt beam="1">  1       -3 0.10292614E-01 0.57492323E+02</pdfrwt>
<totfact> 0.12300724E+05</totfact>
</mgrwt>
</event>
<event>
 4    1  0.7692565E-003  0.1463095E+03  0.7818608E-02  0.1205083E+00
          3   -1    0    0    0  501  0.00000000000E+00  0.00000000000E+00  0.18425849082E+02  0.18426125892E+02  0.10100000000E+00 0. -1.
         -3   -1    0    0  501    0 -0.00000000000E+00 -0.00000000000E+00 -0.29043827163E+03  0.29043828919E+03  0.10100000000E+00 0. -1.
          2    1    1    2    0  502 -0.58698241324E+02  0.26432713787E+01 -0.22800341475E+03  0.23545281387E+03  0.25500000000E-02 0. -1.
         -2    1    1    2  502    0  0.58698241324E+02 -0.26432713787E+01 -0.44009007802E+02  0.73411601211E+02  0.25500000000E-02 0. -1.
<mgrwt>
<rscale>  0 0.14630950E+03</rscale>
<asrwt>0</asrwt>
<pdfrwt beam="1">  1        3 0.28347689E-02 0.14630950E+03</pdfrwt>
<pdfrwt beam="2">  1       -3 0.44682830E-01 0.14630950E+03</pdfrwt>
<totfact> 0.64189798E+03</totfact>
</mgrwt>
</event>
<event>
 4    1  0.7692565E-003  0.5806704E+02  0.7818608E-02  0.1406127E+00
          3   -1    0    0    0  501  0.00000000000E+00  0.00000000000E+00  0.70534903991E+01  0.70542134792E+01  0.10100000000E+00 0. -1.
         -3   -1    0    0  501    0 -0.00000000000E+00 -0.00000000000E+00 -0.11950065027E+03  0.11950069295E+03  0.10100000000E+00 0. -1.
          2    1    1    2    0  502 -0.81399533040E+00 -0.27828902928E+02 -0.74174029349E+02  0.79226870839E+02  0.25500000000E-02 0. -1.
         -2    1    1    2  502    0  0.81399533040E+00  0.27828902928E+02 -0.38273130523E+02  0.47328035593E+02  0.25500000000E-02 0. -1.
<mgrwt>
<rscale>  0 0.58067035E+02</rscale>
<asrwt>0</asrwt>
<pdfrwt beam="1">  1        3 0.10852114E-02 0.58067035E+02</pdfrwt>
<pdfrwt beam="2">  1       -3 0.18384773E-01 0.58067035E+02</pdfrwt>
<totfact> 0.10774371E+05</totfact>
</mgrwt>
</event>
<event>
 4    1  0.7692565E-003  0.4369056E+02  0.7818608E-02  0.1482686E+00
          3   -1    0    0    0  501  0.00000000000E+00  0.00000000000E+00  0.20670411230E+02  0.20670657982E+02  0.10100000000E+00 0.  1.
         -3   -1    0    0  501    0 -0.00000000000E+00 -0.00000000000E+00 -0.23086430858E+02  0.23086651788E+02  0.10100000000E+00 0.  1.
          2    1    1    2    0  502  0.18310503092E+02 -0.11542445843E+02 -0.41644116000E+01  0.22041889891E+02  0.25500000000E-02 0. -1.
         -2    1    1    2  502    0 -0.18310503092E+02  0.11542445843E+02  0.17483919712E+01  0.21715419878E+02  0.25500000000E-02 0. -1.
<mgrwt>
<rscale>  0 0.43690560E+02</rscale>
<asrwt>0</asrwt>
<pdfrwt beam="1">  1        3 0.31800992E-02 0.43690560E+02</pdfrwt>
<pdfrwt beam="2">  1       -3 0.35517946E-02 0.43690560E+02</pdfrwt>
<totfact> 0.26954724E+05</totfact>
</mgrwt>
</event>
<event>
 4    1  0.7692565E-003  0.4360274E+02  0.7818608E-02  0.1483258E+00
         -3   -1    0    0  501    0 -0.00000000000E+00  0.00000000000E+00  0.45501727150E+01  0.45512935234E+01  0.10100000000E+00 0. -1.
          3   -1    0    0    0  501  0.00000000000E+00 -0.00000000000E+00 -0.10444351502E+03  0.10444356385E+03  0.10100000000E+00 0. -1.
          2    1    1    2    0  502 -0.13647797747E+02 -0.16407838321E+02 -0.61075424373E+02  0.64696885632E+02  0.25500000000E-02 0.  1.
         -2    1    1    2  502    0  0.13647797747E+02  0.16407838321E+02 -0.38817917929E+02  0.44297971743E+02  0.25500000000E-02 0.  1.
<mgrwt>
<rscale>  0 0.43602742E+02</rscale>
<asrwt>0</asrwt>
<pdfrwt beam="2">  1        3 0.16068321E-01 0.43602742E+02</pdfrwt>
<pdfrwt beam="1">  1       -3 0.70011662E-03 0.43602742E+02</pdfrwt>
<totfact> 0.22977825E+05</totfact>
</mgrwt>
</event>
<event>
 4    1  0.7692565E-003  0.5627836E+02  0.7818608E-02  0.1414148E+00
         -3   -1    0    0  501    0 -0.00000000000E+00  0.00000000000E+00  0.46843873057E+01  0.46854760089E+01  0.10100000000E+00 0. -1.
          3   -1    0    0    0  501  0.00000000000E+00 -0.00000000000E+00 -0.16901168350E+03  0.16901171368E+03  0.10100000000E+00 0. -1.
          2    1    1    2    0  502  0.24496703244E+02 -0.13600731838E+02 -0.74147946339E+02  0.79265290822E+02  0.25500000000E-02 0. -1.
         -2    1    1    2  502    0 -0.24496703244E+02  0.13600731838E+02 -0.90179349853E+02  0.94431898863E+02  0.25500000000E-02 0. -1.
<mgrwt>
<rscale>  0 0.56278357E+02</rscale>
<asrwt>0</asrwt>
<pdfrwt beam="2">  1        3 0.26001879E-01 0.56278357E+02</pdfrwt>
<pdfrwt beam="1">  1       -3 0.72076117E-03 0.56278357E+02</pdfrwt>
<totfact> 0.10592564E+05</totfact>
</mgrwt>
</event>
<event>
 4    1  0.7692565E-003  0.4553333E+02  0.7818608E-02  0.1471039E+00
          3   -1    0    0    0  501  0.00000000000E+00  0.00000000000E+00  0.68160413933E+01  0.68167896605E+01  0.10100000000E+00 0. -1.
         -3   -1    0    0  501    0 -0.00000000000E+00 -0.00000000000E+00 -0.76039321391E+02  0.76039388468E+02  0.10100000000E+00 0. -1.
          2    1    1    2    0  502  0.56929132513E+01  0.21726534582E+02 -0.41388427223E+02  0.47089844772E+02  0.25500000000E-02 0. -1.
         -2    1    1    2  502    0 -0.56929132513E+01 -0.21726534582E+02 -0.27834852775E+02  0.35766333356E+02  0.25500000000E-02 0. -1.
<mgrwt>
<rscale>  0 0.45533326E+02</rscale>
<asrwt>0</asrwt>
<pdfrwt beam="1">  1        3 0.10486845E-02 0.45533326E+02</pdfrwt>
<pdfrwt beam="2">  1       -3 0.11698419E-01 0.45533326E+02</pdfrwt>
<totfact> 0.21963586E+05</totfact>
</mgrwt>
</event>
<event>
 4    1  0.7692565E-003  0.4707810E+02  0.7818608E-02  0.1461770E+00
          3   -1    0    0    0  501  0.00000000000E+00  0.00000000000E+00  0.48254902282E+03  0.48254903339E+03  0.10100000000E+00 0. -1.
         -3   -1    0    0  501    0 -0.00000000000E+00 -0.00000000000E+00 -0.11460180818E+01  0.11504601009E+01  0.10100000000E+00 0. -1.
          2    1    1    2    0  502 -0.19410574146E+02  0.10245607305E+02  0.15331231686E+03  0.15487546405E+03  0.25500000000E-02 0.  1.
         -2    1    1    2  502    0  0.19410574146E+02 -0.10245607305E+02  0.32809068789E+03  0.32882402945E+03  0.25500000000E-02 0.  1.
<mgrwt>
<rscale>  0 0.47078095E+02</rscale>
<asrwt>0</asrwt>
<pdfrwt beam="1">  1        3 0.74238667E-01 0.47078095E+02</pdfrwt>
<pdfrwt beam="2">  1       -3 0.17665295E-03 0.47078095E+02</pdfrwt>
<totfact> 0.99724808E+04</totfact>
</mgrwt>
</event>
<event>
 4    1  0.7692565E-003  0.4587515E+02  0.7818608E-02  0.1468951E+00
         -3   -1    0    0  501    0 -0.00000000000E+00  0.00000000000E+00  0.78965678540E+03  0.78965679186E+03  0.10100000000E+00 0. -1.
          3   -1    0    0    0  501  0.00000000000E+00 -0.00000000000E+00 -0.66244560008E+00  0.67010086783E+00  0.10100000000E+00 0. -1.
          2    1    1    2    0  502  0.20604783013E+02  0.80816612470E+00  0.22142695049E+03  0.22238503688E+03  0.25500000000E-02 0. -1.
         -2    1    1    2  502    0 -0.20604783013E+02 -0.80816612470E+00  0.56756738931E+03  0.56794185585E+03  0.25500000000E-02 0. -1.
<mgrwt>
<rscale>  0 0.45875147E+02</rscale>
<asrwt>0</asrwt>
<pdfrwt beam="2">  1        3 0.10250457E-03 0.45875147E+02</pdfrwt>
<pdfrwt beam="1">  1       -3 0.12148566E+00 0.45875147E+02</pdfrwt>
<totfact> 0.72269583E+04</totfact>
</mgrwt>
</event>
<event>
 4    1  0.7692565E-003  0.9868866E+02  0.7818608E-02  0.1283078E+00
          3   -1    0    0    0  501  0.00000000000E+00  0.00000000000E+00  0.11000880297E+02  0.11001343932E+02  0.10100000000E+00 0.  1.
         -3   -1    0    0  501    0 -0.00000000000E+00 -0.00000000000E+00 -0.22132831892E+03  0.22132834196E+03  0.10100000000E+00 0.  1.
          2    1    1    2    0  502 -0.38618661316E+02 -0.30462705298E+02 -0.95899700132E+02  0.10777815135E+03  0.25500000000E-02 0.  1.
         -2    1    1    2  502    0  0.38618661316E+02  0.30462705298E+02 -0.11442773849E+03  0.12455153455E+03  0.25500000000E-02 0.  1.
<mgrwt>
<rscale>  0 0.98688659E+02</rscale>
<asrwt>0</asrwt>
<pdfrwt beam="1">  1        3 0.16924807E-02 0.98688659E+02</pdfrwt>
<pdfrwt beam="2">  1       -3 0.34050545E-01 0.98688659E+02</pdfrwt>
<totfact> 0.21713553E+04</totfact>
</mgrwt>
</event>
<event>
 4    1  0.7692565E-003  0.8112995E+02  0.7818608E-02  0.1325875E+00
          3   -1    0    0    0  501  0.00000000000E+00  0.00000000000E+00  0.49971976499E+02  0.49972078566E+02  0.10100000000E+00 0.  1.
         -3   -1    0    0  501    0 -0.00000000000E+00 -0.00000000000E+00 -0.32928586518E+02  0.32928741413E+02  0.10100000000E+00 0.  1.
          2    1    1    2    0  502  0.40021496468E+02 -0.32356673446E+00  0.17673976338E+01  0.40061809444E+02  0.25500000000E-02 0. -1.
         -2    1    1    2  502    0 -0.40021496468E+02  0.32356673446E+00  0.15275992347E+02  0.42839010536E+02  0.25500000000E-02 0. -1.
<mgrwt>
<rscale>  0 0.81129950E+02</rscale>
<asrwt>0</asrwt>
<pdfrwt beam="1">  1        3 0.76880161E-02 0.81129950E+02</pdfrwt>
<pdfrwt beam="2">  1       -3 0.50659562E-02 0.81129950E+02</pdfrwt>
<totfact> 0.49353278E+04</totfact>
</mgrwt>
</event>
<event>
 4    1  0.7692565E-003  0.4942412E+02  0.7818608E-02  0.1448473E+00
          3   -1    0    0    0  501  0.00000000000E+00  0.00000000000E+00  0.34827455515E+01  0.34842097492E+01  0.10100000000E+00 0. -1.
         -3   -1    0    0  501    0 -0.00000000000E+00 -0.00000000000E+00 -0.17530780537E+03  0.17530783446E+03  0.10100000000E+00 0. -1.
          2    1    1    2    0  502 -0.20554023719E+02  0.29558893852E+01 -0.37448646370E+02  0.42820629311E+02  0.25500000000E-02 0.  1.
         -2    1    1    2  502    0  0.20554023719E+02 -0.29558893852E+01 -0.13437641345E+03  0.13597141490E+03  0.25500000000E-02 0.  1.
<mgrwt>
<rscale>  0 0.49424123E+02</rscale>
<asrwt>0</asrwt>
<pdfrwt beam="1">  1        3 0.53592201E-03 0.49424123E+02</pdfrwt>
<pdfrwt beam="2">  1       -3 0.26970540E-01 0.49424123E+02</pdfrwt>
<totfact> 0.14539327E+05</totfact>
</mgrwt>
</event>
<event>
 4    1  0.7692565E-003  0.9187454E+02  0.7818608E-02  0.1298375E+00
          3   -1    0    0    0  501  0.00000000000E+00  0.00000000000E+00  0.17359336144E+03  0.17359339083E+03  0.10100000000E+00 0. -1.
         -3   -1    0    0  501    0 -0.00000000000E+00 -0.00000000000E+00 -0.12155942283E+02  0.12156361865E+02  0.10100000000E+00 0. -1.
          2    1    1    2    0  502 -0.36004252142E+02 -0.28306669071E+02  0.73525365255E+02  0.86623051370E+02  0.25500000000E-02 0. -1.
         -2    1    1    2  502    0  0.36004252142E+02  0.28306669071E+02  0.87912053905E+02  0.99126701320E+02  0.25500000000E-02 0. -1.
<mgrwt>
<rscale>  0 0.91874536E+02</rscale>
<asrwt>0</asrwt>
<pdfrwt beam="1">  1        3 0.26706704E-01 0.91874536E+02</pdfrwt>
<pdfrwt beam="2">  1       -3 0.18701796E-02 0.91874536E+02</pdfrwt>
<totfact> 0.28655121E+04</totfact>
</mgrwt>
</event>
<event>
 4    1  0.7692565E-003  0.5001430E+02  0.7818608E-02  0.1445264E+00
          3   -1    0    0    0  501  0.00000000000E+00  0.00000000000E+00  0.43385699362E+01  0.43397453947E+01  0.10100000000E+00 0.  1.
         -3   -1    0    0  501    0 -0.00000000000E+00 -0.00000000000E+00 -0.14411839663E+03  0.14411843202E+03  0.10100000000E+00 0.  1.
          2    1    1    2    0  502 -0.13824753625E+02 -0.19840320032E+02 -0.88802410531E+02  0.92036026829E+02  0.25500000000E-02 0. -1.
         -2    1    1    2  502    0  0.13824753625E+02  0.19840320032E+02 -0.50977416166E+02  0.56422150590E+02  0.25500000000E-02 0. -1.
<mgrwt>
<rscale>  0 0.50014303E+02</rscale>
<asrwt>0</asrwt>
<pdfrwt beam="1">  1        3 0.66756555E-03 0.50014303E+02</pdfrwt>
<pdfrwt beam="2">  1       -3 0.22172150E-01 0.50014303E+02</pdfrwt>
<totfact> 0.15007608E+05</totfact>
</mgrwt>
</event>
<event>
 4    1  0.7692565E-003  0.9149062E+02  0.7818608E-02  0.1299282E+00
          3   -1    0    0    0  501  0.00000000000E+00  0.00000000000E+00  0.69589462519E+03  0.69589463252E+03  0.10100000000E+00 0.  1.
         -3   -1    0    0  501    0 -0.00000000000E+00 -0.00000000000E+00 -0.30062572187E+01  0.30079533682E+01  0.10100000000E+00 0.  1.
          2    1    1    2    0  502  0.43569360383E+02 -0.11520877338E+02  0.28648180722E+03  0.29000490626E+03  0.25500000000E-02 0. -1.
         -2    1    1    2  502    0 -0.43569360383E+02  0.11520877338E+02  0.40640656075E+03  0.40889767963E+03  0.25500000000E-02 0. -1.
<mgrwt>
<rscale>  0 0.91490623E+02</rscale>
<asrwt>0</asrwt>
<pdfrwt beam="1">  1        3 0.10706091E+00 0.91490623E+02</pdfrwt>
<pdfrwt beam="2">  1       -3 0.46263187E-03 0.91490623E+02</pdfrwt>
<totfact> 0.13810285E+04</totfact>
</mgrwt>
</event>
<event>
 4    1  0.7692565E-003  0.4958528E+02  0.7818608E-02  0.1447591E+00
         -3   -1    0    0  501    0 -0.00000000000E+00  0.00000000000E+00  0.60484319687E+02  0.60484404014E+02  0.10100000000E+00 0.  1.
          3   -1    0    0    0  501  0.00000000000E+00 -0.00000000000E+00 -0.10162207093E+02  0.10162708990E+02  0.10100000000E+00 0.  1.
          2    1    1    2    0  502 -0.19721733424E+02 -0.14373599443E+02  0.31392284666E+02  0.39762075816E+02  0.25500000000E-02 0.  1.
         -2    1    1    2  502    0  0.19721733424E+02  0.14373599443E+02  0.18929827928E+02  0.30885037188E+02  0.25500000000E-02 0.  1.
<mgrwt>
<rscale>  0 0.49585276E+02</rscale>
<asrwt>0</asrwt>
<pdfrwt beam="2">  1        3 0.15634615E-02 0.49585276E+02</pdfrwt>
<pdfrwt beam="1">  1       -3 0.93053252E-02 0.49585276E+02</pdfrwt>
<totfact> 0.18297845E+05</totfact>
</mgrwt>
</event>
<event>
 4    1  0.7692565E-003  0.6096604E+02  0.7818608E-02  0.1393822E+00
         -3   -1    0    0  501    0 -0.00000000000E+00  0.00000000000E+00  0.44296144308E+01  0.44307657358E+01  0.10100000000E+00 0. -1.
          3   -1    0    0    0  501  0.00000000000E+00 -0.00000000000E+00 -0.20974478303E+03  0.20974480735E+03  0.10100000000E+00 0. -1.
          2    1    1    2    0  502 -0.24525284440E+02 -0.17862934571E+02 -0.92331187014E+02  0.97188590433E+02  0.25500000000E-02 0. -1.
         -2    1    1    2  502    0  0.24525284440E+02  0.17862934571E+02 -0.11298398159E+03  0.11698698265E+03  0.25500000000E-02 0. -1.
<mgrwt>
<rscale>  0 0.60966037E+02</rscale>
<asrwt>0</asrwt>
<pdfrwt beam="2">  1        3 0.32268511E-01 0.60966037E+02</pdfrwt>
<pdfrwt beam="1">  1       -3 0.68156974E-03 0.60966037E+02</pdfrwt>
<totfact> 0.80000345E+04</totfact>
</mgrwt>
</event>
<event>
 4    1  0.7692565E-003  0.8529037E+02  0.7818608E-02  0.1314675E+00
          3   -1    0    0    0  501  0.00000000000E+00  0.00000000000E+00  0.24635222859E+02  0.24635429899E+02  0.10100000000E+00 0.  1.
         -3   -1    0    0  501    0 -0.00000000000E+00 -0.00000000000E+00 -0.73821052779E+02  0.73821121872E+02  0.10100000000E+00 0.  1.
          2    1    1    2    0  502 -0.37803168637E+02  0.15019738907E+02 -0.98125037163E+01  0.41844442301E+02  0.25500000000E-02 0. -1.
         -2    1    1    2  502    0  0.37803168637E+02 -0.15019738907E+02 -0.39373326204E+02  0.56612109470E+02  0.25500000000E-02 0. -1.
<mgrwt>
<rscale>  0 0.85290367E+02</rscale>
<asrwt>0</asrwt>
<pdfrwt beam="1">  1        3 0.37900556E-02 0.85290367E+02</pdfrwt>
<pdfrwt beam="2">  1       -3 0.11357106E-01 0.85290367E+02</pdfrwt>
<totfact> 0.41677226E+04</totfact>
</mgrwt>
</event>
<event>
 4    1  0.7692565E-003  0.6932734E+02  0.7818608E-02  0.1362395E+00
         -3   -1    0    0  501    0 -0.00000000000E+00  0.00000000000E+00  0.19190737023E+02  0.19191002800E+02  0.10100000000E+00 0.  1.
          3   -1    0    0    0  501  0.00000000000E+00 -0.00000000000E+00 -0.62611246894E+02  0.62611328357E+02  0.10100000000E+00 0.  1.
          2    1    1    2    0  502  0.88969799991E+01  0.33261793945E+02 -0.26439896661E+02  0.43411649722E+02  0.25500000000E-02 0. -1.
         -2    1    1    2  502    0 -0.88969799991E+01 -0.33261793945E+02 -0.16980613209E+02  0.38390681435E+02  0.25500000000E-02 0. -1.
<mgrwt>
<rscale>  0 0.69327345E+02</rscale>
<asrwt>0</asrwt>
<pdfrwt beam="2">  1        3 0.96325261E-02 0.69327345E+02</pdfrwt>
<pdfrwt beam="1">  1       -3 0.29524478E-02 0.69327345E+02</pdfrwt>
<totfact> 0.75159908E+04</totfact>
</mgrwt>
</event>
<event>
 4    1  0.7692565E-003  0.5643514E+02  0.7818608E-02  0.1413431E+00
         -3   -1    0    0  501    0 -0.00000000000E+00  0.00000000000E+00  0.69492369579E+02  0.69492442976E+02  0.10100000000E+00 0. -1.
          3   -1    0    0    0  501  0.00000000000E+00 -0.00000000000E+00 -0.11457520148E+02  0.11457965305E+02  0.10100000000E+00 0. -1.
          2    1    1    2    0  502  0.22578310736E+02  0.12393335925E+02  0.45550762956E+02  0.52328261040E+02  0.25500000000E-02 0. -1.
         -2    1    1    2  502    0 -0.22578310736E+02 -0.12393335925E+02  0.12484086476E+02  0.28622147241E+02  0.25500000000E-02 0. -1.
<mgrwt>
<rscale>  0 0.56435138E+02</rscale>
<asrwt>0</asrwt>
<pdfrwt beam="2">  1        3 0.17627353E-02 0.56435138E+02</pdfrwt>
<pdfrwt beam="1">  1       -3 0.10691174E-01 0.56435138E+02</pdfrwt>
<totfact> 0.12847412E+05</totfact>
</mgrwt>
</event>
<event>
 4    1  0.7692565E-003  0.5828572E+02  0.7818608E-02  0.1405170E+00
         -3   -1    0    0  501    0 -0.00000000000E+00  0.00000000000E+00  0.16250781418E+02  0.16251095276E+02  0.10100000000E+00 0. -1.
          3   -1    0    0    0  501  0.00000000000E+00 -0.00000000000E+00 -0.52261618409E+02  0.52261716005E+02  0.10100000000E+00 0. -1.
          2    1    1    2    0  502  0.15007505134E+02  0.17277936485E+02 -0.39214463115E+02  0.45404035321E+02  0.25500000000E-02 0. -1.
         -2    1    1    2  502    0 -0.15007505134E+02 -0.17277936485E+02  0.32036261230E+01  0.23108775960E+02  0.25500000000E-02 0. -1.
<mgrwt>
<rscale>  0 0.58285718E+02</rscale>
<asrwt>0</asrwt>
<pdfrwt beam="2">  1        3 0.80402806E-02 0.58285718E+02</pdfrwt>
<pdfrwt beam="1">  1       -3 0.25001519E-02 0.58285718E+02</pdfrwt>
<totfact> 0.12188785E+05</totfact>
</mgrwt>
</event>
<event>
 4    1  0.7692565E-003  0.4856326E+02  0.7818608E-02  0.1453249E+00
          3   -1    0    0    0  501  0.00000000000E+00  0.00000000000E+00  0.68559756936E+01  0.68567196028E+01  0.10100000000E+00 0.  1.
         -3   -1    0    0  501    0 -0.00000000000E+00 -0.00000000000E+00 -0.85992180410E+02  0.85992239724E+02  0.10100000000E+00 0.  1.
          2    1    1    2    0  502  0.55490427475E+01 -0.22118509545E+02 -0.23620228257E+02  0.32831928505E+02  0.25500000000E-02 0.  1.
         -2    1    1    2  502    0 -0.55490427475E+01  0.22118509545E+02 -0.55515976459E+02  0.60017030822E+02  0.25500000000E-02 0.  1.
<mgrwt>
<rscale>  0 0.48563261E+02</rscale>
<asrwt>0</asrwt>
<pdfrwt beam="1">  1        3 0.10548273E-02 0.48563261E+02</pdfrwt>
<pdfrwt beam="2">  1       -3 0.13229627E-01 0.48563261E+02</pdfrwt>
<totfact> 0.18264115E+05</totfact>
</mgrwt>
</event>
<event>
 4    1  0.7692565E-003  0.6848115E+02  0.7818608E-02  0.1365335E+00
          3   -1    0    0    0  501  0.00000000000E+00  0.00000000000E+00  0.54264061582E+02  0.54264155576E+02  0.10100000000E+00 0. -1.
         -3   -1    0    0  501    0 -0.00000000000E+00 -0.00000000000E+00 -0.21605539352E+02  0.21605775424E+02  0.10100000000E+00 0. -1.
          2    1    1    2    0  502 -0.42383536631E+01  0.23461499852E+02 -0.10899079267E+02  0.26214414975E+02  0.25500000000E-02 0. -1.
         -2    1    1    2  502    0  0.42383536631E+01 -0.23461499852E+02  0.43557601497E+02  0.49655516026E+02  0.25500000000E-02 0. -1.
<mgrwt>
<rscale>  0 0.68481146E+02</rscale>
<asrwt>0</asrwt>
<pdfrwt beam="1">  1        3 0.83483425E-02 0.68481146E+02</pdfrwt>
<pdfrwt beam="2">  1       -3 0.33239545E-02 0.68481146E+02</pdfrwt>
<totfact> 0.78713492E+04</totfact>
</mgrwt>
</event>
<event>
 4    1  0.7692565E-003  0.5993499E+02  0.7818608E-02  0.1398105E+00
          3   -1    0    0    0  501  0.00000000000E+00  0.00000000000E+00  0.19217141112E+03  0.19217143766E+03  0.10100000000E+00 0.  1.
         -3   -1    0    0  501    0 -0.00000000000E+00 -0.00000000000E+00 -0.46726025304E+01  0.46736939788E+01  0.10100000000E+00 0.  1.
          2    1    1    2    0  502 -0.28892622019E+02 -0.36633052822E+01  0.70561323029E+02  0.76335468341E+02  0.25500000000E-02 0. -1.
         -2    1    1    2  502    0  0.28892622019E+02  0.36633052822E+01  0.11693748556E+03  0.12050966330E+03  0.25500000000E-02 0. -1.
<mgrwt>
<rscale>  0 0.59934987E+02</rscale>
<asrwt>0</asrwt>
<pdfrwt beam="1">  1        3 0.29564927E-01 0.59934987E+02</pdfrwt>
<pdfrwt beam="2">  1       -3 0.71894773E-03 0.59934987E+02</pdfrwt>
<totfact> 0.86303970E+04</totfact>
</mgrwt>
</event>
<event>
 4    1  0.7692565E-003  0.6282171E+02  0.7818608E-02  0.1386358E+00
         -3   -1    0    0  501    0 -0.00000000000E+00  0.00000000000E+00  0.23094609735E+03  0.23094611943E+03  0.10100000000E+00 0.  1.
          3   -1    0    0    0  501  0.00000000000E+00 -0.00000000000E+00 -0.42715536909E+01  0.42727475860E+01  0.10100000000E+00 0.  1.
          2    1    1    2    0  502 -0.22348705655E+02  0.20163276823E+02  0.79718496052E+02  0.85211859480E+02  0.25500000000E-02 0.  1.
         -2    1    1    2  502    0  0.22348705655E+02 -0.20163276823E+02  0.14695604760E+03  0.15000700754E+03  0.25500000000E-02 0.  1.
<mgrwt>
<rscale>  0 0.62821705E+02</rscale>
<asrwt>0</asrwt>
<pdfrwt beam="2">  1        3 0.65725550E-03 0.62821705E+02</pdfrwt>
<pdfrwt beam="1">  1       -3 0.35530270E-01 0.62821705E+02</pdfrwt>
<totfact> 0.71313035E+04</totfact>
</mgrwt>
</event>
<event>
 4    1  0.7692565E-003  0.1012968E+03  0.7818608E-02  0.1277592E+00
          3   -1    0    0    0  501  0.00000000000E+00  0.00000000000E+00  0.12144663612E+02  0.12145083583E+02  0.10100000000E+00 0.  1.
         -3   -1    0    0  501    0 -0.00000000000E+00 -0.00000000000E+00 -0.21122133772E+03  0.21122136187E+03  0.10100000000E+00 0.  1.
          2    1    1    2    0  502 -0.44774206076E+02 -0.22517145915E+02 -0.11566857545E+03  0.12605939371E+03  0.25500000000E-02 0.  1.
         -2    1    1    2  502    0  0.44774206076E+02  0.22517145915E+02 -0.83408098665E+02  0.97307051745E+02  0.25500000000E-02 0.  1.
<mgrwt>
<rscale>  0 0.10129683E+03</rscale>
<asrwt>0</asrwt>
<pdfrwt beam="1">  1        3 0.18684441E-02 0.10129683E+03</pdfrwt>
<pdfrwt beam="2">  1       -3 0.32495622E-01 0.10129683E+03</pdfrwt>
<totfact> 0.20541462E+04</totfact>
</mgrwt>
</event>
<event>
 4    1  0.7692565E-003  0.6340084E+02  0.7818608E-02  0.1384090E+00
         -3   -1    0    0  501    0 -0.00000000000E+00  0.00000000000E+00  0.19347052606E+01  0.19373397857E+01  0.10100000000E+00 0.  1.
          3   -1    0    0    0  501  0.00000000000E+00 -0.00000000000E+00 -0.51905985036E+03  0.51905986018E+03  0.10100000000E+00 0.  1.
          2    1    1    2    0  502 -0.19481692579E+02  0.23187473393E+02 -0.33552754827E+03  0.33689157146E+03  0.25500000000E-02 0.  1.
         -2    1    1    2  502    0  0.19481692579E+02 -0.23187473393E+02 -0.18159759683E+03  0.18410562851E+03  0.25500000000E-02 0.  1.
<mgrwt>
<rscale>  0 0.63400841E+02</rscale>
<asrwt>0</asrwt>
<pdfrwt beam="2">  1        3 0.79855454E-01 0.63400841E+02</pdfrwt>
<pdfrwt beam="1">  1       -3 0.29785079E-03 0.63400841E+02</pdfrwt>
<totfact> 0.44950382E+04</totfact>
</mgrwt>
</event>
<event>
 4    1  0.7692565E-003  0.1260577E+03  0.7818608E-02  0.1233425E+00
          3   -1    0    0    0  501  0.00000000000E+00  0.00000000000E+00  0.13763947046E+02  0.13764317611E+02  0.10100000000E+00 0. -1.
         -3   -1    0    0  501    0 -0.00000000000E+00 -0.00000000000E+00 -0.28862195965E+03  0.28862197733E+03  0.10100000000E+00 0. -1.
          2    1    1    2    0  502  0.55895474449E+01 -0.60919979463E+02 -0.10103772228E+03  0.11811480969E+03  0.25500000000E-02 0. -1.
         -2    1    1    2  502    0 -0.55895474449E+01  0.60919979463E+02 -0.17382029033E+03  0.18427148525E+03  0.25500000000E-02 0. -1.
<mgrwt>
<rscale>  0 0.12605770E+03</rscale>
<asrwt>0</asrwt>
<pdfrwt beam="1">  1        3 0.21175604E-02 0.12605770E+03</pdfrwt>
<pdfrwt beam="2">  1       -3 0.44403404E-01 0.12605770E+03</pdfrwt>
<totfact> 0.98610431E+03</totfact>
</mgrwt>
</event>
<event>
 4    1  0.7692565E-003  0.4160598E+02  0.7818608E-02  0.1496715E+00
          3   -1    0    0    0  501  0.00000000000E+00  0.00000000000E+00  0.50813412073E+01  0.50823448786E+01  0.10100000000E+00 0. -1.
         -3   -1    0    0  501    0 -0.00000000000E+00 -0.00000000000E+00 -0.85157921005E+02  0.85157980899E+02  0.10100000000E+00 0. -1.
          2    1    1    2    0  502  0.20747797491E+02 -0.71671112248E+00 -0.42931721869E+02  0.47687708319E+02  0.25500000000E-02 0. -1.
         -2    1    1    2  502    0 -0.20747797491E+02  0.71671112248E+00 -0.37144857929E+02  0.42552617459E+02  0.25500000000E-02 0. -1.
<mgrwt>
<rscale>  0 0.41605982E+02</rscale>
<asrwt>0</asrwt>
<pdfrwt beam="1">  1        3 0.78182668E-03 0.41605982E+02</pdfrwt>
<pdfrwt beam="2">  1       -3 0.13101299E-01 0.41605982E+02</pdfrwt>
<totfact> 0.26939731E+05</totfact>
</mgrwt>
</event>
<event>
 4    1  0.7692565E-003  0.5797351E+02  0.7818608E-02  0.1406538E+00
          3   -1    0    0    0  501  0.00000000000E+00  0.00000000000E+00  0.25386606388E+02  0.25386807300E+02  0.10100000000E+00 0. -1.
         -3   -1    0    0  501    0 -0.00000000000E+00 -0.00000000000E+00 -0.33097037914E+02  0.33097192021E+02  0.10100000000E+00 0. -1.
          2    1    1    2    0  502 -0.60964201400E+01 -0.26883109524E+02 -0.12898747925E+02  0.30434283641E+02  0.25500000000E-02 0. -1.
         -2    1    1    2  502    0  0.60964201400E+01  0.26883109524E+02  0.51883163988E+01  0.28049715681E+02  0.25500000000E-02 0. -1.
<mgrwt>
<rscale>  0 0.57973506E+02</rscale>
<asrwt>0</asrwt>
<pdfrwt beam="1">  1        3 0.39056590E-02 0.57973506E+02</pdfrwt>
<pdfrwt beam="2">  1       -3 0.50918793E-02 0.57973506E+02</pdfrwt>
<totfact> 0.12673882E+05</totfact>
</mgrwt>
</event>
<event>
 4    1  0.7692565E-003  0.4232165E+02  0.7818608E-02  0.1491790E+00
         -3   -1    0    0  501    0 -0.00000000000E+00  0.00000000000E+00  0.31840512476E+02  0.31840672664E+02  0.10100000000E+00 0.  1.
          3   -1    0    0    0  501  0.00000000000E+00 -0.00000000000E+00 -0.14062853123E+02  0.14063215811E+02  0.10100000000E+00 0.  1.
          2    1    1    2    0  502 -0.20602272783E+02 -0.34371417248E+01  0.12569089529E+02  0.24377235388E+02  0.25500000000E-02 0.  1.
         -2    1    1    2  502    0  0.20602272783E+02  0.34371417248E+01  0.52085698239E+01  0.21526653088E+02  0.25500000000E-02 0.  1.
<mgrwt>
<rscale>  0 0.42321647E+02</rscale>
<asrwt>0</asrwt>
<pdfrwt beam="2">  1        3 0.21635561E-02 0.42321647E+02</pdfrwt>
<pdfrwt beam="1">  1       -3 0.48985806E-02 0.42321647E+02</pdfrwt>
<totfact> 0.28986681E+05</totfact>
</mgrwt>
</event>
<event>
 4    1  0.7692565E-003  0.6240132E+02  0.7818608E-02  0.1388022E+00
          3   -1    0    0    0  501  0.00000000000E+00  0.00000000000E+00  0.19936855334E+03  0.19936857893E+03  0.10100000000E+00 0.  1.
         -3   -1    0    0  501    0 -0.00000000000E+00 -0.00000000000E+00 -0.48822738802E+01  0.48833184661E+01  0.10100000000E+00 0.  1.
          2    1    1    2    0  502  0.15924154515E+02  0.20303056089E+02  0.15465847100E+03  0.15679615889E+03  0.25500000000E-02 0.  1.
         -2    1    1    2  502    0 -0.15924154515E+02 -0.20303056089E+02  0.39827808465E+02  0.47455738506E+02  0.25500000000E-02 0.  1.
<mgrwt>
<rscale>  0 0.62401320E+02</rscale>
<asrwt>0</asrwt>
<pdfrwt beam="1">  1        3 0.30672167E-01 0.62401320E+02</pdfrwt>
<pdfrwt beam="2">  1       -3 0.75120138E-03 0.62401320E+02</pdfrwt>
<totfact> 0.76767236E+04</totfact>
</mgrwt>
</event>
<event>
 4    1  0.7692565E-003  0.5176349E+02  0.7818608E-02  0.1436055E+00
         -3   -1    0    0  501    0 -0.00000000000E+00  0.00000000000E+00  0.47071330931E+01  0.47082165367E+01  0.10100000000E+00 0.  1.
          3   -1    0    0    0  501  0.00000000000E+00 -0.00000000000E+00 -0.14229095514E+03  0.14229099098E+03  0.10100000000E+00 0.  1.
          2    1    1    2    0  502  0.14121813311E+02 -0.20831996162E+02 -0.85941027564E+02  0.89550309327E+02  0.25500000000E-02 0. -1.
         -2    1    1    2  502    0 -0.14121813311E+02  0.20831996162E+02 -0.51642794479E+02  0.57448898191E+02  0.25500000000E-02 0. -1.
<mgrwt>
<rscale>  0 0.51763490E+02</rscale>
<asrwt>0</asrwt>
<pdfrwt beam="2">  1        3 0.21890999E-01 0.51763490E+02</pdfrwt>
<pdfrwt beam="1">  1       -3 0.72426053E-03 0.51763490E+02</pdfrwt>
<totfact> 0.13810880E+05</totfact>
</mgrwt>
</event>
<event>
 4    1  0.7692565E-003  0.4071644E+02  0.7818608E-02  0.1503004E+00
          3   -1    0    0    0  501  0.00000000000E+00  0.00000000000E+00  0.12283800790E+02  0.12284216005E+02  0.10100000000E+00 0. -1.
         -3   -1    0    0  501    0 -0.00000000000E+00 -0.00000000000E+00 -0.33739078099E+02  0.33739229274E+02  0.10100000000E+00 0. -1.
          2    1    1    2    0  502 -0.19985937701E+02 -0.18089292445E+01 -0.14601790937E+02  0.24817780640E+02  0.25500000000E-02 0. -1.
         -2    1    1    2  502    0  0.19985937701E+02  0.18089292445E+01 -0.68534863719E+01  0.21205664638E+02  0.25500000000E-02 0. -1.
<mgrwt>
<rscale>  0 0.40716441E+02</rscale>
<asrwt>0</asrwt>
<pdfrwt beam="1">  1        3 0.18898591E-02 0.40716441E+02</pdfrwt>
<pdfrwt beam="2">  1       -3 0.51906709E-02 0.40716441E+02</pdfrwt>
<totfact> 0.31861164E+05</totfact>
</mgrwt>
</event>
<event>
 4    1  0.7692565E-003  0.4719221E+02  0.7818608E-02  0.1461102E+00
          3   -1    0    0    0  501  0.00000000000E+00  0.00000000000E+00  0.52135204042E+02  0.52135301874E+02  0.10100000000E+00 0.  1.
         -3   -1    0    0  501    0 -0.00000000000E+00 -0.00000000000E+00 -0.10679119414E+02  0.10679597017E+02  0.10100000000E+00 0.  1.
          2    1    1    2    0  502 -0.21590389796E+02 -0.83975177591E+01  0.26697428926E+02  0.35347078434E+02  0.25500000000E-02 0. -1.
         -2    1    1    2  502    0  0.21590389796E+02  0.83975177591E+01  0.14758655703E+02  0.27467820458E+02  0.25500000000E-02 0. -1.
<mgrwt>
<rscale>  0 0.47192209E+02</rscale>
<asrwt>0</asrwt>
<pdfrwt beam="1">  1        3 0.80208448E-02 0.47192209E+02</pdfrwt>
<pdfrwt beam="2">  1       -3 0.16429857E-02 0.47192209E+02</pdfrwt>
<totfact> 0.21128357E+05</totfact>
</mgrwt>
</event>
<event>
 4    1  0.7692565E-003  0.8766958E+02  0.7818608E-02  0.1308595E+00
         -3   -1    0    0  501    0 -0.00000000000E+00  0.00000000000E+00  0.57820684016E+03  0.57820684898E+03  0.10100000000E+00 0.  1.
          3   -1    0    0    0  501  0.00000000000E+00 -0.00000000000E+00 -0.33224096243E+01  0.33239444507E+01  0.10100000000E+00 0.  1.
          2    1    1    2    0  502 -0.30654403777E+02 -0.48573365688E+01  0.82112187122E+02  0.87782102218E+02  0.25500000000E-02 0. -1.
         -2    1    1    2  502    0  0.30654403777E+02  0.48573365688E+01  0.49277224341E+03  0.49374869121E+03  0.25500000000E-02 0. -1.
<mgrwt>
<rscale>  0 0.87669580E+02</rscale>
<asrwt>0</asrwt>
<pdfrwt beam="2">  1        3 0.51125909E-03 0.87669580E+02</pdfrwt>
<pdfrwt beam="1">  1       -3 0.88954946E-01 0.87669580E+02</pdfrwt>
<totfact> 0.17837415E+04</totfact>
</mgrwt>
</event>
<event>
 4    1  0.7692565E-003  0.9438687E+02  0.7818608E-02  0.1292563E+00
          3   -1    0    0    0  501  0.00000000000E+00  0.00000000000E+00  0.20654369413E+03  0.20654371883E+03  0.10100000000E+00 0.  1.
         -3   -1    0    0  501    0 -0.00000000000E+00 -0.00000000000E+00 -0.10783027854E+02  0.10783500856E+02  0.10100000000E+00 0.  1.
          2    1    1    2    0  502  0.33040678839E+02  0.66102942694E+00  0.20305826549E+02  0.38787240381E+02  0.25500000000E-02 0. -1.
         -2    1    1    2  502    0 -0.33040678839E+02 -0.66102942694E+00  0.17545483973E+03  0.17853997930E+03  0.25500000000E-02 0. -1.
<mgrwt>
<rscale>  0 0.94386874E+02</rscale>
<asrwt>0</asrwt>
<pdfrwt beam="1">  1        3 0.31775990E-01 0.94386874E+02</pdfrwt>
<pdfrwt beam="2">  1       -3 0.16589657E-02 0.94386874E+02</pdfrwt>
<totfact> 0.25159205E+04</totfact>
</mgrwt>
</event>
<event>
 4    1  0.7692565E-003  0.4493387E+02  0.7818608E-02  0.1474755E+00
          3   -1    0    0    0  501  0.00000000000E+00  0.00000000000E+00  0.10906036906E+01  0.10952704734E+01  0.10100000000E+00 0. -1.
         -3   -1    0    0  501    0 -0.00000000000E+00 -0.00000000000E+00 -0.46183624092E+03  0.46183625196E+03  0.10100000000E+00 0. -1.
          2    1    1    2    0  502 -0.15570242534E+02  0.15629087646E+02 -0.18658749697E+03  0.18788718654E+03  0.25500000000E-02 0. -1.
         -2    1    1    2  502    0  0.15570242534E+02 -0.15629087646E+02 -0.27415814026E+03  0.27504433590E+03  0.25500000000E-02 0. -1.
<mgrwt>
<rscale>  0 0.44933865E+02</rscale>
<asrwt>0</asrwt>
<pdfrwt beam="1">  1        3 0.16814539E-03 0.44933865E+02</pdfrwt>
<pdfrwt beam="2">  1       -3 0.71051933E-01 0.44933865E+02</pdfrwt>
<totfact> 0.11499969E+05</totfact>
</mgrwt>
</event>
<event>
 4    1  0.7692565E-003  0.5662456E+02  0.7818608E-02  0.1412569E+00
          3   -1    0    0    0  501  0.00000000000E+00  0.00000000000E+00  0.18301770987E+01  0.18329618689E+01  0.10100000000E+00 0. -1.
         -3   -1    0    0  501    0 -0.00000000000E+00 -0.00000000000E+00 -0.43764661927E+03  0.43764663092E+03  0.10100000000E+00 0. -1.
          2    1    1    2    0  502  0.14866170314E+01 -0.25002130119E+02 -0.11545075503E+03  0.11813633389E+03  0.25500000000E-02 0. -1.
         -2    1    1    2  502    0 -0.14866170314E+01  0.25002130119E+02 -0.32036568714E+03  0.32134325890E+03  0.25500000000E-02 0. -1.
<mgrwt>
<rscale>  0 0.56624564E+02</rscale>
<asrwt>0</asrwt>
<pdfrwt beam="1">  1        3 0.28178117E-03 0.56624564E+02</pdfrwt>
<pdfrwt beam="2">  1       -3 0.67330381E-01 0.56624564E+02</pdfrwt>
<totfact> 0.67001563E+04</totfact>
</mgrwt>
</event>
<event>
 4    1  0.7692565E-003  0.4916902E+02  0.7818608E-02  0.1449876E+00
         -3   -1    0    0  501    0 -0.00000000000E+00  0.00000000000E+00  0.21842159391E+03  0.21842161726E+03  0.10100000000E+00 0. -1.
          3   -1    0    0    0  501  0.00000000000E+00 -0.00000000000E+00 -0.27661717737E+01  0.27680150436E+01  0.10100000000E+00 0. -1.
          2    1    1    2    0  502 -0.15121549993E+02 -0.15560818115E+02  0.15982405337E+03  0.16129019925E+03  0.25500000000E-02 0. -1.
         -2    1    1    2  502    0  0.15121549993E+02  0.15560818115E+02  0.55831368771E+02  0.59899433052E+02  0.25500000000E-02 0. -1.
<mgrwt>
<rscale>  0 0.49169018E+02</rscale>
<asrwt>0</asrwt>
<pdfrwt beam="2">  1        3 0.42570828E-03 0.49169018E+02</pdfrwt>
<pdfrwt beam="1">  1       -3 0.33603481E-01 0.49169018E+02</pdfrwt>
<totfact> 0.13585186E+05</totfact>
</mgrwt>
</event>
<event>
 4    1  0.7692565E-003  0.5644805E+02  0.7818608E-02  0.1413372E+00
         -3   -1    0    0  501    0 -0.00000000000E+00  0.00000000000E+00  0.95669544942E+02  0.95669598255E+02  0.10100000000E+00 0. -1.
          3   -1    0    0    0  501  0.00000000000E+00 -0.00000000000E+00 -0.83261716968E+01  0.83267842607E+01  0.10100000000E+00 0. -1.
          2    1    1    2    0  502 -0.23060664434E+02 -0.12897028762E+02  0.61953404322E+02  0.67352445454E+02  0.25500000000E-02 0. -1.
         -2    1    1    2  502    0  0.23060664434E+02  0.12897028762E+02  0.25389968923E+02  0.36643937062E+02  0.25500000000E-02 0. -1.
<mgrwt>
<rscale>  0 0.56448053E+02</rscale>
<asrwt>0</asrwt>
<pdfrwt beam="2">  1        3 0.12810008E-02 0.56448053E+02</pdfrwt>
<pdfrwt beam="1">  1       -3 0.14718442E-01 0.56448053E+02</pdfrwt>
<totfact> 0.12170175E+05</totfact>
</mgrwt>
</event>
<event>
 4    1  0.7692565E-003  0.7053356E+02  0.7818608E-02  0.1358288E+00
         -3   -1    0    0  501    0 -0.00000000000E+00  0.00000000000E+00  0.44805805625E+02  0.44805919460E+02  0.10100000000E+00 0.  1.
          3   -1    0    0    0  501  0.00000000000E+00 -0.00000000000E+00 -0.27758343279E+02  0.27758527025E+02  0.10100000000E+00 0.  1.
          2    1    1    2    0  502 -0.34889586476E+02 -0.15493371083E+01  0.34771849365E+01  0.35096645303E+02  0.25500000000E-02 0. -1.
         -2    1    1    2  502    0  0.34889586476E+02  0.15493371083E+01  0.13570277410E+02  0.37467801182E+02  0.25500000000E-02 0. -1.
<mgrwt>
<rscale>  0 0.70533559E+02</rscale>
<asrwt>0</asrwt>
<pdfrwt beam="2">  1        3 0.42705373E-02 0.70533559E+02</pdfrwt>
<pdfrwt beam="1">  1       -3 0.68932237E-02 0.70533559E+02</pdfrwt>
<totfact> 0.73396030E+04</totfact>
</mgrwt>
</event>
<event>
 4    1  0.7692565E-003  0.4046424E+02  0.7818608E-02  0.1504823E+00
          3   -1    0    0    0  501  0.00000000000E+00  0.00000000000E+00  0.58764364163E+02  0.58764450959E+02  0.10100000000E+00 0.  1.
         -3   -1    0    0  501    0 -0.00000000000E+00 -0.00000000000E+00 -0.69653047315E+01  0.69660369654E+01  0.10100000000E+00 0.  1.
          2    1    1    2    0  502  0.13244747272E+01 -0.20042497459E+02  0.21959649661E+02  0.29760412588E+02  0.25500000000E-02 0. -1.
         -2    1    1    2  502    0 -0.13244747272E+01  0.20042497459E+02  0.29839409771E+02  0.35970075336E+02  0.25500000000E-02 0. -1.
<mgrwt>
<rscale>  0 0.40464237E+02</rscale>
<asrwt>0</asrwt>
<pdfrwt beam="1">  1        3 0.90407340E-02 0.40464237E+02</pdfrwt>
<pdfrwt beam="2">  1       -3 0.10716484E-02 0.40464237E+02</pdfrwt>
<totfact> 0.30659829E+05</totfact>
</mgrwt>
</event>
<event>
 4    1  0.7692565E-003  0.5666741E+02  0.7818608E-02  0.1412374E+00
         -3   -1    0    0  501    0 -0.00000000000E+00  0.00000000000E+00  0.15060223328E+03  0.15060226715E+03  0.10100000000E+00 0. -1.
          3   -1    0    0    0  501  0.00000000000E+00 -0.00000000000E+00 -0.53300785659E+01  0.53310354077E+01  0.10100000000E+00 0. -1.
          2    1    1    2    0  502  0.24957953345E+02  0.13104324303E+02  0.64767761708E+02  0.70636291761E+02  0.25500000000E-02 0.  1.
         -2    1    1    2  502    0 -0.24957953345E+02 -0.13104324303E+02  0.80504393006E+02  0.85297010794E+02  0.25500000000E-02 0.  1.
<mgrwt>
<rscale>  0 0.56667415E+02</rscale>
<asrwt>0</asrwt>
<pdfrwt beam="2">  1        3 0.82008846E-03 0.56667415E+02</pdfrwt>
<pdfrwt beam="1">  1       -3 0.23169646E-01 0.56667415E+02</pdfrwt>
<totfact> 0.10784959E+05</totfact>
</mgrwt>
</event>
<event>
 4    1  0.7692565E-003  0.7767458E+02  0.7818608E-02  0.1335783E+00
         -3   -1    0    0  501    0 -0.00000000000E+00  0.00000000000E+00  0.95356802184E+01  0.95362150892E+01  0.10100000000E+00 0.  1.
          3   -1    0    0    0  501  0.00000000000E+00 -0.00000000000E+00 -0.15817306012E+03  0.15817309236E+03  0.10100000000E+00 0.  1.
          2    1    1    2    0  502  0.78866046003E+01 -0.34844199289E+02 -0.41430532312E+02  0.54706542300E+02  0.25500000000E-02 0. -1.
         -2    1    1    2  502    0 -0.78866046003E+01  0.34844199289E+02 -0.10720684759E+03  0.11300276515E+03  0.25500000000E-02 0. -1.
<mgrwt>
<rscale>  0 0.77674585E+02</rscale>
<asrwt>0</asrwt>
<pdfrwt beam="2">  1        3 0.24334359E-01 0.77674585E+02</pdfrwt>
<pdfrwt beam="1">  1       -3 0.14670715E-02 0.77674585E+02</pdfrwt>
<totfact> 0.46463401E+04</totfact>
</mgrwt>
</event>
<event>
 4    1  0.7692565E-003  0.7517064E+02  0.7818608E-02  0.1343343E+00
          3   -1    0    0    0  501  0.00000000000E+00  0.00000000000E+00  0.40761707889E+02  0.40761833019E+02  0.10100000000E+00 0. -1.
         -3   -1    0    0  501    0 -0.00000000000E+00 -0.00000000000E+00 -0.34656204935E+02  0.34656352109E+02  0.10100000000E+00 0. -1.
          2    1    1    2    0  502 -0.20559900805E+02  0.31266596746E+02  0.65781198746E+01  0.37994489874E+02  0.25500000000E-02 0. -1.
         -2    1    1    2  502    0  0.20559900805E+02 -0.31266596746E+02 -0.47261692021E+00  0.37423695254E+02  0.25500000000E-02 0. -1.
<mgrwt>
<rscale>  0 0.75170642E+02</rscale>
<asrwt>0</asrwt>
<pdfrwt beam="1">  1        3 0.62710530E-02 0.75170642E+02</pdfrwt>
<pdfrwt beam="2">  1       -3 0.53317448E-02 0.75170642E+02</pdfrwt>
<totfact> 0.61588770E+04</totfact>
</mgrwt>
</event>
<event>
 4    1  0.7692565E-003  0.4452742E+02  0.7818608E-02  0.1477314E+00
          3   -1    0    0    0  501  0.00000000000E+00  0.00000000000E+00  0.78899195673E+01  0.78905659986E+01  0.10100000000E+00 0.  1.
         -3   -1    0    0  501    0 -0.00000000000E+00 -0.00000000000E+00 -0.62820305516E+02  0.62820386708E+02  0.10100000000E+00 0.  1.
          2    1    1    2    0  502 -0.10117823403E+02  0.19480063339E+02 -0.21559581935E+02  0.30767820817E+02  0.25500000000E-02 0. -1.
         -2    1    1    2  502    0  0.10117823403E+02 -0.19480063339E+02 -0.33370804014E+02  0.39943131889E+02  0.25500000000E-02 0. -1.
<mgrwt>
<rscale>  0 0.44527424E+02</rscale>
<asrwt>0</asrwt>
<pdfrwt beam="1">  1        3 0.12138898E-02 0.44527424E+02</pdfrwt>
<pdfrwt beam="2">  1       -3 0.96647180E-02 0.44527424E+02</pdfrwt>
<totfact> 0.23928807E+05</totfact>
</mgrwt>
</event>
<event>
 4    1  0.7692565E-003  0.7149076E+02  0.7818608E-02  0.1355096E+00
          3   -1    0    0    0  501  0.00000000000E+00  0.00000000000E+00  0.10458027867E+03  0.10458032744E+03  0.10100000000E+00 0.  1.
         -3   -1    0    0  501    0 -0.00000000000E+00 -0.00000000000E+00 -0.12217456537E+02  0.12217874007E+02  0.10100000000E+00 0.  1.
          2    1    1    2    0  502  0.27459300103E+02 -0.30917790921E+01  0.83226902855E+02  0.87694296425E+02  0.25500000000E-02 0. -1.
         -2    1    1    2  502    0 -0.27459300103E+02  0.30917790921E+01  0.91359192797E+01  0.29103905025E+02  0.25500000000E-02 0. -1.
<mgrwt>
<rscale>  0 0.71490761E+02</rscale>
<asrwt>0</asrwt>
<pdfrwt beam="1">  1        3 0.16089310E-01 0.71490761E+02</pdfrwt>
<pdfrwt beam="2">  1       -3 0.18796446E-02 0.71490761E+02</pdfrwt>
<totfact> 0.64129355E+04</totfact>
</mgrwt>
</event>
<event>
 4    1  0.7692565E-003  0.4107085E+02  0.7818608E-02  0.1500476E+00
         -3   -1    0    0  501    0 -0.00000000000E+00  0.00000000000E+00  0.22434471348E+03  0.22434473621E+03  0.10100000000E+00 0.  1.
          3   -1    0    0    0  501  0.00000000000E+00 -0.00000000000E+00 -0.18783333145E+01  0.18810467937E+01  0.10100000000E+00 0.  1.
          2    1    1    2    0  502 -0.14185157819E+02  0.14416008710E+02  0.91631768264E+02  0.93837204621E+02  0.25500000000E-02 0. -1.
         -2    1    1    2  502    0  0.14185157819E+02 -0.14416008710E+02  0.13083461190E+03  0.13238857838E+03  0.25500000000E-02 0. -1.
<mgrwt>
<rscale>  0 0.41070848E+02</rscale>
<asrwt>0</asrwt>
<pdfrwt beam="2">  1        3 0.28918492E-03 0.41070848E+02</pdfrwt>
<pdfrwt beam="1">  1       -3 0.34514771E-01 0.41070848E+02</pdfrwt>
<totfact> 0.20932707E+05</totfact>
</mgrwt>
</event>
<event>
 4    1  0.7692565E-003  0.1127973E+03  0.7818608E-02  0.1255476E+00
         -3   -1    0    0  501    0 -0.00000000000E+00  0.00000000000E+00  0.14930574821E+02  0.14930916431E+02  0.10100000000E+00 0. -1.
          3   -1    0    0    0  501  0.00000000000E+00 -0.00000000000E+00 -0.21303719915E+03  0.21303722310E+03  0.10100000000E+00 0. -1.
          2    1    1    2    0  502  0.34612205453E+02 -0.97628953406E+00 -0.18902604128E+03  0.19217128348E+03  0.25500000000E-02 0. -1.
         -2    1    1    2  502    0 -0.34612205453E+02  0.97628953406E+00 -0.90805830566E+01  0.35796856046E+02  0.25500000000E-02 0. -1.
<mgrwt>
<rscale>  0 0.11279733E+03</rscale>
<asrwt>0</asrwt>
<pdfrwt beam="2">  1        3 0.32774980E-01 0.11279733E+03</pdfrwt>
<pdfrwt beam="1">  1       -3 0.22970398E-02 0.11279733E+03</pdfrwt>
<totfact> 0.15170177E+04</totfact>
</mgrwt>
</event>
<event>
 4    1  0.7692565E-003  0.5040064E+02  0.7818608E-02  0.1443193E+00
          3   -1    0    0    0  501  0.00000000000E+00  0.00000000000E+00  0.68016840687E+00  0.68762639690E+00  0.10100000000E+00 0. -1.
         -3   -1    0    0  501    0 -0.00000000000E+00 -0.00000000000E+00 -0.92857641522E+03  0.92857642072E+03  0.10100000000E+00 0. -1.
          2    1    1    2    0  502 -0.92460918862E+01  0.23424455332E+02 -0.48105406125E+03  0.48171278287E+03  0.25500000000E-02 0.  1.
         -2    1    1    2  502    0  0.92460918862E+01 -0.23424455332E+02 -0.44684218557E+03  0.44755126425E+03  0.25500000000E-02 0.  1.
<mgrwt>
<rscale>  0 0.50400639E+02</rscale>
<asrwt>0</asrwt>
<pdfrwt beam="1">  1        3 0.10521615E-03 0.50400639E+02</pdfrwt>
<pdfrwt beam="2">  1       -3 0.14285747E+00 0.50400639E+02</pdfrwt>
<totfact> 0.49246826E+04</totfact>
</mgrwt>
</event>
<event>
 4    1  0.7692565E-003  0.5831496E+02  0.7818608E-02  0.1405042E+00
          3   -1    0    0    0  501  0.00000000000E+00  0.00000000000E+00  0.31895447372E+02  0.31895607285E+02  0.10100000000E+00 0. -1.
         -3   -1    0    0  501    0 -0.00000000000E+00 -0.00000000000E+00 -0.26654227120E+02  0.26654418477E+02  0.10100000000E+00 0. -1.
          2    1    1    2    0  502  0.16207318873E+02 -0.20035241338E+02  0.16316367756E+02  0.30501015455E+02  0.25500000000E-02 0. -1.
         -2    1    1    2  502    0 -0.16207318873E+02  0.20035241338E+02 -0.11075147503E+02  0.28049010308E+02  0.25500000000E-02 0. -1.
<mgrwt>
<rscale>  0 0.58314965E+02</rscale>
<asrwt>0</asrwt>
<pdfrwt beam="1">  1        3 0.49070189E-02 0.58314965E+02</pdfrwt>
<pdfrwt beam="2">  1       -3 0.41006774E-02 0.58314965E+02</pdfrwt>
<totfact> 0.12481355E+05</totfact>
</mgrwt>
</event>
<event>
 4    1  0.7692565E-003  0.5292955E+02  0.7818608E-02  0.1430152E+00
         -3   -1    0    0  501    0 -0.00000000000E+00  0.00000000000E+00  0.63946563729E+02  0.63946643491E+02  0.10100000000E+00 0.  1.
          3   -1    0    0    0  501  0.00000000000E+00 -0.00000000000E+00 -0.10952331229E+02  0.10952796919E+02  0.10100000000E+00 0.  1.
          2    1    1    2    0  502  0.16980627453E+02 -0.10984183116E+02  0.23415090867E+01  0.20358699829E+02  0.25500000000E-02 0. -1.
         -2    1    1    2  502    0 -0.16980627453E+02  0.10984183116E+02  0.50652723413E+02  0.54540740580E+02  0.25500000000E-02 0. -1.
<mgrwt>
<rscale>  0 0.52929552E+02</rscale>
<asrwt>0</asrwt>
<pdfrwt beam="2">  1        3 0.16850160E-02 0.52929552E+02</pdfrwt>
<pdfrwt beam="1">  1       -3 0.98379751E-02 0.52929552E+02</pdfrwt>
<totfact> 0.15354293E+05</totfact>
</mgrwt>
</event>
<event>
 4    1  0.7692565E-003  0.6499017E+02  0.7818608E-02  0.1378008E+00
          3   -1    0    0    0  501  0.00000000000E+00  0.00000000000E+00  0.22635945710E+02  0.22636171036E+02  0.10100000000E+00 0. -1.
         -3   -1    0    0  501    0 -0.00000000000E+00 -0.00000000000E+00 -0.46647889831E+02  0.46647999172E+02  0.10100000000E+00 0. -1.
          2    1    1    2    0  502 -0.12872462597E+02  0.21042157970E+02 -0.34556797719E+02  0.42457566822E+02  0.25500000000E-02 0.  1.
         -2    1    1    2  502    0  0.12872462597E+02 -0.21042157970E+02  0.10544853598E+02  0.26826603386E+02  0.25500000000E-02 0.  1.
<mgrwt>
<rscale>  0 0.64990174E+02</rscale>
<asrwt>0</asrwt>
<pdfrwt beam="1">  1        3 0.34824789E-02 0.64990174E+02</pdfrwt>
<pdfrwt beam="2">  1       -3 0.71766242E-02 0.64990174E+02</pdfrwt>
<totfact> 0.91731538E+04</totfact>
</mgrwt>
</event>
<event>
 4    1  0.7692565E-003  0.6575876E+02  0.7818608E-02  0.1375140E+00
          3   -1    0    0    0  501  0.00000000000E+00  0.00000000000E+00  0.28757376486E+02  0.28757553849E+02  0.10100000000E+00 0. -1.
         -3   -1    0    0  501    0 -0.00000000000E+00 -0.00000000000E+00 -0.37591860328E+02  0.37591996009E+02  0.10100000000E+00 0. -1.
          2    1    1    2    0  502 -0.31541003521E+02 -0.59112060167E+01 -0.11642329540E+02  0.34136799840E+02  0.25500000000E-02 0. -1.
         -2    1    1    2  502    0  0.31541003521E+02  0.59112060167E+01  0.28078456983E+01  0.32212750017E+02  0.25500000000E-02 0. -1.
<mgrwt>
<rscale>  0 0.65758761E+02</rscale>
<asrwt>0</asrwt>
<pdfrwt beam="1">  1        3 0.44242358E-02 0.65758761E+02</pdfrwt>
<pdfrwt beam="2">  1       -3 0.57833872E-02 0.65758761E+02</pdfrwt>
<totfact> 0.89587332E+04</totfact>
</mgrwt>
</event>
<event>
 4    1  0.7692565E-003  0.6456116E+02  0.7818608E-02  0.1379630E+00
         -3   -1    0    0  501    0 -0.00000000000E+00  0.00000000000E+00  0.94032300343E+03  0.94032300885E+03  0.10100000000E+00 0. -1.
          3   -1    0    0    0  501  0.00000000000E+00 -0.00000000000E+00 -0.11058613781E+01  0.11104640415E+01  0.10100000000E+00 0. -1.
          2    1    1    2    0  502  0.18068417252E+02  0.21495403597E+02  0.70178647566E+03  0.70234804584E+03  0.25500000000E-02 0.  1.
         -2    1    1    2  502    0 -0.18068417252E+02 -0.21495403597E+02  0.23743066639E+03  0.23908542705E+03  0.25500000000E-02 0.  1.
<mgrwt>
<rscale>  0 0.64561165E+02</rscale>
<asrwt>0</asrwt>
<pdfrwt beam="2">  1        3 0.17048707E-03 0.64561165E+02</pdfrwt>
<pdfrwt beam="1">  1       -3 0.14466537E+00 0.64561165E+02</pdfrwt>
<totfact> 0.26078610E+04</totfact>
</mgrwt>
</event>
<event>
 4    1  0.7692565E-003  0.4416812E+02  0.7818608E-02  0.1479603E+00
          3   -1    0    0    0  501  0.00000000000E+00  0.00000000000E+00  0.25215112962E+03  0.25215114985E+03  0.10100000000E+00 0. -1.
         -3   -1    0    0  501    0 -0.00000000000E+00 -0.00000000000E+00 -0.19328412259E+01  0.19354782883E+01  0.10100000000E+00 0. -1.
          2    1    1    2    0  502 -0.12608438508E+02 -0.16438023602E+02  0.81100178177E+02  0.83704362182E+02  0.25500000000E-02 0.  1.
         -2    1    1    2  502    0  0.12608438508E+02  0.16438023602E+02  0.16911811022E+03  0.17038226595E+03  0.25500000000E-02 0.  1.
<mgrwt>
<rscale>  0 0.44168119E+02</rscale>
<asrwt>0</asrwt>
<pdfrwt beam="1">  1        3 0.38792698E-01 0.44168119E+02</pdfrwt>
<pdfrwt beam="2">  1       -3 0.29756450E-03 0.44168119E+02</pdfrwt>
<totfact> 0.16679871E+05</totfact>
</mgrwt>
</event>
<event>
 4    1  0.7692565E-003  0.6112801E+02  0.7818608E-02  0.1393158E+00
         -3   -1    0    0  501    0 -0.00000000000E+00  0.00000000000E+00  0.29916777779E+02  0.29916948268E+02  0.10100000000E+00 0. -1.
          3   -1    0    0    0  501  0.00000000000E+00 -0.00000000000E+00 -0.31224898035E+02  0.31225061382E+02  0.10100000000E+00 0. -1.
          2    1    1    2    0  502  0.13545466247E+02  0.20627954480E+02 -0.18690558730E+02  0.30956891866E+02  0.25500000000E-02 0. -1.
         -2    1    1    2  502    0 -0.13545466247E+02 -0.20627954480E+02  0.17382438473E+02  0.30185117784E+02  0.25500000000E-02 0. -1.
<mgrwt>
<rscale>  0 0.61128015E+02</rscale>
<asrwt>0</asrwt>
<pdfrwt beam="2">  1        3 0.48038561E-02 0.61128015E+02</pdfrwt>
<pdfrwt beam="1">  1       -3 0.46026069E-02 0.61128015E+02</pdfrwt>
<totfact> 0.10978535E+05</totfact>
</mgrwt>
</event>
<event>
 4    1  0.7692565E-003  0.4968097E+02  0.7818608E-02  0.1447070E+00
         -3   -1    0    0  501    0 -0.00000000000E+00  0.00000000000E+00  0.26608945175E+01  0.26628106642E+01  0.10100000000E+00 0. -1.
          3   -1    0    0    0  501  0.00000000000E+00 -0.00000000000E+00 -0.23181023820E+03  0.23181026021E+03  0.10100000000E+00 0. -1.
          2    1    1    2    0  502  0.21099355983E+01  0.24352622658E+02 -0.13544124960E+03  0.13762933611E+03  0.25500000000E-02 0. -1.
         -2    1    1    2  502    0 -0.21099355983E+01 -0.24352622658E+02 -0.93708094089E+02  0.96843734763E+02  0.25500000000E-02 0. -1.
<mgrwt>
<rscale>  0 0.49680975E+02</rscale>
<asrwt>0</asrwt>
<pdfrwt beam="2">  1        3 0.35663247E-01 0.49680975E+02</pdfrwt>
<pdfrwt beam="1">  1       -3 0.40951766E-03 0.49680975E+02</pdfrwt>
<totfact> 0.12923828E+05</totfact>
</mgrwt>
</event>
<event>
 4    1  0.7692565E-003  0.5784882E+02  0.7818608E-02  0.1407088E+00
         -3   -1    0    0  501    0 -0.00000000000E+00  0.00000000000E+00  0.15936827808E+02  0.15937147850E+02  0.10100000000E+00 0. -1.
          3   -1    0    0    0  501  0.00000000000E+00 -0.00000000000E+00 -0.52495216723E+02  0.52495313884E+02  0.10100000000E+00 0. -1.
          2    1    1    2    0  502 -0.19341658791E+02  0.12879997414E+02 -0.38653053087E+02  0.45100472477E+02  0.25500000000E-02 0. -1.
         -2    1    1    2  502    0  0.19341658791E+02 -0.12879997414E+02  0.20946641722E+01  0.23331989257E+02  0.25500000000E-02 0. -1.
<mgrwt>
<rscale>  0 0.57848820E+02</rscale>
<asrwt>0</asrwt>
<pdfrwt beam="2">  1        3 0.80762192E-02 0.57848820E+02</pdfrwt>
<pdfrwt beam="1">  1       -3 0.24518518E-02 0.57848820E+02</pdfrwt>
<totfact> 0.12429457E+05</totfact>
</mgrwt>
</event>
<event>
 4    1  0.7692565E-003  0.5580611E+02  0.7818608E-02  0.1416325E+00
          3   -1    0    0    0  501  0.00000000000E+00  0.00000000000E+00  0.80438816144E+02  0.80438879552E+02  0.10100000000E+00 0.  1.
         -3   -1    0    0  501    0 -0.00000000000E+00 -0.00000000000E+00 -0.96788344252E+01  0.96793613855E+01  0.10100000000E+00 0.  1.
          2    1    1    2    0  502  0.13029765024E+02  0.23609316543E+02  0.23801879571E+02  0.35968098112E+02  0.25500000000E-02 0.  1.
         -2    1    1    2  502    0 -0.13029765024E+02 -0.23609316543E+02  0.46958102148E+02  0.54150142825E+02  0.25500000000E-02 0.  1.
<mgrwt>
<rscale>  0 0.55806114E+02</rscale>
<asrwt>0</asrwt>
<pdfrwt beam="1">  1        3 0.12375248E-01 0.55806114E+02</pdfrwt>
<pdfrwt beam="2">  1       -3 0.14890968E-02 0.55806114E+02</pdfrwt>
<totfact> 0.12935849E+05</totfact>
</mgrwt>
</event>
<event>
 4    1  0.7692565E-003  0.4220454E+02  0.7818608E-02  0.1492588E+00
          3   -1    0    0    0  501  0.00000000000E+00  0.00000000000E+00  0.18637713948E+02  0.18637987612E+02  0.10100000000E+00 0. -1.
         -3   -1    0    0  501    0 -0.00000000000E+00 -0.00000000000E+00 -0.23892172840E+02  0.23892386319E+02  0.10100000000E+00 0. -1.
          2    1    1    2    0  502 -0.82517454008E+01  0.19413861122E+02 -0.31941827745E+01  0.21335231799E+02  0.25500000000E-02 0.  1.
         -2    1    1    2  502    0  0.82517454008E+01 -0.19413861122E+02 -0.20602761179E+01  0.21195142132E+02  0.25500000000E-02 0.  1.
<mgrwt>
<rscale>  0 0.42204542E+02</rscale>
<asrwt>0</asrwt>
<pdfrwt beam="1">  1        3 0.28673781E-02 0.42204542E+02</pdfrwt>
<pdfrwt beam="2">  1       -3 0.36757564E-02 0.42204542E+02</pdfrwt>
<totfact> 0.29464427E+05</totfact>
</mgrwt>
</event>
<event>
 4    1  0.7692565E-003  0.4801568E+02  0.7818608E-02  0.1456348E+00
         -3   -1    0    0  501    0 -0.00000000000E+00  0.00000000000E+00  0.33468828438E+01  0.33484064523E+01  0.10100000000E+00 0.  1.
          3   -1    0    0    0  501  0.00000000000E+00 -0.00000000000E+00 -0.17217217550E+03  0.17217220513E+03  0.10100000000E+00 0.  1.
          2    1    1    2    0  502 -0.16133064620E+00  0.21325021928E+02 -0.12472153042E+03  0.12653158793E+03  0.25500000000E-02 0. -1.
         -2    1    1    2  502    0  0.16133064620E+00 -0.21325021928E+02 -0.44103762244E+02  0.48989023652E+02  0.25500000000E-02 0. -1.
<mgrwt>
<rscale>  0 0.48015681E+02</rscale>
<asrwt>0</asrwt>
<pdfrwt beam="2">  1        3 0.26488140E-01 0.48015681E+02</pdfrwt>
<pdfrwt beam="1">  1       -3 0.51502467E-03 0.48015681E+02</pdfrwt>
<totfact> 0.15723040E+05</totfact>
</mgrwt>
</event>
<event>
 4    1  0.7692565E-003  0.9190371E+02  0.7818608E-02  0.1298306E+00
         -3   -1    0    0  501    0 -0.00000000000E+00  0.00000000000E+00  0.43804452941E+02  0.43804569379E+02  0.10100000000E+00 0. -1.
          3   -1    0    0    0  501  0.00000000000E+00 -0.00000000000E+00 -0.48204289527E+02  0.48204395337E+02  0.10100000000E+00 0. -1.
          2    1    1    2    0  502 -0.28887558312E+02  0.35391485108E+02  0.27579760003E+01  0.45767397583E+02  0.25500000000E-02 0.  1.
         -2    1    1    2  502    0  0.28887558312E+02 -0.35391485108E+02 -0.71578125862E+01  0.46241567133E+02  0.25500000000E-02 0.  1.
<mgrwt>
<rscale>  0 0.91903705E+02</rscale>
<asrwt>0</asrwt>
<pdfrwt beam="2">  1        3 0.74160617E-02 0.91903705E+02</pdfrwt>
<pdfrwt beam="1">  1       -3 0.67391637E-02 0.91903705E+02</pdfrwt>
<totfact> 0.34518070E+04</totfact>
</mgrwt>
</event>
<event>
 4    1  0.7692565E-003  0.4060791E+02  0.7818608E-02  0.1503785E+00
          3   -1    0    0    0  501  0.00000000000E+00  0.00000000000E+00  0.32314364081E+02  0.32314521921E+02  0.10100000000E+00 0. -1.
         -3   -1    0    0  501    0 -0.00000000000E+00 -0.00000000000E+00 -0.12757111118E+02  0.12757510928E+02  0.10100000000E+00 0. -1.
          2    1    1    2    0  502 -0.18750704311E+02  0.74441111131E+01  0.72362289524E+01  0.21432842051E+02  0.25500000000E-02 0.  1.
         -2    1    1    2  502    0  0.18750704311E+02 -0.74441111131E+01  0.12321024011E+02  0.23639190798E+02  0.25500000000E-02 0.  1.
<mgrwt>
<rscale>  0 0.40607906E+02</rscale>
<asrwt>0</asrwt>
<pdfrwt beam="1">  1        3 0.49714836E-02 0.40607906E+02</pdfrwt>
<pdfrwt beam="2">  1       -3 0.19626753E-02 0.40607906E+02</pdfrwt>
<totfact> 0.32154723E+05</totfact>
</mgrwt>
</event>
<event>
 4    1  0.7692565E-003  0.5877181E+02  0.7818608E-02  0.1403059E+00
          3   -1    0    0    0  501  0.00000000000E+00  0.00000000000E+00  0.27369462080E+03  0.27369463944E+03  0.10100000000E+00 0.  1.
         -3   -1    0    0  501    0 -0.00000000000E+00 -0.00000000000E+00 -0.31542642032E+01  0.31558808063E+01  0.10100000000E+00 0.  1.
          2    1    1    2    0  502 -0.12590586507E+02 -0.24618366079E+02  0.18212696233E+03  0.18421405275E+03  0.25500000000E-02 0.  1.
         -2    1    1    2  502    0  0.12590586507E+02  0.24618366079E+02  0.88413394274E+02  0.92636467498E+02  0.25500000000E-02 0.  1.
<mgrwt>
<rscale>  0 0.58771813E+02</rscale>
<asrwt>0</asrwt>
<pdfrwt beam="1">  1        3 0.42107000E-01 0.58771813E+02</pdfrwt>
<pdfrwt beam="2">  1       -3 0.48539709E-03 0.58771813E+02</pdfrwt>
<totfact> 0.78644528E+04</totfact>
</mgrwt>
</event>
<event>
 4    1  0.7692565E-003  0.4819332E+02  0.7818608E-02  0.1455337E+00
         -3   -1    0    0  501    0 -0.00000000000E+00  0.00000000000E+00  0.21077887944E+01  0.21102072415E+01  0.10100000000E+00 0.  1.
          3   -1    0    0    0  501  0.00000000000E+00 -0.00000000000E+00 -0.27531739641E+03  0.27531741493E+03  0.10100000000E+00 0.  1.
          2    1    1    2    0  502 -0.18612423679E+02  0.13592941348E+02 -0.96120774596E+02  0.98845301786E+02  0.25500000000E-02 0.  1.
         -2    1    1    2  502    0  0.18612423679E+02 -0.13592941348E+02 -0.17708883302E+03  0.17858232039E+03  0.25500000000E-02 0.  1.
<mgrwt>
<rscale>  0 0.48193318E+02</rscale>
<asrwt>0</asrwt>
<pdfrwt beam="2">  1        3 0.42356681E-01 0.48193318E+02</pdfrwt>
<pdfrwt beam="1">  1       -3 0.32446288E-03 0.48193318E+02</pdfrwt>
<totfact> 0.12923029E+05</totfact>
</mgrwt>
</event>
<event>
 4    1  0.7692565E-003  0.8157703E+02  0.7818608E-02  0.1324635E+00
          3   -1    0    0    0  501  0.00000000000E+00  0.00000000000E+00  0.33256449284E+03  0.33256450817E+03  0.10100000000E+00 0. -1.
         -3   -1    0    0  501    0 -0.00000000000E+00 -0.00000000000E+00 -0.50021223278E+01  0.50031418911E+01  0.10100000000E+00 0. -1.
          2    1    1    2    0  502  0.24151441891E+02 -0.11076510497E+02  0.29184092010E+03  0.29304795491E+03  0.25500000000E-02 0.  1.
         -2    1    1    2  502    0 -0.24151441891E+02  0.11076510497E+02  0.35721450412E+02  0.44519695150E+02  0.25500000000E-02 0.  1.
<mgrwt>
<rscale>  0 0.81577030E+02</rscale>
<asrwt>0</asrwt>
<pdfrwt beam="1">  1        3 0.51163831E-01 0.81577030E+02</pdfrwt>
<pdfrwt beam="2">  1       -3 0.76963714E-03 0.81577030E+02</pdfrwt>
<totfact> 0.30447448E+04</totfact>
</mgrwt>
</event>
<event>
 4    1  0.7692565E-003  0.4791635E+02  0.7818608E-02  0.1456916E+00
          3   -1    0    0    0  501  0.00000000000E+00  0.00000000000E+00  0.12968493088E+02  0.12968886382E+02  0.10100000000E+00 0. -1.
         -3   -1    0    0  501    0 -0.00000000000E+00 -0.00000000000E+00 -0.44259535889E+02  0.44259651130E+02  0.10100000000E+00 0. -1.
          2    1    1    2    0  502 -0.61854265194E-01  0.21557723171E+02 -0.31616531484E+01  0.21788421499E+02  0.25500000000E-02 0. -1.
         -2    1    1    2  502    0  0.61854265194E-01 -0.21557723171E+02 -0.28129389652E+02  0.35440116012E+02  0.25500000000E-02 0. -1.
<mgrwt>
<rscale>  0 0.47916345E+02</rscale>
<asrwt>0</asrwt>
<pdfrwt beam="1">  1        3 0.19951919E-02 0.47916345E+02</pdfrwt>
<pdfrwt beam="2">  1       -3 0.68091984E-02 0.47916345E+02</pdfrwt>
<totfact> 0.20639471E+05</totfact>
</mgrwt>
</event>
<event>
 4    1  0.7692565E-003  0.5413629E+02  0.7818608E-02  0.1424228E+00
          3   -1    0    0    0  501  0.00000000000E+00  0.00000000000E+00  0.20279237737E+02  0.20279489249E+02  0.10100000000E+00 0. -1.
         -3   -1    0    0  501    0 -0.00000000000E+00 -0.00000000000E+00 -0.36129241267E+02  0.36129382441E+02  0.10100000000E+00 0. -1.
          2    1    1    2    0  502  0.14138961394E+01 -0.26497182798E+02 -0.23540929599E+01  0.26639098309E+02  0.25500000000E-02 0. -1.
         -2    1    1    2  502    0 -0.14138961394E+01  0.26497182798E+02 -0.13495910570E+02  0.29769773381E+02  0.25500000000E-02 0. -1.
<mgrwt>
<rscale>  0 0.54136293E+02</rscale>
<asrwt>0</asrwt>
<pdfrwt beam="1">  1        3 0.31199129E-02 0.54136293E+02</pdfrwt>
<pdfrwt beam="2">  1       -3 0.55583750E-02 0.54136293E+02</pdfrwt>
<totfact> 0.15189469E+05</totfact>
</mgrwt>
</event>
<event>
 4    1  0.7692565E-003  0.4412553E+02  0.7818608E-02  0.1479876E+00
          3   -1    0    0    0  501  0.00000000000E+00  0.00000000000E+00  0.75598658210E+02  0.75598725678E+02  0.10100000000E+00 0.  1.
         -3   -1    0    0  501    0 -0.00000000000E+00 -0.00000000000E+00 -0.64383457739E+01  0.64391379318E+01  0.10100000000E+00 0.  1.
          2    1    1    2    0  502 -0.45126618742E+00 -0.21390316358E+02  0.24565286671E+02  0.32576104598E+02  0.25500000000E-02 0. -1.
         -2    1    1    2  502    0  0.45126618742E+00  0.21390316358E+02  0.44595025765E+02  0.49461759012E+02  0.25500000000E-02 0. -1.
<mgrwt>
<rscale>  0 0.44125528E+02</rscale>
<asrwt>0</asrwt>
<pdfrwt beam="1">  1        3 0.11630629E-01 0.44125528E+02</pdfrwt>
<pdfrwt beam="2">  1       -3 0.99058085E-03 0.44125528E+02</pdfrwt>
<totfact> 0.23785124E+05</totfact>
</mgrwt>
</event>
<event>
 4    1  0.7692565E-003  0.5059825E+02  0.7818608E-02  0.1442141E+00
          3   -1    0    0    0  501  0.00000000000E+00  0.00000000000E+00  0.29544249974E+02  0.29544422613E+02  0.10100000000E+00 0.  1.
         -3   -1    0    0  501    0 -0.00000000000E+00 -0.00000000000E+00 -0.21663611722E+02  0.21663847162E+02  0.10100000000E+00 0.  1.
          2    1    1    2    0  502  0.20407303012E+01  0.24982414237E+02  0.74109491534E+01  0.26138243536E+02  0.25500000000E-02 0.  1.
         -2    1    1    2  502    0 -0.20407303012E+01 -0.24982414237E+02  0.46968909885E+00  0.25070026239E+02  0.25500000000E-02 0.  1.
<mgrwt>
<rscale>  0 0.50598245E+02</rscale>
<asrwt>0</asrwt>
<pdfrwt beam="1">  1        3 0.45453006E-02 0.50598245E+02</pdfrwt>
<pdfrwt beam="2">  1       -3 0.33328947E-02 0.50598245E+02</pdfrwt>
<totfact> 0.18285445E+05</totfact>
</mgrwt>
</event>
<event>
 4    1  0.7692565E-003  0.4789343E+02  0.7818608E-02  0.1457047E+00
         -3   -1    0    0  501    0 -0.00000000000E+00  0.00000000000E+00  0.27332171590E+02  0.27332358201E+02  0.10100000000E+00 0.  1.
          3   -1    0    0    0  501  0.00000000000E+00 -0.00000000000E+00 -0.20980209526E+02  0.20980452635E+02  0.10100000000E+00 0.  1.
          2    1    1    2    0  502 -0.15196214277E+02 -0.17361248672E+02 -0.32916498348E+01  0.23306068930E+02  0.25500000000E-02 0.  1.
         -2    1    1    2  502    0  0.15196214277E+02  0.17361248672E+02  0.96436118993E+01  0.25006741907E+02  0.25500000000E-02 0.  1.
<mgrwt>
<rscale>  0 0.47893426E+02</rscale>
<asrwt>0</asrwt>
<pdfrwt beam="2">  1        3 0.32277576E-02 0.47893426E+02</pdfrwt>
<pdfrwt beam="1">  1       -3 0.42049825E-02 0.47893426E+02</pdfrwt>
<totfact> 0.21163444E+05</totfact>
</mgrwt>
</event>
<event>
 4    1  0.7692565E-003  0.7278616E+02  0.7818608E-02  0.1350867E+00
         -3   -1    0    0  501    0 -0.00000000000E+00  0.00000000000E+00  0.55794558714E+02  0.55794650129E+02  0.10100000000E+00 0. -1.
          3   -1    0    0    0  501  0.00000000000E+00 -0.00000000000E+00 -0.23737873640E+02  0.23738088507E+02  0.10100000000E+00 0. -1.
          2    1    1    2    0  502  0.24222981694E+02  0.27018309425E+02  0.12993401886E+02  0.38543097766E+02  0.25500000000E-02 0.  1.
         -2    1    1    2  502    0 -0.24222981694E+02 -0.27018309425E+02  0.19063283188E+02  0.40989640871E+02  0.25500000000E-02 0.  1.
<mgrwt>
<rscale>  0 0.72786163E+02</rscale>
<asrwt>0</asrwt>
<pdfrwt beam="2">  1        3 0.36520042E-02 0.72786163E+02</pdfrwt>
<pdfrwt beam="1">  1       -3 0.85838017E-02 0.72786163E+02</pdfrwt>
<totfact> 0.66449295E+04</totfact>
</mgrwt>
</event>
<event>
 4    1  0.7692565E-003  0.4394953E+02  0.7818608E-02  0.1481008E+00
         -3   -1    0    0  501    0 -0.00000000000E+00  0.00000000000E+00  0.21643398857E+00  0.23884026337E+00  0.10100000000E+00 0.  1.
          3   -1    0    0    0  501  0.00000000000E+00 -0.00000000000E+00 -0.21212936321E+04  0.21212936345E+04  0.10100000000E+00 0.  1.
          2    1    1    2    0  502 -0.43088682840E+01  0.21442605179E+02 -0.95769974351E+03  0.95794945085E+03  0.25500000000E-02 0. -1.
         -2    1    1    2  502    0  0.43088682840E+01 -0.21442605179E+02 -0.11633774546E+04  0.11635830240E+04  0.25500000000E-02 0. -1.
<mgrwt>
<rscale>  0 0.43949530E+02</rscale>
<asrwt>0</asrwt>
<pdfrwt beam="2">  1        3 0.32633876E+00 0.43949530E+02</pdfrwt>
<pdfrwt beam="1">  1       -3 0.35022980E-04 0.43949530E+02</pdfrwt>
<totfact> 0.21222573E+04</totfact>
</mgrwt>
</event>
<event>
 4    1  0.7692565E-003  0.5741647E+02  0.7818608E-02  0.1409005E+00
         -3   -1    0    0  501    0 -0.00000000000E+00  0.00000000000E+00  0.13230404001E+03  0.13230407856E+03  0.10100000000E+00 0.  1.
          3   -1    0    0    0  501  0.00000000000E+00 -0.00000000000E+00 -0.62288596183E+01  0.62296784142E+01  0.10100000000E+00 0.  1.
          2    1    1    2    0  502 -0.24886903874E+02 -0.10426166456E+02  0.86690264453E+02  0.90792427486E+02  0.25500000000E-02 0. -1.
         -2    1    1    2  502    0  0.24886903874E+02  0.10426166456E+02  0.39384915938E+02  0.47741329488E+02  0.25500000000E-02 0. -1.
<mgrwt>
<rscale>  0 0.57416467E+02</rscale>
<asrwt>0</asrwt>
<pdfrwt beam="2">  1        3 0.95835217E-03 0.57416467E+02</pdfrwt>
<pdfrwt beam="1">  1       -3 0.20354531E-01 0.57416467E+02</pdfrwt>
<totfact> 0.10811065E+05</totfact>
</mgrwt>
</event>
<event>
 4    1  0.7692565E-003  0.5386467E+02  0.7818608E-02  0.1425545E+00
          3   -1    0    0    0  501  0.00000000000E+00  0.00000000000E+00  0.60609063400E+02  0.60609147554E+02  0.10100000000E+00 0. -1.
         -3   -1    0    0  501    0 -0.00000000000E+00 -0.00000000000E+00 -0.11967389221E+02  0.11967815414E+02  0.10100000000E+00 0. -1.
          2    1    1    2    0  502  0.21600999199E+02  0.40677528123E+01  0.33515961517E+01  0.22234724703E+02  0.25500000000E-02 0.  1.
         -2    1    1    2  502    0 -0.21600999199E+02 -0.40677528123E+01  0.45290078027E+02  0.50342238265E+02  0.25500000000E-02 0.  1.
<mgrwt>
<rscale>  0 0.53864674E+02</rscale>
<asrwt>0</asrwt>
<pdfrwt beam="1">  1        3 0.93245104E-02 0.53864674E+02</pdfrwt>
<pdfrwt beam="2">  1       -3 0.18411761E-02 0.53864674E+02</pdfrwt>
<totfact> 0.14768141E+05</totfact>
</mgrwt>
</event>
<event>
 4    1  0.7692565E-003  0.4892280E+02  0.7818608E-02  0.1451240E+00
         -3   -1    0    0  501    0 -0.00000000000E+00  0.00000000000E+00  0.65956998730E+02  0.65957076061E+02  0.10100000000E+00 0. -1.
          3   -1    0    0    0  501  0.00000000000E+00 -0.00000000000E+00 -0.90716106245E+01  0.90721728557E+01  0.10100000000E+00 0. -1.
          2    1    1    2    0  502 -0.80312623911E+01  0.22060554561E+02  0.38978035842E+02  0.45502269479E+02  0.25500000000E-02 0. -1.
         -2    1    1    2  502    0  0.80312623911E+01 -0.22060554561E+02  0.17907352264E+02  0.29526979438E+02  0.25500000000E-02 0. -1.
<mgrwt>
<rscale>  0 0.48922805E+02</rscale>
<asrwt>0</asrwt>
<pdfrwt beam="2">  1        3 0.13956816E-02 0.48922805E+02</pdfrwt>
<pdfrwt beam="1">  1       -3 0.10147279E-01 0.48922805E+02</pdfrwt>
<totfact> 0.18719996E+05</totfact>
</mgrwt>
</event>
<event>
 4    1  0.7692565E-003  0.5789035E+02  0.7818608E-02  0.1406904E+00
          3   -1    0    0    0  501  0.00000000000E+00  0.00000000000E+00  0.13422757902E+02  0.13423137885E+02  0.10100000000E+00 0. -1.
         -3   -1    0    0  501    0 -0.00000000000E+00 -0.00000000000E+00 -0.62416809708E+02  0.62416891424E+02  0.10100000000E+00 0. -1.
          2    1    1    2    0  502 -0.19752267263E+02  0.19765292047E+02 -0.34388168602E+02  0.44309874499E+02  0.25500000000E-02 0.  1.
         -2    1    1    2  502    0  0.19752267263E+02 -0.19765292047E+02 -0.14605883204E+02  0.31530154811E+02  0.25500000000E-02 0.  1.
<mgrwt>
<rscale>  0 0.57890353E+02</rscale>
<asrwt>0</asrwt>
<pdfrwt beam="1">  1        3 0.20650752E-02 0.57890353E+02</pdfrwt>
<pdfrwt beam="2">  1       -3 0.96026215E-02 0.57890353E+02</pdfrwt>
<totfact> 0.12184740E+05</totfact>
</mgrwt>
</event>
<event>
 4    1  0.7692565E-003  0.4841265E+02  0.7818608E-02  0.1454096E+00
          3   -1    0    0    0  501  0.00000000000E+00  0.00000000000E+00  0.34756336725E+02  0.34756483475E+02  0.10100000000E+00 0. -1.
         -3   -1    0    0  501    0 -0.00000000000E+00 -0.00000000000E+00 -0.16858355222E+02  0.16858657770E+02  0.10100000000E+00 0. -1.
          2    1    1    2    0  502  0.69958820004E+01 -0.22792208779E+02  0.13411450295E+02  0.27354965756E+02  0.25500000000E-02 0. -1.
         -2    1    1    2  502    0 -0.69958820004E+01  0.22792208779E+02  0.44865312081E+01  0.24260175489E+02  0.25500000000E-02 0. -1.
<mgrwt>
<rscale>  0 0.48412654E+02</rscale>
<asrwt>0</asrwt>
<pdfrwt beam="1">  1        3 0.53471632E-02 0.48412654E+02</pdfrwt>
<pdfrwt beam="2">  1       -3 0.25936277E-02 0.48412654E+02</pdfrwt>
<totfact> 0.20414077E+05</totfact>
</mgrwt>
</event>
<event>
 4    1  0.7692565E-003  0.4526301E+02  0.7818608E-02  0.1472706E+00
          3   -1    0    0    0  501  0.00000000000E+00  0.00000000000E+00  0.27076824922E+01  0.27095655516E+01  0.10100000000E+00 0. -1.
         -3   -1    0    0  501    0 -0.00000000000E+00 -0.00000000000E+00 -0.18909229758E+03  0.18909232455E+03  0.10100000000E+00 0. -1.
          2    1    1    2    0  502 -0.74892410404E+01 -0.20669251319E+02 -0.70420583864E+02  0.73772388600E+02  0.25500000000E-02 0. -1.
         -2    1    1    2  502    0  0.74892410404E+01  0.20669251319E+02 -0.11596403122E+03  0.11802950151E+03  0.25500000000E-02 0. -1.
<mgrwt>
<rscale>  0 0.45263013E+02</rscale>
<asrwt>0</asrwt>
<pdfrwt beam="1">  1        3 0.41671361E-03 0.45263013E+02</pdfrwt>
<pdfrwt beam="2">  1       -3 0.29091259E-01 0.45263013E+02</pdfrwt>
<totfact> 0.17622185E+05</totfact>
</mgrwt>
</event>
<event>
 4    1  0.7692565E-003  0.6133313E+02  0.7818608E-02  0.1392321E+00
         -3   -1    0    0  501    0 -0.00000000000E+00  0.00000000000E+00  0.14156660591E+02  0.14157020876E+02  0.10100000000E+00 0.  1.
          3   -1    0    0    0  501  0.00000000000E+00 -0.00000000000E+00 -0.66429557157E+02  0.66429633938E+02  0.10100000000E+00 0.  1.
          2    1    1    2    0  502 -0.13255989949E+02 -0.25843245950E+02 -0.13206297438E+02  0.31906126830E+02  0.25500000000E-02 0. -1.
         -2    1    1    2  502    0  0.13255989949E+02  0.25843245950E+02 -0.39066599128E+02  0.48680527984E+02  0.25500000000E-02 0. -1.
<mgrwt>
<rscale>  0 0.61333133E+02</rscale>
<asrwt>0</asrwt>
<pdfrwt beam="2">  1        3 0.10219965E-01 0.61333133E+02</pdfrwt>
<pdfrwt beam="1">  1       -3 0.21779814E-02 0.61333133E+02</pdfrwt>
<totfact> 0.10379746E+05</totfact>
</mgrwt>
</event>
<event>
 4    1  0.7692565E-003  0.4954170E+02  0.7818608E-02  0.1447829E+00
         -3   -1    0    0  501    0 -0.00000000000E+00  0.00000000000E+00  0.28965104695E+01  0.28982708466E+01  0.10100000000E+00 0.  1.
          3   -1    0    0    0  501  0.00000000000E+00 -0.00000000000E+00 -0.21177328771E+03  0.21177331179E+03  0.10100000000E+00 0.  1.
          2    1    1    2    0  502  0.22372829536E+02  0.88700683020E+01 -0.12984315821E+03  0.13205478921E+03  0.25500000000E-02 0. -1.
         -2    1    1    2  502    0 -0.22372829536E+02 -0.88700683020E+01 -0.79033619034E+02  0.82616793434E+02  0.25500000000E-02 0. -1.
<mgrwt>
<rscale>  0 0.49541703E+02</rscale>
<asrwt>0</asrwt>
<pdfrwt beam="2">  1        3 0.32580631E-01 0.49541703E+02</pdfrwt>
<pdfrwt beam="1">  1       -3 0.44575443E-03 0.49541703E+02</pdfrwt>
<totfact> 0.13495081E+05</totfact>
</mgrwt>
</event>
<event>
 4    1  0.7692565E-003  0.4647406E+02  0.7818608E-02  0.1465344E+00
         -3   -1    0    0  501    0 -0.00000000000E+00  0.00000000000E+00  0.18093924183E+00  0.20721971246E+00  0.10100000000E+00 0.  1.
          3   -1    0    0    0  501  0.00000000000E+00 -0.00000000000E+00 -0.27821308256E+04  0.27821308274E+04  0.10100000000E+00 0.  1.
          2    1    1    2    0  502 -0.21731609905E+02  0.81573531209E+01 -0.13266527687E+04  0.13268558226E+04  0.25500000000E-02 0. -1.
         -2    1    1    2  502    0  0.21731609905E+02 -0.81573531209E+01 -0.14552971177E+04  0.14554822246E+04  0.25500000000E-02 0. -1.
<mgrwt>
<rscale>  0 0.46474061E+02</rscale>
<asrwt>0</asrwt>
<pdfrwt beam="2">  1        3 0.42799021E+00 0.46474061E+02</pdfrwt>
<pdfrwt beam="1">  1       -3 0.29860750E-04 0.46474061E+02</pdfrwt>
<totfact> 0.85934691E+03</totfact>
</mgrwt>
</event>
<event>
 4    1  0.7692565E-003  0.4758898E+02  0.7818608E-02  0.1458797E+00
          3   -1    0    0    0  501  0.00000000000E+00  0.00000000000E+00  0.26652893470E+02  0.26653084837E+02  0.10100000000E+00 0.  1.
         -3   -1    0    0  501    0 -0.00000000000E+00 -0.00000000000E+00 -0.21242245910E+02  0.21242486020E+02  0.10100000000E+00 0.  1.
          2    1    1    2    0  502 -0.21545811906E+02 -0.95897105519E+01  0.58868739634E+01  0.24307197508E+02  0.25500000000E-02 0.  1.
         -2    1    1    2  502    0  0.21545811906E+02  0.95897105519E+01 -0.47622640296E+00  0.23588373349E+02  0.25500000000E-02 0.  1.
<mgrwt>
<rscale>  0 0.47588976E+02</rscale>
<asrwt>0</asrwt>
<pdfrwt beam="1">  1        3 0.41004783E-02 0.47588976E+02</pdfrwt>
<pdfrwt beam="2">  1       -3 0.32680710E-02 0.47588976E+02</pdfrwt>
<totfact> 0.21528879E+05</totfact>
</mgrwt>
</event>
<event>
 4    1  0.7692565E-003  0.1317787E+03  0.7818608E-02  0.1224840E+00
          3   -1    0    0    0  501  0.00000000000E+00  0.00000000000E+00  0.48756026193E+03  0.48756027239E+03  0.10100000000E+00 0.  1.
         -3   -1    0    0  501    0 -0.00000000000E+00 -0.00000000000E+00 -0.89040572327E+01  0.89046300430E+01  0.10100000000E+00 0.  1.
          2    1    1    2    0  502  0.26253797806E+02  0.42154457658E+02  0.76187865130E+02  0.90944219163E+02  0.25500000000E-02 0.  1.
         -2    1    1    2  502    0 -0.26253797806E+02 -0.42154457658E+02  0.40246833957E+03  0.40552068327E+03  0.25500000000E-02 0.  1.
<mgrwt>
<rscale>  0 0.13177874E+03</rscale>
<asrwt>0</asrwt>
<pdfrwt beam="1">  1        3 0.75009323E-01 0.13177874E+03</pdfrwt>
<pdfrwt beam="2">  1       -3 0.13698997E-02 0.13177874E+03</pdfrwt>
<totfact> 0.65943899E+03</totfact>
</mgrwt>
</event>
<event>
 4    1  0.7692565E-003  0.4413265E+02  0.7818608E-02  0.1479830E+00
         -3   -1    0    0  501    0 -0.00000000000E+00  0.00000000000E+00  0.30867172199E+03  0.30867173852E+03  0.10100000000E+00 0. -1.
          3   -1    0    0    0  501  0.00000000000E+00 -0.00000000000E+00 -0.15758443645E+01  0.15790777248E+01  0.10100000000E+00 0. -1.
          2    1    1    2    0  502  0.16170274278E+02  0.12870183545E+02  0.99183414282E+02  0.10131371610E+03  0.25500000000E-02 0.  1.
         -2    1    1    2  502    0 -0.16170274278E+02 -0.12870183545E+02  0.20791246335E+03  0.20893710014E+03  0.25500000000E-02 0.  1.
<mgrwt>
<rscale>  0 0.44132651E+02</rscale>
<asrwt>0</asrwt>
<pdfrwt beam="2">  1        3 0.24268774E-03 0.44132651E+02</pdfrwt>
<pdfrwt beam="1">  1       -3 0.47488176E-01 0.44132651E+02</pdfrwt>
<totfact> 0.15180632E+05</totfact>
</mgrwt>
</event>
<event>
 4    1  0.7692565E-003  0.9648564E+02  0.7818608E-02  0.1287865E+00
          3   -1    0    0    0  501  0.00000000000E+00  0.00000000000E+00  0.50977102039E+01  0.50987106530E+01  0.10100000000E+00 0. -1.
         -3   -1    0    0  501    0 -0.00000000000E+00 -0.00000000000E+00 -0.45650613342E+03  0.45650614459E+03  0.10100000000E+00 0. -1.
          2    1    1    2    0  502 -0.39001538622E+02  0.14554550925E+02 -0.34234552441E+03  0.34486723975E+03  0.25500000000E-02 0. -1.
         -2    1    1    2  502    0  0.39001538622E+02 -0.14554550925E+02 -0.10906289881E+03  0.11673761549E+03  0.25500000000E-02 0. -1.
<mgrwt>
<rscale>  0 0.96485635E+02</rscale>
<asrwt>0</asrwt>
<pdfrwt beam="1">  1        3 0.78434128E-03 0.96485635E+02</pdfrwt>
<pdfrwt beam="2">  1       -3 0.70231759E-01 0.96485635E+02</pdfrwt>
<totfact> 0.16205583E+04</totfact>
</mgrwt>
</event>
<event>
 4    1  0.7692565E-003  0.6412755E+02  0.7818608E-02  0.1381284E+00
         -3   -1    0    0  501    0 -0.00000000000E+00  0.00000000000E+00  0.28070844362E+01  0.28089008583E+01  0.10100000000E+00 0. -1.
          3   -1    0    0    0  501  0.00000000000E+00 -0.00000000000E+00 -0.36612649325E+03  0.36612650718E+03  0.10100000000E+00 0. -1.
          2    1    1    2    0  502 -0.29470895148E+02  0.64627551944E+01 -0.24409788367E+03  0.24595543841E+03  0.25500000000E-02 0. -1.
         -2    1    1    2  502    0  0.29470895148E+02 -0.64627551944E+01 -0.11922152514E+03  0.12297996963E+03  0.25500000000E-02 0. -1.
<mgrwt>
<rscale>  0 0.64127549E+02</rscale>
<asrwt>0</asrwt>
<pdfrwt beam="2">  1        3 0.56327256E-01 0.64127549E+02</pdfrwt>
<pdfrwt beam="1">  1       -3 0.43200023E-03 0.64127549E+02</pdfrwt>
<totfact> 0.54284629E+04</totfact>
</mgrwt>
</event>
<event>
 4    1  0.7692565E-003  0.7447141E+02  0.7818608E-02  0.1345516E+00
         -3   -1    0    0  501    0 -0.00000000000E+00  0.00000000000E+00  0.34745695788E+01  0.34760372204E+01  0.10100000000E+00 0.  1.
          3   -1    0    0    0  501  0.00000000000E+00 -0.00000000000E+00 -0.39895587624E+03  0.39895588903E+03  0.10100000000E+00 0.  1.
          2    1    1    2    0  502 -0.96026174621E+01 -0.35683021602E+02 -0.22250980138E+03  0.22555730981E+03  0.25500000000E-02 0. -1.
         -2    1    1    2  502    0  0.96026174621E+01  0.35683021602E+02 -0.17297150529E+03  0.17687461644E+03  0.25500000000E-02 0. -1.
<mgrwt>
<rscale>  0 0.74471413E+02</rscale>
<asrwt>0</asrwt>
<pdfrwt beam="2">  1        3 0.61377905E-01 0.74471413E+02</pdfrwt>
<pdfrwt beam="1">  1       -3 0.53466336E-03 0.74471413E+02</pdfrwt>
<totfact> 0.35062253E+04</totfact>
</mgrwt>
</event>
<event>
 4    1  0.7692565E-003  0.6384898E+02  0.7818608E-02  0.1382354E+00
          3   -1    0    0    0  501  0.00000000000E+00  0.00000000000E+00  0.16942954807E+03  0.16942957818E+03  0.10100000000E+00 0.  1.
         -3   -1    0    0  501    0 -0.00000000000E+00 -0.00000000000E+00 -0.60148654349E+01  0.60157133575E+01  0.10100000000E+00 0.  1.
          2    1    1    2    0  502  0.23188655905E+01  0.27623063210E+02  0.12522031893E+03  0.12825185784E+03  0.25500000000E-02 0.  1.
         -2    1    1    2  502    0 -0.23188655905E+01 -0.27623063210E+02  0.38194363707E+02  0.47193433698E+02  0.25500000000E-02 0.  1.
<mgrwt>
<rscale>  0 0.63848977E+02</rscale>
<asrwt>0</asrwt>
<pdfrwt beam="1">  1        3 0.26066151E-01 0.63848977E+02</pdfrwt>
<pdfrwt beam="2">  1       -3 0.92543147E-03 0.63848977E+02</pdfrwt>
<totfact> 0.76430441E+04</totfact>
</mgrwt>
</event>
<event>
 4    1  0.7692565E-003  0.7616490E+02  0.7818608E-02  0.1340301E+00
          3   -1    0    0    0  501  0.00000000000E+00  0.00000000000E+00  0.17068039690E+03  0.17068042679E+03  0.10100000000E+00 0. -1.
         -3   -1    0    0  501    0 -0.00000000000E+00 -0.00000000000E+00 -0.84966784916E+01  0.84972787638E+01  0.10100000000E+00 0. -1.
          2    1    1    2    0  502 -0.32466792991E+02 -0.16365700691E+00  0.34268686005E+02  0.47206591465E+02  0.25500000000E-02 0. -1.
         -2    1    1    2  502    0  0.32466792991E+02  0.16365700691E+00  0.12791503241E+03  0.13197111409E+03  0.25500000000E-02 0. -1.
<mgrwt>
<rscale>  0 0.76164898E+02</rscale>
<asrwt>0</asrwt>
<pdfrwt beam="1">  1        3 0.26258570E-01 0.76164898E+02</pdfrwt>
<pdfrwt beam="2">  1       -3 0.13072299E-02 0.76164898E+02</pdfrwt>
<totfact> 0.47880006E+04</totfact>
</mgrwt>
</event>
<event>
 4    1  0.7692565E-003  0.5974554E+02  0.7818608E-02  0.1398903E+00
          3   -1    0    0    0  501  0.00000000000E+00  0.00000000000E+00  0.37793124300E+00  0.39119435634E+00  0.10100000000E+00 0. -1.
         -3   -1    0    0  501    0 -0.00000000000E+00 -0.00000000000E+00 -0.23204981746E+04  0.23204981768E+04  0.10100000000E+00 0. -1.
          2    1    1    2    0  502  0.26986284515E+02  0.12612866866E+02 -0.12472559200E+04  0.12476115878E+04  0.25500000000E-02 0.  1.
         -2    1    1    2  502    0 -0.26986284515E+02 -0.12612866866E+02 -0.10728643234E+04  0.10732777834E+04  0.25500000000E-02 0.  1.
<mgrwt>
<rscale>  0 0.59745540E+02</rscale>
<asrwt>0</asrwt>
<pdfrwt beam="1">  1        3 0.59165535E-04 0.59745540E+02</pdfrwt>
<pdfrwt beam="2">  1       -3 0.35698953E+00 0.59745540E+02</pdfrwt>
<totfact> 0.75989906E+03</totfact>
</mgrwt>
</event>
<event>
 4    1  0.7692565E-003  0.6702456E+02  0.7818608E-02  0.1370514E+00
         -3   -1    0    0  501    0 -0.00000000000E+00  0.00000000000E+00  0.37316299523E+02  0.37316436205E+02  0.10100000000E+00 0. -1.
          3   -1    0    0    0  501  0.00000000000E+00 -0.00000000000E+00 -0.30095763278E+02  0.30095932753E+02  0.10100000000E+00 0. -1.
          2    1    1    2    0  502 -0.31584193016E+02 -0.60215325019E+01  0.13112297756E+02  0.34723946507E+02  0.25500000000E-02 0. -1.
         -2    1    1    2  502    0  0.31584193016E+02  0.60215325019E+01 -0.58917615105E+01  0.32688422451E+02  0.25500000000E-02 0. -1.
<mgrwt>
<rscale>  0 0.67024558E+02</rscale>
<asrwt>0</asrwt>
<pdfrwt beam="2">  1        3 0.46301410E-02 0.67024558E+02</pdfrwt>
<pdfrwt beam="1">  1       -3 0.57409927E-02 0.67024558E+02</pdfrwt>
<totfact> 0.84994829E+04</totfact>
</mgrwt>
</event>
<event>
 4    1  0.7692565E-003  0.1324168E+03  0.7818608E-02  0.1223913E+00
         -3   -1    0    0  501    0 -0.00000000000E+00  0.00000000000E+00  0.21268430778E+03  0.21268433177E+03  0.10100000000E+00 0. -1.
          3   -1    0    0    0  501  0.00000000000E+00 -0.00000000000E+00 -0.20610459855E+02  0.20610707325E+02  0.10100000000E+00 0. -1.
          2    1    1    2    0  502  0.42718518582E+02 -0.50178233211E+02  0.84779695875E+02  0.10737934511E+03  0.25500000000E-02 0. -1.
         -2    1    1    2  502    0 -0.42718518582E+02  0.50178233211E+02  0.10729415205E+03  0.12591569398E+03  0.25500000000E-02 0. -1.
<mgrwt>
<rscale>  0 0.13241681E+03</rscale>
<asrwt>0</asrwt>
<pdfrwt beam="2">  1        3 0.31708611E-02 0.13241681E+03</pdfrwt>
<pdfrwt beam="1">  1       -3 0.32720681E-01 0.13241681E+03</pdfrwt>
<totfact> 0.96094507E+03</totfact>
</mgrwt>
</event>
<event>
 4    1  0.7692565E-003  0.4730707E+02  0.7818608E-02  0.1460432E+00
          3   -1    0    0    0  501  0.00000000000E+00  0.00000000000E+00  0.31577049333E+01  0.31593197758E+01  0.10100000000E+00 0. -1.
         -3   -1    0    0  501    0 -0.00000000000E+00 -0.00000000000E+00 -0.17713547192E+03  0.17713550072E+03  0.10100000000E+00 0. -1.
          2    1    1    2    0  502 -0.15596517329E+02 -0.17686142262E+02 -0.94056232793E+02  0.96967138323E+02  0.25500000000E-02 0. -1.
         -2    1    1    2  502    0  0.15596517329E+02  0.17686142262E+02 -0.79921534195E+02  0.83327682168E+02  0.25500000000E-02 0. -1.
<mgrwt>
<rscale>  0 0.47307070E+02</rscale>
<asrwt>0</asrwt>
<pdfrwt beam="1">  1        3 0.48592733E-03 0.47307070E+02</pdfrwt>
<pdfrwt beam="2">  1       -3 0.27251730E-01 0.47307070E+02</pdfrwt>
<totfact> 0.16161075E+05</totfact>
</mgrwt>
</event>
<event>
 4    1  0.7692565E-003  0.5420546E+02  0.7818608E-02  0.1423894E+00
          3   -1    0    0    0  501  0.00000000000E+00  0.00000000000E+00  0.56549332795E+01  0.56558351634E+01  0.10100000000E+00 0.  1.
         -3   -1    0    0  501    0 -0.00000000000E+00 -0.00000000000E+00 -0.12988554391E+03  0.12988558318E+03  0.10100000000E+00 0.  1.
          2    1    1    2    0  502  0.22921089016E+02 -0.21703472305E+01 -0.26359626819E+02  0.34998809427E+02  0.25500000000E-02 0.  1.
         -2    1    1    2  502    0 -0.22921089016E+02  0.21703472305E+01 -0.97870983815E+02  0.10054260892E+03  0.25500000000E-02 0.  1.
<mgrwt>
<rscale>  0 0.54205456E+02</rscale>
<asrwt>0</asrwt>
<pdfrwt beam="1">  1        3 0.87006223E-03 0.54205456E+02</pdfrwt>
<pdfrwt beam="2">  1       -3 0.19982461E-01 0.54205456E+02</pdfrwt>
<totfact> 0.12593326E+05</totfact>
</mgrwt>
</event>
<event>
 4    1  0.7692565E-003  0.4633883E+02  0.7818608E-02  0.1466153E+00
          3   -1    0    0    0  501  0.00000000000E+00  0.00000000000E+00  0.16603687652E+02  0.16603994840E+02  0.10100000000E+00 0. -1.
         -3   -1    0    0  501    0 -0.00000000000E+00 -0.00000000000E+00 -0.32330794162E+02  0.32330951921E+02  0.10100000000E+00 0. -1.
          2    1    1    2    0  502  0.21054953152E+02 -0.83525184024E+01 -0.27175415772E+01  0.22813606786E+02  0.25500000000E-02 0. -1.
         -2    1    1    2  502    0 -0.21054953152E+02  0.83525184024E+01 -0.13009564932E+02  0.26121339975E+02  0.25500000000E-02 0. -1.
<mgrwt>
<rscale>  0 0.46338830E+02</rscale>
<asrwt>0</asrwt>
<pdfrwt beam="1">  1        3 0.25544493E-02 0.46338830E+02</pdfrwt>
<pdfrwt beam="2">  1       -3 0.49740041E-02 0.46338830E+02</pdfrwt>
<totfact> 0.22947775E+05</totfact>
</mgrwt>
</event>
<event>
 4    1  0.7692565E-003  0.6125445E+02  0.7818608E-02  0.1392642E+00
          3   -1    0    0    0  501  0.00000000000E+00  0.00000000000E+00  0.31161822652E+02  0.31161986330E+02  0.10100000000E+00 0.  1.
         -3   -1    0    0  501    0 -0.00000000000E+00 -0.00000000000E+00 -0.30101467915E+02  0.30101637359E+02  0.10100000000E+00 0.  1.
          2    1    1    2    0  502 -0.24853232896E+02  0.92827611000E+01  0.15835213649E+02  0.30896712396E+02  0.25500000000E-02 0.  1.
         -2    1    1    2  502    0  0.24853232896E+02 -0.92827611000E+01 -0.14774858913E+02  0.30366911292E+02  0.25500000000E-02 0.  1.
<mgrwt>
<rscale>  0 0.61254447E+02</rscale>
<asrwt>0</asrwt>
<pdfrwt beam="1">  1        3 0.47941522E-02 0.61254447E+02</pdfrwt>
<pdfrwt beam="2">  1       -3 0.46310207E-02 0.61254447E+02</pdfrwt>
<totfact> 0.10916587E+05</totfact>
</mgrwt>
</event>
<event>
 4    1  0.7692565E-003  0.7710163E+02  0.7818608E-02  0.1337484E+00
          3   -1    0    0    0  501  0.00000000000E+00  0.00000000000E+00  0.60283512523E+02  0.60283597132E+02  0.10100000000E+00 0. -1.
         -3   -1    0    0  501    0 -0.00000000000E+00 -0.00000000000E+00 -0.24652725402E+02  0.24652932295E+02  0.10100000000E+00 0. -1.
          2    1    1    2    0  502 -0.20630197742E+02  0.24402694462E+02  0.41572279789E+02  0.52434254160E+02  0.25500000000E-02 0. -1.
         -2    1    1    2  502    0  0.20630197742E+02 -0.24402694462E+02 -0.59414926679E+01  0.32502275267E+02  0.25500000000E-02 0. -1.
<mgrwt>
<rscale>  0 0.77101628E+02</rscale>
<asrwt>0</asrwt>
<pdfrwt beam="1">  1        3 0.92744087E-02 0.77101628E+02</pdfrwt>
<pdfrwt beam="2">  1       -3 0.37927495E-02 0.77101628E+02</pdfrwt>
<totfact> 0.56311032E+04</totfact>
</mgrwt>
</event>
<event>
 4    1  0.7692565E-003  0.1265771E+03  0.7818608E-02  0.1232625E+00
         -3   -1    0    0  501    0 -0.00000000000E+00  0.00000000000E+00  0.40160269612E+02  0.40160396615E+02  0.10100000000E+00 0. -1.
          3   -1    0    0    0  501  0.00000000000E+00 -0.00000000000E+00 -0.99736048854E+02  0.99736099994E+02  0.10100000000E+00 0. -1.
          2    1    1    2    0  502  0.44074916511E+02  0.10039145776E+01  0.20397640561E+02  0.48576433143E+02  0.25500000000E-02 0.  1.
         -2    1    1    2  502    0 -0.44074916511E+02 -0.10039145776E+01 -0.79973419803E+02  0.91320063466E+02  0.25500000000E-02 0.  1.
<mgrwt>
<rscale>  0 0.12657708E+03</rscale>
<asrwt>0</asrwt>
<pdfrwt beam="2">  1        3 0.15344021E-01 0.12657708E+03</pdfrwt>
<pdfrwt beam="1">  1       -3 0.61785168E-02 0.12657708E+03</pdfrwt>
<totfact> 0.12884468E+04</totfact>
</mgrwt>
</event>
<event>
 4    1  0.7692565E-003  0.6823319E+02  0.7818608E-02  0.1366206E+00
         -3   -1    0    0  501    0 -0.00000000000E+00  0.00000000000E+00  0.87526942152E+00  0.88107749957E+00  0.10100000000E+00 0.  1.
          3   -1    0    0    0  501  0.00000000000E+00 -0.00000000000E+00 -0.13254066564E+04  0.13254066602E+04  0.10100000000E+00 0.  1.
          2    1    1    2    0  502 -0.21756448542E+02  0.12866212112E+02 -0.11076617545E+04  0.11079501093E+04  0.25500000000E-02 0. -1.
         -2    1    1    2  502    0  0.21756448542E+02 -0.12866212112E+02 -0.21686963249E+03  0.21833762839E+03  0.25500000000E-02 0. -1.
<mgrwt>
<rscale>  0 0.68233190E+02</rscale>
<asrwt>0</asrwt>
<pdfrwt beam="2">  1        3 0.20390756E+00 0.68233190E+02</pdfrwt>
<pdfrwt beam="1">  1       -3 0.13510497E-03 0.68233190E+02</pdfrwt>
<totfact> 0.15471449E+04</totfact>
</mgrwt>
</event>
<event>
 4    1  0.7692565E-003  0.5386931E+02  0.7818608E-02  0.1425523E+00
          3   -1    0    0    0  501  0.00000000000E+00  0.00000000000E+00  0.15611003659E+02  0.15611330380E+02  0.10100000000E+00 0. -1.
         -3   -1    0    0  501    0 -0.00000000000E+00 -0.00000000000E+00 -0.46471194712E+02  0.46471304468E+02  0.10100000000E+00 0. -1.
          2    1    1    2    0  502  0.66109679728E+01  0.23752986878E+02 -0.27926068878E+02  0.37252847041E+02  0.25500000000E-02 0. -1.
         -2    1    1    2  502    0 -0.66109679728E+01 -0.23752986878E+02 -0.29341221749E+01  0.24829787808E+02  0.25500000000E-02 0. -1.
<mgrwt>
<rscale>  0 0.53869306E+02</rscale>
<asrwt>0</asrwt>
<pdfrwt beam="1">  1        3 0.24017265E-02 0.53869306E+02</pdfrwt>
<pdfrwt beam="2">  1       -3 0.71494481E-02 0.53869306E+02</pdfrwt>
<totfact> 0.15159701E+05</totfact>
</mgrwt>
</event>
<event>
 4    1  0.7692565E-003  0.6817164E+02  0.7818608E-02  0.1366423E+00
         -3   -1    0    0  501    0 -0.00000000000E+00  0.00000000000E+00  0.37653374860E+03  0.37653376214E+03  0.10100000000E+00 0. -1.
          3   -1    0    0    0  501  0.00000000000E+00 -0.00000000000E+00 -0.30847881406E+01  0.30864411338E+01  0.10100000000E+00 0. -1.
          2    1    1    2    0  502  0.16161977674E+02 -0.22605074054E+02  0.76803722839E+02  0.81676255691E+02  0.25500000000E-02 0. -1.
         -2    1    1    2  502    0 -0.16161977674E+02  0.22605074054E+02  0.29664523762E+03  0.29794394759E+03  0.25500000000E-02 0. -1.
<mgrwt>
<rscale>  0 0.68171641E+02</rscale>
<asrwt>0</asrwt>
<pdfrwt beam="2">  1        3 0.47471090E-03 0.68171641E+02</pdfrwt>
<pdfrwt beam="1">  1       -3 0.57928408E-01 0.68171641E+02</pdfrwt>
<totfact> 0.45601083E+04</totfact>
</mgrwt>
</event>
<event>
 4    1  0.7692565E-003  0.4347871E+02  0.7818608E-02  0.1484068E+00
         -3   -1    0    0  501    0 -0.00000000000E+00  0.00000000000E+00  0.47734017797E+03  0.47734018866E+03  0.10100000000E+00 0. -1.
          3   -1    0    0    0  501  0.00000000000E+00 -0.00000000000E+00 -0.98748230261E+00  0.99263402016E+00  0.10100000000E+00 0. -1.
          2    1    1    2    0  502 -0.12273999384E+02 -0.17823509052E+02  0.26091284131E+03  0.26180878385E+03  0.25500000000E-02 0.  1.
         -2    1    1    2  502    0  0.12273999384E+02  0.17823509052E+02  0.21543985436E+03  0.21652403883E+03  0.25500000000E-02 0.  1.
<mgrwt>
<rscale>  0 0.43478714E+02</rscale>
<asrwt>0</asrwt>
<pdfrwt beam="2">  1        3 0.15231728E-03 0.43478714E+02</pdfrwt>
<pdfrwt beam="1">  1       -3 0.73437433E-01 0.43478714E+02</pdfrwt>
<totfact> 0.12192482E+05</totfact>
</mgrwt>
</event>
<event>
 4    1  0.7692565E-003  0.1676831E+03  0.7818608E-02  0.1180286E+00
          3   -1    0    0    0  501  0.00000000000E+00  0.00000000000E+00  0.19711600542E+03  0.19711603130E+03  0.10100000000E+00 0. -1.
         -3   -1    0    0  501    0 -0.00000000000E+00 -0.00000000000E+00 -0.35661164805E+02  0.35661307832E+02  0.10100000000E+00 0. -1.
          2    1    1    2    0  502  0.69427390515E+02  0.18523876429E+02  0.20759367654E+02  0.74794705051E+02  0.25500000000E-02 0. -1.
         -2    1    1    2  502    0 -0.69427390515E+02 -0.18523876429E+02  0.14069547296E+03  0.15798263408E+03  0.25500000000E-02 0. -1.
<mgrwt>
<rscale>  0 0.16768311E+03</rscale>
<asrwt>0</asrwt>
<pdfrwt beam="1">  1        3 0.30325552E-01 0.16768311E+03</pdfrwt>
<pdfrwt beam="2">  1       -3 0.54863461E-02 0.16768311E+03</pdfrwt>
<totfact> 0.48982380E+03</totfact>
</mgrwt>
</event>
<event>
 4    1  0.7692565E-003  0.9708942E+02  0.7818608E-02  0.1286538E+00
         -3   -1    0    0  501    0 -0.00000000000E+00  0.00000000000E+00  0.15218347741E+04  0.15218347774E+04  0.10100000000E+00 0. -1.
          3   -1    0    0    0  501  0.00000000000E+00 -0.00000000000E+00 -0.15468679050E+01  0.15501617063E+01  0.10100000000E+00 0. -1.
          2    1    1    2    0  502  0.97676874017E+01  0.38533752573E+02  0.32296301743E+03  0.32540032028E+03  0.25500000000E-02 0. -1.
         -2    1    1    2  502    0 -0.97676874017E+01 -0.38533752573E+02  0.11973248887E+04  0.11979846188E+04  0.25500000000E-02 0. -1.
<mgrwt>
<rscale>  0 0.97089418E+02</rscale>
<asrwt>0</asrwt>
<pdfrwt beam="2">  1        3 0.23823349E-03 0.97089418E+02</pdfrwt>
<pdfrwt beam="1">  1       -3 0.23412850E+00 0.97089418E+02</pdfrwt>
<totfact> 0.50066030E+03</totfact>
</mgrwt>
</event>
<event>
 4    1  0.7692565E-003  0.6168541E+02  0.7818608E-02  0.1390892E+00
         -3   -1    0    0  501    0 -0.00000000000E+00  0.00000000000E+00  0.47128691008E+02  0.47128799233E+02  0.10100000000E+00 0.  1.
          3   -1    0    0    0  501  0.00000000000E+00 -0.00000000000E+00 -0.20184317240E+02  0.20184569934E+02  0.10100000000E+00 0.  1.
          2    1    1    2    0  502  0.18613871385E+02 -0.23968376570E+02  0.74641096806E+01  0.31251755521E+02  0.25500000000E-02 0. -1.
         -2    1    1    2  502    0 -0.18613871385E+02  0.23968376570E+02  0.19480264087E+02  0.36061613646E+02  0.25500000000E-02 0. -1.
<mgrwt>
<rscale>  0 0.61685415E+02</rscale>
<asrwt>0</asrwt>
<pdfrwt beam="2">  1        3 0.31053074E-02 0.61685415E+02</pdfrwt>
<pdfrwt beam="1">  1       -3 0.72505954E-02 0.61685415E+02</pdfrwt>
<totfact> 0.10560650E+05</totfact>
</mgrwt>
</event>
<event>
 4    1  0.7692565E-003  0.5109946E+02  0.7818608E-02  0.1439500E+00
          3   -1    0    0    0  501  0.00000000000E+00  0.00000000000E+00  0.44787884845E+00  0.45912575934E+00  0.10100000000E+00 0.  1.
         -3   -1    0    0  501    0 -0.00000000000E+00 -0.00000000000E+00 -0.14394273900E+04  0.14394273936E+04  0.10100000000E+00 0.  1.
          2    1    1    2    0  502  0.24017578265E+02  0.33761053215E+00 -0.47411242637E+03  0.47472049766E+03  0.25500000000E-02 0.  1.
         -2    1    1    2  502    0 -0.24017578265E+02 -0.33761053215E+00 -0.96486708480E+03  0.96516602167E+03  0.25500000000E-02 0.  1.
<mgrwt>
<rscale>  0 0.51099461E+02</rscale>
<asrwt>0</asrwt>
<pdfrwt beam="1">  1        3 0.69771010E-04 0.51099461E+02</pdfrwt>
<pdfrwt beam="2">  1       -3 0.22144758E+00 0.51099461E+02</pdfrwt>
<totfact> 0.28669776E+04</totfact>
</mgrwt>
</event>
<event>
 4    1  0.7692565E-003  0.5893516E+02  0.7818608E-02  0.1402355E+00
          3   -1    0    0    0  501  0.00000000000E+00  0.00000000000E+00  0.41326810037E+01  0.41339150062E+01  0.10100000000E+00 0.  1.
         -3   -1    0    0  501    0 -0.00000000000E+00 -0.00000000000E+00 -0.21008237978E+03  0.21008240405E+03  0.10100000000E+00 0.  1.
          2    1    1    2    0  502 -0.28026234084E+02  0.90398663578E+01 -0.10687143614E+03  0.11085437677E+03  0.25500000000E-02 0. -1.
         -2    1    1    2  502    0  0.28026234084E+02 -0.90398663578E+01 -0.99078262634E+02  0.10336194229E+03  0.25500000000E-02 0. -1.
<mgrwt>
<rscale>  0 0.58935159E+02</rscale>
<asrwt>0</asrwt>
<pdfrwt beam="1">  1        3 0.63589403E-03 0.58935159E+02</pdfrwt>
<pdfrwt beam="2">  1       -3 0.32320455E-01 0.58935159E+02</pdfrwt>
<totfact> 0.87214458E+04</totfact>
</mgrwt>
</event>
<event>
 4    1  0.7692565E-003  0.5096195E+02  0.7818608E-02  0.1440221E+00
         -3   -1    0    0  501    0 -0.00000000000E+00  0.00000000000E+00  0.78113638645E+03  0.78113639298E+03  0.10100000000E+00 0.  1.
          3   -1    0    0    0  501  0.00000000000E+00 -0.00000000000E+00 -0.82812473443E+00  0.83426109568E+00  0.10100000000E+00 0.  1.
          2    1    1    2    0  502 -0.15374621479E+02  0.18668032409E+02  0.51329623745E+03  0.51386564568E+03  0.25500000000E-02 0.  1.
         -2    1    1    2  502    0  0.15374621479E+02 -0.18668032409E+02  0.26701202426E+03  0.26810500840E+03  0.25500000000E-02 0.  1.
<mgrwt>
<rscale>  0 0.50961952E+02</rscale>
<asrwt>0</asrwt>
<pdfrwt beam="2">  1        3 0.12787596E-03 0.50961952E+02</pdfrwt>
<pdfrwt beam="1">  1       -3 0.12017565E+00 0.50961952E+02</pdfrwt>
<totfact> 0.56321843E+04</totfact>
</mgrwt>
</event>
<event>
 4    1  0.7692565E-003  0.7583052E+02  0.7818608E-02  0.1341318E+00
         -3   -1    0    0  501    0 -0.00000000000E+00  0.00000000000E+00  0.11283944818E+01  0.11329056035E+01  0.10100000000E+00 0.  1.
          3   -1    0    0    0  501  0.00000000000E+00 -0.00000000000E+00 -0.12714473022E+04  0.12714473062E+04  0.10100000000E+00 0.  1.
          2    1    1    2    0  502  0.36292865271E+02 -0.83729761744E+01 -0.51615194968E+03  0.51749407143E+03  0.25500000000E-02 0.  1.
         -2    1    1    2  502    0 -0.36292865271E+02  0.83729761744E+01 -0.75416695807E+03  0.75508614042E+03  0.25500000000E-02 0.  1.
<mgrwt>
<rscale>  0 0.75830523E+02</rscale>
<asrwt>0</asrwt>
<pdfrwt beam="2">  1        3 0.19560648E+00 0.75830523E+02</pdfrwt>
<pdfrwt beam="1">  1       -3 0.17394749E-03 0.75830523E+02</pdfrwt>
<totfact> 0.12397908E+04</totfact>
</mgrwt>
</event>
<event>
 4    1  0.7692565E-003  0.4742127E+02  0.7818608E-02  0.1459768E+00
         -3   -1    0    0  501    0 -0.00000000000E+00  0.00000000000E+00  0.13953728887E+03  0.13953732542E+03  0.10100000000E+00 0. -1.
          3   -1    0    0    0  501  0.00000000000E+00 -0.00000000000E+00 -0.40283182207E+01  0.40295841829E+01  0.10100000000E+00 0. -1.
          2    1    1    2    0  502 -0.15327605693E+02  0.17760200327E+02  0.78169139561E+02  0.81613568713E+02  0.25500000000E-02 0.  1.
         -2    1    1    2  502    0  0.15327605693E+02 -0.17760200327E+02  0.57339831085E+02  0.61953340888E+02  0.25500000000E-02 0.  1.
<mgrwt>
<rscale>  0 0.47421265E+02</rscale>
<asrwt>0</asrwt>
<pdfrwt beam="2">  1        3 0.61984141E-03 0.47421265E+02</pdfrwt>
<pdfrwt beam="1">  1       -3 0.21467377E-01 0.47421265E+02</pdfrwt>
<totfact> 0.17310930E+05</totfact>
</mgrwt>
</event>
<event>
 4    1  0.7692565E-003  0.9319468E+02  0.7818608E-02  0.1295295E+00
         -3   -1    0    0  501    0 -0.00000000000E+00  0.00000000000E+00  0.19708459308E+02  0.19708718104E+02  0.10100000000E+00 0.  1.
          3   -1    0    0    0  501  0.00000000000E+00 -0.00000000000E+00 -0.11017056284E+03  0.11017060914E+03  0.10100000000E+00 0.  1.
          2    1    1    2    0  502  0.42028813175E+02  0.14351687488E+02 -0.64886725194E+02  0.78630014521E+02  0.25500000000E-02 0. -1.
         -2    1    1    2  502    0 -0.42028813175E+02 -0.14351687488E+02 -0.25575378341E+02  0.51249312722E+02  0.25500000000E-02 0. -1.
<mgrwt>
<rscale>  0 0.93194675E+02</rscale>
<asrwt>0</asrwt>
<pdfrwt beam="2">  1        3 0.16949341E-01 0.93194675E+02</pdfrwt>
<pdfrwt beam="1">  1       -3 0.30320942E-02 0.93194675E+02</pdfrwt>
<totfact> 0.30699768E+04</totfact>
</mgrwt>
</event>
<event>
 4    1  0.7692565E-003  0.4450499E+02  0.7818608E-02  0.1477456E+00
         -3   -1    0    0  501    0 -0.00000000000E+00  0.00000000000E+00  0.90572665956E+00  0.91134065082E+00  0.10100000000E+00 0.  1.
          3   -1    0    0    0  501  0.00000000000E+00 -0.00000000000E+00 -0.54501924682E+03  0.54501925618E+03  0.10100000000E+00 0.  1.
          2    1    1    2    0  502 -0.18511343470E+02 -0.12199437343E+02 -0.24853366982E+03  0.24952050246E+03  0.25500000000E-02 0. -1.
         -2    1    1    2  502    0  0.18511343470E+02  0.12199437343E+02 -0.29557985034E+03  0.29641009436E+03  0.25500000000E-02 0. -1.
<mgrwt>
<rscale>  0 0.44504985E+02</rscale>
<asrwt>0</asrwt>
<pdfrwt beam="2">  1        3 0.83849286E-01 0.44504985E+02</pdfrwt>
<pdfrwt beam="1">  1       -3 0.13977556E-03 0.44504985E+02</pdfrwt>
<totfact> 0.10515227E+05</totfact>
</mgrwt>
</event>
<event>
 4    1  0.7692565E-003  0.4550543E+02  0.7818608E-02  0.1471211E+00
         -3   -1    0    0  501    0 -0.00000000000E+00  0.00000000000E+00  0.95250026757E+00  0.95784015353E+00  0.10100000000E+00 0.  1.
          3   -1    0    0    0  501  0.00000000000E+00 -0.00000000000E+00 -0.54197773819E+03  0.54197774760E+03  0.10100000000E+00 0.  1.
          2    1    1    2    0  502  0.21177651222E+02  0.37295376717E+01 -0.35922489412E+03  0.35986792984E+03  0.25500000000E-02 0.  1.
         -2    1    1    2  502    0 -0.21177651222E+02 -0.37295376717E+01 -0.18180034380E+03  0.18306765792E+03  0.25500000000E-02 0.  1.
<mgrwt>
<rscale>  0 0.45505432E+02</rscale>
<asrwt>0</asrwt>
<pdfrwt beam="2">  1        3 0.83381356E-01 0.45505432E+02</pdfrwt>
<pdfrwt beam="1">  1       -3 0.14695042E-03 0.45505432E+02</pdfrwt>
<totfact> 0.99991538E+04</totfact>
</mgrwt>
</event>
<event>
 4    1  0.7692565E-003  0.4500496E+02  0.7818608E-02  0.1474311E+00
          3   -1    0    0    0  501  0.00000000000E+00  0.00000000000E+00  0.15683843705E+03  0.15683846957E+03  0.10100000000E+00 0.  1.
         -3   -1    0    0  501    0 -0.00000000000E+00 -0.00000000000E+00 -0.32277326975E+01  0.32293125223E+01  0.10100000000E+00 0.  1.
          2    1    1    2    0  502 -0.15628085054E+01  0.21528997883E+02  0.99417904513E+02  0.10173426102E+03  0.25500000000E-02 0.  1.
         -2    1    1    2  502    0  0.15628085054E+01 -0.21528997883E+02  0.54192799840E+02  0.58333521078E+02  0.25500000000E-02 0.  1.
<mgrwt>
<rscale>  0 0.45004959E+02</rscale>
<asrwt>0</asrwt>
<pdfrwt beam="1">  1        3 0.24129110E-01 0.45004959E+02</pdfrwt>
<pdfrwt beam="2">  1       -3 0.49669837E-03 0.45004959E+02</pdfrwt>
<totfact> 0.19035540E+05</totfact>
</mgrwt>
</event>
<event>
 4    1  0.7692565E-003  0.4113307E+02  0.7818608E-02  0.1500035E+00
         -3   -1    0    0  501    0 -0.00000000000E+00  0.00000000000E+00  0.18363754641E+01  0.18391508489E+01  0.10100000000E+00 0. -1.
          3   -1    0    0    0  501  0.00000000000E+00 -0.00000000000E+00 -0.23015868131E+03  0.23015870347E+03  0.10100000000E+00 0. -1.
          2    1    1    2    0  502  0.35880595064E+01 -0.20190113032E+02 -0.10530153965E+03  0.10727967699E+03  0.25500000000E-02 0. -1.
         -2    1    1    2  502    0 -0.35880595064E+01  0.20190113032E+02 -0.12302076620E+03  0.12471817734E+03  0.25500000000E-02 0. -1.
<mgrwt>
<rscale>  0 0.41133065E+02</rscale>
<asrwt>0</asrwt>
<pdfrwt beam="2">  1        3 0.35409220E-01 0.41133065E+02</pdfrwt>
<pdfrwt beam="1">  1       -3 0.28273468E-03 0.41133065E+02</pdfrwt>
<totfact> 0.20637533E+05</totfact>
</mgrwt>
</event>
<event>
 4    1  0.7692565E-003  0.8100544E+02  0.7818608E-02  0.1326222E+00
          3   -1    0    0    0  501  0.00000000000E+00  0.00000000000E+00  0.16493449154E+04  0.16493449185E+04  0.10100000000E+00 0.  1.
         -3   -1    0    0  501    0 -0.00000000000E+00 -0.00000000000E+00 -0.99205215190E+00  0.99718026058E+00  0.10100000000E+00 0.  1.
          2    1    1    2    0  502 -0.17839608937E+02 -0.34312839914E+02  0.57897922255E+03  0.58026938812E+03  0.25500000000E-02 0.  1.
         -2    1    1    2  502    0  0.17839608937E+02  0.34312839914E+02  0.10693736407E+04  0.10700727106E+04  0.25500000000E-02 0.  1.
<mgrwt>
<rscale>  0 0.81005439E+02</rscale>
<asrwt>0</asrwt>
<pdfrwt beam="1">  1        3 0.25374345E+00 0.81005439E+02</pdfrwt>
<pdfrwt beam="2">  1       -3 0.15301951E-03 0.81005439E+02</pdfrwt>
<totfact> 0.72108060E+03</totfact>
</mgrwt>
</event>
<event>
 4    1  0.7692565E-003  0.4764237E+02  0.7818608E-02  0.1458489E+00
          3   -1    0    0    0  501  0.00000000000E+00  0.00000000000E+00  0.51597252554E+03  0.51597253543E+03  0.10100000000E+00 0. -1.
         -3   -1    0    0  501    0 -0.00000000000E+00 -0.00000000000E+00 -0.10974368924E+01  0.11020747401E+01  0.10100000000E+00 0. -1.
          2    1    1    2    0  502  0.11040586537E+02 -0.18205768311E+02  0.37337156898E+03  0.37397817193E+03  0.25500000000E-02 0.  1.
         -2    1    1    2  502    0 -0.11040586537E+02  0.18205768311E+02  0.14150351967E+03  0.14309643824E+03  0.25500000000E-02 0.  1.
<mgrwt>
<rscale>  0 0.47642372E+02</rscale>
<asrwt>0</asrwt>
<pdfrwt beam="1">  1        3 0.79380809E-01 0.47642372E+02</pdfrwt>
<pdfrwt beam="2">  1       -3 0.16919383E-03 0.47642372E+02</pdfrwt>
<totfact> 0.92500972E+04</totfact>
</mgrwt>
</event>
<event>
 4    1  0.7692565E-003  0.6335695E+02  0.7818608E-02  0.1384261E+00
         -3   -1    0    0  501    0 -0.00000000000E+00  0.00000000000E+00  0.18051441869E+03  0.18051444695E+03  0.10100000000E+00 0. -1.
          3   -1    0    0    0  501  0.00000000000E+00 -0.00000000000E+00 -0.55587683780E+01  0.55596858617E+01  0.10100000000E+00 0. -1.
          2    1    1    2    0  502 -0.90105387896E+01  0.26088739009E+02  0.41817145241E+02  0.50104747829E+02  0.25500000000E-02 0. -1.
         -2    1    1    2  502    0  0.90105387896E+01 -0.26088739009E+02  0.13313850507E+03  0.13596938498E+03  0.25500000000E-02 0. -1.
<mgrwt>
<rscale>  0 0.63356952E+02</rscale>
<asrwt>0</asrwt>
<pdfrwt beam="2">  1        3 0.85526775E-03 0.63356952E+02</pdfrwt>
<pdfrwt beam="1">  1       -3 0.27771526E-01 0.63356952E+02</pdfrwt>
<totfact> 0.76394332E+04</totfact>
</mgrwt>
</event>
<event>
 4    1  0.7692565E-003  0.5077588E+02  0.7818608E-02  0.1441201E+00
          3   -1    0    0    0  501  0.00000000000E+00  0.00000000000E+00  0.16375329597E+02  0.16375641069E+02  0.10100000000E+00 0.  1.
         -3   -1    0    0  501    0 -0.00000000000E+00 -0.00000000000E+00 -0.39360133441E+02  0.39360263026E+02  0.10100000000E+00 0.  1.
          2    1    1    2    0  502  0.22418513702E+02  0.11633488991E+02 -0.86682104118E+01  0.26703290077E+02  0.25500000000E-02 0.  1.
         -2    1    1    2  502    0 -0.22418513702E+02 -0.11633488991E+02 -0.14316593432E+02  0.29032614018E+02  0.25500000000E-02 0.  1.
<mgrwt>
<rscale>  0 0.50775878E+02</rscale>
<asrwt>0</asrwt>
<pdfrwt beam="1">  1        3 0.25193154E-02 0.50775878E+02</pdfrwt>
<pdfrwt beam="2">  1       -3 0.60554390E-02 0.50775878E+02</pdfrwt>
<totfact> 0.17909030E+05</totfact>
</mgrwt>
</event>
<event>
 4    1  0.7692565E-003  0.4038086E+02  0.7818608E-02  0.1505427E+00
          3   -1    0    0    0  501  0.00000000000E+00  0.00000000000E+00  0.16128445201E+04  0.16128445232E+04  0.10100000000E+00 0.  1.
         -3   -1    0    0  501    0 -0.00000000000E+00 -0.00000000000E+00 -0.24266121783E+00  0.26284114335E+00  0.10100000000E+00 0.  1.
          2    1    1    2    0  502 -0.20126116623E+02  0.14065865754E+01  0.77498887956E+03  0.77525144470E+03  0.25500000000E-02 0. -1.
         -2    1    1    2  502    0  0.20126116623E+02 -0.14065865754E+01  0.83761297930E+03  0.83785591968E+03  0.25500000000E-02 0. -1.
<mgrwt>
<rscale>  0 0.40380860E+02</rscale>
<asrwt>0</asrwt>
<pdfrwt beam="1">  1        3 0.24813562E+00 0.40380860E+02</pdfrwt>
<pdfrwt beam="2">  1       -3 0.38884392E-04 0.40380860E+02</pdfrwt>
<totfact> 0.43717035E+04</totfact>
</mgrwt>
</event>
<event>
 4    1  0.7692565E-003  0.5453032E+02  0.7818608E-02  0.1422333E+00
          3   -1    0    0    0  501  0.00000000000E+00  0.00000000000E+00  0.16295764238E+02  0.16296077230E+02  0.10100000000E+00 0. -1.
         -3   -1    0    0  501    0 -0.00000000000E+00 -0.00000000000E+00 -0.45617724748E+02  0.45617836557E+02  0.10100000000E+00 0. -1.
          2    1    1    2    0  502 -0.10466843898E+02  0.23122924045E+02 -0.33544818539E+01  0.25602284909E+02  0.25500000000E-02 0. -1.
         -2    1    1    2  502    0  0.10466843898E+02 -0.23122924045E+02 -0.25967478656E+02  0.36311628878E+02  0.25500000000E-02 0. -1.
<mgrwt>
<rscale>  0 0.54530316E+02</rscale>
<asrwt>0</asrwt>
<pdfrwt beam="1">  1        3 0.25070733E-02 0.54530316E+02</pdfrwt>
<pdfrwt beam="2">  1       -3 0.70181441E-02 0.54530316E+02</pdfrwt>
<totfact> 0.14701145E+05</totfact>
</mgrwt>
</event>
<event>
 4    1  0.7692565E-003  0.7059712E+02  0.7818608E-02  0.1358074E+00
         -3   -1    0    0  501    0 -0.00000000000E+00  0.00000000000E+00  0.48260926113E+03  0.48260927170E+03  0.10100000000E+00 0. -1.
          3   -1    0    0    0  501  0.00000000000E+00 -0.00000000000E+00 -0.25807760389E+01  0.25827516263E+01  0.10100000000E+00 0. -1.
          2    1    1    2    0  502  0.14193388905E+02  0.16631429662E+02  0.43046728950E+03  0.43102220833E+03  0.25500000000E-02 0.  1.
         -2    1    1    2  502    0 -0.14193388905E+02 -0.16631429662E+02  0.49561195594E+02  0.54169814993E+02  0.25500000000E-02 0.  1.
<mgrwt>
<rscale>  0 0.70597117E+02</rscale>
<asrwt>0</asrwt>
<pdfrwt beam="2">  1        3 0.39719506E-03 0.70597117E+02</pdfrwt>
<pdfrwt beam="1">  1       -3 0.74247766E-01 0.70597117E+02</pdfrwt>
<totfact> 0.35757703E+04</totfact>
</mgrwt>
</event>
<event>
 4    1  0.7692565E-003  0.4125109E+02  0.7818608E-02  0.1499202E+00
          3   -1    0    0    0  501  0.00000000000E+00  0.00000000000E+00  0.75878911352E+00  0.76548149475E+00  0.10100000000E+00 0.  1.
         -3   -1    0    0  501    0 -0.00000000000E+00 -0.00000000000E+00 -0.55817900706E+03  0.55817901619E+03  0.10100000000E+00 0.  1.
          2    1    1    2    0  502  0.10523459475E+02 -0.17714895373E+02 -0.26620085451E+03  0.26699710797E+03  0.25500000000E-02 0. -1.
         -2    1    1    2  502    0 -0.10523459475E+02  0.17714895373E+02 -0.29121936343E+03  0.29194738972E+03  0.25500000000E-02 0. -1.
<mgrwt>
<rscale>  0 0.41251086E+02</rscale>
<asrwt>0</asrwt>
<pdfrwt beam="1">  1        3 0.11725273E-03 0.41251086E+02</pdfrwt>
<pdfrwt beam="2">  1       -3 0.85873882E-01 0.41251086E+02</pdfrwt>
<totfact> 0.12407213E+05</totfact>
</mgrwt>
</event>
<event>
 4    1  0.7692565E-003  0.7694190E+02  0.7818608E-02  0.1337961E+00
         -3   -1    0    0  501    0 -0.00000000000E+00  0.00000000000E+00  0.39361862006E+02  0.39361991586E+02  0.10100000000E+00 0. -1.
          3   -1    0    0    0  501  0.00000000000E+00 -0.00000000000E+00 -0.37599947895E+02  0.37600083547E+02  0.10100000000E+00 0. -1.
          2    1    1    2    0  502  0.25653970725E+02 -0.26770895368E+02  0.11140697587E+02  0.38715916649E+02  0.25500000000E-02 0.  1.
         -2    1    1    2  502    0 -0.25653970725E+02  0.26770895368E+02 -0.93787834751E+01  0.38246158483E+02  0.25500000000E-02 0.  1.
<mgrwt>
<rscale>  0 0.76941904E+02</rscale>
<asrwt>0</asrwt>
<pdfrwt beam="2">  1        3 0.57846278E-02 0.76941904E+02</pdfrwt>
<pdfrwt beam="1">  1       -3 0.60556914E-02 0.76941904E+02</pdfrwt>
<totfact> 0.57669699E+04</totfact>
</mgrwt>
</event>
<event>
 4    1  0.7692565E-003  0.5139963E+02  0.7818608E-02  0.1437935E+00
         -3   -1    0    0  501    0 -0.00000000000E+00  0.00000000000E+00  0.14905123755E+02  0.14905465948E+02  0.10100000000E+00 0. -1.
          3   -1    0    0    0  501  0.00000000000E+00 -0.00000000000E+00 -0.44311402064E+02  0.44311517170E+02  0.10100000000E+00 0. -1.
          2    1    1    2    0  502  0.17542515763E+02  0.10945876695E+02 -0.32286322439E+02  0.38340040415E+02  0.25500000000E-02 0.  1.
         -2    1    1    2  502    0 -0.17542515763E+02 -0.10945876695E+02  0.28800441294E+01  0.20876942703E+02  0.25500000000E-02 0.  1.
<mgrwt>
<rscale>  0 0.51399629E+02</rscale>
<asrwt>0</asrwt>
<pdfrwt beam="2">  1        3 0.68171739E-02 0.51399629E+02</pdfrwt>
<pdfrwt beam="1">  1       -3 0.22931312E-02 0.51399629E+02</pdfrwt>
<totfact> 0.17206823E+05</totfact>
</mgrwt>
</event>
<event>
 4    1  0.7692565E-003  0.5734104E+02  0.7818608E-02  0.1409341E+00
         -3   -1    0    0  501    0 -0.00000000000E+00  0.00000000000E+00  0.81337039264E+01  0.81343309844E+01  0.10100000000E+00 0. -1.
          3   -1    0    0    0  501  0.00000000000E+00 -0.00000000000E+00 -0.10105624790E+03  0.10105629838E+03  0.10100000000E+00 0. -1.
          2    1    1    2    0  502  0.24975829994E+02  0.12997901543E+02 -0.56761926702E+02  0.63361296214E+02  0.25500000000E-02 0.  1.
         -2    1    1    2  502    0 -0.24975829994E+02 -0.12997901543E+02 -0.36160617276E+02  0.45829333147E+02  0.25500000000E-02 0.  1.
<mgrwt>
<rscale>  0 0.57341036E+02</rscale>
<asrwt>0</asrwt>
<pdfrwt beam="2">  1        3 0.15547166E-01 0.57341036E+02</pdfrwt>
<pdfrwt beam="1">  1       -3 0.12513913E-02 0.57341036E+02</pdfrwt>
<totfact> 0.11555152E+05</totfact>
</mgrwt>
</event>
<event>
 4    1  0.7692565E-003  0.4021715E+02  0.7818608E-02  0.1506620E+00
          3   -1    0    0    0  501  0.00000000000E+00  0.00000000000E+00  0.42165714472E+02  0.42165835436E+02  0.10100000000E+00 0. -1.
         -3   -1    0    0  501    0 -0.00000000000E+00 -0.00000000000E+00 -0.95892562728E+01  0.95897881554E+01  0.10100000000E+00 0. -1.
          2    1    1    2    0  502  0.19343179991E+02  0.54485074515E+01  0.15369300061E+02  0.25299411782E+02  0.25500000000E-02 0.  1.
         -2    1    1    2  502    0 -0.19343179991E+02 -0.54485074515E+01  0.17207158138E+02  0.26456211809E+02  0.25500000000E-02 0.  1.
<mgrwt>
<rscale>  0 0.40217147E+02</rscale>
<asrwt>0</asrwt>
<pdfrwt beam="1">  1        3 0.64870833E-02 0.40217147E+02</pdfrwt>
<pdfrwt beam="2">  1       -3 0.14753204E-02 0.40217147E+02</pdfrwt>
<totfact> 0.32313253E+05</totfact>
</mgrwt>
</event>
<event>
 4    1  0.7692565E-003  0.5716975E+02  0.7818608E-02  0.1410108E+00
          3   -1    0    0    0  501  0.00000000000E+00  0.00000000000E+00  0.59317288621E+01  0.59325886672E+01  0.10100000000E+00 0. -1.
         -3   -1    0    0  501    0 -0.00000000000E+00 -0.00000000000E+00 -0.13773905586E+03  0.13773909289E+03  0.10100000000E+00 0. -1.
          2    1    1    2    0  502 -0.23246447819E+02  0.13460534159E+02 -0.41343375465E+02  0.49303732287E+02  0.25500000000E-02 0.  1.
         -2    1    1    2  502    0  0.23246447819E+02 -0.13460534159E+02 -0.90463951528E+02  0.94367949265E+02  0.25500000000E-02 0.  1.
<mgrwt>
<rscale>  0 0.57169753E+02</rscale>
<asrwt>0</asrwt>
<pdfrwt beam="1">  1        3 0.91264276E-03 0.57169753E+02</pdfrwt>
<pdfrwt beam="2">  1       -3 0.21190691E-01 0.57169753E+02</pdfrwt>
<totfact> 0.10813934E+05</totfact>
</mgrwt>
</event>
<event>
 4    1  0.7692565E-003  0.4473216E+02  0.7818608E-02  0.1476021E+00
         -3   -1    0    0  501    0 -0.00000000000E+00  0.00000000000E+00  0.28708015806E+01  0.28725777126E+01  0.10100000000E+00 0.  1.
          3   -1    0    0    0  501  0.00000000000E+00 -0.00000000000E+00 -0.17419587340E+03  0.17419590268E+03  0.10100000000E+00 0.  1.
          2    1    1    2    0  502 -0.10977185792E+02  0.17440605486E+02 -0.51252021880E+02  0.55239868582E+02  0.25500000000E-02 0. -1.
         -2    1    1    2  502    0  0.10977185792E+02 -0.17440605486E+02 -0.12007304994E+03  0.12182861181E+03  0.25500000000E-02 0. -1.
<mgrwt>
<rscale>  0 0.44732164E+02</rscale>
<asrwt>0</asrwt>
<pdfrwt beam="2">  1        3 0.26799496E-01 0.44732164E+02</pdfrwt>
<pdfrwt beam="1">  1       -3 0.44180080E-03 0.44732164E+02</pdfrwt>
<totfact> 0.18672279E+05</totfact>
</mgrwt>
</event>
<event>
 4    1  0.7692565E-003  0.5646686E+02  0.7818608E-02  0.1413287E+00
         -3   -1    0    0  501    0 -0.00000000000E+00  0.00000000000E+00  0.84712227279E+00  0.85312199893E+00  0.10100000000E+00 0.  1.
          3   -1    0    0    0  501  0.00000000000E+00 -0.00000000000E+00 -0.93765516496E+03  0.93765517040E+03  0.10100000000E+00 0.  1.
          2    1    1    2    0  502  0.69882393678E+01 -0.26847943742E+02 -0.38127869027E+03  0.38228665584E+03  0.25500000000E-02 0.  1.
         -2    1    1    2  502    0 -0.69882393678E+01  0.26847943742E+02 -0.55552935242E+03  0.55622163656E+03  0.25500000000E-02 0.  1.
<mgrwt>
<rscale>  0 0.56466858E+02</rscale>
<asrwt>0</asrwt>
<pdfrwt beam="2">  1        3 0.14425428E+00 0.56466858E+02</pdfrwt>
<pdfrwt beam="1">  1       -3 0.13078919E-03 0.56466858E+02</pdfrwt>
<totfact> 0.36861917E+04</totfact>
</mgrwt>
</event>
<event>
 4    1  0.7692565E-003  0.4509988E+02  0.7818608E-02  0.1473719E+00
          3   -1    0    0    0  501  0.00000000000E+00  0.00000000000E+00  0.17988275560E+01  0.18016607828E+01  0.10100000000E+00 0.  1.
         -3   -1    0    0  501    0 -0.00000000000E+00 -0.00000000000E+00 -0.28245875383E+03  0.28245877188E+03  0.10100000000E+00 0.  1.
          2    1    1    2    0  502 -0.18939198484E+02  0.12192600885E+02 -0.13357943524E+03  0.13546519214E+03  0.25500000000E-02 0.  1.
         -2    1    1    2  502    0  0.18939198484E+02 -0.12192600885E+02 -0.14708049103E+03  0.14879524052E+03  0.25500000000E-02 0.  1.
<mgrwt>
<rscale>  0 0.45099882E+02</rscale>
<asrwt>0</asrwt>
<pdfrwt beam="1">  1        3 0.27696225E-03 0.45099882E+02</pdfrwt>
<pdfrwt beam="2">  1       -3 0.43455377E-01 0.45099882E+02</pdfrwt>
<totfact> 0.15037304E+05</totfact>
</mgrwt>
</event>
<event>
 4    1  0.7692565E-003  0.5621074E+02  0.7818608E-02  0.1414458E+00
          3   -1    0    0    0  501  0.00000000000E+00  0.00000000000E+00  0.95743580141E+02  0.95743633414E+02  0.10100000000E+00 0. -1.
         -3   -1    0    0  501    0 -0.00000000000E+00 -0.00000000000E+00 -0.82499189320E+01  0.82505371573E+01  0.10100000000E+00 0. -1.
          2    1    1    2    0  502 -0.27273292249E+02  0.50236628351E+01  0.52192998090E+02  0.59103119330E+02  0.25500000000E-02 0. -1.
         -2    1    1    2  502    0  0.27273292249E+02 -0.50236628351E+01  0.35300663119E+02  0.44891051241E+02  0.25500000000E-02 0. -1.
<mgrwt>
<rscale>  0 0.56210735E+02</rscale>
<asrwt>0</asrwt>
<pdfrwt beam="1">  1        3 0.14729832E-01 0.56210735E+02</pdfrwt>
<pdfrwt beam="2">  1       -3 0.12692701E-02 0.56210735E+02</pdfrwt>
<totfact> 0.12300493E+05</totfact>
</mgrwt>
</event>
<event>
 4    1  0.7692565E-003  0.5085604E+02  0.7818608E-02  0.1440778E+00
         -3   -1    0    0  501    0 -0.00000000000E+00  0.00000000000E+00  0.77210517988E+01  0.77217123671E+01  0.10100000000E+00 0.  1.
          3   -1    0    0    0  501  0.00000000000E+00 -0.00000000000E+00 -0.83738735991E+02  0.83738796900E+02  0.10100000000E+00 0.  1.
          2    1    1    2    0  502 -0.23759428519E+02  0.61858204019E+01 -0.26105355170E+02  0.35836634784E+02  0.25500000000E-02 0. -1.
         -2    1    1    2  502    0  0.23759428519E+02 -0.61858204019E+01 -0.49912329022E+02  0.55623874483E+02  0.25500000000E-02 0. -1.
<mgrwt>
<rscale>  0 0.50856036E+02</rscale>
<asrwt>0</asrwt>
<pdfrwt beam="2">  1        3 0.12882937E-01 0.50856036E+02</pdfrwt>
<pdfrwt beam="1">  1       -3 0.11879097E-02 0.50856036E+02</pdfrwt>
<totfact> 0.16321193E+05</totfact>
</mgrwt>
</event>
<event>
 4    1  0.7692565E-003  0.5689288E+02  0.7818608E-02  0.1411354E+00
         -3   -1    0    0  501    0 -0.00000000000E+00  0.00000000000E+00  0.37793841504E+02  0.37793976459E+02  0.10100000000E+00 0. -1.
          3   -1    0    0    0  501  0.00000000000E+00 -0.00000000000E+00 -0.21410603106E+02  0.21410841328E+02  0.10100000000E+00 0. -1.
          2    1    1    2    0  502 -0.13825509522E+02 -0.15715542943E+02 -0.11854537673E+02  0.24055208864E+02  0.25500000000E-02 0. -1.
         -2    1    1    2  502    0  0.13825509522E+02  0.15715542943E+02  0.28237776070E+02  0.35149608923E+02  0.25500000000E-02 0. -1.
<mgrwt>
<rscale>  0 0.56892881E+02</rscale>
<asrwt>0</asrwt>
<pdfrwt beam="2">  1        3 0.32939677E-02 0.56892881E+02</pdfrwt>
<pdfrwt beam="1">  1       -3 0.58144657E-02 0.56892881E+02</pdfrwt>
<totfact> 0.13278307E+05</totfact>
</mgrwt>
</event>
<event>
 4    1  0.7692565E-003  0.1257184E+03  0.7818608E-02  0.1233951E+00
          3   -1    0    0    0  501  0.00000000000E+00  0.00000000000E+00  0.55247120932E+02  0.55247213254E+02  0.10100000000E+00 0.  1.
         -3   -1    0    0  501    0 -0.00000000000E+00 -0.00000000000E+00 -0.71519945912E+02  0.71520017228E+02  0.10100000000E+00 0.  1.
          2    1    1    2    0  502  0.20142208310E+02  0.52415619344E+02 -0.36624106091E+02  0.67040516558E+02  0.25500000000E-02 0.  1.
         -2    1    1    2  502    0 -0.20142208310E+02 -0.52415619344E+02  0.20351281111E+02  0.59726713924E+02  0.25500000000E-02 0.  1.
<mgrwt>
<rscale>  0 0.12571844E+03</rscale>
<asrwt>0</asrwt>
<pdfrwt beam="1">  1        3 0.84995697E-02 0.12571844E+03</pdfrwt>
<pdfrwt beam="2">  1       -3 0.11003081E-01 0.12571844E+03</pdfrwt>
<totfact> 0.13469648E+04</totfact>
</mgrwt>
</event>
<event>
 4    1  0.7692565E-003  0.6378423E+02  0.7818608E-02  0.1382604E+00
         -3   -1    0    0  501    0 -0.00000000000E+00  0.00000000000E+00  0.11497633459E+01  0.11541909511E+01  0.10100000000E+00 0.  1.
          3   -1    0    0    0  501  0.00000000000E+00 -0.00000000000E+00 -0.88291851148E+03  0.88291851725E+03  0.10100000000E+00 0.  1.
          2    1    1    2    0  502 -0.10455662144E+02 -0.29153223726E+02 -0.54632861536E+03  0.54720579976E+03  0.25500000000E-02 0.  1.
         -2    1    1    2  502    0  0.10455662144E+02  0.29153223726E+02 -0.33544013277E+03  0.33686690844E+03  0.25500000000E-02 0.  1.
<mgrwt>
<rscale>  0 0.63784232E+02</rscale>
<asrwt>0</asrwt>
<pdfrwt beam="2">  1        3 0.13583342E+00 0.63784232E+02</pdfrwt>
<pdfrwt beam="1">  1       -3 0.17722840E-03 0.63784232E+02</pdfrwt>
<totfact> 0.28696722E+04</totfact>
</mgrwt>
</event>
<event>
 4    1  0.7692565E-003  0.4618909E+02  0.7818608E-02  0.1467052E+00
         -3   -1    0    0  501    0 -0.00000000000E+00  0.00000000000E+00  0.16778296559E+02  0.16778600550E+02  0.10100000000E+00 0. -1.
          3   -1    0    0    0  501  0.00000000000E+00 -0.00000000000E+00 -0.31787891586E+02  0.31788052040E+02  0.10100000000E+00 0. -1.
          2    1    1    2    0  502 -0.19305621746E+01 -0.20717631395E+02 -0.18041109439E+02  0.27539588908E+02  0.25500000000E-02 0.  1.
         -2    1    1    2  502    0  0.19305621746E+01  0.20717631395E+02  0.30315144121E+01  0.21027063682E+02  0.25500000000E-02 0.  1.
<mgrwt>
<rscale>  0 0.46189087E+02</rscale>
<asrwt>0</asrwt>
<pdfrwt beam="2">  1        3 0.48904806E-02 0.46189087E+02</pdfrwt>
<pdfrwt beam="1">  1       -3 0.25813121E-02 0.46189087E+02</pdfrwt>
<totfact> 0.23156571E+05</totfact>
</mgrwt>
</event>
<event>
 4    1  0.7692565E-003  0.4502915E+02  0.7818608E-02  0.1474160E+00
          3   -1    0    0    0  501  0.00000000000E+00  0.00000000000E+00  0.44050526145E+02  0.44050641932E+02  0.10100000000E+00 0. -1.
         -3   -1    0    0  501    0 -0.00000000000E+00 -0.00000000000E+00 -0.11507024985E+02  0.11507468227E+02  0.10100000000E+00 0. -1.
          2    1    1    2    0  502  0.11650932976E+02  0.19159479684E+02  0.18762772659E+02  0.29238186423E+02  0.25500000000E-02 0. -1.
         -2    1    1    2  502    0 -0.11650932976E+02 -0.19159479684E+02  0.13780728501E+02  0.26319923736E+02  0.25500000000E-02 0. -1.
<mgrwt>
<rscale>  0 0.45029148E+02</rscale>
<asrwt>0</asrwt>
<pdfrwt beam="1">  1        3 0.67770469E-02 0.45029148E+02</pdfrwt>
<pdfrwt beam="2">  1       -3 0.17703546E-02 0.45029148E+02</pdfrwt>
<totfact> 0.24209069E+05</totfact>
</mgrwt>
</event>
<event>
 4    1  0.7692565E-003  0.8859611E+02  0.7818608E-02  0.1306287E+00
         -3   -1    0    0  501    0 -0.00000000000E+00  0.00000000000E+00  0.56256627357E+03  0.56256628263E+03  0.10100000000E+00 0.  1.
          3   -1    0    0    0  501  0.00000000000E+00 -0.00000000000E+00 -0.34874135294E+01  0.34888757681E+01  0.10100000000E+00 0.  1.
          2    1    1    2    0  502 -0.68344911544E+01  0.41317615947E+02  0.37178755353E+03  0.37413879861E+03  0.25500000000E-02 0. -1.
         -2    1    1    2  502    0  0.68344911544E+01 -0.41317615947E+02  0.18729130651E+03  0.19191635979E+03  0.25500000000E-02 0. -1.
<mgrwt>
<rscale>  0 0.88596109E+02</rscale>
<asrwt>0</asrwt>
<pdfrwt beam="2">  1        3 0.53663809E-03 0.88596109E+02</pdfrwt>
<pdfrwt beam="1">  1       -3 0.86548810E-01 0.88596109E+02</pdfrwt>
<totfact> 0.17695115E+04</totfact>
</mgrwt>
</event>
<event>
 4    1  0.7692565E-003  0.4970825E+02  0.7818608E-02  0.1446922E+00
         -3   -1    0    0  501    0 -0.00000000000E+00  0.00000000000E+00  0.90272692946E+02  0.90272749447E+02  0.10100000000E+00 0.  1.
          3   -1    0    0    0  501  0.00000000000E+00 -0.00000000000E+00 -0.68424740938E+01  0.68432194707E+01  0.10100000000E+00 0.  1.
          2    1    1    2    0  502  0.17645223754E+02  0.16673611335E+02  0.52120248604E+02  0.57496813453E+02  0.25500000000E-02 0.  1.
         -2    1    1    2  502    0 -0.17645223754E+02 -0.16673611335E+02  0.31309970248E+02  0.39619155464E+02  0.25500000000E-02 0.  1.
<mgrwt>
<rscale>  0 0.49708249E+02</rscale>
<asrwt>0</asrwt>
<pdfrwt beam="2">  1        3 0.10527500E-02 0.49708249E+02</pdfrwt>
<pdfrwt beam="1">  1       -3 0.13888168E-01 0.49708249E+02</pdfrwt>
<totfact> 0.17057749E+05</totfact>
</mgrwt>
</event>
<event>
 4    1  0.7692565E-003  0.5957571E+02  0.7818608E-02  0.1399621E+00
         -3   -1    0    0  501    0 -0.00000000000E+00  0.00000000000E+00  0.28570401615E+03  0.28570403401E+03  0.10100000000E+00 0. -1.
          3   -1    0    0    0  501  0.00000000000E+00 -0.00000000000E+00 -0.31048801038E+01  0.31065224060E+01  0.10100000000E+00 0. -1.
          2    1    1    2    0  502  0.20413214548E+02  0.84704682815E+01  0.23811811320E+03  0.23914155641E+03  0.25500000000E-02 0. -1.
         -2    1    1    2  502    0 -0.20413214548E+02 -0.84704682815E+01  0.44481022851E+02  0.49669000004E+02  0.25500000000E-02 0. -1.
<mgrwt>
<rscale>  0 0.59575715E+02</rscale>
<asrwt>0</asrwt>
<pdfrwt beam="2">  1        3 0.47780173E-03 0.59575715E+02</pdfrwt>
<pdfrwt beam="1">  1       -3 0.43954576E-01 0.59575715E+02</pdfrwt>
<totfact> 0.74441534E+04</totfact>
</mgrwt>
</event>
<event>
 4    1  0.7692565E-003  0.5515792E+02  0.7818608E-02  0.1419354E+00
         -3   -1    0    0  501    0 -0.00000000000E+00  0.00000000000E+00  0.44074009210E+03  0.44074010367E+03  0.10100000000E+00 0.  1.
          3   -1    0    0    0  501  0.00000000000E+00 -0.00000000000E+00 -0.17242421054E+01  0.17271976835E+01  0.10100000000E+00 0.  1.
          2    1    1    2    0  502  0.18725955627E+02 -0.18979502152E+02  0.27606956147E+03  0.27735408000E+03  0.25500000000E-02 0. -1.
         -2    1    1    2  502    0 -0.18725955627E+02  0.18979502152E+02  0.16294628853E+03  0.16511322136E+03  0.25500000000E-02 0. -1.
<mgrwt>
<rscale>  0 0.55157921E+02</rscale>
<asrwt>0</asrwt>
<pdfrwt beam="2">  1        3 0.26549613E-03 0.55157921E+02</pdfrwt>
<pdfrwt beam="1">  1       -3 0.67806430E-01 0.55157921E+02</pdfrwt>
<totfact> 0.71266234E+04</totfact>
</mgrwt>
</event>
<event>
 4    1  0.7692565E-003  0.4649085E+02  0.7818608E-02  0.1465244E+00
         -3   -1    0    0  501    0 -0.00000000000E+00  0.00000000000E+00  0.70890752758E+02  0.70890824707E+02  0.10100000000E+00 0.  1.
          3   -1    0    0    0  501  0.00000000000E+00 -0.00000000000E+00 -0.76218774831E+01  0.76225466458E+01  0.10100000000E+00 0.  1.
          2    1    1    2    0  502 -0.89908223981E+01  0.20285918209E+02  0.43334287473E+02  0.48684842018E+02  0.25500000000E-02 0.  1.
         -2    1    1    2  502    0  0.89908223981E+01 -0.20285918209E+02  0.19934587802E+02  0.29828529335E+02  0.25500000000E-02 0.  1.
<mgrwt>
<rscale>  0 0.46490848E+02</rscale>
<asrwt>0</asrwt>
<pdfrwt beam="2">  1        3 0.11726535E-02 0.46490848E+02</pdfrwt>
<pdfrwt beam="1">  1       -3 0.10906327E-01 0.46490848E+02</pdfrwt>
<totfact> 0.21080039E+05</totfact>
</mgrwt>
</event>
<event>
 4    1  0.7692565E-003  0.6283337E+02  0.7818608E-02  0.1386312E+00
          3   -1    0    0    0  501  0.00000000000E+00  0.00000000000E+00  0.86833129753E+01  0.86839003464E+01  0.10100000000E+00 0. -1.
         -3   -1    0    0  501    0 -0.00000000000E+00 -0.00000000000E+00 -0.11366276850E+03  0.11366281337E+03  0.10100000000E+00 0. -1.
          2    1    1    2    0  502  0.88214710288E+01  0.27506314824E+02 -0.28436777635E+02  0.40534750956E+02  0.25500000000E-02 0.  1.
         -2    1    1    2  502    0 -0.88214710288E+01 -0.27506314824E+02 -0.76542677885E+02  0.81811962760E+02  0.25500000000E-02 0.  1.
<mgrwt>
<rscale>  0 0.62833369E+02</rscale>
<asrwt>0</asrwt>
<pdfrwt beam="1">  1        3 0.13359430E-02 0.62833369E+02</pdfrwt>
<pdfrwt beam="2">  1       -3 0.17486627E-01 0.62833369E+02</pdfrwt>
<totfact> 0.88773377E+04</totfact>
</mgrwt>
</event>
<event>
 4    1  0.7692565E-003  0.5209283E+02  0.7818608E-02  0.1434370E+00
         -3   -1    0    0  501    0 -0.00000000000E+00  0.00000000000E+00  0.29989534232E+01  0.30006537012E+01  0.10100000000E+00 0. -1.
          3   -1    0    0    0  501  0.00000000000E+00 -0.00000000000E+00 -0.22615165106E+03  0.22615167362E+03  0.10100000000E+00 0. -1.
          2    1    1    2    0  502 -0.13669023618E+02 -0.19896825777E+02 -0.68545579833E+02  0.72672019401E+02  0.25500000000E-02 0. -1.
         -2    1    1    2  502    0  0.13669023618E+02  0.19896825777E+02 -0.15460711781E+03  0.15648030792E+03  0.25500000000E-02 0. -1.
<mgrwt>
<rscale>  0 0.52092827E+02</rscale>
<asrwt>0</asrwt>
<pdfrwt beam="2">  1        3 0.34792681E-01 0.52092827E+02</pdfrwt>
<pdfrwt beam="1">  1       -3 0.46151015E-03 0.52092827E+02</pdfrwt>
<totfact> 0.11594000E+05</totfact>
</mgrwt>
</event>
<event>
 4    1  0.7692565E-003  0.4033100E+02  0.7818608E-02  0.1505790E+00
         -3   -1    0    0  501    0 -0.00000000000E+00  0.00000000000E+00  0.11200366691E+02  0.11200822068E+02  0.10100000000E+00 0. -1.
          3   -1    0    0    0  501  0.00000000000E+00 -0.00000000000E+00 -0.36305346330E+02  0.36305486819E+02  0.10100000000E+00 0. -1.
          2    1    1    2    0  502  0.99050991103E+01  0.17477588028E+02 -0.10488533948E+02  0.22662445202E+02  0.25500000000E-02 0. -1.
         -2    1    1    2  502    0 -0.99050991103E+01 -0.17477588028E+02 -0.14616445692E+02  0.24843863685E+02  0.25500000000E-02 0. -1.
<mgrwt>
<rscale>  0 0.40330998E+02</rscale>
<asrwt>0</asrwt>
<pdfrwt beam="2">  1        3 0.55854837E-02 0.40330998E+02</pdfrwt>
<pdfrwt beam="1">  1       -3 0.17231792E-02 0.40330998E+02</pdfrwt>
<totfact> 0.32473032E+05</totfact>
</mgrwt>
</event>
<event>
 4    1  0.7692565E-003  0.1337019E+03  0.7818608E-02  0.1222064E+00
          3   -1    0    0    0  501  0.00000000000E+00  0.00000000000E+00  0.10692972310E+04  0.10692972357E+04  0.10100000000E+00 0.  1.
         -3   -1    0    0  501    0 -0.00000000000E+00 -0.00000000000E+00 -0.41788107890E+01  0.41800311733E+01  0.10100000000E+00 0.  1.
          2    1    1    2    0  502 -0.44846109774E+02 -0.49575303783E+02  0.53581144635E+03  0.53996554553E+03  0.25500000000E-02 0. -1.
         -2    1    1    2  502    0  0.44846109774E+02  0.49575303783E+02  0.52930697383E+03  0.53351172139E+03  0.25500000000E-02 0. -1.
<mgrwt>
<rscale>  0 0.13370188E+03</rscale>
<asrwt>0</asrwt>
<pdfrwt beam="1">  1        3 0.16450718E+00 0.13370188E+03</pdfrwt>
<pdfrwt beam="2">  1       -3 0.64298891E-03 0.13370188E+03</pdfrwt>
<totfact> 0.32905513E+03</totfact>
</mgrwt>
</event>
<event>
 4    1  0.7692565E-003  0.4619564E+02  0.7818608E-02  0.1467013E+00
          3   -1    0    0    0  501  0.00000000000E+00  0.00000000000E+00  0.56048174904E+02  0.56048265906E+02  0.10100000000E+00 0. -1.
         -3   -1    0    0  501    0 -0.00000000000E+00 -0.00000000000E+00 -0.95183961329E+01  0.95189319749E+01  0.10100000000E+00 0. -1.
          2    1    1    2    0  502  0.33750158348E+01 -0.22415382018E+02  0.29559645346E+02  0.37250674120E+02  0.25500000000E-02 0. -1.
         -2    1    1    2  502    0 -0.33750158348E+01  0.22415382018E+02  0.16970133424E+02  0.28316523760E+02  0.25500000000E-02 0. -1.
<mgrwt>
<rscale>  0 0.46195640E+02</rscale>
<asrwt>0</asrwt>
<pdfrwt beam="1">  1        3 0.86228444E-02 0.46195640E+02</pdfrwt>
<pdfrwt beam="2">  1       -3 0.14644168E-02 0.46195640E+02</pdfrwt>
<totfact> 0.22126444E+05</totfact>
</mgrwt>
</event>
<event>
 4    1  0.7692565E-003  0.4821170E+02  0.7818608E-02  0.1455233E+00
          3   -1    0    0    0  501  0.00000000000E+00  0.00000000000E+00  0.18587605851E+03  0.18587608595E+03  0.10100000000E+00 0.  1.
         -3   -1    0    0  501    0 -0.00000000000E+00 -0.00000000000E+00 -0.31253908199E+01  0.31270223500E+01  0.10100000000E+00 0.  1.
          2    1    1    2    0  502 -0.98707782943E+01 -0.21885223477E+02  0.99871414365E+02  0.10271657454E+03  0.25500000000E-02 0. -1.
         -2    1    1    2  502    0  0.98707782943E+01  0.21885223477E+02  0.82879253330E+02  0.86286533768E+02  0.25500000000E-02 0. -1.
<mgrwt>
<rscale>  0 0.48211704E+02</rscale>
<asrwt>0</asrwt>
<pdfrwt beam="1">  1        3 0.28596447E-01 0.48211704E+02</pdfrwt>
<pdfrwt beam="2">  1       -3 0.48095693E-03 0.48211704E+02</pdfrwt>
<totfact> 0.15159210E+05</totfact>
</mgrwt>
</event>
<event>
 4    1  0.7692565E-003  0.5817028E+02  0.7818608E-02  0.1405675E+00
          3   -1    0    0    0  501  0.00000000000E+00  0.00000000000E+00  0.13105701932E+03  0.13105705824E+03  0.10100000000E+00 0. -1.
         -3   -1    0    0  501    0 -0.00000000000E+00 -0.00000000000E+00 -0.64543533971E+01  0.64551435905E+01  0.10100000000E+00 0. -1.
          2    1    1    2    0  502  0.20545787817E+02 -0.20098881052E+02  0.51768863565E+02  0.59212411350E+02  0.25500000000E-02 0.  1.
         -2    1    1    2  502    0 -0.20545787817E+02  0.20098881052E+02  0.72833802361E+02  0.78299790481E+02  0.25500000000E-02 0.  1.
<mgrwt>
<rscale>  0 0.58170278E+02</rscale>
<asrwt>0</asrwt>
<pdfrwt beam="1">  1        3 0.20162680E-01 0.58170278E+02</pdfrwt>
<pdfrwt beam="2">  1       -3 0.99304135E-03 0.58170278E+02</pdfrwt>
<totfact> 0.10478515E+05</totfact>
</mgrwt>
</event>
<event>
 4    1  0.7692565E-003  0.4246743E+02  0.7818608E-02  0.1490801E+00
         -3   -1    0    0  501    0 -0.00000000000E+00  0.00000000000E+00  0.10413767041E+01  0.10462630834E+01  0.10100000000E+00 0. -1.
          3   -1    0    0    0  501  0.00000000000E+00 -0.00000000000E+00 -0.43193801919E+03  0.43193803100E+03  0.10100000000E+00 0. -1.
          2    1    1    2    0  502  0.10807548879E+02 -0.16882597040E+02 -0.14404550591E+03  0.14543360333E+03  0.25500000000E-02 0. -1.
         -2    1    1    2  502    0 -0.10807548879E+02  0.16882597040E+02 -0.28685113658E+03  0.28755069076E+03  0.25500000000E-02 0. -1.
<mgrwt>
<rscale>  0 0.42467428E+02</rscale>
<asrwt>0</asrwt>
<pdfrwt beam="2">  1        3 0.66452237E-01 0.42467428E+02</pdfrwt>
<pdfrwt beam="1">  1       -3 0.16058893E-03 0.42467428E+02</pdfrwt>
<totfact> 0.13789226E+05</totfact>
</mgrwt>
</event>
<event>
 4    1  0.7692565E-003  0.7119303E+02  0.7818608E-02  0.1356082E+00
          3   -1    0    0    0  501  0.00000000000E+00  0.00000000000E+00  0.22947403773E+01  0.22969619934E+01  0.10100000000E+00 0.  1.
         -3   -1    0    0  501    0 -0.00000000000E+00 -0.00000000000E+00 -0.55191153438E+03  0.55191154363E+03  0.10100000000E+00 0.  1.
          2    1    1    2    0  502  0.11195730463E+02 -0.29097171630E+02 -0.40854077361E+03  0.40972863396E+03  0.25500000000E-02 0.  1.
         -2    1    1    2  502    0 -0.11195730463E+02  0.29097171630E+02 -0.14107602040E+03  0.14447987166E+03  0.25500000000E-02 0.  1.
<mgrwt>
<rscale>  0 0.71193029E+02</rscale>
<asrwt>0</asrwt>
<pdfrwt beam="1">  1        3 0.35320902E-03 0.71193029E+02</pdfrwt>
<pdfrwt beam="2">  1       -3 0.84909533E-01 0.71193029E+02</pdfrwt>
<totfact> 0.31882775E+04</totfact>
</mgrwt>
</event>
<event>
 4    1  0.7692565E-003  0.4556441E+02  0.7818608E-02  0.1470849E+00
          3   -1    0    0    0  501  0.00000000000E+00  0.00000000000E+00  0.20654404530E+03  0.20654406999E+03  0.10100000000E+00 0. -1.
         -3   -1    0    0  501    0 -0.00000000000E+00 -0.00000000000E+00 -0.25118815183E+01  0.25139112478E+01  0.10100000000E+00 0. -1.
          2    1    1    2    0  502 -0.22772421596E+02  0.13242185935E+00  0.99013751534E+02  0.10159883720E+03  0.25500000000E-02 0.  1.
         -2    1    1    2  502    0  0.22772421596E+02 -0.13242185935E+00  0.10501841224E+03  0.10745914404E+03  0.25500000000E-02 0.  1.
<mgrwt>
<rscale>  0 0.45564412E+02</rscale>
<asrwt>0</asrwt>
<pdfrwt beam="1">  1        3 0.31776177E-01 0.45564412E+02</pdfrwt>
<pdfrwt beam="2">  1       -3 0.38660119E-03 0.45564412E+02</pdfrwt>
<totfact> 0.16774524E+05</totfact>
</mgrwt>
</event>
<event>
 4    1  0.7692565E-003  0.6413721E+02  0.7818608E-02  0.1381247E+00
         -3   -1    0    0  501    0 -0.00000000000E+00  0.00000000000E+00  0.66186364325E+03  0.66186365095E+03  0.10100000000E+00 0. -1.
          3   -1    0    0    0  501  0.00000000000E+00 -0.00000000000E+00 -0.15521382030E+01  0.15554208438E+01  0.10100000000E+00 0. -1.
          2    1    1    2    0  502 -0.25624851102E+02 -0.18791594436E+02  0.37481183381E+03  0.37615644058E+03  0.25500000000E-02 0. -1.
         -2    1    1    2  502    0  0.25624851102E+02  0.18791594436E+02  0.28549967123E+03  0.28726263122E+03  0.25500000000E-02 0. -1.
<mgrwt>
<rscale>  0 0.64137206E+02</rscale>
<asrwt>0</asrwt>
<pdfrwt beam="2">  1        3 0.23904293E-03 0.64137206E+02</pdfrwt>
<pdfrwt beam="1">  1       -3 0.10182571E+00 0.64137206E+02</pdfrwt>
<totfact> 0.36316535E+04</totfact>
</mgrwt>
</event>
<event>
 4    1  0.7692565E-003  0.7963731E+02  0.7818608E-02  0.1330084E+00
          3   -1    0    0    0  501  0.00000000000E+00  0.00000000000E+00  0.35561661240E+02  0.35561804666E+02  0.10100000000E+00 0. -1.
         -3   -1    0    0  501    0 -0.00000000000E+00 -0.00000000000E+00 -0.44584955888E+02  0.44585070287E+02  0.10100000000E+00 0. -1.
          2    1    1    2    0  502  0.86791477438E+01  0.24112127983E+02  0.26159626985E+02  0.36620327852E+02  0.25500000000E-02 0.  1.
         -2    1    1    2  502    0 -0.86791477438E+01 -0.24112127983E+02 -0.35182921633E+02  0.43526547102E+02  0.25500000000E-02 0.  1.
<mgrwt>
<rscale>  0 0.79637314E+02</rscale>
<asrwt>0</asrwt>
<pdfrwt beam="1">  1        3 0.54710446E-02 0.79637314E+02</pdfrwt>
<pdfrwt beam="2">  1       -3 0.68592438E-02 0.79637314E+02</pdfrwt>
<totfact> 0.52203848E+04</totfact>
</mgrwt>
</event>
<event>
 4    1  0.7692565E-003  0.5063491E+02  0.7818608E-02  0.1441947E+00
         -3   -1    0    0  501    0 -0.00000000000E+00  0.00000000000E+00  0.12360754720E+02  0.12361167349E+02  0.10100000000E+00 0.  1.
          3   -1    0    0    0  501  0.00000000000E+00 -0.00000000000E+00 -0.51854214362E+02  0.51854312724E+02  0.10100000000E+00 0.  1.
          2    1    1    2    0  502 -0.18382425361E+02 -0.16406632823E+02 -0.27128782473E+02  0.36647810409E+02  0.25500000000E-02 0. -1.
         -2    1    1    2  502    0  0.18382425361E+02  0.16406632823E+02 -0.12364677169E+02  0.27567669665E+02  0.25500000000E-02 0. -1.
<mgrwt>
<rscale>  0 0.50634914E+02</rscale>
<asrwt>0</asrwt>
<pdfrwt beam="2">  1        3 0.79776106E-02 0.50634914E+02</pdfrwt>
<pdfrwt beam="1">  1       -3 0.19016939E-02 0.50634914E+02</pdfrwt>
<totfact> 0.17641796E+05</totfact>
</mgrwt>
</event>
<event>
 4    1  0.7692565E-003  0.8158757E+02  0.7818608E-02  0.1324606E+00
         -3   -1    0    0  501    0 -0.00000000000E+00  0.00000000000E+00  0.51229651204E+01  0.51239606385E+01  0.10100000000E+00 0. -1.
          3   -1    0    0    0  501  0.00000000000E+00 -0.00000000000E+00 -0.32480530737E+03  0.32480532308E+03  0.10100000000E+00 0. -1.
          2    1    1    2    0  502  0.31358392138E+02  0.25055439212E+02 -0.13039879973E+03  0.13643669143E+03  0.25500000000E-02 0. -1.
         -2    1    1    2  502    0 -0.31358392138E+02 -0.25055439212E+02 -0.18928354253E+03  0.19349259229E+03  0.25500000000E-02 0. -1.
<mgrwt>
<rscale>  0 0.81587574E+02</rscale>
<asrwt>0</asrwt>
<pdfrwt beam="2">  1        3 0.49970109E-01 0.81587574E+02</pdfrwt>
<pdfrwt beam="1">  1       -3 0.78822652E-03 0.81587574E+02</pdfrwt>
<totfact> 0.30803308E+04</totfact>
</mgrwt>
</event>
<event>
 4    1  0.7692565E-003  0.9739315E+02  0.7818608E-02  0.1285875E+00
          3   -1    0    0    0  501  0.00000000000E+00  0.00000000000E+00  0.49359688414E+02  0.49359791747E+02  0.10100000000E+00 0. -1.
         -3   -1    0    0  501    0 -0.00000000000E+00 -0.00000000000E+00 -0.48042168238E+02  0.48042274405E+02  0.10100000000E+00 0. -1.
          2    1    1    2    0  502  0.38244635091E+01  0.48419421808E+02  0.41647508215E+01  0.48748457260E+02  0.25500000000E-02 0. -1.
         -2    1    1    2  502    0 -0.38244635091E+01 -0.48419421808E+02 -0.28472306455E+01  0.48653608892E+02  0.25500000000E-02 0. -1.
<mgrwt>
<rscale>  0 0.97393155E+02</rscale>
<asrwt>0</asrwt>
<pdfrwt beam="1">  1        3 0.75938143E-02 0.97393155E+02</pdfrwt>
<pdfrwt beam="2">  1       -3 0.73911189E-02 0.97393155E+02</pdfrwt>
<totfact> 0.29106931E+04</totfact>
</mgrwt>
</event>
<event>
 4    1  0.7692565E-003  0.4427483E+02  0.7818608E-02  0.1478920E+00
          3   -1    0    0    0  501  0.00000000000E+00  0.00000000000E+00  0.29076863234E+02  0.29077038648E+02  0.10100000000E+00 0.  1.
         -3   -1    0    0  501    0 -0.00000000000E+00 -0.00000000000E+00 -0.16853746062E+02  0.16854048692E+02  0.10100000000E+00 0.  1.
          2    1    1    2    0  502  0.12643618044E+02 -0.18074231216E+02  0.41635134191E+01  0.22447132596E+02  0.25500000000E-02 0.  1.
         -2    1    1    2  502    0 -0.12643618044E+02  0.18074231216E+02  0.80596037535E+01  0.23483954745E+02  0.25500000000E-02 0.  1.
<mgrwt>
<rscale>  0 0.44274826E+02</rscale>
<asrwt>0</asrwt>
<pdfrwt beam="1">  1        3 0.44734003E-02 0.44274826E+02</pdfrwt>
<pdfrwt beam="2">  1       -3 0.25929208E-02 0.44274826E+02</pdfrwt>
<totfact> 0.25920968E+05</totfact>
</mgrwt>
</event>
<event>
 4    1  0.7692565E-003  0.4247977E+02  0.7818608E-02  0.1490717E+00
         -3   -1    0    0  501    0 -0.00000000000E+00  0.00000000000E+00  0.21301484242E+01  0.21325415140E+01  0.10100000000E+00 0. -1.
          3   -1    0    0    0  501  0.00000000000E+00 -0.00000000000E+00 -0.21166336427E+03  0.21166338836E+03  0.10100000000E+00 0. -1.
          2    1    1    2    0  502 -0.12421419381E+02 -0.16355021612E+02 -0.13203463187E+03  0.13362231254E+03  0.25500000000E-02 0.  1.
         -2    1    1    2  502    0  0.12421419381E+02  0.16355021612E+02 -0.77498583978E+02  0.80173617334E+02  0.25500000000E-02 0.  1.
<mgrwt>
<rscale>  0 0.42479773E+02</rscale>
<asrwt>0</asrwt>
<pdfrwt beam="2">  1        3 0.32563764E-01 0.42479773E+02</pdfrwt>
<pdfrwt beam="1">  1       -3 0.32790125E-03 0.42479773E+02</pdfrwt>
<totfact> 0.19739922E+05</totfact>
</mgrwt>
</event>
<event>
 4    1  0.7692565E-003  0.5768299E+02  0.7818608E-02  0.1407821E+00
          3   -1    0    0    0  501  0.00000000000E+00  0.00000000000E+00  0.10870088091E+03  0.10870092783E+03  0.10100000000E+00 0. -1.
         -3   -1    0    0  501    0 -0.00000000000E+00 -0.00000000000E+00 -0.76521039592E+01  0.76527704789E+01  0.10100000000E+00 0. -1.
          2    1    1    2    0  502 -0.25895906998E+02  0.12661701588E+02  0.48594628859E+02  0.56500926071E+02  0.25500000000E-02 0.  1.
         -2    1    1    2  502    0  0.25895906998E+02 -0.12661701588E+02  0.52454148093E+02  0.59852772242E+02  0.25500000000E-02 0.  1.
<mgrwt>
<rscale>  0 0.57682994E+02</rscale>
<asrwt>0</asrwt>
<pdfrwt beam="1">  1        3 0.16723268E-01 0.57682994E+02</pdfrwt>
<pdfrwt beam="2">  1       -3 0.11773016E-02 0.57682994E+02</pdfrwt>
<totfact> 0.11202214E+05</totfact>
</mgrwt>
</event>
<event>
 4    1  0.7692565E-003  0.4751497E+02  0.7818608E-02  0.1459225E+00
         -3   -1    0    0  501    0 -0.00000000000E+00  0.00000000000E+00  0.44211400475E+03  0.44211401629E+03  0.10100000000E+00 0.  1.
          3   -1    0    0    0  501  0.00000000000E+00 -0.00000000000E+00 -0.12746252953E+01  0.12786206018E+01  0.10100000000E+00 0.  1.
          2    1    1    2    0  502 -0.36547019941E+01 -0.22815504046E+02  0.27196711962E+03  0.27294691468E+03  0.25500000000E-02 0. -1.
         -2    1    1    2  502    0  0.36547019941E+01  0.22815504046E+02  0.16887225983E+03  0.17044572221E+03  0.25500000000E-02 0. -1.
<mgrwt>
<rscale>  0 0.47514966E+02</rscale>
<asrwt>0</asrwt>
<pdfrwt beam="2">  1        3 0.19640414E-03 0.47514966E+02</pdfrwt>
<pdfrwt beam="1">  1       -3 0.68017943E-01 0.47514966E+02</pdfrwt>
<totfact> 0.10312819E+05</totfact>
</mgrwt>
</event>
<event>
 4    1  0.7692565E-003  0.4552896E+02  0.7818608E-02  0.1471066E+00
         -3   -1    0    0  501    0 -0.00000000000E+00  0.00000000000E+00  0.48067334213E+03  0.48067335274E+03  0.10100000000E+00 0. -1.
          3   -1    0    0    0  501  0.00000000000E+00 -0.00000000000E+00 -0.10757398119E+01  0.10804707969E+01  0.10100000000E+00 0. -1.
          2    1    1    2    0  502 -0.21240332507E+02 -0.45094009577E+01  0.31213559911E+03  0.31288994656E+03  0.25500000000E-02 0. -1.
         -2    1    1    2  502    0  0.21240332507E+02  0.45094009577E+01  0.16746200320E+03  0.16886387697E+03  0.25500000000E-02 0. -1.
<mgrwt>
<rscale>  0 0.45528962E+02</rscale>
<asrwt>0</asrwt>
<pdfrwt beam="2">  1        3 0.16586290E-03 0.45528962E+02</pdfrwt>
<pdfrwt beam="1">  1       -3 0.73950229E-01 0.45528962E+02</pdfrwt>
<totfact> 0.10843363E+05</totfact>
</mgrwt>
</event>
<event>
 4    1  0.7692565E-003  0.8195965E+02  0.7818608E-02  0.1323580E+00
         -3   -1    0    0  501    0 -0.00000000000E+00  0.00000000000E+00  0.99913167907E+01  0.99918272710E+01  0.10100000000E+00 0. -1.
          3   -1    0    0    0  501  0.00000000000E+00 -0.00000000000E+00 -0.16807574795E+03  0.16807577829E+03  0.10100000000E+00 0. -1.
          2    1    1    2    0  502 -0.16705235265E+02  0.35162371672E+02 -0.10685596924E+03  0.11372623020E+03  0.25500000000E-02 0.  1.
         -2    1    1    2  502    0  0.16705235265E+02 -0.35162371672E+02 -0.51228461912E+02  0.64341375360E+02  0.25500000000E-02 0.  1.
<mgrwt>
<rscale>  0 0.81959653E+02</rscale>
<asrwt>0</asrwt>
<pdfrwt beam="2">  1        3 0.25857847E-01 0.81959653E+02</pdfrwt>
<pdfrwt beam="1">  1       -3 0.15371674E-02 0.81959653E+02</pdfrwt>
<totfact> 0.39490754E+04</totfact>
</mgrwt>
</event>
<event>
 4    1  0.7692565E-003  0.6913575E+02  0.7818608E-02  0.1363057E+00
          3   -1    0    0    0  501  0.00000000000E+00  0.00000000000E+00  0.14487763074E+03  0.14487766594E+03  0.10100000000E+00 0.  1.
         -3   -1    0    0  501    0 -0.00000000000E+00 -0.00000000000E+00 -0.82475671930E+01  0.82481855946E+01  0.10100000000E+00 0.  1.
          2    1    1    2    0  502 -0.14474429514E+02 -0.19576369399E+02  0.12266687616E+03  0.12505960923E+03  0.25500000000E-02 0.  1.
         -2    1    1    2  502    0  0.14474429514E+02  0.19576369399E+02  0.13963187387E+02  0.28066242305E+02  0.25500000000E-02 0.  1.
<mgrwt>
<rscale>  0 0.69135752E+02</rscale>
<asrwt>0</asrwt>
<pdfrwt beam="1">  1        3 0.22288916E-01 0.69135752E+02</pdfrwt>
<pdfrwt beam="2">  1       -3 0.12689068E-02 0.69135752E+02</pdfrwt>
<totfact> 0.64951100E+04</totfact>
</mgrwt>
</event>
<event>
 4    1  0.7692565E-003  0.5262108E+02  0.7818608E-02  0.1431696E+00
         -3   -1    0    0  501    0 -0.00000000000E+00  0.00000000000E+00  0.45889148973E+02  0.45889260121E+02  0.10100000000E+00 0. -1.
          3   -1    0    0    0  501  0.00000000000E+00 -0.00000000000E+00 -0.15084849677E+02  0.15085187794E+02  0.10100000000E+00 0. -1.
          2    1    1    2    0  502 -0.16733172931E+02 -0.19890557749E+02  0.10679463101E+02  0.28101322078E+02  0.25500000000E-02 0. -1.
         -2    1    1    2  502    0  0.16733172931E+02  0.19890557749E+02  0.20124836195E+02  0.32873125837E+02  0.25500000000E-02 0. -1.
<mgrwt>
<rscale>  0 0.52621084E+02</rscale>
<asrwt>0</asrwt>
<pdfrwt beam="2">  1        3 0.23207807E-02 0.52621084E+02</pdfrwt>
<pdfrwt beam="1">  1       -3 0.70599036E-02 0.52621084E+02</pdfrwt>
<totfact> 0.16138731E+05</totfact>
</mgrwt>
</event>
<event>
 4    1  0.7692565E-003  0.6649417E+02  0.7818608E-02  0.1372438E+00
          3   -1    0    0    0  501  0.00000000000E+00  0.00000000000E+00  0.18981025859E+03  0.18981028546E+03  0.10100000000E+00 0.  1.
         -3   -1    0    0  501    0 -0.00000000000E+00 -0.00000000000E+00 -0.58230795942E+01  0.58239554394E+01  0.10100000000E+00 0.  1.
          2    1    1    2    0  502 -0.10742832875E+02  0.17190397576E+02  0.14461424487E+02  0.24900823916E+02  0.25500000000E-02 0. -1.
         -2    1    1    2  502    0  0.10742832875E+02 -0.17190397576E+02  0.16952575451E+03  0.17073341698E+03  0.25500000000E-02 0. -1.
<mgrwt>
<rscale>  0 0.66494166E+02</rscale>
<asrwt>0</asrwt>
<pdfrwt beam="1">  1        3 0.29201652E-01 0.66494166E+02</pdfrwt>
<pdfrwt beam="2">  1       -3 0.89592770E-03 0.66494166E+02</pdfrwt>
<totfact> 0.66205188E+04</totfact>
</mgrwt>
</event>
<event>
 4    1  0.7692565E-003  0.6443029E+02  0.7818608E-02  0.1380127E+00
         -3   -1    0    0  501    0 -0.00000000000E+00  0.00000000000E+00  0.59674901821E+02  0.59674987292E+02  0.10100000000E+00 0.  1.
          3   -1    0    0    0  501  0.00000000000E+00 -0.00000000000E+00 -0.17390912100E+02  0.17391205383E+02  0.10100000000E+00 0.  1.
          2    1    1    2    0  502 -0.20872027423E+02 -0.20069149539E+02  0.38032395611E+02  0.47800370442E+02  0.25500000000E-02 0.  1.
         -2    1    1    2  502    0  0.20872027423E+02  0.20069149539E+02  0.42515941088E+01  0.29265822233E+02  0.25500000000E-02 0.  1.
<mgrwt>
<rscale>  0 0.64430290E+02</rscale>
<asrwt>0</asrwt>
<pdfrwt beam="2">  1        3 0.26755541E-02 0.64430290E+02</pdfrwt>
<pdfrwt beam="1">  1       -3 0.91807832E-02 0.64430290E+02</pdfrwt>
<totfact> 0.92096892E+04</totfact>
</mgrwt>
</event>
<event>
 4    1  0.7692565E-003  0.6088945E+02  0.7818608E-02  0.1394137E+00
         -3   -1    0    0  501    0 -0.00000000000E+00  0.00000000000E+00  0.10224954869E+03  0.10224959857E+03  0.10100000000E+00 0.  1.
          3   -1    0    0    0  501  0.00000000000E+00 -0.00000000000E+00 -0.90645609145E+01  0.90651235828E+01  0.10100000000E+00 0.  1.
          2    1    1    2    0  502  0.19468394096E+02 -0.17119098792E+02  0.17410848898E+02  0.31228505856E+02  0.25500000000E-02 0.  1.
         -2    1    1    2  502    0 -0.19468394096E+02  0.17119098792E+02  0.75774138879E+02  0.80086216302E+02  0.25500000000E-02 0.  1.
<mgrwt>
<rscale>  0 0.60889452E+02</rscale>
<asrwt>0</asrwt>
<pdfrwt beam="2">  1        3 0.13945950E-02 0.60889452E+02</pdfrwt>
<pdfrwt beam="1">  1       -3 0.15730746E-01 0.60889452E+02</pdfrwt>
<totfact> 0.98602594E+04</totfact>
</mgrwt>
</event>
<event>
 4    1  0.7692565E-003  0.4789092E+02  0.7818608E-02  0.1457061E+00
          3   -1    0    0    0  501  0.00000000000E+00  0.00000000000E+00  0.26596588820E+02  0.26596780592E+02  0.10100000000E+00 0. -1.
         -3   -1    0    0  501    0 -0.00000000000E+00 -0.00000000000E+00 -0.21558208187E+02  0.21558444778E+02  0.10100000000E+00 0. -1.
          2    1    1    2    0  502 -0.10838392048E+02 -0.20973611496E+02  0.65440280581E+01  0.24498723050E+02  0.25500000000E-02 0. -1.
         -2    1    1    2  502    0  0.10838392048E+02  0.20973611496E+02 -0.15056474253E+01  0.23656502320E+02  0.25500000000E-02 0. -1.
<mgrwt>
<rscale>  0 0.47890922E+02</rscale>
<asrwt>0</asrwt>
<pdfrwt beam="1">  1        3 0.40918158E-02 0.47890922E+02</pdfrwt>
<pdfrwt beam="2">  1       -3 0.33166804E-02 0.47890922E+02</pdfrwt>
<totfact> 0.21174904E+05</totfact>
</mgrwt>
</event>
<event>
 4    1  0.7692565E-003  0.4984449E+02  0.7818608E-02  0.1446182E+00
          3   -1    0    0    0  501  0.00000000000E+00  0.00000000000E+00  0.17999220017E+02  0.17999503388E+02  0.10100000000E+00 0.  1.
         -3   -1    0    0  501    0 -0.00000000000E+00 -0.00000000000E+00 -0.34507437915E+02  0.34507585723E+02  0.10100000000E+00 0.  1.
          2    1    1    2    0  502  0.14058486684E+02  0.20147639056E+02 -0.38410697888E+01  0.24866085961E+02  0.25500000000E-02 0.  1.
         -2    1    1    2  502    0 -0.14058486684E+02 -0.20147639056E+02 -0.12667148109E+02  0.27641003150E+02  0.25500000000E-02 0.  1.
<mgrwt>
<rscale>  0 0.49844490E+02</rscale>
<asrwt>0</asrwt>
<pdfrwt beam="1">  1        3 0.27691439E-02 0.49844490E+02</pdfrwt>
<pdfrwt beam="2">  1       -3 0.53088698E-02 0.49844490E+02</pdfrwt>
<totfact> 0.18926089E+05</totfact>
</mgrwt>
</event>
<event>
 4    1  0.7692565E-003  0.5430901E+02  0.7818608E-02  0.1423395E+00
         -3   -1    0    0  501    0 -0.00000000000E+00  0.00000000000E+00  0.91360781903E+03  0.91360782462E+03  0.10100000000E+00 0. -1.
          3   -1    0    0    0  501  0.00000000000E+00 -0.00000000000E+00 -0.80392839581E+00  0.81024802720E+00  0.10100000000E+00 0. -1.
          2    1    1    2    0  502 -0.12007300548E+02  0.22368159778E+02  0.29415330740E+03  0.29524680879E+03  0.25500000000E-02 0.  1.
         -2    1    1    2  502    0  0.12007300548E+02 -0.22368159778E+02  0.61865058324E+03  0.61917126386E+03  0.25500000000E-02 0.  1.
<mgrwt>
<rscale>  0 0.54309012E+02</rscale>
<asrwt>0</asrwt>
<pdfrwt beam="2">  1        3 0.12416754E-03 0.54309012E+02</pdfrwt>
<pdfrwt beam="1">  1       -3 0.14055588E+00 0.54309012E+02</pdfrwt>
<totfact> 0.41546468E+04</totfact>
</mgrwt>
</event>
<event>
 4    1  0.7692565E-003  0.4206423E+02  0.7818608E-02  0.1493548E+00
         -3   -1    0    0  501    0 -0.00000000000E+00  0.00000000000E+00  0.90727699053E+02  0.90727755270E+02  0.10100000000E+00 0. -1.
          3   -1    0    0    0  501  0.00000000000E+00 -0.00000000000E+00 -0.48749961248E+01  0.48760422698E+01  0.10100000000E+00 0. -1.
          2    1    1    2    0  502  0.19910835662E+02 -0.66626363067E+01  0.40126305215E+02  0.45287442807E+02  0.25500000000E-02 0. -1.
         -2    1    1    2  502    0 -0.19910835662E+02  0.66626363067E+01  0.45726397713E+02  0.50316354733E+02  0.25500000000E-02 0. -1.
<mgrwt>
<rscale>  0 0.42064231E+02</rscale>
<asrwt>0</asrwt>
<pdfrwt beam="2">  1        3 0.75008423E-03 0.42064231E+02</pdfrwt>
<pdfrwt beam="1">  1       -3 0.13958192E-01 0.42064231E+02</pdfrwt>
<totfact> 0.25893282E+05</totfact>
</mgrwt>
</event>
<event>
 4    1  0.7692565E-003  0.5297394E+02  0.7818608E-02  0.1429931E+00
          3   -1    0    0    0  501  0.00000000000E+00  0.00000000000E+00  0.16280790782E+03  0.16280793915E+03  0.10100000000E+00 0. -1.
         -3   -1    0    0  501    0 -0.00000000000E+00 -0.00000000000E+00 -0.43085017973E+01  0.43096854569E+01  0.10100000000E+00 0. -1.
          2    1    1    2    0  502 -0.19921575949E+02  0.15509881326E+02  0.10451383346E+03  0.10752007718E+03  0.25500000000E-02 0. -1.
         -2    1    1    2  502    0  0.19921575949E+02 -0.15509881326E+02  0.53985572568E+02  0.59597547425E+02  0.25500000000E-02 0. -1.
<mgrwt>
<rscale>  0 0.52973944E+02</rscale>
<asrwt>0</asrwt>
<pdfrwt beam="1">  1        3 0.25047459E-01 0.52973944E+02</pdfrwt>
<pdfrwt beam="2">  1       -3 0.66294002E-03 0.52973944E+02</pdfrwt>
<totfact> 0.12506839E+05</totfact>
</mgrwt>
</event>
<event>
 4    1  0.7692565E-003  0.1445661E+03  0.7818608E-02  0.1207314E+00
          3   -1    0    0    0  501  0.00000000000E+00  0.00000000000E+00  0.88715886373E+02  0.88715943866E+02  0.10100000000E+00 0.  1.
         -3   -1    0    0  501    0 -0.00000000000E+00 -0.00000000000E+00 -0.58893946370E+02  0.58894032975E+02  0.10100000000E+00 0.  1.
          2    1    1    2    0  502  0.42567759970E+02 -0.20436503693E+01 -0.44701945605E+02  0.61761271385E+02  0.25500000000E-02 0. -1.
         -2    1    1    2  502    0 -0.42567759970E+02  0.20436503693E+01  0.74523885608E+02  0.85848705455E+02  0.25500000000E-02 0. -1.
<mgrwt>
<rscale>  0 0.14456610E+03</rscale>
<asrwt>0</asrwt>
<pdfrwt beam="1">  1        3 0.13648609E-01 0.14456610E+03</pdfrwt>
<pdfrwt beam="2">  1       -3 0.90606182E-02 0.14456610E+03</pdfrwt>
<totfact> 0.87015608E+03</totfact>
</mgrwt>
</event>
<event>
 4    1  0.7692565E-003  0.4364770E+02  0.7818608E-02  0.1482965E+00
         -3   -1    0    0  501    0 -0.00000000000E+00  0.00000000000E+00  0.18776123224E+01  0.18803268422E+01  0.10100000000E+00 0.  1.
          3   -1    0    0    0  501  0.00000000000E+00 -0.00000000000E+00 -0.25347686146E+03  0.25347688158E+03  0.10100000000E+00 0.  1.
          2    1    1    2    0  502 -0.92888219260E+01 -0.19486198205E+02 -0.10703602379E+03  0.10919113759E+03  0.25500000000E-02 0.  1.
         -2    1    1    2  502    0  0.92888219260E+01  0.19486198205E+02 -0.14456322535E+03  0.14616607083E+03  0.25500000000E-02 0.  1.
<mgrwt>
<rscale>  0 0.43647700E+02</rscale>
<asrwt>0</asrwt>
<pdfrwt beam="2">  1        3 0.38996623E-01 0.43647700E+02</pdfrwt>
<pdfrwt beam="1">  1       -3 0.28907399E-03 0.43647700E+02</pdfrwt>
<totfact> 0.17132112E+05</totfact>
</mgrwt>
</event>
<event>
 4    1  0.7692565E-003  0.4758131E+02  0.7818608E-02  0.1458842E+00
         -3   -1    0    0  501    0 -0.00000000000E+00  0.00000000000E+00  0.12234602932E+03  0.12234607101E+03  0.10100000000E+00 0.  1.
          3   -1    0    0    0  501  0.00000000000E+00 -0.00000000000E+00 -0.46255899213E+01  0.46266924601E+01  0.10100000000E+00 0.  1.
          2    1    1    2    0  502 -0.23744648197E+02  0.11286133082E+00  0.54925461907E+02  0.59838344127E+02  0.25500000000E-02 0.  1.
         -2    1    1    2  502    0  0.23744648197E+02 -0.11286133082E+00  0.62794977490E+02  0.67134419340E+02  0.25500000000E-02 0.  1.
<mgrwt>
<rscale>  0 0.47581307E+02</rscale>
<asrwt>0</asrwt>
<pdfrwt beam="2">  1        3 0.71171718E-03 0.47581307E+02</pdfrwt>
<pdfrwt beam="1">  1       -3 0.18822556E-01 0.47581307E+02</pdfrwt>
<totfact> 0.17788148E+05</totfact>
</mgrwt>
</event>
<event>
 4    1  0.7692565E-003  0.6004097E+02  0.7818608E-02  0.1397660E+00
         -3   -1    0    0  501    0 -0.00000000000E+00  0.00000000000E+00  0.54291639525E+02  0.54291733471E+02  0.10100000000E+00 0.  1.
          3   -1    0    0    0  501  0.00000000000E+00 -0.00000000000E+00 -0.16599522035E+02  0.16599829300E+02  0.10100000000E+00 0.  1.
          2    1    1    2    0  502  0.28872728038E+02  0.49505540660E+00  0.28535875947E+02  0.40597730562E+02  0.25500000000E-02 0. -1.
         -2    1    1    2  502    0 -0.28872728038E+02 -0.49505540660E+00  0.91562415428E+01  0.30293832209E+02  0.25500000000E-02 0. -1.
<mgrwt>
<rscale>  0 0.60040969E+02</rscale>
<asrwt>0</asrwt>
<pdfrwt beam="2">  1        3 0.25538034E-02 0.60040969E+02</pdfrwt>
<pdfrwt beam="1">  1       -3 0.83525910E-02 0.60040969E+02</pdfrwt>
<totfact> 0.11226395E+05</totfact>
</mgrwt>
</event>
<event>
 4    1  0.7692565E-003  0.4973717E+02  0.7818608E-02  0.1446764E+00
         -3   -1    0    0  501    0 -0.00000000000E+00  0.00000000000E+00  0.41769464994E+01  0.41781674283E+01  0.10100000000E+00 0.  1.
          3   -1    0    0    0  501  0.00000000000E+00 -0.00000000000E+00 -0.14803897877E+03  0.14803901322E+03  0.10100000000E+00 0.  1.
          2    1    1    2    0  502 -0.11806643748E+02  0.21810513518E+02 -0.77533441440E+02  0.81403500444E+02  0.25500000000E-02 0. -1.
         -2    1    1    2  502    0  0.11806643748E+02 -0.21810513518E+02 -0.66328590829E+02  0.70813680207E+02  0.25500000000E-02 0. -1.
<mgrwt>
<rscale>  0 0.49737167E+02</rscale>
<asrwt>0</asrwt>
<pdfrwt beam="2">  1        3 0.22775320E-01 0.49737167E+02</pdfrwt>
<pdfrwt beam="1">  1       -3 0.64270383E-03 0.49737167E+02</pdfrwt>
<totfact> 0.15097991E+05</totfact>
</mgrwt>
</event>
<event>
 4    1  0.7692565E-003  0.5337962E+02  0.7818608E-02  0.1427921E+00
          3   -1    0    0    0  501  0.00000000000E+00  0.00000000000E+00  0.10634054893E+01  0.10681911040E+01  0.10100000000E+00 0.  1.
         -3   -1    0    0  501    0 -0.00000000000E+00 -0.00000000000E+00 -0.66836374908E+03  0.66836375671E+03  0.10100000000E+00 0.  1.
          2    1    1    2    0  502  0.17256617066E+02 -0.20313033064E+02 -0.31620110400E+03  0.31732246741E+03  0.25500000000E-02 0. -1.
         -2    1    1    2  502    0 -0.17256617066E+02  0.20313033064E+02 -0.35109923959E+03  0.35210948040E+03  0.25500000000E-02 0. -1.
<mgrwt>
<rscale>  0 0.53379623E+02</rscale>
<asrwt>0</asrwt>
<pdfrwt beam="1">  1        3 0.16397009E-03 0.53379623E+02</pdfrwt>
<pdfrwt beam="2">  1       -3 0.10282523E+00 0.53379623E+02</pdfrwt>
<totfact> 0.57301510E+04</totfact>
</mgrwt>
</event>
<event>
 4    1  0.7692565E-003  0.4179900E+02  0.7818608E-02  0.1495375E+00
          3   -1    0    0    0  501  0.00000000000E+00  0.00000000000E+00  0.33951482040E+02  0.33951632269E+02  0.10100000000E+00 0.  1.
         -3   -1    0    0  501    0 -0.00000000000E+00 -0.00000000000E+00 -0.12864721473E+02  0.12865117939E+02  0.10100000000E+00 0.  1.
          2    1    1    2    0  502  0.20605028183E+02  0.34715895726E+01  0.10081533159E+02  0.23200354263E+02  0.25500000000E-02 0.  1.
         -2    1    1    2  502    0 -0.20605028183E+02 -0.34715895726E+01  0.11005227408E+02  0.23616395944E+02  0.25500000000E-02 0.  1.
<mgrwt>
<rscale>  0 0.41799003E+02</rscale>
<asrwt>0</asrwt>
<pdfrwt beam="1">  1        3 0.52233469E-02 0.41799003E+02</pdfrwt>
<pdfrwt beam="2">  1       -3 0.19792300E-02 0.41799003E+02</pdfrwt>
<totfact> 0.29807840E+05</totfact>
</mgrwt>
</event>
<event>
 4    1  0.7692565E-003  0.7601966E+02  0.7818608E-02  0.1340742E+00
         -3   -1    0    0  501    0 -0.00000000000E+00  0.00000000000E+00  0.97752395124E+02  0.97752447302E+02  0.10100000000E+00 0. -1.
          3   -1    0    0    0  501  0.00000000000E+00 -0.00000000000E+00 -0.14779429923E+02  0.14779775027E+02  0.10100000000E+00 0. -1.
          2    1    1    2    0  502  0.37923582062E+02  0.98581724710E+00  0.44982354739E+02  0.58843709574E+02  0.25500000000E-02 0. -1.
         -2    1    1    2  502    0 -0.37923582062E+02 -0.98581724710E+00  0.37990610462E+02  0.53688512755E+02  0.25500000000E-02 0. -1.
<mgrwt>
<rscale>  0 0.76019656E+02</rscale>
<asrwt>0</asrwt>
<pdfrwt beam="2">  1        3 0.22737889E-02 0.76019656E+02</pdfrwt>
<pdfrwt beam="1">  1       -3 0.15038861E-01 0.76019656E+02</pdfrwt>
<totfact> 0.55029191E+04</totfact>
</mgrwt>
</event>
<event>
 4    1  0.7692565E-003  0.7565439E+02  0.7818608E-02  0.1341856E+00
          3   -1    0    0    0  501  0.00000000000E+00  0.00000000000E+00  0.98989482458E+01  0.98994634892E+01  0.10100000000E+00 0. -1.
         -3   -1    0    0  501    0 -0.00000000000E+00 -0.00000000000E+00 -0.14454607189E+03  0.14454610717E+03  0.10100000000E+00 0. -1.
          2    1    1    2    0  502  0.14659510440E+02 -0.29733758746E+02 -0.30132012835E+02  0.44798837703E+02  0.25500000000E-02 0. -1.
         -2    1    1    2  502    0 -0.14659510440E+02  0.29733758746E+02 -0.10451511081E+03  0.10964673296E+03  0.25500000000E-02 0. -1.
<mgrwt>
<rscale>  0 0.75654388E+02</rscale>
<asrwt>0</asrwt>
<pdfrwt beam="1">  1        3 0.15229576E-02 0.75654388E+02</pdfrwt>
<pdfrwt beam="2">  1       -3 0.22237898E-01 0.75654388E+02</pdfrwt>
<totfact> 0.51135150E+04</totfact>
</mgrwt>
</event>
<event>
 4    1  0.7692565E-003  0.6653334E+02  0.7818608E-02  0.1372295E+00
          3   -1    0    0    0  501  0.00000000000E+00  0.00000000000E+00  0.23956962174E+02  0.23957175076E+02  0.10100000000E+00 0. -1.
         -3   -1    0    0  501    0 -0.00000000000E+00 -0.00000000000E+00 -0.46193665074E+02  0.46193775489E+02  0.10100000000E+00 0. -1.
          2    1    1    2    0  502  0.94352745598E+01  0.26287370150E+02  0.79369707949E+01  0.29035250082E+02  0.25500000000E-02 0.  1.
         -2    1    1    2  502    0 -0.94352745598E+01 -0.26287370150E+02 -0.30173673695E+02  0.41115700483E+02  0.25500000000E-02 0.  1.
<mgrwt>
<rscale>  0 0.66533337E+02</rscale>
<asrwt>0</asrwt>
<pdfrwt beam="1">  1        3 0.36857114E-02 0.66533337E+02</pdfrwt>
<pdfrwt beam="2">  1       -3 0.71067426E-02 0.66533337E+02</pdfrwt>
<totfact> 0.86080648E+04</totfact>
</mgrwt>
</event>
<event>
 4    1  0.7692565E-003  0.4094286E+02  0.7818608E-02  0.1501385E+00
          3   -1    0    0    0  501  0.00000000000E+00  0.00000000000E+00  0.32320548752E+01  0.32336325883E+01  0.10100000000E+00 0.  1.
         -3   -1    0    0  501    0 -0.00000000000E+00 -0.00000000000E+00 -0.12963024520E+03  0.12963028455E+03  0.10100000000E+00 0.  1.
          2    1    1    2    0  502  0.31075245472E+01  0.19913539583E+02 -0.51555668541E+02  0.55355150914E+02  0.25500000000E-02 0.  1.
         -2    1    1    2  502    0 -0.31075245472E+01 -0.19913539583E+02 -0.74842521784E+02  0.77508766221E+02  0.25500000000E-02 0.  1.
<mgrwt>
<rscale>  0 0.40942862E+02</rscale>
<asrwt>0</asrwt>
<pdfrwt beam="1">  1        3 0.49736370E-03 0.40942862E+02</pdfrwt>
<pdfrwt beam="2">  1       -3 0.19943235E-01 0.40942862E+02</pdfrwt>
<totfact> 0.25409915E+05</totfact>
</mgrwt>
</event>
<event>
 4    1  0.7692565E-003  0.5334104E+02  0.7818608E-02  0.1428111E+00
          3   -1    0    0    0  501  0.00000000000E+00  0.00000000000E+00  0.29426302012E+03  0.29426303745E+03  0.10100000000E+00 0. -1.
         -3   -1    0    0  501    0 -0.00000000000E+00 -0.00000000000E+00 -0.24162089299E+01  0.24183189602E+01  0.10100000000E+00 0. -1.
          2    1    1    2    0  502 -0.20482358900E+02 -0.16632461614E+01  0.24048071053E+03  0.24135713281E+03  0.25500000000E-02 0. -1.
         -2    1    1    2  502    0  0.20482358900E+02  0.16632461614E+01  0.51366100654E+02  0.55324223599E+02  0.25500000000E-02 0. -1.
<mgrwt>
<rscale>  0 0.53341035E+02</rscale>
<asrwt>0</asrwt>
<pdfrwt beam="1">  1        3 0.45271397E-01 0.53341035E+02</pdfrwt>
<pdfrwt beam="2">  1       -3 0.37188810E-03 0.53341035E+02</pdfrwt>
<totfact> 0.97165490E+04</totfact>
</mgrwt>
</event>
<event>
 4    1  0.7692565E-003  0.4173410E+02  0.7818608E-02  0.1495825E+00
         -3   -1    0    0  501    0 -0.00000000000E+00  0.00000000000E+00  0.30972059959E+01  0.30988523652E+01  0.10100000000E+00 0.  1.
          3   -1    0    0    0  501  0.00000000000E+00 -0.00000000000E+00 -0.14055018292E+03  0.14055021921E+03  0.10100000000E+00 0.  1.
          2    1    1    2    0  502 -0.16109664355E+02  0.12539394349E+02 -0.83601386072E+02  0.86057826233E+02  0.25500000000E-02 0. -1.
         -2    1    1    2  502    0  0.16109664355E+02 -0.12539394349E+02 -0.53851590855E+02  0.57591245345E+02  0.25500000000E-02 0. -1.
<mgrwt>
<rscale>  0 0.41734098E+02</rscale>
<asrwt>0</asrwt>
<pdfrwt beam="2">  1        3 0.21623229E-01 0.41734098E+02</pdfrwt>
<pdfrwt beam="1">  1       -3 0.47662278E-03 0.41734098E+02</pdfrwt>
<totfact> 0.23696171E+05</totfact>
</mgrwt>
</event>
<event>
 4    1  0.7692565E-003  0.7471078E+02  0.7818608E-02  0.1344769E+00
         -3   -1    0    0  501    0 -0.00000000000E+00  0.00000000000E+00  0.65024870818E+03  0.65024871602E+03  0.10100000000E+00 0.  1.
          3   -1    0    0    0  501  0.00000000000E+00 -0.00000000000E+00 -0.21447907768E+01  0.21471675473E+01  0.10100000000E+00 0.  1.
          2    1    1    2    0  502  0.74947079912E+01 -0.23355942234E+02  0.78031599498E+02  0.81796095336E+02  0.25500000000E-02 0.  1.
         -2    1    1    2  502    0 -0.74947079912E+01  0.23355942234E+02  0.57007231790E+03  0.57059978823E+03  0.25500000000E-02 0.  1.
<mgrwt>
<rscale>  0 0.74710783E+02</rscale>
<asrwt>0</asrwt>
<pdfrwt beam="2">  1        3 0.33015098E-03 0.74710783E+02</pdfrwt>
<pdfrwt beam="1">  1       -3 0.10003853E+00 0.74710783E+02</pdfrwt>
<totfact> 0.24846537E+04</totfact>
</mgrwt>
</event>
<event>
 4    1  0.7692565E-003  0.6302281E+02  0.7818608E-02  0.1385567E+00
         -3   -1    0    0  501    0 -0.00000000000E+00  0.00000000000E+00  0.23650124424E+01  0.23671681082E+01  0.10100000000E+00 0. -1.
          3   -1    0    0    0  501  0.00000000000E+00 -0.00000000000E+00 -0.41966432186E+03  0.41966433401E+03  0.10100000000E+00 0. -1.
          2    1    1    2    0  502  0.19147772154E+02 -0.12821318061E+02 -0.64722612324E+02  0.68702546735E+02  0.25500000000E-02 0. -1.
         -2    1    1    2  502    0 -0.19147772154E+02  0.12821318061E+02 -0.35257669709E+03  0.35332895538E+03  0.25500000000E-02 0. -1.
<mgrwt>
<rscale>  0 0.63022814E+02</rscale>
<asrwt>0</asrwt>
<pdfrwt beam="2">  1        3 0.64563850E-01 0.63022814E+02</pdfrwt>
<pdfrwt beam="1">  1       -3 0.36401516E-03 0.63022814E+02</pdfrwt>
<totfact> 0.52425882E+04</totfact>
</mgrwt>
</event>
<event>
 4    1  0.7692565E-003  0.6194607E+02  0.7818608E-02  0.1389842E+00
          3   -1    0    0    0  501  0.00000000000E+00  0.00000000000E+00  0.13247218208E+02  0.13247603226E+02  0.10100000000E+00 0. -1.
         -3   -1    0    0  501    0 -0.00000000000E+00 -0.00000000000E+00 -0.72415915833E+02  0.72415986267E+02  0.10100000000E+00 0. -1.
          2    1    1    2    0  502  0.28091258470E+02  0.15196678044E+01 -0.47503144302E+02  0.55208485921E+02  0.25500000000E-02 0. -1.
         -2    1    1    2  502    0 -0.28091258470E+02 -0.15196678044E+01 -0.11665553324E+02  0.30455103571E+02  0.25500000000E-02 0. -1.
<mgrwt>
<rscale>  0 0.61946072E+02</rscale>
<asrwt>0</asrwt>
<pdfrwt beam="1">  1        3 0.20380686E-02 0.61946072E+02</pdfrwt>
<pdfrwt beam="2">  1       -3 0.11140945E-01 0.61946072E+02</pdfrwt>
<totfact> 0.99969971E+04</totfact>
</mgrwt>
</event>
<event>
 4    1  0.7692565E-003  0.5187054E+02  0.7818608E-02  0.1435506E+00
         -3   -1    0    0  501    0 -0.00000000000E+00  0.00000000000E+00  0.24873761869E+03  0.24873763919E+03  0.10100000000E+00 0. -1.
          3   -1    0    0    0  501  0.00000000000E+00 -0.00000000000E+00 -0.27032441176E+01  0.27051302666E+01  0.10100000000E+00 0. -1.
          2    1    1    2    0  502 -0.20980804582E+02 -0.66410127459E+01  0.56491278420E+02  0.60626411367E+02  0.25500000000E-02 0.  1.
         -2    1    1    2  502    0  0.20980804582E+02  0.66410127459E+01  0.18954309615E+03  0.19081635809E+03  0.25500000000E-02 0.  1.
<mgrwt>
<rscale>  0 0.51870539E+02</rscale>
<asrwt>0</asrwt>
<pdfrwt beam="2">  1        3 0.41603053E-03 0.51870539E+02</pdfrwt>
<pdfrwt beam="1">  1       -3 0.38267458E-01 0.51870539E+02</pdfrwt>
<totfact> 0.11259626E+05</totfact>
</mgrwt>
</event>
<event>
 4    1  0.7692565E-003  0.4267335E+02  0.7818608E-02  0.1489412E+00
         -3   -1    0    0  501    0 -0.00000000000E+00  0.00000000000E+00  0.13899510809E+02  0.13899877759E+02  0.10100000000E+00 0.  1.
          3   -1    0    0    0  501  0.00000000000E+00 -0.00000000000E+00 -0.32752332667E+02  0.32752488396E+02  0.10100000000E+00 0.  1.
          2    1    1    2    0  502  0.20728896517E+02 -0.23238340765E+01 -0.14335821646E+02  0.25310139162E+02  0.25500000000E-02 0. -1.
         -2    1    1    2  502    0 -0.20728896517E+02  0.23238340765E+01 -0.45170002121E+01  0.21342226993E+02  0.25500000000E-02 0. -1.
<mgrwt>
<rscale>  0 0.42673345E+02</rscale>
<asrwt>0</asrwt>
<pdfrwt beam="2">  1        3 0.50388606E-02 0.42673345E+02</pdfrwt>
<pdfrwt beam="1">  1       -3 0.21384265E-02 0.42673345E+02</pdfrwt>
<totfact> 0.28341335E+05</totfact>
</mgrwt>
</event>
<event>
 4    1  0.7692565E-003  0.5476453E+02  0.7818608E-02  0.1421216E+00
         -3   -1    0    0  501    0 -0.00000000000E+00  0.00000000000E+00  0.14224475020E+02  0.14224833587E+02  0.10100000000E+00 0. -1.
          3   -1    0    0    0  501  0.00000000000E+00 -0.00000000000E+00 -0.52710078281E+02  0.52710175046E+02  0.10100000000E+00 0. -1.
          2    1    1    2    0  502  0.17816338950E+02 -0.13173303290E+02 -0.38906343434E+02  0.44773445468E+02  0.25500000000E-02 0.  1.
         -2    1    1    2  502    0 -0.17816338950E+02  0.13173303290E+02  0.42074017248E+00  0.22161563166E+02  0.25500000000E-02 0.  1.
<mgrwt>
<rscale>  0 0.54764530E+02</rscale>
<asrwt>0</asrwt>
<pdfrwt beam="2">  1        3 0.81092777E-02 0.54764530E+02</pdfrwt>
<pdfrwt beam="1">  1       -3 0.21884158E-02 0.54764530E+02</pdfrwt>
<totfact> 0.14356941E+05</totfact>
</mgrwt>
</event>
<event>
 4    1  0.7692565E-003  0.6972975E+02  0.7818608E-02  0.1361014E+00
         -3   -1    0    0  501    0 -0.00000000000E+00  0.00000000000E+00  0.51815879151E+02  0.51815977586E+02  0.10100000000E+00 0.  1.
          3   -1    0    0    0  501  0.00000000000E+00 -0.00000000000E+00 -0.23458981083E+02  0.23459198504E+02  0.10100000000E+00 0.  1.
          2    1    1    2    0  502 -0.28749074000E+02  0.11249095283E+02 -0.33121666713E+01  0.31048701343E+02  0.25500000000E-02 0.  1.
         -2    1    1    2  502    0  0.28749074000E+02 -0.11249095283E+02  0.31669064739E+02  0.44226474747E+02  0.25500000000E-02 0.  1.
<mgrwt>
<rscale>  0 0.69729753E+02</rscale>
<asrwt>0</asrwt>
<pdfrwt beam="2">  1        3 0.36090984E-02 0.69729753E+02</pdfrwt>
<pdfrwt beam="1">  1       -3 0.79716979E-02 0.69729753E+02</pdfrwt>
<totfact> 0.75165094E+04</totfact>
</mgrwt>
</event>
<event>
 4    1  0.7692565E-003  0.5606123E+02  0.7818608E-02  0.1415146E+00
          3   -1    0    0    0  501  0.00000000000E+00  0.00000000000E+00  0.19394700398E+02  0.19394963381E+02  0.10100000000E+00 0. -1.
         -3   -1    0    0  501    0 -0.00000000000E+00 -0.00000000000E+00 -0.40511252088E+02  0.40511377991E+02  0.10100000000E+00 0. -1.
          2    1    1    2    0  502  0.17992267043E+02  0.21488149585E+02 -0.10020793310E+02  0.29763711983E+02  0.25500000000E-02 0. -1.
         -2    1    1    2  502    0 -0.17992267043E+02 -0.21488149585E+02 -0.11095758380E+02  0.30142629389E+02  0.25500000000E-02 0. -1.
<mgrwt>
<rscale>  0 0.56061225E+02</rscale>
<asrwt>0</asrwt>
<pdfrwt beam="1">  1        3 0.29838300E-02 0.56061225E+02</pdfrwt>
<pdfrwt beam="2">  1       -3 0.62325302E-02 0.56061225E+02</pdfrwt>
<totfact> 0.13765549E+05</totfact>
</mgrwt>
</event>
<event>
 4    1  0.7692565E-003  0.5752156E+02  0.7818608E-02  0.1408537E+00
         -3   -1    0    0  501    0 -0.00000000000E+00  0.00000000000E+00  0.13259071653E+02  0.13259456328E+02  0.10100000000E+00 0. -1.
          3   -1    0    0    0  501  0.00000000000E+00 -0.00000000000E+00 -0.62384826667E+02  0.62384908425E+02  0.10100000000E+00 0. -1.
          2    1    1    2    0  502  0.22091928812E+02 -0.39048629519E+01 -0.48229637711E+02  0.53192097473E+02  0.25500000000E-02 0. -1.
         -2    1    1    2  502    0 -0.22091928812E+02  0.39048629519E+01 -0.89611730212E+00  0.22452267280E+02  0.25500000000E-02 0. -1.
<mgrwt>
<rscale>  0 0.57521562E+02</rscale>
<asrwt>0</asrwt>
<pdfrwt beam="2">  1        3 0.95977014E-02 0.57521562E+02</pdfrwt>
<pdfrwt beam="1">  1       -3 0.20398931E-02 0.57521562E+02</pdfrwt>
<totfact> 0.12391216E+05</totfact>
</mgrwt>
</event>
<event>
 4    1  0.7692565E-003  0.6761186E+02  0.7818608E-02  0.1368408E+00
         -3   -1    0    0  501    0 -0.00000000000E+00  0.00000000000E+00  0.33689630723E+03  0.33689632237E+03  0.10100000000E+00 0.  1.
          3   -1    0    0    0  501  0.00000000000E+00 -0.00000000000E+00 -0.33914962657E+01  0.33929998409E+01  0.10100000000E+00 0.  1.
          2    1    1    2    0  502 -0.20038685975E+02 -0.17240504818E+02  0.60694072672E+02  0.66200864088E+02  0.25500000000E-02 0. -1.
         -2    1    1    2  502    0  0.20038685975E+02  0.17240504818E+02  0.27281073829E+03  0.27408845812E+03  0.25500000000E-02 0. -1.
<mgrwt>
<rscale>  0 0.67611862E+02</rscale>
<asrwt>0</asrwt>
<pdfrwt beam="2">  1        3 0.52188538E-03 0.67611862E+02</pdfrwt>
<pdfrwt beam="1">  1       -3 0.51830328E-01 0.67611862E+02</pdfrwt>
<totfact> 0.49500680E+04</totfact>
</mgrwt>
</event>
<event>
 4    1  0.7692565E-003  0.6978300E+02  0.7818608E-02  0.1360833E+00
         -3   -1    0    0  501    0 -0.00000000000E+00  0.00000000000E+00  0.77735554911E+02  0.77735620524E+02  0.10100000000E+00 0. -1.
          3   -1    0    0    0  501  0.00000000000E+00 -0.00000000000E+00 -0.15660767538E+02  0.15661093221E+02  0.10100000000E+00 0. -1.
          2    1    1    2    0  502 -0.15828586792E+02 -0.28694754525E+02  0.15005562314E+02  0.36043029894E+02  0.25500000000E-02 0.  1.
         -2    1    1    2  502    0  0.15828586792E+02  0.28694754525E+02  0.47069225059E+02  0.57353683851E+02  0.25500000000E-02 0.  1.
<mgrwt>
<rscale>  0 0.69782999E+02</rscale>
<asrwt>0</asrwt>
<pdfrwt beam="2">  1        3 0.24093790E-02 0.69782999E+02</pdfrwt>
<pdfrwt beam="1">  1       -3 0.11959346E-01 0.69782999E+02</pdfrwt>
<totfact> 0.71945699E+04</totfact>
</mgrwt>
</event>
<event>
 4    1  0.7692565E-003  0.7623542E+02  0.7818608E-02  0.1340087E+00
          3   -1    0    0    0  501  0.00000000000E+00  0.00000000000E+00  0.31540392055E+02  0.31540553768E+02  0.10100000000E+00 0.  1.
         -3   -1    0    0  501    0 -0.00000000000E+00 -0.00000000000E+00 -0.46066305020E+02  0.46066415741E+02  0.10100000000E+00 0.  1.
          2    1    1    2    0  502 -0.27971854521E+02 -0.42876363541E+01 -0.33259651342E+02  0.43669358648E+02  0.25500000000E-02 0. -1.
         -2    1    1    2  502    0  0.27971854521E+02  0.42876363541E+01  0.18733738377E+02  0.33937610860E+02  0.25500000000E-02 0. -1.
<mgrwt>
<rscale>  0 0.76235422E+02</rscale>
<asrwt>0</asrwt>
<pdfrwt beam="1">  1        3 0.48523890E-02 0.76235422E+02</pdfrwt>
<pdfrwt beam="2">  1       -3 0.70871448E-02 0.76235422E+02</pdfrwt>
<totfact> 0.59020290E+04</totfact>
</mgrwt>
</event>
<event>
 4    1  0.7692565E-003  0.4673044E+02  0.7818608E-02  0.1463819E+00
         -3   -1    0    0  501    0 -0.00000000000E+00  0.00000000000E+00  0.10203553116E+01  0.10253418756E+01  0.10100000000E+00 0.  1.
          3   -1    0    0    0  501  0.00000000000E+00 -0.00000000000E+00 -0.53373340588E+03  0.53373341544E+03  0.10100000000E+00 0.  1.
          2    1    1    2    0  502  0.76021142716E+01  0.21494681243E+02 -0.32484165021E+03  0.32564077014E+03  0.25500000000E-02 0. -1.
         -2    1    1    2  502    0 -0.76021142716E+01 -0.21494681243E+02 -0.20787140036E+03  0.20911798717E+03  0.25500000000E-02 0. -1.
<mgrwt>
<rscale>  0 0.46730443E+02</rscale>
<asrwt>0</asrwt>
<pdfrwt beam="2">  1        3 0.82112993E-01 0.46730443E+02</pdfrwt>
<pdfrwt beam="1">  1       -3 0.15736248E-03 0.46730443E+02</pdfrwt>
<totfact> 0.94717337E+04</totfact>
</mgrwt>
</event>
<event>
 4    1  0.7692565E-003  0.5523366E+02  0.7818608E-02  0.1418997E+00
          3   -1    0    0    0  501  0.00000000000E+00  0.00000000000E+00  0.13398767420E+02  0.13399148084E+02  0.10100000000E+00 0.  1.
         -3   -1    0    0  501    0 -0.00000000000E+00 -0.00000000000E+00 -0.56921104153E+02  0.56921193760E+02  0.10100000000E+00 0.  1.
          2    1    1    2    0  502 -0.19280977711E+02 -0.86076828936E+01  0.90080776929E+00  0.21134326756E+02  0.25500000000E-02 0.  1.
         -2    1    1    2  502    0  0.19280977711E+02  0.86076828936E+01 -0.44423144502E+02  0.49186015088E+02  0.25500000000E-02 0.  1.
<mgrwt>
<rscale>  0 0.55233655E+02</rscale>
<asrwt>0</asrwt>
<pdfrwt beam="1">  1        3 0.20613850E-02 0.55233655E+02</pdfrwt>
<pdfrwt beam="2">  1       -3 0.87571290E-02 0.55233655E+02</pdfrwt>
<totfact> 0.13930721E+05</totfact>
</mgrwt>
</event>
<event>
 4    1  0.7692565E-003  0.2031126E+03  0.7818608E-02  0.1147139E+00
         -3   -1    0    0  501    0 -0.00000000000E+00  0.00000000000E+00  0.21054786591E+03  0.21054789013E+03  0.10100000000E+00 0. -1.
          3   -1    0    0    0  501  0.00000000000E+00 -0.00000000000E+00 -0.48984882232E+02  0.48984986356E+02  0.10100000000E+00 0. -1.
          2    1    1    2    0  502 -0.68258357544E+01  0.82370662199E+02  0.53799886649E+01  0.82827907793E+02  0.25500000000E-02 0.  1.
         -2    1    1    2  502    0  0.68258357544E+01 -0.82370662199E+02  0.15618299501E+03  0.17670496870E+03  0.25500000000E-02 0.  1.
<mgrwt>
<rscale>  0 0.20311257E+03</rscale>
<asrwt>0</asrwt>
<pdfrwt beam="2">  1        3 0.75361458E-02 0.20311257E+03</pdfrwt>
<pdfrwt beam="1">  1       -3 0.32391988E-01 0.20311257E+03</pdfrwt>
<totfact> 0.26769438E+03</totfact>
</mgrwt>
</event>
<event>
 4    1  0.7692565E-003  0.9593314E+02  0.7818608E-02  0.1289088E+00
          3   -1    0    0    0  501  0.00000000000E+00  0.00000000000E+00  0.68651056255E+02  0.68651130551E+02  0.10100000000E+00 0. -1.
         -3   -1    0    0  501    0 -0.00000000000E+00 -0.00000000000E+00 -0.33514130761E+02  0.33514282951E+02  0.10100000000E+00 0. -1.
          2    1    1    2    0  502  0.10812855540E+02  0.40618297180E+02 -0.70418585863E+01  0.42618677708E+02  0.25500000000E-02 0. -1.
         -2    1    1    2  502    0 -0.10812855540E+02 -0.40618297180E+02  0.42178784080E+02  0.59546735793E+02  0.25500000000E-02 0. -1.
<mgrwt>
<rscale>  0 0.95933144E+02</rscale>
<asrwt>0</asrwt>
<pdfrwt beam="1">  1        3 0.10561718E-01 0.95933144E+02</pdfrwt>
<pdfrwt beam="2">  1       -3 0.51560376E-02 0.95933144E+02</pdfrwt>
<totfact> 0.30032974E+04</totfact>
</mgrwt>
</event>
<event>
 4    1  0.7692565E-003  0.7734632E+02  0.7818608E-02  0.1336755E+00
         -3   -1    0    0  501    0 -0.00000000000E+00  0.00000000000E+00  0.13609615597E+01  0.13647041317E+01  0.10100000000E+00 0. -1.
          3   -1    0    0    0  501  0.00000000000E+00 -0.00000000000E+00 -0.10974258813E+04  0.10974258859E+04  0.10100000000E+00 0. -1.
          2    1    1    2    0  502 -0.29912928457E+02  0.23921959692E+02 -0.47209989670E+03  0.47365109091E+03  0.25500000000E-02 0. -1.
         -2    1    1    2  502    0  0.29912928457E+02 -0.23921959692E+02 -0.62396502301E+03  0.62513949915E+03  0.25500000000E-02 0. -1.
<mgrwt>
<rscale>  0 0.77346316E+02</rscale>
<asrwt>0</asrwt>
<pdfrwt beam="2">  1        3 0.16883433E+00 0.77346316E+02</pdfrwt>
<pdfrwt beam="1">  1       -3 0.20966783E-03 0.77346316E+02</pdfrwt>
<totfact> 0.13975305E+04</totfact>
</mgrwt>
</event>
<event>
 4    1  0.7692565E-003  0.1398566E+03  0.7818608E-02  0.1213522E+00
         -3   -1    0    0  501    0 -0.00000000000E+00  0.00000000000E+00  0.21915910769E+02  0.21916143499E+02  0.10100000000E+00 0.  1.
          3   -1    0    0    0  501  0.00000000000E+00 -0.00000000000E+00 -0.22312251654E+03  0.22312253940E+03  0.10100000000E+00 0.  1.
          2    1    1    2    0  502 -0.34469070145E+02  0.52440453011E+02 -0.15465822857E+03  0.16690501963E+03  0.25500000000E-02 0. -1.
         -2    1    1    2  502    0  0.34469070145E+02 -0.52440453011E+02 -0.46548377208E+02  0.78133663270E+02  0.25500000000E-02 0. -1.
<mgrwt>
<rscale>  0 0.13985656E+03</rscale>
<asrwt>0</asrwt>
<pdfrwt beam="2">  1        3 0.34326559E-01 0.13985656E+03</pdfrwt>
<pdfrwt beam="1">  1       -3 0.33716984E-02 0.13985656E+03</pdfrwt>
<totfact> 0.80753627E+03</totfact>
</mgrwt>
</event>
<event>
 4    1  0.7692565E-003  0.6803194E+02  0.7818608E-02  0.1366916E+00
         -3   -1    0    0  501    0 -0.00000000000E+00  0.00000000000E+00  0.61011891852E+01  0.61020251125E+01  0.10100000000E+00 0.  1.
          3   -1    0    0    0  501  0.00000000000E+00 -0.00000000000E+00 -0.18963545089E+03  0.18963547779E+03  0.10100000000E+00 0.  1.
          2    1    1    2    0  502 -0.45022738612E+01 -0.27046178648E+02 -0.14969134892E+03  0.15218168811E+03  0.25500000000E-02 0. -1.
         -2    1    1    2  502    0  0.45022738612E+01  0.27046178648E+02 -0.33842912791E+02  0.43555814791E+02  0.25500000000E-02 0. -1.
<mgrwt>
<rscale>  0 0.68031940E+02</rscale>
<asrwt>0</asrwt>
<pdfrwt beam="2">  1        3 0.29174747E-01 0.68031940E+02</pdfrwt>
<pdfrwt beam="1">  1       -3 0.93871101E-03 0.68031940E+02</pdfrwt>
<totfact> 0.62376776E+04</totfact>
</mgrwt>
</event>
<event>
 4    1  0.7692565E-003  0.4974638E+02  0.7818608E-02  0.1446714E+00
         -3   -1    0    0  501    0 -0.00000000000E+00  0.00000000000E+00  0.17964375072E+03  0.17964377911E+03  0.10100000000E+00 0. -1.
          3   -1    0    0    0  501  0.00000000000E+00 -0.00000000000E+00 -0.34431338683E+01  0.34446149037E+01  0.10100000000E+00 0. -1.
          2    1    1    2    0  502  0.30355550214E+01  0.20236183135E+02  0.14014406591E+03  0.14163007068E+03  0.25500000000E-02 0.  1.
         -2    1    1    2  502    0 -0.30355550214E+01 -0.20236183135E+02  0.36056550936E+02  0.41458323339E+02  0.25500000000E-02 0.  1.
<mgrwt>
<rscale>  0 0.49746383E+02</rscale>
<asrwt>0</asrwt>
<pdfrwt beam="2">  1        3 0.52982912E-03 0.49746383E+02</pdfrwt>
<pdfrwt beam="1">  1       -3 0.27637611E-01 0.49746383E+02</pdfrwt>
<totfact> 0.14185827E+05</totfact>
</mgrwt>
</event>
<event>
 4    1  0.7692565E-003  0.6474001E+02  0.7818608E-02  0.1378952E+00
         -3   -1    0    0  501    0 -0.00000000000E+00  0.00000000000E+00  0.27049883606E+02  0.27050072164E+02  0.10100000000E+00 0. -1.
          3   -1    0    0    0  501  0.00000000000E+00 -0.00000000000E+00 -0.38736083627E+02  0.38736215300E+02  0.10100000000E+00 0. -1.
          2    1    1    2    0  502 -0.22369785734E+02 -0.23144121458E+02 -0.23584803463E+01  0.32274139925E+02  0.25500000000E-02 0.  1.
         -2    1    1    2  502    0  0.22369785734E+02  0.23144121458E+02 -0.93277196751E+01  0.33512147539E+02  0.25500000000E-02 0.  1.
<mgrwt>
<rscale>  0 0.64740006E+02</rscale>
<asrwt>0</asrwt>
<pdfrwt beam="2">  1        3 0.59594221E-02 0.64740006E+02</pdfrwt>
<pdfrwt beam="1">  1       -3 0.41615452E-02 0.64740006E+02</pdfrwt>
<totfact> 0.93454622E+04</totfact>
</mgrwt>
</event>
<event>
 4    1  0.7692565E-003  0.9825845E+02  0.7818608E-02  0.1284001E+00
         -3   -1    0    0  501    0 -0.00000000000E+00  0.00000000000E+00  0.97579880496E+02  0.97579932766E+02  0.10100000000E+00 0. -1.
          3   -1    0    0    0  501  0.00000000000E+00 -0.00000000000E+00 -0.24735273504E+02  0.24735479707E+02  0.10100000000E+00 0. -1.
          2    1    1    2    0  502  0.26687752202E+02 -0.14733987745E+02 -0.11537794031E+02  0.32595202255E+02  0.25500000000E-02 0.  1.
         -2    1    1    2  502    0 -0.26687752202E+02  0.14733987745E+02  0.84382401023E+02  0.89720210217E+02  0.25500000000E-02 0.  1.
<mgrwt>
<rscale>  0 0.98258452E+02</rscale>
<asrwt>0</asrwt>
<pdfrwt beam="2">  1        3 0.38054466E-02 0.98258452E+02</pdfrwt>
<pdfrwt beam="1">  1       -3 0.15012309E-01 0.98258452E+02</pdfrwt>
<totfact> 0.26977007E+04</totfact>
</mgrwt>
</event>
<event>
 4    1  0.7692565E-003  0.6951005E+02  0.7818608E-02  0.1361767E+00
         -3   -1    0    0  501    0 -0.00000000000E+00  0.00000000000E+00  0.24782590570E+02  0.24782796379E+02  0.10100000000E+00 0.  1.
          3   -1    0    0    0  501  0.00000000000E+00 -0.00000000000E+00 -0.48739879974E+02  0.48739984621E+02  0.10100000000E+00 0.  1.
          2    1    1    2    0  502 -0.17658940722E+02 -0.18662540804E+02 -0.36734542761E+02  0.44828063253E+02  0.25500000000E-02 0. -1.
         -2    1    1    2  502    0  0.17658940722E+02  0.18662540804E+02  0.12777253358E+02  0.28694717747E+02  0.25500000000E-02 0. -1.
<mgrwt>
<rscale>  0 0.69510054E+02</rscale>
<asrwt>0</asrwt>
<pdfrwt beam="2">  1        3 0.74984669E-02 0.69510054E+02</pdfrwt>
<pdfrwt beam="1">  1       -3 0.38127301E-02 0.69510054E+02</pdfrwt>
<totfact> 0.76104390E+04</totfact>
</mgrwt>
</event>
<event>
 4    1  0.7692565E-003  0.5047646E+02  0.7818608E-02  0.1442788E+00
         -3   -1    0    0  501    0 -0.00000000000E+00  0.00000000000E+00  0.18418721211E+01  0.18446392359E+01  0.10100000000E+00 0. -1.
          3   -1    0    0    0  501  0.00000000000E+00 -0.00000000000E+00 -0.34556414763E+03  0.34556416239E+03  0.10100000000E+00 0. -1.
          2    1    1    2    0  502 -0.22563076716E+02 -0.71995141663E+01 -0.11184322947E+03  0.11432337215E+03  0.25500000000E-02 0. -1.
         -2    1    1    2  502    0  0.22563076716E+02  0.71995141663E+01 -0.23187904603E+03  0.23308542947E+03  0.25500000000E-02 0. -1.
<mgrwt>
<rscale>  0 0.50476458E+02</rscale>
<asrwt>0</asrwt>
<pdfrwt beam="2">  1        3 0.53163877E-01 0.50476458E+02</pdfrwt>
<pdfrwt beam="1">  1       -3 0.28357921E-03 0.50476458E+02</pdfrwt>
<totfact> 0.10272422E+05</totfact>
</mgrwt>
</event>
<event>
 4    1  0.7692565E-003  0.4936785E+02  0.7818608E-02  0.1448781E+00
         -3   -1    0    0  501    0 -0.00000000000E+00  0.00000000000E+00  0.10800245482E+01  0.10847368459E+01  0.10100000000E+00 0. -1.
          3   -1    0    0    0  501  0.00000000000E+00 -0.00000000000E+00 -0.56291757933E+03  0.56291758839E+03  0.10100000000E+00 0. -1.
          2    1    1    2    0  502  0.16916677107E+02 -0.17707278853E+02 -0.31626926706E+03  0.31721596899E+03  0.25500000000E-02 0. -1.
         -2    1    1    2  502    0 -0.16916677107E+02  0.17707278853E+02 -0.24556828772E+03  0.24678635625E+03  0.25500000000E-02 0. -1.
<mgrwt>
<rscale>  0 0.49367853E+02</rscale>
<asrwt>0</asrwt>
<pdfrwt beam="2">  1        3 0.86602834E-01 0.49367853E+02</pdfrwt>
<pdfrwt beam="1">  1       -3 0.16652125E-03 0.49367853E+02</pdfrwt>
<totfact> 0.79606750E+04</totfact>
</mgrwt>
</event>
<event>
 4    1  0.7692565E-003  0.4046365E+02  0.7818608E-02  0.1504827E+00
         -3   -1    0    0  501    0 -0.00000000000E+00  0.00000000000E+00  0.79173996763E+01  0.79180438641E+01  0.10100000000E+00 0.  1.
          3   -1    0    0    0  501  0.00000000000E+00 -0.00000000000E+00 -0.51696835927E+02  0.51696934588E+02  0.10100000000E+00 0.  1.
          2    1    1    2    0  502 -0.81890000875E+01  0.18402332962E+02 -0.24693270431E+02  0.31866333205E+02  0.25500000000E-02 0. -1.
         -2    1    1    2  502    0  0.81890000875E+01 -0.18402332962E+02 -0.19086165819E+02  0.27748645247E+02  0.25500000000E-02 0. -1.
<mgrwt>
<rscale>  0 0.40463646E+02</rscale>
<asrwt>0</asrwt>
<pdfrwt beam="2">  1        3 0.79534163E-02 0.40463646E+02</pdfrwt>
<pdfrwt beam="1">  1       -3 0.12181187E-02 0.40463646E+02</pdfrwt>
<totfact> 0.31161181E+05</totfact>
</mgrwt>
</event>
<event>
 4    1  0.7692565E-003  0.5232301E+02  0.7818608E-02  0.1433200E+00
         -3   -1    0    0  501    0 -0.00000000000E+00  0.00000000000E+00  0.21063763574E+03  0.21063765995E+03  0.10100000000E+00 0. -1.
          3   -1    0    0    0  501  0.00000000000E+00 -0.00000000000E+00 -0.32484883242E+01  0.32500580598E+01  0.10100000000E+00 0. -1.
          2    1    1    2    0  502 -0.23005092428E+02 -0.33243739662E+01  0.15277217134E+03  0.15453032739E+03  0.25500000000E-02 0. -1.
         -2    1    1    2  502    0  0.23005092428E+02  0.33243739662E+01  0.54616976070E+02  0.59357390622E+02  0.25500000000E-02 0. -1.
<mgrwt>
<rscale>  0 0.52323011E+02</rscale>
<asrwt>0</asrwt>
<pdfrwt beam="2">  1        3 0.49988989E-03 0.52323011E+02</pdfrwt>
<pdfrwt beam="1">  1       -3 0.32405923E-01 0.52323011E+02</pdfrwt>
<totfact> 0.11791599E+05</totfact>
</mgrwt>
</event>
<event>
 4    1  0.7692565E-003  0.5384704E+02  0.7818608E-02  0.1425631E+00
          3   -1    0    0    0  501  0.00000000000E+00  0.00000000000E+00  0.38974149639E+02  0.38974280508E+02  0.10100000000E+00 0. -1.
         -3   -1    0    0  501    0 -0.00000000000E+00 -0.00000000000E+00 -0.18598592841E+02  0.18598867080E+02  0.10100000000E+00 0. -1.
          2    1    1    2    0  502  0.22513200396E+02  0.14764622773E+02  0.10395428341E+02  0.28860062623E+02  0.25500000000E-02 0.  1.
         -2    1    1    2  502    0 -0.22513200396E+02 -0.14764622773E+02  0.99801284568E+01  0.28713084965E+02  0.25500000000E-02 0.  1.
<mgrwt>
<rscale>  0 0.53847043E+02</rscale>
<asrwt>0</asrwt>
<pdfrwt beam="1">  1        3 0.59960542E-02 0.53847043E+02</pdfrwt>
<pdfrwt beam="2">  1       -3 0.28613531E-02 0.53847043E+02</pdfrwt>
<totfact> 0.15352034E+05</totfact>
</mgrwt>
</event>
<event>
 4    1  0.7692565E-003  0.8574552E+02  0.7818608E-02  0.1313494E+00
          3   -1    0    0    0  501  0.00000000000E+00  0.00000000000E+00  0.38595825888E+02  0.38595958040E+02  0.10100000000E+00 0. -1.
         -3   -1    0    0  501    0 -0.00000000000E+00 -0.00000000000E+00 -0.47623371558E+02  0.47623478659E+02  0.10100000000E+00 0. -1.
          2    1    1    2    0  502 -0.40482136511E+02 -0.12816167376E+02 -0.10463922287E+02  0.43732724576E+02  0.25500000000E-02 0.  1.
         -2    1    1    2  502    0  0.40482136511E+02  0.12816167376E+02  0.14363766172E+01  0.42486712123E+02  0.25500000000E-02 0.  1.
<mgrwt>
<rscale>  0 0.85745523E+02</rscale>
<asrwt>0</asrwt>
<pdfrwt beam="1">  1        3 0.59378378E-02 0.85745523E+02</pdfrwt>
<pdfrwt beam="2">  1       -3 0.73266910E-02 0.85745523E+02</pdfrwt>
<totfact> 0.42200919E+04</totfact>
</mgrwt>
</event>
<event>
 4    1  0.7692565E-003  0.4874274E+02  0.7818608E-02  0.1452243E+00
         -3   -1    0    0  501    0 -0.00000000000E+00  0.00000000000E+00  0.40014185417E+03  0.40014186692E+03  0.10100000000E+00 0. -1.
          3   -1    0    0    0  501  0.00000000000E+00 -0.00000000000E+00 -0.14826517746E+01  0.14860879129E+01  0.10100000000E+00 0. -1.
          2    1    1    2    0  502 -0.15426332236E+02  0.14789128889E+02  0.10278956801E+03  0.10498754858E+03  0.25500000000E-02 0.  1.
         -2    1    1    2  502    0  0.15426332236E+02 -0.14789128889E+02  0.29586963439E+03  0.29664040625E+03  0.25500000000E-02 0.  1.
<mgrwt>
<rscale>  0 0.48742737E+02</rscale>
<asrwt>0</asrwt>
<pdfrwt beam="2">  1        3 0.22836557E-03 0.48742737E+02</pdfrwt>
<pdfrwt beam="1">  1       -3 0.61560550E-01 0.48742737E+02</pdfrwt>
<totfact> 0.10298896E+05</totfact>
</mgrwt>
</event>
<event>
 4    1  0.7692565E-003  0.4995793E+02  0.7818608E-02  0.1445569E+00
         -3   -1    0    0  501    0 -0.00000000000E+00  0.00000000000E+00  0.56870344331E+01  0.56879312270E+01  0.10100000000E+00 0. -1.
          3   -1    0    0    0  501  0.00000000000E+00 -0.00000000000E+00 -0.10970468042E+03  0.10970472691E+03  0.10100000000E+00 0. -1.
          2    1    1    2    0  502  0.19790911791E+02  0.14327788988E+02 -0.40010550123E+02  0.46880804755E+02  0.25500000000E-02 0.  1.
         -2    1    1    2  502    0 -0.19790911791E+02 -0.14327788988E+02 -0.64007095862E+02  0.68511853384E+02  0.25500000000E-02 0.  1.
<mgrwt>
<rscale>  0 0.49957931E+02</rscale>
<asrwt>0</asrwt>
<pdfrwt beam="2">  1        3 0.16877714E-01 0.49957931E+02</pdfrwt>
<pdfrwt beam="1">  1       -3 0.87500102E-03 0.49957931E+02</pdfrwt>
<totfact> 0.16156504E+05</totfact>
</mgrwt>
</event>
<event>
 4    1  0.7692565E-003  0.5840333E+02  0.7818608E-02  0.1404657E+00
         -3   -1    0    0  501    0 -0.00000000000E+00  0.00000000000E+00  0.21744939806E+01  0.21768383201E+01  0.10100000000E+00 0.  1.
          3   -1    0    0    0  501  0.00000000000E+00 -0.00000000000E+00 -0.39194072532E+03  0.39194073834E+03  0.10100000000E+00 0.  1.
          2    1    1    2    0  502 -0.28605533608E+02  0.30509108485E+01 -0.16103923117E+03  0.16358856498E+03  0.25500000000E-02 0. -1.
         -2    1    1    2  502    0  0.28605533608E+02 -0.30509108485E+01 -0.22872700017E+03  0.23052901168E+03  0.25500000000E-02 0. -1.
<mgrwt>
<rscale>  0 0.58403332E+02</rscale>
<asrwt>0</asrwt>
<pdfrwt beam="2">  1        3 0.60298698E-01 0.58403332E+02</pdfrwt>
<pdfrwt beam="1">  1       -3 0.33471918E-03 0.58403332E+02</pdfrwt>
<totfact> 0.66299580E+04</totfact>
</mgrwt>
</event>
<event>
 4    1  0.7692565E-003  0.4177133E+02  0.7818608E-02  0.1495567E+00
         -3   -1    0    0  501    0 -0.00000000000E+00  0.00000000000E+00  0.48109003074E+02  0.48109109094E+02  0.10100000000E+00 0. -1.
          3   -1    0    0    0  501  0.00000000000E+00 -0.00000000000E+00 -0.90667396614E+01  0.90673021946E+01  0.10100000000E+00 0. -1.
          2    1    1    2    0  502 -0.39815579773E+01  0.19838248872E+02  0.12434788985E+02  0.23749376957E+02  0.25500000000E-02 0.  1.
         -2    1    1    2  502    0  0.39815579773E+01 -0.19838248872E+02  0.26607474428E+02  0.33427034332E+02  0.25500000000E-02 0.  1.
<mgrwt>
<rscale>  0 0.41771326E+02</rscale>
<asrwt>0</asrwt>
<pdfrwt beam="2">  1        3 0.13949345E-02 0.41771326E+02</pdfrwt>
<pdfrwt beam="1">  1       -3 0.74014364E-02 0.41771326E+02</pdfrwt>
<totfact> 0.29021216E+05</totfact>
</mgrwt>
</event>
<event>
 4    1  0.7692565E-003  0.6978932E+02  0.7818608E-02  0.1360811E+00
          3   -1    0    0    0  501  0.00000000000E+00  0.00000000000E+00  0.76168048755E+00  0.76834768505E+00  0.10100000000E+00 0. -1.
         -3   -1    0    0  501    0 -0.00000000000E+00 -0.00000000000E+00 -0.15916467579E+04  0.15916467611E+04  0.10100000000E+00 0. -1.
          2    1    1    2    0  502  0.79498002338E+01  0.32297195350E+02 -0.10361955564E+04  0.10367292507E+04  0.25500000000E-02 0.  1.
         -2    1    1    2  502    0 -0.79498002338E+01 -0.32297195350E+02 -0.55468952106E+03  0.55568585814E+03  0.25500000000E-02 0.  1.
<mgrwt>
<rscale>  0 0.69789320E+02</rscale>
<asrwt>0</asrwt>
<pdfrwt beam="1">  1        3 0.11769600E-03 0.69789320E+02</pdfrwt>
<pdfrwt beam="2">  1       -3 0.24486659E+00 0.69789320E+02</pdfrwt>
<totfact> 0.11174198E+04</totfact>
</mgrwt>
</event>
<event>
 4    1  0.7692565E-003  0.4645897E+02  0.7818608E-02  0.1465434E+00
         -3   -1    0    0  501    0 -0.00000000000E+00  0.00000000000E+00  0.21602330521E+02  0.21602566628E+02  0.10100000000E+00 0. -1.
          3   -1    0    0    0  501  0.00000000000E+00 -0.00000000000E+00 -0.24978731775E+02  0.24978935968E+02  0.10100000000E+00 0. -1.
          2    1    1    2    0  502 -0.59220533088E+01 -0.21933691446E+02  0.31672493938E+01  0.22938810149E+02  0.25500000000E-02 0.  1.
         -2    1    1    2  502    0  0.59220533088E+01  0.21933691446E+02 -0.65436506476E+01  0.23642692447E+02  0.25500000000E-02 0.  1.
<mgrwt>
<rscale>  0 0.46458974E+02</rscale>
<asrwt>0</asrwt>
<pdfrwt beam="2">  1        3 0.38429157E-02 0.46458974E+02</pdfrwt>
<pdfrwt beam="1">  1       -3 0.33234693E-02 0.46458974E+02</pdfrwt>
<totfact> 0.22946962E+05</totfact>
</mgrwt>
</event>
<event>
 4    1  0.7692565E-003  0.1759997E+03  0.7818608E-02  0.1171732E+00
         -3   -1    0    0  501    0 -0.00000000000E+00  0.00000000000E+00  0.21804153204E+02  0.21804387126E+02  0.10100000000E+00 0.  1.
          3   -1    0    0    0  501  0.00000000000E+00 -0.00000000000E+00 -0.35515838993E+03  0.35515840429E+03  0.10100000000E+00 0.  1.
          2    1    1    2    0  502 -0.32291961965E+02  0.79756355492E+02 -0.20617806632E+03  0.22341271693E+03  0.25500000000E-02 0.  1.
         -2    1    1    2  502    0  0.32291961965E+02 -0.79756355492E+02 -0.12717617041E+03  0.15355007449E+03  0.25500000000E-02 0.  1.
<mgrwt>
<rscale>  0 0.17599971E+03</rscale>
<asrwt>0</asrwt>
<pdfrwt beam="2">  1        3 0.54639767E-01 0.17599971E+03</pdfrwt>
<pdfrwt beam="1">  1       -3 0.33545045E-02 0.17599971E+03</pdfrwt>
<totfact> 0.34204872E+03</totfact>
</mgrwt>
</event>
<event>
 4    1  0.7692565E-003  0.5454101E+02  0.7818608E-02  0.1422282E+00
         -3   -1    0    0  501    0 -0.00000000000E+00  0.00000000000E+00  0.11513676786E+03  0.11513681216E+03  0.10100000000E+00 0.  1.
          3   -1    0    0    0  501  0.00000000000E+00 -0.00000000000E+00 -0.64586638391E+01  0.64594535052E+01  0.10100000000E+00 0.  1.
          2    1    1    2    0  502  0.26605801688E+02  0.33326718337E+01  0.65420319259E+02  0.70702146810E+02  0.25500000000E-02 0. -1.
         -2    1    1    2  502    0 -0.26605801688E+02 -0.33326718337E+01  0.43257784761E+02  0.50894118855E+02  0.25500000000E-02 0. -1.
<mgrwt>
<rscale>  0 0.54541008E+02</rscale>
<asrwt>0</asrwt>
<pdfrwt beam="2">  1        3 0.99370481E-03 0.54541008E+02</pdfrwt>
<pdfrwt beam="1">  1       -3 0.17713412E-01 0.54541008E+02</pdfrwt>
<totfact> 0.12774599E+05</totfact>
</mgrwt>
</event>
<event>
 4    1  0.7692565E-003  0.1190704E+03  0.7818608E-02  0.1244639E+00
         -3   -1    0    0  501    0 -0.00000000000E+00  0.00000000000E+00  0.53053409506E+02  0.53053505645E+02  0.10100000000E+00 0.  1.
          3   -1    0    0    0  501  0.00000000000E+00 -0.00000000000E+00 -0.66808717219E+02  0.66808793564E+02  0.10100000000E+00 0.  1.
          2    1    1    2    0  502  0.19278117029E+02  0.44789302874E+02 -0.41262002284E+02  0.63877071685E+02  0.25500000000E-02 0.  1.
         -2    1    1    2  502    0 -0.19278117029E+02 -0.44789302874E+02  0.27506694571E+02  0.55985227523E+02  0.25500000000E-02 0.  1.
<mgrwt>
<rscale>  0 0.11907041E+03</rscale>
<asrwt>0</asrwt>
<pdfrwt beam="2">  1        3 0.10278277E-01 0.11907041E+03</pdfrwt>
<pdfrwt beam="1">  1       -3 0.81620762E-02 0.11907041E+03</pdfrwt>
<totfact> 0.15909640E+04</totfact>
</mgrwt>
</event>
<event>
 4    1  0.7692565E-003  0.1093015E+03  0.7818608E-02  0.1261869E+00
          3   -1    0    0    0  501  0.00000000000E+00  0.00000000000E+00  0.81917862673E+02  0.81917924937E+02  0.10100000000E+00 0. -1.
         -3   -1    0    0  501    0 -0.00000000000E+00 -0.00000000000E+00 -0.36459579840E+02  0.36459719735E+02  0.10100000000E+00 0. -1.
          2    1    1    2    0  502 -0.48831721746E+01  0.28349192715E+02 -0.27596369119E+02  0.39863287536E+02  0.25500000000E-02 0.  1.
         -2    1    1    2  502    0  0.48831721746E+01 -0.28349192715E+02  0.73054651952E+02  0.78514357136E+02  0.25500000000E-02 0.  1.
<mgrwt>
<rscale>  0 0.10930147E+03</rscale>
<asrwt>0</asrwt>
<pdfrwt beam="1">  1        3 0.12602764E-01 0.10930147E+03</pdfrwt>
<pdfrwt beam="2">  1       -3 0.56091817E-02 0.10930147E+03</pdfrwt>
<totfact> 0.20270928E+04</totfact>
</mgrwt>
</event>
<event>
 4    1  0.7692565E-003  0.8015336E+02  0.7818608E-02  0.1328617E+00
          3   -1    0    0    0  501  0.00000000000E+00  0.00000000000E+00  0.13507927367E+01  0.13545634047E+01  0.10100000000E+00 0.  1.
         -3   -1    0    0  501    0 -0.00000000000E+00 -0.00000000000E+00 -0.11873744018E+04  0.11873744061E+04  0.10100000000E+00 0.  1.
          2    1    1    2    0  502 -0.30881433409E+02 -0.25147937746E+02 -0.52658970626E+03  0.52809355274E+03  0.25500000000E-02 0. -1.
         -2    1    1    2  502    0  0.30881433409E+02  0.25147937746E+02 -0.65943390279E+03  0.66063541675E+03  0.25500000000E-02 0. -1.
<mgrwt>
<rscale>  0 0.80153363E+02</rscale>
<asrwt>0</asrwt>
<pdfrwt beam="1">  1        3 0.20810560E-03 0.80153363E+02</pdfrwt>
<pdfrwt beam="2">  1       -3 0.18267244E+00 0.80153363E+02</pdfrwt>
<totfact> 0.11580187E+04</totfact>
</mgrwt>
</event>
<event>
 4    1  0.7692565E-003  0.4203552E+02  0.7818608E-02  0.1493745E+00
         -3   -1    0    0  501    0 -0.00000000000E+00  0.00000000000E+00  0.12782155528E+02  0.12782554555E+02  0.10100000000E+00 0.  1.
          3   -1    0    0    0  501  0.00000000000E+00 -0.00000000000E+00 -0.34558598438E+02  0.34558746028E+02  0.10100000000E+00 0.  1.
          2    1    1    2    0  502 -0.10589747013E+02 -0.17092741169E+02 -0.39969095928E+01  0.20500727676E+02  0.25500000000E-02 0.  1.
         -2    1    1    2  502    0  0.10589747013E+02  0.17092741169E+02 -0.17779533317E+02  0.26840572906E+02  0.25500000000E-02 0.  1.
<mgrwt>
<rscale>  0 0.42035524E+02</rscale>
<asrwt>0</asrwt>
<pdfrwt beam="2">  1        3 0.53167495E-02 0.42035524E+02</pdfrwt>
<pdfrwt beam="1">  1       -3 0.19665275E-02 0.42035524E+02</pdfrwt>
<totfact> 0.29354376E+05</totfact>
</mgrwt>
</event>
<event>
 4    1  0.7692565E-003  0.4909494E+02  0.7818608E-02  0.1450285E+00
          3   -1    0    0    0  501  0.00000000000E+00  0.00000000000E+00  0.42735117909E+03  0.42735119103E+03  0.10100000000E+00 0. -1.
         -3   -1    0    0  501    0 -0.00000000000E+00 -0.00000000000E+00 -0.14082103562E+01  0.14118276833E+01  0.10100000000E+00 0. -1.
          2    1    1    2    0  502 -0.19923962269E+02  0.97963698536E+01  0.12152321903E+03  0.12353471538E+03  0.25500000000E-02 0. -1.
         -2    1    1    2  502    0  0.19923962269E+02 -0.97963698536E+01  0.30441974970E+03  0.30522830333E+03  0.25500000000E-02 0. -1.
<mgrwt>
<rscale>  0 0.49094945E+02</rscale>
<asrwt>0</asrwt>
<pdfrwt beam="1">  1        3 0.65746623E-01 0.49094945E+02</pdfrwt>
<pdfrwt beam="2">  1       -3 0.21692689E-03 0.49094945E+02</pdfrwt>
<totfact> 0.97260207E+04</totfact>
</mgrwt>
</event>
<event>
 4    1  0.7692565E-003  0.5668388E+02  0.7818608E-02  0.1412299E+00
          3   -1    0    0    0  501  0.00000000000E+00  0.00000000000E+00  0.10490684567E+02  0.10491170749E+02  0.10100000000E+00 0.  1.
         -3   -1    0    0  501    0 -0.00000000000E+00 -0.00000000000E+00 -0.76567130281E+02  0.76567196896E+02  0.10100000000E+00 0.  1.
          2    1    1    2    0  502 -0.66515732953E+01  0.23419323063E+02 -0.55324438426E+02  0.60444202482E+02  0.25500000000E-02 0.  1.
         -2    1    1    2  502    0  0.66515732953E+01 -0.23419323063E+02 -0.10752007288E+02  0.26614165162E+02  0.25500000000E-02 0.  1.
<mgrwt>
<rscale>  0 0.56683884E+02</rscale>
<asrwt>0</asrwt>
<pdfrwt beam="1">  1        3 0.16139940E-02 0.56683884E+02</pdfrwt>
<pdfrwt beam="2">  1       -3 0.11779601E-01 0.56683884E+02</pdfrwt>
<totfact> 0.12520743E+05</totfact>
</mgrwt>
</event>
<event>
 4    1  0.7692565E-003  0.4367616E+02  0.7818608E-02  0.1482779E+00
          3   -1    0    0    0  501  0.00000000000E+00  0.00000000000E+00  0.86522157242E+01  0.86528052063E+01  0.10100000000E+00 0. -1.
         -3   -1    0    0  501    0 -0.00000000000E+00 -0.00000000000E+00 -0.55116517959E+02  0.55116610500E+02  0.10100000000E+00 0. -1.
          2    1    1    2    0  502 -0.19378978689E+02  0.10056206665E+02 -0.22532490674E+02  0.31374914342E+02  0.25500000000E-02 0. -1.
         -2    1    1    2  502    0  0.19378978689E+02 -0.10056206665E+02 -0.23931811561E+02  0.32394501364E+02  0.25500000000E-02 0. -1.
<mgrwt>
<rscale>  0 0.43676161E+02</rscale>
<asrwt>0</asrwt>
<pdfrwt beam="1">  1        3 0.13311626E-02 0.43676161E+02</pdfrwt>
<pdfrwt beam="2">  1       -3 0.84795166E-02 0.43676161E+02</pdfrwt>
<totfact> 0.25553824E+05</totfact>
</mgrwt>
</event>
<event>
 4    1  0.7692565E-003  0.7161534E+02  0.7818608E-02  0.1354685E+00
         -3   -1    0    0  501    0 -0.00000000000E+00  0.00000000000E+00  0.78044307376E+02  0.78044372730E+02  0.10100000000E+00 0. -1.
          3   -1    0    0    0  501  0.00000000000E+00 -0.00000000000E+00 -0.16428761751E+02  0.16429072209E+02  0.10100000000E+00 0. -1.
          2    1    1    2    0  502  0.27150625811E+02  0.23341331736E+02  0.31419206694E+02  0.47635499419E+02  0.25500000000E-02 0. -1.
         -2    1    1    2  502    0 -0.27150625811E+02 -0.23341331736E+02  0.30196338931E+02  0.46837945520E+02  0.25500000000E-02 0. -1.
<mgrwt>
<rscale>  0 0.71615336E+02</rscale>
<asrwt>0</asrwt>
<pdfrwt beam="2">  1        3 0.25275307E-02 0.71615336E+02</pdfrwt>
<pdfrwt beam="1">  1       -3 0.12006845E-01 0.71615336E+02</pdfrwt>
<totfact> 0.67036342E+04</totfact>
</mgrwt>
</event>
<event>
 4    1  0.7692565E-003  0.1153225E+03  0.7818608E-02  0.1251019E+00
         -3   -1    0    0  501    0 -0.00000000000E+00  0.00000000000E+00  0.20923538234E+03  0.20923540671E+03  0.10100000000E+00 0.  1.
          3   -1    0    0    0  501  0.00000000000E+00 -0.00000000000E+00 -0.15890151939E+02  0.15890472920E+02  0.10100000000E+00 0.  1.
          2    1    1    2    0  502 -0.52960246042E+02 -0.41367436791E+01  0.52894102651E+02  0.74964567703E+02  0.25500000000E-02 0.  1.
         -2    1    1    2  502    0  0.52960246042E+02  0.41367436791E+01  0.14045112775E+03  0.15016131193E+03  0.25500000000E-02 0.  1.
<mgrwt>
<rscale>  0 0.11532252E+03</rscale>
<asrwt>0</asrwt>
<pdfrwt beam="2">  1        3 0.24446656E-02 0.11532252E+03</pdfrwt>
<pdfrwt beam="1">  1       -3 0.32190081E-01 0.11532252E+03</pdfrwt>
<totfact> 0.14335620E+04</totfact>
</mgrwt>
</event>
<event>
 4    1  0.7692565E-003  0.4268071E+02  0.7818608E-02  0.1489363E+00
          3   -1    0    0    0  501  0.00000000000E+00  0.00000000000E+00  0.16719318021E+01  0.16749796867E+01  0.10100000000E+00 0. -1.
         -3   -1    0    0  501    0 -0.00000000000E+00 -0.00000000000E+00 -0.27213487955E+03  0.27213489830E+03  0.10100000000E+00 0. -1.
          2    1    1    2    0  502 -0.18638266655E+02  0.10378911737E+02 -0.13169435021E+03  0.13341105155E+03  0.25500000000E-02 0.  1.
         -2    1    1    2  502    0  0.18638266655E+02 -0.10378911737E+02 -0.13876859754E+03  0.14039882643E+03  0.25500000000E-02 0.  1.
<mgrwt>
<rscale>  0 0.42680712E+02</rscale>
<asrwt>0</asrwt>
<pdfrwt beam="1">  1        3 0.25745639E-03 0.42680712E+02</pdfrwt>
<pdfrwt beam="2">  1       -3 0.41867105E-01 0.42680712E+02</pdfrwt>
<totfact> 0.17517464E+05</totfact>
</mgrwt>
</event>
<event>
 4    1  0.7692565E-003  0.4954386E+02  0.7818608E-02  0.1447817E+00
         -3   -1    0    0  501    0 -0.00000000000E+00  0.00000000000E+00  0.59642702969E+02  0.59642788486E+02  0.10100000000E+00 0. -1.
          3   -1    0    0    0  501  0.00000000000E+00 -0.00000000000E+00 -0.10288402022E+02  0.10288897762E+02  0.10100000000E+00 0. -1.
          2    1    1    2    0  502  0.23560784746E+02 -0.61287986779E+00  0.13912382022E+02  0.27368605730E+02  0.25500000000E-02 0. -1.
         -2    1    1    2  502    0 -0.23560784746E+02  0.61287986779E+00  0.35441918925E+02  0.42563080518E+02  0.25500000000E-02 0. -1.
<mgrwt>
<rscale>  0 0.49543857E+02</rscale>
<asrwt>0</asrwt>
<pdfrwt beam="2">  1        3 0.15828758E-02 0.49543857E+02</pdfrwt>
<pdfrwt beam="1">  1       -3 0.91758454E-02 0.49543857E+02</pdfrwt>
<totfact> 0.18369346E+05</totfact>
</mgrwt>
</event>
<event>
 4    1  0.7692565E-003  0.1234272E+03  0.7818608E-02  0.1237548E+00
         -3   -1    0    0  501    0 -0.00000000000E+00  0.00000000000E+00  0.29155884932E+02  0.29156059871E+02  0.10100000000E+00 0.  1.
          3   -1    0    0    0  501  0.00000000000E+00 -0.00000000000E+00 -0.13062721211E+03  0.13062725116E+03  0.10100000000E+00 0.  1.
          2    1    1    2    0  502  0.24862318271E+02  0.31376575969E+01 -0.12374431043E+03  0.12625622415E+03  0.25500000000E-02 0. -1.
         -2    1    1    2  502    0 -0.24862318271E+02 -0.31376575969E+01  0.22272983255E+02  0.33527086879E+02  0.25500000000E-02 0. -1.
<mgrwt>
<rscale>  0 0.12342721E+03</rscale>
<asrwt>0</asrwt>
<pdfrwt beam="2">  1        3 0.20096510E-01 0.12342721E+03</pdfrwt>
<pdfrwt beam="1">  1       -3 0.44855373E-02 0.12342721E+03</pdfrwt>
<totfact> 0.13325245E+04</totfact>
</mgrwt>
</event>
<event>
 4    1  0.7692565E-003  0.5962147E+02  0.7818608E-02  0.1399427E+00
          3   -1    0    0    0  501  0.00000000000E+00  0.00000000000E+00  0.11261470701E+03  0.11261475230E+03  0.10100000000E+00 0. -1.
         -3   -1    0    0  501    0 -0.00000000000E+00 -0.00000000000E+00 -0.78909615877E+01  0.78916079336E+01  0.10100000000E+00 0. -1.
          2    1    1    2    0  502  0.14219865258E+02 -0.24260357939E+02  0.72361495882E+02  0.77633469767E+02  0.25500000000E-02 0. -1.
         -2    1    1    2  502    0 -0.14219865258E+02  0.24260357939E+02  0.32362249540E+02  0.42872890468E+02  0.25500000000E-02 0. -1.
<mgrwt>
<rscale>  0 0.59621473E+02</rscale>
<asrwt>0</asrwt>
<pdfrwt beam="1">  1        3 0.17325392E-01 0.59621473E+02</pdfrwt>
<pdfrwt beam="2">  1       -3 0.12140473E-02 0.59621473E+02</pdfrwt>
<totfact> 0.10200421E+05</totfact>
</mgrwt>
</event>
<event>
 4    1  0.7692565E-003  0.5298239E+02  0.7818608E-02  0.1429889E+00
         -3   -1    0    0  501    0 -0.00000000000E+00  0.00000000000E+00  0.55201924615E+01  0.55211163556E+01  0.10100000000E+00 0.  1.
          3   -1    0    0    0  501  0.00000000000E+00 -0.00000000000E+00 -0.12711865843E+03  0.12711869855E+03  0.10100000000E+00 0.  1.
          2    1    1    2    0  502 -0.17350233016E+02  0.12931615938E+02 -0.99056160738E+02  0.10139221007E+03  0.25500000000E-02 0.  1.
         -2    1    1    2  502    0  0.17350233016E+02 -0.12931615938E+02 -0.22542305227E+02  0.31247604834E+02  0.25500000000E-02 0.  1.
<mgrwt>
<rscale>  0 0.52982389E+02</rscale>
<asrwt>0</asrwt>
<pdfrwt beam="2">  1        3 0.19556789E-01 0.52982389E+02</pdfrwt>
<pdfrwt beam="1">  1       -3 0.84933463E-03 0.52982389E+02</pdfrwt>
<totfact> 0.13423258E+05</totfact>
</mgrwt>
</event>
<event>
 4    1  0.7692565E-003  0.5242826E+02  0.7818608E-02  0.1432668E+00
          3   -1    0    0    0  501  0.00000000000E+00  0.00000000000E+00  0.18321686753E+01  0.18349504230E+01  0.10100000000E+00 0.  1.
         -3   -1    0    0  501    0 -0.00000000000E+00 -0.00000000000E+00 -0.37477679726E+03  0.37477681087E+03  0.10100000000E+00 0.  1.
          2    1    1    2    0  502 -0.32871867181E+01 -0.21888032449E+02 -0.85574913485E+02  0.88390934974E+02  0.25500000000E-02 0.  1.
         -2    1    1    2  502    0  0.32871867181E+01  0.21888032449E+02 -0.28736971510E+03  0.28822082632E+03  0.25500000000E-02 0.  1.
<mgrwt>
<rscale>  0 0.52428263E+02</rscale>
<asrwt>0</asrwt>
<pdfrwt beam="1">  1        3 0.28208743E-03 0.52428263E+02</pdfrwt>
<pdfrwt beam="2">  1       -3 0.57658123E-01 0.52428263E+02</pdfrwt>
<totfact> 0.89264705E+04</totfact>
</mgrwt>
</event>
<event>
 4    1  0.7692565E-003  0.5018375E+02  0.7818608E-02  0.1444353E+00
         -3   -1    0    0  501    0 -0.00000000000E+00  0.00000000000E+00  0.10773384635E+03  0.10773389369E+03  0.10100000000E+00 0.  1.
          3   -1    0    0    0  501  0.00000000000E+00 -0.00000000000E+00 -0.58435677858E+01  0.58444405606E+01  0.10100000000E+00 0.  1.
          2    1    1    2    0  502  0.17943886995E+02 -0.16930156799E+02  0.40576348193E+02  0.47487401791E+02  0.25500000000E-02 0. -1.
         -2    1    1    2  502    0 -0.17943886995E+02  0.16930156799E+02  0.61313930373E+02  0.66090932464E+02  0.25500000000E-02 0. -1.
<mgrwt>
<rscale>  0 0.50183754E+02</rscale>
<asrwt>0</asrwt>
<pdfrwt beam="2">  1        3 0.89908115E-03 0.50183754E+02</pdfrwt>
<pdfrwt beam="1">  1       -3 0.16574510E-01 0.50183754E+02</pdfrwt>
<totfact> 0.16041712E+05</totfact>
</mgrwt>
</event>
<event>
 4    1  0.7692565E-003  0.7503071E+02  0.7818608E-02  0.1343776E+00
          3   -1    0    0    0  501  0.00000000000E+00  0.00000000000E+00  0.11018894630E+02  0.11019357507E+02  0.10100000000E+00 0. -1.
         -3   -1    0    0  501    0 -0.00000000000E+00 -0.00000000000E+00 -0.12772305693E+03  0.12772309687E+03  0.10100000000E+00 0. -1.
          2    1    1    2    0  502 -0.33369717437E+02 -0.76625941276E+01 -0.86707843822E+02  0.93222870462E+02  0.25500000000E-02 0.  1.
         -2    1    1    2  502    0  0.33369717437E+02  0.76625941276E+01 -0.29996318482E+02  0.45519583912E+02  0.25500000000E-02 0.  1.
<mgrwt>
<rscale>  0 0.75030708E+02</rscale>
<asrwt>0</asrwt>
<pdfrwt beam="1">  1        3 0.16952533E-02 0.75030708E+02</pdfrwt>
<pdfrwt beam="2">  1       -3 0.19649739E-01 0.75030708E+02</pdfrwt>
<totfact> 0.53941165E+04</totfact>
</mgrwt>
</event>
<event>
 4    1  0.7692565E-003  0.4902970E+02  0.7818608E-02  0.1450646E+00
          3   -1    0    0    0  501  0.00000000000E+00  0.00000000000E+00  0.16747689117E+01  0.16778116424E+01  0.10100000000E+00 0.  1.
         -3   -1    0    0  501    0 -0.00000000000E+00 -0.00000000000E+00 -0.35851347759E+03  0.35851349182E+03  0.10100000000E+00 0.  1.
          2    1    1    2    0  502  0.23625265424E+02 -0.46434997150E+01 -0.14454420218E+03  0.14653580329E+03  0.25500000000E-02 0.  1.
         -2    1    1    2  502    0 -0.23625265424E+02  0.46434997150E+01 -0.21229450650E+03  0.21365550017E+03  0.25500000000E-02 0.  1.
<mgrwt>
<rscale>  0 0.49029696E+02</rscale>
<asrwt>0</asrwt>
<pdfrwt beam="1">  1        3 0.25789219E-03 0.49029696E+02</pdfrwt>
<pdfrwt beam="2">  1       -3 0.55156094E-01 0.49029696E+02</pdfrwt>
<totfact> 0.10815601E+05</totfact>
</mgrwt>
</event>
<event>
 4    1  0.7692565E-003  0.6048544E+02  0.7818608E-02  0.1395806E+00
         -3   -1    0    0  501    0 -0.00000000000E+00  0.00000000000E+00  0.97165683996E+03  0.97165684520E+03  0.10100000000E+00 0.  1.
          3   -1    0    0    0  501  0.00000000000E+00 -0.00000000000E+00 -0.93858691071E+00  0.94400550261E+00  0.10100000000E+00 0.  1.
          2    1    1    2    0  502  0.23585567322E+02 -0.12236321210E+02  0.71760984359E+03  0.71810159043E+03  0.25500000000E-02 0. -1.
         -2    1    1    2  502    0 -0.23585567322E+02  0.12236321210E+02  0.25310840945E+03  0.25449926028E+03  0.25500000000E-02 0. -1.
<mgrwt>
<rscale>  0 0.60485436E+02</rscale>
<asrwt>0</asrwt>
<pdfrwt beam="2">  1        3 0.14481510E-03 0.60485436E+02</pdfrwt>
<pdfrwt beam="1">  1       -3 0.14948619E+00 0.60485436E+02</pdfrwt>
<totfact> 0.29794296E+04</totfact>
</mgrwt>
</event>
<event>
 4    1  0.7692565E-003  0.6684883E+02  0.7818608E-02  0.1371149E+00
          3   -1    0    0    0  501  0.00000000000E+00  0.00000000000E+00  0.17798456414E+02  0.17798742981E+02  0.10100000000E+00 0. -1.
         -3   -1    0    0  501    0 -0.00000000000E+00 -0.00000000000E+00 -0.62768180016E+02  0.62768261275E+02  0.10100000000E+00 0. -1.
          2    1    1    2    0  502  0.69683941305E+01  0.29446829224E+02 -0.39593660855E+02  0.49833043801E+02  0.25500000000E-02 0. -1.
         -2    1    1    2  502    0 -0.69683941305E+01 -0.29446829224E+02 -0.53760627473E+01  0.30733960455E+02  0.25500000000E-02 0. -1.
<mgrwt>
<rscale>  0 0.66848830E+02</rscale>
<asrwt>0</asrwt>
<pdfrwt beam="1">  1        3 0.27382524E-02 0.66848830E+02</pdfrwt>
<pdfrwt beam="2">  1       -3 0.96566713E-02 0.66848830E+02</pdfrwt>
<totfact> 0.82944385E+04</totfact>
</mgrwt>
</event>
<event>
 4    1  0.7692565E-003  0.1003581E+03  0.7818608E-02  0.1279545E+00
         -3   -1    0    0  501    0 -0.00000000000E+00  0.00000000000E+00  0.63281455130E+02  0.63281535731E+02  0.10100000000E+00 0.  1.
          3   -1    0    0    0  501  0.00000000000E+00 -0.00000000000E+00 -0.39789322129E+02  0.39789450316E+02  0.10100000000E+00 0.  1.
          2    1    1    2    0  502  0.44546370290E+02 -0.22873709441E+02  0.84417566904E+01  0.50782368517E+02  0.25500000000E-02 0.  1.
         -2    1    1    2  502    0 -0.44546370290E+02  0.22873709441E+02  0.15050376311E+02  0.52288617530E+02  0.25500000000E-02 0.  1.
<mgrwt>
<rscale>  0 0.10035810E+03</rscale>
<asrwt>0</asrwt>
<pdfrwt beam="2">  1        3 0.61214503E-02 0.10035810E+03</pdfrwt>
<pdfrwt beam="1">  1       -3 0.97356244E-02 0.10035810E+03</pdfrwt>
<totfact> 0.26484671E+04</totfact>
</mgrwt>
</event>
<event>
 4    1  0.7692565E-003  0.5428101E+02  0.7818608E-02  0.1423530E+00
         -3   -1    0    0  501    0 -0.00000000000E+00  0.00000000000E+00  0.40171773120E+02  0.40171900087E+02  0.10100000000E+00 0. -1.
          3   -1    0    0    0  501  0.00000000000E+00 -0.00000000000E+00 -0.18336140330E+02  0.18336418495E+02  0.10100000000E+00 0. -1.
          2    1    1    2    0  502  0.24602123354E+02 -0.20069707591E+01 -0.12442944359E+01  0.24715191286E+02  0.25500000000E-02 0.  1.
         -2    1    1    2  502    0 -0.24602123354E+02  0.20069707591E+01  0.23079927225E+02  0.33793127295E+02  0.25500000000E-02 0.  1.
<mgrwt>
<rscale>  0 0.54281014E+02</rscale>
<asrwt>0</asrwt>
<pdfrwt beam="2">  1        3 0.28209759E-02 0.54281014E+02</pdfrwt>
<pdfrwt beam="1">  1       -3 0.61803039E-02 0.54281014E+02</pdfrwt>
<totfact> 0.15004865E+05</totfact>
</mgrwt>
</event>
<event>
 4    1  0.7692565E-003  0.5512632E+02  0.7818608E-02  0.1419502E+00
         -3   -1    0    0  501    0 -0.00000000000E+00  0.00000000000E+00  0.10331086218E+03  0.10331091155E+03  0.10100000000E+00 0.  1.
          3   -1    0    0    0  501  0.00000000000E+00 -0.00000000000E+00 -0.73534060306E+01  0.73540996220E+01  0.10100000000E+00 0.  1.
          2    1    1    2    0  502  0.26843956838E+02 -0.62470294616E+01  0.47330015441E+02  0.54770007887E+02  0.25500000000E-02 0.  1.
         -2    1    1    2  502    0 -0.26843956838E+02  0.62470294616E+01  0.48627440705E+02  0.55895003282E+02  0.25500000000E-02 0.  1.
<mgrwt>
<rscale>  0 0.55126321E+02</rscale>
<asrwt>0</asrwt>
<pdfrwt beam="2">  1        3 0.11313504E-02 0.55126321E+02</pdfrwt>
<pdfrwt beam="1">  1       -3 0.15894035E-01 0.55126321E+02</pdfrwt>
<totfact> 0.12735600E+05</totfact>
</mgrwt>
</event>
<event>
 4    1  0.7692565E-003  0.6761086E+02  0.7818608E-02  0.1368411E+00
         -3   -1    0    0  501    0 -0.00000000000E+00  0.00000000000E+00  0.36219844231E+01  0.36233923554E+01  0.10100000000E+00 0.  1.
          3   -1    0    0    0  501  0.00000000000E+00 -0.00000000000E+00 -0.31545683162E+03  0.31545684779E+03  0.10100000000E+00 0.  1.
          2    1    1    2    0  502  0.12011925505E+01 -0.24122480656E+02 -0.26754509851E+03  0.26863305209E+03  0.25500000000E-02 0.  1.
         -2    1    1    2  502    0 -0.12011925505E+01  0.24122480656E+02 -0.44289748694E+02  0.50447188053E+02  0.25500000000E-02 0.  1.
<mgrwt>
<rscale>  0 0.67610855E+02</rscale>
<asrwt>0</asrwt>
<pdfrwt beam="2">  1        3 0.48531908E-01 0.67610855E+02</pdfrwt>
<pdfrwt beam="1">  1       -3 0.55733817E-03 0.67610855E+02</pdfrwt>
<totfact> 0.51221826E+04</totfact>
</mgrwt>
</event>
<event>
 4    1  0.7692565E-003  0.4625367E+02  0.7818608E-02  0.1466664E+00
          3   -1    0    0    0  501  0.00000000000E+00  0.00000000000E+00  0.59674065349E+01  0.59682612001E+01  0.10100000000E+00 0.  1.
         -3   -1    0    0  501    0 -0.00000000000E+00 -0.00000000000E+00 -0.89621315489E+02  0.89621372401E+02  0.10100000000E+00 0.  1.
          2    1    1    2    0  502 -0.22447336244E+02  0.52729105165E+01 -0.45502956426E+02  0.51011817649E+02  0.25500000000E-02 0. -1.
         -2    1    1    2  502    0  0.22447336244E+02 -0.52729105165E+01 -0.38150952528E+02  0.44577815953E+02  0.25500000000E-02 0. -1.
<mgrwt>
<rscale>  0 0.46253665E+02</rscale>
<asrwt>0</asrwt>
<pdfrwt beam="1">  1        3 0.91813273E-03 0.46253665E+02</pdfrwt>
<pdfrwt beam="2">  1       -3 0.13787964E-01 0.46253665E+02</pdfrwt>
<totfact> 0.20488598E+05</totfact>
</mgrwt>
</event>
<event>
 4    1  0.7692565E-003  0.5201257E+02  0.7818608E-02  0.1434779E+00
         -3   -1    0    0  501    0 -0.00000000000E+00  0.00000000000E+00  0.66376474201E+02  0.66376551043E+02  0.10100000000E+00 0.  1.
          3   -1    0    0    0  501  0.00000000000E+00 -0.00000000000E+00 -0.10188923305E+02  0.10189423885E+02  0.10100000000E+00 0.  1.
          2    1    1    2    0  502 -0.18740393810E+02 -0.16315991319E+02  0.39392591785E+02  0.46574566310E+02  0.25500000000E-02 0. -1.
         -2    1    1    2  502    0  0.18740393810E+02  0.16315991319E+02  0.16794959111E+02  0.29991408618E+02  0.25500000000E-02 0. -1.
<mgrwt>
<rscale>  0 0.52012572E+02</rscale>
<asrwt>0</asrwt>
<pdfrwt beam="2">  1        3 0.15675711E-02 0.52012572E+02</pdfrwt>
<pdfrwt beam="1">  1       -3 0.10211810E-01 0.52012572E+02</pdfrwt>
<totfact> 0.15985277E+05</totfact>
</mgrwt>
</event>
<event>
 4    1  0.7692565E-003  0.4539479E+03  0.7818608E-02  0.1026551E+00
         -3   -1    0    0  501    0 -0.00000000000E+00  0.00000000000E+00  0.11413750794E+03  0.11413755263E+03  0.10100000000E+00 0. -1.
          3   -1    0    0    0  501  0.00000000000E+00 -0.00000000000E+00 -0.45136046117E+03  0.45136047247E+03  0.10100000000E+00 0. -1.
          2    1    1    2    0  502  0.14270443665E+03 -0.16149859022E+03 -0.25731978828E+03  0.33564836411E+03  0.25500000000E-02 0. -1.
         -2    1    1    2  502    0 -0.14270443665E+03  0.16149859022E+03 -0.79903164953E+02  0.22984966099E+03  0.25500000000E-02 0. -1.
<mgrwt>
<rscale>  0 0.45394790E+03</rscale>
<asrwt>0</asrwt>
<pdfrwt beam="2">  1        3 0.69440075E-01 0.45394790E+03</pdfrwt>
<pdfrwt beam="1">  1       -3 0.17559621E-01 0.45394790E+03</pdfrwt>
<totfact> 0.14921956E+02</totfact>
</mgrwt>
</event>
<event>
 4    1  0.7692565E-003  0.4844825E+02  0.7818608E-02  0.1453896E+00
          3   -1    0    0    0  501  0.00000000000E+00  0.00000000000E+00  0.36259133269E+01  0.36273197343E+01  0.10100000000E+00 0. -1.
         -3   -1    0    0  501    0 -0.00000000000E+00 -0.00000000000E+00 -0.16180458273E+03  0.16180461425E+03  0.10100000000E+00 0. -1.
          2    1    1    2    0  502 -0.22910704158E+02  0.27886703558E+01 -0.53966689978E+02  0.58694809660E+02  0.25500000000E-02 0. -1.
         -2    1    1    2  502    0  0.22910704158E+02 -0.27886703558E+01 -0.10421197942E+03  0.10673712433E+03  0.25500000000E-02 0. -1.
<mgrwt>
<rscale>  0 0.48448254E+02</rscale>
<asrwt>0</asrwt>
<pdfrwt beam="1">  1        3 0.55794356E-03 0.48448254E+02</pdfrwt>
<pdfrwt beam="2">  1       -3 0.24893118E-01 0.48448254E+02</pdfrwt>
<totfact> 0.15690750E+05</totfact>
</mgrwt>
</event>
<event>
 4    1  0.7692565E-003  0.5110722E+02  0.7818608E-02  0.1439459E+00
          3   -1    0    0    0  501  0.00000000000E+00  0.00000000000E+00  0.22071263746E+02  0.22071494837E+02  0.10100000000E+00 0. -1.
         -3   -1    0    0  501    0 -0.00000000000E+00 -0.00000000000E+00 -0.29584922957E+02  0.29585095358E+02  0.10100000000E+00 0. -1.
          2    1    1    2    0  502 -0.23867707765E+02 -0.43303571660E+01  0.43649411165E+01  0.24646950817E+02  0.25500000000E-02 0. -1.
         -2    1    1    2  502    0  0.23867707765E+02  0.43303571660E+01 -0.11878600328E+02  0.27009639379E+02  0.25500000000E-02 0. -1.
<mgrwt>
<rscale>  0 0.51107223E+02</rscale>
<asrwt>0</asrwt>
<pdfrwt beam="1">  1        3 0.33956101E-02 0.51107223E+02</pdfrwt>
<pdfrwt beam="2">  1       -3 0.45515577E-02 0.51107223E+02</pdfrwt>
<totfact> 0.17807691E+05</totfact>
</mgrwt>
</event>
<event>
 4    1  0.7692565E-003  0.4415071E+02  0.7818608E-02  0.1479714E+00
         -3   -1    0    0  501    0 -0.00000000000E+00  0.00000000000E+00  0.15154706690E+01  0.15188325611E+01  0.10100000000E+00 0.  1.
          3   -1    0    0    0  501  0.00000000000E+00 -0.00000000000E+00 -0.32120474364E+03  0.32120475952E+03  0.10100000000E+00 0.  1.
          2    1    1    2    0  502  0.20937476362E+02 -0.60109743092E+01 -0.18600813993E+03  0.18727930440E+03  0.25500000000E-02 0. -1.
         -2    1    1    2  502    0 -0.20937476362E+02  0.60109743092E+01 -0.13368113304E+03  0.13544428768E+03  0.25500000000E-02 0. -1.
<mgrwt>
<rscale>  0 0.44150715E+02</rscale>
<asrwt>0</asrwt>
<pdfrwt beam="2">  1        3 0.49416320E-01 0.44150715E+02</pdfrwt>
<pdfrwt beam="1">  1       -3 0.23340942E-03 0.44150715E+02</pdfrwt>
<totfact> 0.14863508E+05</totfact>
</mgrwt>
</event>
<event>
 4    1  0.7692565E-003  0.5692371E+02  0.7818608E-02  0.1411215E+00
         -3   -1    0    0  501    0 -0.00000000000E+00  0.00000000000E+00  0.17321622297E+02  0.17321916753E+02  0.10100000000E+00 0.  1.
          3   -1    0    0    0  501  0.00000000000E+00 -0.00000000000E+00 -0.46766070585E+02  0.46766179649E+02  0.10100000000E+00 0.  1.
          2    1    1    2    0  502  0.17211779748E+02  0.20210570770E+02 -0.26278863293E+02  0.37353596821E+02  0.25500000000E-02 0.  1.
         -2    1    1    2  502    0 -0.17211779748E+02 -0.20210570770E+02 -0.31655849948E+01  0.26734499581E+02  0.25500000000E-02 0.  1.
<mgrwt>
<rscale>  0 0.56923708E+02</rscale>
<asrwt>0</asrwt>
<pdfrwt beam="2">  1        3 0.71948111E-02 0.56923708E+02</pdfrwt>
<pdfrwt beam="1">  1       -3 0.26648960E-02 0.56923708E+02</pdfrwt>
<totfact> 0.13096267E+05</totfact>
</mgrwt>
</event>
<event>
 4    1  0.7692565E-003  0.4705320E+02  0.7818608E-02  0.1461916E+00
          3   -1    0    0    0  501  0.00000000000E+00  0.00000000000E+00  0.32622658366E+02  0.32622814714E+02  0.10100000000E+00 0.  1.
         -3   -1    0    0  501    0 -0.00000000000E+00 -0.00000000000E+00 -0.16966414602E+02  0.16966715223E+02  0.10100000000E+00 0.  1.
          2    1    1    2    0  502 -0.48567980496E+01  0.21085686503E+02 -0.19058740195E+01  0.21721579705E+02  0.25500000000E-02 0.  1.
         -2    1    1    2  502    0  0.48567980496E+01 -0.21085686503E+02  0.17562117783E+02  0.27867950232E+02  0.25500000000E-02 0.  1.
<mgrwt>
<rscale>  0 0.47053199E+02</rscale>
<asrwt>0</asrwt>
<pdfrwt beam="1">  1        3 0.50189056E-02 0.47053199E+02</pdfrwt>
<pdfrwt beam="2">  1       -3 0.26102528E-02 0.47053199E+02</pdfrwt>
<totfact> 0.22045963E+05</totfact>
</mgrwt>
</event>
<event>
 4    1  0.7692565E-003  0.5417366E+02  0.7818608E-02  0.1424048E+00
         -3   -1    0    0  501    0 -0.00000000000E+00  0.00000000000E+00  0.37391339009E+01  0.37404977381E+01  0.10100000000E+00 0. -1.
          3   -1    0    0    0  501  0.00000000000E+00 -0.00000000000E+00 -0.19618378927E+03  0.19618381527E+03  0.10100000000E+00 0. -1.
          2    1    1    2    0  502  0.19385169603E+02 -0.16572498797E+02 -0.12989718062E+03  0.13237715081E+03  0.25500000000E-02 0.  1.
         -2    1    1    2  502    0 -0.19385169603E+02  0.16572498797E+02 -0.62547474753E+02  0.67547162201E+02  0.25500000000E-02 0.  1.
<mgrwt>
<rscale>  0 0.54173661E+02</rscale>
<asrwt>0</asrwt>
<pdfrwt beam="2">  1        3 0.30182220E-01 0.54173661E+02</pdfrwt>
<pdfrwt beam="1">  1       -3 0.57535843E-03 0.54173661E+02</pdfrwt>
<totfact> 0.11090272E+05</totfact>
</mgrwt>
</event>
<event>
 4    1  0.7692565E-003  0.4772016E+02  0.7818608E-02  0.1458041E+00
         -3   -1    0    0  501    0 -0.00000000000E+00  0.00000000000E+00  0.10841887903E+02  0.10842358337E+02  0.10100000000E+00 0.  1.
          3   -1    0    0    0  501  0.00000000000E+00 -0.00000000000E+00 -0.52507959741E+02  0.52508056879E+02  0.10100000000E+00 0.  1.
          2    1    1    2    0  502 -0.16246202406E+02  0.16285104900E+02 -0.29245874340E+02  0.37208398335E+02  0.25500000000E-02 0. -1.
         -2    1    1    2  502    0  0.16246202406E+02 -0.16285104900E+02 -0.12420197498E+02  0.26142016881E+02  0.25500000000E-02 0. -1.
<mgrwt>
<rscale>  0 0.47720159E+02</rscale>
<asrwt>0</asrwt>
<pdfrwt beam="2">  1        3 0.80781912E-02 0.47720159E+02</pdfrwt>
<pdfrwt beam="1">  1       -3 0.16680264E-02 0.47720159E+02</pdfrwt>
<totfact> 0.20520130E+05</totfact>
</mgrwt>
</event>
<event>
 4    1  0.7692565E-003  0.4641187E+02  0.7818608E-02  0.1465715E+00
         -3   -1    0    0  501    0 -0.00000000000E+00  0.00000000000E+00  0.56267072186E+03  0.56267073093E+03  0.10100000000E+00 0. -1.
          3   -1    0    0    0  501  0.00000000000E+00 -0.00000000000E+00 -0.95439638418E+00  0.95972572026E+00  0.10100000000E+00 0. -1.
          2    1    1    2    0  502  0.22521879966E+02  0.47375357366E+01  0.24475930137E+03  0.24583896139E+03  0.25500000000E-02 0. -1.
         -2    1    1    2  502    0 -0.22521879966E+02 -0.47375357366E+01  0.31695702411E+03  0.31779149526E+03  0.25500000000E-02 0. -1.
<mgrwt>
<rscale>  0 0.46411866E+02</rscale>
<asrwt>0</asrwt>
<pdfrwt beam="2">  1        3 0.14724111E-03 0.46411866E+02</pdfrwt>
<pdfrwt beam="1">  1       -3 0.86564992E-01 0.46411866E+02</pdfrwt>
<totfact> 0.92578786E+04</totfact>
</mgrwt>
</event>
<event>
 4    1  0.7692565E-003  0.6079723E+02  0.7818608E-02  0.1394516E+00
         -3   -1    0    0  501    0 -0.00000000000E+00  0.00000000000E+00  0.18669541745E+01  0.18696841684E+01  0.10100000000E+00 0.  1.
          3   -1    0    0    0  501  0.00000000000E+00 -0.00000000000E+00 -0.49459993384E+03  0.49459994415E+03  0.10100000000E+00 0.  1.
          2    1    1    2    0  502 -0.85018935117E+01  0.28690914184E+02 -0.20267660932E+03  0.20487376289E+03  0.25500000000E-02 0.  1.
         -2    1    1    2  502    0  0.85018935117E+01 -0.28690914184E+02 -0.29005637034E+03  0.29159586543E+03  0.25500000000E-02 0.  1.
<mgrwt>
<rscale>  0 0.60797225E+02</rscale>
<asrwt>0</asrwt>
<pdfrwt beam="2">  1        3 0.76092404E-01 0.60797225E+02</pdfrwt>
<pdfrwt beam="1">  1       -3 0.28743491E-03 0.60797225E+02</pdfrwt>
<totfact> 0.51708774E+04</totfact>
</mgrwt>
</event>
<event>
 4    1  0.7692565E-003  0.4709513E+02  0.7818608E-02  0.1461670E+00
         -3   -1    0    0  501    0 -0.00000000000E+00  0.00000000000E+00  0.71283512696E+01  0.71290667568E+01  0.10100000000E+00 0. -1.
          3   -1    0    0    0  501  0.00000000000E+00 -0.00000000000E+00 -0.77781623645E+02  0.77781689220E+02  0.10100000000E+00 0. -1.
          2    1    1    2    0  502 -0.19742632744E+02  0.12780555828E+02 -0.37439823783E+02  0.44213737304E+02  0.25500000000E-02 0. -1.
         -2    1    1    2  502    0  0.19742632744E+02 -0.12780555828E+02 -0.33213448592E+02  0.40697018673E+02  0.25500000000E-02 0. -1.
<mgrwt>
<rscale>  0 0.47095133E+02</rscale>
<asrwt>0</asrwt>
<pdfrwt beam="2">  1        3 0.11966463E-01 0.47095133E+02</pdfrwt>
<pdfrwt beam="1">  1       -3 0.10967296E-02 0.47095133E+02</pdfrwt>
<totfact> 0.20093577E+05</totfact>
</mgrwt>
</event>
<event>
 4    1  0.7692565E-003  0.4586659E+02  0.7818608E-02  0.1469003E+00
         -3   -1    0    0  501    0 -0.00000000000E+00  0.00000000000E+00  0.11455380872E+03  0.11455385324E+03  0.10100000000E+00 0. -1.
          3   -1    0    0    0  501  0.00000000000E+00 -0.00000000000E+00 -0.45905694870E+01  0.45916804348E+01  0.10100000000E+00 0. -1.
          2    1    1    2    0  502  0.12558199696E+02  0.18775317042E+02  0.44683916013E+02  0.50068685487E+02  0.25500000000E-02 0.  1.
         -2    1    1    2  502    0 -0.12558199696E+02 -0.18775317042E+02  0.65279323217E+02  0.69076848189E+02  0.25500000000E-02 0.  1.
<mgrwt>
<rscale>  0 0.45866591E+02</rscale>
<asrwt>0</asrwt>
<pdfrwt beam="2">  1        3 0.70633044E-03 0.45866591E+02</pdfrwt>
<pdfrwt beam="1">  1       -3 0.17623749E-01 0.45866591E+02</pdfrwt>
<totfact> 0.19822249E+05</totfact>
</mgrwt>
</event>
<event>
 4    1  0.7692565E-003  0.5135448E+02  0.7818608E-02  0.1438170E+00
          3   -1    0    0    0  501  0.00000000000E+00  0.00000000000E+00  0.51992692966E+03  0.51992693947E+03  0.10100000000E+00 0.  1.
         -3   -1    0    0  501    0 -0.00000000000E+00 -0.00000000000E+00 -0.12660817121E+01  0.12701038941E+01  0.10100000000E+00 0.  1.
          2    1    1    2    0  502  0.17515193282E+02 -0.11339662683E+02  0.41121016700E+03  0.41173920314E+03  0.25500000000E-02 0.  1.
         -2    1    1    2  502    0 -0.17515193282E+02  0.11339662683E+02  0.10745068094E+03  0.10945784022E+03  0.25500000000E-02 0.  1.
<mgrwt>
<rscale>  0 0.51354482E+02</rscale>
<asrwt>0</asrwt>
<pdfrwt beam="1">  1        3 0.79989064E-01 0.51354482E+02</pdfrwt>
<pdfrwt beam="2">  1       -3 0.19509197E-03 0.51354482E+02</pdfrwt>
<totfact> 0.76415024E+04</totfact>
</mgrwt>
</event>
<event>
 4    1  0.7692565E-003  0.4966594E+02  0.7818608E-02  0.1447152E+00
         -3   -1    0    0  501    0 -0.00000000000E+00  0.00000000000E+00  0.11532155056E+02  0.11532597333E+02  0.10100000000E+00 0.  1.
          3   -1    0    0    0  501  0.00000000000E+00 -0.00000000000E+00 -0.53472997986E+02  0.53473093371E+02  0.10100000000E+00 0.  1.
          2    1    1    2    0  502  0.18570245428E+02 -0.15699185403E+02 -0.27561396558E+02  0.36755258458E+02  0.25500000000E-02 0. -1.
         -2    1    1    2  502    0 -0.18570245428E+02  0.15699185403E+02 -0.14379446372E+02  0.28250432246E+02  0.25500000000E-02 0. -1.
<mgrwt>
<rscale>  0 0.49665939E+02</rscale>
<asrwt>0</asrwt>
<pdfrwt beam="2">  1        3 0.82266563E-02 0.49665939E+02</pdfrwt>
<pdfrwt beam="1">  1       -3 0.17742191E-02 0.49665939E+02</pdfrwt>
<totfact> 0.18483825E+05</totfact>
</mgrwt>
</event>
<event>
 4    1  0.7692565E-003  0.1125383E+03  0.7818608E-02  0.1255940E+00
         -3   -1    0    0  501    0 -0.00000000000E+00  0.00000000000E+00  0.18235165929E+03  0.18235168726E+03  0.10100000000E+00 0.  1.
          3   -1    0    0    0  501  0.00000000000E+00 -0.00000000000E+00 -0.17363068621E+02  0.17363362374E+02  0.10100000000E+00 0.  1.
          2    1    1    2    0  502 -0.68365980671E+01  0.46486150046E+02  0.13743699714E+03  0.14524678794E+03  0.25500000000E-02 0.  1.
         -2    1    1    2  502    0  0.68365980671E+01 -0.46486150046E+02  0.27551593535E+02  0.54468261695E+02  0.25500000000E-02 0.  1.
<mgrwt>
<rscale>  0 0.11253829E+03</rscale>
<asrwt>0</asrwt>
<pdfrwt beam="2">  1        3 0.26712662E-02 0.11253829E+03</pdfrwt>
<pdfrwt beam="1">  1       -3 0.28054125E-01 0.11253829E+03</pdfrwt>
<totfact> 0.16037247E+04</totfact>
</mgrwt>
</event>
<event>
 4    1  0.7692565E-003  0.8507815E+02  0.7818608E-02  0.1315228E+00
         -3   -1    0    0  501    0 -0.00000000000E+00  0.00000000000E+00  0.12053702258E+03  0.12053706489E+03  0.10100000000E+00 0. -1.
          3   -1    0    0    0  501  0.00000000000E+00 -0.00000000000E+00 -0.15012375404E+02  0.15012715154E+02  0.10100000000E+00 0. -1.
          2    1    1    2    0  502 -0.28685920305E+02  0.57374421900E+01  0.35580063716E+01  0.29469640012E+02  0.25500000000E-02 0. -1.
         -2    1    1    2  502    0  0.28685920305E+02 -0.57374421900E+01  0.10196664080E+03  0.10608014003E+03  0.25500000000E-02 0. -1.
<mgrwt>
<rscale>  0 0.85078151E+02</rscale>
<asrwt>0</asrwt>
<pdfrwt beam="2">  1        3 0.23096257E-02 0.85078151E+02</pdfrwt>
<pdfrwt beam="1">  1       -3 0.18544186E-01 0.85078151E+02</pdfrwt>
<totfact> 0.38829210E+04</totfact>
</mgrwt>
</event>
<event>
 4    1  0.7692565E-003  0.4085594E+02  0.7818608E-02  0.1502006E+00
          3   -1    0    0    0  501  0.00000000000E+00  0.00000000000E+00  0.39742829783E+01  0.39755661473E+01  0.10100000000E+00 0. -1.
         -3   -1    0    0  501    0 -0.00000000000E+00 -0.00000000000E+00 -0.10498228590E+03  0.10498233448E+03  0.10100000000E+00 0. -1.
          2    1    1    2    0  502  0.17707627050E+02 -0.97583419217E+01 -0.58286800073E+02  0.61693892421E+02  0.25500000000E-02 0.  1.
         -2    1    1    2  502    0 -0.17707627050E+02  0.97583419217E+01 -0.42721202848E+02  0.47264008210E+02  0.25500000000E-02 0.  1.
<mgrwt>
<rscale>  0 0.40855935E+02</rscale>
<asrwt>0</asrwt>
<pdfrwt beam="1">  1        3 0.61153067E-03 0.40855935E+02</pdfrwt>
<pdfrwt beam="2">  1       -3 0.16151221E-01 0.40855935E+02</pdfrwt>
<totfact> 0.26944325E+05</totfact>
</mgrwt>
</event>
<event>
 4    1  0.7692565E-003  0.6134775E+02  0.7818608E-02  0.1392261E+00
         -3   -1    0    0  501    0 -0.00000000000E+00  0.00000000000E+00  0.16550269504E+03  0.16550272586E+03  0.10100000000E+00 0. -1.
          3   -1    0    0    0  501  0.00000000000E+00 -0.00000000000E+00 -0.56845431096E+01  0.56854402965E+01  0.10100000000E+00 0. -1.
          2    1    1    2    0  502  0.32480310539E+01 -0.20165505624E+02  0.14376658111E+03  0.14521028604E+03  0.25500000000E-02 0.  1.
         -2    1    1    2  502    0 -0.32480310539E+01  0.20165505624E+02  0.16051570826E+02  0.25977880115E+02  0.25500000000E-02 0.  1.
<mgrwt>
<rscale>  0 0.61347751E+02</rscale>
<asrwt>0</asrwt>
<pdfrwt beam="2">  1        3 0.87461653E-03 0.61347751E+02</pdfrwt>
<pdfrwt beam="1">  1       -3 0.25462023E-01 0.61347751E+02</pdfrwt>
<totfact> 0.85423471E+04</totfact>
</mgrwt>
</event>
<event>
 4    1  0.7692565E-003  0.4808383E+02  0.7818608E-02  0.1455960E+00
         -3   -1    0    0  501    0 -0.00000000000E+00  0.00000000000E+00  0.50494502744E+02  0.50494603755E+02  0.10100000000E+00 0.  1.
          3   -1    0    0    0  501  0.00000000000E+00 -0.00000000000E+00 -0.11446728274E+02  0.11447173851E+02  0.10100000000E+00 0.  1.
          2    1    1    2    0  502  0.20514306769E+02 -0.41397236150E+01  0.42794945387E+01  0.21360902927E+02  0.25500000000E-02 0. -1.
         -2    1    1    2  502    0 -0.20514306769E+02  0.41397236150E+01  0.34768279932E+02  0.40580874679E+02  0.25500000000E-02 0. -1.
<mgrwt>
<rscale>  0 0.48083834E+02</rscale>
<asrwt>0</asrwt>
<pdfrwt beam="2">  1        3 0.17610772E-02 0.48083834E+02</pdfrwt>
<pdfrwt beam="1">  1       -3 0.77684271E-02 0.48083834E+02</pdfrwt>
<totfact> 0.20208959E+05</totfact>
</mgrwt>
</event>
<event>
 4    1  0.7692565E-003  0.5875724E+02  0.7818608E-02  0.1403122E+00
          3   -1    0    0    0  501  0.00000000000E+00  0.00000000000E+00  0.42497891043E+02  0.42498011061E+02  0.10100000000E+00 0. -1.
         -3   -1    0    0  501    0 -0.00000000000E+00 -0.00000000000E+00 -0.20309044727E+02  0.20309295870E+02  0.10100000000E+00 0. -1.
          2    1    1    2    0  502  0.69218818011E+01  0.19768561766E+02 -0.10926412784E+02  0.23624034050E+02  0.25500000000E-02 0.  1.
         -2    1    1    2  502    0 -0.69218818011E+01 -0.19768561766E+02  0.33115259099E+02  0.39183272881E+02  0.25500000000E-02 0.  1.
<mgrwt>
<rscale>  0 0.58757237E+02</rscale>
<asrwt>0</asrwt>
<pdfrwt beam="1">  1        3 0.65381655E-02 0.58757237E+02</pdfrwt>
<pdfrwt beam="2">  1       -3 0.31244970E-02 0.58757237E+02</pdfrwt>
<totfact> 0.12109468E+05</totfact>
</mgrwt>
</event>
<event>
 4    1  0.7692565E-003  0.4500949E+02  0.7818608E-02  0.1474282E+00
          3   -1    0    0    0  501  0.00000000000E+00  0.00000000000E+00  0.12872628662E+02  0.12873024884E+02  0.10100000000E+00 0.  1.
         -3   -1    0    0  501    0 -0.00000000000E+00 -0.00000000000E+00 -0.39343151058E+02  0.39343280699E+02  0.10100000000E+00 0.  1.
          2    1    1    2    0  502 -0.19112147514E+02  0.10598906786E+02 -0.70037452494E+01  0.22949149476E+02  0.25500000000E-02 0.  1.
         -2    1    1    2  502    0  0.19112147514E+02 -0.10598906786E+02 -0.19466777147E+02  0.29267156108E+02  0.25500000000E-02 0.  1.
<mgrwt>
<rscale>  0 0.45009488E+02</rscale>
<asrwt>0</asrwt>
<pdfrwt beam="1">  1        3 0.19804449E-02 0.45009488E+02</pdfrwt>
<pdfrwt beam="2">  1       -3 0.60528329E-02 0.45009488E+02</pdfrwt>
<totfact> 0.24456862E+05</totfact>
</mgrwt>
</event>
<event>
 4    1  0.7692565E-003  0.4309092E+02  0.7818608E-02  0.1486624E+00
         -3   -1    0    0  501    0 -0.00000000000E+00  0.00000000000E+00  0.14534470693E+02  0.14534821613E+02  0.10100000000E+00 0. -1.
          3   -1    0    0    0  501  0.00000000000E+00 -0.00000000000E+00 -0.31937524745E+02  0.31937684447E+02  0.10100000000E+00 0. -1.
          2    1    1    2    0  502 -0.27946483736E+00  0.21346849255E+02 -0.11834828392E+02  0.24409613747E+02  0.25500000000E-02 0.  1.
         -2    1    1    2  502    0  0.27946483736E+00 -0.21346849255E+02 -0.55682256605E+01  0.22062892313E+02  0.25500000000E-02 0.  1.
<mgrwt>
<rscale>  0 0.43090922E+02</rscale>
<asrwt>0</asrwt>
<pdfrwt beam="2">  1        3 0.49135046E-02 0.43090922E+02</pdfrwt>
<pdfrwt beam="1">  1       -3 0.22361117E-02 0.43090922E+02</pdfrwt>
<totfact> 0.27682040E+05</totfact>
</mgrwt>
</event>
<event>
 4    1  0.7692565E-003  0.5712604E+02  0.7818608E-02  0.1410304E+00
         -3   -1    0    0  501    0 -0.00000000000E+00  0.00000000000E+00  0.37408935554E+02  0.37409071898E+02  0.10100000000E+00 0. -1.
          3   -1    0    0    0  501  0.00000000000E+00 -0.00000000000E+00 -0.21808564179E+02  0.21808798054E+02  0.10100000000E+00 0. -1.
          2    1    1    2    0  502 -0.23925835756E+02  0.93347408574E+00 -0.83434228073E+01  0.25356058470E+02  0.25500000000E-02 0.  1.
         -2    1    1    2  502    0  0.23925835756E+02 -0.93347408574E+00  0.23943794183E+02  0.33861811482E+02  0.25500000000E-02 0.  1.
<mgrwt>
<rscale>  0 0.57126041E+02</rscale>
<asrwt>0</asrwt>
<pdfrwt beam="2">  1        3 0.33551922E-02 0.57126041E+02</pdfrwt>
<pdfrwt beam="1">  1       -3 0.57552493E-02 0.57126041E+02</pdfrwt>
<totfact> 0.13138970E+05</totfact>
</mgrwt>
</event>
<event>
 4    1  0.7692565E-003  0.7301560E+02  0.7818608E-02  0.1350129E+00
         -3   -1    0    0  501    0 -0.00000000000E+00  0.00000000000E+00  0.14913973226E+01  0.14948133575E+01  0.10100000000E+00 0. -1.
          3   -1    0    0    0  501  0.00000000000E+00 -0.00000000000E+00 -0.89264579332E+03  0.89264579904E+03  0.10100000000E+00 0. -1.
          2    1    1    2    0  502  0.35008130630E+02  0.10209993329E+02 -0.46680933509E+03  0.46823153302E+03  0.25500000000E-02 0.  1.
         -2    1    1    2  502    0 -0.35008130630E+02 -0.10209993329E+02 -0.42434506091E+03  0.42590907938E+03  0.25500000000E-02 0.  1.
<mgrwt>
<rscale>  0 0.73015596E+02</rscale>
<asrwt>0</asrwt>
<pdfrwt beam="2">  1        3 0.13732996E+00 0.73015596E+02</pdfrwt>
<pdfrwt beam="1">  1       -3 0.22970967E-03 0.73015596E+02</pdfrwt>
<totfact> 0.20056167E+04</totfact>
</mgrwt>
</event>
<event>
 4    1  0.7692565E-003  0.4222936E+02  0.7818608E-02  0.1492419E+00
         -3   -1    0    0  501    0 -0.00000000000E+00  0.00000000000E+00  0.12776020644E+02  0.12776419862E+02  0.10100000000E+00 0. -1.
          3   -1    0    0    0  501  0.00000000000E+00 -0.00000000000E+00 -0.34894805162E+02  0.34894951329E+02  0.10100000000E+00 0. -1.
          2    1    1    2    0  502  0.16187645454E+02 -0.12311791930E+02 -0.17466118750E+02  0.26808308350E+02  0.25500000000E-02 0. -1.
         -2    1    1    2  502    0 -0.16187645454E+02  0.12311791930E+02 -0.46526657681E+01  0.20863062842E+02  0.25500000000E-02 0. -1.
<mgrwt>
<rscale>  0 0.42229362E+02</rscale>
<asrwt>0</asrwt>
<pdfrwt beam="2">  1        3 0.53684735E-02 0.42229362E+02</pdfrwt>
<pdfrwt beam="1">  1       -3 0.19655836E-02 0.42229362E+02</pdfrwt>
<totfact> 0.28997566E+05</totfact>
</mgrwt>
</event>
<event>
 4    1  0.7692565E-003  0.4963570E+02  0.7818608E-02  0.1447316E+00
         -3   -1    0    0  501    0 -0.00000000000E+00  0.00000000000E+00  0.50851710527E+03  0.50851711530E+03  0.10100000000E+00 0.  1.
          3   -1    0    0    0  501  0.00000000000E+00 -0.00000000000E+00 -0.12091038191E+01  0.12133148995E+01  0.10100000000E+00 0.  1.
          2    1    1    2    0  502 -0.81921618669E+01 -0.20264100594E+02  0.37437136228E+03  0.37500888281E+03  0.25500000000E-02 0.  1.
         -2    1    1    2  502    0  0.81921618669E+01  0.20264100594E+02  0.13293663918E+03  0.13472154739E+03  0.25500000000E-02 0.  1.
<mgrwt>
<rscale>  0 0.49635704E+02</rscale>
<asrwt>0</asrwt>
<pdfrwt beam="2">  1        3 0.18634078E-03 0.49635704E+02</pdfrwt>
<pdfrwt beam="1">  1       -3 0.78233679E-01 0.49635704E+02</pdfrwt>
<totfact> 0.84342753E+04</totfact>
</mgrwt>
</event>
<event>
 4    1  0.7692565E-003  0.5065628E+02  0.7818608E-02  0.1441834E+00
          3   -1    0    0    0  501  0.00000000000E+00  0.00000000000E+00  0.17858868671E+01  0.17887405911E+01  0.10100000000E+00 0. -1.
         -3   -1    0    0  501    0 -0.00000000000E+00 -0.00000000000E+00 -0.35892387667E+03  0.35892389088E+03  0.10100000000E+00 0. -1.
          2    1    1    2    0  502 -0.24350775993E+02  0.60062469996E+01 -0.20372401332E+03  0.20526204936E+03  0.25500000000E-02 0. -1.
         -2    1    1    2  502    0  0.24350775993E+02 -0.60062469996E+01 -0.15341397648E+03  0.15545058212E+03  0.25500000000E-02 0. -1.
<mgrwt>
<rscale>  0 0.50656280E+02</rscale>
<asrwt>0</asrwt>
<pdfrwt beam="1">  1        3 0.27497272E-03 0.50656280E+02</pdfrwt>
<pdfrwt beam="2">  1       -3 0.55219221E-01 0.50656280E+02</pdfrwt>
<totfact> 0.99668779E+04</totfact>
</mgrwt>
</event>
<event>
 4    1  0.7692565E-003  0.7499737E+02  0.7818608E-02  0.1343879E+00
          3   -1    0    0    0  501  0.00000000000E+00  0.00000000000E+00  0.56188103547E+02  0.56188194323E+02  0.10100000000E+00 0.  1.
         -3   -1    0    0  501    0 -0.00000000000E+00 -0.00000000000E+00 -0.25025570479E+02  0.25025774289E+02  0.10100000000E+00 0.  1.
          2    1    1    2    0  502 -0.25968713737E+02 -0.97845142595E+01 -0.11729072489E+02  0.30127760627E+02  0.25500000000E-02 0. -1.
         -2    1    1    2  502    0  0.25968713737E+02  0.97845142595E+01  0.42891605558E+02  0.51086207985E+02  0.25500000000E-02 0. -1.
<mgrwt>
<rscale>  0 0.74997368E+02</rscale>
<asrwt>0</asrwt>
<pdfrwt beam="1">  1        3 0.86443462E-02 0.74997368E+02</pdfrwt>
<pdfrwt beam="2">  1       -3 0.38501105E-02 0.74997368E+02</pdfrwt>
<totfact> 0.61141010E+04</totfact>
</mgrwt>
</event>
<event>
 4    1  0.7692565E-003  0.4659145E+02  0.7818608E-02  0.1464644E+00
         -3   -1    0    0  501    0 -0.00000000000E+00  0.00000000000E+00  0.14871314017E+01  0.14905572133E+01  0.10100000000E+00 0. -1.
          3   -1    0    0    0  501  0.00000000000E+00 -0.00000000000E+00 -0.36450136018E+03  0.36450137418E+03  0.10100000000E+00 0. -1.
          2    1    1    2    0  502  0.81580514000E+01 -0.21617613621E+02 -0.20483082002E+03  0.20612991015E+03  0.25500000000E-02 0. -1.
         -2    1    1    2  502    0 -0.81580514000E+01  0.21617613621E+02 -0.15818340876E+03  0.15986202124E+03  0.25500000000E-02 0. -1.
<mgrwt>
<rscale>  0 0.46591454E+02</rscale>
<asrwt>0</asrwt>
<pdfrwt beam="2">  1        3 0.56077326E-01 0.46591454E+02</pdfrwt>
<pdfrwt beam="1">  1       -3 0.22905434E-03 0.46591454E+02</pdfrwt>
<totfact> 0.12161746E+05</totfact>
</mgrwt>
</event>
<event>
 4    1  0.7692565E-003  0.4517104E+02  0.7818608E-02  0.1473277E+00
         -3   -1    0    0  501    0 -0.00000000000E+00  0.00000000000E+00  0.66180870220E+00  0.66947125278E+00  0.10100000000E+00 0.  1.
          3   -1    0    0    0  501  0.00000000000E+00 -0.00000000000E+00 -0.76633099291E+03  0.76633099956E+03  0.10100000000E+00 0.  1.
          2    1    1    2    0  502  0.22302202132E+02  0.10980316800E+01 -0.32522348805E+03  0.32598912724E+03  0.25500000000E-02 0.  1.
         -2    1    1    2  502    0 -0.22302202132E+02 -0.10980316800E+01 -0.44044569615E+03  0.44101134357E+03  0.25500000000E-02 0.  1.
<mgrwt>
<rscale>  0 0.45171037E+02</rscale>
<asrwt>0</asrwt>
<pdfrwt beam="2">  1        3 0.11789696E+00 0.45171037E+02</pdfrwt>
<pdfrwt beam="1">  1       -3 0.10240728E-03 0.45171037E+02</pdfrwt>
<totfact> 0.77290038E+04</totfact>
</mgrwt>
</event>
<event>
 4    1  0.7692565E-003  0.4095683E+02  0.7818608E-02  0.1501286E+00
          3   -1    0    0    0  501  0.00000000000E+00  0.00000000000E+00  0.16214081424E+02  0.16214395993E+02  0.10100000000E+00 0. -1.
         -3   -1    0    0  501    0 -0.00000000000E+00 -0.00000000000E+00 -0.25863614211E+02  0.25863811418E+02  0.10100000000E+00 0. -1.
          2    1    1    2    0  502  0.63838733929E+01  0.19157426164E+02 -0.13249306448E+01  0.20236508208E+02  0.25500000000E-02 0. -1.
         -2    1    1    2  502    0 -0.63838733929E+01 -0.19157426164E+02 -0.83246021426E+01  0.21841699203E+02  0.25500000000E-02 0. -1.
<mgrwt>
<rscale>  0 0.40956832E+02</rscale>
<asrwt>0</asrwt>
<pdfrwt beam="1">  1        3 0.24945134E-02 0.40956832E+02</pdfrwt>
<pdfrwt beam="2">  1       -3 0.39790569E-02 0.40956832E+02</pdfrwt>
<totfact> 0.31759201E+05</totfact>
</mgrwt>
</event>
<event>
 4    1  0.7692565E-003  0.5041215E+02  0.7818608E-02  0.1443131E+00
         -3   -1    0    0  501    0 -0.00000000000E+00  0.00000000000E+00  0.56110118402E+03  0.56110119311E+03  0.10100000000E+00 0.  1.
          3   -1    0    0    0  501  0.00000000000E+00 -0.00000000000E+00 -0.11300586627E+01  0.11345631675E+01  0.10100000000E+00 0.  1.
          2    1    1    2    0  502  0.24613495314E+02 -0.49823888118E+01  0.30415841926E+03  0.30519336880E+03  0.25500000000E-02 0. -1.
         -2    1    1    2  502    0 -0.24613495314E+02  0.49823888118E+01  0.25581270610E+03  0.25704238747E+03  0.25500000000E-02 0. -1.
<mgrwt>
<rscale>  0 0.50412145E+02</rscale>
<asrwt>0</asrwt>
<pdfrwt beam="2">  1        3 0.17420223E-03 0.50412145E+02</pdfrwt>
<pdfrwt beam="1">  1       -3 0.86323679E-01 0.50412145E+02</pdfrwt>
<totfact> 0.75652344E+04</totfact>
</mgrwt>
</event>
<event>
 4    1  0.7692565E-003  0.5131812E+02  0.7818608E-02  0.1438359E+00
          3   -1    0    0    0  501  0.00000000000E+00  0.00000000000E+00  0.47842950892E+02  0.47843057501E+02  0.10100000000E+00 0.  1.
         -3   -1    0    0  501    0 -0.00000000000E+00 -0.00000000000E+00 -0.13761121533E+02  0.13761492173E+02  0.10100000000E+00 0.  1.
          2    1    1    2    0  502 -0.15893035561E+02 -0.19258099267E+02  0.99466652195E+01  0.26877483554E+02  0.25500000000E-02 0. -1.
         -2    1    1    2  502    0  0.15893035561E+02  0.19258099267E+02  0.24135164140E+02  0.34727066120E+02  0.25500000000E-02 0. -1.
<mgrwt>
<rscale>  0 0.51318120E+02</rscale>
<asrwt>0</asrwt>
<pdfrwt beam="1">  1        3 0.73604906E-02 0.51318120E+02</pdfrwt>
<pdfrwt beam="2">  1       -3 0.21171324E-02 0.51318120E+02</pdfrwt>
<totfact> 0.17169711E+05</totfact>
</mgrwt>
</event>
<event>
 4    1  0.7692565E-003  0.4035977E+02  0.7818608E-02  0.1505580E+00
          3   -1    0    0    0  501  0.00000000000E+00  0.00000000000E+00  0.38043644168E+00  0.39361514981E+00  0.10100000000E+00 0. -1.
         -3   -1    0    0  501    0 -0.00000000000E+00 -0.00000000000E+00 -0.10521850489E+04  0.10521850537E+04  0.10100000000E+00 0. -1.
          2    1    1    2    0  502  0.17209393255E+02 -0.10292883957E+02 -0.58492113857E+03  0.58526476489E+03  0.25500000000E-02 0.  1.
         -2    1    1    2  502    0 -0.17209393255E+02  0.10292883957E+02 -0.46688347387E+03  0.46731390399E+03  0.25500000000E-02 0.  1.
<mgrwt>
<rscale>  0 0.40359775E+02</rscale>
<asrwt>0</asrwt>
<pdfrwt beam="1">  1        3 0.59543645E-04 0.40359775E+02</pdfrwt>
<pdfrwt beam="2">  1       -3 0.16187335E+00 0.40359775E+02</pdfrwt>
<totfact> 0.74579955E+04</totfact>
</mgrwt>
</event>
<event>
 4    1  0.7692565E-003  0.4583526E+02  0.7818608E-02  0.1469194E+00
          3   -1    0    0    0  501  0.00000000000E+00  0.00000000000E+00  0.61964803642E+00  0.62782536508E+00  0.10100000000E+00 0. -1.
         -3   -1    0    0  501    0 -0.00000000000E+00 -0.00000000000E+00 -0.84204232899E+03  0.84204233505E+03  0.10100000000E+00 0. -1.
          2    1    1    2    0  502  0.57733736352E+01  0.21192281685E+02 -0.30047284420E+03  0.30127458365E+03  0.25500000000E-02 0. -1.
         -2    1    1    2  502    0 -0.57733736352E+01 -0.21192281685E+02 -0.54094983675E+03  0.54139557676E+03  0.25500000000E-02 0. -1.
<mgrwt>
<rscale>  0 0.45835262E+02</rscale>
<asrwt>0</asrwt>
<pdfrwt beam="1">  1        3 0.95960632E-04 0.45835262E+02</pdfrwt>
<pdfrwt beam="2">  1       -3 0.12954469E+00 0.45835262E+02</pdfrwt>
<totfact> 0.68297934E+04</totfact>
</mgrwt>
</event>
<event>
 4    1  0.7692565E-003  0.6043930E+02  0.7818608E-02  0.1395997E+00
         -3   -1    0    0  501    0 -0.00000000000E+00  0.00000000000E+00  0.70200890701E+01  0.70208155902E+01  0.10100000000E+00 0. -1.
          3   -1    0    0    0  501  0.00000000000E+00 -0.00000000000E+00 -0.13008023584E+03  0.13008027505E+03  0.10100000000E+00 0. -1.
          2    1    1    2    0  502 -0.31911613985E+01 -0.26825914920E+02 -0.30808898004E+02  0.40975619887E+02  0.25500000000E-02 0.  1.
         -2    1    1    2  502    0  0.31911613985E+01  0.26825914920E+02 -0.92251248767E+02  0.96125470755E+02  0.25500000000E-02 0.  1.
<mgrwt>
<rscale>  0 0.60439303E+02</rscale>
<asrwt>0</asrwt>
<pdfrwt beam="2">  1        3 0.20012401E-01 0.60439303E+02</pdfrwt>
<pdfrwt beam="1">  1       -3 0.10800727E-02 0.60439303E+02</pdfrwt>
<totfact> 0.95087430E+04</totfact>
</mgrwt>
</event>
<event>
 4    1  0.7692565E-003  0.6355384E+02  0.7818608E-02  0.1383495E+00
         -3   -1    0    0  501    0 -0.00000000000E+00  0.00000000000E+00  0.70631890901E+00  0.71350360982E+00  0.10100000000E+00 0. -1.
          3   -1    0    0    0  501  0.00000000000E+00 -0.00000000000E+00 -0.14223854661E+04  0.14223854697E+04  0.10100000000E+00 0. -1.
          2    1    1    2    0  502 -0.90252042472E+01 -0.26681690954E+02 -0.10402425992E+04  0.10406238668E+04  0.25500000000E-02 0.  1.
         -2    1    1    2  502    0  0.90252042472E+01  0.26681690954E+02 -0.38143654797E+03  0.38247510648E+03  0.25500000000E-02 0.  1.
<mgrwt>
<rscale>  0 0.63553837E+02</rscale>
<asrwt>0</asrwt>
<pdfrwt beam="2">  1        3 0.21882681E+00 0.63553837E+02</pdfrwt>
<pdfrwt beam="1">  1       -3 0.10921853E-03 0.63553837E+02</pdfrwt>
<totfact> 0.16913705E+04</totfact>
</mgrwt>
</event>
<event>
 4    1  0.7692565E-003  0.4718657E+02  0.7818608E-02  0.1461135E+00
         -3   -1    0    0  501    0 -0.00000000000E+00  0.00000000000E+00  0.93311055394E+02  0.93311110055E+02  0.10100000000E+00 0.  1.
          3   -1    0    0    0  501  0.00000000000E+00 -0.00000000000E+00 -0.59649720460E+01  0.59658270600E+01  0.10100000000E+00 0.  1.
          2    1    1    2    0  502 -0.76284765932E+01  0.19661184952E+02  0.21418426916E+02  0.30058357688E+02  0.25500000000E-02 0.  1.
         -2    1    1    2  502    0  0.76284765932E+01 -0.19661184952E+02  0.65927656432E+02  0.69218579427E+02  0.25500000000E-02 0.  1.
<mgrwt>
<rscale>  0 0.47186566E+02</rscale>
<asrwt>0</asrwt>
<pdfrwt beam="2">  1        3 0.91775806E-03 0.47186566E+02</pdfrwt>
<pdfrwt beam="1">  1       -3 0.14355616E-01 0.47186566E+02</pdfrwt>
<totfact> 0.19328494E+05</totfact>
</mgrwt>
</event>
<event>
 4    1  0.7692565E-003  0.4686200E+02  0.7818608E-02  0.1463041E+00
         -3   -1    0    0  501    0 -0.00000000000E+00  0.00000000000E+00  0.55521945697E+01  0.55531131395E+01  0.10100000000E+00 0.  1.
          3   -1    0    0    0  501  0.00000000000E+00 -0.00000000000E+00 -0.98872821741E+02  0.98872873328E+02  0.10100000000E+00 0.  1.
          2    1    1    2    0  502 -0.37200777040E+01  0.21331866743E+02 -0.26713670864E+02  0.34387610187E+02  0.25500000000E-02 0. -1.
         -2    1    1    2  502    0  0.37200777040E+01 -0.21331866743E+02 -0.66606956308E+02  0.70038376280E+02  0.25500000000E-02 0. -1.
<mgrwt>
<rscale>  0 0.46862002E+02</rscale>
<asrwt>0</asrwt>
<pdfrwt beam="2">  1        3 0.15211277E-01 0.46862002E+02</pdfrwt>
<pdfrwt beam="1">  1       -3 0.85425848E-03 0.46862002E+02</pdfrwt>
<totfact> 0.19427668E+05</totfact>
</mgrwt>
</event>
<event>
 4    1  0.7692565E-003  0.5429719E+02  0.7818608E-02  0.1423452E+00
          3   -1    0    0    0  501  0.00000000000E+00  0.00000000000E+00  0.15281596862E+02  0.15281930626E+02  0.10100000000E+00 0.  1.
         -3   -1    0    0  501    0 -0.00000000000E+00 -0.00000000000E+00 -0.48230052565E+02  0.48230158319E+02  0.10100000000E+00 0.  1.
          2    1    1    2    0  502  0.97621973714E+01 -0.25318615291E+02 -0.15486258535E+02  0.31243511130E+02  0.25500000000E-02 0. -1.
         -2    1    1    2  502    0 -0.97621973714E+01  0.25318615291E+02 -0.17462197168E+02  0.32268577815E+02  0.25500000000E-02 0. -1.
<mgrwt>
<rscale>  0 0.54297189E+02</rscale>
<asrwt>0</asrwt>
<pdfrwt beam="1">  1        3 0.23510487E-02 0.54297189E+02</pdfrwt>
<pdfrwt beam="2">  1       -3 0.74200418E-02 0.54297189E+02</pdfrwt>
<totfact> 0.14802727E+05</totfact>
</mgrwt>
</event>
<event>
 4    1  0.7692565E-003  0.4900722E+02  0.7818608E-02  0.1450771E+00
         -3   -1    0    0  501    0 -0.00000000000E+00  0.00000000000E+00  0.44315412132E+00  0.45451795921E+00  0.10100000000E+00 0. -1.
          3   -1    0    0    0  501  0.00000000000E+00 -0.00000000000E+00 -0.13377308015E+04  0.13377308053E+04  0.10100000000E+00 0. -1.
          2    1    1    2    0  502  0.15434295501E+02 -0.14609521165E+02 -0.10016986894E+04  0.10019241089E+04  0.25500000000E-02 0. -1.
         -2    1    1    2  502    0 -0.15434295501E+02  0.14609521165E+02 -0.33558895803E+03  0.33626121445E+03  0.25500000000E-02 0. -1.
<mgrwt>
<rscale>  0 0.49007220E+02</rscale>
<asrwt>0</asrwt>
<pdfrwt beam="2">  1        3 0.20580242E+00 0.49007220E+02</pdfrwt>
<pdfrwt beam="1">  1       -3 0.69053063E-04 0.49007220E+02</pdfrwt>
<totfact> 0.35311506E+04</totfact>
</mgrwt>
</event>
<event>
 4    1  0.7692565E-003  0.7012201E+02  0.7818608E-02  0.1359679E+00
          3   -1    0    0    0  501  0.00000000000E+00  0.00000000000E+00  0.10994897115E+02  0.10995361002E+02  0.10100000000E+00 0. -1.
         -3   -1    0    0  501    0 -0.00000000000E+00 -0.00000000000E+00 -0.11180120399E+03  0.11180124961E+03  0.10100000000E+00 0. -1.
          2    1    1    2    0  502  0.32328424435E+02 -0.76411544671E+01 -0.70041406598E+02  0.77519758209E+02  0.25500000000E-02 0.  1.
         -2    1    1    2  502    0 -0.32328424435E+02  0.76411544671E+01 -0.30764900274E+02  0.45276852402E+02  0.25500000000E-02 0.  1.
<mgrwt>
<rscale>  0 0.70122008E+02</rscale>
<asrwt>0</asrwt>
<pdfrwt beam="1">  1        3 0.16915619E-02 0.70122008E+02</pdfrwt>
<pdfrwt beam="2">  1       -3 0.17200224E-01 0.70122008E+02</pdfrwt>
<totfact> 0.66620436E+04</totfact>
</mgrwt>
</event>
<event>
 4    1  0.7692565E-003  0.4924771E+02  0.7818608E-02  0.1449442E+00
         -3   -1    0    0  501    0 -0.00000000000E+00  0.00000000000E+00  0.16503669588E+02  0.16503978637E+02  0.10100000000E+00 0. -1.
          3   -1    0    0    0  501  0.00000000000E+00 -0.00000000000E+00 -0.36738636868E+02  0.36738775699E+02  0.10100000000E+00 0. -1.
          2    1    1    2    0  502  0.19476171089E+02 -0.11838773337E+02 -0.20193189880E+02  0.30450660394E+02  0.25500000000E-02 0.  1.
         -2    1    1    2  502    0 -0.19476171089E+02  0.11838773337E+02 -0.41777399550E-01  0.22792093942E+02  0.25500000000E-02 0.  1.
<mgrwt>
<rscale>  0 0.49247710E+02</rscale>
<asrwt>0</asrwt>
<pdfrwt beam="2">  1        3 0.56521324E-02 0.49247710E+02</pdfrwt>
<pdfrwt beam="1">  1       -3 0.25390606E-02 0.49247710E+02</pdfrwt>
<totfact> 0.19470002E+05</totfact>
</mgrwt>
</event>
<event>
 4    1  0.7692565E-003  0.1941342E+03  0.7818608E-02  0.1154785E+00
         -3   -1    0    0  501    0 -0.00000000000E+00  0.00000000000E+00  0.93423995669E+02  0.93424050265E+02  0.10100000000E+00 0.  1.
          3   -1    0    0    0  501  0.00000000000E+00 -0.00000000000E+00 -0.10085215225E+03  0.10085220283E+03  0.10100000000E+00 0.  1.
          2    1    1    2    0  502  0.21985001427E+02 -0.76715831270E+02 -0.59011749908E+02  0.99252434171E+02  0.25500000000E-02 0.  1.
         -2    1    1    2  502    0 -0.21985001427E+02  0.76715831270E+02  0.51583593325E+02  0.95023818919E+02  0.25500000000E-02 0.  1.
<mgrwt>
<rscale>  0 0.19413419E+03</rscale>
<asrwt>0</asrwt>
<pdfrwt beam="2">  1        3 0.15515724E-01 0.19413419E+03</pdfrwt>
<pdfrwt beam="1">  1       -3 0.14372930E-01 0.19413419E+03</pdfrwt>
<totfact> 0.33983330E+03</totfact>
</mgrwt>
</event>
<event>
 4    1  0.7692565E-003  0.6649619E+02  0.7818608E-02  0.1372430E+00
         -3   -1    0    0  501    0 -0.00000000000E+00  0.00000000000E+00  0.20876266927E+03  0.20876269371E+03  0.10100000000E+00 0.  1.
          3   -1    0    0    0  501  0.00000000000E+00 -0.00000000000E+00 -0.52946724599E+01  0.52956356991E+01  0.10100000000E+00 0.  1.
          2    1    1    2    0  502 -0.31808094754E+02 -0.96482040570E+01  0.99255233608E+02  0.10467303444E+03  0.25500000000E-02 0.  1.
         -2    1    1    2  502    0  0.31808094754E+02  0.96482040570E+01  0.10421276321E+03  0.10938529497E+03  0.25500000000E-02 0.  1.
<mgrwt>
<rscale>  0 0.66496185E+02</rscale>
<asrwt>0</asrwt>
<pdfrwt beam="2">  1        3 0.81464122E-03 0.66496185E+02</pdfrwt>
<pdfrwt beam="1">  1       -3 0.32117400E-01 0.66496185E+02</pdfrwt>
<totfact> 0.63977310E+04</totfact>
</mgrwt>
</event>
<event>
 4    1  0.7692565E-003  0.8614730E+02  0.7818608E-02  0.1312459E+00
          3   -1    0    0    0  501  0.00000000000E+00  0.00000000000E+00  0.82964627709E+01  0.82970775281E+01  0.10100000000E+00 0.  1.
         -3   -1    0    0  501    0 -0.00000000000E+00 -0.00000000000E+00 -0.22362127527E+03  0.22362129808E+03  0.10100000000E+00 0.  1.
          2    1    1    2    0  502  0.40183487333E+02 -0.44548507442E+01 -0.14766374014E+03  0.15309846017E+03  0.25500000000E-02 0.  1.
         -2    1    1    2  502    0 -0.40183487333E+02  0.44548507442E+01 -0.67661072359E+02  0.78819915432E+02  0.25500000000E-02 0.  1.
<mgrwt>
<rscale>  0 0.86147304E+02</rscale>
<asrwt>0</asrwt>
<pdfrwt beam="1">  1        3 0.12764281E-02 0.86147304E+02</pdfrwt>
<pdfrwt beam="2">  1       -3 0.34403318E-01 0.86147304E+02</pdfrwt>
<totfact> 0.31348113E+04</totfact>
</mgrwt>
</event>
<event>
 4    1  0.7692565E-003  0.1213938E+03  0.7818608E-02  0.1240815E+00
         -3   -1    0    0  501    0 -0.00000000000E+00  0.00000000000E+00  0.23565661032E+03  0.23565663196E+03  0.10100000000E+00 0. -1.
          3   -1    0    0    0  501  0.00000000000E+00 -0.00000000000E+00 -0.15633225698E+02  0.15633551955E+02  0.10100000000E+00 0. -1.
          2    1    1    2    0  502  0.16500747347E+02 -0.49035392121E+02  0.44310409296E+02  0.68118695832E+02  0.25500000000E-02 0.  1.
         -2    1    1    2  502    0 -0.16500747347E+02  0.49035392121E+02  0.17571297532E+03  0.18317148809E+03  0.25500000000E-02 0.  1.
<mgrwt>
<rscale>  0 0.12139385E+03</rscale>
<asrwt>0</asrwt>
<pdfrwt beam="2">  1        3 0.24051383E-02 0.12139385E+03</pdfrwt>
<pdfrwt beam="1">  1       -3 0.36254892E-01 0.12139385E+03</pdfrwt>
<totfact> 0.11893604E+04</totfact>
</mgrwt>
</event>
<event>
 4    1  0.7692565E-003  0.6032695E+02  0.7818608E-02  0.1396465E+00
          3   -1    0    0    0  501  0.00000000000E+00  0.00000000000E+00  0.54706946449E+02  0.54707039682E+02  0.10100000000E+00 0.  1.
         -3   -1    0    0  501    0 -0.00000000000E+00 -0.00000000000E+00 -0.16630814585E+02  0.16631121272E+02  0.10100000000E+00 0.  1.
          2    1    1    2    0  502  0.22404587822E+02 -0.19020302842E+02  0.27066871098E+02  0.39954386408E+02  0.25500000000E-02 0.  1.
         -2    1    1    2  502    0 -0.22404587822E+02  0.19020302842E+02  0.11009260766E+02  0.31383774547E+02  0.25500000000E-02 0.  1.
<mgrwt>
<rscale>  0 0.60326954E+02</rscale>
<asrwt>0</asrwt>
<pdfrwt beam="1">  1        3 0.84164840E-02 0.60326954E+02</pdfrwt>
<pdfrwt beam="2">  1       -3 0.25586176E-02 0.60326954E+02</pdfrwt>
<totfact> 0.11076684E+05</totfact>
</mgrwt>
</event>
<event>
 4    1  0.7692565E-003  0.7016201E+02  0.7818608E-02  0.1359543E+00
          3   -1    0    0    0  501  0.00000000000E+00  0.00000000000E+00  0.16473868980E+01  0.16504801094E+01  0.10100000000E+00 0. -1.
         -3   -1    0    0  501    0 -0.00000000000E+00 -0.00000000000E+00 -0.74634406390E+03  0.74634407073E+03  0.10100000000E+00 0. -1.
          2    1    1    2    0  502  0.14154946807E+02 -0.16521484297E+02 -0.78957778673E+02  0.81900261183E+02  0.25500000000E-02 0.  1.
         -2    1    1    2  502    0 -0.14154946807E+02  0.16521484297E+02 -0.66573889833E+03  0.66609428966E+03  0.25500000000E-02 0.  1.
<mgrwt>
<rscale>  0 0.70162008E+02</rscale>
<asrwt>0</asrwt>
<pdfrwt beam="1">  1        3 0.25368320E-03 0.70162008E+02</pdfrwt>
<pdfrwt beam="2">  1       -3 0.11482213E+00 0.70162008E+02</pdfrwt>
<totfact> 0.26076872E+04</totfact>
</mgrwt>
</event>
<event>
 4    1  0.7692565E-003  0.5220353E+02  0.7818608E-02  0.1433806E+00
          3   -1    0    0    0  501  0.00000000000E+00  0.00000000000E+00  0.34004716700E+02  0.34004866694E+02  0.10100000000E+00 0.  1.
         -3   -1    0    0  501    0 -0.00000000000E+00 -0.00000000000E+00 -0.20035198520E+02  0.20035453095E+02  0.10100000000E+00 0.  1.
          2    1    1    2    0  502 -0.31183827880E+01  0.19755536539E+02 -0.10377262701E+02  0.22532046574E+02  0.25500000000E-02 0.  1.
         -2    1    1    2  502    0  0.31183827880E+01 -0.19755536539E+02  0.24346780882E+02  0.31508273215E+02  0.25500000000E-02 0.  1.
<mgrwt>
<rscale>  0 0.52203532E+02</rscale>
<asrwt>0</asrwt>
<pdfrwt beam="1">  1        3 0.52315260E-02 0.52203532E+02</pdfrwt>
<pdfrwt beam="2">  1       -3 0.30823694E-02 0.52203532E+02</pdfrwt>
<totfact> 0.16768116E+05</totfact>
</mgrwt>
</event>
<event>
 4    1  0.7692565E-003  0.4930588E+02  0.7818608E-02  0.1449122E+00
          3   -1    0    0    0  501  0.00000000000E+00  0.00000000000E+00  0.71344527011E+02  0.71344598502E+02  0.10100000000E+00 0. -1.
         -3   -1    0    0  501    0 -0.00000000000E+00 -0.00000000000E+00 -0.85183915503E+01  0.85189902926E+01  0.10100000000E+00 0. -1.
          2    1    1    2    0  502  0.22403320675E+02 -0.10284613807E+02  0.31886177417E+02  0.40303974682E+02  0.25500000000E-02 0.  1.
         -2    1    1    2  502    0 -0.22403320675E+02  0.10284613807E+02  0.30939958044E+02  0.39559614112E+02  0.25500000000E-02 0.  1.
<mgrwt>
<rscale>  0 0.49305877E+02</rscale>
<asrwt>0</asrwt>
<pdfrwt beam="1">  1        3 0.10976133E-01 0.49305877E+02</pdfrwt>
<pdfrwt beam="2">  1       -3 0.13105733E-02 0.49305877E+02</pdfrwt>
<totfact> 0.18138089E+05</totfact>
</mgrwt>
</event>
<event>
 4    1  0.7692565E-003  0.5584804E+02  0.7818608E-02  0.1416130E+00
          3   -1    0    0    0  501  0.00000000000E+00  0.00000000000E+00  0.25925333074E+02  0.25925529812E+02  0.10100000000E+00 0.  1.
         -3   -1    0    0  501    0 -0.00000000000E+00 -0.00000000000E+00 -0.30076399811E+02  0.30076569395E+02  0.10100000000E+00 0.  1.
          2    1    1    2    0  502  0.73615092694E+01  0.24476965354E+02 -0.13350984654E+02  0.28836824537E+02  0.25500000000E-02 0. -1.
         -2    1    1    2  502    0 -0.73615092694E+01 -0.24476965354E+02  0.91999179174E+01  0.27165274669E+02  0.25500000000E-02 0. -1.
<mgrwt>
<rscale>  0 0.55848042E+02</rscale>
<asrwt>0</asrwt>
<pdfrwt beam="1">  1        3 0.39885410E-02 0.55848042E+02</pdfrwt>
<pdfrwt beam="2">  1       -3 0.46271666E-02 0.55848042E+02</pdfrwt>
<totfact> 0.14040334E+05</totfact>
</mgrwt>
</event>
<event>
 4    1  0.7692565E-003  0.6932359E+02  0.7818608E-02  0.1362408E+00
          3   -1    0    0    0  501  0.00000000000E+00  0.00000000000E+00  0.37019091119E+02  0.37019228899E+02  0.10100000000E+00 0. -1.
         -3   -1    0    0  501    0 -0.00000000000E+00 -0.00000000000E+00 -0.32454333312E+02  0.32454490471E+02  0.10100000000E+00 0. -1.
          2    1    1    2    0  502  0.98193734216E+01 -0.26340733387E+02  0.22604009433E+02  0.36072088639E+02  0.25500000000E-02 0. -1.
         -2    1    1    2  502    0 -0.98193734216E+01  0.26340733387E+02 -0.18039251626E+02  0.33401630731E+02  0.25500000000E-02 0. -1.
<mgrwt>
<rscale>  0 0.69323594E+02</rscale>
<asrwt>0</asrwt>
<pdfrwt beam="1">  1        3 0.56952674E-02 0.69323594E+02</pdfrwt>
<pdfrwt beam="2">  1       -3 0.49929971E-02 0.69323594E+02</pdfrwt>
<totfact> 0.77390061E+04</totfact>
</mgrwt>
</event>
<event>
 4    1  0.7692565E-003  0.6908658E+02  0.7818608E-02  0.1363227E+00
          3   -1    0    0    0  501  0.00000000000E+00  0.00000000000E+00  0.55341449395E+01  0.55350665047E+01  0.10100000000E+00 0. -1.
         -3   -1    0    0  501    0 -0.00000000000E+00 -0.00000000000E+00 -0.21559509815E+03  0.21559512180E+03  0.10100000000E+00 0. -1.
          2    1    1    2    0  502 -0.67113462374E+01 -0.32045653627E+02 -0.14027862154E+03  0.14404880337E+03  0.25500000000E-02 0.  1.
         -2    1    1    2  502    0  0.67113462374E+01  0.32045653627E+02 -0.69782331670E+02  0.77081384941E+02  0.25500000000E-02 0.  1.
<mgrwt>
<rscale>  0 0.69086584E+02</rscale>
<asrwt>0</asrwt>
<pdfrwt beam="1">  1        3 0.85147979E-03 0.69086584E+02</pdfrwt>
<pdfrwt beam="2">  1       -3 0.33168543E-01 0.69086584E+02</pdfrwt>
<totfact> 0.57194721E+04</totfact>
</mgrwt>
</event>
<event>
 4    1  0.7692565E-003  0.7960953E+02  0.7818608E-02  0.1330163E+00
          3   -1    0    0    0  501  0.00000000000E+00  0.00000000000E+00  0.37190787837E+01  0.37204499727E+01  0.10100000000E+00 0.  1.
         -3   -1    0    0  501    0 -0.00000000000E+00 -0.00000000000E+00 -0.42594478701E+03  0.42594479899E+03  0.10100000000E+00 0.  1.
          2    1    1    2    0  502  0.25581624214E+02  0.73168693967E+00 -0.37565667044E+03  0.37652740792E+03  0.25500000000E-02 0.  1.
         -2    1    1    2  502    0 -0.25581624214E+02 -0.73168693967E+00 -0.46569037790E+02  0.53137841040E+02  0.25500000000E-02 0.  1.
<mgrwt>
<rscale>  0 0.79609531E+02</rscale>
<asrwt>0</asrwt>
<pdfrwt beam="1">  1        3 0.57227270E-03 0.79609531E+02</pdfrwt>
<pdfrwt beam="2">  1       -3 0.65530035E-01 0.79609531E+02</pdfrwt>
<totfact> 0.28269476E+04</totfact>
</mgrwt>
</event>
<event>
 4    1  0.7692565E-003  0.4463400E+02  0.7818608E-02  0.1476639E+00
          3   -1    0    0    0  501  0.00000000000E+00  0.00000000000E+00  0.79812742490E+01  0.79819132818E+01  0.10100000000E+00 0. -1.
         -3   -1    0    0  501    0 -0.00000000000E+00 -0.00000000000E+00 -0.62398962034E+02  0.62399043774E+02  0.10100000000E+00 0. -1.
          2    1    1    2    0  502 -0.19823001044E+02 -0.99847079678E+01 -0.23543626974E+02  0.32356578020E+02  0.25500000000E-02 0.  1.
         -2    1    1    2  502    0  0.19823001044E+02  0.99847079678E+01 -0.30874060811E+02  0.38024379036E+02  0.25500000000E-02 0.  1.
<mgrwt>
<rscale>  0 0.44634005E+02</rscale>
<asrwt>0</asrwt>
<pdfrwt beam="1">  1        3 0.12279438E-02 0.44634005E+02</pdfrwt>
<pdfrwt beam="2">  1       -3 0.95998954E-02 0.44634005E+02</pdfrwt>
<totfact> 0.23807459E+05</totfact>
</mgrwt>
</event>
<event>
 4    1  0.7692565E-003  0.4232038E+02  0.7818608E-02  0.1491799E+00
         -3   -1    0    0  501    0 -0.00000000000E+00  0.00000000000E+00  0.29862204578E+01  0.29879279815E+01  0.10100000000E+00 0. -1.
          3   -1    0    0    0  501  0.00000000000E+00 -0.00000000000E+00 -0.14989535562E+03  0.14989538965E+03  0.10100000000E+00 0. -1.
          2    1    1    2    0  502  0.11574783564E+02 -0.17681399554E+02 -0.69586987712E+02  0.72725211379E+02  0.25500000000E-02 0.  1.
         -2    1    1    2  502    0 -0.11574783564E+02  0.17681399554E+02 -0.77322147449E+02  0.80158106248E+02  0.25500000000E-02 0.  1.
<mgrwt>
<rscale>  0 0.42320383E+02</rscale>
<asrwt>0</asrwt>
<pdfrwt beam="2">  1        3 0.23060952E-01 0.42320383E+02</pdfrwt>
<pdfrwt beam="1">  1       -3 0.45955261E-03 0.42320383E+02</pdfrwt>
<totfact> 0.22464537E+05</totfact>
</mgrwt>
</event>
<event>
 4    1  0.7692565E-003  0.4152283E+02  0.7818608E-02  0.1497295E+00
          3   -1    0    0    0  501  0.00000000000E+00  0.00000000000E+00  0.70922173127E+00  0.71637731965E+00  0.10100000000E+00 0. -1.
         -3   -1    0    0  501    0 -0.00000000000E+00 -0.00000000000E+00 -0.60470197041E+03  0.60470197884E+03  0.10100000000E+00 0. -1.
          2    1    1    2    0  502  0.16599638247E+02 -0.11890216063E+02 -0.24722548696E+03  0.24806726232E+03  0.25500000000E-02 0. -1.
         -2    1    1    2  502    0 -0.16599638247E+02  0.11890216063E+02 -0.35676726172E+03  0.35735109384E+03  0.25500000000E-02 0. -1.
<mgrwt>
<rscale>  0 0.41522831E+02</rscale>
<asrwt>0</asrwt>
<pdfrwt beam="1">  1        3 0.10966260E-03 0.41522831E+02</pdfrwt>
<pdfrwt beam="2">  1       -3 0.93031213E-01 0.41522831E+02</pdfrwt>
<totfact> 0.11498534E+05</totfact>
</mgrwt>
</event>
<event>
 4    1  0.7692565E-003  0.6822547E+02  0.7818608E-02  0.1366234E+00
         -3   -1    0    0  501    0 -0.00000000000E+00  0.00000000000E+00  0.39211583242E+00  0.40491459103E+00  0.10100000000E+00 0.  1.
          3   -1    0    0    0  501  0.00000000000E+00 -0.00000000000E+00 -0.29200227168E+04  0.29200227185E+04  0.10100000000E+00 0.  1.
          2    1    1    2    0  502  0.17411303709E+02  0.28531485894E+02 -0.17516454142E+04  0.17519642851E+04  0.25500000000E-02 0. -1.
         -2    1    1    2  502    0 -0.17411303709E+02 -0.28531485894E+02 -0.11679851867E+04  0.11684633480E+04  0.25500000000E-02 0. -1.
<mgrwt>
<rscale>  0 0.68225467E+02</rscale>
<asrwt>0</asrwt>
<pdfrwt beam="2">  1        3 0.44921812E+00 0.68225467E+02</pdfrwt>
<pdfrwt beam="1">  1       -3 0.61312505E-04 0.68225467E+02</pdfrwt>
<totfact> 0.26846480E+03</totfact>
</mgrwt>
</event>
<event>
 4    1  0.7692565E-003  0.4291771E+02  0.7818608E-02  0.1487776E+00
         -3   -1    0    0  501    0 -0.00000000000E+00  0.00000000000E+00  0.29281238325E+01  0.29298652151E+01  0.10100000000E+00 0.  1.
          3   -1    0    0    0  501  0.00000000000E+00 -0.00000000000E+00 -0.15721342110E+03  0.15721345354E+03  0.10100000000E+00 0.  1.
          2    1    1    2    0  502 -0.41651865622E+01  0.21050738836E+02 -0.77152048087E+02  0.80080715002E+02  0.25500000000E-02 0. -1.
         -2    1    1    2  502    0  0.41651865622E+01 -0.21050738836E+02 -0.77133249180E+02  0.80062603756E+02  0.25500000000E-02 0. -1.
<mgrwt>
<rscale>  0 0.42917707E+02</rscale>
<asrwt>0</asrwt>
<pdfrwt beam="2">  1        3 0.24186810E-01 0.42917707E+02</pdfrwt>
<pdfrwt beam="1">  1       -3 0.45061716E-03 0.42917707E+02</pdfrwt>
<totfact> 0.21386697E+05</totfact>
</mgrwt>
</event>
<event>
 4    1  0.7692565E-003  0.4384551E+02  0.7818608E-02  0.1481680E+00
          3   -1    0    0    0  501  0.00000000000E+00  0.00000000000E+00  0.40181854265E+02  0.40181981201E+02  0.10100000000E+00 0. -1.
         -3   -1    0    0  501    0 -0.00000000000E+00 -0.00000000000E+00 -0.11960439995E+02  0.11960866434E+02  0.10100000000E+00 0. -1.
          2    1    1    2    0  502  0.21349081681E+02 -0.43515922941E+01  0.16996284141E+02  0.27633192454E+02  0.25500000000E-02 0.  1.
         -2    1    1    2  502    0 -0.21349081681E+02  0.43515922941E+01  0.11225130130E+02  0.24509655181E+02  0.25500000000E-02 0.  1.
<mgrwt>
<rscale>  0 0.43845505E+02</rscale>
<asrwt>0</asrwt>
<pdfrwt beam="1">  1        3 0.61818663E-02 0.43845505E+02</pdfrwt>
<pdfrwt beam="2">  1       -3 0.18401103E-02 0.43845505E+02</pdfrwt>
<totfact> 0.26104978E+05</totfact>
</mgrwt>
</event>
<event>
 4    1  0.7692565E-003  0.5025034E+02  0.7818608E-02  0.1443996E+00
         -3   -1    0    0  501    0 -0.00000000000E+00  0.00000000000E+00  0.59692116882E+02  0.59692202329E+02  0.10100000000E+00 0. -1.
          3   -1    0    0    0  501  0.00000000000E+00 -0.00000000000E+00 -0.10575167794E+02  0.10575650092E+02  0.10100000000E+00 0. -1.
          2    1    1    2    0  502 -0.11271874459E+01  0.25099651192E+02  0.24411474111E+02  0.35031173492E+02  0.25500000000E-02 0.  1.
         -2    1    1    2  502    0  0.11271874459E+01 -0.25099651192E+02  0.24705474978E+02  0.35236678928E+02  0.25500000000E-02 0.  1.
<mgrwt>
<rscale>  0 0.50250337E+02</rscale>
<asrwt>0</asrwt>
<pdfrwt beam="2">  1        3 0.16269926E-02 0.50250337E+02</pdfrwt>
<pdfrwt beam="1">  1       -3 0.91834462E-02 0.50250337E+02</pdfrwt>
<totfact> 0.17711893E+05</totfact>
</mgrwt>
</event>
<event>
 4    1  0.7692565E-003  0.4271373E+02  0.7818608E-02  0.1489141E+00
         -3   -1    0    0  501    0 -0.00000000000E+00  0.00000000000E+00  0.16295062169E+03  0.16295065299E+03  0.10100000000E+00 0.  1.
          3   -1    0    0    0  501  0.00000000000E+00 -0.00000000000E+00 -0.27981614173E+01  0.27999836281E+01  0.10100000000E+00 0.  1.
          2    1    1    2    0  502  0.20619679501E+02 -0.19284261644E+01  0.10032401340E+03  0.10243923898E+03  0.25500000000E-02 0. -1.
         -2    1    1    2  502    0 -0.20619679501E+02  0.19284261644E+01  0.59828446871E+02  0.63311397644E+02  0.25500000000E-02 0. -1.
<mgrwt>
<rscale>  0 0.42713733E+02</rscale>
<asrwt>0</asrwt>
<pdfrwt beam="2">  1        3 0.43062892E-03 0.42713733E+02</pdfrwt>
<pdfrwt beam="1">  1       -3 0.25069471E-01 0.42713733E+02</pdfrwt>
<totfact> 0.21391955E+05</totfact>
</mgrwt>
</event>
<event>
 4    1  0.7692565E-003  0.6909179E+02  0.7818608E-02  0.1363209E+00
          3   -1    0    0    0  501  0.00000000000E+00  0.00000000000E+00  0.18593666508E+03  0.18593669251E+03  0.10100000000E+00 0. -1.
         -3   -1    0    0  501    0 -0.00000000000E+00 -0.00000000000E+00 -0.64179900048E+01  0.64187846748E+01  0.10100000000E+00 0. -1.
          2    1    1    2    0  502 -0.18581434416E+02  0.27762477089E+02  0.11425174341E+03  0.11903564894E+03  0.25500000000E-02 0.  1.
         -2    1    1    2  502    0  0.18581434416E+02 -0.27762477089E+02  0.65266931667E+02  0.73319828251E+02  0.25500000000E-02 0.  1.
<mgrwt>
<rscale>  0 0.69091786E+02</rscale>
<asrwt>0</asrwt>
<pdfrwt beam="1">  1        3 0.28605702E-01 0.69091786E+02</pdfrwt>
<pdfrwt beam="2">  1       -3 0.98744638E-03 0.69091786E+02</pdfrwt>
<totfact> 0.60298050E+04</totfact>
</mgrwt>
</event>
<event>
 4    1  0.7692565E-003  0.4440739E+02  0.7818608E-02  0.1478075E+00
          3   -1    0    0    0  501  0.00000000000E+00  0.00000000000E+00  0.19634448528E+00  0.22079890602E+00  0.10100000000E+00 0.  1.
         -3   -1    0    0  501    0 -0.00000000000E+00 -0.00000000000E+00 -0.23636909227E+04  0.23636909249E+04  0.10100000000E+00 0.  1.
          2    1    1    2    0  502 -0.20783906883E+02  0.65343988406E+01 -0.14096849141E+04  0.14098532641E+04  0.25500000000E-02 0. -1.
         -2    1    1    2  502    0  0.20783906883E+02 -0.65343988406E+01 -0.95380966412E+03  0.95405845970E+03  0.25500000000E-02 0. -1.
<mgrwt>
<rscale>  0 0.44407392E+02</rscale>
<asrwt>0</asrwt>
<pdfrwt beam="1">  1        3 0.32090012E-04 0.44407392E+02</pdfrwt>
<pdfrwt beam="2">  1       -3 0.36362519E+00 0.44407392E+02</pdfrwt>
<totfact> 0.15374020E+04</totfact>
</mgrwt>
</event>
<event>
 4    1  0.7692565E-003  0.6314497E+02  0.7818608E-02  0.1385088E+00
          3   -1    0    0    0  501  0.00000000000E+00  0.00000000000E+00  0.74633540121E+01  0.74640373867E+01  0.10100000000E+00 0.  1.
         -3   -1    0    0  501    0 -0.00000000000E+00 -0.00000000000E+00 -0.13355537660E+03  0.13355541479E+03  0.10100000000E+00 0.  1.
          2    1    1    2    0  502  0.17317400647E+02  0.16637420008E+02 -0.10882117645E+03  0.11143942103E+03  0.25500000000E-02 0.  1.
         -2    1    1    2  502    0 -0.17317400647E+02 -0.16637420008E+02 -0.17270846139E+02  0.29580031145E+02  0.25500000000E-02 0.  1.
<mgrwt>
<rscale>  0 0.63144974E+02</rscale>
<asrwt>0</asrwt>
<pdfrwt beam="1">  1        3 0.11482639E-02 0.63144974E+02</pdfrwt>
<pdfrwt beam="2">  1       -3 0.20547035E-01 0.63144974E+02</pdfrwt>
<totfact> 0.84266809E+04</totfact>
</mgrwt>
</event>
<event>
 4    1  0.7692565E-003  0.7381147E+02  0.7818608E-02  0.1347592E+00
         -3   -1    0    0  501    0 -0.00000000000E+00  0.00000000000E+00  0.19549709919E+04  0.19549709945E+04  0.10100000000E+00 0. -1.
          3   -1    0    0    0  501  0.00000000000E+00 -0.00000000000E+00 -0.69303947599E+00  0.70036041813E+00  0.10100000000E+00 0. -1.
          2    1    1    2    0  502 -0.89299279374E+01 -0.24396573270E+02  0.28262497302E+03  0.28381651076E+03  0.25500000000E-02 0.  1.
         -2    1    1    2  502    0  0.89299279374E+01  0.24396573270E+02  0.16716529794E+04  0.16718548442E+04  0.25500000000E-02 0.  1.
<mgrwt>
<rscale>  0 0.73811470E+02</rscale>
<asrwt>0</asrwt>
<pdfrwt beam="2">  1        3 0.10718418E-03 0.73811470E+02</pdfrwt>
<pdfrwt beam="1">  1       -3 0.30076710E+00 0.73811470E+02</pdfrwt>
<totfact> 0.66305232E+03</totfact>
</mgrwt>
</event>
<event>
 4    1  0.7692565E-003  0.4095060E+02  0.7818608E-02  0.1501330E+00
          3   -1    0    0    0  501  0.00000000000E+00  0.00000000000E+00  0.44284212080E+02  0.44284327256E+02  0.10100000000E+00 0. -1.
         -3   -1    0    0  501    0 -0.00000000000E+00 -0.00000000000E+00 -0.94665869045E+01  0.94671256789E+01  0.10100000000E+00 0. -1.
          2    1    1    2    0  502  0.15413882467E+02  0.13471553228E+02  0.16871784387E+02  0.26527865236E+02  0.25500000000E-02 0. -1.
         -2    1    1    2  502    0 -0.15413882467E+02 -0.13471553228E+02  0.17945840788E+02  0.27223587698E+02  0.25500000000E-02 0. -1.
<mgrwt>
<rscale>  0 0.40950600E+02</rscale>
<asrwt>0</asrwt>
<pdfrwt beam="1">  1        3 0.68130060E-02 0.40950600E+02</pdfrwt>
<pdfrwt beam="2">  1       -3 0.14564483E-02 0.40950600E+02</pdfrwt>
<totfact> 0.30747896E+05</totfact>
</mgrwt>
</event>
<event>
 4    1  0.7692565E-003  0.7699989E+02  0.7818608E-02  0.1337788E+00
          3   -1    0    0    0  501  0.00000000000E+00  0.00000000000E+00  0.16673788541E+04  0.16673788572E+04  0.10100000000E+00 0.  1.
         -3   -1    0    0  501    0 -0.00000000000E+00 -0.00000000000E+00 -0.88609564775E+00  0.89183322261E+00  0.10100000000E+00 0.  1.
          2    1    1    2    0  502  0.12087016849E+02  0.26990918498E+02  0.13673181147E+04  0.13676379025E+04  0.25500000000E-02 0.  1.
         -2    1    1    2  502    0 -0.12087016849E+02 -0.26990918498E+02  0.29917464380E+03  0.30063278790E+03  0.25500000000E-02 0.  1.
<mgrwt>
<rscale>  0 0.76999886E+02</rscale>
<asrwt>0</asrwt>
<pdfrwt beam="1">  1        3 0.25652022E+00 0.76999886E+02</pdfrwt>
<pdfrwt beam="2">  1       -3 0.13676402E-03 0.76999886E+02</pdfrwt>
<totfact> 0.80941469E+03</totfact>
</mgrwt>
</event>
<event>
 4    1  0.7692565E-003  0.1812759E+03  0.7818608E-02  0.1166574E+00
         -3   -1    0    0  501    0 -0.00000000000E+00  0.00000000000E+00  0.16419408467E+03  0.16419411574E+03  0.10100000000E+00 0. -1.
          3   -1    0    0    0  501  0.00000000000E+00 -0.00000000000E+00 -0.50033593538E+02  0.50033695479E+02  0.10100000000E+00 0. -1.
          2    1    1    2    0  502  0.89180224643E+02  0.13809792046E+02  0.47093591969E+02  0.10179208827E+03  0.25500000000E-02 0.  1.
         -2    1    1    2  502    0 -0.89180224643E+02 -0.13809792046E+02  0.67066899168E+02  0.11243572295E+03  0.25500000000E-02 0.  1.
<mgrwt>
<rscale>  0 0.18127586E+03</rscale>
<asrwt>0</asrwt>
<pdfrwt beam="2">  1        3 0.76974862E-02 0.18127586E+03</pdfrwt>
<pdfrwt beam="1">  1       -3 0.25260638E-01 0.18127586E+03</pdfrwt>
<totfact> 0.40227367E+03</totfact>
</mgrwt>
</event>
<event>
 4    1  0.7692565E-003  0.5623572E+02  0.7818608E-02  0.1414344E+00
         -3   -1    0    0  501    0 -0.00000000000E+00  0.00000000000E+00  0.14847150442E+02  0.14847493972E+02  0.10100000000E+00 0. -1.
          3   -1    0    0    0  501  0.00000000000E+00 -0.00000000000E+00 -0.53249218787E+02  0.53249314572E+02  0.10100000000E+00 0. -1.
          2    1    1    2    0  502  0.25626204464E+02  0.11240874351E+02 -0.15872772934E+02  0.32171486421E+02  0.25500000000E-02 0.  1.
         -2    1    1    2  502    0 -0.25626204464E+02 -0.11240874351E+02 -0.22529295411E+02  0.35925322123E+02  0.25500000000E-02 0.  1.
<mgrwt>
<rscale>  0 0.56235722E+02</rscale>
<asrwt>0</asrwt>
<pdfrwt beam="2">  1        3 0.81922212E-02 0.56235722E+02</pdfrwt>
<pdfrwt beam="1">  1       -3 0.22842108E-02 0.56235722E+02</pdfrwt>
<totfact> 0.13376501E+05</totfact>
</mgrwt>
</event>
<event>
 4    1  0.7692565E-003  0.4593327E+02  0.7818608E-02  0.1468598E+00
         -3   -1    0    0  501    0 -0.00000000000E+00  0.00000000000E+00  0.71097230189E+01  0.71104403805E+01  0.10100000000E+00 0.  1.
          3   -1    0    0    0  501  0.00000000000E+00 -0.00000000000E+00 -0.74184927930E+02  0.74184996684E+02  0.10100000000E+00 0.  1.
          2    1    1    2    0  502  0.22497427432E+02  0.22031959083E+01 -0.40721995470E+02  0.46575414489E+02  0.25500000000E-02 0.  1.
         -2    1    1    2  502    0 -0.22497427432E+02 -0.22031959083E+01 -0.26353209442E+02  0.34720022576E+02  0.25500000000E-02 0.  1.
<mgrwt>
<rscale>  0 0.45933267E+02</rscale>
<asrwt>0</asrwt>
<pdfrwt beam="2">  1        3 0.11413126E-01 0.45933267E+02</pdfrwt>
<pdfrwt beam="1">  1       -3 0.10938641E-02 0.45933267E+02</pdfrwt>
<totfact> 0.21571431E+05</totfact>
</mgrwt>
</event>
<event>
 4    1  0.7692565E-003  0.6361292E+02  0.7818608E-02  0.1383266E+00
         -3   -1    0    0  501    0 -0.00000000000E+00  0.00000000000E+00  0.29560754854E+01  0.29578004117E+01  0.10100000000E+00 0.  1.
          3   -1    0    0    0  501  0.00000000000E+00 -0.00000000000E+00 -0.34212609510E+03  0.34212611001E+03  0.10100000000E+00 0.  1.
          2    1    1    2    0  502  0.85880716941E+00  0.31716082057E+02 -0.15745085931E+03  0.16061575426E+03  0.25500000000E-02 0.  1.
         -2    1    1    2  502    0 -0.85880716941E+00 -0.31716082057E+02 -0.18171916030E+03  0.18446815616E+03  0.25500000000E-02 0.  1.
<mgrwt>
<rscale>  0 0.63612916E+02</rscale>
<asrwt>0</asrwt>
<pdfrwt beam="2">  1        3 0.52634886E-01 0.63612916E+02</pdfrwt>
<pdfrwt beam="1">  1       -3 0.45491495E-03 0.63612916E+02</pdfrwt>
<totfact> 0.57504979E+04</totfact>
</mgrwt>
</event>
<event>
 4    1  0.7692565E-003  0.2931946E+03  0.7818608E-02  0.1088693E+00
          3   -1    0    0    0  501  0.00000000000E+00  0.00000000000E+00  0.11820345405E+03  0.11820349720E+03  0.10100000000E+00 0. -1.
         -3   -1    0    0  501    0 -0.00000000000E+00 -0.00000000000E+00 -0.18181152965E+03  0.18181155771E+03  0.10100000000E+00 0. -1.
          2    1    1    2    0  502 -0.35741158562E+02 -0.39311061478E+02  0.10800515082E+03  0.12036570351E+03  0.25500000000E-02 0.  1.
         -2    1    1    2  502    0  0.35741158562E+02  0.39311061478E+02 -0.17161322642E+03  0.17964935140E+03  0.25500000000E-02 0.  1.
<mgrwt>
<rscale>  0 0.29319455E+03</rscale>
<asrwt>0</asrwt>
<pdfrwt beam="1">  1        3 0.18185152E-01 0.29319455E+03</pdfrwt>
<pdfrwt beam="2">  1       -3 0.27971010E-01 0.29319455E+03</pdfrwt>
<totfact> 0.83043687E+02</totfact>
</mgrwt>
</event>
<event>
 4    1  0.7692565E-003  0.6368953E+02  0.7818608E-02  0.1382970E+00
          3   -1    0    0    0  501  0.00000000000E+00  0.00000000000E+00  0.52346305758E+03  0.52346306733E+03  0.10100000000E+00 0.  1.
         -3   -1    0    0  501    0 -0.00000000000E+00 -0.00000000000E+00 -0.19359435100E+01  0.19385763524E+01  0.10100000000E+00 0.  1.
          2    1    1    2    0  502  0.12961634939E+02 -0.26061839466E+02  0.36732665744E+03  0.36847808175E+03  0.25500000000E-02 0. -1.
         -2    1    1    2  502    0 -0.12961634939E+02  0.26061839466E+02  0.15420045663E+03  0.15692356193E+03  0.25500000000E-02 0. -1.
<mgrwt>
<rscale>  0 0.63689532E+02</rscale>
<asrwt>0</asrwt>
<pdfrwt beam="1">  1        3 0.80532949E-01 0.63689532E+02</pdfrwt>
<pdfrwt beam="2">  1       -3 0.29804086E-03 0.63689532E+02</pdfrwt>
<totfact> 0.44169511E+04</totfact>
</mgrwt>
</event>
<event>
 4    1  0.7692565E-003  0.5186935E+02  0.7818608E-02  0.1435512E+00
          3   -1    0    0    0  501  0.00000000000E+00  0.00000000000E+00  0.14219072564E+03  0.14219076151E+03  0.10100000000E+00 0. -1.
         -3   -1    0    0  501    0 -0.00000000000E+00 -0.00000000000E+00 -0.47297427490E+01  0.47308210146E+01  0.10100000000E+00 0. -1.
          2    1    1    2    0  502 -0.89718046583E+01 -0.22278782514E+02  0.96450249898E+02  0.99395614294E+02  0.25500000000E-02 0.  1.
         -2    1    1    2  502    0  0.89718046583E+01  0.22278782514E+02  0.41010732994E+02  0.47525968231E+02  0.25500000000E-02 0.  1.
<mgrwt>
<rscale>  0 0.51869351E+02</rscale>
<asrwt>0</asrwt>
<pdfrwt beam="1">  1        3 0.21875583E-01 0.51869351E+02</pdfrwt>
<pdfrwt beam="2">  1       -3 0.72773838E-03 0.51869351E+02</pdfrwt>
<totfact> 0.13742312E+05</totfact>
</mgrwt>
</event>
<event>
 4    1  0.7692565E-003  0.4949609E+02  0.7818608E-02  0.1448079E+00
         -3   -1    0    0  501    0 -0.00000000000E+00  0.00000000000E+00  0.64152341947E+01  0.64160292061E+01  0.10100000000E+00 0.  1.
          3   -1    0    0    0  501  0.00000000000E+00 -0.00000000000E+00 -0.95463793688E+02  0.95463847117E+02  0.10100000000E+00 0.  1.
          2    1    1    2    0  502 -0.20630196790E+02  0.12438233054E+02 -0.56195485133E+02  0.61141207193E+02  0.25500000000E-02 0. -1.
         -2    1    1    2  502    0  0.20630196790E+02 -0.12438233054E+02 -0.32853074360E+02  0.40738669130E+02  0.25500000000E-02 0. -1.
<mgrwt>
<rscale>  0 0.49496093E+02</rscale>
<asrwt>0</asrwt>
<pdfrwt beam="2">  1        3 0.14686802E-01 0.49496093E+02</pdfrwt>
<pdfrwt beam="1">  1       -3 0.98702444E-03 0.49496093E+02</pdfrwt>
<totfact> 0.17050181E+05</totfact>
</mgrwt>
</event>
<event>
 4    1  0.7692565E-003  0.6835531E+02  0.7818608E-02  0.1365777E+00
          3   -1    0    0    0  501  0.00000000000E+00  0.00000000000E+00  0.21925281508E+03  0.21925283834E+03  0.10100000000E+00 0.  1.
         -3   -1    0    0  501    0 -0.00000000000E+00 -0.00000000000E+00 -0.53271931898E+01  0.53281505498E+01  0.10100000000E+00 0.  1.
          2    1    1    2    0  502 -0.41503288615E+01  0.28353417919E+02  0.16816220128E+03  0.17058624646E+03  0.25500000000E-02 0. -1.
         -2    1    1    2  502    0  0.41503288615E+01 -0.28353417919E+02  0.45763420611E+02  0.53994742428E+02  0.25500000000E-02 0. -1.
<mgrwt>
<rscale>  0 0.68355313E+02</rscale>
<asrwt>0</asrwt>
<pdfrwt beam="1">  1        3 0.33731278E-01 0.68355313E+02</pdfrwt>
<pdfrwt beam="2">  1       -3 0.81964360E-03 0.68355313E+02</pdfrwt>
<totfact> 0.58439225E+04</totfact>
</mgrwt>
</event>
<event>
 4    1  0.7692565E-003  0.4290736E+02  0.7818608E-02  0.1487845E+00
          3   -1    0    0    0  501  0.00000000000E+00  0.00000000000E+00  0.64351597305E+01  0.64359522805E+01  0.10100000000E+00 0.  1.
         -3   -1    0    0  501    0 -0.00000000000E+00 -0.00000000000E+00 -0.71517525795E+02  0.71517597113E+02  0.10100000000E+00 0.  1.
          2    1    1    2    0  502 -0.17059508723E+02  0.12747316359E+02 -0.37257646336E+02  0.42914486239E+02  0.25500000000E-02 0. -1.
         -2    1    1    2  502    0  0.17059508723E+02 -0.12747316359E+02 -0.27824719729E+02  0.35039063154E+02  0.25500000000E-02 0. -1.
<mgrwt>
<rscale>  0 0.42907359E+02</rscale>
<asrwt>0</asrwt>
<pdfrwt beam="1">  1        3 0.99009108E-03 0.42907359E+02</pdfrwt>
<pdfrwt beam="2">  1       -3 0.11002762E-01 0.42907359E+02</pdfrwt>
<totfact> 0.25749001E+05</totfact>
</mgrwt>
</event>
<event>
 4    1  0.7692565E-003  0.6027990E+02  0.7818608E-02  0.1396661E+00
         -3   -1    0    0  501    0 -0.00000000000E+00  0.00000000000E+00  0.46362838704E+02  0.46362948717E+02  0.10100000000E+00 0. -1.
          3   -1    0    0    0  501  0.00000000000E+00 -0.00000000000E+00 -0.19593375689E+02  0.19593636005E+02  0.10100000000E+00 0. -1.
          2    1    1    2    0  502 -0.23717636292E+02 -0.16891313447E+02  0.21900594452E+02  0.36434582269E+02  0.25500000000E-02 0. -1.
         -2    1    1    2  502    0  0.23717636292E+02  0.16891313447E+02  0.48688685636E+01  0.29522002453E+02  0.25500000000E-02 0. -1.
<mgrwt>
<rscale>  0 0.60279905E+02</rscale>
<asrwt>0</asrwt>
<pdfrwt beam="2">  1        3 0.30143940E-02 0.60279905E+02</pdfrwt>
<pdfrwt beam="1">  1       -3 0.71327728E-02 0.60279905E+02</pdfrwt>
<totfact> 0.11247372E+05</totfact>
</mgrwt>
</event>
<event>
 4    1  0.7692565E-003  0.5378490E+02  0.7818608E-02  0.1425934E+00
          3   -1    0    0    0  501  0.00000000000E+00  0.00000000000E+00  0.69916020885E+01  0.69923315685E+01  0.10100000000E+00 0. -1.
         -3   -1    0    0  501    0 -0.00000000000E+00 -0.00000000000E+00 -0.10343278478E+03  0.10343283409E+03  0.10100000000E+00 0. -1.
          2    1    1    2    0  502 -0.20576395002E+02  0.74060720489E+00 -0.83737679327E+02  0.86231870419E+02  0.25500000000E-02 0.  1.
         -2    1    1    2  502    0  0.20576395002E+02 -0.74060720489E+00 -0.12703503360E+02  0.24193295237E+02  0.25500000000E-02 0.  1.
<mgrwt>
<rscale>  0 0.53784900E+02</rscale>
<asrwt>0</asrwt>
<pdfrwt beam="1">  1        3 0.10756911E-02 0.53784900E+02</pdfrwt>
<pdfrwt beam="2">  1       -3 0.15912795E-01 0.53784900E+02</pdfrwt>
<totfact> 0.13565352E+05</totfact>
</mgrwt>
</event>
<event>
 4    1  0.7692565E-003  0.5759538E+02  0.7818608E-02  0.1408209E+00
         -3   -1    0    0  501    0 -0.00000000000E+00  0.00000000000E+00  0.92130608018E+01  0.92136144014E+01  0.10100000000E+00 0.  1.
          3   -1    0    0    0  501  0.00000000000E+00 -0.00000000000E+00 -0.90010980141E+02  0.90011036806E+02  0.10100000000E+00 0.  1.
          2    1    1    2    0  502  0.99231662008E+01  0.20275596583E+02 -0.95934091436E+01  0.24527587524E+02  0.25500000000E-02 0. -1.
         -2    1    1    2  502    0 -0.99231662008E+01 -0.20275596583E+02 -0.71204510195E+02  0.74697063683E+02  0.25500000000E-02 0. -1.
<mgrwt>
<rscale>  0 0.57595379E+02</rscale>
<asrwt>0</asrwt>
<pdfrwt beam="2">  1        3 0.13847889E-01 0.57595379E+02</pdfrwt>
<pdfrwt beam="1">  1       -3 0.14174410E-02 0.57595379E+02</pdfrwt>
<totfact> 0.11684715E+05</totfact>
</mgrwt>
</event>
<event>
 4    1  0.7692565E-003  0.5467291E+02  0.7818608E-02  0.1421652E+00
          3   -1    0    0    0  501  0.00000000000E+00  0.00000000000E+00  0.19318774505E+03  0.19318777145E+03  0.10100000000E+00 0.  1.
         -3   -1    0    0  501    0 -0.00000000000E+00 -0.00000000000E+00 -0.38674772542E+01  0.38687958477E+01  0.10100000000E+00 0.  1.
          2    1    1    2    0  502 -0.24454167868E+02  0.38960532150E+01  0.13639768041E+03  0.13862724402E+03  0.25500000000E-02 0.  1.
         -2    1    1    2  502    0  0.24454167868E+02 -0.38960532150E+01  0.52922587382E+02  0.58429323276E+02  0.25500000000E-02 0.  1.
<mgrwt>
<rscale>  0 0.54672908E+02</rscale>
<asrwt>0</asrwt>
<pdfrwt beam="1">  1        3 0.29721295E-01 0.54672908E+02</pdfrwt>
<pdfrwt beam="2">  1       -3 0.59509996E-03 0.54672908E+02</pdfrwt>
<totfact> 0.10895369E+05</totfact>
</mgrwt>
</event>
<event>
 4    1  0.7692565E-003  0.6292362E+02  0.7818608E-02  0.1385957E+00
          3   -1    0    0    0  501  0.00000000000E+00  0.00000000000E+00  0.27728965852E+02  0.27729149792E+02  0.10100000000E+00 0.  1.
         -3   -1    0    0  501    0 -0.00000000000E+00 -0.00000000000E+00 -0.35696792904E+02  0.35696935788E+02  0.10100000000E+00 0.  1.
          2    1    1    2    0  502  0.27601947044E+02  0.70488752670E+01  0.94752907455E+01  0.30022246158E+02  0.25500000000E-02 0.  1.
         -2    1    1    2  502    0 -0.27601947044E+02 -0.70488752670E+01 -0.17443117798E+02  0.33403839422E+02  0.25500000000E-02 0.  1.
<mgrwt>
<rscale>  0 0.62923621E+02</rscale>
<asrwt>0</asrwt>
<pdfrwt beam="1">  1        3 0.42660198E-02 0.62923621E+02</pdfrwt>
<pdfrwt beam="2">  1       -3 0.54918395E-02 0.62923621E+02</pdfrwt>
<totfact> 0.10125707E+05</totfact>
</mgrwt>
</event>
<event>
 4    1  0.7692565E-003  0.6676954E+02  0.7818608E-02  0.1371436E+00
         -3   -1    0    0  501    0 -0.00000000000E+00  0.00000000000E+00  0.19094596469E+02  0.19094863585E+02  0.10100000000E+00 0. -1.
          3   -1    0    0    0  501  0.00000000000E+00 -0.00000000000E+00 -0.58368828800E+02  0.58368916184E+02  0.10100000000E+00 0. -1.
          2    1    1    2    0  502 -0.35916761055E+01  0.21899467665E+02 -0.48572887934E+02  0.53402362026E+02  0.25500000000E-02 0. -1.
         -2    1    1    2  502    0  0.35916761055E+01 -0.21899467665E+02  0.92986556029E+01  0.24061417743E+02  0.25500000000E-02 0. -1.
<mgrwt>
<rscale>  0 0.66769543E+02</rscale>
<asrwt>0</asrwt>
<pdfrwt beam="2">  1        3 0.89798470E-02 0.66769543E+02</pdfrwt>
<pdfrwt beam="1">  1       -3 0.29376575E-02 0.66769543E+02</pdfrwt>
<totfact> 0.83808472E+04</totfact>
</mgrwt>
</event>
<event>
 4    1  0.7692565E-003  0.1930580E+03  0.7818608E-02  0.1155732E+00
         -3   -1    0    0  501    0 -0.00000000000E+00  0.00000000000E+00  0.27520384108E+03  0.27520385961E+03  0.10100000000E+00 0. -1.
          3   -1    0    0    0  501  0.00000000000E+00 -0.00000000000E+00 -0.33857897795E+02  0.33858048439E+02  0.10100000000E+00 0. -1.
          2    1    1    2    0  502 -0.37636490887E+02  0.88288771202E+02  0.13718894375E+03  0.16742824988E+03  0.25500000000E-02 0. -1.
         -2    1    1    2  502    0  0.37636490887E+02 -0.88288771202E+02  0.10415699954E+03  0.14163365817E+03  0.25500000000E-02 0. -1.
<mgrwt>
<rscale>  0 0.19305802E+03</rscale>
<asrwt>0</asrwt>
<pdfrwt beam="2">  1        3 0.52089203E-02 0.19305802E+03</pdfrwt>
<pdfrwt beam="1">  1       -3 0.42339066E-01 0.19305802E+03</pdfrwt>
<totfact> 0.28837589E+03</totfact>
</mgrwt>
</event>
<event>
 4    1  0.7692565E-003  0.6027668E+02  0.7818608E-02  0.1396674E+00
          3   -1    0    0    0  501  0.00000000000E+00  0.00000000000E+00  0.32208436752E+00  0.33754901837E+00  0.10100000000E+00 0. -1.
         -3   -1    0    0  501    0 -0.00000000000E+00 -0.00000000000E+00 -0.27539977862E+04  0.27539977881E+04  0.10100000000E+00 0. -1.
          2    1    1    2    0  502 -0.18864801514E+02  0.21804721489E+02 -0.97588538598E+03  0.97631122763E+03  0.25500000000E-02 0. -1.
         -2    1    1    2  502    0  0.18864801514E+02 -0.21804721489E+02 -0.17777903159E+04  0.17780241095E+04  0.25500000000E-02 0. -1.
<mgrwt>
<rscale>  0 0.60276680E+02</rscale>
<asrwt>0</asrwt>
<pdfrwt beam="1">  1        3 0.50743378E-04 0.60276680E+02</pdfrwt>
<pdfrwt beam="2">  1       -3 0.42367474E+00 0.60276680E+02</pdfrwt>
<totfact> 0.43234358E+03</totfact>
</mgrwt>
</event>
<event>
 4    1  0.7692565E-003  0.5549194E+02  0.7818608E-02  0.1417787E+00
          3   -1    0    0    0  501  0.00000000000E+00  0.00000000000E+00  0.72972674750E+02  0.72972744646E+02  0.10100000000E+00 0. -1.
         -3   -1    0    0  501    0 -0.00000000000E+00 -0.00000000000E+00 -0.10549368478E+02  0.10549851956E+02  0.10100000000E+00 0. -1.
          2    1    1    2    0  502  0.12856578589E+02  0.24175730865E+02  0.24466861634E+02  0.36720360845E+02  0.25500000000E-02 0. -1.
         -2    1    1    2  502    0 -0.12856578589E+02 -0.24175730865E+02  0.37956444638E+02  0.46802235757E+02  0.25500000000E-02 0. -1.
<mgrwt>
<rscale>  0 0.55491936E+02</rscale>
<asrwt>0</asrwt>
<pdfrwt beam="1">  1        3 0.11226608E-01 0.55491936E+02</pdfrwt>
<pdfrwt beam="2">  1       -3 0.16230223E-02 0.55491936E+02</pdfrwt>
<totfact> 0.13329571E+05</totfact>
</mgrwt>
</event>
<event>
 4    1  0.7692565E-003  0.4737267E+02  0.7818608E-02  0.1460051E+00
          3   -1    0    0    0  501  0.00000000000E+00  0.00000000000E+00  0.63574400190E+02  0.63574480419E+02  0.10100000000E+00 0.  1.
         -3   -1    0    0  501    0 -0.00000000000E+00 -0.00000000000E+00 -0.88245993862E+01  0.88251773538E+01  0.10100000000E+00 0.  1.
          2    1    1    2    0  502 -0.41719434001E+01 -0.21502659764E+02  0.41152756897E+02  0.46618868448E+02  0.25500000000E-02 0. -1.
         -2    1    1    2  502    0  0.41719434001E+01  0.21502659764E+02  0.13597043907E+02  0.25780789325E+02  0.25500000000E-02 0. -1.
<mgrwt>
<rscale>  0 0.47372669E+02</rscale>
<asrwt>0</asrwt>
<pdfrwt beam="1">  1        3 0.97807277E-02 0.47372669E+02</pdfrwt>
<pdfrwt beam="2">  1       -3 0.13576813E-02 0.47372669E+02</pdfrwt>
<totfact> 0.20422073E+05</totfact>
</mgrwt>
</event>
<event>
 4    1  0.7692565E-003  0.4695112E+02  0.7818608E-02  0.1462516E+00
          3   -1    0    0    0  501  0.00000000000E+00  0.00000000000E+00  0.27120493087E+03  0.27120494967E+03  0.10100000000E+00 0.  1.
         -3   -1    0    0  501    0 -0.00000000000E+00 -0.00000000000E+00 -0.20307761671E+01  0.20332862172E+01  0.10100000000E+00 0.  1.
          2    1    1    2    0  502 -0.10986287516E+02 -0.20087429619E+02  0.16476996078E+03  0.16635306827E+03  0.25500000000E-02 0. -1.
         -2    1    1    2  502    0  0.10986287516E+02  0.20087429619E+02  0.10440419392E+03  0.10688516762E+03  0.25500000000E-02 0. -1.
<mgrwt>
<rscale>  0 0.46951123E+02</rscale>
<asrwt>0</asrwt>
<pdfrwt beam="1">  1        3 0.41724048E-01 0.46951123E+02</pdfrwt>
<pdfrwt beam="2">  1       -3 0.31262150E-03 0.46951123E+02</pdfrwt>
<totfact> 0.13883259E+05</totfact>
</mgrwt>
</event>
<event>
 4    1  0.7692565E-003  0.6037227E+02  0.7818608E-02  0.1396276E+00
         -3   -1    0    0  501    0 -0.00000000000E+00  0.00000000000E+00  0.18372553863E+01  0.18400294440E+01  0.10100000000E+00 0. -1.
          3   -1    0    0    0  501  0.00000000000E+00 -0.00000000000E+00 -0.49558178048E+03  0.49558179078E+03  0.10100000000E+00 0. -1.
          2    1    1    2    0  502 -0.24530792772E+02 -0.14719818610E+02 -0.16751422247E+03  0.16993954098E+03  0.25500000000E-02 0. -1.
         -2    1    1    2  502    0  0.24530792772E+02  0.14719818610E+02 -0.32623030263E+03  0.32748227924E+03  0.25500000000E-02 0. -1.
<mgrwt>
<rscale>  0 0.60372272E+02</rscale>
<asrwt>0</asrwt>
<pdfrwt beam="2">  1        3 0.76243459E-01 0.60372272E+02</pdfrwt>
<pdfrwt beam="1">  1       -3 0.28286925E-03 0.60372272E+02</pdfrwt>
<totfact> 0.52568489E+04</totfact>
</mgrwt>
</event>
<event>
 4    1  0.7692565E-003  0.6771136E+02  0.7818608E-02  0.1368053E+00
          3   -1    0    0    0  501  0.00000000000E+00  0.00000000000E+00  0.43921835149E+02  0.43921951275E+02  0.10100000000E+00 0. -1.
         -3   -1    0    0  501    0 -0.00000000000E+00 -0.00000000000E+00 -0.26096273273E+02  0.26096468721E+02  0.10100000000E+00 0. -1.
          2    1    1    2    0  502  0.19668600464E+02  0.16422716866E+02  0.31794707786E+02  0.40834579992E+02  0.25500000000E-02 0.  1.
         -2    1    1    2  502    0 -0.19668600464E+02 -0.16422716866E+02 -0.13969145910E+02  0.29183840004E+02  0.25500000000E-02 0.  1.
<mgrwt>
<rscale>  0 0.67711362E+02</rscale>
<asrwt>0</asrwt>
<pdfrwt beam="1">  1        3 0.67572293E-02 0.67711362E+02</pdfrwt>
<pdfrwt beam="2">  1       -3 0.40148353E-02 0.67711362E+02</pdfrwt>
<totfact> 0.82227534E+04</totfact>
</mgrwt>
</event>
<event>
 4    1  0.7692565E-003  0.5303830E+02  0.7818608E-02  0.1429610E+00
          3   -1    0    0    0  501  0.00000000000E+00  0.00000000000E+00  0.10376611579E+04  0.10376611628E+04  0.10100000000E+00 0.  1.
         -3   -1    0    0  501    0 -0.00000000000E+00 -0.00000000000E+00 -0.67397308676E+00  0.68149887870E+00  0.10100000000E+00 0.  1.
          2    1    1    2    0  502 -0.15253360112E+02 -0.15462041479E+02  0.22060720486E+03  0.22167381118E+03  0.25500000000E-02 0.  1.
         -2    1    1    2  502    0  0.15253360112E+02  0.15462041479E+02  0.81637997996E+03  0.81666885052E+03  0.25500000000E-02 0.  1.
<mgrwt>
<rscale>  0 0.53038303E+02</rscale>
<asrwt>0</asrwt>
<pdfrwt beam="1">  1        3 0.15964034E+00 0.53038303E+02</pdfrwt>
<pdfrwt beam="2">  1       -3 0.10426772E-03 0.53038303E+02</pdfrwt>
<totfact> 0.38907965E+04</totfact>
</mgrwt>
</event>
<event>
 4    1  0.7692565E-003  0.4358402E+02  0.7818608E-02  0.1483380E+00
         -3   -1    0    0  501    0 -0.00000000000E+00  0.00000000000E+00  0.28522751925E+01  0.28540628539E+01  0.10100000000E+00 0.  1.
          3   -1    0    0    0  501  0.00000000000E+00 -0.00000000000E+00 -0.16644175326E+03  0.16644178390E+03  0.10100000000E+00 0.  1.
          2    1    1    2    0  502  0.15202760492E+02  0.15496810052E+02 -0.89181702257E+02  0.91785898003E+02  0.25500000000E-02 0.  1.
         -2    1    1    2  502    0 -0.15202760492E+02 -0.15496810052E+02 -0.74407775807E+02  0.77509948751E+02  0.25500000000E-02 0.  1.
<mgrwt>
<rscale>  0 0.43584015E+02</rscale>
<asrwt>0</asrwt>
<pdfrwt beam="2">  1        3 0.25606556E-01 0.43584015E+02</pdfrwt>
<pdfrwt beam="1">  1       -3 0.43895157E-03 0.43584015E+02</pdfrwt>
<totfact> 0.20214916E+05</totfact>
</mgrwt>
</event>
<event>
 4    1  0.7692565E-003  0.4672890E+02  0.7818608E-02  0.1463828E+00
          3   -1    0    0    0  501  0.00000000000E+00  0.00000000000E+00  0.68859521904E+02  0.68859595975E+02  0.10100000000E+00 0.  1.
         -3   -1    0    0  501    0 -0.00000000000E+00 -0.00000000000E+00 -0.79272999173E+01  0.79279433007E+01  0.10100000000E+00 0.  1.
          2    1    1    2    0  502  0.22618103542E+02  0.52586148159E+00  0.40053840383E+02  0.46001796422E+02  0.25500000000E-02 0. -1.
         -2    1    1    2  502    0 -0.22618103542E+02 -0.52586148159E+00  0.20878381604E+02  0.30785742854E+02  0.25500000000E-02 0. -1.
<mgrwt>
<rscale>  0 0.46728904E+02</rscale>
<asrwt>0</asrwt>
<pdfrwt beam="1">  1        3 0.10593827E-01 0.46728904E+02</pdfrwt>
<pdfrwt beam="2">  1       -3 0.12196398E-02 0.46728904E+02</pdfrwt>
<totfact> 0.20900421E+05</totfact>
</mgrwt>
</event>
<event>
 4    1  0.7692565E-003  0.5261392E+02  0.7818608E-02  0.1431732E+00
          3   -1    0    0    0  501  0.00000000000E+00  0.00000000000E+00  0.36910572646E+01  0.36924388594E+01  0.10100000000E+00 0. -1.
         -3   -1    0    0  501    0 -0.00000000000E+00 -0.00000000000E+00 -0.18745889732E+03  0.18745892453E+03  0.10100000000E+00 0. -1.
          2    1    1    2    0  502  0.16706335026E+02  0.18338441955E+02 -0.60074918290E+02  0.64995352891E+02  0.25500000000E-02 0.  1.
         -2    1    1    2  502    0 -0.16706335026E+02 -0.18338441955E+02 -0.12369292177E+03  0.12615601050E+03  0.25500000000E-02 0.  1.
<mgrwt>
<rscale>  0 0.52613921E+02</rscale>
<asrwt>0</asrwt>
<pdfrwt beam="1">  1        3 0.56796348E-03 0.52613921E+02</pdfrwt>
<pdfrwt beam="2">  1       -3 0.28839931E-01 0.52613921E+02</pdfrwt>
<totfact> 0.12138840E+05</totfact>
</mgrwt>
</event>
<event>
 4    1  0.7692565E-003  0.5189643E+02  0.7818608E-02  0.1435373E+00
          3   -1    0    0    0  501  0.00000000000E+00  0.00000000000E+00  0.10059054730E+03  0.10059059801E+03  0.10100000000E+00 0.  1.
         -3   -1    0    0  501    0 -0.00000000000E+00 -0.00000000000E+00 -0.66931357028E+01  0.66938977089E+01  0.10100000000E+00 0.  1.
          2    1    1    2    0  502  0.11193535022E+02 -0.20617510642E+02  0.24027714503E+02  0.33581364506E+02  0.25500000000E-02 0. -1.
         -2    1    1    2  502    0 -0.11193535022E+02  0.20617510642E+02  0.69869697098E+02  0.73703131212E+02  0.25500000000E-02 0. -1.
<mgrwt>
<rscale>  0 0.51896427E+02</rscale>
<asrwt>0</asrwt>
<pdfrwt beam="1">  1        3 0.15475532E-01 0.51896427E+02</pdfrwt>
<pdfrwt beam="2">  1       -3 0.10297757E-02 0.51896427E+02</pdfrwt>
<totfact> 0.14953612E+05</totfact>
</mgrwt>
</event>
<event>
 4    1  0.7692565E-003  0.4443420E+02  0.7818608E-02  0.1477905E+00
          3   -1    0    0    0  501  0.00000000000E+00  0.00000000000E+00  0.86009725905E+01  0.86015655844E+01  0.10100000000E+00 0.  1.
         -3   -1    0    0  501    0 -0.00000000000E+00 -0.00000000000E+00 -0.57386200024E+02  0.57386288905E+02  0.10100000000E+00 0.  1.
          2    1    1    2    0  502 -0.22097062706E+02  0.22879933377E+01 -0.23960842092E+02  0.32674715822E+02  0.25500000000E-02 0.  1.
         -2    1    1    2  502    0  0.22097062706E+02 -0.22879933377E+01 -0.24824385342E+02  0.33313138667E+02  0.25500000000E-02 0.  1.
<mgrwt>
<rscale>  0 0.44434204E+02</rscale>
<asrwt>0</asrwt>
<pdfrwt beam="1">  1        3 0.13232790E-02 0.44434204E+02</pdfrwt>
<pdfrwt beam="2">  1       -3 0.88286984E-02 0.44434204E+02</pdfrwt>
<totfact> 0.24347087E+05</totfact>
</mgrwt>
</event>
<event>
 4    1  0.7692565E-003  0.8034294E+02  0.7818608E-02  0.1328081E+00
          3   -1    0    0    0  501  0.00000000000E+00  0.00000000000E+00  0.17371241874E+03  0.17371244810E+03  0.10100000000E+00 0.  1.
         -3   -1    0    0  501    0 -0.00000000000E+00 -0.00000000000E+00 -0.92894568980E+01  0.92900059451E+01  0.10100000000E+00 0.  1.
          2    1    1    2    0  502  0.12390634945E+02 -0.25597828045E+02  0.14683626897E+03  0.14956492412E+03  0.25500000000E-02 0. -1.
         -2    1    1    2  502    0 -0.12390634945E+02  0.25597828045E+02  0.17586692869E+02  0.33437529926E+02  0.25500000000E-02 0. -1.
<mgrwt>
<rscale>  0 0.80342939E+02</rscale>
<asrwt>0</asrwt>
<pdfrwt beam="1">  1        3 0.26725030E-01 0.80342939E+02</pdfrwt>
<pdfrwt beam="2">  1       -3 0.14291918E-02 0.80342939E+02</pdfrwt>
<totfact> 0.41257564E+04</totfact>
</mgrwt>
</event>
<event>
 4    1  0.7692565E-003  0.4919213E+02  0.7818608E-02  0.1449748E+00
          3   -1    0    0    0  501  0.00000000000E+00  0.00000000000E+00  0.99104635673E+02  0.99104687139E+02  0.10100000000E+00 0. -1.
         -3   -1    0    0  501    0 -0.00000000000E+00 -0.00000000000E+00 -0.61038500932E+01  0.61046856561E+01  0.10100000000E+00 0. -1.
          2    1    1    2    0  502 -0.24109907363E+02 -0.84626584130E+00  0.56749126516E+02  0.61664148139E+02  0.25500000000E-02 0. -1.
         -2    1    1    2  502    0  0.24109907363E+02  0.84626584130E+00  0.36251659064E+02  0.43545224656E+02  0.25500000000E-02 0. -1.
<mgrwt>
<rscale>  0 0.49192134E+02</rscale>
<asrwt>0</asrwt>
<pdfrwt beam="1">  1        3 0.15246935E-01 0.49192134E+02</pdfrwt>
<pdfrwt beam="2">  1       -3 0.93912214E-03 0.49192134E+02</pdfrwt>
<totfact> 0.17183223E+05</totfact>
</mgrwt>
</event>
<event>
 4    1  0.7692565E-003  0.4866191E+02  0.7818608E-02  0.1452695E+00
         -3   -1    0    0  501    0 -0.00000000000E+00  0.00000000000E+00  0.53228783246E+03  0.53228784204E+03  0.10100000000E+00 0. -1.
          3   -1    0    0    0  501  0.00000000000E+00 -0.00000000000E+00 -0.11098690334E+01  0.11144551455E+01  0.10100000000E+00 0. -1.
          2    1    1    2    0  502 -0.23498686886E+02 -0.23600532928E+01  0.20145096593E+03  0.20283059388E+03  0.25500000000E-02 0. -1.
         -2    1    1    2  502    0  0.23498686886E+02  0.23600532928E+01  0.32972699750E+03  0.33057170330E+03  0.25500000000E-02 0. -1.
<mgrwt>
<rscale>  0 0.48661913E+02</rscale>
<asrwt>0</asrwt>
<pdfrwt beam="2">  1        3 0.17110255E-03 0.48661913E+02</pdfrwt>
<pdfrwt beam="1">  1       -3 0.81890810E-01 0.48661913E+02</pdfrwt>
<totfact> 0.85775129E+04</totfact>
</mgrwt>
</event>
<event>
 4    1  0.7692565E-003  0.6476113E+02  0.7818608E-02  0.1378872E+00
          3   -1    0    0    0  501  0.00000000000E+00  0.00000000000E+00  0.34588876934E+01  0.34603619862E+01  0.10100000000E+00 0. -1.
         -3   -1    0    0  501    0 -0.00000000000E+00 -0.00000000000E+00 -0.30306637395E+03  0.30306639078E+03  0.10100000000E+00 0. -1.
          2    1    1    2    0  502 -0.88840501239E+01 -0.19763758545E+02 -0.26369265526E+03  0.26458145994E+03  0.25500000000E-02 0.  1.
         -2    1    1    2  502    0  0.88840501239E+01  0.19763758545E+02 -0.35914830999E+02  0.41945292830E+02  0.25500000000E-02 0.  1.
<mgrwt>
<rscale>  0 0.64761133E+02</rscale>
<asrwt>0</asrwt>
<pdfrwt beam="1">  1        3 0.53225151E-03 0.64761133E+02</pdfrwt>
<pdfrwt beam="2">  1       -3 0.46625690E-01 0.64761133E+02</pdfrwt>
<totfact> 0.58395070E+04</totfact>
</mgrwt>
</event>
<event>
 4    1  0.7692565E-003  0.4524660E+02  0.7818608E-02  0.1472808E+00
          3   -1    0    0    0  501  0.00000000000E+00  0.00000000000E+00  0.69354745683E+00  0.70086309282E+00  0.10100000000E+00 0.  1.
         -3   -1    0    0  501    0 -0.00000000000E+00 -0.00000000000E+00 -0.73408598844E+03  0.73408599539E+03  0.10100000000E+00 0.  1.
          2    1    1    2    0  502 -0.22617898398E+02 -0.35322460000E+00 -0.37231296873E+03  0.37299951848E+03  0.25500000000E-02 0.  1.
         -2    1    1    2  502    0  0.22617898398E+02  0.35322460000E+00 -0.36107947226E+03  0.36178734001E+03  0.25500000000E-02 0.  1.
<mgrwt>
<rscale>  0 0.45246601E+02</rscale>
<asrwt>0</asrwt>
<pdfrwt beam="1">  1        3 0.10726347E-03 0.45246601E+02</pdfrwt>
<pdfrwt beam="2">  1       -3 0.11293625E+00 0.45246601E+02</pdfrwt>
<totfact> 0.79676860E+04</totfact>
</mgrwt>
</event>
<event>
 4    1  0.7692565E-003  0.5201146E+02  0.7818608E-02  0.1434785E+00
          3   -1    0    0    0  501  0.00000000000E+00  0.00000000000E+00  0.12070830820E+03  0.12070835045E+03  0.10100000000E+00 0. -1.
         -3   -1    0    0  501    0 -0.00000000000E+00 -0.00000000000E+00 -0.56022477224E+01  0.56031580866E+01  0.10100000000E+00 0. -1.
          2    1    1    2    0  502  0.75120601178E+01  0.20761900000E+02  0.24182976943E+02  0.32746051963E+02  0.25500000000E-02 0.  1.
         -2    1    1    2  502    0 -0.75120601178E+01 -0.20761900000E+02  0.90923083531E+02  0.93565456575E+02  0.25500000000E-02 0.  1.
<mgrwt>
<rscale>  0 0.52011461E+02</rscale>
<asrwt>0</asrwt>
<pdfrwt beam="1">  1        3 0.18570581E-01 0.52011461E+02</pdfrwt>
<pdfrwt beam="2">  1       -3 0.86195759E-03 0.52011461E+02</pdfrwt>
<totfact> 0.14257683E+05</totfact>
</mgrwt>
</event>
<event>
 4    1  0.7692565E-003  0.4008764E+02  0.7818608E-02  0.1507567E+00
          3   -1    0    0    0  501  0.00000000000E+00  0.00000000000E+00  0.49681914663E+00  0.50698152280E+00  0.10100000000E+00 0. -1.
         -3   -1    0    0  501    0 -0.00000000000E+00 -0.00000000000E+00 -0.80045705274E+03  0.80045705911E+03  0.10100000000E+00 0. -1.
          2    1    1    2    0  502  0.14566561794E+02  0.13741151102E+02 -0.38266739820E+03  0.38319099886E+03  0.25500000000E-02 0. -1.
         -2    1    1    2  502    0 -0.14566561794E+02 -0.13741151102E+02 -0.41729283540E+03  0.41777304178E+03  0.25500000000E-02 0. -1.
<mgrwt>
<rscale>  0 0.40087642E+02</rscale>
<asrwt>0</asrwt>
<pdfrwt beam="1">  1        3 0.77216567E-04 0.40087642E+02</pdfrwt>
<pdfrwt beam="2">  1       -3 0.12314700E+00 0.40087642E+02</pdfrwt>
<totfact> 0.98992163E+04</totfact>
</mgrwt>
</event>
<event>
 4    1  0.7692565E-003  0.7099689E+02  0.7818608E-02  0.1356736E+00
          3   -1    0    0    0  501  0.00000000000E+00  0.00000000000E+00  0.29851349722E+03  0.29851351431E+03  0.10100000000E+00 0. -1.
         -3   -1    0    0  501    0 -0.00000000000E+00 -0.00000000000E+00 -0.42207614383E+01  0.42219696966E+01  0.10100000000E+00 0. -1.
          2    1    1    2    0  502  0.33893040499E+02  0.39546330488E+01  0.10541894943E+03  0.11080402620E+03  0.25500000000E-02 0.  1.
         -2    1    1    2  502    0 -0.33893040499E+02 -0.39546330488E+01  0.18887378635E+03  0.19193145780E+03  0.25500000000E-02 0.  1.
<mgrwt>
<rscale>  0 0.70996894E+02</rscale>
<asrwt>0</asrwt>
<pdfrwt beam="1">  1        3 0.45925258E-01 0.70996894E+02</pdfrwt>
<pdfrwt beam="2">  1       -3 0.64944203E-03 0.70996894E+02</pdfrwt>
<totfact> 0.46336145E+04</totfact>
</mgrwt>
</event>
<event>
 4    1  0.7692565E-003  0.5479467E+02  0.7818608E-02  0.1421072E+00
         -3   -1    0    0  501    0 -0.00000000000E+00  0.00000000000E+00  0.16342213419E+02  0.16342525522E+02  0.10100000000E+00 0. -1.
          3   -1    0    0    0  501  0.00000000000E+00 -0.00000000000E+00 -0.45930178540E+02  0.45930289589E+02  0.10100000000E+00 0. -1.
          2    1    1    2    0  502 -0.14679801815E+02 -0.20678297520E+02 -0.30093599949E+01  0.25537126380E+02  0.25500000000E-02 0.  1.
         -2    1    1    2  502    0  0.14679801815E+02  0.20678297520E+02 -0.26578605125E+02  0.36735688731E+02  0.25500000000E-02 0.  1.
<mgrwt>
<rscale>  0 0.54794670E+02</rscale>
<asrwt>0</asrwt>
<pdfrwt beam="2">  1        3 0.70662138E-02 0.54794670E+02</pdfrwt>
<pdfrwt beam="1">  1       -3 0.25142193E-02 0.54794670E+02</pdfrwt>
<totfact> 0.14506402E+05</totfact>
</mgrwt>
</event>
<event>
 4    1  0.7692565E-003  0.8201082E+02  0.7818608E-02  0.1323440E+00
         -3   -1    0    0  501    0 -0.00000000000E+00  0.00000000000E+00  0.30884280761E+02  0.30884445909E+02  0.10100000000E+00 0.  1.
          3   -1    0    0    0  501  0.00000000000E+00 -0.00000000000E+00 -0.54442990099E+02  0.54443083785E+02  0.10100000000E+00 0.  1.
          2    1    1    2    0  502 -0.22878099636E+01 -0.40939524569E+02 -0.11356876651E+02  0.42547119763E+02  0.25500000000E-02 0. -1.
         -2    1    1    2  502    0  0.22878099636E+01  0.40939524569E+02 -0.12201832688E+02  0.42780409930E+02  0.25500000000E-02 0. -1.
<mgrwt>
<rscale>  0 0.82010820E+02</rscale>
<asrwt>0</asrwt>
<pdfrwt beam="2">  1        3 0.83758645E-02 0.82010820E+02</pdfrwt>
<pdfrwt beam="1">  1       -3 0.47514477E-02 0.82010820E+02</pdfrwt>
<totfact> 0.47679720E+04</totfact>
</mgrwt>
</event>
<event>
 4    1  0.7692565E-003  0.8191636E+02  0.7818608E-02  0.1323699E+00
          3   -1    0    0    0  501  0.00000000000E+00  0.00000000000E+00  0.99512298645E+02  0.99512349900E+02  0.10100000000E+00 0. -1.
         -3   -1    0    0  501    0 -0.00000000000E+00 -0.00000000000E+00 -0.16857736073E+02  0.16858038632E+02  0.10100000000E+00 0. -1.
          2    1    1    2    0  502 -0.40560236535E+02  0.34538206859E+01  0.47761044049E+02  0.62754912160E+02  0.25500000000E-02 0. -1.
         -2    1    1    2  502    0  0.40560236535E+02 -0.34538206859E+01  0.34893518523E+02  0.53615476371E+02  0.25500000000E-02 0. -1.
<mgrwt>
<rscale>  0 0.81916364E+02</rscale>
<asrwt>0</asrwt>
<pdfrwt beam="1">  1        3 0.15309611E-01 0.81916364E+02</pdfrwt>
<pdfrwt beam="2">  1       -3 0.25935251E-02 0.81916364E+02</pdfrwt>
<totfact> 0.44710117E+04</totfact>
</mgrwt>
</event>
<event>
 4    1  0.7692565E-003  0.4061414E+02  0.7818608E-02  0.1503740E+00
          3   -1    0    0    0  501  0.00000000000E+00  0.00000000000E+00  0.64004070846E+01  0.64012039375E+01  0.10100000000E+00 0.  1.
         -3   -1    0    0  501    0 -0.00000000000E+00 -0.00000000000E+00 -0.64424976371E+02  0.64425055541E+02  0.10100000000E+00 0.  1.
          2    1    1    2    0  502 -0.35384889178E+01 -0.19995668681E+02 -0.29311406676E+02  0.35658186124E+02  0.25500000000E-02 0.  1.
         -2    1    1    2  502    0  0.35384889178E+01  0.19995668681E+02 -0.28713162611E+02  0.35168073354E+02  0.25500000000E-02 0.  1.
<mgrwt>
<rscale>  0 0.40614140E+02</rscale>
<asrwt>0</asrwt>
<pdfrwt beam="1">  1        3 0.98474544E-03 0.40614140E+02</pdfrwt>
<pdfrwt beam="2">  1       -3 0.99116018E-02 0.40614140E+02</pdfrwt>
<totfact> 0.29988644E+05</totfact>
</mgrwt>
</event>
<event>
 4    1  0.7692565E-003  0.5930181E+02  0.7818608E-02  0.1400785E+00
          3   -1    0    0    0  501  0.00000000000E+00  0.00000000000E+00  0.31153591083E+01  0.31169958892E+01  0.10100000000E+00 0.  1.
         -3   -1    0    0  501    0 -0.00000000000E+00 -0.00000000000E+00 -0.28213125707E+03  0.28213127514E+03  0.10100000000E+00 0.  1.
          2    1    1    2    0  502 -0.18410208231E+02 -0.22743722636E+02 -0.16255812279E+03  0.16517068741E+03  0.25500000000E-02 0. -1.
         -2    1    1    2  502    0  0.18410208231E+02  0.22743722636E+02 -0.11645777517E+03  0.12007758363E+03  0.25500000000E-02 0. -1.
<mgrwt>
<rscale>  0 0.59301811E+02</rscale>
<asrwt>0</asrwt>
<pdfrwt beam="1">  1        3 0.47941354E-03 0.59301811E+02</pdfrwt>
<pdfrwt beam="2">  1       -3 0.43404916E-01 0.59301811E+02</pdfrwt>
<totfact> 0.75770496E+04</totfact>
</mgrwt>
</event>
<event>
 4    1  0.7692565E-003  0.4927856E+02  0.7818608E-02  0.1449272E+00
          3   -1    0    0    0  501  0.00000000000E+00  0.00000000000E+00  0.12664666632E+02  0.12665069360E+02  0.10100000000E+00 0. -1.
         -3   -1    0    0  501    0 -0.00000000000E+00 -0.00000000000E+00 -0.47934842498E+02  0.47934948902E+02  0.10100000000E+00 0. -1.
          2    1    1    2    0  502 -0.22166855783E+02 -0.47494265484E+01 -0.29504995340E+02  0.37208484306E+02  0.25500000000E-02 0.  1.
         -2    1    1    2  502    0  0.22166855783E+02  0.47494265484E+01 -0.57651805256E+01  0.23391533956E+02  0.25500000000E-02 0.  1.
<mgrwt>
<rscale>  0 0.49278564E+02</rscale>
<asrwt>0</asrwt>
<pdfrwt beam="1">  1        3 0.19484494E-02 0.49278564E+02</pdfrwt>
<pdfrwt beam="2">  1       -3 0.73746302E-02 0.49278564E+02</pdfrwt>
<totfact> 0.19068057E+05</totfact>
</mgrwt>
</event>
<event>
 4    1  0.7692565E-003  0.6263131E+02  0.7818608E-02  0.1387110E+00
         -3   -1    0    0  501    0 -0.00000000000E+00  0.00000000000E+00  0.52957611292E+03  0.52957612255E+03  0.10100000000E+00 0.  1.
          3   -1    0    0    0  501  0.00000000000E+00 -0.00000000000E+00 -0.18504154193E+01  0.18531697774E+01  0.10100000000E+00 0.  1.
          2    1    1    2    0  502  0.17339013527E+02 -0.21577235961E+02  0.38811924978E+03  0.38910508935E+03  0.25500000000E-02 0.  1.
         -2    1    1    2  502    0 -0.17339013527E+02  0.21577235961E+02  0.13960644773E+03  0.14232420298E+03  0.25500000000E-02 0.  1.
<mgrwt>
<rscale>  0 0.62631310E+02</rscale>
<asrwt>0</asrwt>
<pdfrwt beam="2">  1        3 0.28489127E-03 0.62631310E+02</pdfrwt>
<pdfrwt beam="1">  1       -3 0.81473643E-01 0.62631310E+02</pdfrwt>
<totfact> 0.45670235E+04</totfact>
</mgrwt>
</event>
<event>
 4    1  0.7692565E-003  0.6004663E+02  0.7818608E-02  0.1397636E+00
         -3   -1    0    0  501    0 -0.00000000000E+00  0.00000000000E+00  0.58177586693E+03  0.58177587569E+03  0.10100000000E+00 0.  1.
          3   -1    0    0    0  501  0.00000000000E+00 -0.00000000000E+00 -0.15477383606E+01  0.15510303134E+01  0.10100000000E+00 0.  1.
          2    1    1    2    0  502 -0.14908541514E+02 -0.21885011151E+02  0.15266715192E+03  0.15494669278E+03  0.25500000000E-02 0.  1.
         -2    1    1    2  502    0  0.14908541514E+02  0.21885011151E+02  0.42756097665E+03  0.42838021322E+03  0.25500000000E-02 0.  1.
<mgrwt>
<rscale>  0 0.60046633E+02</rscale>
<asrwt>0</asrwt>
<pdfrwt beam="2">  1        3 0.23836750E-03 0.60046633E+02</pdfrwt>
<pdfrwt beam="1">  1       -3 0.89504230E-01 0.60046633E+02</pdfrwt>
<totfact> 0.47482999E+04</totfact>
</mgrwt>
</event>
<event>
 4    1  0.7692565E-003  0.4034000E+02  0.7818608E-02  0.1505724E+00
          3   -1    0    0    0  501  0.00000000000E+00  0.00000000000E+00  0.22598735065E+02  0.22598960763E+02  0.10100000000E+00 0. -1.
         -3   -1    0    0  501    0 -0.00000000000E+00 -0.00000000000E+00 -0.18001828233E+02  0.18002111563E+02  0.10100000000E+00 0. -1.
          2    1    1    2    0  502  0.10097274587E+02 -0.17372267002E+02  0.53260182971E+00  0.20100604123E+02  0.25500000000E-02 0. -1.
         -2    1    1    2  502    0 -0.10097274587E+02  0.17372267002E+02  0.40643050026E+01  0.20500468203E+02  0.25500000000E-02 0. -1.
<mgrwt>
<rscale>  0 0.40339999E+02</rscale>
<asrwt>0</asrwt>
<pdfrwt beam="1">  1        3 0.34767676E-02 0.40339999E+02</pdfrwt>
<pdfrwt beam="2">  1       -3 0.27695512E-02 0.40339999E+02</pdfrwt>
<totfact> 0.33101674E+05</totfact>
</mgrwt>
</event>
<event>
 4    1  0.7692565E-003  0.6387246E+02  0.7818608E-02  0.1382264E+00
         -3   -1    0    0  501    0 -0.00000000000E+00  0.00000000000E+00  0.39153926911E+02  0.39154057179E+02  0.10100000000E+00 0. -1.
          3   -1    0    0    0  501  0.00000000000E+00 -0.00000000000E+00 -0.26048784698E+02  0.26048980503E+02  0.10100000000E+00 0. -1.
          2    1    1    2    0  502  0.20982321957E+02 -0.89046567339E+01  0.29387555170E+02  0.37191116569E+02  0.25500000000E-02 0. -1.
         -2    1    1    2  502    0 -0.20982321957E+02  0.89046567339E+01 -0.16282412957E+02  0.28011921113E+02  0.25500000000E-02 0. -1.
<mgrwt>
<rscale>  0 0.63872462E+02</rscale>
<asrwt>0</asrwt>
<pdfrwt beam="2">  1        3 0.40075304E-02 0.63872462E+02</pdfrwt>
<pdfrwt beam="1">  1       -3 0.60237062E-02 0.63872462E+02</pdfrwt>
<totfact> 0.96951062E+04</totfact>
</mgrwt>
</event>
<event>
 4    1  0.7692565E-003  0.5695454E+02  0.7818608E-02  0.1411075E+00
          3   -1    0    0    0  501  0.00000000000E+00  0.00000000000E+00  0.12200818501E+02  0.12201236539E+02  0.10100000000E+00 0. -1.
         -3   -1    0    0  501    0 -0.00000000000E+00 -0.00000000000E+00 -0.66465654192E+02  0.66465730930E+02  0.10100000000E+00 0. -1.
          2    1    1    2    0  502  0.28354698974E+02  0.60336453981E+00 -0.30681339589E+02  0.41781546264E+02  0.25500000000E-02 0. -1.
         -2    1    1    2  502    0 -0.28354698974E+02 -0.60336453981E+00 -0.23583496101E+02  0.36885421206E+02  0.25500000000E-02 0. -1.
<mgrwt>
<rscale>  0 0.56954538E+02</rscale>
<asrwt>0</asrwt>
<pdfrwt beam="1">  1        3 0.18770871E-02 0.56954538E+02</pdfrwt>
<pdfrwt beam="2">  1       -3 0.10225523E-01 0.56954538E+02</pdfrwt>
<totfact> 0.12618539E+05</totfact>
</mgrwt>
</event>
<event>
 4    1  0.7692565E-003  0.7374284E+02  0.7818608E-02  0.1347809E+00
          3   -1    0    0    0  501  0.00000000000E+00  0.00000000000E+00  0.16258596662E+03  0.16258599799E+03  0.10100000000E+00 0. -1.
         -3   -1    0    0  501    0 -0.00000000000E+00 -0.00000000000E+00 -0.83614021605E+01  0.83620121436E+01  0.10100000000E+00 0. -1.
          2    1    1    2    0  502 -0.73612794556E+00  0.35847613789E+02  0.57183056465E+02  0.67494409041E+02  0.25500000000E-02 0. -1.
         -2    1    1    2  502    0  0.73612794556E+00 -0.35847613789E+02  0.97041507990E+02  0.10345360109E+03  0.25500000000E-02 0. -1.
<mgrwt>
<rscale>  0 0.73742836E+02</rscale>
<asrwt>0</asrwt>
<pdfrwt beam="1">  1        3 0.25013274E-01 0.73742836E+02</pdfrwt>
<pdfrwt beam="2">  1       -3 0.12864190E-02 0.73742836E+02</pdfrwt>
<totfact> 0.52962836E+04</totfact>
</mgrwt>
</event>
<event>
 4    1  0.7692565E-003  0.4971687E+02  0.7818608E-02  0.1446875E+00
          3   -1    0    0    0  501  0.00000000000E+00  0.00000000000E+00  0.72719051273E+02  0.72719121413E+02  0.10100000000E+00 0.  1.
         -3   -1    0    0  501    0 -0.00000000000E+00 -0.00000000000E+00 -0.84972847259E+01  0.84978849553E+01  0.10100000000E+00 0.  1.
          2    1    1    2    0  502 -0.63828547779E+01  0.22870935598E+02  0.44128734248E+02  0.50111532835E+02  0.25500000000E-02 0. -1.
         -2    1    1    2  502    0  0.63828547779E+01 -0.22870935598E+02  0.20093032300E+02  0.31105473533E+02  0.25500000000E-02 0. -1.
<mgrwt>
<rscale>  0 0.49716867E+02</rscale>
<asrwt>0</asrwt>
<pdfrwt beam="1">  1        3 0.11187598E-01 0.49716867E+02</pdfrwt>
<pdfrwt beam="2">  1       -3 0.13073261E-02 0.49716867E+02</pdfrwt>
<totfact> 0.17705747E+05</totfact>
</mgrwt>
</event>
<event>
 4    1  0.7692565E-003  0.4490465E+02  0.7818608E-02  0.1474938E+00
          3   -1    0    0    0  501  0.00000000000E+00  0.00000000000E+00  0.23571137147E+02  0.23571353534E+02  0.10100000000E+00 0.  1.
         -3   -1    0    0  501    0 -0.00000000000E+00 -0.00000000000E+00 -0.21386185790E+02  0.21386424284E+02  0.10100000000E+00 0.  1.
          2    1    1    2    0  502  0.15845864855E+02 -0.15549257547E+02  0.44484696959E+01  0.22641990469E+02  0.25500000000E-02 0. -1.
         -2    1    1    2  502    0 -0.15845864855E+02  0.15549257547E+02 -0.22635183387E+01  0.22315787349E+02  0.25500000000E-02 0. -1.
<mgrwt>
<rscale>  0 0.44904652E+02</rscale>
<asrwt>0</asrwt>
<pdfrwt beam="1">  1        3 0.36263638E-02 0.44904652E+02</pdfrwt>
<pdfrwt beam="2">  1       -3 0.32902174E-02 0.44904652E+02</pdfrwt>
<totfact> 0.25093858E+05</totfact>
</mgrwt>
</event>
<event>
 4    1  0.7692565E-003  0.4236368E+02  0.7818608E-02  0.1491504E+00
          3   -1    0    0    0  501  0.00000000000E+00  0.00000000000E+00  0.18087952448E+02  0.18088234429E+02  0.10100000000E+00 0. -1.
         -3   -1    0    0  501    0 -0.00000000000E+00 -0.00000000000E+00 -0.24804352114E+02  0.24804557743E+02  0.10100000000E+00 0. -1.
          2    1    1    2    0  502  0.86797367358E+01 -0.18308536801E+02  0.28938763339E+01  0.20467410103E+02  0.25500000000E-02 0.  1.
         -2    1    1    2  502    0 -0.86797367358E+01  0.18308536801E+02 -0.96102760003E+01  0.22425382068E+02  0.25500000000E-02 0.  1.
<mgrwt>
<rscale>  0 0.42363683E+02</rscale>
<asrwt>0</asrwt>
<pdfrwt beam="1">  1        3 0.27827994E-02 0.42363683E+02</pdfrwt>
<pdfrwt beam="2">  1       -3 0.38160917E-02 0.42363683E+02</pdfrwt>
<totfact> 0.29162674E+05</totfact>
</mgrwt>
</event>
<event>
 4    1  0.7692565E-003  0.4420558E+02  0.7818608E-02  0.1479363E+00
         -3   -1    0    0  501    0 -0.00000000000E+00  0.00000000000E+00  0.69252971118E+01  0.69260335753E+01  0.10100000000E+00 0.  1.
          3   -1    0    0    0  501  0.00000000000E+00 -0.00000000000E+00 -0.70538783587E+02  0.70538855895E+02  0.10100000000E+00 0.  1.
          2    1    1    2    0  502  0.20178561864E+02 -0.10595958539E+01 -0.47503615043E+02  0.51622577918E+02  0.25500000000E-02 0.  1.
         -2    1    1    2  502    0 -0.20178561864E+02  0.10595958539E+01 -0.16109871432E+02  0.25842311552E+02  0.25500000000E-02 0.  1.
<mgrwt>
<rscale>  0 0.44205582E+02</rscale>
<asrwt>0</asrwt>
<pdfrwt beam="2">  1        3 0.10852182E-01 0.44205582E+02</pdfrwt>
<pdfrwt beam="1">  1       -3 0.10654926E-02 0.44205582E+02</pdfrwt>
<totfact> 0.23948395E+05</totfact>
</mgrwt>
</event>
<event>
 4    1  0.7692565E-003  0.4863674E+02  0.7818608E-02  0.1452836E+00
         -3   -1    0    0  501    0 -0.00000000000E+00  0.00000000000E+00  0.22445625418E+02  0.22445852655E+02  0.10100000000E+00 0.  1.
          3   -1    0    0    0  501  0.00000000000E+00 -0.00000000000E+00 -0.26346910145E+02  0.26347103735E+02  0.10100000000E+00 0.  1.
          2    1    1    2    0  502  0.91760280557E+01  0.19851023681E+02  0.87193309418E+01  0.23543350879E+02  0.25500000000E-02 0. -1.
         -2    1    1    2  502    0 -0.91760280557E+01 -0.19851023681E+02 -0.12620615669E+02  0.25249605510E+02  0.25500000000E-02 0. -1.
<mgrwt>
<rscale>  0 0.48636741E+02</rscale>
<asrwt>0</asrwt>
<pdfrwt beam="2">  1        3 0.40534032E-02 0.48636741E+02</pdfrwt>
<pdfrwt beam="1">  1       -3 0.34532055E-02 0.48636741E+02</pdfrwt>
<totfact> 0.20333267E+05</totfact>
</mgrwt>
</event>
<event>
 4    1  0.7692565E-003  0.5756825E+02  0.7818608E-02  0.1408330E+00
          3   -1    0    0    0  501  0.00000000000E+00  0.00000000000E+00  0.76961938417E+01  0.76968565434E+01  0.10100000000E+00 0.  1.
         -3   -1    0    0  501    0 -0.00000000000E+00 -0.00000000000E+00 -0.10764863616E+03  0.10764868354E+03  0.10100000000E+00 0.  1.
          2    1    1    2    0  502 -0.20627504238E+02  0.19147016102E+02 -0.62068523781E+02  0.68151330197E+02  0.25500000000E-02 0.  1.
         -2    1    1    2  502    0  0.20627504238E+02 -0.19147016102E+02 -0.37883918537E+02  0.47194209887E+02  0.25500000000E-02 0.  1.
<mgrwt>
<rscale>  0 0.57568246E+02</rscale>
<asrwt>0</asrwt>
<pdfrwt beam="1">  1        3 0.11840845E-02 0.57568246E+02</pdfrwt>
<pdfrwt beam="2">  1       -3 0.16561382E-01 0.57568246E+02</pdfrwt>
<totfact> 0.11285446E+05</totfact>
</mgrwt>
</event>
<event>
 4    1  0.7692565E-003  0.4446485E+02  0.7818608E-02  0.1477710E+00
         -3   -1    0    0  501    0 -0.00000000000E+00  0.00000000000E+00  0.74154828333E+02  0.74154897114E+02  0.10100000000E+00 0. -1.
          3   -1    0    0    0  501  0.00000000000E+00 -0.00000000000E+00 -0.66650685522E+01  0.66658337667E+01  0.10100000000E+00 0. -1.
          2    1    1    2    0  502  0.22166340918E+02 -0.16109255025E+01  0.34803108670E+02  0.41294044731E+02  0.25500000000E-02 0.  1.
         -2    1    1    2  502    0 -0.22166340918E+02  0.16109255025E+01  0.32686651110E+02  0.39526686150E+02  0.25500000000E-02 0.  1.
<mgrwt>
<rscale>  0 0.44464850E+02</rscale>
<asrwt>0</asrwt>
<pdfrwt beam="2">  1        3 0.10254593E-02 0.44464850E+02</pdfrwt>
<pdfrwt beam="1">  1       -3 0.11408499E-01 0.44464850E+02</pdfrwt>
<totfact> 0.23411596E+05</totfact>
</mgrwt>
</event>
<event>
 4    1  0.7692565E-003  0.9769126E+02  0.7818608E-02  0.1285227E+00
         -3   -1    0    0  501    0 -0.00000000000E+00  0.00000000000E+00  0.10002315720E+04  0.10002315771E+04  0.10100000000E+00 0.  1.
          3   -1    0    0    0  501  0.00000000000E+00 -0.00000000000E+00 -0.23842690079E+01  0.23864072791E+01  0.10100000000E+00 0.  1.
          2    1    1    2    0  502  0.11364321538E+02  0.20407844727E+02  0.58652454049E+02  0.63132703910E+02  0.25500000000E-02 0. -1.
         -2    1    1    2  502    0 -0.11364321538E+02 -0.20407844727E+02  0.93919484894E+03  0.93948528046E+03  0.25500000000E-02 0. -1.
<mgrwt>
<rscale>  0 0.97691261E+02</rscale>
<asrwt>0</asrwt>
<pdfrwt beam="2">  1        3 0.36697494E-03 0.97691261E+02</pdfrwt>
<pdfrwt beam="1">  1       -3 0.15388218E+00 0.97691261E+02</pdfrwt>
<totfact> 0.82788729E+03</totfact>
</mgrwt>
</event>
<event>
 4    1  0.7692565E-003  0.5967760E+02  0.7818608E-02  0.1399190E+00
          3   -1    0    0    0  501  0.00000000000E+00  0.00000000000E+00  0.25189766394E+01  0.25210006564E+01  0.10100000000E+00 0.  1.
         -3   -1    0    0  501    0 -0.00000000000E+00 -0.00000000000E+00 -0.35331467456E+03  0.35331468900E+03  0.10100000000E+00 0.  1.
          2    1    1    2    0  502 -0.25975098173E+01  0.20938641331E+02 -0.30120522689E+03  0.30194331003E+03  0.25500000000E-02 0.  1.
         -2    1    1    2  502    0  0.25975098173E+01 -0.20938641331E+02 -0.49590471025E+02  0.53892379620E+02  0.25500000000E-02 0.  1.
<mgrwt>
<rscale>  0 0.59677603E+02</rscale>
<asrwt>0</asrwt>
<pdfrwt beam="1">  1        3 0.38769195E-03 0.59677603E+02</pdfrwt>
<pdfrwt beam="2">  1       -3 0.54356221E-01 0.59677603E+02</pdfrwt>
<totfact> 0.66515447E+04</totfact>
</mgrwt>
</event>
<event>
 4    1  0.7692565E-003  0.4817289E+02  0.7818608E-02  0.1455453E+00
         -3   -1    0    0  501    0 -0.00000000000E+00  0.00000000000E+00  0.12362992965E+02  0.12363405520E+02  0.10100000000E+00 0.  1.
          3   -1    0    0    0  501  0.00000000000E+00 -0.00000000000E+00 -0.46925650369E+02  0.46925759062E+02  0.10100000000E+00 0.  1.
          2    1    1    2    0  502  0.18541778339E+02  0.13204973746E+02 -0.26971391610E+02  0.35293410823E+02  0.25500000000E-02 0. -1.
         -2    1    1    2  502    0 -0.18541778339E+02 -0.13204973746E+02 -0.75912657930E+01  0.23995753759E+02  0.25500000000E-02 0. -1.
<mgrwt>
<rscale>  0 0.48172894E+02</rscale>
<asrwt>0</asrwt>
<pdfrwt beam="2">  1        3 0.72193708E-02 0.48172894E+02</pdfrwt>
<pdfrwt beam="1">  1       -3 0.19020390E-02 0.48172894E+02</pdfrwt>
<totfact> 0.20253421E+05</totfact>
</mgrwt>
</event>
<event>
 4    1  0.7692565E-003  0.4025315E+02  0.7818608E-02  0.1506357E+00
          3   -1    0    0    0  501  0.00000000000E+00  0.00000000000E+00  0.20653148229E+02  0.20653395187E+02  0.10100000000E+00 0. -1.
         -3   -1    0    0  501    0 -0.00000000000E+00 -0.00000000000E+00 -0.19612934775E+02  0.19613194831E+02  0.10100000000E+00 0. -1.
          2    1    1    2    0  502  0.13569163353E+02 -0.14794741633E+02  0.19601971144E+01  0.20170497101E+02  0.25500000000E-02 0. -1.
         -2    1    1    2  502    0 -0.13569163353E+02  0.14794741633E+02 -0.91998366038E+00  0.20096092917E+02  0.25500000000E-02 0. -1.
<mgrwt>
<rscale>  0 0.40253152E+02</rscale>
<asrwt>0</asrwt>
<pdfrwt beam="1">  1        3 0.31774464E-02 0.40253152E+02</pdfrwt>
<pdfrwt beam="2">  1       -3 0.30174136E-02 0.40253152E+02</pdfrwt>
<totfact> 0.33309310E+05</totfact>
</mgrwt>
</event>
<event>
 4    1  0.7692565E-003  0.5424904E+02  0.7818608E-02  0.1423684E+00
         -3   -1    0    0  501    0 -0.00000000000E+00  0.00000000000E+00  0.57663005980E+02  0.57663094433E+02  0.10100000000E+00 0. -1.
          3   -1    0    0    0  501  0.00000000000E+00 -0.00000000000E+00 -0.12759002133E+02  0.12759401884E+02  0.10100000000E+00 0. -1.
          2    1    1    2    0  502 -0.13336713684E+02 -0.22515281785E+02  0.13187497426E+02  0.29303855388E+02  0.25500000000E-02 0.  1.
         -2    1    1    2  502    0  0.13336713684E+02  0.22515281785E+02  0.31716506421E+02  0.41118640929E+02  0.25500000000E-02 0.  1.
<mgrwt>
<rscale>  0 0.54249041E+02</rscale>
<asrwt>0</asrwt>
<pdfrwt beam="2">  1        3 0.19629610E-02 0.54249041E+02</pdfrwt>
<pdfrwt beam="1">  1       -3 0.88712691E-02 0.54249041E+02</pdfrwt>
<totfact> 0.14581873E+05</totfact>
</mgrwt>
</event>
<event>
 4    1  0.7692565E-003  0.4387738E+02  0.7818608E-02  0.1481474E+00
          3   -1    0    0    0  501  0.00000000000E+00  0.00000000000E+00  0.20402747960E+01  0.20427731747E+01  0.10100000000E+00 0.  1.
         -3   -1    0    0  501    0 -0.00000000000E+00 -0.00000000000E+00 -0.23575571161E+03  0.23575573324E+03  0.10100000000E+00 0.  1.
          2    1    1    2    0  502  0.20054718409E+02 -0.87769836816E+01 -0.10904353701E+03  0.11121924358E+03  0.25500000000E-02 0. -1.
         -2    1    1    2  502    0 -0.20054718409E+02  0.87769836816E+01 -0.12467189980E+03  0.12657926284E+03  0.25500000000E-02 0. -1.
<mgrwt>
<rscale>  0 0.43877377E+02</rscale>
<asrwt>0</asrwt>
<pdfrwt beam="1">  1        3 0.31408246E-03 0.43877377E+02</pdfrwt>
<pdfrwt beam="2">  1       -3 0.36270282E-01 0.43877377E+02</pdfrwt>
<totfact> 0.17450771E+05</totfact>
</mgrwt>
</event>
<event>
 4    1  0.7692565E-003  0.5493520E+02  0.7818608E-02  0.1420406E+00
          3   -1    0    0    0  501  0.00000000000E+00  0.00000000000E+00  0.43557067540E+01  0.43568775892E+01  0.10100000000E+00 0. -1.
         -3   -1    0    0  501    0 -0.00000000000E+00 -0.00000000000E+00 -0.17318948192E+03  0.17318951137E+03  0.10100000000E+00 0. -1.
          2    1    1    2    0  502  0.17017100105E+02  0.12831724339E+02 -0.28416471189E+02  0.35520848622E+02  0.25500000000E-02 0. -1.
         -2    1    1    2  502    0 -0.17017100105E+02 -0.12831724339E+02 -0.14041730398E+03  0.14202554034E+03  0.25500000000E-02 0. -1.
<mgrwt>
<rscale>  0 0.54935204E+02</rscale>
<asrwt>0</asrwt>
<pdfrwt beam="1">  1        3 0.67020120E-03 0.54935204E+02</pdfrwt>
<pdfrwt beam="2">  1       -3 0.26644623E-01 0.54935204E+02</pdfrwt>
<totfact> 0.11177202E+05</totfact>
</mgrwt>
</event>
<event>
 4    1  0.7692565E-003  0.5784634E+02  0.7818608E-02  0.1407098E+00
         -3   -1    0    0  501    0 -0.00000000000E+00  0.00000000000E+00  0.11470338346E+02  0.11470783006E+02  0.10100000000E+00 0.  1.
          3   -1    0    0    0  501  0.00000000000E+00 -0.00000000000E+00 -0.72929684980E+02  0.72929754918E+02  0.10100000000E+00 0.  1.
          2    1    1    2    0  502  0.27547544441E+02  0.58763914352E+00 -0.43560774638E+02  0.51543705902E+02  0.25500000000E-02 0.  1.
         -2    1    1    2  502    0 -0.27547544441E+02 -0.58763914352E+00 -0.17898571997E+02  0.32856832022E+02  0.25500000000E-02 0.  1.
<mgrwt>
<rscale>  0 0.57846344E+02</rscale>
<asrwt>0</asrwt>
<pdfrwt beam="2">  1        3 0.11219991E-01 0.57846344E+02</pdfrwt>
<pdfrwt beam="1">  1       -3 0.17647071E-02 0.57846344E+02</pdfrwt>
<totfact> 0.11959720E+05</totfact>
</mgrwt>
</event>
<event>
 4    1  0.7692565E-003  0.7406737E+02  0.7818608E-02  0.1346784E+00
         -3   -1    0    0  501    0 -0.00000000000E+00  0.00000000000E+00  0.16071999342E+01  0.16103703389E+01  0.10100000000E+00 0. -1.
          3   -1    0    0    0  501  0.00000000000E+00 -0.00000000000E+00 -0.85249956871E+03  0.85249957470E+03  0.10100000000E+00 0. -1.
          2    1    1    2    0  502 -0.31550156415E+02  0.18776947441E+02 -0.48135639087E+03  0.48275455582E+03  0.25500000000E-02 0.  1.
         -2    1    1    2  502    0  0.31550156415E+02 -0.18776947441E+02 -0.36953597790E+03  0.37135538921E+03  0.25500000000E-02 0.  1.
<mgrwt>
<rscale>  0 0.74067368E+02</rscale>
<asrwt>0</asrwt>
<pdfrwt beam="2">  1        3 0.13115366E+00 0.74067368E+02</pdfrwt>
<pdfrwt beam="1">  1       -3 0.24750655E-03 0.74067368E+02</pdfrwt>
<totfact> 0.20176751E+04</totfact>
</mgrwt>
</event>
<event>
 4    1  0.7692565E-003  0.8270356E+02  0.7818608E-02  0.1321550E+00
          3   -1    0    0    0  501  0.00000000000E+00  0.00000000000E+00  0.14088452708E+02  0.14088814737E+02  0.10100000000E+00 0. -1.
         -3   -1    0    0  501    0 -0.00000000000E+00 -0.00000000000E+00 -0.12137190218E+03  0.12137194421E+03  0.10100000000E+00 0. -1.
          2    1    1    2    0  502 -0.38521140287E+02  0.12290928143E+02 -0.39454715179E+02  0.56494422025E+02  0.25500000000E-02 0.  1.
         -2    1    1    2  502    0  0.38521140287E+02 -0.12290928143E+02 -0.67828734297E+02  0.78966336919E+02  0.25500000000E-02 0.  1.
<mgrwt>
<rscale>  0 0.82703559E+02</rscale>
<asrwt>0</asrwt>
<pdfrwt beam="1">  1        3 0.21674854E-02 0.82703559E+02</pdfrwt>
<pdfrwt beam="2">  1       -3 0.18672631E-01 0.82703559E+02</pdfrwt>
<totfact> 0.41900205E+04</totfact>
</mgrwt>
</event>
<event>
 4    1  0.7692565E-003  0.5028965E+02  0.7818608E-02  0.1443786E+00
          3   -1    0    0    0  501  0.00000000000E+00  0.00000000000E+00  0.18600618789E+02  0.18600892998E+02  0.10100000000E+00 0. -1.
         -3   -1    0    0  501    0 -0.00000000000E+00 -0.00000000000E+00 -0.33990858306E+02  0.33991008361E+02  0.10100000000E+00 0. -1.
          2    1    1    2    0  502  0.61239241038E+01 -0.24364732993E+02 -0.88016157942E+01  0.26619750325E+02  0.25500000000E-02 0. -1.
         -2    1    1    2  502    0 -0.61239241038E+01  0.24364732993E+02 -0.65886237230E+01  0.25972151034E+02  0.25500000000E-02 0. -1.
<mgrwt>
<rscale>  0 0.50289647E+02</rscale>
<asrwt>0</asrwt>
<pdfrwt beam="1">  1        3 0.28616663E-02 0.50289647E+02</pdfrwt>
<pdfrwt beam="2">  1       -3 0.52293954E-02 0.50289647E+02</pdfrwt>
<totfact> 0.18502258E+05</totfact>
</mgrwt>
</event>
<event>
 4    1  0.7692565E-003  0.5456550E+02  0.7818608E-02  0.1422165E+00
         -3   -1    0    0  501    0 -0.00000000000E+00  0.00000000000E+00  0.16378906351E+02  0.16379217755E+02  0.10100000000E+00 0. -1.
          3   -1    0    0    0  501  0.00000000000E+00 -0.00000000000E+00 -0.45444756921E+02  0.45444869156E+02  0.10100000000E+00 0. -1.
          2    1    1    2    0  502 -0.26167702767E+02  0.43302213503E+01 -0.21774456095E+02  0.34316562033E+02  0.25500000000E-02 0. -1.
         -2    1    1    2  502    0  0.26167702767E+02 -0.43302213503E+01 -0.72913944758E+01  0.27507524878E+02  0.25500000000E-02 0. -1.
<mgrwt>
<rscale>  0 0.54565502E+02</rscale>
<asrwt>0</asrwt>
<pdfrwt beam="2">  1        3 0.69915336E-02 0.54565502E+02</pdfrwt>
<pdfrwt beam="1">  1       -3 0.25198644E-02 0.54565502E+02</pdfrwt>
<totfact> 0.14679424E+05</totfact>
</mgrwt>
</event>
<event>
 4    1  0.7692565E-003  0.6017355E+02  0.7818608E-02  0.1397105E+00
         -3   -1    0    0  501    0 -0.00000000000E+00  0.00000000000E+00  0.17205062028E+01  0.17234681877E+01  0.10100000000E+00 0.  1.
          3   -1    0    0    0  501  0.00000000000E+00 -0.00000000000E+00 -0.52567691095E+03  0.52567692065E+03  0.10100000000E+00 0.  1.
          2    1    1    2    0  502 -0.57119333851E+01  0.19932809356E+02 -0.70902508735E+02  0.73872246637E+02  0.25500000000E-02 0. -1.
         -2    1    1    2  502    0  0.57119333851E+01 -0.19932809356E+02 -0.45305389601E+03  0.45352814220E+03  0.25500000000E-02 0. -1.
<mgrwt>
<rscale>  0 0.60173550E+02</rscale>
<asrwt>0</asrwt>
<pdfrwt beam="2">  1        3 0.80873471E-01 0.60173550E+02</pdfrwt>
<pdfrwt beam="1">  1       -3 0.26492227E-03 0.60173550E+02</pdfrwt>
<totfact> 0.50899087E+04</totfact>
</mgrwt>
</event>
<event>
 4    1  0.7692565E-003  0.4340273E+02  0.7818608E-02  0.1484567E+00
         -3   -1    0    0  501    0 -0.00000000000E+00  0.00000000000E+00  0.37124372838E+03  0.37124374212E+03  0.10100000000E+00 0.  1.
          3   -1    0    0    0  501  0.00000000000E+00 -0.00000000000E+00 -0.12665474463E+01  0.12705681539E+01  0.10100000000E+00 0.  1.
          2    1    1    2    0  502 -0.37060418982E+01  0.20710207769E+02  0.23064826112E+03  0.23160584582E+03  0.25500000000E-02 0. -1.
         -2    1    1    2  502    0  0.37060418982E+01 -0.20710207769E+02  0.13932891981E+03  0.14090846445E+03  0.25500000000E-02 0. -1.
<mgrwt>
<rscale>  0 0.43402730E+02</rscale>
<asrwt>0</asrwt>
<pdfrwt beam="2">  1        3 0.19516367E-03 0.43402730E+02</pdfrwt>
<pdfrwt beam="1">  1       -3 0.57114766E-01 0.43402730E+02</pdfrwt>
<totfact> 0.14313045E+05</totfact>
</mgrwt>
</event>
<event>
 4    1  0.7692565E-003  0.1123861E+03  0.7818608E-02  0.1256214E+00
          3   -1    0    0    0  501  0.00000000000E+00  0.00000000000E+00  0.11531453658E+02  0.11531895961E+02  0.10100000000E+00 0. -1.
         -3   -1    0    0  501    0 -0.00000000000E+00 -0.00000000000E+00 -0.27382445198E+03  0.27382447060E+03  0.10100000000E+00 0. -1.
          2    1    1    2    0  502  0.17422011682E+01 -0.47793985096E+02 -0.20605381457E+03  0.21153126195E+03  0.25500000000E-02 0. -1.
         -2    1    1    2  502    0 -0.17422011682E+01  0.47793985096E+02 -0.56239183745E+02  0.73825104612E+02  0.25500000000E-02 0. -1.
<mgrwt>
<rscale>  0 0.11238612E+03</rscale>
<asrwt>0</asrwt>
<pdfrwt beam="1">  1        3 0.17741055E-02 0.11238612E+03</pdfrwt>
<pdfrwt beam="2">  1       -3 0.42126869E-01 0.11238612E+03</pdfrwt>
<totfact> 0.13928663E+04</totfact>
</mgrwt>
</event>
<event>
 4    1  0.7692565E-003  0.6641328E+02  0.7818608E-02  0.1372733E+00
         -3   -1    0    0  501    0 -0.00000000000E+00  0.00000000000E+00  0.45200169047E+01  0.45211451888E+01  0.10100000000E+00 0. -1.
          3   -1    0    0    0  501  0.00000000000E+00 -0.00000000000E+00 -0.24392345131E+03  0.24392347222E+03  0.10100000000E+00 0. -1.
          2    1    1    2    0  502  0.92742170829E+00 -0.23536867314E+02 -0.20726059997E+03  0.20859482386E+03  0.25500000000E-02 0.  1.
         -2    1    1    2  502    0 -0.92742170829E+00  0.23536867314E+02 -0.32142834432E+02  0.39849793548E+02  0.25500000000E-02 0.  1.
<mgrwt>
<rscale>  0 0.66413278E+02</rscale>
<asrwt>0</asrwt>
<pdfrwt beam="2">  1        3 0.37526763E-01 0.66413278E+02</pdfrwt>
<pdfrwt beam="1">  1       -3 0.69547581E-03 0.66413278E+02</pdfrwt>
<totfact> 0.60369656E+04</totfact>
</mgrwt>
</event>
<event>
 4    1  0.7692565E-003  0.6249273E+02  0.7818608E-02  0.1387659E+00
         -3   -1    0    0  501    0 -0.00000000000E+00  0.00000000000E+00  0.42366237162E+03  0.42366238366E+03  0.10100000000E+00 0.  1.
          3   -1    0    0    0  501  0.00000000000E+00 -0.00000000000E+00 -0.23033940403E+01  0.23056073180E+01  0.10100000000E+00 0.  1.
          2    1    1    2    0  502  0.30424236301E+02  0.61078157560E+01  0.18573174951E+03  0.18830619307E+03  0.25500000000E-02 0.  1.
         -2    1    1    2  502    0 -0.30424236301E+02 -0.61078157560E+01  0.23562722807E+03  0.23766179790E+03  0.25500000000E-02 0.  1.
<mgrwt>
<rscale>  0 0.62492730E+02</rscale>
<asrwt>0</asrwt>
<pdfrwt beam="2">  1        3 0.35453934E-03 0.62492730E+02</pdfrwt>
<pdfrwt beam="1">  1       -3 0.65179026E-01 0.62492730E+02</pdfrwt>
<totfact> 0.53220768E+04</totfact>
</mgrwt>
</event>
<event>
 4    1  0.7692565E-003  0.4829059E+02  0.7818608E-02  0.1454786E+00
         -3   -1    0    0  501    0 -0.00000000000E+00  0.00000000000E+00  0.12158807476E+02  0.12159226959E+02  0.10100000000E+00 0. -1.
          3   -1    0    0    0  501  0.00000000000E+00 -0.00000000000E+00 -0.47947093435E+02  0.47947199813E+02  0.10100000000E+00 0. -1.
          2    1    1    2    0  502  0.19496734929E+02 -0.56068303905E+01 -0.34191210980E+02  0.39756736973E+02  0.25500000000E-02 0.  1.
         -2    1    1    2  502    0 -0.19496734929E+02  0.56068303905E+01 -0.15970749785E+01  0.20349689799E+02  0.25500000000E-02 0.  1.
<mgrwt>
<rscale>  0 0.48290590E+02</rscale>
<asrwt>0</asrwt>
<pdfrwt beam="2">  1        3 0.73765163E-02 0.48290590E+02</pdfrwt>
<pdfrwt beam="1">  1       -3 0.18706262E-02 0.48290590E+02</pdfrwt>
<totfact> 0.20086881E+05</totfact>
</mgrwt>
</event>
<event>
 4    1  0.7692565E-003  0.9915029E+02  0.7818608E-02  0.1282093E+00
          3   -1    0    0    0  501  0.00000000000E+00  0.00000000000E+00  0.16682104415E+02  0.16682410159E+02  0.10100000000E+00 0. -1.
         -3   -1    0    0  501    0 -0.00000000000E+00 -0.00000000000E+00 -0.14732356507E+03  0.14732359969E+03  0.10100000000E+00 0. -1.
          2    1    1    2    0  502  0.11048896028E+02 -0.37854572495E+02 -0.15624317390E+02  0.42416577687E+02  0.25500000000E-02 0.  1.
         -2    1    1    2  502    0 -0.11048896028E+02  0.37854572495E+02 -0.11501714327E+03  0.12158943217E+03  0.25500000000E-02 0.  1.
<mgrwt>
<rscale>  0 0.99150290E+02</rscale>
<asrwt>0</asrwt>
<pdfrwt beam="1">  1        3 0.25665039E-02 0.99150290E+02</pdfrwt>
<pdfrwt beam="2">  1       -3 0.22665189E-01 0.99150290E+02</pdfrwt>
<totfact> 0.24255492E+04</totfact>
</mgrwt>
</event>
<event>
 4    1  0.7692565E-003  0.4813179E+02  0.7818608E-02  0.1455687E+00
          3   -1    0    0    0  501  0.00000000000E+00  0.00000000000E+00  0.85075335744E+01  0.85081330807E+01  0.10100000000E+00 0.  1.
         -3   -1    0    0  501    0 -0.00000000000E+00 -0.00000000000E+00 -0.68073946016E+02  0.68074020942E+02  0.10100000000E+00 0.  1.
          2    1    1    2    0  502  0.85168740268E+01 -0.20036297448E+02 -0.13465629577E+02  0.25599092661E+02  0.25500000000E-02 0.  1.
         -2    1    1    2  502    0 -0.85168740268E+01  0.20036297448E+02 -0.46100782864E+02  0.50983061362E+02  0.25500000000E-02 0.  1.
<mgrwt>
<rscale>  0 0.48131786E+02</rscale>
<asrwt>0</asrwt>
<pdfrwt beam="1">  1        3 0.13089032E-02 0.48131786E+02</pdfrwt>
<pdfrwt beam="2">  1       -3 0.10472966E-01 0.48131786E+02</pdfrwt>
<totfact> 0.19424827E+05</totfact>
</mgrwt>
</event>
<event>
 4    1  0.7692565E-003  0.4167001E+02  0.7818608E-02  0.1496270E+00
          3   -1    0    0    0  501  0.00000000000E+00  0.00000000000E+00  0.11719674862E+01  0.11763115186E+01  0.10100000000E+00 0. -1.
         -3   -1    0    0  501    0 -0.00000000000E+00 -0.00000000000E+00 -0.36971101340E+03  0.36971102720E+03  0.10100000000E+00 0. -1.
          2    1    1    2    0  502  0.18436158849E+02  0.86662669430E+01 -0.22316951861E+03  0.22409736763E+03  0.25500000000E-02 0.  1.
         -2    1    1    2  502    0 -0.18436158849E+02 -0.86662669430E+01 -0.14536952731E+03  0.14678997109E+03  0.25500000000E-02 0.  1.
<mgrwt>
<rscale>  0 0.41670009E+02</rscale>
<asrwt>0</asrwt>
<pdfrwt beam="1">  1        3 0.18063820E-03 0.41670009E+02</pdfrwt>
<pdfrwt beam="2">  1       -3 0.56878859E-01 0.41670009E+02</pdfrwt>
<totfact> 0.15839900E+05</totfact>
</mgrwt>
</event>
<event>
 4    1  0.7692565E-003  0.7243493E+02  0.7818608E-02  0.1352003E+00
         -3   -1    0    0  501    0 -0.00000000000E+00  0.00000000000E+00  0.30937141963E+03  0.30937143611E+03  0.10100000000E+00 0.  1.
          3   -1    0    0    0  501  0.00000000000E+00 -0.00000000000E+00 -0.42392847599E+01  0.42404877403E+01  0.10100000000E+00 0.  1.
          2    1    1    2    0  502  0.11292438306E+01  0.35484177025E+02  0.12155513458E+03  0.12663353726E+03  0.25500000000E-02 0.  1.
         -2    1    1    2  502    0 -0.11292438306E+01 -0.35484177025E+02  0.18357700029E+03  0.18697838659E+03  0.25500000000E-02 0.  1.
<mgrwt>
<rscale>  0 0.72434930E+02</rscale>
<asrwt>0</asrwt>
<pdfrwt beam="2">  1        3 0.65229145E-03 0.72434930E+02</pdfrwt>
<pdfrwt beam="1">  1       -3 0.47595698E-01 0.72434930E+02</pdfrwt>
<totfact> 0.43196288E+04</totfact>
</mgrwt>
</event>
<event>
 4    1  0.7692565E-003  0.1525872E+03  0.7818608E-02  0.1197329E+00
          3   -1    0    0    0  501  0.00000000000E+00  0.00000000000E+00  0.82301223229E+02  0.82301285203E+02  0.10100000000E+00 0. -1.
         -3   -1    0    0  501    0 -0.00000000000E+00 -0.00000000000E+00 -0.70724342088E+02  0.70724414206E+02  0.10100000000E+00 0. -1.
          2    1    1    2    0  502 -0.17392705966E+02  0.73799759772E+02 -0.27093625628E+01  0.75869963854E+02  0.25500000000E-02 0.  1.
         -2    1    1    2  502    0  0.17392705966E+02 -0.73799759772E+02  0.14286243704E+02  0.77155735554E+02  0.25500000000E-02 0.  1.
<mgrwt>
<rscale>  0 0.15258716E+03</rscale>
<asrwt>0</asrwt>
<pdfrwt beam="1">  1        3 0.12661737E-01 0.15258716E+03</pdfrwt>
<pdfrwt beam="2">  1       -3 0.10880678E-01 0.15258716E+03</pdfrwt>
<totfact> 0.73768245E+03</totfact>
</mgrwt>
</event>
<event>
 4    1  0.7692565E-003  0.6393818E+02  0.7818608E-02  0.1382011E+00
         -3   -1    0    0  501    0 -0.00000000000E+00  0.00000000000E+00  0.17425416965E+02  0.17425709668E+02  0.10100000000E+00 0.  1.
          3   -1    0    0    0  501  0.00000000000E+00 -0.00000000000E+00 -0.58650428623E+02  0.58650515588E+02  0.10100000000E+00 0.  1.
          2    1    1    2    0  502  0.96041740665E+01 -0.23502256615E+02 -0.43728087956E+02  0.50564235467E+02  0.25500000000E-02 0. -1.
         -2    1    1    2  502    0 -0.96041740665E+01  0.23502256615E+02  0.25030762984E+01  0.25511989788E+02  0.25500000000E-02 0. -1.
<mgrwt>
<rscale>  0 0.63938177E+02</rscale>
<asrwt>0</asrwt>
<pdfrwt beam="2">  1        3 0.90231720E-02 0.63938177E+02</pdfrwt>
<pdfrwt beam="1">  1       -3 0.26808626E-02 0.63938177E+02</pdfrwt>
<totfact> 0.94174447E+04</totfact>
</mgrwt>
</event>
<event>
 4    1  0.7692565E-003  0.4462779E+02  0.7818608E-02  0.1476679E+00
          3   -1    0    0    0  501  0.00000000000E+00  0.00000000000E+00  0.10328792158E+02  0.10329285960E+02  0.10100000000E+00 0.  1.
         -3   -1    0    0  501    0 -0.00000000000E+00 -0.00000000000E+00 -0.48204314063E+02  0.48204419873E+02  0.10100000000E+00 0.  1.
          2    1    1    2    0  502  0.21822685976E+02 -0.46361715486E+01 -0.18371835179E+02  0.28900658196E+02  0.25500000000E-02 0. -1.
         -2    1    1    2  502    0 -0.21822685976E+02  0.46361715486E+01 -0.19503686726E+02  0.29633047637E+02  0.25500000000E-02 0. -1.
<mgrwt>
<rscale>  0 0.44627789E+02</rscale>
<asrwt>0</asrwt>
<pdfrwt beam="1">  1        3 0.15890911E-02 0.44627789E+02</pdfrwt>
<pdfrwt beam="2">  1       -3 0.74160943E-02 0.44627789E+02</pdfrwt>
<totfact> 0.24560058E+05</totfact>
</mgrwt>
</event>
<event>
 4    1  0.7692565E-003  0.8157193E+02  0.7818608E-02  0.1324649E+00
          3   -1    0    0    0  501  0.00000000000E+00  0.00000000000E+00  0.19283992449E+01  0.19310423733E+01  0.10100000000E+00 0.  1.
         -3   -1    0    0  501    0 -0.00000000000E+00 -0.00000000000E+00 -0.86203660418E+03  0.86203661010E+03  0.10100000000E+00 0.  1.
          2    1    1    2    0  502 -0.15540450952E+02  0.33296233725E+02 -0.24256683997E+03  0.24533409191E+03  0.25500000000E-02 0.  1.
         -2    1    1    2  502    0  0.15540450952E+02 -0.33296233725E+02 -0.61754136496E+03  0.61863356056E+03  0.25500000000E-02 0.  1.
<mgrwt>
<rscale>  0 0.81571933E+02</rscale>
<asrwt>0</asrwt>
<pdfrwt beam="1">  1        3 0.29688127E-03 0.81571933E+02</pdfrwt>
<pdfrwt beam="2">  1       -3 0.13262091E+00 0.81571933E+02</pdfrwt>
<totfact> 0.15467215E+04</totfact>
</mgrwt>
</event>
<event>
 4    1  0.7692565E-003  0.4067950E+02  0.7818608E-02  0.1503270E+00
          3   -1    0    0    0  501  0.00000000000E+00  0.00000000000E+00  0.21792609511E+03  0.21792611851E+03  0.10100000000E+00 0. -1.
         -3   -1    0    0  501    0 -0.00000000000E+00 -0.00000000000E+00 -0.18970082614E+01  0.18996950660E+01  0.10100000000E+00 0. -1.
          2    1    1    2    0  502  0.18978875098E+02  0.73065678655E+01  0.10990084590E+03  0.11176662995E+03  0.25500000000E-02 0. -1.
         -2    1    1    2  502    0 -0.18978875098E+02 -0.73065678655E+01  0.10612824095E+03  0.10805918363E+03  0.25500000000E-02 0. -1.
<mgrwt>
<rscale>  0 0.40679503E+02</rscale>
<asrwt>0</asrwt>
<pdfrwt beam="1">  1        3 0.33527308E-01 0.40679503E+02</pdfrwt>
<pdfrwt beam="2">  1       -3 0.29205583E-03 0.40679503E+02</pdfrwt>
<totfact> 0.21679489E+05</totfact>
</mgrwt>
</event>
<event>
 4    1  0.7692565E-003  0.4526585E+02  0.7818608E-02  0.1472689E+00
          3   -1    0    0    0  501  0.00000000000E+00  0.00000000000E+00  0.24749564810E+02  0.24749770894E+02  0.10100000000E+00 0. -1.
         -3   -1    0    0  501    0 -0.00000000000E+00 -0.00000000000E+00 -0.20696891963E+02  0.20697138399E+02  0.10100000000E+00 0. -1.
          2    1    1    2    0  502 -0.15330991542E+01  0.21042706739E+02  0.10250771160E+02  0.23456858609E+02  0.25500000000E-02 0. -1.
         -2    1    1    2  502    0  0.15330991542E+01 -0.21042706739E+02 -0.61980983122E+01  0.21990050684E+02  0.25500000000E-02 0. -1.
<mgrwt>
<rscale>  0 0.45265853E+02</rscale>
<asrwt>0</asrwt>
<pdfrwt beam="1">  1        3 0.38076601E-02 0.45265853E+02</pdfrwt>
<pdfrwt beam="2">  1       -3 0.31841721E-02 0.45265853E+02</pdfrwt>
<totfact> 0.24564361E+05</totfact>
</mgrwt>
</event>
<event>
 4    1  0.7692565E-003  0.1037983E+03  0.7818608E-02  0.1272505E+00
          3   -1    0    0    0  501  0.00000000000E+00  0.00000000000E+00  0.12664502252E+02  0.12664904985E+02  0.10100000000E+00 0. -1.
         -3   -1    0    0  501    0 -0.00000000000E+00 -0.00000000000E+00 -0.21267906125E+03  0.21267908523E+03  0.10100000000E+00 0. -1.
          2    1    1    2    0  502 -0.31219865764E+02  0.78263515520E+01 -0.11619070809E+02  0.34218921811E+02  0.25500000000E-02 0.  1.
         -2    1    1    2  502    0  0.31219865764E+02 -0.78263515520E+01 -0.18839548819E+03  0.19112506841E+03  0.25500000000E-02 0.  1.
<mgrwt>
<rscale>  0 0.10379831E+03</rscale>
<asrwt>0</asrwt>
<pdfrwt beam="1">  1        3 0.19484179E-02 0.10379831E+03</pdfrwt>
<pdfrwt beam="2">  1       -3 0.32719886E-01 0.10379831E+03</pdfrwt>
<totfact> 0.19151225E+04</totfact>
</mgrwt>
</event>
<event>
 4    1  0.7692565E-003  0.5829254E+02  0.7818608E-02  0.1405140E+00
         -3   -1    0    0  501    0 -0.00000000000E+00  0.00000000000E+00  0.22572603729E+02  0.22572829687E+02  0.10100000000E+00 0. -1.
          3   -1    0    0    0  501  0.00000000000E+00 -0.00000000000E+00 -0.37633853686E+02  0.37633989216E+02  0.10100000000E+00 0. -1.
          2    1    1    2    0  502 -0.23930806916E+02  0.12334408285E+02 -0.19063503937E+02  0.32988457622E+02  0.25500000000E-02 0. -1.
         -2    1    1    2  502    0  0.23930806916E+02 -0.12334408285E+02  0.40022539796E+01  0.27218361281E+02  0.25500000000E-02 0. -1.
<mgrwt>
<rscale>  0 0.58292536E+02</rscale>
<asrwt>0</asrwt>
<pdfrwt beam="2">  1        3 0.57898515E-02 0.58292536E+02</pdfrwt>
<pdfrwt beam="1">  1       -3 0.34727361E-02 0.58292536E+02</pdfrwt>
<totfact> 0.12441152E+05</totfact>
</mgrwt>
</event>
<event>
 4    1  0.7692565E-003  0.4826329E+02  0.7818608E-02  0.1454940E+00
         -3   -1    0    0  501    0 -0.00000000000E+00  0.00000000000E+00  0.16352262326E+02  0.16352574237E+02  0.10100000000E+00 0.  1.
          3   -1    0    0    0  501  0.00000000000E+00 -0.00000000000E+00 -0.35611250120E+02  0.35611393347E+02  0.10100000000E+00 0.  1.
          2    1    1    2    0  502 -0.21353569855E+02  0.17442364430E+01 -0.21585892662E+02  0.30413287801E+02  0.25500000000E-02 0. -1.
         -2    1    1    2  502    0  0.21353569855E+02 -0.17442364430E+01  0.23269048678E+01  0.21550679783E+02  0.25500000000E-02 0. -1.
<mgrwt>
<rscale>  0 0.48263292E+02</rscale>
<asrwt>0</asrwt>
<pdfrwt beam="2">  1        3 0.54786889E-02 0.48263292E+02</pdfrwt>
<pdfrwt beam="1">  1       -3 0.25157677E-02 0.48263292E+02</pdfrwt>
<totfact> 0.20553820E+05</totfact>
</mgrwt>
</event>
<event>
 4    1  0.7692565E-003  0.4611223E+02  0.7818608E-02  0.1467515E+00
          3   -1    0    0    0  501  0.00000000000E+00  0.00000000000E+00  0.14955203069E+03  0.14955206480E+03  0.10100000000E+00 0. -1.
         -3   -1    0    0  501    0 -0.00000000000E+00 -0.00000000000E+00 -0.35537589188E+01  0.35551938700E+01  0.10100000000E+00 0. -1.
          2    1    1    2    0  502 -0.21555023101E+02  0.42028898851E+01  0.96312643755E+02  0.98784658008E+02  0.25500000000E-02 0.  1.
         -2    1    1    2  502    0  0.21555023101E+02 -0.42028898851E+01  0.49685628017E+02  0.54322600657E+02  0.25500000000E-02 0.  1.
<mgrwt>
<rscale>  0 0.46112225E+02</rscale>
<asrwt>0</asrwt>
<pdfrwt beam="1">  1        3 0.23008122E-01 0.46112225E+02</pdfrwt>
<pdfrwt beam="2">  1       -3 0.54684503E-03 0.46112225E+02</pdfrwt>
<totfact> 0.18186040E+05</totfact>
</mgrwt>
</event>
<event>
 4    1  0.7692565E-003  0.4531734E+02  0.7818608E-02  0.1472370E+00
         -3   -1    0    0  501    0 -0.00000000000E+00  0.00000000000E+00  0.15537279022E+03  0.15537282305E+03  0.10100000000E+00 0.  1.
          3   -1    0    0    0  501  0.00000000000E+00 -0.00000000000E+00 -0.33036050074E+01  0.33051485663E+01  0.10100000000E+00 0.  1.
          2    1    1    2    0  502  0.40498979523E+01  0.20849026126E+02  0.48390195397E+02  0.52845951415E+02  0.25500000000E-02 0. -1.
         -2    1    1    2  502    0 -0.40498979523E+01 -0.20849026126E+02  0.10367898982E+03  0.10583202020E+03  0.25500000000E-02 0. -1.
<mgrwt>
<rscale>  0 0.45317343E+02</rscale>
<asrwt>0</asrwt>
<pdfrwt beam="2">  1        3 0.50836812E-03 0.45317343E+02</pdfrwt>
<pdfrwt beam="1">  1       -3 0.23903630E-01 0.45317343E+02</pdfrwt>
<totfact> 0.18768658E+05</totfact>
</mgrwt>
</event>
<event>
 4    1  0.7692565E-003  0.9360490E+02  0.7818608E-02  0.1294349E+00
         -3   -1    0    0  501    0 -0.00000000000E+00  0.00000000000E+00  0.42054230071E+02  0.42054351355E+02  0.10100000000E+00 0.  1.
          3   -1    0    0    0  501  0.00000000000E+00 -0.00000000000E+00 -0.52086530163E+02  0.52086628086E+02  0.10100000000E+00 0.  1.
          2    1    1    2    0  502 -0.46555666408E+02  0.44118758242E+01 -0.31146843261E+01  0.46867856661E+02  0.25500000000E-02 0.  1.
         -2    1    1    2  502    0  0.46555666408E+02 -0.44118758242E+01 -0.69176157657E+01  0.47273122780E+02  0.25500000000E-02 0.  1.
<mgrwt>
<rscale>  0 0.93604898E+02</rscale>
<asrwt>0</asrwt>
<pdfrwt beam="2">  1        3 0.80133292E-02 0.93604898E+02</pdfrwt>
<pdfrwt beam="1">  1       -3 0.64698984E-02 0.93604898E+02</pdfrwt>
<totfact> 0.32679067E+04</totfact>
</mgrwt>
</event>
<event>
 4    1  0.7692565E-003  0.5054438E+02  0.7818608E-02  0.1442427E+00
          3   -1    0    0    0  501  0.00000000000E+00  0.00000000000E+00  0.32248098347E+01  0.32263910907E+01  0.10100000000E+00 0. -1.
         -3   -1    0    0  501    0 -0.00000000000E+00 -0.00000000000E+00 -0.19800295479E+03  0.19800298055E+03  0.10100000000E+00 0. -1.
          2    1    1    2    0  502 -0.24149684371E+02  0.74412428022E+01 -0.98674270516E+02  0.10185868160E+03  0.25500000000E-02 0.  1.
         -2    1    1    2  502    0  0.24149684371E+02 -0.74412428022E+01 -0.96103874443E+02  0.99370690040E+02  0.25500000000E-02 0.  1.
<mgrwt>
<rscale>  0 0.50544379E+02</rscale>
<asrwt>0</asrwt>
<pdfrwt beam="1">  1        3 0.49624836E-03 0.50544379E+02</pdfrwt>
<pdfrwt beam="2">  1       -3 0.30462107E-01 0.50544379E+02</pdfrwt>
<totfact> 0.13166091E+05</totfact>
</mgrwt>
</event>
<event>
 4    1  0.7692565E-003  0.4134666E+02  0.7818608E-02  0.1498529E+00
         -3   -1    0    0  501    0 -0.00000000000E+00  0.00000000000E+00  0.12710675856E+01  0.12750740399E+01  0.10100000000E+00 0. -1.
          3   -1    0    0    0  501  0.00000000000E+00 -0.00000000000E+00 -0.33570906185E+03  0.33570907704E+03  0.10100000000E+00 0. -1.
          2    1    1    2    0  502  0.20104326326E+02 -0.28145838731E+01 -0.19907861693E+03  0.20011097307E+03  0.25500000000E-02 0.  1.
         -2    1    1    2  502    0 -0.20104326326E+02  0.28145838731E+01 -0.13535937733E+03  0.13687317801E+03  0.25500000000E-02 0.  1.
<mgrwt>
<rscale>  0 0.41346657E+02</rscale>
<asrwt>0</asrwt>
<pdfrwt beam="2">  1        3 0.51647787E-01 0.41346657E+02</pdfrwt>
<pdfrwt beam="1">  1       -3 0.19585848E-03 0.41346657E+02</pdfrwt>
<totfact> 0.17035964E+05</totfact>
</mgrwt>
</event>
<event>
 4    1  0.7692565E-003  0.5501053E+02  0.7818608E-02  0.1420049E+00
         -3   -1    0    0  501    0 -0.00000000000E+00  0.00000000000E+00  0.32465883741E+02  0.32466040844E+02  0.10100000000E+00 0. -1.
          3   -1    0    0    0  501  0.00000000000E+00 -0.00000000000E+00 -0.23302277131E+02  0.23302496014E+02  0.10100000000E+00 0. -1.
          2    1    1    2    0  502  0.23453543739E+02 -0.29860467374E+01 -0.96672726903E+01  0.25542931640E+02  0.25500000000E-02 0. -1.
         -2    1    1    2  502    0 -0.23453543739E+02  0.29860467374E+01  0.18830879301E+02  0.30225605217E+02  0.25500000000E-02 0. -1.
<mgrwt>
<rscale>  0 0.55010526E+02</rscale>
<asrwt>0</asrwt>
<pdfrwt beam="2">  1        3 0.35849947E-02 0.55010526E+02</pdfrwt>
<pdfrwt beam="1">  1       -3 0.49947802E-02 0.55010526E+02</pdfrwt>
<totfact> 0.14603524E+05</totfact>
</mgrwt>
</event>
<event>
 4    1  0.7692565E-003  0.4269712E+02  0.7818608E-02  0.1489252E+00
          3   -1    0    0    0  501  0.00000000000E+00  0.00000000000E+00  0.10561543781E+04  0.10561543830E+04  0.10100000000E+00 0.  1.
         -3   -1    0    0  501    0 -0.00000000000E+00 -0.00000000000E+00 -0.42561415604E+00  0.43743389194E+00  0.10100000000E+00 0.  1.
          2    1    1    2    0  502 -0.15627856646E+02 -0.14438144267E+02  0.48449727164E+03  0.48496422151E+03  0.25500000000E-02 0. -1.
         -2    1    1    2  502    0  0.15627856646E+02  0.14438144267E+02  0.57123149236E+03  0.57162759536E+03  0.25500000000E-02 0. -1.
<mgrwt>
<rscale>  0 0.42697123E+02</rscale>
<asrwt>0</asrwt>
<pdfrwt beam="1">  1        3 0.16248820E+00 0.42697123E+02</pdfrwt>
<pdfrwt beam="2">  1       -3 0.66387866E-04 0.42697123E+02</pdfrwt>
<totfact> 0.65118624E+04</totfact>
</mgrwt>
</event>
<event>
 4    1  0.7692565E-003  0.4827339E+02  0.7818608E-02  0.1454883E+00
          3   -1    0    0    0  501  0.00000000000E+00  0.00000000000E+00  0.32004231836E+01  0.32020164825E+01  0.10100000000E+00 0. -1.
         -3   -1    0    0  501    0 -0.00000000000E+00 -0.00000000000E+00 -0.18198524828E+03  0.18198527631E+03  0.10100000000E+00 0. -1.
          2    1    1    2    0  502 -0.39230327062E+01  0.23764157020E+02 -0.83382169038E+02  0.86791194626E+02  0.25500000000E-02 0.  1.
         -2    1    1    2  502    0  0.39230327062E+01 -0.23764157020E+02 -0.95402656059E+02  0.98396098165E+02  0.25500000000E-02 0.  1.
<mgrwt>
<rscale>  0 0.48273385E+02</rscale>
<asrwt>0</asrwt>
<pdfrwt beam="1">  1        3 0.49249766E-03 0.48273385E+02</pdfrwt>
<pdfrwt beam="2">  1       -3 0.27997847E-01 0.48273385E+02</pdfrwt>
<totfact> 0.15224164E+05</totfact>
</mgrwt>
</event>
<event>
 4    1  0.7692565E-003  0.5786729E+02  0.7818608E-02  0.1407006E+00
          3   -1    0    0    0  501  0.00000000000E+00  0.00000000000E+00  0.15517339820E+02  0.15517668514E+02  0.10100000000E+00 0.  1.
         -3   -1    0    0  501    0 -0.00000000000E+00 -0.00000000000E+00 -0.53948751818E+02  0.53948846361E+02  0.10100000000E+00 0.  1.
          2    1    1    2    0  502  0.21142132891E+02 -0.18623567587E+02 -0.11313825174E+02  0.30361648496E+02  0.25500000000E-02 0.  1.
         -2    1    1    2  502    0 -0.21142132891E+02  0.18623567587E+02 -0.27117586824E+02  0.39104866379E+02  0.25500000000E-02 0.  1.
<mgrwt>
<rscale>  0 0.57867290E+02</rscale>
<asrwt>0</asrwt>
<pdfrwt beam="1">  1        3 0.23873156E-02 0.57867290E+02</pdfrwt>
<pdfrwt beam="2">  1       -3 0.82998404E-02 0.57867290E+02</pdfrwt>
<totfact> 0.12388477E+05</totfact>
</mgrwt>
</event>
<event>
 4    1  0.7692565E-003  0.5414886E+02  0.7818608E-02  0.1424167E+00
         -3   -1    0    0  501    0 -0.00000000000E+00  0.00000000000E+00  0.61030683483E+02  0.61030767056E+02  0.10100000000E+00 0.  1.
          3   -1    0    0    0  501  0.00000000000E+00 -0.00000000000E+00 -0.12010454765E+02  0.12010879430E+02  0.10100000000E+00 0.  1.
          2    1    1    2    0  502 -0.21888687518E+02  0.12634543065E+02  0.11412640347E+02  0.27730753432E+02  0.25500000000E-02 0. -1.
         -2    1    1    2  502    0  0.21888687518E+02 -0.12634543065E+02  0.37607588371E+02  0.45310893054E+02  0.25500000000E-02 0. -1.
<mgrwt>
<rscale>  0 0.54148862E+02</rscale>
<asrwt>0</asrwt>
<pdfrwt beam="2">  1        3 0.18478014E-02 0.54148862E+02</pdfrwt>
<pdfrwt beam="1">  1       -3 0.93893749E-02 0.54148862E+02</pdfrwt>
<totfact> 0.14555989E+05</totfact>
</mgrwt>
</event>
<event>
 4    1  0.7692565E-003  0.9449857E+02  0.7818608E-02  0.1292309E+00
         -3   -1    0    0  501    0 -0.00000000000E+00  0.00000000000E+00  0.99069577900E+03  0.99069578415E+03  0.10100000000E+00 0. -1.
          3   -1    0    0    0  501  0.00000000000E+00 -0.00000000000E+00 -0.22523246026E+01  0.22545880146E+01  0.10100000000E+00 0. -1.
          2    1    1    2    0  502 -0.12333711632E+02  0.39438166173E+02  0.25346180654E+03  0.25680805435E+03  0.25500000000E-02 0.  1.
         -2    1    1    2  502    0  0.12333711632E+02 -0.39438166173E+02  0.73498164785E+03  0.73614231782E+03  0.25500000000E-02 0.  1.
<mgrwt>
<rscale>  0 0.94498566E+02</rscale>
<asrwt>0</asrwt>
<pdfrwt beam="2">  1        3 0.34668593E-03 0.94498566E+02</pdfrwt>
<pdfrwt beam="1">  1       -3 0.15241493E+00 0.94498566E+02</pdfrwt>
<totfact> 0.91386917E+03</totfact>
</mgrwt>
</event>
<event>
 4    1  0.7692565E-003  0.5034149E+02  0.7818608E-02  0.1443508E+00
          3   -1    0    0    0  501  0.00000000000E+00  0.00000000000E+00  0.24410451695E+02  0.24410660641E+02  0.10100000000E+00 0.  1.
         -3   -1    0    0  501    0 -0.00000000000E+00 -0.00000000000E+00 -0.25954303966E+02  0.25954500484E+02  0.10100000000E+00 0.  1.
          2    1    1    2    0  502  0.26791990490E+01  0.24747381085E+02 -0.45093897677E+01  0.25297145702E+02  0.25500000000E-02 0. -1.
         -2    1    1    2  502    0 -0.26791990490E+01 -0.24747381085E+02  0.29655374961E+01  0.25068015423E+02  0.25500000000E-02 0. -1.
<mgrwt>
<rscale>  0 0.50341494E+02</rscale>
<asrwt>0</asrwt>
<pdfrwt beam="1">  1        3 0.37554853E-02 0.50341494E+02</pdfrwt>
<pdfrwt beam="2">  1       -3 0.39930010E-02 0.50341494E+02</pdfrwt>
<totfact> 0.18563946E+05</totfact>
</mgrwt>
</event>
<event>
 4    1  0.7692565E-003  0.4569420E+02  0.7818608E-02  0.1470054E+00
         -3   -1    0    0  501    0 -0.00000000000E+00  0.00000000000E+00  0.96349106225E+02  0.96349159163E+02  0.10100000000E+00 0. -1.
          3   -1    0    0    0  501  0.00000000000E+00 -0.00000000000E+00 -0.54171693038E+01  0.54181107653E+01  0.10100000000E+00 0. -1.
          2    1    1    2    0  502 -0.10045697580E+02 -0.20017346715E+02  0.35411779991E+02  0.41899932912E+02  0.25500000000E-02 0. -1.
         -2    1    1    2  502    0  0.10045697580E+02  0.20017346715E+02  0.55520156930E+02  0.59867337016E+02  0.25500000000E-02 0. -1.
<mgrwt>
<rscale>  0 0.45694202E+02</rscale>
<asrwt>0</asrwt>
<pdfrwt beam="2">  1        3 0.83348713E-03 0.45694202E+02</pdfrwt>
<pdfrwt beam="1">  1       -3 0.14823016E-01 0.45694202E+02</pdfrwt>
<totfact> 0.20813426E+05</totfact>
</mgrwt>
</event>
<event>
 4    1  0.7692565E-003  0.5130509E+02  0.7818608E-02  0.1438427E+00
          3   -1    0    0    0  501  0.00000000000E+00  0.00000000000E+00  0.19686818270E+02  0.19687077350E+02  0.10100000000E+00 0. -1.
         -3   -1    0    0  501    0 -0.00000000000E+00 -0.00000000000E+00 -0.33425523887E+02  0.33425676479E+02  0.10100000000E+00 0. -1.
          2    1    1    2    0  502  0.10030761660E+02  0.20933446105E+02 -0.18173221264E+02  0.29480354864E+02  0.25500000000E-02 0.  1.
         -2    1    1    2  502    0 -0.10030761660E+02 -0.20933446105E+02  0.44345156469E+01  0.23632398965E+02  0.25500000000E-02 0.  1.
<mgrwt>
<rscale>  0 0.51305093E+02</rscale>
<asrwt>0</asrwt>
<pdfrwt beam="1">  1        3 0.30287730E-02 0.51305093E+02</pdfrwt>
<pdfrwt beam="2">  1       -3 0.51424199E-02 0.51305093E+02</pdfrwt>
<totfact> 0.17566625E+05</totfact>
</mgrwt>
</event>
<event>
 4    1  0.7692565E-003  0.6836295E+02  0.7818608E-02  0.1365750E+00
          3   -1    0    0    0  501  0.00000000000E+00  0.00000000000E+00  0.40540086817E+01  0.40552666239E+01  0.10100000000E+00 0. -1.
         -3   -1    0    0  501    0 -0.00000000000E+00 -0.00000000000E+00 -0.28815597656E+03  0.28815599426E+03  0.10100000000E+00 0. -1.
          2    1    1    2    0  502 -0.24918264764E+02  0.11951109784E+02 -0.56070058384E+02  0.62510802248E+02  0.25500000000E-02 0. -1.
         -2    1    1    2  502    0  0.24918264764E+02 -0.11951109784E+02 -0.22803190949E+03  0.22970045864E+03  0.25500000000E-02 0. -1.
<mgrwt>
<rscale>  0 0.68362949E+02</rscale>
<asrwt>0</asrwt>
<pdfrwt beam="1">  1        3 0.62379200E-03 0.68362949E+02</pdfrwt>
<pdfrwt beam="2">  1       -3 0.44331771E-01 0.68362949E+02</pdfrwt>
<totfact> 0.51989245E+04</totfact>
</mgrwt>
</event>
<event>
 4    1  0.7692565E-003  0.6096483E+02  0.7818608E-02  0.1393827E+00
         -3   -1    0    0  501    0 -0.00000000000E+00  0.00000000000E+00  0.47914742923E+02  0.47914849373E+02  0.10100000000E+00 0.  1.
          3   -1    0    0    0  501  0.00000000000E+00 -0.00000000000E+00 -0.19392051360E+02  0.19392314378E+02  0.10100000000E+00 0.  1.
          2    1    1    2    0  502  0.23112625227E+02 -0.41157632223E+01  0.35727461622E+02  0.42750256985E+02  0.25500000000E-02 0. -1.
         -2    1    1    2  502    0 -0.23112625227E+02  0.41157632223E+01 -0.72047700587E+01  0.24556906766E+02  0.25500000000E-02 0. -1.
<mgrwt>
<rscale>  0 0.60964829E+02</rscale>
<asrwt>0</asrwt>
<pdfrwt beam="2">  1        3 0.29834210E-02 0.60964829E+02</pdfrwt>
<pdfrwt beam="1">  1       -3 0.73715272E-02 0.60964829E+02</pdfrwt>
<totfact> 0.10887137E+05</totfact>
</mgrwt>
</event>
<event>
 4    1  0.7692565E-003  0.7061163E+02  0.7818608E-02  0.1358025E+00
         -3   -1    0    0  501    0 -0.00000000000E+00  0.00000000000E+00  0.84176599068E+02  0.84176659661E+02  0.10100000000E+00 0. -1.
          3   -1    0    0    0  501  0.00000000000E+00 -0.00000000000E+00 -0.14807921505E+02  0.14808265945E+02  0.10100000000E+00 0. -1.
          2    1    1    2    0  502  0.11663537213E+02 -0.19530283641E+02 -0.31656419203E+01  0.22967180382E+02  0.25500000000E-02 0.  1.
         -2    1    1    2  502    0 -0.11663537213E+02  0.19530283641E+02  0.72534319484E+02  0.76017745224E+02  0.25500000000E-02 0.  1.
<mgrwt>
<rscale>  0 0.70611628E+02</rscale>
<asrwt>0</asrwt>
<pdfrwt beam="2">  1        3 0.22781729E-02 0.70611628E+02</pdfrwt>
<pdfrwt beam="1">  1       -3 0.12950277E-01 0.70611628E+02</pdfrwt>
<totfact> 0.68879888E+04</totfact>
</mgrwt>
</event>
<event>
 4    1  0.7692565E-003  0.5801022E+02  0.7818608E-02  0.1406377E+00
          3   -1    0    0    0  501  0.00000000000E+00  0.00000000000E+00  0.51162000032E+02  0.51162099725E+02  0.10100000000E+00 0.  1.
         -3   -1    0    0  501    0 -0.00000000000E+00 -0.00000000000E+00 -0.16443502132E+02  0.16443812312E+02  0.10100000000E+00 0.  1.
          2    1    1    2    0  502  0.14032273112E+02 -0.22565198365E+02  0.38081643326E+01  0.26843900388E+02  0.25500000000E-02 0. -1.
         -2    1    1    2  502    0 -0.14032273112E+02  0.22565198365E+02  0.30910333567E+02  0.40762011649E+02  0.25500000000E-02 0. -1.
<mgrwt>
<rscale>  0 0.58010217E+02</rscale>
<asrwt>0</asrwt>
<pdfrwt beam="1">  1        3 0.78711085E-02 0.58010217E+02</pdfrwt>
<pdfrwt beam="2">  1       -3 0.25298011E-02 0.58010217E+02</pdfrwt>
<totfact> 0.12365989E+05</totfact>
</mgrwt>
</event>
<event>
 4    1  0.7692565E-003  0.4467763E+02  0.7818608E-02  0.1476364E+00
         -3   -1    0    0  501    0 -0.00000000000E+00  0.00000000000E+00  0.76345039864E+03  0.76345040532E+03  0.10100000000E+00 0.  1.
          3   -1    0    0    0  501  0.00000000000E+00 -0.00000000000E+00 -0.64973300865E+00  0.65753629750E+00  0.10100000000E+00 0.  1.
          2    1    1    2    0  502  0.26321542834E+01  0.21997162275E+02  0.33236792253E+03  0.33310544775E+03  0.25500000000E-02 0.  1.
         -2    1    1    2  502    0 -0.26321542834E+01 -0.21997162275E+02  0.43043274310E+03  0.43100249387E+03  0.25500000000E-02 0.  1.
<mgrwt>
<rscale>  0 0.44677634E+02</rscale>
<asrwt>0</asrwt>
<pdfrwt beam="2">  1        3 0.10056048E-03 0.44677634E+02</pdfrwt>
<pdfrwt beam="1">  1       -3 0.11745359E+00 0.44677634E+02</pdfrwt>
<totfact> 0.79441545E+04</totfact>
</mgrwt>
</event>
<event>
 4    1  0.7692565E-003  0.4521526E+02  0.7818608E-02  0.1473002E+00
         -3   -1    0    0  501    0 -0.00000000000E+00  0.00000000000E+00  0.75991568369E+00  0.76659823006E+00  0.10100000000E+00 0. -1.
          3   -1    0    0    0  501  0.00000000000E+00 -0.00000000000E+00 -0.66963013527E+03  0.66963014289E+03  0.10100000000E+00 0. -1.
          2    1    1    2    0  502 -0.13596576234E+02 -0.17250842398E+02 -0.25507857594E+03  0.25602253487E+03  0.25500000000E-02 0.  1.
         -2    1    1    2  502    0  0.13596576234E+02  0.17250842398E+02 -0.41379164364E+03  0.41437420625E+03  0.25500000000E-02 0.  1.
<mgrwt>
<rscale>  0 0.45215261E+02</rscale>
<asrwt>0</asrwt>
<pdfrwt beam="2">  1        3 0.10302007E+00 0.45215261E+02</pdfrwt>
<pdfrwt beam="1">  1       -3 0.11742527E-03 0.45215261E+02</pdfrwt>
<totfact> 0.86391134E+04</totfact>
</mgrwt>
</event>
<event>
 4    1  0.7692565E-003  0.6566329E+02  0.7818608E-02  0.1375494E+00
         -3   -1    0    0  501    0 -0.00000000000E+00  0.00000000000E+00  0.62253431145E+01  0.62261623729E+01  0.10100000000E+00 0.  1.
          3   -1    0    0    0  501  0.00000000000E+00 -0.00000000000E+00 -0.17313758391E+03  0.17313761336E+03  0.10100000000E+00 0.  1.
          2    1    1    2    0  502 -0.18470348221E+02 -0.26159504803E+02 -0.63674676116E+02  0.71273682660E+02  0.25500000000E-02 0. -1.
         -2    1    1    2  502    0  0.18470348221E+02  0.26159504803E+02 -0.10323756468E+03  0.10809009308E+03  0.25500000000E-02 0. -1.
<mgrwt>
<rscale>  0 0.65663292E+02</rscale>
<asrwt>0</asrwt>
<pdfrwt beam="2">  1        3 0.26636613E-01 0.65663292E+02</pdfrwt>
<pdfrwt beam="1">  1       -3 0.95781051E-03 0.65663292E+02</pdfrwt>
<totfact> 0.70547197E+04</totfact>
</mgrwt>
</event>
<event>
 4    1  0.7692565E-003  0.4509237E+02  0.7818608E-02  0.1473766E+00
          3   -1    0    0    0  501  0.00000000000E+00  0.00000000000E+00  0.10141586210E+03  0.10141591239E+03  0.10100000000E+00 0. -1.
         -3   -1    0    0  501    0 -0.00000000000E+00 -0.00000000000E+00 -0.50117768737E+01  0.50127944733E+01  0.10100000000E+00 0. -1.
          2    1    1    2    0  502  0.19094619417E+02  0.11568690530E+02  0.55625130799E+02  0.59938253846E+02  0.25500000000E-02 0. -1.
         -2    1    1    2  502    0 -0.19094619417E+02 -0.11568690530E+02  0.40778954428E+02  0.46490453020E+02  0.25500000000E-02 0. -1.
<mgrwt>
<rscale>  0 0.45092372E+02</rscale>
<asrwt>0</asrwt>
<pdfrwt beam="1">  1        3 0.15602522E-01 0.45092372E+02</pdfrwt>
<pdfrwt beam="2">  1       -3 0.77112477E-03 0.45092372E+02</pdfrwt>
<totfact> 0.21274884E+05</totfact>
</mgrwt>
</event>
<event>
 4    1  0.7692565E-003  0.5342038E+02  0.7818608E-02  0.1427720E+00
         -3   -1    0    0  501    0 -0.00000000000E+00  0.00000000000E+00  0.10577788910E+03  0.10577793732E+03  0.10100000000E+00 0.  1.
          3   -1    0    0    0  501  0.00000000000E+00 -0.00000000000E+00 -0.67442168872E+01  0.67449731224E+01  0.10100000000E+00 0.  1.
          2    1    1    2    0  502  0.72972888240E+00 -0.20870813287E+02  0.84593434039E+02  0.87133073173E+02  0.25500000000E-02 0.  1.
         -2    1    1    2  502    0 -0.72972888240E+00  0.20870813287E+02  0.14440238172E+02  0.25389837267E+02  0.25500000000E-02 0.  1.
<mgrwt>
<rscale>  0 0.53420381E+02</rscale>
<asrwt>0</asrwt>
<pdfrwt beam="2">  1        3 0.10376338E-02 0.53420381E+02</pdfrwt>
<pdfrwt beam="1">  1       -3 0.16273583E-01 0.53420381E+02</pdfrwt>
<totfact> 0.13736835E+05</totfact>
</mgrwt>
</event>
<event>
 4    1  0.7692565E-003  0.1220532E+03  0.7818608E-02  0.1239748E+00
          3   -1    0    0    0  501  0.00000000000E+00  0.00000000000E+00  0.38744822279E+03  0.38744823595E+03  0.10100000000E+00 0.  1.
         -3   -1    0    0  501    0 -0.00000000000E+00 -0.00000000000E+00 -0.96119611374E+01  0.96124917637E+01  0.10100000000E+00 0.  1.
          2    1    1    2    0  502 -0.39922192433E+01 -0.60608667345E+02  0.20813580649E+03  0.21681757844E+03  0.25500000000E-02 0.  1.
         -2    1    1    2  502    0  0.39922192433E+01  0.60608667345E+02  0.16970045516E+03  0.18024314927E+03  0.25500000000E-02 0.  1.
<mgrwt>
<rscale>  0 0.12205319E+03</rscale>
<asrwt>0</asrwt>
<pdfrwt beam="1">  1        3 0.59607457E-01 0.12205319E+03</pdfrwt>
<pdfrwt beam="2">  1       -3 0.14788052E-02 0.12205319E+03</pdfrwt>
<totfact> 0.93601584E+03</totfact>
</mgrwt>
</event>
<event>
 4    1  0.7692565E-003  0.5410549E+02  0.7818608E-02  0.1424377E+00
         -3   -1    0    0  501    0 -0.00000000000E+00  0.00000000000E+00  0.30652754140E+02  0.30652920536E+02  0.10100000000E+00 0.  1.
          3   -1    0    0    0  501  0.00000000000E+00 -0.00000000000E+00 -0.23875203772E+02  0.23875417403E+02  0.10100000000E+00 0.  1.
          2    1    1    2    0  502 -0.21224604287E+02  0.13535581213E+01  0.20238744563E+02  0.29358520649E+02  0.25500000000E-02 0. -1.
         -2    1    1    2  502    0  0.21224604287E+02 -0.13535581213E+01 -0.13461194195E+02  0.25169817290E+02  0.25500000000E-02 0. -1.
<mgrwt>
<rscale>  0 0.54105494E+02</rscale>
<asrwt>0</asrwt>
<pdfrwt beam="2">  1        3 0.36731375E-02 0.54105494E+02</pdfrwt>
<pdfrwt beam="1">  1       -3 0.47158375E-02 0.54105494E+02</pdfrwt>
<totfact> 0.15285967E+05</totfact>
</mgrwt>
</event>
<event>
 4    1  0.7692565E-003  0.4842460E+02  0.7818608E-02  0.1454029E+00
         -3   -1    0    0  501    0 -0.00000000000E+00  0.00000000000E+00  0.58505897590E+01  0.58514614865E+01  0.10100000000E+00 0. -1.
          3   -1    0    0    0  501  0.00000000000E+00 -0.00000000000E+00 -0.10019274280E+03  0.10019279371E+03  0.10100000000E+00 0. -1.
          2    1    1    2    0  502  0.23570622621E+01  0.24086939364E+02 -0.48718253569E+02  0.54398571927E+02  0.25500000000E-02 0.  1.
         -2    1    1    2  502    0 -0.23570622621E+01 -0.24086939364E+02 -0.45623899471E+02  0.51645683264E+02  0.25500000000E-02 0.  1.
<mgrwt>
<rscale>  0 0.48424603E+02</rscale>
<asrwt>0</asrwt>
<pdfrwt beam="2">  1        3 0.15414338E-01 0.48424603E+02</pdfrwt>
<pdfrwt beam="1">  1       -3 0.90016178E-03 0.48424603E+02</pdfrwt>
<totfact> 0.17837520E+05</totfact>
</mgrwt>
</event>
<event>
 4    1  0.7692565E-003  0.5018474E+02  0.7818608E-02  0.1444348E+00
          3   -1    0    0    0  501  0.00000000000E+00  0.00000000000E+00  0.44841736171E+01  0.44853109177E+01  0.10100000000E+00 0.  1.
         -3   -1    0    0  501    0 -0.00000000000E+00 -0.00000000000E+00 -0.14039196634E+03  0.14039200267E+03  0.10100000000E+00 0.  1.
          2    1    1    2    0  502  0.18967100286E+02 -0.16196004878E+02 -0.75894387466E+02  0.79887542976E+02  0.25500000000E-02 0.  1.
         -2    1    1    2  502    0 -0.18967100286E+02  0.16196004878E+02 -0.60013405258E+02  0.64989770614E+02  0.25500000000E-02 0.  1.
<mgrwt>
<rscale>  0 0.50184737E+02</rscale>
<asrwt>0</asrwt>
<pdfrwt beam="1">  1        3 0.68996325E-03 0.50184737E+02</pdfrwt>
<pdfrwt beam="2">  1       -3 0.21598851E-01 0.50184737E+02</pdfrwt>
<totfact> 0.14992068E+05</totfact>
</mgrwt>
</event>
<event>
 4    1  0.7692565E-003  0.5276254E+02  0.7818608E-02  0.1430986E+00
         -3   -1    0    0  501    0 -0.00000000000E+00  0.00000000000E+00  0.32135778281E+02  0.32135936998E+02  0.10100000000E+00 0. -1.
          3   -1    0    0    0  501  0.00000000000E+00 -0.00000000000E+00 -0.21656883842E+02  0.21657119355E+02  0.10100000000E+00 0. -1.
          2    1    1    2    0  502 -0.11866470089E+02  0.18435244116E+02 -0.97202434460E+01  0.23982378471E+02  0.25500000000E-02 0.  1.
         -2    1    1    2  502    0  0.11866470089E+02 -0.18435244116E+02  0.20199137884E+02  0.29810677882E+02  0.25500000000E-02 0.  1.
<mgrwt>
<rscale>  0 0.52762541E+02</rscale>
<asrwt>0</asrwt>
<pdfrwt beam="2">  1        3 0.33318586E-02 0.52762541E+02</pdfrwt>
<pdfrwt beam="1">  1       -3 0.49439962E-02 0.52762541E+02</pdfrwt>
<totfact> 0.16330282E+05</totfact>
</mgrwt>
</event>
<event>
 4    1  0.7692565E-003  0.4570082E+02  0.7818608E-02  0.1470013E+00
         -3   -1    0    0  501    0 -0.00000000000E+00  0.00000000000E+00  0.95672907146E+02  0.95672960457E+02  0.10100000000E+00 0. -1.
          3   -1    0    0    0  501  0.00000000000E+00 -0.00000000000E+00 -0.54570431503E+01  0.54579777340E+01  0.10100000000E+00 0. -1.
          2    1    1    2    0  502 -0.55422777720E+01 -0.20695981620E+02  0.27529629357E+02  0.34884394751E+02  0.25500000000E-02 0.  1.
         -2    1    1    2  502    0  0.55422777720E+01  0.20695981620E+02  0.62686234639E+02  0.66246543440E+02  0.25500000000E-02 0.  1.
<mgrwt>
<rscale>  0 0.45700816E+02</rscale>
<asrwt>0</asrwt>
<pdfrwt beam="2">  1        3 0.83962102E-03 0.45700816E+02</pdfrwt>
<pdfrwt beam="1">  1       -3 0.14718986E-01 0.45700816E+02</pdfrwt>
<totfact> 0.20836757E+05</totfact>
</mgrwt>
</event>
<event>
 4    1  0.7692565E-003  0.7733076E+02  0.7818608E-02  0.1336802E+00
          3   -1    0    0    0  501  0.00000000000E+00  0.00000000000E+00  0.18572065143E+02  0.18572339774E+02  0.10100000000E+00 0.  1.
         -3   -1    0    0  501    0 -0.00000000000E+00 -0.00000000000E+00 -0.80496963494E+02  0.80497026856E+02  0.10100000000E+00 0.  1.
          2    1    1    2    0  502  0.26411548128E+02 -0.93095795259E+01  0.31924262932E+01  0.28185629985E+02  0.25500000000E-02 0.  1.
         -2    1    1    2  502    0 -0.26411548128E+02  0.93095795259E+01 -0.65117324644E+02  0.70883736645E+02  0.25500000000E-02 0.  1.
<mgrwt>
<rscale>  0 0.77330760E+02</rscale>
<asrwt>0</asrwt>
<pdfrwt beam="1">  1        3 0.28572668E-02 0.77330760E+02</pdfrwt>
<pdfrwt beam="2">  1       -3 0.12384174E-01 0.77330760E+02</pdfrwt>
<totfact> 0.54136037E+04</totfact>
</mgrwt>
</event>
<event>
 4    1  0.7692565E-003  0.5941233E+02  0.7818608E-02  0.1400315E+00
         -3   -1    0    0  501    0 -0.00000000000E+00  0.00000000000E+00  0.13818930049E+03  0.13818933740E+03  0.10100000000E+00 0. -1.
          3   -1    0    0    0  501  0.00000000000E+00 -0.00000000000E+00 -0.63854128950E+01  0.63862116188E+01  0.10100000000E+00 0. -1.
          2    1    1    2    0  502  0.16929520970E+02  0.23478352727E+02  0.49648107442E+02  0.57469786028E+02  0.25500000000E-02 0. -1.
         -2    1    1    2  502    0 -0.16929520970E+02 -0.23478352727E+02  0.82155780158E+02  0.87105762995E+02  0.25500000000E-02 0. -1.
<mgrwt>
<rscale>  0 0.59412327E+02</rscale>
<asrwt>0</asrwt>
<pdfrwt beam="2">  1        3 0.98243548E-03 0.59412327E+02</pdfrwt>
<pdfrwt beam="1">  1       -3 0.21259957E-01 0.59412327E+02</pdfrwt>
<totfact> 0.97834976E+04</totfact>
</mgrwt>
</event>
<event>
 4    1  0.7692565E-003  0.4949285E+02  0.7818608E-02  0.1448096E+00
          3   -1    0    0    0  501  0.00000000000E+00  0.00000000000E+00  0.51536261565E+03  0.51536262555E+03  0.10100000000E+00 0. -1.
         -3   -1    0    0  501    0 -0.00000000000E+00 -0.00000000000E+00 -0.11861051666E+01  0.11903976085E+01  0.10100000000E+00 0. -1.
          2    1    1    2    0  502 -0.12104808565E+01 -0.24576298590E+02  0.22962163917E+03  0.23093626155E+03  0.25500000000E-02 0.  1.
         -2    1    1    2  502    0  0.12104808565E+01  0.24576298590E+02  0.28455487131E+03  0.28561676161E+03  0.25500000000E-02 0.  1.
<mgrwt>
<rscale>  0 0.49492846E+02</rscale>
<asrwt>0</asrwt>
<pdfrwt beam="1">  1        3 0.79286741E-01 0.49492846E+02</pdfrwt>
<pdfrwt beam="2">  1       -3 0.18280900E-03 0.49492846E+02</pdfrwt>
<totfact> 0.84263064E+04</totfact>
</mgrwt>
</event>
<event>
 4    1  0.7692565E-003  0.4213757E+02  0.7818608E-02  0.1493046E+00
         -3   -1    0    0  501    0 -0.00000000000E+00  0.00000000000E+00  0.10164570988E+03  0.10164576006E+03  0.10100000000E+00 0. -1.
          3   -1    0    0    0  501  0.00000000000E+00 -0.00000000000E+00 -0.43664330327E+01  0.43676009925E+01  0.10100000000E+00 0. -1.
          2    1    1    2    0  502  0.16321184887E+02 -0.12422369095E+02  0.60757079410E+02  0.64125806311E+02  0.25500000000E-02 0. -1.
         -2    1    1    2  502    0 -0.16321184887E+02  0.12422369095E+02  0.36522197436E+02  0.41887554740E+02  0.25500000000E-02 0. -1.
<mgrwt>
<rscale>  0 0.42137573E+02</rscale>
<asrwt>0</asrwt>
<pdfrwt beam="2">  1        3 0.67185261E-03 0.42137573E+02</pdfrwt>
<pdfrwt beam="1">  1       -3 0.15637896E-01 0.42137573E+02</pdfrwt>
<totfact> 0.25161403E+05</totfact>
</mgrwt>
</event>
<event>
 4    1  0.7692565E-003  0.6272264E+02  0.7818608E-02  0.1386749E+00
         -3   -1    0    0  501    0 -0.00000000000E+00  0.00000000000E+00  0.16221761002E+02  0.16222075422E+02  0.10100000000E+00 0.  1.
          3   -1    0    0    0  501  0.00000000000E+00 -0.00000000000E+00 -0.60629491647E+02  0.60629575772E+02  0.10100000000E+00 0.  1.
          2    1    1    2    0  502  0.23973813850E+02 -0.11891443464E+02 -0.42239133156E+02  0.50002945458E+02  0.25500000000E-02 0. -1.
         -2    1    1    2  502    0 -0.23973813850E+02  0.11891443464E+02 -0.21685974886E+01  0.26848705737E+02  0.25500000000E-02 0. -1.
<mgrwt>
<rscale>  0 0.62722641E+02</rscale>
<asrwt>0</asrwt>
<pdfrwt beam="2">  1        3 0.93276446E-02 0.62722641E+02</pdfrwt>
<pdfrwt beam="1">  1       -3 0.24956862E-02 0.62722641E+02</pdfrwt>
<totfact> 0.98821055E+04</totfact>
</mgrwt>
</event>
<event>
 4    1  0.7692565E-003  0.4062246E+02  0.7818608E-02  0.1503680E+00
          3   -1    0    0    0  501  0.00000000000E+00  0.00000000000E+00  0.37387970259E+02  0.37388106680E+02  0.10100000000E+00 0. -1.
         -3   -1    0    0  501    0 -0.00000000000E+00 -0.00000000000E+00 -0.11033806864E+02  0.11034269116E+02  0.10100000000E+00 0. -1.
          2    1    1    2    0  502 -0.29952230398E+01  0.19835184437E+02  0.16972884998E+02  0.26277076214E+02  0.25500000000E-02 0.  1.
         -2    1    1    2  502    0  0.29952230398E+01 -0.19835184437E+02  0.93812783964E+01  0.22145299581E+02  0.25500000000E-02 0.  1.
<mgrwt>
<rscale>  0 0.40622464E+02</rscale>
<asrwt>0</asrwt>
<pdfrwt beam="1">  1        3 0.57520415E-02 0.40622464E+02</pdfrwt>
<pdfrwt beam="2">  1       -3 0.16975548E-02 0.40622464E+02</pdfrwt>
<totfact> 0.31824611E+05</totfact>
</mgrwt>
</event>
<event>
 4    1  0.7692565E-003  0.4047342E+02  0.7818608E-02  0.1504756E+00
          3   -1    0    0    0  501  0.00000000000E+00  0.00000000000E+00  0.11676154554E+04  0.11676154598E+04  0.10100000000E+00 0. -1.
         -3   -1    0    0  501    0 -0.00000000000E+00 -0.00000000000E+00 -0.34346004719E+00  0.35800251957E+00  0.10100000000E+00 0. -1.
          2    1    1    2    0  502  0.15954208975E+02  0.12307040015E+02  0.52946058202E+03  0.52984385241E+03  0.25500000000E-02 0.  1.
         -2    1    1    2  502    0 -0.15954208975E+02 -0.12307040015E+02  0.63781141337E+03  0.63812960991E+03  0.25500000000E-02 0.  1.
<mgrwt>
<rscale>  0 0.40473417E+02</rscale>
<asrwt>0</asrwt>
<pdfrwt beam="1">  1        3 0.17963656E+00 0.40473417E+02</pdfrwt>
<pdfrwt beam="2">  1       -3 0.53958307E-04 0.40473417E+02</pdfrwt>
<totfact> 0.66395715E+04</totfact>
</mgrwt>
</event>
<event>
 4    1  0.7692565E-003  0.6472109E+02  0.7818608E-02  0.1379024E+00
         -3   -1    0    0  501    0 -0.00000000000E+00  0.00000000000E+00  0.57550225591E+02  0.57550314218E+02  0.10100000000E+00 0. -1.
          3   -1    0    0    0  501  0.00000000000E+00 -0.00000000000E+00 -0.18196120143E+02  0.18196400448E+02  0.10100000000E+00 0. -1.
          2    1    1    2    0  502 -0.25777256784E+02 -0.12640559663E+02  0.22017102037E+01  0.28794066233E+02  0.25500000000E-02 0.  1.
         -2    1    1    2  502    0  0.25777256784E+02  0.12640559663E+02  0.37152395245E+02  0.46952648433E+02  0.25500000000E-02 0.  1.
<mgrwt>
<rscale>  0 0.64721087E+02</rscale>
<asrwt>0</asrwt>
<pdfrwt beam="2">  1        3 0.27994315E-02 0.64721087E+02</pdfrwt>
<pdfrwt beam="1">  1       -3 0.88539093E-02 0.64721087E+02</pdfrwt>
<totfact> 0.91306794E+04</totfact>
</mgrwt>
</event>
<event>
 4    1  0.7692565E-003  0.5045169E+02  0.7818608E-02  0.1442920E+00
         -3   -1    0    0  501    0 -0.00000000000E+00  0.00000000000E+00  0.23245540003E+03  0.23245542197E+03  0.10100000000E+00 0.  1.
          3   -1    0    0    0  501  0.00000000000E+00 -0.00000000000E+00 -0.27365314484E+01  0.27383946699E+01  0.10100000000E+00 0.  1.
          2    1    1    2    0  502 -0.20104414732E+02 -0.94824306386E+01  0.17045752385E+03  0.17190076040E+03  0.25500000000E-02 0. -1.
         -2    1    1    2  502    0  0.20104414732E+02  0.94824306386E+01  0.59261344731E+02  0.63293056241E+02  0.25500000000E-02 0. -1.
<mgrwt>
<rscale>  0 0.50451688E+02</rscale>
<asrwt>0</asrwt>
<pdfrwt beam="2">  1        3 0.42114975E-03 0.50451688E+02</pdfrwt>
<pdfrwt beam="1">  1       -3 0.35762522E-01 0.50451688E+02</pdfrwt>
<totfact> 0.12420995E+05</totfact>
</mgrwt>
</event>
<event>
 4    1  0.7692565E-003  0.6101403E+02  0.7818608E-02  0.1393625E+00
         -3   -1    0    0  501    0 -0.00000000000E+00  0.00000000000E+00  0.88432800402E+02  0.88432858079E+02  0.10100000000E+00 0.  1.
          3   -1    0    0    0  501  0.00000000000E+00 -0.00000000000E+00 -0.10523821234E+02  0.10524305885E+02  0.10100000000E+00 0.  1.
          2    1    1    2    0  502  0.26889569327E+02  0.94836939605E+00  0.15635015295E+02  0.31119158936E+02  0.25500000000E-02 0. -1.
         -2    1    1    2  502    0 -0.26889569327E+02 -0.94836939605E+00  0.62273963874E+02  0.67838005028E+02  0.25500000000E-02 0. -1.
<mgrwt>
<rscale>  0 0.61014025E+02</rscale>
<asrwt>0</asrwt>
<pdfrwt beam="2">  1        3 0.16190911E-02 0.61014025E+02</pdfrwt>
<pdfrwt beam="1">  1       -3 0.13605089E-01 0.61014025E+02</pdfrwt>
<totfact> 0.10083018E+05</totfact>
</mgrwt>
</event>
<event>
 4    1  0.7692565E-003  0.6771604E+02  0.7818608E-02  0.1368037E+00
         -3   -1    0    0  501    0 -0.00000000000E+00  0.00000000000E+00  0.16669968869E+02  0.16670274836E+02  0.10100000000E+00 0. -1.
          3   -1    0    0    0  501  0.00000000000E+00 -0.00000000000E+00 -0.68767336123E+02  0.68767410294E+02  0.10100000000E+00 0. -1.
          2    1    1    2    0  502 -0.98329418298E+01  0.25059888981E+02 -0.13973308758E+00  0.26920332699E+02  0.25500000000E-02 0.  1.
         -2    1    1    2  502    0  0.98329418298E+01 -0.25059888981E+02 -0.51957634167E+02  0.58517352431E+02  0.25500000000E-02 0.  1.
<mgrwt>
<rscale>  0 0.67716042E+02</rscale>
<asrwt>0</asrwt>
<pdfrwt beam="2">  1        3 0.10579619E-01 0.67716042E+02</pdfrwt>
<pdfrwt beam="1">  1       -3 0.25646399E-02 0.67716042E+02</pdfrwt>
<totfact> 0.79278245E+04</totfact>
</mgrwt>
</event>
<event>
 4    1  0.7692565E-003  0.6357732E+02  0.7818608E-02  0.1383404E+00
          3   -1    0    0    0  501  0.00000000000E+00  0.00000000000E+00  0.40955210186E+01  0.40967662142E+01  0.10100000000E+00 0.  1.
         -3   -1    0    0  501    0 -0.00000000000E+00 -0.00000000000E+00 -0.24669880628E+03  0.24669882696E+03  0.10100000000E+00 0.  1.
          2    1    1    2    0  502 -0.22625122137E+02 -0.20653485799E+02 -0.15478689030E+03  0.15778923931E+03  0.25500000000E-02 0.  1.
         -2    1    1    2  502    0  0.22625122137E+02  0.20653485799E+02 -0.87816394968E+02  0.93006353864E+02  0.25500000000E-02 0.  1.
<mgrwt>
<rscale>  0 0.63577319E+02</rscale>
<asrwt>0</asrwt>
<pdfrwt beam="1">  1        3 0.63017772E-03 0.63577319E+02</pdfrwt>
<pdfrwt beam="2">  1       -3 0.37953748E-01 0.63577319E+02</pdfrwt>
<totfact> 0.67278251E+04</totfact>
</mgrwt>
</event>
<event>
 4    1  0.7692565E-003  0.4524744E+02  0.7818608E-02  0.1472803E+00
         -3   -1    0    0  501    0 -0.00000000000E+00  0.00000000000E+00  0.38386509688E+02  0.38386642559E+02  0.10100000000E+00 0. -1.
          3   -1    0    0    0  501  0.00000000000E+00 -0.00000000000E+00 -0.13333313795E+02  0.13333696328E+02  0.10100000000E+00 0. -1.
          2    1    1    2    0  502  0.20863604101E+02  0.40310194089E+01  0.36508904090E+01  0.21560800097E+02  0.25500000000E-02 0. -1.
         -2    1    1    2  502    0 -0.20863604101E+02 -0.40310194089E+01  0.21402305483E+02  0.30159538790E+02  0.25500000000E-02 0. -1.
<mgrwt>
<rscale>  0 0.45247440E+02</rscale>
<asrwt>0</asrwt>
<pdfrwt beam="2">  1        3 0.20513187E-02 0.45247440E+02</pdfrwt>
<pdfrwt beam="1">  1       -3 0.59056565E-02 0.45247440E+02</pdfrwt>
<totfact> 0.24170304E+05</totfact>
</mgrwt>
</event>
<event>
 4    1  0.7692565E-003  0.4214781E+02  0.7818608E-02  0.1492976E+00
         -3   -1    0    0  501    0 -0.00000000000E+00  0.00000000000E+00  0.29053439004E+02  0.29053614559E+02  0.10100000000E+00 0. -1.
          3   -1    0    0    0  501  0.00000000000E+00 -0.00000000000E+00 -0.15285566607E+02  0.15285900284E+02  0.10100000000E+00 0. -1.
          2    1    1    2    0  502  0.15734021731E+02  0.13982467494E+02  0.58107293125E+01  0.21836515718E+02  0.25500000000E-02 0.  1.
         -2    1    1    2  502    0 -0.15734021731E+02 -0.13982467494E+02  0.79571430843E+01  0.22502999125E+02  0.25500000000E-02 0.  1.
<mgrwt>
<rscale>  0 0.42147814E+02</rscale>
<asrwt>0</asrwt>
<pdfrwt beam="2">  1        3 0.23516648E-02 0.42147814E+02</pdfrwt>
<pdfrwt beam="1">  1       -3 0.44697990E-02 0.42147814E+02</pdfrwt>
<totfact> 0.29410928E+05</totfact>
</mgrwt>
</event>
<event>
 4    1  0.7692565E-003  0.5462858E+02  0.7818608E-02  0.1421864E+00
          3   -1    0    0    0  501  0.00000000000E+00  0.00000000000E+00  0.31876722220E+02  0.31876882227E+02  0.10100000000E+00 0. -1.
         -3   -1    0    0  501    0 -0.00000000000E+00 -0.00000000000E+00 -0.23404535880E+02  0.23404753806E+02  0.10100000000E+00 0. -1.
          2    1    1    2    0  502 -0.25092086309E+02  0.21794404383E+01  0.14931623247E+02  0.29279961326E+02  0.25500000000E-02 0. -1.
         -2    1    1    2  502    0  0.25092086309E+02 -0.21794404383E+01 -0.64594369066E+01  0.26001674707E+02  0.25500000000E-02 0. -1.
<mgrwt>
<rscale>  0 0.54628576E+02</rscale>
<asrwt>0</asrwt>
<pdfrwt beam="1">  1        3 0.49041402E-02 0.54628576E+02</pdfrwt>
<pdfrwt beam="2">  1       -3 0.36007269E-02 0.54628576E+02</pdfrwt>
<totfact> 0.14884865E+05</totfact>
</mgrwt>
</event>
<event>
 4    1  0.7692565E-003  0.4435543E+02  0.7818608E-02  0.1478406E+00
          3   -1    0    0    0  501  0.00000000000E+00  0.00000000000E+00  0.56539633886E+02  0.56539724097E+02  0.10100000000E+00 0.  1.
         -3   -1    0    0  501    0 -0.00000000000E+00 -0.00000000000E+00 -0.86988337921E+01  0.86994201153E+01  0.10100000000E+00 0.  1.
          2    1    1    2    0  502  0.19914226666E+02 -0.97555027533E+01  0.24396279697E+02  0.32968541479E+02  0.25500000000E-02 0.  1.
         -2    1    1    2  502    0 -0.19914226666E+02  0.97555027533E+01  0.23444520397E+02  0.32270602734E+02  0.25500000000E-02 0.  1.
<mgrwt>
<rscale>  0 0.44355426E+02</rscale>
<asrwt>0</asrwt>
<pdfrwt beam="1">  1        3 0.86984572E-02 0.44355426E+02</pdfrwt>
<pdfrwt beam="2">  1       -3 0.13383342E-02 0.44355426E+02</pdfrwt>
<totfact> 0.24499319E+05</totfact>
</mgrwt>
</event>
<event>
 4    1  0.7692565E-003  0.8268526E+02  0.7818608E-02  0.1321599E+00
         -3   -1    0    0  501    0 -0.00000000000E+00  0.00000000000E+00  0.23153557626E+02  0.23153777915E+02  0.10100000000E+00 0. -1.
          3   -1    0    0    0  501  0.00000000000E+00 -0.00000000000E+00 -0.73820140001E+02  0.73820209095E+02  0.10100000000E+00 0. -1.
          2    1    1    2    0  502  0.92229299203E+01 -0.40185490540E+02 -0.21761168503E+02  0.46620645076E+02  0.25500000000E-02 0.  1.
         -2    1    1    2  502    0 -0.92229299203E+01  0.40185490540E+02 -0.28905413873E+02  0.50353341934E+02  0.25500000000E-02 0.  1.
<mgrwt>
<rscale>  0 0.82685256E+02</rscale>
<asrwt>0</asrwt>
<pdfrwt beam="2">  1        3 0.11356967E-01 0.82685256E+02</pdfrwt>
<pdfrwt beam="1">  1       -3 0.35621081E-02 0.82685256E+02</pdfrwt>
<totfact> 0.45452590E+04</totfact>
</mgrwt>
</event>
<event>
 4    1  0.7692565E-003  0.4805739E+02  0.7818608E-02  0.1456110E+00
          3   -1    0    0    0  501  0.00000000000E+00  0.00000000000E+00  0.33594428767E+02  0.33594580592E+02  0.10100000000E+00 0. -1.
         -3   -1    0    0  501    0 -0.00000000000E+00 -0.00000000000E+00 -0.17186382788E+02  0.17186679561E+02  0.10100000000E+00 0. -1.
          2    1    1    2    0  502 -0.15275869687E+02 -0.13877226045E+02  0.21207988526E+02  0.29592370321E+02  0.25500000000E-02 0.  1.
         -2    1    1    2  502    0  0.15275869687E+02  0.13877226045E+02 -0.47999425475E+01  0.21188889833E+02  0.25500000000E-02 0.  1.
<mgrwt>
<rscale>  0 0.48057387E+02</rscale>
<asrwt>0</asrwt>
<pdfrwt beam="1">  1        3 0.51684081E-02 0.48057387E+02</pdfrwt>
<pdfrwt beam="2">  1       -3 0.26440934E-02 0.48057387E+02</pdfrwt>
<totfact> 0.20841890E+05</totfact>
</mgrwt>
</event>
<event>
 4    1  0.7692565E-003  0.4713844E+02  0.7818608E-02  0.1461417E+00
          3   -1    0    0    0  501  0.00000000000E+00  0.00000000000E+00  0.30412485015E+01  0.30429251467E+01  0.10100000000E+00 0. -1.
         -3   -1    0    0  501    0 -0.00000000000E+00 -0.00000000000E+00 -0.18260591922E+03  0.18260594715E+03  0.10100000000E+00 0. -1.
          2    1    1    2    0  502  0.17356797814E+02  0.15482294420E+02 -0.10480419156E+03  0.10735398664E+03  0.25500000000E-02 0. -1.
         -2    1    1    2  502    0 -0.17356797814E+02 -0.15482294420E+02 -0.74760479149E+02  0.78294885657E+02  0.25500000000E-02 0. -1.
<mgrwt>
<rscale>  0 0.47138443E+02</rscale>
<asrwt>0</asrwt>
<pdfrwt beam="1">  1        3 0.46801565E-03 0.47138443E+02</pdfrwt>
<pdfrwt beam="2">  1       -3 0.28093341E-01 0.47138443E+02</pdfrwt>
<totfact> 0.16134243E+05</totfact>
</mgrwt>
</event>
<event>
 4    1  0.7692565E-003  0.5947394E+02  0.7818608E-02  0.1400053E+00
          3   -1    0    0    0  501  0.00000000000E+00  0.00000000000E+00  0.29796469292E+03  0.29796471004E+03  0.10100000000E+00 0.  1.
         -3   -1    0    0  501    0 -0.00000000000E+00 -0.00000000000E+00 -0.29668821844E+01  0.29686008314E+01  0.10100000000E+00 0.  1.
          2    1    1    2    0  502 -0.27478030087E+02  0.64914205335E+01  0.19472360156E+03  0.19675990874E+03  0.25500000000E-02 0.  1.
         -2    1    1    2  502    0  0.27478030087E+02 -0.64914205335E+01  0.10027420918E+03  0.10417340213E+03  0.25500000000E-02 0.  1.
<mgrwt>
<rscale>  0 0.59473938E+02</rscale>
<asrwt>0</asrwt>
<pdfrwt beam="1">  1        3 0.45840845E-01 0.59473938E+02</pdfrwt>
<pdfrwt beam="2">  1       -3 0.45657703E-03 0.59473938E+02</pdfrwt>
<totfact> 0.73295714E+04</totfact>
</mgrwt>
</event>
<event>
 4    1  0.7692565E-003  0.1588524E+03  0.7818608E-02  0.1189999E+00
          3   -1    0    0    0  501  0.00000000000E+00  0.00000000000E+00  0.26779515414E+03  0.26779517319E+03  0.10100000000E+00 0.  1.
         -3   -1    0    0  501    0 -0.00000000000E+00 -0.00000000000E+00 -0.23557128593E+02  0.23557345108E+02  0.10100000000E+00 0.  1.
          2    1    1    2    0  502 -0.43486969076E+02 -0.45709301096E+02  0.33623268882E+02  0.71491124644E+02  0.25500000000E-02 0.  1.
         -2    1    1    2  502    0  0.43486969076E+02  0.45709301096E+02  0.21061475667E+03  0.21986139365E+03  0.25500000000E-02 0.  1.
<mgrwt>
<rscale>  0 0.15885237E+03</rscale>
<asrwt>0</asrwt>
<pdfrwt beam="1">  1        3 0.41199271E-01 0.15885237E+03</pdfrwt>
<pdfrwt beam="2">  1       -3 0.36241919E-02 0.15885237E+03</pdfrwt>
<totfact> 0.52176337E+03</totfact>
</mgrwt>
</event>
<event>
 4    1  0.7692565E-003  0.4588247E+02  0.7818608E-02  0.1468907E+00
          3   -1    0    0    0  501  0.00000000000E+00  0.00000000000E+00  0.21297759868E+03  0.21297762263E+03  0.10100000000E+00 0. -1.
         -3   -1    0    0  501    0 -0.00000000000E+00 -0.00000000000E+00 -0.24700966723E+01  0.24721607089E+01  0.10100000000E+00 0. -1.
          2    1    1    2    0  502  0.14156606163E+02  0.17726990022E+02  0.12127734078E+03  0.12338091046E+03  0.25500000000E-02 0. -1.
         -2    1    1    2  502    0 -0.14156606163E+02 -0.17726990022E+02  0.89230161232E+02  0.92068872880E+02  0.25500000000E-02 0. -1.
<mgrwt>
<rscale>  0 0.45882467E+02</rscale>
<asrwt>0</asrwt>
<pdfrwt beam="1">  1        3 0.32765955E-01 0.45882467E+02</pdfrwt>
<pdfrwt beam="2">  1       -3 0.38017538E-03 0.45882467E+02</pdfrwt>
<totfact> 0.16293451E+05</totfact>
</mgrwt>
</event>
<event>
 4    1  0.7692565E-003  0.4394081E+02  0.7818608E-02  0.1481064E+00
         -3   -1    0    0  501    0 -0.00000000000E+00  0.00000000000E+00  0.15052751051E+03  0.15052754439E+03  0.10100000000E+00 0.  1.
          3   -1    0    0    0  501  0.00000000000E+00 -0.00000000000E+00 -0.32058843973E+01  0.32074749833E+01  0.10100000000E+00 0.  1.
          2    1    1    2    0  502  0.10117050799E+02  0.18044983469E+02  0.47779412031E+02  0.52065808030E+02  0.25500000000E-02 0. -1.
         -2    1    1    2  502    0 -0.10117050799E+02 -0.18044983469E+02  0.99542214082E+02  0.10166921135E+03  0.25500000000E-02 0. -1.
<mgrwt>
<rscale>  0 0.43940809E+02</rscale>
<asrwt>0</asrwt>
<pdfrwt beam="2">  1        3 0.49333785E-03 0.43940809E+02</pdfrwt>
<pdfrwt beam="1">  1       -3 0.23158208E-01 0.43940809E+02</pdfrwt>
<totfact> 0.20456513E+05</totfact>
</mgrwt>
</event>
<event>
 4    1  0.7692565E-003  0.5734649E+02  0.7818608E-02  0.1409317E+00
         -3   -1    0    0  501    0 -0.00000000000E+00  0.00000000000E+00  0.42894807023E+02  0.42894925930E+02  0.10100000000E+00 0. -1.
          3   -1    0    0    0  501  0.00000000000E+00 -0.00000000000E+00 -0.19166495947E+02  0.19166762060E+02  0.10100000000E+00 0. -1.
          2    1    1    2    0  502 -0.12749180890E+02  0.19932362302E+02 -0.56636595592E+01  0.24329359350E+02  0.25500000000E-02 0. -1.
         -2    1    1    2  502    0  0.12749180890E+02 -0.19932362302E+02  0.29391970636E+02  0.37732328641E+02  0.25500000000E-02 0. -1.
<mgrwt>
<rscale>  0 0.57346494E+02</rscale>
<asrwt>0</asrwt>
<pdfrwt beam="2">  1        3 0.29487213E-02 0.57346494E+02</pdfrwt>
<pdfrwt beam="1">  1       -3 0.65992306E-02 0.57346494E+02</pdfrwt>
<totfact> 0.12916221E+05</totfact>
</mgrwt>
</event>
<event>
 4    1  0.7692565E-003  0.4970025E+02  0.7818608E-02  0.1446965E+00
         -3   -1    0    0  501    0 -0.00000000000E+00  0.00000000000E+00  0.13691774185E+01  0.13728975939E+01  0.10100000000E+00 0. -1.
          3   -1    0    0    0  501  0.00000000000E+00 -0.00000000000E+00 -0.45040606337E+03  0.45040607470E+03  0.10100000000E+00 0. -1.
          2    1    1    2    0  502 -0.19124521981E+02 -0.76396961910E+01 -0.35093795130E+03  0.35154168738E+03  0.25500000000E-02 0.  1.
         -2    1    1    2  502    0  0.19124521981E+02  0.76396961910E+01 -0.98098934654E+02  0.10023728491E+03  0.25500000000E-02 0.  1.
<mgrwt>
<rscale>  0 0.49700250E+02</rscale>
<asrwt>0</asrwt>
<pdfrwt beam="2">  1        3 0.69293409E-01 0.49700250E+02</pdfrwt>
<pdfrwt beam="1">  1       -3 0.21093008E-03 0.49700250E+02</pdfrwt>
<totfact> 0.91268818E+04</totfact>
</mgrwt>
</event>
<event>
 4    1  0.7692565E-003  0.4527622E+02  0.7818608E-02  0.1472625E+00
          3   -1    0    0    0  501  0.00000000000E+00  0.00000000000E+00  0.10850537941E+03  0.10850542641E+03  0.10100000000E+00 0.  1.
         -3   -1    0    0  501    0 -0.00000000000E+00 -0.00000000000E+00 -0.47225318750E+01  0.47236117866E+01  0.10100000000E+00 0.  1.
          2    1    1    2    0  502  0.95884171065E+01 -0.20344127060E+02  0.58346649731E+02  0.62531214524E+02  0.25500000000E-02 0.  1.
         -2    1    1    2  502    0 -0.95884171065E+01  0.20344127060E+02  0.45436197799E+02  0.50697823675E+02  0.25500000000E-02 0.  1.
<mgrwt>
<rscale>  0 0.45276215E+02</rscale>
<asrwt>0</asrwt>
<pdfrwt beam="1">  1        3 0.16693221E-01 0.45276215E+02</pdfrwt>
<pdfrwt beam="2">  1       -3 0.72663008E-03 0.45276215E+02</pdfrwt>
<totfact> 0.20738379E+05</totfact>
</mgrwt>
</event>
<event>
 4    1  0.7692565E-003  0.6327332E+02  0.7818608E-02  0.1384587E+00
         -3   -1    0    0  501    0 -0.00000000000E+00  0.00000000000E+00  0.32183718764E+02  0.32183877244E+02  0.10100000000E+00 0.  1.
          3   -1    0    0    0  501  0.00000000000E+00 -0.00000000000E+00 -0.31098587079E+02  0.31098751090E+02  0.10100000000E+00 0.  1.
          2    1    1    2    0  502 -0.39748392405E+01  0.29686205077E+02 -0.96475662063E+01  0.31466580034E+02  0.25500000000E-02 0. -1.
         -2    1    1    2  502    0  0.39748392405E+01 -0.29686205077E+02  0.10732697890E+02  0.31816048299E+02  0.25500000000E-02 0. -1.
<mgrwt>
<rscale>  0 0.63273324E+02</rscale>
<asrwt>0</asrwt>
<pdfrwt beam="2">  1        3 0.47844228E-02 0.63273324E+02</pdfrwt>
<pdfrwt beam="1">  1       -3 0.49513662E-02 0.63273324E+02</pdfrwt>
<totfact> 0.99836121E+04</totfact>
</mgrwt>
</event>
<event>
 4    1  0.7692565E-003  0.4416039E+02  0.7818608E-02  0.1479652E+00
          3   -1    0    0    0  501  0.00000000000E+00  0.00000000000E+00  0.21425933787E+02  0.21426171838E+02  0.10100000000E+00 0.  1.
         -3   -1    0    0  501    0 -0.00000000000E+00 -0.00000000000E+00 -0.22753959700E+02  0.22754183858E+02  0.10100000000E+00 0.  1.
          2    1    1    2    0  502 -0.18325829846E+02 -0.12314884812E+02 -0.45749736455E+00  0.22083970156E+02  0.25500000000E-02 0. -1.
         -2    1    1    2  502    0  0.18325829846E+02  0.12314884812E+02 -0.87052854863E+00  0.22096385540E+02  0.25500000000E-02 0. -1.
<mgrwt>
<rscale>  0 0.44160391E+02</rscale>
<asrwt>0</asrwt>
<pdfrwt beam="1">  1        3 0.32963330E-02 0.44160391E+02</pdfrwt>
<pdfrwt beam="2">  1       -3 0.35006448E-02 0.44160391E+02</pdfrwt>
<totfact> 0.26216597E+05</totfact>
</mgrwt>
</event>
<event>
 4    1  0.7692565E-003  0.4486387E+02  0.7818608E-02  0.1475193E+00
          3   -1    0    0    0  501  0.00000000000E+00  0.00000000000E+00  0.19431999610E+02  0.19432262088E+02  0.10100000000E+00 0. -1.
         -3   -1    0    0  501    0 -0.00000000000E+00 -0.00000000000E+00 -0.25894470931E+02  0.25894667903E+02  0.10100000000E+00 0. -1.
          2    1    1    2    0  502 -0.96445080589E+01 -0.19704324718E+02  0.14984074670E+01  0.21989137767E+02  0.25500000000E-02 0.  1.
         -2    1    1    2  502    0  0.96445080589E+01  0.19704324718E+02 -0.79608787881E+01  0.23337792224E+02  0.25500000000E-02 0.  1.
<mgrwt>
<rscale>  0 0.44863872E+02</rscale>
<asrwt>0</asrwt>
<pdfrwt beam="1">  1        3 0.29895738E-02 0.44863872E+02</pdfrwt>
<pdfrwt beam="2">  1       -3 0.39838001E-02 0.44863872E+02</pdfrwt>
<totfact> 0.25125460E+05</totfact>
</mgrwt>
</event>
<event>
 4    1  0.7692565E-003  0.7549350E+02  0.7818608E-02  0.1342350E+00
         -3   -1    0    0  501    0 -0.00000000000E+00  0.00000000000E+00  0.12271551176E+03  0.12271555332E+03  0.10100000000E+00 0.  1.
          3   -1    0    0    0  501  0.00000000000E+00 -0.00000000000E+00 -0.11610470132E+02  0.11610909426E+02  0.10100000000E+00 0.  1.
          2    1    1    2    0  502 -0.29449698370E+02 -0.16122598565E+02  0.24857762017E+02  0.41774768193E+02  0.25500000000E-02 0. -1.
         -2    1    1    2  502    0  0.29449698370E+02  0.16122598565E+02  0.86247279611E+02  0.92551694557E+02  0.25500000000E-02 0. -1.
<mgrwt>
<rscale>  0 0.75493499E+02</rscale>
<asrwt>0</asrwt>
<pdfrwt beam="2">  1        3 0.17862631E-02 0.75493499E+02</pdfrwt>
<pdfrwt beam="1">  1       -3 0.18879347E-01 0.75493499E+02</pdfrwt>
<totfact> 0.53553834E+04</totfact>
</mgrwt>
</event>
<event>
 4    1  0.7692565E-003  0.4250466E+02  0.7818608E-02  0.1490549E+00
         -3   -1    0    0  501    0 -0.00000000000E+00  0.00000000000E+00  0.12720644996E+04  0.12720645036E+04  0.10100000000E+00 0. -1.
          3   -1    0    0    0  501  0.00000000000E+00 -0.00000000000E+00 -0.34787518062E+00  0.36224044679E+00  0.10100000000E+00 0. -1.
          2    1    1    2    0  502  0.38385942421E+01 -0.20073044329E+02  0.46130291922E+03  0.46175539542E+03  0.25500000000E-02 0. -1.
         -2    1    1    2  502    0 -0.38385942421E+01  0.20073044329E+02  0.81041370517E+03  0.81067134860E+03  0.25500000000E-02 0. -1.
<mgrwt>
<rscale>  0 0.42504661E+02</rscale>
<asrwt>0</asrwt>
<pdfrwt beam="2">  1        3 0.54624499E-04 0.42504661E+02</pdfrwt>
<pdfrwt beam="1">  1       -3 0.19570365E+00 0.42504661E+02</pdfrwt>
<totfact> 0.53011486E+04</totfact>
</mgrwt>
</event>
<event>
 4    1  0.7692565E-003  0.4814342E+02  0.7818608E-02  0.1455621E+00
         -3   -1    0    0  501    0 -0.00000000000E+00  0.00000000000E+00  0.11284201227E+02  0.11284653221E+02  0.10100000000E+00 0. -1.
          3   -1    0    0    0  501  0.00000000000E+00 -0.00000000000E+00 -0.51348788374E+02  0.51348887705E+02  0.10100000000E+00 0. -1.
          2    1    1    2    0  502 -0.19617337682E+02 -0.41732626416E+01 -0.37350030461E+02  0.42394349160E+02  0.25500000000E-02 0. -1.
         -2    1    1    2  502    0  0.19617337682E+02  0.41732626416E+01 -0.27145566872E+01  0.20239191766E+02  0.25500000000E-02 0. -1.
<mgrwt>
<rscale>  0 0.48143424E+02</rscale>
<asrwt>0</asrwt>
<pdfrwt beam="2">  1        3 0.78998558E-02 0.48143424E+02</pdfrwt>
<pdfrwt beam="1">  1       -3 0.17360734E-02 0.48143424E+02</pdfrwt>
<totfact> 0.20108581E+05</totfact>
</mgrwt>
</event>
<event>
 4    1  0.7692565E-003  0.5184122E+02  0.7818608E-02  0.1435656E+00
          3   -1    0    0    0  501  0.00000000000E+00  0.00000000000E+00  0.10668480376E+04  0.10668480424E+04  0.10100000000E+00 0.  1.
         -3   -1    0    0  501    0 -0.00000000000E+00 -0.00000000000E+00 -0.62572435016E+00  0.63382328955E+00  0.10100000000E+00 0.  1.
          2    1    1    2    0  502  0.22750881941E+02 -0.10637688921E+01  0.78793204480E+03  0.78826115054E+03  0.25500000000E-02 0.  1.
         -2    1    1    2  502    0 -0.22750881941E+02  0.10637688921E+01  0.27829026844E+03  0.27922071512E+03  0.25500000000E-02 0.  1.
<mgrwt>
<rscale>  0 0.51841222E+02</rscale>
<asrwt>0</asrwt>
<pdfrwt beam="1">  1        3 0.16412995E+00 0.51841222E+02</pdfrwt>
<pdfrwt beam="2">  1       -3 0.96889323E-04 0.51841222E+02</pdfrwt>
<totfact> 0.39990852E+04</totfact>
</mgrwt>
</event>
<event>
 4    1  0.7692565E-003  0.5062765E+02  0.7818608E-02  0.1441985E+00
         -3   -1    0    0  501    0 -0.00000000000E+00  0.00000000000E+00  0.66072923461E+01  0.66080642512E+01  0.10100000000E+00 0. -1.
          3   -1    0    0    0  501  0.00000000000E+00 -0.00000000000E+00 -0.96975731459E+02  0.96975784055E+02  0.10100000000E+00 0. -1.
          2    1    1    2    0  502 -0.20259869504E+02  0.77836444297E+01 -0.18527955269E+02  0.28536512855E+02  0.25500000000E-02 0.  1.
         -2    1    1    2  502    0  0.20259869504E+02 -0.77836444297E+01 -0.71840483843E+02  0.75047335451E+02  0.25500000000E-02 0.  1.
<mgrwt>
<rscale>  0 0.50627649E+02</rscale>
<asrwt>0</asrwt>
<pdfrwt beam="2">  1        3 0.14919406E-01 0.50627649E+02</pdfrwt>
<pdfrwt beam="1">  1       -3 0.10165700E-02 0.50627649E+02</pdfrwt>
<totfact> 0.16048149E+05</totfact>
</mgrwt>
</event>
<event>
 4    1  0.7692565E-003  0.4234279E+02  0.7818608E-02  0.1491646E+00
         -3   -1    0    0  501    0 -0.00000000000E+00  0.00000000000E+00  0.13935600908E+04  0.13935600945E+04  0.10100000000E+00 0. -1.
          3   -1    0    0    0  501  0.00000000000E+00 -0.00000000000E+00 -0.31370973415E+00  0.32956759140E+00  0.10100000000E+00 0. -1.
          2    1    1    2    0  502 -0.16288029418E+00 -0.20524491921E+02  0.52573937025E+03  0.52613987374E+03  0.25500000000E-02 0.  1.
         -2    1    1    2  502    0  0.16288029418E+00  0.20524491921E+02  0.86750701084E+03  0.86774978834E+03  0.25500000000E-02 0.  1.
<mgrwt>
<rscale>  0 0.42342787E+02</rscale>
<asrwt>0</asrwt>
<pdfrwt beam="2">  1        3 0.49481704E-04 0.42342787E+02</pdfrwt>
<pdfrwt beam="1">  1       -3 0.21440136E+00 0.42342787E+02</pdfrwt>
<totfact> 0.47623108E+04</totfact>
</mgrwt>
</event>
<event>
 4    1  0.7692565E-003  0.9901522E+02  0.7818608E-02  0.1282381E+00
         -3   -1    0    0  501    0 -0.00000000000E+00  0.00000000000E+00  0.84003025869E+01  0.84009097454E+01  0.10100000000E+00 0. -1.
          3   -1    0    0    0  501  0.00000000000E+00 -0.00000000000E+00 -0.29176445183E+03  0.29176446931E+03  0.10100000000E+00 0. -1.
          2    1    1    2    0  502  0.32427530497E+01 -0.39141855557E+02 -0.23305088120E+03  0.23633728766E+03  0.25500000000E-02 0.  1.
         -2    1    1    2  502    0 -0.32427530497E+01  0.39141855557E+02 -0.50313268045E+02  0.63828091399E+02  0.25500000000E-02 0.  1.
<mgrwt>
<rscale>  0 0.99015220E+02</rscale>
<asrwt>0</asrwt>
<pdfrwt beam="2">  1        3 0.44886879E-01 0.99015220E+02</pdfrwt>
<pdfrwt beam="1">  1       -3 0.12924025E-02 0.99015220E+02</pdfrwt>
<totfact> 0.19229854E+04</totfact>
</mgrwt>
</event>
<event>
 4    1  0.7692565E-003  0.4966291E+02  0.7818608E-02  0.1447168E+00
         -3   -1    0    0  501    0 -0.00000000000E+00  0.00000000000E+00  0.42435135800E+01  0.42447153619E+01  0.10100000000E+00 0.  1.
          3   -1    0    0    0  501  0.00000000000E+00 -0.00000000000E+00 -0.14528262718E+03  0.14528266229E+03  0.10100000000E+00 0.  1.
          2    1    1    2    0  502 -0.22084077957E+02 -0.11353141102E+02 -0.70426424528E+02  0.74675843419E+02  0.25500000000E-02 0.  1.
         -2    1    1    2  502    0  0.22084077957E+02  0.11353141102E+02 -0.70612689071E+02  0.74851534229E+02  0.25500000000E-02 0.  1.
<mgrwt>
<rscale>  0 0.49662915E+02</rscale>
<asrwt>0</asrwt>
<pdfrwt beam="2">  1        3 0.22351265E-01 0.49662915E+02</pdfrwt>
<pdfrwt beam="1">  1       -3 0.65294350E-03 0.49662915E+02</pdfrwt>
<totfact> 0.15238915E+05</totfact>
</mgrwt>
</event>
<event>
 4    1  0.7692565E-003  0.5648607E+02  0.7818608E-02  0.1413199E+00
          3   -1    0    0    0  501  0.00000000000E+00  0.00000000000E+00  0.35373980166E+03  0.35373981608E+03  0.10100000000E+00 0. -1.
         -3   -1    0    0  501    0 -0.00000000000E+00 -0.00000000000E+00 -0.22538146487E+01  0.22560765658E+01  0.10100000000E+00 0. -1.
          2    1    1    2    0  502  0.10234026871E+02  0.24309614736E+02  0.11209956918E+03  0.11516078365E+03  0.25500000000E-02 0.  1.
         -2    1    1    2  502    0 -0.10234026871E+02 -0.24309614736E+02  0.23938641783E+03  0.24083510899E+03  0.25500000000E-02 0.  1.
<mgrwt>
<rscale>  0 0.56486074E+02</rscale>
<asrwt>0</asrwt>
<pdfrwt beam="1">  1        3 0.54421690E-01 0.56486074E+02</pdfrwt>
<pdfrwt beam="2">  1       -3 0.34691577E-03 0.56486074E+02</pdfrwt>
<totfact> 0.76462337E+04</totfact>
</mgrwt>
</event>
<event>
 4    1  0.7692565E-003  0.4328040E+02  0.7818608E-02  0.1485371E+00
          3   -1    0    0    0  501  0.00000000000E+00  0.00000000000E+00  0.67833657850E+01  0.67841176562E+01  0.10100000000E+00 0.  1.
         -3   -1    0    0  501    0 -0.00000000000E+00 -0.00000000000E+00 -0.69031666143E+02  0.69031740030E+02  0.10100000000E+00 0.  1.
          2    1    1    2    0  502  0.86584319820E+01 -0.19328388757E+02 -0.23340587641E+02  0.31517266605E+02  0.25500000000E-02 0. -1.
         -2    1    1    2  502    0 -0.86584319820E+01  0.19328388757E+02 -0.38907712718E+02  0.44298591081E+02  0.25500000000E-02 0. -1.
<mgrwt>
<rscale>  0 0.43280404E+02</rscale>
<asrwt>0</asrwt>
<pdfrwt beam="1">  1        3 0.10436583E-02 0.43280404E+02</pdfrwt>
<pdfrwt beam="2">  1       -3 0.10620319E-01 0.43280404E+02</pdfrwt>
<totfact> 0.25340586E+05</totfact>
</mgrwt>
</event>
<event>
 4    1  0.7692565E-003  0.4926162E+02  0.7818608E-02  0.1449365E+00
          3   -1    0    0    0  501  0.00000000000E+00  0.00000000000E+00  0.30724872576E+01  0.30741468651E+01  0.10100000000E+00 0.  1.
         -3   -1    0    0  501    0 -0.00000000000E+00 -0.00000000000E+00 -0.19739963513E+03  0.19739966096E+03  0.10100000000E+00 0.  1.
          2    1    1    2    0  502 -0.90156576990E+01 -0.21409356341E+02 -0.13048296766E+03  0.13253470293E+03  0.25500000000E-02 0. -1.
         -2    1    1    2  502    0  0.90156576990E+01  0.21409356341E+02 -0.63844180204E+02  0.67939104904E+02  0.25500000000E-02 0. -1.
<mgrwt>
<rscale>  0 0.49261620E+02</rscale>
<asrwt>0</asrwt>
<pdfrwt beam="1">  1        3 0.47282015E-03 0.49261620E+02</pdfrwt>
<pdfrwt beam="2">  1       -3 0.30369294E-01 0.49261620E+02</pdfrwt>
<totfact> 0.14056651E+05</totfact>
</mgrwt>
</event>
<event>
 4    1  0.7692565E-003  0.4570178E+02  0.7818608E-02  0.1470008E+00
          3   -1    0    0    0  501  0.00000000000E+00  0.00000000000E+00  0.73227168010E+01  0.73234132990E+01  0.10100000000E+00 0. -1.
         -3   -1    0    0  501    0 -0.00000000000E+00 -0.00000000000E+00 -0.71303168715E+02  0.71303240247E+02  0.10100000000E+00 0. -1.
          2    1    1    2    0  502 -0.75301093474E+01 -0.20026855305E+02 -0.45795058441E+02  0.50546660269E+02  0.25500000000E-02 0. -1.
         -2    1    1    2  502    0  0.75301093474E+01  0.20026855305E+02 -0.18185393473E+02  0.28079993277E+02  0.25500000000E-02 0. -1.
<mgrwt>
<rscale>  0 0.45701777E+02</rscale>
<asrwt>0</asrwt>
<pdfrwt beam="1">  1        3 0.11266309E-02 0.45701777E+02</pdfrwt>
<pdfrwt beam="2">  1       -3 0.10969777E-01 0.45701777E+02</pdfrwt>
<totfact> 0.21990646E+05</totfact>
</mgrwt>
</event>
<event>
 4    1  0.7692565E-003  0.5882228E+02  0.7818608E-02  0.1402842E+00
         -3   -1    0    0  501    0 -0.00000000000E+00  0.00000000000E+00  0.30460931753E+02  0.30461099196E+02  0.10100000000E+00 0. -1.
          3   -1    0    0    0  501  0.00000000000E+00 -0.00000000000E+00 -0.28397197177E+02  0.28397376790E+02  0.10100000000E+00 0. -1.
          2    1    1    2    0  502  0.26510472666E+02 -0.12526400968E+02  0.33353284056E+01  0.29510003461E+02  0.25500000000E-02 0.  1.
         -2    1    1    2  502    0 -0.26510472666E+02  0.12526400968E+02 -0.12715938302E+01  0.29348472525E+02  0.25500000000E-02 0.  1.
<mgrwt>
<rscale>  0 0.58822285E+02</rscale>
<asrwt>0</asrwt>
<pdfrwt beam="2">  1        3 0.43688263E-02 0.58822285E+02</pdfrwt>
<pdfrwt beam="1">  1       -3 0.46863239E-02 0.58822285E+02</pdfrwt>
<totfact> 0.12196191E+05</totfact>
</mgrwt>
</event>
<event>
 4    1  0.7692565E-003  0.4794740E+02  0.7818608E-02  0.1456738E+00
          3   -1    0    0    0  501  0.00000000000E+00  0.00000000000E+00  0.12210804481E+03  0.12210808658E+03  0.10100000000E+00 0. -1.
         -3   -1    0    0  501    0 -0.00000000000E+00 -0.00000000000E+00 -0.47062162237E+01  0.47072998783E+01  0.10100000000E+00 0. -1.
          2    1    1    2    0  502  0.13265334368E+02 -0.19812878574E+02  0.52105138778E+02  0.57301524821E+02  0.25500000000E-02 0.  1.
         -2    1    1    2  502    0 -0.13265334368E+02  0.19812878574E+02  0.65296689810E+02  0.69513861639E+02  0.25500000000E-02 0.  1.
<mgrwt>
<rscale>  0 0.47947397E+02</rscale>
<asrwt>0</asrwt>
<pdfrwt beam="1">  1        3 0.18785936E-01 0.47947397E+02</pdfrwt>
<pdfrwt beam="2">  1       -3 0.72411996E-03 0.47947397E+02</pdfrwt>
<totfact> 0.17456302E+05</totfact>
</mgrwt>
</event>
<event>
 4    1  0.7692565E-003  0.4695320E+02  0.7818608E-02  0.1462504E+00
         -3   -1    0    0  501    0 -0.00000000000E+00  0.00000000000E+00  0.65556918533E+02  0.65556996335E+02  0.10100000000E+00 0. -1.
          3   -1    0    0    0  501  0.00000000000E+00 -0.00000000000E+00 -0.84068225975E+01  0.84074292852E+01  0.10100000000E+00 0. -1.
          2    1    1    2    0  502  0.18389790652E+02  0.14496932176E+02  0.25936631179E+02  0.34943587196E+02  0.25500000000E-02 0. -1.
         -2    1    1    2  502    0 -0.18389790652E+02 -0.14496932176E+02  0.31213464757E+02  0.39020838424E+02  0.25500000000E-02 0. -1.
<mgrwt>
<rscale>  0 0.46953198E+02</rscale>
<asrwt>0</asrwt>
<pdfrwt beam="2">  1        3 0.12934099E-02 0.46953198E+02</pdfrwt>
<pdfrwt beam="1">  1       -3 0.10085733E-01 0.46953198E+02</pdfrwt>
<totfact> 0.20800733E+05</totfact>
</mgrwt>
</event>
<event>
 4    1  0.7692565E-003  0.4741131E+02  0.7818608E-02  0.1459826E+00
         -3   -1    0    0  501    0 -0.00000000000E+00  0.00000000000E+00  0.17969097602E+02  0.17969381448E+02  0.10100000000E+00 0. -1.
          3   -1    0    0    0  501  0.00000000000E+00 -0.00000000000E+00 -0.31272966947E+02  0.31273130042E+02  0.10100000000E+00 0. -1.
          2    1    1    2    0  502  0.14165699449E+02  0.18357917197E+02 -0.15343717753E+01  0.23238641697E+02  0.25500000000E-02 0.  1.
         -2    1    1    2  502    0 -0.14165699449E+02 -0.18357917197E+02 -0.11769497569E+02  0.26003869793E+02  0.25500000000E-02 0.  1.
<mgrwt>
<rscale>  0 0.47411307E+02</rscale>
<asrwt>0</asrwt>
<pdfrwt beam="2">  1        3 0.48112600E-02 0.47411307E+02</pdfrwt>
<pdfrwt beam="1">  1       -3 0.27645110E-02 0.47411307E+02</pdfrwt>
<totfact> 0.21651802E+05</totfact>
</mgrwt>
</event>
<event>
 4    1  0.7692565E-003  0.4317518E+02  0.7818608E-02  0.1486066E+00
         -3   -1    0    0  501    0 -0.00000000000E+00  0.00000000000E+00  0.13917817835E+03  0.13917821500E+03  0.10100000000E+00 0.  1.
          3   -1    0    0    0  501  0.00000000000E+00 -0.00000000000E+00 -0.33475995043E+01  0.33491227869E+01  0.10100000000E+00 0.  1.
          2    1    1    2    0  502 -0.19681003999E+02 -0.84650261448E+01  0.59165476296E+02  0.62924972609E+02  0.25500000000E-02 0.  1.
         -2    1    1    2  502    0  0.19681003999E+02  0.84650261448E+01  0.76665102554E+02  0.79602365179E+02  0.25500000000E-02 0.  1.
<mgrwt>
<rscale>  0 0.43175177E+02</rscale>
<asrwt>0</asrwt>
<pdfrwt beam="2">  1        3 0.51513521E-03 0.43175177E+02</pdfrwt>
<pdfrwt beam="1">  1       -3 0.21412151E-01 0.43175177E+02</pdfrwt>
<totfact> 0.21867043E+05</totfact>
</mgrwt>
</event>
<event>
 4    1  0.7692565E-003  0.5410725E+02  0.7818608E-02  0.1424369E+00
          3   -1    0    0    0  501  0.00000000000E+00  0.00000000000E+00  0.30741086251E+01  0.30757673578E+01  0.10100000000E+00 0. -1.
         -3   -1    0    0  501    0 -0.00000000000E+00 -0.00000000000E+00 -0.23801895558E+03  0.23801897701E+03  0.10100000000E+00 0. -1.
          2    1    1    2    0  502 -0.15347342706E+02 -0.21521624837E+02 -0.14313814013E+03  0.14555840213E+03  0.25500000000E-02 0. -1.
         -2    1    1    2  502    0  0.15347342706E+02  0.21521624837E+02 -0.91806706823E+02  0.95536342236E+02  0.25500000000E-02 0. -1.
<mgrwt>
<rscale>  0 0.54107251E+02</rscale>
<asrwt>0</asrwt>
<pdfrwt beam="1">  1        3 0.47306922E-03 0.54107251E+02</pdfrwt>
<pdfrwt beam="2">  1       -3 0.36618416E-01 0.54107251E+02</pdfrwt>
<totfact> 0.10314376E+05</totfact>
</mgrwt>
</event>
<event>
 4    1  0.7692565E-003  0.5147600E+02  0.7818608E-02  0.1437539E+00
         -3   -1    0    0  501    0 -0.00000000000E+00  0.00000000000E+00  0.80384873424E+03  0.80384874059E+03  0.10100000000E+00 0. -1.
          3   -1    0    0    0  501  0.00000000000E+00 -0.00000000000E+00 -0.82099003742E+00  0.82717932853E+00  0.10100000000E+00 0. -1.
          2    1    1    2    0  502  0.13245064947E+02 -0.20847906892E+02  0.28838098358E+03  0.28943679562E+03  0.25500000000E-02 0.  1.
         -2    1    1    2  502    0 -0.13245064947E+02  0.20847906892E+02  0.51464676063E+03  0.51523912429E+03  0.25500000000E-02 0.  1.
<mgrwt>
<rscale>  0 0.51475996E+02</rscale>
<asrwt>0</asrwt>
<pdfrwt beam="2">  1        3 0.12678310E-03 0.51475996E+02</pdfrwt>
<pdfrwt beam="1">  1       -3 0.12366917E+00 0.51475996E+02</pdfrwt>
<totfact> 0.53536726E+04</totfact>
</mgrwt>
</event>
<event>
 4    1  0.7692565E-003  0.5645021E+02  0.7818608E-02  0.1413363E+00
         -3   -1    0    0  501    0 -0.00000000000E+00  0.00000000000E+00  0.11030973357E+04  0.11030973403E+04  0.10100000000E+00 0. -1.
          3   -1    0    0    0  501  0.00000000000E+00 -0.00000000000E+00 -0.71866378586E+00  0.72572628250E+00  0.10100000000E+00 0. -1.
          2    1    1    2    0  502 -0.62647313280E+00 -0.27525220109E+02  0.67271709342E+03  0.67328026705E+03  0.25500000000E-02 0. -1.
         -2    1    1    2  502    0  0.62647313280E+00  0.27525220109E+02  0.42966157849E+03  0.43054279955E+03  0.25500000000E-02 0. -1.
<mgrwt>
<rscale>  0 0.56450209E+02</rscale>
<asrwt>0</asrwt>
<pdfrwt beam="2">  1        3 0.11110701E-03 0.56450209E+02</pdfrwt>
<pdfrwt beam="1">  1       -3 0.16970825E+00 0.56450209E+02</pdfrwt>
<totfact> 0.31017002E+04</totfact>
</mgrwt>
</event>
<event>
 4    1  0.7692565E-003  0.7590582E+02  0.7818608E-02  0.1341089E+00
          3   -1    0    0    0  501  0.00000000000E+00  0.00000000000E+00  0.29266798764E+02  0.29266973040E+02  0.10100000000E+00 0. -1.
         -3   -1    0    0  501    0 -0.00000000000E+00 -0.00000000000E+00 -0.49216602822E+02  0.49216706456E+02  0.10100000000E+00 0. -1.
          2    1    1    2    0  502  0.36240572199E+02 -0.80821312345E+01 -0.18516640214E+01  0.37176989990E+02  0.25500000000E-02 0.  1.
         -2    1    1    2  502    0 -0.36240572199E+02  0.80821312345E+01 -0.18098140037E+02  0.41306689505E+02  0.25500000000E-02 0.  1.
<mgrwt>
<rscale>  0 0.75905818E+02</rscale>
<asrwt>0</asrwt>
<pdfrwt beam="1">  1        3 0.45026058E-02 0.75905818E+02</pdfrwt>
<pdfrwt beam="2">  1       -3 0.75718064E-02 0.75905818E+02</pdfrwt>
<totfact> 0.59586916E+04</totfact>
</mgrwt>
</event>
<event>
 4    1  0.7692565E-003  0.4855912E+02  0.7818608E-02  0.1453272E+00
          3   -1    0    0    0  501  0.00000000000E+00  0.00000000000E+00  0.39262236108E+02  0.39262366017E+02  0.10100000000E+00 0.  1.
         -3   -1    0    0  501    0 -0.00000000000E+00 -0.00000000000E+00 -0.15014027577E+02  0.15014367288E+02  0.10100000000E+00 0.  1.
          2    1    1    2    0  502 -0.33551272027E+01  0.23388409598E+02  0.18369736285E+02  0.29928611724E+02  0.25500000000E-02 0.  1.
         -2    1    1    2  502    0  0.33551272027E+01 -0.23388409598E+02  0.58784722468E+01  0.24348121581E+02  0.25500000000E-02 0.  1.
<mgrwt>
<rscale>  0 0.48559120E+02</rscale>
<asrwt>0</asrwt>
<pdfrwt beam="1">  1        3 0.60403801E-02 0.48559120E+02</pdfrwt>
<pdfrwt beam="2">  1       -3 0.23098865E-02 0.48559120E+02</pdfrwt>
<totfact> 0.20116279E+05</totfact>
</mgrwt>
</event>
<event>
 4    1  0.7692565E-003  0.6858740E+02  0.7818608E-02  0.1364964E+00
         -3   -1    0    0  501    0 -0.00000000000E+00  0.00000000000E+00  0.12180051790E+04  0.12180051832E+04  0.10100000000E+00 0. -1.
          3   -1    0    0    0  501  0.00000000000E+00 -0.00000000000E+00 -0.96291518959E+00  0.96819763599E+00  0.10100000000E+00 0. -1.
          2    1    1    2    0  502 -0.30497901722E+02 -0.13049305431E+02  0.76310296361E+03  0.76382363112E+03  0.25500000000E-02 0. -1.
         -2    1    1    2  502    0  0.30497901722E+02  0.13049305431E+02  0.45393930024E+03  0.45514974974E+03  0.25500000000E-02 0. -1.
<mgrwt>
<rscale>  0 0.68587399E+02</rscale>
<asrwt>0</asrwt>
<pdfrwt beam="2">  1        3 0.14854663E-03 0.68587399E+02</pdfrwt>
<pdfrwt beam="1">  1       -3 0.18738686E+00 0.68587399E+02</pdfrwt>
<totfact> 0.16850769E+04</totfact>
</mgrwt>
</event>
<event>
 4    1  0.7692565E-003  0.8428026E+02  0.7818608E-02  0.1317326E+00
          3   -1    0    0    0  501  0.00000000000E+00  0.00000000000E+00  0.23492843981E+02  0.23493061089E+02  0.10100000000E+00 0. -1.
         -3   -1    0    0  501    0 -0.00000000000E+00 -0.00000000000E+00 -0.75587975576E+02  0.75588043054E+02  0.10100000000E+00 0. -1.
          2    1    1    2    0  502 -0.30299369570E+02 -0.75255623351E+01  0.72267864735E+01  0.32045472911E+02  0.25500000000E-02 0.  1.
         -2    1    1    2  502    0  0.30299369570E+02  0.75255623351E+01 -0.59321918069E+02  0.67035631232E+02  0.25500000000E-02 0.  1.
<mgrwt>
<rscale>  0 0.84280261E+02</rscale>
<asrwt>0</asrwt>
<pdfrwt beam="1">  1        3 0.36143056E-02 0.84280261E+02</pdfrwt>
<pdfrwt beam="2">  1       -3 0.11628941E-01 0.84280261E+02</pdfrwt>
<totfact> 0.42979282E+04</totfact>
</mgrwt>
</event>
<event>
 4    1  0.7692565E-003  0.4568688E+02  0.7818608E-02  0.1470099E+00
          3   -1    0    0    0  501  0.00000000000E+00  0.00000000000E+00  0.24987323199E+00  0.26951369550E+00  0.10100000000E+00 0. -1.
         -3   -1    0    0  501    0 -0.00000000000E+00 -0.00000000000E+00 -0.20093600670E+04  0.20093600695E+04  0.10100000000E+00 0. -1.
          2    1    1    2    0  502  0.17442185051E+02  0.10734300351E+02 -0.14496022997E+04  0.14497469718E+04  0.25500000000E-02 0.  1.
         -2    1    1    2  502    0 -0.17442185051E+02 -0.10734300351E+02 -0.55950789411E+03  0.55988261144E+03  0.25500000000E-02 0.  1.
<mgrwt>
<rscale>  0 0.45686881E+02</rscale>
<asrwt>0</asrwt>
<pdfrwt beam="1">  1        3 0.39954645E-04 0.45686881E+02</pdfrwt>
<pdfrwt beam="2">  1       -3 0.30912138E+00 0.45686881E+02</pdfrwt>
<totfact> 0.21358976E+04</totfact>
</mgrwt>
</event>
<event>
 4    1  0.7692565E-003  0.1786080E+03  0.7818608E-02  0.1169157E+00
         -3   -1    0    0  501    0 -0.00000000000E+00  0.00000000000E+00  0.26365584553E+03  0.26365586487E+03  0.10100000000E+00 0. -1.
          3   -1    0    0    0  501  0.00000000000E+00 -0.00000000000E+00 -0.30248437512E+02  0.30248606132E+02  0.10100000000E+00 0. -1.
          2    1    1    2    0  502  0.73127505593E+02  0.42876132242E+02  0.70476075696E+02  0.11024006550E+03  0.25500000000E-02 0.  1.
         -2    1    1    2  502    0 -0.73127505593E+02 -0.42876132242E+02  0.16293133232E+03  0.18366440550E+03  0.25500000000E-02 0.  1.
<mgrwt>
<rscale>  0 0.17860801E+03</rscale>
<asrwt>0</asrwt>
<pdfrwt beam="2">  1        3 0.46536204E-02 0.17860801E+03</pdfrwt>
<pdfrwt beam="1">  1       -3 0.40562451E-01 0.17860801E+03</pdfrwt>
<totfact> 0.37027415E+03</totfact>
</mgrwt>
</event>
<event>
 4    1  0.7692565E-003  0.5387653E+02  0.7818608E-02  0.1425488E+00
         -3   -1    0    0  501    0 -0.00000000000E+00  0.00000000000E+00  0.70384292812E+03  0.70384293537E+03  0.10100000000E+00 0.  1.
          3   -1    0    0    0  501  0.00000000000E+00 -0.00000000000E+00 -0.10285305560E+01  0.10334776750E+01  0.10100000000E+00 0.  1.
          2    1    1    2    0  502  0.25553980141E+02  0.79749282810E+01  0.39079750951E+03  0.39171328651E+03  0.25500000000E-02 0. -1.
         -2    1    1    2  502    0 -0.25553980141E+02 -0.79749282810E+01  0.31201688805E+03  0.31316312653E+03  0.25500000000E-02 0. -1.
<mgrwt>
<rscale>  0 0.53876528E+02</rscale>
<asrwt>0</asrwt>
<pdfrwt beam="2">  1        3 0.15861665E-03 0.53876528E+02</pdfrwt>
<pdfrwt beam="1">  1       -3 0.10828386E+00 0.53876528E+02</pdfrwt>
<totfact> 0.53636910E+04</totfact>
</mgrwt>
</event>
<event>
 4    1  0.7692565E-003  0.6921207E+02  0.7818608E-02  0.1362793E+00
          3   -1    0    0    0  501  0.00000000000E+00  0.00000000000E+00  0.24208699430E+02  0.24208910118E+02  0.10100000000E+00 0.  1.
         -3   -1    0    0  501    0 -0.00000000000E+00 -0.00000000000E+00 -0.49468421074E+02  0.49468524180E+02  0.10100000000E+00 0.  1.
          2    1    1    2    0  502 -0.28665735893E+02  0.15965140682E+02 -0.92174238312E+00  0.32824681976E+02  0.25500000000E-02 0. -1.
         -2    1    1    2  502    0  0.28665735893E+02 -0.15965140682E+02 -0.24337979260E+02  0.40852752322E+02  0.25500000000E-02 0. -1.
<mgrwt>
<rscale>  0 0.69212071E+02</rscale>
<asrwt>0</asrwt>
<pdfrwt beam="1">  1        3 0.37244394E-02 0.69212071E+02</pdfrwt>
<pdfrwt beam="2">  1       -3 0.76105505E-02 0.69212071E+02</pdfrwt>
<totfact> 0.76945372E+04</totfact>
</mgrwt>
</event>
<event>
 4    1  0.7692565E-003  0.6516255E+02  0.7818608E-02  0.1377361E+00
         -3   -1    0    0  501    0 -0.00000000000E+00  0.00000000000E+00  0.33524060900E+01  0.33539271894E+01  0.10100000000E+00 0.  1.
          3   -1    0    0    0  501  0.00000000000E+00 -0.00000000000E+00 -0.31657665620E+03  0.31657667231E+03  0.10100000000E+00 0.  1.
          2    1    1    2    0  502  0.27555275387E+02 -0.16453359333E+02 -0.18418242741E+03  0.18695767651E+03  0.25500000000E-02 0.  1.
         -2    1    1    2  502    0 -0.27555275387E+02  0.16453359333E+02 -0.12904182271E+03  0.13297292299E+03  0.25500000000E-02 0.  1.
<mgrwt>
<rscale>  0 0.65162548E+02</rscale>
<asrwt>0</asrwt>
<pdfrwt beam="2">  1        3 0.48704196E-01 0.65162548E+02</pdfrwt>
<pdfrwt beam="1">  1       -3 0.51587328E-03 0.65162548E+02</pdfrwt>
<totfact> 0.56257888E+04</totfact>
</mgrwt>
</event>
<event>
 4    1  0.7692565E-003  0.5402755E+02  0.7818608E-02  0.1424754E+00
         -3   -1    0    0  501    0 -0.00000000000E+00  0.00000000000E+00  0.25550224943E+02  0.25550424569E+02  0.10100000000E+00 0.  1.
          3   -1    0    0    0  501  0.00000000000E+00 -0.00000000000E+00 -0.28560754297E+02  0.28560932880E+02  0.10100000000E+00 0.  1.
          2    1    1    2    0  502 -0.21377062841E+02  0.36525483387E+01 -0.17636895023E+02  0.27953175091E+02  0.25500000000E-02 0.  1.
         -2    1    1    2  502    0  0.21377062841E+02 -0.36525483387E+01  0.14626365670E+02  0.26158182359E+02  0.25500000000E-02 0.  1.
<mgrwt>
<rscale>  0 0.54027546E+02</rscale>
<asrwt>0</asrwt>
<pdfrwt beam="2">  1        3 0.43939913E-02 0.54027546E+02</pdfrwt>
<pdfrwt beam="1">  1       -3 0.39308329E-02 0.54027546E+02</pdfrwt>
<totfact> 0.15359141E+05</totfact>
</mgrwt>
</event>
<event>
 4    1  0.7692565E-003  0.6280876E+02  0.7818608E-02  0.1386409E+00
          3   -1    0    0    0  501  0.00000000000E+00  0.00000000000E+00  0.25471862142E+01  0.25491878334E+01  0.10100000000E+00 0.  1.
         -3   -1    0    0  501    0 -0.00000000000E+00 -0.00000000000E+00 -0.38703206113E+03  0.38703207431E+03  0.10100000000E+00 0.  1.
          2    1    1    2    0  502 -0.25419417409E+02  0.13901759444E+01 -0.78181681043E+02  0.82221983847E+02  0.25500000000E-02 0.  1.
         -2    1    1    2  502    0  0.25419417409E+02 -0.13901759444E+01 -0.30630319388E+03  0.30735927830E+03  0.25500000000E-02 0.  1.
<mgrwt>
<rscale>  0 0.62808764E+02</rscale>
<asrwt>0</asrwt>
<pdfrwt beam="1">  1        3 0.39203009E-03 0.62808764E+02</pdfrwt>
<pdfrwt beam="2">  1       -3 0.59543502E-01 0.62808764E+02</pdfrwt>
<totfact> 0.55451730E+04</totfact>
</mgrwt>
</event>
<event>
 4    1  0.7692565E-003  0.4369386E+02  0.7818608E-02  0.1482664E+00
          3   -1    0    0    0  501  0.00000000000E+00  0.00000000000E+00  0.46230434326E+01  0.46241465785E+01  0.10100000000E+00 0.  1.
         -3   -1    0    0  501    0 -0.00000000000E+00 -0.00000000000E+00 -0.10322770804E+03  0.10322775745E+03  0.10100000000E+00 0.  1.
          2    1    1    2    0  502  0.20355969543E+02 -0.77722069167E+01 -0.53217321341E+02  0.57505269268E+02  0.25500000000E-02 0.  1.
         -2    1    1    2  502    0 -0.20355969543E+02  0.77722069167E+01 -0.45387343266E+02  0.50346634760E+02  0.25500000000E-02 0.  1.
<mgrwt>
<rscale>  0 0.43693859E+02</rscale>
<asrwt>0</asrwt>
<pdfrwt beam="1">  1        3 0.71132619E-03 0.43693859E+02</pdfrwt>
<pdfrwt beam="2">  1       -3 0.15881273E-01 0.43693859E+02</pdfrwt>
<totfact> 0.22922949E+05</totfact>
</mgrwt>
</event>
<event>
 4    1  0.7692565E-003  0.6766547E+02  0.7818608E-02  0.1368217E+00
          3   -1    0    0    0  501  0.00000000000E+00  0.00000000000E+00  0.74984036953E+02  0.74984104974E+02  0.10100000000E+00 0. -1.
         -3   -1    0    0  501    0 -0.00000000000E+00 -0.00000000000E+00 -0.15265059364E+02  0.15265393490E+02  0.10100000000E+00 0. -1.
          2    1    1    2    0  502 -0.33784868614E+02 -0.16094573740E+00  0.32249363804E+02  0.46706152947E+02  0.25500000000E-02 0. -1.
         -2    1    1    2  502    0  0.33784868614E+02  0.16094573740E+00  0.27469613785E+02  0.43543345517E+02  0.25500000000E-02 0. -1.
<mgrwt>
<rscale>  0 0.67665469E+02</rscale>
<asrwt>0</asrwt>
<pdfrwt beam="1">  1        3 0.11536037E-01 0.67665469E+02</pdfrwt>
<pdfrwt beam="2">  1       -3 0.23485016E-02 0.67665469E+02</pdfrwt>
<totfact> 0.78561163E+04</totfact>
</mgrwt>
</event>
<event>
 4    1  0.7692565E-003  0.4129158E+02  0.7818608E-02  0.1498916E+00
         -3   -1    0    0  501    0 -0.00000000000E+00  0.00000000000E+00  0.81979992978E+01  0.81986214382E+01  0.10100000000E+00 0. -1.
          3   -1    0    0    0  501  0.00000000000E+00 -0.00000000000E+00 -0.51991572990E+02  0.51991671092E+02  0.10100000000E+00 0. -1.
          2    1    1    2    0  502  0.10679627117E+02  0.17542276056E+02 -0.18817415478E+02  0.27854640841E+02  0.25500000000E-02 0. -1.
         -2    1    1    2  502    0 -0.10679627117E+02 -0.17542276056E+02 -0.24976158214E+02  0.32335651690E+02  0.25500000000E-02 0. -1.
<mgrwt>
<rscale>  0 0.41291576E+02</rscale>
<asrwt>0</asrwt>
<pdfrwt beam="2">  1        3 0.79987587E-02 0.41291576E+02</pdfrwt>
<pdfrwt beam="1">  1       -3 0.12612861E-02 0.41291576E+02</pdfrwt>
<totfact> 0.29611023E+05</totfact>
</mgrwt>
</event>
<event>
 4    1  0.7692565E-003  0.4020703E+02  0.7818608E-02  0.1506693E+00
          3   -1    0    0    0  501  0.00000000000E+00  0.00000000000E+00  0.23472098409E+02  0.23472315709E+02  0.10100000000E+00 0. -1.
         -3   -1    0    0  501    0 -0.00000000000E+00 -0.00000000000E+00 -0.17217924431E+02  0.17218220661E+02  0.10100000000E+00 0. -1.
          2    1    1    2    0  502 -0.18558121129E+02  0.75496745177E+01  0.48052842735E+01  0.20603208697E+02  0.25500000000E-02 0. -1.
         -2    1    1    2  502    0  0.18558121129E+02 -0.75496745177E+01  0.14488897043E+01  0.20087327673E+02  0.25500000000E-02 0. -1.
<mgrwt>
<rscale>  0 0.40207027E+02</rscale>
<asrwt>0</asrwt>
<pdfrwt beam="1">  1        3 0.36111316E-02 0.40207027E+02</pdfrwt>
<pdfrwt beam="2">  1       -3 0.26489510E-02 0.40207027E+02</pdfrwt>
<totfact> 0.33361299E+05</totfact>
</mgrwt>
</event>
<event>
 4    1  0.7692565E-003  0.9490267E+02  0.7818608E-02  0.1291395E+00
          3   -1    0    0    0  501  0.00000000000E+00  0.00000000000E+00  0.31904021480E+03  0.31904023078E+03  0.10100000000E+00 0.  1.
         -3   -1    0    0  501    0 -0.00000000000E+00 -0.00000000000E+00 -0.70571315595E+01  0.70578542665E+01  0.10100000000E+00 0.  1.
          2    1    1    2    0  502 -0.15849512258E+02  0.27728907953E+02  0.35406820433E+02  0.47683774125E+02  0.25500000000E-02 0.  1.
         -2    1    1    2  502    0  0.15849512258E+02 -0.27728907953E+02  0.27657626280E+03  0.27841431093E+03  0.25500000000E-02 0.  1.
<mgrwt>
<rscale>  0 0.94902670E+02</rscale>
<asrwt>0</asrwt>
<pdfrwt beam="1">  1        3 0.49083169E-01 0.94902670E+02</pdfrwt>
<pdfrwt beam="2">  1       -3 0.10857693E-02 0.94902670E+02</pdfrwt>
<totfact> 0.20700124E+04</totfact>
</mgrwt>
</event>
<event>
 4    1  0.7692565E-003  0.7290087E+02  0.7818608E-02  0.1350497E+00
         -3   -1    0    0  501    0 -0.00000000000E+00  0.00000000000E+00  0.37054548152E+03  0.37054549529E+03  0.10100000000E+00 0. -1.
          3   -1    0    0    0  501  0.00000000000E+00 -0.00000000000E+00 -0.35848921820E+01  0.35863146761E+01  0.10100000000E+00 0. -1.
          2    1    1    2    0  502  0.12634782858E+02 -0.26159910548E+02  0.70498482681E+02  0.76249686718E+02  0.25500000000E-02 0.  1.
         -2    1    1    2  502    0 -0.12634782858E+02  0.26159910548E+02  0.29646210666E+03  0.29788212324E+03  0.25500000000E-02 0.  1.
<mgrwt>
<rscale>  0 0.72900872E+02</rscale>
<asrwt>0</asrwt>
<pdfrwt beam="2">  1        3 0.55163221E-03 0.72900872E+02</pdfrwt>
<pdfrwt beam="1">  1       -3 0.57007123E-01 0.72900872E+02</pdfrwt>
<totfact> 0.38642695E+04</totfact>
</mgrwt>
</event>
<event>
 4    1  0.7692565E-003  0.6827699E+02  0.7818608E-02  0.1366052E+00
          3   -1    0    0    0  501  0.00000000000E+00  0.00000000000E+00  0.15411815238E+02  0.15412146182E+02  0.10100000000E+00 0. -1.
         -3   -1    0    0  501    0 -0.00000000000E+00 -0.00000000000E+00 -0.75618521389E+02  0.75618588840E+02  0.10100000000E+00 0. -1.
          2    1    1    2    0  502 -0.31535658539E+02 -0.12841270202E+02 -0.33380243220E+02  0.47682665863E+02  0.25500000000E-02 0.  1.
         -2    1    1    2  502    0  0.31535658539E+02  0.12841270202E+02 -0.26826462931E+02  0.43348069158E+02  0.25500000000E-02 0.  1.
<mgrwt>
<rscale>  0 0.68276989E+02</rscale>
<asrwt>0</asrwt>
<pdfrwt beam="1">  1        3 0.23710792E-02 0.68276989E+02</pdfrwt>
<pdfrwt beam="2">  1       -3 0.11633649E-01 0.68276989E+02</pdfrwt>
<totfact> 0.76598665E+04</totfact>
</mgrwt>
</event>
<event>
 4    1  0.7692565E-003  0.4460058E+02  0.7818608E-02  0.1476851E+00
          3   -1    0    0    0  501  0.00000000000E+00  0.00000000000E+00  0.74681693603E+01  0.74688522943E+01  0.10100000000E+00 0. -1.
         -3   -1    0    0  501    0 -0.00000000000E+00 -0.00000000000E+00 -0.66585914463E+02  0.66585991064E+02  0.10100000000E+00 0. -1.
          2    1    1    2    0  502  0.19711762535E+02  0.75298589263E+01 -0.17579722969E+02  0.27464504799E+02  0.25500000000E-02 0.  1.
         -2    1    1    2  502    0 -0.19711762535E+02 -0.75298589263E+01 -0.41538022134E+02  0.46590338559E+02  0.25500000000E-02 0.  1.
<mgrwt>
<rscale>  0 0.44600583E+02</rscale>
<asrwt>0</asrwt>
<pdfrwt beam="1">  1        3 0.11490076E-02 0.44600583E+02</pdfrwt>
<pdfrwt beam="2">  1       -3 0.10244045E-01 0.44600583E+02</pdfrwt>
<totfact> 0.23630599E+05</totfact>
</mgrwt>
</event>
<event>
 4    1  0.7692565E-003  0.8026005E+02  0.7818608E-02  0.1328315E+00
          3   -1    0    0    0  501  0.00000000000E+00  0.00000000000E+00  0.15027172447E+03  0.15027175841E+03  0.10100000000E+00 0.  1.
         -3   -1    0    0  501    0 -0.00000000000E+00 -0.00000000000E+00 -0.10716439011E+02  0.10716914951E+02  0.10100000000E+00 0.  1.
          2    1    1    2    0  502  0.51388026175E+01  0.24629005101E+02  0.70675672474E+01  0.26133229764E+02  0.25500000000E-02 0. -1.
         -2    1    1    2  502    0 -0.51388026175E+01 -0.24629005101E+02  0.13248771821E+03  0.13485544360E+03  0.25500000000E-02 0. -1.
<mgrwt>
<rscale>  0 0.80260048E+02</rscale>
<asrwt>0</asrwt>
<pdfrwt beam="1">  1        3 0.23118767E-01 0.80260048E+02</pdfrwt>
<pdfrwt beam="2">  1       -3 0.16487221E-02 0.80260048E+02</pdfrwt>
<totfact> 0.43148285E+04</totfact>
</mgrwt>
</event>
<event>
 4    1  0.7692565E-003  0.4733319E+02  0.7818608E-02  0.1460280E+00
          3   -1    0    0    0  501  0.00000000000E+00  0.00000000000E+00  0.96348547774E+03  0.96348548303E+03  0.10100000000E+00 0.  1.
         -3   -1    0    0  501    0 -0.00000000000E+00 -0.00000000000E+00 -0.57694255896E+00  0.58571641290E+00  0.10100000000E+00 0.  1.
          2    1    1    2    0  502 -0.19089651229E+02  0.12568240193E+02  0.35634218615E+03  0.35707440273E+03  0.25500000000E-02 0.  1.
         -2    1    1    2  502    0  0.19089651229E+02 -0.12568240193E+02  0.60656634903E+03  0.60699679672E+03  0.25500000000E-02 0.  1.
<mgrwt>
<rscale>  0 0.47333186E+02</rscale>
<asrwt>0</asrwt>
<pdfrwt beam="1">  1        3 0.14822896E+00 0.47333186E+02</pdfrwt>
<pdfrwt beam="2">  1       -3 0.89435865E-04 0.47333186E+02</pdfrwt>
<totfact> 0.55638477E+04</totfact>
</mgrwt>
</event>
<event>
 4    1  0.7692565E-003  0.8559040E+02  0.7818608E-02  0.1313896E+00
         -3   -1    0    0  501    0 -0.00000000000E+00  0.00000000000E+00  0.92097110295E+01  0.92102648305E+01  0.10100000000E+00 0.  1.
          3   -1    0    0    0  501  0.00000000000E+00 -0.00000000000E+00 -0.19885194909E+03  0.19885197474E+03  0.10100000000E+00 0.  1.
          2    1    1    2    0  502 -0.60150888507E+01  0.40451609354E+02 -0.64176726776E+02  0.76099712610E+02  0.25500000000E-02 0. -1.
         -2    1    1    2  502    0  0.60150888507E+01 -0.40451609354E+02 -0.12546551129E+03  0.13196252696E+03  0.25500000000E-02 0. -1.
<mgrwt>
<rscale>  0 0.85590403E+02</rscale>
<asrwt>0</asrwt>
<pdfrwt beam="2">  1        3 0.30592649E-01 0.85590403E+02</pdfrwt>
<pdfrwt beam="1">  1       -3 0.14169233E-02 0.85590403E+02</pdfrwt>
<totfact> 0.33280207E+04</totfact>
</mgrwt>
</event>
<event>
 4    1  0.7692565E-003  0.6104812E+02  0.7818608E-02  0.1393485E+00
          3   -1    0    0    0  501  0.00000000000E+00  0.00000000000E+00  0.57841086172E+02  0.57841174353E+02  0.10100000000E+00 0. -1.
         -3   -1    0    0  501    0 -0.00000000000E+00 -0.00000000000E+00 -0.16107985118E+02  0.16108301759E+02  0.10100000000E+00 0. -1.
          2    1    1    2    0  502  0.19724478435E+02  0.20968894189E+02  0.85747502497E+01  0.30037908073E+02  0.25500000000E-02 0. -1.
         -2    1    1    2  502    0 -0.19724478435E+02 -0.20968894189E+02  0.33158350805E+02  0.43911568039E+02  0.25500000000E-02 0. -1.
<mgrwt>
<rscale>  0 0.61048123E+02</rscale>
<asrwt>0</asrwt>
<pdfrwt beam="1">  1        3 0.88986597E-02 0.61048123E+02</pdfrwt>
<pdfrwt beam="2">  1       -3 0.24781827E-02 0.61048123E+02</pdfrwt>
<totfact> 0.10673927E+05</totfact>
</mgrwt>
</event>
<event>
 4    1  0.7692565E-003  0.6978721E+02  0.7818608E-02  0.1360818E+00
          3   -1    0    0    0  501  0.00000000000E+00  0.00000000000E+00  0.10541631165E+02  0.10542114997E+02  0.10100000000E+00 0. -1.
         -3   -1    0    0  501    0 -0.00000000000E+00 -0.00000000000E+00 -0.11549734389E+03  0.11549738805E+03  0.10100000000E+00 0. -1.
          2    1    1    2    0  502  0.26253437059E+01 -0.25852991627E+02 -0.10419889967E+02  0.27997209130E+02  0.25500000000E-02 0.  1.
         -2    1    1    2  502    0 -0.26253437059E+01  0.25852991627E+02 -0.94535822758E+02  0.98042293918E+02  0.25500000000E-02 0.  1.
<mgrwt>
<rscale>  0 0.69787210E+02</rscale>
<asrwt>0</asrwt>
<pdfrwt beam="1">  1        3 0.16218301E-02 0.69787210E+02</pdfrwt>
<pdfrwt beam="2">  1       -3 0.17768862E-01 0.69787210E+02</pdfrwt>
<totfact> 0.67002278E+04</totfact>
</mgrwt>
</event>
<event>
 4    1  0.7692565E-003  0.4426382E+02  0.7818608E-02  0.1478990E+00
         -3   -1    0    0  501    0 -0.00000000000E+00  0.00000000000E+00  0.10336133261E+03  0.10336138195E+03  0.10100000000E+00 0. -1.
          3   -1    0    0    0  501  0.00000000000E+00 -0.00000000000E+00 -0.47383342368E+01  0.47394105477E+01  0.10100000000E+00 0. -1.
          2    1    1    2    0  502  0.17539818078E+02  0.10462488103E+02  0.70136477283E+02  0.73049533384E+02  0.25500000000E-02 0.  1.
         -2    1    1    2  502    0 -0.17539818078E+02 -0.10462488103E+02  0.28486521086E+02  0.35051259115E+02  0.25500000000E-02 0.  1.
<mgrwt>
<rscale>  0 0.44263817E+02</rscale>
<asrwt>0</asrwt>
<pdfrwt beam="2">  1        3 0.72906112E-03 0.44263817E+02</pdfrwt>
<pdfrwt beam="1">  1       -3 0.15901829E-01 0.44263817E+02</pdfrwt>
<totfact> 0.22189622E+05</totfact>
</mgrwt>
</event>
<event>
 4    1  0.7692565E-003  0.4724960E+02  0.7818608E-02  0.1460767E+00
         -3   -1    0    0  501    0 -0.00000000000E+00  0.00000000000E+00  0.65928238888E+03  0.65928239662E+03  0.10100000000E+00 0. -1.
          3   -1    0    0    0  501  0.00000000000E+00 -0.00000000000E+00 -0.84355347741E+00  0.84957840677E+00  0.10100000000E+00 0. -1.
          2    1    1    2    0  502 -0.81207477038E+01 -0.18810452077E+02  0.49355232279E+03  0.49397740332E+03  0.25500000000E-02 0.  1.
         -2    1    1    2  502    0  0.81207477038E+01  0.18810452077E+02  0.16488651262E+03  0.16615457171E+03  0.25500000000E-02 0.  1.
<mgrwt>
<rscale>  0 0.47249598E+02</rscale>
<asrwt>0</asrwt>
<pdfrwt beam="2">  1        3 0.13024171E-03 0.47249598E+02</pdfrwt>
<pdfrwt beam="1">  1       -3 0.10142836E+00 0.47249598E+02</pdfrwt>
<totfact> 0.78391088E+04</totfact>
</mgrwt>
</event>
<event>
 4    1  0.7692565E-003  0.4956967E+02  0.7818608E-02  0.1447677E+00
         -3   -1    0    0  501    0 -0.00000000000E+00  0.00000000000E+00  0.88114231155E+02  0.88114289040E+02  0.10100000000E+00 0. -1.
          3   -1    0    0    0  501  0.00000000000E+00 -0.00000000000E+00 -0.69710702603E+01  0.69718018886E+01  0.10100000000E+00 0. -1.
          2    1    1    2    0  502 -0.25227273883E+01 -0.24238748545E+02  0.49237006597E+02  0.54937818574E+02  0.25500000000E-02 0.  1.
         -2    1    1    2  502    0  0.25227273883E+01  0.24238748545E+02  0.31906154297E+02  0.40148272355E+02  0.25500000000E-02 0.  1.
<mgrwt>
<rscale>  0 0.49569669E+02</rscale>
<asrwt>0</asrwt>
<pdfrwt beam="2">  1        3 0.10725330E-02 0.49569669E+02</pdfrwt>
<pdfrwt beam="1">  1       -3 0.13556097E-01 0.49569669E+02</pdfrwt>
<totfact> 0.17259181E+05</totfact>
</mgrwt>
</event>
<event>
 4    1  0.7692565E-003  0.6390336E+02  0.7818608E-02  0.1382145E+00
         -3   -1    0    0  501    0 -0.00000000000E+00  0.00000000000E+00  0.12885400089E+03  0.12885404047E+03  0.10100000000E+00 0.  1.
          3   -1    0    0    0  501  0.00000000000E+00 -0.00000000000E+00 -0.79226350336E+01  0.79232787958E+01  0.10100000000E+00 0.  1.
          2    1    1    2    0  502 -0.16240454189E+02  0.14767390872E+02  0.10770111058E+02  0.24450429120E+02  0.25500000000E-02 0.  1.
         -2    1    1    2  502    0  0.16240454189E+02 -0.14767390872E+02  0.11016125480E+03  0.11232689015E+03  0.25500000000E-02 0.  1.
<mgrwt>
<rscale>  0 0.63903363E+02</rscale>
<asrwt>0</asrwt>
<pdfrwt beam="2">  1        3 0.12189195E-02 0.63903363E+02</pdfrwt>
<pdfrwt beam="1">  1       -3 0.19823745E-01 0.63903363E+02</pdfrwt>
<totfact> 0.82422915E+04</totfact>
</mgrwt>
</event>
<event>
 4    1  0.7692565E-003  0.5890449E+02  0.7818608E-02  0.1402487E+00
         -3   -1    0    0  501    0 -0.00000000000E+00  0.00000000000E+00  0.20403653832E+02  0.20403903811E+02  0.10100000000E+00 0. -1.
          3   -1    0    0    0  501  0.00000000000E+00 -0.00000000000E+00 -0.42513123925E+02  0.42513243900E+02  0.10100000000E+00 0. -1.
          2    1    1    2    0  502  0.15936491459E+01 -0.27992615320E+02 -0.20686115018E+02  0.34843099620E+02  0.25500000000E-02 0. -1.
         -2    1    1    2  502    0 -0.15936491459E+01  0.27992615320E+02 -0.14233550747E+01  0.28074048091E+02  0.25500000000E-02 0. -1.
<mgrwt>
<rscale>  0 0.58904489E+02</rscale>
<asrwt>0</asrwt>
<pdfrwt beam="2">  1        3 0.65405090E-02 0.58904489E+02</pdfrwt>
<pdfrwt beam="1">  1       -3 0.31390521E-02 0.58904489E+02</pdfrwt>
<totfact> 0.12028246E+05</totfact>
</mgrwt>
</event>
<event>
 4    1  0.7692565E-003  0.4120008E+02  0.7818608E-02  0.1499561E+00
          3   -1    0    0    0  501  0.00000000000E+00  0.00000000000E+00  0.13397332410E+03  0.13397336217E+03  0.10100000000E+00 0. -1.
         -3   -1    0    0  501    0 -0.00000000000E+00 -0.00000000000E+00 -0.31666641955E+01  0.31682744716E+01  0.10100000000E+00 0. -1.
          2    1    1    2    0  502 -0.69246667138E+01 -0.19391555832E+02  0.67450135129E+02  0.70523075529E+02  0.25500000000E-02 0.  1.
         -2    1    1    2  502    0  0.69246667138E+01  0.19391555832E+02  0.63356524779E+02  0.66618561117E+02  0.25500000000E-02 0.  1.
<mgrwt>
<rscale>  0 0.41200076E+02</rscale>
<asrwt>0</asrwt>
<pdfrwt beam="1">  1        3 0.20611411E-01 0.41200076E+02</pdfrwt>
<pdfrwt beam="2">  1       -3 0.48730582E-03 0.41200076E+02</pdfrwt>
<totfact> 0.24792554E+05</totfact>
</mgrwt>
</event>
<event>
 4    1  0.7692565E-003  0.4729257E+02  0.7818608E-02  0.1460517E+00
         -3   -1    0    0  501    0 -0.00000000000E+00  0.00000000000E+00  0.50471845953E+01  0.50481950575E+01  0.10100000000E+00 0.  1.
          3   -1    0    0    0  501  0.00000000000E+00 -0.00000000000E+00 -0.11077175534E+03  0.11077180139E+03  0.10100000000E+00 0.  1.
          2    1    1    2    0  502  0.19277916831E+00 -0.23127063267E+02 -0.40802691015E+02  0.46901575877E+02  0.25500000000E-02 0.  1.
         -2    1    1    2  502    0 -0.19277916831E+00  0.23127063267E+02 -0.64921879731E+02  0.68918420567E+02  0.25500000000E-02 0.  1.
<mgrwt>
<rscale>  0 0.47292565E+02</rscale>
<asrwt>0</asrwt>
<pdfrwt beam="2">  1        3 0.17041888E-01 0.47292565E+02</pdfrwt>
<pdfrwt beam="1">  1       -3 0.77657129E-03 0.47292565E+02</pdfrwt>
<totfact> 0.18506782E+05</totfact>
</mgrwt>
</event>
<event>
 4    1  0.7692565E-003  0.5115912E+02  0.7818608E-02  0.1439188E+00
          3   -1    0    0    0  501  0.00000000000E+00  0.00000000000E+00  0.17176041597E+03  0.17176044567E+03  0.10100000000E+00 0. -1.
         -3   -1    0    0  501    0 -0.00000000000E+00 -0.00000000000E+00 -0.38087572587E+01  0.38100961740E+01  0.10100000000E+00 0. -1.
          2    1    1    2    0  502 -0.79635004139E+01  0.24274535269E+02  0.79576271478E+02  0.83576631843E+02  0.25500000000E-02 0.  1.
         -2    1    1    2  502    0  0.79635004139E+01 -0.24274535269E+02  0.88375387236E+02  0.91993910000E+02  0.25500000000E-02 0.  1.
<mgrwt>
<rscale>  0 0.51159119E+02</rscale>
<asrwt>0</asrwt>
<pdfrwt beam="1">  1        3 0.26424788E-01 0.51159119E+02</pdfrwt>
<pdfrwt beam="2">  1       -3 0.58606787E-03 0.51159119E+02</pdfrwt>
<totfact> 0.13424345E+05</totfact>
</mgrwt>
</event>
<event>
 4    1  0.7692565E-003  0.4906111E+02  0.7818608E-02  0.1450472E+00
         -3   -1    0    0  501    0 -0.00000000000E+00  0.00000000000E+00  0.25342194617E+02  0.25342395882E+02  0.10100000000E+00 0. -1.
          3   -1    0    0    0  501  0.00000000000E+00 -0.00000000000E+00 -0.23744511306E+02  0.23744726113E+02  0.10100000000E+00 0. -1.
          2    1    1    2    0  502 -0.22936466612E+02  0.58208854930E+01  0.72663245425E+01  0.24754064059E+02  0.25500000000E-02 0. -1.
         -2    1    1    2  502    0  0.22936466612E+02 -0.58208854930E+01 -0.56686412318E+01  0.24333057936E+02  0.25500000000E-02 0. -1.
<mgrwt>
<rscale>  0 0.49061114E+02</rscale>
<asrwt>0</asrwt>
<pdfrwt beam="2">  1        3 0.36530337E-02 0.49061114E+02</pdfrwt>
<pdfrwt beam="1">  1       -3 0.38988312E-02 0.49061114E+02</pdfrwt>
<totfact> 0.19877879E+05</totfact>
</mgrwt>
</event>
<event>
 4    1  0.7692565E-003  0.6404449E+02  0.7818608E-02  0.1381602E+00
         -3   -1    0    0  501    0 -0.00000000000E+00  0.00000000000E+00  0.14850076612E+01  0.14884383608E+01  0.10100000000E+00 0.  1.
          3   -1    0    0    0  501  0.00000000000E+00 -0.00000000000E+00 -0.68971764940E+03  0.68971765680E+03  0.10100000000E+00 0.  1.
          2    1    1    2    0  502  0.17511051781E+02  0.16651591066E+02 -0.11734040540E+03  0.11980268430E+03  0.25500000000E-02 0. -1.
         -2    1    1    2  502    0 -0.17511051781E+02 -0.16651591066E+02 -0.57089223634E+03  0.57140341086E+03  0.25500000000E-02 0. -1.
<mgrwt>
<rscale>  0 0.64044491E+02</rscale>
<asrwt>0</asrwt>
<pdfrwt beam="2">  1        3 0.10611042E+00 0.64044491E+02</pdfrwt>
<pdfrwt beam="1">  1       -3 0.22872774E-03 0.64044491E+02</pdfrwt>
<totfact> 0.35314510E+04</totfact>
</mgrwt>
</event>
<event>
 4    1  0.7692565E-003  0.5905897E+02  0.7818608E-02  0.1401824E+00
          3   -1    0    0    0  501  0.00000000000E+00  0.00000000000E+00  0.94094478996E+01  0.94099899456E+01  0.10100000000E+00 0. -1.
         -3   -1    0    0  501    0 -0.00000000000E+00 -0.00000000000E+00 -0.92668558502E+02  0.92668613542E+02  0.10100000000E+00 0. -1.
          2    1    1    2    0  502 -0.20875859310E+02  0.16977864675E+02 -0.62652483631E+02  0.68186385023E+02  0.25500000000E-02 0. -1.
         -2    1    1    2  502    0  0.20875859310E+02 -0.16977864675E+02 -0.20606626972E+02  0.33892218465E+02  0.25500000000E-02 0. -1.
<mgrwt>
<rscale>  0 0.59058969E+02</rscale>
<asrwt>0</asrwt>
<pdfrwt beam="1">  1        3 0.14476534E-02 0.59058969E+02</pdfrwt>
<pdfrwt beam="2">  1       -3 0.14256747E-01 0.59058969E+02</pdfrwt>
<totfact> 0.10887014E+05</totfact>
</mgrwt>
</event>
<event>
 4    1  0.7692565E-003  0.8773023E+02  0.7818608E-02  0.1308443E+00
          3   -1    0    0    0  501  0.00000000000E+00  0.00000000000E+00  0.10628097546E+02  0.10628577442E+02  0.10100000000E+00 0. -1.
         -3   -1    0    0  501    0 -0.00000000000E+00 -0.00000000000E+00 -0.18103896523E+03  0.18103899341E+03  0.10100000000E+00 0. -1.
          2    1    1    2    0  502  0.21432004912E+02  0.11376907584E+02 -0.16504209626E+03  0.16681624143E+03  0.25500000000E-02 0.  1.
         -2    1    1    2  502    0 -0.21432004912E+02 -0.11376907584E+02 -0.53687714274E+01  0.24851329419E+02  0.25500000000E-02 0.  1.
<mgrwt>
<rscale>  0 0.87730234E+02</rscale>
<asrwt>0</asrwt>
<pdfrwt beam="1">  1        3 0.16351311E-02 0.87730234E+02</pdfrwt>
<pdfrwt beam="2">  1       -3 0.27852185E-01 0.87730234E+02</pdfrwt>
<totfact> 0.32094119E+04</totfact>
</mgrwt>
</event>
<event>
 4    1  0.7692565E-003  0.7250032E+02  0.7818608E-02  0.1351791E+00
          3   -1    0    0    0  501  0.00000000000E+00  0.00000000000E+00  0.32494685490E+03  0.32494687060E+03  0.10100000000E+00 0.  1.
         -3   -1    0    0  501    0 -0.00000000000E+00 -0.00000000000E+00 -0.40433194640E+01  0.40445807308E+01  0.10100000000E+00 0.  1.
          2    1    1    2    0  502 -0.29265888480E+02  0.20845350214E+02  0.18223938432E+03  0.18574771616E+03  0.25500000000E-02 0.  1.
         -2    1    1    2  502    0  0.29265888480E+02 -0.20845350214E+02  0.13866415112E+03  0.14324373517E+03  0.25500000000E-02 0.  1.
<mgrwt>
<rscale>  0 0.72500317E+02</rscale>
<asrwt>0</asrwt>
<pdfrwt beam="1">  1        3 0.49991933E-01 0.72500317E+02</pdfrwt>
<pdfrwt beam="2">  1       -3 0.62214724E-03 0.72500317E+02</pdfrwt>
<totfact> 0.42064427E+04</totfact>
</mgrwt>
</event>
<event>
 4    1  0.7692565E-003  0.9612179E+02  0.7818608E-02  0.1288669E+00
         -3   -1    0    0  501    0 -0.00000000000E+00  0.00000000000E+00  0.16096375923E+02  0.16096692792E+02  0.10100000000E+00 0. -1.
          3   -1    0    0    0  501  0.00000000000E+00 -0.00000000000E+00 -0.14349948389E+03  0.14349951943E+03  0.10100000000E+00 0. -1.
          2    1    1    2    0  502 -0.19936336700E+02  0.43571653241E+02 -0.57510577888E+02  0.74855948746E+02  0.25500000000E-02 0.  1.
         -2    1    1    2  502    0  0.19936336700E+02 -0.43571653241E+02 -0.69892530075E+02  0.84740263476E+02  0.25500000000E-02 0.  1.
<mgrwt>
<rscale>  0 0.96121793E+02</rscale>
<asrwt>0</asrwt>
<pdfrwt beam="2">  1        3 0.22076870E-01 0.96121793E+02</pdfrwt>
<pdfrwt beam="1">  1       -3 0.24763927E-02 0.96121793E+02</pdfrwt>
<totfact> 0.26620762E+04</totfact>
</mgrwt>
</event>
<event>
 4    1  0.7692565E-003  0.1343146E+03  0.7818608E-02  0.1221191E+00
          3   -1    0    0    0  501  0.00000000000E+00  0.00000000000E+00  0.17191885991E+03  0.17191888958E+03  0.10100000000E+00 0. -1.
         -3   -1    0    0  501    0 -0.00000000000E+00 -0.00000000000E+00 -0.26233775816E+02  0.26233970241E+02  0.10100000000E+00 0. -1.
          2    1    1    2    0  502 -0.49172288691E+02 -0.27362226006E+02  0.18767661225E+02  0.59319731131E+02  0.25500000000E-02 0. -1.
         -2    1    1    2  502    0  0.49172288691E+02  0.27362226006E+02  0.12691742287E+03  0.13883312869E+03  0.25500000000E-02 0. -1.
<mgrwt>
<rscale>  0 0.13431460E+03</rscale>
<asrwt>0</asrwt>
<pdfrwt beam="1">  1        3 0.26449073E-01 0.13431460E+03</pdfrwt>
<pdfrwt beam="2">  1       -3 0.40359827E-02 0.13431460E+03</pdfrwt>
<totfact> 0.98028334E+03</totfact>
</mgrwt>
</event>
<event>
 4    1  0.7692565E-003  0.5750931E+02  0.7818608E-02  0.1408592E+00
         -3   -1    0    0  501    0 -0.00000000000E+00  0.00000000000E+00  0.14408212223E+01  0.14443568792E+01  0.10100000000E+00 0. -1.
          3   -1    0    0    0  501  0.00000000000E+00 -0.00000000000E+00 -0.57315357320E+03  0.57315358210E+03  0.10100000000E+00 0. -1.
          2    1    1    2    0  502 -0.11973974529E+02 -0.25905528032E+02 -0.32097965881E+03  0.32224589032E+03  0.25500000000E-02 0. -1.
         -2    1    1    2  502    0  0.11973974529E+02  0.25905528032E+02 -0.25073309317E+03  0.25235204867E+03  0.25500000000E-02 0. -1.
<mgrwt>
<rscale>  0 0.57509310E+02</rscale>
<asrwt>0</asrwt>
<pdfrwt beam="2">  1        3 0.88177564E-01 0.57509310E+02</pdfrwt>
<pdfrwt beam="1">  1       -3 0.22193792E-03 0.57509310E+02</pdfrwt>
<totfact> 0.53638726E+04</totfact>
</mgrwt>
</event>
<event>
 4    1  0.7692565E-003  0.5231546E+02  0.7818608E-02  0.1433238E+00
         -3   -1    0    0  501    0 -0.00000000000E+00  0.00000000000E+00  0.65382468266E+00  0.66157971224E+00  0.10100000000E+00 0. -1.
          3   -1    0    0    0  501  0.00000000000E+00 -0.00000000000E+00 -0.10403213186E+04  0.10403213235E+04  0.10100000000E+00 0. -1.
          2    1    1    2    0  502  0.21247516335E+02  0.15077842345E+02 -0.47347295824E+03  0.47418924542E+03  0.25500000000E-02 0.  1.
         -2    1    1    2  502    0 -0.21247516335E+02 -0.15077842345E+02 -0.56619453564E+03  0.56679365775E+03  0.25500000000E-02 0.  1.
<mgrwt>
<rscale>  0 0.52315455E+02</rscale>
<asrwt>0</asrwt>
<pdfrwt beam="2">  1        3 0.16004871E+00 0.52315455E+02</pdfrwt>
<pdfrwt beam="1">  1       -3 0.10118616E-03 0.52315455E+02</pdfrwt>
<totfact> 0.40154469E+04</totfact>
</mgrwt>
</event>
<event>
 4    1  0.7692565E-003  0.5772612E+02  0.7818608E-02  0.1407630E+00
         -3   -1    0    0  501    0 -0.00000000000E+00  0.00000000000E+00  0.26545343616E+01  0.26564550960E+01  0.10100000000E+00 0.  1.
          3   -1    0    0    0  501  0.00000000000E+00 -0.00000000000E+00 -0.31371591954E+03  0.31371593579E+03  0.10100000000E+00 0.  1.
          2    1    1    2    0  502 -0.54858829998E+01  0.24586014211E+02 -0.78313068866E+02  0.82264839201E+02  0.25500000000E-02 0.  1.
         -2    1    1    2  502    0  0.54858829998E+01 -0.24586014211E+02 -0.23274831631E+03  0.23410755169E+03  0.25500000000E-02 0.  1.
<mgrwt>
<rscale>  0 0.57726115E+02</rscale>
<asrwt>0</asrwt>
<pdfrwt beam="2">  1        3 0.48264107E-01 0.57726115E+02</pdfrwt>
<pdfrwt beam="1">  1       -3 0.40853915E-03 0.57726115E+02</pdfrwt>
<totfact> 0.77084970E+04</totfact>
</mgrwt>
</event>
<event>
 4    1  0.7692565E-003  0.5960495E+02  0.7818608E-02  0.1399497E+00
         -3   -1    0    0  501    0 -0.00000000000E+00  0.00000000000E+00  0.20246378273E+03  0.20246380793E+03  0.10100000000E+00 0. -1.
          3   -1    0    0    0  501  0.00000000000E+00 -0.00000000000E+00 -0.43862883954E+01  0.43874510695E+01  0.10100000000E+00 0. -1.
          2    1    1    2    0  502  0.23941766101E+02 -0.85702195373E+01  0.15297265846E+03  0.15507189000E+03  0.25500000000E-02 0.  1.
         -2    1    1    2  502    0 -0.23941766101E+02  0.85702195373E+01  0.45104835882E+02  0.51779368994E+02  0.25500000000E-02 0.  1.
<mgrwt>
<rscale>  0 0.59604946E+02</rscale>
<asrwt>0</asrwt>
<pdfrwt beam="2">  1        3 0.67490484E-03 0.59604946E+02</pdfrwt>
<pdfrwt beam="1">  1       -3 0.31148372E-01 0.59604946E+02</pdfrwt>
<totfact> 0.85901783E+04</totfact>
</mgrwt>
</event>
<event>
 4    1  0.7692565E-003  0.5674418E+02  0.7818608E-02  0.1412026E+00
          3   -1    0    0    0  501  0.00000000000E+00  0.00000000000E+00  0.53695831791E+02  0.53695926780E+02  0.10100000000E+00 0.  1.
         -3   -1    0    0  501    0 -0.00000000000E+00 -0.00000000000E+00 -0.14991115777E+02  0.14991456008E+02  0.10100000000E+00 0.  1.
          2    1    1    2    0  502  0.28162196266E+02 -0.30548407212E+01  0.17425450792E+02  0.33257896689E+02  0.25500000000E-02 0. -1.
         -2    1    1    2  502    0 -0.28162196266E+02  0.30548407212E+01  0.21279265222E+02  0.35429486099E+02  0.25500000000E-02 0. -1.
<mgrwt>
<rscale>  0 0.56744176E+02</rscale>
<asrwt>0</asrwt>
<pdfrwt beam="1">  1        3 0.82609308E-02 0.56744176E+02</pdfrwt>
<pdfrwt beam="2">  1       -3 0.23063590E-02 0.56744176E+02</pdfrwt>
<totfact> 0.13052192E+05</totfact>
</mgrwt>
</event>
<event>
 4    1  0.7692565E-003  0.4684934E+02  0.7818608E-02  0.1463116E+00
         -3   -1    0    0  501    0 -0.00000000000E+00  0.00000000000E+00  0.62325105202E+00  0.63138171801E+00  0.10100000000E+00 0. -1.
          3   -1    0    0    0  501  0.00000000000E+00 -0.00000000000E+00 -0.87469441648E+03  0.87469442231E+03  0.10100000000E+00 0. -1.
          2    1    1    2    0  502  0.21356540180E+02  0.94167383726E+01 -0.39995643640E+03  0.40063690269E+03  0.25500000000E-02 0. -1.
         -2    1    1    2  502    0 -0.21356540180E+02 -0.94167383726E+01 -0.47411472902E+03  0.47468890134E+03  0.25500000000E-02 0. -1.
<mgrwt>
<rscale>  0 0.46849343E+02</rscale>
<asrwt>0</asrwt>
<pdfrwt beam="2">  1        3 0.13456802E+00 0.46849343E+02</pdfrwt>
<pdfrwt beam="1">  1       -3 0.96511362E-04 0.46849343E+02</pdfrwt>
<totfact> 0.62677050E+04</totfact>
</mgrwt>
</event>
<event>
 4    1  0.7692565E-003  0.5482898E+02  0.7818608E-02  0.1420909E+00
          3   -1    0    0    0  501  0.00000000000E+00  0.00000000000E+00  0.28458118029E+03  0.28458119821E+03  0.10100000000E+00 0. -1.
         -3   -1    0    0  501    0 -0.00000000000E+00 -0.00000000000E+00 -0.26399292986E+01  0.26418606514E+01  0.10100000000E+00 0. -1.
          2    1    1    2    0  502  0.19931303891E+02  0.94887701072E+01  0.22612859440E+03  0.22720350976E+03  0.25500000000E-02 0. -1.
         -2    1    1    2  502    0 -0.19931303891E+02 -0.94887701072E+01  0.55812656582E+02  0.60019549100E+02  0.25500000000E-02 0. -1.
<mgrwt>
<rscale>  0 0.54828975E+02</rscale>
<asrwt>0</asrwt>
<pdfrwt beam="1">  1        3 0.43781872E-01 0.54828975E+02</pdfrwt>
<pdfrwt beam="2">  1       -3 0.40629289E-03 0.54828975E+02</pdfrwt>
<totfact> 0.92117575E+04</totfact>
</mgrwt>
</event>
<event>
 4    1  0.7692565E-003  0.4910585E+02  0.7818608E-02  0.1450225E+00
         -3   -1    0    0  501    0 -0.00000000000E+00  0.00000000000E+00  0.66540139137E+01  0.66547803994E+01  0.10100000000E+00 0. -1.
          3   -1    0    0    0  501  0.00000000000E+00 -0.00000000000E+00 -0.90592862043E+02  0.90592918344E+02  0.10100000000E+00 0. -1.
          2    1    1    2    0  502  0.19649498629E+02  0.97404874285E+01 -0.63831321317E+02  0.67493832898E+02  0.25500000000E-02 0. -1.
         -2    1    1    2  502    0 -0.19649498629E+02 -0.97404874285E+01 -0.20107526812E+02  0.29753865845E+02  0.25500000000E-02 0. -1.
<mgrwt>
<rscale>  0 0.49105852E+02</rscale>
<asrwt>0</asrwt>
<pdfrwt beam="2">  1        3 0.13937426E-01 0.49105852E+02</pdfrwt>
<pdfrwt beam="1">  1       -3 0.10237578E-02 0.49105852E+02</pdfrwt>
<totfact> 0.17579012E+05</totfact>
</mgrwt>
</event>
<event>
 4    1  0.7692565E-003  0.4188659E+02  0.7818608E-02  0.1494770E+00
          3   -1    0    0    0  501  0.00000000000E+00  0.00000000000E+00  0.34510313428E+02  0.34510461224E+02  0.10100000000E+00 0. -1.
         -3   -1    0    0  501    0 -0.00000000000E+00 -0.00000000000E+00 -0.12709495518E+02  0.12709896826E+02  0.10100000000E+00 0. -1.
          2    1    1    2    0  502 -0.16548528516E+02 -0.12800934708E+02  0.11972214391E+02  0.24105012951E+02  0.25500000000E-02 0.  1.
         -2    1    1    2  502    0  0.16548528516E+02  0.12800934708E+02  0.98286035187E+01  0.23115345099E+02  0.25500000000E-02 0.  1.
<mgrwt>
<rscale>  0 0.41886592E+02</rscale>
<asrwt>0</asrwt>
<pdfrwt beam="1">  1        3 0.53093213E-02 0.41886592E+02</pdfrwt>
<pdfrwt beam="2">  1       -3 0.19553492E-02 0.41886592E+02</pdfrwt>
<totfact> 0.29621454E+05</totfact>
</mgrwt>
</event>
<event>
 4    1  0.7692565E-003  0.4958230E+02  0.7818608E-02  0.1447608E+00
          3   -1    0    0    0  501  0.00000000000E+00  0.00000000000E+00  0.15520345283E+04  0.15520345316E+04  0.10100000000E+00 0.  1.
         -3   -1    0    0  501    0 -0.00000000000E+00 -0.00000000000E+00 -0.38955365056E+00  0.40243390347E+00  0.10100000000E+00 0.  1.
          2    1    1    2    0  502 -0.43554814384E+01 -0.23588564595E+02  0.97188228978E+03  0.97217826338E+03  0.25500000000E-02 0.  1.
         -2    1    1    2  502    0  0.43554814384E+01  0.23588564595E+02  0.57976268492E+03  0.58025870216E+03  0.25500000000E-02 0.  1.
<mgrwt>
<rscale>  0 0.49582300E+02</rscale>
<asrwt>0</asrwt>
<pdfrwt beam="1">  1        3 0.23878103E+00 0.49582300E+02</pdfrwt>
<pdfrwt beam="2">  1       -3 0.60920970E-04 0.49582300E+02</pdfrwt>
<totfact> 0.27952849E+04</totfact>
</mgrwt>
</event>
<event>
 4    1  0.7692565E-003  0.4626358E+02  0.7818608E-02  0.1466604E+00
          3   -1    0    0    0  501  0.00000000000E+00  0.00000000000E+00  0.14079981716E+01  0.14116160424E+01  0.10100000000E+00 0.  1.
         -3   -1    0    0  501    0 -0.00000000000E+00 -0.00000000000E+00 -0.37953738973E+03  0.37953740316E+03  0.10100000000E+00 0.  1.
          2    1    1    2    0  502 -0.22749040398E+02 -0.39436412346E+01 -0.17739498524E+03  0.17889117345E+03  0.25500000000E-02 0.  1.
         -2    1    1    2  502    0  0.22749040398E+02  0.39436412346E+01 -0.20073440632E+03  0.20205784576E+03  0.25500000000E-02 0.  1.
<mgrwt>
<rscale>  0 0.46263576E+02</rscale>
<asrwt>0</asrwt>
<pdfrwt beam="1">  1        3 0.21689474E-03 0.46263576E+02</pdfrwt>
<pdfrwt beam="2">  1       -3 0.58390565E-01 0.46263576E+02</pdfrwt>
<totfact> 0.12085607E+05</totfact>
</mgrwt>
</event>
<event>
 4    1  0.7692565E-003  0.5385243E+02  0.7818608E-02  0.1425605E+00
         -3   -1    0    0  501    0 -0.00000000000E+00  0.00000000000E+00  0.12921203284E+02  0.12921598017E+02  0.10100000000E+00 0.  1.
          3   -1    0    0    0  501  0.00000000000E+00 -0.00000000000E+00 -0.56109661835E+02  0.56109752737E+02  0.10100000000E+00 0.  1.
          2    1    1    2    0  502 -0.24305711735E+02  0.11090898791E+02 -0.17295606454E+02  0.31826304656E+02  0.25500000000E-02 0.  1.
         -2    1    1    2  502    0  0.24305711735E+02 -0.11090898791E+02 -0.25892852097E+02  0.37205046098E+02  0.25500000000E-02 0.  1.
<mgrwt>
<rscale>  0 0.53852432E+02</rscale>
<asrwt>0</asrwt>
<pdfrwt beam="2">  1        3 0.86322929E-02 0.53852432E+02</pdfrwt>
<pdfrwt beam="1">  1       -3 0.19879148E-02 0.53852432E+02</pdfrwt>
<totfact> 0.14907519E+05</totfact>
</mgrwt>
</event>
<event>
 4    1  0.7692565E-003  0.6279330E+02  0.7818608E-02  0.1386470E+00
         -3   -1    0    0  501    0 -0.00000000000E+00  0.00000000000E+00  0.11557284360E+03  0.11557288773E+03  0.10100000000E+00 0. -1.
          3   -1    0    0    0  501  0.00000000000E+00 -0.00000000000E+00 -0.85289039740E+01  0.85295019783E+01  0.10100000000E+00 0. -1.
          2    1    1    2    0  502 -0.19414299811E+02 -0.24260951659E+02  0.62413566265E+02  0.69720600062E+02  0.25500000000E-02 0. -1.
         -2    1    1    2  502    0  0.19414299811E+02  0.24260951659E+02  0.44630373359E+02  0.54381789647E+02  0.25500000000E-02 0. -1.
<mgrwt>
<rscale>  0 0.62793297E+02</rscale>
<asrwt>0</asrwt>
<pdfrwt beam="2">  1        3 0.13121885E-02 0.62793297E+02</pdfrwt>
<pdfrwt beam="1">  1       -3 0.17780486E-01 0.62793297E+02</pdfrwt>
<totfact> 0.88586892E+04</totfact>
</mgrwt>
</event>
<event>
 4    1  0.7692565E-003  0.5966668E+02  0.7818608E-02  0.1399236E+00
          3   -1    0    0    0  501  0.00000000000E+00  0.00000000000E+00  0.51876042040E+01  0.51885873200E+01  0.10100000000E+00 0. -1.
         -3   -1    0    0  501    0 -0.00000000000E+00 -0.00000000000E+00 -0.17155097620E+03  0.17155100593E+03  0.10100000000E+00 0. -1.
          2    1    1    2    0  502 -0.26940674577E+02  0.33119601385E+01 -0.11985203555E+03  0.12288726321E+03  0.25500000000E-02 0. -1.
         -2    1    1    2  502    0  0.26940674577E+02 -0.33119601385E+01 -0.46511336442E+02  0.53852330041E+02  0.25500000000E-02 0. -1.
<mgrwt>
<rscale>  0 0.59666676E+02</rscale>
<asrwt>0</asrwt>
<pdfrwt beam="1">  1        3 0.79817100E-03 0.59666676E+02</pdfrwt>
<pdfrwt beam="2">  1       -3 0.26392531E-01 0.59666676E+02</pdfrwt>
<totfact> 0.90731301E+04</totfact>
</mgrwt>
</event>
<event>
 4    1  0.7692565E-003  0.4410320E+02  0.7818608E-02  0.1480019E+00
         -3   -1    0    0  501    0 -0.00000000000E+00  0.00000000000E+00  0.47184484214E+01  0.47195292674E+01  0.10100000000E+00 0. -1.
          3   -1    0    0    0  501  0.00000000000E+00 -0.00000000000E+00 -0.10304493068E+03  0.10304498018E+03  0.10100000000E+00 0. -1.
          2    1    1    2    0  502  0.17600889073E+02 -0.13018910058E+02 -0.42703171425E+02  0.47987958609E+02  0.25500000000E-02 0. -1.
         -2    1    1    2  502    0 -0.17600889073E+02  0.13018910058E+02 -0.55623310838E+02  0.59776550840E+02  0.25500000000E-02 0. -1.
<mgrwt>
<rscale>  0 0.44103202E+02</rscale>
<asrwt>0</asrwt>
<pdfrwt beam="2">  1        3 0.15853152E-01 0.44103202E+02</pdfrwt>
<pdfrwt beam="1">  1       -3 0.72600217E-03 0.44103202E+02</pdfrwt>
<totfact> 0.22403825E+05</totfact>
</mgrwt>
</event>
<event>
 4    1  0.7692565E-003  0.4309193E+02  0.7818608E-02  0.1486617E+00
         -3   -1    0    0  501    0 -0.00000000000E+00  0.00000000000E+00  0.32139687034E+02  0.32139845732E+02  0.10100000000E+00 0.  1.
          3   -1    0    0    0  501  0.00000000000E+00 -0.00000000000E+00 -0.14443723358E+02  0.14444076483E+02  0.10100000000E+00 0.  1.
          2    1    1    2    0  502  0.19420447323E+02 -0.92516228687E+01  0.10164168207E+02  0.23791944472E+02  0.25500000000E-02 0. -1.
         -2    1    1    2  502    0 -0.19420447323E+02  0.92516228687E+01  0.75317954691E+01  0.22791977743E+02  0.25500000000E-02 0. -1.
<mgrwt>
<rscale>  0 0.43091933E+02</rscale>
<asrwt>0</asrwt>
<pdfrwt beam="2">  1        3 0.22221507E-02 0.43091933E+02</pdfrwt>
<pdfrwt beam="1">  1       -3 0.49446066E-02 0.43091933E+02</pdfrwt>
<totfact> 0.27673109E+05</totfact>
</mgrwt>
</event>
<event>
 4    1  0.7692565E-003  0.8348528E+02  0.7818608E-02  0.1319442E+00
         -3   -1    0    0  501    0 -0.00000000000E+00  0.00000000000E+00  0.16337499016E+02  0.16337811209E+02  0.10100000000E+00 0.  1.
          3   -1    0    0    0  501  0.00000000000E+00 -0.00000000000E+00 -0.10665192897E+03  0.10665197679E+03  0.10100000000E+00 0.  1.
          2    1    1    2    0  502 -0.23566788253E+02 -0.40904003108E+01  0.52406373903E+01  0.24486509960E+02  0.25500000000E-02 0. -1.
         -2    1    1    2  502    0  0.23566788253E+02  0.40904003108E+01 -0.95555067342E+02  0.98503278039E+02  0.25500000000E-02 0. -1.
<mgrwt>
<rscale>  0 0.83485278E+02</rscale>
<asrwt>0</asrwt>
<pdfrwt beam="2">  1        3 0.16408016E-01 0.83485278E+02</pdfrwt>
<pdfrwt beam="1">  1       -3 0.25134891E-02 0.83485278E+02</pdfrwt>
<totfact> 0.41909420E+04</totfact>
</mgrwt>
</event>
<event>
 4    1  0.7692565E-003  0.4383810E+02  0.7818608E-02  0.1481728E+00
         -3   -1    0    0  501    0 -0.00000000000E+00  0.00000000000E+00  0.95276154221E+00  0.95809997198E+00  0.10100000000E+00 0. -1.
          3   -1    0    0    0  501  0.00000000000E+00 -0.00000000000E+00 -0.50285125507E+03  0.50285126521E+03  0.10100000000E+00 0. -1.
          2    1    1    2    0  502  0.16169756307E+02 -0.13057925600E+02 -0.33096397667E+03  0.33161592890E+03  0.25500000000E-02 0. -1.
         -2    1    1    2  502    0 -0.16169756307E+02  0.13057925600E+02 -0.17093451685E+03  0.17219343628E+03  0.25500000000E-02 0. -1.
<mgrwt>
<rscale>  0 0.43838096E+02</rscale>
<asrwt>0</asrwt>
<pdfrwt beam="2">  1        3 0.77361932E-01 0.43838096E+02</pdfrwt>
<pdfrwt beam="1">  1       -3 0.14699053E-03 0.43838096E+02</pdfrwt>
<totfact> 0.11547506E+05</totfact>
</mgrwt>
</event>
<event>
 4    1  0.7692565E-003  0.5132982E+02  0.7818608E-02  0.1438298E+00
         -3   -1    0    0  501    0 -0.00000000000E+00  0.00000000000E+00  0.21622851527E+03  0.21622853885E+03  0.10100000000E+00 0.  1.
          3   -1    0    0    0  501  0.00000000000E+00 -0.00000000000E+00 -0.30453962661E+01  0.30470706289E+01  0.10100000000E+00 0.  1.
          2    1    1    2    0  502 -0.88677089253E+01 -0.24071236098E+02  0.10997417900E+03  0.11292643943E+03  0.25500000000E-02 0. -1.
         -2    1    1    2  502    0  0.88677089253E+01  0.24071236098E+02  0.10320894000E+03  0.10634917005E+03  0.25500000000E-02 0. -1.
<mgrwt>
<rscale>  0 0.51329823E+02</rscale>
<asrwt>0</asrwt>
<pdfrwt beam="2">  1        3 0.46865308E-03 0.51329823E+02</pdfrwt>
<pdfrwt beam="1">  1       -3 0.33266059E-01 0.51329823E+02</pdfrwt>
<totfact> 0.12248598E+05</totfact>
</mgrwt>
</event>
<event>
 4    1  0.7692565E-003  0.4981998E+02  0.7818608E-02  0.1446315E+00
          3   -1    0    0    0  501  0.00000000000E+00  0.00000000000E+00  0.48310861292E+01  0.48321417806E+01  0.10100000000E+00 0. -1.
         -3   -1    0    0  501    0 -0.00000000000E+00 -0.00000000000E+00 -0.12842547697E+03  0.12842551668E+03  0.10100000000E+00 0. -1.
          2    1    1    2    0  502  0.16970409501E+02 -0.11286045399E+02 -0.23487243560E+02  0.31096948981E+02  0.25500000000E-02 0. -1.
         -2    1    1    2  502    0 -0.16970409501E+02  0.11286045399E+02 -0.10010714728E+03  0.10216070948E+03  0.25500000000E-02 0. -1.
<mgrwt>
<rscale>  0 0.49819977E+02</rscale>
<asrwt>0</asrwt>
<pdfrwt beam="1">  1        3 0.74332837E-03 0.49819977E+02</pdfrwt>
<pdfrwt beam="2">  1       -3 0.19757847E-01 0.49819977E+02</pdfrwt>
<totfact> 0.15648148E+05</totfact>
</mgrwt>
</event>
<event>
 4    1  0.7692565E-003  0.4226988E+02  0.7818608E-02  0.1492142E+00
          3   -1    0    0    0  501  0.00000000000E+00  0.00000000000E+00  0.15796909019E+01  0.15829164051E+01  0.10100000000E+00 0. -1.
         -3   -1    0    0  501    0 -0.00000000000E+00 -0.00000000000E+00 -0.28247619895E+03  0.28247621701E+03  0.10100000000E+00 0. -1.
          2    1    1    2    0  502  0.18888298569E+02  0.92174031652E+01 -0.12548572116E+03  0.12723362200E+03  0.25500000000E-02 0.  1.
         -2    1    1    2  502    0 -0.18888298569E+02 -0.92174031652E+01 -0.15541078689E+03  0.15682551142E+03  0.25500000000E-02 0.  1.
<mgrwt>
<rscale>  0 0.42269883E+02</rscale>
<asrwt>0</asrwt>
<pdfrwt beam="1">  1        3 0.24327910E-03 0.42269883E+02</pdfrwt>
<pdfrwt beam="2">  1       -3 0.43458086E-01 0.42269883E+02</pdfrwt>
<totfact> 0.17620701E+05</totfact>
</mgrwt>
</event>
<event>
 4    1  0.7692565E-003  0.4850587E+02  0.7818608E-02  0.1453571E+00
         -3   -1    0    0  501    0 -0.00000000000E+00  0.00000000000E+00  0.32012889575E+02  0.32013048901E+02  0.10100000000E+00 0. -1.
          3   -1    0    0    0  501  0.00000000000E+00 -0.00000000000E+00 -0.18373654651E+02  0.18373932247E+02  0.10100000000E+00 0. -1.
          2    1    1    2    0  502  0.18403169678E+02 -0.15046837327E+02  0.18247312814E+01  0.23841426519E+02  0.25500000000E-02 0.  1.
         -2    1    1    2  502    0 -0.18403169678E+02  0.15046837327E+02  0.11814503642E+02  0.26545554629E+02  0.25500000000E-02 0.  1.
<mgrwt>
<rscale>  0 0.48505867E+02</rscale>
<asrwt>0</asrwt>
<pdfrwt beam="2">  1        3 0.28267498E-02 0.48505867E+02</pdfrwt>
<pdfrwt beam="1">  1       -3 0.49250934E-02 0.48505867E+02</pdfrwt>
<totfact> 0.20383829E+05</totfact>
</mgrwt>
</event>
<event>
 4    1  0.7692565E-003  0.4824318E+02  0.7818608E-02  0.1455054E+00
         -3   -1    0    0  501    0 -0.00000000000E+00  0.00000000000E+00  0.17751275418E+02  0.17751562747E+02  0.10100000000E+00 0.  1.
          3   -1    0    0    0  501  0.00000000000E+00 -0.00000000000E+00 -0.32777364784E+02  0.32777520394E+02  0.10100000000E+00 0.  1.
          2    1    1    2    0  502  0.13612853682E+02 -0.16742317185E+02 -0.18805184089E+02  0.28622542256E+02  0.25500000000E-02 0. -1.
         -2    1    1    2  502    0 -0.13612853682E+02  0.16742317185E+02  0.37790947235E+01  0.21906540884E+02  0.25500000000E-02 0. -1.
<mgrwt>
<rscale>  0 0.48243185E+02</rscale>
<asrwt>0</asrwt>
<pdfrwt beam="2">  1        3 0.50427056E-02 0.48243185E+02</pdfrwt>
<pdfrwt beam="1">  1       -3 0.27309995E-02 0.48243185E+02</pdfrwt>
<totfact> 0.20655086E+05</totfact>
</mgrwt>
</event>
<event>
 4    1  0.7692565E-003  0.6523048E+02  0.7818608E-02  0.1377107E+00
         -3   -1    0    0  501    0 -0.00000000000E+00  0.00000000000E+00  0.65875872145E+02  0.65875949571E+02  0.10100000000E+00 0.  1.
          3   -1    0    0    0  501  0.00000000000E+00 -0.00000000000E+00 -0.16147605489E+02  0.16147921353E+02  0.10100000000E+00 0.  1.
          2    1    1    2    0  502 -0.19498364203E+02  0.25950534807E+02  0.28867726039E+02  0.43439176748E+02  0.25500000000E-02 0. -1.
         -2    1    1    2  502    0  0.19498364203E+02 -0.25950534807E+02  0.20860540616E+02  0.38584694176E+02  0.25500000000E-02 0. -1.
<mgrwt>
<rscale>  0 0.65230475E+02</rscale>
<asrwt>0</asrwt>
<pdfrwt beam="2">  1        3 0.24842773E-02 0.65230475E+02</pdfrwt>
<pdfrwt beam="1">  1       -3 0.10134780E-01 0.65230475E+02</pdfrwt>
<totfact> 0.88136780E+04</totfact>
</mgrwt>
</event>
<event>
 4    1  0.7692565E-003  0.1353255E+03  0.7818608E-02  0.1219761E+00
         -3   -1    0    0  501    0 -0.00000000000E+00  0.00000000000E+00  0.10154502601E+02  0.10155004878E+02  0.10100000000E+00 0. -1.
          3   -1    0    0    0  501  0.00000000000E+00 -0.00000000000E+00 -0.45084736149E+03  0.45084737280E+03  0.10100000000E+00 0. -1.
          2    1    1    2    0  502 -0.13139259919E+02 -0.66076263836E+02 -0.24176652512E+03  0.25097761946E+03  0.25500000000E-02 0. -1.
         -2    1    1    2  502    0  0.13139259919E+02  0.66076263836E+02 -0.19892633376E+03  0.21002475822E+03  0.25500000000E-02 0. -1.
<mgrwt>
<rscale>  0 0.13532552E+03</rscale>
<asrwt>0</asrwt>
<pdfrwt beam="2">  1        3 0.69361156E-01 0.13532552E+03</pdfrwt>
<pdfrwt beam="1">  1       -3 0.15622710E-02 0.13532552E+03</pdfrwt>
<totfact> 0.64225320E+03</totfact>
</mgrwt>
</event>
<event>
 4    1  0.7692565E-003  0.5458492E+02  0.7818608E-02  0.1422072E+00
          3   -1    0    0    0  501  0.00000000000E+00  0.00000000000E+00  0.11127306609E+04  0.11127306655E+04  0.10100000000E+00 0. -1.
         -3   -1    0    0  501    0 -0.00000000000E+00 -0.00000000000E+00 -0.66560049245E+00  0.67321988648E+00  0.10100000000E+00 0. -1.
          2    1    1    2    0  502 -0.23787096886E+02 -0.96879418997E+01  0.74430638991E+03  0.74474941038E+03  0.25500000000E-02 0. -1.
         -2    1    1    2  502    0  0.23787096886E+02  0.96879418997E+01  0.36775867054E+03  0.36865447503E+03  0.25500000000E-02 0. -1.
<mgrwt>
<rscale>  0 0.54584919E+02</rscale>
<asrwt>0</asrwt>
<pdfrwt beam="1">  1        3 0.17118954E+00 0.54584919E+02</pdfrwt>
<pdfrwt beam="2">  1       -3 0.10298676E-03 0.54584919E+02</pdfrwt>
<totfact> 0.33585794E+04</totfact>
</mgrwt>
</event>
<event>
 4    1  0.7692565E-003  0.6696241E+02  0.7818608E-02  0.1370738E+00
         -3   -1    0    0  501    0 -0.00000000000E+00  0.00000000000E+00  0.15558969252E+03  0.15558972530E+03  0.10100000000E+00 0.  1.
          3   -1    0    0    0  501  0.00000000000E+00 -0.00000000000E+00 -0.72044028379E+01  0.72051107729E+01  0.10100000000E+00 0.  1.
          2    1    1    2    0  502  0.29942773053E+01 -0.23308055351E+02  0.13217208990E+03  0.13424489747E+03  0.25500000000E-02 0. -1.
         -2    1    1    2  502    0 -0.29942773053E+01  0.23308055351E+02  0.16213199783E+02  0.28549938608E+02  0.25500000000E-02 0. -1.
<mgrwt>
<rscale>  0 0.66962411E+02</rscale>
<asrwt>0</asrwt>
<pdfrwt beam="2">  1        3 0.11084268E-02 0.66962411E+02</pdfrwt>
<pdfrwt beam="1">  1       -3 0.23936930E-01 0.66962411E+02</pdfrwt>
<totfact> 0.69249640E+04</totfact>
</mgrwt>
</event>
<event>
 4    1  0.7692565E-003  0.4882751E+02  0.7818608E-02  0.1451770E+00
          3   -1    0    0    0  501  0.00000000000E+00  0.00000000000E+00  0.10425522239E+02  0.10426011459E+02  0.10100000000E+00 0.  1.
         -3   -1    0    0  501    0 -0.00000000000E+00 -0.00000000000E+00 -0.57168550553E+02  0.57168639772E+02  0.10100000000E+00 0.  1.
          2    1    1    2    0  502  0.46435536149E+01 -0.21731100504E+02 -0.37368454468E+02  0.43476484622E+02  0.25500000000E-02 0. -1.
         -2    1    1    2  502    0 -0.46435536149E+01  0.21731100504E+02 -0.93745738467E+01  0.24118166609E+02  0.25500000000E-02 0. -1.
<mgrwt>
<rscale>  0 0.48827515E+02</rscale>
<asrwt>0</asrwt>
<pdfrwt beam="1">  1        3 0.16039710E-02 0.48827515E+02</pdfrwt>
<pdfrwt beam="2">  1       -3 0.87952059E-02 0.48827515E+02</pdfrwt>
<totfact> 0.19166369E+05</totfact>
</mgrwt>
</event>
<event>
 4    1  0.7692565E-003  0.5564031E+02  0.7818608E-02  0.1417095E+00
         -3   -1    0    0  501    0 -0.00000000000E+00  0.00000000000E+00  0.20741004053E+01  0.20765580876E+01  0.10100000000E+00 0.  1.
          3   -1    0    0    0  501  0.00000000000E+00 -0.00000000000E+00 -0.37293160218E+03  0.37293161585E+03  0.10100000000E+00 0.  1.
          2    1    1    2    0  502 -0.21418934907E+02  0.17585911080E+02 -0.16902174272E+03  0.17127867515E+03  0.25500000000E-02 0.  1.
         -2    1    1    2  502    0  0.21418934907E+02 -0.17585911080E+02 -0.20183575905E+03  0.20372949879E+03  0.25500000000E-02 0.  1.
<mgrwt>
<rscale>  0 0.55640308E+02</rscale>
<asrwt>0</asrwt>
<pdfrwt beam="2">  1        3 0.57374229E-01 0.55640308E+02</pdfrwt>
<pdfrwt beam="1">  1       -3 0.31928277E-03 0.55640308E+02</pdfrwt>
<totfact> 0.77128297E+04</totfact>
</mgrwt>
</event>
<event>
 4    1  0.7692565E-003  0.6681319E+02  0.7818608E-02  0.1371278E+00
          3   -1    0    0    0  501  0.00000000000E+00  0.00000000000E+00  0.52671548604E+02  0.52671645440E+02  0.10100000000E+00 0.  1.
         -3   -1    0    0  501    0 -0.00000000000E+00 -0.00000000000E+00 -0.21187684479E+02  0.21187925208E+02  0.10100000000E+00 0.  1.
          2    1    1    2    0  502  0.27401201832E+02  0.67118942055E+00 -0.53699469560E+01  0.27930497559E+02  0.25500000000E-02 0. -1.
         -2    1    1    2  502    0 -0.27401201832E+02 -0.67118942055E+00  0.36853811080E+02  0.45929073088E+02  0.25500000000E-02 0. -1.
<mgrwt>
<rscale>  0 0.66813191E+02</rscale>
<asrwt>0</asrwt>
<pdfrwt beam="1">  1        3 0.81033410E-02 0.66813191E+02</pdfrwt>
<pdfrwt beam="2">  1       -3 0.32596698E-02 0.66813191E+02</pdfrwt>
<totfact> 0.84381594E+04</totfact>
</mgrwt>
</event>
<event>
 4    1  0.7692565E-003  0.4877907E+02  0.7818608E-02  0.1452040E+00
         -3   -1    0    0  501    0 -0.00000000000E+00  0.00000000000E+00  0.45494499517E+01  0.45505709381E+01  0.10100000000E+00 0. -1.
          3   -1    0    0    0  501  0.00000000000E+00 -0.00000000000E+00 -0.13073467933E+03  0.13073471835E+03  0.10100000000E+00 0. -1.
          2    1    1    2    0  502  0.21962084055E+02  0.94329726768E+01 -0.76547385535E+02  0.80192370885E+02  0.25500000000E-02 0. -1.
         -2    1    1    2  502    0 -0.21962084055E+02 -0.94329726768E+01 -0.49637843845E+02  0.55092918398E+02  0.25500000000E-02 0. -1.
<mgrwt>
<rscale>  0 0.48779067E+02</rscale>
<asrwt>0</asrwt>
<pdfrwt beam="2">  1        3 0.20113114E-01 0.48779067E+02</pdfrwt>
<pdfrwt beam="1">  1       -3 0.70000471E-03 0.48779067E+02</pdfrwt>
<totfact> 0.16421664E+05</totfact>
</mgrwt>
</event>
<event>
 4    1  0.7692565E-003  0.6236534E+02  0.7818608E-02  0.1388165E+00
         -3   -1    0    0  501    0 -0.00000000000E+00  0.00000000000E+00  0.88589301661E+02  0.88589359236E+02  0.10100000000E+00 0. -1.
          3   -1    0    0    0  501  0.00000000000E+00 -0.00000000000E+00 -0.10975738916E+02  0.10976203613E+02  0.10100000000E+00 0. -1.
          2    1    1    2    0  502  0.21497882980E+01  0.30808316814E+02  0.45689307480E+02  0.55147863051E+02  0.25500000000E-02 0. -1.
         -2    1    1    2  502    0 -0.21497882980E+01 -0.30808316814E+02  0.31924255265E+02  0.44417699798E+02  0.25500000000E-02 0. -1.
<mgrwt>
<rscale>  0 0.62365344E+02</rscale>
<asrwt>0</asrwt>
<pdfrwt beam="2">  1        3 0.16886154E-02 0.62365344E+02</pdfrwt>
<pdfrwt beam="1">  1       -3 0.13629164E-01 0.62365344E+02</pdfrwt>
<totfact> 0.95156491E+04</totfact>
</mgrwt>
</event>
<event>
 4    1  0.7692565E-003  0.5244488E+02  0.7818608E-02  0.1432584E+00
          3   -1    0    0    0  501  0.00000000000E+00  0.00000000000E+00  0.14786626295E+02  0.14786971231E+02  0.10100000000E+00 0. -1.
         -3   -1    0    0  501    0 -0.00000000000E+00 -0.00000000000E+00 -0.46501648400E+02  0.46501758084E+02  0.10100000000E+00 0. -1.
          2    1    1    2    0  502  0.98697178929E+01  0.24210593657E+02 -0.13505034131E+02  0.29427030600E+02  0.25500000000E-02 0.  1.
         -2    1    1    2  502    0 -0.98697178929E+01 -0.24210593657E+02 -0.18209987974E+02  0.31861698715E+02  0.25500000000E-02 0.  1.
<mgrwt>
<rscale>  0 0.52444883E+02</rscale>
<asrwt>0</asrwt>
<pdfrwt beam="1">  1        3 0.22749006E-02 0.52444883E+02</pdfrwt>
<pdfrwt beam="2">  1       -3 0.71541346E-02 0.52444883E+02</pdfrwt>
<totfact> 0.16263936E+05</totfact>
</mgrwt>
</event>
<event>
 4    1  0.7692565E-003  0.4213938E+02  0.7818608E-02  0.1493033E+00
          3   -1    0    0    0  501  0.00000000000E+00  0.00000000000E+00  0.86921447021E+01  0.86927314765E+01  0.10100000000E+00 0. -1.
         -3   -1    0    0  501    0 -0.00000000000E+00 -0.00000000000E+00 -0.51070409864E+02  0.51070509736E+02  0.10100000000E+00 0. -1.
          2    1    1    2    0  502 -0.19914306189E+02 -0.42765279806E+01 -0.28834895543E+02  0.35303250417E+02  0.25500000000E-02 0. -1.
         -2    1    1    2  502    0  0.19914306189E+02  0.42765279806E+01 -0.13543369620E+02  0.24459990796E+02  0.25500000000E-02 0. -1.
<mgrwt>
<rscale>  0 0.42139384E+02</rscale>
<asrwt>0</asrwt>
<pdfrwt beam="1">  1        3 0.13373059E-02 0.42139384E+02</pdfrwt>
<pdfrwt beam="2">  1       -3 0.78570388E-02 0.42139384E+02</pdfrwt>
<totfact> 0.28207582E+05</totfact>
</mgrwt>
</event>
<event>
 4    1  0.7692565E-003  0.6393254E+02  0.7818608E-02  0.1382032E+00
          3   -1    0    0    0  501  0.00000000000E+00  0.00000000000E+00  0.14571747463E+02  0.14572097486E+02  0.10100000000E+00 0.  1.
         -3   -1    0    0  501    0 -0.00000000000E+00 -0.00000000000E+00 -0.70123687003E+02  0.70123759739E+02  0.10100000000E+00 0.  1.
          2    1    1    2    0  502  0.14344726334E+01  0.30166542321E+02 -0.13896551520E+02  0.33244430180E+02  0.25500000000E-02 0. -1.
         -2    1    1    2  502    0 -0.14344726334E+01 -0.30166542321E+02 -0.41655388019E+02  0.51451427044E+02  0.25500000000E-02 0. -1.
<mgrwt>
<rscale>  0 0.63932544E+02</rscale>
<asrwt>0</asrwt>
<pdfrwt beam="1">  1        3 0.22418399E-02 0.63932544E+02</pdfrwt>
<pdfrwt beam="2">  1       -3 0.10788292E-01 0.63932544E+02</pdfrwt>
<totfact> 0.92305170E+04</totfact>
</mgrwt>
</event>
<event>
 4    1  0.7692565E-003  0.4519850E+02  0.7818608E-02  0.1473106E+00
         -3   -1    0    0  501    0 -0.00000000000E+00  0.00000000000E+00  0.14688175431E+02  0.14688522679E+02  0.10100000000E+00 0. -1.
          3   -1    0    0    0  501  0.00000000000E+00 -0.00000000000E+00 -0.34770416634E+02  0.34770563325E+02  0.10100000000E+00 0. -1.
          2    1    1    2    0  502 -0.15422698448E+02 -0.12869982600E+02 -0.21372437784E+02  0.29330482145E+02  0.25500000000E-02 0.  1.
         -2    1    1    2  502    0  0.15422698448E+02  0.12869982600E+02  0.12901965803E+01  0.20128603858E+02  0.25500000000E-02 0.  1.
<mgrwt>
<rscale>  0 0.45198504E+02</rscale>
<asrwt>0</asrwt>
<pdfrwt beam="2">  1        3 0.53493328E-02 0.45198504E+02</pdfrwt>
<pdfrwt beam="1">  1       -3 0.22597573E-02 0.45198504E+02</pdfrwt>
<totfact> 0.24383631E+05</totfact>
</mgrwt>
</event>
<event>
 4    1  0.7692565E-003  0.4871788E+02  0.7818608E-02  0.1452382E+00
          3   -1    0    0    0  501  0.00000000000E+00  0.00000000000E+00  0.16975231328E+02  0.16975531792E+02  0.10100000000E+00 0.  1.
         -3   -1    0    0  501    0 -0.00000000000E+00 -0.00000000000E+00 -0.34953648611E+02  0.34953794533E+02  0.10100000000E+00 0.  1.
          2    1    1    2    0  502 -0.83399900373E+01 -0.22316923835E+02 -0.14398928491E+02  0.27837558648E+02  0.25500000000E-02 0. -1.
         -2    1    1    2  502    0  0.83399900373E+01  0.22316923835E+02 -0.35794887923E+01  0.24091767677E+02  0.25500000000E-02 0. -1.
<mgrwt>
<rscale>  0 0.48717876E+02</rscale>
<asrwt>0</asrwt>
<pdfrwt beam="1">  1        3 0.26116084E-02 0.48717876E+02</pdfrwt>
<pdfrwt beam="2">  1       -3 0.53775187E-02 0.48717876E+02</pdfrwt>
<totfact> 0.20078153E+05</totfact>
</mgrwt>
</event>
<event>
 4    1  0.7692565E-003  0.4240412E+02  0.7818608E-02  0.1491230E+00
         -3   -1    0    0  501    0 -0.00000000000E+00  0.00000000000E+00  0.12780394951E+03  0.12780398942E+03  0.10100000000E+00 0. -1.
          3   -1    0    0    0  501  0.00000000000E+00 -0.00000000000E+00 -0.35165540634E+01  0.35180041900E+01  0.10100000000E+00 0. -1.
          2    1    1    2    0  502 -0.16456842594E+02  0.13340141790E+02  0.59479131388E+02  0.63139164773E+02  0.25500000000E-02 0.  1.
         -2    1    1    2  502    0  0.16456842594E+02 -0.13340141790E+02  0.64808264058E+02  0.68182828835E+02  0.25500000000E-02 0.  1.
<mgrwt>
<rscale>  0 0.42404119E+02</rscale>
<asrwt>0</asrwt>
<pdfrwt beam="2">  1        3 0.54112300E-03 0.42404119E+02</pdfrwt>
<pdfrwt beam="1">  1       -3 0.19662258E-01 0.42404119E+02</pdfrwt>
<totfact> 0.23409651E+05</totfact>
</mgrwt>
</event>
<event>
 4    1  0.7692565E-003  0.6284723E+02  0.7818608E-02  0.1386257E+00
          3   -1    0    0    0  501  0.00000000000E+00  0.00000000000E+00  0.27495564319E+02  0.27495749821E+02  0.10100000000E+00 0.  1.
         -3   -1    0    0  501    0 -0.00000000000E+00 -0.00000000000E+00 -0.35912454101E+02  0.35912596127E+02  0.10100000000E+00 0.  1.
          2    1    1    2    0  502 -0.17455903108E+02 -0.23039360550E+02  0.82273021281E+01  0.30053438983E+02  0.25500000000E-02 0. -1.
         -2    1    1    2  502    0  0.17455903108E+02  0.23039360550E+02 -0.16644191910E+02  0.33354906966E+02  0.25500000000E-02 0. -1.
<mgrwt>
<rscale>  0 0.62847230E+02</rscale>
<asrwt>0</asrwt>
<pdfrwt beam="1">  1        3 0.42301120E-02 0.62847230E+02</pdfrwt>
<pdfrwt beam="2">  1       -3 0.55250182E-02 0.62847230E+02</pdfrwt>
<totfact> 0.10158320E+05</totfact>
</mgrwt>
</event>
<event>
 4    1  0.7692565E-003  0.6247509E+02  0.7818608E-02  0.1387729E+00
          3   -1    0    0    0  501  0.00000000000E+00  0.00000000000E+00  0.27788137616E+02  0.27788321165E+02  0.10100000000E+00 0. -1.
         -3   -1    0    0  501    0 -0.00000000000E+00 -0.00000000000E+00 -0.35114758645E+02  0.35114903897E+02  0.10100000000E+00 0. -1.
          2    1    1    2    0  502  0.47824472800E+01  0.30089332141E+02 -0.10605805874E+02  0.32260236134E+02  0.25500000000E-02 0. -1.
         -2    1    1    2  502    0 -0.47824472800E+01 -0.30089332141E+02  0.32791848453E+01  0.30642988928E+02  0.25500000000E-02 0. -1.
<mgrwt>
<rscale>  0 0.62475086E+02</rscale>
<asrwt>0</asrwt>
<pdfrwt beam="1">  1        3 0.42751234E-02 0.62475086E+02</pdfrwt>
<pdfrwt beam="2">  1       -3 0.54022959E-02 0.62475086E+02</pdfrwt>
<totfact> 0.10329738E+05</totfact>
</mgrwt>
</event>
<event>
 4    1  0.7692565E-003  0.7315631E+02  0.7818608E-02  0.1349677E+00
         -3   -1    0    0  501    0 -0.00000000000E+00  0.00000000000E+00  0.45542121092E+03  0.45542122212E+03  0.10100000000E+00 0. -1.
          3   -1    0    0    0  501  0.00000000000E+00 -0.00000000000E+00 -0.29369757659E+01  0.29387119031E+01  0.10100000000E+00 0. -1.
          2    1    1    2    0  502  0.13117855805E+02  0.32029112813E+02  0.30038147042E+03  0.30236893027E+03  0.25500000000E-02 0. -1.
         -2    1    1    2  502    0 -0.13117855805E+02 -0.32029112813E+02  0.15210276473E+03  0.15599100376E+03  0.25500000000E-02 0. -1.
<mgrwt>
<rscale>  0 0.73156312E+02</rscale>
<asrwt>0</asrwt>
<pdfrwt beam="2">  1        3 0.45197670E-03 0.73156312E+02</pdfrwt>
<pdfrwt beam="1">  1       -3 0.70064957E-01 0.73156312E+02</pdfrwt>
<totfact> 0.33850558E+04</totfact>
</mgrwt>
</event>
<event>
 4    1  0.7692565E-003  0.1781649E+03  0.7818608E-02  0.1169591E+00
         -3   -1    0    0  501    0 -0.00000000000E+00  0.00000000000E+00  0.38078448427E+02  0.38078582374E+02  0.10100000000E+00 0.  1.
          3   -1    0    0    0  501  0.00000000000E+00 -0.00000000000E+00 -0.20840299590E+03  0.20840302038E+03  0.10100000000E+00 0.  1.
          2    1    1    2    0  502 -0.79496300141E+02 -0.39561841718E+02 -0.95030543662E+02  0.13006000650E+03  0.25500000000E-02 0.  1.
         -2    1    1    2  502    0  0.79496300141E+02  0.39561841718E+02 -0.75294003815E+02  0.11642159625E+03  0.25500000000E-02 0.  1.
<mgrwt>
<rscale>  0 0.17816489E+03</rscale>
<asrwt>0</asrwt>
<pdfrwt beam="2">  1        3 0.32062011E-01 0.17816489E+03</pdfrwt>
<pdfrwt beam="1">  1       -3 0.58582352E-02 0.17816489E+03</pdfrwt>
<totfact> 0.40167267E+03</totfact>
</mgrwt>
</event>
<event>
 4    1  0.7692565E-003  0.4710067E+02  0.7818608E-02  0.1461638E+00
         -3   -1    0    0  501    0 -0.00000000000E+00  0.00000000000E+00  0.52242163122E+03  0.52242164098E+03  0.10100000000E+00 0. -1.
          3   -1    0    0    0  501  0.00000000000E+00 -0.00000000000E+00 -0.10592174531E+01  0.10640219043E+01  0.10100000000E+00 0. -1.
          2    1    1    2    0  502  0.18971294221E+02 -0.12157811458E+02  0.33679173126E+03  0.33754465280E+03  0.25500000000E-02 0. -1.
         -2    1    1    2  502    0 -0.18971294221E+02  0.12157811458E+02  0.18457068250E+03  0.18594101008E+03  0.25500000000E-02 0. -1.
<mgrwt>
<rscale>  0 0.47100666E+02</rscale>
<asrwt>0</asrwt>
<pdfrwt beam="2">  1        3 0.16332724E-03 0.47100666E+02</pdfrwt>
<pdfrwt beam="1">  1       -3 0.80372740E-01 0.47100666E+02</pdfrwt>
<totfact> 0.94197397E+04</totfact>
</mgrwt>
</event>
<event>
 4    1  0.7692565E-003  0.5428098E+02  0.7818608E-02  0.1423530E+00
          3   -1    0    0    0  501  0.00000000000E+00  0.00000000000E+00  0.14343679921E+03  0.14343683477E+03  0.10100000000E+00 0.  1.
         -3   -1    0    0  501    0 -0.00000000000E+00 -0.00000000000E+00 -0.51348737423E+01  0.51358669521E+01  0.10100000000E+00 0.  1.
          2    1    1    2    0  502 -0.24326008708E+02  0.11731033039E+02  0.76512925580E+02  0.81139383921E+02  0.25500000000E-02 0. -1.
         -2    1    1    2  502    0  0.24326008708E+02 -0.11731033039E+02  0.61788999884E+02  0.67433317796E+02  0.25500000000E-02 0. -1.
<mgrwt>
<rscale>  0 0.54280983E+02</rscale>
<asrwt>0</asrwt>
<pdfrwt beam="1">  1        3 0.22067274E-01 0.54280983E+02</pdfrwt>
<pdfrwt beam="2">  1       -3 0.79005989E-03 0.54280983E+02</pdfrwt>
<totfact> 0.12210719E+05</totfact>
</mgrwt>
</event>
<event>
 4    1  0.7692565E-003  0.1059471E+03  0.7818608E-02  0.1268265E+00
         -3   -1    0    0  501    0 -0.00000000000E+00  0.00000000000E+00  0.34749406760E+03  0.34749408228E+03  0.10100000000E+00 0.  1.
          3   -1    0    0    0  501  0.00000000000E+00 -0.00000000000E+00 -0.80751990532E+01  0.80758306538E+01  0.10100000000E+00 0.  1.
          2    1    1    2    0  502 -0.38276392342E+02  0.21357360036E+01  0.47013765209E+02  0.60662490096E+02  0.25500000000E-02 0. -1.
         -2    1    1    2  502    0  0.38276392342E+02 -0.21357360036E+01  0.29240510334E+03  0.29490742284E+03  0.25500000000E-02 0. -1.
<mgrwt>
<rscale>  0 0.10594713E+03</rscale>
<asrwt>0</asrwt>
<pdfrwt beam="2">  1        3 0.12423881E-02 0.10594713E+03</pdfrwt>
<pdfrwt beam="1">  1       -3 0.53460671E-01 0.10594713E+03</pdfrwt>
<totfact> 0.14672587E+04</totfact>
</mgrwt>
</event>
<event>
 4    1  0.7692565E-003  0.4550235E+02  0.7818608E-02  0.1471230E+00
          3   -1    0    0    0  501  0.00000000000E+00  0.00000000000E+00  0.29543488645E+02  0.29543661288E+02  0.10100000000E+00 0. -1.
         -3   -1    0    0  501    0 -0.00000000000E+00 -0.00000000000E+00 -0.17520109311E+02  0.17520400431E+02  0.10100000000E+00 0. -1.
          2    1    1    2    0  502 -0.16626825935E+02  0.13743067973E+02 -0.14678777590E+01  0.21621237929E+02  0.25500000000E-02 0. -1.
         -2    1    1    2  502    0  0.16626825935E+02 -0.13743067973E+02  0.13491257093E+02  0.25442823790E+02  0.25500000000E-02 0. -1.
<mgrwt>
<rscale>  0 0.45502354E+02</rscale>
<asrwt>0</asrwt>
<pdfrwt beam="1">  1        3 0.45451877E-02 0.45502354E+02</pdfrwt>
<pdfrwt beam="2">  1       -3 0.26954372E-02 0.45502354E+02</pdfrwt>
<totfact> 0.24138634E+05</totfact>
</mgrwt>
</event>
<event>
 4    1  0.7692565E-003  0.5838229E+02  0.7818608E-02  0.1404749E+00
         -3   -1    0    0  501    0 -0.00000000000E+00  0.00000000000E+00  0.13401373458E+03  0.13401377264E+03  0.10100000000E+00 0. -1.
          3   -1    0    0    0  501  0.00000000000E+00 -0.00000000000E+00 -0.63580357301E+01  0.63588378927E+01  0.10100000000E+00 0. -1.
          2    1    1    2    0  502 -0.22109516380E+02  0.18615297096E+02  0.73671996516E+02  0.79138632018E+02  0.25500000000E-02 0.  1.
         -2    1    1    2  502    0  0.22109516380E+02 -0.18615297096E+02  0.53983702335E+02  0.61233978516E+02  0.25500000000E-02 0.  1.
<mgrwt>
<rscale>  0 0.58382295E+02</rscale>
<asrwt>0</asrwt>
<pdfrwt beam="2">  1        3 0.97822408E-03 0.58382295E+02</pdfrwt>
<pdfrwt beam="1">  1       -3 0.20617560E-01 0.58382295E+02</pdfrwt>
<totfact> 0.10320588E+05</totfact>
</mgrwt>
</event>
<event>
 4    1  0.7692565E-003  0.1775889E+03  0.7818608E-02  0.1170157E+00
          3   -1    0    0    0  501  0.00000000000E+00  0.00000000000E+00  0.18945471834E+03  0.18945474526E+03  0.10100000000E+00 0.  1.
         -3   -1    0    0  501    0 -0.00000000000E+00 -0.00000000000E+00 -0.41616493481E+02  0.41616616041E+02  0.10100000000E+00 0.  1.
          2    1    1    2    0  502  0.27179519249E+02 -0.84472309740E+02  0.69771510764E+02  0.11288206722E+03  0.25500000000E-02 0.  1.
         -2    1    1    2  502    0 -0.27179519249E+02  0.84472309740E+02  0.78066714094E+02  0.11818929408E+03  0.25500000000E-02 0.  1.
<mgrwt>
<rscale>  0 0.17758894E+03</rscale>
<asrwt>0</asrwt>
<pdfrwt beam="1">  1        3 0.29146891E-01 0.17758894E+03</pdfrwt>
<pdfrwt beam="2">  1       -3 0.64025491E-02 0.17758894E+03</pdfrwt>
<totfact> 0.41565144E+03</totfact>
</mgrwt>
</event>
<event>
 4    1  0.7692565E-003  0.6365589E+02  0.7818608E-02  0.1383100E+00
          3   -1    0    0    0  501  0.00000000000E+00  0.00000000000E+00  0.17750703680E+01  0.17779414533E+01  0.10100000000E+00 0. -1.
         -3   -1    0    0  501    0 -0.00000000000E+00 -0.00000000000E+00 -0.57022779017E+03  0.57022779911E+03  0.10100000000E+00 0. -1.
          2    1    1    2    0  502 -0.10647991468E+02 -0.28094284427E+02 -0.18983175694E+03  0.19219460058E+03  0.25500000000E-02 0.  1.
         -2    1    1    2  502    0  0.10647991468E+02  0.28094284427E+02 -0.37862096286E+03  0.37981113999E+03  0.25500000000E-02 0.  1.
<mgrwt>
<rscale>  0 0.63655892E+02</rscale>
<asrwt>0</asrwt>
<pdfrwt beam="1">  1        3 0.27330974E-03 0.63655892E+02</pdfrwt>
<pdfrwt beam="2">  1       -3 0.87727428E-01 0.63655892E+02</pdfrwt>
<totfact> 0.41537149E+04</totfact>
</mgrwt>
</event>
<event>
 4    1  0.7692565E-003  0.5267468E+02  0.7818608E-02  0.1431427E+00
          3   -1    0    0    0  501  0.00000000000E+00  0.00000000000E+00  0.92131742688E+02  0.92131798049E+02  0.10100000000E+00 0. -1.
         -3   -1    0    0  501    0 -0.00000000000E+00 -0.00000000000E+00 -0.75285568055E+01  0.75292342621E+01  0.10100000000E+00 0. -1.
          2    1    1    2    0  502 -0.25601264782E+02  0.47460064188E+01  0.49799835146E+02  0.56195844352E+02  0.25500000000E-02 0.  1.
         -2    1    1    2  502    0  0.25601264782E+02 -0.47460064188E+01  0.34803350737E+02  0.43465187960E+02  0.25500000000E-02 0.  1.
<mgrwt>
<rscale>  0 0.52674684E+02</rscale>
<asrwt>0</asrwt>
<pdfrwt beam="1">  1        3 0.14174171E-01 0.52674684E+02</pdfrwt>
<pdfrwt beam="2">  1       -3 0.11582959E-02 0.52674684E+02</pdfrwt>
<totfact> 0.14653700E+05</totfact>
</mgrwt>
</event>
<event>
 4    1  0.7692565E-003  0.6730291E+02  0.7818608E-02  0.1369512E+00
         -3   -1    0    0  501    0 -0.00000000000E+00  0.00000000000E+00  0.17362113177E+03  0.17362116115E+03  0.10100000000E+00 0.  1.
          3   -1    0    0    0  501  0.00000000000E+00 -0.00000000000E+00 -0.65219435593E+01  0.65227255646E+01  0.10100000000E+00 0.  1.
          2    1    1    2    0  502 -0.17540563273E+01  0.32726291151E+02  0.63106597878E+02  0.71109278918E+02  0.25500000000E-02 0.  1.
         -2    1    1    2  502    0  0.17540563273E+01 -0.32726291151E+02  0.10399259034E+03  0.10903460780E+03  0.25500000000E-02 0.  1.
<mgrwt>
<rscale>  0 0.67302906E+02</rscale>
<asrwt>0</asrwt>
<pdfrwt beam="2">  1        3 0.10034385E-02 0.67302906E+02</pdfrwt>
<pdfrwt beam="1">  1       -3 0.26711003E-01 0.67302906E+02</pdfrwt>
<totfact> 0.66073593E+04</totfact>
</mgrwt>
</event>
<event>
 4    1  0.7692565E-003  0.5978313E+02  0.7818608E-02  0.1398744E+00
         -3   -1    0    0  501    0 -0.00000000000E+00  0.00000000000E+00  0.16343310882E+04  0.16343310913E+04  0.10100000000E+00 0. -1.
          3   -1    0    0    0  501  0.00000000000E+00 -0.00000000000E+00 -0.54204242323E+00  0.55137191494E+00  0.10100000000E+00 0. -1.
          2    1    1    2    0  502  0.11833531880E+02  0.17800251367E+02  0.13883228846E+04  0.13884874192E+04  0.25500000000E-02 0. -1.
         -2    1    1    2  502    0 -0.11833531880E+02 -0.17800251367E+02  0.24546616116E+03  0.24639504400E+03  0.25500000000E-02 0. -1.
<mgrwt>
<rscale>  0 0.59783129E+02</rscale>
<asrwt>0</asrwt>
<pdfrwt beam="2">  1        3 0.84108050E-04 0.59783129E+02</pdfrwt>
<pdfrwt beam="1">  1       -3 0.25143921E+00 0.59783129E+02</pdfrwt>
<totfact> 0.15949176E+04</totfact>
</mgrwt>
</event>
<event>
 4    1  0.7692565E-003  0.8421696E+02  0.7818608E-02  0.1317493E+00
         -3   -1    0    0  501    0 -0.00000000000E+00  0.00000000000E+00  0.79196818601E+03  0.79196819245E+03  0.10100000000E+00 0. -1.
          3   -1    0    0    0  501  0.00000000000E+00 -0.00000000000E+00 -0.22377375209E+01  0.22400156724E+01  0.10100000000E+00 0. -1.
          2    1    1    2    0  502 -0.12393764180E+02 -0.40146305969E+02  0.42119113303E+03  0.42328158692E+03  0.25500000000E-02 0. -1.
         -2    1    1    2  502    0  0.12393764180E+02  0.40146305969E+02  0.36853931546E+03  0.37092662120E+03  0.25500000000E-02 0. -1.
<mgrwt>
<rscale>  0 0.84216961E+02</rscale>
<asrwt>0</asrwt>
<pdfrwt beam="2">  1        3 0.34444315E-03 0.84216961E+02</pdfrwt>
<pdfrwt beam="1">  1       -3 0.12184140E+00 0.84216961E+02</pdfrwt>
<totfact> 0.15367602E+04</totfact>
</mgrwt>
</event>
<event>
 4    1  0.7692565E-003  0.5579226E+02  0.7818608E-02  0.1416389E+00
         -3   -1    0    0  501    0 -0.00000000000E+00  0.00000000000E+00  0.10129597252E+02  0.10130100764E+02  0.10100000000E+00 0. -1.
          3   -1    0    0    0  501  0.00000000000E+00 -0.00000000000E+00 -0.76821355228E+02  0.76821421622E+02  0.10100000000E+00 0. -1.
          2    1    1    2    0  502 -0.22877896947E+02  0.12187422925E+02 -0.49411357265E+02  0.55797972002E+02  0.25500000000E-02 0.  1.
         -2    1    1    2  502    0  0.22877896947E+02 -0.12187422925E+02 -0.17280400710E+02  0.31153550384E+02  0.25500000000E-02 0.  1.
<mgrwt>
<rscale>  0 0.55792263E+02</rscale>
<asrwt>0</asrwt>
<pdfrwt beam="2">  1        3 0.11818714E-01 0.55792263E+02</pdfrwt>
<pdfrwt beam="1">  1       -3 0.15584435E-02 0.55792263E+02</pdfrwt>
<totfact> 0.13040653E+05</totfact>
</mgrwt>
</event>
<event>
 4    1  0.7692565E-003  0.4902528E+02  0.7818608E-02  0.1450671E+00
         -3   -1    0    0  501    0 -0.00000000000E+00  0.00000000000E+00  0.26331136229E+02  0.26331329934E+02  0.10100000000E+00 0.  1.
          3   -1    0    0    0  501  0.00000000000E+00 -0.00000000000E+00 -0.22819340029E+02  0.22819563544E+02  0.10100000000E+00 0.  1.
          2    1    1    2    0  502  0.16444640853E+02  0.16708928225E+02  0.89334952944E+01  0.25088280928E+02  0.25500000000E-02 0. -1.
         -2    1    1    2  502    0 -0.16444640853E+02 -0.16708928225E+02 -0.54216990940E+01  0.24062612551E+02  0.25500000000E-02 0. -1.
<mgrwt>
<rscale>  0 0.49025275E+02</rscale>
<asrwt>0</asrwt>
<pdfrwt beam="2">  1        3 0.35106998E-02 0.49025275E+02</pdfrwt>
<pdfrwt beam="1">  1       -3 0.40509761E-02 0.49025275E+02</pdfrwt>
<totfact> 0.19911154E+05</totfact>
</mgrwt>
</event>
<event>
 4    1  0.7692565E-003  0.6189367E+02  0.7818608E-02  0.1390052E+00
         -3   -1    0    0  501    0 -0.00000000000E+00  0.00000000000E+00  0.17820328956E+02  0.17820615171E+02  0.10100000000E+00 0. -1.
          3   -1    0    0    0  501  0.00000000000E+00 -0.00000000000E+00 -0.53741597882E+02  0.53741692790E+02  0.10100000000E+00 0. -1.
          2    1    1    2    0  502 -0.25398641358E+02  0.15701788071E+02 -0.27358699736E+02  0.40498587496E+02  0.25500000000E-02 0. -1.
         -2    1    1    2  502    0  0.25398641358E+02 -0.15701788071E+02 -0.85625691909E+01  0.31063720465E+02  0.25500000000E-02 0. -1.
<mgrwt>
<rscale>  0 0.61893670E+02</rscale>
<asrwt>0</asrwt>
<pdfrwt beam="2">  1        3 0.82679674E-02 0.61893670E+02</pdfrwt>
<pdfrwt beam="1">  1       -3 0.27416184E-02 0.61893670E+02</pdfrwt>
<totfact> 0.10360279E+05</totfact>
</mgrwt>
</event>
<event>
 4    1  0.7692565E-003  0.6907336E+02  0.7818608E-02  0.1363273E+00
         -3   -1    0    0  501    0 -0.00000000000E+00  0.00000000000E+00  0.54443157961E+02  0.54443251646E+02  0.10100000000E+00 0. -1.
          3   -1    0    0    0  501  0.00000000000E+00 -0.00000000000E+00 -0.21908535142E+02  0.21908767950E+02  0.10100000000E+00 0. -1.
          2    1    1    2    0  502 -0.12346400401E+02  0.18934660759E+02  0.45130688152E+02  0.50475082967E+02  0.25500000000E-02 0.  1.
         -2    1    1    2  502    0  0.12346400401E+02 -0.18934660759E+02 -0.12596065333E+02  0.25876936629E+02  0.25500000000E-02 0.  1.
<mgrwt>
<rscale>  0 0.69073361E+02</rscale>
<asrwt>0</asrwt>
<pdfrwt beam="2">  1        3 0.33705690E-02 0.69073361E+02</pdfrwt>
<pdfrwt beam="1">  1       -3 0.83758955E-02 0.69073361E+02</pdfrwt>
<totfact> 0.76866585E+04</totfact>
</mgrwt>
</event>
<event>
 4    1  0.7692565E-003  0.7858327E+02  0.7818608E-02  0.1333121E+00
         -3   -1    0    0  501    0 -0.00000000000E+00  0.00000000000E+00  0.36766049011E+01  0.36779919247E+01  0.10100000000E+00 0. -1.
          3   -1    0    0    0  501  0.00000000000E+00 -0.00000000000E+00 -0.41982656086E+03  0.41982657301E+03  0.10100000000E+00 0. -1.
          2    1    1    2    0  502 -0.31156652875E+02 -0.63892254506E+01 -0.33241054682E+03  0.33392863140E+03  0.25500000000E-02 0. -1.
         -2    1    1    2  502    0  0.31156652875E+02  0.63892254506E+01 -0.83739409133E+02  0.89575933535E+02  0.25500000000E-02 0. -1.
<mgrwt>
<rscale>  0 0.78583272E+02</rscale>
<asrwt>0</asrwt>
<pdfrwt beam="2">  1        3 0.64588771E-01 0.78583272E+02</pdfrwt>
<pdfrwt beam="1">  1       -3 0.56573948E-03 0.78583272E+02</pdfrwt>
<totfact> 0.29535925E+04</totfact>
</mgrwt>
</event>
<event>
 4    1  0.7692565E-003  0.6923908E+02  0.7818608E-02  0.1362700E+00
         -3   -1    0    0  501    0 -0.00000000000E+00  0.00000000000E+00  0.71697862296E+02  0.71697933434E+02  0.10100000000E+00 0.  1.
          3   -1    0    0    0  501  0.00000000000E+00 -0.00000000000E+00 -0.16715924266E+02  0.16716229392E+02  0.10100000000E+00 0.  1.
          2    1    1    2    0  502 -0.34505628838E+02  0.22101355329E+01  0.29698835993E+02  0.45580083221E+02  0.25500000000E-02 0.  1.
         -2    1    1    2  502    0  0.34505628838E+02 -0.22101355329E+01  0.25283102036E+02  0.42834079605E+02  0.25500000000E-02 0.  1.
<mgrwt>
<rscale>  0 0.69239083E+02</rscale>
<asrwt>0</asrwt>
<pdfrwt beam="2">  1        3 0.25717096E-02 0.69239083E+02</pdfrwt>
<pdfrwt beam="1">  1       -3 0.11030469E-01 0.69239083E+02</pdfrwt>
<totfact> 0.74276025E+04</totfact>
</mgrwt>
</event>
<event>
 4    1  0.7692565E-003  0.4791750E+02  0.7818608E-02  0.1456909E+00
         -3   -1    0    0  501    0 -0.00000000000E+00  0.00000000000E+00  0.31706940415E+03  0.31706942023E+03  0.10100000000E+00 0.  1.
          3   -1    0    0    0  501  0.00000000000E+00 -0.00000000000E+00 -0.18089726144E+01  0.18117899766E+01  0.10100000000E+00 0.  1.
          2    1    1    2    0  502 -0.20201495758E+02  0.10364019502E+02  0.20853323342E+03  0.20976563774E+03  0.25500000000E-02 0. -1.
         -2    1    1    2  502    0  0.20201495758E+02 -0.10364019502E+02  0.10672719811E+03  0.10911557247E+03  0.25500000000E-02 0. -1.
<mgrwt>
<rscale>  0 0.47917497E+02</rscale>
<asrwt>0</asrwt>
<pdfrwt beam="2">  1        3 0.27852123E-03 0.47917497E+02</pdfrwt>
<pdfrwt beam="1">  1       -3 0.48780163E-01 0.47917497E+02</pdfrwt>
<totfact> 0.12227311E+05</totfact>
</mgrwt>
</event>
<event>
 4    1  0.7692565E-003  0.8887034E+02  0.7818608E-02  0.1305611E+00
         -3   -1    0    0  501    0 -0.00000000000E+00  0.00000000000E+00  0.10761717158E+03  0.10761721897E+03  0.10100000000E+00 0.  1.
          3   -1    0    0    0  501  0.00000000000E+00 -0.00000000000E+00 -0.18347106315E+02  0.18347384314E+02  0.10100000000E+00 0.  1.
          2    1    1    2    0  502 -0.40880267926E+02  0.65183289495E+01  0.67524984193E+02  0.79204219677E+02  0.25500000000E-02 0.  1.
         -2    1    1    2  502    0  0.40880267926E+02 -0.65183289495E+01  0.21745081069E+02  0.46760383608E+02  0.25500000000E-02 0.  1.
<mgrwt>
<rscale>  0 0.88870337E+02</rscale>
<asrwt>0</asrwt>
<pdfrwt beam="2">  1        3 0.28226567E-02 0.88870337E+02</pdfrwt>
<pdfrwt beam="1">  1       -3 0.16556513E-01 0.88870337E+02</pdfrwt>
<totfact> 0.35203105E+04</totfact>
</mgrwt>
</event>
<event>
 4    1  0.7692565E-003  0.9870235E+02  0.7818608E-02  0.1283049E+00
         -3   -1    0    0  501    0 -0.00000000000E+00  0.00000000000E+00  0.12079682741E+03  0.12079686964E+03  0.10100000000E+00 0.  1.
          3   -1    0    0    0  501  0.00000000000E+00 -0.00000000000E+00 -0.20162097918E+02  0.20162350892E+02  0.10100000000E+00 0.  1.
          2    1    1    2    0  502 -0.24271947139E+02 -0.13592305317E+02 -0.78979310068E+01  0.28918082620E+02  0.25500000000E-02 0. -1.
         -2    1    1    2  502    0  0.24271947139E+02  0.13592305317E+02  0.10853266050E+03  0.11204113791E+03  0.25500000000E-02 0. -1.
<mgrwt>
<rscale>  0 0.98702346E+02</rscale>
<asrwt>0</asrwt>
<pdfrwt beam="2">  1        3 0.31018839E-02 0.98702346E+02</pdfrwt>
<pdfrwt beam="1">  1       -3 0.18584150E-01 0.98702346E+02</pdfrwt>
<totfact> 0.25673951E+04</totfact>
</mgrwt>
</event>
<event>
 4    1  0.7692565E-003  0.7475460E+02  0.7818608E-02  0.1344633E+00
         -3   -1    0    0  501    0 -0.00000000000E+00  0.00000000000E+00  0.21141267481E+02  0.21141508737E+02  0.10100000000E+00 0. -1.
          3   -1    0    0    0  501  0.00000000000E+00 -0.00000000000E+00 -0.66081593343E+02  0.66081670528E+02  0.10100000000E+00 0. -1.
          2    1    1    2    0  502 -0.18621034470E+02  0.12524151333E+02  0.12406331267E+02  0.25642042691E+02  0.25500000000E-02 0. -1.
         -2    1    1    2  502    0  0.18621034470E+02 -0.12524151333E+02 -0.57346657129E+02  0.61581136574E+02  0.25500000000E-02 0. -1.
<mgrwt>
<rscale>  0 0.74754599E+02</rscale>
<asrwt>0</asrwt>
<pdfrwt beam="2">  1        3 0.10166423E-01 0.74754599E+02</pdfrwt>
<pdfrwt beam="1">  1       -3 0.32525272E-02 0.74754599E+02</pdfrwt>
<totfact> 0.60827949E+04</totfact>
</mgrwt>
</event>
<event>
 4    1  0.7692565E-003  0.4326874E+02  0.7818608E-02  0.1485448E+00
         -3   -1    0    0  501    0 -0.00000000000E+00  0.00000000000E+00  0.10119386644E+03  0.10119391684E+03  0.10100000000E+00 0. -1.
          3   -1    0    0    0  501  0.00000000000E+00 -0.00000000000E+00 -0.46246367120E+01  0.46257394780E+01  0.10100000000E+00 0. -1.
          2    1    1    2    0  502  0.10054360477E+02  0.17884381981E+02  0.31499521313E+02  0.37592035498E+02  0.25500000000E-02 0. -1.
         -2    1    1    2  502    0 -0.10054360477E+02 -0.17884381981E+02  0.65069708415E+02  0.68227620823E+02  0.25500000000E-02 0. -1.
<mgrwt>
<rscale>  0 0.43268736E+02</rscale>
<asrwt>0</asrwt>
<pdfrwt beam="2">  1        3 0.71157129E-03 0.43268736E+02</pdfrwt>
<pdfrwt beam="1">  1       -3 0.15568376E-01 0.43268736E+02</pdfrwt>
<totfact> 0.23591381E+05</totfact>
</mgrwt>
</event>
<event>
 4    1  0.7692565E-003  0.7699886E+02  0.7818608E-02  0.1337791E+00
         -3   -1    0    0  501    0 -0.00000000000E+00  0.00000000000E+00  0.72020131441E+01  0.72027213141E+01  0.10100000000E+00 0.  1.
          3   -1    0    0    0  501  0.00000000000E+00 -0.00000000000E+00 -0.20579355492E+03  0.20579357971E+03  0.10100000000E+00 0.  1.
          2    1    1    2    0  502  0.23047169650E+02 -0.27755402902E+02 -0.62113780059E+02  0.71830746194E+02  0.25500000000E-02 0. -1.
         -2    1    1    2  502    0 -0.23047169650E+02  0.27755402902E+02 -0.13647776172E+03  0.14116555483E+03  0.25500000000E-02 0. -1.
<mgrwt>
<rscale>  0 0.76998856E+02</rscale>
<asrwt>0</asrwt>
<pdfrwt beam="2">  1        3 0.31660599E-01 0.76998856E+02</pdfrwt>
<pdfrwt beam="1">  1       -3 0.11080586E-02 0.76998856E+02</pdfrwt>
<totfact> 0.43694561E+04</totfact>
</mgrwt>
</event>
<event>
 4    1  0.7692565E-003  0.5936017E+02  0.7818608E-02  0.1400537E+00
         -3   -1    0    0  501    0 -0.00000000000E+00  0.00000000000E+00  0.27600093206E+01  0.27618567033E+01  0.10100000000E+00 0. -1.
          3   -1    0    0    0  501  0.00000000000E+00 -0.00000000000E+00 -0.31905960700E+03  0.31905962299E+03  0.10100000000E+00 0. -1.
          2    1    1    2    0  502  0.22327788378E+02  0.29107955907E+01 -0.26298333611E+03  0.26394552078E+03  0.25500000000E-02 0.  1.
         -2    1    1    2  502    0 -0.22327788378E+02 -0.29107955907E+01 -0.53316261578E+02  0.57875958912E+02  0.25500000000E-02 0.  1.
<mgrwt>
<rscale>  0 0.59360166E+02</rscale>
<asrwt>0</asrwt>
<pdfrwt beam="2">  1        3 0.49086208E-01 0.59360166E+02</pdfrwt>
<pdfrwt beam="1">  1       -3 0.42476041E-03 0.59360166E+02</pdfrwt>
<totfact> 0.71187809E+04</totfact>
</mgrwt>
</event>
<event>
 4    1  0.7692565E-003  0.4217881E+02  0.7818608E-02  0.1492764E+00
         -3   -1    0    0  501    0 -0.00000000000E+00  0.00000000000E+00  0.30782870028E+03  0.30782871684E+03  0.10100000000E+00 0.  1.
          3   -1    0    0    0  501  0.00000000000E+00 -0.00000000000E+00 -0.14430575704E+01  0.14465877614E+01  0.10100000000E+00 0.  1.
          2    1    1    2    0  502  0.17796395137E+02 -0.10770195275E+02  0.17865058084E+03  0.17985755148E+03  0.25500000000E-02 0.  1.
         -2    1    1    2  502    0 -0.17796395137E+02  0.10770195275E+02  0.12773506187E+03  0.12941775312E+03  0.25500000000E-02 0.  1.
<mgrwt>
<rscale>  0 0.42178810E+02</rscale>
<asrwt>0</asrwt>
<pdfrwt beam="2">  1        3 0.22228168E-03 0.42178810E+02</pdfrwt>
<pdfrwt beam="1">  1       -3 0.47358534E-01 0.42178810E+02</pdfrwt>
<totfact> 0.16977722E+05</totfact>
</mgrwt>
</event>
<event>
 4    1  0.7692565E-003  0.5414525E+02  0.7818608E-02  0.1424185E+00
         -3   -1    0    0  501    0 -0.00000000000E+00  0.00000000000E+00  0.67700529429E+01  0.67708062925E+01  0.10100000000E+00 0.  1.
          3   -1    0    0    0  501  0.00000000000E+00 -0.00000000000E+00 -0.10825337394E+03  0.10825342106E+03  0.10100000000E+00 0.  1.
          2    1    1    2    0  502  0.10955946165E+02  0.24689696312E+02 -0.54608494535E+02  0.60923735458E+02  0.25500000000E-02 0.  1.
         -2    1    1    2  502    0 -0.10955946165E+02 -0.24689696312E+02 -0.46874826461E+02  0.54100491889E+02  0.25500000000E-02 0.  1.
<mgrwt>
<rscale>  0 0.54145253E+02</rscale>
<asrwt>0</asrwt>
<pdfrwt beam="2">  1        3 0.16654426E-01 0.54145253E+02</pdfrwt>
<pdfrwt beam="1">  1       -3 0.10416083E-02 0.54145253E+02</pdfrwt>
<totfact> 0.13200376E+05</totfact>
</mgrwt>
</event>
<event>
 4    1  0.7692565E-003  0.1474286E+03  0.7818608E-02  0.1203669E+00
          3   -1    0    0    0  501  0.00000000000E+00  0.00000000000E+00  0.84896754504E+01  0.84902762177E+01  0.10100000000E+00 0. -1.
         -3   -1    0    0  501    0 -0.00000000000E+00 -0.00000000000E+00 -0.64002479521E+03  0.64002480317E+03  0.10100000000E+00 0. -1.
          2    1    1    2    0  502  0.72718782984E+02  0.59609772030E+01 -0.36195445151E+03  0.36923512783E+03  0.25500000000E-02 0.  1.
         -2    1    1    2  502    0 -0.72718782984E+02 -0.59609772030E+01 -0.26958066825E+03  0.27927995156E+03  0.25500000000E-02 0.  1.
<mgrwt>
<rscale>  0 0.14742863E+03</rscale>
<asrwt>0</asrwt>
<pdfrwt beam="1">  1        3 0.13061512E-02 0.14742863E+03</pdfrwt>
<pdfrwt beam="2">  1       -3 0.98465362E-01 0.14742863E+03</pdfrwt>
<totfact> 0.39706211E+03</totfact>
</mgrwt>
</event>
<event>
 4    1  0.7692565E-003  0.1879163E+03  0.7818608E-02  0.1160354E+00
          3   -1    0    0    0  501  0.00000000000E+00  0.00000000000E+00  0.12505028558E+03  0.12505032637E+03  0.10100000000E+00 0.  1.
         -3   -1    0    0  501    0 -0.00000000000E+00 -0.00000000000E+00 -0.70596581349E+02  0.70596653598E+02  0.10100000000E+00 0.  1.
          2    1    1    2    0  502  0.39928598339E+02  0.75620286173E+02 -0.13302924943E+02  0.86542986225E+02  0.25500000000E-02 0. -1.
         -2    1    1    2  502    0 -0.39928598339E+02 -0.75620286173E+02  0.67756629173E+02  0.10910399374E+03  0.25500000000E-02 0. -1.
<mgrwt>
<rscale>  0 0.18791630E+03</rscale>
<asrwt>0</asrwt>
<pdfrwt beam="1">  1        3 0.19238514E-01 0.18791630E+03</pdfrwt>
<pdfrwt beam="2">  1       -3 0.10861021E-01 0.18791630E+03</pdfrwt>
<totfact> 0.37326721E+03</totfact>
</mgrwt>
</event>
<event>
 4    1  0.7692565E-003  0.7042677E+02  0.7818608E-02  0.1358648E+00
          3   -1    0    0    0  501  0.00000000000E+00  0.00000000000E+00  0.53381105400E+03  0.53381106355E+03  0.10100000000E+00 0. -1.
         -3   -1    0    0  501    0 -0.00000000000E+00 -0.00000000000E+00 -0.23217788684E+01  0.23239746370E+01  0.10100000000E+00 0. -1.
          2    1    1    2    0  502 -0.96142070012E+01 -0.19930665992E+02  0.47427010747E+03  0.47478605632E+03  0.25500000000E-02 0.  1.
         -2    1    1    2  502    0  0.96142070012E+01  0.19930665992E+02  0.57219167655E+02  0.61348981872E+02  0.25500000000E-02 0.  1.
<mgrwt>
<rscale>  0 0.70426768E+02</rscale>
<asrwt>0</asrwt>
<pdfrwt beam="1">  1        3 0.82124931E-01 0.70426768E+02</pdfrwt>
<pdfrwt beam="2">  1       -3 0.35736646E-03 0.70426768E+02</pdfrwt>
<totfact> 0.33624050E+04</totfact>
</mgrwt>
</event>
<event>
 4    1  0.7692565E-003  0.4306512E+02  0.7818608E-02  0.1486795E+00
          3   -1    0    0    0  501  0.00000000000E+00  0.00000000000E+00  0.48370746024E+02  0.48370851470E+02  0.10100000000E+00 0.  1.
         -3   -1    0    0  501    0 -0.00000000000E+00 -0.00000000000E+00 -0.95849807587E+01  0.95855128785E+01  0.10100000000E+00 0.  1.
          2    1    1    2    0  502  0.20792931395E+02  0.46251711668E+01  0.15155705808E+02  0.26142563557E+02  0.25500000000E-02 0.  1.
         -2    1    1    2  502    0 -0.20792931395E+02 -0.46251711668E+01  0.23630059457E+02  0.31813800791E+02  0.25500000000E-02 0.  1.
<mgrwt>
<rscale>  0 0.43065120E+02</rscale>
<asrwt>0</asrwt>
<pdfrwt beam="1">  1        3 0.74417023E-02 0.43065120E+02</pdfrwt>
<pdfrwt beam="2">  1       -3 0.14746615E-02 0.43065120E+02</pdfrwt>
<totfact> 0.26866452E+05</totfact>
</mgrwt>
</event>
<event>
 4    1  0.7692565E-003  0.5691125E+02  0.7818608E-02  0.1411271E+00
         -3   -1    0    0  501    0 -0.00000000000E+00  0.00000000000E+00  0.11405038475E+03  0.11405042947E+03  0.10100000000E+00 0. -1.
          3   -1    0    0    0  501  0.00000000000E+00 -0.00000000000E+00 -0.70992873022E+01  0.71000057182E+01  0.10100000000E+00 0. -1.
          2    1    1    2    0  502 -0.26596879009E+02  0.89281829498E+01  0.63599197810E+02  0.69512332664E+02  0.25500000000E-02 0. -1.
         -2    1    1    2  502    0  0.26596879009E+02 -0.89281829498E+01  0.43351899640E+02  0.51638102528E+02  0.25500000000E-02 0. -1.
<mgrwt>
<rscale>  0 0.56911253E+02</rscale>
<asrwt>0</asrwt>
<pdfrwt beam="2">  1        3 0.10922569E-02 0.56911253E+02</pdfrwt>
<pdfrwt beam="1">  1       -3 0.17546270E-01 0.56911253E+02</pdfrwt>
<totfact> 0.11474879E+05</totfact>
</mgrwt>
</event>
<event>
 4    1  0.7692565E-003  0.4544829E+02  0.7818608E-02  0.1471562E+00
          3   -1    0    0    0  501  0.00000000000E+00  0.00000000000E+00  0.64604137007E+02  0.64604215957E+02  0.10100000000E+00 0. -1.
         -3   -1    0    0  501    0 -0.00000000000E+00 -0.00000000000E+00 -0.79926881813E+01  0.79933263015E+01  0.10100000000E+00 0. -1.
          2    1    1    2    0  502  0.12481589749E+02 -0.17968261427E+02  0.18492873155E+02  0.28646725212E+02  0.25500000000E-02 0.  1.
         -2    1    1    2  502    0 -0.12481589749E+02  0.17968261427E+02  0.38118575671E+02  0.43950817047E+02  0.25500000000E-02 0.  1.
<mgrwt>
<rscale>  0 0.45448289E+02</rscale>
<asrwt>0</asrwt>
<pdfrwt beam="1">  1        3 0.99391533E-02 0.45448289E+02</pdfrwt>
<pdfrwt beam="2">  1       -3 0.12296995E-02 0.45448289E+02</pdfrwt>
<totfact> 0.22632746E+05</totfact>
</mgrwt>
</event>
<event>
 4    1  0.7692565E-003  0.5960650E+02  0.7818608E-02  0.1399491E+00
          3   -1    0    0    0  501  0.00000000000E+00  0.00000000000E+00  0.15337943705E+01  0.15371161866E+01  0.10100000000E+00 0. -1.
         -3   -1    0    0  501    0 -0.00000000000E+00 -0.00000000000E+00 -0.57847899164E+03  0.57847900046E+03  0.10100000000E+00 0. -1.
          2    1    1    2    0  502  0.76807589321E+01 -0.25228272777E+02 -0.15336786323E+03  0.15561864054E+03  0.25500000000E-02 0. -1.
         -2    1    1    2  502    0 -0.76807589321E+01  0.25228272777E+02 -0.42357733404E+03  0.42439747611E+03  0.25500000000E-02 0. -1.
<mgrwt>
<rscale>  0 0.59606501E+02</rscale>
<asrwt>0</asrwt>
<pdfrwt beam="1">  1        3 0.23622503E-03 0.59606501E+02</pdfrwt>
<pdfrwt beam="2">  1       -3 0.88996850E-01 0.59606501E+02</pdfrwt>
<totfact> 0.48582562E+04</totfact>
</mgrwt>
</event>
<event>
 4    1  0.7692565E-003  0.6155369E+02  0.7818608E-02  0.1391425E+00
         -3   -1    0    0  501    0 -0.00000000000E+00  0.00000000000E+00  0.14484150070E+03  0.14484153592E+03  0.10100000000E+00 0. -1.
          3   -1    0    0    0  501  0.00000000000E+00 -0.00000000000E+00 -0.65392350237E+01  0.65400149614E+01  0.10100000000E+00 0. -1.
          2    1    1    2    0  502  0.16324034801E+02 -0.25886056962E+02  0.61124387196E+02  0.68357536335E+02  0.25500000000E-02 0. -1.
         -2    1    1    2  502    0 -0.16324034801E+02  0.25886056962E+02  0.77177878483E+02  0.83024014543E+02  0.25500000000E-02 0. -1.
<mgrwt>
<rscale>  0 0.61553694E+02</rscale>
<asrwt>0</asrwt>
<pdfrwt beam="2">  1        3 0.10060990E-02 0.61553694E+02</pdfrwt>
<pdfrwt beam="1">  1       -3 0.22283367E-01 0.61553694E+02</pdfrwt>
<totfact> 0.88106721E+04</totfact>
</mgrwt>
</event>
<event>
 4    1  0.7692565E-003  0.5115484E+02  0.7818608E-02  0.1439210E+00
          3   -1    0    0    0  501  0.00000000000E+00  0.00000000000E+00  0.25092565081E+02  0.25092768347E+02  0.10100000000E+00 0.  1.
         -3   -1    0    0  501    0 -0.00000000000E+00 -0.00000000000E+00 -0.26071232286E+02  0.26071427922E+02  0.10100000000E+00 0.  1.
          2    1    1    2    0  502  0.99404250952E+01 -0.22048538040E+02  0.78341006811E+01  0.25422887734E+02  0.25500000000E-02 0.  1.
         -2    1    1    2  502    0 -0.99404250952E+01  0.22048538040E+02 -0.88127678861E+01  0.25741308535E+02  0.25500000000E-02 0.  1.
<mgrwt>
<rscale>  0 0.51154835E+02</rscale>
<asrwt>0</asrwt>
<pdfrwt beam="1">  1        3 0.38604253E-02 0.51154835E+02</pdfrwt>
<pdfrwt beam="2">  1       -3 0.40109895E-02 0.51154835E+02</pdfrwt>
<totfact> 0.17789077E+05</totfact>
</mgrwt>
</event>
<event>
 4    1  0.7692565E-003  0.4047792E+02  0.7818608E-02  0.1504724E+00
          3   -1    0    0    0  501  0.00000000000E+00  0.00000000000E+00  0.21855630017E+01  0.21878954807E+01  0.10100000000E+00 0. -1.
         -3   -1    0    0  501    0 -0.00000000000E+00 -0.00000000000E+00 -0.18731641503E+03  0.18731644226E+03  0.10100000000E+00 0. -1.
          2    1    1    2    0  502  0.14652157993E+02  0.13868064569E+02 -0.85007088051E+02  0.87368266402E+02  0.25500000000E-02 0. -1.
         -2    1    1    2  502    0 -0.14652157993E+02 -0.13868064569E+02 -0.10012376398E+03  0.10213607134E+03  0.25500000000E-02 0. -1.
<mgrwt>
<rscale>  0 0.40477916E+02</rscale>
<asrwt>0</asrwt>
<pdfrwt beam="1">  1        3 0.33642213E-03 0.40477916E+02</pdfrwt>
<pdfrwt beam="2">  1       -3 0.28818079E-01 0.40477916E+02</pdfrwt>
<totfact> 0.23247596E+05</totfact>
</mgrwt>
</event>
<event>
 4    1  0.7692565E-003  0.5924545E+02  0.7818608E-02  0.1401026E+00
          3   -1    0    0    0  501  0.00000000000E+00  0.00000000000E+00  0.66419637008E+02  0.66419713800E+02  0.10100000000E+00 0. -1.
         -3   -1    0    0  501    0 -0.00000000000E+00 -0.00000000000E+00 -0.13211262846E+02  0.13211648912E+02  0.10100000000E+00 0. -1.
          2    1    1    2    0  502  0.51715544433E+00 -0.22810177164E+02  0.12106510619E+01  0.22848135909E+02  0.25500000000E-02 0. -1.
         -2    1    1    2  502    0 -0.51715544433E+00  0.22810177164E+02  0.51997723101E+02  0.56783226803E+02  0.25500000000E-02 0. -1.
<mgrwt>
<rscale>  0 0.59245446E+02</rscale>
<asrwt>0</asrwt>
<pdfrwt beam="1">  1        3 0.10218442E-01 0.59245446E+02</pdfrwt>
<pdfrwt beam="2">  1       -3 0.20325375E-02 0.59245446E+02</pdfrwt>
<totfact> 0.11375617E+05</totfact>
</mgrwt>
</event>
<event>
 4    1  0.7692565E-003  0.5596917E+02  0.7818608E-02  0.1415570E+00
          3   -1    0    0    0  501  0.00000000000E+00  0.00000000000E+00  0.88586319479E+02  0.88586377055E+02  0.10100000000E+00 0.  1.
         -3   -1    0    0  501    0 -0.00000000000E+00 -0.00000000000E+00 -0.88400335157E+01  0.88406104743E+01  0.10100000000E+00 0.  1.
          2    1    1    2    0  502 -0.26141024736E+02  0.34679458147E+01  0.23566236127E+02  0.35365906098E+02  0.25500000000E-02 0.  1.
         -2    1    1    2  502    0  0.26141024736E+02 -0.34679458147E+01  0.56180049836E+02  0.62061081432E+02  0.25500000000E-02 0.  1.
<mgrwt>
<rscale>  0 0.55969168E+02</rscale>
<asrwt>0</asrwt>
<pdfrwt beam="1">  1        3 0.13628713E-01 0.55969168E+02</pdfrwt>
<pdfrwt beam="2">  1       -3 0.13600540E-02 0.55969168E+02</pdfrwt>
<totfact> 0.12624106E+05</totfact>
</mgrwt>
</event>
<event>
 4    1  0.7692565E-003  0.4114498E+02  0.7818608E-02  0.1499951E+00
          3   -1    0    0    0  501  0.00000000000E+00  0.00000000000E+00  0.53781967668E+01  0.53791450494E+01  0.10100000000E+00 0.  1.
         -3   -1    0    0  501    0 -0.00000000000E+00 -0.00000000000E+00 -0.78685269149E+02  0.78685333971E+02  0.10100000000E+00 0.  1.
          2    1    1    2    0  502  0.12944423535E+02  0.15717169594E+02 -0.30648019581E+02  0.36795225661E+02  0.25500000000E-02 0. -1.
         -2    1    1    2  502    0 -0.12944423535E+02 -0.15717169594E+02 -0.42659052801E+02  0.47269253359E+02  0.25500000000E-02 0. -1.
<mgrwt>
<rscale>  0 0.41144985E+02</rscale>
<asrwt>0</asrwt>
<pdfrwt beam="1">  1        3 0.82749288E-03 0.41144985E+02</pdfrwt>
<pdfrwt beam="2">  1       -3 0.12105503E-01 0.41144985E+02</pdfrwt>
<totfact> 0.28102087E+05</totfact>
</mgrwt>
</event>
<event>
 4    1  0.7692565E-003  0.2114012E+03  0.7818608E-02  0.1140461E+00
          3   -1    0    0    0  501  0.00000000000E+00  0.00000000000E+00  0.17662232078E+04  0.17662232107E+04  0.10100000000E+00 0. -1.
         -3   -1    0    0  501    0 -0.00000000000E+00 -0.00000000000E+00 -0.63253037473E+01  0.63261100604E+01  0.10100000000E+00 0. -1.
          2    1    1    2    0  502 -0.37341491496E+02 -0.77046979409E+02  0.36022934395E+03  0.37026450582E+03  0.25500000000E-02 0. -1.
         -2    1    1    2  502    0  0.37341491496E+02  0.77046979409E+02  0.13996685601E+04  0.14022848150E+04  0.25500000000E-02 0. -1.
<mgrwt>
<rscale>  0 0.21140119E+03</rscale>
<asrwt>0</asrwt>
<pdfrwt beam="1">  1        3 0.27172676E+00 0.21140119E+03</pdfrwt>
<pdfrwt beam="2">  1       -3 0.97318573E-03 0.21140119E+03</pdfrwt>
<totfact> 0.44581500E+02</totfact>
</mgrwt>
</event>
<event>
 4    1  0.7692565E-003  0.5982570E+02  0.7818608E-02  0.1398565E+00
         -3   -1    0    0  501    0 -0.00000000000E+00  0.00000000000E+00  0.95024360730E+02  0.95024414405E+02  0.10100000000E+00 0. -1.
          3   -1    0    0    0  501  0.00000000000E+00 -0.00000000000E+00 -0.94159793742E+01  0.94165210442E+01  0.10100000000E+00 0. -1.
          2    1    1    2    0  502  0.21359325037E+02  0.15925416875E+02  0.66545083271E+02  0.71680456072E+02  0.25500000000E-02 0.  1.
         -2    1    1    2  502    0 -0.21359325037E+02 -0.15925416875E+02  0.19063298084E+02  0.32760479377E+02  0.25500000000E-02 0.  1.
<mgrwt>
<rscale>  0 0.59825697E+02</rscale>
<asrwt>0</asrwt>
<pdfrwt beam="2">  1        3 0.14486580E-02 0.59825697E+02</pdfrwt>
<pdfrwt beam="1">  1       -3 0.14619178E-01 0.59825697E+02</pdfrwt>
<totfact> 0.10476340E+05</totfact>
</mgrwt>
</event>
<event>
 4    1  0.7692565E-003  0.4124188E+02  0.7818608E-02  0.1499266E+00
          3   -1    0    0    0  501  0.00000000000E+00  0.00000000000E+00  0.37595966936E+01  0.37609531104E+01  0.10100000000E+00 0.  1.
         -3   -1    0    0  501    0 -0.00000000000E+00 -0.00000000000E+00 -0.11308163336E+03  0.11308167846E+03  0.10100000000E+00 0.  1.
          2    1    1    2    0  502 -0.10068580747E+02  0.17917429850E+02 -0.49909673800E+02  0.53975792314E+02  0.25500000000E-02 0. -1.
         -2    1    1    2  502    0  0.10068580747E+02 -0.17917429850E+02 -0.59412362862E+02  0.62866839256E+02  0.25500000000E-02 0. -1.
<mgrwt>
<rscale>  0 0.41241882E+02</rscale>
<asrwt>0</asrwt>
<pdfrwt beam="1">  1        3 0.57850739E-03 0.41241882E+02</pdfrwt>
<pdfrwt beam="2">  1       -3 0.17397280E-01 0.41241882E+02</pdfrwt>
<totfact> 0.25866341E+05</totfact>
</mgrwt>
</event>
<event>
 4    1  0.7692565E-003  0.5336829E+02  0.7818608E-02  0.1427977E+00
          3   -1    0    0    0  501  0.00000000000E+00  0.00000000000E+00  0.19706951210E+01  0.19732815967E+01  0.10100000000E+00 0.  1.
         -3   -1    0    0  501    0 -0.00000000000E+00 -0.00000000000E+00 -0.36107638557E+03  0.36107639970E+03  0.10100000000E+00 0.  1.
          2    1    1    2    0  502 -0.21558207634E+02  0.11012423982E+02 -0.10318830592E+03  0.10598988765E+03  0.25500000000E-02 0.  1.
         -2    1    1    2  502    0  0.21558207634E+02 -0.11012423982E+02 -0.25591738453E+03  0.25705979364E+03  0.25500000000E-02 0.  1.
<mgrwt>
<rscale>  0 0.53368288E+02</rscale>
<asrwt>0</asrwt>
<pdfrwt beam="1">  1        3 0.30338420E-03 0.53368288E+02</pdfrwt>
<pdfrwt beam="2">  1       -3 0.55550361E-01 0.53368288E+02</pdfrwt>
<totfact> 0.87188565E+04</totfact>
</mgrwt>
</event>
<event>
 4    1  0.7692565E-003  0.9449741E+02  0.7818608E-02  0.1292312E+00
          3   -1    0    0    0  501  0.00000000000E+00  0.00000000000E+00  0.47770124946E+03  0.47770126014E+03  0.10100000000E+00 0. -1.
         -3   -1    0    0  501    0 -0.00000000000E+00 -0.00000000000E+00 -0.46727415630E+01  0.46738329789E+01  0.10100000000E+00 0. -1.
          2    1    1    2    0  502  0.31251669516E+02 -0.11783516367E+02  0.40711322658E+03  0.40848096329E+03  0.25500000000E-02 0.  1.
         -2    1    1    2  502    0 -0.31251669516E+02  0.11783516367E+02  0.65915281314E+02  0.73894129825E+02  0.25500000000E-02 0.  1.
<mgrwt>
<rscale>  0 0.94497414E+02</rscale>
<asrwt>0</asrwt>
<pdfrwt beam="1">  1        3 0.73492515E-01 0.94497414E+02</pdfrwt>
<pdfrwt beam="2">  1       -3 0.71896878E-03 0.94497414E+02</pdfrwt>
<totfact> 0.16670960E+04</totfact>
</mgrwt>
</event>
<event>
 4    1  0.7692565E-003  0.5930647E+02  0.7818608E-02  0.1400765E+00
          3   -1    0    0    0  501  0.00000000000E+00  0.00000000000E+00  0.22280925428E+02  0.22281154345E+02  0.10100000000E+00 0.  1.
         -3   -1    0    0  501    0 -0.00000000000E+00 -0.00000000000E+00 -0.39464397615E+02  0.39464526858E+02  0.10100000000E+00 0.  1.
          2    1    1    2    0  502  0.39188969617E+00 -0.28613672114E+02 -0.16684365042E+02  0.33124973248E+02  0.25500000000E-02 0. -1.
         -2    1    1    2  502    0 -0.39188969617E+00  0.28613672114E+02 -0.49910714536E+00  0.28620707954E+02  0.25500000000E-02 0. -1.
<mgrwt>
<rscale>  0 0.59306470E+02</rscale>
<asrwt>0</asrwt>
<pdfrwt beam="1">  1        3 0.34278622E-02 0.59306470E+02</pdfrwt>
<pdfrwt beam="2">  1       -3 0.60714733E-02 0.59306470E+02</pdfrwt>
<totfact> 0.11854313E+05</totfact>
</mgrwt>
</event>
<event>
 4    1  0.7692565E-003  0.8130148E+02  0.7818608E-02  0.1325398E+00
         -3   -1    0    0  501    0 -0.00000000000E+00  0.00000000000E+00  0.19391934938E+02  0.19392197958E+02  0.10100000000E+00 0. -1.
          3   -1    0    0    0  501  0.00000000000E+00 -0.00000000000E+00 -0.85214077800E+02  0.85214137655E+02  0.10100000000E+00 0. -1.
          2    1    1    2    0  502  0.23379788802E+02  0.32483358802E+02 -0.23749671630E+02  0.46538479052E+02  0.25500000000E-02 0. -1.
         -2    1    1    2  502    0 -0.23379788802E+02 -0.32483358802E+02 -0.42072471232E+02  0.58067856561E+02  0.25500000000E-02 0. -1.
<mgrwt>
<rscale>  0 0.81301482E+02</rscale>
<asrwt>0</asrwt>
<pdfrwt beam="2">  1        3 0.13109883E-01 0.81301482E+02</pdfrwt>
<pdfrwt beam="1">  1       -3 0.29833995E-02 0.81301482E+02</pdfrwt>
<totfact> 0.46780165E+04</totfact>
</mgrwt>
</event>
<event>
 4    1  0.7692565E-003  0.6046109E+02  0.7818608E-02  0.1395907E+00
         -3   -1    0    0  501    0 -0.00000000000E+00  0.00000000000E+00  0.49762504574E+02  0.49762607071E+02  0.10100000000E+00 0.  1.
          3   -1    0    0    0  501  0.00000000000E+00 -0.00000000000E+00 -0.18364689110E+02  0.18364966842E+02  0.10100000000E+00 0.  1.
          2    1    1    2    0  502  0.12834727788E+02 -0.26642418664E+02  0.22766125193E+02  0.37320840994E+02  0.25500000000E-02 0. -1.
         -2    1    1    2  502    0 -0.12834727788E+02  0.26642418664E+02  0.86316902709E+01  0.30806732918E+02  0.25500000000E-02 0. -1.
<mgrwt>
<rscale>  0 0.60461091E+02</rscale>
<asrwt>0</asrwt>
<pdfrwt beam="2">  1        3 0.28253660E-02 0.60461091E+02</pdfrwt>
<pdfrwt beam="1">  1       -3 0.76557992E-02 0.60461091E+02</pdfrwt>
<totfact> 0.11100868E+05</totfact>
</mgrwt>
</event>
<event>
 4    1  0.7692565E-003  0.5252128E+02  0.7818608E-02  0.1432198E+00
         -3   -1    0    0  501    0 -0.00000000000E+00  0.00000000000E+00  0.12744971467E+02  0.12745371658E+02  0.10100000000E+00 0.  1.
          3   -1    0    0    0  501  0.00000000000E+00 -0.00000000000E+00 -0.54107984324E+02  0.54108078590E+02  0.10100000000E+00 0.  1.
          2    1    1    2    0  502 -0.18570466389E+02 -0.18522871071E+02 -0.22322619149E+02  0.34442100790E+02  0.25500000000E-02 0.  1.
         -2    1    1    2  502    0  0.18570466389E+02  0.18522871071E+02 -0.19040393708E+02  0.32411349458E+02  0.25500000000E-02 0.  1.
<mgrwt>
<rscale>  0 0.52521281E+02</rscale>
<asrwt>0</asrwt>
<pdfrwt beam="2">  1        3 0.83243432E-02 0.52521281E+02</pdfrwt>
<pdfrwt beam="1">  1       -3 0.19608029E-02 0.52521281E+02</pdfrwt>
<totfact> 0.15975140E+05</totfact>
</mgrwt>
</event>
<event>
 4    1  0.7692565E-003  0.4372786E+02  0.7818608E-02  0.1482443E+00
          3   -1    0    0    0  501  0.00000000000E+00  0.00000000000E+00  0.15129775735E+02  0.15130112848E+02  0.10100000000E+00 0. -1.
         -3   -1    0    0  501    0 -0.00000000000E+00 -0.00000000000E+00 -0.31594643315E+02  0.31594804751E+02  0.10100000000E+00 0. -1.
          2    1    1    2    0  502  0.16496897481E+02  0.13438549122E+02 -0.13605949370E+02  0.25255971448E+02  0.25500000000E-02 0. -1.
         -2    1    1    2  502    0 -0.16496897481E+02 -0.13438549122E+02 -0.28589182103E+01  0.21468946151E+02  0.25500000000E-02 0. -1.
<mgrwt>
<rscale>  0 0.43727864E+02</rscale>
<asrwt>0</asrwt>
<pdfrwt beam="1">  1        3 0.23276962E-02 0.43727864E+02</pdfrwt>
<pdfrwt beam="2">  1       -3 0.48607527E-02 0.43727864E+02</pdfrwt>
<totfact> 0.26675518E+05</totfact>
</mgrwt>
</event>
<event>
 4    1  0.7692565E-003  0.6163198E+02  0.7818608E-02  0.1391108E+00
         -3   -1    0    0  501    0 -0.00000000000E+00  0.00000000000E+00  0.51970843791E+02  0.51970941932E+02  0.10100000000E+00 0. -1.
          3   -1    0    0    0  501  0.00000000000E+00 -0.00000000000E+00 -0.18272012993E+02  0.18272292134E+02  0.10100000000E+00 0. -1.
          2    1    1    2    0  502  0.25202925748E+02 -0.14422855677E+02  0.28606722608E+02  0.40762124785E+02  0.25500000000E-02 0. -1.
         -2    1    1    2  502    0 -0.25202925748E+02  0.14422855677E+02  0.50921081900E+01  0.29481109281E+02  0.25500000000E-02 0. -1.
<mgrwt>
<rscale>  0 0.61631978E+02</rscale>
<asrwt>0</asrwt>
<pdfrwt beam="2">  1        3 0.28111079E-02 0.61631978E+02</pdfrwt>
<pdfrwt beam="1">  1       -3 0.79955435E-02 0.61631978E+02</pdfrwt>
<totfact> 0.10508880E+05</totfact>
</mgrwt>
</event>
<event>
 4    1  0.7692565E-003  0.9466086E+02  0.7818608E-02  0.1291942E+00
         -3   -1    0    0  501    0 -0.00000000000E+00  0.00000000000E+00  0.19323825588E+01  0.19350202463E+01  0.10100000000E+00 0.  1.
          3   -1    0    0    0  501  0.00000000000E+00 -0.00000000000E+00 -0.11584852150E+04  0.11584852194E+04  0.10100000000E+00 0.  1.
          2    1    1    2    0  502 -0.37509388965E+02  0.28171049145E+02 -0.50112701844E+03  0.50331784280E+03  0.25500000000E-02 0.  1.
         -2    1    1    2  502    0  0.37509388965E+02 -0.28171049145E+02 -0.65542581398E+03  0.65710239682E+03  0.25500000000E-02 0.  1.
<mgrwt>
<rscale>  0 0.94660860E+02</rscale>
<asrwt>0</asrwt>
<pdfrwt beam="2">  1        3 0.17822814E+00 0.94660860E+02</pdfrwt>
<pdfrwt beam="1">  1       -3 0.29749379E-03 0.94660860E+02</pdfrwt>
<totfact> 0.77108772E+03</totfact>
</mgrwt>
</event>
<event>
 4    1  0.7692565E-003  0.1167504E+03  0.7818608E-02  0.1248556E+00
          3   -1    0    0    0  501  0.00000000000E+00  0.00000000000E+00  0.25089828084E+03  0.25089830117E+03  0.10100000000E+00 0.  1.
         -3   -1    0    0  501    0 -0.00000000000E+00 -0.00000000000E+00 -0.13581654269E+02  0.13582029808E+02  0.10100000000E+00 0.  1.
          2    1    1    2    0  502  0.39630392808E+02  0.30206806814E+02  0.18754302011E+03  0.19405000286E+03  0.25500000000E-02 0.  1.
         -2    1    1    2  502    0 -0.39630392808E+02 -0.30206806814E+02  0.49773606465E+02  0.70430328120E+02  0.25500000000E-02 0.  1.
<mgrwt>
<rscale>  0 0.11675044E+03</rscale>
<asrwt>0</asrwt>
<pdfrwt beam="1">  1        3 0.38599766E-01 0.11675044E+03</pdfrwt>
<pdfrwt beam="2">  1       -3 0.20895157E-02 0.11675044E+03</pdfrwt>
<totfact> 0.12972348E+04</totfact>
</mgrwt>
</event>
<event>
 4    1  0.7692565E-003  0.5466623E+02  0.7818608E-02  0.1421684E+00
         -3   -1    0    0  501    0 -0.00000000000E+00  0.00000000000E+00  0.14496463854E+02  0.14496815695E+02  0.10100000000E+00 0. -1.
          3   -1    0    0    0  501  0.00000000000E+00 -0.00000000000E+00 -0.51535630382E+02  0.51535729353E+02  0.10100000000E+00 0. -1.
          2    1    1    2    0  502  0.20268566169E+02  0.18330698201E+02 -0.19147248937E+02  0.33368344572E+02  0.25500000000E-02 0.  1.
         -2    1    1    2  502    0 -0.20268566169E+02 -0.18330698201E+02 -0.17891917591E+02  0.32664200475E+02  0.25500000000E-02 0.  1.
<mgrwt>
<rscale>  0 0.54666234E+02</rscale>
<asrwt>0</asrwt>
<pdfrwt beam="2">  1        3 0.79285931E-02 0.54666234E+02</pdfrwt>
<pdfrwt beam="1">  1       -3 0.22302599E-02 0.54666234E+02</pdfrwt>
<totfact> 0.14455645E+05</totfact>
</mgrwt>
</event>
<event>
 4    1  0.7692565E-003  0.1101615E+03  0.7818608E-02  0.1260271E+00
          3   -1    0    0    0  501  0.00000000000E+00  0.00000000000E+00  0.80652861858E+01  0.80659185626E+01  0.10100000000E+00 0.  1.
         -3   -1    0    0  501    0 -0.00000000000E+00 -0.00000000000E+00 -0.37615072414E+03  0.37615073770E+03  0.10100000000E+00 0.  1.
          2    1    1    2    0  502 -0.20408483908E+02  0.51145467682E+02 -0.17973955020E+03  0.18798582657E+03  0.25500000000E-02 0.  1.
         -2    1    1    2  502    0  0.20408483908E+02 -0.51145467682E+02 -0.18834588775E+03  0.19623082968E+03  0.25500000000E-02 0.  1.
<mgrwt>
<rscale>  0 0.11016147E+03</rscale>
<asrwt>0</asrwt>
<pdfrwt beam="1">  1        3 0.12408632E-02 0.11016147E+03</pdfrwt>
<pdfrwt beam="2">  1       -3 0.57869378E-01 0.11016147E+03</pdfrwt>
<totfact> 0.12639016E+04</totfact>
</mgrwt>
</event>
<event>
 4    1  0.7692565E-003  0.1158149E+03  0.7818608E-02  0.1250165E+00
         -3   -1    0    0  501    0 -0.00000000000E+00  0.00000000000E+00  0.11858061332E+04  0.11858061375E+04  0.10100000000E+00 0. -1.
          3   -1    0    0    0  501  0.00000000000E+00 -0.00000000000E+00 -0.28269356313E+01  0.28287393063E+01  0.10100000000E+00 0. -1.
          2    1    1    2    0  502 -0.15281934604E+02 -0.35001854236E+02  0.14476137689E+03  0.14971480745E+03  0.25500000000E-02 0. -1.
         -2    1    1    2  502    0  0.15281934604E+02  0.35001854236E+02  0.10382178207E+04  0.10389200693E+04  0.25500000000E-02 0. -1.
<mgrwt>
<rscale>  0 0.11581489E+03</rscale>
<asrwt>0</asrwt>
<pdfrwt beam="2">  1        3 0.43505209E-03 0.11581489E+03</pdfrwt>
<pdfrwt beam="1">  1       -3 0.18243192E+00 0.11581489E+03</pdfrwt>
<totfact> 0.43277199E+03</totfact>
</mgrwt>
</event>
<event>
 4    1  0.7692565E-003  0.8860418E+02  0.7818608E-02  0.1306267E+00
         -3   -1    0    0  501    0 -0.00000000000E+00  0.00000000000E+00  0.11280840187E+03  0.11280844709E+03  0.10100000000E+00 0. -1.
          3   -1    0    0    0  501  0.00000000000E+00 -0.00000000000E+00 -0.17398113277E+02  0.17398406439E+02  0.10100000000E+00 0. -1.
          2    1    1    2    0  502  0.17693734049E+02  0.28746815487E+02  0.89868931429E+02  0.95999335769E+02  0.25500000000E-02 0. -1.
         -2    1    1    2  502    0 -0.17693734049E+02 -0.28746815487E+02  0.55413571660E+01  0.34207517756E+02  0.25500000000E-02 0. -1.
<mgrwt>
<rscale>  0 0.88604185E+02</rscale>
<asrwt>0</asrwt>
<pdfrwt beam="2">  1        3 0.26766588E-02 0.88604185E+02</pdfrwt>
<pdfrwt beam="1">  1       -3 0.17355165E-01 0.88604185E+02</pdfrwt>
<totfact> 0.35184441E+04</totfact>
</mgrwt>
</event>
<event>
 4    1  0.7692565E-003  0.8344114E+02  0.7818608E-02  0.1319560E+00
          3   -1    0    0    0  501  0.00000000000E+00  0.00000000000E+00  0.14024397666E+04  0.14024397703E+04  0.10100000000E+00 0.  1.
         -3   -1    0    0  501    0 -0.00000000000E+00 -0.00000000000E+00 -0.12390687814E+01  0.12431783641E+01  0.10100000000E+00 0.  1.
          2    1    1    2    0  502 -0.72409675706E+01 -0.40053285985E+02  0.54650391835E+03  0.54801754544E+03  0.25500000000E-02 0. -1.
         -2    1    1    2  502    0  0.72409675706E+01  0.40053285985E+02  0.85469677951E+03  0.85566540321E+03  0.25500000000E-02 0. -1.
<mgrwt>
<rscale>  0 0.83441145E+02</rscale>
<asrwt>0</asrwt>
<pdfrwt beam="1">  1        3 0.21576036E+00 0.83441145E+02</pdfrwt>
<pdfrwt beam="2">  1       -3 0.19094230E-03 0.83441145E+02</pdfrwt>
<totfact> 0.84929635E+03</totfact>
</mgrwt>
</event>
<event>
 4    1  0.7692565E-003  0.7236837E+02  0.7818608E-02  0.1352220E+00
          3   -1    0    0    0  501  0.00000000000E+00  0.00000000000E+00  0.86864374883E+03  0.86864375471E+03  0.10100000000E+00 0.  1.
         -3   -1    0    0  501    0 -0.00000000000E+00 -0.00000000000E+00 -0.15055889856E+01  0.15089728935E+01  0.10100000000E+00 0.  1.
          2    1    1    2    0  502  0.34313176438E+02  0.25168427885E+01  0.29883299844E+03  0.30080706365E+03  0.25500000000E-02 0. -1.
         -2    1    1    2  502    0 -0.34313176438E+02 -0.25168427885E+01  0.56830516141E+03  0.56934566395E+03  0.25500000000E-02 0. -1.
<mgrwt>
<rscale>  0 0.72368371E+02</rscale>
<asrwt>0</asrwt>
<pdfrwt beam="1">  1        3 0.13363814E+00 0.72368371E+02</pdfrwt>
<pdfrwt beam="2">  1       -3 0.23188916E-03 0.72368371E+02</pdfrwt>
<totfact> 0.21057933E+04</totfact>
</mgrwt>
</event>
<event>
 4    1  0.7692565E-003  0.6585189E+02  0.7818608E-02  0.1374795E+00
          3   -1    0    0    0  501  0.00000000000E+00  0.00000000000E+00  0.31921780005E+02  0.31921939786E+02  0.10100000000E+00 0. -1.
         -3   -1    0    0  501    0 -0.00000000000E+00 -0.00000000000E+00 -0.33961373578E+02  0.33961523763E+02  0.10100000000E+00 0. -1.
          2    1    1    2    0  502 -0.32256532142E+02 -0.65417860148E+01 -0.19361345887E+01  0.32970099389E+02  0.25500000000E-02 0.  1.
         -2    1    1    2  502    0  0.32256532142E+02  0.65417860148E+01 -0.10345898406E+00  0.32913364160E+02  0.25500000000E-02 0.  1.
<mgrwt>
<rscale>  0 0.65851886E+02</rscale>
<asrwt>0</asrwt>
<pdfrwt beam="1">  1        3 0.49110669E-02 0.65851886E+02</pdfrwt>
<pdfrwt beam="2">  1       -3 0.52248506E-02 0.65851886E+02</pdfrwt>
<totfact> 0.89355010E+04</totfact>
</mgrwt>
</event>
<event>
 4    1  0.7692565E-003  0.6125439E+02  0.7818608E-02  0.1392642E+00
         -3   -1    0    0  501    0 -0.00000000000E+00  0.00000000000E+00  0.31158544532E+02  0.31158708227E+02  0.10100000000E+00 0.  1.
          3   -1    0    0    0  501  0.00000000000E+00 -0.00000000000E+00 -0.30104582220E+02  0.30104751646E+02  0.10100000000E+00 0.  1.
          2    1    1    2    0  502 -0.25009285430E+02  0.12860259439E+02  0.12660327965E+02  0.30840469212E+02  0.25500000000E-02 0.  1.
         -2    1    1    2  502    0  0.25009285430E+02 -0.12860259439E+02 -0.11606365653E+02  0.30422990660E+02  0.25500000000E-02 0.  1.
<mgrwt>
<rscale>  0 0.61254393E+02</rscale>
<asrwt>0</asrwt>
<pdfrwt beam="2">  1        3 0.46314999E-02 0.61254393E+02</pdfrwt>
<pdfrwt beam="1">  1       -3 0.47936478E-02 0.61254393E+02</pdfrwt>
<totfact> 0.10916638E+05</totfact>
</mgrwt>
</event>
<event>
 4    1  0.7692565E-003  0.5475767E+02  0.7818608E-02  0.1421248E+00
         -3   -1    0    0  501    0 -0.00000000000E+00  0.00000000000E+00  0.12500910236E+02  0.12501318240E+02  0.10100000000E+00 0.  1.
          3   -1    0    0    0  501  0.00000000000E+00 -0.00000000000E+00 -0.59962259615E+02  0.59962344677E+02  0.10100000000E+00 0.  1.
          2    1    1    2    0  502  0.17806116082E+02  0.13056605605E+02 -0.23075771341E+01  0.22200397262E+02  0.25500000000E-02 0. -1.
         -2    1    1    2  502    0 -0.17806116082E+02 -0.13056605605E+02 -0.45153772245E+02  0.50263265655E+02  0.25500000000E-02 0. -1.
<mgrwt>
<rscale>  0 0.54757673E+02</rscale>
<asrwt>0</asrwt>
<pdfrwt beam="2">  1        3 0.92250008E-02 0.54757673E+02</pdfrwt>
<pdfrwt beam="1">  1       -3 0.19232549E-02 0.54757673E+02</pdfrwt>
<totfact> 0.14165702E+05</totfact>
</mgrwt>
</event>
<event>
 4    1  0.7692565E-003  0.6069053E+02  0.7818608E-02  0.1394957E+00
          3   -1    0    0    0  501  0.00000000000E+00  0.00000000000E+00  0.59882804041E+01  0.59891320905E+01  0.10100000000E+00 0.  1.
         -3   -1    0    0  501    0 -0.00000000000E+00 -0.00000000000E+00 -0.15376109090E+03  0.15376112407E+03  0.10100000000E+00 0.  1.
          2    1    1    2    0  502 -0.18107579962E+02 -0.15763478099E+02 -0.25033295008E+02  0.34684831833E+02  0.25500000000E-02 0.  1.
         -2    1    1    2  502    0  0.18107579962E+02  0.15763478099E+02 -0.12273951548E+03  0.12506542433E+03  0.25500000000E-02 0.  1.
<mgrwt>
<rscale>  0 0.60690533E+02</rscale>
<asrwt>0</asrwt>
<pdfrwt beam="1">  1        3 0.92134209E-03 0.60690533E+02</pdfrwt>
<pdfrwt beam="2">  1       -3 0.23655617E-01 0.60690533E+02</pdfrwt>
<totfact> 0.89829260E+04</totfact>
</mgrwt>
</event>
<event>
 4    1  0.7692565E-003  0.4870561E+02  0.7818608E-02  0.1452451E+00
         -3   -1    0    0  501    0 -0.00000000000E+00  0.00000000000E+00  0.65842279536E+02  0.65842357001E+02  0.10100000000E+00 0.  1.
          3   -1    0    0    0  501  0.00000000000E+00 -0.00000000000E+00 -0.90069028008E+01  0.90074690709E+01  0.10100000000E+00 0.  1.
          2    1    1    2    0  502  0.93574406349E+01 -0.22477734982E+02  0.29184281394E+02  0.38007006620E+02  0.25500000000E-02 0. -1.
         -2    1    1    2  502    0 -0.93574406349E+01  0.22477734982E+02  0.27651095341E+02  0.36842819453E+02  0.25500000000E-02 0. -1.
<mgrwt>
<rscale>  0 0.48705610E+02</rscale>
<asrwt>0</asrwt>
<pdfrwt beam="2">  1        3 0.13857269E-02 0.48705610E+02</pdfrwt>
<pdfrwt beam="1">  1       -3 0.10129631E-01 0.48705610E+02</pdfrwt>
<totfact> 0.18938347E+05</totfact>
</mgrwt>
</event>
<event>
 4    1  0.7692565E-003  0.6402823E+02  0.7818608E-02  0.1381665E+00
         -3   -1    0    0  501    0 -0.00000000000E+00  0.00000000000E+00  0.13994547577E+04  0.13994547613E+04  0.10100000000E+00 0.  1.
          3   -1    0    0    0  501  0.00000000000E+00 -0.00000000000E+00 -0.72887325249E+00  0.73583776622E+00  0.10100000000E+00 0.  1.
          2    1    1    2    0  502 -0.98850287020E+01  0.24749005583E+02  0.10872879508E+04  0.10876145066E+04  0.25500000000E-02 0.  1.
         -2    1    1    2  502    0  0.98850287020E+01 -0.24749005583E+02  0.31143793369E+03  0.31257609253E+03  0.25500000000E-02 0.  1.
<mgrwt>
<rscale>  0 0.64028228E+02</rscale>
<asrwt>0</asrwt>
<pdfrwt beam="2">  1        3 0.11267082E-03 0.64028228E+02</pdfrwt>
<pdfrwt beam="1">  1       -3 0.21530038E+00 0.64028228E+02</pdfrwt>
<totfact> 0.16845811E+04</totfact>
</mgrwt>
</event>
<event>
 4    1  0.7692565E-003  0.5643754E+02  0.7818608E-02  0.1413420E+00
          3   -1    0    0    0  501  0.00000000000E+00  0.00000000000E+00  0.97230030964E+01  0.97235276630E+01  0.10100000000E+00 0.  1.
         -3   -1    0    0  501    0 -0.00000000000E+00 -0.00000000000E+00 -0.81895695617E+02  0.81895757898E+02  0.10100000000E+00 0.  1.
          2    1    1    2    0  502 -0.53180258484E+01 -0.25816736974E+02 -0.52442496549E+02  0.58694128818E+02  0.25500000000E-02 0. -1.
         -2    1    1    2  502    0  0.53180258484E+01  0.25816736974E+02 -0.19730195971E+02  0.32925156742E+02  0.25500000000E-02 0. -1.
<mgrwt>
<rscale>  0 0.56437540E+02</rscale>
<asrwt>0</asrwt>
<pdfrwt beam="1">  1        3 0.14958918E-02 0.56437540E+02</pdfrwt>
<pdfrwt beam="2">  1       -3 0.12599382E-01 0.56437540E+02</pdfrwt>
<totfact> 0.12526684E+05</totfact>
</mgrwt>
</event>
<event>
 4    1  0.7692565E-003  0.4917639E+02  0.7818608E-02  0.1449835E+00
         -3   -1    0    0  501    0 -0.00000000000E+00  0.00000000000E+00  0.53969097330E+02  0.53969191837E+02  0.10100000000E+00 0. -1.
          3   -1    0    0    0  501  0.00000000000E+00 -0.00000000000E+00 -0.11201992739E+02  0.11202448051E+02  0.10100000000E+00 0. -1.
          2    1    1    2    0  502 -0.22205189991E+02 -0.52609922193E+01  0.92495543130E+01  0.24623215939E+02  0.25500000000E-02 0. -1.
         -2    1    1    2  502    0  0.22205189991E+02  0.52609922193E+01  0.33517550277E+02  0.40548423949E+02  0.25500000000E-02 0. -1.
<mgrwt>
<rscale>  0 0.49176391E+02</rscale>
<asrwt>0</asrwt>
<pdfrwt beam="2">  1        3 0.17234258E-02 0.49176391E+02</pdfrwt>
<pdfrwt beam="1">  1       -3 0.83029804E-02 0.49176391E+02</pdfrwt>
<totfact> 0.18943338E+05</totfact>
</mgrwt>
</event>
<event>
 4    1  0.7692565E-003  0.4235389E+02  0.7818608E-02  0.1491571E+00
          3   -1    0    0    0  501  0.00000000000E+00  0.00000000000E+00  0.33406754722E+03  0.33406756249E+03  0.10100000000E+00 0.  1.
         -3   -1    0    0  501    0 -0.00000000000E+00 -0.00000000000E+00 -0.13405171071E+01  0.13443165976E+01  0.10100000000E+00 0.  1.
          2    1    1    2    0  502  0.17988733080E+02 -0.11145184668E+02  0.17276466786E+03  0.17405585347E+03  0.25500000000E-02 0. -1.
         -2    1    1    2  502    0 -0.17988733080E+02  0.11145184668E+02  0.15996236225E+03  0.16135602562E+03  0.25500000000E-02 0. -1.
<mgrwt>
<rscale>  0 0.42353891E+02</rscale>
<asrwt>0</asrwt>
<pdfrwt beam="1">  1        3 0.51395224E-01 0.42353891E+02</pdfrwt>
<pdfrwt beam="2">  1       -3 0.20652715E-03 0.42353891E+02</pdfrwt>
<totfact> 0.16112420E+05</totfact>
</mgrwt>
</event>
<event>
 4    1  0.7692565E-003  0.5707667E+02  0.7818608E-02  0.1410526E+00
          3   -1    0    0    0  501  0.00000000000E+00  0.00000000000E+00  0.85307500702E+01  0.85313479451E+01  0.10100000000E+00 0.  1.
         -3   -1    0    0  501    0 -0.00000000000E+00 -0.00000000000E+00 -0.95466714393E+02  0.95466767820E+02  0.10100000000E+00 0.  1.
          2    1    1    2    0  502 -0.79933874544E+01 -0.25658127958E+02 -0.25971979873E+02  0.37373486837E+02  0.25500000000E-02 0.  1.
         -2    1    1    2  502    0  0.79933874544E+01  0.25658127958E+02 -0.60963984449E+02  0.66624628928E+02  0.25500000000E-02 0.  1.
<mgrwt>
<rscale>  0 0.57076669E+02</rscale>
<asrwt>0</asrwt>
<pdfrwt beam="1">  1        3 0.13124733E-02 0.57076669E+02</pdfrwt>
<pdfrwt beam="2">  1       -3 0.14687236E-01 0.57076669E+02</pdfrwt>
<totfact> 0.11830662E+05</totfact>
</mgrwt>
</event>
<event>
 4    1  0.7692565E-003  0.6327482E+02  0.7818608E-02  0.1384581E+00
          3   -1    0    0    0  501  0.00000000000E+00  0.00000000000E+00  0.20573939634E+04  0.20573939659E+04  0.10100000000E+00 0.  1.
         -3   -1    0    0  501    0 -0.00000000000E+00 -0.00000000000E+00 -0.48125724485E+00  0.49174133010E+00  0.10100000000E+00 0.  1.
          2    1    1    2    0  502 -0.19122852235E+01 -0.27686924679E+02  0.15224451323E+04  0.15226980671E+04  0.25500000000E-02 0.  1.
         -2    1    1    2  502    0  0.19122852235E+01  0.27686924679E+02  0.53446757384E+03  0.53518764011E+03  0.25500000000E-02 0.  1.
<mgrwt>
<rscale>  0 0.63274823E+02</rscale>
<asrwt>0</asrwt>
<pdfrwt beam="1">  1        3 0.31652485E+00 0.63274823E+02</pdfrwt>
<pdfrwt beam="2">  1       -3 0.74845787E-04 0.63274823E+02</pdfrwt>
<totfact> 0.90146711E+03</totfact>
</mgrwt>
</event>
<event>
 4    1  0.7692565E-003  0.6885562E+02  0.7818608E-02  0.1364028E+00
          3   -1    0    0    0  501  0.00000000000E+00  0.00000000000E+00  0.22282784606E+02  0.22283013504E+02  0.10100000000E+00 0.  1.
         -3   -1    0    0  501    0 -0.00000000000E+00 -0.00000000000E+00 -0.53191824503E+02  0.53191920391E+02  0.10100000000E+00 0.  1.
          2    1    1    2    0  502 -0.29403494566E+02  0.16696738684E+02 -0.83568867794E+01  0.34830792964E+02  0.25500000000E-02 0. -1.
         -2    1    1    2  502    0  0.29403494566E+02 -0.16696738684E+02 -0.22552153117E+02  0.40644140931E+02  0.25500000000E-02 0. -1.
<mgrwt>
<rscale>  0 0.68855624E+02</rscale>
<asrwt>0</asrwt>
<pdfrwt beam="1">  1        3 0.34281457E-02 0.68855624E+02</pdfrwt>
<pdfrwt beam="2">  1       -3 0.81833826E-02 0.68855624E+02</pdfrwt>
<totfact> 0.77668148E+04</totfact>
</mgrwt>
</event>
<event>
 4    1  0.7692565E-003  0.4982654E+02  0.7818608E-02  0.1446279E+00
          3   -1    0    0    0  501  0.00000000000E+00  0.00000000000E+00  0.78897224889E+00  0.79541071750E+00  0.10100000000E+00 0.  1.
         -3   -1    0    0  501    0 -0.00000000000E+00 -0.00000000000E+00 -0.78347963778E+03  0.78347964429E+03  0.10100000000E+00 0.  1.
          2    1    1    2    0  502  0.65639946569E+00 -0.24505376943E+02 -0.46125450621E+03  0.46190547070E+03  0.25500000000E-02 0.  1.
         -2    1    1    2  502    0 -0.65639946569E+00  0.24505376943E+02 -0.32143615932E+03  0.32236958430E+03  0.25500000000E-02 0.  1.
<mgrwt>
<rscale>  0 0.49826539E+02</rscale>
<asrwt>0</asrwt>
<pdfrwt beam="1">  1        3 0.12187674E-03 0.49826539E+02</pdfrwt>
<pdfrwt beam="2">  1       -3 0.12053520E+00 0.49826539E+02</pdfrwt>
<totfact> 0.59394208E+04</totfact>
</mgrwt>
</event>
<event>
 4    1  0.7692565E-003  0.4268471E+02  0.7818608E-02  0.1489336E+00
          3   -1    0    0    0  501  0.00000000000E+00  0.00000000000E+00  0.12494800799E+03  0.12494804881E+03  0.10100000000E+00 0.  1.
         -3   -1    0    0  501    0 -0.00000000000E+00 -0.00000000000E+00 -0.36447435843E+01  0.36461427283E+01  0.10100000000E+00 0.  1.
          2    1    1    2    0  502 -0.21034889066E+02 -0.21098988516E+01  0.51828212052E+02  0.55973938598E+02  0.25500000000E-02 0.  1.
         -2    1    1    2  502    0  0.21034889066E+02  0.21098988516E+01  0.69475052352E+02  0.72620252940E+02  0.25500000000E-02 0.  1.
<mgrwt>
<rscale>  0 0.42684706E+02</rscale>
<asrwt>0</asrwt>
<pdfrwt beam="1">  1        3 0.19222882E-01 0.42684706E+02</pdfrwt>
<pdfrwt beam="2">  1       -3 0.56084051E-03 0.42684706E+02</pdfrwt>
<totfact> 0.23170825E+05</totfact>
</mgrwt>
</event>
<event>
 4    1  0.7692565E-003  0.7281504E+02  0.7818608E-02  0.1350774E+00
          3   -1    0    0    0  501  0.00000000000E+00  0.00000000000E+00  0.82300439567E+02  0.82300501541E+02  0.10100000000E+00 0. -1.
         -3   -1    0    0  501    0 -0.00000000000E+00 -0.00000000000E+00 -0.16105488969E+02  0.16105805659E+02  0.10100000000E+00 0. -1.
          2    1    1    2    0  502 -0.23173292971E+02  0.16540109187E+02  0.63764825757E+02  0.69832153980E+02  0.25500000000E-02 0.  1.
         -2    1    1    2  502    0  0.23173292971E+02 -0.16540109187E+02  0.24301248407E+01  0.28574153221E+02  0.25500000000E-02 0.  1.
<mgrwt>
<rscale>  0 0.72815038E+02</rscale>
<asrwt>0</asrwt>
<pdfrwt beam="1">  1        3 0.12661635E-01 0.72815038E+02</pdfrwt>
<pdfrwt beam="2">  1       -3 0.24777966E-02 0.72815038E+02</pdfrwt>
<totfact> 0.63596705E+04</totfact>
</mgrwt>
</event>
<event>
 4    1  0.7692565E-003  0.1002241E+03  0.7818608E-02  0.1279825E+00
          3   -1    0    0    0  501  0.00000000000E+00  0.00000000000E+00  0.49621644322E+02  0.49621747110E+02  0.10100000000E+00 0. -1.
         -3   -1    0    0  501    0 -0.00000000000E+00 -0.00000000000E+00 -0.50607141980E+02  0.50607242766E+02  0.10100000000E+00 0. -1.
          2    1    1    2    0  502  0.15711527003E+02 -0.44507951348E+02 -0.17328347511E+02  0.50280030309E+02  0.25500000000E-02 0. -1.
         -2    1    1    2  502    0 -0.15711527003E+02  0.44507951348E+02  0.16342849853E+02  0.49948959567E+02  0.25500000000E-02 0. -1.
<mgrwt>
<rscale>  0 0.10022414E+03</rscale>
<asrwt>0</asrwt>
<pdfrwt beam="1">  1        3 0.76341148E-02 0.10022414E+03</pdfrwt>
<pdfrwt beam="2">  1       -3 0.77857298E-02 0.10022414E+03</pdfrwt>
<totfact> 0.26740585E+04</totfact>
</mgrwt>
</event>
<event>
 4    1  0.7692565E-003  0.6343984E+02  0.7818608E-02  0.1383938E+00
         -3   -1    0    0  501    0 -0.00000000000E+00  0.00000000000E+00  0.20706403627E+02  0.20706649950E+02  0.10100000000E+00 0. -1.
          3   -1    0    0    0  501  0.00000000000E+00 -0.00000000000E+00 -0.48590822136E+02  0.48590927104E+02  0.10100000000E+00 0. -1.
          2    1    1    2    0  502  0.44011914087E+01  0.20653921023E+02  0.11911740402E+02  0.24245504849E+02  0.25500000000E-02 0. -1.
         -2    1    1    2  502    0 -0.44011914087E+01 -0.20653921023E+02 -0.39796158912E+02  0.45052072206E+02  0.25500000000E-02 0. -1.
<mgrwt>
<rscale>  0 0.63439841E+02</rscale>
<asrwt>0</asrwt>
<pdfrwt beam="2">  1        3 0.74755381E-02 0.63439841E+02</pdfrwt>
<pdfrwt beam="1">  1       -3 0.31856276E-02 0.63439841E+02</pdfrwt>
<totfact> 0.97698266E+04</totfact>
</mgrwt>
</event>
<event>
 4    1  0.7692565E-003  0.8068439E+02  0.7818608E-02  0.1327120E+00
         -3   -1    0    0  501    0 -0.00000000000E+00  0.00000000000E+00  0.22702306185E+03  0.22702308431E+03  0.10100000000E+00 0.  1.
          3   -1    0    0    0  501  0.00000000000E+00 -0.00000000000E+00 -0.71684637927E+01  0.71691752766E+01  0.10100000000E+00 0.  1.
          2    1    1    2    0  502  0.29069242493E+02 -0.26660177653E+02  0.13450620871E+03  0.14017027545E+03  0.25500000000E-02 0.  1.
         -2    1    1    2  502    0 -0.29069242493E+02  0.26660177653E+02  0.85348389347E+02  0.94021984143E+02  0.25500000000E-02 0.  1.
<mgrwt>
<rscale>  0 0.80684386E+02</rscale>
<asrwt>0</asrwt>
<pdfrwt beam="2">  1        3 0.11028970E-02 0.80684386E+02</pdfrwt>
<pdfrwt beam="1">  1       -3 0.34926684E-01 0.80684386E+02</pdfrwt>
<totfact> 0.37173640E+04</totfact>
</mgrwt>
</event>
<event>
 4    1  0.7692565E-003  0.4293859E+02  0.7818608E-02  0.1487637E+00
          3   -1    0    0    0  501  0.00000000000E+00  0.00000000000E+00  0.13129932624E+03  0.13129936508E+03  0.10100000000E+00 0.  1.
         -3   -1    0    0  501    0 -0.00000000000E+00 -0.00000000000E+00 -0.35097665385E+01  0.35112194683E+01  0.10100000000E+00 0.  1.
          2    1    1    2    0  502 -0.18063587709E+02  0.11322809802E+02  0.55932712826E+02  0.59857894996E+02  0.25500000000E-02 0. -1.
         -2    1    1    2  502    0  0.18063587709E+02 -0.11322809802E+02  0.71856846871E+02  0.74952689555E+02  0.25500000000E-02 0. -1.
<mgrwt>
<rscale>  0 0.42938586E+02</rscale>
<asrwt>0</asrwt>
<pdfrwt beam="1">  1        3 0.20200007E-01 0.42938586E+02</pdfrwt>
<pdfrwt beam="2">  1       -3 0.54007896E-03 0.42938586E+02</pdfrwt>
<totfact> 0.22530719E+05</totfact>
</mgrwt>
</event>
<event>
 4    1  0.7692565E-003  0.4536958E+02  0.7818608E-02  0.1472048E+00
          3   -1    0    0    0  501  0.00000000000E+00  0.00000000000E+00  0.44126496553E+02  0.44126612141E+02  0.10100000000E+00 0. -1.
         -3   -1    0    0  501    0 -0.00000000000E+00 -0.00000000000E+00 -0.11661572015E+02  0.11662009384E+02  0.10100000000E+00 0. -1.
          2    1    1    2    0  502 -0.22513600559E+02  0.16421464752E+01  0.13471668100E+02  0.26287729135E+02  0.25500000000E-02 0.  1.
         -2    1    1    2  502    0  0.22513600559E+02 -0.16421464752E+01  0.18993256438E+02  0.29500892390E+02  0.25500000000E-02 0.  1.
<mgrwt>
<rscale>  0 0.45369582E+02</rscale>
<asrwt>0</asrwt>
<pdfrwt beam="1">  1        3 0.67887342E-02 0.45369582E+02</pdfrwt>
<pdfrwt beam="2">  1       -3 0.17941306E-02 0.45369582E+02</pdfrwt>
<totfact> 0.23744944E+05</totfact>
</mgrwt>
</event>
<event>
 4    1  0.7692565E-003  0.4227989E+02  0.7818608E-02  0.1492074E+00
         -3   -1    0    0  501    0 -0.00000000000E+00  0.00000000000E+00  0.35914799738E+02  0.35914941754E+02  0.10100000000E+00 0.  1.
          3   -1    0    0    0  501  0.00000000000E+00 -0.00000000000E+00 -0.12442891780E+02  0.12443301686E+02  0.10100000000E+00 0.  1.
          2    1    1    2    0  502  0.20640341237E+02  0.45594398859E+01  0.12069663637E+02  0.24341096221E+02  0.25500000000E-02 0.  1.
         -2    1    1    2  502    0 -0.20640341237E+02 -0.45594398859E+01  0.11402244322E+02  0.24017147219E+02  0.25500000000E-02 0.  1.
<mgrwt>
<rscale>  0 0.42279892E+02</rscale>
<asrwt>0</asrwt>
<pdfrwt beam="2">  1        3 0.19143335E-02 0.42279892E+02</pdfrwt>
<pdfrwt beam="1">  1       -3 0.55253963E-02 0.42279892E+02</pdfrwt>
<totfact> 0.28858904E+05</totfact>
</mgrwt>
</event>
<event>
 4    1  0.7692565E-003  0.5010985E+02  0.7818608E-02  0.1444750E+00
          3   -1    0    0    0  501  0.00000000000E+00  0.00000000000E+00  0.33555953400E+03  0.33555954920E+03  0.10100000000E+00 0.  1.
         -3   -1    0    0  501    0 -0.00000000000E+00 -0.00000000000E+00 -0.18693755280E+01  0.18721019909E+01  0.10100000000E+00 0.  1.
          2    1    1    2    0  502 -0.24896253592E+02 -0.12549932027E+01  0.14987516027E+03  0.15193407164E+03  0.25500000000E-02 0.  1.
         -2    1    1    2  502    0  0.24896253592E+02  0.12549932027E+01  0.18381499820E+03  0.18549757955E+03  0.25500000000E-02 0.  1.
<mgrwt>
<rscale>  0 0.50109853E+02</rscale>
<asrwt>0</asrwt>
<pdfrwt beam="1">  1        3 0.51624714E-01 0.50109853E+02</pdfrwt>
<pdfrwt beam="2">  1       -3 0.28780736E-03 0.50109853E+02</pdfrwt>
<totfact> 0.10626848E+05</totfact>
</mgrwt>
</event>
<event>
 4    1  0.7692565E-003  0.5156154E+02  0.7818608E-02  0.1437097E+00
         -3   -1    0    0  501    0 -0.00000000000E+00  0.00000000000E+00  0.30445563270E+01  0.30462311515E+01  0.10100000000E+00 0.  1.
          3   -1    0    0    0  501  0.00000000000E+00 -0.00000000000E+00 -0.21824529944E+03  0.21824532281E+03  0.10100000000E+00 0.  1.
          2    1    1    2    0  502  0.31258766629E+01 -0.25376256140E+02 -0.93416317903E+02  0.96852124074E+02  0.25500000000E-02 0.  1.
         -2    1    1    2  502    0 -0.31258766629E+01  0.25376256140E+02 -0.12178442521E+03  0.12443942988E+03  0.25500000000E-02 0.  1.
<mgrwt>
<rscale>  0 0.51561536E+02</rscale>
<asrwt>0</asrwt>
<pdfrwt beam="2">  1        3 0.33576318E-01 0.51561536E+02</pdfrwt>
<pdfrwt beam="1">  1       -3 0.46852408E-03 0.51561536E+02</pdfrwt>
<totfact> 0.12067348E+05</totfact>
</mgrwt>
</event>
<event>
 4    1  0.7692565E-003  0.4543373E+02  0.7818608E-02  0.1471652E+00
          3   -1    0    0    0  501  0.00000000000E+00  0.00000000000E+00  0.12642409937E+01  0.12682690134E+01  0.10100000000E+00 0. -1.
         -3   -1    0    0  501    0 -0.00000000000E+00 -0.00000000000E+00 -0.40754093517E+03  0.40754094768E+03  0.10100000000E+00 0. -1.
          2    1    1    2    0  502  0.17718065760E+02 -0.12648135108E+02 -0.26155606541E+03  0.26246043613E+03  0.25500000000E-02 0.  1.
         -2    1    1    2  502    0 -0.17718065760E+02  0.12648135108E+02 -0.14472062876E+03  0.14634878056E+03  0.25500000000E-02 0.  1.
<mgrwt>
<rscale>  0 0.45433726E+02</rscale>
<asrwt>0</asrwt>
<pdfrwt beam="1">  1        3 0.19480975E-03 0.45433726E+02</pdfrwt>
<pdfrwt beam="2">  1       -3 0.62698812E-01 0.45433726E+02</pdfrwt>
<totfact> 0.12112492E+05</totfact>
</mgrwt>
</event>
<event>
 4    1  0.7692565E-003  0.6640134E+02  0.7818608E-02  0.1372776E+00
         -3   -1    0    0  501    0 -0.00000000000E+00  0.00000000000E+00  0.12917976888E+01  0.12957400468E+01  0.10100000000E+00 0. -1.
          3   -1    0    0    0  501  0.00000000000E+00 -0.00000000000E+00 -0.85199090582E+03  0.85199091181E+03  0.10100000000E+00 0. -1.
          2    1    1    2    0  502 -0.11463475492E+02 -0.21004452108E+02 -0.12959773609E+03  0.13178835868E+03  0.25500000000E-02 0.  1.
         -2    1    1    2  502    0  0.11463475492E+02  0.21004452108E+02 -0.72110137204E+03  0.72149829317E+03  0.25500000000E-02 0.  1.
<mgrwt>
<rscale>  0 0.66401338E+02</rscale>
<asrwt>0</asrwt>
<pdfrwt beam="2">  1        3 0.13107538E+00 0.66401338E+02</pdfrwt>
<pdfrwt beam="1">  1       -3 0.19904251E-03 0.66401338E+02</pdfrwt>
<totfact> 0.26765717E+04</totfact>
</mgrwt>
</event>
<event>
 4    1  0.7692565E-003  0.5903886E+02  0.7818608E-02  0.1401910E+00
          3   -1    0    0    0  501  0.00000000000E+00  0.00000000000E+00  0.14287850947E+03  0.14287854516E+03  0.10100000000E+00 0.  1.
         -3   -1    0    0  501    0 -0.00000000000E+00 -0.00000000000E+00 -0.60984109901E+01  0.60992472982E+01  0.10100000000E+00 0.  1.
          2    1    1    2    0  502 -0.20268731908E+02 -0.53662558667E+01  0.12082418588E+03  0.12262993964E+03  0.25500000000E-02 0. -1.
         -2    1    1    2  502    0  0.20268731908E+02  0.53662558667E+01  0.15955912592E+02  0.26347852822E+02  0.25500000000E-02 0. -1.
<mgrwt>
<rscale>  0 0.59038863E+02</rscale>
<asrwt>0</asrwt>
<pdfrwt beam="1">  1        3 0.21981375E-01 0.59038863E+02</pdfrwt>
<pdfrwt beam="2">  1       -3 0.93828420E-03 0.59038863E+02</pdfrwt>
<totfact> 0.98523248E+04</totfact>
</mgrwt>
</event>
<event>
 4    1  0.7692565E-003  0.5555023E+02  0.7818608E-02  0.1417515E+00
          3   -1    0    0    0  501  0.00000000000E+00  0.00000000000E+00  0.55430270908E+01  0.55439471795E+01  0.10100000000E+00 0. -1.
         -3   -1    0    0  501    0 -0.00000000000E+00 -0.00000000000E+00 -0.13916362365E+03  0.13916366031E+03  0.10100000000E+00 0. -1.
          2    1    1    2    0  502 -0.18200024140E+02  0.13121676300E+02 -0.10945876738E+03  0.11173469036E+03  0.25500000000E-02 0. -1.
         -2    1    1    2  502    0  0.18200024140E+02 -0.13121676300E+02 -0.24161829188E+02  0.32972917126E+02  0.25500000000E-02 0. -1.
<mgrwt>
<rscale>  0 0.55550228E+02</rscale>
<asrwt>0</asrwt>
<pdfrwt beam="1">  1        3 0.85284710E-03 0.55550228E+02</pdfrwt>
<pdfrwt beam="2">  1       -3 0.21409859E-01 0.55550228E+02</pdfrwt>
<totfact> 0.11609077E+05</totfact>
</mgrwt>
</event>
<event>
 4    1  0.7692565E-003  0.4997173E+02  0.7818608E-02  0.1445494E+00
         -3   -1    0    0  501    0 -0.00000000000E+00  0.00000000000E+00  0.55460442304E+01  0.55469638187E+01  0.10100000000E+00 0. -1.
          3   -1    0    0    0  501  0.00000000000E+00 -0.00000000000E+00 -0.11255528072E+03  0.11255532604E+03  0.10100000000E+00 0. -1.
          2    1    1    2    0  502  0.13023129528E+02  0.18819878260E+02 -0.29811338719E+02  0.37583316021E+02  0.25500000000E-02 0. -1.
         -2    1    1    2  502    0 -0.13023129528E+02 -0.18819878260E+02 -0.77197897775E+02  0.80518973837E+02  0.25500000000E-02 0. -1.
<mgrwt>
<rscale>  0 0.49971734E+02</rscale>
<asrwt>0</asrwt>
<pdfrwt beam="2">  1        3 0.17316270E-01 0.49971734E+02</pdfrwt>
<pdfrwt beam="1">  1       -3 0.85331188E-03 0.49971734E+02</pdfrwt>
<totfact> 0.16048568E+05</totfact>
</mgrwt>
</event>
<event>
 4    1  0.7692565E-003  0.4157677E+02  0.7818608E-02  0.1496919E+00
          3   -1    0    0    0  501  0.00000000000E+00  0.00000000000E+00  0.25469625334E+03  0.25469627337E+03  0.10100000000E+00 0. -1.
         -3   -1    0    0  501    0 -0.00000000000E+00 -0.00000000000E+00 -0.16952311813E+01  0.16982372502E+01  0.10100000000E+00 0. -1.
          2    1    1    2    0  502  0.15527530088E+02 -0.12612862767E+02  0.16136785233E+03  0.16260311274E+03  0.25500000000E-02 0. -1.
         -2    1    1    2  502    0 -0.15527530088E+02  0.12612862767E+02  0.91633169829E+02  0.93791397885E+02  0.25500000000E-02 0. -1.
<mgrwt>
<rscale>  0 0.41576771E+02</rscale>
<asrwt>0</asrwt>
<pdfrwt beam="1">  1        3 0.39184294E-01 0.41576771E+02</pdfrwt>
<pdfrwt beam="2">  1       -3 0.26103742E-03 0.41576771E+02</pdfrwt>
<totfact> 0.19246775E+05</totfact>
</mgrwt>
</event>
<event>
 4    1  0.7692565E-003  0.6918678E+02  0.7818608E-02  0.1362880E+00
          3   -1    0    0    0  501  0.00000000000E+00  0.00000000000E+00  0.41841982754E+01  0.41854170889E+01  0.10100000000E+00 0.  1.
         -3   -1    0    0  501    0 -0.00000000000E+00 -0.00000000000E+00 -0.28596240384E+03  0.28596242168E+03  0.10100000000E+00 0.  1.
          2    1    1    2    0  502  0.32649455069E+02  0.95793669712E+01 -0.11471577857E+03  0.11965559347E+03  0.25500000000E-02 0. -1.
         -2    1    1    2  502    0 -0.32649455069E+02 -0.95793669712E+01 -0.16706242700E+03  0.17049224530E+03  0.25500000000E-02 0. -1.
<mgrwt>
<rscale>  0 0.69186785E+02</rscale>
<asrwt>0</asrwt>
<pdfrwt beam="1">  1        3 0.64381816E-03 0.69186785E+02</pdfrwt>
<pdfrwt beam="2">  1       -3 0.43994296E-01 0.69186785E+02</pdfrwt>
<totfact> 0.50572394E+04</totfact>
</mgrwt>
</event>
<event>
 4    1  0.7692565E-003  0.9563665E+02  0.7818608E-02  0.1289749E+00
          3   -1    0    0    0  501  0.00000000000E+00  0.00000000000E+00  0.48002374659E+02  0.48002480914E+02  0.10100000000E+00 0.  1.
         -3   -1    0    0  501    0 -0.00000000000E+00 -0.00000000000E+00 -0.47634772876E+02  0.47634879951E+02  0.10100000000E+00 0.  1.
          2    1    1    2    0  502  0.41581628097E+00  0.34318942934E+02 -0.33112535859E+02  0.47690699143E+02  0.25500000000E-02 0. -1.
         -2    1    1    2  502    0 -0.41581628097E+00 -0.34318942934E+02  0.33480137642E+02  0.47946661722E+02  0.25500000000E-02 0. -1.
<mgrwt>
<rscale>  0 0.95636654E+02</rscale>
<asrwt>0</asrwt>
<pdfrwt beam="1">  1        3 0.73849971E-02 0.95636654E+02</pdfrwt>
<pdfrwt beam="2">  1       -3 0.73284430E-02 0.95636654E+02</pdfrwt>
<totfact> 0.30713157E+04</totfact>
</mgrwt>
</event>
<event>
 4    1  0.7692565E-003  0.9818159E+02  0.7818608E-02  0.1284167E+00
         -3   -1    0    0  501    0 -0.00000000000E+00  0.00000000000E+00  0.16417238174E+03  0.16417241281E+03  0.10100000000E+00 0. -1.
          3   -1    0    0    0  501  0.00000000000E+00 -0.00000000000E+00 -0.14678913533E+02  0.14679261001E+02  0.10100000000E+00 0. -1.
          2    1    1    2    0  502 -0.31802447963E+02  0.26221419573E+02  0.12331825730E+03  0.13002442513E+03  0.25500000000E-02 0. -1.
         -2    1    1    2  502    0  0.31802447963E+02 -0.26221419573E+02  0.26175210908E+02  0.48827248678E+02  0.25500000000E-02 0. -1.
<mgrwt>
<rscale>  0 0.98181588E+02</rscale>
<asrwt>0</asrwt>
<pdfrwt beam="2">  1        3 0.22583234E-02 0.98181588E+02</pdfrwt>
<pdfrwt beam="1">  1       -3 0.25257320E-01 0.98181588E+02</pdfrwt>
<totfact> 0.24231537E+04</totfact>
</mgrwt>
</event>
<event>
 4    1  0.7692565E-003  0.5826472E+02  0.7818608E-02  0.1405262E+00
          3   -1    0    0    0  501  0.00000000000E+00  0.00000000000E+00  0.79785945295E+01  0.79792337769E+01  0.10100000000E+00 0. -1.
         -3   -1    0    0  501    0 -0.00000000000E+00 -0.00000000000E+00 -0.10636649277E+03  0.10636654072E+03  0.10100000000E+00 0. -1.
          2    1    1    2    0  502  0.28454361590E+02 -0.55667634805E+01 -0.43624102914E+02  0.52380358062E+02  0.25500000000E-02 0. -1.
         -2    1    1    2  502    0 -0.28454361590E+02  0.55667634805E+01 -0.54763795329E+02  0.61965416439E+02  0.25500000000E-02 0. -1.
<mgrwt>
<rscale>  0 0.58264720E+02</rscale>
<asrwt>0</asrwt>
<pdfrwt beam="1">  1        3 0.12275290E-02 0.58264720E+02</pdfrwt>
<pdfrwt beam="2">  1       -3 0.16364128E-01 0.58264720E+02</pdfrwt>
<totfact> 0.10967623E+05</totfact>
</mgrwt>
</event>
<event>
 4    1  0.7692565E-003  0.5626891E+02  0.7818608E-02  0.1414192E+00
         -3   -1    0    0  501    0 -0.00000000000E+00  0.00000000000E+00  0.69222473874E+02  0.69222547556E+02  0.10100000000E+00 0.  1.
          3   -1    0    0    0  501  0.00000000000E+00 -0.00000000000E+00 -0.11434532739E+02  0.11434978792E+02  0.10100000000E+00 0.  1.
          2    1    1    2    0  502  0.22420703860E+02 -0.16423410750E+02  0.22624257545E+02  0.35836760710E+02  0.25500000000E-02 0. -1.
         -2    1    1    2  502    0 -0.22420703860E+02  0.16423410750E+02  0.35163683590E+02  0.44820765638E+02  0.25500000000E-02 0. -1.
<mgrwt>
<rscale>  0 0.56268912E+02</rscale>
<asrwt>0</asrwt>
<pdfrwt beam="2">  1        3 0.17591989E-02 0.56268912E+02</pdfrwt>
<pdfrwt beam="1">  1       -3 0.10649651E-01 0.56268912E+02</pdfrwt>
<totfact> 0.12953848E+05</totfact>
</mgrwt>
</event>
<event>
 4    1  0.7692565E-003  0.5321577E+02  0.7818608E-02  0.1428730E+00
          3   -1    0    0    0  501  0.00000000000E+00  0.00000000000E+00  0.79451185340E+02  0.79451249537E+02  0.10100000000E+00 0.  1.
         -3   -1    0    0  501    0 -0.00000000000E+00 -0.00000000000E+00 -0.89105212379E+01  0.89110936328E+01  0.10100000000E+00 0.  1.
          2    1    1    2    0  502  0.10240165799E+02  0.18858852646E+02  0.61390824260E+02  0.65033457763E+02  0.25500000000E-02 0. -1.
         -2    1    1    2  502    0 -0.10240165799E+02 -0.18858852646E+02  0.91498398420E+01  0.23328885407E+02  0.25500000000E-02 0. -1.
<mgrwt>
<rscale>  0 0.53215772E+02</rscale>
<asrwt>0</asrwt>
<pdfrwt beam="1">  1        3 0.12223309E-01 0.53215772E+02</pdfrwt>
<pdfrwt beam="2">  1       -3 0.13708984E-02 0.53215772E+02</pdfrwt>
<totfact> 0.14660372E+05</totfact>
</mgrwt>
</event>
<event>
 4    1  0.7692565E-003  0.4802868E+02  0.7818608E-02  0.1456274E+00
         -3   -1    0    0  501    0 -0.00000000000E+00  0.00000000000E+00  0.69141999107E+01  0.69149375561E+01  0.10100000000E+00 0.  1.
          3   -1    0    0    0  501  0.00000000000E+00 -0.00000000000E+00 -0.83401174502E+02  0.83401235658E+02  0.10100000000E+00 0.  1.
          2    1    1    2    0  502 -0.21206397629E+02 -0.93535694115E+01 -0.26426768333E+02  0.35150741844E+02  0.25500000000E-02 0. -1.
         -2    1    1    2  502    0  0.21206397629E+02  0.93535694115E+01 -0.50060206259E+02  0.55165431371E+02  0.25500000000E-02 0. -1.
<mgrwt>
<rscale>  0 0.48028677E+02</rscale>
<asrwt>0</asrwt>
<pdfrwt beam="2">  1        3 0.12831011E-01 0.48028677E+02</pdfrwt>
<pdfrwt beam="1">  1       -3 0.10637846E-02 0.48028677E+02</pdfrwt>
<totfact> 0.18887065E+05</totfact>
</mgrwt>
</event>
<event>
 4    1  0.7692565E-003  0.4279557E+02  0.7818608E-02  0.1488592E+00
         -3   -1    0    0  501    0 -0.00000000000E+00  0.00000000000E+00  0.51026856902E+03  0.51026857901E+03  0.10100000000E+00 0.  1.
          3   -1    0    0    0  501  0.00000000000E+00 -0.00000000000E+00 -0.89445028011E+00  0.90013460304E+00  0.10100000000E+00 0.  1.
          2    1    1    2    0  502 -0.15878916190E+02  0.14330141239E+02  0.24739898584E+03  0.24832187002E+03  0.25500000000E-02 0. -1.
         -2    1    1    2  502    0  0.15878916190E+02 -0.14330141239E+02  0.26197513290E+03  0.26284684360E+03  0.25500000000E-02 0. -1.
<mgrwt>
<rscale>  0 0.42795572E+02</rscale>
<asrwt>0</asrwt>
<pdfrwt beam="2">  1        3 0.13804567E-03 0.42795572E+02</pdfrwt>
<pdfrwt beam="1">  1       -3 0.78503346E-01 0.42795572E+02</pdfrwt>
<totfact> 0.12105769E+05</totfact>
</mgrwt>
</event>
<event>
 4    1  0.7692565E-003  0.1178506E+03  0.7818608E-02  0.1246686E+00
          3   -1    0    0    0  501  0.00000000000E+00  0.00000000000E+00  0.16029952716E+02  0.16030270899E+02  0.10100000000E+00 0.  1.
         -3   -1    0    0  501    0 -0.00000000000E+00 -0.00000000000E+00 -0.21660401410E+03  0.21660403765E+03  0.10100000000E+00 0.  1.
          2    1    1    2    0  502  0.16564449370E+02 -0.35108828245E+02 -0.18779411119E+03  0.19176454054E+03  0.25500000000E-02 0. -1.
         -2    1    1    2  502    0 -0.16564449370E+02  0.35108828245E+02 -0.12779950195E+02  0.40869768009E+02  0.25500000000E-02 0. -1.
<mgrwt>
<rscale>  0 0.11785061E+03</rscale>
<asrwt>0</asrwt>
<pdfrwt beam="1">  1        3 0.24661730E-02 0.11785061E+03</pdfrwt>
<pdfrwt beam="2">  1       -3 0.33323719E-01 0.11785061E+03</pdfrwt>
<totfact> 0.13325915E+04</totfact>
</mgrwt>
</event>
<event>
 4    1  0.7692565E-003  0.4728674E+02  0.7818608E-02  0.1460551E+00
          3   -1    0    0    0  501  0.00000000000E+00  0.00000000000E+00  0.14080144650E+02  0.14080506893E+02  0.10100000000E+00 0. -1.
         -3   -1    0    0  501    0 -0.00000000000E+00 -0.00000000000E+00 -0.39700993344E+02  0.39701121817E+02  0.10100000000E+00 0. -1.
          2    1    1    2    0  502 -0.20708321179E+02  0.10665734116E+02 -0.82021911837E+01  0.24695513702E+02  0.25500000000E-02 0. -1.
         -2    1    1    2  502    0  0.20708321179E+02 -0.10665734116E+02 -0.17418657510E+02  0.29086115008E+02  0.25500000000E-02 0. -1.
<mgrwt>
<rscale>  0 0.47286739E+02</rscale>
<asrwt>0</asrwt>
<pdfrwt beam="1">  1        3 0.21662139E-02 0.47286739E+02</pdfrwt>
<pdfrwt beam="2">  1       -3 0.61078828E-02 0.47286739E+02</pdfrwt>
<totfact> 0.21531056E+05</totfact>
</mgrwt>
</event>
<event>
 4    1  0.7692565E-003  0.8179633E+02  0.7818608E-02  0.1324030E+00
         -3   -1    0    0  501    0 -0.00000000000E+00  0.00000000000E+00  0.31817474442E+03  0.31817476045E+03  0.10100000000E+00 0. -1.
          3   -1    0    0    0  501  0.00000000000E+00 -0.00000000000E+00 -0.52565463600E+01  0.52575165844E+01  0.10100000000E+00 0. -1.
          2    1    1    2    0  502 -0.18221848549E+02  0.36410462235E+02  0.17172335260E+03  0.17648418445E+03  0.25500000000E-02 0. -1.
         -2    1    1    2  502    0  0.18221848549E+02 -0.36410462235E+02  0.14119484546E+03  0.14694809259E+03  0.25500000000E-02 0. -1.
<mgrwt>
<rscale>  0 0.81796327E+02</rscale>
<asrwt>0</asrwt>
<pdfrwt beam="2">  1        3 0.80877529E-03 0.81796327E+02</pdfrwt>
<pdfrwt beam="1">  1       -3 0.48950037E-01 0.81796327E+02</pdfrwt>
<totfact> 0.30898502E+04</totfact>
</mgrwt>
</event>
<event>
 4    1  0.7692565E-003  0.5073668E+02  0.7818608E-02  0.1441408E+00
         -3   -1    0    0  501    0 -0.00000000000E+00  0.00000000000E+00  0.25156867336E+02  0.25157070083E+02  0.10100000000E+00 0.  1.
          3   -1    0    0    0  501  0.00000000000E+00 -0.00000000000E+00 -0.25581184977E+02  0.25581384361E+02  0.10100000000E+00 0.  1.
          2    1    1    2    0  502  0.16633530668E+02 -0.16199568763E+02  0.10008389454E+02  0.25283754399E+02  0.25500000000E-02 0.  1.
         -2    1    1    2  502    0 -0.16633530668E+02  0.16199568763E+02 -0.10432707094E+02  0.25454700045E+02  0.25500000000E-02 0.  1.
<mgrwt>
<rscale>  0 0.50736680E+02</rscale>
<asrwt>0</asrwt>
<pdfrwt beam="2">  1        3 0.39355979E-02 0.50736680E+02</pdfrwt>
<pdfrwt beam="1">  1       -3 0.38703182E-02 0.50736680E+02</pdfrwt>
<totfact> 0.18182674E+05</totfact>
</mgrwt>
</event>
<event>
 4    1  0.7692565E-003  0.4655780E+02  0.7818608E-02  0.1464844E+00
          3   -1    0    0    0  501  0.00000000000E+00  0.00000000000E+00  0.17829157289E+03  0.17829160149E+03  0.10100000000E+00 0. -1.
         -3   -1    0    0  501    0 -0.00000000000E+00 -0.00000000000E+00 -0.30385758381E+01  0.30402539571E+01  0.10100000000E+00 0. -1.
          2    1    1    2    0  502 -0.77775882202E+01  0.21649671231E+02  0.73742286784E+02  0.77247161822E+02  0.25500000000E-02 0. -1.
         -2    1    1    2  502    0  0.77775882202E+01 -0.21649671231E+02  0.10151071026E+03  0.10408469363E+03  0.25500000000E-02 0. -1.
<mgrwt>
<rscale>  0 0.46557801E+02</rscale>
<asrwt>0</asrwt>
<pdfrwt beam="1">  1        3 0.27429606E-01 0.46557801E+02</pdfrwt>
<pdfrwt beam="2">  1       -3 0.46760446E-03 0.46557801E+02</pdfrwt>
<totfact> 0.16777102E+05</totfact>
</mgrwt>
</event>
<event>
 4    1  0.7692565E-003  0.4762269E+02  0.7818608E-02  0.1458603E+00
          3   -1    0    0    0  501  0.00000000000E+00  0.00000000000E+00  0.21591301865E+02  0.21591538093E+02  0.10100000000E+00 0.  1.
         -3   -1    0    0  501    0 -0.00000000000E+00 -0.00000000000E+00 -0.26259179724E+02  0.26259373960E+02  0.10100000000E+00 0.  1.
          2    1    1    2    0  502 -0.16707373808E+02 -0.16965110551E+02 -0.21632629332E+01  0.23908806507E+02  0.25500000000E-02 0. -1.
         -2    1    1    2  502    0  0.16707373808E+02  0.16965110551E+02 -0.25046149255E+01  0.23942105546E+02  0.25500000000E-02 0. -1.
<mgrwt>
<rscale>  0 0.47622691E+02</rscale>
<asrwt>0</asrwt>
<pdfrwt beam="1">  1        3 0.33217719E-02 0.47622691E+02</pdfrwt>
<pdfrwt beam="2">  1       -3 0.40399069E-02 0.47622691E+02</pdfrwt>
<totfact> 0.21493505E+05</totfact>
</mgrwt>
</event>
<event>
 4    1  0.7692565E-003  0.1061508E+03  0.7818608E-02  0.1267869E+00
          3   -1    0    0    0  501  0.00000000000E+00  0.00000000000E+00  0.67298038061E+02  0.67298113851E+02  0.10100000000E+00 0. -1.
         -3   -1    0    0  501    0 -0.00000000000E+00 -0.00000000000E+00 -0.41858405659E+02  0.41858527510E+02  0.10100000000E+00 0. -1.
          2    1    1    2    0  502  0.40224713604E+02  0.55486343082E+01  0.47866350029E+02  0.62769438414E+02  0.25500000000E-02 0.  1.
         -2    1    1    2  502    0 -0.40224713604E+02 -0.55486343082E+01 -0.22426717627E+02  0.46387202947E+02  0.25500000000E-02 0.  1.
<mgrwt>
<rscale>  0 0.10615082E+03</rscale>
<asrwt>0</asrwt>
<pdfrwt beam="1">  1        3 0.10353559E-01 0.10615082E+03</pdfrwt>
<pdfrwt beam="2">  1       -3 0.64397699E-02 0.10615082E+03</pdfrwt>
<totfact> 0.22398029E+04</totfact>
</mgrwt>
</event>
<event>
 4    1  0.7692565E-003  0.4885225E+02  0.7818608E-02  0.1451632E+00
         -3   -1    0    0  501    0 -0.00000000000E+00  0.00000000000E+00  0.33315140440E+03  0.33315141971E+03  0.10100000000E+00 0. -1.
          3   -1    0    0    0  501  0.00000000000E+00 -0.00000000000E+00 -0.17894449908E+01  0.17922930495E+01  0.10100000000E+00 0. -1.
          2    1    1    2    0  502  0.15609065925E+02 -0.14634704380E+02  0.24646218428E+03  0.24738921924E+03  0.25500000000E-02 0.  1.
         -2    1    1    2  502    0 -0.15609065925E+02  0.14634704380E+02  0.84899775132E+02  0.87554493519E+02  0.25500000000E-02 0.  1.
<mgrwt>
<rscale>  0 0.48852252E+02</rscale>
<asrwt>0</asrwt>
<pdfrwt beam="2">  1        3 0.27551964E-03 0.48852252E+02</pdfrwt>
<pdfrwt beam="1">  1       -3 0.51254254E-01 0.48852252E+02</pdfrwt>
<totfact> 0.11358028E+05</totfact>
</mgrwt>
</event>
<event>
 4    1  0.7692565E-003  0.4877290E+02  0.7818608E-02  0.1452075E+00
         -3   -1    0    0  501    0 -0.00000000000E+00  0.00000000000E+00  0.15678557666E+03  0.15678560919E+03  0.10100000000E+00 0.  1.
          3   -1    0    0    0  501  0.00000000000E+00 -0.00000000000E+00 -0.37923668577E+01  0.37937115577E+01  0.10100000000E+00 0.  1.
          2    1    1    2    0  502 -0.68019556158E+01 -0.23382361306E+02  0.72206919277E+02  0.76202628685E+02  0.25500000000E-02 0. -1.
         -2    1    1    2  502    0  0.68019556158E+01  0.23382361306E+02  0.80786290525E+02  0.84376692065E+02  0.25500000000E-02 0. -1.
<mgrwt>
<rscale>  0 0.48772902E+02</rscale>
<asrwt>0</asrwt>
<pdfrwt beam="2">  1        3 0.58354694E-03 0.48772902E+02</pdfrwt>
<pdfrwt beam="1">  1       -3 0.24120966E-01 0.48772902E+02</pdfrwt>
<totfact> 0.15584726E+05</totfact>
</mgrwt>
</event>
<event>
 4    1  0.7692565E-003  0.6075027E+02  0.7818608E-02  0.1394710E+00
         -3   -1    0    0  501    0 -0.00000000000E+00  0.00000000000E+00  0.36498378195E+02  0.36498517941E+02  0.10100000000E+00 0.  1.
          3   -1    0    0    0  501  0.00000000000E+00 -0.00000000000E+00 -0.25278885657E+02  0.25279087425E+02  0.10100000000E+00 0.  1.
          2    1    1    2    0  502  0.19761655468E+01 -0.30290975137E+02  0.67239326988E+01  0.31091151192E+02  0.25500000000E-02 0. -1.
         -2    1    1    2  502    0 -0.19761655468E+01  0.30290975137E+02  0.44955598394E+01  0.30686454174E+02  0.25500000000E-02 0. -1.
<mgrwt>
<rscale>  0 0.60750272E+02</rscale>
<asrwt>0</asrwt>
<pdfrwt beam="2">  1        3 0.38890856E-02 0.60750272E+02</pdfrwt>
<pdfrwt beam="1">  1       -3 0.56151614E-02 0.60750272E+02</pdfrwt>
<totfact> 0.11138626E+05</totfact>
</mgrwt>
</event>
<event>
 4    1  0.7692565E-003  0.4458359E+02  0.7818608E-02  0.1476958E+00
         -3   -1    0    0  501    0 -0.00000000000E+00  0.00000000000E+00  0.16093593003E+02  0.16093909927E+02  0.10100000000E+00 0.  1.
          3   -1    0    0    0  501  0.00000000000E+00 -0.00000000000E+00 -0.30876432969E+02  0.30876598159E+02  0.10100000000E+00 0.  1.
          2    1    1    2    0  502  0.21931319047E+02 -0.25078429086E+01 -0.10664522345E+02  0.24515384446E+02  0.25500000000E-02 0. -1.
         -2    1    1    2  502    0 -0.21931319047E+02  0.25078429086E+01 -0.41183176205E+01  0.22455123640E+02  0.25500000000E-02 0. -1.
<mgrwt>
<rscale>  0 0.44583587E+02</rscale>
<asrwt>0</asrwt>
<pdfrwt beam="2">  1        3 0.47502575E-02 0.44583587E+02</pdfrwt>
<pdfrwt beam="1">  1       -3 0.24759745E-02 0.44583587E+02</pdfrwt>
<totfact> 0.25403123E+05</totfact>
</mgrwt>
</event>
<event>
 4    1  0.7692565E-003  0.5134879E+02  0.7818608E-02  0.1438199E+00
         -3   -1    0    0  501    0 -0.00000000000E+00  0.00000000000E+00  0.19438290523E+02  0.19438552916E+02  0.10100000000E+00 0.  1.
          3   -1    0    0    0  501  0.00000000000E+00 -0.00000000000E+00 -0.33910568772E+02  0.33910719182E+02  0.10100000000E+00 0.  1.
          2    1    1    2    0  502  0.88075544998E+01  0.21949177899E+02  0.31448768130E+01  0.23858534812E+02  0.25500000000E-02 0.  1.
         -2    1    1    2  502    0 -0.88075544998E+01 -0.21949177899E+02 -0.17617155061E+02  0.29490737286E+02  0.25500000000E-02 0.  1.
<mgrwt>
<rscale>  0 0.51348788E+02</rscale>
<asrwt>0</asrwt>
<pdfrwt beam="2">  1        3 0.52170423E-02 0.51348788E+02</pdfrwt>
<pdfrwt beam="1">  1       -3 0.29905380E-02 0.51348788E+02</pdfrwt>
<totfact> 0.17517336E+05</totfact>
</mgrwt>
</event>
<event>
 4    1  0.7692565E-003  0.4529987E+02  0.7818608E-02  0.1472478E+00
         -3   -1    0    0  501    0 -0.00000000000E+00  0.00000000000E+00  0.92405677196E+02  0.92405732393E+02  0.10100000000E+00 0. -1.
          3   -1    0    0    0  501  0.00000000000E+00 -0.00000000000E+00 -0.55513022093E+01  0.55522209268E+01  0.10100000000E+00 0. -1.
          2    1    1    2    0  502  0.17058755893E+02 -0.13661938566E+02  0.56287726078E+02  0.60381767377E+02  0.25500000000E-02 0.  1.
         -2    1    1    2  502    0 -0.17058755893E+02  0.13661938566E+02  0.30566648909E+02  0.37576185943E+02  0.25500000000E-02 0.  1.
<mgrwt>
<rscale>  0 0.45299869E+02</rscale>
<asrwt>0</asrwt>
<pdfrwt beam="2">  1        3 0.85412149E-03 0.45299869E+02</pdfrwt>
<pdfrwt beam="1">  1       -3 0.14216332E-01 0.45299869E+02</pdfrwt>
<totfact> 0.21455140E+05</totfact>
</mgrwt>
</event>
<event>
 4    1  0.7692565E-003  0.4392502E+02  0.7818608E-02  0.1481166E+00
          3   -1    0    0    0  501  0.00000000000E+00  0.00000000000E+00  0.93917680881E+01  0.93923111544E+01  0.10100000000E+00 0.  1.
         -3   -1    0    0  501    0 -0.00000000000E+00 -0.00000000000E+00 -0.51356933417E+02  0.51357032731E+02  0.10100000000E+00 0.  1.
          2    1    1    2    0  502  0.20357563485E+02  0.51131654812E+00 -0.32358746498E+02  0.38233235765E+02  0.25500000000E-02 0.  1.
         -2    1    1    2  502    0 -0.20357563485E+02 -0.51131654812E+00 -0.96064188307E+01  0.22516108121E+02  0.25500000000E-02 0.  1.
<mgrwt>
<rscale>  0 0.43925023E+02</rscale>
<asrwt>0</asrwt>
<pdfrwt beam="1">  1        3 0.14449368E-02 0.43925023E+02</pdfrwt>
<pdfrwt beam="2">  1       -3 0.79011160E-02 0.43925023E+02</pdfrwt>
<totfact> 0.25397152E+05</totfact>
</mgrwt>
</event>
<event>
 4    1  0.7692565E-003  0.9726718E+02  0.7818608E-02  0.1286150E+00
          3   -1    0    0    0  501  0.00000000000E+00  0.00000000000E+00  0.88806401002E+02  0.88806458436E+02  0.10100000000E+00 0. -1.
         -3   -1    0    0  501    0 -0.00000000000E+00 -0.00000000000E+00 -0.26633345877E+02  0.26633537385E+02  0.10100000000E+00 0. -1.
          2    1    1    2    0  502  0.17940365940E+01 -0.29551771155E+02  0.76878949404E+02  0.82382635389E+02  0.25500000000E-02 0.  1.
         -2    1    1    2  502    0 -0.17940365940E+01  0.29551771155E+02 -0.14705894279E+02  0.33057360432E+02  0.25500000000E-02 0.  1.
<mgrwt>
<rscale>  0 0.97267178E+02</rscale>
<asrwt>0</asrwt>
<pdfrwt beam="1">  1        3 0.13662543E-01 0.97267178E+02</pdfrwt>
<pdfrwt beam="2">  1       -3 0.40974569E-02 0.97267178E+02</pdfrwt>
<totfact> 0.28128858E+04</totfact>
</mgrwt>
</event>
<event>
 4    1  0.7692565E-003  0.4317075E+02  0.7818608E-02  0.1486095E+00
          3   -1    0    0    0  501  0.00000000000E+00  0.00000000000E+00  0.85383345497E+01  0.85389318936E+01  0.10100000000E+00 0.  1.
         -3   -1    0    0  501    0 -0.00000000000E+00 -0.00000000000E+00 -0.54566444542E+02  0.54566538015E+02  0.10100000000E+00 0.  1.
          2    1    1    2    0  502 -0.54142309910E+01  0.20691855053E+02 -0.18761956297E+02  0.28451322876E+02  0.25500000000E-02 0. -1.
         -2    1    1    2  502    0  0.54142309910E+01 -0.20691855053E+02 -0.27266153695E+02  0.34654147033E+02  0.25500000000E-02 0. -1.
<mgrwt>
<rscale>  0 0.43170747E+02</rscale>
<asrwt>0</asrwt>
<pdfrwt beam="1">  1        3 0.13136431E-02 0.43170747E+02</pdfrwt>
<pdfrwt beam="2">  1       -3 0.83948906E-02 0.43170747E+02</pdfrwt>
<totfact> 0.26345574E+05</totfact>
</mgrwt>
</event>
<event>
 4    1  0.7692565E-003  0.8052585E+02  0.7818608E-02  0.1327566E+00
          3   -1    0    0    0  501  0.00000000000E+00  0.00000000000E+00  0.70495021810E+03  0.70495022533E+03  0.10100000000E+00 0. -1.
         -3   -1    0    0  501    0 -0.00000000000E+00 -0.00000000000E+00 -0.22984831536E+01  0.23007011556E+01  0.10100000000E+00 0. -1.
          2    1    1    2    0  502 -0.24979712201E+00  0.25135382117E+02  0.62756929659E+03  0.62807250526E+03  0.25500000000E-02 0. -1.
         -2    1    1    2  502    0  0.24979712201E+00 -0.25135382117E+02  0.75082438355E+02  0.79178421231E+02  0.25500000000E-02 0. -1.
<mgrwt>
<rscale>  0 0.80525849E+02</rscale>
<asrwt>0</asrwt>
<pdfrwt beam="1">  1        3 0.10845408E+00 0.80525849E+02</pdfrwt>
<pdfrwt beam="2">  1       -3 0.35378387E-03 0.80525849E+02</pdfrwt>
<totfact> 0.19156347E+04</totfact>
</mgrwt>
</event>
<event>
 4    1  0.7692565E-003  0.6704708E+02  0.7818608E-02  0.1370433E+00
         -3   -1    0    0  501    0 -0.00000000000E+00  0.00000000000E+00  0.47298096139E+02  0.47298203976E+02  0.10100000000E+00 0.  1.
          3   -1    0    0    0  501  0.00000000000E+00 -0.00000000000E+00 -0.23760288456E+02  0.23760503120E+02  0.10100000000E+00 0.  1.
          2    1    1    2    0  502 -0.26628640716E+02 -0.23185531115E+01  0.33212329919E+02  0.42632371035E+02  0.25500000000E-02 0. -1.
         -2    1    1    2  502    0  0.26628640716E+02  0.23185531115E+01 -0.96745222359E+01  0.28426336062E+02  0.25500000000E-02 0. -1.
<mgrwt>
<rscale>  0 0.67047084E+02</rscale>
<asrwt>0</asrwt>
<pdfrwt beam="2">  1        3 0.36554538E-02 0.67047084E+02</pdfrwt>
<pdfrwt beam="1">  1       -3 0.72766549E-02 0.67047084E+02</pdfrwt>
<totfact> 0.84176362E+04</totfact>
</mgrwt>
</event>
<event>
 4    1  0.7692565E-003  0.5233419E+02  0.7818608E-02  0.1433143E+00
         -3   -1    0    0  501    0 -0.00000000000E+00  0.00000000000E+00  0.96260799419E+01  0.96266097900E+01  0.10100000000E+00 0.  1.
          3   -1    0    0    0  501  0.00000000000E+00 -0.00000000000E+00 -0.71128910849E+02  0.71128982557E+02  0.10100000000E+00 0.  1.
          2    1    1    2    0  502 -0.67086017264E+01  0.24795967298E+02 -0.23055888230E+02  0.34516942506E+02  0.25500000000E-02 0. -1.
         -2    1    1    2  502    0  0.67086017264E+01 -0.24795967298E+02 -0.38446942677E+02  0.46238649841E+02  0.25500000000E-02 0. -1.
<mgrwt>
<rscale>  0 0.52334190E+02</rscale>
<asrwt>0</asrwt>
<pdfrwt beam="2">  1        3 0.10942955E-01 0.52334190E+02</pdfrwt>
<pdfrwt beam="1">  1       -3 0.14809817E-02 0.52334190E+02</pdfrwt>
<totfact> 0.15575944E+05</totfact>
</mgrwt>
</event>
<event>
 4    1  0.7692565E-003  0.4425171E+02  0.7818608E-02  0.1479068E+00
         -3   -1    0    0  501    0 -0.00000000000E+00  0.00000000000E+00  0.59470927177E+02  0.59471012942E+02  0.10100000000E+00 0. -1.
          3   -1    0    0    0  501  0.00000000000E+00 -0.00000000000E+00 -0.82314111000E+01  0.82320307153E+01  0.10100000000E+00 0. -1.
          2    1    1    2    0  502  0.17830209858E+02  0.13017358748E+02  0.27881559255E+02  0.35563314881E+02  0.25500000000E-02 0.  1.
         -2    1    1    2  502    0 -0.17830209858E+02 -0.13017358748E+02  0.23357956823E+02  0.32139728776E+02  0.25500000000E-02 0.  1.
<mgrwt>
<rscale>  0 0.44251713E+02</rscale>
<asrwt>0</asrwt>
<pdfrwt beam="2">  1        3 0.12664252E-02 0.44251713E+02</pdfrwt>
<pdfrwt beam="1">  1       -3 0.91494274E-02 0.44251713E+02</pdfrwt>
<totfact> 0.24487934E+05</totfact>
</mgrwt>
</event>
<event>
 4    1  0.7692565E-003  0.4300231E+02  0.7818608E-02  0.1487213E+00
          3   -1    0    0    0  501  0.00000000000E+00  0.00000000000E+00  0.90130841533E+02  0.90130898123E+02  0.10100000000E+00 0.  1.
         -3   -1    0    0  501    0 -0.00000000000E+00 -0.00000000000E+00 -0.51286498057E+01  0.51296442206E+01  0.10100000000E+00 0.  1.
          2    1    1    2    0  502 -0.13387450857E+02  0.16512365636E+02  0.49651052385E+02  0.54010268179E+02  0.25500000000E-02 0.  1.
         -2    1    1    2  502    0  0.13387450857E+02 -0.16512365636E+02  0.35351139342E+02  0.41250274165E+02  0.25500000000E-02 0.  1.
<mgrwt>
<rscale>  0 0.43002306E+02</rscale>
<asrwt>0</asrwt>
<pdfrwt beam="1">  1        3 0.13866364E-01 0.43002306E+02</pdfrwt>
<pdfrwt beam="2">  1       -3 0.78910393E-03 0.43002306E+02</pdfrwt>
<totfact> 0.24549225E+05</totfact>
</mgrwt>
</event>
<event>
 4    1  0.7692565E-003  0.4535876E+02  0.7818608E-02  0.1472114E+00
         -3   -1    0    0  501    0 -0.00000000000E+00  0.00000000000E+00  0.20777940969E+01  0.20802474154E+01  0.10100000000E+00 0. -1.
          3   -1    0    0    0  501  0.00000000000E+00 -0.00000000000E+00 -0.24739977345E+03  0.24739979407E+03  0.10100000000E+00 0. -1.
          2    1    1    2    0  502 -0.12259282655E+02 -0.19068898365E+02 -0.12631552197E+03  0.12833364326E+03  0.25500000000E-02 0.  1.
         -2    1    1    2  502    0  0.12259282655E+02  0.19068898365E+02 -0.11900645738E+03  0.12114639822E+03  0.25500000000E-02 0.  1.
<mgrwt>
<rscale>  0 0.45358765E+02</rscale>
<asrwt>0</asrwt>
<pdfrwt beam="2">  1        3 0.38061670E-01 0.45358765E+02</pdfrwt>
<pdfrwt beam="1">  1       -3 0.31985113E-03 0.45358765E+02</pdfrwt>
<totfact> 0.15754500E+05</totfact>
</mgrwt>
</event>
<event>
 4    1  0.7692565E-003  0.5436288E+02  0.7818608E-02  0.1423136E+00
          3   -1    0    0    0  501  0.00000000000E+00  0.00000000000E+00  0.14392404152E+02  0.14392758536E+02  0.10100000000E+00 0. -1.
         -3   -1    0    0  501    0 -0.00000000000E+00 -0.00000000000E+00 -0.51333726269E+02  0.51333825629E+02  0.10100000000E+00 0. -1.
          2    1    1    2    0  502  0.19365083811E+02 -0.18938276739E+02 -0.21218613585E+02  0.34407766069E+02  0.25500000000E-02 0. -1.
         -2    1    1    2  502    0 -0.19365083811E+02  0.18938276739E+02 -0.15722708532E+02  0.31318818096E+02  0.25500000000E-02 0. -1.
<mgrwt>
<rscale>  0 0.54362879E+02</rscale>
<asrwt>0</asrwt>
<pdfrwt beam="1">  1        3 0.22142509E-02 0.54362879E+02</pdfrwt>
<pdfrwt beam="2">  1       -3 0.78975312E-02 0.54362879E+02</pdfrwt>
<totfact> 0.14674899E+05</totfact>
</mgrwt>
</event>
<event>
 4    1  0.7692565E-003  0.4552597E+02  0.7818608E-02  0.1471085E+00
         -3   -1    0    0  501    0 -0.00000000000E+00  0.00000000000E+00  0.52759197595E+00  0.53717249845E+00  0.10100000000E+00 0. -1.
          3   -1    0    0    0  501  0.00000000000E+00 -0.00000000000E+00 -0.97326365738E+03  0.97326366262E+03  0.10100000000E+00 0. -1.
          2    1    1    2    0  502 -0.17225401017E+01 -0.21688049720E+02 -0.34317516498E+03  0.34386411925E+03  0.25500000000E-02 0. -1.
         -2    1    1    2  502    0  0.17225401017E+01  0.21688049720E+02 -0.62956090043E+03  0.62993671587E+03  0.25500000000E-02 0. -1.
<mgrwt>
<rscale>  0 0.45525966E+02</rscale>
<asrwt>0</asrwt>
<pdfrwt beam="2">  1        3 0.14973218E+00 0.45525966E+02</pdfrwt>
<pdfrwt beam="1">  1       -3 0.81906142E-04 0.45525966E+02</pdfrwt>
<totfact> 0.60595995E+04</totfact>
</mgrwt>
</event>
<event>
 4    1  0.7692565E-003  0.4710917E+02  0.7818608E-02  0.1461588E+00
          3   -1    0    0    0  501  0.00000000000E+00  0.00000000000E+00  0.36926352570E+02  0.36926490696E+02  0.10100000000E+00 0.  1.
         -3   -1    0    0  501    0 -0.00000000000E+00 -0.00000000000E+00 -0.15024662477E+02  0.15025001949E+02  0.10100000000E+00 0.  1.
          2    1    1    2    0  502  0.23538436692E+02  0.71309232138E+00  0.10397380155E+02  0.25742416808E+02  0.25500000000E-02 0.  1.
         -2    1    1    2  502    0 -0.23538436692E+02 -0.71309232138E+00  0.11504309938E+02  0.26209075837E+02  0.25500000000E-02 0.  1.
<mgrwt>
<rscale>  0 0.47109166E+02</rscale>
<asrwt>0</asrwt>
<pdfrwt beam="1">  1        3 0.56810139E-02 0.47109166E+02</pdfrwt>
<pdfrwt beam="2">  1       -3 0.23115233E-02 0.47109166E+02</pdfrwt>
<totfact> 0.21840325E+05</totfact>
</mgrwt>
</event>
<event>
 4    1  0.7692565E-003  0.4315828E+02  0.7818608E-02  0.1486178E+00
         -3   -1    0    0  501    0 -0.00000000000E+00  0.00000000000E+00  0.22925105901E+00  0.25051356861E+00  0.10100000000E+00 0. -1.
          3   -1    0    0    0  501  0.00000000000E+00 -0.00000000000E+00 -0.19411772538E+04  0.19411772564E+04  0.10100000000E+00 0. -1.
          2    1    1    2    0  502  0.16697772398E+02 -0.12536263275E+02 -0.72538112270E+03  0.72568157388E+03  0.25500000000E-02 0.  1.
         -2    1    1    2  502    0 -0.16697772398E+02  0.12536263275E+02 -0.12155668800E+04  0.12157461961E+04  0.25500000000E-02 0.  1.
<mgrwt>
<rscale>  0 0.43158276E+02</rscale>
<asrwt>0</asrwt>
<pdfrwt beam="2">  1        3 0.29863171E+00 0.43158276E+02</pdfrwt>
<pdfrwt beam="1">  1       -3 0.36906728E-04 0.43158276E+02</pdfrwt>
<totfact> 0.26832730E+04</totfact>
</mgrwt>
</event>
<event>
 4    1  0.7692565E-003  0.4386831E+02  0.7818608E-02  0.1481533E+00
         -3   -1    0    0  501    0 -0.00000000000E+00  0.00000000000E+00  0.90430696004E+01  0.90436336059E+01  0.10100000000E+00 0.  1.
          3   -1    0    0    0  501  0.00000000000E+00 -0.00000000000E+00 -0.53199478238E+02  0.53199574113E+02  0.10100000000E+00 0.  1.
          2    1    1    2    0  502  0.18466391298E+02  0.10106615855E+02 -0.13336818631E+02  0.24920313588E+02  0.25500000000E-02 0. -1.
         -2    1    1    2  502    0 -0.18466391298E+02 -0.10106615855E+02 -0.30819590007E+02  0.37322894131E+02  0.25500000000E-02 0. -1.
<mgrwt>
<rscale>  0 0.43868308E+02</rscale>
<asrwt>0</asrwt>
<pdfrwt beam="2">  1        3 0.81845857E-02 0.43868308E+02</pdfrwt>
<pdfrwt beam="1">  1       -3 0.13912923E-02 0.43868308E+02</pdfrwt>
<totfact> 0.25376308E+05</totfact>
</mgrwt>
</event>
<event>
 4    1  0.7692565E-003  0.5499159E+02  0.7818608E-02  0.1420139E+00
         -3   -1    0    0  501    0 -0.00000000000E+00  0.00000000000E+00  0.13781425397E+03  0.13781429098E+03  0.10100000000E+00 0.  1.
          3   -1    0    0    0  501  0.00000000000E+00 -0.00000000000E+00 -0.54852773227E+01  0.54862070967E+01  0.10100000000E+00 0.  1.
          2    1    1    2    0  502 -0.11298191895E+02 -0.19506241909E+02  0.25137585888E+02  0.33764490879E+02  0.25500000000E-02 0.  1.
         -2    1    1    2  502    0  0.11298191895E+02  0.19506241909E+02  0.10719139076E+03  0.10953600720E+03  0.25500000000E-02 0.  1.
<mgrwt>
<rscale>  0 0.54991587E+02</rscale>
<asrwt>0</asrwt>
<pdfrwt beam="2">  1        3 0.84396326E-03 0.54991587E+02</pdfrwt>
<pdfrwt beam="1">  1       -3 0.21202265E-01 0.54991587E+02</pdfrwt>
<totfact> 0.11945631E+05</totfact>
</mgrwt>
</event>
<event>
 4    1  0.7692565E-003  0.8876705E+02  0.7818608E-02  0.1305865E+00
         -3   -1    0    0  501    0 -0.00000000000E+00  0.00000000000E+00  0.24706891260E+02  0.24707097700E+02  0.10100000000E+00 0.  1.
          3   -1    0    0    0  501  0.00000000000E+00 -0.00000000000E+00 -0.79730109224E+02  0.79730173196E+02  0.10100000000E+00 0.  1.
          2    1    1    2    0  502  0.33627532426E+02  0.17001737023E+02  0.81194987581E-01  0.37681249953E+02  0.25500000000E-02 0. -1.
         -2    1    1    2  502    0 -0.33627532426E+02 -0.17001737023E+02 -0.55104412952E+02  0.66756020943E+02  0.25500000000E-02 0. -1.
<mgrwt>
<rscale>  0 0.88767049E+02</rscale>
<asrwt>0</asrwt>
<pdfrwt beam="2">  1        3 0.12266191E-01 0.88767049E+02</pdfrwt>
<pdfrwt beam="1">  1       -3 0.38010810E-02 0.88767049E+02</pdfrwt>
<totfact> 0.36932692E+04</totfact>
</mgrwt>
</event>
<event>
 4    1  0.7692565E-003  0.6618236E+02  0.7818608E-02  0.1373578E+00
          3   -1    0    0    0  501  0.00000000000E+00  0.00000000000E+00  0.61967053352E+03  0.61967054175E+03  0.10100000000E+00 0. -1.
         -3   -1    0    0  501    0 -0.00000000000E+00 -0.00000000000E+00 -0.17656588849E+01  0.17685452490E+01  0.10100000000E+00 0. -1.
          2    1    1    2    0  502  0.21939287670E+02  0.18114748496E+02  0.15028157182E+03  0.15295106175E+03  0.25500000000E-02 0.  1.
         -2    1    1    2  502    0 -0.21939287670E+02 -0.18114748496E+02  0.46762330282E+03  0.46848802525E+03  0.25500000000E-02 0.  1.
<mgrwt>
<rscale>  0 0.66182360E+02</rscale>
<asrwt>0</asrwt>
<pdfrwt beam="1">  1        3 0.95334179E-01 0.66182360E+02</pdfrwt>
<pdfrwt beam="2">  1       -3 0.27186241E-03 0.66182360E+02</pdfrwt>
<totfact> 0.35366264E+04</totfact>
</mgrwt>
</event>
<event>
 4    1  0.7692565E-003  0.6956929E+02  0.7818608E-02  0.1361564E+00
          3   -1    0    0    0  501  0.00000000000E+00  0.00000000000E+00  0.11967428423E+03  0.11967432685E+03  0.10100000000E+00 0. -1.
         -3   -1    0    0  501    0 -0.00000000000E+00 -0.00000000000E+00 -0.10110242793E+02  0.10110747269E+02  0.10100000000E+00 0. -1.
          2    1    1    2    0  502  0.24908219403E+02  0.15804575696E+02  0.89169324504E+02  0.93922161632E+02  0.25500000000E-02 0.  1.
         -2    1    1    2  502    0 -0.24908219403E+02 -0.15804575696E+02  0.20394716933E+02  0.35862912487E+02  0.25500000000E-02 0.  1.
<mgrwt>
<rscale>  0 0.69569291E+02</rscale>
<asrwt>0</asrwt>
<pdfrwt beam="1">  1        3 0.18411471E-01 0.69569291E+02</pdfrwt>
<pdfrwt beam="2">  1       -3 0.15554640E-02 0.69569291E+02</pdfrwt>
<totfact> 0.67020862E+04</totfact>
</mgrwt>
</event>
<event>
 4    1  0.7692565E-003  0.4805783E+02  0.7818608E-02  0.1456108E+00
          3   -1    0    0    0  501  0.00000000000E+00  0.00000000000E+00  0.10341176204E+03  0.10341181136E+03  0.10100000000E+00 0. -1.
         -3   -1    0    0  501    0 -0.00000000000E+00 -0.00000000000E+00 -0.55828879164E+01  0.55838014370E+01  0.10100000000E+00 0. -1.
          2    1    1    2    0  502 -0.21972601437E+02 -0.89024984932E+01  0.57797118497E+02  0.62470445863E+02  0.25500000000E-02 0. -1.
         -2    1    1    2  502    0  0.21972601437E+02  0.89024984932E+01  0.40031755624E+02  0.46525166933E+02  0.25500000000E-02 0. -1.
<mgrwt>
<rscale>  0 0.48057830E+02</rscale>
<asrwt>0</asrwt>
<pdfrwt beam="1">  1        3 0.15909576E-01 0.48057830E+02</pdfrwt>
<pdfrwt beam="2">  1       -3 0.85897987E-03 0.48057830E+02</pdfrwt>
<totfact> 0.18057207E+05</totfact>
</mgrwt>
</event>
<event>
 4    1  0.7692565E-003  0.4799124E+02  0.7818608E-02  0.1456487E+00
         -3   -1    0    0  501    0 -0.00000000000E+00  0.00000000000E+00  0.12368210448E+02  0.12368622829E+02  0.10100000000E+00 0.  1.
          3   -1    0    0    0  501  0.00000000000E+00 -0.00000000000E+00 -0.46552757115E+02  0.46552866679E+02  0.10100000000E+00 0.  1.
          2    1    1    2    0  502  0.16762146815E+02 -0.16520691899E+02 -0.22836126414E+02  0.32793162440E+02  0.25500000000E-02 0. -1.
         -2    1    1    2  502    0 -0.16762146815E+02  0.16520691899E+02 -0.11348420252E+02  0.26128327069E+02  0.25500000000E-02 0. -1.
<mgrwt>
<rscale>  0 0.47991236E+02</rscale>
<asrwt>0</asrwt>
<pdfrwt beam="2">  1        3 0.71620027E-02 0.47991236E+02</pdfrwt>
<pdfrwt beam="1">  1       -3 0.19028418E-02 0.47991236E+02</pdfrwt>
<totfact> 0.20465852E+05</totfact>
</mgrwt>
</event>
<event>
 4    1  0.7692565E-003  0.7394456E+02  0.7818608E-02  0.1347171E+00
         -3   -1    0    0  501    0 -0.00000000000E+00  0.00000000000E+00  0.76558070781E+02  0.76558137404E+02  0.10100000000E+00 0.  1.
          3   -1    0    0    0  501  0.00000000000E+00 -0.00000000000E+00 -0.17854849688E+02  0.17855135351E+02  0.10100000000E+00 0.  1.
          2    1    1    2    0  502  0.21317569028E+02 -0.24135460525E+02  0.52545703309E+02  0.61627998076E+02  0.25500000000E-02 0.  1.
         -2    1    1    2  502    0 -0.21317569028E+02  0.24135460525E+02  0.61575177837E+01  0.32785274679E+02  0.25500000000E-02 0.  1.
<mgrwt>
<rscale>  0 0.73944560E+02</rscale>
<asrwt>0</asrwt>
<pdfrwt beam="2">  1        3 0.27469270E-02 0.73944560E+02</pdfrwt>
<pdfrwt beam="1">  1       -3 0.11778192E-01 0.73944560E+02</pdfrwt>
<totfact> 0.61609323E+04</totfact>
</mgrwt>
</event>
<event>
 4    1  0.7692565E-003  0.5559276E+02  0.7818608E-02  0.1417316E+00
         -3   -1    0    0  501    0 -0.00000000000E+00  0.00000000000E+00  0.52696843013E+02  0.52696939802E+02  0.10100000000E+00 0.  1.
          3   -1    0    0    0  501  0.00000000000E+00 -0.00000000000E+00 -0.14661671898E+02  0.14662019774E+02  0.10100000000E+00 0.  1.
          2    1    1    2    0  502  0.18093857813E+02  0.11632808234E+02  0.40348434372E+02  0.45724239532E+02  0.25500000000E-02 0.  1.
         -2    1    1    2  502    0 -0.18093857813E+02 -0.11632808234E+02 -0.23132632574E+01  0.21634720044E+02  0.25500000000E-02 0.  1.
<mgrwt>
<rscale>  0 0.55592762E+02</rscale>
<asrwt>0</asrwt>
<pdfrwt beam="2">  1        3 0.22556761E-02 0.55592762E+02</pdfrwt>
<pdfrwt beam="1">  1       -3 0.81072408E-02 0.55592762E+02</pdfrwt>
<totfact> 0.13802634E+05</totfact>
</mgrwt>
</event>
<event>
 4    1  0.7692565E-003  0.5988229E+02  0.7818608E-02  0.1398326E+00
         -3   -1    0    0  501    0 -0.00000000000E+00  0.00000000000E+00  0.79536100358E+00  0.80174816870E+00  0.10100000000E+00 0.  1.
          3   -1    0    0    0  501  0.00000000000E+00 -0.00000000000E+00 -0.11226120467E+04  0.11226120513E+04  0.10100000000E+00 0.  1.
          2    1    1    2    0  502  0.25001717882E+02  0.13995315253E+02 -0.39787939164E+03  0.39890972042E+03  0.25500000000E-02 0.  1.
         -2    1    1    2  502    0 -0.25001717882E+02 -0.13995315253E+02 -0.72393729410E+03  0.72450407904E+03  0.25500000000E-02 0.  1.
<mgrwt>
<rscale>  0 0.59882288E+02</rscale>
<asrwt>0</asrwt>
<pdfrwt beam="2">  1        3 0.17270877E+00 0.59882288E+02</pdfrwt>
<pdfrwt beam="1">  1       -3 0.12285580E-03 0.59882288E+02</pdfrwt>
<totfact> 0.26335065E+04</totfact>
</mgrwt>
</event>
<event>
 4    1  0.7692565E-003  0.6878842E+02  0.7818608E-02  0.1364262E+00
          3   -1    0    0    0  501  0.00000000000E+00  0.00000000000E+00  0.10661955410E+01  0.10709686884E+01  0.10100000000E+00 0. -1.
         -3   -1    0    0  501    0 -0.00000000000E+00 -0.00000000000E+00 -0.11070337079E+04  0.11070337125E+04  0.10100000000E+00 0. -1.
          2    1    1    2    0  502  0.48498950006E+01 -0.31893434641E+02 -0.74511141261E+03  0.74580944608E+03  0.25500000000E-02 0.  1.
         -2    1    1    2  502    0 -0.48498950006E+01  0.31893434641E+02 -0.36085609975E+03  0.36229523512E+03  0.25500000000E-02 0.  1.
<mgrwt>
<rscale>  0 0.68788415E+02</rscale>
<asrwt>0</asrwt>
<pdfrwt beam="1">  1        3 0.16439849E-03 0.68788415E+02</pdfrwt>
<pdfrwt beam="2">  1       -3 0.17031233E+00 0.68788415E+02</pdfrwt>
<totfact> 0.18674611E+04</totfact>
</mgrwt>
</event>
<event>
 4    1  0.7692565E-003  0.4377810E+02  0.7818608E-02  0.1482117E+00
          3   -1    0    0    0  501  0.00000000000E+00  0.00000000000E+00  0.98127793506E+00  0.98646205494E+00  0.10100000000E+00 0. -1.
         -3   -1    0    0  501    0 -0.00000000000E+00 -0.00000000000E+00 -0.48698043781E+03  0.48698044829E+03  0.10100000000E+00 0. -1.
          2    1    1    2    0  502  0.98313497329E+01  0.18886107399E+02 -0.18639396172E+03  0.18760610188E+03  0.25500000000E-02 0.  1.
         -2    1    1    2  502    0 -0.98313497329E+01 -0.18886107399E+02 -0.29960519816E+03  0.30036080846E+03  0.25500000000E-02 0.  1.
<mgrwt>
<rscale>  0 0.43778102E+02</rscale>
<asrwt>0</asrwt>
<pdfrwt beam="1">  1        3 0.15136581E-03 0.43778102E+02</pdfrwt>
<pdfrwt beam="2">  1       -3 0.74920275E-01 0.43778102E+02</pdfrwt>
<totfact> 0.11829665E+05</totfact>
</mgrwt>
</event>
<event>
 4    1  0.7692565E-003  0.4206090E+02  0.7818608E-02  0.1493571E+00
          3   -1    0    0    0  501  0.00000000000E+00  0.00000000000E+00  0.14684838280E+03  0.14684841753E+03  0.10100000000E+00 0.  1.
         -3   -1    0    0  501    0 -0.00000000000E+00 -0.00000000000E+00 -0.30109312135E+01  0.30126247314E+01  0.10100000000E+00 0.  1.
          2    1    1    2    0  502  0.75999572921E+01  0.19165801513E+02  0.86692130464E+02  0.89110116089E+02  0.25500000000E-02 0.  1.
         -2    1    1    2  502    0 -0.75999572921E+01 -0.19165801513E+02  0.57145321118E+02  0.60750926172E+02  0.25500000000E-02 0.  1.
<mgrwt>
<rscale>  0 0.42060902E+02</rscale>
<asrwt>0</asrwt>
<pdfrwt beam="1">  1        3 0.22592196E-01 0.42060902E+02</pdfrwt>
<pdfrwt beam="2">  1       -3 0.46335305E-03 0.42060902E+02</pdfrwt>
<totfact> 0.22947923E+05</totfact>
</mgrwt>
</event>
<event>
 4    1  0.7692565E-003  0.7956725E+02  0.7818608E-02  0.1330284E+00
          3   -1    0    0    0  501  0.00000000000E+00  0.00000000000E+00  0.62039098031E+01  0.62047318915E+01  0.10100000000E+00 0.  1.
         -3   -1    0    0  501    0 -0.00000000000E+00 -0.00000000000E+00 -0.25510152677E+03  0.25510154676E+03  0.10100000000E+00 0.  1.
          2    1    1    2    0  502  0.11503246788E+01 -0.39593638275E+02 -0.11226777126E+03  0.11905054350E+03  0.25500000000E-02 0. -1.
         -2    1    1    2  502    0 -0.11503246788E+01  0.39593638275E+02 -0.13662984571E+03  0.14225573515E+03  0.25500000000E-02 0. -1.
<mgrwt>
<rscale>  0 0.79567252E+02</rscale>
<asrwt>0</asrwt>
<pdfrwt beam="1">  1        3 0.95451263E-03 0.79567252E+02</pdfrwt>
<pdfrwt beam="2">  1       -3 0.39246445E-01 0.79567252E+02</pdfrwt>
<totfact> 0.36809437E+04</totfact>
</mgrwt>
</event>
<event>
 4    1  0.7692565E-003  0.4803436E+02  0.7818608E-02  0.1456241E+00
         -3   -1    0    0  501    0 -0.00000000000E+00  0.00000000000E+00  0.83291886709E+00  0.83902016611E+00  0.10100000000E+00 0. -1.
          3   -1    0    0    0  501  0.00000000000E+00 -0.00000000000E+00 -0.69000098044E+03  0.69000098784E+03  0.10100000000E+00 0. -1.
          2    1    1    2    0  502 -0.13599136530E+02  0.14809898041E+02 -0.15565894569E+03  0.15695214868E+03  0.25500000000E-02 0. -1.
         -2    1    1    2  502    0  0.13599136530E+02 -0.14809898041E+02 -0.53350911589E+03  0.53388785932E+03  0.25500000000E-02 0. -1.
<mgrwt>
<rscale>  0 0.48034358E+02</rscale>
<asrwt>0</asrwt>
<pdfrwt beam="2">  1        3 0.10615401E+00 0.48034358E+02</pdfrwt>
<pdfrwt beam="1">  1       -3 0.12861182E-03 0.48034358E+02</pdfrwt>
<totfact> 0.72662791E+04</totfact>
</mgrwt>
</event>
<event>
 4    1  0.7692565E-003  0.4374848E+02  0.7818608E-02  0.1482309E+00
         -3   -1    0    0  501    0 -0.00000000000E+00  0.00000000000E+00  0.59585920155E+02  0.59586005754E+02  0.10100000000E+00 0. -1.
          3   -1    0    0    0  501  0.00000000000E+00 -0.00000000000E+00 -0.80297149250E+01  0.80303501030E+01  0.10100000000E+00 0. -1.
          2    1    1    2    0  502  0.14592777894E+01  0.20749944387E+02  0.15319188134E+02  0.25833451479E+02  0.25500000000E-02 0. -1.
         -2    1    1    2  502    0 -0.14592777894E+01 -0.20749944387E+02  0.36237017096E+02  0.41782904378E+02  0.25500000000E-02 0. -1.
<mgrwt>
<rscale>  0 0.43748477E+02</rscale>
<asrwt>0</asrwt>
<pdfrwt beam="2">  1        3 0.12353962E-02 0.43748477E+02</pdfrwt>
<pdfrwt beam="1">  1       -3 0.91671203E-02 0.43748477E+02</pdfrwt>
<totfact> 0.25196713E+05</totfact>
</mgrwt>
</event>
<event>
 4    1  0.7692565E-003  0.5916509E+02  0.7818608E-02  0.1401369E+00
          3   -1    0    0    0  501  0.00000000000E+00  0.00000000000E+00  0.64017198938E+01  0.64025165833E+01  0.10100000000E+00 0.  1.
         -3   -1    0    0  501    0 -0.00000000000E+00 -0.00000000000E+00 -0.13669253828E+03  0.13669257559E+03  0.10100000000E+00 0.  1.
          2    1    1    2    0  502  0.11687867384E+01  0.26408682037E+02 -0.97262606635E+02  0.10079086866E+03  0.25500000000E-02 0.  1.
         -2    1    1    2  502    0 -0.11687867384E+01 -0.26408682037E+02 -0.33028211750E+02  0.42304223516E+02  0.25500000000E-02 0.  1.
<mgrwt>
<rscale>  0 0.59165091E+02</rscale>
<asrwt>0</asrwt>
<pdfrwt beam="1">  1        3 0.98494424E-03 0.59165091E+02</pdfrwt>
<pdfrwt beam="2">  1       -3 0.21029683E-01 0.59165091E+02</pdfrwt>
<totfact> 0.99187709E+04</totfact>
</mgrwt>
</event>
<event>
 4    1  0.7692565E-003  0.7806402E+02  0.7818608E-02  0.1334637E+00
          3   -1    0    0    0  501  0.00000000000E+00  0.00000000000E+00  0.20760370837E+02  0.20760616520E+02  0.10100000000E+00 0. -1.
         -3   -1    0    0  501    0 -0.00000000000E+00 -0.00000000000E+00 -0.73384192557E+02  0.73384262061E+02  0.10100000000E+00 0. -1.
          2    1    1    2    0  502  0.32152894608E+02  0.18408211216E+02 -0.11500878335E+02  0.38793570097E+02  0.25500000000E-02 0.  1.
         -2    1    1    2  502    0 -0.32152894608E+02 -0.18408211216E+02 -0.41122943385E+02  0.55351308485E+02  0.25500000000E-02 0.  1.
<mgrwt>
<rscale>  0 0.78064022E+02</rscale>
<asrwt>0</asrwt>
<pdfrwt beam="1">  1        3 0.31939275E-02 0.78064022E+02</pdfrwt>
<pdfrwt beam="2">  1       -3 0.11289900E-01 0.78064022E+02</pdfrwt>
<totfact> 0.53363918E+04</totfact>
</mgrwt>
</event>
<event>
 4    1  0.7692565E-003  0.1019034E+03  0.7818608E-02  0.1276343E+00
          3   -1    0    0    0  501  0.00000000000E+00  0.00000000000E+00  0.11771445739E+03  0.11771450072E+03  0.10100000000E+00 0. -1.
         -3   -1    0    0  501    0 -0.00000000000E+00 -0.00000000000E+00 -0.22053863098E+02  0.22054094371E+02  0.10100000000E+00 0. -1.
          2    1    1    2    0  502 -0.37735996438E+02 -0.13249221831E+02  0.91128117722E+02  0.99518245324E+02  0.25500000000E-02 0.  1.
         -2    1    1    2  502    0  0.37735996438E+02  0.13249221831E+02  0.45324765746E+01  0.40250349771E+02  0.25500000000E-02 0.  1.
<mgrwt>
<rscale>  0 0.10190344E+03</rscale>
<asrwt>0</asrwt>
<pdfrwt beam="1">  1        3 0.18109937E-01 0.10190344E+03</pdfrwt>
<pdfrwt beam="2">  1       -3 0.33929232E-02 0.10190344E+03</pdfrwt>
<totfact> 0.23575813E+04</totfact>
</mgrwt>
</event>
<event>
 4    1  0.7692565E-003  0.5958280E+02  0.7818608E-02  0.1399591E+00
          3   -1    0    0    0  501  0.00000000000E+00  0.00000000000E+00  0.17326631646E+02  0.17326926017E+02  0.10100000000E+00 0. -1.
         -3   -1    0    0  501    0 -0.00000000000E+00 -0.00000000000E+00 -0.51222537052E+02  0.51222636627E+02  0.10100000000E+00 0. -1.
          2    1    1    2    0  502  0.20225155948E+02 -0.21507527331E+02 -0.12360839249E+02  0.32006577737E+02  0.25500000000E-02 0.  1.
         -2    1    1    2  502    0 -0.20225155948E+02  0.21507527331E+02 -0.21535066157E+02  0.36542984907E+02  0.25500000000E-02 0.  1.
<mgrwt>
<rscale>  0 0.59582801E+02</rscale>
<asrwt>0</asrwt>
<pdfrwt beam="1">  1        3 0.26656660E-02 0.59582801E+02</pdfrwt>
<pdfrwt beam="2">  1       -3 0.78804206E-02 0.59582801E+02</pdfrwt>
<totfact> 0.11516418E+05</totfact>
</mgrwt>
</event>
<event>
 4    1  0.7692565E-003  0.4587183E+02  0.7818608E-02  0.1468971E+00
          3   -1    0    0    0  501  0.00000000000E+00  0.00000000000E+00  0.25713294829E+02  0.25713493189E+02  0.10100000000E+00 0.  1.
         -3   -1    0    0  501    0 -0.00000000000E+00 -0.00000000000E+00 -0.20458128285E+02  0.20458377598E+02  0.10100000000E+00 0.  1.
          2    1    1    2    0  502 -0.16394980877E+01  0.20831953246E+02  0.12144477785E+02  0.24169124460E+02  0.25500000000E-02 0.  1.
         -2    1    1    2  502    0  0.16394980877E+01 -0.20831953246E+02 -0.68893112409E+01  0.22002746326E+02  0.25500000000E-02 0.  1.
<mgrwt>
<rscale>  0 0.45871831E+02</rscale>
<asrwt>0</asrwt>
<pdfrwt beam="1">  1        3 0.39559260E-02 0.45871831E+02</pdfrwt>
<pdfrwt beam="2">  1       -3 0.31474388E-02 0.45871831E+02</pdfrwt>
<totfact> 0.23714949E+05</totfact>
</mgrwt>
</event>
<event>
 4    1  0.7692565E-003  0.6748164E+02  0.7818608E-02  0.1368872E+00
          3   -1    0    0    0  501  0.00000000000E+00  0.00000000000E+00  0.16439576185E+02  0.16439886440E+02  0.10100000000E+00 0.  1.
         -3   -1    0    0  501    0 -0.00000000000E+00 -0.00000000000E+00 -0.69249144138E+02  0.69249217792E+02  0.10100000000E+00 0.  1.
          2    1    1    2    0  502  0.63218020626E+01 -0.29428968158E+02 -0.45763243494E+02  0.54775029071E+02  0.25500000000E-02 0.  1.
         -2    1    1    2  502    0 -0.63218020626E+01  0.29428968158E+02 -0.70463244581E+01  0.30914075161E+02  0.25500000000E-02 0.  1.
<mgrwt>
<rscale>  0 0.67481643E+02</rscale>
<asrwt>0</asrwt>
<pdfrwt beam="1">  1        3 0.25291951E-02 0.67481643E+02</pdfrwt>
<pdfrwt beam="2">  1       -3 0.10653744E-01 0.67481643E+02</pdfrwt>
<totfact> 0.79961868E+04</totfact>
</mgrwt>
</event>
<event>
 4    1  0.7692565E-003  0.9772314E+02  0.7818608E-02  0.1285158E+00
          3   -1    0    0    0  501  0.00000000000E+00  0.00000000000E+00  0.31948408373E+02  0.31948568021E+02  0.10100000000E+00 0.  1.
         -3   -1    0    0  501    0 -0.00000000000E+00 -0.00000000000E+00 -0.74728002112E+02  0.74728070367E+02  0.10100000000E+00 0.  1.
          2    1    1    2    0  502  0.22884688976E+02  0.33702188089E+02  0.80618572840E+01  0.41527581447E+02  0.25500000000E-02 0. -1.
         -2    1    1    2  502    0 -0.22884688976E+02 -0.33702188089E+02 -0.50841451023E+02  0.65149056940E+02  0.25500000000E-02 0. -1.
<mgrwt>
<rscale>  0 0.97723137E+02</rscale>
<asrwt>0</asrwt>
<pdfrwt beam="1">  1        3 0.49151573E-02 0.97723137E+02</pdfrwt>
<pdfrwt beam="2">  1       -3 0.11496633E-01 0.97723137E+02</pdfrwt>
<totfact> 0.28279823E+04</totfact>
</mgrwt>
</event>
<event>
 4    1  0.7692565E-003  0.6949661E+02  0.7818608E-02  0.1361813E+00
         -3   -1    0    0  501    0 -0.00000000000E+00  0.00000000000E+00  0.79815382420E+02  0.79815446324E+02  0.10100000000E+00 0. -1.
          3   -1    0    0    0  501  0.00000000000E+00 -0.00000000000E+00 -0.15127730769E+02  0.15128067927E+02  0.10100000000E+00 0. -1.
          2    1    1    2    0  502 -0.18194316823E+02 -0.16220402520E+02  0.66176920388E+02  0.70523183572E+02  0.25500000000E-02 0.  1.
         -2    1    1    2  502    0  0.18194316823E+02  0.16220402520E+02 -0.14892687368E+01  0.24420330679E+02  0.25500000000E-02 0.  1.
<mgrwt>
<rscale>  0 0.69496609E+02</rscale>
<asrwt>0</asrwt>
<pdfrwt beam="2">  1        3 0.23273740E-02 0.69496609E+02</pdfrwt>
<pdfrwt beam="1">  1       -3 0.12279321E-01 0.69496609E+02</pdfrwt>
<totfact> 0.72475300E+04</totfact>
</mgrwt>
</event>
<event>
 4    1  0.7692565E-003  0.4210775E+02  0.7818608E-02  0.1493250E+00
          3   -1    0    0    0  501  0.00000000000E+00  0.00000000000E+00  0.89374852187E+02  0.89374909255E+02  0.10100000000E+00 0. -1.
         -3   -1    0    0  501    0 -0.00000000000E+00 -0.00000000000E+00 -0.49590514373E+01  0.49600798540E+01  0.10100000000E+00 0. -1.
          2    1    1    2    0  502  0.72972042298E+01  0.19723778993E+02  0.44435907179E+02  0.49161229650E+02  0.25500000000E-02 0.  1.
         -2    1    1    2  502    0 -0.72972042298E+01 -0.19723778993E+02  0.39979893570E+02  0.45173759459E+02  0.25500000000E-02 0.  1.
<mgrwt>
<rscale>  0 0.42107752E+02</rscale>
<asrwt>0</asrwt>
<pdfrwt beam="1">  1        3 0.13750061E-01 0.42107752E+02</pdfrwt>
<pdfrwt beam="2">  1       -3 0.76301448E-03 0.42107752E+02</pdfrwt>
<totfact> 0.25902706E+05</totfact>
</mgrwt>
</event>
<event>
 4    1  0.7692565E-003  0.5792843E+02  0.7818608E-02  0.1406737E+00
         -3   -1    0    0  501    0 -0.00000000000E+00  0.00000000000E+00  0.90374932206E+02  0.90374988643E+02  0.10100000000E+00 0.  1.
          3   -1    0    0    0  501  0.00000000000E+00 -0.00000000000E+00 -0.92823924865E+01  0.92829419514E+01  0.10100000000E+00 0.  1.
          2    1    1    2    0  502  0.49815666435E+01 -0.28528279943E+02  0.39691241137E+02  0.49133220862E+02  0.25500000000E-02 0.  1.
         -2    1    1    2  502    0 -0.49815666435E+01  0.28528279943E+02  0.41401298583E+02  0.50524709733E+02  0.25500000000E-02 0.  1.
<mgrwt>
<rscale>  0 0.57928431E+02</rscale>
<asrwt>0</asrwt>
<pdfrwt beam="2">  1        3 0.14281070E-02 0.57928431E+02</pdfrwt>
<pdfrwt beam="1">  1       -3 0.13903882E-01 0.57928431E+02</pdfrwt>
<totfact> 0.11503247E+05</totfact>
</mgrwt>
</event>
<event>
 4    1  0.7692565E-003  0.5718632E+02  0.7818608E-02  0.1410034E+00
          3   -1    0    0    0  501  0.00000000000E+00  0.00000000000E+00  0.18929357798E+02  0.18929627245E+02  0.10100000000E+00 0. -1.
         -3   -1    0    0  501    0 -0.00000000000E+00 -0.00000000000E+00 -0.43189878250E+02  0.43189996344E+02  0.10100000000E+00 0. -1.
          2    1    1    2    0  502 -0.60738836719E+01  0.21522333777E+02  0.72243820507E+01  0.23500949270E+02  0.25500000000E-02 0.  1.
         -2    1    1    2  502    0  0.60738836719E+01 -0.21522333777E+02 -0.31484902503E+02  0.38618674319E+02  0.25500000000E-02 0.  1.
<mgrwt>
<rscale>  0 0.57186316E+02</rscale>
<asrwt>0</asrwt>
<pdfrwt beam="1">  1        3 0.29122387E-02 0.57186316E+02</pdfrwt>
<pdfrwt beam="2">  1       -3 0.66446265E-02 0.57186316E+02</pdfrwt>
<totfact> 0.13007534E+05</totfact>
</mgrwt>
</event>
<event>
 4    1  0.7692565E-003  0.6497391E+02  0.7818608E-02  0.1378070E+00
          3   -1    0    0    0  501  0.00000000000E+00  0.00000000000E+00  0.71175114665E+01  0.71182280433E+01  0.10100000000E+00 0.  1.
         -3   -1    0    0  501    0 -0.00000000000E+00 -0.00000000000E+00 -0.14827430328E+03  0.14827433768E+03  0.10100000000E+00 0.  1.
          2    1    1    2    0  502 -0.22788264660E+02 -0.17157116885E+02 -0.10776248388E+03  0.11147387409E+03  0.25500000000E-02 0.  1.
         -2    1    1    2  502    0  0.22788264660E+02  0.17157116885E+02 -0.33394307940E+02  0.43918691639E+02  0.25500000000E-02 0.  1.
<mgrwt>
<rscale>  0 0.64973915E+02</rscale>
<asrwt>0</asrwt>
<pdfrwt beam="1">  1        3 0.10950596E-02 0.64973915E+02</pdfrwt>
<pdfrwt beam="2">  1       -3 0.22811487E-01 0.64973915E+02</pdfrwt>
<totfact> 0.76001503E+04</totfact>
</mgrwt>
</event>
<event>
 4    1  0.7692565E-003  0.1172130E+03  0.7818608E-02  0.1247767E+00
         -3   -1    0    0  501    0 -0.00000000000E+00  0.00000000000E+00  0.43211693199E+03  0.43211694379E+03  0.10100000000E+00 0. -1.
          3   -1    0    0    0  501  0.00000000000E+00 -0.00000000000E+00 -0.79482645452E+01  0.79489062317E+01  0.10100000000E+00 0. -1.
          2    1    1    2    0  502  0.57186895293E+02 -0.12342484504E+02  0.22511465736E+03  0.23259253402E+03  0.25500000000E-02 0. -1.
         -2    1    1    2  502    0 -0.57186895293E+02  0.12342484504E+02  0.19905401008E+03  0.20747331600E+03  0.25500000000E-02 0. -1.
<mgrwt>
<rscale>  0 0.11721303E+03</rscale>
<asrwt>0</asrwt>
<pdfrwt beam="2">  1        3 0.12228606E-02 0.11721303E+03</pdfrwt>
<pdfrwt beam="1">  1       -3 0.66479557E-01 0.11721303E+03</pdfrwt>
<totfact> 0.98375924E+03</totfact>
</mgrwt>
</event>
<event>
 4    1  0.7692565E-003  0.6092576E+02  0.7818608E-02  0.1393987E+00
         -3   -1    0    0  501    0 -0.00000000000E+00  0.00000000000E+00  0.48896628476E+01  0.48907058553E+01  0.10100000000E+00 0. -1.
          3   -1    0    0    0  501  0.00000000000E+00 -0.00000000000E+00 -0.18976418502E+03  0.18976421190E+03  0.10100000000E+00 0. -1.
          2    1    1    2    0  502 -0.24113874510E+02 -0.15031182201E+02 -0.12751947506E+03  0.13064697435E+03  0.25500000000E-02 0.  1.
         -2    1    1    2  502    0  0.24113874510E+02  0.15031182201E+02 -0.57355047116E+02  0.64007943401E+02  0.25500000000E-02 0.  1.
<mgrwt>
<rscale>  0 0.60925759E+02</rscale>
<asrwt>0</asrwt>
<pdfrwt beam="2">  1        3 0.29194567E-01 0.60925759E+02</pdfrwt>
<pdfrwt beam="1">  1       -3 0.75233827E-03 0.60925759E+02</pdfrwt>
<totfact> 0.83103995E+04</totfact>
</mgrwt>
</event>
<event>
 4    1  0.7692565E-003  0.4396961E+02  0.7818608E-02  0.1480879E+00
         -3   -1    0    0  501    0 -0.00000000000E+00  0.00000000000E+00  0.21140622908E+02  0.21140864172E+02  0.10100000000E+00 0.  1.
          3   -1    0    0    0  501  0.00000000000E+00 -0.00000000000E+00 -0.22862210075E+02  0.22862433171E+02  0.10100000000E+00 0.  1.
          2    1    1    2    0  502 -0.16474647710E+02 -0.14095645920E+02  0.27793442811E+01  0.21859231739E+02  0.25500000000E-02 0.  1.
         -2    1    1    2  502    0  0.16474647710E+02  0.14095645920E+02 -0.45009314477E+01  0.22144065604E+02  0.25500000000E-02 0.  1.
<mgrwt>
<rscale>  0 0.43969607E+02</rscale>
<asrwt>0</asrwt>
<pdfrwt beam="2">  1        3 0.35172988E-02 0.43969607E+02</pdfrwt>
<pdfrwt beam="1">  1       -3 0.32524392E-02 0.43969607E+02</pdfrwt>
<totfact> 0.26513312E+05</totfact>
</mgrwt>
</event>
<event>
 4    1  0.7692565E-003  0.4323075E+02  0.7818608E-02  0.1485699E+00
         -3   -1    0    0  501    0 -0.00000000000E+00  0.00000000000E+00  0.12232862033E+02  0.12233278977E+02  0.10100000000E+00 0. -1.
          3   -1    0    0    0  501  0.00000000000E+00 -0.00000000000E+00 -0.38193066286E+02  0.38193199831E+02  0.10100000000E+00 0. -1.
          2    1    1    2    0  502  0.10703364517E+02  0.18602937654E+02 -0.15975193935E+02  0.26755151450E+02  0.25500000000E-02 0.  1.
         -2    1    1    2  502    0 -0.10703364517E+02 -0.18602937654E+02 -0.99850103173E+01  0.23671327358E+02  0.25500000000E-02 0.  1.
<mgrwt>
<rscale>  0 0.43230748E+02</rscale>
<asrwt>0</asrwt>
<pdfrwt beam="2">  1        3 0.58758986E-02 0.43230748E+02</pdfrwt>
<pdfrwt beam="1">  1       -3 0.18820211E-02 0.43230748E+02</pdfrwt>
<totfact> 0.27161751E+05</totfact>
</mgrwt>
</event>
<event>
 4    1  0.7692565E-003  0.6103566E+02  0.7818608E-02  0.1393536E+00
          3   -1    0    0    0  501  0.00000000000E+00  0.00000000000E+00  0.53792985560E+00  0.54732945247E+00  0.10100000000E+00 0. -1.
         -3   -1    0    0  501    0 -0.00000000000E+00 -0.00000000000E+00 -0.17163323404E+04  0.17163323434E+04  0.10100000000E+00 0. -1.
          2    1    1    2    0  502  0.11942874173E+02 -0.25612601410E+02 -0.53386198964E+03  0.53460944771E+03  0.25500000000E-02 0. -1.
         -2    1    1    2  502    0 -0.11942874173E+02  0.25612601410E+02 -0.11819324209E+04  0.11822702251E+04  0.25500000000E-02 0. -1.
<mgrwt>
<rscale>  0 0.61035659E+02</rscale>
<asrwt>0</asrwt>
<pdfrwt beam="1">  1        3 0.83483088E-04 0.61035659E+02</pdfrwt>
<pdfrwt beam="2">  1       -3 0.26404751E+00 0.61035659E+02</pdfrwt>
<totfact> 0.13933191E+04</totfact>
</mgrwt>
</event>
<event>
 4    1  0.7692565E-003  0.7539604E+02  0.7818608E-02  0.1342649E+00
          3   -1    0    0    0  501  0.00000000000E+00  0.00000000000E+00  0.84442390211E+02  0.84442450613E+02  0.10100000000E+00 0. -1.
         -3   -1    0    0  501    0 -0.00000000000E+00 -0.00000000000E+00 -0.16829491509E+02  0.16829794576E+02  0.10100000000E+00 0. -1.
          2    1    1    2    0  502 -0.30215345125E+02 -0.10714515424E+02  0.71658415339E+01  0.32849919531E+02  0.25500000000E-02 0.  1.
         -2    1    1    2  502    0  0.30215345125E+02  0.10714515424E+02  0.60447057167E+02  0.68422325658E+02  0.25500000000E-02 0.  1.
<mgrwt>
<rscale>  0 0.75396045E+02</rscale>
<asrwt>0</asrwt>
<pdfrwt beam="1">  1        3 0.12991165E-01 0.75396045E+02</pdfrwt>
<pdfrwt beam="2">  1       -3 0.25891805E-02 0.75396045E+02</pdfrwt>
<totfact> 0.57633200E+04</totfact>
</mgrwt>
</event>
<event>
 4    1  0.7692565E-003  0.6608160E+02  0.7818608E-02  0.1373949E+00
         -3   -1    0    0  501    0 -0.00000000000E+00  0.00000000000E+00  0.41509747267E+02  0.41509870141E+02  0.10100000000E+00 0. -1.
          3   -1    0    0    0  501  0.00000000000E+00 -0.00000000000E+00 -0.26299455768E+02  0.26299649707E+02  0.10100000000E+00 0. -1.
          2    1    1    2    0  502 -0.25396006835E+01  0.32817025022E+02  0.46510158272E+01  0.33242121738E+02  0.25500000000E-02 0. -1.
         -2    1    1    2  502    0  0.25396006835E+01 -0.32817025022E+02  0.10559275671E+02  0.34567398110E+02  0.25500000000E-02 0. -1.
<mgrwt>
<rscale>  0 0.66081601E+02</rscale>
<asrwt>0</asrwt>
<pdfrwt beam="2">  1        3 0.40460945E-02 0.66081601E+02</pdfrwt>
<pdfrwt beam="1">  1       -3 0.63861393E-02 0.66081601E+02</pdfrwt>
<totfact> 0.88131480E+04</totfact>
</mgrwt>
</event>
<event>
 4    1  0.7692565E-003  0.4408474E+02  0.7818608E-02  0.1480138E+00
          3   -1    0    0    0  501  0.00000000000E+00  0.00000000000E+00  0.31328670746E+02  0.31328833552E+02  0.10100000000E+00 0.  1.
         -3   -1    0    0  501    0 -0.00000000000E+00 -0.00000000000E+00 -0.15508301231E+02  0.15508630116E+02  0.10100000000E+00 0.  1.
          2    1    1    2    0  502 -0.20680621191E+02  0.21734509528E+01  0.14243563292E+00  0.20795006042E+02  0.25500000000E-02 0.  1.
         -2    1    1    2  502    0  0.20680621191E+02 -0.21734509528E+01  0.15677933883E+02  0.26042457626E+02  0.25500000000E-02 0.  1.
<mgrwt>
<rscale>  0 0.44084736E+02</rscale>
<asrwt>0</asrwt>
<pdfrwt beam="1">  1        3 0.48198333E-02 0.44084736E+02</pdfrwt>
<pdfrwt beam="2">  1       -3 0.23859303E-02 0.44084736E+02</pdfrwt>
<totfact> 0.26133306E+05</totfact>
</mgrwt>
</event>
<event>
 4    1  0.7692565E-003  0.5724807E+02  0.7818608E-02  0.1409757E+00
         -3   -1    0    0  501    0 -0.00000000000E+00  0.00000000000E+00  0.93088784391E+01  0.93094263408E+01  0.10100000000E+00 0. -1.
          3   -1    0    0    0  501  0.00000000000E+00 -0.00000000000E+00 -0.88013385208E+02  0.88013443159E+02  0.10100000000E+00 0. -1.
          2    1    1    2    0  502  0.23805304088E+02  0.68992095601E+01 -0.15009070739E+02  0.28975227458E+02  0.25500000000E-02 0.  1.
         -2    1    1    2  502    0 -0.23805304088E+02 -0.68992095601E+01 -0.63695436029E+02  0.68347642042E+02  0.25500000000E-02 0.  1.
<mgrwt>
<rscale>  0 0.57248070E+02</rscale>
<asrwt>0</asrwt>
<pdfrwt beam="2">  1        3 0.13540567E-01 0.57248070E+02</pdfrwt>
<pdfrwt beam="1">  1       -3 0.14321818E-02 0.57248070E+02</pdfrwt>
<totfact> 0.11918750E+05</totfact>
</mgrwt>
</event>
<event>
 4    1  0.7692565E-003  0.5768658E+02  0.7818608E-02  0.1407805E+00
          3   -1    0    0    0  501  0.00000000000E+00  0.00000000000E+00  0.13165364681E+01  0.13204049651E+01  0.10100000000E+00 0. -1.
         -3   -1    0    0  501    0 -0.00000000000E+00 -0.00000000000E+00 -0.63098113675E+03  0.63098114484E+03  0.10100000000E+00 0. -1.
          2    1    1    2    0  502 -0.24305035845E+01 -0.28044008032E+02 -0.38377462940E+03  0.38480558716E+03  0.25500000000E-02 0. -1.
         -2    1    1    2  502    0  0.24305035845E+01  0.28044008032E+02 -0.24588997088E+03  0.24749596264E+03  0.25500000000E-02 0. -1.
<mgrwt>
<rscale>  0 0.57686576E+02</rscale>
<asrwt>0</asrwt>
<pdfrwt beam="1">  1        3 0.20284277E-03 0.57686576E+02</pdfrwt>
<pdfrwt beam="2">  1       -3 0.97074078E-01 0.57686576E+02</pdfrwt>
<totfact> 0.49384389E+04</totfact>
</mgrwt>
</event>
<event>
 4    1  0.7692565E-003  0.4753731E+02  0.7818608E-02  0.1459096E+00
          3   -1    0    0    0  501  0.00000000000E+00  0.00000000000E+00  0.57612153835E+01  0.57621006322E+01  0.10100000000E+00 0. -1.
         -3   -1    0    0  501    0 -0.00000000000E+00 -0.00000000000E+00 -0.98052272678E+02  0.98052324696E+02  0.10100000000E+00 0. -1.
          2    1    1    2    0  502  0.22580912353E+02 -0.66758995428E+01 -0.39074546175E+02  0.45621106986E+02  0.25500000000E-02 0.  1.
         -2    1    1    2  502    0 -0.22580912353E+02  0.66758995428E+01 -0.53216511120E+02  0.58193318342E+02  0.25500000000E-02 0.  1.
<mgrwt>
<rscale>  0 0.47537308E+02</rscale>
<asrwt>0</asrwt>
<pdfrwt beam="1">  1        3 0.88641300E-03 0.47537308E+02</pdfrwt>
<pdfrwt beam="2">  1       -3 0.15085036E-01 0.47537308E+02</pdfrwt>
<totfact> 0.18777052E+05</totfact>
</mgrwt>
</event>
<event>
 4    1  0.7692565E-003  0.4682592E+02  0.7818608E-02  0.1463254E+00
         -3   -1    0    0  501    0 -0.00000000000E+00  0.00000000000E+00  0.35970059988E+02  0.35970201787E+02  0.10100000000E+00 0. -1.
          3   -1    0    0    0  501  0.00000000000E+00 -0.00000000000E+00 -0.15239190413E+02  0.15239525106E+02  0.10100000000E+00 0. -1.
          2    1    1    2    0  502  0.20885520522E+02 -0.48896665660E+01  0.10329011350E+00  0.21450512394E+02  0.25500000000E-02 0.  1.
         -2    1    1    2  502    0 -0.20885520522E+02  0.48896665660E+01  0.20627579462E+02  0.29759214498E+02  0.25500000000E-02 0.  1.
<mgrwt>
<rscale>  0 0.46825924E+02</rscale>
<asrwt>0</asrwt>
<pdfrwt beam="2">  1        3 0.23445275E-02 0.46825924E+02</pdfrwt>
<pdfrwt beam="1">  1       -3 0.55338920E-02 0.46825924E+02</pdfrwt>
<totfact> 0.22217928E+05</totfact>
</mgrwt>
</event>
<event>
 4    1  0.7692565E-003  0.4428924E+02  0.7818608E-02  0.1478828E+00
         -3   -1    0    0  501    0 -0.00000000000E+00  0.00000000000E+00  0.57591744073E+01  0.57600599696E+01  0.10100000000E+00 0.  1.
          3   -1    0    0    0  501  0.00000000000E+00 -0.00000000000E+00 -0.85140871997E+02  0.85140931903E+02  0.10100000000E+00 0.  1.
          2    1    1    2    0  502 -0.10861682666E+02  0.18992169510E+02 -0.46712906071E+02  0.51582693349E+02  0.25500000000E-02 0. -1.
         -2    1    1    2  502    0  0.10861682666E+02 -0.18992169510E+02 -0.32668791518E+02  0.39318298524E+02  0.25500000000E-02 0. -1.
<mgrwt>
<rscale>  0 0.44289236E+02</rscale>
<asrwt>0</asrwt>
<pdfrwt beam="2">  1        3 0.13098668E-01 0.44289236E+02</pdfrwt>
<pdfrwt beam="1">  1       -3 0.88609962E-03 0.44289236E+02</pdfrwt>
<totfact> 0.23066853E+05</totfact>
</mgrwt>
</event>
<event>
 4    1  0.7692565E-003  0.4256389E+02  0.7818608E-02  0.1490149E+00
          3   -1    0    0    0  501  0.00000000000E+00  0.00000000000E+00  0.38529563127E+03  0.38529564450E+03  0.10100000000E+00 0. -1.
         -3   -1    0    0  501    0 -0.00000000000E+00 -0.00000000000E+00 -0.11733332479E+01  0.11776722425E+01  0.10100000000E+00 0. -1.
          2    1    1    2    0  502  0.21987315840E+01 -0.21108368565E+02  0.20648504025E+03  0.20757280530E+03  0.25500000000E-02 0.  1.
         -2    1    1    2  502    0 -0.21987315840E+01  0.21108368565E+02  0.17763725777E+03  0.17890051145E+03  0.25500000000E-02 0.  1.
<mgrwt>
<rscale>  0 0.42563890E+02</rscale>
<asrwt>0</asrwt>
<pdfrwt beam="1">  1        3 0.59276657E-01 0.42563890E+02</pdfrwt>
<pdfrwt beam="2">  1       -3 0.18084738E-03 0.42563890E+02</pdfrwt>
<totfact> 0.14698562E+05</totfact>
</mgrwt>
</event>
<event>
 4    1  0.7692565E-003  0.7078918E+02  0.7818608E-02  0.1357430E+00
         -3   -1    0    0  501    0 -0.00000000000E+00  0.00000000000E+00  0.36721386377E+02  0.36721525274E+02  0.10100000000E+00 0. -1.
          3   -1    0    0    0  501  0.00000000000E+00 -0.00000000000E+00 -0.34115450558E+02  0.34115600065E+02  0.10100000000E+00 0. -1.
          2    1    1    2    0  502 -0.16915243233E+02 -0.21490741848E+02 -0.21179992301E+02  0.34591465988E+02  0.25500000000E-02 0.  1.
         -2    1    1    2  502    0  0.16915243233E+02  0.21490741848E+02  0.23785928119E+02  0.36245659351E+02  0.25500000000E-02 0.  1.
<mgrwt>
<rscale>  0 0.70789176E+02</rscale>
<asrwt>0</asrwt>
<pdfrwt beam="2">  1        3 0.52485530E-02 0.70789176E+02</pdfrwt>
<pdfrwt beam="1">  1       -3 0.56494663E-02 0.70789176E+02</pdfrwt>
<totfact> 0.72995556E+04</totfact>
</mgrwt>
</event>
<event>
 4    1  0.7692565E-003  0.7681233E+02  0.7818608E-02  0.1338349E+00
          3   -1    0    0    0  501  0.00000000000E+00  0.00000000000E+00  0.34468158128E+03  0.34468159608E+03  0.10100000000E+00 0.  1.
         -3   -1    0    0  501    0 -0.00000000000E+00 -0.00000000000E+00 -0.42787982285E+01  0.42799901028E+01  0.10100000000E+00 0.  1.
          2    1    1    2    0  502 -0.20505730808E+02  0.19373023053E+02  0.51800072189E+02  0.58983442621E+02  0.25500000000E-02 0.  1.
         -2    1    1    2  502    0  0.20505730808E+02 -0.19373023053E+02  0.28860271086E+03  0.28997814356E+03  0.25500000000E-02 0.  1.
<mgrwt>
<rscale>  0 0.76812329E+02</rscale>
<asrwt>0</asrwt>
<pdfrwt beam="1">  1        3 0.53028045E-01 0.76812329E+02</pdfrwt>
<pdfrwt beam="2">  1       -3 0.65836926E-03 0.76812329E+02</pdfrwt>
<totfact> 0.35055124E+04</totfact>
</mgrwt>
</event>
<event>
 4    1  0.7692565E-003  0.7351983E+02  0.7818608E-02  0.1348517E+00
         -3   -1    0    0  501    0 -0.00000000000E+00  0.00000000000E+00  0.41103660243E+02  0.41103784332E+02  0.10100000000E+00 0. -1.
          3   -1    0    0    0  501  0.00000000000E+00 -0.00000000000E+00 -0.32874958256E+02  0.32875113404E+02  0.10100000000E+00 0. -1.
          2    1    1    2    0  502  0.20278543898E+02  0.15014080427E+02 -0.22785500918E+02  0.33997367725E+02  0.25500000000E-02 0. -1.
         -2    1    1    2  502    0 -0.20278543898E+02 -0.15014080427E+02  0.31014202905E+02  0.39981530011E+02  0.25500000000E-02 0. -1.
<mgrwt>
<rscale>  0 0.73519833E+02</rscale>
<asrwt>0</asrwt>
<pdfrwt beam="2">  1        3 0.50577074E-02 0.73519833E+02</pdfrwt>
<pdfrwt beam="1">  1       -3 0.63236615E-02 0.73519833E+02</pdfrwt>
<totfact> 0.65549510E+04</totfact>
</mgrwt>
</event>
<event>
 4    1  0.7692565E-003  0.4503831E+02  0.7818608E-02  0.1474103E+00
         -3   -1    0    0  501    0 -0.00000000000E+00  0.00000000000E+00  0.18958391614E+02  0.18958660649E+02  0.10100000000E+00 0. -1.
          3   -1    0    0    0  501  0.00000000000E+00 -0.00000000000E+00 -0.26748141949E+02  0.26748332635E+02  0.10100000000E+00 0. -1.
          2    1    1    2    0  502 -0.52032324070E+01 -0.21559703553E+02 -0.78537941120E+01  0.23528207183E+02  0.25500000000E-02 0. -1.
         -2    1    1    2  502    0  0.52032324070E+01  0.21559703553E+02  0.64043776600E-01  0.22178786101E+02  0.25500000000E-02 0. -1.
<mgrwt>
<rscale>  0 0.45038306E+02</rscale>
<asrwt>0</asrwt>
<pdfrwt beam="2">  1        3 0.41151341E-02 0.45038306E+02</pdfrwt>
<pdfrwt beam="1">  1       -3 0.29167110E-02 0.45038306E+02</pdfrwt>
<totfact> 0.24857137E+05</totfact>
</mgrwt>
</event>
<event>
 4    1  0.7692565E-003  0.4260437E+02  0.7818608E-02  0.1489876E+00
          3   -1    0    0    0  501  0.00000000000E+00  0.00000000000E+00  0.22286154626E+02  0.22286383489E+02  0.10100000000E+00 0.  1.
         -3   -1    0    0  501    0 -0.00000000000E+00 -0.00000000000E+00 -0.20361200499E+02  0.20361450998E+02  0.10100000000E+00 0.  1.
          2    1    1    2    0  502 -0.63763512293E+01 -0.20317191689E+02  0.38141532073E+00  0.21297690421E+02  0.25500000000E-02 0.  1.
         -2    1    1    2  502    0  0.63763512293E+01  0.20317191689E+02  0.15435388069E+01  0.21350144066E+02  0.25500000000E-02 0.  1.
<mgrwt>
<rscale>  0 0.42604370E+02</rscale>
<asrwt>0</asrwt>
<pdfrwt beam="1">  1        3 0.34286760E-02 0.42604370E+02</pdfrwt>
<pdfrwt beam="2">  1       -3 0.31325293E-02 0.42604370E+02</pdfrwt>
<totfact> 0.28778158E+05</totfact>
</mgrwt>
</event>
<event>
 4    1  0.7692565E-003  0.4968116E+02  0.7818608E-02  0.1447069E+00
         -3   -1    0    0  501    0 -0.00000000000E+00  0.00000000000E+00  0.55972222013E+02  0.55972313138E+02  0.10100000000E+00 0.  1.
          3   -1    0    0    0  501  0.00000000000E+00 -0.00000000000E+00 -0.11023967184E+02  0.11024429848E+02  0.10100000000E+00 0.  1.
          2    1    1    2    0  502  0.15311014641E+02 -0.17629722824E+02  0.33902521344E+02  0.41165704854E+02  0.25500000000E-02 0. -1.
         -2    1    1    2  502    0 -0.15311014641E+02  0.17629722824E+02  0.11045733485E+02  0.25831038131E+02  0.25500000000E-02 0. -1.
<mgrwt>
<rscale>  0 0.49681163E+02</rscale>
<asrwt>0</asrwt>
<pdfrwt beam="2">  1        3 0.16960375E-02 0.49681163E+02</pdfrwt>
<pdfrwt beam="1">  1       -3 0.86111537E-02 0.49681163E+02</pdfrwt>
<totfact> 0.18377841E+05</totfact>
</mgrwt>
</event>
<event>
 4    1  0.7692565E-003  0.1578995E+03  0.7818608E-02  0.1191089E+00
         -3   -1    0    0  501    0 -0.00000000000E+00  0.00000000000E+00  0.24751787439E+03  0.24751789499E+03  0.10100000000E+00 0. -1.
          3   -1    0    0    0  501  0.00000000000E+00 -0.00000000000E+00 -0.25182141373E+02  0.25182343916E+02  0.10100000000E+00 0. -1.
          2    1    1    2    0  502  0.67408608789E+02  0.29543036469E+02  0.16051282391E+03  0.17658164737E+03  0.25500000000E-02 0. -1.
         -2    1    1    2  502    0 -0.67408608789E+02 -0.29543036469E+02  0.61822909106E+02  0.96118591539E+02  0.25500000000E-02 0. -1.
<mgrwt>
<rscale>  0 0.15789947E+03</rscale>
<asrwt>0</asrwt>
<pdfrwt beam="2">  1        3 0.38741928E-02 0.15789947E+03</pdfrwt>
<pdfrwt beam="1">  1       -3 0.38079689E-01 0.15789947E+03</pdfrwt>
<totfact> 0.54639114E+03</totfact>
</mgrwt>
</event>
<event>
 4    1  0.7692565E-003  0.5566830E+02  0.7818608E-02  0.1416965E+00
          3   -1    0    0    0  501  0.00000000000E+00  0.00000000000E+00  0.19284631687E+03  0.19284634332E+03  0.10100000000E+00 0.  1.
         -3   -1    0    0  501    0 -0.00000000000E+00 -0.00000000000E+00 -0.40167345396E+01  0.40180041515E+01  0.10100000000E+00 0.  1.
          2    1    1    2    0  502 -0.21953724878E+02  0.14422497814E+02  0.12697361949E+03  0.12966215536E+03  0.25500000000E-02 0.  1.
         -2    1    1    2  502    0  0.21953724878E+02 -0.14422497814E+02  0.61855962840E+02  0.67202192111E+02  0.25500000000E-02 0.  1.
<mgrwt>
<rscale>  0 0.55668305E+02</rscale>
<asrwt>0</asrwt>
<pdfrwt beam="1">  1        3 0.29668760E-01 0.55668305E+02</pdfrwt>
<pdfrwt beam="2">  1       -3 0.61805894E-03 0.55668305E+02</pdfrwt>
<totfact> 0.10413126E+05</totfact>
</mgrwt>
</event>
<event>
 4    1  0.7692565E-003  0.4244620E+02  0.7818608E-02  0.1490945E+00
          3   -1    0    0    0  501  0.00000000000E+00  0.00000000000E+00  0.47204405584E+03  0.47204406664E+03  0.10100000000E+00 0. -1.
         -3   -1    0    0  501    0 -0.00000000000E+00 -0.00000000000E+00 -0.95150715866E+00  0.95685258686E+00  0.10100000000E+00 0. -1.
          2    1    1    2    0  502 -0.19890318045E+02 -0.69940544445E+01  0.20852810562E+03  0.20959129846E+03  0.25500000000E-02 0. -1.
         -2    1    1    2  502    0  0.19890318045E+02  0.69940544445E+01  0.26256444305E+03  0.26340962077E+03  0.25500000000E-02 0. -1.
<mgrwt>
<rscale>  0 0.42446203E+02</rscale>
<asrwt>0</asrwt>
<pdfrwt beam="1">  1        3 0.72622816E-01 0.42446203E+02</pdfrwt>
<pdfrwt beam="2">  1       -3 0.14679725E-03 0.42446203E+02</pdfrwt>
<totfact> 0.13035777E+05</totfact>
</mgrwt>
</event>
<event>
 4    1  0.7692565E-003  0.1199975E+03  0.7818608E-02  0.1243101E+00
         -3   -1    0    0  501    0 -0.00000000000E+00  0.00000000000E+00  0.49527160438E+02  0.49527263421E+02  0.10100000000E+00 0. -1.
          3   -1    0    0    0  501  0.00000000000E+00 -0.00000000000E+00 -0.72684140675E+02  0.72684210849E+02  0.10100000000E+00 0. -1.
          2    1    1    2    0  502  0.52284822518E+02  0.29262197986E+02 -0.14778235433E+02  0.61712034043E+02  0.25500000000E-02 0.  1.
         -2    1    1    2  502    0 -0.52284822518E+02 -0.29262197986E+02 -0.83787448046E+01  0.60499440227E+02  0.25500000000E-02 0.  1.
<mgrwt>
<rscale>  0 0.11999749E+03</rscale>
<asrwt>0</asrwt>
<pdfrwt beam="2">  1        3 0.11182189E-01 0.11999749E+03</pdfrwt>
<pdfrwt beam="1">  1       -3 0.76195765E-02 0.11999749E+03</pdfrwt>
<totfact> 0.15494562E+04</totfact>
</mgrwt>
</event>
<event>
 4    1  0.7692565E-003  0.5063158E+02  0.7818608E-02  0.1441964E+00
          3   -1    0    0    0  501  0.00000000000E+00  0.00000000000E+00  0.71660877536E+02  0.71660948712E+02  0.10100000000E+00 0. -1.
         -3   -1    0    0  501    0 -0.00000000000E+00 -0.00000000000E+00 -0.89430019778E+01  0.89435722938E+01  0.10100000000E+00 0. -1.
          2    1    1    2    0  502  0.18950084456E+02  0.16040135423E+02  0.23479423701E+02  0.34171259695E+02  0.25500000000E-02 0.  1.
         -2    1    1    2  502    0 -0.18950084456E+02 -0.16040135423E+02  0.39238451858E+02  0.46433261311E+02  0.25500000000E-02 0.  1.
<mgrwt>
<rscale>  0 0.50631580E+02</rscale>
<asrwt>0</asrwt>
<pdfrwt beam="1">  1        3 0.11024800E-01 0.50631580E+02</pdfrwt>
<pdfrwt beam="2">  1       -3 0.13758958E-02 0.50631580E+02</pdfrwt>
<totfact> 0.16938257E+05</totfact>
</mgrwt>
</event>
<event>
 4    1  0.7692565E-003  0.5691089E+02  0.7818608E-02  0.1411272E+00
         -3   -1    0    0  501    0 -0.00000000000E+00  0.00000000000E+00  0.65616896051E+01  0.65624668741E+01  0.10100000000E+00 0. -1.
          3   -1    0    0    0  501  0.00000000000E+00 -0.00000000000E+00 -0.12339188663E+03  0.12339192797E+03  0.10100000000E+00 0. -1.
          2    1    1    2    0  502 -0.84946013247E+01  0.26803421571E+02 -0.48427479805E+02  0.55998236279E+02  0.25500000000E-02 0.  1.
         -2    1    1    2  502    0  0.84946013247E+01 -0.26803421571E+02 -0.68402717221E+02  0.73956158562E+02  0.25500000000E-02 0.  1.
<mgrwt>
<rscale>  0 0.56910894E+02</rscale>
<asrwt>0</asrwt>
<pdfrwt beam="2">  1        3 0.18983428E-01 0.56910894E+02</pdfrwt>
<pdfrwt beam="1">  1       -3 0.10095538E-02 0.56910894E+02</pdfrwt>
<totfact> 0.11258913E+05</totfact>
</mgrwt>
</event>
<event>
 4    1  0.7692565E-003  0.1515163E+03  0.7818608E-02  0.1198622E+00
         -3   -1    0    0  501    0 -0.00000000000E+00  0.00000000000E+00  0.31705193609E+04  0.31705193625E+04  0.10100000000E+00 0. -1.
          3   -1    0    0    0  501  0.00000000000E+00 -0.00000000000E+00 -0.18087967637E+01  0.18116143994E+01  0.10100000000E+00 0. -1.
          2    1    1    2    0  502 -0.51551665483E+02  0.26681187294E+02  0.56511076524E+03  0.56808418124E+03  0.25500000000E-02 0. -1.
         -2    1    1    2  502    0  0.51551665483E+02 -0.26681187294E+02  0.26035997988E+04  0.26042467956E+04  0.25500000000E-02 0. -1.
<mgrwt>
<rscale>  0 0.15151630E+03</rscale>
<asrwt>0</asrwt>
<pdfrwt beam="2">  1        3 0.27848959E-03 0.15151630E+03</pdfrwt>
<pdfrwt beam="1">  1       -3 0.48777890E+00 0.15151630E+03</pdfrwt>
<totfact> 0.19963707E+02</totfact>
</mgrwt>
</event>
<event>
 4    1  0.7692565E-003  0.7055625E+02  0.7818608E-02  0.1358212E+00
          3   -1    0    0    0  501  0.00000000000E+00  0.00000000000E+00  0.36664584892E+02  0.36664724004E+02  0.10100000000E+00 0. -1.
         -3   -1    0    0  501    0 -0.00000000000E+00 -0.00000000000E+00 -0.33943812318E+02  0.33943962581E+02  0.10100000000E+00 0. -1.
          2    1    1    2    0  502 -0.33496699583E+02  0.17988469772E+01  0.12290099770E+02  0.35725499189E+02  0.25500000000E-02 0.  1.
         -2    1    1    2  502    0  0.33496699583E+02 -0.17988469772E+01 -0.95693271960E+01  0.34883187396E+02  0.25500000000E-02 0.  1.
<mgrwt>
<rscale>  0 0.70556247E+02</rscale>
<asrwt>0</asrwt>
<pdfrwt beam="1">  1        3 0.56407276E-02 0.70556247E+02</pdfrwt>
<pdfrwt beam="2">  1       -3 0.52221472E-02 0.70556247E+02</pdfrwt>
<totfact> 0.73673523E+04</totfact>
</mgrwt>
</event>
<event>
 4    1  0.7692565E-003  0.5846894E+02  0.7818608E-02  0.1404372E+00
         -3   -1    0    0  501    0 -0.00000000000E+00  0.00000000000E+00  0.11906109724E+04  0.11906109767E+04  0.10100000000E+00 0.  1.
          3   -1    0    0    0  501  0.00000000000E+00 -0.00000000000E+00 -0.71427132786E+00  0.72137682927E+00  0.10100000000E+00 0.  1.
          2    1    1    2    0  502 -0.21230384359E+02 -0.52277532514E+01  0.99035627502E+03  0.99059760251E+03  0.25500000000E-02 0.  1.
         -2    1    1    2  502    0  0.21230384359E+02  0.52277532514E+01  0.19954042607E+03  0.20073475102E+03  0.25500000000E-02 0.  1.
<mgrwt>
<rscale>  0 0.58468943E+02</rscale>
<asrwt>0</asrwt>
<pdfrwt beam="2">  1        3 0.11043459E-03 0.58468943E+02</pdfrwt>
<pdfrwt beam="1">  1       -3 0.18317183E+00 0.58468943E+02</pdfrwt>
<totfact> 0.26022582E+04</totfact>
</mgrwt>
</event>
<event>
 4    1  0.7692565E-003  0.4487987E+02  0.7818608E-02  0.1475093E+00
         -3   -1    0    0  501    0 -0.00000000000E+00  0.00000000000E+00  0.29882329640E+03  0.29882331346E+03  0.10100000000E+00 0. -1.
          3   -1    0    0    0  501  0.00000000000E+00 -0.00000000000E+00 -0.16835810597E+01  0.16866078929E+01  0.10100000000E+00 0. -1.
          2    1    1    2    0  502 -0.10922431467E+02 -0.17259601057E+02  0.86346036332E+02  0.88728976860E+02  0.25500000000E-02 0.  1.
         -2    1    1    2  502    0  0.10922431467E+02  0.17259601057E+02  0.21079367900E+03  0.21178094450E+03  0.25500000000E-02 0.  1.
<mgrwt>
<rscale>  0 0.44879866E+02</rscale>
<asrwt>0</asrwt>
<pdfrwt beam="2">  1        3 0.25924630E-03 0.44879866E+02</pdfrwt>
<pdfrwt beam="1">  1       -3 0.45973104E-01 0.44879866E+02</pdfrwt>
<totfact> 0.14807209E+05</totfact>
</mgrwt>
</event>
<event>
 4    1  0.7692565E-003  0.4867351E+02  0.7818608E-02  0.1452630E+00
          3   -1    0    0    0  501  0.00000000000E+00  0.00000000000E+00  0.17755940181E+03  0.17755943054E+03  0.10100000000E+00 0. -1.
         -3   -1    0    0  501    0 -0.00000000000E+00 -0.00000000000E+00 -0.33348656993E+01  0.33363947956E+01  0.10100000000E+00 0. -1.
          2    1    1    2    0  502 -0.14882035184E+02  0.14545547402E+02  0.13400958060E+03  0.13561569091E+03  0.25500000000E-02 0.  1.
         -2    1    1    2  502    0  0.14882035184E+02 -0.14545547402E+02  0.40214955509E+02  0.45280134425E+02  0.25500000000E-02 0.  1.
<mgrwt>
<rscale>  0 0.48673511E+02</rscale>
<asrwt>0</asrwt>
<pdfrwt beam="1">  1        3 0.27316951E-01 0.48673511E+02</pdfrwt>
<pdfrwt beam="2">  1       -3 0.51317609E-03 0.48673511E+02</pdfrwt>
<totfact> 0.15040523E+05</totfact>
</mgrwt>
</event>
<event>
 4    1  0.7692565E-003  0.4716825E+02  0.7818608E-02  0.1461242E+00
         -3   -1    0    0  501    0 -0.00000000000E+00  0.00000000000E+00  0.48568347199E+02  0.48568452216E+02  0.10100000000E+00 0.  1.
          3   -1    0    0    0  501  0.00000000000E+00 -0.00000000000E+00 -0.11451788209E+02  0.11452233589E+02  0.10100000000E+00 0.  1.
          2    1    1    2    0  502  0.93605045020E+01 -0.18272269897E+02  0.33327611573E+02  0.39143640498E+02  0.25500000000E-02 0. -1.
         -2    1    1    2  502    0 -0.93605045020E+01  0.18272269897E+02  0.37889474170E+01  0.20877045307E+02  0.25500000000E-02 0. -1.
<mgrwt>
<rscale>  0 0.47168250E+02</rscale>
<asrwt>0</asrwt>
<pdfrwt beam="2">  1        3 0.17618559E-02 0.47168250E+02</pdfrwt>
<pdfrwt beam="1">  1       -3 0.74720958E-02 0.47168250E+02</pdfrwt>
<totfact> 0.21311554E+05</totfact>
</mgrwt>
</event>
<event>
 4    1  0.7692565E-003  0.4660150E+02  0.7818608E-02  0.1464584E+00
         -3   -1    0    0  501    0 -0.00000000000E+00  0.00000000000E+00  0.15548970772E+03  0.15548974052E+03  0.10100000000E+00 0. -1.
          3   -1    0    0    0  501  0.00000000000E+00 -0.00000000000E+00 -0.34909465362E+01  0.34924072956E+01  0.10100000000E+00 0. -1.
          2    1    1    2    0  502  0.10471909184E+02 -0.18708279741E+02  0.44869458762E+02  0.49728552652E+02  0.25500000000E-02 0.  1.
         -2    1    1    2  502    0 -0.10471909184E+02  0.18708279741E+02  0.10712930242E+03  0.10925359517E+03  0.25500000000E-02 0.  1.
<mgrwt>
<rscale>  0 0.46601501E+02</rscale>
<asrwt>0</asrwt>
<pdfrwt beam="2">  1        3 0.53718354E-03 0.46601501E+02</pdfrwt>
<pdfrwt beam="1">  1       -3 0.23921611E-01 0.46601501E+02</pdfrwt>
<totfact> 0.17506066E+05</totfact>
</mgrwt>
</event>
<event>
 4    1  0.7692565E-003  0.4049008E+02  0.7818608E-02  0.1504636E+00
         -3   -1    0    0  501    0 -0.00000000000E+00  0.00000000000E+00  0.30180929077E+02  0.30181098074E+02  0.10100000000E+00 0.  1.
          3   -1    0    0    0  501  0.00000000000E+00 -0.00000000000E+00 -0.13579755826E+02  0.13580131416E+02  0.10100000000E+00 0.  1.
          2    1    1    2    0  502 -0.19865374332E+02 -0.38901241512E+01  0.79667757951E+01  0.21753980930E+02  0.25500000000E-02 0.  1.
         -2    1    1    2  502    0  0.19865374332E+02  0.38901241512E+01  0.86343974566E+01  0.22007248560E+02  0.25500000000E-02 0.  1.
<mgrwt>
<rscale>  0 0.40490076E+02</rscale>
<asrwt>0</asrwt>
<pdfrwt beam="2">  1        3 0.20892351E-02 0.40490076E+02</pdfrwt>
<pdfrwt beam="1">  1       -3 0.46432617E-02 0.40490076E+02</pdfrwt>
<totfact> 0.32506842E+05</totfact>
</mgrwt>
</event>
<event>
 4    1  0.7692565E-003  0.1111005E+03  0.7818608E-02  0.1258545E+00
          3   -1    0    0    0  501  0.00000000000E+00  0.00000000000E+00  0.13786061176E+03  0.13786064875E+03  0.10100000000E+00 0.  1.
         -3   -1    0    0  501    0 -0.00000000000E+00 -0.00000000000E+00 -0.22383534581E+02  0.22383762448E+02  0.10100000000E+00 0.  1.
          2    1    1    2    0  502  0.38286657100E+02  0.33654689500E+02  0.25898373490E+02  0.57177198192E+02  0.25500000000E-02 0. -1.
         -2    1    1    2  502    0 -0.38286657100E+02 -0.33654689500E+02  0.89578703686E+02  0.10306721301E+03  0.25500000000E-02 0. -1.
<mgrwt>
<rscale>  0 0.11110048E+03</rscale>
<asrwt>0</asrwt>
<pdfrwt beam="1">  1        3 0.21209345E-01 0.11110048E+03</pdfrwt>
<pdfrwt beam="2">  1       -3 0.34436411E-02 0.11110048E+03</pdfrwt>
<totfact> 0.17860385E+04</totfact>
</mgrwt>
</event>
<event>
 4    1  0.7692565E-003  0.5175002E+02  0.7818608E-02  0.1436125E+00
         -3   -1    0    0  501    0 -0.00000000000E+00  0.00000000000E+00  0.81817378174E+00  0.82438421693E+00  0.10100000000E+00 0.  1.
          3   -1    0    0    0  501  0.00000000000E+00 -0.00000000000E+00 -0.81520527494E+03  0.81520528119E+03  0.10100000000E+00 0.  1.
          2    1    1    2    0  502 -0.10408247507E+02  0.21460244376E+02 -0.24900106062E+03  0.25014076417E+03  0.25500000000E-02 0.  1.
         -2    1    1    2  502    0  0.10408247507E+02 -0.21460244376E+02 -0.56538604054E+03  0.56588890124E+03  0.25500000000E-02 0.  1.
<mgrwt>
<rscale>  0 0.51750017E+02</rscale>
<asrwt>0</asrwt>
<pdfrwt beam="2">  1        3 0.12541603E+00 0.51750017E+02</pdfrwt>
<pdfrwt beam="1">  1       -3 0.12635175E-03 0.51750017E+02</pdfrwt>
<totfact> 0.52317788E+04</totfact>
</mgrwt>
</event>
<event>
 4    1  0.7692565E-003  0.6269888E+02  0.7818608E-02  0.1386843E+00
         -3   -1    0    0  501    0 -0.00000000000E+00  0.00000000000E+00  0.47712585280E+01  0.47723274134E+01  0.10100000000E+00 0. -1.
          3   -1    0    0    0  501  0.00000000000E+00 -0.00000000000E+00 -0.20595657875E+03  0.20595660351E+03  0.10100000000E+00 0. -1.
          2    1    1    2    0  502  0.25791342835E+02  0.15070968117E+02 -0.13255895924E+03  0.13588305681E+03  0.25500000000E-02 0. -1.
         -2    1    1    2  502    0 -0.25791342835E+02 -0.15070968117E+02 -0.68626360977E+02  0.74845874119E+02  0.25500000000E-02 0. -1.
<mgrwt>
<rscale>  0 0.62698878E+02</rscale>
<asrwt>0</asrwt>
<pdfrwt beam="2">  1        3 0.31685705E-01 0.62698878E+02</pdfrwt>
<pdfrwt beam="1">  1       -3 0.73412406E-03 0.62698878E+02</pdfrwt>
<totfact> 0.74930121E+04</totfact>
</mgrwt>
</event>
<event>
 4    1  0.7692565E-003  0.4011849E+02  0.7818608E-02  0.1507341E+00
          3   -1    0    0    0  501  0.00000000000E+00  0.00000000000E+00  0.15253898872E+02  0.15254233242E+02  0.10100000000E+00 0.  1.
         -3   -1    0    0  501    0 -0.00000000000E+00 -0.00000000000E+00 -0.26377671878E+02  0.26377865242E+02  0.10100000000E+00 0.  1.
          2    1    1    2    0  502  0.18297616444E+02 -0.82174978367E+01 -0.53459994891E+01  0.20758365911E+02  0.25500000000E-02 0. -1.
         -2    1    1    2  502    0 -0.18297616444E+02  0.82174978367E+01 -0.57777735165E+01  0.20873732573E+02  0.25500000000E-02 0. -1.
<mgrwt>
<rscale>  0 0.40118491E+02</rscale>
<asrwt>0</asrwt>
<pdfrwt beam="1">  1        3 0.23467943E-02 0.40118491E+02</pdfrwt>
<pdfrwt beam="2">  1       -3 0.40581440E-02 0.40118491E+02</pdfrwt>
<totfact> 0.33451502E+05</totfact>
</mgrwt>
</event>
<event>
 4    1  0.7692565E-003  0.6074161E+02  0.7818608E-02  0.1394746E+00
          3   -1    0    0    0  501  0.00000000000E+00  0.00000000000E+00  0.14052360695E+02  0.14052723654E+02  0.10100000000E+00 0.  1.
         -3   -1    0    0  501    0 -0.00000000000E+00 -0.00000000000E+00 -0.65637954503E+02  0.65638032210E+02  0.10100000000E+00 0.  1.
          2    1    1    2    0  502 -0.13136898364E+02 -0.19222393546E+02 -0.20758864167E+00  0.23283505145E+02  0.25500000000E-02 0.  1.
         -2    1    1    2  502    0  0.13136898364E+02  0.19222393546E+02 -0.51378005167E+02  0.56407250719E+02  0.25500000000E-02 0.  1.
<mgrwt>
<rscale>  0 0.60741609E+02</rscale>
<asrwt>0</asrwt>
<pdfrwt beam="1">  1        3 0.21619356E-02 0.60741609E+02</pdfrwt>
<pdfrwt beam="2">  1       -3 0.10098181E-01 0.60741609E+02</pdfrwt>
<totfact> 0.10666462E+05</totfact>
</mgrwt>
</event>
<event>
 4    1  0.7692565E-003  0.4540718E+02  0.7818608E-02  0.1471816E+00
         -3   -1    0    0  501    0 -0.00000000000E+00  0.00000000000E+00  0.82198333341E+01  0.82204538221E+01  0.10100000000E+00 0.  1.
          3   -1    0    0    0  501  0.00000000000E+00 -0.00000000000E+00 -0.62705409890E+02  0.62705491231E+02  0.10100000000E+00 0.  1.
          2    1    1    2    0  502  0.20077033846E+02 -0.25970837057E+01 -0.11189821709E+02  0.23131023501E+02  0.25500000000E-02 0. -1.
         -2    1    1    2  502    0 -0.20077033846E+02  0.25970837057E+01 -0.43295754847E+02  0.47794921551E+02  0.25500000000E-02 0. -1.
<mgrwt>
<rscale>  0 0.45407176E+02</rscale>
<asrwt>0</asrwt>
<pdfrwt beam="2">  1        3 0.96470398E-02 0.45407176E+02</pdfrwt>
<pdfrwt beam="1">  1       -3 0.12646438E-02 0.45407176E+02</pdfrwt>
<totfact> 0.22780012E+05</totfact>
</mgrwt>
</event>
<event>
 4    1  0.7692565E-003  0.1305920E+03  0.7818608E-02  0.1226580E+00
         -3   -1    0    0  501    0 -0.00000000000E+00  0.00000000000E+00  0.95733474071E+02  0.95733527349E+02  0.10100000000E+00 0. -1.
          3   -1    0    0    0  501  0.00000000000E+00 -0.00000000000E+00 -0.44535653266E+02  0.44535767792E+02  0.10100000000E+00 0. -1.
          2    1    1    2    0  502 -0.51248857272E+02  0.39356220903E+02  0.15511076932E+02  0.66452622293E+02  0.25500000000E-02 0. -1.
         -2    1    1    2  502    0  0.51248857272E+02 -0.39356220903E+02  0.35686743874E+02  0.73816672848E+02  0.25500000000E-02 0. -1.
<mgrwt>
<rscale>  0 0.13059195E+03</rscale>
<asrwt>0</asrwt>
<pdfrwt beam="2">  1        3 0.68516519E-02 0.13059195E+03</pdfrwt>
<pdfrwt beam="1">  1       -3 0.14728240E-01 0.13059195E+03</pdfrwt>
<totfact> 0.11788047E+04</totfact>
</mgrwt>
</event>
<event>
 4    1  0.7692565E-003  0.7610732E+02  0.7818608E-02  0.1340476E+00
          3   -1    0    0    0  501  0.00000000000E+00  0.00000000000E+00  0.64446215021E+02  0.64446294165E+02  0.10100000000E+00 0.  1.
         -3   -1    0    0  501    0 -0.00000000000E+00 -0.00000000000E+00 -0.22469399167E+02  0.22469626164E+02  0.10100000000E+00 0.  1.
          2    1    1    2    0  502 -0.30914095437E+02  0.17898436589E+02  0.60089942516E+01  0.36223519258E+02  0.25500000000E-02 0. -1.
         -2    1    1    2  502    0  0.30914095437E+02 -0.17898436589E+02  0.35967821602E+02  0.50692401071E+02  0.25500000000E-02 0. -1.
<mgrwt>
<rscale>  0 0.76107320E+02</rscale>
<asrwt>0</asrwt>
<pdfrwt beam="1">  1        3 0.99148256E-02 0.76107320E+02</pdfrwt>
<pdfrwt beam="2">  1       -3 0.34568543E-02 0.76107320E+02</pdfrwt>
<totfact> 0.58034977E+04</totfact>
</mgrwt>
</event>
<event>
 4    1  0.7692565E-003  0.4074998E+02  0.7818608E-02  0.1502764E+00
         -3   -1    0    0  501    0 -0.00000000000E+00  0.00000000000E+00  0.22841219726E+02  0.22841443027E+02  0.10100000000E+00 0. -1.
          3   -1    0    0    0  501  0.00000000000E+00 -0.00000000000E+00 -0.18174589990E+02  0.18174870627E+02  0.10100000000E+00 0. -1.
          2    1    1    2    0  502  0.17102461566E+02  0.11073394005E+02  0.21713743752E+01  0.20489732053E+02  0.25500000000E-02 0. -1.
         -2    1    1    2  502    0 -0.17102461566E+02 -0.11073394005E+02  0.24952553603E+01  0.20526581601E+02  0.25500000000E-02 0. -1.
<mgrwt>
<rscale>  0 0.40749976E+02</rscale>
<asrwt>0</asrwt>
<pdfrwt beam="2">  1        3 0.27961295E-02 0.40749976E+02</pdfrwt>
<pdfrwt beam="1">  1       -3 0.35140726E-02 0.40749976E+02</pdfrwt>
<totfact> 0.32253913E+05</totfact>
</mgrwt>
</event>
<event>
 4    1  0.7692565E-003  0.8890470E+02  0.7818608E-02  0.1305526E+00
          3   -1    0    0    0  501  0.00000000000E+00  0.00000000000E+00  0.68816297115E+02  0.68816371232E+02  0.10100000000E+00 0.  1.
         -3   -1    0    0  501    0 -0.00000000000E+00 -0.00000000000E+00 -0.28714113425E+02  0.28714291054E+02  0.10100000000E+00 0.  1.
          2    1    1    2    0  502 -0.11991200669E+01  0.44167734392E+02  0.14700963238E+02  0.46565491266E+02  0.25500000000E-02 0. -1.
         -2    1    1    2  502    0  0.11991200669E+01 -0.44167734392E+02  0.25401220452E+02  0.50965171021E+02  0.25500000000E-02 0. -1.
<mgrwt>
<rscale>  0 0.88904696E+02</rscale>
<asrwt>0</asrwt>
<pdfrwt beam="1">  1        3 0.10587142E-01 0.88904696E+02</pdfrwt>
<pdfrwt beam="2">  1       -3 0.44175753E-02 0.88904696E+02</pdfrwt>
<totfact> 0.37326471E+04</totfact>
</mgrwt>
</event>
<event>
 4    1  0.7692565E-003  0.5902237E+02  0.7818608E-02  0.1401981E+00
          3   -1    0    0    0  501  0.00000000000E+00  0.00000000000E+00  0.94706654419E+01  0.94712039843E+01  0.10100000000E+00 0.  1.
         -3   -1    0    0  501    0 -0.00000000000E+00 -0.00000000000E+00 -0.91955505784E+02  0.91955561251E+02  0.10100000000E+00 0.  1.
          2    1    1    2    0  502 -0.33087415454E+01  0.23797663716E+02 -0.70689257936E+02  0.74660885094E+02  0.25500000000E-02 0. -1.
         -2    1    1    2  502    0  0.33087415454E+01 -0.23797663716E+02 -0.11795582406E+02  0.26765880142E+02  0.25500000000E-02 0. -1.
<mgrwt>
<rscale>  0 0.59022367E+02</rscale>
<asrwt>0</asrwt>
<pdfrwt beam="1">  1        3 0.14570712E-02 0.59022367E+02</pdfrwt>
<pdfrwt beam="2">  1       -3 0.14147046E-01 0.59022367E+02</pdfrwt>
<totfact> 0.10920429E+05</totfact>
</mgrwt>
</event>
<event>
 4    1  0.7692565E-003  0.5554872E+02  0.7818608E-02  0.1417522E+00
         -3   -1    0    0  501    0 -0.00000000000E+00  0.00000000000E+00  0.22257421350E+02  0.22257650508E+02  0.10100000000E+00 0. -1.
          3   -1    0    0    0  501  0.00000000000E+00 -0.00000000000E+00 -0.34658299952E+02  0.34658447117E+02  0.10100000000E+00 0. -1.
          2    1    1    2    0  502  0.10960497354E+01 -0.26623591252E+02 -0.14229018640E+02  0.30207315574E+02  0.25500000000E-02 0. -1.
         -2    1    1    2  502    0 -0.10960497354E+01  0.26623591252E+02  0.18281400375E+01  0.26708782052E+02  0.25500000000E-02 0. -1.
<mgrwt>
<rscale>  0 0.55548721E+02</rscale>
<asrwt>0</asrwt>
<pdfrwt beam="2">  1        3 0.53320751E-02 0.55548721E+02</pdfrwt>
<pdfrwt beam="1">  1       -3 0.34242476E-02 0.55548721E+02</pdfrwt>
<totfact> 0.14201228E+05</totfact>
</mgrwt>
</event>
<event>
 4    1  0.7692565E-003  0.7231795E+02  0.7818608E-02  0.1352384E+00
         -3   -1    0    0  501    0 -0.00000000000E+00  0.00000000000E+00  0.39527401722E+03  0.39527403012E+03  0.10100000000E+00 0. -1.
          3   -1    0    0    0  501  0.00000000000E+00 -0.00000000000E+00 -0.33069754127E+01  0.33085173991E+01  0.10100000000E+00 0. -1.
          2    1    1    2    0  502  0.25192523900E+02  0.15985867786E+02  0.83399793756E+02  0.88576164031E+02  0.25500000000E-02 0.  1.
         -2    1    1    2  502    0 -0.25192523900E+02 -0.15985867786E+02  0.30856724805E+03  0.31000638349E+03  0.25500000000E-02 0.  1.
<mgrwt>
<rscale>  0 0.72317946E+02</rscale>
<asrwt>0</asrwt>
<pdfrwt beam="2">  1        3 0.50888549E-03 0.72317946E+02</pdfrwt>
<pdfrwt beam="1">  1       -3 0.60811455E-01 0.72317946E+02</pdfrwt>
<totfact> 0.38034423E+04</totfact>
</mgrwt>
</event>
<event>
 4    1  0.7692565E-003  0.6008388E+02  0.7818608E-02  0.1397480E+00
          3   -1    0    0    0  501  0.00000000000E+00  0.00000000000E+00  0.50248085892E+00  0.51253098792E+00  0.10100000000E+00 0. -1.
         -3   -1    0    0  501    0 -0.00000000000E+00 -0.00000000000E+00 -0.17783300228E+04  0.17783300256E+04  0.10100000000E+00 0. -1.
          2    1    1    2    0  502 -0.29538936279E+02  0.10289638793E+01 -0.10481009335E+04  0.10485176080E+04  0.25500000000E-02 0.  1.
         -2    1    1    2  502    0  0.29538936279E+02 -0.10289638793E+01 -0.72972660843E+03  0.73032494862E+03  0.25500000000E-02 0.  1.
<mgrwt>
<rscale>  0 0.60083879E+02</rscale>
<asrwt>0</asrwt>
<pdfrwt beam="1">  1        3 0.78079479E-04 0.60083879E+02</pdfrwt>
<pdfrwt beam="2">  1       -3 0.27358502E+00 0.60083879E+02</pdfrwt>
<totfact> 0.13618200E+04</totfact>
</mgrwt>
</event>
<event>
 4    1  0.7692565E-003  0.4169643E+02  0.7818608E-02  0.1496086E+00
         -3   -1    0    0  501    0 -0.00000000000E+00  0.00000000000E+00  0.28630836831E+02  0.28631014978E+02  0.10100000000E+00 0.  1.
          3   -1    0    0    0  501  0.00000000000E+00 -0.00000000000E+00 -0.15180726603E+02  0.15181062585E+02  0.10100000000E+00 0.  1.
          2    1    1    2    0  502 -0.18846953101E+02  0.88855145764E+01  0.59909261253E+01  0.21680664493E+02  0.25500000000E-02 0.  1.
         -2    1    1    2  502    0  0.18846953101E+02 -0.88855145764E+01  0.74591841024E+01  0.22131413070E+02  0.25500000000E-02 0.  1.
<mgrwt>
<rscale>  0 0.41696435E+02</rscale>
<asrwt>0</asrwt>
<pdfrwt beam="2">  1        3 0.23355360E-02 0.41696435E+02</pdfrwt>
<pdfrwt beam="1">  1       -3 0.44047836E-02 0.41696435E+02</pdfrwt>
<totfact> 0.30244886E+05</totfact>
</mgrwt>
</event>
<event>
 4    1  0.7692565E-003  0.4568887E+02  0.7818608E-02  0.1470086E+00
         -3   -1    0    0  501    0 -0.00000000000E+00  0.00000000000E+00  0.28058931572E+03  0.28058933389E+03  0.10100000000E+00 0.  1.
          3   -1    0    0    0  501  0.00000000000E+00 -0.00000000000E+00 -0.18585109647E+01  0.18612533428E+01  0.10100000000E+00 0.  1.
          2    1    1    2    0  502 -0.85559802896E+01 -0.20798020781E+02  0.16417512698E+03  0.16570828221E+03  0.25500000000E-02 0. -1.
         -2    1    1    2  502    0  0.85559802896E+01  0.20798020781E+02  0.11455567777E+03  0.11674230503E+03  0.25500000000E-02 0. -1.
<mgrwt>
<rscale>  0 0.45688869E+02</rscale>
<asrwt>0</asrwt>
<pdfrwt beam="2">  1        3 0.28613698E-03 0.45688869E+02</pdfrwt>
<pdfrwt beam="1">  1       -3 0.43167820E-01 0.45688869E+02</pdfrwt>
<totfact> 0.14610888E+05</totfact>
</mgrwt>
</event>
<event>
 4    1  0.7692565E-003  0.4068424E+02  0.7818608E-02  0.1503236E+00
         -3   -1    0    0  501    0 -0.00000000000E+00  0.00000000000E+00  0.18703265115E+03  0.18703267842E+03  0.10100000000E+00 0. -1.
          3   -1    0    0    0  501  0.00000000000E+00 -0.00000000000E+00 -0.22112778184E+01  0.22135832015E+01  0.10100000000E+00 0. -1.
          2    1    1    2    0  502  0.15299990770E+02 -0.13401275589E+02  0.90813065164E+02  0.93062864322E+02  0.25500000000E-02 0. -1.
         -2    1    1    2  502    0 -0.15299990770E+02  0.13401275589E+02  0.94008308163E+02  0.96183397295E+02  0.25500000000E-02 0. -1.
<mgrwt>
<rscale>  0 0.40684241E+02</rscale>
<asrwt>0</asrwt>
<pdfrwt beam="2">  1        3 0.34037603E-03 0.40684241E+02</pdfrwt>
<pdfrwt beam="1">  1       -3 0.28774433E-01 0.40684241E+02</pdfrwt>
<totfact> 0.22975009E+05</totfact>
</mgrwt>
</event>
<event>
 4    1  0.7692565E-003  0.6214904E+02  0.7818608E-02  0.1389028E+00
          3   -1    0    0    0  501  0.00000000000E+00  0.00000000000E+00  0.35283569149E+04  0.35283569164E+04  0.10100000000E+00 0.  1.
         -3   -1    0    0  501    0 -0.00000000000E+00 -0.00000000000E+00 -0.26435574184E+00  0.28299285900E+00  0.10100000000E+00 0.  1.
          2    1    1    2    0  502 -0.31064952517E+02 -0.51124964630E+00  0.17312797916E+04  0.17315585492E+04  0.25500000000E-02 0. -1.
         -2    1    1    2  502    0  0.31064952517E+02  0.51124964630E+00  0.17968127676E+04  0.17970813600E+04  0.25500000000E-02 0. -1.
<mgrwt>
<rscale>  0 0.62149037E+02</rscale>
<asrwt>0</asrwt>
<pdfrwt beam="1">  1        3 0.54280936E+00 0.62149037E+02</pdfrwt>
<pdfrwt beam="2">  1       -3 0.42105108E-04 0.62149037E+02</pdfrwt>
<totfact> 0.16505352E+03</totfact>
</mgrwt>
</event>
<event>
 4    1  0.7692565E-003  0.4795881E+02  0.7818608E-02  0.1456673E+00
          3   -1    0    0    0  501  0.00000000000E+00  0.00000000000E+00  0.72571042726E+00  0.73270500492E+00  0.10100000000E+00 0.  1.
         -3   -1    0    0  501    0 -0.00000000000E+00 -0.00000000000E+00 -0.78853622415E+03  0.78853623062E+03  0.10100000000E+00 0.  1.
          2    1    1    2    0  502 -0.10343660413E+02  0.19720573553E+02 -0.24751967555E+03  0.24851937977E+03  0.25500000000E-02 0.  1.
         -2    1    1    2  502    0  0.10343660413E+02 -0.19720573553E+02 -0.54029083818E+03  0.54074955585E+03  0.25500000000E-02 0.  1.
<mgrwt>
<rscale>  0 0.47958807E+02</rscale>
<asrwt>0</asrwt>
<pdfrwt beam="1">  1        3 0.11218693E-03 0.47958807E+02</pdfrwt>
<pdfrwt beam="2">  1       -3 0.12131312E+00 0.47958807E+02</pdfrwt>
<totfact> 0.64888490E+04</totfact>
</mgrwt>
</event>
<event>
 4    1  0.7692565E-003  0.5663599E+02  0.7818608E-02  0.1412517E+00
          3   -1    0    0    0  501  0.00000000000E+00  0.00000000000E+00  0.11465599559E+02  0.11466044403E+02  0.10100000000E+00 0.  1.
         -3   -1    0    0  501    0 -0.00000000000E+00 -0.00000000000E+00 -0.69938577911E+02  0.69938650839E+02  0.10100000000E+00 0.  1.
          2    1    1    2    0  502 -0.11276900956E+02  0.20662348812E+02 -0.51862829584E+02  0.56954843978E+02  0.25500000000E-02 0.  1.
         -2    1    1    2  502    0  0.11276900956E+02 -0.20662348812E+02 -0.66101487676E+01  0.24449851264E+02  0.25500000000E-02 0.  1.
<mgrwt>
<rscale>  0 0.56635989E+02</rscale>
<asrwt>0</asrwt>
<pdfrwt beam="1">  1        3 0.17639783E-02 0.56635989E+02</pdfrwt>
<pdfrwt beam="2">  1       -3 0.10759821E-01 0.56635989E+02</pdfrwt>
<totfact> 0.12717268E+05</totfact>
</mgrwt>
</event>
<event>
 4    1  0.7692565E-003  0.4135692E+02  0.7818608E-02  0.1498457E+00
         -3   -1    0    0  501    0 -0.00000000000E+00  0.00000000000E+00  0.44292438310E+03  0.44292439462E+03  0.10100000000E+00 0. -1.
          3   -1    0    0    0  501  0.00000000000E+00 -0.00000000000E+00 -0.96274547451E+00  0.96802884703E+00  0.10100000000E+00 0. -1.
          2    1    1    2    0  502 -0.19888191898E+02 -0.41735403575E+01  0.26204848949E+03  0.26283525157E+03  0.25500000000E-02 0. -1.
         -2    1    1    2  502    0  0.19888191898E+02  0.41735403575E+01  0.17991314814E+03  0.18105717189E+03  0.25500000000E-02 0. -1.
<mgrwt>
<rscale>  0 0.41356916E+02</rscale>
<asrwt>0</asrwt>
<pdfrwt beam="2">  1        3 0.14852166E-03 0.41356916E+02</pdfrwt>
<pdfrwt beam="1">  1       -3 0.68142771E-01 0.41356916E+02</pdfrwt>
<totfact> 0.14457703E+05</totfact>
</mgrwt>
</event>
<event>
 4    1  0.7692565E-003  0.6606484E+02  0.7818608E-02  0.1374010E+00
         -3   -1    0    0  501    0 -0.00000000000E+00  0.00000000000E+00  0.11668126572E+01  0.11711758096E+01  0.10100000000E+00 0.  1.
          3   -1    0    0    0  501  0.00000000000E+00 -0.00000000000E+00 -0.93339686208E+03  0.93339686755E+03  0.10100000000E+00 0.  1.
          2    1    1    2    0  502  0.24938542598E+02 -0.17855486152E+02 -0.29263399268E+03  0.29423698437E+03  0.25500000000E-02 0.  1.
         -2    1    1    2  502    0 -0.24938542598E+02  0.17855486152E+02 -0.63959605674E+03  0.64033105898E+03  0.25500000000E-02 0.  1.
<mgrwt>
<rscale>  0 0.66064836E+02</rscale>
<asrwt>0</asrwt>
<pdfrwt beam="2">  1        3 0.14359926E+00 0.66064836E+02</pdfrwt>
<pdfrwt beam="1">  1       -3 0.17984643E-03 0.66064836E+02</pdfrwt>
<totfact> 0.24856402E+04</totfact>
</mgrwt>
</event>
<event>
 4    1  0.7692565E-003  0.5174368E+02  0.7818608E-02  0.1436157E+00
          3   -1    0    0    0  501  0.00000000000E+00  0.00000000000E+00  0.23195334263E+03  0.23195336462E+03  0.10100000000E+00 0.  1.
         -3   -1    0    0  501    0 -0.00000000000E+00 -0.00000000000E+00 -0.28848130050E+01  0.28865805158E+01  0.10100000000E+00 0.  1.
          2    1    1    2    0  502 -0.22746011536E+02 -0.11250223101E+02  0.91659214351E+02  0.95107098276E+02  0.25500000000E-02 0.  1.
         -2    1    1    2  502    0  0.22746011536E+02  0.11250223101E+02  0.13740931528E+03  0.13973284686E+03  0.25500000000E-02 0.  1.
<mgrwt>
<rscale>  0 0.51743681E+02</rscale>
<asrwt>0</asrwt>
<pdfrwt beam="1">  1        3 0.35685272E-01 0.51743681E+02</pdfrwt>
<pdfrwt beam="2">  1       -3 0.44395498E-03 0.51743681E+02</pdfrwt>
<totfact> 0.11670399E+05</totfact>
</mgrwt>
</event>
<event>
 4    1  0.7692565E-003  0.5707730E+02  0.7818608E-02  0.1410523E+00
          3   -1    0    0    0  501  0.00000000000E+00  0.00000000000E+00  0.15857749841E+02  0.15858071479E+02  0.10100000000E+00 0.  1.
         -3   -1    0    0  501    0 -0.00000000000E+00 -0.00000000000E+00 -0.51359143811E+02  0.51359243121E+02  0.10100000000E+00 0.  1.
          2    1    1    2    0  502 -0.25477890399E+02 -0.53822604184E+01 -0.31502699591E+02  0.40871893942E+02  0.25500000000E-02 0.  1.
         -2    1    1    2  502    0  0.25477890399E+02  0.53822604184E+01 -0.39986943782E+01  0.26345420657E+02  0.25500000000E-02 0.  1.
<mgrwt>
<rscale>  0 0.57077302E+02</rscale>
<asrwt>0</asrwt>
<pdfrwt beam="1">  1        3 0.24396862E-02 0.57077302E+02</pdfrwt>
<pdfrwt beam="2">  1       -3 0.79014391E-02 0.57077302E+02</pdfrwt>
<totfact> 0.12905409E+05</totfact>
</mgrwt>
</event>
<event>
 4    1  0.7692565E-003  0.4354216E+02  0.7818608E-02  0.1483653E+00
         -3   -1    0    0  501    0 -0.00000000000E+00  0.00000000000E+00  0.69087160897E+01  0.69094543206E+01  0.10100000000E+00 0.  1.
          3   -1    0    0    0  501  0.00000000000E+00 -0.00000000000E+00 -0.68601649774E+02  0.68601724124E+02  0.10100000000E+00 0.  1.
          2    1    1    2    0  502 -0.18089964264E+02  0.91086090649E+01 -0.16998140504E+02  0.26441451422E+02  0.25500000000E-02 0.  1.
         -2    1    1    2  502    0  0.18089964264E+02 -0.91086090649E+01 -0.44694793180E+02  0.49069727023E+02  0.25500000000E-02 0.  1.
<mgrwt>
<rscale>  0 0.43542164E+02</rscale>
<asrwt>0</asrwt>
<pdfrwt beam="2">  1        3 0.10554162E-01 0.43542164E+02</pdfrwt>
<pdfrwt beam="1">  1       -3 0.10629420E-02 0.43542164E+02</pdfrwt>
<totfact> 0.24982329E+05</totfact>
</mgrwt>
</event>
<event>
 4    1  0.7692565E-003  0.4837576E+02  0.7818608E-02  0.1454304E+00
         -3   -1    0    0  501    0 -0.00000000000E+00  0.00000000000E+00  0.14755493758E+03  0.14755497215E+03  0.10100000000E+00 0. -1.
          3   -1    0    0    0  501  0.00000000000E+00 -0.00000000000E+00 -0.39643096375E+01  0.39655960337E+01  0.10100000000E+00 0. -1.
          2    1    1    2    0  502 -0.61723991720E+01  0.20845696590E+02  0.10500387337E+03  0.10723084914E+03  0.25500000000E-02 0.  1.
         -2    1    1    2  502    0  0.61723991720E+01 -0.20845696590E+02  0.38586754573E+02  0.44289719042E+02  0.25500000000E-02 0.  1.
<mgrwt>
<rscale>  0 0.48375760E+02</rscale>
<asrwt>0</asrwt>
<pdfrwt beam="2">  1        3 0.60999549E-03 0.48375760E+02</pdfrwt>
<pdfrwt beam="1">  1       -3 0.22700858E-01 0.48375760E+02</pdfrwt>
<totfact> 0.16203356E+05</totfact>
</mgrwt>
</event>
<event>
 4    1  0.7692565E-003  0.4656913E+02  0.7818608E-02  0.1464777E+00
         -3   -1    0    0  501    0 -0.00000000000E+00  0.00000000000E+00  0.10273268226E+03  0.10273273191E+03  0.10100000000E+00 0. -1.
          3   -1    0    0    0  501  0.00000000000E+00 -0.00000000000E+00 -0.52769578392E+01  0.52779243114E+01  0.10100000000E+00 0. -1.
          2    1    1    2    0  502 -0.21957367712E+02  0.22800746076E+01  0.31551086812E+02  0.38507087952E+02  0.25500000000E-02 0. -1.
         -2    1    1    2  502    0  0.21957367712E+02 -0.22800746076E+01  0.65904637614E+02  0.69503568272E+02  0.25500000000E-02 0. -1.
<mgrwt>
<rscale>  0 0.46569127E+02</rscale>
<asrwt>0</asrwt>
<pdfrwt beam="2">  1        3 0.81191795E-03 0.46569127E+02</pdfrwt>
<pdfrwt beam="1">  1       -3 0.15805104E-01 0.46569127E+02</pdfrwt>
<totfact> 0.19573645E+05</totfact>
</mgrwt>
</event>
<event>
 4    1  0.7692565E-003  0.6793971E+02  0.7818608E-02  0.1367243E+00
          3   -1    0    0    0  501  0.00000000000E+00  0.00000000000E+00  0.70150263309E+01  0.70157533753E+01  0.10100000000E+00 0.  1.
         -3   -1    0    0  501    0 -0.00000000000E+00 -0.00000000000E+00 -0.16448776924E+03  0.16448780025E+03  0.10100000000E+00 0.  1.
          2    1    1    2    0  502  0.31151942401E+02  0.82263812339E+01 -0.10590500374E+03  0.11069772666E+03  0.25500000000E-02 0. -1.
         -2    1    1    2  502    0 -0.31151942401E+02 -0.82263812339E+01 -0.51567739176E+02  0.60805826972E+02  0.25500000000E-02 0. -1.
<mgrwt>
<rscale>  0 0.67939710E+02</rscale>
<asrwt>0</asrwt>
<pdfrwt beam="1">  1        3 0.10792933E-02 0.67939710E+02</pdfrwt>
<pdfrwt beam="2">  1       -3 0.25305866E-01 0.67939710E+02</pdfrwt>
<totfact> 0.65558786E+04</totfact>
</mgrwt>
</event>
<event>
 4    1  0.7692565E-003  0.4199984E+02  0.7818608E-02  0.1493990E+00
         -3   -1    0    0  501    0 -0.00000000000E+00  0.00000000000E+00  0.93696780231E+02  0.93696834668E+02  0.10100000000E+00 0.  1.
          3   -1    0    0    0  501  0.00000000000E+00 -0.00000000000E+00 -0.47060386816E+01  0.47071223770E+01  0.10100000000E+00 0.  1.
          2    1    1    2    0  502  0.15846019381E+01 -0.20771550613E+02  0.50706816537E+02  0.54819244139E+02  0.25500000000E-02 0.  1.
         -2    1    1    2  502    0 -0.15846019381E+01  0.20771550613E+02  0.38283925013E+02  0.43584712906E+02  0.25500000000E-02 0.  1.
<mgrwt>
<rscale>  0 0.41999841E+02</rscale>
<asrwt>0</asrwt>
<pdfrwt beam="2">  1        3 0.72409352E-03 0.41999841E+02</pdfrwt>
<pdfrwt beam="1">  1       -3 0.14414976E-01 0.41999841E+02</pdfrwt>
<totfact> 0.25818417E+05</totfact>
</mgrwt>
</event>
<event>
 4    1  0.7692565E-003  0.1474899E+03  0.7818608E-02  0.1203592E+00
          3   -1    0    0    0  501  0.00000000000E+00  0.00000000000E+00  0.20231371585E+03  0.20231374106E+03  0.10100000000E+00 0. -1.
         -3   -1    0    0  501    0 -0.00000000000E+00 -0.00000000000E+00 -0.26880513563E+02  0.26880703310E+02  0.10100000000E+00 0. -1.
          2    1    1    2    0  502 -0.44192984273E+02  0.58932529207E+02  0.82275864437E+02  0.11043269775E+03  0.25500000000E-02 0.  1.
         -2    1    1    2  502    0  0.44192984273E+02 -0.58932529207E+02  0.93157337847E+02  0.11876174661E+03  0.25500000000E-02 0.  1.
<mgrwt>
<rscale>  0 0.14748995E+03</rscale>
<asrwt>0</asrwt>
<pdfrwt beam="1">  1        3 0.31125203E-01 0.14748995E+03</pdfrwt>
<pdfrwt beam="2">  1       -3 0.41354802E-02 0.14748995E+03</pdfrwt>
<totfact> 0.71265517E+03</totfact>
</mgrwt>
</event>
<event>
 4    1  0.7692565E-003  0.4923981E+02  0.7818608E-02  0.1449485E+00
         -3   -1    0    0  501    0 -0.00000000000E+00  0.00000000000E+00  0.55761003408E+01  0.55770149731E+01  0.10100000000E+00 0.  1.
          3   -1    0    0    0  501  0.00000000000E+00 -0.00000000000E+00 -0.10869328822E+03  0.10869333515E+03  0.10100000000E+00 0.  1.
          2    1    1    2    0  502 -0.20368551310E+02  0.11917149240E+02 -0.67843705378E+02  0.71830806027E+02  0.25500000000E-02 0. -1.
         -2    1    1    2  502    0  0.20368551310E+02 -0.11917149240E+02 -0.35273482503E+02  0.42439544094E+02  0.25500000000E-02 0. -1.
<mgrwt>
<rscale>  0 0.49239806E+02</rscale>
<asrwt>0</asrwt>
<pdfrwt beam="2">  1        3 0.16722117E-01 0.49239806E+02</pdfrwt>
<pdfrwt beam="1">  1       -3 0.85793564E-03 0.49239806E+02</pdfrwt>
<totfact> 0.16794221E+05</totfact>
</mgrwt>
</event>
<event>
 4    1  0.7692565E-003  0.4758991E+02  0.7818608E-02  0.1458792E+00
         -3   -1    0    0  501    0 -0.00000000000E+00  0.00000000000E+00  0.85546354130E+00  0.86140517209E+00  0.10100000000E+00 0.  1.
          3   -1    0    0    0  501  0.00000000000E+00 -0.00000000000E+00 -0.65956683219E+03  0.65956683993E+03  0.10100000000E+00 0.  1.
          2    1    1    2    0  502 -0.88820942927E+01  0.19474379890E+02 -0.18509868344E+03  0.18633213810E+03  0.25500000000E-02 0.  1.
         -2    1    1    2  502    0  0.88820942927E+01 -0.19474379890E+02 -0.47361268522E+03  0.47409610700E+03  0.25500000000E-02 0.  1.
<mgrwt>
<rscale>  0 0.47589912E+02</rscale>
<asrwt>0</asrwt>
<pdfrwt beam="2">  1        3 0.10147187E+00 0.47589912E+02</pdfrwt>
<pdfrwt beam="1">  1       -3 0.13206795E-03 0.47589912E+02</pdfrwt>
<totfact> 0.77148194E+04</totfact>
</mgrwt>
</event>
<event>
 4    1  0.7692565E-003  0.5028112E+02  0.7818608E-02  0.1443831E+00
         -3   -1    0    0  501    0 -0.00000000000E+00  0.00000000000E+00  0.55528977034E+00  0.56440032693E+00  0.10100000000E+00 0. -1.
          3   -1    0    0    0  501  0.00000000000E+00 -0.00000000000E+00 -0.11289597764E+04  0.11289597809E+04  0.10100000000E+00 0. -1.
          2    1    1    2    0  502 -0.22628074097E+02  0.68251656305E+01 -0.75670733332E+03  0.75707635080E+03  0.25500000000E-02 0.  1.
         -2    1    1    2  502    0  0.22628074097E+02 -0.68251656305E+01 -0.37169715327E+03  0.37244783041E+03  0.25500000000E-02 0.  1.
<mgrwt>
<rscale>  0 0.50281115E+02</rscale>
<asrwt>0</asrwt>
<pdfrwt beam="2">  1        3 0.17368500E+00 0.50281115E+02</pdfrwt>
<pdfrwt beam="1">  1       -3 0.86131258E-04 0.50281115E+02</pdfrwt>
<totfact> 0.40561940E+04</totfact>
</mgrwt>
</event>
<event>
 4    1  0.7692565E-003  0.4820872E+02  0.7818608E-02  0.1455250E+00
          3   -1    0    0    0  501  0.00000000000E+00  0.00000000000E+00  0.20781173431E+01  0.20805702804E+01  0.10100000000E+00 0.  1.
         -3   -1    0    0  501    0 -0.00000000000E+00 -0.00000000000E+00 -0.27942234754E+03  0.27942236580E+03  0.10100000000E+00 0.  1.
          2    1    1    2    0  502  0.14637643211E+02 -0.19148537863E+02 -0.13689003144E+03  0.13899571150E+03  0.25500000000E-02 0.  1.
         -2    1    1    2  502    0 -0.14637643211E+02  0.19148537863E+02 -0.14045419876E+03  0.14250722458E+03  0.25500000000E-02 0.  1.
<mgrwt>
<rscale>  0 0.48208723E+02</rscale>
<asrwt>0</asrwt>
<pdfrwt beam="1">  1        3 0.31990067E-03 0.48208723E+02</pdfrwt>
<pdfrwt beam="2">  1       -3 0.42988214E-01 0.48208723E+02</pdfrwt>
<totfact> 0.12820522E+05</totfact>
</mgrwt>
</event>
<event>
 4    1  0.7692565E-003  0.1708449E+03  0.7818608E-02  0.1176970E+00
         -3   -1    0    0  501    0 -0.00000000000E+00  0.00000000000E+00  0.14409107912E+04  0.14409107948E+04  0.10100000000E+00 0. -1.
          3   -1    0    0    0  501  0.00000000000E+00 -0.00000000000E+00 -0.50636452107E+01  0.50646523888E+01  0.10100000000E+00 0. -1.
          2    1    1    2    0  502  0.51177941334E+02 -0.61247032728E+02  0.46028686889E+03  0.46715562971E+03  0.25500000000E-02 0.  1.
         -2    1    1    2  502    0 -0.51177941334E+02  0.61247032728E+02  0.97556027712E+03  0.97881981743E+03  0.25500000000E-02 0.  1.
<mgrwt>
<rscale>  0 0.17084486E+03</rscale>
<asrwt>0</asrwt>
<pdfrwt beam="2">  1        3 0.77910115E-03 0.17084486E+03</pdfrwt>
<pdfrwt beam="1">  1       -3 0.22167836E+00 0.17084486E+03</pdfrwt>
<totfact> 0.11354329E+03</totfact>
</mgrwt>
</event>
<event>
 4    1  0.7692565E-003  0.9934137E+02  0.7818608E-02  0.1281687E+00
         -3   -1    0    0  501    0 -0.00000000000E+00  0.00000000000E+00  0.42521562402E+01  0.42533555801E+01  0.10100000000E+00 0. -1.
          3   -1    0    0    0  501  0.00000000000E+00 -0.00000000000E+00 -0.58013479358E+03  0.58013480237E+03  0.10100000000E+00 0. -1.
          2    1    1    2    0  502 -0.30167045602E+02  0.15208501325E+01 -0.55982771759E+02  0.63611589870E+02  0.25500000000E-02 0.  1.
         -2    1    1    2  502    0  0.30167045602E+02 -0.15208501325E+01 -0.51989986558E+03  0.52077656808E+03  0.25500000000E-02 0.  1.
<mgrwt>
<rscale>  0 0.99341367E+02</rscale>
<asrwt>0</asrwt>
<pdfrwt beam="2">  1        3 0.89251537E-01 0.99341367E+02</pdfrwt>
<pdfrwt beam="1">  1       -3 0.65427128E-03 0.99341367E+02</pdfrwt>
<totfact> 0.12747704E+04</totfact>
</mgrwt>
</event>
<event>
 4    1  0.7692565E-003  0.5379576E+02  0.7818608E-02  0.1425881E+00
         -3   -1    0    0  501    0 -0.00000000000E+00  0.00000000000E+00  0.57216491092E+03  0.57216491984E+03  0.10100000000E+00 0.  1.
          3   -1    0    0    0  501  0.00000000000E+00 -0.00000000000E+00 -0.12624626156E+01  0.12664962912E+01  0.10100000000E+00 0.  1.
          2    1    1    2    0  502 -0.20363788870E+02  0.16651221473E+02  0.34532337731E+03  0.34632381090E+03  0.25500000000E-02 0.  1.
         -2    1    1    2  502    0  0.20363788870E+02 -0.16651221473E+02  0.22557907100E+03  0.22710760523E+03  0.25500000000E-02 0.  1.
<mgrwt>
<rscale>  0 0.53795757E+02</rscale>
<asrwt>0</asrwt>
<pdfrwt beam="2">  1        3 0.19453551E-03 0.53795757E+02</pdfrwt>
<pdfrwt beam="1">  1       -3 0.88025898E-01 0.53795757E+02</pdfrwt>
<totfact> 0.63423328E+04</totfact>
</mgrwt>
</event>
<event>
 4    1  0.7692565E-003  0.4274184E+02  0.7818608E-02  0.1488952E+00
          3   -1    0    0    0  501  0.00000000000E+00  0.00000000000E+00  0.13788147422E+01  0.13825089849E+01  0.10100000000E+00 0.  1.
         -3   -1    0    0  501    0 -0.00000000000E+00 -0.00000000000E+00 -0.33079149494E+03  0.33079151036E+03  0.10100000000E+00 0.  1.
          2    1    1    2    0  502  0.58458800903E+01 -0.20000736218E+02 -0.12783196379E+03  0.12951916745E+03  0.25500000000E-02 0. -1.
         -2    1    1    2  502    0 -0.58458800903E+01  0.20000736218E+02 -0.20158071641E+03  0.20265485190E+03  0.25500000000E-02 0. -1.
<mgrwt>
<rscale>  0 0.42741844E+02</rscale>
<asrwt>0</asrwt>
<pdfrwt beam="1">  1        3 0.21241097E-03 0.42741844E+02</pdfrwt>
<pdfrwt beam="2">  1       -3 0.50891221E-01 0.42741844E+02</pdfrwt>
<totfact> 0.15835977E+05</totfact>
</mgrwt>
</event>
<event>
 4    1  0.7692565E-003  0.6982456E+02  0.7818608E-02  0.1360691E+00
          3   -1    0    0    0  501  0.00000000000E+00  0.00000000000E+00  0.84649503686E+01  0.84655528905E+01  0.10100000000E+00 0.  1.
         -3   -1    0    0  501    0 -0.00000000000E+00 -0.00000000000E+00 -0.14398416354E+03  0.14398419896E+03  0.10100000000E+00 0.  1.
          2    1    1    2    0  502 -0.87256698857E+01 -0.23744702609E+02 -0.12029203389E+03  0.12292323475E+03  0.25500000000E-02 0. -1.
         -2    1    1    2  502    0  0.87256698857E+01  0.23744702609E+02 -0.15227179276E+02  0.29526517101E+02  0.25500000000E-02 0. -1.
<mgrwt>
<rscale>  0 0.69824564E+02</rscale>
<asrwt>0</asrwt>
<pdfrwt beam="1">  1        3 0.13023492E-02 0.69824564E+02</pdfrwt>
<pdfrwt beam="2">  1       -3 0.22151457E-01 0.69824564E+02</pdfrwt>
<totfact> 0.63378964E+04</totfact>
</mgrwt>
</event>
<event>
 4    1  0.7692565E-003  0.4229547E+02  0.7818608E-02  0.1491968E+00
         -3   -1    0    0  501    0 -0.00000000000E+00  0.00000000000E+00  0.40545802851E+03  0.40545804109E+03  0.10100000000E+00 0.  1.
          3   -1    0    0    0  501  0.00000000000E+00 -0.00000000000E+00 -0.11006910718E+01  0.11053152653E+01  0.10100000000E+00 0.  1.
          2    1    1    2    0  502 -0.18227733073E+02 -0.10311308524E+02  0.17390226540E+03  0.17515870305E+03  0.25500000000E-02 0.  1.
         -2    1    1    2  502    0  0.18227733073E+02  0.10311308524E+02  0.23045507203E+03  0.23140465330E+03  0.25500000000E-02 0.  1.
<mgrwt>
<rscale>  0 0.42295465E+02</rscale>
<asrwt>0</asrwt>
<pdfrwt beam="2">  1        3 0.16969373E-03 0.42295465E+02</pdfrwt>
<pdfrwt beam="1">  1       -3 0.62378527E-01 0.42295465E+02</pdfrwt>
<totfact> 0.14469494E+05</totfact>
</mgrwt>
</event>
<event>
 4    1  0.7692565E-003  0.6487077E+02  0.7818608E-02  0.1378458E+00
          3   -1    0    0    0  501  0.00000000000E+00  0.00000000000E+00  0.81731805118E+02  0.81731867524E+02  0.10100000000E+00 0. -1.
         -3   -1    0    0  501    0 -0.00000000000E+00 -0.00000000000E+00 -0.12871765827E+02  0.12872162076E+02  0.10100000000E+00 0. -1.
          2    1    1    2    0  502 -0.32141951547E+02 -0.31166223805E+01  0.38862038344E+02  0.50527976558E+02  0.25500000000E-02 0. -1.
         -2    1    1    2  502    0  0.32141951547E+02  0.31166223805E+01  0.29998000948E+02  0.44076053041E+02  0.25500000000E-02 0. -1.
<mgrwt>
<rscale>  0 0.64870775E+02</rscale>
<asrwt>0</asrwt>
<pdfrwt beam="1">  1        3 0.12574159E-01 0.64870775E+02</pdfrwt>
<pdfrwt beam="2">  1       -3 0.19803070E-02 0.64870775E+02</pdfrwt>
<totfact> 0.86856810E+04</totfact>
</mgrwt>
</event>
<event>
 4    1  0.7692565E-003  0.4379819E+02  0.7818608E-02  0.1481987E+00
          3   -1    0    0    0  501  0.00000000000E+00  0.00000000000E+00  0.58243228945E+02  0.58243316518E+02  0.10100000000E+00 0. -1.
         -3   -1    0    0  501    0 -0.00000000000E+00 -0.00000000000E+00 -0.82335225391E+01  0.82341419955E+01  0.10100000000E+00 0. -1.
          2    1    1    2    0  502  0.17507194570E+02  0.12906987313E+02  0.21141654618E+02  0.30332519673E+02  0.25500000000E-02 0.  1.
         -2    1    1    2  502    0 -0.17507194570E+02 -0.12906987313E+02  0.28868051788E+02  0.36144938840E+02  0.25500000000E-02 0.  1.
<mgrwt>
<rscale>  0 0.43798194E+02</rscale>
<asrwt>0</asrwt>
<pdfrwt beam="1">  1        3 0.89605508E-02 0.43798194E+02</pdfrwt>
<pdfrwt beam="2">  1       -3 0.12667502E-02 0.43798194E+02</pdfrwt>
<totfact> 0.25197469E+05</totfact>
</mgrwt>
</event>
<event>
 4    1  0.7692565E-003  0.4490277E+02  0.7818608E-02  0.1474950E+00
          3   -1    0    0    0  501  0.00000000000E+00  0.00000000000E+00  0.43079999181E+01  0.43091837155E+01  0.10100000000E+00 0.  1.
         -3   -1    0    0  501    0 -0.00000000000E+00 -0.00000000000E+00 -0.11698939457E+03  0.11698943817E+03  0.10100000000E+00 0.  1.
          2    1    1    2    0  502  0.12646619351E+02  0.16839470365E+02 -0.35318620542E+02  0.41120672497E+02  0.25500000000E-02 0. -1.
         -2    1    1    2  502    0 -0.12646619351E+02 -0.16839470365E+02 -0.77362774108E+02  0.80177949383E+02  0.25500000000E-02 0. -1.
<mgrwt>
<rscale>  0 0.44902772E+02</rscale>
<asrwt>0</asrwt>
<pdfrwt beam="1">  1        3 0.66286372E-03 0.44902772E+02</pdfrwt>
<pdfrwt beam="2">  1       -3 0.17998460E-01 0.44902772E+02</pdfrwt>
<totfact> 0.20791290E+05</totfact>
</mgrwt>
</event>
<event>
 4    1  0.7692565E-003  0.1047670E+03  0.7818608E-02  0.1270579E+00
         -3   -1    0    0  501    0 -0.00000000000E+00  0.00000000000E+00  0.35040469058E+02  0.35040614618E+02  0.10100000000E+00 0. -1.
          3   -1    0    0    0  501  0.00000000000E+00 -0.00000000000E+00 -0.78309977060E+02  0.78310042192E+02  0.10100000000E+00 0. -1.
          2    1    1    2    0  502  0.42773856966E+02  0.24853030093E+02 -0.29968049594E+01  0.49560637516E+02  0.25500000000E-02 0. -1.
         -2    1    1    2  502    0 -0.42773856966E+02 -0.24853030093E+02 -0.40272703043E+02  0.63790019294E+02  0.25500000000E-02 0. -1.
<mgrwt>
<rscale>  0 0.10476698E+03</rscale>
<asrwt>0</asrwt>
<pdfrwt beam="2">  1        3 0.12047705E-01 0.10476698E+03</pdfrwt>
<pdfrwt beam="1">  1       -3 0.53908576E-02 0.10476698E+03</pdfrwt>
<totfact> 0.23027037E+04</totfact>
</mgrwt>
</event>
<event>
 4    1  0.7692565E-003  0.4835657E+02  0.7818608E-02  0.1454413E+00
         -3   -1    0    0  501    0 -0.00000000000E+00  0.00000000000E+00  0.36666279174E+02  0.36666418279E+02  0.10100000000E+00 0. -1.
          3   -1    0    0    0  501  0.00000000000E+00 -0.00000000000E+00 -0.15943186032E+02  0.15943505946E+02  0.10100000000E+00 0. -1.
          2    1    1    2    0  502  0.10502607848E+02  0.20664351002E+02  0.17841542518E+02  0.29251338771E+02  0.25500000000E-02 0.  1.
         -2    1    1    2  502    0 -0.10502607848E+02 -0.20664351002E+02  0.28815506235E+01  0.23358585455E+02  0.25500000000E-02 0.  1.
<mgrwt>
<rscale>  0 0.48356567E+02</rscale>
<asrwt>0</asrwt>
<pdfrwt beam="2">  1        3 0.24528332E-02 0.48356567E+02</pdfrwt>
<pdfrwt beam="1">  1       -3 0.56410013E-02 0.48356567E+02</pdfrwt>
<totfact> 0.20420040E+05</totfact>
</mgrwt>
</event>
<event>
 4    1  0.7692565E-003  0.9371587E+02  0.7818608E-02  0.1294095E+00
         -3   -1    0    0  501    0 -0.00000000000E+00  0.00000000000E+00  0.14476544969E+02  0.14476897294E+02  0.10100000000E+00 0.  1.
          3   -1    0    0    0  501  0.00000000000E+00 -0.00000000000E+00 -0.15166836474E+03  0.15166839837E+03  0.10100000000E+00 0.  1.
          2    1    1    2    0  502 -0.29951494116E+02 -0.30414308648E+02 -0.34331308999E+02  0.54779201842E+02  0.25500000000E-02 0. -1.
         -2    1    1    2  502    0  0.29951494116E+02  0.30414308648E+02 -0.10286051077E+03  0.11136609382E+03  0.25500000000E-02 0. -1.
<mgrwt>
<rscale>  0 0.93715868E+02</rscale>
<asrwt>0</asrwt>
<pdfrwt beam="2">  1        3 0.23333623E-01 0.93715868E+02</pdfrwt>
<pdfrwt beam="1">  1       -3 0.22271906E-02 0.93715868E+02</pdfrwt>
<totfact> 0.28168409E+04</totfact>
</mgrwt>
</event>
<event>
 4    1  0.7692565E-003  0.4551201E+02  0.7818608E-02  0.1471170E+00
         -3   -1    0    0  501    0 -0.00000000000E+00  0.00000000000E+00  0.83529550107E+01  0.83535656106E+01  0.10100000000E+00 0. -1.
          3   -1    0    0    0  501  0.00000000000E+00 -0.00000000000E+00 -0.61991407015E+02  0.61991489292E+02  0.10100000000E+00 0. -1.
          2    1    1    2    0  502  0.22299098008E+02 -0.44222766062E+01 -0.28387491861E+02  0.36368337919E+02  0.25500000000E-02 0.  1.
         -2    1    1    2  502    0 -0.22299098008E+02  0.44222766062E+01 -0.25250960143E+02  0.33976716984E+02  0.25500000000E-02 0.  1.
<mgrwt>
<rscale>  0 0.45512012E+02</rscale>
<asrwt>0</asrwt>
<pdfrwt beam="2">  1        3 0.95371926E-02 0.45512012E+02</pdfrwt>
<pdfrwt beam="1">  1       -3 0.12851233E-02 0.45512012E+02</pdfrwt>
<totfact> 0.22683367E+05</totfact>
</mgrwt>
</event>
<event>
 4    1  0.7692565E-003  0.4867864E+02  0.7818608E-02  0.1452602E+00
         -3   -1    0    0  501    0 -0.00000000000E+00  0.00000000000E+00  0.10852701518E+02  0.10853171483E+02  0.10100000000E+00 0.  1.
          3   -1    0    0    0  501  0.00000000000E+00 -0.00000000000E+00 -0.54584028454E+02  0.54584121897E+02  0.10100000000E+00 0.  1.
          2    1    1    2    0  502 -0.21836266856E+01 -0.22706392285E+02 -0.10454859050E+02  0.25092878678E+02  0.25500000000E-02 0.  1.
         -2    1    1    2  502    0  0.21836266856E+01  0.22706392285E+02 -0.33276467886E+02  0.40344414701E+02  0.25500000000E-02 0.  1.
<mgrwt>
<rscale>  0 0.48678644E+02</rscale>
<asrwt>0</asrwt>
<pdfrwt beam="2">  1        3 0.83975860E-02 0.48678644E+02</pdfrwt>
<pdfrwt beam="1">  1       -3 0.16696898E-02 0.48678644E+02</pdfrwt>
<totfact> 0.19418344E+05</totfact>
</mgrwt>
</event>
<event>
 4    1  0.7692565E-003  0.6438522E+02  0.7818608E-02  0.1380299E+00
          3   -1    0    0    0  501  0.00000000000E+00  0.00000000000E+00  0.65536280865E+01  0.65544063114E+01  0.10100000000E+00 0. -1.
         -3   -1    0    0  501    0 -0.00000000000E+00 -0.00000000000E+00 -0.15812573644E+03  0.15812576869E+03  0.10100000000E+00 0. -1.
          2    1    1    2    0  502  0.23679259593E+02 -0.18438148917E+02 -0.10558021838E+03  0.10976272223E+03  0.25500000000E-02 0. -1.
         -2    1    1    2  502    0 -0.23679259593E+02  0.18438148917E+02 -0.45991889971E+02  0.54917452781E+02  0.25500000000E-02 0. -1.
<mgrwt>
<rscale>  0 0.64385216E+02</rscale>
<asrwt>0</asrwt>
<pdfrwt beam="1">  1        3 0.10083129E-02 0.64385216E+02</pdfrwt>
<pdfrwt beam="2">  1       -3 0.24327096E-01 0.64385216E+02</pdfrwt>
<totfact> 0.76390095E+04</totfact>
</mgrwt>
</event>
<event>
 4    1  0.7692565E-003  0.7041951E+02  0.7818608E-02  0.1358672E+00
         -3   -1    0    0  501    0 -0.00000000000E+00  0.00000000000E+00  0.37678658487E+02  0.37678793855E+02  0.10100000000E+00 0.  1.
          3   -1    0    0    0  501  0.00000000000E+00 -0.00000000000E+00 -0.32902353530E+02  0.32902508549E+02  0.10100000000E+00 0.  1.
          2    1    1    2    0  502 -0.17945689873E+02  0.25271426676E+02 -0.14354537500E+02  0.34157657188E+02  0.25500000000E-02 0. -1.
         -2    1    1    2  502    0  0.17945689873E+02 -0.25271426676E+02  0.19130842456E+02  0.36423645216E+02  0.25500000000E-02 0. -1.
<mgrwt>
<rscale>  0 0.70419508E+02</rscale>
<asrwt>0</asrwt>
<pdfrwt beam="2">  1        3 0.50619229E-02 0.70419508E+02</pdfrwt>
<pdfrwt beam="1">  1       -3 0.57967390E-02 0.70419508E+02</pdfrwt>
<totfact> 0.74057405E+04</totfact>
</mgrwt>
</event>
<event>
 4    1  0.7692565E-003  0.5369604E+02  0.7818608E-02  0.1426368E+00
         -3   -1    0    0  501    0 -0.00000000000E+00  0.00000000000E+00  0.74336805744E+02  0.74336874358E+02  0.10100000000E+00 0. -1.
          3   -1    0    0    0  501  0.00000000000E+00 -0.00000000000E+00 -0.96962888904E+01  0.96968149022E+01  0.10100000000E+00 0. -1.
          2    1    1    2    0  502  0.23814325085E+02 -0.12223417050E+02  0.35558732979E+02  0.44507948742E+02  0.25500000000E-02 0.  1.
         -2    1    1    2  502    0 -0.23814325085E+02  0.12223417050E+02  0.29081783875E+02  0.39525740518E+02  0.25500000000E-02 0.  1.
<mgrwt>
<rscale>  0 0.53696038E+02</rscale>
<asrwt>0</asrwt>
<pdfrwt beam="2">  1        3 0.14917824E-02 0.53696038E+02</pdfrwt>
<pdfrwt beam="1">  1       -3 0.11436478E-01 0.53696038E+02</pdfrwt>
<totfact> 0.14479072E+05</totfact>
</mgrwt>
</event>
<event>
 4    1  0.7692565E-003  0.8013885E+02  0.7818608E-02  0.1328658E+00
          3   -1    0    0    0  501  0.00000000000E+00  0.00000000000E+00  0.60605447499E+02  0.60605531658E+02  0.10100000000E+00 0.  1.
         -3   -1    0    0  501    0 -0.00000000000E+00 -0.00000000000E+00 -0.26491787622E+02  0.26491980153E+02  0.10100000000E+00 0.  1.
          2    1    1    2    0  502  0.72783669628E+01 -0.33925138727E+02  0.38838783596E+02  0.52080138066E+02  0.25500000000E-02 0.  1.
         -2    1    1    2  502    0 -0.72783669628E+01  0.33925138727E+02 -0.47251237187E+01  0.35017373745E+02  0.25500000000E-02 0.  1.
<mgrwt>
<rscale>  0 0.80138847E+02</rscale>
<asrwt>0</asrwt>
<pdfrwt beam="1">  1        3 0.93239363E-02 0.80138847E+02</pdfrwt>
<pdfrwt beam="2">  1       -3 0.40756809E-02 0.80138847E+02</pdfrwt>
<totfact> 0.50530361E+04</totfact>
</mgrwt>
</event>
<event>
 4    1  0.7692565E-003  0.4183453E+02  0.7818608E-02  0.1495129E+00
          3   -1    0    0    0  501  0.00000000000E+00  0.00000000000E+00  0.32435368041E+03  0.32435369614E+03  0.10100000000E+00 0. -1.
         -3   -1    0    0  501    0 -0.00000000000E+00 -0.00000000000E+00 -0.13470282308E+01  0.13508094072E+01  0.10100000000E+00 0. -1.
          2    1    1    2    0  502  0.18475063677E+02 -0.92451780099E+01  0.13599976707E+03  0.13755994309E+03  0.25500000000E-02 0. -1.
         -2    1    1    2  502    0 -0.18475063677E+02  0.92451780099E+01  0.18700688511E+03  0.18814456245E+03  0.25500000000E-02 0. -1.
<mgrwt>
<rscale>  0 0.41834526E+02</rscale>
<asrwt>0</asrwt>
<pdfrwt beam="1">  1        3 0.49900812E-01 0.41834526E+02</pdfrwt>
<pdfrwt beam="2">  1       -3 0.20752737E-03 0.41834526E+02</pdfrwt>
<totfact> 0.16863516E+05</totfact>
</mgrwt>
</event>
<event>
 4    1  0.7692565E-003  0.4503837E+02  0.7818608E-02  0.1474102E+00
         -3   -1    0    0  501    0 -0.00000000000E+00  0.00000000000E+00  0.12657814007E+03  0.12657818037E+03  0.10100000000E+00 0.  1.
          3   -1    0    0    0  501  0.00000000000E+00 -0.00000000000E+00 -0.40056511230E+01  0.40069242467E+01  0.10100000000E+00 0.  1.
          2    1    1    2    0  502 -0.20106466987E+02  0.40830118715E+00  0.90665945174E+02  0.92869533999E+02  0.25500000000E-02 0.  1.
         -2    1    1    2  502    0  0.20106466987E+02 -0.40830118715E+00  0.31906543773E+02  0.37715570613E+02  0.25500000000E-02 0.  1.
<mgrwt>
<rscale>  0 0.45038367E+02</rscale>
<asrwt>0</asrwt>
<pdfrwt beam="2">  1        3 0.61635499E-03 0.45038367E+02</pdfrwt>
<pdfrwt beam="1">  1       -3 0.19473663E-01 0.45038367E+02</pdfrwt>
<totfact> 0.20220753E+05</totfact>
</mgrwt>
</event>
<event>
 4    1  0.7692565E-003  0.4478576E+02  0.7818608E-02  0.1475684E+00
         -3   -1    0    0  501    0 -0.00000000000E+00  0.00000000000E+00  0.24036707896E+01  0.24057918166E+01  0.10100000000E+00 0.  1.
          3   -1    0    0    0  501  0.00000000000E+00 -0.00000000000E+00 -0.20852056529E+03  0.20852058975E+03  0.10100000000E+00 0.  1.
          2    1    1    2    0  502  0.20421017117E+02 -0.66979018334E+00 -0.59900114331E+02  0.63288942655E+02  0.25500000000E-02 0.  1.
         -2    1    1    2  502    0 -0.20421017117E+02  0.66979018334E+00 -0.14621678017E+03  0.14763743891E+03  0.25500000000E-02 0.  1.
<mgrwt>
<rscale>  0 0.44785759E+02</rscale>
<asrwt>0</asrwt>
<pdfrwt beam="2">  1        3 0.32080238E-01 0.44785759E+02</pdfrwt>
<pdfrwt beam="1">  1       -3 0.36996071E-03 0.44785759E+02</pdfrwt>
<totfact> 0.17439312E+05</totfact>
</mgrwt>
</event>
<event>
 4    1  0.7692565E-003  0.8207028E+02  0.7818608E-02  0.1323277E+00
          3   -1    0    0    0  501  0.00000000000E+00  0.00000000000E+00  0.21845466736E+03  0.21845469070E+03  0.10100000000E+00 0. -1.
         -3   -1    0    0  501    0 -0.00000000000E+00 -0.00000000000E+00 -0.77078007746E+01  0.77084624784E+01  0.10100000000E+00 0. -1.
          2    1    1    2    0  502 -0.31618712753E+02 -0.25734985078E+02  0.11825481026E+03  0.12508490160E+03  0.25500000000E-02 0. -1.
         -2    1    1    2  502    0  0.31618712753E+02  0.25734985078E+02  0.92492056322E+02  0.10107825158E+03  0.25500000000E-02 0. -1.
<mgrwt>
<rscale>  0 0.82070275E+02</rscale>
<asrwt>0</asrwt>
<pdfrwt beam="1">  1        3 0.33608459E-01 0.82070275E+02</pdfrwt>
<pdfrwt beam="2">  1       -3 0.11858684E-02 0.82070275E+02</pdfrwt>
<totfact> 0.36039280E+04</totfact>
</mgrwt>
</event>
<event>
 4    1  0.7692565E-003  0.1027274E+03  0.7818608E-02  0.1274663E+00
          3   -1    0    0    0  501  0.00000000000E+00  0.00000000000E+00  0.14702627026E+02  0.14702973933E+02  0.10100000000E+00 0. -1.
         -3   -1    0    0  501    0 -0.00000000000E+00 -0.00000000000E+00 -0.17943679927E+03  0.17943682769E+03  0.10100000000E+00 0. -1.
          2    1    1    2    0  502  0.67257943371E+00  0.48559874023E+02 -0.11397430355E+03  0.12388969127E+03  0.25500000000E-02 0. -1.
         -2    1    1    2  502    0 -0.67257943371E+00 -0.48559874023E+02 -0.50759868696E+02  0.70250110354E+02  0.25500000000E-02 0. -1.
<mgrwt>
<rscale>  0 0.10272738E+03</rscale>
<asrwt>0</asrwt>
<pdfrwt beam="1">  1        3 0.22619716E-02 0.10272738E+03</pdfrwt>
<pdfrwt beam="2">  1       -3 0.27605689E-01 0.10272738E+03</pdfrwt>
<totfact> 0.20821850E+04</totfact>
</mgrwt>
</event>
<event>
 4    1  0.7692565E-003  0.4656506E+02  0.7818608E-02  0.1464801E+00
          3   -1    0    0    0  501  0.00000000000E+00  0.00000000000E+00  0.58880303959E+03  0.58880304825E+03  0.10100000000E+00 0.  1.
         -3   -1    0    0  501    0 -0.00000000000E+00 -0.00000000000E+00 -0.91786205185E+00  0.92340226674E+00  0.10100000000E+00 0.  1.
          2    1    1    2    0  502 -0.90386614907E+01  0.20002470875E+02  0.19561472032E+03  0.19684236093E+03  0.25500000000E-02 0.  1.
         -2    1    1    2  502    0  0.90386614907E+01 -0.20002470875E+02  0.39227045721E+03  0.39288408959E+03  0.25500000000E-02 0.  1.
<mgrwt>
<rscale>  0 0.46565056E+02</rscale>
<asrwt>0</asrwt>
<pdfrwt beam="1">  1        3 0.90585535E-01 0.46565056E+02</pdfrwt>
<pdfrwt beam="2">  1       -3 0.14163634E-03 0.46565056E+02</pdfrwt>
<totfact> 0.88916829E+04</totfact>
</mgrwt>
</event>
<event>
 4    1  0.7692565E-003  0.7722625E+02  0.7818608E-02  0.1337112E+00
          3   -1    0    0    0  501  0.00000000000E+00  0.00000000000E+00  0.16934533350E+01  0.16964625542E+01  0.10100000000E+00 0.  1.
         -3   -1    0    0  501    0 -0.00000000000E+00 -0.00000000000E+00 -0.87964918252E+03  0.87964918831E+03  0.10100000000E+00 0.  1.
          2    1    1    2    0  502 -0.25263387321E+02 -0.27080096293E+02 -0.56368437881E+03  0.56489968072E+03  0.25500000000E-02 0.  1.
         -2    1    1    2  502    0  0.25263387321E+02  0.27080096293E+02 -0.31427135037E+03  0.31644597015E+03  0.25500000000E-02 0.  1.
<mgrwt>
<rscale>  0 0.77226251E+02</rscale>
<asrwt>0</asrwt>
<pdfrwt beam="1">  1        3 0.26076391E-03 0.77226251E+02</pdfrwt>
<pdfrwt beam="2">  1       -3 0.13533051E+00 0.77226251E+02</pdfrwt>
<totfact> 0.17517651E+04</totfact>
</mgrwt>
</event>
<event>
 4    1  0.7692565E-003  0.4405936E+02  0.7818608E-02  0.1480301E+00
         -3   -1    0    0  501    0 -0.00000000000E+00  0.00000000000E+00  0.18243977288E+02  0.18244256858E+02  0.10100000000E+00 0. -1.
          3   -1    0    0    0  501  0.00000000000E+00 -0.00000000000E+00 -0.26600347814E+02  0.26600539559E+02  0.10100000000E+00 0. -1.
          2    1    1    2    0  502  0.65863998257E+01 -0.20007133156E+02 -0.10746179020E+02  0.23646276870E+02  0.25500000000E-02 0. -1.
         -2    1    1    2  502    0 -0.65863998257E+01  0.20007133156E+02  0.23898084942E+01  0.21198519546E+02  0.25500000000E-02 0. -1.
<mgrwt>
<rscale>  0 0.44059356E+02</rscale>
<asrwt>0</asrwt>
<pdfrwt beam="2">  1        3 0.40923975E-02 0.44059356E+02</pdfrwt>
<pdfrwt beam="1">  1       -3 0.28068020E-02 0.44059356E+02</pdfrwt>
<totfact> 0.26317259E+05</totfact>
</mgrwt>
</event>
<event>
 4    1  0.7692565E-003  0.6274216E+02  0.7818608E-02  0.1386672E+00
          3   -1    0    0    0  501  0.00000000000E+00  0.00000000000E+00  0.25132487788E+02  0.25132690732E+02  0.10100000000E+00 0. -1.
         -3   -1    0    0  501    0 -0.00000000000E+00 -0.00000000000E+00 -0.39157841373E+02  0.39157971627E+02  0.10100000000E+00 0. -1.
          2    1    1    2    0  502  0.29211795475E+02 -0.69334596599E+01  0.23081315946E+01  0.30111946727E+02  0.25500000000E-02 0. -1.
         -2    1    1    2  502    0 -0.29211795475E+02  0.69334596599E+01 -0.16333485179E+02  0.34178715633E+02  0.25500000000E-02 0. -1.
<mgrwt>
<rscale>  0 0.62742161E+02</rscale>
<asrwt>0</asrwt>
<pdfrwt beam="1">  1        3 0.38665622E-02 0.62742161E+02</pdfrwt>
<pdfrwt beam="2">  1       -3 0.60243089E-02 0.62742161E+02</pdfrwt>
<totfact> 0.10180561E+05</totfact>
</mgrwt>
</event>
<event>
 4    1  0.7692565E-003  0.4670927E+02  0.7818608E-02  0.1463945E+00
          3   -1    0    0    0  501  0.00000000000E+00  0.00000000000E+00  0.10756727668E+03  0.10756732409E+03  0.10100000000E+00 0. -1.
         -3   -1    0    0  501    0 -0.00000000000E+00 -0.00000000000E+00 -0.50701271632E+01  0.50711330539E+01  0.10100000000E+00 0. -1.
          2    1    1    2    0  502 -0.17410322755E+02  0.11007088165E+02  0.24704356857E+02  0.32164896743E+02  0.25500000000E-02 0. -1.
         -2    1    1    2  502    0  0.17410322755E+02 -0.11007088165E+02  0.77792792655E+02  0.80473560403E+02  0.25500000000E-02 0. -1.
<mgrwt>
<rscale>  0 0.46709275E+02</rscale>
<asrwt>0</asrwt>
<pdfrwt beam="1">  1        3 0.16548892E-01 0.46709275E+02</pdfrwt>
<pdfrwt beam="2">  1       -3 0.78010064E-03 0.46709275E+02</pdfrwt>
<totfact> 0.19223002E+05</totfact>
</mgrwt>
</event>
<event>
 4    1  0.7692565E-003  0.5026679E+02  0.7818608E-02  0.1443908E+00
         -3   -1    0    0  501    0 -0.00000000000E+00  0.00000000000E+00  0.61399518923E+01  0.61407825429E+01  0.10100000000E+00 0. -1.
          3   -1    0    0    0  501  0.00000000000E+00 -0.00000000000E+00 -0.10287368124E+03  0.10287373082E+03  0.10100000000E+00 0. -1.
          2    1    1    2    0  502 -0.20119340147E+02 -0.11382459590E+02 -0.26970151032E+02  0.35520941534E+02  0.25500000000E-02 0.  1.
         -2    1    1    2  502    0  0.20119340147E+02  0.11382459590E+02 -0.69763578315E+02  0.73493571828E+02  0.25500000000E-02 0.  1.
<mgrwt>
<rscale>  0 0.50266786E+02</rscale>
<asrwt>0</asrwt>
<pdfrwt beam="2">  1        3 0.15826787E-01 0.50266786E+02</pdfrwt>
<pdfrwt beam="1">  1       -3 0.94467577E-03 0.50266786E+02</pdfrwt>
<totfact> 0.16138219E+05</totfact>
</mgrwt>
</event>
<event>
 4    1  0.7692565E-003  0.5647635E+02  0.7818608E-02  0.1413243E+00
          3   -1    0    0    0  501  0.00000000000E+00  0.00000000000E+00  0.71173569886E+01  0.71180735809E+01  0.10100000000E+00 0. -1.
         -3   -1    0    0  501    0 -0.00000000000E+00 -0.00000000000E+00 -0.11202883219E+03  0.11202887772E+03  0.10100000000E+00 0. -1.
          2    1    1    2    0  502  0.19188447582E+02 -0.20693015436E+02 -0.54562438189E+02  0.61428471217E+02  0.25500000000E-02 0.  1.
         -2    1    1    2  502    0 -0.19188447582E+02  0.20693015436E+02 -0.50349037013E+02  0.57718480083E+02  0.25500000000E-02 0.  1.
<mgrwt>
<rscale>  0 0.56476352E+02</rscale>
<asrwt>0</asrwt>
<pdfrwt beam="1">  1        3 0.10950367E-02 0.56476352E+02</pdfrwt>
<pdfrwt beam="2">  1       -3 0.17235262E-01 0.56476352E+02</pdfrwt>
<totfact> 0.11752696E+05</totfact>
</mgrwt>
</event>
<event>
 4    1  0.7692565E-003  0.1096416E+03  0.7818608E-02  0.1261235E+00
         -3   -1    0    0  501    0 -0.00000000000E+00  0.00000000000E+00  0.39311166050E+03  0.39311167348E+03  0.10100000000E+00 0.  1.
          3   -1    0    0    0  501  0.00000000000E+00 -0.00000000000E+00 -0.76446043295E+01  0.76452715030E+01  0.10100000000E+00 0.  1.
          2    1    1    2    0  502  0.17186815615E+02  0.48323951378E+02  0.26348966157E+03  0.26843508092E+03  0.25500000000E-02 0. -1.
         -2    1    1    2  502    0 -0.17186815615E+02 -0.48323951378E+02  0.12197739461E+03  0.13232186406E+03  0.25500000000E-02 0. -1.
<mgrwt>
<rscale>  0 0.10964159E+03</rscale>
<asrwt>0</asrwt>
<pdfrwt beam="2">  1        3 0.11761451E-02 0.10964159E+03</pdfrwt>
<pdfrwt beam="1">  1       -3 0.60478780E-01 0.10964159E+03</pdfrwt>
<totfact> 0.12497669E+04</totfact>
</mgrwt>
</event>
<event>
 4    1  0.7692565E-003  0.7829318E+02  0.7818608E-02  0.1333966E+00
         -3   -1    0    0  501    0 -0.00000000000E+00  0.00000000000E+00  0.63702942788E+01  0.63710948979E+01  0.10100000000E+00 0.  1.
          3   -1    0    0    0  501  0.00000000000E+00 -0.00000000000E+00 -0.24054682584E+03  0.24054684705E+03  0.10100000000E+00 0.  1.
          2    1    1    2    0  502  0.22305298102E+02 -0.22799041529E+02 -0.45508815526E+02  0.55573149228E+02  0.25500000000E-02 0. -1.
         -2    1    1    2  502    0 -0.22305298102E+02  0.22799041529E+02 -0.18866771604E+03  0.19134479272E+03  0.25500000000E-02 0. -1.
<mgrwt>
<rscale>  0 0.78293181E+02</rscale>
<asrwt>0</asrwt>
<pdfrwt beam="2">  1        3 0.37007260E-01 0.78293181E+02</pdfrwt>
<pdfrwt beam="1">  1       -3 0.98010868E-03 0.78293181E+02</pdfrwt>
<totfact> 0.39379472E+04</totfact>
</mgrwt>
</event>
<event>
 4    1  0.7692565E-003  0.8892849E+02  0.7818608E-02  0.1305467E+00
         -3   -1    0    0  501    0 -0.00000000000E+00  0.00000000000E+00  0.18333528755E+02  0.18333806959E+02  0.10100000000E+00 0. -1.
          3   -1    0    0    0  501  0.00000000000E+00 -0.00000000000E+00 -0.10783785658E+03  0.10783790388E+03  0.10100000000E+00 0. -1.
          2    1    1    2    0  502  0.35281567724E+02 -0.20058201201E+02 -0.18980398168E+02  0.44803749593E+02  0.25500000000E-02 0. -1.
         -2    1    1    2  502    0 -0.35281567724E+02  0.20058201201E+02 -0.70523929660E+02  0.81367961248E+02  0.25500000000E-02 0. -1.
<mgrwt>
<rscale>  0 0.88928488E+02</rscale>
<asrwt>0</asrwt>
<pdfrwt beam="2">  1        3 0.16590464E-01 0.88928488E+02</pdfrwt>
<pdfrwt beam="1">  1       -3 0.28205680E-02 0.88928488E+02</pdfrwt>
<totfact> 0.35124198E+04</totfact>
</mgrwt>
</event>
<event>
 4    1  0.7692565E-003  0.4686194E+02  0.7818608E-02  0.1463042E+00
         -3   -1    0    0  501    0 -0.00000000000E+00  0.00000000000E+00  0.38435003676E+02  0.38435136380E+02  0.10100000000E+00 0.  1.
          3   -1    0    0    0  501  0.00000000000E+00 -0.00000000000E+00 -0.14283789119E+02  0.14284146197E+02  0.10100000000E+00 0.  1.
          2    1    1    2    0  502 -0.15218625311E+02  0.15779602395E+02  0.27709023722E+01  0.22097065745E+02  0.25500000000E-02 0.  1.
         -2    1    1    2  502    0  0.15218625311E+02 -0.15779602395E+02  0.21380312185E+02  0.30622216832E+02  0.25500000000E-02 0.  1.
<mgrwt>
<rscale>  0 0.46861942E+02</rscale>
<asrwt>0</asrwt>
<pdfrwt beam="2">  1        3 0.21975437E-02 0.46861942E+02</pdfrwt>
<pdfrwt beam="1">  1       -3 0.59131152E-02 0.46861942E+02</pdfrwt>
<totfact> 0.22085458E+05</totfact>
</mgrwt>
</event>
<event>
 4    1  0.7692565E-003  0.4199456E+02  0.7818608E-02  0.1494026E+00
         -3   -1    0    0  501    0 -0.00000000000E+00  0.00000000000E+00  0.97065718378E+00  0.97589772437E+00  0.10100000000E+00 0.  1.
          3   -1    0    0    0  501  0.00000000000E+00 -0.00000000000E+00 -0.45298556723E+03  0.45298557849E+03  0.10100000000E+00 0.  1.
          2    1    1    2    0  502  0.19340384237E+02  0.59520259090E+01 -0.28659044571E+03  0.28730395168E+03  0.25500000000E-02 0. -1.
         -2    1    1    2  502    0 -0.19340384237E+02 -0.59520259090E+01 -0.16542446433E+03  0.16665752453E+03  0.25500000000E-02 0. -1.
<mgrwt>
<rscale>  0 0.41994559E+02</rscale>
<asrwt>0</asrwt>
<pdfrwt beam="2">  1        3 0.69690323E-01 0.41994559E+02</pdfrwt>
<pdfrwt beam="1">  1       -3 0.14973622E-03 0.41994559E+02</pdfrwt>
<totfact> 0.13744606E+05</totfact>
</mgrwt>
</event>
<event>
 4    1  0.7692565E-003  0.6895162E+02  0.7818608E-02  0.1363695E+00
         -3   -1    0    0  501    0 -0.00000000000E+00  0.00000000000E+00  0.31177782310E+02  0.31177945903E+02  0.10100000000E+00 0. -1.
          3   -1    0    0    0  501  0.00000000000E+00 -0.00000000000E+00 -0.38122380425E+02  0.38122514217E+02  0.10100000000E+00 0. -1.
          2    1    1    2    0  502 -0.22911907809E+02  0.60447443451E+01  0.21696098501E+02  0.32128105302E+02  0.25500000000E-02 0. -1.
         -2    1    1    2  502    0  0.22911907809E+02 -0.60447443451E+01 -0.28640696616E+02  0.37172354819E+02  0.25500000000E-02 0. -1.
<mgrwt>
<rscale>  0 0.68951623E+02</rscale>
<asrwt>0</asrwt>
<pdfrwt beam="2">  1        3 0.58650045E-02 0.68951623E+02</pdfrwt>
<pdfrwt beam="1">  1       -3 0.47966048E-02 0.68951623E+02</pdfrwt>
<totfact> 0.78528069E+04</totfact>
</mgrwt>
</event>
<event>
 4    1  0.7692565E-003  0.5319798E+02  0.7818608E-02  0.1428818E+00
         -3   -1    0    0  501    0 -0.00000000000E+00  0.00000000000E+00  0.13217405508E+02  0.13217791395E+02  0.10100000000E+00 0.  1.
          3   -1    0    0    0  501  0.00000000000E+00 -0.00000000000E+00 -0.53527159906E+02  0.53527255194E+02  0.10100000000E+00 0.  1.
          2    1    1    2    0  502 -0.18956399256E+02  0.18001548492E+02 -0.13994870859E+02  0.29652272050E+02  0.25500000000E-02 0.  1.
         -2    1    1    2  502    0  0.18956399256E+02 -0.18001548492E+02 -0.26314883539E+02  0.37092774539E+02  0.25500000000E-02 0.  1.
<mgrwt>
<rscale>  0 0.53197979E+02</rscale>
<asrwt>0</asrwt>
<pdfrwt beam="2">  1        3 0.82349846E-02 0.53197979E+02</pdfrwt>
<pdfrwt beam="1">  1       -3 0.20334840E-02 0.53197979E+02</pdfrwt>
<totfact> 0.15467471E+05</totfact>
</mgrwt>
</event>
<event>
 4    1  0.7692565E-003  0.4655835E+02  0.7818608E-02  0.1464841E+00
          3   -1    0    0    0  501  0.00000000000E+00  0.00000000000E+00  0.10716537822E+02  0.10717013758E+02  0.10100000000E+00 0. -1.
         -3   -1    0    0  501    0 -0.00000000000E+00 -0.00000000000E+00 -0.50566929350E+02  0.50567030216E+02  0.10100000000E+00 0. -1.
          2    1    1    2    0  502 -0.21773123365E+02 -0.99699571513E+00 -0.30687959682E+02  0.37640586838E+02  0.25500000000E-02 0. -1.
         -2    1    1    2  502    0  0.21773123365E+02  0.99699571513E+00 -0.91624318454E+01  0.23643457136E+02  0.25500000000E-02 0. -1.
<mgrwt>
<rscale>  0 0.46558354E+02</rscale>
<asrwt>0</asrwt>
<pdfrwt beam="1">  1        3 0.16487425E-02 0.46558354E+02</pdfrwt>
<pdfrwt beam="2">  1       -3 0.77795718E-02 0.46558354E+02</pdfrwt>
<totfact> 0.21943212E+05</totfact>
</mgrwt>
</event>
<event>
 4    1  0.7692565E-003  0.4995387E+02  0.7818608E-02  0.1445591E+00
          3   -1    0    0    0  501  0.00000000000E+00  0.00000000000E+00  0.10131287954E+02  0.10131791382E+02  0.10100000000E+00 0. -1.
         -3   -1    0    0  501    0 -0.00000000000E+00 -0.00000000000E+00 -0.61574220491E+02  0.61574303325E+02  0.10100000000E+00 0. -1.
          2    1    1    2    0  502  0.10144178838E+02  0.22558179499E+02 -0.20734174357E+02  0.32275095963E+02  0.25500000000E-02 0.  1.
         -2    1    1    2  502    0 -0.10144178838E+02 -0.22558179499E+02 -0.30708758179E+02  0.39430998745E+02  0.25500000000E-02 0.  1.
<mgrwt>
<rscale>  0 0.49953866E+02</rscale>
<asrwt>0</asrwt>
<pdfrwt beam="1">  1        3 0.15587048E-02 0.49953866E+02</pdfrwt>
<pdfrwt beam="2">  1       -3 0.94730019E-02 0.49953866E+02</pdfrwt>
<totfact> 0.17912770E+05</totfact>
</mgrwt>
</event>
<event>
 4    1  0.7692565E-003  0.9080255E+02  0.7818608E-02  0.1300920E+00
          3   -1    0    0    0  501  0.00000000000E+00  0.00000000000E+00  0.15461423463E+02  0.15461753345E+02  0.10100000000E+00 0. -1.
         -3   -1    0    0  501    0 -0.00000000000E+00 -0.00000000000E+00 -0.13331557335E+03  0.13331561161E+03  0.10100000000E+00 0. -1.
          2    1    1    2    0  502 -0.36120040921E+02 -0.13879995438E+02 -0.20016772890E+02  0.43565844797E+02  0.25500000000E-02 0. -1.
         -2    1    1    2  502    0  0.36120040921E+02  0.13879995438E+02 -0.97837377002E+02  0.10521152016E+03  0.25500000000E-02 0. -1.
<mgrwt>
<rscale>  0 0.90802553E+02</rscale>
<asrwt>0</asrwt>
<pdfrwt beam="1">  1        3 0.23787089E-02 0.90802553E+02</pdfrwt>
<pdfrwt beam="2">  1       -3 0.20510116E-01 0.90802553E+02</pdfrwt>
<totfact> 0.31734461E+04</totfact>
</mgrwt>
</event>
<event>
 4    1  0.7692565E-003  0.6046694E+02  0.7818608E-02  0.1395883E+00
         -3   -1    0    0  501    0 -0.00000000000E+00  0.00000000000E+00  0.12098009633E+04  0.12098009675E+04  0.10100000000E+00 0. -1.
          3   -1    0    0    0  501  0.00000000000E+00 -0.00000000000E+00 -0.75216841916E+00  0.75891918594E+00  0.10100000000E+00 0. -1.
          2    1    1    2    0  502 -0.25167434146E+02 -0.12489717327E+02  0.38098753467E+03  0.38202211240E+03  0.25500000000E-02 0.  1.
         -2    1    1    2  502    0  0.25167434146E+02  0.12489717327E+02  0.82806126016E+03  0.82853777426E+03  0.25500000000E-02 0.  1.
<mgrwt>
<rscale>  0 0.60466940E+02</rscale>
<asrwt>0</asrwt>
<pdfrwt beam="2">  1        3 0.11623762E-03 0.60466940E+02</pdfrwt>
<pdfrwt beam="1">  1       -3 0.18612409E+00 0.60466940E+02</pdfrwt>
<totfact> 0.23451888E+04</totfact>
</mgrwt>
</event>
<event>
 4    1  0.7692565E-003  0.5868618E+02  0.7818608E-02  0.1403429E+00
          3   -1    0    0    0  501  0.00000000000E+00  0.00000000000E+00  0.74823225659E+03  0.74823226341E+03  0.10100000000E+00 0. -1.
         -3   -1    0    0  501    0 -0.00000000000E+00 -0.00000000000E+00 -0.11485120005E+01  0.11529444112E+01  0.10100000000E+00 0. -1.
          2    1    1    2    0  502 -0.25754852349E+02 -0.76965632321E+00  0.19426425558E+03  0.19596557298E+03  0.25500000000E-02 0.  1.
         -2    1    1    2  502    0  0.25754852349E+02  0.76965632321E+00  0.55281948901E+03  0.55341963484E+03  0.25500000000E-02 0.  1.
<mgrwt>
<rscale>  0 0.58686185E+02</rscale>
<asrwt>0</asrwt>
<pdfrwt beam="1">  1        3 0.11511321E+00 0.58686185E+02</pdfrwt>
<pdfrwt beam="2">  1       -3 0.17703531E-03 0.58686185E+02</pdfrwt>
<totfact> 0.41173667E+04</totfact>
</mgrwt>
</event>
<event>
 4    1  0.7692565E-003  0.6116115E+02  0.7818608E-02  0.1393023E+00
          3   -1    0    0    0  501  0.00000000000E+00  0.00000000000E+00  0.44519894015E+01  0.44531349217E+01  0.10100000000E+00 0. -1.
         -3   -1    0    0  501    0 -0.00000000000E+00 -0.00000000000E+00 -0.21002885517E+03  0.21002887945E+03  0.10100000000E+00 0. -1.
          2    1    1    2    0  502 -0.22635726022E+02  0.86729359677E+01 -0.37409179582E+02  0.44576256397E+02  0.25500000000E-02 0. -1.
         -2    1    1    2  502    0  0.22635726022E+02 -0.86729359677E+01 -0.16816768619E+03  0.16990575798E+03  0.25500000000E-02 0. -1.
<mgrwt>
<rscale>  0 0.61161154E+02</rscale>
<asrwt>0</asrwt>
<pdfrwt beam="1">  1        3 0.68501159E-03 0.61161154E+02</pdfrwt>
<pdfrwt beam="2">  1       -3 0.32312214E-01 0.61161154E+02</pdfrwt>
<totfact> 0.79300735E+04</totfact>
</mgrwt>
</event>
<event>
 4    1  0.7692565E-003  0.5619413E+02  0.7818608E-02  0.1414535E+00
         -3   -1    0    0  501    0 -0.00000000000E+00  0.00000000000E+00  0.14104547451E+01  0.14140663309E+01  0.10100000000E+00 0.  1.
          3   -1    0    0    0  501  0.00000000000E+00 -0.00000000000E+00 -0.55899039955E+03  0.55899040867E+03  0.10100000000E+00 0.  1.
          2    1    1    2    0  502  0.23966329820E+02 -0.12111621736E+02 -0.36124928365E+03  0.36224594034E+03  0.25500000000E-02 0.  1.
         -2    1    1    2  502    0 -0.23966329820E+02  0.12111621736E+02 -0.19633066116E+03  0.19815853467E+03  0.25500000000E-02 0.  1.
<mgrwt>
<rscale>  0 0.56194135E+02</rscale>
<asrwt>0</asrwt>
<pdfrwt beam="2">  1        3 0.85998625E-01 0.56194135E+02</pdfrwt>
<pdfrwt beam="1">  1       -3 0.21727200E-03 0.56194135E+02</pdfrwt>
<totfact> 0.57912221E+04</totfact>
</mgrwt>
</event>
<event>
 4    1  0.7692565E-003  0.7693824E+02  0.7818608E-02  0.1337972E+00
         -3   -1    0    0  501    0 -0.00000000000E+00  0.00000000000E+00  0.17355078319E+03  0.17355081258E+03  0.10100000000E+00 0. -1.
          3   -1    0    0    0  501  0.00000000000E+00 -0.00000000000E+00 -0.85267038888E+01  0.85273020474E+01  0.10100000000E+00 0. -1.
          2    1    1    2    0  502  0.20634341632E+02 -0.25821553017E+02  0.35935818886E+02  0.48825318640E+02  0.25500000000E-02 0.  1.
         -2    1    1    2  502    0 -0.20634341632E+02  0.25821553017E+02  0.12908826042E+03  0.13325279599E+03  0.25500000000E-02 0.  1.
<mgrwt>
<rscale>  0 0.76938242E+02</rscale>
<asrwt>0</asrwt>
<pdfrwt beam="2">  1        3 0.13118490E-02 0.76938242E+02</pdfrwt>
<pdfrwt beam="1">  1       -3 0.26700167E-01 0.76938242E+02</pdfrwt>
<totfact> 0.46361845E+04</totfact>
</mgrwt>
</event>
<event>
 4    1  0.7692565E-003  0.9244882E+02  0.7818608E-02  0.1297028E+00
          3   -1    0    0    0  501  0.00000000000E+00  0.00000000000E+00  0.81495350186E+03  0.81495350812E+03  0.10100000000E+00 0. -1.
         -3   -1    0    0  501    0 -0.00000000000E+00 -0.00000000000E+00 -0.26208836025E+01  0.26228289799E+01  0.10100000000E+00 0. -1.
          2    1    1    2    0  502  0.35904288753E+02  0.29085424946E+02  0.39492360315E+03  0.39761757032E+03  0.25500000000E-02 0.  1.
         -2    1    1    2  502    0 -0.35904288753E+02 -0.29085424946E+02  0.41740901510E+03  0.41995876678E+03  0.25500000000E-02 0.  1.
<mgrwt>
<rscale>  0 0.92448820E+02</rscale>
<asrwt>0</asrwt>
<pdfrwt beam="1">  1        3 0.12537757E+00 0.92448820E+02</pdfrwt>
<pdfrwt beam="2">  1       -3 0.40336313E-03 0.92448820E+02</pdfrwt>
<totfact> 0.11728322E+04</totfact>
</mgrwt>
</event>
<event>
 4    1  0.7692565E-003  0.6994126E+02  0.7818608E-02  0.1360293E+00
          3   -1    0    0    0  501  0.00000000000E+00  0.00000000000E+00  0.42193439389E+02  0.42193560273E+02  0.10100000000E+00 0. -1.
         -3   -1    0    0  501    0 -0.00000000000E+00 -0.00000000000E+00 -0.28983990216E+02  0.28984166192E+02  0.10100000000E+00 0. -1.
          2    1    1    2    0  502 -0.69558071822E+01  0.34003464050E+02  0.10961289568E+02  0.36397372109E+02  0.25500000000E-02 0.  1.
         -2    1    1    2  502    0  0.69558071822E+01 -0.34003464050E+02  0.22481596051E+01  0.34780354355E+02  0.25500000000E-02 0.  1.
<mgrwt>
<rscale>  0 0.69941255E+02</rscale>
<asrwt>0</asrwt>
<pdfrwt beam="1">  1        3 0.64913212E-02 0.69941255E+02</pdfrwt>
<pdfrwt beam="2">  1       -3 0.44590982E-02 0.69941255E+02</pdfrwt>
<totfact> 0.75293858E+04</totfact>
</mgrwt>
</event>
<event>
 4    1  0.7692565E-003  0.5455997E+02  0.7818608E-02  0.1422191E+00
          3   -1    0    0    0  501  0.00000000000E+00  0.00000000000E+00  0.63684655525E+02  0.63684735615E+02  0.10100000000E+00 0.  1.
         -3   -1    0    0  501    0 -0.00000000000E+00 -0.00000000000E+00 -0.11685358809E+02  0.11685795287E+02  0.10100000000E+00 0.  1.
          2    1    1    2    0  502 -0.24468952129E+02  0.11585823452E+02  0.30630327500E+02  0.40880042717E+02  0.25500000000E-02 0.  1.
         -2    1    1    2  502    0  0.24468952129E+02 -0.11585823452E+02  0.21368969217E+02  0.34490488185E+02  0.25500000000E-02 0.  1.
<mgrwt>
<rscale>  0 0.54559968E+02</rscale>
<asrwt>0</asrwt>
<pdfrwt beam="1">  1        3 0.97976787E-02 0.54559968E+02</pdfrwt>
<pdfrwt beam="2">  1       -3 0.17977873E-02 0.54559968E+02</pdfrwt>
<totfact> 0.14195169E+05</totfact>
</mgrwt>
</event>
<event>
 4    1  0.7692565E-003  0.9888571E+02  0.7818608E-02  0.1282657E+00
         -3   -1    0    0  501    0 -0.00000000000E+00  0.00000000000E+00  0.63747666469E+02  0.63747746479E+02  0.10100000000E+00 0. -1.
          3   -1    0    0    0  501  0.00000000000E+00 -0.00000000000E+00 -0.38347835830E+02  0.38347968836E+02  0.10100000000E+00 0. -1.
          2    1    1    2    0  502  0.33640176076E+02  0.36097232314E+02  0.15952463011E+02  0.51857041082E+02  0.25500000000E-02 0.  1.
         -2    1    1    2  502    0 -0.33640176076E+02 -0.36097232314E+02  0.94473676282E+01  0.50238674233E+02  0.25500000000E-02 0.  1.
<mgrwt>
<rscale>  0 0.98885710E+02</rscale>
<asrwt>0</asrwt>
<pdfrwt beam="2">  1        3 0.58996835E-02 0.98885710E+02</pdfrwt>
<pdfrwt beam="1">  1       -3 0.98073496E-02 0.98885710E+02</pdfrwt>
<totfact> 0.27640330E+04</totfact>
</mgrwt>
</event>
<event>
 4    1  0.7692565E-003  0.5690579E+02  0.7818608E-02  0.1411295E+00
          3   -1    0    0    0  501  0.00000000000E+00  0.00000000000E+00  0.27421992306E+03  0.27421994166E+03  0.10100000000E+00 0.  1.
         -3   -1    0    0  501    0 -0.00000000000E+00 -0.00000000000E+00 -0.29513723554E+01  0.29531000289E+01  0.10100000000E+00 0.  1.
          2    1    1    2    0  502 -0.21668456284E+02 -0.16720981836E+02  0.97763288345E+02  0.10152228221E+03  0.25500000000E-02 0.  1.
         -2    1    1    2  502    0  0.21668456284E+02  0.16720981836E+02  0.17350526236E+03  0.17565075947E+03  0.25500000000E-02 0.  1.
<mgrwt>
<rscale>  0 0.56905786E+02</rscale>
<asrwt>0</asrwt>
<pdfrwt beam="1">  1        3 0.42187813E-01 0.56905786E+02</pdfrwt>
<pdfrwt beam="2">  1       -3 0.45419164E-03 0.56905786E+02</pdfrwt>
<totfact> 0.85301781E+04</totfact>
</mgrwt>
</event>
<event>
 4    1  0.7692565E-003  0.6097033E+02  0.7818608E-02  0.1393804E+00
          3   -1    0    0    0  501  0.00000000000E+00  0.00000000000E+00  0.70360054298E+02  0.70360126789E+02  0.10100000000E+00 0.  1.
         -3   -1    0    0  501    0 -0.00000000000E+00 -0.00000000000E+00 -0.13208148965E+02  0.13208535122E+02  0.10100000000E+00 0.  1.
          2    1    1    2    0  502  0.13139950422E+02 -0.21651131257E+02  0.53187540841E+01  0.25878928364E+02  0.25500000000E-02 0. -1.
         -2    1    1    2  502    0 -0.13139950422E+02  0.21651131257E+02  0.51833151249E+02  0.57689733547E+02  0.25500000000E-02 0. -1.
<mgrwt>
<rscale>  0 0.60970329E+02</rscale>
<asrwt>0</asrwt>
<pdfrwt beam="1">  1        3 0.10824659E-01 0.60970329E+02</pdfrwt>
<pdfrwt beam="2">  1       -3 0.20320582E-02 0.60970329E+02</pdfrwt>
<totfact> 0.10466076E+05</totfact>
</mgrwt>
</event>
<event>
 4    1  0.7692565E-003  0.6653009E+02  0.7818608E-02  0.1372307E+00
          3   -1    0    0    0  501  0.00000000000E+00  0.00000000000E+00  0.11079878903E+03  0.11079883506E+03  0.10100000000E+00 0.  1.
         -3   -1    0    0  501    0 -0.00000000000E+00 -0.00000000000E+00 -0.99868391238E+01  0.99873498329E+01  0.10100000000E+00 0.  1.
          2    1    1    2    0  502  0.24605983646E+02 -0.12454305341E+01  0.90984101781E+02  0.94260873706E+02  0.25500000000E-02 0.  1.
         -2    1    1    2  502    0 -0.24605983646E+02  0.12454305341E+01  0.98278481226E+01  0.26525311188E+02  0.25500000000E-02 0.  1.
<mgrwt>
<rscale>  0 0.66530093E+02</rscale>
<asrwt>0</asrwt>
<pdfrwt beam="1">  1        3 0.17046010E-01 0.66530093E+02</pdfrwt>
<pdfrwt beam="2">  1       -3 0.15364796E-02 0.66530093E+02</pdfrwt>
<totfact> 0.76763964E+04</totfact>
</mgrwt>
</event>
<event>
 4    1  0.7692565E-003  0.5766221E+02  0.7818608E-02  0.1407913E+00
         -3   -1    0    0  501    0 -0.00000000000E+00  0.00000000000E+00  0.25111599581E+03  0.25111601613E+03  0.10100000000E+00 0.  1.
          3   -1    0    0    0  501  0.00000000000E+00 -0.00000000000E+00 -0.33093632314E+01  0.33109041058E+01  0.10100000000E+00 0.  1.
          2    1    1    2    0  502 -0.18015576875E+02 -0.21835277621E+02  0.99779206372E+02  0.10371706894E+03  0.25500000000E-02 0.  1.
         -2    1    1    2  502    0  0.18015576875E+02  0.21835277621E+02  0.14802742621E+03  0.15070985129E+03  0.25500000000E-02 0.  1.
<mgrwt>
<rscale>  0 0.57662211E+02</rscale>
<asrwt>0</asrwt>
<pdfrwt beam="2">  1        3 0.50925274E-03 0.57662211E+02</pdfrwt>
<pdfrwt beam="1">  1       -3 0.38633362E-01 0.57662211E+02</pdfrwt>
<totfact> 0.85775947E+04</totfact>
</mgrwt>
</event>
<event>
 4    1  0.7692565E-003  0.5457225E+02  0.7818608E-02  0.1422133E+00
         -3   -1    0    0  501    0 -0.00000000000E+00  0.00000000000E+00  0.84886731137E+01  0.84892739520E+01  0.10100000000E+00 0.  1.
          3   -1    0    0    0  501  0.00000000000E+00 -0.00000000000E+00 -0.87705201927E+02  0.87705260082E+02  0.10100000000E+00 0.  1.
          2    1    1    2    0  502  0.26255231691E+02 -0.72832946631E+01 -0.37024295252E+02  0.45969359553E+02  0.25500000000E-02 0.  1.
         -2    1    1    2  502    0 -0.26255231691E+02  0.72832946631E+01 -0.42192233561E+02  0.50225174481E+02  0.25500000000E-02 0.  1.
<mgrwt>
<rscale>  0 0.54572245E+02</rscale>
<asrwt>0</asrwt>
<pdfrwt beam="2">  1        3 0.13493158E-01 0.54572245E+02</pdfrwt>
<pdfrwt beam="1">  1       -3 0.13060005E-02 0.54572245E+02</pdfrwt>
<totfact> 0.13502234E+05</totfact>
</mgrwt>
</event>
<event>
 4    1  0.7692565E-003  0.7058680E+02  0.7818608E-02  0.1358109E+00
          3   -1    0    0    0  501  0.00000000000E+00  0.00000000000E+00  0.30319308861E+01  0.30336126809E+01  0.10100000000E+00 0. -1.
         -3   -1    0    0  501    0 -0.00000000000E+00 -0.00000000000E+00 -0.41071966578E+03  0.41071967819E+03  0.10100000000E+00 0. -1.
          2    1    1    2    0  502  0.54868148982E+00 -0.34037925539E+02 -0.25843654886E+03  0.26066900702E+03  0.25500000000E-02 0. -1.
         -2    1    1    2  502    0 -0.54868148982E+00  0.34037925539E+02 -0.14925118603E+03  0.15308428385E+03  0.25500000000E-02 0. -1.
<mgrwt>
<rscale>  0 0.70586801E+02</rscale>
<asrwt>0</asrwt>
<pdfrwt beam="1">  1        3 0.46658156E-03 0.70586801E+02</pdfrwt>
<pdfrwt beam="2">  1       -3 0.63187727E-01 0.70586801E+02</pdfrwt>
<totfact> 0.39604787E+04</totfact>
</mgrwt>
</event>
<event>
 4    1  0.7692565E-003  0.4658840E+02  0.7818608E-02  0.1464662E+00
          3   -1    0    0    0  501  0.00000000000E+00  0.00000000000E+00  0.69265525061E+02  0.69265598698E+02  0.10100000000E+00 0. -1.
         -3   -1    0    0  501    0 -0.00000000000E+00 -0.00000000000E+00 -0.78335039987E+01  0.78341550851E+01  0.10100000000E+00 0. -1.
          2    1    1    2    0  502  0.16004756427E+02  0.16891589216E+02  0.32484279171E+02  0.39958808970E+02  0.25500000000E-02 0. -1.
         -2    1    1    2  502    0 -0.16004756427E+02 -0.16891589216E+02  0.28947741891E+02  0.37140944813E+02  0.25500000000E-02 0. -1.
<mgrwt>
<rscale>  0 0.46588398E+02</rscale>
<asrwt>0</asrwt>
<pdfrwt beam="1">  1        3 0.10656291E-01 0.46588398E+02</pdfrwt>
<pdfrwt beam="2">  1       -3 0.12052102E-02 0.46588398E+02</pdfrwt>
<totfact> 0.21041467E+05</totfact>
</mgrwt>
</event>
<event>
 4    1  0.7692565E-003  0.4704972E+02  0.7818608E-02  0.1461937E+00
          3   -1    0    0    0  501  0.00000000000E+00  0.00000000000E+00  0.55206048610E+02  0.55206141001E+02  0.10100000000E+00 0. -1.
         -3   -1    0    0  501    0 -0.00000000000E+00 -0.00000000000E+00 -0.10024252591E+02  0.10024761394E+02  0.10100000000E+00 0. -1.
          2    1    1    2    0  502  0.15794216179E+02 -0.16201636150E+02  0.13662848940E+02  0.26431491186E+02  0.25500000000E-02 0.  1.
         -2    1    1    2  502    0 -0.15794216179E+02  0.16201636150E+02  0.31518947080E+02  0.38799411209E+02  0.25500000000E-02 0.  1.
<mgrwt>
<rscale>  0 0.47049718E+02</rscale>
<asrwt>0</asrwt>
<pdfrwt beam="1">  1        3 0.84932845E-02 0.47049718E+02</pdfrwt>
<pdfrwt beam="2">  1       -3 0.15422390E-02 0.47049718E+02</pdfrwt>
<totfact> 0.21156268E+05</totfact>
</mgrwt>
</event>
<event>
 4    1  0.7692565E-003  0.1169538E+03  0.7818608E-02  0.1248209E+00
          3   -1    0    0    0  501  0.00000000000E+00  0.00000000000E+00  0.16102243549E+02  0.16102560303E+02  0.10100000000E+00 0. -1.
         -3   -1    0    0  501    0 -0.00000000000E+00 -0.00000000000E+00 -0.21236218452E+03  0.21236220853E+03  0.10100000000E+00 0. -1.
          2    1    1    2    0  502 -0.49775776746E+02 -0.30529996463E+02 -0.10425708818E+03  0.11949581196E+03  0.25500000000E-02 0.  1.
         -2    1    1    2  502    0  0.49775776746E+02  0.30529996463E+02 -0.92002852788E+02  0.10896895687E+03  0.25500000000E-02 0.  1.
<mgrwt>
<rscale>  0 0.11695378E+03</rscale>
<asrwt>0</asrwt>
<pdfrwt beam="1">  1        3 0.24772946E-02 0.11695378E+03</pdfrwt>
<pdfrwt beam="2">  1       -3 0.32671130E-01 0.11695378E+03</pdfrwt>
<totfact> 0.13708794E+04</totfact>
</mgrwt>
</event>
<event>
 4    1  0.7692565E-003  0.7267169E+02  0.7818608E-02  0.1351236E+00
         -3   -1    0    0  501    0 -0.00000000000E+00  0.00000000000E+00  0.59556958282E+00  0.60407294922E+00  0.10100000000E+00 0. -1.
          3   -1    0    0    0  501  0.00000000000E+00 -0.00000000000E+00 -0.22011365072E+04  0.22011365095E+04  0.10100000000E+00 0. -1.
          2    1    1    2    0  502 -0.31535453580E+02  0.14157215555E+02 -0.76102154005E+03  0.76180620633E+03  0.25500000000E-02 0.  1.
         -2    1    1    2  502    0  0.31535453580E+02 -0.14157215555E+02 -0.14395193976E+04  0.14399343761E+04  0.25500000000E-02 0.  1.
<mgrwt>
<rscale>  0 0.72671689E+02</rscale>
<asrwt>0</asrwt>
<pdfrwt beam="2">  1        3 0.33863057E+00 0.72671689E+02</pdfrwt>
<pdfrwt beam="1">  1       -3 0.92282135E-04 0.72671689E+02</pdfrwt>
<totfact> 0.53608530E+03</totfact>
</mgrwt>
</event>
<event>
 4    1  0.7692565E-003  0.4257436E+02  0.7818608E-02  0.1490079E+00
          3   -1    0    0    0  501  0.00000000000E+00  0.00000000000E+00  0.60144086207E+02  0.60144171012E+02  0.10100000000E+00 0. -1.
         -3   -1    0    0  501    0 -0.00000000000E+00 -0.00000000000E+00 -0.75338770390E+01  0.75345540172E+01  0.10100000000E+00 0. -1.
          2    1    1    2    0  502  0.19995827001E+02 -0.46189166295E+01  0.35294264390E+02  0.40827106114E+02  0.25500000000E-02 0.  1.
         -2    1    1    2  502    0 -0.19995827001E+02  0.46189166295E+01  0.17315944778E+02  0.26851618915E+02  0.25500000000E-02 0.  1.
<mgrwt>
<rscale>  0 0.42574355E+02</rscale>
<asrwt>0</asrwt>
<pdfrwt beam="1">  1        3 0.92529949E-02 0.42574355E+02</pdfrwt>
<pdfrwt beam="2">  1       -3 0.11591166E-02 0.42574355E+02</pdfrwt>
<totfact> 0.26937652E+05</totfact>
</mgrwt>
</event>
<event>
 4    1  0.7692565E-003  0.4466710E+02  0.7818608E-02  0.1476431E+00
          3   -1    0    0    0  501  0.00000000000E+00  0.00000000000E+00  0.16335892177E+02  0.16336204401E+02  0.10100000000E+00 0. -1.
         -3   -1    0    0  501    0 -0.00000000000E+00 -0.00000000000E+00 -0.30532537476E+02  0.30532704527E+02  0.10100000000E+00 0. -1.
          2    1    1    2    0  502 -0.14596091435E+02 -0.14472406472E+02 -0.16263351179E+02  0.26210551928E+02  0.25500000000E-02 0.  1.
         -2    1    1    2  502    0  0.14596091435E+02  0.14472406472E+02  0.20667058803E+01  0.20658357001E+02  0.25500000000E-02 0.  1.
<mgrwt>
<rscale>  0 0.44667101E+02</rscale>
<asrwt>0</asrwt>
<pdfrwt beam="1">  1        3 0.25132511E-02 0.44667101E+02</pdfrwt>
<pdfrwt beam="2">  1       -3 0.46973503E-02 0.44667101E+02</pdfrwt>
<totfact> 0.25293216E+05</totfact>
</mgrwt>
</event>
<event>
 4    1  0.7692565E-003  0.9589719E+02  0.7818608E-02  0.1289168E+00
          3   -1    0    0    0  501  0.00000000000E+00  0.00000000000E+00  0.34517994398E+02  0.34518142161E+02  0.10100000000E+00 0. -1.
         -3   -1    0    0  501    0 -0.00000000000E+00 -0.00000000000E+00 -0.66604574572E+02  0.66604651151E+02  0.10100000000E+00 0. -1.
          2    1    1    2    0  502 -0.38578766876E+02 -0.22378606054E+02 -0.34607868253E+02  0.56451995661E+02  0.25500000000E-02 0.  1.
         -2    1    1    2  502    0  0.38578766876E+02  0.22378606054E+02  0.25212880781E+01  0.44670797650E+02  0.25500000000E-02 0.  1.
<mgrwt>
<rscale>  0 0.95897188E+02</rscale>
<asrwt>0</asrwt>
<pdfrwt beam="1">  1        3 0.53104779E-02 0.95897188E+02</pdfrwt>
<pdfrwt beam="2">  1       -3 0.10246875E-01 0.95897188E+02</pdfrwt>
<totfact> 0.30131228E+04</totfact>
</mgrwt>
</event>
<event>
 4    1  0.7692565E-003  0.4813741E+02  0.7818608E-02  0.1455655E+00
          3   -1    0    0    0  501  0.00000000000E+00  0.00000000000E+00  0.21585666529E+03  0.21585668891E+03  0.10100000000E+00 0.  1.
         -3   -1    0    0  501    0 -0.00000000000E+00 -0.00000000000E+00 -0.26827626167E+01  0.26846631554E+01  0.10100000000E+00 0.  1.
          2    1    1    2    0  502 -0.18445633531E+02  0.12537849971E+02  0.65510233387E+02  0.69202816151E+02  0.25500000000E-02 0.  1.
         -2    1    1    2  502    0  0.18445633531E+02 -0.12537849971E+02  0.14766366928E+03  0.14933853592E+03  0.25500000000E-02 0.  1.
<mgrwt>
<rscale>  0 0.48137405E+02</rscale>
<asrwt>0</asrwt>
<pdfrwt beam="1">  1        3 0.33208864E-01 0.48137405E+02</pdfrwt>
<pdfrwt beam="2">  1       -3 0.41288075E-03 0.48137405E+02</pdfrwt>
<totfact> 0.14389707E+05</totfact>
</mgrwt>
</event>
<event>
 4    1  0.7692565E-003  0.5865659E+02  0.7818608E-02  0.1403557E+00
         -3   -1    0    0  501    0 -0.00000000000E+00  0.00000000000E+00  0.80496386548E+02  0.80496449911E+02  0.10100000000E+00 0. -1.
          3   -1    0    0    0  501  0.00000000000E+00 -0.00000000000E+00 -0.10685251423E+02  0.10685728752E+02  0.10100000000E+00 0. -1.
          2    1    1    2    0  502 -0.20636592152E+01 -0.25088541145E+02  0.58298481159E+02  0.63501232256E+02  0.25500000000E-02 0.  1.
         -2    1    1    2  502    0  0.20636592152E+01  0.25088541145E+02  0.11512653966E+02  0.27680946407E+02  0.25500000000E-02 0.  1.
<mgrwt>
<rscale>  0 0.58656586E+02</rscale>
<asrwt>0</asrwt>
<pdfrwt beam="2">  1        3 0.16439264E-02 0.58656586E+02</pdfrwt>
<pdfrwt beam="1">  1       -3 0.12384101E-01 0.58656586E+02</pdfrwt>
<totfact> 0.11359557E+05</totfact>
</mgrwt>
</event>
<event>
 4    1  0.7692565E-003  0.1405960E+03  0.7818608E-02  0.1212529E+00
          3   -1    0    0    0  501  0.00000000000E+00  0.00000000000E+00  0.28815156638E+03  0.28815158408E+03  0.10100000000E+00 0. -1.
         -3   -1    0    0  501    0 -0.00000000000E+00 -0.00000000000E+00 -0.17149854230E+02  0.17150151635E+02  0.10100000000E+00 0. -1.
          2    1    1    2    0  502 -0.56602087972E+01 -0.66032671838E+02  0.18640135302E+03  0.19783279841E+03  0.25500000000E-02 0. -1.
         -2    1    1    2  502    0  0.56602087972E+01  0.66032671838E+02  0.84600359132E+02  0.10746893730E+03  0.25500000000E-02 0. -1.
<mgrwt>
<rscale>  0 0.14059595E+03</rscale>
<asrwt>0</asrwt>
<pdfrwt beam="1">  1        3 0.44331035E-01 0.14059595E+03</pdfrwt>
<pdfrwt beam="2">  1       -3 0.26384633E-02 0.14059595E+03</pdfrwt>
<totfact> 0.72277986E+03</totfact>
</mgrwt>
</event>
<event>
 4    1  0.7692565E-003  0.5625811E+02  0.7818608E-02  0.1414241E+00
         -3   -1    0    0  501    0 -0.00000000000E+00  0.00000000000E+00  0.29677913577E+03  0.29677915296E+03  0.10100000000E+00 0. -1.
          3   -1    0    0    0  501  0.00000000000E+00 -0.00000000000E+00 -0.26651287229E+01  0.26670418275E+01  0.10100000000E+00 0. -1.
          2    1    1    2    0  502 -0.18281717373E+02  0.18605054805E+02  0.91010408629E+02  0.94674514731E+02  0.25500000000E-02 0.  1.
         -2    1    1    2  502    0  0.18281717373E+02 -0.18605054805E+02  0.20310359842E+03  0.20477168006E+03  0.25500000000E-02 0.  1.
<mgrwt>
<rscale>  0 0.56258105E+02</rscale>
<asrwt>0</asrwt>
<pdfrwt beam="2">  1        3 0.41016853E-03 0.56258105E+02</pdfrwt>
<pdfrwt beam="1">  1       -3 0.45658450E-01 0.56258105E+02</pdfrwt>
<totfact> 0.84562367E+04</totfact>
</mgrwt>
</event>
<event>
 4    1  0.7692565E-003  0.5203541E+02  0.7818608E-02  0.1434662E+00
         -3   -1    0    0  501    0 -0.00000000000E+00  0.00000000000E+00  0.33735678408E+00  0.35215138756E+00  0.10100000000E+00 0. -1.
          3   -1    0    0    0  501  0.00000000000E+00 -0.00000000000E+00 -0.19634746365E+04  0.19634746391E+04  0.10100000000E+00 0. -1.
          2    1    1    2    0  502  0.24678650671E+02  0.14265971050E+01 -0.67531437611E+03  0.67576665911E+03  0.25500000000E-02 0. -1.
         -2    1    1    2  502    0 -0.24678650671E+02 -0.14265971050E+01 -0.12878229037E+04  0.12880601314E+04  0.25500000000E-02 0. -1.
<mgrwt>
<rscale>  0 0.52035411E+02</rscale>
<asrwt>0</asrwt>
<pdfrwt beam="2">  1        3 0.30206520E+00 0.52035411E+02</pdfrwt>
<pdfrwt beam="1">  1       -3 0.53040862E-04 0.52035411E+02</pdfrwt>
<totfact> 0.16425267E+04</totfact>
</mgrwt>
</event>
<event>
 4    1  0.7692565E-003  0.4328197E+02  0.7818608E-02  0.1485361E+00
         -3   -1    0    0  501    0 -0.00000000000E+00  0.00000000000E+00  0.80466145015E+01  0.80472483456E+01  0.10100000000E+00 0.  1.
          3   -1    0    0    0  501  0.00000000000E+00 -0.00000000000E+00 -0.58199429373E+02  0.58199517011E+02  0.10100000000E+00 0.  1.
          2    1    1    2    0  502 -0.20917856143E+02 -0.55130363732E+01 -0.26022388639E+02  0.33839547760E+02  0.25500000000E-02 0.  1.
         -2    1    1    2  502    0  0.20917856143E+02  0.55130363732E+01 -0.24130426233E+02  0.32407217597E+02  0.25500000000E-02 0.  1.
<mgrwt>
<rscale>  0 0.43281972E+02</rscale>
<asrwt>0</asrwt>
<pdfrwt beam="2">  1        3 0.89538136E-02 0.43281972E+02</pdfrwt>
<pdfrwt beam="1">  1       -3 0.12379962E-02 0.43281972E+02</pdfrwt>
<totfact> 0.25962486E+05</totfact>
</mgrwt>
</event>
<event>
 4    1  0.7692565E-003  0.5019901E+02  0.7818608E-02  0.1444271E+00
         -3   -1    0    0  501    0 -0.00000000000E+00  0.00000000000E+00  0.14038791850E+04  0.14038791886E+04  0.10100000000E+00 0. -1.
          3   -1    0    0    0  501  0.00000000000E+00 -0.00000000000E+00 -0.44305930908E+00  0.45442551795E+00  0.10100000000E+00 0. -1.
          2    1    1    2    0  502 -0.95812329314E+01  0.19669934528E+02  0.35763423580E+03  0.35830287882E+03  0.25500000000E-02 0.  1.
         -2    1    1    2  502    0  0.95812329314E+01 -0.19669934528E+02  0.10458018899E+04  0.10460307353E+04  0.25500000000E-02 0.  1.
<mgrwt>
<rscale>  0 0.50199013E+02</rscale>
<asrwt>0</asrwt>
<pdfrwt beam="2">  1        3 0.69039687E-04 0.50199013E+02</pdfrwt>
<pdfrwt beam="1">  1       -3 0.21597568E+00 0.50199013E+02</pdfrwt>
<totfact> 0.31013208E+04</totfact>
</mgrwt>
</event>
<event>
 4    1  0.7692565E-003  0.5587804E+02  0.7818608E-02  0.1415992E+00
         -3   -1    0    0  501    0 -0.00000000000E+00  0.00000000000E+00  0.18063486426E+03  0.18063489250E+03  0.10100000000E+00 0. -1.
          3   -1    0    0    0  501  0.00000000000E+00 -0.00000000000E+00 -0.43207440160E+01  0.43219243227E+01  0.10100000000E+00 0. -1.
          2    1    1    2    0  502  0.12699596307E+02 -0.15558632296E+02  0.23868025796E+02  0.31193484050E+02  0.25500000000E-02 0. -1.
         -2    1    1    2  502    0 -0.12699596307E+02  0.15558632296E+02  0.15244609445E+03  0.15376333277E+03  0.25500000000E-02 0. -1.
<mgrwt>
<rscale>  0 0.55878038E+02</rscale>
<asrwt>0</asrwt>
<pdfrwt beam="2">  1        3 0.66482284E-03 0.55878038E+02</pdfrwt>
<pdfrwt beam="1">  1       -3 0.27790071E-01 0.55878038E+02</pdfrwt>
<totfact> 0.10552441E+05</totfact>
</mgrwt>
</event>
<event>
 4    1  0.7692565E-003  0.4233703E+02  0.7818608E-02  0.1491685E+00
         -3   -1    0    0  501    0 -0.00000000000E+00  0.00000000000E+00  0.11343941550E+02  0.11344391165E+02  0.10100000000E+00 0.  1.
          3   -1    0    0    0  501  0.00000000000E+00 -0.00000000000E+00 -0.39500490096E+02  0.39500619221E+02  0.10100000000E+00 0.  1.
          2    1    1    2    0  502 -0.21094040437E+02 -0.16135158928E+01 -0.13192505913E+02  0.24931991382E+02  0.25500000000E-02 0.  1.
         -2    1    1    2  502    0  0.21094040437E+02  0.16135158928E+01 -0.14964042633E+02  0.25913019004E+02  0.25500000000E-02 0.  1.
<mgrwt>
<rscale>  0 0.42337027E+02</rscale>
<asrwt>0</asrwt>
<pdfrwt beam="2">  1        3 0.60770429E-02 0.42337027E+02</pdfrwt>
<pdfrwt beam="1">  1       -3 0.17452663E-02 0.42337027E+02</pdfrwt>
<totfact> 0.28564378E+05</totfact>
</mgrwt>
</event>
<event>
 4    1  0.7692565E-003  0.6581225E+02  0.7818608E-02  0.1374942E+00
         -3   -1    0    0  501    0 -0.00000000000E+00  0.00000000000E+00  0.25431882475E+02  0.25432083030E+02  0.10100000000E+00 0.  1.
          3   -1    0    0    0  501  0.00000000000E+00 -0.00000000000E+00 -0.42576564403E+02  0.42576684199E+02  0.10100000000E+00 0.  1.
          2    1    1    2    0  502 -0.24478108983E+02  0.87468079422E+01  0.12278518797E+02  0.28747982519E+02  0.25500000000E-02 0. -1.
         -2    1    1    2  502    0  0.24478108983E+02 -0.87468079422E+01 -0.29423200725E+02  0.39260784709E+02  0.25500000000E-02 0. -1.
<mgrwt>
<rscale>  0 0.65812250E+02</rscale>
<asrwt>0</asrwt>
<pdfrwt beam="2">  1        3 0.65502653E-02 0.65812250E+02</pdfrwt>
<pdfrwt beam="1">  1       -3 0.39126219E-02 0.65812250E+02</pdfrwt>
<totfact> 0.89034030E+04</totfact>
</mgrwt>
</event>
<event>
 4    1  0.7692565E-003  0.4491002E+02  0.7818608E-02  0.1474904E+00
          3   -1    0    0    0  501  0.00000000000E+00  0.00000000000E+00  0.58735332819E+01  0.58744016048E+01  0.10100000000E+00 0.  1.
         -3   -1    0    0  501    0 -0.00000000000E+00 -0.00000000000E+00 -0.85840127625E+02  0.85840187044E+02  0.10100000000E+00 0.  1.
          2    1    1    2    0  502 -0.24890007299E+00  0.20916948205E+02 -0.23311417460E+02  0.31320965246E+02  0.25500000000E-02 0. -1.
         -2    1    1    2  502    0  0.24890007299E+00 -0.20916948205E+02 -0.56655176884E+02  0.60393623403E+02  0.25500000000E-02 0. -1.
<mgrwt>
<rscale>  0 0.44910016E+02</rscale>
<asrwt>0</asrwt>
<pdfrwt beam="1">  1        3 0.90369193E-03 0.44910016E+02</pdfrwt>
<pdfrwt beam="2">  1       -3 0.13206244E-01 0.44910016E+02</pdfrwt>
<totfact> 0.22245860E+05</totfact>
</mgrwt>
</event>
<event>
 4    1  0.7692565E-003  0.6395262E+02  0.7818608E-02  0.1381955E+00
          3   -1    0    0    0  501  0.00000000000E+00  0.00000000000E+00  0.43574607398E+02  0.43574724450E+02  0.10100000000E+00 0. -1.
         -3   -1    0    0  501    0 -0.00000000000E+00 -0.00000000000E+00 -0.23464886153E+02  0.23465103519E+02  0.10100000000E+00 0. -1.
          2    1    1    2    0  502  0.31414666712E+02 -0.48137600739E+01  0.13750798692E+02  0.34628572622E+02  0.25500000000E-02 0.  1.
         -2    1    1    2  502    0 -0.31414666712E+02  0.48137600739E+01  0.63589225527E+01  0.32411255347E+02  0.25500000000E-02 0.  1.
<mgrwt>
<rscale>  0 0.63952620E+02</rscale>
<asrwt>0</asrwt>
<pdfrwt beam="1">  1        3 0.67038114E-02 0.63952620E+02</pdfrwt>
<pdfrwt beam="2">  1       -3 0.36100083E-02 0.63952620E+02</pdfrwt>
<totfact> 0.96195113E+04</totfact>
</mgrwt>
</event>
<event>
 4    1  0.7692565E-003  0.4369320E+02  0.7818608E-02  0.1482669E+00
         -3   -1    0    0  501    0 -0.00000000000E+00  0.00000000000E+00  0.39589185773E+02  0.39589314608E+02  0.10100000000E+00 0.  1.
          3   -1    0    0    0  501  0.00000000000E+00 -0.00000000000E+00 -0.12055306460E+02  0.12055729544E+02  0.10100000000E+00 0.  1.
          2    1    1    2    0  502 -0.21715337050E+02  0.17806489441E-01  0.16593319060E+02  0.27329369261E+02  0.25500000000E-02 0. -1.
         -2    1    1    2  502    0  0.21715337050E+02 -0.17806489441E-01  0.10940560253E+02  0.24315674891E+02  0.25500000000E-02 0. -1.
<mgrwt>
<rscale>  0 0.43693204E+02</rscale>
<asrwt>0</asrwt>
<pdfrwt beam="2">  1        3 0.18547050E-02 0.43693204E+02</pdfrwt>
<pdfrwt beam="1">  1       -3 0.60906865E-02 0.43693204E+02</pdfrwt>
<totfact> 0.26368787E+05</totfact>
</mgrwt>
</event>
<event>
 4    1  0.7692565E-003  0.4542563E+02  0.7818608E-02  0.1471702E+00
         -3   -1    0    0  501    0 -0.00000000000E+00  0.00000000000E+00  0.26467842884E+02  0.26468035589E+02  0.10100000000E+00 0. -1.
          3   -1    0    0    0  501  0.00000000000E+00 -0.00000000000E+00 -0.19490119784E+02  0.19490381479E+02  0.10100000000E+00 0. -1.
          2    1    1    2    0  502 -0.11861297833E+02  0.18378846501E+02 -0.26983777850E+01  0.22039819286E+02  0.25500000000E-02 0.  1.
         -2    1    1    2  502    0  0.11861297833E+02 -0.18378846501E+02  0.96761008854E+01  0.23918597782E+02  0.25500000000E-02 0.  1.
<mgrwt>
<rscale>  0 0.45425626E+02</rscale>
<asrwt>0</asrwt>
<pdfrwt beam="2">  1        3 0.29985149E-02 0.45425626E+02</pdfrwt>
<pdfrwt beam="1">  1       -3 0.40720108E-02 0.45425626E+02</pdfrwt>
<totfact> 0.24315533E+05</totfact>
</mgrwt>
</event>
<event>
 4    1  0.7692565E-003  0.4285316E+02  0.7818608E-02  0.1488207E+00
          3   -1    0    0    0  501  0.00000000000E+00  0.00000000000E+00  0.27690793183E+01  0.27709206541E+01  0.10100000000E+00 0.  1.
         -3   -1    0    0  501    0 -0.00000000000E+00 -0.00000000000E+00 -0.16573759704E+03  0.16573762781E+03  0.10100000000E+00 0.  1.
          2    1    1    2    0  502 -0.21104596340E+02 -0.36974028887E+01 -0.80881416377E+02  0.83671251314E+02  0.25500000000E-02 0.  1.
         -2    1    1    2  502    0  0.21104596340E+02  0.36974028887E+01 -0.82087101344E+02  0.84837297154E+02  0.25500000000E-02 0.  1.
<mgrwt>
<rscale>  0 0.42853158E+02</rscale>
<asrwt>0</asrwt>
<pdfrwt beam="1">  1        3 0.42615634E-03 0.42853158E+02</pdfrwt>
<pdfrwt beam="2">  1       -3 0.25498228E-01 0.42853158E+02</pdfrwt>
<totfact> 0.21104407E+05</totfact>
</mgrwt>
</event>
<event>
 4    1  0.7692565E-003  0.8872340E+02  0.7818608E-02  0.1305973E+00
          3   -1    0    0    0  501  0.00000000000E+00  0.00000000000E+00  0.11989490100E+02  0.11989915506E+02  0.10100000000E+00 0. -1.
         -3   -1    0    0  501    0 -0.00000000000E+00 -0.00000000000E+00 -0.16413709545E+03  0.16413712652E+03  0.10100000000E+00 0. -1.
          2    1    1    2    0  502  0.57250812899E+01 -0.28499158446E+02 -0.95504363220E+01  0.30597212754E+02  0.25500000000E-02 0.  1.
         -2    1    1    2  502    0 -0.57250812899E+01  0.28499158446E+02 -0.14259716902E+03  0.14552982927E+03  0.25500000000E-02 0.  1.
<mgrwt>
<rscale>  0 0.88723397E+02</rscale>
<asrwt>0</asrwt>
<pdfrwt beam="1">  1        3 0.18445722E-02 0.88723397E+02</pdfrwt>
<pdfrwt beam="2">  1       -3 0.25251894E-01 0.88723397E+02</pdfrwt>
<totfact> 0.32051961E+04</totfact>
</mgrwt>
</event>
<event>
 4    1  0.7692565E-003  0.5369875E+02  0.7818608E-02  0.1426355E+00
         -3   -1    0    0  501    0 -0.00000000000E+00  0.00000000000E+00  0.15007790744E+03  0.15007794142E+03  0.10100000000E+00 0.  1.
          3   -1    0    0    0  501  0.00000000000E+00 -0.00000000000E+00 -0.48028668053E+01  0.48039286578E+01  0.10100000000E+00 0.  1.
          2    1    1    2    0  502  0.54441850869E+01  0.25021732242E+02  0.95920379191E+02  0.99279632283E+02  0.25500000000E-02 0. -1.
         -2    1    1    2  502    0 -0.54441850869E+01 -0.25021732242E+02  0.49354661442E+02  0.55602237798E+02  0.25500000000E-02 0. -1.
<mgrwt>
<rscale>  0 0.53698755E+02</rscale>
<asrwt>0</asrwt>
<pdfrwt beam="2">  1        3 0.73898690E-03 0.53698755E+02</pdfrwt>
<pdfrwt beam="1">  1       -3 0.23088993E-01 0.53698755E+02</pdfrwt>
<totfact> 0.12387987E+05</totfact>
</mgrwt>
</event>
<event>
 4    1  0.7692565E-003  0.5726044E+02  0.7818608E-02  0.1409702E+00
         -3   -1    0    0  501    0 -0.00000000000E+00  0.00000000000E+00  0.28176582143E+03  0.28176583954E+03  0.10100000000E+00 0.  1.
          3   -1    0    0    0  501  0.00000000000E+00 -0.00000000000E+00 -0.29082213787E+01  0.29099746713E+01  0.10100000000E+00 0.  1.
          2    1    1    2    0  502 -0.28018417138E+02 -0.51931659361E+01  0.12564317699E+03  0.12883403510E+03  0.25500000000E-02 0.  1.
         -2    1    1    2  502    0  0.28018417138E+02  0.51931659361E+01  0.15321442307E+03  0.15584177910E+03  0.25500000000E-02 0.  1.
<mgrwt>
<rscale>  0 0.57260441E+02</rscale>
<asrwt>0</asrwt>
<pdfrwt beam="2">  1        3 0.44755466E-03 0.57260441E+02</pdfrwt>
<pdfrwt beam="1">  1       -3 0.43348750E-01 0.57260441E+02</pdfrwt>
<totfact> 0.82892228E+04</totfact>
</mgrwt>
</event>
<event>
 4    1  0.7692565E-003  0.4779741E+02  0.7818608E-02  0.1457597E+00
          3   -1    0    0    0  501  0.00000000000E+00  0.00000000000E+00  0.46615912307E+02  0.46616021723E+02  0.10100000000E+00 0. -1.
         -3   -1    0    0  501    0 -0.00000000000E+00 -0.00000000000E+00 -0.12251881695E+02  0.12252297992E+02  0.10100000000E+00 0. -1.
          2    1    1    2    0  502 -0.93591606183E+01 -0.21988202490E+02  0.17515177011E+02  0.29628641016E+02  0.25500000000E-02 0. -1.
         -2    1    1    2  502    0  0.93591606183E+01  0.21988202490E+02  0.16848853601E+02  0.29239678699E+02  0.25500000000E-02 0. -1.
<mgrwt>
<rscale>  0 0.47797411E+02</rscale>
<asrwt>0</asrwt>
<pdfrwt beam="1">  1        3 0.71717191E-02 0.47797411E+02</pdfrwt>
<pdfrwt beam="2">  1       -3 0.18849454E-02 0.47797411E+02</pdfrwt>
<totfact> 0.20677282E+05</totfact>
</mgrwt>
</event>
<event>
 4    1  0.7692565E-003  0.9935915E+02  0.7818608E-02  0.1281649E+00
          3   -1    0    0    0  501  0.00000000000E+00  0.00000000000E+00  0.64166759285E+01  0.64174707613E+01  0.10100000000E+00 0.  1.
         -3   -1    0    0  501    0 -0.00000000000E+00 -0.00000000000E+00 -0.38460760636E+03  0.38460761962E+03  0.10100000000E+00 0.  1.
          2    1    1    2    0  502  0.12009993580E+02 -0.41521374957E+02 -0.92712904091E+02  0.10229343633E+03  0.25500000000E-02 0. -1.
         -2    1    1    2  502    0 -0.12009993580E+02  0.41521374957E+02 -0.28547802634E+03  0.28873165406E+03  0.25500000000E-02 0. -1.
<mgrwt>
<rscale>  0 0.99359154E+02</rscale>
<asrwt>0</asrwt>
<pdfrwt beam="1">  1        3 0.98724338E-03 0.99359154E+02</pdfrwt>
<pdfrwt beam="2">  1       -3 0.59170445E-01 0.99359154E+02</pdfrwt>
<totfact> 0.16564742E+04</totfact>
</mgrwt>
</event>
<event>
 4    1  0.7692565E-003  0.8853594E+02  0.7818608E-02  0.1306436E+00
         -3   -1    0    0  501    0 -0.00000000000E+00  0.00000000000E+00  0.43562856573E+01  0.43574563369E+01  0.10100000000E+00 0. -1.
          3   -1    0    0    0  501  0.00000000000E+00 -0.00000000000E+00 -0.44978335359E+03  0.44978336493E+03  0.10100000000E+00 0. -1.
          2    1    1    2    0  502  0.31960149821E+02  0.22839920871E+02 -0.11802495695E+03  0.12439052870E+03  0.25500000000E-02 0. -1.
         -2    1    1    2  502    0 -0.31960149821E+02 -0.22839920871E+02 -0.32740211099E+03  0.32975029257E+03  0.25500000000E-02 0. -1.
<mgrwt>
<rscale>  0 0.88535940E+02</rscale>
<asrwt>0</asrwt>
<pdfrwt beam="2">  1        3 0.69197493E-01 0.88535940E+02</pdfrwt>
<pdfrwt beam="1">  1       -3 0.67028907E-03 0.88535940E+02</pdfrwt>
<totfact> 0.20631277E+04</totfact>
</mgrwt>
</event>
<event>
 4    1  0.7692565E-003  0.6977104E+02  0.7818608E-02  0.1360873E+00
         -3   -1    0    0  501    0 -0.00000000000E+00  0.00000000000E+00  0.11044166315E+03  0.11044170933E+03  0.10100000000E+00 0. -1.
          3   -1    0    0    0  501  0.00000000000E+00 -0.00000000000E+00 -0.11019108308E+02  0.11019571176E+02  0.10100000000E+00 0. -1.
          2    1    1    2    0  502 -0.61638520372E+01  0.34234696111E+02  0.45108018249E+02  0.56962626401E+02  0.25500000000E-02 0.  1.
         -2    1    1    2  502    0  0.61638520372E+01 -0.34234696111E+02  0.54314536589E+02  0.64498654103E+02  0.25500000000E-02 0.  1.
<mgrwt>
<rscale>  0 0.69771042E+02</rscale>
<asrwt>0</asrwt>
<pdfrwt beam="2">  1        3 0.16952866E-02 0.69771042E+02</pdfrwt>
<pdfrwt beam="1">  1       -3 0.16991064E-01 0.69771042E+02</pdfrwt>
<totfact> 0.67694041E+04</totfact>
</mgrwt>
</event>
<event>
 4    1  0.7692565E-003  0.6658474E+02  0.7818608E-02  0.1372108E+00
          3   -1    0    0    0  501  0.00000000000E+00  0.00000000000E+00  0.21501944841E+02  0.21502182051E+02  0.10100000000E+00 0.  1.
         -3   -1    0    0  501    0 -0.00000000000E+00 -0.00000000000E+00 -0.51547412694E+02  0.51547511642E+02  0.10100000000E+00 0.  1.
          2    1    1    2    0  502 -0.24431090811E+02  0.25617173119E+01 -0.39675413922E+02  0.46664537609E+02  0.25500000000E-02 0.  1.
         -2    1    1    2  502    0  0.24431090811E+02 -0.25617173119E+01  0.96299460694E+01  0.26385156085E+02  0.25500000000E-02 0.  1.
<mgrwt>
<rscale>  0 0.66584740E+02</rscale>
<asrwt>0</asrwt>
<pdfrwt beam="1">  1        3 0.33080174E-02 0.66584740E+02</pdfrwt>
<pdfrwt beam="2">  1       -3 0.79303970E-02 0.66584740E+02</pdfrwt>
<totfact> 0.85311778E+04</totfact>
</mgrwt>
</event>
<event>
 4    1  0.7692565E-003  0.4910850E+02  0.7818608E-02  0.1450210E+00
         -3   -1    0    0  501    0 -0.00000000000E+00  0.00000000000E+00  0.29546247249E+02  0.29546419876E+02  0.10100000000E+00 0.  1.
          3   -1    0    0    0  501  0.00000000000E+00 -0.00000000000E+00 -0.20405320710E+02  0.20405570667E+02  0.10100000000E+00 0.  1.
          2    1    1    2    0  502  0.14246275181E+02 -0.14272951534E+02  0.18819560330E+02  0.27583497957E+02  0.25500000000E-02 0.  1.
         -2    1    1    2  502    0 -0.14246275181E+02  0.14272951534E+02 -0.96786337909E+01  0.22368492586E+02  0.25500000000E-02 0.  1.
<mgrwt>
<rscale>  0 0.49108500E+02</rscale>
<asrwt>0</asrwt>
<pdfrwt beam="2">  1        3 0.31393126E-02 0.49108500E+02</pdfrwt>
<pdfrwt beam="1">  1       -3 0.45456090E-02 0.49108500E+02</pdfrwt>
<totfact> 0.19783661E+05</totfact>
</mgrwt>
</event>
<event>
 4    1  0.7692565E-003  0.7709945E+02  0.7818608E-02  0.1337490E+00
         -3   -1    0    0  501    0 -0.00000000000E+00  0.00000000000E+00  0.38702188905E+02  0.38702320693E+02  0.10100000000E+00 0.  1.
          3   -1    0    0    0  501  0.00000000000E+00 -0.00000000000E+00 -0.38397597842E+02  0.38397730675E+02  0.10100000000E+00 0.  1.
          2    1    1    2    0  502  0.35516432315E+02  0.68639864902E+01  0.13477188627E+02  0.38602666938E+02  0.25500000000E-02 0. -1.
         -2    1    1    2  502    0 -0.35516432315E+02 -0.68639864902E+01 -0.13172597564E+02  0.38497384431E+02  0.25500000000E-02 0. -1.
<mgrwt>
<rscale>  0 0.77099450E+02</rscale>
<asrwt>0</asrwt>
<pdfrwt beam="2">  1        3 0.59073432E-02 0.77099450E+02</pdfrwt>
<pdfrwt beam="1">  1       -3 0.59542032E-02 0.77099450E+02</pdfrwt>
<totfact> 0.57336699E+04</totfact>
</mgrwt>
</event>
<event>
 4    1  0.7692565E-003  0.1679458E+03  0.7818608E-02  0.1180007E+00
         -3   -1    0    0  501    0 -0.00000000000E+00  0.00000000000E+00  0.57084715079E+02  0.57084804428E+02  0.10100000000E+00 0. -1.
          3   -1    0    0    0  501  0.00000000000E+00 -0.00000000000E+00 -0.12352578930E+03  0.12352583059E+03  0.10100000000E+00 0. -1.
          2    1    1    2    0  502  0.76414906436E+02 -0.25602254792E+02 -0.58595047261E+02  0.99639816068E+02  0.25500000000E-02 0. -1.
         -2    1    1    2  502    0 -0.76414906436E+02  0.25602254792E+02 -0.78460269603E+01  0.80970818951E+02  0.25500000000E-02 0. -1.
<mgrwt>
<rscale>  0 0.16794578E+03</rscale>
<asrwt>0</asrwt>
<pdfrwt beam="2">  1        3 0.19003978E-01 0.16794578E+03</pdfrwt>
<pdfrwt beam="1">  1       -3 0.87822739E-02 0.16794578E+03</pdfrwt>
<totfact> 0.53213175E+03</totfact>
</mgrwt>
</event>
<event>
 4    1  0.7692565E-003  0.4444975E+02  0.7818608E-02  0.1477806E+00
          3   -1    0    0    0  501  0.00000000000E+00  0.00000000000E+00  0.40056891488E+01  0.40069622604E+01  0.10100000000E+00 0.  1.
         -3   -1    0    0  501    0 -0.00000000000E+00 -0.00000000000E+00 -0.12329001493E+03  0.12329005630E+03  0.10100000000E+00 0.  1.
          2    1    1    2    0  502 -0.17483705030E+02  0.13687532669E+02 -0.56900282905E+02  0.61079216542E+02  0.25500000000E-02 0. -1.
         -2    1    1    2  502    0  0.17483705030E+02 -0.13687532669E+02 -0.62384042879E+02  0.66217802021E+02  0.25500000000E-02 0. -1.
<mgrwt>
<rscale>  0 0.44449753E+02</rscale>
<asrwt>0</asrwt>
<pdfrwt beam="1">  1        3 0.61636108E-03 0.44449753E+02</pdfrwt>
<pdfrwt beam="2">  1       -3 0.18967793E-01 0.44449753E+02</pdfrwt>
<totfact> 0.21037963E+05</totfact>
</mgrwt>
</event>
<event>
 4    1  0.7692565E-003  0.4727538E+02  0.7818608E-02  0.1460617E+00
          3   -1    0    0    0  501  0.00000000000E+00  0.00000000000E+00  0.23114593353E+03  0.23114595559E+03  0.10100000000E+00 0. -1.
         -3   -1    0    0  501    0 -0.00000000000E+00 -0.00000000000E+00 -0.24161847537E+01  0.24182948051E+01  0.10100000000E+00 0. -1.
          2    1    1    2    0  502  0.21689648254E+02 -0.92700730682E+01  0.10676681707E+03  0.10934133861E+03  0.25500000000E-02 0. -1.
         -2    1    1    2  502    0 -0.21689648254E+02  0.92700730682E+01  0.12196293170E+03  0.12422291178E+03  0.25500000000E-02 0. -1.
<mgrwt>
<rscale>  0 0.47275375E+02</rscale>
<asrwt>0</asrwt>
<pdfrwt beam="1">  1        3 0.35561078E-01 0.47275375E+02</pdfrwt>
<pdfrwt beam="2">  1       -3 0.37188473E-03 0.47275375E+02</pdfrwt>
<totfact> 0.14639282E+05</totfact>
</mgrwt>
</event>
<event>
 4    1  0.7692565E-003  0.5847422E+02  0.7818608E-02  0.1404349E+00
         -3   -1    0    0  501    0 -0.00000000000E+00  0.00000000000E+00  0.18589703323E+03  0.18589706067E+03  0.10100000000E+00 0. -1.
          3   -1    0    0    0  501  0.00000000000E+00 -0.00000000000E+00 -0.45977078262E+01  0.45988170495E+01  0.10100000000E+00 0. -1.
          2    1    1    2    0  502 -0.13744779520E+02  0.19633486964E+02  0.14520312923E+03  0.14716773260E+03  0.25500000000E-02 0. -1.
         -2    1    1    2  502    0  0.13744779520E+02 -0.19633486964E+02  0.36096196173E+02  0.43328145114E+02  0.25500000000E-02 0. -1.
<mgrwt>
<rscale>  0 0.58474217E+02</rscale>
<asrwt>0</asrwt>
<pdfrwt beam="2">  1        3 0.70742730E-03 0.58474217E+02</pdfrwt>
<pdfrwt beam="1">  1       -3 0.28599623E-01 0.58474217E+02</pdfrwt>
<totfact> 0.93025711E+04</totfact>
</mgrwt>
</event>
<event>
 4    1  0.7692565E-003  0.5219386E+02  0.7818608E-02  0.1433855E+00
          3   -1    0    0    0  501  0.00000000000E+00  0.00000000000E+00  0.98829610524E+01  0.98834771292E+01  0.10100000000E+00 0.  1.
         -3   -1    0    0  501    0 -0.00000000000E+00 -0.00000000000E+00 -0.68909158534E+02  0.68909232552E+02  0.10100000000E+00 0.  1.
          2    1    1    2    0  502  0.19376708957E+02  0.17388666429E+02 -0.32225035792E+02  0.41427955639E+02  0.25500000000E-02 0. -1.
         -2    1    1    2  502    0 -0.19376708957E+02 -0.17388666429E+02 -0.26801161690E+02  0.37364754042E+02  0.25500000000E-02 0. -1.
<mgrwt>
<rscale>  0 0.52193861E+02</rscale>
<asrwt>0</asrwt>
<pdfrwt beam="1">  1        3 0.15205010E-02 0.52193861E+02</pdfrwt>
<pdfrwt beam="2">  1       -3 0.10601454E-01 0.52193861E+02</pdfrwt>
<totfact> 0.15758878E+05</totfact>
</mgrwt>
</event>
<event>
 4    1  0.7692565E-003  0.4037920E+02  0.7818608E-02  0.1505439E+00
         -3   -1    0    0  501    0 -0.00000000000E+00  0.00000000000E+00  0.10073484970E+02  0.10073991287E+02  0.10100000000E+00 0.  1.
          3   -1    0    0    0  501  0.00000000000E+00 -0.00000000000E+00 -0.40463045521E+02  0.40463171574E+02  0.10100000000E+00 0.  1.
          2    1    1    2    0  502  0.18631037760E+02 -0.77434402802E+01 -0.14272165939E+02  0.24713784868E+02  0.25500000000E-02 0. -1.
         -2    1    1    2  502    0 -0.18631037760E+02  0.77434402802E+01 -0.16117394612E+02  0.25823377993E+02  0.25500000000E-02 0. -1.
<mgrwt>
<rscale>  0 0.40379196E+02</rscale>
<asrwt>0</asrwt>
<pdfrwt beam="2">  1        3 0.62251325E-02 0.40379196E+02</pdfrwt>
<pdfrwt beam="1">  1       -3 0.15498156E-02 0.40379196E+02</pdfrwt>
<totfact> 0.32105787E+05</totfact>
</mgrwt>
</event>
<event>
 4    1  0.7692565E-003  0.4475707E+02  0.7818608E-02  0.1475864E+00
         -3   -1    0    0  501    0 -0.00000000000E+00  0.00000000000E+00  0.96349582352E+01  0.96354875950E+01  0.10100000000E+00 0.  1.
          3   -1    0    0    0  501  0.00000000000E+00 -0.00000000000E+00 -0.51975275107E+02  0.51975373240E+02  0.10100000000E+00 0.  1.
          2    1    1    2    0  502  0.62365992185E+01 -0.21344962121E+02 -0.24624299261E+02  0.33179190743E+02  0.25500000000E-02 0.  1.
         -2    1    1    2  502    0 -0.62365992185E+01  0.21344962121E+02 -0.17716017611E+02  0.28431670092E+02  0.25500000000E-02 0.  1.
<mgrwt>
<rscale>  0 0.44757075E+02</rscale>
<asrwt>0</asrwt>
<pdfrwt beam="2">  1        3 0.79962443E-02 0.44757075E+02</pdfrwt>
<pdfrwt beam="1">  1       -3 0.14823496E-02 0.44757075E+02</pdfrwt>
<totfact> 0.24185104E+05</totfact>
</mgrwt>
</event>
<event>
 4    1  0.7692565E-003  0.5198457E+02  0.7818608E-02  0.1434922E+00
         -3   -1    0    0  501    0 -0.00000000000E+00  0.00000000000E+00  0.92574988392E+02  0.92575043488E+02  0.10100000000E+00 0. -1.
          3   -1    0    0    0  501  0.00000000000E+00 -0.00000000000E+00 -0.72974473910E+01  0.72981463006E+01  0.10100000000E+00 0. -1.
          2    1    1    2    0  502  0.18302897279E+02  0.18257527883E+02  0.37460274152E+02  0.45514893379E+02  0.25500000000E-02 0. -1.
         -2    1    1    2  502    0 -0.18302897279E+02 -0.18257527883E+02  0.47817266848E+02  0.54358296410E+02  0.25500000000E-02 0. -1.
<mgrwt>
<rscale>  0 0.51984565E+02</rscale>
<asrwt>0</asrwt>
<pdfrwt beam="2">  1        3 0.11227422E-02 0.51984565E+02</pdfrwt>
<pdfrwt beam="1">  1       -3 0.14242364E-01 0.51984565E+02</pdfrwt>
<totfact> 0.15145338E+05</totfact>
</mgrwt>
</event>
<event>
 4    1  0.7692565E-003  0.4840126E+02  0.7818608E-02  0.1454160E+00
          3   -1    0    0    0  501  0.00000000000E+00  0.00000000000E+00  0.79379699311E+02  0.79379763565E+02  0.10100000000E+00 0.  1.
         -3   -1    0    0  501    0 -0.00000000000E+00 -0.00000000000E+00 -0.73776756160E+01  0.73783669260E+01  0.10100000000E+00 0.  1.
          2    1    1    2    0  502 -0.14984056069E+02  0.18550405589E+02  0.43398308974E+02  0.49518205865E+02  0.25500000000E-02 0.  1.
         -2    1    1    2  502    0  0.14984056069E+02 -0.18550405589E+02  0.28603714721E+02  0.37239924626E+02  0.25500000000E-02 0.  1.
<mgrwt>
<rscale>  0 0.48401258E+02</rscale>
<asrwt>0</asrwt>
<pdfrwt beam="1">  1        3 0.12212319E-01 0.48401258E+02</pdfrwt>
<pdfrwt beam="2">  1       -3 0.11350852E-02 0.48401258E+02</pdfrwt>
<totfact> 0.18684060E+05</totfact>
</mgrwt>
</event>
<event>
 4    1  0.7692565E-003  0.5126497E+02  0.7818608E-02  0.1438636E+00
          3   -1    0    0    0  501  0.00000000000E+00  0.00000000000E+00  0.69622080020E+03  0.69622080753E+03  0.10100000000E+00 0.  1.
         -3   -1    0    0  501    0 -0.00000000000E+00 -0.00000000000E+00 -0.94099115765E+00  0.94639598413E+00  0.10100000000E+00 0.  1.
          2    1    1    2    0  502  0.25050078474E+02  0.26187469666E+01  0.41237584901E+03  0.41314429092E+03  0.25500000000E-02 0.  1.
         -2    1    1    2  502    0 -0.25050078474E+02 -0.26187469666E+01  0.28290396004E+03  0.28402291259E+03  0.25500000000E-02 0.  1.
<mgrwt>
<rscale>  0 0.51264966E+02</rscale>
<asrwt>0</asrwt>
<pdfrwt beam="1">  1        3 0.10711131E+00 0.51264966E+02</pdfrwt>
<pdfrwt beam="2">  1       -3 0.14518419E-03 0.51264966E+02</pdfrwt>
<totfact> 0.61402977E+04</totfact>
</mgrwt>
</event>
<event>
 4    1  0.7692565E-003  0.6544079E+02  0.7818608E-02  0.1376321E+00
         -3   -1    0    0  501    0 -0.00000000000E+00  0.00000000000E+00  0.26562784772E+01  0.26581979513E+01  0.10100000000E+00 0. -1.
          3   -1    0    0    0  501  0.00000000000E+00 -0.00000000000E+00 -0.40290666600E+03  0.40290667866E+03  0.10100000000E+00 0. -1.
          2    1    1    2    0  502 -0.19812768813E+02 -0.21942465166E+02 -0.11322699304E+03  0.11702294453E+03  0.25500000000E-02 0.  1.
         -2    1    1    2  502    0  0.19812768813E+02  0.21942465166E+02 -0.28702339448E+03  0.28854193209E+03  0.25500000000E-02 0.  1.
<mgrwt>
<rscale>  0 0.65440786E+02</rscale>
<asrwt>0</asrwt>
<pdfrwt beam="2">  1        3 0.61985741E-01 0.65440786E+02</pdfrwt>
<pdfrwt beam="1">  1       -3 0.40880717E-03 0.65440786E+02</pdfrwt>
<totfact> 0.48767757E+04</totfact>
</mgrwt>
</event>
<event>
 4    1  0.7692565E-003  0.4886144E+02  0.7818608E-02  0.1451581E+00
          3   -1    0    0    0  501  0.00000000000E+00  0.00000000000E+00  0.91004440475E+02  0.91004496521E+02  0.10100000000E+00 0.  1.
         -3   -1    0    0  501    0 -0.00000000000E+00 -0.00000000000E+00 -0.65581346437E+01  0.65589123340E+01  0.10100000000E+00 0.  1.
          2    1    1    2    0  502 -0.22128794824E+02  0.52713772709E-01  0.62894311902E+02  0.66673689078E+02  0.25500000000E-02 0. -1.
         -2    1    1    2  502    0  0.22128794824E+02 -0.52713772709E-01  0.21551993929E+02  0.30889719778E+02  0.25500000000E-02 0. -1.
<mgrwt>
<rscale>  0 0.48861439E+02</rscale>
<asrwt>0</asrwt>
<pdfrwt beam="1">  1        3 0.14000748E-01 0.48861439E+02</pdfrwt>
<pdfrwt beam="2">  1       -3 0.10090079E-02 0.48861439E+02</pdfrwt>
<totfact> 0.17786653E+05</totfact>
</mgrwt>
</event>
<event>
 4    1  0.7692565E-003  0.5992402E+02  0.7818608E-02  0.1398151E+00
         -3   -1    0    0  501    0 -0.00000000000E+00  0.00000000000E+00  0.28523747280E+02  0.28523926095E+02  0.10100000000E+00 0.  1.
          3   -1    0    0    0  501  0.00000000000E+00 -0.00000000000E+00 -0.31472432813E+02  0.31472594875E+02  0.10100000000E+00 0.  1.
          2    1    1    2    0  502  0.18618572279E+02 -0.84331041495E+01  0.20460004463E+02  0.28920239771E+02  0.25500000000E-02 0.  1.
         -2    1    1    2  502    0 -0.18618572279E+02  0.84331041495E+01 -0.23408689997E+02  0.31076281199E+02  0.25500000000E-02 0.  1.
<mgrwt>
<rscale>  0 0.59924017E+02</rscale>
<asrwt>0</asrwt>
<pdfrwt beam="2">  1        3 0.48419390E-02 0.59924017E+02</pdfrwt>
<pdfrwt beam="1">  1       -3 0.43882950E-02 0.59924017E+02</pdfrwt>
<totfact> 0.11591933E+05</totfact>
</mgrwt>
</event>
<event>
 4    1  0.7692565E-003  0.4812483E+02  0.7818608E-02  0.1455726E+00
          3   -1    0    0    0  501  0.00000000000E+00  0.00000000000E+00  0.79144140111E+01  0.79150584419E+01  0.10100000000E+00 0. -1.
         -3   -1    0    0  501    0 -0.00000000000E+00 -0.00000000000E+00 -0.73153963930E+02  0.73154033653E+02  0.10100000000E+00 0. -1.
          2    1    1    2    0  502  0.17933076905E+02  0.15490796708E+02 -0.39654631641E+02  0.46195777372E+02  0.25500000000E-02 0.  1.
         -2    1    1    2  502    0 -0.17933076905E+02 -0.15490796708E+02 -0.25584918278E+02  0.34873314723E+02  0.25500000000E-02 0.  1.
<mgrwt>
<rscale>  0 0.48124825E+02</rscale>
<asrwt>0</asrwt>
<pdfrwt beam="1">  1        3 0.12176571E-02 0.48124825E+02</pdfrwt>
<pdfrwt beam="2">  1       -3 0.11254511E-01 0.48124825E+02</pdfrwt>
<totfact> 0.19218567E+05</totfact>
</mgrwt>
</event>
<event>
 4    1  0.7692565E-003  0.1170229E+03  0.7818608E-02  0.1248091E+00
         -3   -1    0    0  501    0 -0.00000000000E+00  0.00000000000E+00  0.20458729871E+01  0.20483645377E+01  0.10100000000E+00 0. -1.
          3   -1    0    0    0  501  0.00000000000E+00 -0.00000000000E+00 -0.16723912208E+04  0.16723912239E+04  0.10100000000E+00 0. -1.
          2    1    1    2    0  502 -0.38303652311E+02  0.41023243425E+01 -0.20500860094E+03  0.20859656112E+03  0.25500000000E-02 0.  1.
         -2    1    1    2  502    0  0.38303652311E+02 -0.41023243425E+01 -0.14653367469E+04  0.14658430273E+04  0.25500000000E-02 0.  1.
<mgrwt>
<rscale>  0 0.11702288E+03</rscale>
<asrwt>0</asrwt>
<pdfrwt beam="2">  1        3 0.25729006E+00 0.11702288E+03</pdfrwt>
<pdfrwt beam="1">  1       -3 0.31494292E-03 0.11702288E+03</pdfrwt>
<totfact> 0.26169715E+03</totfact>
</mgrwt>
</event>
<event>
 4    1  0.7692565E-003  0.5250772E+02  0.7818608E-02  0.1432267E+00
          3   -1    0    0    0  501  0.00000000000E+00  0.00000000000E+00  0.21856154837E+02  0.21856388203E+02  0.10100000000E+00 0. -1.
         -3   -1    0    0  501    0 -0.00000000000E+00 -0.00000000000E+00 -0.31535945748E+02  0.31536107483E+02  0.10100000000E+00 0. -1.
          2    1    1    2    0  502  0.22722584645E+02  0.90380880329E+01 -0.14553993436E+02  0.28457364946E+02  0.25500000000E-02 0.  1.
         -2    1    1    2  502    0 -0.22722584645E+02 -0.90380880329E+01  0.48742025256E+01  0.24935130740E+02  0.25500000000E-02 0.  1.
<mgrwt>
<rscale>  0 0.52507716E+02</rscale>
<asrwt>0</asrwt>
<pdfrwt beam="1">  1        3 0.33625157E-02 0.52507716E+02</pdfrwt>
<pdfrwt beam="2">  1       -3 0.48517144E-02 0.52507716E+02</pdfrwt>
<totfact> 0.16550417E+05</totfact>
</mgrwt>
</event>
<event>
 4    1  0.7692565E-003  0.4933882E+02  0.7818608E-02  0.1448941E+00
         -3   -1    0    0  501    0 -0.00000000000E+00  0.00000000000E+00  0.54787430537E+02  0.54787523633E+02  0.10100000000E+00 0. -1.
          3   -1    0    0    0  501  0.00000000000E+00 -0.00000000000E+00 -0.11107688064E+02  0.11108147241E+02  0.10100000000E+00 0. -1.
          2    1    1    2    0  502  0.91689978037E+01 -0.21870839615E+02  0.12764278802E+02  0.26931969219E+02  0.25500000000E-02 0. -1.
         -2    1    1    2  502    0 -0.91689978037E+01  0.21870839615E+02  0.30915463670E+02  0.38963701655E+02  0.25500000000E-02 0. -1.
<mgrwt>
<rscale>  0 0.49338824E+02</rscale>
<asrwt>0</asrwt>
<pdfrwt beam="2">  1        3 0.17089176E-02 0.49338824E+02</pdfrwt>
<pdfrwt beam="1">  1       -3 0.84288778E-02 0.49338824E+02</pdfrwt>
<totfact> 0.18752401E+05</totfact>
</mgrwt>
</event>
<event>
 4    1  0.7692565E-003  0.4041477E+02  0.7818608E-02  0.1505181E+00
         -3   -1    0    0  501    0 -0.00000000000E+00  0.00000000000E+00  0.26991197193E+01  0.27010087485E+01  0.10100000000E+00 0.  1.
          3   -1    0    0    0  501  0.00000000000E+00 -0.00000000000E+00 -0.15123094884E+03  0.15123098257E+03  0.10100000000E+00 0.  1.
          2    1    1    2    0  502 -0.10253386512E+01  0.20103886311E+02 -0.80994523895E+02  0.83458555413E+02  0.25500000000E-02 0. -1.
         -2    1    1    2  502    0  0.10253386512E+01 -0.20103886311E+02 -0.67537305227E+02  0.70473435903E+02  0.25500000000E-02 0. -1.
<mgrwt>
<rscale>  0 0.40414771E+02</rscale>
<asrwt>0</asrwt>
<pdfrwt beam="2">  1        3 0.23266441E-01 0.40414771E+02</pdfrwt>
<pdfrwt beam="1">  1       -3 0.41539721E-03 0.40414771E+02</pdfrwt>
<totfact> 0.25069165E+05</totfact>
</mgrwt>
</event>
<event>
 4    1  0.7692565E-003  0.9672154E+02  0.7818608E-02  0.1287345E+00
         -3   -1    0    0  501    0 -0.00000000000E+00  0.00000000000E+00  0.16528591862E+02  0.16528900446E+02  0.10100000000E+00 0.  1.
          3   -1    0    0    0  501  0.00000000000E+00 -0.00000000000E+00 -0.14149642479E+03  0.14149646083E+03  0.10100000000E+00 0.  1.
          2    1    1    2    0  502  0.24376554467E+02  0.10119850917E+02 -0.12869156744E+03  0.13137026804E+03  0.25500000000E-02 0.  1.
         -2    1    1    2  502    0 -0.24376554467E+02 -0.10119850917E+02  0.37237345103E+01  0.26655093237E+02  0.25500000000E-02 0.  1.
<mgrwt>
<rscale>  0 0.96721536E+02</rscale>
<asrwt>0</asrwt>
<pdfrwt beam="2">  1        3 0.21768706E-01 0.96721536E+02</pdfrwt>
<pdfrwt beam="1">  1       -3 0.25428869E-02 0.96721536E+02</pdfrwt>
<totfact> 0.26251875E+04</totfact>
</mgrwt>
</event>
<event>
 4    1  0.7692565E-003  0.4828763E+02  0.7818608E-02  0.1454803E+00
          3   -1    0    0    0  501  0.00000000000E+00  0.00000000000E+00  0.24364438845E+03  0.24364440939E+03  0.10100000000E+00 0. -1.
         -3   -1    0    0  501    0 -0.00000000000E+00 -0.00000000000E+00 -0.23914320220E+01  0.23935638942E+01  0.10100000000E+00 0. -1.
          2    1    1    2    0  502 -0.23725348679E+02  0.17032212728E+00  0.97838283827E+02  0.10067398357E+03  0.25500000000E-02 0.  1.
         -2    1    1    2  502    0  0.23725348679E+02 -0.17032212728E+00  0.14341467260E+03  0.14536398971E+03  0.25500000000E-02 0.  1.
<mgrwt>
<rscale>  0 0.48287631E+02</rscale>
<asrwt>0</asrwt>
<pdfrwt beam="1">  1        3 0.37483911E-01 0.48287631E+02</pdfrwt>
<pdfrwt beam="2">  1       -3 0.36807828E-03 0.48287631E+02</pdfrwt>
<totfact> 0.13584265E+05</totfact>
</mgrwt>
</event>
<event>
 4    1  0.7692565E-003  0.4898089E+02  0.7818608E-02  0.1450917E+00
          3   -1    0    0    0  501  0.00000000000E+00  0.00000000000E+00  0.97047468082E+02  0.97047520639E+02  0.10100000000E+00 0.  1.
         -3   -1    0    0  501    0 -0.00000000000E+00 -0.00000000000E+00 -0.61798279041E+01  0.61806531956E+01  0.10100000000E+00 0.  1.
          2    1    1    2    0  502  0.34311894526E+01  0.21403216060E+02  0.21412608699E+02  0.30469173546E+02  0.25500000000E-02 0. -1.
         -2    1    1    2  502    0 -0.34311894526E+01 -0.21403216060E+02  0.69455031479E+02  0.72759000289E+02  0.25500000000E-02 0. -1.
<mgrwt>
<rscale>  0 0.48980893E+02</rscale>
<asrwt>0</asrwt>
<pdfrwt beam="1">  1        3 0.14930446E-01 0.48980893E+02</pdfrwt>
<pdfrwt beam="2">  1       -3 0.95081035E-03 0.48980893E+02</pdfrwt>
<totfact> 0.17448134E+05</totfact>
</mgrwt>
</event>
<event>
 4    1  0.7692565E-003  0.5181111E+02  0.7818608E-02  0.1435811E+00
          3   -1    0    0    0  501  0.00000000000E+00  0.00000000000E+00  0.17627652057E+03  0.17627654951E+03  0.10100000000E+00 0.  1.
         -3   -1    0    0  501    0 -0.00000000000E+00 -0.00000000000E+00 -0.38063744171E+01  0.38077141704E+01  0.10100000000E+00 0.  1.
          2    1    1    2    0  502  0.12765502982E+02  0.20680537106E+02  0.11741171910E+03  0.11990060246E+03  0.25500000000E-02 0.  1.
         -2    1    1    2  502    0 -0.12765502982E+02 -0.20680537106E+02  0.55058427051E+02  0.60183661215E+02  0.25500000000E-02 0.  1.
<mgrwt>
<rscale>  0 0.51811106E+02</rscale>
<asrwt>0</asrwt>
<pdfrwt beam="1">  1        3 0.27119565E-01 0.51811106E+02</pdfrwt>
<pdfrwt beam="2">  1       -3 0.58570145E-03 0.51811106E+02</pdfrwt>
<totfact> 0.12890841E+05</totfact>
</mgrwt>
</event>
<event>
 4    1  0.7692565E-003  0.4037491E+02  0.7818608E-02  0.1505471E+00
          3   -1    0    0    0  501  0.00000000000E+00  0.00000000000E+00  0.32921552595E+00  0.34436007685E+00  0.10100000000E+00 0. -1.
         -3   -1    0    0  501    0 -0.00000000000E+00 -0.00000000000E+00 -0.12100443331E+04  0.12100443373E+04  0.10100000000E+00 0. -1.
          2    1    1    2    0  502 -0.20072593787E+02 -0.19072473153E+01 -0.63463553935E+03  0.63495575785E+03  0.25500000000E-02 0.  1.
         -2    1    1    2  502    0  0.20072593787E+02  0.19072473153E+01 -0.57507957820E+03  0.57543293952E+03  0.25500000000E-02 0.  1.
<mgrwt>
<rscale>  0 0.40374907E+02</rscale>
<asrwt>0</asrwt>
<pdfrwt beam="1">  1        3 0.51814801E-04 0.40374907E+02</pdfrwt>
<pdfrwt beam="2">  1       -3 0.18615835E+00 0.40374907E+02</pdfrwt>
<totfact> 0.63753001E+04</totfact>
</mgrwt>
</event>
<event>
 4    1  0.7692565E-003  0.4345782E+02  0.7818608E-02  0.1484205E+00
         -3   -1    0    0  501    0 -0.00000000000E+00  0.00000000000E+00  0.43483904965E+03  0.43483906138E+03  0.10100000000E+00 0. -1.
          3   -1    0    0    0  501  0.00000000000E+00 -0.00000000000E+00 -0.10834335001E+01  0.10881310349E+01  0.10100000000E+00 0. -1.
          2    1    1    2    0  502 -0.24413663282E+01  0.21554267401E+02  0.22956188674E+03  0.23058448899E+03  0.25500000000E-02 0. -1.
         -2    1    1    2  502    0  0.24413663282E+01 -0.21554267401E+02  0.20419372940E+03  0.20534270342E+03  0.25500000000E-02 0. -1.
<mgrwt>
<rscale>  0 0.43457825E+02</rscale>
<asrwt>0</asrwt>
<pdfrwt beam="2">  1        3 0.16704433E-03 0.43457825E+02</pdfrwt>
<pdfrwt beam="1">  1       -3 0.66898678E-01 0.43457825E+02</pdfrwt>
<totfact> 0.12971701E+05</totfact>
</mgrwt>
</event>
<event>
 4    1  0.7692565E-003  0.4113788E+02  0.7818608E-02  0.1500001E+00
          3   -1    0    0    0  501  0.00000000000E+00  0.00000000000E+00  0.64766301991E+02  0.64766380744E+02  0.10100000000E+00 0. -1.
         -3   -1    0    0  501    0 -0.00000000000E+00 -0.00000000000E+00 -0.65319560820E+01  0.65327368888E+01  0.10100000000E+00 0. -1.
          2    1    1    2    0  502  0.35509649778E+01 -0.19932024122E+02  0.22823497206E+02  0.30509129275E+02  0.25500000000E-02 0. -1.
         -2    1    1    2  502    0 -0.35509649778E+01  0.19932024122E+02  0.35410848703E+02  0.40789988358E+02  0.25500000000E-02 0. -1.
<mgrwt>
<rscale>  0 0.41137880E+02</rscale>
<asrwt>0</asrwt>
<pdfrwt beam="1">  1        3 0.99641129E-02 0.41137880E+02</pdfrwt>
<pdfrwt beam="2">  1       -3 0.10049824E-02 0.41137880E+02</pdfrwt>
<totfact> 0.29026709E+05</totfact>
</mgrwt>
</event>
<event>
 4    1  0.7692565E-003  0.5683223E+02  0.7818608E-02  0.1411628E+00
         -3   -1    0    0  501    0 -0.00000000000E+00  0.00000000000E+00  0.20795381188E+01  0.20819893822E+01  0.10100000000E+00 0.  1.
          3   -1    0    0    0  501  0.00000000000E+00 -0.00000000000E+00 -0.38806449461E+03  0.38806450775E+03  0.10100000000E+00 0.  1.
          2    1    1    2    0  502 -0.14181313753E+02  0.15252433136E+02 -0.32570489344E+03  0.32637007214E+03  0.25500000000E-02 0.  1.
         -2    1    1    2  502    0  0.14181313753E+02 -0.15252433136E+02 -0.60280063056E+02  0.63776424993E+02  0.25500000000E-02 0.  1.
<mgrwt>
<rscale>  0 0.56832232E+02</rscale>
<asrwt>0</asrwt>
<pdfrwt beam="2">  1        3 0.59702362E-01 0.56832232E+02</pdfrwt>
<pdfrwt beam="1">  1       -3 0.32011882E-03 0.56832232E+02</pdfrwt>
<totfact> 0.71454563E+04</totfact>
</mgrwt>
</event>
<event>
 4    1  0.7692565E-003  0.4892040E+02  0.7818608E-02  0.1451253E+00
          3   -1    0    0    0  501  0.00000000000E+00  0.00000000000E+00  0.55182354275E+01  0.55191596492E+01  0.10100000000E+00 0. -1.
         -3   -1    0    0  501    0 -0.00000000000E+00 -0.00000000000E+00 -0.10841256486E+03  0.10841261191E+03  0.10100000000E+00 0. -1.
          2    1    1    2    0  502 -0.35382947872E+01 -0.22004626295E+02 -0.27974885798E+02  0.35767546048E+02  0.25500000000E-02 0.  1.
         -2    1    1    2  502    0  0.35382947872E+01  0.22004626295E+02 -0.74919443637E+02  0.78164225511E+02  0.25500000000E-02 0.  1.
<mgrwt>
<rscale>  0 0.48920400E+02</rscale>
<asrwt>0</asrwt>
<pdfrwt beam="1">  1        3 0.84903409E-03 0.48920400E+02</pdfrwt>
<pdfrwt beam="2">  1       -3 0.16678929E-01 0.48920400E+02</pdfrwt>
<totfact> 0.17084383E+05</totfact>
</mgrwt>
</event>
<event>
 4    1  0.7692565E-003  0.5756668E+02  0.7818608E-02  0.1408337E+00
          3   -1    0    0    0  501  0.00000000000E+00  0.00000000000E+00  0.27611457542E+03  0.27611459390E+03  0.10100000000E+00 0.  1.
         -3   -1    0    0  501    0 -0.00000000000E+00 -0.00000000000E+00 -0.29996273796E+01  0.30013272758E+01  0.10100000000E+00 0.  1.
          2    1    1    2    0  502 -0.15385353916E+02 -0.16568360661E+02  0.50195662652E+02  0.55052922227E+02  0.25500000000E-02 0.  1.
         -2    1    1    2  502    0  0.15385353916E+02  0.16568360661E+02  0.22291928539E+03  0.22406299894E+03  0.25500000000E-02 0.  1.
<mgrwt>
<rscale>  0 0.57566680E+02</rscale>
<asrwt>0</asrwt>
<pdfrwt beam="1">  1        3 0.42479314E-01 0.57566680E+02</pdfrwt>
<pdfrwt beam="2">  1       -3 0.46161314E-03 0.57566680E+02</pdfrwt>
<totfact> 0.82571233E+04</totfact>
</mgrwt>
</event>
<event>
 4    1  0.7692565E-003  0.4986664E+02  0.7818608E-02  0.1446062E+00
         -3   -1    0    0  501    0 -0.00000000000E+00  0.00000000000E+00  0.25258652929E+03  0.25258654948E+03  0.10100000000E+00 0. -1.
          3   -1    0    0    0  501  0.00000000000E+00 -0.00000000000E+00 -0.24601612987E+01  0.24622336639E+01  0.10100000000E+00 0. -1.
          2    1    1    2    0  502  0.75578502348E+01  0.21468250368E+02  0.72988548803E+02  0.76454791458E+02  0.25500000000E-02 0.  1.
         -2    1    1    2  502    0 -0.75578502348E+01 -0.21468250368E+02  0.17713781919E+03  0.17859399169E+03  0.25500000000E-02 0.  1.
<mgrwt>
<rscale>  0 0.49866640E+02</rscale>
<asrwt>0</asrwt>
<pdfrwt beam="2">  1        3 0.37864747E-03 0.49866640E+02</pdfrwt>
<pdfrwt beam="1">  1       -3 0.38859611E-01 0.49866640E+02</pdfrwt>
<totfact> 0.12342246E+05</totfact>
</mgrwt>
</event>
<event>
 4    1  0.7692565E-003  0.4443307E+02  0.7818608E-02  0.1477912E+00
         -3   -1    0    0  501    0 -0.00000000000E+00  0.00000000000E+00  0.17004380457E+03  0.17004383456E+03  0.10100000000E+00 0. -1.
          3   -1    0    0    0  501  0.00000000000E+00 -0.00000000000E+00 -0.29017225138E+01  0.29034797308E+01  0.10100000000E+00 0. -1.
          2    1    1    2    0  502  0.19110051014E+02  0.82660102034E+01  0.11373418751E+03  0.11562433303E+03  0.25500000000E-02 0.  1.
         -2    1    1    2  502    0 -0.19110051014E+02 -0.82660102034E+01  0.53407894543E+02  0.57322981260E+02  0.25500000000E-02 0.  1.
<mgrwt>
<rscale>  0 0.44433072E+02</rscale>
<asrwt>0</asrwt>
<pdfrwt beam="2">  1        3 0.44655614E-03 0.44433072E+02</pdfrwt>
<pdfrwt beam="1">  1       -3 0.26160734E-01 0.44433072E+02</pdfrwt>
<totfact> 0.19140340E+05</totfact>
</mgrwt>
</event>
<event>
 4    1  0.7692565E-003  0.6968322E+02  0.7818608E-02  0.1361174E+00
         -3   -1    0    0  501    0 -0.00000000000E+00  0.00000000000E+00  0.66931573780E+01  0.66939193816E+01  0.10100000000E+00 0. -1.
          3   -1    0    0    0  501  0.00000000000E+00 -0.00000000000E+00 -0.18135888869E+03  0.18135891682E+03  0.10100000000E+00 0. -1.
          2    1    1    2    0  502  0.24165775352E+02 -0.23327272862E+02 -0.11232905601E+03  0.11724317971E+03  0.25500000000E-02 0. -1.
         -2    1    1    2  502    0 -0.24165775352E+02  0.23327272862E+02 -0.62336675300E+02  0.70809656485E+02  0.25500000000E-02 0. -1.
<mgrwt>
<rscale>  0 0.69683223E+02</rscale>
<asrwt>0</asrwt>
<pdfrwt beam="2">  1        3 0.27901424E-01 0.69683223E+02</pdfrwt>
<pdfrwt beam="1">  1       -3 0.10297774E-02 0.69683223E+02</pdfrwt>
<totfact> 0.59453053E+04</totfact>
</mgrwt>
</event>
<event>
 4    1  0.7692565E-003  0.4647087E+02  0.7818608E-02  0.1465363E+00
          3   -1    0    0    0  501  0.00000000000E+00  0.00000000000E+00  0.10874335862E+01  0.10921139155E+01  0.10100000000E+00 0.  1.
         -3   -1    0    0  501    0 -0.00000000000E+00 -0.00000000000E+00 -0.49540586625E+03  0.49540587655E+03  0.10100000000E+00 0.  1.
          2    1    1    2    0  502 -0.21435525383E+02 -0.20963411861E+01 -0.15401213511E+03  0.15551081686E+03  0.25500000000E-02 0. -1.
         -2    1    1    2  502    0  0.21435525383E+02  0.20963411861E+01 -0.34030629756E+03  0.34098717360E+03  0.25500000000E-02 0. -1.
<mgrwt>
<rscale>  0 0.46470869E+02</rscale>
<asrwt>0</asrwt>
<pdfrwt beam="1">  1        3 0.16765869E-03 0.46470869E+02</pdfrwt>
<pdfrwt beam="2">  1       -3 0.76216468E-01 0.46470869E+02</pdfrwt>
<totfact> 0.10102933E+05</totfact>
</mgrwt>
</event>
<event>
 4    1  0.7692565E-003  0.4439878E+02  0.7818608E-02  0.1478130E+00
          3   -1    0    0    0  501  0.00000000000E+00  0.00000000000E+00  0.13213547639E+03  0.13213551499E+03  0.10100000000E+00 0.  1.
         -3   -1    0    0  501    0 -0.00000000000E+00 -0.00000000000E+00 -0.37288799987E+01  0.37302475849E+01  0.10100000000E+00 0.  1.
          2    1    1    2    0  502  0.12686906246E+02  0.18215865324E+02  0.63610591207E+02  0.67372714505E+02  0.25500000000E-02 0. -1.
         -2    1    1    2  502    0 -0.12686906246E+02 -0.18215865324E+02  0.64796005184E+02  0.68493048070E+02  0.25500000000E-02 0. -1.
<mgrwt>
<rscale>  0 0.44398777E+02</rscale>
<asrwt>0</asrwt>
<pdfrwt beam="1">  1        3 0.20328643E-01 0.44398777E+02</pdfrwt>
<pdfrwt beam="2">  1       -3 0.57378201E-03 0.44398777E+02</pdfrwt>
<totfact> 0.20706252E+05</totfact>
</mgrwt>
</event>
<event>
 4    1  0.7692565E-003  0.4328032E+02  0.7818608E-02  0.1485372E+00
         -3   -1    0    0  501    0 -0.00000000000E+00  0.00000000000E+00  0.17834798900E+03  0.17834801760E+03  0.10100000000E+00 0.  1.
          3   -1    0    0    0  501  0.00000000000E+00 -0.00000000000E+00 -0.26247461395E+01  0.26266886562E+01  0.10100000000E+00 0.  1.
          2    1    1    2    0  502  0.20040954860E+02 -0.38877204741E+01  0.11788152754E+03  0.11963615166E+03  0.25500000000E-02 0. -1.
         -2    1    1    2  502    0 -0.20040954860E+02  0.38877204741E+01  0.57841715324E+02  0.61338554599E+02  0.25500000000E-02 0. -1.
<mgrwt>
<rscale>  0 0.43280321E+02</rscale>
<asrwt>0</asrwt>
<pdfrwt beam="2">  1        3 0.40395870E-03 0.43280321E+02</pdfrwt>
<pdfrwt beam="1">  1       -3 0.27438306E-01 0.43280321E+02</pdfrwt>
<totfact> 0.20091691E+05</totfact>
</mgrwt>
</event>
<event>
 4    1  0.7692565E-003  0.4700504E+02  0.7818608E-02  0.1462199E+00
          3   -1    0    0    0  501  0.00000000000E+00  0.00000000000E+00  0.37604662171E+02  0.37604797805E+02  0.10100000000E+00 0. -1.
         -3   -1    0    0  501    0 -0.00000000000E+00 -0.00000000000E+00 -0.14688494757E+02  0.14688841998E+02  0.10100000000E+00 0. -1.
          2    1    1    2    0  502  0.83323178899E+01 -0.19850914968E+02  0.96962410641E+00  0.21550557392E+02  0.25500000000E-02 0. -1.
         -2    1    1    2  502    0 -0.83323178899E+01  0.19850914968E+02  0.21946543307E+02  0.30743082411E+02  0.25500000000E-02 0. -1.
<mgrwt>
<rscale>  0 0.47005043E+02</rscale>
<asrwt>0</asrwt>
<pdfrwt beam="1">  1        3 0.57853697E-02 0.47005043E+02</pdfrwt>
<pdfrwt beam="2">  1       -3 0.22598056E-02 0.47005043E+02</pdfrwt>
<totfact> 0.21941420E+05</totfact>
</mgrwt>
</event>
<event>
 4    1  0.7692565E-003  0.4527844E+02  0.7818608E-02  0.1472611E+00
          3   -1    0    0    0  501  0.00000000000E+00  0.00000000000E+00  0.14971335122E+03  0.14971338529E+03  0.10100000000E+00 0. -1.
         -3   -1    0    0  501    0 -0.00000000000E+00 -0.00000000000E+00 -0.34226586180E+01  0.34241485095E+01  0.10100000000E+00 0. -1.
          2    1    1    2    0  502 -0.41315840339E+01 -0.22221685545E+02  0.68786364269E+02  0.72404676721E+02  0.25500000000E-02 0.  1.
         -2    1    1    2  502    0  0.41315840339E+01  0.22221685545E+02  0.77504328332E+02  0.80732857077E+02  0.25500000000E-02 0.  1.
<mgrwt>
<rscale>  0 0.45278444E+02</rscale>
<asrwt>0</asrwt>
<pdfrwt beam="1">  1        3 0.23032941E-01 0.45278444E+02</pdfrwt>
<pdfrwt beam="2">  1       -3 0.52668007E-03 0.45278444E+02</pdfrwt>
<totfact> 0.19022852E+05</totfact>
</mgrwt>
</event>
<event>
 4    1  0.7692565E-003  0.4601618E+02  0.7818608E-02  0.1468096E+00
         -3   -1    0    0  501    0 -0.00000000000E+00  0.00000000000E+00  0.85323315804E+02  0.85323375582E+02  0.10100000000E+00 0. -1.
          3   -1    0    0    0  501  0.00000000000E+00 -0.00000000000E+00 -0.62038361132E+01  0.62046582114E+01  0.10100000000E+00 0. -1.
          2    1    1    2    0  502  0.48653969938E+00 -0.22447279958E+02  0.49555556651E+02  0.54404690054E+02  0.25500000000E-02 0. -1.
         -2    1    1    2  502    0 -0.48653969938E+00  0.22447279958E+02  0.29563923039E+02  0.37123343739E+02  0.25500000000E-02 0. -1.
<mgrwt>
<rscale>  0 0.46016181E+02</rscale>
<asrwt>0</asrwt>
<pdfrwt beam="2">  1        3 0.95450411E-03 0.46016181E+02</pdfrwt>
<pdfrwt beam="1">  1       -3 0.13126733E-01 0.46016181E+02</pdfrwt>
<totfact> 0.20953118E+05</totfact>
</mgrwt>
</event>
<event>
 4    1  0.7692565E-003  0.1320509E+03  0.7818608E-02  0.1224444E+00
         -3   -1    0    0  501    0 -0.00000000000E+00  0.00000000000E+00  0.41262368245E+03  0.41262369481E+03  0.10100000000E+00 0. -1.
          3   -1    0    0    0  501  0.00000000000E+00 -0.00000000000E+00 -0.10564717718E+02  0.10565200493E+02  0.10100000000E+00 0. -1.
          2    1    1    2    0  502 -0.48259579879E+02  0.40955553291E+02  0.26124222820E+03  0.26880075557E+03  0.25500000000E-02 0.  1.
         -2    1    1    2  502    0  0.48259579879E+02 -0.40955553291E+02  0.14081673653E+03  0.15438813973E+03  0.25500000000E-02 0.  1.
<mgrwt>
<rscale>  0 0.13205086E+03</rscale>
<asrwt>0</asrwt>
<pdfrwt beam="2">  1        3 0.16253794E-02 0.13205086E+03</pdfrwt>
<pdfrwt beam="1">  1       -3 0.63480600E-01 0.13205086E+03</pdfrwt>
<totfact> 0.72411047E+03</totfact>
</mgrwt>
</event>
<event>
 4    1  0.7692565E-003  0.5794409E+02  0.7818608E-02  0.1406668E+00
         -3   -1    0    0  501    0 -0.00000000000E+00  0.00000000000E+00  0.51405993816E+01  0.51415914853E+01  0.10100000000E+00 0.  1.
          3   -1    0    0    0  501  0.00000000000E+00 -0.00000000000E+00 -0.16326756926E+03  0.16326760050E+03  0.10100000000E+00 0.  1.
          2    1    1    2    0  502 -0.26878374610E+02 -0.76485890266E+01 -0.10128019671E+03  0.10506486658E+03  0.25500000000E-02 0.  1.
         -2    1    1    2  502    0  0.26878374610E+02  0.76485890266E+01 -0.56846773163E+02  0.63344325407E+02  0.25500000000E-02 0.  1.
<mgrwt>
<rscale>  0 0.57944088E+02</rscale>
<asrwt>0</asrwt>
<pdfrwt beam="2">  1        3 0.25118162E-01 0.57944088E+02</pdfrwt>
<pdfrwt beam="1">  1       -3 0.79094029E-03 0.57944088E+02</pdfrwt>
<totfact> 0.99382172E+04</totfact>
</mgrwt>
</event>
<event>
 4    1  0.7692565E-003  0.8809941E+02  0.7818608E-02  0.1307521E+00
          3   -1    0    0    0  501  0.00000000000E+00  0.00000000000E+00  0.92034850746E+03  0.92034851300E+03  0.10100000000E+00 0. -1.
         -3   -1    0    0  501    0 -0.00000000000E+00 -0.00000000000E+00 -0.21070910858E+01  0.21095103327E+01  0.10100000000E+00 0. -1.
          2    1    1    2    0  502  0.14101903452E+02  0.23326525900E+02  0.96802046584E+02  0.10056652883E+03  0.25500000000E-02 0. -1.
         -2    1    1    2  502    0 -0.14101903452E+02 -0.23326525900E+02  0.82143936979E+03  0.82189149450E+03  0.25500000000E-02 0. -1.
<mgrwt>
<rscale>  0 0.88099410E+02</rscale>
<asrwt>0</asrwt>
<pdfrwt beam="1">  1        3 0.14159232E+00 0.88099410E+02</pdfrwt>
<pdfrwt beam="2">  1       -3 0.32435426E-03 0.88099410E+02</pdfrwt>
<totfact> 0.11899069E+04</totfact>
</mgrwt>
</event>
<event>
 4    1  0.7692565E-003  0.9874491E+02  0.7818608E-02  0.1282958E+00
          3   -1    0    0    0  501  0.00000000000E+00  0.00000000000E+00  0.52397107292E+02  0.52397204635E+02  0.10100000000E+00 0. -1.
         -3   -1    0    0  501    0 -0.00000000000E+00 -0.00000000000E+00 -0.46522203826E+02  0.46522313461E+02  0.10100000000E+00 0. -1.
          2    1    1    2    0  502 -0.48789853514E+02 -0.67957651124E+01 -0.38608076261E+00  0.49262371991E+02  0.25500000000E-02 0. -1.
         -2    1    1    2  502    0  0.48789853514E+02  0.67957651124E+01  0.62609842295E+01  0.49657146106E+02  0.25500000000E-02 0. -1.
<mgrwt>
<rscale>  0 0.98744907E+02</rscale>
<asrwt>0</asrwt>
<pdfrwt beam="1">  1        3 0.80611093E-02 0.98744907E+02</pdfrwt>
<pdfrwt beam="2">  1       -3 0.71572781E-02 0.98744907E+02</pdfrwt>
<totfact> 0.27934800E+04</totfact>
</mgrwt>
</event>
<event>
 4    1  0.7692565E-003  0.4147829E+02  0.7818608E-02  0.1497606E+00
          3   -1    0    0    0  501  0.00000000000E+00  0.00000000000E+00  0.47045395453E+01  0.47056235860E+01  0.10100000000E+00 0.  1.
         -3   -1    0    0  501    0 -0.00000000000E+00 -0.00000000000E+00 -0.91413260780E+02  0.91413316576E+02  0.10100000000E+00 0.  1.
          2    1    1    2    0  502 -0.16254891045E+01  0.20405109527E+02 -0.35633311327E+02  0.41094325549E+02  0.25500000000E-02 0.  1.
         -2    1    1    2  502    0  0.16254891045E+01 -0.20405109527E+02 -0.51075409908E+02  0.55024614614E+02  0.25500000000E-02 0.  1.
<mgrwt>
<rscale>  0 0.41478287E+02</rscale>
<asrwt>0</asrwt>
<pdfrwt beam="1">  1        3 0.72386306E-03 0.41478287E+02</pdfrwt>
<pdfrwt beam="2">  1       -3 0.14063665E-01 0.41478287E+02</pdfrwt>
<totfact> 0.26762475E+05</totfact>
</mgrwt>
</event>
<event>
 4    1  0.7692565E-003  0.4065979E+02  0.7818608E-02  0.1503411E+00
         -3   -1    0    0  501    0 -0.00000000000E+00  0.00000000000E+00  0.13895885948E+04  0.13895885984E+04  0.10100000000E+00 0. -1.
          3   -1    0    0    0  501  0.00000000000E+00 -0.00000000000E+00 -0.28885148943E+00  0.30600029893E+00  0.10100000000E+00 0. -1.
          2    1    1    2    0  502 -0.19330550042E+02  0.62880419873E+01  0.70519081244E+03  0.70548372879E+03  0.25500000000E-02 0. -1.
         -2    1    1    2  502    0  0.19330550042E+02 -0.62880419873E+01  0.68410893083E+03  0.68441086994E+03  0.25500000000E-02 0. -1.
<mgrwt>
<rscale>  0 0.40659795E+02</rscale>
<asrwt>0</asrwt>
<pdfrwt beam="2">  1        3 0.45757957E-04 0.40659795E+02</pdfrwt>
<pdfrwt beam="1">  1       -3 0.21378491E+00 0.40659795E+02</pdfrwt>
<totfact> 0.52757471E+04</totfact>
</mgrwt>
</event>
<event>
 4    1  0.7692565E-003  0.5073645E+02  0.7818608E-02  0.1441409E+00
         -3   -1    0    0  501    0 -0.00000000000E+00  0.00000000000E+00  0.31683936201E+02  0.31684097181E+02  0.10100000000E+00 0. -1.
          3   -1    0    0    0  501  0.00000000000E+00 -0.00000000000E+00 -0.20311116587E+02  0.20311367704E+02  0.10100000000E+00 0. -1.
          2    1    1    2    0  502  0.25071101179E+02  0.13597821802E+01  0.19718686039E+01  0.25185261448E+02  0.25500000000E-02 0.  1.
         -2    1    1    2  502    0 -0.25071101179E+02 -0.13597821802E+01  0.94009510097E+01  0.26810203437E+02  0.25500000000E-02 0.  1.
<mgrwt>
<rscale>  0 0.50736450E+02</rscale>
<asrwt>0</asrwt>
<pdfrwt beam="2">  1        3 0.31248189E-02 0.50736450E+02</pdfrwt>
<pdfrwt beam="1">  1       -3 0.48744834E-02 0.50736450E+02</pdfrwt>
<totfact> 0.18122193E+05</totfact>
</mgrwt>
</event>
<event>
 4    1  0.7692565E-003  0.5382015E+02  0.7818608E-02  0.1425762E+00
          3   -1    0    0    0  501  0.00000000000E+00  0.00000000000E+00  0.15365136526E+02  0.15365468475E+02  0.10100000000E+00 0.  1.
         -3   -1    0    0  501    0 -0.00000000000E+00 -0.00000000000E+00 -0.47128666270E+02  0.47128774495E+02  0.10100000000E+00 0.  1.
          2    1    1    2    0  502 -0.17505287991E+02  0.12754352107E+02  0.26621858101E+01  0.21821912041E+02  0.25500000000E-02 0. -1.
         -2    1    1    2  502    0  0.17505287991E+02 -0.12754352107E+02 -0.34425715554E+02  0.40672330930E+02  0.25500000000E-02 0. -1.
<mgrwt>
<rscale>  0 0.53820150E+02</rscale>
<asrwt>0</asrwt>
<pdfrwt beam="1">  1        3 0.23639010E-02 0.53820150E+02</pdfrwt>
<pdfrwt beam="2">  1       -3 0.72505978E-02 0.53820150E+02</pdfrwt>
<totfact> 0.15179133E+05</totfact>
</mgrwt>
</event>
<event>
 4    1  0.7692565E-003  0.4755398E+02  0.7818608E-02  0.1459000E+00
         -3   -1    0    0  501    0 -0.00000000000E+00  0.00000000000E+00  0.52514260688E+01  0.52523972390E+01  0.10100000000E+00 0.  1.
          3   -1    0    0    0  501  0.00000000000E+00 -0.00000000000E+00 -0.10764461833E+03  0.10764466571E+03  0.10100000000E+00 0.  1.
          2    1    1    2    0  502 -0.10819744756E+02 -0.20283564581E+02 -0.36783868056E+02  0.43376754424E+02  0.25500000000E-02 0. -1.
         -2    1    1    2  502    0  0.10819744756E+02  0.20283564581E+02 -0.65609324206E+02  0.69520308529E+02  0.25500000000E-02 0. -1.
<mgrwt>
<rscale>  0 0.47553980E+02</rscale>
<asrwt>0</asrwt>
<pdfrwt beam="2">  1        3 0.16560787E-01 0.47553980E+02</pdfrwt>
<pdfrwt beam="1">  1       -3 0.80799013E-03 0.47553980E+02</pdfrwt>
<totfact> 0.18374773E+05</totfact>
</mgrwt>
</event>
<event>
 4    1  0.7692565E-003  0.7067848E+02  0.7818608E-02  0.1357801E+00
          3   -1    0    0    0  501  0.00000000000E+00  0.00000000000E+00  0.54351648307E+02  0.54351742150E+02  0.10100000000E+00 0. -1.
         -3   -1    0    0  501    0 -0.00000000000E+00 -0.00000000000E+00 -0.22977216803E+02  0.22977438783E+02  0.10100000000E+00 0. -1.
          2    1    1    2    0  502 -0.15777018796E+01  0.27678362031E+02  0.39664715665E+02  0.48392876989E+02  0.25500000000E-02 0.  1.
         -2    1    1    2  502    0  0.15777018796E+01 -0.27678362031E+02 -0.82902841613E+01  0.28936303944E+02  0.25500000000E-02 0.  1.
<mgrwt>
<rscale>  0 0.70678478E+02</rscale>
<asrwt>0</asrwt>
<pdfrwt beam="1">  1        3 0.83618162E-02 0.70678478E+02</pdfrwt>
<pdfrwt beam="2">  1       -3 0.35349808E-02 0.70678478E+02</pdfrwt>
<totfact> 0.72181289E+04</totfact>
</mgrwt>
</event>
<event>
 4    1  0.7692565E-003  0.7758174E+02  0.7818608E-02  0.1336058E+00
          3   -1    0    0    0  501  0.00000000000E+00  0.00000000000E+00  0.24305354586E+03  0.24305356684E+03  0.10100000000E+00 0. -1.
         -3   -1    0    0  501    0 -0.00000000000E+00 -0.00000000000E+00 -0.61905144048E+01  0.61913382719E+01  0.10100000000E+00 0. -1.
          2    1    1    2    0  502  0.17435502291E+01  0.38601313957E+02  0.10747523476E+03  0.11421045268E+03  0.25500000000E-02 0.  1.
         -2    1    1    2  502    0 -0.17435502291E+01 -0.38601313957E+02  0.12938779669E+03  0.13503445244E+03  0.25500000000E-02 0.  1.
<mgrwt>
<rscale>  0 0.77581744E+02</rscale>
<asrwt>0</asrwt>
<pdfrwt beam="1">  1        3 0.37392912E-01 0.77581744E+02</pdfrwt>
<pdfrwt beam="2">  1       -3 0.95245197E-03 0.77581744E+02</pdfrwt>
<totfact> 0.40178839E+04</totfact>
</mgrwt>
</event>
<event>
 4    1  0.7692565E-003  0.4356756E+02  0.7818608E-02  0.1483487E+00
         -3   -1    0    0  501    0 -0.00000000000E+00  0.00000000000E+00  0.61601254140E+02  0.61601336939E+02  0.10100000000E+00 0. -1.
          3   -1    0    0    0  501  0.00000000000E+00 -0.00000000000E+00 -0.77028844770E+01  0.77035466031E+01  0.10100000000E+00 0. -1.
          2    1    1    2    0  502 -0.66608110912E+01  0.19965826789E+02  0.18016545207E+02  0.27705532867E+02  0.25500000000E-02 0.  1.
         -2    1    1    2  502    0  0.66608110912E+01 -0.19965826789E+02  0.35881824456E+02  0.41599350675E+02  0.25500000000E-02 0.  1.
<mgrwt>
<rscale>  0 0.43567564E+02</rscale>
<asrwt>0</asrwt>
<pdfrwt beam="2">  1        3 0.11851165E-02 0.43567564E+02</pdfrwt>
<pdfrwt beam="1">  1       -3 0.94771729E-02 0.43567564E+02</pdfrwt>
<totfact> 0.25345777E+05</totfact>
</mgrwt>
</event>
<event>
 4    1  0.7692565E-003  0.4420425E+02  0.7818608E-02  0.1479371E+00
         -3   -1    0    0  501    0 -0.00000000000E+00  0.00000000000E+00  0.95144252927E+01  0.95149613583E+01  0.10100000000E+00 0.  1.
          3   -1    0    0    0  501  0.00000000000E+00 -0.00000000000E+00 -0.51341464784E+02  0.51341564128E+02  0.10100000000E+00 0.  1.
          2    1    1    2    0  502 -0.18809739401E+02  0.85444868465E+01 -0.31726567016E+02  0.37860132236E+02  0.25500000000E-02 0. -1.
         -2    1    1    2  502    0  0.18809739401E+02 -0.85444868465E+01 -0.10100472475E+02  0.22996393250E+02  0.25500000000E-02 0. -1.
<mgrwt>
<rscale>  0 0.44204247E+02</rscale>
<asrwt>0</asrwt>
<pdfrwt beam="2">  1        3 0.78987356E-02 0.44204247E+02</pdfrwt>
<pdfrwt beam="1">  1       -3 0.14638066E-02 0.44204247E+02</pdfrwt>
<totfact> 0.24991999E+05</totfact>
</mgrwt>
</event>
<event>
 4    1  0.7692565E-003  0.6603902E+02  0.7818608E-02  0.1374105E+00
          3   -1    0    0    0  501  0.00000000000E+00  0.00000000000E+00  0.58778203582E+02  0.58778290357E+02  0.10100000000E+00 0.  1.
         -3   -1    0    0  501    0 -0.00000000000E+00 -0.00000000000E+00 -0.18548952373E+02  0.18549227346E+02  0.10100000000E+00 0.  1.
          2    1    1    2    0  502  0.11685531447E+02  0.24532684035E+02  0.42079721639E+02  0.50090989318E+02  0.25500000000E-02 0. -1.
         -2    1    1    2  502    0 -0.11685531447E+02 -0.24532684035E+02 -0.18504704302E+01  0.27236528385E+02  0.25500000000E-02 0. -1.
<mgrwt>
<rscale>  0 0.66039021E+02</rscale>
<asrwt>0</asrwt>
<pdfrwt beam="1">  1        3 0.90428284E-02 0.66039021E+02</pdfrwt>
<pdfrwt beam="2">  1       -3 0.28537128E-02 0.66039021E+02</pdfrwt>
<totfact> 0.86286876E+04</totfact>
</mgrwt>
</event>
<event>
 4    1  0.7692565E-003  0.4828229E+02  0.7818608E-02  0.1454833E+00
         -3   -1    0    0  501    0 -0.00000000000E+00  0.00000000000E+00  0.10244103385E+03  0.10244108364E+03  0.10100000000E+00 0. -1.
          3   -1    0    0    0  501  0.00000000000E+00 -0.00000000000E+00 -0.56885778865E+01  0.56894744372E+01  0.10100000000E+00 0. -1.
          2    1    1    2    0  502 -0.19823832645E+02 -0.94014812573E+01  0.25821983672E+02  0.33884318464E+02  0.25500000000E-02 0.  1.
         -2    1    1    2  502    0  0.19823832645E+02  0.94014812573E+01  0.70930472296E+02  0.74246239617E+02  0.25500000000E-02 0.  1.
<mgrwt>
<rscale>  0 0.48282293E+02</rscale>
<asrwt>0</asrwt>
<pdfrwt beam="2">  1        3 0.87523867E-03 0.48282293E+02</pdfrwt>
<pdfrwt beam="1">  1       -3 0.15760231E-01 0.48282293E+02</pdfrwt>
<totfact> 0.17885900E+05</totfact>
</mgrwt>
</event>
<event>
 4    1  0.7692565E-003  0.6921347E+02  0.7818608E-02  0.1362788E+00
          3   -1    0    0    0  501  0.00000000000E+00  0.00000000000E+00  0.67598609700E+00  0.68348972439E+00  0.10100000000E+00 0. -1.
         -3   -1    0    0  501    0 -0.00000000000E+00 -0.00000000000E+00 -0.17618865704E+04  0.17618865733E+04  0.10100000000E+00 0. -1.
          2    1    1    2    0  502  0.25782853417E+02  0.22375559725E+02 -0.73608883027E+03  0.73688003586E+03  0.25500000000E-02 0.  1.
         -2    1    1    2  502    0 -0.25782853417E+02 -0.22375559725E+02 -0.10251217541E+04  0.10256900272E+04  0.25500000000E-02 0.  1.
<mgrwt>
<rscale>  0 0.69213473E+02</rscale>
<asrwt>0</asrwt>
<pdfrwt beam="1">  1        3 0.10457670E-03 0.69213473E+02</pdfrwt>
<pdfrwt beam="2">  1       -3 0.27105639E+00 0.69213473E+02</pdfrwt>
<totfact> 0.96152303E+03</totfact>
</mgrwt>
</event>
<event>
 4    1  0.7692565E-003  0.6180952E+02  0.7818608E-02  0.1390391E+00
         -3   -1    0    0  501    0 -0.00000000000E+00  0.00000000000E+00  0.64559913949E+02  0.64559992954E+02  0.10100000000E+00 0. -1.
          3   -1    0    0    0  501  0.00000000000E+00 -0.00000000000E+00 -0.14793816643E+02  0.14794161412E+02  0.10100000000E+00 0. -1.
          2    1    1    2    0  502 -0.24451640206E+02  0.72195355627E+01  0.47308196730E+02  0.53740765596E+02  0.25500000000E-02 0.  1.
         -2    1    1    2  502    0  0.24451640206E+02 -0.72195355627E+01  0.24579005759E+01  0.25613388769E+02  0.25500000000E-02 0.  1.
<mgrwt>
<rscale>  0 0.61809525E+02</rscale>
<asrwt>0</asrwt>
<pdfrwt beam="2">  1        3 0.22760044E-02 0.61809525E+02</pdfrwt>
<pdfrwt beam="1">  1       -3 0.99323270E-02 0.61809525E+02</pdfrwt>
<totfact> 0.10204737E+05</totfact>
</mgrwt>
</event>
<event>
 4    1  0.7692565E-003  0.6716036E+02  0.7818608E-02  0.1370025E+00
          3   -1    0    0    0  501  0.00000000000E+00  0.00000000000E+00  0.16762070940E+03  0.16762073983E+03  0.10100000000E+00 0.  1.
         -3   -1    0    0  501    0 -0.00000000000E+00 -0.00000000000E+00 -0.67268525331E+01  0.67276107201E+01  0.10100000000E+00 0.  1.
          2    1    1    2    0  502  0.40524365973E+01  0.28102902370E+02  0.12698947729E+03  0.13012502723E+03  0.25500000000E-02 0.  1.
         -2    1    1    2  502    0 -0.40524365973E+01 -0.28102902370E+02  0.33904379581E+02  0.44223323318E+02  0.25500000000E-02 0.  1.
<mgrwt>
<rscale>  0 0.67160362E+02</rscale>
<asrwt>0</asrwt>
<pdfrwt beam="1">  1        3 0.25787861E-01 0.67160362E+02</pdfrwt>
<pdfrwt beam="2">  1       -3 0.10349611E-02 0.67160362E+02</pdfrwt>
<totfact> 0.67183227E+04</totfact>
</mgrwt>
</event>
<event>
 4    1  0.7692565E-003  0.4055403E+02  0.7818608E-02  0.1504174E+00
          3   -1    0    0    0  501  0.00000000000E+00  0.00000000000E+00  0.65435459171E+01  0.65443253410E+01  0.10100000000E+00 0.  1.
         -3   -1    0    0  501    0 -0.00000000000E+00 -0.00000000000E+00 -0.62829462849E+02  0.62829544029E+02  0.10100000000E+00 0.  1.
          2    1    1    2    0  502  0.58413454813E+01 -0.19402967223E+02 -0.29424083379E+02  0.35726364821E+02  0.25500000000E-02 0. -1.
         -2    1    1    2  502    0 -0.58413454813E+01  0.19402967223E+02 -0.26861833553E+02  0.33647504550E+02  0.25500000000E-02 0. -1.
<mgrwt>
<rscale>  0 0.40554029E+02</rscale>
<asrwt>0</asrwt>
<pdfrwt beam="1">  1        3 0.10067656E-02 0.40554029E+02</pdfrwt>
<pdfrwt beam="2">  1       -3 0.96661370E-02 0.40554029E+02</pdfrwt>
<totfact> 0.30210114E+05</totfact>
</mgrwt>
</event>
<event>
 4    1  0.7692565E-003  0.4159727E+02  0.7818608E-02  0.1496776E+00
          3   -1    0    0    0  501  0.00000000000E+00  0.00000000000E+00  0.49018643717E+01  0.49029047838E+01  0.10100000000E+00 0.  1.
         -3   -1    0    0  501    0 -0.00000000000E+00 -0.00000000000E+00 -0.88238295271E+02  0.88238353075E+02  0.10100000000E+00 0.  1.
          2    1    1    2    0  502  0.14877848532E+02 -0.14185794467E+02 -0.48747569853E+02  0.52904751343E+02  0.25500000000E-02 0.  1.
         -2    1    1    2  502    0 -0.14877848532E+02  0.14185794467E+02 -0.34588861046E+02  0.40236506516E+02  0.25500000000E-02 0.  1.
<mgrwt>
<rscale>  0 0.41597274E+02</rscale>
<asrwt>0</asrwt>
<pdfrwt beam="1">  1        3 0.75421752E-03 0.41597274E+02</pdfrwt>
<pdfrwt beam="2">  1       -3 0.13575206E-01 0.41597274E+02</pdfrwt>
<totfact> 0.26765815E+05</totfact>
</mgrwt>
</event>
<event>
 4    1  0.7692565E-003  0.4761357E+02  0.7818608E-02  0.1458655E+00
         -3   -1    0    0  501    0 -0.00000000000E+00  0.00000000000E+00  0.29861087231E+03  0.29861088939E+03  0.10100000000E+00 0.  1.
          3   -1    0    0    0  501  0.00000000000E+00 -0.00000000000E+00 -0.18966380836E+01  0.18993254118E+01  0.10100000000E+00 0.  1.
          2    1    1    2    0  502  0.15465394070E+02  0.15056399965E+02  0.84962636528E+02  0.87661412297E+02  0.25500000000E-02 0.  1.
         -2    1    1    2  502    0 -0.15465394070E+02 -0.15056399965E+02  0.21175159770E+03  0.21284880250E+03  0.25500000000E-02 0.  1.
<mgrwt>
<rscale>  0 0.47613574E+02</rscale>
<asrwt>0</asrwt>
<pdfrwt beam="2">  1        3 0.29199867E-03 0.47613574E+02</pdfrwt>
<pdfrwt beam="1">  1       -3 0.45940316E-01 0.47613574E+02</pdfrwt>
<totfact> 0.12803194E+05</totfact>
</mgrwt>
</event>
<event>
 4    1  0.7692565E-003  0.5167685E+02  0.7818608E-02  0.1436501E+00
         -3   -1    0    0  501    0 -0.00000000000E+00  0.00000000000E+00  0.68981365281E+01  0.68988758911E+01  0.10100000000E+00 0. -1.
          3   -1    0    0    0  501  0.00000000000E+00 -0.00000000000E+00 -0.96777328869E+02  0.96777381572E+02  0.10100000000E+00 0. -1.
          2    1    1    2    0  502 -0.15380322606E+02 -0.17747589915E+02 -0.23323050952E+02  0.33098277651E+02  0.25500000000E-02 0. -1.
         -2    1    1    2  502    0  0.15380322606E+02  0.17747589915E+02 -0.66556141389E+02  0.70577979812E+02  0.25500000000E-02 0. -1.
<mgrwt>
<rscale>  0 0.51676853E+02</rscale>
<asrwt>0</asrwt>
<pdfrwt beam="2">  1        3 0.14888880E-01 0.51676853E+02</pdfrwt>
<pdfrwt beam="1">  1       -3 0.10613128E-02 0.51676853E+02</pdfrwt>
<totfact> 0.15238703E+05</totfact>
</mgrwt>
</event>
<event>
 4    1  0.7692565E-003  0.6099870E+02  0.7818608E-02  0.1393688E+00
          3   -1    0    0    0  501  0.00000000000E+00  0.00000000000E+00  0.29830583928E+02  0.29830754910E+02  0.10100000000E+00 0.  1.
         -3   -1    0    0  501    0 -0.00000000000E+00 -0.00000000000E+00 -0.31182763880E+02  0.31182927447E+02  0.10100000000E+00 0.  1.
          2    1    1    2    0  502 -0.21170856638E+02  0.78155099418E+01 -0.21197535494E+02  0.30961635680E+02  0.25500000000E-02 0.  1.
         -2    1    1    2  502    0  0.21170856638E+02 -0.78155099418E+01  0.19845355542E+02  0.30052046678E+02  0.25500000000E-02 0.  1.
<mgrwt>
<rscale>  0 0.60998697E+02</rscale>
<asrwt>0</asrwt>
<pdfrwt beam="1">  1        3 0.45893463E-02 0.60998697E+02</pdfrwt>
<pdfrwt beam="2">  1       -3 0.47973740E-02 0.60998697E+02</pdfrwt>
<totfact> 0.11042514E+05</totfact>
</mgrwt>
</event>
<event>
 4    1  0.7692565E-003  0.4546715E+02  0.7818608E-02  0.1471446E+00
         -3   -1    0    0  501    0 -0.00000000000E+00  0.00000000000E+00  0.15419532664E+02  0.15419863442E+02  0.10100000000E+00 0. -1.
          3   -1    0    0    0  501  0.00000000000E+00 -0.00000000000E+00 -0.33516169313E+02  0.33516321493E+02  0.10100000000E+00 0. -1.
          2    1    1    2    0  502 -0.77109142093E+01  0.20221447767E+02 -0.15566123314E+01  0.21697654163E+02  0.25500000000E-02 0. -1.
         -2    1    1    2  502    0  0.77109142093E+01 -0.20221447767E+02 -0.16540024317E+02  0.27238530772E+02  0.25500000000E-02 0. -1.
<mgrwt>
<rscale>  0 0.45467152E+02</rscale>
<asrwt>0</asrwt>
<pdfrwt beam="2">  1        3 0.51563709E-02 0.45467152E+02</pdfrwt>
<pdfrwt beam="1">  1       -3 0.23722730E-02 0.45467152E+02</pdfrwt>
<totfact> 0.24060615E+05</totfact>
</mgrwt>
</event>
<event>
 4    1  0.7692565E-003  0.4225834E+02  0.7818608E-02  0.1492221E+00
          3   -1    0    0    0  501  0.00000000000E+00  0.00000000000E+00  0.11759306452E+03  0.11759310790E+03  0.10100000000E+00 0.  1.
         -3   -1    0    0  501    0 -0.00000000000E+00 -0.00000000000E+00 -0.37957821937E+01  0.37971256842E+01  0.10100000000E+00 0.  1.
          2    1    1    2    0  502 -0.20356330964E+01 -0.20920911302E+02  0.63068659498E+02  0.66479200877E+02  0.25500000000E-02 0. -1.
         -2    1    1    2  502    0  0.20356330964E+01  0.20920911302E+02  0.50728622830E+02  0.54911032704E+02  0.25500000000E-02 0. -1.
<mgrwt>
<rscale>  0 0.42258341E+02</rscale>
<asrwt>0</asrwt>
<pdfrwt beam="1">  1        3 0.18091346E-01 0.42258341E+02</pdfrwt>
<pdfrwt beam="2">  1       -3 0.58407323E-03 0.42258341E+02</pdfrwt>
<totfact> 0.24126374E+05</totfact>
</mgrwt>
</event>
<event>
 4    1  0.7692565E-003  0.6654795E+02  0.7818608E-02  0.1372242E+00
          3   -1    0    0    0  501  0.00000000000E+00  0.00000000000E+00  0.36033628665E+03  0.36033630080E+03  0.10100000000E+00 0.  1.
         -3   -1    0    0  501    0 -0.00000000000E+00 -0.00000000000E+00 -0.30717232682E+01  0.30733832882E+01  0.10100000000E+00 0.  1.
          2    1    1    2    0  502  0.97861278176E+01 -0.30996898575E+02  0.13979419825E+03  0.14352349595E+03  0.25500000000E-02 0.  1.
         -2    1    1    2  502    0 -0.97861278176E+01  0.30996898575E+02  0.21747036513E+03  0.21988618814E+03  0.25500000000E-02 0.  1.
<mgrwt>
<rscale>  0 0.66547954E+02</rscale>
<asrwt>0</asrwt>
<pdfrwt beam="1">  1        3 0.55436489E-01 0.66547954E+02</pdfrwt>
<pdfrwt beam="2">  1       -3 0.47270152E-03 0.66547954E+02</pdfrwt>
<totfact> 0.49771552E+04</totfact>
</mgrwt>
</event>
<event>
 4    1  0.7692565E-003  0.6154668E+02  0.7818608E-02  0.1391453E+00
         -3   -1    0    0  501    0 -0.00000000000E+00  0.00000000000E+00  0.58790392243E+03  0.58790393110E+03  0.10100000000E+00 0.  1.
          3   -1    0    0    0  501  0.00000000000E+00 -0.00000000000E+00 -0.16092126927E+01  0.16123791398E+01  0.10100000000E+00 0.  1.
          2    1    1    2    0  502  0.27551448110E+02 -0.96621001964E+01  0.38628915813E+03  0.38739095520E+03  0.25500000000E-02 0.  1.
         -2    1    1    2  502    0 -0.27551448110E+02  0.96621001964E+01  0.20000555160E+03  0.20212535504E+03  0.25500000000E-02 0.  1.
<mgrwt>
<rscale>  0 0.61546676E+02</rscale>
<asrwt>0</asrwt>
<pdfrwt beam="2">  1        3 0.24781527E-03 0.61546676E+02</pdfrwt>
<pdfrwt beam="1">  1       -3 0.90447058E-01 0.61546676E+02</pdfrwt>
<totfact> 0.44249762E+04</totfact>
</mgrwt>
</event>
<event>
 4    1  0.7692565E-003  0.5433003E+02  0.7818608E-02  0.1423294E+00
         -3   -1    0    0  501    0 -0.00000000000E+00  0.00000000000E+00  0.84174903021E+01  0.84180962210E+01  0.10100000000E+00 0.  1.
          3   -1    0    0    0  501  0.00000000000E+00 -0.00000000000E+00 -0.87663435974E+02  0.87663494157E+02  0.10100000000E+00 0.  1.
          2    1    1    2    0  502 -0.12355986493E+02  0.17670664911E+02 -0.10402067267E+02  0.23940046168E+02  0.25500000000E-02 0.  1.
         -2    1    1    2  502    0  0.12355986493E+02 -0.17670664911E+02 -0.68843878405E+02  0.72141544209E+02  0.25500000000E-02 0.  1.
<mgrwt>
<rscale>  0 0.54330029E+02</rscale>
<asrwt>0</asrwt>
<pdfrwt beam="2">  1        3 0.13486733E-01 0.54330029E+02</pdfrwt>
<pdfrwt beam="1">  1       -3 0.12950497E-02 0.54330029E+02</pdfrwt>
<totfact> 0.13659453E+05</totfact>
</mgrwt>
</event>
<event>
 4    1  0.7692565E-003  0.4914846E+02  0.7818608E-02  0.1449989E+00
         -3   -1    0    0  501    0 -0.00000000000E+00  0.00000000000E+00  0.44397349977E+01  0.44408836789E+01  0.10100000000E+00 0.  1.
          3   -1    0    0    0  501  0.00000000000E+00 -0.00000000000E+00 -0.13600126039E+03  0.13600129789E+03  0.10100000000E+00 0.  1.
          2    1    1    2    0  502 -0.12081645601E+02 -0.18805303200E+02 -0.36599556093E+02  0.42885115152E+02  0.25500000000E-02 0.  1.
         -2    1    1    2  502    0  0.12081645601E+02  0.18805303200E+02 -0.94961969299E+02  0.97557066421E+02  0.25500000000E-02 0.  1.
<mgrwt>
<rscale>  0 0.49148463E+02</rscale>
<asrwt>0</asrwt>
<pdfrwt beam="2">  1        3 0.20923359E-01 0.49148463E+02</pdfrwt>
<pdfrwt beam="1">  1       -3 0.68312750E-03 0.49148463E+02</pdfrwt>
<totfact> 0.15940105E+05</totfact>
</mgrwt>
</event>
<event>
 4    1  0.7692565E-003  0.8147421E+02  0.7818608E-02  0.1324919E+00
         -3   -1    0    0  501    0 -0.00000000000E+00  0.00000000000E+00  0.20719025523E+02  0.20719271696E+02  0.10100000000E+00 0. -1.
          3   -1    0    0    0  501  0.00000000000E+00 -0.00000000000E+00 -0.80095284039E+02  0.80095347719E+02  0.10100000000E+00 0. -1.
          2    1    1    2    0  502 -0.32666600272E+02  0.23671721873E+02 -0.36693786836E+02  0.54533395169E+02  0.25500000000E-02 0.  1.
         -2    1    1    2  502    0  0.32666600272E+02 -0.23671721873E+02 -0.22682471679E+02  0.46281224247E+02  0.25500000000E-02 0.  1.
<mgrwt>
<rscale>  0 0.81474213E+02</rscale>
<asrwt>0</asrwt>
<pdfrwt beam="2">  1        3 0.12322375E-01 0.81474213E+02</pdfrwt>
<pdfrwt beam="1">  1       -3 0.31875663E-02 0.81474213E+02</pdfrwt>
<totfact> 0.46896946E+04</totfact>
</mgrwt>
</event>
<event>
 4    1  0.7692565E-003  0.6428291E+02  0.7818608E-02  0.1380689E+00
         -3   -1    0    0  501    0 -0.00000000000E+00  0.00000000000E+00  0.17890458632E+02  0.17890743726E+02  0.10100000000E+00 0. -1.
          3   -1    0    0    0  501  0.00000000000E+00 -0.00000000000E+00 -0.57743576711E+02  0.57743665041E+02  0.10100000000E+00 0. -1.
          2    1    1    2    0  502  0.60688100263E+01 -0.31074536211E+02 -0.13416310004E+02  0.34386838129E+02  0.25500000000E-02 0.  1.
         -2    1    1    2  502    0 -0.60688100263E+01  0.31074536211E+02 -0.26436808074E+02  0.41247570638E+02  0.25500000000E-02 0.  1.
<mgrwt>
<rscale>  0 0.64282912E+02</rscale>
<asrwt>0</asrwt>
<pdfrwt beam="2">  1        3 0.88836558E-02 0.64282912E+02</pdfrwt>
<pdfrwt beam="1">  1       -3 0.27524070E-02 0.64282912E+02</pdfrwt>
<totfact> 0.92960351E+04</totfact>
</mgrwt>
</event>
<event>
 4    1  0.7692565E-003  0.8433379E+02  0.7818608E-02  0.1317184E+00
          3   -1    0    0    0  501  0.00000000000E+00  0.00000000000E+00  0.98815460755E+01  0.98820622262E+01  0.10100000000E+00 0.  1.
         -3   -1    0    0  501    0 -0.00000000000E+00 -0.00000000000E+00 -0.17993090063E+03  0.17993092897E+03  0.10100000000E+00 0.  1.
          2    1    1    2    0  502 -0.18896741177E+02  0.35475767391E+02 -0.56339485125E+02  0.69208052202E+02  0.25500000000E-02 0.  1.
         -2    1    1    2  502    0  0.18896741177E+02 -0.35475767391E+02 -0.11370986943E+03  0.12060493900E+03  0.25500000000E-02 0.  1.
<mgrwt>
<rscale>  0 0.84333793E+02</rscale>
<asrwt>0</asrwt>
<pdfrwt beam="1">  1        3 0.15202799E-02 0.84333793E+02</pdfrwt>
<pdfrwt beam="2">  1       -3 0.27681716E-01 0.84333793E+02</pdfrwt>
<totfact> 0.35796546E+04</totfact>
</mgrwt>
</event>
<event>
 4    1  0.7692565E-003  0.5730442E+02  0.7818608E-02  0.1409505E+00
         -3   -1    0    0  501    0 -0.00000000000E+00  0.00000000000E+00  0.35570891559E+02  0.35571034948E+02  0.10100000000E+00 0.  1.
          3   -1    0    0    0  501  0.00000000000E+00 -0.00000000000E+00 -0.23078940080E+02  0.23079161081E+02  0.10100000000E+00 0.  1.
          2    1    1    2    0  502 -0.17796546331E+02  0.15894131343E+02 -0.99887199301E+01  0.25867257388E+02  0.25500000000E-02 0.  1.
         -2    1    1    2  502    0  0.17796546331E+02 -0.15894131343E+02  0.22480671408E+02  0.32782938641E+02  0.25500000000E-02 0.  1.
<mgrwt>
<rscale>  0 0.57304421E+02</rscale>
<asrwt>0</asrwt>
<pdfrwt beam="2">  1        3 0.35506342E-02 0.57304421E+02</pdfrwt>
<pdfrwt beam="1">  1       -3 0.54724729E-02 0.57304421E+02</pdfrwt>
<totfact> 0.13052805E+05</totfact>
</mgrwt>
</event>
<event>
 4    1  0.7692565E-003  0.6996729E+02  0.7818608E-02  0.1360204E+00
         -3   -1    0    0  501    0 -0.00000000000E+00  0.00000000000E+00  0.92510350351E+03  0.92510350902E+03  0.10100000000E+00 0.  1.
          3   -1    0    0    0  501  0.00000000000E+00 -0.00000000000E+00 -0.13210058277E+01  0.13248612746E+01  0.10100000000E+00 0.  1.
          2    1    1    2    0  502  0.29265147417E+02 -0.19164339750E+02  0.45703003739E+03  0.45836685728E+03  0.25500000000E-02 0.  1.
         -2    1    1    2  502    0 -0.29265147417E+02  0.19164339750E+02  0.46675246029E+03  0.46806151302E+03  0.25500000000E-02 0.  1.
<mgrwt>
<rscale>  0 0.69967294E+02</rscale>
<asrwt>0</asrwt>
<pdfrwt beam="2">  1        3 0.20352878E-03 0.69967294E+02</pdfrwt>
<pdfrwt beam="1">  1       -3 0.14232383E+00 0.69967294E+02</pdfrwt>
<totfact> 0.21555917E+04</totfact>
</mgrwt>
</event>
<event>
 4    1  0.7692565E-003  0.5264611E+02  0.7818608E-02  0.1431570E+00
          3   -1    0    0    0  501  0.00000000000E+00  0.00000000000E+00  0.12155634449E+03  0.12155638645E+03  0.10100000000E+00 0. -1.
         -3   -1    0    0  501    0 -0.00000000000E+00 -0.00000000000E+00 -0.56997730206E+01  0.57006678106E+01  0.10100000000E+00 0. -1.
          2    1    1    2    0  502  0.85447463328E+01 -0.20358203815E+02  0.23282391601E+02  0.32086428870E+02  0.25500000000E-02 0. -1.
         -2    1    1    2  502    0 -0.85447463328E+01  0.20358203815E+02  0.92574179871E+02  0.95170625393E+02  0.25500000000E-02 0. -1.
<mgrwt>
<rscale>  0 0.52646108E+02</rscale>
<asrwt>0</asrwt>
<pdfrwt beam="1">  1        3 0.18701047E-01 0.52646108E+02</pdfrwt>
<pdfrwt beam="2">  1       -3 0.87696027E-03 0.52646108E+02</pdfrwt>
<totfact> 0.13799554E+05</totfact>
</mgrwt>
</event>
<event>
 4    1  0.7692565E-003  0.6082902E+02  0.7818608E-02  0.1394385E+00
         -3   -1    0    0  501    0 -0.00000000000E+00  0.00000000000E+00  0.85956205167E+01  0.85962138798E+01  0.10100000000E+00 0.  1.
          3   -1    0    0    0  501  0.00000000000E+00 -0.00000000000E+00 -0.10761354865E+03  0.10761359605E+03  0.10100000000E+00 0.  1.
          2    1    1    2    0  502 -0.26227627728E+02 -0.22423014614E+01 -0.20402199712E+02  0.33304145863E+02  0.25500000000E-02 0.  1.
         -2    1    1    2  502    0  0.26227627728E+02  0.22423014614E+01 -0.78615728425E+02  0.82905664067E+02  0.25500000000E-02 0.  1.
<mgrwt>
<rscale>  0 0.60829021E+02</rscale>
<asrwt>0</asrwt>
<pdfrwt beam="2">  1        3 0.16555979E-01 0.60829021E+02</pdfrwt>
<pdfrwt beam="1">  1       -3 0.13224525E-02 0.60829021E+02</pdfrwt>
<totfact> 0.97790839E+04</totfact>
</mgrwt>
</event>
<event>
 4    1  0.7692565E-003  0.1305847E+03  0.7818608E-02  0.1226591E+00
         -3   -1    0    0  501    0 -0.00000000000E+00  0.00000000000E+00  0.87835312629E+01  0.87841119327E+01  0.10100000000E+00 0. -1.
          3   -1    0    0    0  501  0.00000000000E+00 -0.00000000000E+00 -0.48533393018E+03  0.48533394069E+03  0.10100000000E+00 0. -1.
          2    1    1    2    0  502  0.61012280176E+01  0.51581075848E+02 -0.38797855922E+03  0.39143989933E+03  0.25500000000E-02 0. -1.
         -2    1    1    2  502    0 -0.61012280176E+01 -0.51581075848E+02 -0.88571839698E+02  0.10267815329E+03  0.25500000000E-02 0. -1.
<mgrwt>
<rscale>  0 0.13058471E+03</rscale>
<asrwt>0</asrwt>
<pdfrwt beam="2">  1        3 0.74666783E-01 0.13058471E+03</pdfrwt>
<pdfrwt beam="1">  1       -3 0.13513584E-02 0.13058471E+03</pdfrwt>
<totfact> 0.67845113E+03</totfact>
</mgrwt>
</event>
<event>
 4    1  0.7692565E-003  0.4373830E+02  0.7818608E-02  0.1482375E+00
         -3   -1    0    0  501    0 -0.00000000000E+00  0.00000000000E+00  0.28788948989E+02  0.28789126157E+02  0.10100000000E+00 0.  1.
          3   -1    0    0    0  501  0.00000000000E+00 -0.00000000000E+00 -0.16612231426E+02  0.16612538456E+02  0.10100000000E+00 0.  1.
          2    1    1    2    0  502 -0.16393186642E+02  0.14322094642E+02  0.39107942747E+01  0.22116809932E+02  0.25500000000E-02 0.  1.
         -2    1    1    2  502    0  0.16393186642E+02 -0.14322094642E+02  0.82659232877E+01  0.23284854681E+02  0.25500000000E-02 0.  1.
<mgrwt>
<rscale>  0 0.43738298E+02</rscale>
<asrwt>0</asrwt>
<pdfrwt beam="2">  1        3 0.25557652E-02 0.43738298E+02</pdfrwt>
<pdfrwt beam="1">  1       -3 0.44291063E-02 0.43738298E+02</pdfrwt>
<totfact> 0.26758417E+05</totfact>
</mgrwt>
</event>
<event>
 4    1  0.7692565E-003  0.4598431E+02  0.7818608E-02  0.1468289E+00
         -3   -1    0    0  501    0 -0.00000000000E+00  0.00000000000E+00  0.13408940893E+01  0.13446925146E+01  0.10100000000E+00 0.  1.
          3   -1    0    0    0  501  0.00000000000E+00 -0.00000000000E+00 -0.39368234350E+03  0.39368235645E+03  0.10100000000E+00 0.  1.
          2    1    1    2    0  502  0.79747922904E+01 -0.20353158237E+02 -0.25739300759E+03  0.25831958641E+03  0.25500000000E-02 0.  1.
         -2    1    1    2  502    0 -0.79747922904E+01  0.20353158237E+02 -0.13494844182E+03  0.13670746255E+03  0.25500000000E-02 0.  1.
<mgrwt>
<rscale>  0 0.45984307E+02</rscale>
<asrwt>0</asrwt>
<pdfrwt beam="2">  1        3 0.60566716E-01 0.45984307E+02</pdfrwt>
<pdfrwt beam="1">  1       -3 0.20658490E-03 0.45984307E+02</pdfrwt>
<totfact> 0.12014209E+05</totfact>
</mgrwt>
</event>
<event>
 4    1  0.7692565E-003  0.5064220E+02  0.7818608E-02  0.1441908E+00
         -3   -1    0    0  501    0 -0.00000000000E+00  0.00000000000E+00  0.18104393160E+03  0.18104395977E+03  0.10100000000E+00 0. -1.
          3   -1    0    0    0  501  0.00000000000E+00 -0.00000000000E+00 -0.35407011494E+01  0.35421413903E+01  0.10100000000E+00 0. -1.
          2    1    1    2    0  502  0.16366930503E+02  0.18396781875E+02  0.11026582517E+03  0.11298172509E+03  0.25500000000E-02 0.  1.
         -2    1    1    2  502    0 -0.16366930503E+02 -0.18396781875E+02  0.67237405284E+02  0.71604376076E+02  0.25500000000E-02 0.  1.
<mgrwt>
<rscale>  0 0.50642195E+02</rscale>
<asrwt>0</asrwt>
<pdfrwt beam="2">  1        3 0.54483610E-03 0.50642195E+02</pdfrwt>
<pdfrwt beam="1">  1       -3 0.27853031E-01 0.50642195E+02</pdfrwt>
<totfact> 0.13528674E+05</totfact>
</mgrwt>
</event>
<event>
 4    1  0.7692565E-003  0.6010305E+02  0.7818608E-02  0.1397400E+00
         -3   -1    0    0  501    0 -0.00000000000E+00  0.00000000000E+00  0.76880189712E+01  0.76886823775E+01  0.10100000000E+00 0.  1.
          3   -1    0    0    0  501  0.00000000000E+00 -0.00000000000E+00 -0.11746196332E+03  0.11746200674E+03  0.10100000000E+00 0.  1.
          2    1    1    2    0  502  0.23096483889E+02 -0.19200083058E+02 -0.56972640855E+02  0.64404755803E+02  0.25500000000E-02 0.  1.
         -2    1    1    2  502    0 -0.23096483889E+02  0.19200083058E+02 -0.52801303491E+02  0.60745933315E+02  0.25500000000E-02 0.  1.
<mgrwt>
<rscale>  0 0.60103046E+02</rscale>
<asrwt>0</asrwt>
<pdfrwt beam="2">  1        3 0.18071124E-01 0.60103046E+02</pdfrwt>
<pdfrwt beam="1">  1       -3 0.11828266E-02 0.60103046E+02</pdfrwt>
<totfact> 0.98927156E+04</totfact>
</mgrwt>
</event>
<event>
 4    1  0.7692565E-003  0.2544948E+03  0.7818608E-02  0.1110497E+00
          3   -1    0    0    0  501  0.00000000000E+00  0.00000000000E+00  0.41239703654E+03  0.41239704891E+03  0.10100000000E+00 0. -1.
         -3   -1    0    0  501    0 -0.00000000000E+00 -0.00000000000E+00 -0.39262820219E+02  0.39262950126E+02  0.10100000000E+00 0. -1.
          2    1    1    2    0  502  0.11271924971E+03 -0.45575306446E+02  0.11994572953E+03  0.17079143963E+03  0.25500000000E-02 0. -1.
         -2    1    1    2  502    0 -0.11271924971E+03  0.45575306446E+02  0.25318848679E+03  0.28086855940E+03  0.25500000000E-02 0. -1.
<mgrwt>
<rscale>  0 0.25449482E+03</rscale>
<asrwt>0</asrwt>
<pdfrwt beam="1">  1        3 0.63445710E-01 0.25449482E+03</pdfrwt>
<pdfrwt beam="2">  1       -3 0.60404447E-02 0.25449482E+03</pdfrwt>
<totfact> 0.10409339E+03</totfact>
</mgrwt>
</event>
<event>
 4    1  0.7692565E-003  0.5692568E+02  0.7818608E-02  0.1411206E+00
          3   -1    0    0    0  501  0.00000000000E+00  0.00000000000E+00  0.16264241218E+02  0.16264554817E+02  0.10100000000E+00 0.  1.
         -3   -1    0    0  501    0 -0.00000000000E+00 -0.00000000000E+00 -0.49809860909E+02  0.49809963308E+02  0.10100000000E+00 0.  1.
          2    1    1    2    0  502  0.72345180772E+01  0.22770058778E+02 -0.34729025046E+02  0.42153517241E+02  0.25500000000E-02 0. -1.
         -2    1    1    2  502    0 -0.72345180772E+01 -0.22770058778E+02  0.11834053550E+01  0.23921000884E+02  0.25500000000E-02 0. -1.
<mgrwt>
<rscale>  0 0.56925683E+02</rscale>
<asrwt>0</asrwt>
<pdfrwt beam="1">  1        3 0.25022230E-02 0.56925683E+02</pdfrwt>
<pdfrwt beam="2">  1       -3 0.76630875E-02 0.56925683E+02</pdfrwt>
<totfact> 0.13030864E+05</totfact>
</mgrwt>
</event>
<event>
 4    1  0.7692565E-003  0.7079108E+02  0.7818608E-02  0.1357423E+00
         -3   -1    0    0  501    0 -0.00000000000E+00  0.00000000000E+00  0.83109361874E+02  0.83109423245E+02  0.10100000000E+00 0. -1.
          3   -1    0    0    0  501  0.00000000000E+00 -0.00000000000E+00 -0.15074409398E+02  0.15074747749E+02  0.10100000000E+00 0. -1.
          2    1    1    2    0  502 -0.32254859499E+02  0.59097518750E+01  0.15536931337E+02  0.36286324840E+02  0.25500000000E-02 0. -1.
         -2    1    1    2  502    0  0.32254859499E+02 -0.59097518750E+01  0.52498021138E+02  0.61897846154E+02  0.25500000000E-02 0. -1.
<mgrwt>
<rscale>  0 0.70791078E+02</rscale>
<asrwt>0</asrwt>
<pdfrwt beam="2">  1        3 0.23191706E-02 0.70791078E+02</pdfrwt>
<pdfrwt beam="1">  1       -3 0.12786086E-01 0.70791078E+02</pdfrwt>
<totfact> 0.68543051E+04</totfact>
</mgrwt>
</event>
<event>
 4    1  0.7692565E-003  0.6294366E+02  0.7818608E-02  0.1385878E+00
         -3   -1    0    0  501    0 -0.00000000000E+00  0.00000000000E+00  0.13694521784E+01  0.13731716094E+01  0.10100000000E+00 0. -1.
          3   -1    0    0    0  501  0.00000000000E+00 -0.00000000000E+00 -0.72227996072E+03  0.72227996779E+03  0.10100000000E+00 0. -1.
          2    1    1    2    0  502  0.30049289213E+02  0.82947823281E+01 -0.41018888691E+03  0.41137171286E+03  0.25500000000E-02 0.  1.
         -2    1    1    2  502    0 -0.30049289213E+02 -0.82947823281E+01 -0.31072162164E+03  0.31228142653E+03  0.25500000000E-02 0.  1.
<mgrwt>
<rscale>  0 0.62943664E+02</rscale>
<asrwt>0</asrwt>
<pdfrwt beam="2">  1        3 0.11111998E+00 0.62943664E+02</pdfrwt>
<pdfrwt beam="1">  1       -3 0.21097218E-03 0.62943664E+02</pdfrwt>
<totfact> 0.35520041E+04</totfact>
</mgrwt>
</event>
<event>
 4    1  0.7692565E-003  0.6645754E+02  0.7818608E-02  0.1372571E+00
          3   -1    0    0    0  501  0.00000000000E+00  0.00000000000E+00  0.28489855546E+03  0.28489857336E+03  0.10100000000E+00 0.  1.
         -3   -1    0    0  501    0 -0.00000000000E+00 -0.00000000000E+00 -0.38749181579E+01  0.38762342203E+01  0.10100000000E+00 0.  1.
          2    1    1    2    0  502 -0.23149212031E+02 -0.20914245084E+02  0.90804801974E+02  0.96014601666E+02  0.25500000000E-02 0.  1.
         -2    1    1    2  502    0  0.23149212031E+02  0.20914245084E+02  0.19021883533E+03  0.19276020592E+03  0.25500000000E-02 0.  1.
<mgrwt>
<rscale>  0 0.66457541E+02</rscale>
<asrwt>0</asrwt>
<pdfrwt beam="1">  1        3 0.43830656E-01 0.66457541E+02</pdfrwt>
<pdfrwt beam="2">  1       -3 0.59624378E-03 0.66457541E+02</pdfrwt>
<totfact> 0.56268019E+04</totfact>
</mgrwt>
</event>
<event>
 4    1  0.7692565E-003  0.5093658E+02  0.7818608E-02  0.1440354E+00
          3   -1    0    0    0  501  0.00000000000E+00  0.00000000000E+00  0.59416985260E+02  0.59417071102E+02  0.10100000000E+00 0. -1.
         -3   -1    0    0  501    0 -0.00000000000E+00 -0.00000000000E+00 -0.10916309885E+02  0.10916777112E+02  0.10100000000E+00 0. -1.
          2    1    1    2    0  502 -0.12721878269E+02 -0.15524713442E+02  0.26032369398E+01  0.20239559363E+02  0.25500000000E-02 0.  1.
         -2    1    1    2  502    0  0.12721878269E+02  0.15524713442E+02  0.45897438435E+02  0.50094288851E+02  0.25500000000E-02 0.  1.
<mgrwt>
<rscale>  0 0.50936575E+02</rscale>
<asrwt>0</asrwt>
<pdfrwt beam="1">  1        3 0.91411170E-02 0.50936575E+02</pdfrwt>
<pdfrwt beam="2">  1       -3 0.16794749E-02 0.50936575E+02</pdfrwt>
<totfact> 0.17112622E+05</totfact>
</mgrwt>
</event>
<event>
 4    1  0.7692565E-003  0.4828761E+02  0.7818608E-02  0.1454803E+00
         -3   -1    0    0  501    0 -0.00000000000E+00  0.00000000000E+00  0.37961215118E+02  0.37961349479E+02  0.10100000000E+00 0.  1.
          3   -1    0    0    0  501  0.00000000000E+00 -0.00000000000E+00 -0.15355429684E+02  0.15355761843E+02  0.10100000000E+00 0.  1.
          2    1    1    2    0  502  0.21550047731E+02  0.10576881816E+02  0.84559192335E+01  0.25451474668E+02  0.25500000000E-02 0. -1.
         -2    1    1    2  502    0 -0.21550047731E+02 -0.10576881816E+02  0.14149866201E+02  0.27865636655E+02  0.25500000000E-02 0. -1.
<mgrwt>
<rscale>  0 0.48287605E+02</rscale>
<asrwt>0</asrwt>
<pdfrwt beam="2">  1        3 0.23624097E-02 0.48287605E+02</pdfrwt>
<pdfrwt beam="1">  1       -3 0.58402228E-02 0.48287605E+02</pdfrwt>
<totfact> 0.20454755E+05</totfact>
</mgrwt>
</event>
<event>
 4    1  0.7692565E-003  0.4495143E+02  0.7818608E-02  0.1474645E+00
         -3   -1    0    0  501    0 -0.00000000000E+00  0.00000000000E+00  0.20900042803E+02  0.20900286844E+02  0.10100000000E+00 0.  1.
          3   -1    0    0    0  501  0.00000000000E+00 -0.00000000000E+00 -0.24169691757E+02  0.24169902785E+02  0.10100000000E+00 0.  1.
          2    1    1    2    0  502 -0.42264919574E+01  0.21748077251E+02  0.21587863396E+01  0.22259884621E+02  0.25500000000E-02 0. -1.
         -2    1    1    2  502    0  0.42264919574E+01 -0.21748077251E+02 -0.54284352938E+01  0.22810305009E+02  0.25500000000E-02 0. -1.
<mgrwt>
<rscale>  0 0.44951434E+02</rscale>
<asrwt>0</asrwt>
<pdfrwt beam="2">  1        3 0.37184491E-02 0.44951434E+02</pdfrwt>
<pdfrwt beam="1">  1       -3 0.32154262E-02 0.44951434E+02</pdfrwt>
<totfact> 0.25021026E+05</totfact>
</mgrwt>
</event>
<event>
 4    1  0.7692565E-003  0.4229610E+02  0.7818608E-02  0.1491964E+00
          3   -1    0    0    0  501  0.00000000000E+00  0.00000000000E+00  0.28376638742E+02  0.28376818484E+02  0.10100000000E+00 0.  1.
         -3   -1    0    0  501    0 -0.00000000000E+00 -0.00000000000E+00 -0.15760463347E+02  0.15760786970E+02  0.10100000000E+00 0.  1.
          2    1    1    2    0  502 -0.15007886372E+02 -0.14154141569E+02  0.14510135985E+01  0.20680469624E+02  0.25500000000E-02 0. -1.
         -2    1    1    2  502    0  0.15007886372E+02  0.14154141569E+02  0.11165161796E+02  0.23457135830E+02  0.25500000000E-02 0. -1.
<mgrwt>
<rscale>  0 0.42296103E+02</rscale>
<asrwt>0</asrwt>
<pdfrwt beam="1">  1        3 0.43656755E-02 0.42296103E+02</pdfrwt>
<pdfrwt beam="2">  1       -3 0.24247254E-02 0.42296103E+02</pdfrwt>
<totfact> 0.29173569E+05</totfact>
</mgrwt>
</event>
<event>
 4    1  0.7692565E-003  0.4457600E+02  0.7818608E-02  0.1477006E+00
          3   -1    0    0    0  501  0.00000000000E+00  0.00000000000E+00  0.21622986571E+03  0.21622988929E+03  0.10100000000E+00 0. -1.
         -3   -1    0    0  501    0 -0.00000000000E+00 -0.00000000000E+00 -0.22962129449E+01  0.22984331376E+01  0.10100000000E+00 0. -1.
          2    1    1    2    0  502 -0.17367069146E+02 -0.13080940388E+02  0.13099791252E+03  0.13278998149E+03  0.25500000000E-02 0. -1.
         -2    1    1    2  502    0  0.17367069146E+02  0.13080940388E+02  0.82935740237E+02  0.85738340941E+02  0.25500000000E-02 0. -1.
<mgrwt>
<rscale>  0 0.44576002E+02</rscale>
<asrwt>0</asrwt>
<pdfrwt beam="1">  1        3 0.33266310E-01 0.44576002E+02</pdfrwt>
<pdfrwt beam="2">  1       -3 0.35343609E-03 0.44576002E+02</pdfrwt>
<totfact> 0.17392733E+05</totfact>
</mgrwt>
</event>
<event>
 4    1  0.7692565E-003  0.5862793E+02  0.7818608E-02  0.1403682E+00
          3   -1    0    0    0  501  0.00000000000E+00  0.00000000000E+00  0.61296949608E+01  0.61305270012E+01  0.10100000000E+00 0. -1.
         -3   -1    0    0  501    0 -0.00000000000E+00 -0.00000000000E+00 -0.14017743755E+03  0.14017747394E+03  0.10100000000E+00 0. -1.
          2    1    1    2    0  502  0.85429384922E+01  0.21747493167E+02 -0.11120069238E+03  0.11362891027E+03  0.25500000000E-02 0.  1.
         -2    1    1    2  502    0 -0.85429384922E+01 -0.21747493167E+02 -0.22847050215E+02  0.32679090672E+02  0.25500000000E-02 0.  1.
<mgrwt>
<rscale>  0 0.58627927E+02</rscale>
<asrwt>0</asrwt>
<pdfrwt beam="1">  1        3 0.94309690E-03 0.58627927E+02</pdfrwt>
<pdfrwt beam="2">  1       -3 0.21565824E-01 0.58627927E+02</pdfrwt>
<totfact> 0.10085691E+05</totfact>
</mgrwt>
</event>
<event>
 4    1  0.7692565E-003  0.8369847E+02  0.7818608E-02  0.1318872E+00
          3   -1    0    0    0  501  0.00000000000E+00  0.00000000000E+00  0.58785948885E+03  0.58785949753E+03  0.10100000000E+00 0. -1.
         -3   -1    0    0  501    0 -0.00000000000E+00 -0.00000000000E+00 -0.29783478500E+01  0.29800598845E+01  0.10100000000E+00 0. -1.
          2    1    1    2    0  502  0.41697407707E+02  0.96569397745E+00  0.26824098882E+03  0.27146424159E+03  0.25500000000E-02 0.  1.
         -2    1    1    2  502    0 -0.41697407707E+02 -0.96569397745E+00  0.31664015218E+03  0.31937531582E+03  0.25500000000E-02 0.  1.
<mgrwt>
<rscale>  0 0.83698468E+02</rscale>
<asrwt>0</asrwt>
<pdfrwt beam="1">  1        3 0.90440086E-01 0.83698468E+02</pdfrwt>
<pdfrwt beam="2">  1       -3 0.45833956E-03 0.83698468E+02</pdfrwt>
<totfact> 0.19957622E+04</totfact>
</mgrwt>
</event>
<event>
 4    1  0.7692565E-003  0.5327555E+02  0.7818608E-02  0.1428434E+00
          3   -1    0    0    0  501  0.00000000000E+00  0.00000000000E+00  0.25305512757E+03  0.25305514773E+03  0.10100000000E+00 0. -1.
         -3   -1    0    0  501    0 -0.00000000000E+00 -0.00000000000E+00 -0.28030874128E+01  0.28049064233E+01  0.10100000000E+00 0. -1.
          2    1    1    2    0  502 -0.11706640696E+02  0.19271612839E+02  0.57015614227E+02  0.61312484618E+02  0.25500000000E-02 0. -1.
         -2    1    1    2  502    0  0.11706640696E+02 -0.19271612839E+02  0.19323642593E+03  0.19454756954E+03  0.25500000000E-02 0. -1.
<mgrwt>
<rscale>  0 0.53275545E+02</rscale>
<asrwt>0</asrwt>
<pdfrwt beam="1">  1        3 0.38931708E-01 0.53275545E+02</pdfrwt>
<pdfrwt beam="2">  1       -3 0.43138560E-03 0.53275545E+02</pdfrwt>
<totfact> 0.10449535E+05</totfact>
</mgrwt>
</event>
<event>
 4    1  0.7692565E-003  0.8446976E+02  0.7818608E-02  0.1316825E+00
          3   -1    0    0    0  501  0.00000000000E+00  0.00000000000E+00  0.34752000769E+02  0.34752147537E+02  0.10100000000E+00 0.  1.
         -3   -1    0    0  501    0 -0.00000000000E+00 -0.00000000000E+00 -0.51328681698E+02  0.51328781067E+02  0.10100000000E+00 0.  1.
          2    1    1    2    0  502 -0.26820683561E+02  0.30812610330E+02 -0.19217591410E+02  0.45145119871E+02  0.25500000000E-02 0. -1.
         -2    1    1    2  502    0  0.26820683561E+02 -0.30812610330E+02  0.26409104815E+01  0.40935808734E+02  0.25500000000E-02 0. -1.
<mgrwt>
<rscale>  0 0.84469757E+02</rscale>
<asrwt>0</asrwt>
<pdfrwt beam="1">  1        3 0.53464806E-02 0.84469757E+02</pdfrwt>
<pdfrwt beam="2">  1       -3 0.78967392E-02 0.84469757E+02</pdfrwt>
<totfact> 0.43957928E+04</totfact>
</mgrwt>
</event>
<event>
 4    1  0.7692565E-003  0.6817525E+02  0.7818608E-02  0.1366410E+00
         -3   -1    0    0  501    0 -0.00000000000E+00  0.00000000000E+00  0.14552595665E+03  0.14552599170E+03  0.10100000000E+00 0.  1.
          3   -1    0    0    0  501  0.00000000000E+00 -0.00000000000E+00 -0.79842418873E+01  0.79848806826E+01  0.10100000000E+00 0.  1.
          2    1    1    2    0  502 -0.24851498764E+02 -0.20736314647E+02  0.92851986789E+02  0.98331496444E+02  0.25500000000E-02 0.  1.
         -2    1    1    2  502    0  0.24851498764E+02  0.20736314647E+02  0.44689727977E+02  0.55179375940E+02  0.25500000000E-02 0.  1.
<mgrwt>
<rscale>  0 0.68175249E+02</rscale>
<asrwt>0</asrwt>
<pdfrwt beam="2">  1        3 0.12283968E-02 0.68175249E+02</pdfrwt>
<pdfrwt beam="1">  1       -3 0.22388660E-01 0.68175249E+02</pdfrwt>
<totfact> 0.67318512E+04</totfact>
</mgrwt>
</event>
<event>
 4    1  0.7692565E-003  0.5488455E+02  0.7818608E-02  0.1420646E+00
         -3   -1    0    0  501    0 -0.00000000000E+00  0.00000000000E+00  0.62763341561E+02  0.62763422827E+02  0.10100000000E+00 0.  1.
          3   -1    0    0    0  501  0.00000000000E+00 -0.00000000000E+00 -0.11998397348E+02  0.11998822439E+02  0.10100000000E+00 0.  1.
          2    1    1    2    0  502  0.16135647310E+02 -0.22051879178E+02  0.21927290792E+02  0.35034990758E+02  0.25500000000E-02 0. -1.
         -2    1    1    2  502    0 -0.16135647310E+02  0.22051879178E+02  0.28837653421E+02  0.39727254508E+02  0.25500000000E-02 0. -1.
<mgrwt>
<rscale>  0 0.54884549E+02</rscale>
<asrwt>0</asrwt>
<pdfrwt beam="2">  1        3 0.18459462E-02 0.54884549E+02</pdfrwt>
<pdfrwt beam="1">  1       -3 0.96559377E-02 0.54884549E+02</pdfrwt>
<totfact> 0.14004056E+05</totfact>
</mgrwt>
</event>
