<event>
 4    1  0.4604841E-002  0.8193479E+02  0.7818608E-02  0.1323649E+00
          2   -1    0    0    0  501  0.00000000000E+00  0.00000000000E+00  0.11884365944E+03  0.11884365947E+03  0.25500000000E-02 0. -1.
         -2   -1    0    0  501    0 -0.00000000000E+00 -0.00000000000E+00 -0.14122146390E+02  0.14122146620E+02  0.25500000000E-02 0. -1.
          2    1    1    2    0  502 -0.17635773011E+02 -0.35591587115E+02  0.68633246665E+02  0.79298827970E+02  0.25500000000E-02 0. -1.
         -2    1    1    2  502    0  0.17635773011E+02  0.35591587115E+02  0.36088266383E+02  0.53666978116E+02  0.25500000000E-02 0. -1.
<mgrwt>
<rscale>  0 0.81934793E+02</rscale>
<asrwt>0</asrwt>
<pdfrwt beam="1">  1        2 0.18283639E-01 0.81934793E+02</pdfrwt>
<pdfrwt beam="2">  1       -2 0.21726380E-02 0.81934793E+02</pdfrwt>
<totfact> 0.17301713E+05</totfact>
</mgrwt>
</event>
<event>
 4    1  0.4604841E-002  0.4563936E+02  0.7818608E-02  0.1470389E+00
         -2   -1    0    0  501    0 -0.00000000000E+00  0.00000000000E+00  0.35014964332E+00  0.35015892852E+00  0.25500000000E-02 0. -1.
          2   -1    0    0    0  501  0.00000000000E+00 -0.00000000000E+00 -0.14871669006E+04  0.14871669006E+04  0.25500000000E-02 0. -1.
          2    1    1    2    0  502  0.15536000447E+02 -0.15577738383E+02 -0.54594673860E+03  0.54638985591E+03  0.25500000000E-02 0. -1.
         -2    1    1    2  502    0 -0.15536000447E+02  0.15577738383E+02 -0.94087001237E+03  0.94112720364E+03  0.25500000000E-02 0. -1.
<mgrwt>
<rscale>  0 0.45639363E+02</rscale>
<asrwt>0</asrwt>
<pdfrwt beam="2">  1        2 0.22878985E+00 0.45639363E+02</pdfrwt>
<pdfrwt beam="1">  1       -2 0.53871081E-04 0.45639363E+02</pdfrwt>
<totfact> 0.13767083E+06</totfact>
</mgrwt>
</event>
<event>
 4    1  0.4604841E-002  0.5844044E+02  0.7818608E-02  0.1404496E+00
         -2   -1    0    0  501    0 -0.00000000000E+00  0.00000000000E+00  0.26174750799E+01  0.26174763220E+01  0.25500000000E-02 0.  1.
          2   -1    0    0    0  501  0.00000000000E+00 -0.00000000000E+00 -0.32620021449E+03  0.32620021450E+03  0.25500000000E-02 0.  1.
          2    1    1    2    0  502 -0.22387704676E+02 -0.17839087565E+02 -0.12880102372E+03  0.13194372317E+03  0.25500000000E-02 0.  1.
         -2    1    1    2  502    0  0.22387704676E+02  0.17839087565E+02 -0.19478171569E+03  0.19687396765E+03  0.25500000000E-02 0.  1.
<mgrwt>
<rscale>  0 0.58440436E+02</rscale>
<asrwt>0</asrwt>
<pdfrwt beam="2">  1        2 0.50184616E-01 0.58440436E+02</pdfrwt>
<pdfrwt beam="1">  1       -2 0.40268883E-03 0.58440436E+02</pdfrwt>
<totfact> 0.58875052E+05</totfact>
</mgrwt>
</event>
<event>
 4    1  0.4604841E-002  0.5896293E+02  0.7818608E-02  0.1402236E+00
         -2   -1    0    0  501    0 -0.00000000000E+00  0.00000000000E+00  0.11645759054E+03  0.11645759057E+03  0.25500000000E-02 0.  1.
          2   -1    0    0    0  501  0.00000000000E+00 -0.00000000000E+00 -0.74632893247E+01  0.74632897603E+01  0.25500000000E-02 0.  1.
          2    1    1    2    0  502  0.95320182413E+01 -0.26428153096E+02  0.73277474992E+02  0.78478627635E+02  0.25500000000E-02 0. -1.
         -2    1    1    2  502    0 -0.95320182413E+01  0.26428153096E+02  0.35716826223E+02  0.45442252692E+02  0.25500000000E-02 0. -1.
<mgrwt>
<rscale>  0 0.58962928E+02</rscale>
<asrwt>0</asrwt>
<pdfrwt beam="2">  1        2 0.11481984E-02 0.58962928E+02</pdfrwt>
<pdfrwt beam="1">  1       -2 0.17916553E-01 0.58962928E+02</pdfrwt>
<totfact> 0.22595461E+05</totfact>
</mgrwt>
</event>
<event>
 4    1  0.4604841E-002  0.4828812E+02  0.7818608E-02  0.1454800E+00
         -2   -1    0    0  501    0 -0.00000000000E+00  0.00000000000E+00  0.27047030010E+02  0.27047030131E+02  0.25500000000E-02 0. -1.
          2   -1    0    0    0  501  0.00000000000E+00 -0.00000000000E+00 -0.21552670155E+02  0.21552670306E+02  0.25500000000E-02 0. -1.
          2    1    1    2    0  502  0.11680272263E+02 -0.19382591545E+02  0.11217067896E+02  0.25257399586E+02  0.25500000000E-02 0. -1.
         -2    1    1    2  502    0 -0.11680272263E+02  0.19382591545E+02 -0.57227080409E+01  0.23342300850E+02  0.25500000000E-02 0. -1.
<mgrwt>
<rscale>  0 0.48288124E+02</rscale>
<asrwt>0</asrwt>
<pdfrwt beam="2">  1        2 0.33157954E-02 0.48288124E+02</pdfrwt>
<pdfrwt beam="1">  1       -2 0.41610816E-02 0.48288124E+02</pdfrwt>
<totfact> 0.48856631E+05</totfact>
</mgrwt>
</event>
<event>
 4    1  0.4604841E-002  0.6525516E+02  0.7818608E-02  0.1377014E+00
          2   -1    0    0    0  501  0.00000000000E+00  0.00000000000E+00  0.15385916871E+04  0.15385916871E+04  0.25500000000E-02 0. -1.
         -2   -1    0    0  501    0 -0.00000000000E+00 -0.00000000000E+00 -0.69190253810E+00  0.69190723708E+00  0.25500000000E-02 0. -1.
          2    1    1    2    0  502 -0.20289644131E+00 -0.24451990929E+02  0.25940255739E+03  0.26055254329E+03  0.25500000000E-02 0. -1.
         -2    1    1    2  502    0  0.20289644131E+00  0.24451990929E+02  0.12784972272E+04  0.12787310510E+04  0.25500000000E-02 0. -1.
<mgrwt>
<rscale>  0 0.65255164E+02</rscale>
<asrwt>0</asrwt>
<pdfrwt beam="1">  1        2 0.23670731E+00 0.65255164E+02</pdfrwt>
<pdfrwt beam="2">  1       -2 0.10644650E-03 0.65255164E+02</pdfrwt>
<totfact> 0.55590505E+05</totfact>
</mgrwt>
</event>
<event>
 4    1  0.4604841E-002  0.4405815E+02  0.7818608E-02  0.1480309E+00
         -2   -1    0    0  501    0 -0.00000000000E+00  0.00000000000E+00  0.86170491044E+00  0.86170868348E+00  0.25500000000E-02 0. -1.
          2   -1    0    0    0  501  0.00000000000E+00 -0.00000000000E+00 -0.56316154823E+03  0.56316154824E+03  0.25500000000E-02 0. -1.
          2    1    1    2    0  502  0.16123677739E+02 -0.14226206336E+02 -0.21985861103E+03  0.22090759783E+03  0.25500000000E-02 0. -1.
         -2    1    1    2  502    0 -0.16123677739E+02  0.14226206336E+02 -0.34244123229E+03  0.34311565909E+03  0.25500000000E-02 0. -1.
<mgrwt>
<rscale>  0 0.44058150E+02</rscale>
<asrwt>0</asrwt>
<pdfrwt beam="2">  1        2 0.86639944E-01 0.44058150E+02</pdfrwt>
<pdfrwt beam="1">  1       -2 0.13257073E-03 0.44058150E+02</pdfrwt>
<totfact> 0.14192199E+06</totfact>
</mgrwt>
</event>
<event>
 4    1  0.4604841E-002  0.5068478E+02  0.7818608E-02  0.1441683E+00
         -2   -1    0    0  501    0 -0.00000000000E+00  0.00000000000E+00  0.43797156409E+03  0.43797156410E+03  0.25500000000E-02 0. -1.
          2   -1    0    0    0  501  0.00000000000E+00 -0.00000000000E+00 -0.14663881762E+01  0.14663903934E+01  0.25500000000E-02 0. -1.
          2    1    1    2    0  502 -0.40142045115E+01 -0.24348679491E+02  0.26825745350E+03  0.26939011377E+03  0.25500000000E-02 0. -1.
         -2    1    1    2  502    0  0.40142045115E+01  0.24348679491E+02  0.16824772242E+03  0.17004784073E+03  0.25500000000E-02 0. -1.
<mgrwt>
<rscale>  0 0.50684783E+02</rscale>
<asrwt>0</asrwt>
<pdfrwt beam="2">  1        2 0.22559847E-03 0.50684783E+02</pdfrwt>
<pdfrwt beam="1">  1       -2 0.67380205E-01 0.50684783E+02</pdfrwt>
<totfact> 0.17695548E+05</totfact>
</mgrwt>
</event>
<event>
 4    1  0.4604841E-002  0.4432195E+02  0.7818608E-02  0.1478620E+00
         -2   -1    0    0  501    0 -0.00000000000E+00  0.00000000000E+00  0.79192548668E+02  0.79192548709E+02  0.25500000000E-02 0.  1.
          2   -1    0    0    0  501  0.00000000000E+00 -0.00000000000E+00 -0.62014514321E+01  0.62014519563E+01  0.25500000000E-02 0.  1.
          2    1    1    2    0  502 -0.13647775396E+02  0.17341018047E+02  0.32577199923E+02  0.39347765394E+02  0.25500000000E-02 0. -1.
         -2    1    1    2  502    0  0.13647775396E+02 -0.17341018047E+02  0.40413897313E+02  0.46046235272E+02  0.25500000000E-02 0. -1.
<mgrwt>
<rscale>  0 0.44321948E+02</rscale>
<asrwt>0</asrwt>
<pdfrwt beam="2">  1        2 0.95406956E-03 0.44321948E+02</pdfrwt>
<pdfrwt beam="1">  1       -2 0.12183468E-01 0.44321948E+02</pdfrwt>
<totfact> 0.49911256E+05</totfact>
</mgrwt>
</event>
<event>
 4    1  0.4604841E-002  0.4894620E+02  0.7818608E-02  0.1451110E+00
          2   -1    0    0    0  501  0.00000000000E+00  0.00000000000E+00  0.28786341081E+02  0.28786341194E+02  0.25500000000E-02 0. -1.
         -2   -1    0    0  501    0 -0.00000000000E+00 -0.00000000000E+00 -0.20806138531E+02  0.20806138687E+02  0.25500000000E-02 0. -1.
          2    1    1    2    0  502 -0.10574948276E+02 -0.18890266945E+02  0.15553988892E+02  0.26657049597E+02  0.25500000000E-02 0. -1.
         -2    1    1    2  502    0  0.10574948276E+02  0.18890266945E+02 -0.75737863415E+01  0.22935430284E+02  0.25500000000E-02 0. -1.
<mgrwt>
<rscale>  0 0.48946199E+02</rscale>
<asrwt>0</asrwt>
<pdfrwt beam="1">  1        2 0.44286679E-02 0.48946199E+02</pdfrwt>
<pdfrwt beam="2">  1       -2 0.32009444E-02 0.48946199E+02</pdfrwt>
<totfact> 0.49305510E+05</totfact>
</mgrwt>
</event>
<event>
 4    1  0.4604841E-002  0.7615141E+02  0.7818608E-02  0.1340342E+00
          2   -1    0    0    0  501  0.00000000000E+00  0.00000000000E+00  0.90738212112E+01  0.90738215695E+01  0.25500000000E-02 0. -1.
         -2   -1    0    0  501    0 -0.00000000000E+00 -0.00000000000E+00 -0.15977384557E+03  0.15977384559E+03  0.25500000000E-02 0. -1.
          2    1    1    2    0  502 -0.20131129414E+02 -0.92081172752E+01 -0.14403891264E+03  0.14573009352E+03  0.25500000000E-02 0. -1.
         -2    1    1    2  502    0  0.20131129414E+02  0.92081172752E+01 -0.66611117158E+01  0.23117573641E+02  0.25500000000E-02 0. -1.
<mgrwt>
<rscale>  0 0.76151411E+02</rscale>
<asrwt>0</asrwt>
<pdfrwt beam="1">  1        2 0.13959726E-02 0.76151411E+02</pdfrwt>
<pdfrwt beam="2">  1       -2 0.24580590E-01 0.76151411E+02</pdfrwt>
<totfact> 0.10763694E+05</totfact>
</mgrwt>
</event>
<event>
 4    1  0.4604841E-002  0.4228196E+02  0.7818608E-02  0.1492060E+00
         -2   -1    0    0  501    0 -0.00000000000E+00  0.00000000000E+00  0.53377494935E+02  0.53377494996E+02  0.25500000000E-02 0.  1.
          2   -1    0    0    0  501  0.00000000000E+00 -0.00000000000E+00 -0.83732124204E+01  0.83732128087E+01  0.25500000000E-02 0.  1.
          2    1    1    2    0  502  0.13660121195E+01  0.20296812811E+02  0.30906333261E+02  0.37000378937E+02  0.25500000000E-02 0.  1.
         -2    1    1    2  502    0 -0.13660121195E+01 -0.20296812811E+02  0.14097949254E+02  0.24750328868E+02  0.25500000000E-02 0.  1.
<mgrwt>
<rscale>  0 0.42281964E+02</rscale>
<asrwt>0</asrwt>
<pdfrwt beam="2">  1        2 0.12881866E-02 0.42281964E+02</pdfrwt>
<pdfrwt beam="1">  1       -2 0.82119222E-02 0.42281964E+02</pdfrwt>
<totfact> 0.60210058E+05</totfact>
</mgrwt>
</event>
<event>
 4    1  0.4604841E-002  0.5619930E+02  0.7818608E-02  0.1414511E+00
          2   -1    0    0    0  501  0.00000000000E+00  0.00000000000E+00  0.25972201546E+04  0.25972201546E+04  0.25500000000E-02 0.  1.
         -2   -1    0    0  501    0 -0.00000000000E+00 -0.00000000000E+00 -0.30400831214E+00  0.30401900656E+00  0.25500000000E-02 0.  1.
          2    1    1    2    0  502  0.16349193423E+02  0.22370463199E+02  0.15145410116E+04  0.15147944447E+04  0.25500000000E-02 0.  1.
         -2    1    1    2  502    0 -0.16349193423E+02 -0.22370463199E+02  0.10823751347E+04  0.10827297289E+04  0.25500000000E-02 0.  1.
<mgrwt>
<rscale>  0 0.56199303E+02</rscale>
<asrwt>0</asrwt>
<pdfrwt beam="1">  1        2 0.39957054E+00 0.56199303E+02</pdfrwt>
<pdfrwt beam="2">  1       -2 0.46771542E-04 0.56199303E+02</pdfrwt>
<totfact> 0.48962360E+05</totfact>
</mgrwt>
</event>
<event>
 4    1  0.4604841E-002  0.5252740E+02  0.7818608E-02  0.1432167E+00
          2   -1    0    0    0  501  0.00000000000E+00  0.00000000000E+00  0.73534461615E+03  0.73534461616E+03  0.25500000000E-02 0. -1.
         -2   -1    0    0  501    0 -0.00000000000E+00 -0.00000000000E+00 -0.93803741922E+00  0.93804088523E+00  0.25500000000E-02 0. -1.
          2    1    1    2    0  502  0.22324398958E+02 -0.28766189096E+01  0.55688977003E+03  0.55734448027E+03  0.25500000000E-02 0.  1.
         -2    1    1    2  502    0 -0.22324398958E+02  0.28766189096E+01  0.17751680871E+03  0.17893817677E+03  0.25500000000E-02 0.  1.
<mgrwt>
<rscale>  0 0.52527404E+02</rscale>
<asrwt>0</asrwt>
<pdfrwt beam="1">  1        2 0.11313027E+00 0.52527404E+02</pdfrwt>
<pdfrwt beam="2">  1       -2 0.14431329E-03 0.52527404E+02</pdfrwt>
<totfact> 0.98425732E+05</totfact>
</mgrwt>
</event>
<event>
 4    1  0.4604841E-002  0.6809517E+02  0.7818608E-02  0.1366693E+00
         -2   -1    0    0  501    0 -0.00000000000E+00  0.00000000000E+00  0.27736920082E+02  0.27736920199E+02  0.25500000000E-02 0. -1.
          2   -1    0    0    0  501  0.00000000000E+00 -0.00000000000E+00 -0.41794037868E+02  0.41794037946E+02  0.25500000000E-02 0. -1.
          2    1    1    2    0  502  0.10434032624E+02  0.18795672307E+02  0.19930631391E+02  0.29315122521E+02  0.25500000000E-02 0. -1.
         -2    1    1    2  502    0 -0.10434032624E+02 -0.18795672307E+02 -0.33987749178E+02  0.40215835624E+02  0.25500000000E-02 0. -1.
<mgrwt>
<rscale>  0 0.68095166E+02</rscale>
<asrwt>0</asrwt>
<pdfrwt beam="2">  1        2 0.64298520E-02 0.68095166E+02</pdfrwt>
<pdfrwt beam="1">  1       -2 0.42672185E-02 0.68095166E+02</pdfrwt>
<totfact> 0.21863576E+05</totfact>
</mgrwt>
</event>
<event>
 4    1  0.4604841E-002  0.4315407E+02  0.7818608E-02  0.1486206E+00
          2   -1    0    0    0  501  0.00000000000E+00  0.00000000000E+00  0.67566808362E+03  0.67566808362E+03  0.25500000000E-02 0.  1.
         -2   -1    0    0  501    0 -0.00000000000E+00 -0.00000000000E+00 -0.68904675068E+00  0.68905146914E+00  0.25500000000E-02 0.  1.
          2    1    1    2    0  502 -0.20967120095E+02  0.17850211731E+01  0.41226515102E+03  0.41280184251E+03  0.25500000000E-02 0.  1.
         -2    1    1    2  502    0  0.20967120095E+02 -0.17850211731E+01  0.26271388585E+03  0.26355529259E+03  0.25500000000E-02 0.  1.
<mgrwt>
<rscale>  0 0.43154073E+02</rscale>
<asrwt>0</asrwt>
<pdfrwt beam="1">  1        2 0.10394940E+00 0.43154073E+02</pdfrwt>
<pdfrwt beam="2">  1       -2 0.10600708E-03 0.43154073E+02</pdfrwt>
<totfact> 0.15648654E+06</totfact>
</mgrwt>
</event>
<event>
 4    1  0.4604841E-002  0.5027995E+02  0.7818608E-02  0.1443837E+00
         -2   -1    0    0  501    0 -0.00000000000E+00  0.00000000000E+00  0.14370020094E+01  0.14370042719E+01  0.25500000000E-02 0.  1.
          2   -1    0    0    0  501  0.00000000000E+00 -0.00000000000E+00 -0.43981686693E+03  0.43981686694E+03  0.25500000000E-02 0.  1.
          2    1    1    2    0  502  0.14395594865E+02  0.15101216905E+02 -0.34228430636E+03  0.34291956242E+03  0.25500000000E-02 0. -1.
         -2    1    1    2  502    0 -0.14395594865E+02 -0.15101216905E+02 -0.96095558563E+02  0.98334308792E+02  0.25500000000E-02 0. -1.
<mgrwt>
<rscale>  0 0.50279945E+02</rscale>
<asrwt>0</asrwt>
<pdfrwt beam="2">  1        2 0.67664026E-01 0.50279945E+02</pdfrwt>
<pdfrwt beam="1">  1       -2 0.22107776E-03 0.50279945E+02</pdfrwt>
<totfact> 0.95091117E+05</totfact>
</mgrwt>
</event>
<event>
 4    1  0.4604841E-002  0.4988892E+02  0.7818608E-02  0.1445942E+00
          2   -1    0    0    0  501  0.00000000000E+00  0.00000000000E+00  0.39911861257E+03  0.39911861258E+03  0.25500000000E-02 0.  1.
         -2   -1    0    0  501    0 -0.00000000000E+00 -0.00000000000E+00 -0.15589990845E+01  0.15590011699E+01  0.25500000000E-02 0.  1.
          2    1    1    2    0  502  0.61806884137E+00  0.24272598857E+02  0.24469586489E+03  0.24589755461E+03  0.25500000000E-02 0.  1.
         -2    1    1    2  502    0 -0.61806884137E+00 -0.24272598857E+02  0.15286374860E+03  0.15478005913E+03  0.25500000000E-02 0.  1.
<mgrwt>
<rscale>  0 0.49888915E+02</rscale>
<asrwt>0</asrwt>
<pdfrwt beam="1">  1        2 0.61402966E-01 0.49888915E+02</pdfrwt>
<pdfrwt beam="2">  1       -2 0.23984577E-03 0.49888915E+02</pdfrwt>
<totfact> 0.93861630E+05</totfact>
</mgrwt>
</event>
<event>
 4    1  0.4604841E-002  0.5266390E+02  0.7818608E-02  0.1431481E+00
          2   -1    0    0    0  501  0.00000000000E+00  0.00000000000E+00  0.99338630899E+02  0.99338630931E+02  0.25500000000E-02 0. -1.
         -2   -1    0    0  501    0 -0.00000000000E+00 -0.00000000000E+00 -0.69798785233E+01  0.69798789891E+01  0.25500000000E-02 0. -1.
          2    1    1    2    0  502 -0.22957838370E+02  0.10918047859E+02  0.60035175948E+02  0.65195770332E+02  0.25500000000E-02 0. -1.
         -2    1    1    2  502    0  0.22957838370E+02 -0.10918047859E+02  0.32323576427E+02  0.41122739588E+02  0.25500000000E-02 0. -1.
<mgrwt>
<rscale>  0 0.52663900E+02</rscale>
<asrwt>0</asrwt>
<pdfrwt beam="1">  1        2 0.15282866E-01 0.52663900E+02</pdfrwt>
<pdfrwt beam="2">  1       -2 0.10738275E-02 0.52663900E+02</pdfrwt>
<totfact> 0.52384768E+05</totfact>
</mgrwt>
</event>
<event>
 4    1  0.4604841E-002  0.4723454E+02  0.7818608E-02  0.1460855E+00
         -2   -1    0    0  501    0 -0.00000000000E+00  0.00000000000E+00  0.29725938549E+01  0.29725949486E+01  0.25500000000E-02 0. -1.
          2   -1    0    0    0  501  0.00000000000E+00 -0.00000000000E+00 -0.18763928340E+03  0.18763928342E+03  0.25500000000E-02 0. -1.
          2    1    1    2    0  502  0.20847566538E+02  0.65345062318E+00 -0.13703886080E+03  0.13861708914E+03  0.25500000000E-02 0.  1.
         -2    1    1    2  502    0 -0.20847566538E+02 -0.65345062318E+00 -0.47627828751E+02  0.51994789223E+02  0.25500000000E-02 0.  1.
<mgrwt>
<rscale>  0 0.47234542E+02</rscale>
<asrwt>0</asrwt>
<pdfrwt beam="2">  1        2 0.28867573E-01 0.47234542E+02</pdfrwt>
<pdfrwt beam="1">  1       -2 0.45732236E-03 0.47234542E+02</pdfrwt>
<totfact> 0.83088451E+05</totfact>
</mgrwt>
</event>
<event>
 4    1  0.4604841E-002  0.4814342E+02  0.7818608E-02  0.1455621E+00
          2   -1    0    0    0  501  0.00000000000E+00  0.00000000000E+00  0.12803523798E+01  0.12803549191E+01  0.25500000000E-02 0. -1.
         -2   -1    0    0  501    0 -0.00000000000E+00 -0.00000000000E+00 -0.45256812887E+03  0.45256812887E+03  0.25500000000E-02 0. -1.
          2    1    1    2    0  502  0.10717846780E+02 -0.18048732986E+02 -0.11457377369E+03  0.11648080797E+03  0.25500000000E-02 0.  1.
         -2    1    1    2  502    0 -0.10717846780E+02  0.18048732986E+02 -0.33671400280E+03  0.33736767582E+03  0.25500000000E-02 0.  1.
<mgrwt>
<rscale>  0 0.48143422E+02</rscale>
<asrwt>0</asrwt>
<pdfrwt beam="1">  1        2 0.19697785E-03 0.48143422E+02</pdfrwt>
<pdfrwt beam="2">  1       -2 0.69625738E-01 0.48143422E+02</pdfrwt>
<totfact> 0.19606429E+05</totfact>
</mgrwt>
</event>
<event>
 4    1  0.4604841E-002  0.4645715E+02  0.7818608E-02  0.1465445E+00
          2   -1    0    0    0  501  0.00000000000E+00  0.00000000000E+00  0.23728848300E+03  0.23728848301E+03  0.25500000000E-02 0. -1.
         -2   -1    0    0  501    0 -0.00000000000E+00 -0.00000000000E+00 -0.22738838734E+01  0.22738853032E+01  0.25500000000E-02 0. -1.
          2    1    1    2    0  502 -0.60000375889E+01  0.22418264899E+02  0.11238281957E+03  0.11475398552E+03  0.25500000000E-02 0. -1.
         -2    1    1    2  502    0  0.60000375889E+01 -0.22418264899E+02  0.12263177955E+03  0.12480838279E+03  0.25500000000E-02 0. -1.
<mgrwt>
<rscale>  0 0.46457147E+02</rscale>
<asrwt>0</asrwt>
<pdfrwt beam="1">  1        2 0.36505920E-01 0.46457147E+02</pdfrwt>
<pdfrwt beam="2">  1       -2 0.34982840E-03 0.46457147E+02</pdfrwt>
<totfact> 0.93619820E+05</totfact>
</mgrwt>
</event>
<event>
 4    1  0.4604841E-002  0.1525877E+03  0.7818608E-02  0.1197329E+00
         -2   -1    0    0  501    0 -0.00000000000E+00  0.00000000000E+00  0.29800672488E+02  0.29800672597E+02  0.25500000000E-02 0. -1.
          2   -1    0    0    0  501  0.00000000000E+00 -0.00000000000E+00 -0.19532291107E+03  0.19532291109E+03  0.25500000000E-02 0. -1.
          2    1    1    2    0  502 -0.64358337393E+02 -0.11215258993E+02 -0.24619943458E+02  0.69813460369E+02  0.25500000000E-02 0. -1.
         -2    1    1    2  502    0  0.64358337393E+02  0.11215258993E+02 -0.14090229512E+03  0.15531012331E+03  0.25500000000E-02 0. -1.
<mgrwt>
<rscale>  0 0.15258773E+03</rscale>
<asrwt>0</asrwt>
<pdfrwt beam="2">  1        2 0.30049678E-01 0.15258773E+03</pdfrwt>
<pdfrwt beam="1">  1       -2 0.45847190E-02 0.15258773E+03</pdfrwt>
<totfact> 0.36490388E+04</totfact>
</mgrwt>
</event>
<event>
 4    1  0.4604841E-002  0.5120195E+02  0.7818608E-02  0.1438964E+00
          2   -1    0    0    0  501  0.00000000000E+00  0.00000000000E+00  0.84676949185E+03  0.84676949185E+03  0.25500000000E-02 0.  1.
         -2   -1    0    0  501    0 -0.00000000000E+00 -0.00000000000E+00 -0.77401016258E+00  0.77401436309E+00  0.25500000000E-02 0.  1.
          2    1    1    2    0  502 -0.20565028376E+02 -0.14987039121E+02  0.46945888569E+03  0.47014803742E+03  0.25500000000E-02 0. -1.
         -2    1    1    2  502    0  0.20565028376E+02  0.14987039121E+02  0.37653659600E+03  0.37739546879E+03  0.25500000000E-02 0. -1.
<mgrwt>
<rscale>  0 0.51201952E+02</rscale>
<asrwt>0</asrwt>
<pdfrwt beam="1">  1        2 0.13027289E+00 0.51201952E+02</pdfrwt>
<pdfrwt beam="2">  1       -2 0.11907821E-03 0.51201952E+02</pdfrwt>
<totfact> 0.10747306E+06</totfact>
</mgrwt>
</event>
<event>
 4    1  0.4604841E-002  0.5704186E+02  0.7818608E-02  0.1410682E+00
         -2   -1    0    0  501    0 -0.00000000000E+00  0.00000000000E+00  0.32094902939E+03  0.32094902940E+03  0.25500000000E-02 0.  1.
          2   -1    0    0    0  501  0.00000000000E+00 -0.00000000000E+00 -0.25344937811E+01  0.25344950639E+01  0.25500000000E-02 0.  1.
          2    1    1    2    0  502 -0.23993875947E+01  0.22557924454E+02  0.25723930422E+03  0.25823763602E+03  0.25500000000E-02 0.  1.
         -2    1    1    2  502    0  0.23993875947E+01 -0.22557924454E+02  0.61175231392E+02  0.65245888444E+02  0.25500000000E-02 0.  1.
<mgrwt>
<rscale>  0 0.57041863E+02</rscale>
<asrwt>0</asrwt>
<pdfrwt beam="2">  1        2 0.38992236E-03 0.57041863E+02</pdfrwt>
<pdfrwt beam="1">  1       -2 0.49376756E-01 0.57041863E+02</pdfrwt>
<totfact> 0.16132269E+05</totfact>
</mgrwt>
</event>
<event>
 4    1  0.4604841E-002  0.6542682E+02  0.7818608E-02  0.1376373E+00
          2   -1    0    0    0  501  0.00000000000E+00  0.00000000000E+00  0.17162593443E+04  0.17162593443E+04  0.25500000000E-02 0.  1.
         -2   -1    0    0  501    0 -0.00000000000E+00 -0.00000000000E+00 -0.62354377470E+00  0.62354898883E+00  0.25500000000E-02 0.  1.
          2    1    1    2    0  502  0.28887766090E+02 -0.29674206504E+01  0.46257639546E+03  0.46348703354E+03  0.25500000000E-02 0.  1.
         -2    1    1    2  502    0 -0.28887766090E+02  0.29674206504E+01  0.12530594050E+04  0.12533958597E+04  0.25500000000E-02 0.  1.
<mgrwt>
<rscale>  0 0.65426823E+02</rscale>
<asrwt>0</asrwt>
<pdfrwt beam="1">  1        2 0.26403616E+00 0.65426823E+02</pdfrwt>
<pdfrwt beam="2">  1       -2 0.95931570E-04 0.65426823E+02</pdfrwt>
<totfact> 0.52305175E+05</totfact>
</mgrwt>
</event>
<event>
 4    1  0.4604841E-002  0.4976639E+02  0.7818608E-02  0.1446606E+00
         -2   -1    0    0  501    0 -0.00000000000E+00  0.00000000000E+00  0.41286714344E+02  0.41286714422E+02  0.25500000000E-02 0. -1.
          2   -1    0    0    0  501  0.00000000000E+00 -0.00000000000E+00 -0.14996914876E+02  0.14996915093E+02  0.25500000000E-02 0. -1.
          2    1    1    2    0  502  0.24111245441E+02 -0.60989261357E+01  0.12251311095E+02  0.27724424011E+02  0.25500000000E-02 0.  1.
         -2    1    1    2  502    0 -0.24111245441E+02  0.60989261357E+01  0.14038488373E+02  0.28559205504E+02  0.25500000000E-02 0.  1.
<mgrwt>
<rscale>  0 0.49766388E+02</rscale>
<asrwt>0</asrwt>
<pdfrwt beam="2">  1        2 0.23072177E-02 0.49766388E+02</pdfrwt>
<pdfrwt beam="1">  1       -2 0.63518021E-02 0.49766388E+02</pdfrwt>
<totfact> 0.42585599E+05</totfact>
</mgrwt>
</event>
<event>
 4    1  0.4604841E-002  0.4426980E+02  0.7818608E-02  0.1478952E+00
          2   -1    0    0    0  501  0.00000000000E+00  0.00000000000E+00  0.38259301935E+02  0.38259302020E+02  0.25500000000E-02 0. -1.
         -2   -1    0    0  501    0 -0.00000000000E+00 -0.00000000000E+00 -0.12806136024E+02  0.12806136278E+02  0.25500000000E-02 0. -1.
          2    1    1    2    0  502 -0.16178381217E+02 -0.13151034710E+02  0.41514469637E+01  0.21258510087E+02  0.25500000000E-02 0.  1.
         -2    1    1    2  502    0  0.16178381217E+02  0.13151034710E+02  0.21301718947E+02  0.29806928210E+02  0.25500000000E-02 0.  1.
<mgrwt>
<rscale>  0 0.44269802E+02</rscale>
<asrwt>0</asrwt>
<pdfrwt beam="1">  1        2 0.58860465E-02 0.44269802E+02</pdfrwt>
<pdfrwt beam="2">  1       -2 0.19701748E-02 0.44269802E+02</pdfrwt>
<totfact> 0.66827877E+05</totfact>
</mgrwt>
</event>
<event>
 4    1  0.4604841E-002  0.4291029E+02  0.7818608E-02  0.1487825E+00
         -2   -1    0    0  501    0 -0.00000000000E+00  0.00000000000E+00  0.43066383104E+01  0.43066390653E+01  0.25500000000E-02 0.  1.
          2   -1    0    0    0  501  0.00000000000E+00 -0.00000000000E+00 -0.10688690811E+03  0.10688690814E+03  0.25500000000E-02 0.  1.
          2    1    1    2    0  502  0.11810141775E+02  0.17790319092E+02 -0.45886546337E+02  0.50611757956E+02  0.25500000000E-02 0.  1.
         -2    1    1    2  502    0 -0.11810141775E+02 -0.17790319092E+02 -0.56693723463E+02  0.60581789250E+02  0.25500000000E-02 0.  1.
<mgrwt>
<rscale>  0 0.42910292E+02</rscale>
<asrwt>0</asrwt>
<pdfrwt beam="2">  1        2 0.16444138E-01 0.42910292E+02</pdfrwt>
<pdfrwt beam="1">  1       -2 0.66255988E-03 0.42910292E+02</pdfrwt>
<totfact> 0.89371475E+05</totfact>
</mgrwt>
</event>
<event>
 4    1  0.4604841E-002  0.4109435E+02  0.7818608E-02  0.1500309E+00
          2   -1    0    0    0  501  0.00000000000E+00  0.00000000000E+00  0.50684881474E+03  0.50684881475E+03  0.25500000000E-02 0.  1.
         -2   -1    0    0  501    0 -0.00000000000E+00 -0.00000000000E+00 -0.83296137231E+00  0.83296527554E+00  0.25500000000E-02 0.  1.
          2    1    1    2    0  502 -0.19652944252E+02  0.59956628324E+01  0.25280134294E+03  0.25363498416E+03  0.25500000000E-02 0. -1.
         -2    1    1    2  502    0  0.19652944252E+02 -0.59956628324E+01  0.25321451043E+03  0.25404679587E+03  0.25500000000E-02 0. -1.
<mgrwt>
<rscale>  0 0.41094354E+02</rscale>
<asrwt>0</asrwt>
<pdfrwt beam="1">  1        2 0.77976920E-01 0.41094354E+02</pdfrwt>
<pdfrwt beam="2">  1       -2 0.12814791E-03 0.41094354E+02</pdfrwt>
<totfact> 0.16290548E+06</totfact>
</mgrwt>
</event>
<event>
 4    1  0.4604841E-002  0.4818906E+02  0.7818608E-02  0.1455361E+00
         -2   -1    0    0  501    0 -0.00000000000E+00  0.00000000000E+00  0.34220272472E+00  0.34221222553E+00  0.25500000000E-02 0. -1.
          2   -1    0    0    0  501  0.00000000000E+00 -0.00000000000E+00 -0.16964750202E+04  0.16964750202E+04  0.25500000000E-02 0. -1.
          2    1    1    2    0  502 -0.18654605857E+02  0.12846378205E+02 -0.55872445096E+03  0.55918336515E+03  0.25500000000E-02 0.  1.
         -2    1    1    2  502    0  0.18654605857E+02 -0.12846378205E+02 -0.11374083665E+04  0.11376338673E+04  0.25500000000E-02 0.  1.
<mgrwt>
<rscale>  0 0.48189063E+02</rscale>
<asrwt>0</asrwt>
<pdfrwt beam="2">  1        2 0.26098942E+00 0.48189063E+02</pdfrwt>
<pdfrwt beam="1">  1       -2 0.52648662E-04 0.48189063E+02</pdfrwt>
<totfact> 0.11354992E+06</totfact>
</mgrwt>
</event>
<event>
 4    1  0.4604841E-002  0.4073056E+02  0.7818608E-02  0.1502903E+00
         -2   -1    0    0  501    0 -0.00000000000E+00  0.00000000000E+00  0.22948866788E+01  0.22948880956E+01  0.25500000000E-02 0. -1.
          2   -1    0    0    0  501  0.00000000000E+00 -0.00000000000E+00 -0.18072549830E+03  0.18072549832E+03  0.25500000000E-02 0. -1.
          2    1    1    2    0  502 -0.64031996950E+01 -0.19250013113E+02 -0.97229131420E+02  0.99323048556E+02  0.25500000000E-02 0.  1.
         -2    1    1    2  502    0  0.64031996950E+01  0.19250013113E+02 -0.81201480205E+02  0.83697337862E+02  0.25500000000E-02 0.  1.
<mgrwt>
<rscale>  0 0.40730562E+02</rscale>
<asrwt>0</asrwt>
<pdfrwt beam="2">  1        2 0.27803912E-01 0.40730562E+02</pdfrwt>
<pdfrwt beam="1">  1       -2 0.35305974E-03 0.40730562E+02</pdfrwt>
<totfact> 0.11828742E+06</totfact>
</mgrwt>
</event>
<event>
 4    1  0.4604841E-002  0.4451000E+02  0.7818608E-02  0.1477424E+00
          2   -1    0    0    0  501  0.00000000000E+00  0.00000000000E+00  0.43064590526E+03  0.43064590527E+03  0.25500000000E-02 0. -1.
         -2   -1    0    0  501    0 -0.00000000000E+00 -0.00000000000E+00 -0.11500967107E+01  0.11500995376E+01  0.25500000000E-02 0. -1.
          2    1    1    2    0  502  0.13075382032E+02  0.17984187048E+02  0.22389190839E+03  0.22499329600E+03  0.25500000000E-02 0.  1.
         -2    1    1    2  502    0 -0.13075382032E+02 -0.17984187048E+02  0.20560390016E+03  0.20680270880E+03  0.25500000000E-02 0.  1.
<mgrwt>
<rscale>  0 0.44510001E+02</rscale>
<asrwt>0</asrwt>
<pdfrwt beam="1">  1        2 0.66253307E-01 0.44510001E+02</pdfrwt>
<pdfrwt beam="2">  1       -2 0.17693793E-03 0.44510001E+02</pdfrwt>
<totfact> 0.12747615E+06</totfact>
</mgrwt>
</event>
<event>
 4    1  0.4604841E-002  0.5300197E+02  0.7818608E-02  0.1429791E+00
         -2   -1    0    0  501    0 -0.00000000000E+00  0.00000000000E+00  0.95452981456E+00  0.95453322068E+00  0.25500000000E-02 0.  1.
          2   -1    0    0    0  501  0.00000000000E+00 -0.00000000000E+00 -0.73575597212E+03  0.73575597212E+03  0.25500000000E-02 0.  1.
          2    1    1    2    0  502  0.19925086081E+02  0.46698553863E+01 -0.13337134397E+03  0.13493232379E+03  0.25500000000E-02 0.  1.
         -2    1    1    2  502    0 -0.19925086081E+02 -0.46698553863E+01 -0.60143009834E+03  0.60177818156E+03  0.25500000000E-02 0.  1.
<mgrwt>
<rscale>  0 0.53001972E+02</rscale>
<asrwt>0</asrwt>
<pdfrwt beam="2">  1        2 0.11319277E+00 0.53001972E+02</pdfrwt>
<pdfrwt beam="1">  1       -2 0.14685159E-03 0.53001972E+02</pdfrwt>
<totfact> 0.96262970E+05</totfact>
</mgrwt>
</event>
<event>
 4    1  0.4604841E-002  0.6869092E+02  0.7818608E-02  0.1364602E+00
          2   -1    0    0    0  501  0.00000000000E+00  0.00000000000E+00  0.66988450231E+03  0.66988450231E+03  0.25500000000E-02 0. -1.
         -2   -1    0    0  501    0 -0.00000000000E+00 -0.00000000000E+00 -0.17609156818E+01  0.17609175281E+01  0.25500000000E-02 0. -1.
          2    1    1    2    0  502 -0.75670989690E+01  0.21071848044E+02  0.58872150619E+03  0.58914709167E+03  0.25500000000E-02 0. -1.
         -2    1    1    2  502    0  0.75670989690E+01 -0.21071848044E+02  0.79402080437E+02  0.82498328171E+02  0.25500000000E-02 0. -1.
<mgrwt>
<rscale>  0 0.68690924E+02</rscale>
<asrwt>0</asrwt>
<pdfrwt beam="1">  1        2 0.10305913E+00 0.68690924E+02</pdfrwt>
<pdfrwt beam="2">  1       -2 0.27091032E-03 0.68690924E+02</pdfrwt>
<totfact> 0.48997760E+05</totfact>
</mgrwt>
</event>
<event>
 4    1  0.4604841E-002  0.1325119E+03  0.7818608E-02  0.1223775E+00
          2   -1    0    0    0  501  0.00000000000E+00  0.00000000000E+00  0.10514838300E+04  0.10514838300E+04  0.25500000000E-02 0.  1.
         -2   -1    0    0  501    0 -0.00000000000E+00 -0.00000000000E+00 -0.41749127237E+01  0.41749135024E+01  0.25500000000E-02 0.  1.
          2    1    1    2    0  502 -0.34791052611E+02 -0.26862147319E+02  0.91860909956E+03  0.91966008400E+03  0.25500000000E-02 0. -1.
         -2    1    1    2  502    0  0.34791052611E+02  0.26862147319E+02  0.12869981769E+03  0.13599865948E+03  0.25500000000E-02 0. -1.
<mgrwt>
<rscale>  0 0.13251194E+03</rscale>
<asrwt>0</asrwt>
<pdfrwt beam="1">  1        2 0.16176686E+00 0.13251194E+03</pdfrwt>
<pdfrwt beam="2">  1       -2 0.64229385E-03 0.13251194E+03</pdfrwt>
<totfact> 0.91876130E+04</totfact>
</mgrwt>
</event>
<event>
 4    1  0.4604841E-002  0.7517915E+02  0.7818608E-02  0.1343317E+00
         -2   -1    0    0  501    0 -0.00000000000E+00  0.00000000000E+00  0.71760019518E+01  0.71760024048E+01  0.25500000000E-02 0. -1.
          2   -1    0    0    0  501  0.00000000000E+00 -0.00000000000E+00 -0.19690297028E+03  0.19690297030E+03  0.25500000000E-02 0. -1.
          2    1    1    2    0  502  0.16997470736E+02  0.12894299667E+02 -0.17887485585E+03  0.18014269632E+03  0.25500000000E-02 0. -1.
         -2    1    1    2  502    0 -0.16997470736E+02 -0.12894299667E+02 -0.10852112479E+02  0.23936276383E+02  0.25500000000E-02 0. -1.
<mgrwt>
<rscale>  0 0.75179150E+02</rscale>
<asrwt>0</asrwt>
<pdfrwt beam="2">  1        2 0.30292761E-01 0.75179150E+02</pdfrwt>
<pdfrwt beam="1">  1       -2 0.11040005E-02 0.75179150E+02</pdfrwt>
<totfact> 0.25704519E+05</totfact>
</mgrwt>
</event>
<event>
 4    1  0.4604841E-002  0.4613815E+02  0.7818608E-02  0.1467359E+00
          2   -1    0    0    0  501  0.00000000000E+00  0.00000000000E+00  0.36774711421E+03  0.36774711422E+03  0.25500000000E-02 0. -1.
         -2   -1    0    0  501    0 -0.00000000000E+00 -0.00000000000E+00 -0.14471404951E+01  0.14471427417E+01  0.25500000000E-02 0. -1.
          2    1    1    2    0  502  0.19076261855E+02 -0.84062510706E+01  0.26220862785E+03  0.26303599250E+03  0.25500000000E-02 0.  1.
         -2    1    1    2  502    0 -0.19076261855E+02  0.84062510706E+01  0.10409134587E+03  0.10615826447E+03  0.25500000000E-02 0.  1.
<mgrwt>
<rscale>  0 0.46138147E+02</rscale>
<asrwt>0</asrwt>
<pdfrwt beam="1">  1        2 0.56576459E-01 0.46138147E+02</pdfrwt>
<pdfrwt beam="2">  1       -2 0.22263725E-03 0.46138147E+02</pdfrwt>
<totfact> 0.11071721E+06</totfact>
</mgrwt>
</event>
<event>
 4    1  0.4604841E-002  0.4352715E+02  0.7818608E-02  0.1483752E+00
          2   -1    0    0    0  501  0.00000000000E+00  0.00000000000E+00  0.64696936011E+03  0.64696936012E+03  0.25500000000E-02 0. -1.
         -2   -1    0    0  501    0 -0.00000000000E+00 -0.00000000000E+00 -0.73210835610E+00  0.73211279703E+00  0.25500000000E-02 0. -1.
          2    1    1    2    0  502  0.11638011364E+02 -0.17098554914E+02  0.42387688680E+03  0.42438121902E+03  0.25500000000E-02 0. -1.
         -2    1    1    2  502    0 -0.11638011364E+02  0.17098554914E+02  0.22236036496E+03  0.22332025390E+03  0.25500000000E-02 0. -1.
<mgrwt>
<rscale>  0 0.43527146E+02</rscale>
<asrwt>0</asrwt>
<pdfrwt beam="1">  1        2 0.99533673E-01 0.43527146E+02</pdfrwt>
<pdfrwt beam="2">  1       -2 0.11263248E-03 0.43527146E+02</pdfrwt>
<totfact> 0.15166292E+06</totfact>
</mgrwt>
</event>
<event>
 4    1  0.4604841E-002  0.4441328E+02  0.7818608E-02  0.1478038E+00
         -2   -1    0    0  501    0 -0.00000000000E+00  0.00000000000E+00  0.18940777737E+01  0.18940794903E+01  0.25500000000E-02 0. -1.
          2   -1    0    0    0  501  0.00000000000E+00 -0.00000000000E+00 -0.26035608411E+03  0.26035608412E+03  0.25500000000E-02 0. -1.
          2    1    1    2    0  502 -0.89090801136E+01  0.20316585588E+02 -0.12332761041E+03  0.12530696252E+03  0.25500000000E-02 0. -1.
         -2    1    1    2  502    0  0.89090801136E+01 -0.20316585588E+02 -0.13513439592E+03  0.13694320109E+03  0.25500000000E-02 0. -1.
<mgrwt>
<rscale>  0 0.44413282E+02</rscale>
<asrwt>0</asrwt>
<pdfrwt beam="2">  1        2 0.40054754E-01 0.44413282E+02</pdfrwt>
<pdfrwt beam="1">  1       -2 0.29139692E-03 0.44413282E+02</pdfrwt>
<totfact> 0.10796756E+06</totfact>
</mgrwt>
</event>
<event>
 4    1  0.4604841E-002  0.5007462E+02  0.7818608E-02  0.1444939E+00
         -2   -1    0    0  501    0 -0.00000000000E+00  0.00000000000E+00  0.72959879086E+00  0.72960324707E+00  0.25500000000E-02 0.  1.
          2   -1    0    0    0  501  0.00000000000E+00 -0.00000000000E+00 -0.85919147219E+03  0.85919147219E+03  0.25500000000E-02 0.  1.
          2    1    1    2    0  502  0.55065968645E+01  0.20437640359E+02 -0.65888915738E+03  0.65922905084E+03  0.25500000000E-02 0. -1.
         -2    1    1    2  502    0 -0.55065968645E+01 -0.20437640359E+02 -0.19957271601E+03  0.20069202460E+03  0.25500000000E-02 0. -1.
<mgrwt>
<rscale>  0 0.50074623E+02</rscale>
<asrwt>0</asrwt>
<pdfrwt beam="2">  1        2 0.13218249E+00 0.50074623E+02</pdfrwt>
<pdfrwt beam="1">  1       -2 0.11224700E-03 0.50074623E+02</pdfrwt>
<totfact> 0.11377973E+06</totfact>
</mgrwt>
</event>
<event>
 4    1  0.4604841E-002  0.1562938E+03  0.7818608E-02  0.1192946E+00
         -2   -1    0    0  501    0 -0.00000000000E+00  0.00000000000E+00  0.55237132674E+01  0.55237138560E+01  0.25500000000E-02 0.  1.
          2   -1    0    0    0  501  0.00000000000E+00 -0.00000000000E+00 -0.11055862550E+04  0.11055862550E+04  0.25500000000E-02 0.  1.
          2    1    1    2    0  502 -0.23811456168E+02  0.72769526223E+02 -0.66120473000E+03  0.66562307981E+03  0.25500000000E-02 0.  1.
         -2    1    1    2  502    0  0.23811456168E+02 -0.72769526223E+02 -0.43885781174E+03  0.44548688906E+03  0.25500000000E-02 0.  1.
<mgrwt>
<rscale>  0 0.15629385E+03</rscale>
<asrwt>0</asrwt>
<pdfrwt beam="2">  1        2 0.17009002E+00 0.15629385E+03</pdfrwt>
<pdfrwt beam="1">  1       -2 0.84980297E-03 0.15629385E+03</pdfrwt>
<totfact> 0.58321832E+04</totfact>
</mgrwt>
</event>
<event>
 4    1  0.4604841E-002  0.4844317E+02  0.7818608E-02  0.1453924E+00
         -2   -1    0    0  501    0 -0.00000000000E+00  0.00000000000E+00  0.12590230392E+01  0.12590256216E+01  0.25500000000E-02 0.  1.
          2   -1    0    0    0  501  0.00000000000E+00 -0.00000000000E+00 -0.46598400727E+03  0.46598400728E+03  0.25500000000E-02 0.  1.
          2    1    1    2    0  502  0.22836891885E+02 -0.74309570520E+01 -0.20194965848E+03  0.20337258251E+03  0.25500000000E-02 0. -1.
         -2    1    1    2  502    0 -0.22836891885E+02  0.74309570520E+01 -0.26277532576E+03  0.26387045039E+03  0.25500000000E-02 0. -1.
<mgrwt>
<rscale>  0 0.48443171E+02</rscale>
<asrwt>0</asrwt>
<pdfrwt beam="2">  1        2 0.71689710E-01 0.48443171E+02</pdfrwt>
<pdfrwt beam="1">  1       -2 0.19369642E-03 0.48443171E+02</pdfrwt>
<totfact> 0.10622635E+06</totfact>
</mgrwt>
</event>
<event>
 4    1  0.4604841E-002  0.6229105E+03  0.7818608E-02  0.9858982E-01
         -2   -1    0    0  501    0 -0.00000000000E+00  0.00000000000E+00  0.34372596478E+02  0.34372596573E+02  0.25500000000E-02 0. -1.
          2   -1    0    0    0  501  0.00000000000E+00 -0.00000000000E+00 -0.28221428272E+04  0.28221428272E+04  0.25500000000E-02 0. -1.
          2    1    1    2    0  502 -0.70591594253E+02  0.25927033674E+03 -0.67171818996E+03  0.72347052975E+03  0.25500000000E-02 0.  1.
         -2    1    1    2  502    0  0.70591594253E+02 -0.25927033674E+03 -0.21160520408E+04  0.21330448940E+04  0.25500000000E-02 0.  1.
<mgrwt>
<rscale>  0 0.62291051E+03</rscale>
<asrwt>0</asrwt>
<pdfrwt beam="2">  1        2 0.43417564E+00 0.62291051E+03</pdfrwt>
<pdfrwt beam="1">  1       -2 0.52880940E-02 0.62291051E+03</pdfrwt>
<totfact> 0.45062467E+02</totfact>
</mgrwt>
</event>
<event>
 4    1  0.4604841E-002  0.5565166E+02  0.7818608E-02  0.1417042E+00
          2   -1    0    0    0  501  0.00000000000E+00  0.00000000000E+00  0.21544501602E+03  0.21544501603E+03  0.25500000000E-02 0.  1.
         -2   -1    0    0  501    0 -0.00000000000E+00 -0.00000000000E+00 -0.35938487721E+01  0.35938496767E+01  0.25500000000E-02 0.  1.
          2    1    1    2    0  502 -0.95378305550E+01  0.25827964617E+02  0.90072720341E+02  0.94186776800E+02  0.25500000000E-02 0.  1.
         -2    1    1    2  502    0  0.95378305550E+01 -0.25827964617E+02  0.12177844690E+03  0.12485208891E+03  0.25500000000E-02 0.  1.
<mgrwt>
<rscale>  0 0.55651663E+02</rscale>
<asrwt>0</asrwt>
<pdfrwt beam="1">  1        2 0.33145386E-01 0.55651663E+02</pdfrwt>
<pdfrwt beam="2">  1       -2 0.55289990E-03 0.55651663E+02</pdfrwt>
<totfact> 0.57636079E+05</totfact>
</mgrwt>
</event>
<event>
 4    1  0.4604841E-002  0.6185025E+02  0.7818608E-02  0.1390227E+00
          2   -1    0    0    0  501  0.00000000000E+00  0.00000000000E+00  0.12729647616E+04  0.12729647616E+04  0.25500000000E-02 0. -1.
         -2   -1    0    0  501    0 -0.00000000000E+00 -0.00000000000E+00 -0.75128598219E+00  0.75129030975E+00  0.25500000000E-02 0. -1.
          2    1    1    2    0  502  0.11040358039E+02  0.24890785546E+02  0.33420039914E+03  0.33530783991E+03  0.25500000000E-02 0.  1.
         -2    1    1    2  502    0 -0.11040358039E+02 -0.24890785546E+02  0.93801307644E+03  0.93840821196E+03  0.25500000000E-02 0.  1.
<mgrwt>
<rscale>  0 0.61850249E+02</rscale>
<asrwt>0</asrwt>
<pdfrwt beam="1">  1        2 0.19584043E+00 0.61850249E+02</pdfrwt>
<pdfrwt beam="2">  1       -2 0.11558297E-03 0.61850249E+02</pdfrwt>
<totfact> 0.67167645E+05</totfact>
</mgrwt>
</event>
<event>
 4    1  0.4604841E-002  0.4672824E+02  0.7818608E-02  0.1463832E+00
         -2   -1    0    0  501    0 -0.00000000000E+00  0.00000000000E+00  0.12645820908E+01  0.12645846618E+01  0.25500000000E-02 0.  1.
          2   -1    0    0    0  501  0.00000000000E+00 -0.00000000000E+00 -0.43166956304E+03  0.43166956304E+03  0.25500000000E-02 0.  1.
          2    1    1    2    0  502  0.18245170632E+02 -0.14413472953E+02 -0.23642646637E+03  0.23756706098E+03  0.25500000000E-02 0. -1.
         -2    1    1    2  502    0 -0.18245170632E+02  0.14413472953E+02 -0.19397851457E+03  0.19536708673E+03  0.25500000000E-02 0. -1.
<mgrwt>
<rscale>  0 0.46728242E+02</rscale>
<asrwt>0</asrwt>
<pdfrwt beam="2">  1        2 0.66410585E-01 0.46728242E+02</pdfrwt>
<pdfrwt beam="1">  1       -2 0.19455163E-03 0.46728242E+02</pdfrwt>
<totfact> 0.11324339E+06</totfact>
</mgrwt>
</event>
<event>
 4    1  0.4604841E-002  0.5238692E+02  0.7818608E-02  0.1432876E+00
          2   -1    0    0    0  501  0.00000000000E+00  0.00000000000E+00  0.93894102086E+03  0.93894102086E+03  0.25500000000E-02 0. -1.
         -2   -1    0    0  501    0 -0.00000000000E+00 -0.00000000000E+00 -0.73071181311E+00  0.73071626252E+00  0.25500000000E-02 0. -1.
          2    1    1    2    0  502 -0.13084692711E+01 -0.26125637642E+02  0.44479819136E+03  0.44556670890E+03  0.25500000000E-02 0. -1.
         -2    1    1    2  502    0  0.13084692711E+01  0.26125637642E+02  0.49341211768E+03  0.49410502822E+03  0.25500000000E-02 0. -1.
<mgrwt>
<rscale>  0 0.52386922E+02</rscale>
<asrwt>0</asrwt>
<pdfrwt beam="1">  1        2 0.14445172E+00 0.52386922E+02</pdfrwt>
<pdfrwt beam="2">  1       -2 0.11241812E-03 0.52386922E+02</pdfrwt>
<totfact> 0.10274859E+06</totfact>
</mgrwt>
</event>
<event>
 4    1  0.4604841E-002  0.5918781E+02  0.7818608E-02  0.1401272E+00
         -2   -1    0    0  501    0 -0.00000000000E+00  0.00000000000E+00  0.51571472016E+02  0.51571472079E+02  0.25500000000E-02 0. -1.
          2   -1    0    0    0  501  0.00000000000E+00 -0.00000000000E+00 -0.16982240626E+02  0.16982240818E+02  0.25500000000E-02 0. -1.
          2    1    1    2    0  502 -0.83430859723E+01 -0.26501920886E+02  0.54919094564E+01  0.28321722585E+02  0.25500000000E-02 0. -1.
         -2    1    1    2  502    0  0.83430859723E+01  0.26501920886E+02  0.29097321934E+02  0.40231990311E+02  0.25500000000E-02 0. -1.
<mgrwt>
<rscale>  0 0.59187808E+02</rscale>
<asrwt>0</asrwt>
<pdfrwt beam="2">  1        2 0.26126524E-02 0.59187808E+02</pdfrwt>
<pdfrwt beam="1">  1       -2 0.79340727E-02 0.59187808E+02</pdfrwt>
<totfact> 0.27007218E+05</totfact>
</mgrwt>
</event>
<event>
 4    1  0.4604841E-002  0.4326602E+02  0.7818608E-02  0.1485466E+00
          2   -1    0    0    0  501  0.00000000000E+00  0.00000000000E+00  0.13034365875E+04  0.13034365875E+04  0.25500000000E-02 0.  1.
         -2   -1    0    0  501    0 -0.00000000000E+00 -0.00000000000E+00 -0.35903638832E+00  0.35904544370E+00  0.25500000000E-02 0.  1.
          2    1    1    2    0  502 -0.10340072778E+02  0.17978679130E+02  0.46617653883E+03  0.46663767033E+03  0.25500000000E-02 0. -1.
         -2    1    1    2  502    0  0.10340072778E+02 -0.17978679130E+02  0.83690101227E+03  0.83715796261E+03  0.25500000000E-02 0. -1.
<mgrwt>
<rscale>  0 0.43266018E+02</rscale>
<asrwt>0</asrwt>
<pdfrwt beam="1">  1        2 0.20052839E+00 0.43266018E+02</pdfrwt>
<pdfrwt beam="2">  1       -2 0.55237152E-04 0.43266018E+02</pdfrwt>
<totfact> 0.16233557E+06</totfact>
</mgrwt>
</event>
<event>
 4    1  0.4604841E-002  0.1445311E+03  0.7818608E-02  0.1207359E+00
         -2   -1    0    0  501    0 -0.00000000000E+00  0.00000000000E+00  0.11796239443E+02  0.11796239718E+02  0.25500000000E-02 0. -1.
          2   -1    0    0    0  501  0.00000000000E+00 -0.00000000000E+00 -0.44270956547E+03  0.44270956548E+03  0.25500000000E-02 0. -1.
          2    1    1    2    0  502 -0.41719007069E+01 -0.30755208225E+02 -0.42068298380E+03  0.42182633921E+03  0.25500000000E-02 0.  1.
         -2    1    1    2  502    0  0.41719007069E+01  0.30755208225E+02 -0.10230342230E+02  0.32679465986E+02  0.25500000000E-02 0.  1.
<mgrwt>
<rscale>  0 0.14453108E+03</rscale>
<asrwt>0</asrwt>
<pdfrwt beam="2">  1        2 0.68109151E-01 0.14453108E+03</pdfrwt>
<pdfrwt beam="1">  1       -2 0.18148064E-02 0.14453108E+03</pdfrwt>
<totfact> 0.59144380E+04</totfact>
</mgrwt>
</event>
<event>
 4    1  0.4604841E-002  0.4133094E+02  0.7818608E-02  0.1498639E+00
          2   -1    0    0    0  501  0.00000000000E+00  0.00000000000E+00  0.11619577943E+02  0.11619578223E+02  0.25500000000E-02 0. -1.
         -2   -1    0    0  501    0 -0.00000000000E+00 -0.00000000000E+00 -0.36753632479E+02  0.36753632568E+02  0.25500000000E-02 0. -1.
          2    1    1    2    0  502 -0.32220258432E+00 -0.20530387828E+02 -0.98319593812E+01  0.22765501766E+02  0.25500000000E-02 0. -1.
         -2    1    1    2  502    0  0.32220258432E+00  0.20530387828E+02 -0.15302095155E+02  0.25607709025E+02  0.25500000000E-02 0. -1.
<mgrwt>
<rscale>  0 0.41330943E+02</rscale>
<asrwt>0</asrwt>
<pdfrwt beam="1">  1        2 0.17876274E-02 0.41330943E+02</pdfrwt>
<pdfrwt beam="2">  1       -2 0.56544050E-02 0.41330943E+02</pdfrwt>
<totfact> 0.67319506E+05</totfact>
</mgrwt>
</event>
<event>
 4    1  0.4604841E-002  0.6401344E+02  0.7818608E-02  0.1381721E+00
         -2   -1    0    0  501    0 -0.00000000000E+00  0.00000000000E+00  0.57896919756E+03  0.57896919756E+03  0.25500000000E-02 0. -1.
          2   -1    0    0    0  501  0.00000000000E+00 -0.00000000000E+00 -0.17694024728E+01  0.17694043103E+01  0.25500000000E-02 0. -1.
          2    1    1    2    0  502 -0.21619247125E+02  0.47002511442E+01  0.78771408602E+02  0.81819429396E+02  0.25500000000E-02 0. -1.
         -2    1    1    2  502    0  0.21619247125E+02 -0.47002511442E+01  0.49842838648E+03  0.49891917248E+03  0.25500000000E-02 0. -1.
<mgrwt>
<rscale>  0 0.64013438E+02</rscale>
<asrwt>0</asrwt>
<pdfrwt beam="2">  1        2 0.27221580E-03 0.64013438E+02</pdfrwt>
<pdfrwt beam="1">  1       -2 0.89072220E-01 0.64013438E+02</pdfrwt>
<totfact> 0.79630937E+04</totfact>
</mgrwt>
</event>
<event>
 4    1  0.4604841E-002  0.6021906E+02  0.7818608E-02  0.1396915E+00
          2   -1    0    0    0  501  0.00000000000E+00  0.00000000000E+00  0.62754662389E+01  0.62754667570E+01  0.25500000000E-02 0.  1.
         -2   -1    0    0  501    0 -0.00000000000E+00 -0.00000000000E+00 -0.14446474635E+03  0.14446474637E+03  0.25500000000E-02 0.  1.
          2    1    1    2    0  502  0.25765542136E+02  0.21322003781E+01 -0.10772622874E+03  0.11078515156E+03  0.25500000000E-02 0.  1.
         -2    1    1    2  502    0 -0.25765542136E+02 -0.21322003781E+01 -0.30463051368E+02  0.39955061571E+02  0.25500000000E-02 0.  1.
<mgrwt>
<rscale>  0 0.60219056E+02</rscale>
<asrwt>0</asrwt>
<pdfrwt beam="1">  1        2 0.96545650E-03 0.60219056E+02</pdfrwt>
<pdfrwt beam="2">  1       -2 0.22225343E-01 0.60219056E+02</pdfrwt>
<totfact> 0.20068730E+05</totfact>
</mgrwt>
</event>
<event>
 4    1  0.4604841E-002  0.8855815E+02  0.7818608E-02  0.1306381E+00
          2   -1    0    0    0  501  0.00000000000E+00  0.00000000000E+00  0.22928217030E+04  0.22928217030E+04  0.25500000000E-02 0.  1.
         -2   -1    0    0  501    0 -0.00000000000E+00 -0.00000000000E+00 -0.85511765835E+00  0.85512146045E+00  0.25500000000E-02 0.  1.
          2    1    1    2    0  502 -0.38404165871E+02  0.18488566047E+02  0.14567101579E+04  0.14573335895E+04  0.25500000000E-02 0.  1.
         -2    1    1    2  502    0  0.38404165871E+02 -0.18488566047E+02  0.83525642747E+03  0.83634323496E+03  0.25500000000E-02 0.  1.
<mgrwt>
<rscale>  0 0.88558155E+02</rscale>
<asrwt>0</asrwt>
<pdfrwt beam="1">  1        2 0.35274238E+00 0.88558155E+02</pdfrwt>
<pdfrwt beam="2">  1       -2 0.13155664E-03 0.88558155E+02</pdfrwt>
<totfact> 0.18239649E+05</totfact>
</mgrwt>
</event>
<event>
 4    1  0.4604841E-002  0.6691803E+02  0.7818608E-02  0.1370899E+00
          2   -1    0    0    0  501  0.00000000000E+00  0.00000000000E+00  0.18221049946E+04  0.18221049946E+04  0.25500000000E-02 0.  1.
         -2   -1    0    0  501    0 -0.00000000000E+00 -0.00000000000E+00 -0.61439970587E+00  0.61440499760E+00  0.25500000000E-02 0.  1.
          2    1    1    2    0  502 -0.18865515365E+02 -0.17367900668E+02  0.32531387820E+03  0.32632295506E+03  0.25500000000E-02 0. -1.
         -2    1    1    2  502    0  0.18865515365E+02  0.17367900668E+02  0.14961767167E+04  0.14963964446E+04  0.25500000000E-02 0. -1.
<mgrwt>
<rscale>  0 0.66918027E+02</rscale>
<asrwt>0</asrwt>
<pdfrwt beam="1">  1        2 0.28031979E+00 0.66918027E+02</pdfrwt>
<pdfrwt beam="2">  1       -2 0.94524807E-04 0.66918027E+02</pdfrwt>
<totfact> 0.47500459E+05</totfact>
</mgrwt>
</event>
<event>
 4    1  0.4604841E-002  0.7605776E+02  0.7818608E-02  0.1340626E+00
         -2   -1    0    0  501    0 -0.00000000000E+00  0.00000000000E+00  0.41400931178E+03  0.41400931179E+03  0.25500000000E-02 0.  1.
          2   -1    0    0    0  501  0.00000000000E+00 -0.00000000000E+00 -0.34931473544E+01  0.34931482851E+01  0.25500000000E-02 0.  1.
          2    1    1    2    0  502 -0.20793169966E+02  0.29615751693E+02  0.26944913502E+03  0.27186813906E+03  0.25500000000E-02 0.  1.
         -2    1    1    2  502    0  0.20793169966E+02 -0.29615751693E+02  0.14106702941E+03  0.14563432102E+03  0.25500000000E-02 0.  1.
<mgrwt>
<rscale>  0 0.76057760E+02</rscale>
<asrwt>0</asrwt>
<pdfrwt beam="2">  1        2 0.53740743E-03 0.76057760E+02</pdfrwt>
<pdfrwt beam="1">  1       -2 0.63693731E-01 0.76057760E+02</pdfrwt>
<totfact> 0.66455848E+04</totfact>
</mgrwt>
</event>
<event>
 4    1  0.4604841E-002  0.6126155E+02  0.7818608E-02  0.1392613E+00
          2   -1    0    0    0  501  0.00000000000E+00  0.00000000000E+00  0.14045617805E+04  0.14045617805E+04  0.25500000000E-02 0. -1.
         -2   -1    0    0  501    0 -0.00000000000E+00 -0.00000000000E+00 -0.66799541893E+00  0.66800028608E+00  0.25500000000E-02 0. -1.
          2    1    1    2    0  502  0.15073418327E+02 -0.26543954974E+02  0.64366957133E+03  0.64439297524E+03  0.25500000000E-02 0.  1.
         -2    1    1    2  502    0 -0.15073418327E+02  0.26543954974E+02  0.76022421379E+03  0.76083680558E+03  0.25500000000E-02 0.  1.
<mgrwt>
<rscale>  0 0.61261546E+02</rscale>
<asrwt>0</asrwt>
<pdfrwt beam="1">  1        2 0.21608637E+00 0.61261546E+02</pdfrwt>
<pdfrwt beam="2">  1       -2 0.10276893E-03 0.61261546E+02</pdfrwt>
<totfact> 0.67324873E+05</totfact>
</mgrwt>
</event>
<event>
 4    1  0.4604841E-002  0.4651601E+02  0.7818608E-02  0.1465094E+00
         -2   -1    0    0  501    0 -0.00000000000E+00  0.00000000000E+00  0.56729692297E+00  0.56730265407E+00  0.25500000000E-02 0.  1.
          2   -1    0    0    0  501  0.00000000000E+00 -0.00000000000E+00 -0.95352537334E+03  0.95352537335E+03  0.25500000000E-02 0.  1.
          2    1    1    2    0  502  0.18766598943E+02  0.13615845820E+02 -0.51406662019E+03  0.51458922112E+03  0.25500000000E-02 0.  1.
         -2    1    1    2  502    0 -0.18766598943E+02 -0.13615845820E+02 -0.43889145623E+03  0.43950345488E+03  0.25500000000E-02 0.  1.
<mgrwt>
<rscale>  0 0.46516008E+02</rscale>
<asrwt>0</asrwt>
<pdfrwt beam="2">  1        2 0.14669493E+00 0.46516008E+02</pdfrwt>
<pdfrwt beam="1">  1       -2 0.87277654E-04 0.46516008E+02</pdfrwt>
<totfact> 0.13787541E+06</totfact>
</mgrwt>
</event>
<event>
 4    1  0.4604841E-002  0.5533320E+02  0.7818608E-02  0.1418530E+00
          2   -1    0    0    0  501  0.00000000000E+00  0.00000000000E+00  0.21133772290E+01  0.21133787675E+01  0.25500000000E-02 0. -1.
         -2   -1    0    0  501    0 -0.00000000000E+00 -0.00000000000E+00 -0.36218827039E+03  0.36218827040E+03  0.25500000000E-02 0. -1.
          2    1    1    2    0  502  0.20757548352E+02  0.17103137146E+02 -0.13734549679E+03  0.13995420182E+03  0.25500000000E-02 0. -1.
         -2    1    1    2  502    0 -0.20757548352E+02 -0.17103137146E+02 -0.22272939637E+03  0.22434744734E+03  0.25500000000E-02 0. -1.
<mgrwt>
<rscale>  0 0.55333199E+02</rscale>
<asrwt>0</asrwt>
<pdfrwt beam="1">  1        2 0.32513537E-03 0.55333199E+02</pdfrwt>
<pdfrwt beam="2">  1       -2 0.55721223E-01 0.55333199E+02</pdfrwt>
<totfact> 0.16176665E+05</totfact>
</mgrwt>
</event>
<event>
 4    1  0.4604841E-002  0.5285014E+02  0.7818608E-02  0.1430548E+00
          2   -1    0    0    0  501  0.00000000000E+00  0.00000000000E+00  0.91602873296E+03  0.91602873296E+03  0.25500000000E-02 0.  1.
         -2   -1    0    0  501    0 -0.00000000000E+00 -0.00000000000E+00 -0.76229300835E+00  0.76229727343E+00  0.25500000000E-02 0.  1.
          2    1    1    2    0  502  0.19067871721E+02 -0.11274998741E+02  0.70755935600E+03  0.70790603303E+03  0.25500000000E-02 0. -1.
         -2    1    1    2  502    0 -0.19067871721E+02  0.11274998741E+02  0.20770708395E+03  0.20888499721E+03  0.25500000000E-02 0. -1.
<mgrwt>
<rscale>  0 0.52850137E+02</rscale>
<asrwt>0</asrwt>
<pdfrwt beam="1">  1        2 0.14092802E+00 0.52850137E+02</pdfrwt>
<pdfrwt beam="2">  1       -2 0.11727574E-03 0.52850137E+02</pdfrwt>
<totfact> 0.10030326E+06</totfact>
</mgrwt>
</event>
<event>
 4    1  0.4604841E-002  0.4920583E+02  0.7818608E-02  0.1449673E+00
         -2   -1    0    0  501    0 -0.00000000000E+00  0.00000000000E+00  0.46161845438E+00  0.46162549748E+00  0.25500000000E-02 0. -1.
          2   -1    0    0    0  501  0.00000000000E+00 -0.00000000000E+00 -0.13112536218E+04  0.13112536218E+04  0.25500000000E-02 0. -1.
          2    1    1    2    0  502 -0.55059381510E+01 -0.22908020664E+02 -0.46650068014E+03  0.46709525510E+03  0.25500000000E-02 0. -1.
         -2    1    1    2  502    0  0.55059381510E+01  0.22908020664E+02 -0.84429132320E+03  0.84461999219E+03  0.25500000000E-02 0. -1.
<mgrwt>
<rscale>  0 0.49205833E+02</rscale>
<asrwt>0</asrwt>
<pdfrwt beam="2">  1        2 0.20172834E+00 0.49205833E+02</pdfrwt>
<pdfrwt beam="1">  1       -2 0.71019816E-04 0.49205833E+02</pdfrwt>
<totfact> 0.11831280E+06</totfact>
</mgrwt>
</event>
<event>
 4    1  0.4604841E-002  0.4620400E+02  0.7818608E-02  0.1466962E+00
          2   -1    0    0    0  501  0.00000000000E+00  0.00000000000E+00  0.18349983024E+04  0.18349983024E+04  0.25500000000E-02 0. -1.
         -2   -1    0    0  501    0 -0.00000000000E+00 -0.00000000000E+00 -0.29084069742E+00  0.29085187601E+00  0.25500000000E-02 0. -1.
          2    1    1    2    0  502  0.10097479360E+02  0.20700548196E+02  0.98874911536E+03  0.98901733297E+03  0.25500000000E-02 0. -1.
         -2    1    1    2  502    0 -0.10097479360E+02 -0.20700548196E+02  0.84595834637E+03  0.84627182134E+03  0.25500000000E-02 0. -1.
<mgrwt>
<rscale>  0 0.46204002E+02</rscale>
<asrwt>0</asrwt>
<pdfrwt beam="1">  1        2 0.28230723E+00 0.46204002E+02</pdfrwt>
<pdfrwt beam="2">  1       -2 0.44745615E-04 0.46204002E+02</pdfrwt>
<totfact> 0.11994853E+06</totfact>
</mgrwt>
</event>
<event>
 4    1  0.4604841E-002  0.9940130E+02  0.7818608E-02  0.1281560E+00
         -2   -1    0    0  501    0 -0.00000000000E+00  0.00000000000E+00  0.47253241255E+02  0.47253241324E+02  0.25500000000E-02 0.  1.
          2   -1    0    0    0  501  0.00000000000E+00 -0.00000000000E+00 -0.52274821397E+02  0.52274821459E+02  0.25500000000E-02 0.  1.
          2    1    1    2    0  502 -0.39690431737E+02  0.27392208358E+02 -0.14546572231E+02  0.50371283688E+02  0.25500000000E-02 0. -1.
         -2    1    1    2  502    0  0.39690431737E+02 -0.27392208358E+02  0.95249920889E+01  0.49156779095E+02  0.25500000000E-02 0. -1.
<mgrwt>
<rscale>  0 0.99401303E+02</rscale>
<asrwt>0</asrwt>
<pdfrwt beam="2">  1        2 0.80422802E-02 0.99401303E+02</pdfrwt>
<pdfrwt beam="1">  1       -2 0.72697294E-02 0.99401303E+02</pdfrwt>
<totfact> 0.79808833E+04</totfact>
</mgrwt>
</event>
<event>
 4    1  0.4604841E-002  0.4973765E+02  0.7818608E-02  0.1446762E+00
          2   -1    0    0    0  501  0.00000000000E+00  0.00000000000E+00  0.61273909191E+01  0.61273914497E+01  0.25500000000E-02 0. -1.
         -2   -1    0    0  501    0 -0.00000000000E+00 -0.00000000000E+00 -0.10093339072E+03  0.10093339076E+03  0.25500000000E-02 0. -1.
          2    1    1    2    0  502 -0.15580953729E+02 -0.16501399031E+02 -0.69290552827E+02  0.72912570978E+02  0.25500000000E-02 0.  1.
         -2    1    1    2  502    0  0.15580953729E+02  0.16501399031E+02 -0.25515446978E+02  0.34148211227E+02  0.25500000000E-02 0.  1.
<mgrwt>
<rscale>  0 0.49737647E+02</rscale>
<asrwt>0</asrwt>
<pdfrwt beam="1">  1        2 0.94267564E-03 0.49737647E+02</pdfrwt>
<pdfrwt beam="2">  1       -2 0.15528213E-01 0.49737647E+02</pdfrwt>
<totfact> 0.35669518E+05</totfact>
</mgrwt>
</event>
<event>
 4    1  0.4604841E-002  0.4482622E+02  0.7818608E-02  0.1475429E+00
          2   -1    0    0    0  501  0.00000000000E+00  0.00000000000E+00  0.12465537997E+04  0.12465537997E+04  0.25500000000E-02 0. -1.
         -2   -1    0    0  501    0 -0.00000000000E+00 -0.00000000000E+00 -0.40298500067E+00  0.40299306851E+00  0.25500000000E-02 0. -1.
          2    1    1    2    0  502 -0.14673704296E+02  0.16787256119E+02  0.55953222569E+03  0.55997628625E+03  0.25500000000E-02 0. -1.
         -2    1    1    2  502    0  0.14673704296E+02 -0.16787256119E+02  0.68661858899E+03  0.68698050650E+03  0.25500000000E-02 0. -1.
<mgrwt>
<rscale>  0 0.44826221E+02</rscale>
<asrwt>0</asrwt>
<pdfrwt beam="1">  1        2 0.19177633E+00 0.44826221E+02</pdfrwt>
<pdfrwt beam="2">  1       -2 0.61998694E-04 0.44826221E+02</pdfrwt>
<totfact> 0.14998227E+06</totfact>
</mgrwt>
</event>
<event>
 4    1  0.4604841E-002  0.8996804E+02  0.7818608E-02  0.1302929E+00
          2   -1    0    0    0  501  0.00000000000E+00  0.00000000000E+00  0.85774833259E+03  0.85774833260E+03  0.25500000000E-02 0. -1.
         -2   -1    0    0  501    0 -0.00000000000E+00 -0.00000000000E+00 -0.23591553448E+01  0.23591567230E+01  0.25500000000E-02 0. -1.
          2    1    1    2    0  502  0.54465271272E+01  0.36637452919E+02  0.67173018318E+03  0.67275062736E+03  0.25500000000E-02 0. -1.
         -2    1    1    2  502    0 -0.54465271272E+01 -0.36637452919E+02  0.18365899407E+03  0.18735686196E+03  0.25500000000E-02 0. -1.
<mgrwt>
<rscale>  0 0.89968042E+02</rscale>
<asrwt>0</asrwt>
<pdfrwt beam="1">  1        2 0.13196129E+00 0.89968042E+02</pdfrwt>
<pdfrwt beam="2">  1       -2 0.36294706E-03 0.89968042E+02</pdfrwt>
<totfact> 0.25525229E+05</totfact>
</mgrwt>
</event>
<event>
 4    1  0.4604841E-002  0.7723079E+02  0.7818608E-02  0.1337099E+00
         -2   -1    0    0  501    0 -0.00000000000E+00  0.00000000000E+00  0.43290672725E+01  0.43290680235E+01  0.25500000000E-02 0.  1.
          2   -1    0    0    0  501  0.00000000000E+00 -0.00000000000E+00 -0.34445032784E+03  0.34445032785E+03  0.25500000000E-02 0.  1.
          2    1    1    2    0  502  0.22938534265E+02 -0.26890790631E+02 -0.24029349446E+03  0.24287909432E+03  0.25500000000E-02 0. -1.
         -2    1    1    2  502    0 -0.22938534265E+02  0.26890790631E+02 -0.99827766116E+02  0.10590030155E+03  0.25500000000E-02 0. -1.
<mgrwt>
<rscale>  0 0.77230791E+02</rscale>
<asrwt>0</asrwt>
<pdfrwt beam="2">  1        2 0.52992337E-01 0.77230791E+02</pdfrwt>
<pdfrwt beam="1">  1       -2 0.66601068E-03 0.77230791E+02</pdfrwt>
<totfact> 0.29293172E+05</totfact>
</mgrwt>
</event>
<event>
 4    1  0.4604841E-002  0.1045787E+03  0.7818608E-02  0.1270952E+00
         -2   -1    0    0  501    0 -0.00000000000E+00  0.00000000000E+00  0.38051130831E+01  0.38051139375E+01  0.25500000000E-02 0.  1.
          2   -1    0    0    0  501  0.00000000000E+00 -0.00000000000E+00 -0.71855290965E+03  0.71855290965E+03  0.25500000000E-02 0.  1.
          2    1    1    2    0  502  0.14114795525E+02  0.34135486397E+02 -0.61301145839E+03  0.61412336465E+03  0.25500000000E-02 0. -1.
         -2    1    1    2  502    0 -0.14114795525E+02 -0.34135486397E+02 -0.10173633818E+03  0.10823465894E+03  0.25500000000E-02 0. -1.
<mgrwt>
<rscale>  0 0.10457869E+03</rscale>
<asrwt>0</asrwt>
<pdfrwt beam="2">  1        2 0.11054649E+00 0.10457869E+03</pdfrwt>
<pdfrwt beam="1">  1       -2 0.58540265E-03 0.10457869E+03</pdfrwt>
<totfact> 0.16574138E+05</totfact>
</mgrwt>
</event>
<event>
 4    1  0.4604841E-002  0.6896095E+02  0.7818608E-02  0.1363662E+00
         -2   -1    0    0  501    0 -0.00000000000E+00  0.00000000000E+00  0.37593561768E+01  0.37593570416E+01  0.25500000000E-02 0.  1.
          2   -1    0    0    0  501  0.00000000000E+00 -0.00000000000E+00 -0.31625172201E+03  0.31625172203E+03  0.25500000000E-02 0.  1.
          2    1    1    2    0  502 -0.80810459715E+01 -0.20175800128E+02 -0.32029178663E+02  0.38707034336E+02  0.25500000000E-02 0.  1.
         -2    1    1    2  502    0  0.80810459715E+01  0.20175800128E+02 -0.28046318718E+03  0.28130404473E+03  0.25500000000E-02 0.  1.
<mgrwt>
<rscale>  0 0.68960946E+02</rscale>
<asrwt>0</asrwt>
<pdfrwt beam="2">  1        2 0.48654090E-01 0.68960946E+02</pdfrwt>
<pdfrwt beam="1">  1       -2 0.57836281E-03 0.68960946E+02</pdfrwt>
<totfact> 0.38124713E+05</totfact>
</mgrwt>
</event>
<event>
 4    1  0.4604841E-002  0.4040155E+02  0.7818608E-02  0.1505277E+00
         -2   -1    0    0  501    0 -0.00000000000E+00  0.00000000000E+00  0.10988084605E+04  0.10988084605E+04  0.25500000000E-02 0. -1.
          2   -1    0    0    0  501  0.00000000000E+00 -0.00000000000E+00 -0.37137188901E+00  0.37138064361E+00  0.25500000000E-02 0. -1.
          2    1    1    2    0  502  0.19431054146E+02 -0.54618974781E+01  0.52689619953E+03  0.52728265976E+03  0.25500000000E-02 0. -1.
         -2    1    1    2  502    0 -0.19431054146E+02  0.54618974781E+01  0.57154088910E+03  0.57189718141E+03  0.25500000000E-02 0. -1.
<mgrwt>
<rscale>  0 0.40401554E+02</rscale>
<asrwt>0</asrwt>
<pdfrwt beam="2">  1        2 0.57134838E-04 0.40401554E+02</pdfrwt>
<pdfrwt beam="1">  1       -2 0.16904737E+00 0.40401554E+02</pdfrwt>
<totfact> 0.12778414E+05</totfact>
</mgrwt>
</event>
<event>
 4    1  0.4604841E-002  0.6020699E+02  0.7818608E-02  0.1396965E+00
          2   -1    0    0    0  501  0.00000000000E+00  0.00000000000E+00  0.37503423707E+03  0.37503423707E+03  0.25500000000E-02 0. -1.
         -2   -1    0    0  501    0 -0.00000000000E+00 -0.00000000000E+00 -0.24163666940E+01  0.24163680395E+01  0.25500000000E-02 0. -1.
          2    1    1    2    0  502 -0.25616918690E+01 -0.24601731343E+02  0.29387906926E+03  0.29491814933E+03  0.25500000000E-02 0. -1.
         -2    1    1    2  502    0  0.25616918690E+01  0.24601731343E+02  0.78738801117E+02  0.82532455786E+02  0.25500000000E-02 0. -1.
<mgrwt>
<rscale>  0 0.60206993E+02</rscale>
<asrwt>0</asrwt>
<pdfrwt beam="1">  1        2 0.57697553E-01 0.60206993E+02</pdfrwt>
<pdfrwt beam="2">  1       -2 0.37174897E-03 0.60206993E+02</pdfrwt>
<totfact> 0.57324739E+05</totfact>
</mgrwt>
</event>
<event>
 4    1  0.4604841E-002  0.1805646E+03  0.7818608E-02  0.1167258E+00
         -2   -1    0    0  501    0 -0.00000000000E+00  0.00000000000E+00  0.49776965039E+02  0.49776965105E+02  0.25500000000E-02 0.  1.
          2   -1    0    0    0  501  0.00000000000E+00 -0.00000000000E+00 -0.16374829387E+03  0.16374829389E+03  0.25500000000E-02 0.  1.
          2    1    1    2    0  502  0.56721251047E+02  0.70234997734E+02 -0.57930126098E+02  0.10726674575E+03  0.25500000000E-02 0.  1.
         -2    1    1    2  502    0 -0.56721251047E+02 -0.70234997734E+02 -0.56041202729E+02  0.10625851324E+03  0.25500000000E-02 0.  1.
<mgrwt>
<rscale>  0 0.18056459E+03</rscale>
<asrwt>0</asrwt>
<pdfrwt beam="2">  1        2 0.25192045E-01 0.18056459E+03</pdfrwt>
<pdfrwt beam="1">  1       -2 0.76579947E-02 0.18056459E+03</pdfrwt>
<totfact> 0.20606020E+04</totfact>
</mgrwt>
</event>
<event>
 4    1  0.4604841E-002  0.1117388E+03  0.7818608E-02  0.1257383E+00
         -2   -1    0    0  501    0 -0.00000000000E+00  0.00000000000E+00  0.89702434280E+02  0.89702434316E+02  0.25500000000E-02 0.  1.
          2   -1    0    0    0  501  0.00000000000E+00 -0.00000000000E+00 -0.34797138329E+02  0.34797138423E+02  0.25500000000E-02 0.  1.
          2    1    1    2    0  502 -0.48414510502E+02 -0.25337624617E+02  0.14486285279E+02  0.56531517900E+02  0.25500000000E-02 0. -1.
         -2    1    1    2  502    0  0.48414510502E+02  0.25337624617E+02  0.40419010671E+02  0.67968054839E+02  0.25500000000E-02 0. -1.
<mgrwt>
<rscale>  0 0.11173877E+03</rscale>
<asrwt>0</asrwt>
<pdfrwt beam="2">  1        2 0.53534059E-02 0.11173877E+03</pdfrwt>
<pdfrwt beam="1">  1       -2 0.13800374E-01 0.11173877E+03</pdfrwt>
<totfact> 0.49922580E+04</totfact>
</mgrwt>
</event>
<event>
 4    1  0.4604841E-002  0.7404729E+02  0.7818608E-02  0.1346847E+00
          2   -1    0    0    0  501  0.00000000000E+00  0.00000000000E+00  0.24643214196E+02  0.24643214328E+02  0.25500000000E-02 0. -1.
         -2   -1    0    0  501    0 -0.00000000000E+00 -0.00000000000E+00 -0.55623837672E+02  0.55623837730E+02  0.25500000000E-02 0. -1.
          2    1    1    2    0  502 -0.18893953692E+02  0.30503082534E+02 -0.55949775761E+01  0.36314230142E+02  0.25500000000E-02 0.  1.
         -2    1    1    2  502    0  0.18893953692E+02 -0.30503082534E+02 -0.25385645900E+02  0.43952821917E+02  0.25500000000E-02 0.  1.
<mgrwt>
<rscale>  0 0.74047286E+02</rscale>
<asrwt>0</asrwt>
<pdfrwt beam="1">  1        2 0.37912637E-02 0.74047286E+02</pdfrwt>
<pdfrwt beam="2">  1       -2 0.85575135E-02 0.74047286E+02</pdfrwt>
<totfact> 0.15469185E+05</totfact>
</mgrwt>
</event>
<event>
 4    1  0.4604841E-002  0.5357073E+02  0.7818608E-02  0.1426981E+00
         -2   -1    0    0  501    0 -0.00000000000E+00  0.00000000000E+00  0.10690595957E+03  0.10690595960E+03  0.25500000000E-02 0. -1.
          2   -1    0    0    0  501  0.00000000000E+00 -0.00000000000E+00 -0.67110912988E+01  0.67110917833E+01  0.25500000000E-02 0. -1.
          2    1    1    2    0  502 -0.24214491877E+02 -0.10708047826E+02  0.58699887544E+02  0.64394725788E+02  0.25500000000E-02 0.  1.
         -2    1    1    2  502    0  0.24214491877E+02  0.10708047826E+02  0.41494980730E+02  0.49222325599E+02  0.25500000000E-02 0.  1.
<mgrwt>
<rscale>  0 0.53570726E+02</rscale>
<asrwt>0</asrwt>
<pdfrwt beam="2">  1        2 0.10324757E-02 0.53570726E+02</pdfrwt>
<pdfrwt beam="1">  1       -2 0.16447069E-01 0.53570726E+02</pdfrwt>
<totfact> 0.29303423E+05</totfact>
</mgrwt>
</event>
<event>
 4    1  0.4604841E-002  0.6947220E+02  0.7818608E-02  0.1361897E+00
          2   -1    0    0    0  501  0.00000000000E+00  0.00000000000E+00  0.61166884788E+02  0.61166884841E+02  0.25500000000E-02 0.  1.
         -2   -1    0    0  501    0 -0.00000000000E+00 -0.00000000000E+00 -0.19726307056E+02  0.19726307220E+02  0.25500000000E-02 0.  1.
          2    1    1    2    0  502 -0.32892670286E+02  0.30200888905E+01  0.33236769309E+02  0.46858633527E+02  0.25500000000E-02 0. -1.
         -2    1    1    2  502    0  0.32892670286E+02 -0.30200888905E+01  0.82038084234E+01  0.34034558534E+02  0.25500000000E-02 0. -1.
<mgrwt>
<rscale>  0 0.69472203E+02</rscale>
<asrwt>0</asrwt>
<pdfrwt beam="1">  1        2 0.94102898E-02 0.69472203E+02</pdfrwt>
<pdfrwt beam="2">  1       -2 0.30348165E-02 0.69472203E+02</pdfrwt>
<totfact> 0.22527519E+05</totfact>
</mgrwt>
</event>
<event>
 4    1  0.4604841E-002  0.5737446E+02  0.7818608E-02  0.1409192E+00
         -2   -1    0    0  501    0 -0.00000000000E+00  0.00000000000E+00  0.70713254656E+01  0.70713259253E+01  0.25500000000E-02 0.  1.
          2   -1    0    0    0  501  0.00000000000E+00 -0.00000000000E+00 -0.11637946154E+03  0.11637946156E+03  0.25500000000E-02 0.  1.
          2    1    1    2    0  502 -0.10984234737E+00 -0.27872725406E+02 -0.69256300719E+02  0.74654779370E+02  0.25500000000E-02 0. -1.
         -2    1    1    2  502    0  0.10984234737E+00  0.27872725406E+02 -0.40051835351E+02  0.48796008120E+02  0.25500000000E-02 0. -1.
<mgrwt>
<rscale>  0 0.57374457E+02</rscale>
<asrwt>0</asrwt>
<pdfrwt beam="2">  1        2 0.17904531E-01 0.57374457E+02</pdfrwt>
<pdfrwt beam="1">  1       -2 0.10878964E-02 0.57374457E+02</pdfrwt>
<totfact> 0.43919004E+05</totfact>
</mgrwt>
</event>
<event>
 4    1  0.4604841E-002  0.1260569E+03  0.7818608E-02  0.1233427E+00
          2   -1    0    0    0  501  0.00000000000E+00  0.00000000000E+00  0.20630141592E+04  0.20630141592E+04  0.25500000000E-02 0.  1.
         -2   -1    0    0  501    0 -0.00000000000E+00 -0.00000000000E+00 -0.19256207402E+01  0.19256224286E+01  0.25500000000E-02 0.  1.
          2    1    1    2    0  502  0.45148855823E+02 -0.19727793370E+02  0.16744201987E+04  0.16751449510E+04  0.25500000000E-02 0.  1.
         -2    1    1    2  502    0 -0.45148855823E+02  0.19727793370E+02  0.38666833982E+03  0.38979483070E+03  0.25500000000E-02 0.  1.
<mgrwt>
<rscale>  0 0.12605689E+03</rscale>
<asrwt>0</asrwt>
<pdfrwt beam="1">  1        2 0.31738485E+00 0.12605689E+03</pdfrwt>
<pdfrwt beam="2">  1       -2 0.29625129E-03 0.12605689E+03</pdfrwt>
<totfact> 0.80037531E+04</totfact>
</mgrwt>
</event>
<event>
 4    1  0.4604841E-002  0.6835921E+02  0.7818608E-02  0.1365763E+00
          2   -1    0    0    0  501  0.00000000000E+00  0.00000000000E+00  0.93828072799E+03  0.93828072799E+03  0.25500000000E-02 0.  1.
         -2   -1    0    0  501    0 -0.00000000000E+00 -0.00000000000E+00 -0.12450902040E+01  0.12450928152E+01  0.25500000000E-02 0.  1.
          2    1    1    2    0  502  0.33862390740E+01 -0.29918193413E+02  0.69084744171E+03  0.69150325569E+03  0.25500000000E-02 0.  1.
         -2    1    1    2  502    0 -0.33862390740E+01  0.29918193413E+02  0.24618819608E+03  0.24802256512E+03  0.25500000000E-02 0.  1.
<mgrwt>
<rscale>  0 0.68359209E+02</rscale>
<asrwt>0</asrwt>
<pdfrwt beam="1">  1        2 0.14435075E+00 0.68359209E+02</pdfrwt>
<pdfrwt beam="2">  1       -2 0.19155271E-03 0.68359209E+02</pdfrwt>
<totfact> 0.52570287E+05</totfact>
</mgrwt>
</event>
<event>
 4    1  0.4604841E-002  0.6638931E+02  0.7818608E-02  0.1372820E+00
         -2   -1    0    0  501    0 -0.00000000000E+00  0.00000000000E+00  0.87176041169E+02  0.87176041207E+02  0.25500000000E-02 0. -1.
          2   -1    0    0    0  501  0.00000000000E+00 -0.00000000000E+00 -0.12639771138E+02  0.12639771395E+02  0.25500000000E-02 0. -1.
          2    1    1    2    0  502  0.31293958059E+02 -0.51632264571E+01  0.22543541911E+02  0.38912491655E+02  0.25500000000E-02 0. -1.
         -2    1    1    2  502    0 -0.31293958059E+02  0.51632264571E+01  0.51992728120E+02  0.60903320947E+02  0.25500000000E-02 0. -1.
<mgrwt>
<rscale>  0 0.66389313E+02</rscale>
<asrwt>0</asrwt>
<pdfrwt beam="2">  1        2 0.19445801E-02 0.66389313E+02</pdfrwt>
<pdfrwt beam="1">  1       -2 0.13411699E-01 0.66389313E+02</pdfrwt>
<totfact> 0.18200048E+05</totfact>
</mgrwt>
</event>
<event>
 4    1  0.4604841E-002  0.6550194E+02  0.7818608E-02  0.1376093E+00
          2   -1    0    0    0  501  0.00000000000E+00  0.00000000000E+00  0.15078491685E+02  0.15078491900E+02  0.25500000000E-02 0. -1.
         -2   -1    0    0  501    0 -0.00000000000E+00 -0.00000000000E+00 -0.71136151140E+02  0.71136151186E+02  0.25500000000E-02 0. -1.
          2    1    1    2    0  502 -0.32335768910E+02 -0.40414052577E+01 -0.32332463157E+02  0.45905588851E+02  0.25500000000E-02 0.  1.
         -2    1    1    2  502    0  0.32335768910E+02  0.40414052577E+01 -0.23725196298E+02  0.40309054235E+02  0.25500000000E-02 0.  1.
<mgrwt>
<rscale>  0 0.65501935E+02</rscale>
<asrwt>0</asrwt>
<pdfrwt beam="1">  1        2 0.23197680E-02 0.65501935E+02</pdfrwt>
<pdfrwt beam="2">  1       -2 0.10944023E-01 0.65501935E+02</pdfrwt>
<totfact> 0.19740621E+05</totfact>
</mgrwt>
</event>
<event>
 4    1  0.4604841E-002  0.7364762E+02  0.7818608E-02  0.1348111E+00
          2   -1    0    0    0  501  0.00000000000E+00  0.00000000000E+00  0.41751200169E+02  0.41751200247E+02  0.25500000000E-02 0. -1.
         -2   -1    0    0  501    0 -0.00000000000E+00 -0.00000000000E+00 -0.32477944285E+02  0.32477944385E+02  0.25500000000E-02 0. -1.
          2    1    1    2    0  502 -0.28191189021E+02 -0.23573100945E+02  0.22602737384E+01  0.36817700505E+02  0.25500000000E-02 0. -1.
         -2    1    1    2  502    0  0.28191189021E+02  0.23573100945E+02  0.70129821459E+01  0.37411444127E+02  0.25500000000E-02 0. -1.
<mgrwt>
<rscale>  0 0.73647625E+02</rscale>
<asrwt>0</asrwt>
<pdfrwt beam="1">  1        2 0.64232616E-02 0.73647625E+02</pdfrwt>
<pdfrwt beam="2">  1       -2 0.49966068E-02 0.73647625E+02</pdfrwt>
<totfact> 0.17627834E+05</totfact>
</mgrwt>
</event>
<event>
 4    1  0.4604841E-002  0.5873511E+02  0.7818608E-02  0.1403218E+00
         -2   -1    0    0  501    0 -0.00000000000E+00  0.00000000000E+00  0.56396001980E+01  0.56396007745E+01  0.25500000000E-02 0. -1.
          2   -1    0    0    0  501  0.00000000000E+00 -0.00000000000E+00 -0.15292810634E+03  0.15292810636E+03  0.25500000000E-02 0. -1.
          2    1    1    2    0  502 -0.17559830772E+01 -0.20019439369E+02 -0.15830633881E+02  0.25582619193E+02  0.25500000000E-02 0.  1.
         -2    1    1    2  502    0  0.17559830772E+01  0.20019439369E+02 -0.13145787226E+03  0.13298508794E+03  0.25500000000E-02 0.  1.
<mgrwt>
<rscale>  0 0.58735115E+02</rscale>
<asrwt>0</asrwt>
<pdfrwt beam="2">  1        2 0.23527398E-01 0.58735115E+02</pdfrwt>
<pdfrwt beam="1">  1       -2 0.86763096E-03 0.58735115E+02</pdfrwt>
<totfact> 0.44881045E+05</totfact>
</mgrwt>
</event>
<event>
 4    1  0.4604841E-002  0.1159958E+03  0.7818608E-02  0.1249853E+00
          2   -1    0    0    0  501  0.00000000000E+00  0.00000000000E+00  0.10870428903E+03  0.10870428906E+03  0.25500000000E-02 0. -1.
         -2   -1    0    0  501    0 -0.00000000000E+00 -0.00000000000E+00 -0.30944077225E+02  0.30944077330E+02  0.25500000000E-02 0. -1.
          2    1    1    2    0  502  0.73189979488E+01  0.57123610544E+02  0.47140652321E+02  0.74423892134E+02  0.25500000000E-02 0. -1.
         -2    1    1    2  502    0 -0.73189979488E+01 -0.57123610544E+02  0.30619559487E+02  0.65224474258E+02  0.25500000000E-02 0. -1.
<mgrwt>
<rscale>  0 0.11599576E+03</rscale>
<asrwt>0</asrwt>
<pdfrwt beam="1">  1        2 0.16723737E-01 0.11599576E+03</pdfrwt>
<pdfrwt beam="2">  1       -2 0.47606273E-02 0.11599576E+03</pdfrwt>
<totfact> 0.64208880E+04</totfact>
</mgrwt>
</event>
<event>
 4    1  0.4604841E-002  0.1206040E+03  0.7818608E-02  0.1242104E+00
          2   -1    0    0    0  501  0.00000000000E+00  0.00000000000E+00  0.18076826745E+04  0.18076826745E+04  0.25500000000E-02 0.  1.
         -2   -1    0    0  501    0 -0.00000000000E+00 -0.00000000000E+00 -0.20115986358E+01  0.20116002521E+01  0.25500000000E-02 0.  1.
          2    1    1    2    0  502 -0.11164236242E+02 -0.56691177908E+02  0.64389004077E+03  0.64647731161E+03  0.25500000000E-02 0.  1.
         -2    1    1    2  502    0  0.11164236242E+02  0.56691177908E+02  0.11617810351E+04  0.11632169631E+04  0.25500000000E-02 0.  1.
<mgrwt>
<rscale>  0 0.12060404E+03</rscale>
<asrwt>0</asrwt>
<pdfrwt beam="1">  1        2 0.27810532E+00 0.12060404E+03</pdfrwt>
<pdfrwt beam="2">  1       -2 0.30947651E-03 0.12060404E+03</pdfrwt>
<totfact> 0.10113863E+05</totfact>
</mgrwt>
</event>
<event>
 4    1  0.4604841E-002  0.4390445E+02  0.7818608E-02  0.1481299E+00
          2   -1    0    0    0  501  0.00000000000E+00  0.00000000000E+00  0.20834015808E+03  0.20834015810E+03  0.25500000000E-02 0.  1.
         -2   -1    0    0  501    0 -0.00000000000E+00 -0.00000000000E+00 -0.23130440000E+01  0.23130454057E+01  0.25500000000E-02 0.  1.
          2    1    1    2    0  502 -0.16250465478E+02  0.13422838071E+02  0.13245380030E+03  0.13412031699E+03  0.25500000000E-02 0.  1.
         -2    1    1    2  502    0  0.16250465478E+02 -0.13422838071E+02  0.73573313788E+02  0.76532886515E+02  0.25500000000E-02 0.  1.
<mgrwt>
<rscale>  0 0.43904446E+02</rscale>
<asrwt>0</asrwt>
<pdfrwt beam="1">  1        2 0.32052320E-01 0.43904446E+02</pdfrwt>
<pdfrwt beam="2">  1       -2 0.35585317E-03 0.43904446E+02</pdfrwt>
<totfact> 0.10304682E+06</totfact>
</mgrwt>
</event>
<event>
 4    1  0.4604841E-002  0.6699400E+02  0.7818608E-02  0.1370624E+00
         -2   -1    0    0  501    0 -0.00000000000E+00  0.00000000000E+00  0.74782402580E+00  0.74782837340E+00  0.25500000000E-02 0. -1.
          2   -1    0    0    0  501  0.00000000000E+00 -0.00000000000E+00 -0.15004141638E+04  0.15004141638E+04  0.25500000000E-02 0. -1.
          2    1    1    2    0  502  0.16616380042E+02 -0.14294959207E+02 -0.18225783734E+03  0.18357115575E+03  0.25500000000E-02 0.  1.
         -2    1    1    2  502    0 -0.16616380042E+02  0.14294959207E+02 -0.13174085024E+04  0.13175908364E+04  0.25500000000E-02 0.  1.
<mgrwt>
<rscale>  0 0.66994000E+02</rscale>
<asrwt>0</asrwt>
<pdfrwt beam="2">  1        2 0.23083054E+00 0.66994000E+02</pdfrwt>
<pdfrwt beam="1">  1       -2 0.11505139E-03 0.66994000E+02</pdfrwt>
<totfact> 0.52496772E+05</totfact>
</mgrwt>
</event>
<event>
 4    1  0.4604841E-002  0.4018334E+02  0.7818608E-02  0.1506867E+00
          2   -1    0    0    0  501  0.00000000000E+00  0.00000000000E+00  0.17586716679E+03  0.17586716681E+03  0.25500000000E-02 0.  1.
         -2   -1    0    0  501    0 -0.00000000000E+00 -0.00000000000E+00 -0.22953410436E+01  0.22953424601E+01  0.25500000000E-02 0.  1.
          2    1    1    2    0  502 -0.14832857575E+02  0.13487396445E+02  0.80917742651E+02  0.83364288570E+02  0.25500000000E-02 0. -1.
         -2    1    1    2  502    0  0.14832857575E+02 -0.13487396445E+02  0.92654083098E+02  0.94798220701E+02  0.25500000000E-02 0. -1.
<mgrwt>
<rscale>  0 0.40183343E+02</rscale>
<asrwt>0</asrwt>
<pdfrwt beam="1">  1        2 0.27056495E-01 0.40183343E+02</pdfrwt>
<pdfrwt beam="2">  1       -2 0.35312940E-03 0.40183343E+02</pdfrwt>
<totfact> 0.12121159E+06</totfact>
</mgrwt>
</event>
<event>
 4    1  0.4604841E-002  0.5115341E+02  0.7818608E-02  0.1439218E+00
         -2   -1    0    0  501    0 -0.00000000000E+00  0.00000000000E+00  0.62959071789E+02  0.62959071840E+02  0.25500000000E-02 0. -1.
          2   -1    0    0    0  501  0.00000000000E+00 -0.00000000000E+00 -0.10390368445E+02  0.10390368758E+02  0.25500000000E-02 0. -1.
          2    1    1    2    0  502 -0.22212079463E+02 -0.12589711774E+02  0.28454557310E+02  0.38230081805E+02  0.25500000000E-02 0. -1.
         -2    1    1    2  502    0  0.22212079463E+02  0.12589711774E+02  0.24114146034E+02  0.35119358794E+02  0.25500000000E-02 0. -1.
<mgrwt>
<rscale>  0 0.51153415E+02</rscale>
<asrwt>0</asrwt>
<pdfrwt beam="2">  1        2 0.15985183E-02 0.51153415E+02</pdfrwt>
<pdfrwt beam="1">  1       -2 0.96860109E-02 0.51153415E+02</pdfrwt>
<totfact> 0.36988283E+05</totfact>
</mgrwt>
</event>
<event>
 4    1  0.4604841E-002  0.6583611E+02  0.7818608E-02  0.1374854E+00
          2   -1    0    0    0  501  0.00000000000E+00  0.00000000000E+00  0.71771011170E+02  0.71771011215E+02  0.25500000000E-02 0. -1.
         -2   -1    0    0  501    0 -0.00000000000E+00 -0.00000000000E+00 -0.15097994000E+02  0.15097994215E+02  0.25500000000E-02 0. -1.
          2    1    1    2    0  502  0.11007144174E+02  0.25853230237E+02  0.50962751306E+02  0.58195779604E+02  0.25500000000E-02 0. -1.
         -2    1    1    2  502    0 -0.11007144174E+02 -0.25853230237E+02  0.57102658640E+01  0.28673225826E+02  0.25500000000E-02 0. -1.
<mgrwt>
<rscale>  0 0.65836109E+02</rscale>
<asrwt>0</asrwt>
<pdfrwt beam="1">  1        2 0.11041694E-01 0.65836109E+02</pdfrwt>
<pdfrwt beam="2">  1       -2 0.23227683E-02 0.65836109E+02</pdfrwt>
<totfact> 0.27017155E+05</totfact>
</mgrwt>
</event>
<event>
 4    1  0.4604841E-002  0.5096589E+02  0.7818608E-02  0.1440200E+00
          2   -1    0    0    0  501  0.00000000000E+00  0.00000000000E+00  0.42251081035E+03  0.42251081036E+03  0.25500000000E-02 0. -1.
         -2   -1    0    0  501    0 -0.00000000000E+00 -0.00000000000E+00 -0.15369549428E+01  0.15369570581E+01  0.25500000000E-02 0. -1.
          2    1    1    2    0  502  0.15597031188E+02  0.18763423595E+02  0.27165450115E+03  0.27274805490E+03  0.25500000000E-02 0.  1.
         -2    1    1    2  502    0 -0.15597031188E+02 -0.18763423595E+02  0.14931935425E+03  0.15129971252E+03  0.25500000000E-02 0.  1.
<mgrwt>
<rscale>  0 0.50965892E+02</rscale>
<asrwt>0</asrwt>
<pdfrwt beam="1">  1        2 0.65001659E-01 0.50965892E+02</pdfrwt>
<pdfrwt beam="2">  1       -2 0.23645479E-03 0.50965892E+02</pdfrwt>
<totfact> 0.90734022E+05</totfact>
</mgrwt>
</event>
<event>
 4    1  0.4604841E-002  0.6050798E+02  0.7818608E-02  0.1395712E+00
         -2   -1    0    0  501    0 -0.00000000000E+00  0.00000000000E+00  0.81363519353E+02  0.81363519393E+02  0.25500000000E-02 0.  1.
          2   -1    0    0    0  501  0.00000000000E+00 -0.00000000000E+00 -0.11249559703E+02  0.11249559992E+02  0.25500000000E-02 0.  1.
          2    1    1    2    0  502 -0.27821025067E+02  0.49923464309E+01  0.51568297948E+02  0.58806651991E+02  0.25500000000E-02 0. -1.
         -2    1    1    2  502    0  0.27821025067E+02 -0.49923464309E+01  0.18545661702E+02  0.33806427394E+02  0.25500000000E-02 0. -1.
<mgrwt>
<rscale>  0 0.60507976E+02</rscale>
<asrwt>0</asrwt>
<pdfrwt beam="2">  1        2 0.17307015E-02 0.60507976E+02</pdfrwt>
<pdfrwt beam="1">  1       -2 0.12517464E-01 0.60507976E+02</pdfrwt>
<totfact> 0.23254105E+05</totfact>
</mgrwt>
</event>
<event>
 4    1  0.4604841E-002  0.6107449E+02  0.7818608E-02  0.1393377E+00
          2   -1    0    0    0  501  0.00000000000E+00  0.00000000000E+00  0.63429819334E+02  0.63429819385E+02  0.25500000000E-02 0. -1.
         -2   -1    0    0  501    0 -0.00000000000E+00 -0.00000000000E+00 -0.14701655575E+02  0.14701655796E+02  0.25500000000E-02 0. -1.
          2    1    1    2    0  502  0.25647309694E+02  0.51923406479E+01  0.44501229143E+02  0.51624648161E+02  0.25500000000E-02 0.  1.
         -2    1    1    2  502    0 -0.25647309694E+02 -0.51923406479E+01  0.42269346160E+01  0.26506827021E+02  0.25500000000E-02 0.  1.
<mgrwt>
<rscale>  0 0.61074491E+02</rscale>
<asrwt>0</asrwt>
<pdfrwt beam="1">  1        2 0.97584338E-02 0.61074491E+02</pdfrwt>
<pdfrwt beam="2">  1       -2 0.22617932E-02 0.61074491E+02</pdfrwt>
<totfact> 0.32010717E+05</totfact>
</mgrwt>
</event>
<event>
 4    1  0.4604841E-002  0.6300004E+02  0.7818608E-02  0.1385656E+00
          2   -1    0    0    0  501  0.00000000000E+00  0.00000000000E+00  0.32858344848E+02  0.32858344947E+02  0.25500000000E-02 0. -1.
         -2   -1    0    0  501    0 -0.00000000000E+00 -0.00000000000E+00 -0.30197847094E+02  0.30197847201E+02  0.25500000000E-02 0. -1.
          2    1    1    2    0  502  0.30334394367E+02  0.46553042177E+01  0.84361495198E+01  0.31827911716E+02  0.25500000000E-02 0.  1.
         -2    1    1    2  502    0 -0.30334394367E+02 -0.46553042177E+01 -0.57756517652E+01  0.31228280433E+02  0.25500000000E-02 0.  1.
<mgrwt>
<rscale>  0 0.63000041E+02</rscale>
<asrwt>0</asrwt>
<pdfrwt beam="1">  1        2 0.50551300E-02 0.63000041E+02</pdfrwt>
<pdfrwt beam="2">  1       -2 0.46458227E-02 0.63000041E+02</pdfrwt>
<totfact> 0.25751001E+05</totfact>
</mgrwt>
</event>
<event>
 4    1  0.4604841E-002  0.7185300E+02  0.7818608E-02  0.1353903E+00
         -2   -1    0    0  501    0 -0.00000000000E+00  0.00000000000E+00  0.18010154532E+02  0.18010154713E+02  0.25500000000E-02 0. -1.
          2   -1    0    0    0  501  0.00000000000E+00 -0.00000000000E+00 -0.71665871488E+02  0.71665871533E+02  0.25500000000E-02 0. -1.
          2    1    1    2    0  502 -0.19931322178E+02 -0.24473916721E+02 -0.48245010634E+02  0.57652504378E+02  0.25500000000E-02 0. -1.
         -2    1    1    2  502    0  0.19931322178E+02  0.24473916721E+02 -0.54107063220E+01  0.32023521868E+02  0.25500000000E-02 0. -1.
<mgrwt>
<rscale>  0 0.71853001E+02</rscale>
<asrwt>0</asrwt>
<pdfrwt beam="2">  1        2 0.11025519E-01 0.71853001E+02</pdfrwt>
<pdfrwt beam="1">  1       -2 0.27707930E-02 0.71853001E+02</pdfrwt>
<totfact> 0.21382042E+05</totfact>
</mgrwt>
</event>
<event>
 4    1  0.4604841E-002  0.9437107E+02  0.7818608E-02  0.1292599E+00
          2   -1    0    0    0  501  0.00000000000E+00  0.00000000000E+00  0.62055592540E+02  0.62055592592E+02  0.25500000000E-02 0. -1.
         -2   -1    0    0  501    0 -0.00000000000E+00 -0.00000000000E+00 -0.35878711735E+02  0.35878711826E+02  0.25500000000E-02 0. -1.
          2    1    1    2    0  502  0.89134642633E+01 -0.41050082204E+02  0.35392159584E+02  0.54928717995E+02  0.25500000000E-02 0. -1.
         -2    1    1    2  502    0 -0.89134642633E+01  0.41050082204E+02 -0.92152787789E+01  0.43005586423E+02  0.25500000000E-02 0. -1.
<mgrwt>
<rscale>  0 0.94371070E+02</rscale>
<asrwt>0</asrwt>
<pdfrwt beam="1">  1        2 0.95470142E-02 0.94371070E+02</pdfrwt>
<pdfrwt beam="2">  1       -2 0.55198019E-02 0.94371070E+02</pdfrwt>
<totfact> 0.97108666E+04</totfact>
</mgrwt>
</event>
<event>
 4    1  0.4604841E-002  0.6963753E+02  0.7818608E-02  0.1361330E+00
         -2   -1    0    0  501    0 -0.00000000000E+00  0.00000000000E+00  0.10806364911E+02  0.10806365212E+02  0.25500000000E-02 0.  1.
          2   -1    0    0    0  501  0.00000000000E+00 -0.00000000000E+00 -0.11218816589E+03  0.11218816592E+03  0.25500000000E-02 0.  1.
          2    1    1    2    0  502  0.28052688644E+02 -0.20583485329E+02 -0.53002589146E+02  0.63402741827E+02  0.25500000000E-02 0. -1.
         -2    1    1    2  502    0 -0.28052688644E+02  0.20583485329E+02 -0.48379211835E+02  0.59591789306E+02  0.25500000000E-02 0. -1.
<mgrwt>
<rscale>  0 0.69637527E+02</rscale>
<asrwt>0</asrwt>
<pdfrwt beam="2">  1        2 0.17259717E-01 0.69637527E+02</pdfrwt>
<pdfrwt beam="1">  1       -2 0.16625178E-02 0.69637527E+02</pdfrwt>
<totfact> 0.26236907E+05</totfact>
</mgrwt>
</event>
<event>
 4    1  0.4604841E-002  0.2632439E+03  0.7818608E-02  0.1105210E+00
          2   -1    0    0    0  501  0.00000000000E+00  0.00000000000E+00  0.84471306775E+02  0.84471306813E+02  0.25500000000E-02 0. -1.
         -2   -1    0    0  501    0 -0.00000000000E+00 -0.00000000000E+00 -0.20509144499E+03  0.20509144500E+03  0.25500000000E-02 0. -1.
          2    1    1    2    0  502 -0.35219205511E+02  0.26550522252E+02  0.76100696751E+02  0.87958164608E+02  0.25500000000E-02 0.  1.
         -2    1    1    2  502    0  0.35219205511E+02 -0.26550522252E+02 -0.19672083496E+03  0.20160458721E+03  0.25500000000E-02 0.  1.
<mgrwt>
<rscale>  0 0.26324394E+03</rscale>
<asrwt>0</asrwt>
<pdfrwt beam="1">  1        2 0.12995586E-01 0.26324394E+03</pdfrwt>
<pdfrwt beam="2">  1       -2 0.31552530E-01 0.26324394E+03</pdfrwt>
<totfact> 0.42848129E+03</totfact>
</mgrwt>
</event>
<event>
 4    1  0.4604841E-002  0.4271464E+02  0.7818608E-02  0.1489135E+00
         -2   -1    0    0  501    0 -0.00000000000E+00  0.00000000000E+00  0.48836886613E+00  0.48837552345E+00  0.25500000000E-02 0. -1.
          2   -1    0    0    0  501  0.00000000000E+00 -0.00000000000E+00 -0.93399067388E+03  0.93399067389E+03  0.25500000000E-02 0. -1.
          2    1    1    2    0  502 -0.19838252176E+02  0.34540372617E+01 -0.62244659987E+03  0.62277223470E+03  0.25500000000E-02 0. -1.
         -2    1    1    2  502    0  0.19838252176E+02 -0.34540372617E+01 -0.31105570515E+03  0.31170681471E+03  0.25500000000E-02 0. -1.
<mgrwt>
<rscale>  0 0.42714638E+02</rscale>
<asrwt>0</asrwt>
<pdfrwt beam="2">  1        2 0.14368944E+00 0.42714638E+02</pdfrwt>
<pdfrwt beam="1">  1       -2 0.75134931E-04 0.42714638E+02</pdfrwt>
<totfact> 0.16937867E+06</totfact>
</mgrwt>
</event>
<event>
 4    1  0.4604841E-002  0.5135618E+02  0.7818608E-02  0.1438161E+00
          2   -1    0    0    0  501  0.00000000000E+00  0.00000000000E+00  0.17952852414E+02  0.17952852595E+02  0.25500000000E-02 0. -1.
         -2   -1    0    0  501    0 -0.00000000000E+00 -0.00000000000E+00 -0.36727544188E+02  0.36727544277E+02  0.25500000000E-02 0. -1.
          2    1    1    2    0  502  0.25447057132E+02 -0.25514677214E+01 -0.69358146825E+01  0.26498457239E+02  0.25500000000E-02 0. -1.
         -2    1    1    2  502    0 -0.25447057132E+02  0.25514677214E+01 -0.11838877091E+02  0.28181939633E+02  0.25500000000E-02 0. -1.
<mgrwt>
<rscale>  0 0.51356175E+02</rscale>
<asrwt>0</asrwt>
<pdfrwt beam="1">  1        2 0.27619773E-02 0.51356175E+02</pdfrwt>
<pdfrwt beam="2">  1       -2 0.56503914E-02 0.51356175E+02</pdfrwt>
<totfact> 0.40283931E+05</totfact>
</mgrwt>
</event>
<event>
 4    1  0.4604841E-002  0.4321603E+02  0.7818608E-02  0.1485796E+00
          2   -1    0    0    0  501  0.00000000000E+00  0.00000000000E+00  0.16177335650E+03  0.16177335652E+03  0.25500000000E-02 0. -1.
         -2   -1    0    0  501    0 -0.00000000000E+00 -0.00000000000E+00 -0.28861743840E+01  0.28861755105E+01  0.25500000000E-02 0. -1.
          2    1    1    2    0  502  0.20183734834E+02 -0.57692623560E+01  0.59926597160E+02  0.63496965232E+02  0.25500000000E-02 0. -1.
         -2    1    1    2  502    0 -0.20183734834E+02  0.57692623560E+01  0.98960584956E+02  0.10116256680E+03  0.25500000000E-02 0. -1.
<mgrwt>
<rscale>  0 0.43216025E+02</rscale>
<asrwt>0</asrwt>
<pdfrwt beam="1">  1        2 0.24888205E-01 0.43216025E+02</pdfrwt>
<pdfrwt beam="2">  1       -2 0.44402698E-03 0.43216025E+02</pdfrwt>
<totfact> 0.98820666E+05</totfact>
</mgrwt>
</event>
<event>
 4    1  0.4604841E-002  0.4961042E+02  0.7818608E-02  0.1447454E+00
         -2   -1    0    0  501    0 -0.00000000000E+00  0.00000000000E+00  0.19396207509E+02  0.19396207677E+02  0.25500000000E-02 0.  1.
          2   -1    0    0    0  501  0.00000000000E+00 -0.00000000000E+00 -0.31722620178E+02  0.31722620281E+02  0.25500000000E-02 0.  1.
          2    1    1    2    0  502  0.24777443965E+02  0.56021665253E+00 -0.72255493736E+01  0.25815579451E+02  0.25500000000E-02 0.  1.
         -2    1    1    2  502    0 -0.24777443965E+02 -0.56021665253E+00 -0.51008632957E+01  0.25303248507E+02  0.25500000000E-02 0.  1.
<mgrwt>
<rscale>  0 0.49610424E+02</rscale>
<asrwt>0</asrwt>
<pdfrwt beam="2">  1        2 0.48804031E-02 0.49610424E+02</pdfrwt>
<pdfrwt beam="1">  1       -2 0.29840320E-02 0.49610424E+02</pdfrwt>
<totfact> 0.48348075E+05</totfact>
</mgrwt>
</event>
<event>
 4    1  0.4604841E-002  0.4440297E+02  0.7818608E-02  0.1478104E+00
         -2   -1    0    0  501    0 -0.00000000000E+00  0.00000000000E+00  0.75479168273E+01  0.75479172581E+01  0.25500000000E-02 0.  1.
          2   -1    0    0    0  501  0.00000000000E+00 -0.00000000000E+00 -0.65303577009E+02  0.65303577059E+02  0.25500000000E-02 0.  1.
          2    1    1    2    0  502  0.29512373282E+01 -0.21235911517E+02 -0.38335980682E+02  0.43924038534E+02  0.25500000000E-02 0. -1.
         -2    1    1    2  502    0 -0.29512373282E+01  0.21235911517E+02 -0.19419679499E+02  0.28927455783E+02  0.25500000000E-02 0. -1.
<mgrwt>
<rscale>  0 0.44402972E+02</rscale>
<asrwt>0</asrwt>
<pdfrwt beam="2">  1        2 0.10046704E-01 0.44402972E+02</pdfrwt>
<pdfrwt beam="1">  1       -2 0.11612181E-02 0.44402972E+02</pdfrwt>
<totfact> 0.73137613E+05</totfact>
</mgrwt>
</event>
<event>
 4    1  0.4604841E-002  0.5742308E+02  0.7818608E-02  0.1408975E+00
         -2   -1    0    0  501    0 -0.00000000000E+00  0.00000000000E+00  0.18938782838E+01  0.18938800005E+01  0.25500000000E-02 0.  1.
          2   -1    0    0    0  501  0.00000000000E+00 -0.00000000000E+00 -0.43527200086E+03  0.43527200086E+03  0.25500000000E-02 0.  1.
          2    1    1    2    0  502  0.25800346164E+02 -0.12399217010E+02 -0.23363411076E+03  0.23538117206E+03  0.25500000000E-02 0. -1.
         -2    1    1    2  502    0 -0.25800346164E+02  0.12399217010E+02 -0.19974401182E+03  0.20178470881E+03  0.25500000000E-02 0. -1.
<mgrwt>
<rscale>  0 0.57423081E+02</rscale>
<asrwt>0</asrwt>
<pdfrwt beam="2">  1        2 0.66964844E-01 0.57423081E+02</pdfrwt>
<pdfrwt beam="1">  1       -2 0.29136637E-03 0.57423081E+02</pdfrwt>
<totfact> 0.67986257E+05</totfact>
</mgrwt>
</event>
<event>
 4    1  0.4604841E-002  0.6270054E+02  0.7818608E-02  0.1386836E+00
         -2   -1    0    0  501    0 -0.00000000000E+00  0.00000000000E+00  0.49324992084E+00  0.49325651228E+00  0.25500000000E-02 0. -1.
          2   -1    0    0    0  501  0.00000000000E+00 -0.00000000000E+00 -0.19925659821E+04  0.19925659821E+04  0.25500000000E-02 0. -1.
          2    1    1    2    0  502  0.17335475649E+02 -0.15630582640E+02 -0.33078037184E+03  0.33160290746E+03  0.25500000000E-02 0.  1.
         -2    1    1    2  502    0 -0.17335475649E+02  0.15630582640E+02 -0.16612923603E+04  0.16614563312E+04  0.25500000000E-02 0.  1.
<mgrwt>
<rscale>  0 0.62700545E+02</rscale>
<asrwt>0</asrwt>
<pdfrwt beam="2">  1        2 0.30654217E+00 0.62700545E+02</pdfrwt>
<pdfrwt beam="1">  1       -2 0.75886706E-04 0.62700545E+02</pdfrwt>
<totfact> 0.52197018E+05</totfact>
</mgrwt>
</event>
<event>
 4    1  0.4604841E-002  0.5572108E+02  0.7818608E-02  0.1416719E+00
         -2   -1    0    0  501    0 -0.00000000000E+00  0.00000000000E+00  0.46138701435E+02  0.46138701506E+02  0.25500000000E-02 0. -1.
          2   -1    0    0    0  501  0.00000000000E+00 -0.00000000000E+00 -0.16823397608E+02  0.16823397802E+02  0.25500000000E-02 0. -1.
          2    1    1    2    0  502  0.14539097186E+02 -0.16142572659E+02  0.34366854300E+02  0.40657701362E+02  0.25500000000E-02 0. -1.
         -2    1    1    2  502    0 -0.14539097186E+02  0.16142572659E+02 -0.50515504730E+01  0.22304397946E+02  0.25500000000E-02 0. -1.
<mgrwt>
<rscale>  0 0.55721081E+02</rscale>
<asrwt>0</asrwt>
<pdfrwt beam="2">  1        2 0.25882151E-02 0.55721081E+02</pdfrwt>
<pdfrwt beam="1">  1       -2 0.70982616E-02 0.55721081E+02</pdfrwt>
<totfact> 0.31882757E+05</totfact>
</mgrwt>
</event>
<event>
 4    1  0.4604841E-002  0.9366226E+02  0.7818608E-02  0.1294218E+00
          2   -1    0    0    0  501  0.00000000000E+00  0.00000000000E+00  0.28453211309E+03  0.28453211310E+03  0.25500000000E-02 0.  1.
         -2   -1    0    0  501    0 -0.00000000000E+00 -0.00000000000E+00 -0.77079343321E+01  0.77079347539E+01  0.25500000000E-02 0.  1.
          2    1    1    2    0  502  0.42304790418E+01  0.39965906370E+02  0.21342449480E+03  0.21717547194E+03  0.25500000000E-02 0.  1.
         -2    1    1    2  502    0 -0.42304790418E+01 -0.39965906370E+02  0.63399683955E+02  0.75064575913E+02  0.25500000000E-02 0.  1.
<mgrwt>
<rscale>  0 0.93662264E+02</rscale>
<asrwt>0</asrwt>
<pdfrwt beam="1">  1        2 0.43774165E-01 0.93662264E+02</pdfrwt>
<pdfrwt beam="2">  1       -2 0.11858363E-02 0.93662264E+02</pdfrwt>
<totfact> 0.16391475E+05</totfact>
</mgrwt>
</event>
<event>
 4    1  0.4604841E-002  0.4226072E+02  0.7818608E-02  0.1492205E+00
         -2   -1    0    0  501    0 -0.00000000000E+00  0.00000000000E+00  0.74261312421E+01  0.74261316799E+01  0.25500000000E-02 0.  1.
          2   -1    0    0    0  501  0.00000000000E+00 -0.00000000000E+00 -0.60124451078E+02  0.60124451132E+02  0.25500000000E-02 0.  1.
          2    1    1    2    0  502  0.14039370979E+02  0.15781965200E+02 -0.25448193143E+02  0.33072419080E+02  0.25500000000E-02 0.  1.
         -2    1    1    2  502    0 -0.14039370979E+02 -0.15781965200E+02 -0.27250126693E+02  0.34478163732E+02  0.25500000000E-02 0.  1.
<mgrwt>
<rscale>  0 0.42260718E+02</rscale>
<asrwt>0</asrwt>
<pdfrwt beam="2">  1        2 0.92499153E-02 0.42260718E+02</pdfrwt>
<pdfrwt beam="1">  1       -2 0.11424818E-02 0.42260718E+02</pdfrwt>
<totfact> 0.81420169E+05</totfact>
</mgrwt>
</event>
<event>
 4    1  0.4604841E-002  0.4707052E+02  0.7818608E-02  0.1461815E+00
          2   -1    0    0    0  501  0.00000000000E+00  0.00000000000E+00  0.15236581997E+01  0.15236603335E+01  0.25500000000E-02 0. -1.
         -2   -1    0    0  501    0 -0.00000000000E+00 -0.00000000000E+00 -0.36353830616E+03  0.36353830617E+03  0.25500000000E-02 0. -1.
          2    1    1    2    0  502 -0.21724473762E+02  0.72062227506E+01 -0.13850946700E+03  0.14038787292E+03  0.25500000000E-02 0. -1.
         -2    1    1    2  502    0  0.21724473762E+02 -0.72062227506E+01 -0.22350518096E+03  0.22467409359E+03  0.25500000000E-02 0. -1.
<mgrwt>
<rscale>  0 0.47070522E+02</rscale>
<asrwt>0</asrwt>
<pdfrwt beam="1">  1        2 0.23440941E-03 0.47070522E+02</pdfrwt>
<pdfrwt beam="2">  1       -2 0.55928901E-01 0.47070522E+02</pdfrwt>
<totfact> 0.24038572E+05</totfact>
</mgrwt>
</event>
<event>
 4    1  0.4604841E-002  0.6047871E+02  0.7818608E-02  0.1395834E+00
          2   -1    0    0    0  501  0.00000000000E+00  0.00000000000E+00  0.74545441023E+02  0.74545441066E+02  0.25500000000E-02 0.  1.
         -2   -1    0    0  501    0 -0.00000000000E+00 -0.00000000000E+00 -0.12266594414E+02  0.12266594679E+02  0.25500000000E-02 0.  1.
          2    1    1    2    0  502  0.27536746395E+02 -0.46244343311E+01  0.14476187130E+02  0.31451832939E+02  0.25500000000E-02 0.  1.
         -2    1    1    2  502    0 -0.27536746395E+02  0.46244343311E+01  0.47802659480E+02  0.55360202806E+02  0.25500000000E-02 0.  1.
<mgrwt>
<rscale>  0 0.60478714E+02</rscale>
<asrwt>0</asrwt>
<pdfrwt beam="1">  1        2 0.11468529E-01 0.60478714E+02</pdfrwt>
<pdfrwt beam="2">  1       -2 0.18871684E-02 0.60478714E+02</pdfrwt>
<totfact> 0.34100778E+05</totfact>
</mgrwt>
</event>
<event>
 4    1  0.4604841E-002  0.5227843E+02  0.7818608E-02  0.1433426E+00
          2   -1    0    0    0  501  0.00000000000E+00  0.00000000000E+00  0.10515880616E+03  0.10515880619E+03  0.25500000000E-02 0.  1.
         -2   -1    0    0  501    0 -0.00000000000E+00 -0.00000000000E+00 -0.64973982688E+01  0.64973987692E+01  0.25500000000E-02 0.  1.
          2    1    1    2    0  502 -0.74757478997E+01  0.21349042521E+02  0.21353353226E+02  0.31106817962E+02  0.25500000000E-02 0. -1.
         -2    1    1    2  502    0  0.74757478997E+01 -0.21349042521E+02  0.77308054666E+02  0.80549387000E+02  0.25500000000E-02 0. -1.
<mgrwt>
<rscale>  0 0.52278434E+02</rscale>
<asrwt>0</asrwt>
<pdfrwt beam="1">  1        2 0.16178278E-01 0.52278434E+02</pdfrwt>
<pdfrwt beam="2">  1       -2 0.99959977E-03 0.52278434E+02</pdfrwt>
<totfact> 0.54186753E+05</totfact>
</mgrwt>
</event>
<event>
 4    1  0.4604841E-002  0.5603752E+02  0.7818608E-02  0.1415255E+00
          2   -1    0    0    0  501  0.00000000000E+00  0.00000000000E+00  0.23212537391E+01  0.23212551398E+01  0.25500000000E-02 0.  1.
         -2   -1    0    0  501    0 -0.00000000000E+00 -0.00000000000E+00 -0.33820118769E+03  0.33820118770E+03  0.25500000000E-02 0.  1.
          2    1    1    2    0  502 -0.27643223237E+02 -0.44277744791E+01 -0.17486319647E+03  0.17709006314E+03  0.25500000000E-02 0.  1.
         -2    1    1    2  502    0  0.27643223237E+02  0.44277744791E+01 -0.16101673748E+03  0.16343237970E+03  0.25500000000E-02 0.  1.
<mgrwt>
<rscale>  0 0.56037524E+02</rscale>
<asrwt>0</asrwt>
<pdfrwt beam="1">  1        2 0.35711634E-03 0.56037524E+02</pdfrwt>
<pdfrwt beam="2">  1       -2 0.52030913E-01 0.56037524E+02</pdfrwt>
<totfact> 0.16349552E+05</totfact>
</mgrwt>
</event>
<event>
 4    1  0.4604841E-002  0.8375354E+02  0.7818608E-02  0.1318725E+00
          2   -1    0    0    0  501  0.00000000000E+00  0.00000000000E+00  0.28700667875E+01  0.28700679203E+01  0.25500000000E-02 0. -1.
         -2   -1    0    0  501    0 -0.00000000000E+00 -0.00000000000E+00 -0.61101837390E+03  0.61101837391E+03  0.25500000000E-02 0. -1.
          2    1    1    2    0  502 -0.23643437957E+02 -0.30830315873E+02 -0.18954693062E+03  0.19348787934E+03  0.25500000000E-02 0. -1.
         -2    1    1    2  502    0  0.23643437957E+02  0.30830315873E+02 -0.41860137649E+03  0.42040056249E+03  0.25500000000E-02 0. -1.
<mgrwt>
<rscale>  0 0.83753541E+02</rscale>
<asrwt>0</asrwt>
<pdfrwt beam="1">  1        2 0.44154931E-03 0.83753541E+02</pdfrwt>
<pdfrwt beam="2">  1       -2 0.94002723E-01 0.83753541E+02</pdfrwt>
<totfact> 0.38326231E+04</totfact>
</mgrwt>
</event>
<event>
 4    1  0.4604841E-002  0.4864639E+02  0.7818608E-02  0.1452782E+00
          2   -1    0    0    0  501  0.00000000000E+00  0.00000000000E+00  0.32860452706E+03  0.32860452707E+03  0.25500000000E-02 0.  1.
         -2   -1    0    0  501    0 -0.00000000000E+00 -0.00000000000E+00 -0.18003934922E+01  0.18003952981E+01  0.25500000000E-02 0.  1.
          2    1    1    2    0  502  0.44451643183E+01 -0.23706639845E+02  0.18472224776E+03  0.18629029251E+03  0.25500000000E-02 0.  1.
         -2    1    1    2  502    0 -0.44451643183E+01  0.23706639845E+02  0.14208188581E+03  0.14411462986E+03  0.25500000000E-02 0.  1.
<mgrwt>
<rscale>  0 0.48646387E+02</rscale>
<asrwt>0</asrwt>
<pdfrwt beam="1">  1        2 0.50554507E-01 0.48646387E+02</pdfrwt>
<pdfrwt beam="2">  1       -2 0.27698395E-03 0.48646387E+02</pdfrwt>
<totfact> 0.93474982E+05</totfact>
</mgrwt>
</event>
<event>
 4    1  0.4604841E-002  0.4241243E+02  0.7818608E-02  0.1491174E+00
         -2   -1    0    0  501    0 -0.00000000000E+00  0.00000000000E+00  0.35383313309E+00  0.35384232162E+00  0.25500000000E-02 0. -1.
          2   -1    0    0    0  501  0.00000000000E+00 -0.00000000000E+00 -0.12709318542E+04  0.12709318542E+04  0.25500000000E-02 0. -1.
          2    1    1    2    0  502 -0.15343794298E+02 -0.14523773978E+02 -0.69000024272E+03  0.69032362483E+03  0.25500000000E-02 0. -1.
         -2    1    1    2  502    0  0.15343794298E+02  0.14523773978E+02 -0.58057777832E+03  0.58096207167E+03  0.25500000000E-02 0. -1.
<mgrwt>
<rscale>  0 0.42412434E+02</rscale>
<asrwt>0</asrwt>
<pdfrwt beam="2">  1        2 0.19552432E+00 0.42412434E+02</pdfrwt>
<pdfrwt beam="1">  1       -2 0.54437591E-04 0.42412434E+02</pdfrwt>
<totfact> 0.17112390E+06</totfact>
</mgrwt>
</event>
<event>
 4    1  0.4604841E-002  0.4389511E+02  0.7818608E-02  0.1481359E+00
          2   -1    0    0    0  501  0.00000000000E+00  0.00000000000E+00  0.13197982858E+03  0.13197982860E+03  0.25500000000E-02 0. -1.
         -2   -1    0    0  501    0 -0.00000000000E+00 -0.00000000000E+00 -0.36497638712E+01  0.36497647620E+01  0.25500000000E-02 0. -1.
          2    1    1    2    0  502 -0.20536853086E+02 -0.61356139606E+01  0.49578039923E+02  0.54012870156E+02  0.25500000000E-02 0. -1.
         -2    1    1    2  502    0  0.20536853086E+02  0.61356139606E+01  0.78752024785E+02  0.81616723210E+02  0.25500000000E-02 0. -1.
<mgrwt>
<rscale>  0 0.43895115E+02</rscale>
<asrwt>0</asrwt>
<pdfrwt beam="1">  1        2 0.20304587E-01 0.43895115E+02</pdfrwt>
<pdfrwt beam="2">  1       -2 0.56150225E-03 0.43895115E+02</pdfrwt>
<totfact> 0.89502142E+05</totfact>
</mgrwt>
</event>
<event>
 4    1  0.4604841E-002  0.5732667E+02  0.7818608E-02  0.1409406E+00
          2   -1    0    0    0  501  0.00000000000E+00  0.00000000000E+00  0.10863468934E+03  0.10863468937E+03  0.25500000000E-02 0.  1.
         -2   -1    0    0  501    0 -0.00000000000E+00 -0.00000000000E+00 -0.75628388494E+01  0.75628392793E+01  0.25500000000E-02 0.  1.
          2    1    1    2    0  502 -0.15903921866E+02 -0.14172510598E+02  0.89408317768E+02  0.91911055266E+02  0.25500000000E-02 0.  1.
         -2    1    1    2  502    0  0.15903921866E+02  0.14172510598E+02  0.11663532722E+02  0.24286473384E+02  0.25500000000E-02 0.  1.
<mgrwt>
<rscale>  0 0.57326667E+02</rscale>
<asrwt>0</asrwt>
<pdfrwt beam="1">  1        2 0.16713028E-01 0.57326667E+02</pdfrwt>
<pdfrwt beam="2">  1       -2 0.11635138E-02 0.57326667E+02</pdfrwt>
<totfact> 0.43172310E+05</totfact>
</mgrwt>
</event>
<event>
 4    1  0.4604841E-002  0.5199227E+02  0.7818608E-02  0.1434883E+00
          2   -1    0    0    0  501  0.00000000000E+00  0.00000000000E+00  0.22333139719E+04  0.22333139720E+04  0.25500000000E-02 0. -1.
         -2   -1    0    0  501    0 -0.00000000000E+00 -0.00000000000E+00 -0.30259387044E+00  0.30260461485E+00  0.25500000000E-02 0. -1.
          2    1    1    2    0  502  0.17799356631E+02  0.16821326278E+02  0.14910886594E+04  0.14912897653E+04  0.25500000000E-02 0.  1.
         -2    1    1    2  502    0 -0.17799356631E+02 -0.16821326278E+02  0.74192271872E+03  0.74232681123E+03  0.25500000000E-02 0.  1.
<mgrwt>
<rscale>  0 0.51992273E+02</rscale>
<asrwt>0</asrwt>
<pdfrwt beam="1">  1        2 0.34358615E+00 0.51992273E+02</pdfrwt>
<pdfrwt beam="2">  1       -2 0.46553813E-04 0.51992273E+02</pdfrwt>
<totfact> 0.74366604E+05</totfact>
</mgrwt>
</event>
<event>
 4    1  0.4604841E-002  0.1223584E+03  0.7818608E-02  0.1239256E+00
         -2   -1    0    0  501    0 -0.00000000000E+00  0.00000000000E+00  0.30373126454E+03  0.30373126455E+03  0.25500000000E-02 0. -1.
          2   -1    0    0    0  501  0.00000000000E+00 -0.00000000000E+00 -0.12323050041E+02  0.12323050305E+02  0.25500000000E-02 0. -1.
          2    1    1    2    0  502 -0.57711444652E+02 -0.94622665870E+01  0.99299491414E+02  0.11524120068E+03  0.25500000000E-02 0. -1.
         -2    1    1    2  502    0  0.57711444652E+02  0.94622665870E+01  0.19210872309E+03  0.20081311418E+03  0.25500000000E-02 0. -1.
<mgrwt>
<rscale>  0 0.12235842E+03</rscale>
<asrwt>0</asrwt>
<pdfrwt beam="2">  1        2 0.18958540E-02 0.12235842E+03</pdfrwt>
<pdfrwt beam="1">  1       -2 0.46727883E-01 0.12235842E+03</pdfrwt>
<totfact> 0.23636762E+04</totfact>
</mgrwt>
</event>
<event>
 4    1  0.4604841E-002  0.4428446E+02  0.7818608E-02  0.1478859E+00
         -2   -1    0    0  501    0 -0.00000000000E+00  0.00000000000E+00  0.57968597804E+00  0.57969158665E+00  0.25500000000E-02 0. -1.
          2   -1    0    0    0  501  0.00000000000E+00 -0.00000000000E+00 -0.84576129193E+03  0.84576129193E+03  0.25500000000E-02 0. -1.
          2    1    1    2    0  502  0.15173238517E+02 -0.16017611256E+02 -0.45828011943E+03  0.45881091848E+03  0.25500000000E-02 0.  1.
         -2    1    1    2  502    0 -0.15173238517E+02  0.16017611256E+02 -0.38690148652E+03  0.38753006504E+03  0.25500000000E-02 0.  1.
<mgrwt>
<rscale>  0 0.44284459E+02</rscale>
<asrwt>0</asrwt>
<pdfrwt beam="2">  1        2 0.13011613E+00 0.44284459E+02</pdfrwt>
<pdfrwt beam="1">  1       -2 0.89183567E-04 0.44284459E+02</pdfrwt>
<totfact> 0.15340485E+06</totfact>
</mgrwt>
</event>
<event>
 4    1  0.4604841E-002  0.4194002E+02  0.7818608E-02  0.1494402E+00
          2   -1    0    0    0  501  0.00000000000E+00  0.00000000000E+00  0.77772636170E+03  0.77772636170E+03  0.25500000000E-02 0.  1.
         -2   -1    0    0  501    0 -0.00000000000E+00 -0.00000000000E+00 -0.56541623611E+00  0.56542198627E+00  0.25500000000E-02 0.  1.
          2    1    1    2    0  502  0.20038102858E+02 -0.51649178053E+01  0.45161891373E+03  0.45209273959E+03  0.25500000000E-02 0.  1.
         -2    1    1    2  502    0 -0.20038102858E+02  0.51649178053E+01  0.32554203173E+03  0.32619904410E+03  0.25500000000E-02 0.  1.
<mgrwt>
<rscale>  0 0.41940022E+02</rscale>
<asrwt>0</asrwt>
<pdfrwt beam="1">  1        2 0.11965107E+00 0.41940022E+02</pdfrwt>
<pdfrwt beam="2">  1       -2 0.86986930E-04 0.41940022E+02</pdfrwt>
<totfact> 0.17266104E+06</totfact>
</mgrwt>
</event>
<event>
 4    1  0.4604841E-002  0.5727096E+02  0.7818608E-02  0.1409655E+00
         -2   -1    0    0  501    0 -0.00000000000E+00  0.00000000000E+00  0.12687370499E+03  0.12687370502E+03  0.25500000000E-02 0.  1.
          2   -1    0    0    0  501  0.00000000000E+00 -0.00000000000E+00 -0.64630477054E+01  0.64630482085E+01  0.25500000000E-02 0.  1.
          2    1    1    2    0  502  0.21597402638E+02 -0.44551549983E+01  0.10273480031E+03  0.10507490380E+03  0.25500000000E-02 0.  1.
         -2    1    1    2  502    0 -0.21597402638E+02  0.44551549983E+01  0.17675856975E+02  0.28261849427E+02  0.25500000000E-02 0.  1.
<mgrwt>
<rscale>  0 0.57270964E+02</rscale>
<asrwt>0</asrwt>
<pdfrwt beam="2">  1        2 0.99431507E-03 0.57270964E+02</pdfrwt>
<pdfrwt beam="1">  1       -2 0.19519032E-01 0.57270964E+02</pdfrwt>
<totfact> 0.23679065E+05</totfact>
</mgrwt>
</event>
<event>
 4    1  0.4604841E-002  0.4676317E+02  0.7818608E-02  0.1463625E+00
         -2   -1    0    0  501    0 -0.00000000000E+00  0.00000000000E+00  0.32242792576E+01  0.32242802659E+01  0.25500000000E-02 0. -1.
          2   -1    0    0    0  501  0.00000000000E+00 -0.00000000000E+00 -0.16955679939E+03  0.16955679941E+03  0.25500000000E-02 0. -1.
          2    1    1    2    0  502  0.46768272984E+01  0.21955867255E+02 -0.59003853762E+02  0.63129926229E+02  0.25500000000E-02 0. -1.
         -2    1    1    2  502    0 -0.46768272984E+01 -0.21955867255E+02 -0.10732866637E+03  0.10965115344E+03  0.25500000000E-02 0. -1.
<mgrwt>
<rscale>  0 0.46763172E+02</rscale>
<asrwt>0</asrwt>
<pdfrwt beam="2">  1        2 0.26085655E-01 0.46763172E+02</pdfrwt>
<pdfrwt beam="1">  1       -2 0.49604317E-03 0.46763172E+02</pdfrwt>
<totfact> 0.82469792E+05</totfact>
</mgrwt>
</event>
<event>
 4    1  0.4604841E-002  0.7667761E+02  0.7818608E-02  0.1338753E+00
          2   -1    0    0    0  501  0.00000000000E+00  0.00000000000E+00  0.18016442414E+03  0.18016442416E+03  0.25500000000E-02 0. -1.
         -2   -1    0    0  501    0 -0.00000000000E+00 -0.00000000000E+00 -0.81584575430E+01  0.81584579415E+01  0.25500000000E-02 0. -1.
          2    1    1    2    0  502  0.24315963857E+02 -0.16664969094E+02  0.25798730805E+02  0.39173483516E+02  0.25500000000E-02 0. -1.
         -2    1    1    2  502    0 -0.24315963857E+02  0.16664969094E+02  0.14620723580E+03  0.14914939859E+03  0.25500000000E-02 0. -1.
<mgrwt>
<rscale>  0 0.76677607E+02</rscale>
<asrwt>0</asrwt>
<pdfrwt beam="1">  1        2 0.27717600E-01 0.76677607E+02</pdfrwt>
<pdfrwt beam="2">  1       -2 0.12551475E-02 0.76677607E+02</pdfrwt>
<totfact> 0.23661108E+05</totfact>
</mgrwt>
</event>
<event>
 4    1  0.4604841E-002  0.5169399E+02  0.7818608E-02  0.1436413E+00
          2   -1    0    0    0  501  0.00000000000E+00  0.00000000000E+00  0.29758698103E+03  0.29758698104E+03  0.25500000000E-02 0.  1.
         -2   -1    0    0  501    0 -0.00000000000E+00 -0.00000000000E+00 -0.22449468140E+01  0.22449482623E+01  0.25500000000E-02 0.  1.
          2    1    1    2    0  502 -0.16263640087E+02  0.18494986186E+02  0.19315553177E+03  0.19471936207E+03  0.25500000000E-02 0.  1.
         -2    1    1    2  502    0  0.16263640087E+02 -0.18494986186E+02  0.10218650244E+03  0.10511256724E+03  0.25500000000E-02 0.  1.
<mgrwt>
<rscale>  0 0.51693991E+02</rscale>
<asrwt>0</asrwt>
<pdfrwt beam="1">  1        2 0.45782597E-01 0.51693991E+02</pdfrwt>
<pdfrwt beam="2">  1       -2 0.34537666E-03 0.51693991E+02</pdfrwt>
<totfact> 0.77630287E+05</totfact>
</mgrwt>
</event>
<event>
 4    1  0.4604841E-002  0.6129466E+02  0.7818608E-02  0.1392478E+00
         -2   -1    0    0  501    0 -0.00000000000E+00  0.00000000000E+00  0.10136261150E+01  0.10136293226E+01  0.25500000000E-02 0. -1.
          2   -1    0    0    0  501  0.00000000000E+00 -0.00000000000E+00 -0.92663095692E+03  0.92663095693E+03  0.25500000000E-02 0. -1.
          2    1    1    2    0  502  0.65591463984E+01  0.29377317878E+02 -0.37559372650E+03  0.37679795196E+03  0.25500000000E-02 0. -1.
         -2    1    1    2  502    0 -0.65591463984E+01 -0.29377317878E+02 -0.55002360431E+03  0.55084663429E+03  0.25500000000E-02 0. -1.
<mgrwt>
<rscale>  0 0.61294660E+02</rscale>
<asrwt>0</asrwt>
<pdfrwt beam="2">  1        2 0.14255793E+00 0.61294660E+02</pdfrwt>
<pdfrwt beam="1">  1       -2 0.15594347E-03 0.61294660E+02</pdfrwt>
<totfact> 0.69279421E+05</totfact>
</mgrwt>
</event>
<event>
 4    1  0.4604841E-002  0.4531700E+02  0.7818608E-02  0.1472372E+00
          2   -1    0    0    0  501  0.00000000000E+00  0.00000000000E+00  0.77468554146E+02  0.77468554188E+02  0.25500000000E-02 0.  1.
         -2   -1    0    0  501    0 -0.00000000000E+00 -0.00000000000E+00 -0.66273027527E+01  0.66273032433E+01  0.25500000000E-02 0.  1.
          2    1    1    2    0  502  0.60071462533E+01 -0.21730007783E+02  0.31218102945E+02  0.38507778465E+02  0.25500000000E-02 0. -1.
         -2    1    1    2  502    0 -0.60071462533E+01  0.21730007783E+02  0.39623148449E+02  0.45588078966E+02  0.25500000000E-02 0. -1.
<mgrwt>
<rscale>  0 0.45316998E+02</rscale>
<asrwt>0</asrwt>
<pdfrwt beam="1">  1        2 0.11918238E-01 0.45316998E+02</pdfrwt>
<pdfrwt beam="2">  1       -2 0.10195851E-02 0.45316998E+02</pdfrwt>
<totfact> 0.72106797E+05</totfact>
</mgrwt>
</event>
<event>
 4    1  0.4604841E-002  0.6191113E+02  0.7818608E-02  0.1389982E+00
         -2   -1    0    0  501    0 -0.00000000000E+00  0.00000000000E+00  0.13042135538E+03  0.13042135541E+03  0.25500000000E-02 0. -1.
          2   -1    0    0    0  501  0.00000000000E+00 -0.00000000000E+00 -0.73473159964E+01  0.73473164389E+01  0.25500000000E-02 0. -1.
          2    1    1    2    0  502  0.23030696623E+02 -0.98499441236E+01  0.21063335058E+02  0.32727640863E+02  0.25500000000E-02 0.  1.
         -2    1    1    2  502    0 -0.23030696623E+02  0.98499441236E+01  0.10201070433E+03  0.10504103099E+03  0.25500000000E-02 0.  1.
<mgrwt>
<rscale>  0 0.61911128E+02</rscale>
<asrwt>0</asrwt>
<pdfrwt beam="2">  1        2 0.11303566E-02 0.61911128E+02</pdfrwt>
<pdfrwt beam="1">  1       -2 0.20064820E-01 0.61911128E+02</pdfrwt>
<totfact> 0.19358045E+05</totfact>
</mgrwt>
</event>
<event>
 4    1  0.4604841E-002  0.7241135E+02  0.7818608E-02  0.1352080E+00
         -2   -1    0    0  501    0 -0.00000000000E+00  0.00000000000E+00  0.22962995350E+03  0.22962995351E+03  0.25500000000E-02 0.  1.
          2   -1    0    0    0  501  0.00000000000E+00 -0.00000000000E+00 -0.57085365976E+01  0.57085371671E+01  0.25500000000E-02 0.  1.
          2    1    1    2    0  502  0.34089961333E+02  0.10791306341E+02  0.13042395105E+03  0.13523677300E+03  0.25500000000E-02 0.  1.
         -2    1    1    2  502    0 -0.34089961333E+02 -0.10791306341E+02  0.93497465844E+02  0.10010171768E+03  0.25500000000E-02 0.  1.
<mgrwt>
<rscale>  0 0.72411354E+02</rscale>
<asrwt>0</asrwt>
<pdfrwt beam="2">  1        2 0.87823640E-03 0.72411354E+02</pdfrwt>
<pdfrwt beam="1">  1       -2 0.35327687E-01 0.72411354E+02</pdfrwt>
<totfact> 0.10531181E+05</totfact>
</mgrwt>
</event>
<event>
 4    1  0.4604841E-002  0.5202039E+02  0.7818608E-02  0.1434739E+00
         -2   -1    0    0  501    0 -0.00000000000E+00  0.00000000000E+00  0.30600533034E+01  0.30600543659E+01  0.25500000000E-02 0.  1.
          2   -1    0    0    0  501  0.00000000000E+00 -0.00000000000E+00 -0.22108444031E+03  0.22108444033E+03  0.25500000000E-02 0.  1.
          2    1    1    2    0  502  0.23647109555E+02  0.10537368833E+02 -0.98190070103E+02  0.10154561441E+03  0.25500000000E-02 0. -1.
         -2    1    1    2  502    0 -0.23647109555E+02 -0.10537368833E+02 -0.11983431691E+03  0.12259888029E+03  0.25500000000E-02 0. -1.
<mgrwt>
<rscale>  0 0.52020392E+02</rscale>
<asrwt>0</asrwt>
<pdfrwt beam="2">  1        2 0.34012978E-01 0.52020392E+02</pdfrwt>
<pdfrwt beam="1">  1       -2 0.47077769E-03 0.52020392E+02</pdfrwt>
<totfact> 0.68941562E+05</totfact>
</mgrwt>
</event>
<event>
 4    1  0.4604841E-002  0.4137185E+02  0.7818608E-02  0.1498352E+00
         -2   -1    0    0  501    0 -0.00000000000E+00  0.00000000000E+00  0.77896162506E+01  0.77896166680E+01  0.25500000000E-02 0.  1.
          2   -1    0    0    0  501  0.00000000000E+00 -0.00000000000E+00 -0.54933069303E+02  0.54933069362E+02  0.25500000000E-02 0.  1.
          2    1    1    2    0  502 -0.12970539087E+02 -0.15532292566E+02 -0.17064875346E+02  0.26470681397E+02  0.25500000000E-02 0. -1.
         -2    1    1    2  502    0  0.12970539087E+02  0.15532292566E+02 -0.30078577706E+02  0.36252004633E+02  0.25500000000E-02 0. -1.
<mgrwt>
<rscale>  0 0.41371852E+02</rscale>
<asrwt>0</asrwt>
<pdfrwt beam="2">  1        2 0.84512412E-02 0.41371852E+02</pdfrwt>
<pdfrwt beam="1">  1       -2 0.11984026E-02 0.41371852E+02</pdfrwt>
<totfact> 0.84384363E+05</totfact>
</mgrwt>
</event>
<event>
 4    1  0.4604841E-002  0.4674602E+02  0.7818608E-02  0.1463727E+00
          2   -1    0    0    0  501  0.00000000000E+00  0.00000000000E+00  0.12905512716E+02  0.12905512968E+02  0.25500000000E-02 0. -1.
         -2   -1    0    0  501    0 -0.00000000000E+00 -0.00000000000E+00 -0.42330556587E+02  0.42330556663E+02  0.25500000000E-02 0. -1.
          2    1    1    2    0  502 -0.99452211156E+01 -0.21088503638E+02 -0.12783499144E+02  0.26590416800E+02  0.25500000000E-02 0.  1.
         -2    1    1    2  502    0  0.99452211156E+01  0.21088503638E+02 -0.16641544727E+02  0.28645652831E+02  0.25500000000E-02 0.  1.
<mgrwt>
<rscale>  0 0.46746018E+02</rscale>
<asrwt>0</asrwt>
<pdfrwt beam="1">  1        2 0.19854636E-02 0.46746018E+02</pdfrwt>
<pdfrwt beam="2">  1       -2 0.65123932E-02 0.46746018E+02</pdfrwt>
<totfact> 0.49231259E+05</totfact>
</mgrwt>
</event>
<event>
 4    1  0.4604841E-002  0.1283539E+03  0.7818608E-02  0.1229919E+00
         -2   -1    0    0  501    0 -0.00000000000E+00  0.00000000000E+00  0.38540877462E+02  0.38540877546E+02  0.25500000000E-02 0. -1.
          2   -1    0    0    0  501  0.00000000000E+00 -0.00000000000E+00 -0.10686522866E+03  0.10686522869E+03  0.25500000000E-02 0. -1.
          2    1    1    2    0  502  0.30323336521E+02 -0.45076338018E+02 -0.72866958920E+02  0.90889904256E+02  0.25500000000E-02 0. -1.
         -2    1    1    2  502    0 -0.30323336521E+02  0.45076338018E+02  0.45426077220E+01  0.54516201980E+02  0.25500000000E-02 0. -1.
<mgrwt>
<rscale>  0 0.12835388E+03</rscale>
<asrwt>0</asrwt>
<pdfrwt beam="2">  1        2 0.16440804E-01 0.12835388E+03</pdfrwt>
<pdfrwt beam="1">  1       -2 0.59293658E-02 0.12835388E+03</pdfrwt>
<totfact> 0.47703371E+04</totfact>
</mgrwt>
</event>
<event>
 4    1  0.4604841E-002  0.6974327E+02  0.7818608E-02  0.1360968E+00
         -2   -1    0    0  501    0 -0.00000000000E+00  0.00000000000E+00  0.16769028230E+03  0.16769028231E+03  0.25500000000E-02 0.  1.
          2   -1    0    0    0  501  0.00000000000E+00 -0.00000000000E+00 -0.72516469667E+01  0.72516474150E+01  0.25500000000E-02 0.  1.
          2    1    1    2    0  502 -0.31014797430E+01 -0.29175501802E+02  0.12749405674E+03  0.13082646366E+03  0.25500000000E-02 0.  1.
         -2    1    1    2  502    0  0.31014797430E+01  0.29175501802E+02  0.32944578585E+02  0.44115466071E+02  0.25500000000E-02 0.  1.
<mgrwt>
<rscale>  0 0.69743265E+02</rscale>
<asrwt>0</asrwt>
<pdfrwt beam="2">  1        2 0.11156381E-02 0.69743265E+02</pdfrwt>
<pdfrwt beam="1">  1       -2 0.25798503E-01 0.69743265E+02</pdfrwt>
<totfact> 0.13192946E+05</totfact>
</mgrwt>
</event>
<event>
 4    1  0.4604841E-002  0.7862551E+02  0.7818608E-02  0.1332998E+00
         -2   -1    0    0  501    0 -0.00000000000E+00  0.00000000000E+00  0.69985836271E+02  0.69985836317E+02  0.25500000000E-02 0.  1.
          2   -1    0    0    0  501  0.00000000000E+00 -0.00000000000E+00 -0.22082935442E+02  0.22082935589E+02  0.25500000000E-02 0.  1.
          2    1    1    2    0  502 -0.12855958125E+02 -0.27694228428E+02 -0.50464466923E+01  0.30946931645E+02  0.25500000000E-02 0.  1.
         -2    1    1    2  502    0  0.12855958125E+02  0.27694228428E+02  0.52949347521E+02  0.61121840261E+02  0.25500000000E-02 0.  1.
<mgrwt>
<rscale>  0 0.78625510E+02</rscale>
<asrwt>0</asrwt>
<pdfrwt beam="2">  1        2 0.33973747E-02 0.78625510E+02</pdfrwt>
<pdfrwt beam="1">  1       -2 0.10767052E-01 0.78625510E+02</pdfrwt>
<totfact> 0.12667235E+05</totfact>
</mgrwt>
</event>
<event>
 4    1  0.4604841E-002  0.5833893E+02  0.7818608E-02  0.1404938E+00
          2   -1    0    0    0  501  0.00000000000E+00  0.00000000000E+00  0.40946375363E+02  0.40946375442E+02  0.25500000000E-02 0.  1.
         -2   -1    0    0  501    0 -0.00000000000E+00 -0.00000000000E+00 -0.20779804056E+02  0.20779804212E+02  0.25500000000E-02 0.  1.
          2    1    1    2    0  502  0.24534440570E+02 -0.45994927025E+01  0.26051378799E+02  0.36080028424E+02  0.25500000000E-02 0.  1.
         -2    1    1    2  502    0 -0.24534440570E+02  0.45994927025E+01 -0.58848074919E+01  0.25646151231E+02  0.25500000000E-02 0.  1.
<mgrwt>
<rscale>  0 0.58338929E+02</rscale>
<asrwt>0</asrwt>
<pdfrwt beam="1">  1        2 0.62994423E-02 0.58338929E+02</pdfrwt>
<pdfrwt beam="2">  1       -2 0.31968930E-02 0.58338929E+02</pdfrwt>
<totfact> 0.33006841E+05</totfact>
</mgrwt>
</event>
<event>
 4    1  0.4604841E-002  0.4304374E+02  0.7818608E-02  0.1486937E+00
          2   -1    0    0    0  501  0.00000000000E+00  0.00000000000E+00  0.49608779427E+01  0.49608785981E+01  0.25500000000E-02 0.  1.
         -2   -1    0    0  501    0 -0.00000000000E+00 -0.00000000000E+00 -0.93368730150E+02  0.93368730185E+02  0.25500000000E-02 0.  1.
          2    1    1    2    0  502 -0.18819719461E+02  0.95886295289E+01 -0.34766446884E+02  0.40679595527E+02  0.25500000000E-02 0. -1.
         -2    1    1    2  502    0  0.18819719461E+02 -0.95886295289E+01 -0.53641405324E+02  0.57650013256E+02  0.25500000000E-02 0. -1.
<mgrwt>
<rscale>  0 0.43043741E+02</rscale>
<asrwt>0</asrwt>
<pdfrwt beam="1">  1        2 0.76321211E-03 0.43043741E+02</pdfrwt>
<pdfrwt beam="2">  1       -2 0.14364419E-01 0.43043741E+02</pdfrwt>
<totfact> 0.51616189E+05</totfact>
</mgrwt>
</event>
<event>
 4    1  0.4604841E-002  0.6466007E+02  0.7818608E-02  0.1379255E+00
         -2   -1    0    0  501    0 -0.00000000000E+00  0.00000000000E+00  0.29981758952E+01  0.29981769796E+01  0.25500000000E-02 0.  1.
          2   -1    0    0    0  501  0.00000000000E+00 -0.00000000000E+00 -0.34862233281E+03  0.34862233282E+03  0.25500000000E-02 0.  1.
          2    1    1    2    0  502 -0.20233190822E+02  0.21096492549E+02 -0.97699497795E+02  0.10197860503E+03  0.25500000000E-02 0. -1.
         -2    1    1    2  502    0  0.20233190822E+02 -0.21096492549E+02 -0.24792465912E+03  0.24964190477E+03  0.25500000000E-02 0. -1.
<mgrwt>
<rscale>  0 0.64660073E+02</rscale>
<asrwt>0</asrwt>
<pdfrwt beam="2">  1        2 0.53634173E-01 0.64660073E+02</pdfrwt>
<pdfrwt beam="1">  1       -2 0.46125819E-03 0.64660073E+02</pdfrwt>
<totfact> 0.46583482E+05</totfact>
</mgrwt>
</event>
<event>
 4    1  0.4604841E-002  0.4595105E+02  0.7818608E-02  0.1468490E+00
         -2   -1    0    0  501    0 -0.00000000000E+00  0.00000000000E+00  0.48169106997E+01  0.48169113746E+01  0.25500000000E-02 0.  1.
          2   -1    0    0    0  501  0.00000000000E+00 -0.00000000000E+00 -0.10958780886E+03  0.10958780889E+03  0.25500000000E-02 0.  1.
          2    1    1    2    0  502 -0.15399077460E+02  0.13724401679E+02 -0.77577551891E+02  0.80273079871E+02  0.25500000000E-02 0. -1.
         -2    1    1    2  502    0  0.15399077460E+02 -0.13724401679E+02 -0.27193346266E+02  0.34131640390E+02  0.25500000000E-02 0. -1.
<mgrwt>
<rscale>  0 0.45951049E+02</rscale>
<asrwt>0</asrwt>
<pdfrwt beam="2">  1        2 0.16859661E-01 0.45951049E+02</pdfrwt>
<pdfrwt beam="1">  1       -2 0.74106332E-03 0.45951049E+02</pdfrwt>
<totfact> 0.75855326E+05</totfact>
</mgrwt>
</event>
<event>
 4    1  0.4604841E-002  0.4832484E+02  0.7818608E-02  0.1454592E+00
          2   -1    0    0    0  501  0.00000000000E+00  0.00000000000E+00  0.78517156374E+03  0.78517156374E+03  0.25500000000E-02 0.  1.
         -2   -1    0    0  501    0 -0.00000000000E+00 -0.00000000000E+00 -0.74355833875E+00  0.74356271130E+00  0.25500000000E-02 0.  1.
          2    1    1    2    0  502 -0.17007147440E+02 -0.11412626810E+02  0.60069456350E+03  0.60104363381E+03  0.25500000000E-02 0. -1.
         -2    1    1    2  502    0  0.17007147440E+02  0.11412626810E+02  0.18373344190E+03  0.18487149265E+03  0.25500000000E-02 0. -1.
<mgrwt>
<rscale>  0 0.48324842E+02</rscale>
<asrwt>0</asrwt>
<pdfrwt beam="1">  1        2 0.12079541E+00 0.48324842E+02</pdfrwt>
<pdfrwt beam="2">  1       -2 0.11439414E-03 0.48324842E+02</pdfrwt>
<totfact> 0.12246189E+06</totfact>
</mgrwt>
</event>
<event>
 4    1  0.4604841E-002  0.6788986E+02  0.7818608E-02  0.1367419E+00
         -2   -1    0    0  501    0 -0.00000000000E+00  0.00000000000E+00  0.20543423031E+02  0.20543423189E+02  0.25500000000E-02 0. -1.
          2   -1    0    0    0  501  0.00000000000E+00 -0.00000000000E+00 -0.56088913153E+02  0.56088913211E+02  0.25500000000E-02 0. -1.
          2    1    1    2    0  502  0.26086142808E+02  0.28320896129E+01  0.65352667521E+01  0.27041029866E+02  0.25500000000E-02 0. -1.
         -2    1    1    2  502    0 -0.26086142808E+02 -0.28320896129E+01 -0.42080756874E+02  0.49591306534E+02  0.25500000000E-02 0. -1.
<mgrwt>
<rscale>  0 0.67889860E+02</rscale>
<asrwt>0</asrwt>
<pdfrwt beam="2">  1        2 0.86290635E-02 0.67889860E+02</pdfrwt>
<pdfrwt beam="1">  1       -2 0.31605267E-02 0.67889860E+02</pdfrwt>
<totfact> 0.23494696E+05</totfact>
</mgrwt>
</event>
<event>
 4    1  0.4604841E-002  0.7187497E+02  0.7818608E-02  0.1353831E+00
          2   -1    0    0    0  501  0.00000000000E+00  0.00000000000E+00  0.35430024292E+03  0.35430024293E+03  0.25500000000E-02 0. -1.
         -2   -1    0    0  501    0 -0.00000000000E+00 -0.00000000000E+00 -0.36452206060E+01  0.36452214979E+01  0.25500000000E-02 0. -1.
          2    1    1    2    0  502  0.25491729684E+02  0.14617339633E+02  0.72297190885E+02  0.78040878497E+02  0.25500000000E-02 0. -1.
         -2    1    1    2  502    0 -0.25491729684E+02 -0.14617339633E+02  0.27835783143E+03  0.27990458593E+03  0.25500000000E-02 0. -1.
<mgrwt>
<rscale>  0 0.71874967E+02</rscale>
<asrwt>0</asrwt>
<pdfrwt beam="1">  1        2 0.54507740E-01 0.71874967E+02</pdfrwt>
<pdfrwt beam="2">  1       -2 0.56080314E-03 0.71874967E+02</pdfrwt>
<totfact> 0.35674405E+05</totfact>
</mgrwt>
</event>
<event>
 4    1  0.4604841E-002  0.4139934E+02  0.7818608E-02  0.1498159E+00
          2   -1    0    0    0  501  0.00000000000E+00  0.00000000000E+00  0.80196913971E+03  0.80196913972E+03  0.25500000000E-02 0.  1.
         -2   -1    0    0  501    0 -0.00000000000E+00 -0.00000000000E+00 -0.53427732060E+00  0.53428340589E+00  0.25500000000E-02 0.  1.
          2    1    1    2    0  502 -0.16022430293E+02  0.12245145232E+02  0.49125444183E+03  0.49166816907E+03  0.25500000000E-02 0.  1.
         -2    1    1    2  502    0  0.16022430293E+02 -0.12245145232E+02  0.31018042056E+03  0.31083525405E+03  0.25500000000E-02 0.  1.
<mgrwt>
<rscale>  0 0.41399341E+02</rscale>
<asrwt>0</asrwt>
<pdfrwt beam="1">  1        2 0.12338065E+00 0.41399341E+02</pdfrwt>
<pdfrwt beam="2">  1       -2 0.82196461E-04 0.41399341E+02</pdfrwt>
<totfact> 0.17911239E+06</totfact>
</mgrwt>
</event>
<event>
 4    1  0.4604841E-002  0.5027893E+02  0.7818608E-02  0.1443843E+00
          2   -1    0    0    0  501  0.00000000000E+00  0.00000000000E+00  0.30767351825E+02  0.30767351931E+02  0.25500000000E-02 0. -1.
         -2   -1    0    0  501    0 -0.00000000000E+00 -0.00000000000E+00 -0.20541017472E+02  0.20541017630E+02  0.25500000000E-02 0. -1.
          2    1    1    2    0  502  0.21527974598E+02  0.17315474183E+01 -0.80165285029E+01  0.23037288958E+02  0.25500000000E-02 0.  1.
         -2    1    1    2  502    0 -0.21527974598E+02 -0.17315474183E+01  0.18242862856E+02  0.28271080603E+02  0.25500000000E-02 0.  1.
<mgrwt>
<rscale>  0 0.50278931E+02</rscale>
<asrwt>0</asrwt>
<pdfrwt beam="1">  1        2 0.47334387E-02 0.50278931E+02</pdfrwt>
<pdfrwt beam="2">  1       -2 0.31601566E-02 0.50278931E+02</pdfrwt>
<totfact> 0.46455763E+05</totfact>
</mgrwt>
</event>
<event>
 4    1  0.4604841E-002  0.5424432E+02  0.7818608E-02  0.1423707E+00
          2   -1    0    0    0  501  0.00000000000E+00  0.00000000000E+00  0.28272248682E+04  0.28272248682E+04  0.25500000000E-02 0.  1.
         -2   -1    0    0  501    0 -0.00000000000E+00 -0.00000000000E+00 -0.26018229421E+00  0.26019478995E+00  0.25500000000E-02 0.  1.
          2    1    1    2    0  502  0.25311544719E+02  0.61661842226E+01  0.18067252685E+04  0.18069130837E+04  0.25500000000E-02 0. -1.
         -2    1    1    2  502    0 -0.25311544719E+02 -0.61661842226E+01  0.10202394173E+04  0.10205719792E+04  0.25500000000E-02 0. -1.
<mgrwt>
<rscale>  0 0.54244318E+02</rscale>
<asrwt>0</asrwt>
<pdfrwt beam="1">  1        2 0.43493141E+00 0.54244318E+02</pdfrwt>
<pdfrwt beam="2">  1       -2 0.40031424E-04 0.54244318E+02</pdfrwt>
<totfact> 0.45396541E+05</totfact>
</mgrwt>
</event>
<event>
 4    1  0.4604841E-002  0.5706564E+02  0.7818608E-02  0.1410575E+00
          2   -1    0    0    0  501  0.00000000000E+00  0.00000000000E+00  0.19038108810E+03  0.19038108812E+03  0.25500000000E-02 0. -1.
         -2   -1    0    0  501    0 -0.00000000000E+00 -0.00000000000E+00 -0.42762744366E+01  0.42762751969E+01  0.25500000000E-02 0. -1.
          2    1    1    2    0  502 -0.11570838549E+01  0.25644722008E+02  0.13553839904E+03  0.13794799103E+03  0.25500000000E-02 0.  1.
         -2    1    1    2  502    0  0.11570838549E+01 -0.25644722008E+02  0.50566414626E+02  0.56709372281E+02  0.25500000000E-02 0.  1.
<mgrwt>
<rscale>  0 0.57065641E+02</rscale>
<asrwt>0</asrwt>
<pdfrwt beam="1">  1        2 0.29289392E-01 0.57065641E+02</pdfrwt>
<pdfrwt beam="2">  1       -2 0.65788859E-03 0.57065641E+02</pdfrwt>
<totfact> 0.51867070E+05</totfact>
</mgrwt>
</event>
<event>
 4    1  0.4604841E-002  0.4481404E+02  0.7818608E-02  0.1475506E+00
          2   -1    0    0    0  501  0.00000000000E+00  0.00000000000E+00  0.38281962521E+02  0.38281962606E+02  0.25500000000E-02 0. -1.
         -2   -1    0    0  501    0 -0.00000000000E+00 -0.00000000000E+00 -0.13115171130E+02  0.13115171378E+02  0.25500000000E-02 0. -1.
          2    1    1    2    0  502 -0.87340722091E+01 -0.19038984543E+02  0.34579822327E+01  0.21230275490E+02  0.25500000000E-02 0.  1.
         -2    1    1    2  502    0  0.87340722091E+01  0.19038984543E+02  0.21708809159E+02  0.30166858494E+02  0.25500000000E-02 0.  1.
<mgrwt>
<rscale>  0 0.44814038E+02</rscale>
<asrwt>0</asrwt>
<pdfrwt beam="1">  1        2 0.58895326E-02 0.44814038E+02</pdfrwt>
<pdfrwt beam="2">  1       -2 0.20177187E-02 0.44814038E+02</pdfrwt>
<totfact> 0.64785072E+05</totfact>
</mgrwt>
</event>
<event>
 4    1  0.4604841E-002  0.7098788E+02  0.7818608E-02  0.1356766E+00
          2   -1    0    0    0  501  0.00000000000E+00  0.00000000000E+00  0.13054303871E+03  0.13054303873E+03  0.25500000000E-02 0.  1.
         -2   -1    0    0  501    0 -0.00000000000E+00 -0.00000000000E+00 -0.96506080048E+01  0.96506083417E+01  0.25500000000E-02 0.  1.
          2    1    1    2    0  502 -0.46257843193E+00 -0.33641898974E+02  0.82774623334E+02  0.89351159030E+02  0.25500000000E-02 0.  1.
         -2    1    1    2  502    0  0.46257843193E+00  0.33641898974E+02  0.38117807367E+02  0.50842488043E+02  0.25500000000E-02 0.  1.
<mgrwt>
<rscale>  0 0.70987878E+02</rscale>
<asrwt>0</asrwt>
<pdfrwt beam="1">  1        2 0.20083543E-01 0.70987878E+02</pdfrwt>
<pdfrwt beam="2">  1       -2 0.14847091E-02 0.70987878E+02</pdfrwt>
<totfact> 0.26102957E+05</totfact>
</mgrwt>
</event>
<event>
 4    1  0.4604841E-002  0.4434343E+02  0.7818608E-02  0.1478483E+00
          2   -1    0    0    0  501  0.00000000000E+00  0.00000000000E+00  0.12918615996E+01  0.12918641163E+01  0.25500000000E-02 0.  1.
         -2   -1    0    0  501    0 -0.00000000000E+00 -0.00000000000E+00 -0.38052411926E+03  0.38052411926E+03  0.25500000000E-02 0.  1.
          2    1    1    2    0  502 -0.21767386953E+02 -0.41766323541E+01 -0.18473332146E+03  0.18605822598E+03  0.25500000000E-02 0.  1.
         -2    1    1    2  502    0  0.21767386953E+02  0.41766323541E+01 -0.19449893620E+03  0.19575775740E+03  0.25500000000E-02 0.  1.
<mgrwt>
<rscale>  0 0.44343432E+02</rscale>
<asrwt>0</asrwt>
<pdfrwt beam="1">  1        2 0.19874843E-03 0.44343432E+02</pdfrwt>
<pdfrwt beam="2">  1       -2 0.58542083E-01 0.44343432E+02</pdfrwt>
<totfact> 0.26995867E+05</totfact>
</mgrwt>
</event>
<event>
 4    1  0.4604841E-002  0.4630001E+02  0.7818608E-02  0.1466385E+00
          2   -1    0    0    0  501  0.00000000000E+00  0.00000000000E+00  0.15829615303E+03  0.15829615305E+03  0.25500000000E-02 0.  1.
         -2   -1    0    0  501    0 -0.00000000000E+00 -0.00000000000E+00 -0.33855703259E+01  0.33855712862E+01  0.25500000000E-02 0.  1.
          2    1    1    2    0  502 -0.21695223735E+02  0.79375301891E+01  0.72233881191E+02  0.75838121791E+02  0.25500000000E-02 0.  1.
         -2    1    1    2  502    0  0.21695223735E+02 -0.79375301891E+01  0.82676701511E+02  0.85843602544E+02  0.25500000000E-02 0.  1.
<mgrwt>
<rscale>  0 0.46300015E+02</rscale>
<asrwt>0</asrwt>
<pdfrwt beam="1">  1        2 0.24353256E-01 0.46300015E+02</pdfrwt>
<pdfrwt beam="2">  1       -2 0.52085702E-03 0.46300015E+02</pdfrwt>
<totfact> 0.82750135E+05</totfact>
</mgrwt>
</event>
<event>
 4    1  0.4604841E-002  0.4105373E+02  0.7818608E-02  0.1500597E+00
          2   -1    0    0    0  501  0.00000000000E+00  0.00000000000E+00  0.20563449382E+02  0.20563449540E+02  0.25500000000E-02 0. -1.
         -2   -1    0    0  501    0 -0.00000000000E+00 -0.00000000000E+00 -0.20490347798E+02  0.20490347956E+02  0.25500000000E-02 0. -1.
          2    1    1    2    0  502 -0.20152609248E+02  0.30552213176E+01  0.24635266160E+01  0.20531220292E+02  0.25500000000E-02 0.  1.
         -2    1    1    2  502    0  0.20152609248E+02 -0.30552213176E+01 -0.23904250315E+01  0.20522577205E+02  0.25500000000E-02 0.  1.
<mgrwt>
<rscale>  0 0.41053732E+02</rscale>
<asrwt>0</asrwt>
<pdfrwt beam="1">  1        2 0.31636076E-02 0.41053732E+02</pdfrwt>
<pdfrwt beam="2">  1       -2 0.31523612E-02 0.41053732E+02</pdfrwt>
<totfact> 0.74027635E+05</totfact>
</mgrwt>
</event>
<event>
 4    1  0.4604841E-002  0.6678016E+02  0.7818608E-02  0.1371398E+00
          2   -1    0    0    0  501  0.00000000000E+00  0.00000000000E+00  0.93413379361E+03  0.93413379361E+03  0.25500000000E-02 0.  1.
         -2   -1    0    0  501    0 -0.00000000000E+00 -0.00000000000E+00 -0.11935081097E+01  0.11935108338E+01  0.25500000000E-02 0.  1.
          2    1    1    2    0  502 -0.24721762743E+02 -0.26437914695E+00  0.15214019091E+03  0.15413589182E+03  0.25500000000E-02 0. -1.
         -2    1    1    2  502    0  0.24721762743E+02  0.26437914695E+00  0.78080009459E+03  0.78119141263E+03  0.25500000000E-02 0. -1.
<mgrwt>
<rscale>  0 0.66780163E+02</rscale>
<asrwt>0</asrwt>
<pdfrwt beam="1">  1        2 0.14371304E+00 0.66780163E+02</pdfrwt>
<pdfrwt beam="2">  1       -2 0.18361665E-03 0.66780163E+02</pdfrwt>
<totfact> 0.55780062E+05</totfact>
</mgrwt>
</event>
<event>
 4    1  0.4604841E-002  0.4995010E+02  0.7818608E-02  0.1445611E+00
         -2   -1    0    0  501    0 -0.00000000000E+00  0.00000000000E+00  0.32022588875E+00  0.32023604158E+00  0.25500000000E-02 0.  1.
          2   -1    0    0    0  501  0.00000000000E+00 -0.00000000000E+00 -0.19478228792E+04  0.19478228792E+04  0.25500000000E-02 0.  1.
          2    1    1    2    0  502  0.15068870519E+02  0.18447191015E+02 -0.12666115672E+04  0.12668355189E+04  0.25500000000E-02 0. -1.
         -2    1    1    2  502    0 -0.15068870519E+02 -0.18447191015E+02 -0.68089108603E+03  0.68130759629E+03  0.25500000000E-02 0. -1.
<mgrwt>
<rscale>  0 0.49950103E+02</rscale>
<asrwt>0</asrwt>
<pdfrwt beam="2">  1        2 0.29965557E+00 0.49950103E+02</pdfrwt>
<pdfrwt beam="1">  1       -2 0.49267862E-04 0.49950103E+02</pdfrwt>
<totfact> 0.94429125E+05</totfact>
</mgrwt>
</event>
<event>
 4    1  0.4604841E-002  0.4080251E+02  0.7818608E-02  0.1502388E+00
          2   -1    0    0    0  501  0.00000000000E+00  0.00000000000E+00  0.95403550654E+03  0.95403550655E+03  0.25500000000E-02 0. -1.
         -2   -1    0    0  501    0 -0.00000000000E+00 -0.00000000000E+00 -0.43626013094E+00  0.43626758342E+00  0.25500000000E-02 0. -1.
          2    1    1    2    0  502  0.20717077708E+01 -0.20295717652E+02  0.47550168376E+03  0.47593913412E+03  0.25500000000E-02 0.  1.
         -2    1    1    2  502    0 -0.20717077708E+01  0.20295717652E+02  0.47809756266E+03  0.47853264001E+03  0.25500000000E-02 0.  1.
<mgrwt>
<rscale>  0 0.40802510E+02</rscale>
<asrwt>0</asrwt>
<pdfrwt beam="1">  1        2 0.14677338E+00 0.40802510E+02</pdfrwt>
<pdfrwt beam="2">  1       -2 0.67118116E-04 0.40802510E+02</pdfrwt>
<totfact> 0.18953940E+06</totfact>
</mgrwt>
</event>
<event>
 4    1  0.4604841E-002  0.6432415E+02  0.7818608E-02  0.1380532E+00
          2   -1    0    0    0  501  0.00000000000E+00  0.00000000000E+00  0.70157619785E+03  0.70157619785E+03  0.25500000000E-02 0. -1.
         -2   -1    0    0  501    0 -0.00000000000E+00 -0.00000000000E+00 -0.14743917600E+01  0.14743939652E+01  0.25500000000E-02 0. -1.
          2    1    1    2    0  502 -0.64159728053E+01 -0.26817841229E+02  0.16911796212E+03  0.17135123704E+03  0.25500000000E-02 0. -1.
         -2    1    1    2  502    0  0.64159728053E+01  0.26817841229E+02  0.53098384397E+03  0.53169935478E+03  0.25500000000E-02 0. -1.
<mgrwt>
<rscale>  0 0.64324146E+02</rscale>
<asrwt>0</asrwt>
<pdfrwt beam="1">  1        2 0.10793515E+00 0.64324146E+02</pdfrwt>
<pdfrwt beam="2">  1       -2 0.22682893E-03 0.64324146E+02</pdfrwt>
<totfact> 0.58569618E+05</totfact>
</mgrwt>
</event>
<event>
 4    1  0.4604841E-002  0.5639574E+02  0.7818608E-02  0.1413611E+00
          2   -1    0    0    0  501  0.00000000000E+00  0.00000000000E+00  0.35023721910E+03  0.35023721911E+03  0.25500000000E-02 0.  1.
         -2   -1    0    0  501    0 -0.00000000000E+00 -0.00000000000E+00 -0.22702315191E+01  0.22702329512E+01  0.25500000000E-02 0.  1.
          2    1    1    2    0  502  0.14661308103E+02 -0.23686984212E+02  0.14667139558E+03  0.14929342070E+03  0.25500000000E-02 0.  1.
         -2    1    1    2  502    0 -0.14661308103E+02  0.23686984212E+02  0.20129559200E+03  0.20321403136E+03  0.25500000000E-02 0.  1.
<mgrwt>
<rscale>  0 0.56395738E+02</rscale>
<asrwt>0</asrwt>
<pdfrwt beam="1">  1        2 0.53882634E-01 0.56395738E+02</pdfrwt>
<pdfrwt beam="2">  1       -2 0.34926659E-03 0.56395738E+02</pdfrwt>
<totfact> 0.66045281E+05</totfact>
</mgrwt>
</event>
<event>
 4    1  0.4604841E-002  0.6731447E+02  0.7818608E-02  0.1369471E+00
         -2   -1    0    0  501    0 -0.00000000000E+00  0.00000000000E+00  0.80329385098E+02  0.80329385138E+02  0.25500000000E-02 0.  1.
          2   -1    0    0    0  501  0.00000000000E+00 -0.00000000000E+00 -0.14102056258E+02  0.14102056488E+02  0.25500000000E-02 0.  1.
          2    1    1    2    0  502 -0.53683881690E+01  0.33220018608E+02  0.34023118492E+02  0.47853545598E+02  0.25500000000E-02 0. -1.
         -2    1    1    2  502    0  0.53683881690E+01 -0.33220018608E+02  0.32204210348E+02  0.46577896029E+02  0.25500000000E-02 0. -1.
<mgrwt>
<rscale>  0 0.67314472E+02</rscale>
<asrwt>0</asrwt>
<pdfrwt beam="2">  1        2 0.21695472E-02 0.67314472E+02</pdfrwt>
<pdfrwt beam="1">  1       -2 0.12358367E-01 0.67314472E+02</pdfrwt>
<totfact> 0.17944815E+05</totfact>
</mgrwt>
</event>
<event>
 4    1  0.4604841E-002  0.5536370E+02  0.7818608E-02  0.1418387E+00
          2   -1    0    0    0  501  0.00000000000E+00  0.00000000000E+00  0.29137046612E+02  0.29137046724E+02  0.25500000000E-02 0.  1.
         -2   -1    0    0  501    0 -0.00000000000E+00 -0.00000000000E+00 -0.26299332237E+02  0.26299332360E+02  0.25500000000E-02 0.  1.
          2    1    1    2    0  502 -0.23419744889E+02  0.14683827538E+02  0.28991846674E+01  0.27793965533E+02  0.25500000000E-02 0.  1.
         -2    1    1    2  502    0  0.23419744889E+02 -0.14683827538E+02 -0.61470291823E-01  0.27642413551E+02  0.25500000000E-02 0.  1.
<mgrwt>
<rscale>  0 0.55363702E+02</rscale>
<asrwt>0</asrwt>
<pdfrwt beam="1">  1        2 0.44826226E-02 0.55363702E+02</pdfrwt>
<pdfrwt beam="2">  1       -2 0.40460511E-02 0.55363702E+02</pdfrwt>
<totfact> 0.35682754E+05</totfact>
</mgrwt>
</event>
<event>
 4    1  0.4604841E-002  0.2110378E+03  0.7818608E-02  0.1140747E+00
          2   -1    0    0    0  501  0.00000000000E+00  0.00000000000E+00  0.13292979753E+04  0.13292979753E+04  0.25500000000E-02 0. -1.
         -2   -1    0    0  501    0 -0.00000000000E+00 -0.00000000000E+00 -0.83760262856E+01  0.83760266737E+01  0.25500000000E-02 0. -1.
          2    1    1    2    0  502  0.32716904119E+02 -0.25403671327E+02  0.12756106528E+04  0.12762829937E+04  0.25500000000E-02 0.  1.
         -2    1    1    2  502    0 -0.32716904119E+02  0.25403671327E+02  0.45311296202E+02  0.61391008316E+02  0.25500000000E-02 0.  1.
<mgrwt>
<rscale>  0 0.21103777E+03</rscale>
<asrwt>0</asrwt>
<pdfrwt beam="1">  1        2 0.20450741E+00 0.21103777E+03</pdfrwt>
<pdfrwt beam="2">  1       -2 0.12886193E-02 0.21103777E+03</pdfrwt>
<totfact> 0.24542588E+04</totfact>
</mgrwt>
</event>
<event>
 4    1  0.4604841E-002  0.4904935E+02  0.7818608E-02  0.1450538E+00
         -2   -1    0    0  501    0 -0.00000000000E+00  0.00000000000E+00  0.27549756248E+03  0.27549756249E+03  0.25500000000E-02 0.  1.
          2   -1    0    0    0  501  0.00000000000E+00 -0.00000000000E+00 -0.21831755537E+01  0.21831770429E+01  0.25500000000E-02 0.  1.
          2    1    1    2    0  502 -0.18230011327E+02  0.12137608065E+02  0.19913774594E+03  0.20033845539E+03  0.25500000000E-02 0.  1.
         -2    1    1    2  502    0  0.18230011327E+02 -0.12137608065E+02  0.74176640980E+02  0.77342284141E+02  0.25500000000E-02 0.  1.
<mgrwt>
<rscale>  0 0.49049353E+02</rscale>
<asrwt>0</asrwt>
<pdfrwt beam="2">  1        2 0.33587343E-03 0.49049353E+02</pdfrwt>
<pdfrwt beam="1">  1       -2 0.42384221E-01 0.49049353E+02</pdfrwt>
<totfact> 0.25479511E+05</totfact>
</mgrwt>
</event>
<event>
 4    1  0.4604841E-002  0.4767564E+02  0.7818608E-02  0.1458297E+00
         -2   -1    0    0  501    0 -0.00000000000E+00  0.00000000000E+00  0.78500985220E+01  0.78500989362E+01  0.25500000000E-02 0. -1.
          2   -1    0    0    0  501  0.00000000000E+00 -0.00000000000E+00 -0.72386558591E+02  0.72386558636E+02  0.25500000000E-02 0. -1.
          2    1    1    2    0  502  0.76978883370E+01 -0.22558086900E+02 -0.31692912535E+02  0.39655585746E+02  0.25500000000E-02 0.  1.
         -2    1    1    2  502    0 -0.76978883370E+01  0.22558086900E+02 -0.32843547534E+02  0.40581071826E+02  0.25500000000E-02 0.  1.
<mgrwt>
<rscale>  0 0.47675639E+02</rscale>
<asrwt>0</asrwt>
<pdfrwt beam="2">  1        2 0.11136393E-01 0.47675639E+02</pdfrwt>
<pdfrwt beam="1">  1       -2 0.12077076E-02 0.47675639E+02</pdfrwt>
<totfact> 0.62487302E+05</totfact>
</mgrwt>
</event>
<event>
 4    1  0.4604841E-002  0.9484831E+02  0.7818608E-02  0.1291518E+00
         -2   -1    0    0  501    0 -0.00000000000E+00  0.00000000000E+00  0.11577912029E+01  0.11577940110E+01  0.25500000000E-02 0.  1.
          2   -1    0    0    0  501  0.00000000000E+00 -0.00000000000E+00 -0.19425330190E+04  0.19425330190E+04  0.25500000000E-02 0.  1.
          2    1    1    2    0  502  0.31838748663E+02  0.14161616933E+02 -0.16298984651E+04  0.16302709173E+04  0.25500000000E-02 0. -1.
         -2    1    1    2  502    0 -0.31838748663E+02 -0.14161616933E+02 -0.31147676271E+03  0.31341989571E+03  0.25500000000E-02 0. -1.
<mgrwt>
<rscale>  0 0.94848308E+02</rscale>
<asrwt>0</asrwt>
<pdfrwt beam="2">  1        2 0.29884863E+00 0.94848308E+02</pdfrwt>
<pdfrwt beam="1">  1       -2 0.17812349E-03 0.94848308E+02</pdfrwt>
<totfact> 0.18198818E+05</totfact>
</mgrwt>
</event>
<event>
 4    1  0.4604841E-002  0.5070802E+02  0.7818608E-02  0.1441560E+00
          2   -1    0    0    0  501  0.00000000000E+00  0.00000000000E+00  0.10274423025E+03  0.10274423028E+03  0.25500000000E-02 0. -1.
         -2   -1    0    0  501    0 -0.00000000000E+00 -0.00000000000E+00 -0.62565623790E+01  0.62565628987E+01  0.25500000000E-02 0. -1.
          2    1    1    2    0  502  0.19815262670E+02  0.14694067460E+02  0.35660917882E+02  0.43361980166E+02  0.25500000000E-02 0. -1.
         -2    1    1    2  502    0 -0.19815262670E+02 -0.14694067460E+02  0.60826749991E+02  0.65638813017E+02  0.25500000000E-02 0. -1.
<mgrwt>
<rscale>  0 0.50708016E+02</rscale>
<asrwt>0</asrwt>
<pdfrwt beam="1">  1        2 0.15806805E-01 0.50708016E+02</pdfrwt>
<pdfrwt beam="2">  1       -2 0.96254808E-03 0.50708016E+02</pdfrwt>
<totfact> 0.58190823E+05</totfact>
</mgrwt>
</event>
<event>
 4    1  0.4604841E-002  0.4346310E+02  0.7818608E-02  0.1484171E+00
         -2   -1    0    0  501    0 -0.00000000000E+00  0.00000000000E+00  0.16642550089E+02  0.16642550285E+02  0.25500000000E-02 0. -1.
          2   -1    0    0    0  501  0.00000000000E+00 -0.00000000000E+00 -0.28376677494E+02  0.28376677608E+02  0.25500000000E-02 0. -1.
          2    1    1    2    0  502  0.13427740761E+02 -0.16084037447E+02 -0.11840677144E+02  0.24066618464E+02  0.25500000000E-02 0. -1.
         -2    1    1    2  502    0 -0.13427740761E+02  0.16084037447E+02  0.10654973940E+00  0.20952609429E+02  0.25500000000E-02 0. -1.
<mgrwt>
<rscale>  0 0.43463101E+02</rscale>
<asrwt>0</asrwt>
<pdfrwt beam="2">  1        2 0.43656427E-02 0.43463101E+02</pdfrwt>
<pdfrwt beam="1">  1       -2 0.25603923E-02 0.43463101E+02</pdfrwt>
<totfact> 0.66900367E+05</totfact>
</mgrwt>
</event>
<event>
 4    1  0.4604841E-002  0.5875002E+02  0.7818608E-02  0.1403153E+00
          2   -1    0    0    0  501  0.00000000000E+00  0.00000000000E+00  0.25584624835E+03  0.25584624836E+03  0.25500000000E-02 0.  1.
         -2   -1    0    0  501    0 -0.00000000000E+00 -0.00000000000E+00 -0.33726935053E+01  0.33726944693E+01  0.25500000000E-02 0.  1.
          2    1    1    2    0  502 -0.14117683760E+02 -0.24559038446E+02  0.91935866719E+02  0.96201138039E+02  0.25500000000E-02 0. -1.
         -2    1    1    2  502    0  0.14117683760E+02  0.24559038446E+02  0.16053768812E+03  0.16301780479E+03  0.25500000000E-02 0. -1.
<mgrwt>
<rscale>  0 0.58750016E+02</rscale>
<asrwt>0</asrwt>
<pdfrwt beam="1">  1        2 0.39360969E-01 0.58750016E+02</pdfrwt>
<pdfrwt beam="2">  1       -2 0.51887590E-03 0.58750016E+02</pdfrwt>
<totfact> 0.53307718E+05</totfact>
</mgrwt>
</event>
<event>
 4    1  0.4604841E-002  0.5829674E+02  0.7818608E-02  0.1405122E+00
         -2   -1    0    0  501    0 -0.00000000000E+00  0.00000000000E+00  0.41735248874E+02  0.41735248952E+02  0.25500000000E-02 0. -1.
          2   -1    0    0    0  501  0.00000000000E+00 -0.00000000000E+00 -0.20357551741E+02  0.20357551900E+02  0.25500000000E-02 0. -1.
          2    1    1    2    0  502  0.94729648495E+01  0.26244440340E+02  0.19671243988E+02  0.34138915600E+02  0.25500000000E-02 0. -1.
         -2    1    1    2  502    0 -0.94729648495E+01 -0.26244440340E+02  0.17064531449E+01  0.27953885252E+02  0.25500000000E-02 0. -1.
<mgrwt>
<rscale>  0 0.58296741E+02</rscale>
<asrwt>0</asrwt>
<pdfrwt beam="2">  1        2 0.31319310E-02 0.58296741E+02</pdfrwt>
<pdfrwt beam="1">  1       -2 0.64208076E-02 0.58296741E+02</pdfrwt>
<totfact> 0.29136225E+05</totfact>
</mgrwt>
</event>
<event>
 4    1  0.4604841E-002  0.7351545E+02  0.7818608E-02  0.1348531E+00
         -2   -1    0    0  501    0 -0.00000000000E+00  0.00000000000E+00  0.23419488887E+01  0.23419502770E+01  0.25500000000E-02 0.  1.
          2   -1    0    0    0  501  0.00000000000E+00 -0.00000000000E+00 -0.57692548888E+03  0.57692548889E+03  0.25500000000E-02 0.  1.
          2    1    1    2    0  502  0.10309430838E+02 -0.28184502266E+02 -0.12005253095E+03  0.12374676047E+03  0.25500000000E-02 0. -1.
         -2    1    1    2  502    0 -0.10309430838E+02  0.28184502266E+02 -0.45453100905E+03  0.45552067870E+03  0.25500000000E-02 0. -1.
<mgrwt>
<rscale>  0 0.73515452E+02</rscale>
<asrwt>0</asrwt>
<pdfrwt beam="2">  1        2 0.88757655E-01 0.73515452E+02</pdfrwt>
<pdfrwt beam="1">  1       -2 0.36030040E-03 0.73515452E+02</pdfrwt>
<totfact> 0.39540009E+05</totfact>
</mgrwt>
</event>
<event>
 4    1  0.4604841E-002  0.8370032E+02  0.7818608E-02  0.1318867E+00
         -2   -1    0    0  501    0 -0.00000000000E+00  0.00000000000E+00  0.14180526820E+03  0.14180526822E+03  0.25500000000E-02 0. -1.
          2   -1    0    0    0  501  0.00000000000E+00 -0.00000000000E+00 -0.12350993268E+02  0.12350993532E+02  0.25500000000E-02 0. -1.
          2    1    1    2    0  502 -0.29484402531E+02  0.33740690876E+01  0.11907390325E+03  0.12271637534E+03  0.25500000000E-02 0. -1.
         -2    1    1    2  502    0  0.29484402531E+02 -0.33740690876E+01  0.10380371677E+02  0.31439886410E+02  0.25500000000E-02 0. -1.
<mgrwt>
<rscale>  0 0.83700321E+02</rscale>
<asrwt>0</asrwt>
<pdfrwt beam="2">  1        2 0.19001528E-02 0.83700321E+02</pdfrwt>
<pdfrwt beam="1">  1       -2 0.21816195E-01 0.83700321E+02</pdfrwt>
<totfact> 0.88454358E+04</totfact>
</mgrwt>
</event>
<event>
 4    1  0.4604841E-002  0.5198462E+02  0.7818608E-02  0.1434922E+00
         -2   -1    0    0  501    0 -0.00000000000E+00  0.00000000000E+00  0.21735571432E+02  0.21735571581E+02  0.25500000000E-02 0.  1.
          2   -1    0    0    0  501  0.00000000000E+00 -0.00000000000E+00 -0.31082700094E+02  0.31082700198E+02  0.25500000000E-02 0.  1.
          2    1    1    2    0  502 -0.19846082822E+02  0.11399751191E+02  0.78438611573E+01  0.24193955752E+02  0.25500000000E-02 0. -1.
         -2    1    1    2  502    0  0.19846082822E+02 -0.11399751191E+02 -0.17190989819E+02  0.28624316027E+02  0.25500000000E-02 0. -1.
<mgrwt>
<rscale>  0 0.51984623E+02</rscale>
<asrwt>0</asrwt>
<pdfrwt beam="2">  1        2 0.47819539E-02 0.51984623E+02</pdfrwt>
<pdfrwt beam="1">  1       -2 0.33439341E-02 0.51984623E+02</pdfrwt>
<totfact> 0.42635015E+05</totfact>
</mgrwt>
</event>
<event>
 4    1  0.4604841E-002  0.6715464E+02  0.7818608E-02  0.1370045E+00
         -2   -1    0    0  501    0 -0.00000000000E+00  0.00000000000E+00  0.56871279556E+02  0.56871279613E+02  0.25500000000E-02 0. -1.
          2   -1    0    0    0  501  0.00000000000E+00 -0.00000000000E+00 -0.19824352255E+02  0.19824352419E+02  0.25500000000E-02 0. -1.
          2    1    1    2    0  502 -0.14033405821E+01  0.24773717990E+02  0.44358851781E+02  0.50827297840E+02  0.25500000000E-02 0.  1.
         -2    1    1    2  502    0  0.14033405821E+01 -0.24773717990E+02 -0.73119244805E+01  0.25868334193E+02  0.25500000000E-02 0.  1.
<mgrwt>
<rscale>  0 0.67154636E+02</rscale>
<asrwt>0</asrwt>
<pdfrwt beam="2">  1        2 0.30499004E-02 0.67154636E+02</pdfrwt>
<pdfrwt beam="1">  1       -2 0.87494276E-02 0.67154636E+02</pdfrwt>
<totfact> 0.19506074E+05</totfact>
</mgrwt>
</event>
<event>
 4    1  0.4604841E-002  0.5875393E+02  0.7818608E-02  0.1403137E+00
         -2   -1    0    0  501    0 -0.00000000000E+00  0.00000000000E+00  0.56113533537E+00  0.56114112940E+00  0.25500000000E-02 0.  1.
          2   -1    0    0    0  501  0.00000000000E+00 -0.00000000000E+00 -0.15379563541E+04  0.15379563541E+04  0.25500000000E-02 0.  1.
          2    1    1    2    0  502 -0.27524213161E+02  0.42566080257E+01 -0.10133701754E+04  0.10137528365E+04  0.25500000000E-02 0.  1.
         -2    1    1    2  502    0  0.27524213161E+02 -0.42566080257E+01 -0.52402504337E+03  0.52476465879E+03  0.25500000000E-02 0.  1.
<mgrwt>
<rscale>  0 0.58753931E+02</rscale>
<asrwt>0</asrwt>
<pdfrwt beam="2">  1        2 0.23660530E+00 0.58753931E+02</pdfrwt>
<pdfrwt beam="1">  1       -2 0.86330190E-04 0.58753931E+02</pdfrwt>
<totfact> 0.72540221E+05</totfact>
</mgrwt>
</event>
<event>
 4    1  0.4604841E-002  0.4836373E+02  0.7818608E-02  0.1454372E+00
          2   -1    0    0    0  501  0.00000000000E+00  0.00000000000E+00  0.11162860801E+04  0.11162860801E+04  0.25500000000E-02 0.  1.
         -2   -1    0    0  501    0 -0.00000000000E+00 -0.00000000000E+00 -0.52384345825E+00  0.52384966474E+00  0.25500000000E-02 0.  1.
          2    1    1    2    0  502 -0.14985580715E+02  0.16777441866E+02  0.76275242828E+03  0.76308408255E+03  0.25500000000E-02 0.  1.
         -2    1    1    2  502    0  0.14985580715E+02 -0.16777441866E+02  0.35300980833E+03  0.35372584718E+03  0.25500000000E-02 0.  1.
<mgrwt>
<rscale>  0 0.48363731E+02</rscale>
<asrwt>0</asrwt>
<pdfrwt beam="1">  1        2 0.17173440E+00 0.48363731E+02</pdfrwt>
<pdfrwt beam="2">  1       -2 0.80592682E-04 0.48363731E+02</pdfrwt>
<totfact> 0.12571479E+06</totfact>
</mgrwt>
</event>
<event>
 4    1  0.4604841E-002  0.4714399E+02  0.7818608E-02  0.1461384E+00
         -2   -1    0    0  501    0 -0.00000000000E+00  0.00000000000E+00  0.36915106160E+00  0.36915986886E+00  0.25500000000E-02 0.  1.
          2   -1    0    0    0  501  0.00000000000E+00 -0.00000000000E+00 -0.15051626319E+04  0.15051626319E+04  0.25500000000E-02 0.  1.
          2    1    1    2    0  502 -0.17190141297E+02  0.15487357229E+02 -0.60858458990E+03  0.60902427067E+03  0.25500000000E-02 0. -1.
         -2    1    1    2  502    0  0.17190141297E+02 -0.15487357229E+02 -0.89620889092E+03  0.89650752109E+03  0.25500000000E-02 0. -1.
<mgrwt>
<rscale>  0 0.47143993E+02</rscale>
<asrwt>0</asrwt>
<pdfrwt beam="2">  1        2 0.23155857E+00 0.47143993E+02</pdfrwt>
<pdfrwt beam="1">  1       -2 0.56794354E-04 0.47143993E+02</pdfrwt>
<totfact> 0.12658160E+06</totfact>
</mgrwt>
</event>
<event>
 4    1  0.4604841E-002  0.1060006E+03  0.7818608E-02  0.1268161E+00
         -2   -1    0    0  501    0 -0.00000000000E+00  0.00000000000E+00  0.26632808581E+01  0.26632820789E+01  0.25500000000E-02 0.  1.
          2   -1    0    0    0  501  0.00000000000E+00 -0.00000000000E+00 -0.10547262537E+04  0.10547262537E+04  0.25500000000E-02 0.  1.
          2    1    1    2    0  502 -0.20077380706E+02  0.11023509463E+01 -0.10152000520E+04  0.10153991639E+04  0.25500000000E-02 0.  1.
         -2    1    1    2  502    0  0.20077380706E+02 -0.11023509463E+01 -0.36862920794E+02  0.41990371868E+02  0.25500000000E-02 0.  1.
<mgrwt>
<rscale>  0 0.10600062E+03</rscale>
<asrwt>0</asrwt>
<pdfrwt beam="2">  1        2 0.16226524E+00 0.10600062E+03</pdfrwt>
<pdfrwt beam="1">  1       -2 0.40973645E-03 0.10600062E+03</pdfrwt>
<totfact> 0.16787652E+05</totfact>
</mgrwt>
</event>
<event>
 4    1  0.4604841E-002  0.7275470E+02  0.7818608E-02  0.1350968E+00
         -2   -1    0    0  501    0 -0.00000000000E+00  0.00000000000E+00  0.52577592417E+03  0.52577592418E+03  0.25500000000E-02 0.  1.
          2   -1    0    0    0  501  0.00000000000E+00 -0.00000000000E+00 -0.25168729896E+01  0.25168742814E+01  0.25500000000E-02 0.  1.
          2    1    1    2    0  502  0.22817835055E+02  0.82490849065E+01  0.64821762857E+02  0.69213885491E+02  0.25500000000E-02 0. -1.
         -2    1    1    2  502    0 -0.22817835055E+02 -0.82490849065E+01  0.45843728833E+03  0.45907891297E+03  0.25500000000E-02 0. -1.
<mgrwt>
<rscale>  0 0.72754699E+02</rscale>
<asrwt>0</asrwt>
<pdfrwt beam="2">  1        2 0.38721138E-03 0.72754699E+02</pdfrwt>
<pdfrwt beam="1">  1       -2 0.80888594E-01 0.72754699E+02</pdfrwt>
<totfact> 0.62319012E+04</totfact>
</mgrwt>
</event>
<event>
 4    1  0.4604841E-002  0.6014173E+02  0.7818608E-02  0.1397238E+00
          2   -1    0    0    0  501  0.00000000000E+00  0.00000000000E+00  0.15989839649E+03  0.15989839651E+03  0.25500000000E-02 0. -1.
         -2   -1    0    0  501    0 -0.00000000000E+00 -0.00000000000E+00 -0.56551959922E+01  0.56551965671E+01  0.25500000000E-02 0. -1.
          2    1    1    2    0  502 -0.20097785039E+02 -0.71484956474E+00  0.15579595891E+02  0.25439256829E+02  0.25500000000E-02 0. -1.
         -2    1    1    2  502    0  0.20097785039E+02  0.71484956474E+00  0.13866360461E+03  0.14011433625E+03  0.25500000000E-02 0. -1.
<mgrwt>
<rscale>  0 0.60141727E+02</rscale>
<asrwt>0</asrwt>
<pdfrwt beam="1">  1        2 0.24599753E-01 0.60141727E+02</pdfrwt>
<pdfrwt beam="2">  1       -2 0.87003020E-03 0.60141727E+02</pdfrwt>
<totfact> 0.42836537E+05</totfact>
</mgrwt>
</event>
<event>
 4    1  0.4604841E-002  0.4466953E+02  0.7818608E-02  0.1476415E+00
         -2   -1    0    0  501    0 -0.00000000000E+00  0.00000000000E+00  0.40632123380E+02  0.40632123460E+02  0.25500000000E-02 0.  1.
          2   -1    0    0    0  501  0.00000000000E+00 -0.00000000000E+00 -0.12277026552E+02  0.12277026816E+02  0.25500000000E-02 0.  1.
          2    1    1    2    0  502  0.13442416358E+02 -0.15729371482E+02  0.24138966866E+02  0.31793103224E+02  0.25500000000E-02 0.  1.
         -2    1    1    2  502    0 -0.13442416358E+02  0.15729371482E+02  0.42161299627E+01  0.21116047053E+02  0.25500000000E-02 0.  1.
<mgrwt>
<rscale>  0 0.44669527E+02</rscale>
<asrwt>0</asrwt>
<pdfrwt beam="2">  1        2 0.18887734E-02 0.44669527E+02</pdfrwt>
<pdfrwt beam="1">  1       -2 0.62510959E-02 0.44669527E+02</pdfrwt>
<totfact> 0.55199457E+05</totfact>
</mgrwt>
</event>
<event>
 4    1  0.4604841E-002  0.6526890E+02  0.7818608E-02  0.1376963E+00
         -2   -1    0    0  501    0 -0.00000000000E+00  0.00000000000E+00  0.11061221837E+01  0.11061251230E+01  0.25500000000E-02 0.  1.
          2   -1    0    0    0  501  0.00000000000E+00 -0.00000000000E+00 -0.96282844889E+03  0.96282844889E+03  0.25500000000E-02 0.  1.
          2    1    1    2    0  502  0.24992102049E+02  0.17883926166E+02 -0.31869654617E+03  0.32017484056E+03  0.25500000000E-02 0. -1.
         -2    1    1    2  502    0 -0.24992102049E+02 -0.17883926166E+02 -0.64302578054E+03  0.64375973346E+03  0.25500000000E-02 0. -1.
<mgrwt>
<rscale>  0 0.65268900E+02</rscale>
<asrwt>0</asrwt>
<pdfrwt beam="2">  1        2 0.14812678E+00 0.65268900E+02</pdfrwt>
<pdfrwt beam="1">  1       -2 0.17017364E-03 0.65268900E+02</pdfrwt>
<totfact> 0.59266196E+05</totfact>
</mgrwt>
</event>
<event>
 4    1  0.4604841E-002  0.6836458E+02  0.7818608E-02  0.1365744E+00
          2   -1    0    0    0  501  0.00000000000E+00  0.00000000000E+00  0.10852412422E+03  0.10852412425E+03  0.25500000000E-02 0. -1.
         -2   -1    0    0  501    0 -0.00000000000E+00 -0.00000000000E+00 -0.10766535635E+02  0.10766535937E+02  0.25500000000E-02 0. -1.
          2    1    1    2    0  502 -0.44164315451E+01 -0.32734268485E+02  0.64229289709E+02  0.72224918580E+02  0.25500000000E-02 0.  1.
         -2    1    1    2  502    0  0.44164315451E+01  0.32734268485E+02  0.33528298871E+02  0.47065741602E+02  0.25500000000E-02 0.  1.
<mgrwt>
<rscale>  0 0.68364578E+02</rscale>
<asrwt>0</asrwt>
<pdfrwt beam="1">  1        2 0.16696019E-01 0.68364578E+02</pdfrwt>
<pdfrwt beam="2">  1       -2 0.16563902E-02 0.68364578E+02</pdfrwt>
<totfact> 0.27281754E+05</totfact>
</mgrwt>
</event>
<event>
 4    1  0.4604841E-002  0.4843915E+02  0.7818608E-02  0.1453947E+00
          2   -1    0    0    0  501  0.00000000000E+00  0.00000000000E+00  0.27788594198E+03  0.27788594199E+03  0.25500000000E-02 0.  1.
         -2   -1    0    0  501    0 -0.00000000000E+00 -0.00000000000E+00 -0.21108932224E+01  0.21108947626E+01  0.25500000000E-02 0.  1.
          2    1    1    2    0  502  0.96911058286E+01  0.18934104561E+02  0.20484270707E+03  0.20594405185E+03  0.25500000000E-02 0. -1.
         -2    1    1    2  502    0 -0.96911058286E+01 -0.18934104561E+02  0.70932341686E+02  0.74052784899E+02  0.25500000000E-02 0. -1.
<mgrwt>
<rscale>  0 0.48439148E+02</rscale>
<asrwt>0</asrwt>
<pdfrwt beam="1">  1        2 0.42751665E-01 0.48439148E+02</pdfrwt>
<pdfrwt beam="2">  1       -2 0.32475306E-03 0.48439148E+02</pdfrwt>
<totfact> 0.89123113E+05</totfact>
</mgrwt>
</event>
<event>
 4    1  0.4604841E-002  0.5646167E+02  0.7818608E-02  0.1413310E+00
         -2   -1    0    0  501    0 -0.00000000000E+00  0.00000000000E+00  0.10849860490E+02  0.10849860790E+02  0.25500000000E-02 0.  1.
          2   -1    0    0    0  501  0.00000000000E+00 -0.00000000000E+00 -0.73455327305E+02  0.73455327349E+02  0.25500000000E-02 0.  1.
          2    1    1    2    0  502  0.16264817892E+02 -0.22877750710E+02 -0.35793160452E+02  0.45487208315E+02  0.25500000000E-02 0. -1.
         -2    1    1    2  502    0 -0.16264817892E+02  0.22877750710E+02 -0.26812306363E+02  0.38817979824E+02  0.25500000000E-02 0. -1.
<mgrwt>
<rscale>  0 0.56461671E+02</rscale>
<asrwt>0</asrwt>
<pdfrwt beam="2">  1        2 0.11300819E-01 0.56461671E+02</pdfrwt>
<pdfrwt beam="1">  1       -2 0.16692094E-02 0.56461671E+02</pdfrwt>
<totfact> 0.40643283E+05</totfact>
</mgrwt>
</event>
<event>
 4    1  0.4604841E-002  0.5860496E+02  0.7818608E-02  0.1403781E+00
         -2   -1    0    0  501    0 -0.00000000000E+00  0.00000000000E+00  0.97540083443E+01  0.97540086777E+01  0.25500000000E-02 0. -1.
          2   -1    0    0    0  501  0.00000000000E+00 -0.00000000000E+00 -0.88028983835E+02  0.88028983872E+02  0.25500000000E-02 0. -1.
          2    1    1    2    0  502 -0.26177240279E+02  0.13128787008E+02 -0.37450313044E+02  0.47540918276E+02  0.25500000000E-02 0. -1.
         -2    1    1    2  502    0  0.26177240279E+02 -0.13128787008E+02 -0.40824662447E+02  0.50242074274E+02  0.25500000000E-02 0. -1.
<mgrwt>
<rscale>  0 0.58604964E+02</rscale>
<asrwt>0</asrwt>
<pdfrwt beam="2">  1        2 0.13542920E-01 0.58604964E+02</pdfrwt>
<pdfrwt beam="1">  1       -2 0.15006168E-02 0.58604964E+02</pdfrwt>
<totfact> 0.38565631E+05</totfact>
</mgrwt>
</event>
<event>
 4    1  0.4604841E-002  0.1185623E+03  0.7818608E-02  0.1245488E+00
          2   -1    0    0    0  501  0.00000000000E+00  0.00000000000E+00  0.35814762363E+03  0.35814762364E+03  0.25500000000E-02 0.  1.
         -2   -1    0    0  501    0 -0.00000000000E+00 -0.00000000000E+00 -0.98123120725E+01  0.98123124038E+01  0.25500000000E-02 0.  1.
          2    1    1    2    0  502  0.40119867446E+01  0.57006508141E+02  0.12525225523E+03  0.13767340140E+03  0.25500000000E-02 0. -1.
         -2    1    1    2  502    0 -0.40119867446E+01 -0.57006508141E+02  0.22308305633E+03  0.23028653464E+03  0.25500000000E-02 0. -1.
<mgrwt>
<rscale>  0 0.11856233E+03</rscale>
<asrwt>0</asrwt>
<pdfrwt beam="1">  1        2 0.55099629E-01 0.11856233E+03</pdfrwt>
<pdfrwt beam="2">  1       -2 0.15095867E-02 0.11856233E+03</pdfrwt>
<totfact> 0.94406792E+04</totfact>
</mgrwt>
</event>
<event>
 4    1  0.4604841E-002  0.4989893E+02  0.7818608E-02  0.1445887E+00
         -2   -1    0    0  501    0 -0.00000000000E+00  0.00000000000E+00  0.20357042378E+03  0.20357042379E+03  0.25500000000E-02 0. -1.
          2   -1    0    0    0  501  0.00000000000E+00 -0.00000000000E+00 -0.30577903942E+01  0.30577914574E+01  0.25500000000E-02 0. -1.
          2    1    1    2    0  502  0.13476662893E+02  0.20125332552E+02  0.12504192629E+03  0.12736613675E+03  0.25500000000E-02 0. -1.
         -2    1    1    2  502    0 -0.13476662893E+02 -0.20125332552E+02  0.75470707092E+02  0.79262078503E+02  0.25500000000E-02 0. -1.
<mgrwt>
<rscale>  0 0.49898930E+02</rscale>
<asrwt>0</asrwt>
<pdfrwt beam="2">  1        2 0.47042932E-03 0.49898930E+02</pdfrwt>
<pdfrwt beam="1">  1       -2 0.31318530E-01 0.49898930E+02</pdfrwt>
<totfact> 0.28127900E+05</totfact>
</mgrwt>
</event>
<event>
 4    1  0.4604841E-002  0.1201404E+03  0.7818608E-02  0.1242866E+00
          2   -1    0    0    0  501  0.00000000000E+00  0.00000000000E+00  0.20076048998E+03  0.20076048999E+03  0.25500000000E-02 0. -1.
         -2   -1    0    0  501    0 -0.00000000000E+00 -0.00000000000E+00 -0.17973787409E+02  0.17973787590E+02  0.25500000000E-02 0. -1.
          2    1    1    2    0  502  0.68796362091E+01 -0.58684868941E+02  0.71684536855E+02  0.92897341553E+02  0.25500000000E-02 0. -1.
         -2    1    1    2  502    0 -0.68796362091E+01  0.58684868941E+02  0.11110216571E+03  0.12583693603E+03  0.25500000000E-02 0. -1.
<mgrwt>
<rscale>  0 0.12014036E+03</rscale>
<asrwt>0</asrwt>
<pdfrwt beam="1">  1        2 0.30886230E-01 0.12014036E+03</pdfrwt>
<pdfrwt beam="2">  1       -2 0.27651980E-02 0.12014036E+03</pdfrwt>
<totfact> 0.72735714E+04</totfact>
</mgrwt>
</event>
<event>
 4    1  0.4604841E-002  0.8361694E+02  0.7818608E-02  0.1319090E+00
         -2   -1    0    0  501    0 -0.00000000000E+00  0.00000000000E+00  0.60368931418E+01  0.60368936803E+01  0.25500000000E-02 0.  1.
          2   -1    0    0    0  501  0.00000000000E+00 -0.00000000000E+00 -0.28954428476E+03  0.28954428477E+03  0.25500000000E-02 0.  1.
          2    1    1    2    0  502  0.82634885829E+01  0.40610957066E+02 -0.12225922388E+03  0.12909242002E+03  0.25500000000E-02 0.  1.
         -2    1    1    2  502    0 -0.82634885829E+01 -0.40610957066E+02 -0.16124816774E+03  0.16648875843E+03  0.25500000000E-02 0.  1.
<mgrwt>
<rscale>  0 0.83616936E+02</rscale>
<asrwt>0</asrwt>
<pdfrwt beam="2">  1        2 0.44545264E-01 0.83616936E+02</pdfrwt>
<pdfrwt beam="1">  1       -2 0.92875306E-03 0.83616936E+02</pdfrwt>
<totfact> 0.22312500E+05</totfact>
</mgrwt>
</event>
<event>
 4    1  0.4604841E-002  0.4332487E+02  0.7818608E-02  0.1485078E+00
          2   -1    0    0    0  501  0.00000000000E+00  0.00000000000E+00  0.28781911804E+01  0.28781923101E+01  0.25500000000E-02 0.  1.
         -2   -1    0    0  501    0 -0.00000000000E+00 -0.00000000000E+00 -0.16304024770E+03  0.16304024772E+03  0.25500000000E-02 0.  1.
          2    1    1    2    0  502 -0.15998804008E+02 -0.12399934730E+02 -0.50530491344E+02  0.54433911057E+02  0.25500000000E-02 0. -1.
         -2    1    1    2  502    0  0.15998804008E+02  0.12399934730E+02 -0.10963156518E+03  0.11148452897E+03  0.25500000000E-02 0. -1.
<mgrwt>
<rscale>  0 0.43324870E+02</rscale>
<asrwt>0</asrwt>
<pdfrwt beam="1">  1        2 0.44279886E-03 0.43324870E+02</pdfrwt>
<pdfrwt beam="2">  1       -2 0.25083108E-01 0.43324870E+02</pdfrwt>
<totfact> 0.43232483E+05</totfact>
</mgrwt>
</event>
<event>
 4    1  0.4604841E-002  0.4676946E+02  0.7818608E-02  0.1463588E+00
         -2   -1    0    0  501    0 -0.00000000000E+00  0.00000000000E+00  0.14231023594E+01  0.14231046440E+01  0.25500000000E-02 0. -1.
          2   -1    0    0    0  501  0.00000000000E+00 -0.00000000000E+00 -0.38426262299E+03  0.38426262300E+03  0.25500000000E-02 0. -1.
          2    1    1    2    0  502  0.20185417194E+02 -0.24852083102E+01 -0.96238169137E+02  0.98363674865E+02  0.25500000000E-02 0. -1.
         -2    1    1    2  502    0 -0.20185417194E+02  0.24852083102E+01 -0.28660135149E+03  0.28732205278E+03  0.25500000000E-02 0. -1.
<mgrwt>
<rscale>  0 0.46769455E+02</rscale>
<asrwt>0</asrwt>
<pdfrwt beam="2">  1        2 0.59117244E-01 0.46769455E+02</pdfrwt>
<pdfrwt beam="1">  1       -2 0.21893931E-03 0.46769455E+02</pdfrwt>
<totfact> 0.10868894E+06</totfact>
</mgrwt>
</event>
<event>
 4    1  0.4604841E-002  0.5513416E+02  0.7818608E-02  0.1419466E+00
         -2   -1    0    0  501    0 -0.00000000000E+00  0.00000000000E+00  0.80686916249E+00  0.80687319195E+00  0.25500000000E-02 0.  1.
          2   -1    0    0    0  501  0.00000000000E+00 -0.00000000000E+00 -0.94184038647E+03  0.94184038647E+03  0.25500000000E-02 0.  1.
          2    1    1    2    0  502  0.26798305947E+02 -0.59473106798E+01 -0.42718200150E+03  0.42806305857E+03  0.25500000000E-02 0. -1.
         -2    1    1    2  502    0 -0.26798305947E+02  0.59473106798E+01 -0.51385151581E+03  0.51458420109E+03  0.25500000000E-02 0. -1.
<mgrwt>
<rscale>  0 0.55134159E+02</rscale>
<asrwt>0</asrwt>
<pdfrwt beam="2">  1        2 0.14489764E+00 0.55134159E+02</pdfrwt>
<pdfrwt beam="1">  1       -2 0.12413478E-03 0.55134159E+02</pdfrwt>
<totfact> 0.90507041E+05</totfact>
</mgrwt>
</event>
<event>
 4    1  0.4604841E-002  0.9938504E+02  0.7818608E-02  0.1281594E+00
         -2   -1    0    0  501    0 -0.00000000000E+00  0.00000000000E+00  0.25601434310E+02  0.25601434437E+02  0.25500000000E-02 0. -1.
          2   -1    0    0    0  501  0.00000000000E+00 -0.00000000000E+00 -0.96453445606E+02  0.96453445640E+02  0.25500000000E-02 0. -1.
          2    1    1    2    0  502 -0.49435418758E+02 -0.46710808848E+01 -0.33074286422E+02  0.59662283339E+02  0.25500000000E-02 0. -1.
         -2    1    1    2  502    0  0.49435418758E+02  0.46710808848E+01 -0.37777724875E+02  0.62392596737E+02  0.25500000000E-02 0. -1.
<mgrwt>
<rscale>  0 0.99385040E+02</rscale>
<asrwt>0</asrwt>
<pdfrwt beam="2">  1        2 0.14838991E-01 0.99385040E+02</pdfrwt>
<pdfrwt beam="1">  1       -2 0.39386823E-02 0.99385040E+02</pdfrwt>
<totfact> 0.95510589E+04</totfact>
</mgrwt>
</event>
<event>
 4    1  0.4604841E-002  0.4022780E+02  0.7818608E-02  0.1506542E+00
          2   -1    0    0    0  501  0.00000000000E+00  0.00000000000E+00  0.22471016482E+03  0.22471016484E+03  0.25500000000E-02 0. -1.
         -2   -1    0    0  501    0 -0.00000000000E+00 -0.00000000000E+00 -0.18004025781E+01  0.18004043839E+01  0.25500000000E-02 0. -1.
          2    1    1    2    0  502 -0.14031474255E+02 -0.14393940938E+02  0.10746878392E+03  0.10933255384E+03  0.25500000000E-02 0. -1.
         -2    1    1    2  502    0  0.14031474255E+02  0.14393940938E+02  0.11544097832E+03  0.11717801538E+03  0.25500000000E-02 0. -1.
<mgrwt>
<rscale>  0 0.40227800E+02</rscale>
<asrwt>0</asrwt>
<pdfrwt beam="1">  1        2 0.34570794E-01 0.40227800E+02</pdfrwt>
<pdfrwt beam="2">  1       -2 0.27698515E-03 0.40227800E+02</pdfrwt>
<totfact> 0.13085898E+06</totfact>
</mgrwt>
</event>
<event>
 4    1  0.4604841E-002  0.4674096E+02  0.7818608E-02  0.1463757E+00
          2   -1    0    0    0  501  0.00000000000E+00  0.00000000000E+00  0.19249481273E+04  0.19249481273E+04  0.25500000000E-02 0.  1.
         -2   -1    0    0  501    0 -0.00000000000E+00 -0.00000000000E+00 -0.28373143060E+00  0.28374288927E+00  0.25500000000E-02 0.  1.
          2    1    1    2    0  502 -0.17160837558E+02 -0.13497591994E+02  0.61895002156E+03  0.61933497280E+03  0.25500000000E-02 0. -1.
         -2    1    1    2  502    0  0.17160837558E+02  0.13497591994E+02  0.13057143743E+04  0.13058968974E+04  0.25500000000E-02 0. -1.
<mgrwt>
<rscale>  0 0.46740959E+02</rscale>
<asrwt>0</asrwt>
<pdfrwt beam="1">  1        2 0.29614764E+00 0.46740959E+02</pdfrwt>
<pdfrwt beam="2">  1       -2 0.43651609E-04 0.46740959E+02</pdfrwt>
<totfact> 0.11244993E+06</totfact>
</mgrwt>
</event>
<event>
 4    1  0.4604841E-002  0.1773592E+03  0.7818608E-02  0.1170384E+00
         -2   -1    0    0  501    0 -0.00000000000E+00  0.00000000000E+00  0.47555156805E+02  0.47555156873E+02  0.25500000000E-02 0.  1.
          2   -1    0    0    0  501  0.00000000000E+00 -0.00000000000E+00 -0.16536732798E+03  0.16536732800E+03  0.25500000000E-02 0.  1.
          2    1    1    2    0  502  0.87052308192E+02 -0.12076573886E+02 -0.44695243403E+02  0.98598239273E+02  0.25500000000E-02 0. -1.
         -2    1    1    2  502    0 -0.87052308192E+02  0.12076573886E+02 -0.73116927768E+02  0.11432424560E+03  0.25500000000E-02 0. -1.
<mgrwt>
<rscale>  0 0.17735917E+03</rscale>
<asrwt>0</asrwt>
<pdfrwt beam="2">  1        2 0.25441127E-01 0.17735917E+03</pdfrwt>
<pdfrwt beam="1">  1       -2 0.73161781E-02 0.17735917E+03</pdfrwt>
<totfact> 0.21839392E+04</totfact>
</mgrwt>
</event>
<event>
 4    1  0.4604841E-002  0.4651211E+02  0.7818608E-02  0.1465117E+00
          2   -1    0    0    0  501  0.00000000000E+00  0.00000000000E+00  0.49925114731E+03  0.49925114732E+03  0.25500000000E-02 0.  1.
         -2   -1    0    0  501    0 -0.00000000000E+00 -0.00000000000E+00 -0.10833089905E+01  0.10833119918E+01  0.25500000000E-02 0.  1.
          2    1    1    2    0  502 -0.18939099750E+02 -0.10816094855E+02  0.16224649700E+03  0.16370584352E+03  0.25500000000E-02 0.  1.
         -2    1    1    2  502    0  0.18939099750E+02  0.10816094855E+02  0.33592134132E+03  0.33662861579E+03  0.25500000000E-02 0.  1.
<mgrwt>
<rscale>  0 0.46512106E+02</rscale>
<asrwt>0</asrwt>
<pdfrwt beam="1">  1        2 0.76807587E-01 0.46512106E+02</pdfrwt>
<pdfrwt beam="2">  1       -2 0.16666376E-03 0.46512106E+02</pdfrwt>
<totfact> 0.11996967E+06</totfact>
</mgrwt>
</event>
<event>
 4    1  0.4604841E-002  0.6913330E+02  0.7818608E-02  0.1363065E+00
         -2   -1    0    0  501    0 -0.00000000000E+00  0.00000000000E+00  0.89727790204E+00  0.89728152549E+00  0.25500000000E-02 0. -1.
          2   -1    0    0    0  501  0.00000000000E+00 -0.00000000000E+00 -0.13316396514E+04  0.13316396514E+04  0.25500000000E-02 0. -1.
          2    1    1    2    0  502 -0.33205848373E+02  0.96031700798E+01 -0.66415210576E+03  0.66505102724E+03  0.25500000000E-02 0. -1.
         -2    1    1    2  502    0  0.33205848373E+02 -0.96031700798E+01 -0.66659026771E+03  0.66748590566E+03  0.25500000000E-02 0. -1.
<mgrwt>
<rscale>  0 0.69133299E+02</rscale>
<asrwt>0</asrwt>
<pdfrwt beam="2">  1        2 0.20486606E+00 0.69133299E+02</pdfrwt>
<pdfrwt beam="1">  1       -2 0.13804410E-03 0.69133299E+02</pdfrwt>
<totfact> 0.50164677E+05</totfact>
</mgrwt>
</event>
<event>
 4    1  0.4604841E-002  0.5931053E+02  0.7818608E-02  0.1400748E+00
         -2   -1    0    0  501    0 -0.00000000000E+00  0.00000000000E+00  0.32857195338E+01  0.32857205233E+01  0.25500000000E-02 0. -1.
          2   -1    0    0    0  501  0.00000000000E+00 -0.00000000000E+00 -0.26765353958E+03  0.26765353960E+03  0.25500000000E-02 0. -1.
          2    1    1    2    0  502 -0.21339647187E+00 -0.28734172247E+02 -0.98697047907E+02  0.10279496809E+03  0.25500000000E-02 0. -1.
         -2    1    1    2  502    0  0.21339647187E+00  0.28734172247E+02 -0.16567077214E+03  0.16814429203E+03  0.25500000000E-02 0. -1.
<mgrwt>
<rscale>  0 0.59310525E+02</rscale>
<asrwt>0</asrwt>
<pdfrwt beam="2">  1        2 0.41177451E-01 0.59310525E+02</pdfrwt>
<pdfrwt beam="1">  1       -2 0.50549560E-03 0.59310525E+02</pdfrwt>
<totfact> 0.52871518E+05</totfact>
</mgrwt>
</event>
<event>
 4    1  0.4604841E-002  0.7965537E+02  0.7818608E-02  0.1330032E+00
         -2   -1    0    0  501    0 -0.00000000000E+00  0.00000000000E+00  0.67020232122E+03  0.67020232123E+03  0.25500000000E-02 0.  1.
          2   -1    0    0    0  501  0.00000000000E+00 -0.00000000000E+00 -0.23668135901E+01  0.23668149638E+01  0.25500000000E-02 0.  1.
          2    1    1    2    0  502  0.29362170559E+01 -0.24425060533E+02  0.59838087754E+03  0.59888636615E+03  0.25500000000E-02 0.  1.
         -2    1    1    2  502    0 -0.29362170559E+01  0.24425060533E+02  0.69454630094E+02  0.73682770039E+02  0.25500000000E-02 0.  1.
<mgrwt>
<rscale>  0 0.79655368E+02</rscale>
<asrwt>0</asrwt>
<pdfrwt beam="2">  1        2 0.36412539E-03 0.79655368E+02</pdfrwt>
<pdfrwt beam="1">  1       -2 0.10310802E+00 0.79655368E+02</pdfrwt>
<totfact> 0.40129469E+04</totfact>
</mgrwt>
</event>
<event>
 4    1  0.4604841E-002  0.8047820E+02  0.7818608E-02  0.1327700E+00
         -2   -1    0    0  501    0 -0.00000000000E+00  0.00000000000E+00  0.13030358523E+01  0.13030383474E+01  0.25500000000E-02 0. -1.
          2   -1    0    0    0  501  0.00000000000E+00 -0.00000000000E+00 -0.12426240312E+04  0.12426240312E+04  0.25500000000E-02 0. -1.
          2    1    1    2    0  502 -0.19243141429E+02  0.21036690096E+02 -0.10595719795E+04  0.10599554804E+04  0.25500000000E-02 0.  1.
         -2    1    1    2  502    0  0.19243141429E+02 -0.21036690096E+02 -0.18174901592E+03  0.18397158916E+03  0.25500000000E-02 0.  1.
<mgrwt>
<rscale>  0 0.80478201E+02</rscale>
<asrwt>0</asrwt>
<pdfrwt beam="2">  1        2 0.19117198E+00 0.80478201E+02</pdfrwt>
<pdfrwt beam="1">  1       -2 0.20046824E-03 0.80478201E+02</pdfrwt>
<totfact> 0.34321339E+05</totfact>
</mgrwt>
</event>
<event>
 4    1  0.4604841E-002  0.5871710E+02  0.7818608E-02  0.1403296E+00
          2   -1    0    0    0  501  0.00000000000E+00  0.00000000000E+00  0.26738406841E+04  0.26738406841E+04  0.25500000000E-02 0. -1.
         -2   -1    0    0  501    0 -0.00000000000E+00 -0.00000000000E+00 -0.32234941189E+00  0.32235949784E+00  0.25500000000E-02 0. -1.
          2    1    1    2    0  502 -0.17517556003E+02 -0.20046075450E+02  0.19004919361E+04  0.19006783813E+04  0.25500000000E-02 0. -1.
         -2    1    1    2  502    0  0.17517556003E+02  0.20046075450E+02  0.77302639855E+03  0.77348466227E+03  0.25500000000E-02 0. -1.
<mgrwt>
<rscale>  0 0.58717100E+02</rscale>
<asrwt>0</asrwt>
<pdfrwt beam="1">  1        2 0.41134433E+00 0.58717100E+02</pdfrwt>
<pdfrwt beam="2">  1       -2 0.49594896E-04 0.58717100E+02</pdfrwt>
<totfact> 0.41520848E+05</totfact>
</mgrwt>
</event>
<event>
 4    1  0.4604841E-002  0.7463709E+02  0.7818608E-02  0.1344999E+00
          2   -1    0    0    0  501  0.00000000000E+00  0.00000000000E+00  0.27345457155E+04  0.27345457155E+04  0.25500000000E-02 0. -1.
         -2   -1    0    0  501    0 -0.00000000000E+00 -0.00000000000E+00 -0.50928572292E+00  0.50929210682E+00  0.25500000000E-02 0. -1.
          2    1    1    2    0  502 -0.35064451511E+02 -0.18605147196E+01  0.90393491481E+03  0.90461666328E+03  0.25500000000E-02 0.  1.
         -2    1    1    2  502    0  0.35064451511E+02  0.18605147196E+01  0.18301015150E+04  0.18304383443E+04  0.25500000000E-02 0.  1.
<mgrwt>
<rscale>  0 0.74637091E+02</rscale>
<asrwt>0</asrwt>
<pdfrwt beam="1">  1        2 0.42069727E+00 0.74637091E+02</pdfrwt>
<pdfrwt beam="2">  1       -2 0.78352526E-04 0.74637091E+02</pdfrwt>
<totfact> 0.21364277E+05</totfact>
</mgrwt>
</event>
<event>
 4    1  0.4604841E-002  0.4222062E+02  0.7818608E-02  0.1492478E+00
         -2   -1    0    0  501    0 -0.00000000000E+00  0.00000000000E+00  0.89013527977E+03  0.89013527977E+03  0.25500000000E-02 0. -1.
          2   -1    0    0    0  501  0.00000000000E+00 -0.00000000000E+00 -0.50064553794E+00  0.50065203201E+00  0.25500000000E-02 0. -1.
          2    1    1    2    0  502 -0.16497103760E+02  0.13171105804E+02  0.44244169465E+03  0.44294501423E+03  0.25500000000E-02 0.  1.
         -2    1    1    2  502    0  0.16497103760E+02 -0.13171105804E+02  0.44719293958E+03  0.44769091757E+03  0.25500000000E-02 0.  1.
<mgrwt>
<rscale>  0 0.42220618E+02</rscale>
<asrwt>0</asrwt>
<pdfrwt beam="2">  1        2 0.77024092E-04 0.42220618E+02</pdfrwt>
<pdfrwt beam="1">  1       -2 0.13694175E+00 0.42220618E+02</pdfrwt>
<totfact> 0.14672439E+05</totfact>
</mgrwt>
</event>
<event>
 4    1  0.4604841E-002  0.4573395E+02  0.7818608E-02  0.1469811E+00
         -2   -1    0    0  501    0 -0.00000000000E+00  0.00000000000E+00  0.29186985638E+00  0.29188099555E+00  0.25500000000E-02 0. -1.
          2   -1    0    0    0  501  0.00000000000E+00 -0.00000000000E+00 -0.17915126110E+04  0.17915126110E+04  0.25500000000E-02 0. -1.
          2    1    1    2    0  502  0.18715432408E+02 -0.13138468659E+02 -0.89985441746E+03  0.90014491022E+03  0.25500000000E-02 0.  1.
         -2    1    1    2  502    0 -0.18715432408E+02  0.13138468659E+02 -0.89136632368E+03  0.89165958177E+03  0.25500000000E-02 0.  1.
<mgrwt>
<rscale>  0 0.45733948E+02</rscale>
<asrwt>0</asrwt>
<pdfrwt beam="2">  1        2 0.27560852E+00 0.45733948E+02</pdfrwt>
<pdfrwt beam="1">  1       -2 0.44905347E-04 0.45733948E+02</pdfrwt>
<totfact> 0.12502651E+06</totfact>
</mgrwt>
</event>
<event>
 4    1  0.4604841E-002  0.6701596E+02  0.7818608E-02  0.1370545E+00
         -2   -1    0    0  501    0 -0.00000000000E+00  0.00000000000E+00  0.34699241782E+01  0.34699251152E+01  0.25500000000E-02 0.  1.
          2   -1    0    0    0  501  0.00000000000E+00 -0.00000000000E+00 -0.32357609184E+03  0.32357609185E+03  0.25500000000E-02 0.  1.
          2    1    1    2    0  502 -0.30234204841E+02  0.55355777775E+01 -0.94937761787E+02  0.99789420197E+02  0.25500000000E-02 0.  1.
         -2    1    1    2  502    0  0.30234204841E+02 -0.55355777775E+01 -0.22516840587E+03  0.22725659676E+03  0.25500000000E-02 0.  1.
<mgrwt>
<rscale>  0 0.67015958E+02</rscale>
<asrwt>0</asrwt>
<pdfrwt beam="2">  1        2 0.49780914E-01 0.67015958E+02</pdfrwt>
<pdfrwt beam="1">  1       -2 0.53383482E-03 0.67015958E+02</pdfrwt>
<totfact> 0.41381994E+05</totfact>
</mgrwt>
</event>
<event>
 4    1  0.4604841E-002  0.1224055E+03  0.7818608E-02  0.1239181E+00
          2   -1    0    0    0  501  0.00000000000E+00  0.00000000000E+00  0.19954099160E+03  0.19954099161E+03  0.25500000000E-02 0.  1.
         -2   -1    0    0  501    0 -0.00000000000E+00 -0.00000000000E+00 -0.18771958039E+02  0.18771958212E+02  0.25500000000E-02 0.  1.
          2    1    1    2    0  502 -0.22512285301E+02  0.79723929569E+00  0.19187834684E+03  0.19319611428E+03  0.25500000000E-02 0. -1.
         -2    1    1    2  502    0  0.22512285301E+02 -0.79723929569E+00 -0.11109313279E+02  0.25116835549E+02  0.25500000000E-02 0. -1.
<mgrwt>
<rscale>  0 0.12240548E+03</rscale>
<asrwt>0</asrwt>
<pdfrwt beam="1">  1        2 0.30698615E-01 0.12240548E+03</pdfrwt>
<pdfrwt beam="2">  1       -2 0.28879935E-02 0.12240548E+03</pdfrwt>
<totfact> 0.68876113E+04</totfact>
</mgrwt>
</event>
<event>
 4    1  0.4604841E-002  0.5542574E+02  0.7818608E-02  0.1418096E+00
         -2   -1    0    0  501    0 -0.00000000000E+00  0.00000000000E+00  0.26210647493E+01  0.26210659898E+01  0.25500000000E-02 0.  1.
          2   -1    0    0    0  501  0.00000000000E+00 -0.00000000000E+00 -0.29301182262E+03  0.29301182263E+03  0.25500000000E-02 0.  1.
          2    1    1    2    0  502  0.15943233643E+02 -0.22650629605E+02 -0.14052888809E+03  0.14323269919E+03  0.25500000000E-02 0. -1.
         -2    1    1    2  502    0 -0.15943233643E+02  0.22650629605E+02 -0.14986186978E+03  0.15240018944E+03  0.25500000000E-02 0. -1.
<mgrwt>
<rscale>  0 0.55425739E+02</rscale>
<asrwt>0</asrwt>
<pdfrwt beam="2">  1        2 0.45078716E-01 0.55425739E+02</pdfrwt>
<pdfrwt beam="1">  1       -2 0.40324106E-03 0.55425739E+02</pdfrwt>
<totfact> 0.64809635E+05</totfact>
</mgrwt>
</event>
<event>
 4    1  0.4604841E-002  0.4293801E+02  0.7818608E-02  0.1487641E+00
         -2   -1    0    0  501    0 -0.00000000000E+00  0.00000000000E+00  0.25455844449E+01  0.25455857221E+01  0.25500000000E-02 0.  1.
          2   -1    0    0    0  501  0.00000000000E+00 -0.00000000000E+00 -0.18106568690E+03  0.18106568692E+03  0.25500000000E-02 0.  1.
          2    1    1    2    0  502 -0.17498949620E+02  0.11787281910E+02 -0.72281428494E+02  0.75297796543E+02  0.25500000000E-02 0. -1.
         -2    1    1    2  502    0  0.17498949620E+02 -0.11787281910E+02 -0.10623867397E+03  0.10831347610E+03  0.25500000000E-02 0. -1.
<mgrwt>
<rscale>  0 0.42938007E+02</rscale>
<asrwt>0</asrwt>
<pdfrwt beam="2">  1        2 0.27856249E-01 0.42938007E+02</pdfrwt>
<pdfrwt beam="1">  1       -2 0.39162862E-03 0.42938007E+02</pdfrwt>
<totfact> 0.10400355E+06</totfact>
</mgrwt>
</event>
<event>
 4    1  0.4604841E-002  0.5647789E+02  0.7818608E-02  0.1413236E+00
         -2   -1    0    0  501    0 -0.00000000000E+00  0.00000000000E+00  0.17017699530E+01  0.17017718636E+01  0.25500000000E-02 0. -1.
          2   -1    0    0    0  501  0.00000000000E+00 -0.00000000000E+00 -0.46859309670E+03  0.46859309671E+03  0.25500000000E-02 0. -1.
          2    1    1    2    0  502 -0.17084770942E+02  0.22440757550E+02 -0.22178450986E+03  0.22357067298E+03  0.25500000000E-02 0. -1.
         -2    1    1    2  502    0  0.17084770942E+02 -0.22440757550E+02 -0.24510681690E+03  0.24672419560E+03  0.25500000000E-02 0. -1.
<mgrwt>
<rscale>  0 0.56477893E+02</rscale>
<asrwt>0</asrwt>
<pdfrwt beam="2">  1        2 0.72091143E-01 0.56477893E+02</pdfrwt>
<pdfrwt beam="1">  1       -2 0.26181128E-03 0.56477893E+02</pdfrwt>
<totfact> 0.72620922E+05</totfact>
</mgrwt>
</event>
<event>
 4    1  0.4604841E-002  0.4271893E+02  0.7818608E-02  0.1489106E+00
         -2   -1    0    0  501    0 -0.00000000000E+00  0.00000000000E+00  0.12226552584E+01  0.12226579176E+01  0.25500000000E-02 0.  1.
          2   -1    0    0    0  501  0.00000000000E+00 -0.00000000000E+00 -0.37314385490E+03  0.37314385491E+03  0.25500000000E-02 0.  1.
          2    1    1    2    0  502 -0.12044180810E+02  0.17284719896E+02 -0.21682367557E+03  0.21784473858E+03  0.25500000000E-02 0. -1.
         -2    1    1    2  502    0  0.12044180810E+02 -0.17284719896E+02 -0.15509752408E+03  0.15652177425E+03  0.25500000000E-02 0. -1.
<mgrwt>
<rscale>  0 0.42718932E+02</rscale>
<asrwt>0</asrwt>
<pdfrwt beam="2">  1        2 0.57406656E-01 0.42718932E+02</pdfrwt>
<pdfrwt beam="1">  1       -2 0.18810131E-03 0.42718932E+02</pdfrwt>
<totfact> 0.13432478E+06</totfact>
</mgrwt>
</event>
<event>
 4    1  0.4604841E-002  0.5236771E+02  0.7818608E-02  0.1432974E+00
          2   -1    0    0    0  501  0.00000000000E+00  0.00000000000E+00  0.58980131812E+01  0.58980137324E+01  0.25500000000E-02 0. -1.
         -2   -1    0    0  501    0 -0.00000000000E+00 -0.00000000000E+00 -0.11624153506E+03  0.11624153509E+03  0.25500000000E-02 0. -1.
          2    1    1    2    0  502  0.25121030480E+02 -0.73610948144E+01 -0.53807298057E+02  0.59837089000E+02  0.25500000000E-02 0.  1.
         -2    1    1    2  502    0 -0.25121030480E+02  0.73610948144E+01 -0.56536223824E+02  0.62302459823E+02  0.25500000000E-02 0.  1.
<mgrwt>
<rscale>  0 0.52367705E+02</rscale>
<asrwt>0</asrwt>
<pdfrwt beam="1">  1        2 0.90738678E-03 0.52367705E+02</pdfrwt>
<pdfrwt beam="2">  1       -2 0.17883311E-01 0.52367705E+02</pdfrwt>
<totfact> 0.30283669E+05</totfact>
</mgrwt>
</event>
<event>
 4    1  0.4604841E-002  0.5033737E+02  0.7818608E-02  0.1443530E+00
          2   -1    0    0    0  501  0.00000000000E+00  0.00000000000E+00  0.77737835502E+03  0.77737835502E+03  0.25500000000E-02 0. -1.
         -2   -1    0    0  501    0 -0.00000000000E+00 -0.00000000000E+00 -0.81486857691E+00  0.81487256680E+00  0.25500000000E-02 0. -1.
          2    1    1    2    0  502 -0.11744800884E+02 -0.21652303364E+02  0.30839885047E+03  0.30938101682E+03  0.25500000000E-02 0.  1.
         -2    1    1    2  502    0  0.11744800884E+02  0.21652303364E+02  0.46816463597E+03  0.46881221077E+03  0.25500000000E-02 0.  1.
<mgrwt>
<rscale>  0 0.50337372E+02</rscale>
<asrwt>0</asrwt>
<pdfrwt beam="1">  1        2 0.11959709E+00 0.50337372E+02</pdfrwt>
<pdfrwt beam="2">  1       -2 0.12536426E-03 0.50337372E+02</pdfrwt>
<totfact> 0.11055231E+06</totfact>
</mgrwt>
</event>
<event>
 4    1  0.4604841E-002  0.5829163E+02  0.7818608E-02  0.1405144E+00
          2   -1    0    0    0  501  0.00000000000E+00  0.00000000000E+00  0.11703708985E+03  0.11703708987E+03  0.25500000000E-02 0. -1.
         -2   -1    0    0  501    0 -0.00000000000E+00 -0.00000000000E+00 -0.72582002552E+01  0.72582007031E+01  0.25500000000E-02 0. -1.
          2    1    1    2    0  502  0.14906915242E+02 -0.23173849319E+02  0.34634244630E+02  0.44258042454E+02  0.25500000000E-02 0.  1.
         -2    1    1    2  502    0 -0.14906915242E+02  0.23173849319E+02  0.75144644962E+02  0.80037248124E+02  0.25500000000E-02 0.  1.
<mgrwt>
<rscale>  0 0.58291635E+02</rscale>
<asrwt>0</asrwt>
<pdfrwt beam="1">  1        2 0.18005705E-01 0.58291635E+02</pdfrwt>
<pdfrwt beam="2">  1       -2 0.11166463E-02 0.58291635E+02</pdfrwt>
<totfact> 0.42230364E+05</totfact>
</mgrwt>
</event>
<event>
 4    1  0.4604841E-002  0.1039938E+03  0.7818608E-02  0.1272115E+00
         -2   -1    0    0  501    0 -0.00000000000E+00  0.00000000000E+00  0.14930302883E+01  0.14930324659E+01  0.25500000000E-02 0. -1.
          2   -1    0    0    0  501  0.00000000000E+00 -0.00000000000E+00 -0.18108647535E+04  0.18108647535E+04  0.25500000000E-02 0. -1.
          2    1    1    2    0  502  0.37780584800E+02  0.13664492757E+02 -0.32942157665E+03  0.33186242047E+03  0.25500000000E-02 0. -1.
         -2    1    1    2  502    0 -0.37780584800E+02 -0.13664492757E+02 -0.14799501465E+04  0.14804953655E+04  0.25500000000E-02 0. -1.
<mgrwt>
<rscale>  0 0.10399381E+03</rscale>
<asrwt>0</asrwt>
<pdfrwt beam="2">  1        2 0.27859282E+00 0.10399381E+03</pdfrwt>
<pdfrwt beam="1">  1       -2 0.22969858E-03 0.10399381E+03</pdfrwt>
<totfact> 0.15050518E+05</totfact>
</mgrwt>
</event>
<event>
 4    1  0.4604841E-002  0.4570526E+02  0.7818608E-02  0.1469986E+00
          2   -1    0    0    0  501  0.00000000000E+00  0.00000000000E+00  0.27795277838E+02  0.27795277955E+02  0.25500000000E-02 0.  1.
         -2   -1    0    0  501    0 -0.00000000000E+00 -0.00000000000E+00 -0.18788896605E+02  0.18788896778E+02  0.25500000000E-02 0.  1.
          2    1    1    2    0  502 -0.21437674633E+02 -0.20833980701E+01  0.12287344265E+02  0.24797041694E+02  0.25500000000E-02 0. -1.
         -2    1    1    2  502    0  0.21437674633E+02  0.20833980701E+01 -0.32809630316E+01  0.21787133040E+02  0.25500000000E-02 0. -1.
<mgrwt>
<rscale>  0 0.45705256E+02</rscale>
<asrwt>0</asrwt>
<pdfrwt beam="1">  1        2 0.42761966E-02 0.45705256E+02</pdfrwt>
<pdfrwt beam="2">  1       -2 0.28905995E-02 0.45705256E+02</pdfrwt>
<totfact> 0.58595275E+05</totfact>
</mgrwt>
</event>
<event>
 4    1  0.4604841E-002  0.5166828E+02  0.7818608E-02  0.1436546E+00
          2   -1    0    0    0  501  0.00000000000E+00  0.00000000000E+00  0.11480437735E+04  0.11480437735E+04  0.25500000000E-02 0. -1.
         -2   -1    0    0  501    0 -0.00000000000E+00 -0.00000000000E+00 -0.58133637396E+00  0.58134196665E+00  0.25500000000E-02 0. -1.
          2    1    1    2    0  502  0.20359841558E+02 -0.83885831995E+01  0.27340087314E+03  0.27428621714E+03  0.25500000000E-02 0.  1.
         -2    1    1    2  502    0 -0.20359841558E+02  0.83885831995E+01  0.87406156399E+03  0.87433889833E+03  0.25500000000E-02 0.  1.
<mgrwt>
<rscale>  0 0.51668281E+02</rscale>
<asrwt>0</asrwt>
<pdfrwt beam="1">  1        2 0.17662076E+00 0.51668281E+02</pdfrwt>
<pdfrwt beam="2">  1       -2 0.89437486E-04 0.51668281E+02</pdfrwt>
<totfact> 0.10662335E+06</totfact>
</mgrwt>
</event>
<event>
 4    1  0.4604841E-002  0.5889085E+02  0.7818608E-02  0.1402546E+00
          2   -1    0    0    0  501  0.00000000000E+00  0.00000000000E+00  0.12938932648E+03  0.12938932651E+03  0.25500000000E-02 0. -1.
         -2   -1    0    0  501    0 -0.00000000000E+00 -0.00000000000E+00 -0.67009618236E+01  0.67009623088E+01  0.25500000000E-02 0. -1.
          2    1    1    2    0  502  0.22895565382E+02 -0.10962770435E+02  0.95825555609E+02  0.99130854753E+02  0.25500000000E-02 0. -1.
         -2    1    1    2  502    0 -0.22895565382E+02  0.10962770435E+02  0.26862809051E+02  0.36959434065E+02  0.25500000000E-02 0. -1.
<mgrwt>
<rscale>  0 0.58890847E+02</rscale>
<asrwt>0</asrwt>
<pdfrwt beam="1">  1        2 0.19906049E-01 0.58890847E+02</pdfrwt>
<pdfrwt beam="2">  1       -2 0.10309173E-02 0.58890847E+02</pdfrwt>
<totfact> 0.42354083E+05</totfact>
</mgrwt>
</event>
<event>
 4    1  0.4604841E-002  0.8473467E+02  0.7818608E-02  0.1316128E+00
         -2   -1    0    0  501    0 -0.00000000000E+00  0.00000000000E+00  0.32067877891E+03  0.32067877892E+03  0.25500000000E-02 0. -1.
          2   -1    0    0    0  501  0.00000000000E+00 -0.00000000000E+00 -0.55974740644E+01  0.55974746453E+01  0.25500000000E-02 0. -1.
          2    1    1    2    0  502  0.11115208853E+02  0.40116662268E+02  0.18788367492E+03  0.19244004201E+03  0.25500000000E-02 0. -1.
         -2    1    1    2  502    0 -0.11115208853E+02 -0.40116662268E+02  0.12719762992E+03  0.13383621156E+03  0.25500000000E-02 0. -1.
<mgrwt>
<rscale>  0 0.84734674E+02</rscale>
<asrwt>0</asrwt>
<pdfrwt beam="2">  1        2 0.86114995E-03 0.84734674E+02</pdfrwt>
<pdfrwt beam="1">  1       -2 0.49335194E-01 0.84734674E+02</pdfrwt>
<totfact> 0.59261724E+04</totfact>
</mgrwt>
</event>
<event>
 4    1  0.4604841E-002  0.5125907E+02  0.7818608E-02  0.1438666E+00
         -2   -1    0    0  501    0 -0.00000000000E+00  0.00000000000E+00  0.33434057767E+03  0.33434057768E+03  0.25500000000E-02 0. -1.
          2   -1    0    0    0  501  0.00000000000E+00 -0.00000000000E+00 -0.19646818252E+01  0.19646834800E+01  0.25500000000E-02 0. -1.
          2    1    1    2    0  502  0.23713303703E+02  0.63833411522E+01  0.21431347469E+03  0.21571586232E+03  0.25500000000E-02 0.  1.
         -2    1    1    2  502    0 -0.23713303703E+02 -0.63833411522E+01  0.11806242115E+03  0.12058939884E+03  0.25500000000E-02 0.  1.
<mgrwt>
<rscale>  0 0.51259073E+02</rscale>
<asrwt>0</asrwt>
<pdfrwt beam="2">  1        2 0.30225916E-03 0.51259073E+02</pdfrwt>
<pdfrwt beam="1">  1       -2 0.51436963E-01 0.51259073E+02</pdfrwt>
<totfact> 0.20528581E+05</totfact>
</mgrwt>
</event>
<event>
 4    1  0.4604841E-002  0.4846010E+02  0.7818608E-02  0.1453829E+00
          2   -1    0    0    0  501  0.00000000000E+00  0.00000000000E+00  0.13890096352E+04  0.13890096352E+04  0.25500000000E-02 0. -1.
         -2   -1    0    0  501    0 -0.00000000000E+00 -0.00000000000E+00 -0.42266811596E+00  0.42267580809E+00  0.25500000000E-02 0. -1.
          2    1    1    2    0  502  0.17169239855E+02  0.11428427787E+02  0.32969657604E+03  0.33034107226E+03  0.25500000000E-02 0. -1.
         -2    1    1    2  502    0 -0.17169239855E+02 -0.11428427787E+02  0.10588903911E+04  0.10590912388E+04  0.25500000000E-02 0. -1.
<mgrwt>
<rscale>  0 0.48460104E+02</rscale>
<asrwt>0</asrwt>
<pdfrwt beam="1">  1        2 0.21369837E+00 0.48460104E+02</pdfrwt>
<pdfrwt beam="2">  1       -2 0.65025061E-04 0.48460104E+02</pdfrwt>
<totfact> 0.12126444E+06</totfact>
</mgrwt>
</event>
<event>
 4    1  0.4604841E-002  0.5117589E+02  0.7818608E-02  0.1439100E+00
         -2   -1    0    0  501    0 -0.00000000000E+00  0.00000000000E+00  0.84368151054E+00  0.84368536417E+00  0.25500000000E-02 0. -1.
          2   -1    0    0    0  501  0.00000000000E+00 -0.00000000000E+00 -0.77605271778E+03  0.77605271778E+03  0.25500000000E-02 0. -1.
          2    1    1    2    0  502  0.20326401984E+02 -0.43439823716E+01 -0.16105266472E+03  0.16238840359E+03  0.25500000000E-02 0.  1.
         -2    1    1    2  502    0 -0.20326401984E+02  0.43439823716E+01 -0.61415637155E+03  0.61450799956E+03  0.25500000000E-02 0.  1.
<mgrwt>
<rscale>  0 0.51175886E+02</rscale>
<asrwt>0</asrwt>
<pdfrwt beam="2">  1        2 0.11939215E+00 0.51175886E+02</pdfrwt>
<pdfrwt beam="1">  1       -2 0.12979807E-03 0.51175886E+02</pdfrwt>
<totfact> 0.10609496E+06</totfact>
</mgrwt>
</event>
<event>
 4    1  0.4604841E-002  0.4615847E+02  0.7818608E-02  0.1467236E+00
         -2   -1    0    0  501    0 -0.00000000000E+00  0.00000000000E+00  0.45099126869E+01  0.45099134078E+01  0.25500000000E-02 0. -1.
          2   -1    0    0    0  501  0.00000000000E+00 -0.00000000000E+00 -0.11810673063E+03  0.11810673066E+03  0.25500000000E-02 0. -1.
          2    1    1    2    0  502  0.52310232394E+01 -0.19714509877E+02 -0.28110762136E+02  0.34730972607E+02  0.25500000000E-02 0.  1.
         -2    1    1    2  502    0 -0.52310232394E+01  0.19714509877E+02 -0.85486055812E+02  0.87885671463E+02  0.25500000000E-02 0.  1.
<mgrwt>
<rscale>  0 0.46158470E+02</rscale>
<asrwt>0</asrwt>
<pdfrwt beam="2">  1        2 0.18170264E-01 0.46158470E+02</pdfrwt>
<pdfrwt beam="1">  1       -2 0.69383287E-03 0.46158470E+02</pdfrwt>
<totfact> 0.76543649E+05</totfact>
</mgrwt>
</event>
<event>
 4    1  0.4604841E-002  0.6320465E+02  0.7818608E-02  0.1384855E+00
         -2   -1    0    0  501    0 -0.00000000000E+00  0.00000000000E+00  0.99997557464E+01  0.99997560715E+01  0.25500000000E-02 0. -1.
          2   -1    0    0    0  501  0.00000000000E+00 -0.00000000000E+00 -0.99873136486E+02  0.99873136519E+02  0.25500000000E-02 0. -1.
          2    1    1    2    0  502  0.19010295049E+02  0.11204578867E+02 -0.56106486334E+01  0.22768691004E+02  0.25500000000E-02 0. -1.
         -2    1    1    2  502    0 -0.19010295049E+02 -0.11204578867E+02 -0.84262732107E+02  0.87104201586E+02  0.25500000000E-02 0. -1.
<mgrwt>
<rscale>  0 0.63204651E+02</rscale>
<asrwt>0</asrwt>
<pdfrwt beam="2">  1        2 0.15365097E-01 0.63204651E+02</pdfrwt>
<pdfrwt beam="1">  1       -2 0.15384241E-02 0.63204651E+02</pdfrwt>
<totfact> 0.32753722E+05</totfact>
</mgrwt>
</event>
<event>
 4    1  0.4604841E-002  0.4837389E+02  0.7818608E-02  0.1454315E+00
          2   -1    0    0    0  501  0.00000000000E+00  0.00000000000E+00  0.89739793127E+00  0.89740155424E+00  0.25500000000E-02 0. -1.
         -2   -1    0    0  501    0 -0.00000000000E+00 -0.00000000000E+00 -0.65189264168E+03  0.65189264168E+03  0.25500000000E-02 0. -1.
          2    1    1    2    0  502 -0.86085086421E+01 -0.21300365101E+02 -0.42755549776E+03  0.42817229668E+03  0.25500000000E-02 0. -1.
         -2    1    1    2  502    0  0.86085086421E+01  0.21300365101E+02 -0.22343974599E+03  0.22461774656E+03  0.25500000000E-02 0. -1.
<mgrwt>
<rscale>  0 0.48373889E+02</rscale>
<asrwt>0</asrwt>
<pdfrwt beam="1">  1        2 0.13806202E-03 0.48373889E+02</pdfrwt>
<pdfrwt beam="2">  1       -2 0.10029080E+00 0.48373889E+02</pdfrwt>
<totfact> 0.14382467E+05</totfact>
</mgrwt>
</event>
<event>
 4    1  0.4604841E-002  0.4922330E+02  0.7818608E-02  0.1449576E+00
          2   -1    0    0    0  501  0.00000000000E+00  0.00000000000E+00  0.52594639918E+01  0.52594646100E+01  0.25500000000E-02 0. -1.
         -2   -1    0    0  501    0 -0.00000000000E+00 -0.00000000000E+00 -0.11517015244E+03  0.11517015247E+03  0.25500000000E-02 0. -1.
          2    1    1    2    0  502 -0.12682754322E+02  0.19922069650E+02 -0.71904491250E+02  0.75683531794E+02  0.25500000000E-02 0. -1.
         -2    1    1    2  502    0  0.12682754322E+02 -0.19922069650E+02 -0.38006197198E+02  0.44746085284E+02  0.25500000000E-02 0. -1.
<mgrwt>
<rscale>  0 0.49223300E+02</rscale>
<asrwt>0</asrwt>
<pdfrwt beam="1">  1        2 0.80914844E-03 0.49223300E+02</pdfrwt>
<pdfrwt beam="2">  1       -2 0.17718483E-01 0.49223300E+02</pdfrwt>
<totfact> 0.35328263E+05</totfact>
</mgrwt>
</event>
<event>
 4    1  0.4604841E-002  0.4994841E+02  0.7818608E-02  0.1445620E+00
         -2   -1    0    0  501    0 -0.00000000000E+00  0.00000000000E+00  0.11922098755E+01  0.11922126025E+01  0.25500000000E-02 0. -1.
          2   -1    0    0    0  501  0.00000000000E+00 -0.00000000000E+00 -0.52315460000E+03  0.52315460000E+03  0.25500000000E-02 0. -1.
          2    1    1    2    0  502  0.17775657949E+02 -0.12109391020E+02 -0.12773831861E+03  0.12953644049E+03  0.25500000000E-02 0. -1.
         -2    1    1    2  502    0 -0.17775657949E+02  0.12109391020E+02 -0.39422407151E+03  0.39481037211E+03  0.25500000000E-02 0. -1.
<mgrwt>
<rscale>  0 0.49948405E+02</rscale>
<asrwt>0</asrwt>
<pdfrwt beam="2">  1        2 0.80485140E-01 0.49948405E+02</pdfrwt>
<pdfrwt beam="1">  1       -2 0.18341753E-03 0.49948405E+02</pdfrwt>
<totfact> 0.10209444E+06</totfact>
</mgrwt>
</event>
<event>
 4    1  0.4604841E-002  0.6943256E+02  0.7818608E-02  0.1362033E+00
          2   -1    0    0    0  501  0.00000000000E+00  0.00000000000E+00  0.24917177529E+04  0.24917177529E+04  0.25500000000E-02 0.  1.
         -2   -1    0    0  501    0 -0.00000000000E+00 -0.00000000000E+00 -0.48368713716E+00  0.48369385891E+00  0.25500000000E-02 0.  1.
          2    1    1    2    0  502  0.99475860542E+01 -0.28129712798E+02  0.18826543503E+04  0.18828907663E+04  0.25500000000E-02 0. -1.
         -2    1    1    2  502    0 -0.99475860542E+01  0.28129712798E+02  0.60857971548E+03  0.60931068045E+03  0.25500000000E-02 0. -1.
<mgrwt>
<rscale>  0 0.69432563E+02</rscale>
<asrwt>0</asrwt>
<pdfrwt beam="1">  1        2 0.38333973E+00 0.69432563E+02</pdfrwt>
<pdfrwt beam="2">  1       -2 0.74414206E-04 0.69432563E+02</pdfrwt>
<totfact> 0.30516090E+05</totfact>
</mgrwt>
</event>
<event>
 4    1  0.4604841E-002  0.5606293E+02  0.7818608E-02  0.1415138E+00
          2   -1    0    0    0  501  0.00000000000E+00  0.00000000000E+00  0.56121299005E+03  0.56121299005E+03  0.25500000000E-02 0.  1.
         -2   -1    0    0  501    0 -0.00000000000E+00 -0.00000000000E+00 -0.14001143150E+01  0.14001166372E+01  0.25500000000E-02 0.  1.
          2    1    1    2    0  502 -0.13359847143E+01  0.25397586940E+02  0.16161622228E+03  0.16360509035E+03  0.25500000000E-02 0. -1.
         -2    1    1    2  502    0  0.13359847143E+01 -0.25397586940E+02  0.39819665345E+03  0.39900801634E+03  0.25500000000E-02 0. -1.
<mgrwt>
<rscale>  0 0.56062929E+02</rscale>
<asrwt>0</asrwt>
<pdfrwt beam="1">  1        2 0.86340577E-01 0.56062929E+02</pdfrwt>
<pdfrwt beam="2">  1       -2 0.21540209E-03 0.56062929E+02</pdfrwt>
<totfact> 0.78186808E+05</totfact>
</mgrwt>
</event>
<event>
 4    1  0.4604841E-002  0.6564532E+02  0.7818608E-02  0.1375560E+00
         -2   -1    0    0  501    0 -0.00000000000E+00  0.00000000000E+00  0.11419889443E+01  0.11419917913E+01  0.25500000000E-02 0.  1.
          2   -1    0    0    0  501  0.00000000000E+00 -0.00000000000E+00 -0.94337669192E+03  0.94337669193E+03  0.25500000000E-02 0.  1.
          2    1    1    2    0  502 -0.24067260369E+02  0.16365066972E+02 -0.25277720056E+03  0.25444716852E+03  0.25500000000E-02 0. -1.
         -2    1    1    2  502    0  0.24067260369E+02 -0.16365066972E+02 -0.68945750242E+03  0.69007151520E+03  0.25500000000E-02 0. -1.
<mgrwt>
<rscale>  0 0.65645323E+02</rscale>
<asrwt>0</asrwt>
<pdfrwt beam="2">  1        2 0.14513425E+00 0.65645323E+02</pdfrwt>
<pdfrwt beam="1">  1       -2 0.17569158E-03 0.65645323E+02</pdfrwt>
<totfact> 0.58316898E+05</totfact>
</mgrwt>
</event>
<event>
 4    1  0.4604841E-002  0.4998083E+02  0.7818608E-02  0.1445445E+00
          2   -1    0    0    0  501  0.00000000000E+00  0.00000000000E+00  0.12802072692E+02  0.12802072946E+02  0.25500000000E-02 0.  1.
         -2   -1    0    0  501    0 -0.00000000000E+00 -0.00000000000E+00 -0.48782796703E+02  0.48782796770E+02  0.25500000000E-02 0.  1.
          2    1    1    2    0  502  0.15949951992E+02 -0.17277641570E+02 -0.28416807694E+02  0.36884045776E+02  0.25500000000E-02 0.  1.
         -2    1    1    2  502    0 -0.15949951992E+02  0.17277641570E+02 -0.75639163171E+01  0.24700823941E+02  0.25500000000E-02 0.  1.
<mgrwt>
<rscale>  0 0.49980833E+02</rscale>
<asrwt>0</asrwt>
<pdfrwt beam="1">  1        2 0.19695497E-02 0.49980833E+02</pdfrwt>
<pdfrwt beam="2">  1       -2 0.75050456E-02 0.49980833E+02</pdfrwt>
<totfact> 0.40982835E+05</totfact>
</mgrwt>
</event>
<event>
 4    1  0.4604841E-002  0.5626499E+02  0.7818608E-02  0.1414210E+00
          2   -1    0    0    0  501  0.00000000000E+00  0.00000000000E+00  0.15615240372E+04  0.15615240372E+04  0.25500000000E-02 0.  1.
         -2   -1    0    0  501    0 -0.00000000000E+00 -0.00000000000E+00 -0.50683324170E+00  0.50683965649E+00  0.25500000000E-02 0.  1.
          2    1    1    2    0  502  0.21403881262E+02  0.14494147084E+02  0.10886933236E+04  0.10890001649E+04  0.25500000000E-02 0.  1.
         -2    1    1    2  502    0 -0.21403881262E+02 -0.14494147084E+02  0.47232388038E+03  0.47303071192E+03  0.25500000000E-02 0.  1.
<mgrwt>
<rscale>  0 0.56264991E+02</rscale>
<asrwt>0</asrwt>
<pdfrwt beam="1">  1        2 0.24023003E+00 0.56264991E+02</pdfrwt>
<pdfrwt beam="2">  1       -2 0.77976280E-04 0.56264991E+02</pdfrwt>
<totfact> 0.80375143E+05</totfact>
</mgrwt>
</event>
<event>
 4    1  0.4604841E-002  0.8170598E+02  0.7818608E-02  0.1324279E+00
          2   -1    0    0    0  501  0.00000000000E+00  0.00000000000E+00  0.31748389179E+04  0.31748389179E+04  0.25500000000E-02 0. -1.
         -2   -1    0    0  501    0 -0.00000000000E+00 -0.00000000000E+00 -0.52568241438E+00  0.52568859916E+00  0.25500000000E-02 0. -1.
          2    1    1    2    0  502 -0.35154009475E+02  0.14134792213E+02  0.21808501689E+04  0.21811792810E+04  0.25500000000E-02 0. -1.
         -2    1    1    2  502    0  0.35154009475E+02 -0.14134792213E+02  0.99346306657E+03  0.99418532547E+03  0.25500000000E-02 0. -1.
<mgrwt>
<rscale>  0 0.81705980E+02</rscale>
<asrwt>0</asrwt>
<pdfrwt beam="1">  1        2 0.48845491E+00 0.81705980E+02</pdfrwt>
<pdfrwt beam="2">  1       -2 0.80871688E-04 0.81705980E+02</pdfrwt>
<totfact> 0.11685144E+05</totfact>
</mgrwt>
</event>
<event>
 4    1  0.4604841E-002  0.4294112E+02  0.7818608E-02  0.1487620E+00
         -2   -1    0    0  501    0 -0.00000000000E+00  0.00000000000E+00  0.26147461139E+02  0.26147461264E+02  0.25500000000E-02 0.  1.
          2   -1    0    0    0  501  0.00000000000E+00 -0.00000000000E+00 -0.17630201654E+02  0.17630201838E+02  0.25500000000E-02 0.  1.
          2    1    1    2    0  502  0.31624180698E-01 -0.21457162169E+02  0.50311545774E+01  0.22039131818E+02  0.25500000000E-02 0.  1.
         -2    1    1    2  502    0 -0.31624180698E-01  0.21457162169E+02  0.34861049081E+01  0.21738531283E+02  0.25500000000E-02 0.  1.
<mgrwt>
<rscale>  0 0.42941123E+02</rscale>
<asrwt>0</asrwt>
<pdfrwt beam="2">  1        2 0.27123387E-02 0.42941123E+02</pdfrwt>
<pdfrwt beam="1">  1       -2 0.40226863E-02 0.42941123E+02</pdfrwt>
<totfact> 0.64559465E+05</totfact>
</mgrwt>
</event>
<event>
 4    1  0.4604841E-002  0.5431102E+02  0.7818608E-02  0.1423385E+00
         -2   -1    0    0  501    0 -0.00000000000E+00  0.00000000000E+00  0.10733646799E+01  0.10733677089E+01  0.25500000000E-02 0. -1.
          2   -1    0    0    0  501  0.00000000000E+00 -0.00000000000E+00 -0.68701786515E+03  0.68701786515E+03  0.25500000000E-02 0. -1.
          2    1    1    2    0  502 -0.16596814374E+02 -0.15148446343E+02 -0.14979226345E+03  0.15146831969E+03  0.25500000000E-02 0. -1.
         -2    1    1    2  502    0  0.16596814374E+02  0.15148446343E+02 -0.53615223702E+03  0.53662291317E+03  0.25500000000E-02 0. -1.
<mgrwt>
<rscale>  0 0.54311021E+02</rscale>
<asrwt>0</asrwt>
<pdfrwt beam="2">  1        2 0.10569471E+00 0.54311021E+02</pdfrwt>
<pdfrwt beam="1">  1       -2 0.16513381E-03 0.54311021E+02</pdfrwt>
<totfact> 0.89247588E+05</totfact>
</mgrwt>
</event>
<event>
 4    1  0.4604841E-002  0.4998287E+02  0.7818608E-02  0.1445434E+00
          2   -1    0    0    0  501  0.00000000000E+00  0.00000000000E+00  0.41777953939E+01  0.41777961721E+01  0.25500000000E-02 0.  1.
         -2   -1    0    0  501    0 -0.00000000000E+00 -0.00000000000E+00 -0.14949795517E+03  0.14949795519E+03  0.25500000000E-02 0.  1.
          2    1    1    2    0  502 -0.13091383321E+02 -0.16640132526E+02 -0.31837317751E+02  0.38234711138E+02  0.25500000000E-02 0. -1.
         -2    1    1    2  502    0  0.13091383321E+02  0.16640132526E+02 -0.11348284202E+03  0.11544104022E+03  0.25500000000E-02 0. -1.
<mgrwt>
<rscale>  0 0.49982874E+02</rscale>
<asrwt>0</asrwt>
<pdfrwt beam="1">  1        2 0.64273793E-03 0.49982874E+02</pdfrwt>
<pdfrwt beam="2">  1       -2 0.22999681E-01 0.49982874E+02</pdfrwt>
<totfact> 0.31434346E+05</totfact>
</mgrwt>
</event>
<event>
 4    1  0.4604841E-002  0.4665353E+02  0.7818608E-02  0.1464275E+00
         -2   -1    0    0  501    0 -0.00000000000E+00  0.00000000000E+00  0.62755496398E+01  0.62755501579E+01  0.25500000000E-02 0. -1.
          2   -1    0    0    0  501  0.00000000000E+00 -0.00000000000E+00 -0.86707622128E+02  0.86707622165E+02  0.25500000000E-02 0. -1.
          2    1    1    2    0  502  0.51094389047E+01  0.20388193913E+02 -0.20052322659E+02  0.29049620780E+02  0.25500000000E-02 0.  1.
         -2    1    1    2  502    0 -0.51094389047E+01 -0.20388193913E+02 -0.60379749829E+02  0.63933551543E+02  0.25500000000E-02 0.  1.
<mgrwt>
<rscale>  0 0.46653532E+02</rscale>
<asrwt>0</asrwt>
<pdfrwt beam="2">  1        2 0.13339633E-01 0.46653532E+02</pdfrwt>
<pdfrwt beam="1">  1       -2 0.96546928E-03 0.46653532E+02</pdfrwt>
<totfact> 0.68810925E+05</totfact>
</mgrwt>
</event>
<event>
 4    1  0.4604841E-002  0.4732911E+02  0.7818608E-02  0.1460304E+00
          2   -1    0    0    0  501  0.00000000000E+00  0.00000000000E+00  0.19749586851E+03  0.19749586852E+03  0.25500000000E-02 0. -1.
         -2   -1    0    0  501    0 -0.00000000000E+00 -0.00000000000E+00 -0.28355588250E+01  0.28355599716E+01  0.25500000000E-02 0. -1.
          2    1    1    2    0  502  0.95367390313E+01  0.19026649742E+02  0.53536524993E+02  0.57611824364E+02  0.25500000000E-02 0.  1.
         -2    1    1    2  502    0 -0.95367390313E+01 -0.19026649742E+02  0.14112378469E+03  0.14271960413E+03  0.25500000000E-02 0.  1.
<mgrwt>
<rscale>  0 0.47329114E+02</rscale>
<asrwt>0</asrwt>
<pdfrwt beam="1">  1        2 0.30383981E-01 0.47329114E+02</pdfrwt>
<pdfrwt beam="2">  1       -2 0.43623989E-03 0.47329114E+02</pdfrwt>
<totfact> 0.84072499E+05</totfact>
</mgrwt>
</event>
<event>
 4    1  0.4604841E-002  0.6252150E+02  0.7818608E-02  0.1387545E+00
         -2   -1    0    0  501    0 -0.00000000000E+00  0.00000000000E+00  0.22262187827E+02  0.22262187973E+02  0.25500000000E-02 0.  1.
          2   -1    0    0    0  501  0.00000000000E+00 -0.00000000000E+00 -0.43896609717E+02  0.43896609791E+02  0.25500000000E-02 0.  1.
          2    1    1    2    0  502 -0.25559347606E+02 -0.34708507730E+01  0.78711458244E+01  0.26968166386E+02  0.25500000000E-02 0.  1.
         -2    1    1    2  502    0  0.25559347606E+02  0.34708507730E+01 -0.29505567715E+02  0.39190631378E+02  0.25500000000E-02 0.  1.
<mgrwt>
<rscale>  0 0.62521503E+02</rscale>
<asrwt>0</asrwt>
<pdfrwt beam="2">  1        2 0.67533246E-02 0.62521503E+02</pdfrwt>
<pdfrwt beam="1">  1       -2 0.34249520E-02 0.62521503E+02</pdfrwt>
<totfact> 0.27820937E+05</totfact>
</mgrwt>
</event>
<event>
 4    1  0.4604841E-002  0.6678136E+02  0.7818608E-02  0.1371393E+00
         -2   -1    0    0  501    0 -0.00000000000E+00  0.00000000000E+00  0.64772797394E+01  0.64772802413E+01  0.25500000000E-02 0. -1.
          2   -1    0    0    0  501  0.00000000000E+00 -0.00000000000E+00 -0.17213048419E+03  0.17213048421E+03  0.25500000000E-02 0. -1.
          2    1    1    2    0  502  0.25788136196E+02  0.20326557863E+02 -0.66615328639E+02  0.74268424914E+02  0.25500000000E-02 0.  1.
         -2    1    1    2  502    0 -0.25788136196E+02 -0.20326557863E+02 -0.99037875808E+02  0.10433933953E+03  0.25500000000E-02 0.  1.
<mgrwt>
<rscale>  0 0.66781355E+02</rscale>
<asrwt>0</asrwt>
<pdfrwt beam="2">  1        2 0.26481610E-01 0.66781355E+02</pdfrwt>
<pdfrwt beam="1">  1       -2 0.99650474E-03 0.66781355E+02</pdfrwt>
<totfact> 0.33468145E+05</totfact>
</mgrwt>
</event>
<event>
 4    1  0.4604841E-002  0.6644198E+02  0.7818608E-02  0.1372628E+00
          2   -1    0    0    0  501  0.00000000000E+00  0.00000000000E+00  0.22938310792E+04  0.22938310792E+04  0.25500000000E-02 0. -1.
         -2   -1    0    0  501    0 -0.00000000000E+00 -0.00000000000E+00 -0.48112799229E+00  0.48113474980E+00  0.25500000000E-02 0. -1.
          2    1    1    2    0  502 -0.96757083894E+01  0.29770066682E+02  0.76252889399E+03  0.76317114095E+03  0.25500000000E-02 0.  1.
         -2    1    1    2  502    0  0.96757083894E+01 -0.29770066682E+02  0.15308210572E+04  0.15311410730E+04  0.25500000000E-02 0.  1.
<mgrwt>
<rscale>  0 0.66441978E+02</rscale>
<asrwt>0</asrwt>
<pdfrwt beam="1">  1        2 0.35290908E+00 0.66441978E+02</pdfrwt>
<pdfrwt beam="2">  1       -2 0.74017697E-04 0.66441978E+02</pdfrwt>
<totfact> 0.38558772E+05</totfact>
</mgrwt>
</event>
<event>
 4    1  0.4604841E-002  0.5661951E+02  0.7818608E-02  0.1412592E+00
         -2   -1    0    0  501    0 -0.00000000000E+00  0.00000000000E+00  0.13452200278E+01  0.13452224447E+01  0.25500000000E-02 0.  1.
          2   -1    0    0    0  501  0.00000000000E+00 -0.00000000000E+00 -0.59576992290E+03  0.59576992291E+03  0.25500000000E-02 0.  1.
          2    1    1    2    0  502  0.10233180682E+02  0.18554832198E+02 -0.99225603577E+02  0.10146290059E+03  0.25500000000E-02 0. -1.
         -2    1    1    2  502    0 -0.10233180682E+02 -0.18554832198E+02 -0.49519909930E+03  0.49565224476E+03  0.25500000000E-02 0. -1.
<mgrwt>
<rscale>  0 0.56619514E+02</rscale>
<asrwt>0</asrwt>
<pdfrwt beam="2">  1        2 0.91656701E-01 0.56619514E+02</pdfrwt>
<pdfrwt beam="1">  1       -2 0.20695759E-03 0.56619514E+02</pdfrwt>
<totfact> 0.77571097E+05</totfact>
</mgrwt>
</event>
<event>
 4    1  0.4604841E-002  0.4285285E+02  0.7818608E-02  0.1488209E+00
         -2   -1    0    0  501    0 -0.00000000000E+00  0.00000000000E+00  0.33293196388E+00  0.33294172925E+00  0.25500000000E-02 0. -1.
          2   -1    0    0    0  501  0.00000000000E+00 -0.00000000000E+00 -0.13789149842E+04  0.13789149842E+04  0.25500000000E-02 0. -1.
          2    1    1    2    0  502  0.67730639544E-01  0.21180275081E+02 -0.79349989921E+03  0.79378252607E+03  0.25500000000E-02 0. -1.
         -2    1    1    2  502    0 -0.67730639544E-01 -0.21180275081E+02 -0.58508215306E+03  0.58546539990E+03  0.25500000000E-02 0. -1.
<mgrwt>
<rscale>  0 0.42852846E+02</rscale>
<asrwt>0</asrwt>
<pdfrwt beam="2">  1        2 0.21213620E+00 0.42852846E+02</pdfrwt>
<pdfrwt beam="1">  1       -2 0.51222157E-04 0.42852846E+02</pdfrwt>
<totfact> 0.16418016E+06</totfact>
</mgrwt>
</event>
<event>
 4    1  0.4604841E-002  0.1127265E+03  0.7818608E-02  0.1255602E+00
         -2   -1    0    0  501    0 -0.00000000000E+00  0.00000000000E+00  0.61898363971E+01  0.61898369224E+01  0.25500000000E-02 0. -1.
          2   -1    0    0    0  501  0.00000000000E+00 -0.00000000000E+00 -0.51323125238E+03  0.51323125239E+03  0.25500000000E-02 0. -1.
          2    1    1    2    0  502  0.29000542696E+02 -0.17527230642E+02 -0.46105494855E+03  0.46229849759E+03  0.25500000000E-02 0.  1.
         -2    1    1    2  502    0 -0.29000542696E+02  0.17527230642E+02 -0.45986467438E+02  0.57122591718E+02  0.25500000000E-02 0.  1.
<mgrwt>
<rscale>  0 0.11272653E+03</rscale>
<asrwt>0</asrwt>
<pdfrwt beam="2">  1        2 0.78958621E-01 0.11272653E+03</pdfrwt>
<pdfrwt beam="1">  1       -2 0.95228297E-03 0.11272653E+03</pdfrwt>
<totfact> 0.12319176E+05</totfact>
</mgrwt>
</event>
<event>
 4    1  0.4604841E-002  0.1782269E+03  0.7818608E-02  0.1169530E+00
          2   -1    0    0    0  501  0.00000000000E+00  0.00000000000E+00  0.27733350771E+03  0.27733350773E+03  0.25500000000E-02 0.  1.
         -2   -1    0    0  501    0 -0.00000000000E+00 -0.00000000000E+00 -0.28634137580E+02  0.28634137693E+02  0.25500000000E-02 0.  1.
          2    1    1    2    0  502  0.83599808248E+02 -0.11164666691E+02  0.74961860390E+02  0.11283996739E+03  0.25500000000E-02 0.  1.
         -2    1    1    2  502    0 -0.83599808248E+02  0.11164666691E+02  0.17373750974E+03  0.19312767803E+03  0.25500000000E-02 0.  1.
<mgrwt>
<rscale>  0 0.17822689E+03</rscale>
<asrwt>0</asrwt>
<pdfrwt beam="1">  1        2 0.42666694E-01 0.17822689E+03</pdfrwt>
<pdfrwt beam="2">  1       -2 0.44052518E-02 0.17822689E+03</pdfrwt>
<totfact> 0.26975531E+04</totfact>
</mgrwt>
</event>
<event>
 4    1  0.4604841E-002  0.5018234E+02  0.7818608E-02  0.1444361E+00
         -2   -1    0    0  501    0 -0.00000000000E+00  0.00000000000E+00  0.22537803925E+01  0.22537818351E+01  0.25500000000E-02 0. -1.
          2   -1    0    0    0  501  0.00000000000E+00 -0.00000000000E+00 -0.27933799275E+03  0.27933799276E+03  0.25500000000E-02 0. -1.
          2    1    1    2    0  502  0.17282308276E+02  0.11314640181E+02 -0.58618465760E+02  0.62151619418E+02  0.25500000000E-02 0. -1.
         -2    1    1    2  502    0 -0.17282308276E+02 -0.11314640181E+02 -0.21846574660E+03  0.21944015518E+03  0.25500000000E-02 0. -1.
<mgrwt>
<rscale>  0 0.50182335E+02</rscale>
<asrwt>0</asrwt>
<pdfrwt beam="2">  1        2 0.42975048E-01 0.50182335E+02</pdfrwt>
<pdfrwt beam="1">  1       -2 0.34673578E-03 0.50182335E+02</pdfrwt>
<totfact> 0.81769285E+05</totfact>
</mgrwt>
</event>
<event>
 4    1  0.4604841E-002  0.4481997E+02  0.7818608E-02  0.1475469E+00
          2   -1    0    0    0  501  0.00000000000E+00  0.00000000000E+00  0.32103776224E+02  0.32103776325E+02  0.25500000000E-02 0. -1.
         -2   -1    0    0  501    0 -0.00000000000E+00 -0.00000000000E+00 -0.15643251945E+02  0.15643252152E+02  0.25500000000E-02 0. -1.
          2    1    1    2    0  502  0.51276444087E+01  0.21241883512E+02  0.29360928569E+01  0.22048378627E+02  0.25500000000E-02 0. -1.
         -2    1    1    2  502    0 -0.51276444087E+01 -0.21241883512E+02  0.13524431422E+02  0.25698649850E+02  0.25500000000E-02 0. -1.
<mgrwt>
<rscale>  0 0.44819972E+02</rscale>
<asrwt>0</asrwt>
<pdfrwt beam="1">  1        2 0.49390424E-02 0.44819972E+02</pdfrwt>
<pdfrwt beam="2">  1       -2 0.24066542E-02 0.44819972E+02</pdfrwt>
<totfact> 0.62983531E+05</totfact>
</mgrwt>
</event>
<event>
 4    1  0.4604841E-002  0.4556069E+02  0.7818608E-02  0.1470871E+00
         -2   -1    0    0  501    0 -0.00000000000E+00  0.00000000000E+00  0.25672967102E+01  0.25672979766E+01  0.25500000000E-02 0. -1.
          2   -1    0    0    0  501  0.00000000000E+00 -0.00000000000E+00 -0.20213632788E+03  0.20213632790E+03  0.25500000000E-02 0. -1.
          2    1    1    2    0  502 -0.22330390834E+02  0.43650386722E+01 -0.94772996859E+02  0.97465998469E+02  0.25500000000E-02 0.  1.
         -2    1    1    2  502    0  0.22330390834E+02 -0.43650386722E+01 -0.10479603431E+03  0.10723762741E+03  0.25500000000E-02 0.  1.
<mgrwt>
<rscale>  0 0.45560687E+02</rscale>
<asrwt>0</asrwt>
<pdfrwt beam="2">  1        2 0.31097884E-01 0.45560687E+02</pdfrwt>
<pdfrwt beam="1">  1       -2 0.39496898E-03 0.45560687E+02</pdfrwt>
<totfact> 0.93111701E+05</totfact>
</mgrwt>
</event>
<event>
 4    1  0.4604841E-002  0.4972864E+02  0.7818608E-02  0.1446811E+00
         -2   -1    0    0  501    0 -0.00000000000E+00  0.00000000000E+00  0.28835522980E+01  0.28835534255E+01  0.25500000000E-02 0.  1.
          2   -1    0    0    0  501  0.00000000000E+00 -0.00000000000E+00 -0.21440025566E+03  0.21440025567E+03  0.25500000000E-02 0.  1.
          2    1    1    2    0  502  0.11252572054E+02 -0.20207279996E+02 -0.14563245441E+03  0.14745767639E+03  0.25500000000E-02 0. -1.
         -2    1    1    2  502    0 -0.11252572054E+02  0.20207279996E+02 -0.65884248948E+02  0.69826132706E+02  0.25500000000E-02 0. -1.
<mgrwt>
<rscale>  0 0.49728643E+02</rscale>
<asrwt>0</asrwt>
<pdfrwt beam="2">  1        2 0.32984642E-01 0.49728643E+02</pdfrwt>
<pdfrwt beam="1">  1       -2 0.44362369E-03 0.49728643E+02</pdfrwt>
<totfact> 0.76381034E+05</totfact>
</mgrwt>
</event>
<event>
 4    1  0.4604841E-002  0.4293546E+02  0.7818608E-02  0.1487658E+00
          2   -1    0    0    0  501  0.00000000000E+00  0.00000000000E+00  0.59995023576E+03  0.59995023576E+03  0.25500000000E-02 0. -1.
         -2   -1    0    0  501    0 -0.00000000000E+00 -0.00000000000E+00 -0.76816716265E+00  0.76817139511E+00  0.25500000000E-02 0. -1.
          2    1    1    2    0  502 -0.11490859662E+01  0.21218640988E+02  0.25689561272E+03  0.25777297563E+03  0.25500000000E-02 0.  1.
         -2    1    1    2  502    0  0.11490859662E+01 -0.21218640988E+02  0.34228645588E+03  0.34294543153E+03  0.25500000000E-02 0.  1.
<mgrwt>
<rscale>  0 0.42935456E+02</rscale>
<asrwt>0</asrwt>
<pdfrwt beam="1">  1        2 0.92300454E-01 0.42935456E+02</pdfrwt>
<pdfrwt beam="2">  1       -2 0.11817935E-03 0.42935456E+02</pdfrwt>
<totfact> 0.15376380E+06</totfact>
</mgrwt>
</event>
<event>
 4    1  0.4604841E-002  0.5334176E+02  0.7818608E-02  0.1428108E+00
         -2   -1    0    0  501    0 -0.00000000000E+00  0.00000000000E+00  0.66328403016E+01  0.66328407918E+01  0.25500000000E-02 0.  1.
          2   -1    0    0    0  501  0.00000000000E+00 -0.00000000000E+00 -0.10724454377E+03  0.10724454380E+03  0.25500000000E-02 0.  1.
          2    1    1    2    0  502 -0.17752392369E+02 -0.11140794989E+02 -0.85519530487E+02  0.88050297269E+02  0.25500000000E-02 0. -1.
         -2    1    1    2  502    0  0.17752392369E+02  0.11140794989E+02 -0.15092172981E+02  0.25827087323E+02  0.25500000000E-02 0. -1.
<mgrwt>
<rscale>  0 0.53341765E+02</rscale>
<asrwt>0</asrwt>
<pdfrwt beam="2">  1        2 0.16499159E-01 0.53341765E+02</pdfrwt>
<pdfrwt beam="1">  1       -2 0.10204371E-02 0.53341765E+02</pdfrwt>
<totfact> 0.51747609E+05</totfact>
</mgrwt>
</event>
<event>
 4    1  0.4604841E-002  0.4178273E+02  0.7818608E-02  0.1495488E+00
          2   -1    0    0    0  501  0.00000000000E+00  0.00000000000E+00  0.67453981291E+03  0.67453981291E+03  0.25500000000E-02 0. -1.
         -2   -1    0    0  501    0 -0.00000000000E+00 -0.00000000000E+00 -0.64702986761E+00  0.64703489248E+00  0.25500000000E-02 0. -1.
          2    1    1    2    0  502 -0.12365342542E+02 -0.16121552398E+02  0.25837254723E+03  0.25917017443E+03  0.25500000000E-02 0. -1.
         -2    1    1    2  502    0  0.12365342542E+02  0.16121552398E+02  0.41552023581E+03  0.41601667337E+03  0.25500000000E-02 0. -1.
<mgrwt>
<rscale>  0 0.41782729E+02</rscale>
<asrwt>0</asrwt>
<pdfrwt beam="1">  1        2 0.10377594E+00 0.41782729E+02</pdfrwt>
<pdfrwt beam="2">  1       -2 0.99542886E-04 0.41782729E+02</pdfrwt>
<totfact> 0.16914321E+06</totfact>
</mgrwt>
</event>
<event>
 4    1  0.4604841E-002  0.4192515E+02  0.7818608E-02  0.1494504E+00
         -2   -1    0    0  501    0 -0.00000000000E+00  0.00000000000E+00  0.27195508340E+00  0.27196703824E+00  0.25500000000E-02 0. -1.
          2   -1    0    0    0  501  0.00000000000E+00 -0.00000000000E+00 -0.16157810431E+04  0.16157810431E+04  0.25500000000E-02 0. -1.
          2    1    1    2    0  502 -0.89105497537E+01  0.18916128489E+02 -0.86507966988E+03  0.86533233677E+03  0.25500000000E-02 0.  1.
         -2    1    1    2  502    0  0.89105497537E+01 -0.18916128489E+02 -0.75042941813E+03  0.75072067336E+03  0.25500000000E-02 0.  1.
<mgrwt>
<rscale>  0 0.41925149E+02</rscale>
<asrwt>0</asrwt>
<pdfrwt beam="2">  1        2 0.24857401E+00 0.41925149E+02</pdfrwt>
<pdfrwt beam="1">  1       -2 0.41841457E-04 0.41925149E+02</pdfrwt>
<totfact> 0.16383905E+06</totfact>
</mgrwt>
</event>
<event>
 4    1  0.4604841E-002  0.4250535E+02  0.7818608E-02  0.1490544E+00
          2   -1    0    0    0  501  0.00000000000E+00  0.00000000000E+00  0.24190008678E+02  0.24190008813E+02  0.25500000000E-02 0. -1.
         -2   -1    0    0  501    0 -0.00000000000E+00 -0.00000000000E+00 -0.18672017612E+02  0.18672017786E+02  0.25500000000E-02 0. -1.
          2    1    1    2    0  502 -0.82769287823E+01  0.18469529712E+02  0.92976325345E+01  0.22272787322E+02  0.25500000000E-02 0. -1.
         -2    1    1    2  502    0  0.82769287823E+01 -0.18469529712E+02 -0.37796414679E+01  0.20589239276E+02  0.25500000000E-02 0. -1.
<mgrwt>
<rscale>  0 0.42505354E+02</rscale>
<asrwt>0</asrwt>
<pdfrwt beam="1">  1        2 0.37215398E-02 0.42505354E+02</pdfrwt>
<pdfrwt beam="2">  1       -2 0.28726181E-02 0.42505354E+02</pdfrwt>
<totfact> 0.69237509E+05</totfact>
</mgrwt>
</event>
<event>
 4    1  0.4604841E-002  0.4656341E+02  0.7818608E-02  0.1464811E+00
         -2   -1    0    0  501    0 -0.00000000000E+00  0.00000000000E+00  0.15489340806E+01  0.15489361796E+01  0.25500000000E-02 0.  1.
          2   -1    0    0    0  501  0.00000000000E+00 -0.00000000000E+00 -0.34994224392E+03  0.34994224393E+03  0.25500000000E-02 0.  1.
          2    1    1    2    0  502 -0.55156355855E+01 -0.22618892680E+02 -0.17446776584E+03  0.17601431153E+03  0.25500000000E-02 0. -1.
         -2    1    1    2  502    0  0.55156355855E+01  0.22618892680E+02 -0.17392554400E+03  0.17547686858E+03  0.25500000000E-02 0. -1.
<mgrwt>
<rscale>  0 0.46563412E+02</rscale>
<asrwt>0</asrwt>
<pdfrwt beam="2">  1        2 0.53837206E-01 0.46563412E+02</pdfrwt>
<pdfrwt beam="1">  1       -2 0.23829799E-03 0.46563412E+02</pdfrwt>
<totfact> 0.10642868E+06</totfact>
</mgrwt>
</event>
<event>
 4    1  0.4604841E-002  0.1429139E+03  0.7818608E-02  0.1209461E+00
          2   -1    0    0    0  501  0.00000000000E+00  0.00000000000E+00  0.43582361817E+03  0.43582361818E+03  0.25500000000E-02 0. -1.
         -2   -1    0    0  501    0 -0.00000000000E+00 -0.00000000000E+00 -0.11715965672E+02  0.11715965949E+02  0.25500000000E-02 0. -1.
          2    1    1    2    0  502 -0.12551301002E+02  0.63873470031E+02  0.11975381421E+03  0.13630235271E+03  0.25500000000E-02 0.  1.
         -2    1    1    2  502    0  0.12551301002E+02 -0.63873470031E+02  0.30435383829E+03  0.31123723142E+03  0.25500000000E-02 0.  1.
<mgrwt>
<rscale>  0 0.14291388E+03</rscale>
<asrwt>0</asrwt>
<pdfrwt beam="1">  1        2 0.67049774E-01 0.14291388E+03</pdfrwt>
<pdfrwt beam="2">  1       -2 0.18024567E-02 0.14291388E+03</pdfrwt>
<totfact> 0.60675862E+04</totfact>
</mgrwt>
</event>
<event>
 4    1  0.4604841E-002  0.1951732E+03  0.7818608E-02  0.1153876E+00
          2   -1    0    0    0  501  0.00000000000E+00  0.00000000000E+00  0.11212713710E+04  0.11212713710E+04  0.25500000000E-02 0.  1.
         -2   -1    0    0  501    0 -0.00000000000E+00 -0.00000000000E+00 -0.84931663633E+01  0.84931667461E+01  0.25500000000E-02 0.  1.
          2    1    1    2    0  502  0.77361343834E+02  0.44447617962E+02  0.78522078577E+03  0.79027340248E+03  0.25500000000E-02 0. -1.
         -2    1    1    2  502    0 -0.77361343834E+02 -0.44447617962E+02  0.32755741887E+03  0.33949113527E+03  0.25500000000E-02 0. -1.
<mgrwt>
<rscale>  0 0.19517320E+03</rscale>
<asrwt>0</asrwt>
<pdfrwt beam="1">  1        2 0.17250318E+00 0.19517320E+03</pdfrwt>
<pdfrwt beam="2">  1       -2 0.13066418E-02 0.19517320E+03</pdfrwt>
<totfact> 0.31294523E+04</totfact>
</mgrwt>
</event>
<event>
 4    1  0.4604841E-002  0.5094651E+02  0.7818608E-02  0.1440302E+00
          2   -1    0    0    0  501  0.00000000000E+00  0.00000000000E+00  0.18325455535E+03  0.18325455537E+03  0.25500000000E-02 0. -1.
         -2   -1    0    0  501    0 -0.00000000000E+00 -0.00000000000E+00 -0.35409026058E+01  0.35409035240E+01  0.25500000000E-02 0. -1.
          2    1    1    2    0  502  0.71847529016E+01 -0.19698078462E+02  0.36818922927E+02  0.42370603740E+02  0.25500000000E-02 0.  1.
         -2    1    1    2  502    0 -0.71847529016E+01  0.19698078462E+02  0.14289472982E+03  0.14442485516E+03  0.25500000000E-02 0.  1.
<mgrwt>
<rscale>  0 0.50946506E+02</rscale>
<asrwt>0</asrwt>
<pdfrwt beam="1">  1        2 0.28193018E-01 0.50946506E+02</pdfrwt>
<pdfrwt beam="2">  1       -2 0.54475414E-03 0.50946506E+02</pdfrwt>
<totfact> 0.68244649E+05</totfact>
</mgrwt>
</event>
<event>
 4    1  0.4604841E-002  0.7427133E+02  0.7818608E-02  0.1346142E+00
         -2   -1    0    0  501    0 -0.00000000000E+00  0.00000000000E+00  0.20737075851E+02  0.20737076008E+02  0.25500000000E-02 0.  1.
          2   -1    0    0    0  501  0.00000000000E+00 -0.00000000000E+00 -0.66502020205E+02  0.66502020254E+02  0.25500000000E-02 0.  1.
          2    1    1    2    0  502  0.19192728585E+02 -0.24039425384E+02  0.15537987904E+01  0.30800472407E+02  0.25500000000E-02 0. -1.
         -2    1    1    2  502    0 -0.19192728585E+02  0.24039425384E+02 -0.47318743145E+02  0.56438623855E+02  0.25500000000E-02 0. -1.
<mgrwt>
<rscale>  0 0.74271325E+02</rscale>
<asrwt>0</asrwt>
<pdfrwt beam="2">  1        2 0.10231080E-01 0.74271325E+02</pdfrwt>
<pdfrwt beam="1">  1       -2 0.31903194E-02 0.74271325E+02</pdfrwt>
<totfact> 0.19194588E+05</totfact>
</mgrwt>
</event>
<event>
 4    1  0.4604841E-002  0.5734766E+02  0.7818608E-02  0.1409312E+00
          2   -1    0    0    0  501  0.00000000000E+00  0.00000000000E+00  0.30363560869E+03  0.30363560870E+03  0.25500000000E-02 0.  1.
         -2   -1    0    0  501    0 -0.00000000000E+00 -0.00000000000E+00 -0.27078129374E+01  0.27078141381E+01  0.25500000000E-02 0.  1.
          2    1    1    2    0  502  0.18328545179E+02 -0.98173345248E+01  0.25594008109E+03  0.25678325635E+03  0.25500000000E-02 0. -1.
         -2    1    1    2  502    0 -0.18328545179E+02  0.98173345248E+01  0.44987714659E+02  0.49560166487E+02  0.25500000000E-02 0. -1.
<mgrwt>
<rscale>  0 0.57347663E+02</rscale>
<asrwt>0</asrwt>
<pdfrwt beam="1">  1        2 0.46713150E-01 0.57347663E+02</pdfrwt>
<pdfrwt beam="2">  1       -2 0.41658688E-03 0.57347663E+02</pdfrwt>
<totfact> 0.60214287E+05</totfact>
</mgrwt>
</event>
<event>
 4    1  0.4604841E-002  0.4185746E+02  0.7818608E-02  0.1494971E+00
         -2   -1    0    0  501    0 -0.00000000000E+00  0.00000000000E+00  0.47274990518E+01  0.47274997395E+01  0.25500000000E-02 0.  1.
          2   -1    0    0    0  501  0.00000000000E+00 -0.00000000000E+00 -0.92651871674E+02  0.92651871709E+02  0.25500000000E-02 0.  1.
          2    1    1    2    0  502 -0.13881429188E+02 -0.15114108466E+02 -0.53520851354E+02  0.57320257215E+02  0.25500000000E-02 0.  1.
         -2    1    1    2  502    0  0.13881429188E+02  0.15114108466E+02 -0.34403521268E+02  0.40059114233E+02  0.25500000000E-02 0.  1.
<mgrwt>
<rscale>  0 0.41857457E+02</rscale>
<asrwt>0</asrwt>
<pdfrwt beam="2">  1        2 0.14254133E-01 0.41857457E+02</pdfrwt>
<pdfrwt beam="1">  1       -2 0.72730767E-03 0.41857457E+02</pdfrwt>
<totfact> 0.91674374E+05</totfact>
</mgrwt>
</event>
<event>
 4    1  0.4604841E-002  0.6472223E+02  0.7818608E-02  0.1379019E+00
         -2   -1    0    0  501    0 -0.00000000000E+00  0.00000000000E+00  0.16451616070E+02  0.16451616267E+02  0.25500000000E-02 0. -1.
          2   -1    0    0    0  501  0.00000000000E+00 -0.00000000000E+00 -0.63655867695E+02  0.63655867746E+02  0.25500000000E-02 0. -1.
          2    1    1    2    0  502  0.27456165464E+02  0.30563091322E+01 -0.44462616415E+02  0.52346024801E+02  0.25500000000E-02 0. -1.
         -2    1    1    2  502    0 -0.27456165464E+02 -0.30563091322E+01 -0.27416352099E+01  0.27761459212E+02  0.25500000000E-02 0. -1.
<mgrwt>
<rscale>  0 0.64722234E+02</rscale>
<asrwt>0</asrwt>
<pdfrwt beam="2">  1        2 0.97932103E-02 0.64722234E+02</pdfrwt>
<pdfrwt beam="1">  1       -2 0.25310179E-02 0.64722234E+02</pdfrwt>
<totfact> 0.27478342E+05</totfact>
</mgrwt>
</event>
<event>
 4    1  0.4604841E-002  0.5821250E+02  0.7818608E-02  0.1405490E+00
         -2   -1    0    0  501    0 -0.00000000000E+00  0.00000000000E+00  0.40508207714E+01  0.40508215740E+01  0.25500000000E-02 0. -1.
          2   -1    0    0    0  501  0.00000000000E+00 -0.00000000000E+00 -0.20913632727E+03  0.20913632729E+03  0.25500000000E-02 0. -1.
          2    1    1    2    0  502  0.27527807197E+02 -0.78973443779E+01 -0.12158125465E+03  0.12490856539E+03  0.25500000000E-02 0. -1.
         -2    1    1    2  502    0 -0.27527807197E+02  0.78973443779E+01 -0.83504251848E+02  0.88278583475E+02  0.25500000000E-02 0. -1.
<mgrwt>
<rscale>  0 0.58212503E+02</rscale>
<asrwt>0</asrwt>
<pdfrwt beam="2">  1        2 0.32174811E-01 0.58212503E+02</pdfrwt>
<pdfrwt beam="1">  1       -2 0.62320342E-03 0.58212503E+02</pdfrwt>
<totfact> 0.50891135E+05</totfact>
</mgrwt>
</event>
<event>
 4    1  0.4604841E-002  0.6361561E+02  0.7818608E-02  0.1383256E+00
         -2   -1    0    0  501    0 -0.00000000000E+00  0.00000000000E+00  0.16488527156E+01  0.16488546875E+01  0.25500000000E-02 0.  1.
          2   -1    0    0    0  501  0.00000000000E+00 -0.00000000000E+00 -0.61359993507E+03  0.61359993507E+03  0.25500000000E-02 0.  1.
          2    1    1    2    0  502  0.13634654600E+02 -0.22293210241E+02 -0.13059435469E+03  0.13318324411E+03  0.25500000000E-02 0.  1.
         -2    1    1    2  502    0 -0.13634654600E+02  0.22293210241E+02 -0.48135672766E+03  0.48206554565E+03  0.25500000000E-02 0.  1.
<mgrwt>
<rscale>  0 0.63615612E+02</rscale>
<asrwt>0</asrwt>
<pdfrwt beam="2">  1        2 0.94399808E-01 0.63615612E+02</pdfrwt>
<pdfrwt beam="1">  1       -2 0.25367029E-03 0.63615612E+02</pdfrwt>
<totfact> 0.58270400E+05</totfact>
</mgrwt>
</event>
<event>
 4    1  0.4604841E-002  0.5026828E+02  0.7818608E-02  0.1443900E+00
         -2   -1    0    0  501    0 -0.00000000000E+00  0.00000000000E+00  0.72323603564E+00  0.72324053105E+00  0.25500000000E-02 0. -1.
          2   -1    0    0    0  501  0.00000000000E+00 -0.00000000000E+00 -0.87346733855E+03  0.87346733855E+03  0.25500000000E-02 0. -1.
          2    1    1    2    0  502 -0.23161686265E+02  0.75045149833E+01 -0.32784702277E+03  0.32874983164E+03  0.25500000000E-02 0.  1.
         -2    1    1    2  502    0  0.23161686265E+02 -0.75045149833E+01 -0.54489707974E+03  0.54544074744E+03  0.25500000000E-02 0.  1.
<mgrwt>
<rscale>  0 0.50268281E+02</rscale>
<asrwt>0</asrwt>
<pdfrwt beam="2">  1        2 0.13437875E+00 0.50268281E+02</pdfrwt>
<pdfrwt beam="1">  1       -2 0.11126813E-03 0.50268281E+02</pdfrwt>
<totfact> 0.11294162E+06</totfact>
</mgrwt>
</event>
<event>
 4    1  0.4604841E-002  0.4341210E+02  0.7818608E-02  0.1484505E+00
          2   -1    0    0    0  501  0.00000000000E+00  0.00000000000E+00  0.49048261164E+03  0.49048261164E+03  0.25500000000E-02 0.  1.
         -2   -1    0    0  501    0 -0.00000000000E+00 -0.00000000000E+00 -0.96058828781E+00  0.96059167245E+00  0.25500000000E-02 0.  1.
          2    1    1    2    0  502 -0.19191320269E+02  0.80046522240E+01  0.17427247211E+03  0.17550862023E+03  0.25500000000E-02 0. -1.
         -2    1    1    2  502    0  0.19191320269E+02 -0.80046522240E+01  0.31524955123E+03  0.31593458309E+03  0.25500000000E-02 0. -1.
<mgrwt>
<rscale>  0 0.43412104E+02</rscale>
<asrwt>0</asrwt>
<pdfrwt beam="1">  1        2 0.75458970E-01 0.43412104E+02</pdfrwt>
<pdfrwt beam="2">  1       -2 0.14778287E-03 0.43412104E+02</pdfrwt>
<totfact> 0.14120747E+06</totfact>
</mgrwt>
</event>
<event>
 4    1  0.4604841E-002  0.5665402E+02  0.7818608E-02  0.1412435E+00
          2   -1    0    0    0  501  0.00000000000E+00  0.00000000000E+00  0.57919911442E+03  0.57919911442E+03  0.25500000000E-02 0.  1.
         -2   -1    0    0  501    0 -0.00000000000E+00 -0.00000000000E+00 -0.13853937770E+01  0.13853961238E+01  0.25500000000E-02 0.  1.
          2    1    1    2    0  502  0.19561127603E+02 -0.89435920526E+01  0.10000225765E+03  0.10228918366E+03  0.25500000000E-02 0.  1.
         -2    1    1    2  502    0 -0.19561127603E+02  0.89435920526E+01  0.47781146299E+03  0.47829532688E+03  0.25500000000E-02 0.  1.
<mgrwt>
<rscale>  0 0.56654021E+02</rscale>
<asrwt>0</asrwt>
<pdfrwt beam="1">  1        2 0.89107611E-01 0.56654021E+02</pdfrwt>
<pdfrwt beam="2">  1       -2 0.21313755E-03 0.56654021E+02</pdfrwt>
<totfact> 0.76846959E+05</totfact>
</mgrwt>
</event>
<event>
 4    1  0.4604841E-002  0.1588923E+03  0.7818608E-02  0.1189953E+00
          2   -1    0    0    0  501  0.00000000000E+00  0.00000000000E+00  0.17285873479E+02  0.17285873667E+02  0.25500000000E-02 0.  1.
         -2   -1    0    0  501    0 -0.00000000000E+00 -0.00000000000E+00 -0.36513588665E+03  0.36513588666E+03  0.25500000000E-02 0.  1.
          2    1    1    2    0  502  0.63254131661E+02  0.13848028792E+02 -0.28471198697E+03  0.29198247996E+03  0.25500000000E-02 0.  1.
         -2    1    1    2  502    0 -0.63254131661E+02 -0.13848028792E+02 -0.63138026196E+02  0.90439280360E+02  0.25500000000E-02 0.  1.
<mgrwt>
<rscale>  0 0.15889233E+03</rscale>
<asrwt>0</asrwt>
<pdfrwt beam="1">  1        2 0.26593654E-02 0.15889233E+03</pdfrwt>
<pdfrwt beam="2">  1       -2 0.56174746E-01 0.15889233E+03</pdfrwt>
<totfact> 0.10644937E+04</totfact>
</mgrwt>
</event>
<event>
 4    1  0.4604841E-002  0.4515629E+02  0.7818608E-02  0.1473368E+00
         -2   -1    0    0  501    0 -0.00000000000E+00  0.00000000000E+00  0.91877428056E+00  0.91877781923E+00  0.25500000000E-02 0. -1.
          2   -1    0    0    0  501  0.00000000000E+00 -0.00000000000E+00 -0.55483892635E+03  0.55483892636E+03  0.25500000000E-02 0. -1.
          2    1    1    2    0  502  0.16499478453E+02 -0.12117804864E+02 -0.39417092275E+03  0.39470215395E+03  0.25500000000E-02 0. -1.
         -2    1    1    2  502    0 -0.16499478453E+02  0.12117804864E+02 -0.15974922932E+03  0.16105555022E+03  0.25500000000E-02 0. -1.
<mgrwt>
<rscale>  0 0.45156294E+02</rscale>
<asrwt>0</asrwt>
<pdfrwt beam="2">  1        2 0.85359567E-01 0.45156294E+02</pdfrwt>
<pdfrwt beam="1">  1       -2 0.14135061E-03 0.45156294E+02</pdfrwt>
<totfact> 0.13309102E+06</totfact>
</mgrwt>
</event>
<event>
 4    1  0.4604841E-002  0.1173417E+03  0.7818608E-02  0.1247548E+00
          2   -1    0    0    0  501  0.00000000000E+00  0.00000000000E+00  0.69158428936E+02  0.69158428983E+02  0.25500000000E-02 0. -1.
         -2   -1    0    0  501    0 -0.00000000000E+00 -0.00000000000E+00 -0.49773678006E+02  0.49773678071E+02  0.25500000000E-02 0. -1.
          2    1    1    2    0  502 -0.30015683562E+02 -0.27096731022E+02 -0.33393727660E+02  0.52443447115E+02  0.25500000000E-02 0. -1.
         -2    1    1    2  502    0  0.30015683562E+02  0.27096731022E+02  0.52778478590E+02  0.66488659940E+02  0.25500000000E-02 0. -1.
<mgrwt>
<rscale>  0 0.11734171E+03</rscale>
<asrwt>0</asrwt>
<pdfrwt beam="1">  1        2 0.10639758E-01 0.11734171E+03</pdfrwt>
<pdfrwt beam="2">  1       -2 0.76574889E-02 0.11734171E+03</pdfrwt>
<totfact> 0.53498477E+04</totfact>
</mgrwt>
</event>
<event>
 4    1  0.4604841E-002  0.8779920E+02  0.7818608E-02  0.1308270E+00
          2   -1    0    0    0  501  0.00000000000E+00  0.00000000000E+00  0.87572792613E+03  0.87572792614E+03  0.25500000000E-02 0.  1.
         -2   -1    0    0  501    0 -0.00000000000E+00 -0.00000000000E+00 -0.22006542308E+01  0.22006557082E+01  0.25500000000E-02 0.  1.
          2    1    1    2    0  502  0.95453060736E+01 -0.35413618405E+02  0.19554720470E+03  0.19895714741E+03  0.25500000000E-02 0. -1.
         -2    1    1    2  502    0 -0.95453060736E+01  0.35413618405E+02  0.67798006721E+03  0.67897143443E+03  0.25500000000E-02 0. -1.
<mgrwt>
<rscale>  0 0.87799203E+02</rscale>
<asrwt>0</asrwt>
<pdfrwt beam="1">  1        2 0.13472722E+00 0.87799203E+02</pdfrwt>
<pdfrwt beam="2">  1       -2 0.33856269E-03 0.87799203E+02</pdfrwt>
<totfact> 0.27290942E+05</totfact>
</mgrwt>
</event>
<event>
 4    1  0.4604841E-002  0.4868442E+02  0.7818608E-02  0.1452569E+00
          2   -1    0    0    0  501  0.00000000000E+00  0.00000000000E+00  0.56670764885E+02  0.56670764942E+02  0.25500000000E-02 0. -1.
         -2   -1    0    0  501    0 -0.00000000000E+00 -0.00000000000E+00 -0.10455888027E+02  0.10455888338E+02  0.25500000000E-02 0. -1.
          2    1    1    2    0  502 -0.21649868265E+02  0.61781378011E+01  0.10346388322E+02  0.24777690377E+02  0.25500000000E-02 0.  1.
         -2    1    1    2  502    0  0.21649868265E+02 -0.61781378011E+01  0.35868488536E+02  0.42348962903E+02  0.25500000000E-02 0.  1.
<mgrwt>
<rscale>  0 0.48684420E+02</rscale>
<asrwt>0</asrwt>
<pdfrwt beam="1">  1        2 0.87185792E-02 0.48684420E+02</pdfrwt>
<pdfrwt beam="2">  1       -2 0.16085982E-02 0.48684420E+02</pdfrwt>
<totfact> 0.56279029E+05</totfact>
</mgrwt>
</event>
<event>
 4    1  0.4604841E-002  0.1044423E+03  0.7818608E-02  0.1271222E+00
         -2   -1    0    0  501    0 -0.00000000000E+00  0.00000000000E+00  0.63843999549E+02  0.63843999600E+02  0.25500000000E-02 0. -1.
          2   -1    0    0    0  501  0.00000000000E+00 -0.00000000000E+00 -0.42714236817E+02  0.42714236894E+02  0.25500000000E-02 0. -1.
          2    1    1    2    0  502 -0.50915983210E+02  0.40470266071E+01  0.21658623793E+02  0.55478930791E+02  0.25500000000E-02 0. -1.
         -2    1    1    2  502    0  0.50915983210E+02 -0.40470266071E+01 -0.52886106087E+00  0.51079305703E+02  0.25500000000E-02 0. -1.
<mgrwt>
<rscale>  0 0.10444228E+03</rscale>
<asrwt>0</asrwt>
<pdfrwt beam="2">  1        2 0.65714211E-02 0.10444228E+03</pdfrwt>
<pdfrwt beam="1">  1       -2 0.98221538E-02 0.10444228E+03</pdfrwt>
<totfact> 0.65185665E+04</totfact>
</mgrwt>
</event>
<event>
 4    1  0.4604841E-002  0.5724605E+02  0.7818608E-02  0.1409766E+00
         -2   -1    0    0  501    0 -0.00000000000E+00  0.00000000000E+00  0.10921133978E+02  0.10921134276E+02  0.25500000000E-02 0. -1.
          2   -1    0    0    0  501  0.00000000000E+00 -0.00000000000E+00 -0.75017633255E+02  0.75017633299E+02  0.25500000000E-02 0. -1.
          2    1    1    2    0  502 -0.22207947055E+02 -0.11802711191E+02 -0.11531450498E+02  0.27667151298E+02  0.25500000000E-02 0. -1.
         -2    1    1    2  502    0  0.22207947055E+02  0.11802711191E+02 -0.52565048779E+02  0.58271616277E+02  0.25500000000E-02 0. -1.
<mgrwt>
<rscale>  0 0.57246053E+02</rscale>
<asrwt>0</asrwt>
<pdfrwt beam="2">  1        2 0.11541174E-01 0.57246053E+02</pdfrwt>
<pdfrwt beam="1">  1       -2 0.16801745E-02 0.57246053E+02</pdfrwt>
<totfact> 0.39408288E+05</totfact>
</mgrwt>
</event>
<event>
 4    1  0.4604841E-002  0.4685446E+02  0.7818608E-02  0.1463086E+00
          2   -1    0    0    0  501  0.00000000000E+00  0.00000000000E+00  0.18850677595E+04  0.18850677595E+04  0.25500000000E-02 0. -1.
         -2   -1    0    0  501    0 -0.00000000000E+00 -0.00000000000E+00 -0.29114320868E+00  0.29115437565E+00  0.25500000000E-02 0. -1.
          2    1    1    2    0  502 -0.21601057724E+02 -0.38547295707E+01  0.12726651715E+04  0.12728543135E+04  0.25500000000E-02 0. -1.
         -2    1    1    2  502    0  0.21601057724E+02  0.38547295707E+01  0.61211144476E+03  0.61250460035E+03  0.25500000000E-02 0. -1.
<mgrwt>
<rscale>  0 0.46854464E+02</rscale>
<asrwt>0</asrwt>
<pdfrwt beam="1">  1        2 0.29000601E+00 0.46854464E+02</pdfrwt>
<pdfrwt beam="2">  1       -2 0.44792804E-04 0.46854464E+02</pdfrwt>
<totfact> 0.11362305E+06</totfact>
</mgrwt>
</event>
<event>
 4    1  0.4604841E-002  0.5693405E+02  0.7818608E-02  0.1411168E+00
         -2   -1    0    0  501    0 -0.00000000000E+00  0.00000000000E+00  0.55908477313E+02  0.55908477371E+02  0.25500000000E-02 0. -1.
          2   -1    0    0    0  501  0.00000000000E+00 -0.00000000000E+00 -0.14494608818E+02  0.14494609042E+02  0.25500000000E-02 0. -1.
          2    1    1    2    0  502  0.24519737839E+02  0.18414811258E+01  0.38444873813E+02  0.45635697929E+02  0.25500000000E-02 0. -1.
         -2    1    1    2  502    0 -0.24519737839E+02 -0.18414811258E+01  0.29689946817E+01  0.24767388484E+02  0.25500000000E-02 0. -1.
<mgrwt>
<rscale>  0 0.56934050E+02</rscale>
<asrwt>0</asrwt>
<pdfrwt beam="2">  1        2 0.22299399E-02 0.56934050E+02</pdfrwt>
<pdfrwt beam="1">  1       -2 0.86013042E-02 0.56934050E+02</pdfrwt>
<totfact> 0.29205716E+05</totfact>
</mgrwt>
</event>
<event>
 4    1  0.4604841E-002  0.4789892E+02  0.7818608E-02  0.1457015E+00
         -2   -1    0    0  501    0 -0.00000000000E+00  0.00000000000E+00  0.48006813629E+02  0.48006813697E+02  0.25500000000E-02 0.  1.
          2   -1    0    0    0  501  0.00000000000E+00 -0.00000000000E+00 -0.11947817297E+02  0.11947817569E+02  0.25500000000E-02 0.  1.
          2    1    1    2    0  502  0.16148590228E+02  0.17270277248E+02  0.13257092171E+02  0.27107009092E+02  0.25500000000E-02 0. -1.
         -2    1    1    2  502    0 -0.16148590228E+02 -0.17270277248E+02  0.22801904161E+02  0.32847622173E+02  0.25500000000E-02 0. -1.
<mgrwt>
<rscale>  0 0.47898921E+02</rscale>
<asrwt>0</asrwt>
<pdfrwt beam="2">  1        2 0.18381258E-02 0.47898921E+02</pdfrwt>
<pdfrwt beam="1">  1       -2 0.73856637E-02 0.47898921E+02</pdfrwt>
<totfact> 0.45500929E+05</totfact>
</mgrwt>
</event>
<event>
 4    1  0.4604841E-002  0.8015103E+02  0.7818608E-02  0.1328623E+00
          2   -1    0    0    0  501  0.00000000000E+00  0.00000000000E+00  0.41478999028E+01  0.41479006866E+01  0.25500000000E-02 0.  1.
         -2   -1    0    0  501    0 -0.00000000000E+00 -0.00000000000E+00 -0.38719511245E+03  0.38719511246E+03  0.25500000000E-02 0.  1.
          2    1    1    2    0  502  0.28824301058E+02 -0.19949979802E+02 -0.28635170522E+03  0.28848941248E+03  0.25500000000E-02 0.  1.
         -2    1    1    2  502    0 -0.28824301058E+02  0.19949979802E+02 -0.96695507333E+02  0.10285360067E+03  0.25500000000E-02 0.  1.
<mgrwt>
<rscale>  0 0.80151026E+02</rscale>
<asrwt>0</asrwt>
<pdfrwt beam="1">  1        2 0.63813881E-03 0.80151026E+02</pdfrwt>
<pdfrwt beam="2">  1       -2 0.59568450E-01 0.80151026E+02</pdfrwt>
<totfact> 0.60792108E+04</totfact>
</mgrwt>
</event>
<event>
 4    1  0.4604841E-002  0.4326990E+02  0.7818608E-02  0.1485441E+00
          2   -1    0    0    0  501  0.00000000000E+00  0.00000000000E+00  0.20994804749E+03  0.20994804751E+03  0.25500000000E-02 0. -1.
         -2   -1    0    0  501    0 -0.00000000000E+00 -0.00000000000E+00 -0.22294610327E+01  0.22294624910E+01  0.25500000000E-02 0. -1.
          2    1    1    2    0  502 -0.21269608292E+02 -0.21693475909E+01  0.87619007567E+02  0.90189759947E+02  0.25500000000E-02 0. -1.
         -2    1    1    2  502    0  0.21269608292E+02  0.21693475909E+01  0.12009957889E+03  0.12198775005E+03  0.25500000000E-02 0. -1.
<mgrwt>
<rscale>  0 0.43269904E+02</rscale>
<asrwt>0</asrwt>
<pdfrwt beam="1">  1        2 0.32299706E-01 0.43269904E+02</pdfrwt>
<pdfrwt beam="2">  1       -2 0.34299405E-03 0.43269904E+02</pdfrwt>
<totfact> 0.10707583E+06</totfact>
</mgrwt>
</event>
<event>
 4    1  0.4604841E-002  0.8559571E+02  0.7818608E-02  0.1313882E+00
          2   -1    0    0    0  501  0.00000000000E+00  0.00000000000E+00  0.99526109501E+03  0.99526109502E+03  0.25500000000E-02 0.  1.
         -2   -1    0    0  501    0 -0.00000000000E+00 -0.00000000000E+00 -0.18403769959E+01  0.18403787625E+01  0.25500000000E-02 0.  1.
          2    1    1    2    0  502  0.39898156895E+02  0.39485766939E+00  0.67703907259E+03  0.67821377504E+03  0.25500000000E-02 0.  1.
         -2    1    1    2  502    0 -0.39898156895E+02 -0.39485766939E+00  0.31638164543E+03  0.31888769874E+03  0.25500000000E-02 0.  1.
<mgrwt>
<rscale>  0 0.85595713E+02</rscale>
<asrwt>0</asrwt>
<pdfrwt beam="1">  1        2 0.15311673E+00 0.85595713E+02</pdfrwt>
<pdfrwt beam="2">  1       -2 0.28313572E-03 0.85595713E+02</pdfrwt>
<totfact> 0.29503430E+05</totfact>
</mgrwt>
</event>
<event>
 4    1  0.4604841E-002  0.5333902E+02  0.7818608E-02  0.1428121E+00
         -2   -1    0    0  501    0 -0.00000000000E+00  0.00000000000E+00  0.45983028008E+02  0.45983028078E+02  0.25500000000E-02 0.  1.
          2   -1    0    0    0  501  0.00000000000E+00 -0.00000000000E+00 -0.15467942586E+02  0.15467942796E+02  0.25500000000E-02 0.  1.
          2    1    1    2    0  502 -0.38025849977E+01  0.24336224142E+02  0.34774535202E+01  0.24875774313E+02  0.25500000000E-02 0. -1.
         -2    1    1    2  502    0  0.38025849977E+01 -0.24336224142E+02  0.27037631902E+02  0.36575196562E+02  0.25500000000E-02 0. -1.
<mgrwt>
<rscale>  0 0.53339023E+02</rscale>
<asrwt>0</asrwt>
<pdfrwt beam="2">  1        2 0.23796835E-02 0.53339023E+02</pdfrwt>
<pdfrwt beam="1">  1       -2 0.70743120E-02 0.53339023E+02</pdfrwt>
<totfact> 0.35429102E+05</totfact>
</mgrwt>
</event>
<event>
 4    1  0.4604841E-002  0.4360816E+02  0.7818608E-02  0.1483222E+00
          2   -1    0    0    0  501  0.00000000000E+00  0.00000000000E+00  0.11438620344E+04  0.11438620344E+04  0.25500000000E-02 0.  1.
         -2   -1    0    0  501    0 -0.00000000000E+00 -0.00000000000E+00 -0.41562139625E+00  0.41562921880E+00  0.25500000000E-02 0.  1.
          2    1    1    2    0  502 -0.14149093262E+02  0.14225489029E+02  0.34774892967E+03  0.34832725916E+03  0.25500000000E-02 0. -1.
         -2    1    1    2  502    0  0.14149093262E+02 -0.14225489029E+02  0.79569748334E+03  0.79595040447E+03  0.25500000000E-02 0. -1.
<mgrwt>
<rscale>  0 0.43608165E+02</rscale>
<asrwt>0</asrwt>
<pdfrwt beam="1">  1        2 0.17597768E+00 0.43608165E+02</pdfrwt>
<pdfrwt beam="2">  1       -2 0.63942752E-04 0.43608165E+02</pdfrwt>
<totfact> 0.16172608E+06</totfact>
</mgrwt>
</event>
<event>
 4    1  0.4604841E-002  0.5378114E+02  0.7818608E-02  0.1425952E+00
          2   -1    0    0    0  501  0.00000000000E+00  0.00000000000E+00  0.15068811320E+04  0.15068811320E+04  0.25500000000E-02 0. -1.
         -2   -1    0    0  501    0 -0.00000000000E+00 -0.00000000000E+00 -0.47986382706E+00  0.47987060237E+00  0.25500000000E-02 0. -1.
          2    1    1    2    0  502 -0.23091521140E+02  0.98167038182E+01  0.48216142531E+03  0.48281386277E+03  0.25500000000E-02 0.  1.
         -2    1    1    2  502    0  0.23091521140E+02 -0.98167038182E+01  0.10242398429E+04  0.10245471399E+04  0.25500000000E-02 0.  1.
<mgrwt>
<rscale>  0 0.53781144E+02</rscale>
<asrwt>0</asrwt>
<pdfrwt beam="1">  1        2 0.23183252E+00 0.53781144E+02</pdfrwt>
<pdfrwt beam="2">  1       -2 0.73824243E-04 0.53781144E+02</pdfrwt>
<totfact> 0.91271635E+05</totfact>
</mgrwt>
</event>
<event>
 4    1  0.4604841E-002  0.5961114E+02  0.7818608E-02  0.1399471E+00
         -2   -1    0    0  501    0 -0.00000000000E+00  0.00000000000E+00  0.79503357738E+00  0.79503766682E+00  0.25500000000E-02 0.  1.
          2   -1    0    0    0  501  0.00000000000E+00 -0.00000000000E+00 -0.11173989545E+04  0.11173989545E+04  0.25500000000E-02 0.  1.
          2    1    1    2    0  502 -0.29324519553E+02  0.47026589094E+01 -0.60549469961E+03  0.60622262718E+03  0.25500000000E-02 0. -1.
         -2    1    1    2  502    0  0.29324519553E+02 -0.47026589094E+01 -0.51110922130E+03  0.51197136498E+03  0.25500000000E-02 0. -1.
<mgrwt>
<rscale>  0 0.59611139E+02</rscale>
<asrwt>0</asrwt>
<pdfrwt beam="2">  1        2 0.17190628E+00 0.59611139E+02</pdfrwt>
<pdfrwt beam="1">  1       -2 0.12231407E-03 0.59611139E+02</pdfrwt>
<totfact> 0.74711198E+05</totfact>
</mgrwt>
</event>
<event>
 4    1  0.4604841E-002  0.4935050E+02  0.7818608E-02  0.1448877E+00
         -2   -1    0    0  501    0 -0.00000000000E+00  0.00000000000E+00  0.15108987451E+03  0.15108987454E+03  0.25500000000E-02 0. -1.
          2   -1    0    0    0  501  0.00000000000E+00 -0.00000000000E+00 -0.40298393375E+01  0.40298401443E+01  0.25500000000E-02 0. -1.
          2    1    1    2    0  502 -0.20924515354E+02  0.88648566863E+01  0.43308120122E+02  0.48908223254E+02  0.25500000000E-02 0.  1.
         -2    1    1    2  502    0  0.20924515354E+02 -0.88648566863E+01  0.10375191506E+03  0.10621149143E+03  0.25500000000E-02 0.  1.
<mgrwt>
<rscale>  0 0.49350501E+02</rscale>
<asrwt>0</asrwt>
<pdfrwt beam="2">  1        2 0.61997543E-03 0.49350501E+02</pdfrwt>
<pdfrwt beam="1">  1       -2 0.23244593E-01 0.49350501E+02</pdfrwt>
<totfact> 0.32315435E+05</totfact>
</mgrwt>
</event>
<event>
 4    1  0.4604841E-002  0.4368952E+02  0.7818608E-02  0.1482692E+00
         -2   -1    0    0  501    0 -0.00000000000E+00  0.00000000000E+00  0.32543835513E+02  0.32543835613E+02  0.25500000000E-02 0.  1.
          2   -1    0    0    0  501  0.00000000000E+00 -0.00000000000E+00 -0.14663101619E+02  0.14663101841E+02  0.25500000000E-02 0.  1.
          2    1    1    2    0  502 -0.20284094012E+02  0.81030807863E+01  0.92630399990E+01  0.23725688707E+02  0.25500000000E-02 0.  1.
         -2    1    1    2  502    0  0.20284094012E+02 -0.81030807863E+01  0.86176938952E+01  0.23481248746E+02  0.25500000000E-02 0.  1.
<mgrwt>
<rscale>  0 0.43689522E+02</rscale>
<asrwt>0</asrwt>
<pdfrwt beam="2">  1        2 0.22558618E-02 0.43689522E+02</pdfrwt>
<pdfrwt beam="1">  1       -2 0.50067440E-02 0.43689522E+02</pdfrwt>
<totfact> 0.60119934E+05</totfact>
</mgrwt>
</event>
<event>
 4    1  0.4604841E-002  0.5878515E+02  0.7818608E-02  0.1403002E+00
         -2   -1    0    0  501    0 -0.00000000000E+00  0.00000000000E+00  0.52642044309E+03  0.52642044309E+03  0.25500000000E-02 0.  1.
          2   -1    0    0    0  501  0.00000000000E+00 -0.00000000000E+00 -0.16411270648E+01  0.16411290459E+01  0.25500000000E-02 0.  1.
          2    1    1    2    0  502 -0.21135429867E+02  0.18013116452E+02  0.17588066357E+03  0.17805950293E+03  0.25500000000E-02 0.  1.
         -2    1    1    2  502    0  0.21135429867E+02 -0.18013116452E+02  0.34889865245E+03  0.35000206921E+03  0.25500000000E-02 0.  1.
<mgrwt>
<rscale>  0 0.58785146E+02</rscale>
<asrwt>0</asrwt>
<pdfrwt beam="2">  1        2 0.25248120E-03 0.58785146E+02</pdfrwt>
<pdfrwt beam="1">  1       -2 0.80987772E-01 0.58785146E+02</pdfrwt>
<totfact> 0.10661120E+05</totfact>
</mgrwt>
</event>
<event>
 4    1  0.4604841E-002  0.4636463E+02  0.7818608E-02  0.1465998E+00
          2   -1    0    0    0  501  0.00000000000E+00  0.00000000000E+00  0.23924997072E+03  0.23924997073E+03  0.25500000000E-02 0. -1.
         -2   -1    0    0  501    0 -0.00000000000E+00 -0.00000000000E+00 -0.22462680134E+01  0.22462694608E+01  0.25500000000E-02 0. -1.
          2    1    1    2    0  502 -0.11827149473E+01 -0.21910078772E+02  0.79534692337E+02  0.82505864386E+02  0.25500000000E-02 0.  1.
         -2    1    1    2  502    0  0.11827149473E+01  0.21910078772E+02  0.15746901037E+03  0.15899037581E+03  0.25500000000E-02 0.  1.
<mgrwt>
<rscale>  0 0.46364630E+02</rscale>
<asrwt>0</asrwt>
<pdfrwt beam="1">  1        2 0.36807687E-01 0.46364630E+02</pdfrwt>
<pdfrwt beam="2">  1       -2 0.34557981E-03 0.46364630E+02</pdfrwt>
<totfact> 0.94346069E+05</totfact>
</mgrwt>
</event>
<event>
 4    1  0.4604841E-002  0.4397806E+02  0.7818608E-02  0.1480824E+00
          2   -1    0    0    0  501  0.00000000000E+00  0.00000000000E+00  0.86752059533E+03  0.86752059533E+03  0.25500000000E-02 0.  1.
         -2   -1    0    0  501    0 -0.00000000000E+00 -0.00000000000E+00 -0.55735261652E+00  0.55735844987E+00  0.25500000000E-02 0.  1.
          2    1    1    2    0  502  0.19501050400E+02  0.99105794917E+01  0.47764933157E+03  0.47814997073E+03  0.25500000000E-02 0. -1.
         -2    1    1    2  502    0 -0.19501050400E+02 -0.99105794917E+01  0.38931391115E+03  0.38992798306E+03  0.25500000000E-02 0. -1.
<mgrwt>
<rscale>  0 0.43978058E+02</rscale>
<asrwt>0</asrwt>
<pdfrwt beam="1">  1        2 0.13346498E+00 0.43978058E+02</pdfrwt>
<pdfrwt beam="2">  1       -2 0.85746833E-04 0.43978058E+02</pdfrwt>
<totfact> 0.15655307E+06</totfact>
</mgrwt>
</event>
<event>
 4    1  0.4604841E-002  0.4095256E+02  0.7818608E-02  0.1501316E+00
          2   -1    0    0    0  501  0.00000000000E+00  0.00000000000E+00  0.62210055379E+03  0.62210055380E+03  0.25500000000E-02 0.  1.
         -2   -1    0    0  501    0 -0.00000000000E+00 -0.00000000000E+00 -0.67396895723E+00  0.67397378125E+00  0.25500000000E-02 0.  1.
          2    1    1    2    0  502  0.20131046722E+02 -0.11111379385E+01  0.36508689617E+03  0.36564318048E+03  0.25500000000E-02 0. -1.
         -2    1    1    2  502    0 -0.20131046722E+02  0.11111379385E+01  0.25633968866E+03  0.25713134710E+03  0.25500000000E-02 0. -1.
<mgrwt>
<rscale>  0 0.40952556E+02</rscale>
<asrwt>0</asrwt>
<pdfrwt beam="1">  1        2 0.95707494E-01 0.40952556E+02</pdfrwt>
<pdfrwt beam="2">  1       -2 0.10368821E-03 0.40952556E+02</pdfrwt>
<totfact> 0.17403680E+06</totfact>
</mgrwt>
</event>
<event>
 4    1  0.4604841E-002  0.5927212E+02  0.7818608E-02  0.1400912E+00
          2   -1    0    0    0  501  0.00000000000E+00  0.00000000000E+00  0.26783647561E+01  0.26783659700E+01  0.25500000000E-02 0. -1.
         -2   -1    0    0  501    0 -0.00000000000E+00 -0.00000000000E+00 -0.32792245422E+03  0.32792245423E+03  0.25500000000E-02 0. -1.
          2    1    1    2    0  502  0.91361984402E+01 -0.28167571553E+02 -0.16925439585E+03  0.17182529712E+03  0.25500000000E-02 0.  1.
         -2    1    1    2  502    0 -0.91361984402E+01  0.28167571553E+02 -0.15598969361E+03  0.15877552308E+03  0.25500000000E-02 0.  1.
<mgrwt>
<rscale>  0 0.59272123E+02</rscale>
<asrwt>0</asrwt>
<pdfrwt beam="1">  1        2 0.41205647E-03 0.59272123E+02</pdfrwt>
<pdfrwt beam="2">  1       -2 0.50449577E-01 0.59272123E+02</pdfrwt>
<totfact> 0.14477489E+05</totfact>
</mgrwt>
</event>
<event>
 4    1  0.4604841E-002  0.6599778E+02  0.7818608E-02  0.1374257E+00
         -2   -1    0    0  501    0 -0.00000000000E+00  0.00000000000E+00  0.47077278867E+01  0.47077285773E+01  0.25500000000E-02 0.  1.
          2   -1    0    0    0  501  0.00000000000E+00 -0.00000000000E+00 -0.23130618099E+03  0.23130618101E+03  0.25500000000E-02 0.  1.
          2    1    1    2    0  502 -0.16062228463E+02 -0.28381147776E+02 -0.95261446470E+02  0.10068876761E+03  0.25500000000E-02 0.  1.
         -2    1    1    2  502    0  0.16062228463E+02  0.28381147776E+02 -0.13133700664E+03  0.13532514198E+03  0.25500000000E-02 0.  1.
<mgrwt>
<rscale>  0 0.65997777E+02</rscale>
<asrwt>0</asrwt>
<pdfrwt beam="2">  1        2 0.35585557E-01 0.65997777E+02</pdfrwt>
<pdfrwt beam="1">  1       -2 0.72426607E-03 0.65997777E+02</pdfrwt>
<totfact> 0.38187585E+05</totfact>
</mgrwt>
</event>
<event>
 4    1  0.4604841E-002  0.4482985E+02  0.7818608E-02  0.1475407E+00
         -2   -1    0    0  501    0 -0.00000000000E+00  0.00000000000E+00  0.53862836162E+01  0.53862842198E+01  0.25500000000E-02 0.  1.
          2   -1    0    0    0  501  0.00000000000E+00 -0.00000000000E+00 -0.93279332798E+02  0.93279332833E+02  0.25500000000E-02 0.  1.
          2    1    1    2    0  502 -0.15987355977E+02 -0.12334309670E+02 -0.65364056000E+02  0.68411918329E+02  0.25500000000E-02 0.  1.
         -2    1    1    2  502    0  0.15987355977E+02  0.12334309670E+02 -0.22528993182E+02  0.30253698724E+02  0.25500000000E-02 0.  1.
<mgrwt>
<rscale>  0 0.44829855E+02</rscale>
<asrwt>0</asrwt>
<pdfrwt beam="2">  1        2 0.14350665E-01 0.44829855E+02</pdfrwt>
<pdfrwt beam="1">  1       -2 0.82865913E-03 0.44829855E+02</pdfrwt>
<totfact> 0.77416714E+05</totfact>
</mgrwt>
</event>
<event>
 4    1  0.4604841E-002  0.1517430E+03  0.7818608E-02  0.1198347E+00
          2   -1    0    0    0  501  0.00000000000E+00  0.00000000000E+00  0.87691724929E+03  0.87691724930E+03  0.25500000000E-02 0. -1.
         -2   -1    0    0  501    0 -0.00000000000E+00 -0.00000000000E+00 -0.65644556051E+01  0.65644561004E+01  0.25500000000E-02 0. -1.
          2    1    1    2    0  502 -0.16083116828E+02 -0.51726941098E+02  0.12587756201E+03  0.13703832934E+03  0.25500000000E-02 0.  1.
         -2    1    1    2  502    0  0.16083116828E+02  0.51726941098E+02  0.74447523167E+03  0.74644337606E+03  0.25500000000E-02 0.  1.
<mgrwt>
<rscale>  0 0.15174300E+03</rscale>
<asrwt>0</asrwt>
<pdfrwt beam="1">  1        2 0.13491035E+00 0.15174300E+03</pdfrwt>
<pdfrwt beam="2">  1       -2 0.10099163E-02 0.15174300E+03</pdfrwt>
<totfact> 0.62444445E+04</totfact>
</mgrwt>
</event>
<event>
 4    1  0.4604841E-002  0.5268276E+02  0.7818608E-02  0.1431386E+00
          2   -1    0    0    0  501  0.00000000000E+00  0.00000000000E+00  0.24671393969E+03  0.24671393971E+03  0.25500000000E-02 0. -1.
         -2   -1    0    0  501    0 -0.00000000000E+00 -0.00000000000E+00 -0.28124399845E+01  0.28124411405E+01  0.25500000000E-02 0. -1.
          2    1    1    2    0  502 -0.20015788707E+02 -0.16250409146E+02  0.96373910757E+02  0.99762910323E+02  0.25500000000E-02 0.  1.
         -2    1    1    2  502    0  0.20015788707E+02  0.16250409146E+02  0.14752758895E+03  0.14976347052E+03  0.25500000000E-02 0.  1.
<mgrwt>
<rscale>  0 0.52682760E+02</rscale>
<asrwt>0</asrwt>
<pdfrwt beam="1">  1        2 0.37956002E-01 0.52682760E+02</pdfrwt>
<pdfrwt beam="2">  1       -2 0.43268303E-03 0.52682760E+02</pdfrwt>
<totfact> 0.69341325E+05</totfact>
</mgrwt>
</event>
<event>
 4    1  0.4604841E-002  0.6151355E+02  0.7818608E-02  0.1391588E+00
          2   -1    0    0    0  501  0.00000000000E+00  0.00000000000E+00  0.13977096324E+04  0.13977096324E+04  0.25500000000E-02 0.  1.
         -2   -1    0    0  501    0 -0.00000000000E+00 -0.00000000000E+00 -0.67680435449E+00  0.67680915830E+00  0.25500000000E-02 0.  1.
          2    1    1    2    0  502  0.67825930029E+01  0.29053238670E+02  0.86845981407E+03  0.86897211860E+03  0.25500000000E-02 0.  1.
         -2    1    1    2  502    0 -0.67825930029E+01 -0.29053238670E+02  0.52857301400E+03  0.52941432298E+03  0.25500000000E-02 0.  1.
<mgrwt>
<rscale>  0 0.61513554E+02</rscale>
<asrwt>0</asrwt>
<pdfrwt beam="1">  1        2 0.21503159E+00 0.61513554E+02</pdfrwt>
<pdfrwt beam="2">  1       -2 0.10412444E-03 0.61513554E+02</pdfrwt>
<totfact> 0.66719637E+05</totfact>
</mgrwt>
</event>
<event>
 4    1  0.4604841E-002  0.5058887E+02  0.7818608E-02  0.1442191E+00
          2   -1    0    0    0  501  0.00000000000E+00  0.00000000000E+00  0.25896882339E+03  0.25896882340E+03  0.25500000000E-02 0.  1.
         -2   -1    0    0  501    0 -0.00000000000E+00 -0.00000000000E+00 -0.24705998875E+01  0.24706012035E+01  0.25500000000E-02 0.  1.
          2    1    1    2    0  502 -0.19594788203E+02  0.10750733481E+02  0.67041495436E+02  0.70668918995E+02  0.25500000000E-02 0.  1.
         -2    1    1    2  502    0  0.19594788203E+02 -0.10750733481E+02  0.18945672806E+03  0.19077050561E+03  0.25500000000E-02 0.  1.
<mgrwt>
<rscale>  0 0.50588873E+02</rscale>
<asrwt>0</asrwt>
<pdfrwt beam="1">  1        2 0.39841340E-01 0.50588873E+02</pdfrwt>
<pdfrwt beam="2">  1       -2 0.38009256E-03 0.50588873E+02</pdfrwt>
<totfact> 0.78053755E+05</totfact>
</mgrwt>
</event>
<event>
 4    1  0.4604841E-002  0.1020401E+03  0.7818608E-02  0.1276063E+00
         -2   -1    0    0  501    0 -0.00000000000E+00  0.00000000000E+00  0.22835937026E+01  0.22835951263E+01  0.25500000000E-02 0. -1.
          2   -1    0    0    0  501  0.00000000000E+00 -0.00000000000E+00 -0.11398901240E+04  0.11398901240E+04  0.25500000000E-02 0. -1.
          2    1    1    2    0  502  0.49420226038E+02 -0.61939962183E+01 -0.44500511427E+03  0.44778373806E+03  0.25500000000E-02 0. -1.
         -2    1    1    2  502    0 -0.49420226038E+02  0.61939962183E+01 -0.69260141600E+03  0.69438998105E+03  0.25500000000E-02 0. -1.
<mgrwt>
<rscale>  0 0.10204012E+03</rscale>
<asrwt>0</asrwt>
<pdfrwt beam="2">  1        2 0.17536726E+00 0.10204012E+03</pdfrwt>
<pdfrwt beam="1">  1       -2 0.35132313E-03 0.10204012E+03</pdfrwt>
<totfact> 0.18541501E+05</totfact>
</mgrwt>
</event>
<event>
 4    1  0.4604841E-002  0.1217472E+03  0.7818608E-02  0.1240242E+00
         -2   -1    0    0  501    0 -0.00000000000E+00  0.00000000000E+00  0.14639792197E+02  0.14639792420E+02  0.25500000000E-02 0. -1.
          2   -1    0    0    0  501  0.00000000000E+00 -0.00000000000E+00 -0.25311819375E+03  0.25311819376E+03  0.25500000000E-02 0. -1.
          2    1    1    2    0  502 -0.41717195678E+02  0.32942196681E+02 -0.18448395790E+03  0.19198917539E+03  0.25500000000E-02 0.  1.
         -2    1    1    2  502    0  0.41717195678E+02 -0.32942196681E+02 -0.53994443655E+02  0.75768810796E+02  0.25500000000E-02 0.  1.
<mgrwt>
<rscale>  0 0.12174724E+03</rscale>
<asrwt>0</asrwt>
<pdfrwt beam="2">  1        2 0.38941257E-01 0.12174724E+03</pdfrwt>
<pdfrwt beam="1">  1       -2 0.22522759E-02 0.12174724E+03</pdfrwt>
<totfact> 0.76699802E+04</totfact>
</mgrwt>
</event>
<event>
 4    1  0.4604841E-002  0.4275111E+02  0.7818608E-02  0.1488890E+00
         -2   -1    0    0  501    0 -0.00000000000E+00  0.00000000000E+00  0.34640700551E+01  0.34640709936E+01  0.25500000000E-02 0.  1.
          2   -1    0    0    0  501  0.00000000000E+00 -0.00000000000E+00 -0.13190100641E+03  0.13190100644E+03  0.25500000000E-02 0.  1.
          2    1    1    2    0  502  0.84009218846E+01  0.19510377779E+02 -0.56669486327E+02  0.60519922478E+02  0.25500000000E-02 0. -1.
         -2    1    1    2  502    0 -0.84009218846E+01 -0.19510377779E+02 -0.71767450030E+02  0.74845154953E+02  0.25500000000E-02 0. -1.
<mgrwt>
<rscale>  0 0.42751112E+02</rscale>
<asrwt>0</asrwt>
<pdfrwt beam="2">  1        2 0.20292459E-01 0.42751112E+02</pdfrwt>
<pdfrwt beam="1">  1       -2 0.53293403E-03 0.42751112E+02</pdfrwt>
<totfact> 0.95530874E+05</totfact>
</mgrwt>
</event>
<event>
 4    1  0.4604841E-002  0.5958140E+02  0.7818608E-02  0.1399597E+00
          2   -1    0    0    0  501  0.00000000000E+00  0.00000000000E+00  0.11327052377E+03  0.11327052380E+03  0.25500000000E-02 0.  1.
         -2   -1    0    0  501    0 -0.00000000000E+00 -0.00000000000E+00 -0.78350993889E+01  0.78350998039E+01  0.25500000000E-02 0.  1.
          2    1    1    2    0  502 -0.13203742219E+02 -0.15610396967E+02  0.86770271031E+01  0.22210675540E+02  0.25500000000E-02 0.  1.
         -2    1    1    2  502    0  0.13203742219E+02  0.15610396967E+02  0.96758397278E+02  0.98894948063E+02  0.25500000000E-02 0.  1.
<mgrwt>
<rscale>  0 0.59581401E+02</rscale>
<asrwt>0</asrwt>
<pdfrwt beam="1">  1        2 0.17426234E-01 0.59581401E+02</pdfrwt>
<pdfrwt beam="2">  1       -2 0.12054000E-02 0.59581401E+02</pdfrwt>
<totfact> 0.39542812E+05</totfact>
</mgrwt>
</event>
<event>
 4    1  0.4604841E-002  0.4348134E+02  0.7818608E-02  0.1484051E+00
         -2   -1    0    0  501    0 -0.00000000000E+00  0.00000000000E+00  0.42955554390E+02  0.42955554466E+02  0.25500000000E-02 0.  1.
          2   -1    0    0    0  501  0.00000000000E+00 -0.00000000000E+00 -0.11003391538E+02  0.11003391833E+02  0.25500000000E-02 0.  1.
          2    1    1    2    0  502 -0.21671514629E+02  0.63609174214E+00  0.17976168970E+02  0.28163838807E+02  0.25500000000E-02 0.  1.
         -2    1    1    2  502    0  0.21671514629E+02 -0.63609174214E+00  0.13975993883E+02  0.25795107492E+02  0.25500000000E-02 0.  1.
<mgrwt>
<rscale>  0 0.43481343E+02</rscale>
<asrwt>0</asrwt>
<pdfrwt beam="2">  1        2 0.16928295E-02 0.43481343E+02</pdfrwt>
<pdfrwt beam="1">  1       -2 0.66085469E-02 0.43481343E+02</pdfrwt>
<totfact> 0.58344893E+05</totfact>
</mgrwt>
</event>
<event>
 4    1  0.4604841E-002  0.8393493E+02  0.7818608E-02  0.1318242E+00
         -2   -1    0    0  501    0 -0.00000000000E+00  0.00000000000E+00  0.10304608166E+02  0.10304608481E+02  0.25500000000E-02 0. -1.
          2   -1    0    0    0  501  0.00000000000E+00 -0.00000000000E+00 -0.17092043957E+03  0.17092043959E+03  0.25500000000E-02 0. -1.
          2    1    1    2    0  502  0.25095176240E+02 -0.20996575936E+02 -0.13704965429E+03  0.14090149687E+03  0.25500000000E-02 0.  1.
         -2    1    1    2  502    0 -0.25095176240E+02  0.20996575936E+02 -0.23566177118E+02  0.40323551208E+02  0.25500000000E-02 0.  1.
<mgrwt>
<rscale>  0 0.83934932E+02</rscale>
<asrwt>0</asrwt>
<pdfrwt beam="2">  1        2 0.26295450E-01 0.83934932E+02</pdfrwt>
<pdfrwt beam="1">  1       -2 0.15853245E-02 0.83934932E+02</pdfrwt>
<totfact> 0.18269464E+05</totfact>
</mgrwt>
</event>
<event>
 4    1  0.4604841E-002  0.4243276E+02  0.7818608E-02  0.1491036E+00
         -2   -1    0    0  501    0 -0.00000000000E+00  0.00000000000E+00  0.23499114228E+01  0.23499128063E+01  0.25500000000E-02 0. -1.
          2   -1    0    0    0  501  0.00000000000E+00 -0.00000000000E+00 -0.19155383308E+03  0.19155383310E+03  0.25500000000E-02 0. -1.
          2    1    1    2    0  502 -0.10672107153E+02 -0.17650866384E+02 -0.11730716501E+03  0.11910675012E+03  0.25500000000E-02 0. -1.
         -2    1    1    2  502    0  0.10672107153E+02  0.17650866384E+02 -0.71896756649E+02  0.74796995784E+02  0.25500000000E-02 0. -1.
<mgrwt>
<rscale>  0 0.42432755E+02</rscale>
<asrwt>0</asrwt>
<pdfrwt beam="2">  1        2 0.29469808E-01 0.42432755E+02</pdfrwt>
<pdfrwt beam="1">  1       -2 0.36152509E-03 0.42432755E+02</pdfrwt>
<totfact> 0.10902185E+06</totfact>
</mgrwt>
</event>
<event>
 4    1  0.4604841E-002  0.5187356E+02  0.7818608E-02  0.1435490E+00
          2   -1    0    0    0  501  0.00000000000E+00  0.00000000000E+00  0.68325313231E+03  0.68325313231E+03  0.25500000000E-02 0. -1.
         -2   -1    0    0  501    0 -0.00000000000E+00 -0.00000000000E+00 -0.98457729713E+00  0.98458059930E+00  0.25500000000E-02 0. -1.
          2    1    1    2    0  502 -0.94914074873E+01 -0.23601159218E+02  0.27437539259E+03  0.27555209598E+03  0.25500000000E-02 0.  1.
         -2    1    1    2  502    0  0.94914074873E+01  0.23601159218E+02  0.40789316242E+03  0.40868561693E+03  0.25500000000E-02 0.  1.
<mgrwt>
<rscale>  0 0.51873564E+02</rscale>
<asrwt>0</asrwt>
<pdfrwt beam="1">  1        2 0.10511608E+00 0.51873564E+02</pdfrwt>
<pdfrwt beam="2">  1       -2 0.15147337E-03 0.51873564E+02</pdfrwt>
<totfact> 0.99913613E+05</totfact>
</mgrwt>
</event>
<event>
 4    1  0.4604841E-002  0.5232651E+02  0.7818608E-02  0.1433182E+00
         -2   -1    0    0  501    0 -0.00000000000E+00  0.00000000000E+00  0.49821885121E+00  0.49822537691E+00  0.25500000000E-02 0.  1.
          2   -1    0    0    0  501  0.00000000000E+00 -0.00000000000E+00 -0.13739171013E+04  0.13739171013E+04  0.25500000000E-02 0.  1.
          2    1    1    2    0  502 -0.22094753675E+02 -0.12133177856E+02 -0.87080440873E+03  0.87116916291E+03  0.25500000000E-02 0. -1.
         -2    1    1    2  502    0  0.22094753675E+02  0.12133177856E+02 -0.50261447373E+03  0.50324616378E+03  0.25500000000E-02 0. -1.
<mgrwt>
<rscale>  0 0.52326509E+02</rscale>
<asrwt>0</asrwt>
<pdfrwt beam="2">  1        2 0.21136883E+00 0.52326509E+02</pdfrwt>
<pdfrwt beam="1">  1       -2 0.76650656E-04 0.52326509E+02</pdfrwt>
<totfact> 0.10054561E+06</totfact>
</mgrwt>
</event>
<event>
 4    1  0.4604841E-002  0.1089716E+03  0.7818608E-02  0.1262486E+00
          2   -1    0    0    0  501  0.00000000000E+00  0.00000000000E+00  0.91395203982E+03  0.91395203982E+03  0.25500000000E-02 0.  1.
         -2   -1    0    0  501    0 -0.00000000000E+00 -0.00000000000E+00 -0.32482050266E+01  0.32482060275E+01  0.25500000000E-02 0.  1.
          2    1    1    2    0  502 -0.23718016712E+02  0.10976617739E+02  0.52952058403E+02  0.59050410239E+02  0.25500000000E-02 0. -1.
         -2    1    1    2  502    0  0.23718016712E+02 -0.10976617739E+02  0.85775177639E+03  0.85814983561E+03  0.25500000000E-02 0. -1.
<mgrwt>
<rscale>  0 0.10897163E+03</rscale>
<asrwt>0</asrwt>
<pdfrwt beam="1">  1        2 0.14060801E+00 0.10897163E+03</pdfrwt>
<pdfrwt beam="2">  1       -2 0.49972392E-03 0.10897163E+03</pdfrwt>
<totfact> 0.15464745E+05</totfact>
</mgrwt>
</event>
<event>
 4    1  0.4604841E-002  0.5829611E+02  0.7818608E-02  0.1405125E+00
          2   -1    0    0    0  501  0.00000000000E+00  0.00000000000E+00  0.16560551884E+02  0.16560552080E+02  0.25500000000E-02 0.  1.
         -2   -1    0    0  501    0 -0.00000000000E+00 -0.00000000000E+00 -0.51303187239E+02  0.51303187302E+02  0.25500000000E-02 0.  1.
          2    1    1    2    0  502  0.24569884966E+02 -0.13821630902E+02 -0.25996220222E+02  0.38347362365E+02  0.25500000000E-02 0. -1.
         -2    1    1    2  502    0 -0.24569884966E+02  0.13821630902E+02 -0.87464151329E+01  0.29516377017E+02  0.25500000000E-02 0. -1.
<mgrwt>
<rscale>  0 0.58296110E+02</rscale>
<asrwt>0</asrwt>
<pdfrwt beam="1">  1        2 0.25477773E-02 0.58296110E+02</pdfrwt>
<pdfrwt beam="2">  1       -2 0.78927980E-02 0.58296110E+02</pdfrwt>
<totfact> 0.28042339E+05</totfact>
</mgrwt>
</event>
<event>
 4    1  0.4604841E-002  0.4791035E+02  0.7818608E-02  0.1456950E+00
          2   -1    0    0    0  501  0.00000000000E+00  0.00000000000E+00  0.51425939452E+03  0.51425939452E+03  0.25500000000E-02 0.  1.
         -2   -1    0    0  501    0 -0.00000000000E+00 -0.00000000000E+00 -0.11158760613E+01  0.11158789750E+01  0.25500000000E-02 0.  1.
          2    1    1    2    0  502  0.23144476397E+02  0.50345858160E+01  0.21803101678E+03  0.21931378919E+03  0.25500000000E-02 0. -1.
         -2    1    1    2  502    0 -0.23144476397E+02 -0.50345858160E+01  0.29511250168E+03  0.29606148431E+03  0.25500000000E-02 0. -1.
<mgrwt>
<rscale>  0 0.47910354E+02</rscale>
<asrwt>0</asrwt>
<pdfrwt beam="1">  1        2 0.79116732E-01 0.47910354E+02</pdfrwt>
<pdfrwt beam="2">  1       -2 0.17167368E-03 0.47910354E+02</pdfrwt>
<totfact> 0.11256209E+06</totfact>
</mgrwt>
</event>
<event>
 4    1  0.4604841E-002  0.5788828E+02  0.7818608E-02  0.1406914E+00
          2   -1    0    0    0  501  0.00000000000E+00  0.00000000000E+00  0.34404823266E+03  0.34404823266E+03  0.25500000000E-02 0.  1.
         -2   -1    0    0  501    0 -0.00000000000E+00 -0.00000000000E+00 -0.24350161645E+01  0.24350174997E+01  0.25500000000E-02 0.  1.
          2    1    1    2    0  502 -0.17819676887E+02 -0.21133823326E+02  0.11946341374E+03  0.12262009053E+03  0.25500000000E-02 0.  1.
         -2    1    1    2  502    0  0.17819676887E+02  0.21133823326E+02  0.22214980275E+03  0.22386315963E+03  0.25500000000E-02 0.  1.
<mgrwt>
<rscale>  0 0.57888280E+02</rscale>
<asrwt>0</asrwt>
<pdfrwt beam="1">  1        2 0.52930515E-01 0.57888280E+02</pdfrwt>
<pdfrwt beam="2">  1       -2 0.37461785E-03 0.57888280E+02</pdfrwt>
<totfact> 0.61445955E+05</totfact>
</mgrwt>
</event>
<event>
 4    1  0.4604841E-002  0.5869129E+02  0.7818608E-02  0.1403407E+00
         -2   -1    0    0  501    0 -0.00000000000E+00  0.00000000000E+00  0.14845371031E+02  0.14845371250E+02  0.25500000000E-02 0. -1.
          2   -1    0    0    0  501  0.00000000000E+00 -0.00000000000E+00 -0.58009118997E+02  0.58009119053E+02  0.25500000000E-02 0. -1.
          2    1    1    2    0  502  0.10500973840E+02 -0.17948810692E+02 -0.47284527609E+02  0.51655172196E+02  0.25500000000E-02 0.  1.
         -2    1    1    2  502    0 -0.10500973840E+02  0.17948810692E+02  0.41207796431E+01  0.21199318107E+02  0.25500000000E-02 0.  1.
<mgrwt>
<rscale>  0 0.58691291E+02</rscale>
<asrwt>0</asrwt>
<pdfrwt beam="2">  1        2 0.89244798E-02 0.58691291E+02</pdfrwt>
<pdfrwt beam="1">  1       -2 0.22839033E-02 0.58691291E+02</pdfrwt>
<totfact> 0.34848788E+05</totfact>
</mgrwt>
</event>
<event>
 4    1  0.4604841E-002  0.5293559E+02  0.7818608E-02  0.1430122E+00
          2   -1    0    0    0  501  0.00000000000E+00  0.00000000000E+00  0.13594859511E+04  0.13594859511E+04  0.25500000000E-02 0.  1.
         -2   -1    0    0  501    0 -0.00000000000E+00 -0.00000000000E+00 -0.51529762718E+00  0.51530393660E+00  0.25500000000E-02 0.  1.
          2    1    1    2    0  502  0.19903549400E+02 -0.10632641403E+02  0.10348663552E+04  0.10351123502E+04  0.25500000000E-02 0.  1.
         -2    1    1    2  502    0 -0.19903549400E+02  0.10632641403E+02  0.32410429829E+03  0.32488890489E+03  0.25500000000E-02 0.  1.
<mgrwt>
<rscale>  0 0.52935590E+02</rscale>
<asrwt>0</asrwt>
<pdfrwt beam="1">  1        2 0.20914878E+00 0.52935590E+02</pdfrwt>
<pdfrwt beam="2">  1       -2 0.79278144E-04 0.52935590E+02</pdfrwt>
<totfact> 0.97945971E+05</totfact>
</mgrwt>
</event>
<event>
 4    1  0.4604841E-002  0.8539138E+02  0.7818608E-02  0.1314412E+00
          2   -1    0    0    0  501  0.00000000000E+00  0.00000000000E+00  0.19842251331E+03  0.19842251332E+03  0.25500000000E-02 0.  1.
         -2   -1    0    0  501    0 -0.00000000000E+00 -0.00000000000E+00 -0.91870723010E+01  0.91870726549E+01  0.25500000000E-02 0.  1.
          2    1    1    2    0  502 -0.41781001018E+02 -0.35432763075E+01  0.11417625718E+03  0.12163233354E+03  0.25500000000E-02 0. -1.
         -2    1    1    2  502    0  0.41781001018E+02  0.35432763075E+01  0.75059183826E+02  0.85977252435E+02  0.25500000000E-02 0. -1.
<mgrwt>
<rscale>  0 0.85391382E+02</rscale>
<asrwt>0</asrwt>
<pdfrwt beam="1">  1        2 0.30526538E-01 0.85391382E+02</pdfrwt>
<pdfrwt beam="2">  1       -2 0.14133959E-02 0.85391382E+02</pdfrwt>
<totfact> 0.18387053E+05</totfact>
</mgrwt>
</event>
<event>
 4    1  0.4604841E-002  0.4374043E+02  0.7818608E-02  0.1482362E+00
          2   -1    0    0    0  501  0.00000000000E+00  0.00000000000E+00  0.39143345587E+03  0.39143345587E+03  0.25500000000E-02 0.  1.
         -2   -1    0    0  501    0 -0.00000000000E+00 -0.00000000000E+00 -0.12219339980E+01  0.12219366588E+01  0.25500000000E-02 0.  1.
          2    1    1    2    0  502 -0.21109444350E+02  0.47020737618E+01  0.22431633581E+03  0.22535646575E+03  0.25500000000E-02 0. -1.
         -2    1    1    2  502    0  0.21109444350E+02 -0.47020737618E+01  0.16589518606E+03  0.16729892678E+03  0.25500000000E-02 0. -1.
<mgrwt>
<rscale>  0 0.43740433E+02</rscale>
<asrwt>0</asrwt>
<pdfrwt beam="1">  1        2 0.60220609E-01 0.43740433E+02</pdfrwt>
<pdfrwt beam="2">  1       -2 0.18798981E-03 0.43740433E+02</pdfrwt>
<totfact> 0.12887238E+06</totfact>
</mgrwt>
</event>
<event>
 4    1  0.4604841E-002  0.5255282E+02  0.7818608E-02  0.1432039E+00
         -2   -1    0    0  501    0 -0.00000000000E+00  0.00000000000E+00  0.70019235564E+02  0.70019235610E+02  0.25500000000E-02 0.  1.
          2   -1    0    0    0  501  0.00000000000E+00 -0.00000000000E+00 -0.98608586874E+01  0.98608590171E+01  0.25500000000E-02 0.  1.
          2    1    1    2    0  502 -0.24004424582E+02  0.19753836074E+01  0.46045318896E+02  0.51964275600E+02  0.25500000000E-02 0.  1.
         -2    1    1    2  502    0  0.24004424582E+02 -0.19753836074E+01  0.14113057980E+02  0.27915819027E+02  0.25500000000E-02 0.  1.
<mgrwt>
<rscale>  0 0.52552823E+02</rscale>
<asrwt>0</asrwt>
<pdfrwt beam="2">  1        2 0.15170552E-02 0.52552823E+02</pdfrwt>
<pdfrwt beam="1">  1       -2 0.10772190E-01 0.52552823E+02</pdfrwt>
<totfact> 0.33914044E+05</totfact>
</mgrwt>
</event>
<event>
 4    1  0.4604841E-002  0.4132962E+02  0.7818608E-02  0.1498649E+00
         -2   -1    0    0  501    0 -0.00000000000E+00  0.00000000000E+00  0.31843399036E+00  0.31844420032E+00  0.25500000000E-02 0. -1.
          2   -1    0    0    0  501  0.00000000000E+00 -0.00000000000E+00 -0.13410239164E+04  0.13410239164E+04  0.25500000000E-02 0. -1.
          2    1    1    2    0  502 -0.70792354056E+01  0.19207703472E+02 -0.57865448799E+03  0.57901646602E+03  0.25500000000E-02 0. -1.
         -2    1    1    2  502    0  0.70792354056E+01 -0.19207703472E+02 -0.76205099443E+03  0.76232589459E+03  0.25500000000E-02 0. -1.
<mgrwt>
<rscale>  0 0.41329624E+02</rscale>
<asrwt>0</asrwt>
<pdfrwt beam="2">  1        2 0.20630685E+00 0.41329624E+02</pdfrwt>
<pdfrwt beam="1">  1       -2 0.48991704E-04 0.41329624E+02</pdfrwt>
<totfact> 0.18043234E+06</totfact>
</mgrwt>
</event>
<event>
 4    1  0.4604841E-002  0.9485052E+02  0.7818608E-02  0.1291513E+00
         -2   -1    0    0  501    0 -0.00000000000E+00  0.00000000000E+00  0.88220731322E+02  0.88220731359E+02  0.25500000000E-02 0. -1.
          2   -1    0    0    0  501  0.00000000000E+00 -0.00000000000E+00 -0.25494635109E+02  0.25494635236E+02  0.25500000000E-02 0. -1.
          2    1    1    2    0  502 -0.20211523643E+01 -0.34370200124E+02 -0.77391513990E+01  0.35288669348E+02  0.25500000000E-02 0. -1.
         -2    1    1    2  502    0  0.20211523643E+01  0.34370200124E+02  0.70465247613E+02  0.78426697247E+02  0.25500000000E-02 0. -1.
<mgrwt>
<rscale>  0 0.94850522E+02</rscale>
<asrwt>0</asrwt>
<pdfrwt beam="2">  1        2 0.39222517E-02 0.94850522E+02</pdfrwt>
<pdfrwt beam="1">  1       -2 0.13572420E-01 0.94850522E+02</pdfrwt>
<totfact> 0.75075469E+04</totfact>
</mgrwt>
</event>
<event>
 4    1  0.4604841E-002  0.7742079E+02  0.7818608E-02  0.1336534E+00
         -2   -1    0    0  501    0 -0.00000000000E+00  0.00000000000E+00  0.19872163649E+01  0.19872180010E+01  0.25500000000E-02 0. -1.
          2   -1    0    0    0  501  0.00000000000E+00 -0.00000000000E+00 -0.75406698293E+03  0.75406698294E+03  0.25500000000E-02 0. -1.
          2    1    1    2    0  502 -0.42409183374E+00 -0.27040311586E+02 -0.10556207112E+03  0.10897113917E+03  0.25500000000E-02 0. -1.
         -2    1    1    2  502    0  0.42409183374E+00  0.27040311586E+02 -0.64651769544E+03  0.64708306177E+03  0.25500000000E-02 0. -1.
<mgrwt>
<rscale>  0 0.77420795E+02</rscale>
<asrwt>0</asrwt>
<pdfrwt beam="2">  1        2 0.11601008E+00 0.77420795E+02</pdfrwt>
<pdfrwt beam="1">  1       -2 0.30572632E-03 0.77420795E+02</pdfrwt>
<totfact> 0.36961044E+05</totfact>
</mgrwt>
</event>
<event>
 4    1  0.4604841E-002  0.5167177E+02  0.7818608E-02  0.1436528E+00
         -2   -1    0    0  501    0 -0.00000000000E+00  0.00000000000E+00  0.10714470774E+01  0.10714501118E+01  0.25500000000E-02 0. -1.
          2   -1    0    0    0  501  0.00000000000E+00 -0.00000000000E+00 -0.62298181088E+03  0.62298181089E+03  0.25500000000E-02 0. -1.
          2    1    1    2    0  502  0.24417866365E+02  0.82974276804E+01 -0.32971765267E+03  0.33072467400E+03  0.25500000000E-02 0. -1.
         -2    1    1    2  502    0 -0.24417866365E+02 -0.82974276804E+01 -0.29219271113E+03  0.29332858700E+03  0.25500000000E-02 0. -1.
<mgrwt>
<rscale>  0 0.51671771E+02</rscale>
<asrwt>0</asrwt>
<pdfrwt beam="2">  1        2 0.95843067E-01 0.51671771E+02</pdfrwt>
<pdfrwt beam="1">  1       -2 0.16483874E-03 0.51671771E+02</pdfrwt>
<totfact> 0.98612275E+05</totfact>
</mgrwt>
</event>
<event>
 4    1  0.4604841E-002  0.5092117E+02  0.7818608E-02  0.1440435E+00
          2   -1    0    0    0  501  0.00000000000E+00  0.00000000000E+00  0.14519143114E+03  0.14519143117E+03  0.25500000000E-02 0. -1.
         -2   -1    0    0  501    0 -0.00000000000E+00 -0.00000000000E+00 -0.44647355966E+01  0.44647363248E+01  0.25500000000E-02 0. -1.
          2    1    1    2    0  502  0.89912912488E+01 -0.22653637020E+02  0.48724247679E+02  0.54480114784E+02  0.25500000000E-02 0. -1.
         -2    1    1    2  502    0 -0.89912912488E+01  0.22653637020E+02  0.92002447867E+02  0.95176052706E+02  0.25500000000E-02 0. -1.
<mgrwt>
<rscale>  0 0.50921171E+02</rscale>
<asrwt>0</asrwt>
<pdfrwt beam="1">  1        2 0.22337142E-01 0.50921171E+02</pdfrwt>
<pdfrwt beam="2">  1       -2 0.68688249E-03 0.50921171E+02</pdfrwt>
<totfact> 0.63509695E+05</totfact>
</mgrwt>
</event>
<event>
 4    1  0.4604841E-002  0.4993445E+02  0.7818608E-02  0.1445695E+00
          2   -1    0    0    0  501  0.00000000000E+00  0.00000000000E+00  0.22898773413E+04  0.22898773413E+04  0.25500000000E-02 0. -1.
         -2   -1    0    0  501    0 -0.00000000000E+00 -0.00000000000E+00 -0.27221919556E+00  0.27223113880E+00  0.25500000000E-02 0. -1.
          2    1    1    2    0  502 -0.17436144553E+02 -0.17085176634E+02  0.13850475854E+04  0.13852626957E+04  0.25500000000E-02 0. -1.
         -2    1    1    2  502    0  0.17436144553E+02  0.17085176634E+02  0.90455753668E+03  0.90488687667E+03  0.25500000000E-02 0. -1.
<mgrwt>
<rscale>  0 0.49934447E+02</rscale>
<asrwt>0</asrwt>
<pdfrwt beam="1">  1        2 0.35229919E+00 0.49934447E+02</pdfrwt>
<pdfrwt beam="2">  1       -2 0.41879563E-04 0.49934447E+02</pdfrwt>
<totfact> 0.79785795E+05</totfact>
</mgrwt>
</event>
<event>
 4    1  0.4604841E-002  0.1477373E+03  0.7818608E-02  0.1203281E+00
          2   -1    0    0    0  501  0.00000000000E+00  0.00000000000E+00  0.74705684066E+03  0.74705684066E+03  0.25500000000E-02 0.  1.
         -2   -1    0    0  501    0 -0.00000000000E+00 -0.00000000000E+00 -0.73040954066E+01  0.73040958517E+01  0.25500000000E-02 0.  1.
          2    1    1    2    0  502  0.73792636989E+02 -0.37261493528E+00  0.38687476049E+03  0.39384968252E+03  0.25500000000E-02 0.  1.
         -2    1    1    2  502    0 -0.73792636989E+02  0.37261493528E+00  0.35287798477E+03  0.36051125399E+03  0.25500000000E-02 0.  1.
<mgrwt>
<rscale>  0 0.14773726E+03</rscale>
<asrwt>0</asrwt>
<pdfrwt beam="1">  1        2 0.11493177E+00 0.14773726E+03</pdfrwt>
<pdfrwt beam="2">  1       -2 0.11237076E-02 0.14773726E+03</pdfrwt>
<totfact> 0.65327987E+04</totfact>
</mgrwt>
</event>
<event>
 4    1  0.4604841E-002  0.4383733E+02  0.7818608E-02  0.1481733E+00
          2   -1    0    0    0  501  0.00000000000E+00  0.00000000000E+00  0.15079257868E+02  0.15079258084E+02  0.25500000000E-02 0. -1.
         -2   -1    0    0  501    0 -0.00000000000E+00 -0.00000000000E+00 -0.31860176057E+02  0.31860176159E+02  0.25500000000E-02 0. -1.
          2    1    1    2    0  502 -0.21103105659E+02 -0.43867439264E+01 -0.41284387513E+01  0.21946038453E+02  0.25500000000E-02 0. -1.
         -2    1    1    2  502    0  0.21103105659E+02  0.43867439264E+01 -0.12652479438E+02  0.24993395791E+02  0.25500000000E-02 0. -1.
<mgrwt>
<rscale>  0 0.43837327E+02</rscale>
<asrwt>0</asrwt>
<pdfrwt beam="1">  1        2 0.23198859E-02 0.43837327E+02</pdfrwt>
<pdfrwt beam="2">  1       -2 0.49015655E-02 0.43837327E+02</pdfrwt>
<totfact> 0.59826191E+05</totfact>
</mgrwt>
</event>
<event>
 4    1  0.4604841E-002  0.5819533E+02  0.7818608E-02  0.1405565E+00
          2   -1    0    0    0  501  0.00000000000E+00  0.00000000000E+00  0.29719487950E+01  0.29719498890E+01  0.25500000000E-02 0. -1.
         -2   -1    0    0  501    0 -0.00000000000E+00 -0.00000000000E+00 -0.28488848028E+03  0.28488848029E+03  0.25500000000E-02 0. -1.
          2    1    1    2    0  502  0.28416102569E+02 -0.61259699627E+01 -0.14735381065E+03  0.15019370131E+03  0.25500000000E-02 0. -1.
         -2    1    1    2  502    0 -0.28416102569E+02  0.61259699627E+01 -0.13456272083E+03  0.13766672887E+03  0.25500000000E-02 0. -1.
<mgrwt>
<rscale>  0 0.58195331E+02</rscale>
<asrwt>0</asrwt>
<pdfrwt beam="1">  1        2 0.45722320E-03 0.58195331E+02</pdfrwt>
<pdfrwt beam="2">  1       -2 0.43828976E-01 0.58195331E+02</pdfrwt>
<totfact> 0.16396718E+05</totfact>
</mgrwt>
</event>
<event>
 4    1  0.4604841E-002  0.8304367E+02  0.7818608E-02  0.1320629E+00
          2   -1    0    0    0  501  0.00000000000E+00  0.00000000000E+00  0.23788697137E+04  0.23788697137E+04  0.25500000000E-02 0. -1.
         -2   -1    0    0  501    0 -0.00000000000E+00 -0.00000000000E+00 -0.72473806169E+00  0.72474254778E+00  0.25500000000E-02 0. -1.
          2    1    1    2    0  502 -0.73864083977E+01  0.31897339741E+02  0.45735852208E+03  0.45852897077E+03  0.25500000000E-02 0. -1.
         -2    1    1    2  502    0  0.73864083977E+01 -0.31897339741E+02  0.19207864536E+04  0.19210654855E+04  0.25500000000E-02 0. -1.
<mgrwt>
<rscale>  0 0.83043670E+02</rscale>
<asrwt>0</asrwt>
<pdfrwt beam="1">  1        2 0.36598738E+00 0.83043670E+02</pdfrwt>
<pdfrwt beam="2">  1       -2 0.11149625E-03 0.83043670E+02</pdfrwt>
<totfact> 0.20532682E+05</totfact>
</mgrwt>
</event>
<event>
 4    1  0.4604841E-002  0.9175915E+02  0.7818608E-02  0.1298647E+00
         -2   -1    0    0  501    0 -0.00000000000E+00  0.00000000000E+00  0.74254116590E+00  0.74254554443E+00  0.25500000000E-02 0.  1.
          2   -1    0    0    0  501  0.00000000000E+00 -0.00000000000E+00 -0.28347641524E+04  0.28347641524E+04  0.25500000000E-02 0.  1.
          2    1    1    2    0  502 -0.37896851526E+02  0.23113312408E+02 -0.17754412956E+04  0.17759961122E+04  0.25500000000E-02 0.  1.
         -2    1    1    2  502    0  0.37896851526E+02 -0.23113312408E+02 -0.10585803157E+04  0.10595105857E+04  0.25500000000E-02 0.  1.
<mgrwt>
<rscale>  0 0.91759148E+02</rscale>
<asrwt>0</asrwt>
<pdfrwt beam="2">  1        2 0.43610890E+00 0.91759148E+02</pdfrwt>
<pdfrwt beam="1">  1       -2 0.11423971E-03 0.91759148E+02</pdfrwt>
<totfact> 0.11472603E+05</totfact>
</mgrwt>
</event>
<event>
 4    1  0.4604841E-002  0.5396781E+02  0.7818608E-02  0.1425044E+00
          2   -1    0    0    0  501  0.00000000000E+00  0.00000000000E+00  0.21192034838E+03  0.21192034839E+03  0.25500000000E-02 0. -1.
         -2   -1    0    0  501    0 -0.00000000000E+00 -0.00000000000E+00 -0.34358711503E+01  0.34358720966E+01  0.25500000000E-02 0. -1.
          2    1    1    2    0  502 -0.27773480407E+01 -0.23806669017E+02  0.15370780463E+03  0.15556529292E+03  0.25500000000E-02 0. -1.
         -2    1    1    2  502    0  0.27773480407E+01  0.23806669017E+02  0.54776672601E+02  0.59790927569E+02  0.25500000000E-02 0. -1.
<mgrwt>
<rscale>  0 0.53967809E+02</rscale>
<asrwt>0</asrwt>
<pdfrwt beam="1">  1        2 0.32603121E-01 0.53967809E+02</pdfrwt>
<pdfrwt beam="2">  1       -2 0.52859580E-03 0.53967809E+02</pdfrwt>
<totfact> 0.61947272E+05</totfact>
</mgrwt>
</event>
<event>
 4    1  0.4604841E-002  0.5466693E+02  0.7818608E-02  0.1421681E+00
         -2   -1    0    0  501    0 -0.00000000000E+00  0.00000000000E+00  0.20133418478E+01  0.20133434627E+01  0.25500000000E-02 0. -1.
          2   -1    0    0    0  501  0.00000000000E+00 -0.00000000000E+00 -0.37108359213E+03  0.37108359214E+03  0.25500000000E-02 0. -1.
          2    1    1    2    0  502 -0.54541091780E+01 -0.26443100985E+02 -0.15547228334E+03  0.15779928957E+03  0.25500000000E-02 0.  1.
         -2    1    1    2  502    0  0.54541091780E+01  0.26443100985E+02 -0.21359796695E+03  0.21529764603E+03  0.25500000000E-02 0.  1.
<mgrwt>
<rscale>  0 0.54666934E+02</rscale>
<asrwt>0</asrwt>
<pdfrwt beam="2">  1        2 0.57089729E-01 0.54666934E+02</pdfrwt>
<pdfrwt beam="1">  1       -2 0.30974532E-03 0.54666934E+02</pdfrwt>
<totfact> 0.72870700E+05</totfact>
</mgrwt>
</event>
<event>
 4    1  0.4604841E-002  0.6366998E+02  0.7818608E-02  0.1383045E+00
          2   -1    0    0    0  501  0.00000000000E+00  0.00000000000E+00  0.42954354302E+01  0.42954361871E+01  0.25500000000E-02 0. -1.
         -2   -1    0    0  501    0 -0.00000000000E+00 -0.00000000000E+00 -0.23594032991E+03  0.23594032993E+03  0.25500000000E-02 0. -1.
          2    1    1    2    0  502 -0.20581573074E+02  0.22495241106E+02 -0.15036873931E+03  0.15342879388E+03  0.25500000000E-02 0.  1.
         -2    1    1    2  502    0  0.20581573074E+02 -0.22495241106E+02 -0.81276155175E+02  0.86806972238E+02  0.25500000000E-02 0.  1.
<mgrwt>
<rscale>  0 0.63669979E+02</rscale>
<asrwt>0</asrwt>
<pdfrwt beam="1">  1        2 0.66083646E-03 0.63669979E+02</pdfrwt>
<pdfrwt beam="2">  1       -2 0.36298502E-01 0.63669979E+02</pdfrwt>
<totfact> 0.14384950E+05</totfact>
</mgrwt>
</event>
<event>
 4    1  0.4604841E-002  0.4712121E+02  0.7818608E-02  0.1461518E+00
          2   -1    0    0    0  501  0.00000000000E+00  0.00000000000E+00  0.97709653746E+03  0.97709653746E+03  0.25500000000E-02 0.  1.
         -2   -1    0    0  501    0 -0.00000000000E+00 -0.00000000000E+00 -0.56811107850E+00  0.56811680138E+00  0.25500000000E-02 0.  1.
          2    1    1    2    0  502 -0.99705328172E+01 -0.19321122831E+02  0.29994391623E+03  0.30073089333E+03  0.25500000000E-02 0. -1.
         -2    1    1    2  502    0  0.99705328172E+01  0.19321122831E+02  0.67658451015E+03  0.67693376093E+03  0.25500000000E-02 0. -1.
<mgrwt>
<rscale>  0 0.47121212E+02</rscale>
<asrwt>0</asrwt>
<pdfrwt beam="1">  1        2 0.15032163E+00 0.47121212E+02</pdfrwt>
<pdfrwt beam="2">  1       -2 0.87402678E-04 0.47121212E+02</pdfrwt>
<totfact> 0.13379869E+06</totfact>
</mgrwt>
</event>
<event>
 4    1  0.4604841E-002  0.6198324E+02  0.7818608E-02  0.1389693E+00
          2   -1    0    0    0  501  0.00000000000E+00  0.00000000000E+00  0.62682942055E+03  0.62682942055E+03  0.25500000000E-02 0. -1.
         -2   -1    0    0  501    0 -0.00000000000E+00 -0.00000000000E+00 -0.15322825470E+01  0.15322846688E+01  0.25500000000E-02 0. -1.
          2    1    1    2    0  502 -0.58343495275E+01  0.25962566094E+02  0.47370128531E+03  0.47444810273E+03  0.25500000000E-02 0.  1.
         -2    1    1    2  502    0  0.58343495275E+01 -0.25962566094E+02  0.15159585269E+03  0.15391360249E+03  0.25500000000E-02 0.  1.
<mgrwt>
<rscale>  0 0.61983238E+02</rscale>
<asrwt>0</asrwt>
<pdfrwt beam="1">  1        2 0.96435308E-01 0.61983238E+02</pdfrwt>
<pdfrwt beam="2">  1       -2 0.23573591E-03 0.61983238E+02</pdfrwt>
<totfact> 0.62596971E+05</totfact>
</mgrwt>
</event>
<event>
 4    1  0.4604841E-002  0.5206793E+02  0.7818608E-02  0.1434497E+00
          2   -1    0    0    0  501  0.00000000000E+00  0.00000000000E+00  0.18356127644E+03  0.18356127646E+03  0.25500000000E-02 0.  1.
         -2   -1    0    0  501    0 -0.00000000000E+00 -0.00000000000E+00 -0.36923208628E+01  0.36923217434E+01  0.25500000000E-02 0.  1.
          2    1    1    2    0  502 -0.14494794873E+01 -0.25549132011E+02  0.72721573384E+02  0.77092712880E+02  0.25500000000E-02 0. -1.
         -2    1    1    2  502    0  0.14494794873E+01  0.25549132011E+02  0.10714738220E+03  0.11016088532E+03  0.25500000000E-02 0. -1.
<mgrwt>
<rscale>  0 0.52067925E+02</rscale>
<asrwt>0</asrwt>
<pdfrwt beam="1">  1        2 0.28240183E-01 0.52067925E+02</pdfrwt>
<pdfrwt beam="2">  1       -2 0.56804970E-03 0.52067925E+02</pdfrwt>
<totfact> 0.64643013E+05</totfact>
</mgrwt>
</event>
<event>
 4    1  0.4604841E-002  0.7934794E+02  0.7818608E-02  0.1330912E+00
          2   -1    0    0    0  501  0.00000000000E+00  0.00000000000E+00  0.10687062208E+04  0.10687062208E+04  0.25500000000E-02 0.  1.
         -2   -1    0    0  501    0 -0.00000000000E+00 -0.00000000000E+00 -0.14728299781E+01  0.14728321856E+01  0.25500000000E-02 0.  1.
          2    1    1    2    0  502  0.10655081953E+02  0.38019520753E+02  0.58586795713E+03  0.58719696689E+03  0.25500000000E-02 0.  1.
         -2    1    1    2  502    0 -0.10655081953E+02 -0.38019520753E+02  0.48136543368E+03  0.48298208609E+03  0.25500000000E-02 0.  1.
<mgrwt>
<rscale>  0 0.79347936E+02</rscale>
<asrwt>0</asrwt>
<pdfrwt beam="1">  1        2 0.16441685E+00 0.79347936E+02</pdfrwt>
<pdfrwt beam="2">  1       -2 0.22658870E-03 0.79347936E+02</pdfrwt>
<totfact> 0.35998570E+05</totfact>
</mgrwt>
</event>
<event>
 4    1  0.4604841E-002  0.7107868E+02  0.7818608E-02  0.1356463E+00
         -2   -1    0    0  501    0 -0.00000000000E+00  0.00000000000E+00  0.10112022493E+02  0.10112022814E+02  0.25500000000E-02 0. -1.
          2   -1    0    0    0  501  0.00000000000E+00 -0.00000000000E+00 -0.12490526223E+03  0.12490526226E+03  0.25500000000E-02 0. -1.
          2    1    1    2    0  502  0.92510077242E+01 -0.28133821453E+02 -0.94714461454E+02  0.99236698194E+02  0.25500000000E-02 0. -1.
         -2    1    1    2  502    0 -0.92510077242E+01  0.28133821453E+02 -0.20078778286E+02  0.35780586879E+02  0.25500000000E-02 0. -1.
<mgrwt>
<rscale>  0 0.71078684E+02</rscale>
<asrwt>0</asrwt>
<pdfrwt beam="2">  1        2 0.19216193E-01 0.71078684E+02</pdfrwt>
<pdfrwt beam="1">  1       -2 0.15556959E-02 0.71078684E+02</pdfrwt>
<totfact> 0.25664785E+05</totfact>
</mgrwt>
</event>
<event>
 4    1  0.4604841E-002  0.7175352E+02  0.7818608E-02  0.1354230E+00
          2   -1    0    0    0  501  0.00000000000E+00  0.00000000000E+00  0.16258787500E+03  0.16258787502E+03  0.25500000000E-02 0. -1.
         -2   -1    0    0  501    0 -0.00000000000E+00 -0.00000000000E+00 -0.79165928762E+01  0.79165932869E+01  0.25500000000E-02 0. -1.
          2    1    1    2    0  502  0.19002700049E+02 -0.81364921653E+01  0.76568548539E+01  0.22043877759E+02  0.25500000000E-02 0.  1.
         -2    1    1    2  502    0 -0.19002700049E+02  0.81364921653E+01  0.14701442727E+03  0.14846059055E+03  0.25500000000E-02 0.  1.
<mgrwt>
<rscale>  0 0.71753524E+02</rscale>
<asrwt>0</asrwt>
<pdfrwt beam="1">  1        2 0.25013517E-01 0.71753524E+02</pdfrwt>
<pdfrwt beam="2">  1       -2 0.12179375E-02 0.71753524E+02</pdfrwt>
<totfact> 0.27223184E+05</totfact>
</mgrwt>
</event>
<event>
 4    1  0.4604841E-002  0.5612383E+02  0.7818608E-02  0.1414858E+00
         -2   -1    0    0  501    0 -0.00000000000E+00  0.00000000000E+00  0.16349873428E+02  0.16349873627E+02  0.25500000000E-02 0.  1.
          2   -1    0    0    0  501  0.00000000000E+00 -0.00000000000E+00 -0.48163743234E+02  0.48163743301E+02  0.25500000000E-02 0.  1.
          2    1    1    2    0  502  0.13569492109E+02  0.24526162659E+02 -0.17452273458E+02  0.33018867731E+02  0.25500000000E-02 0.  1.
         -2    1    1    2  502    0 -0.13569492109E+02 -0.24526162659E+02 -0.14361596347E+02  0.31494749198E+02  0.25500000000E-02 0.  1.
<mgrwt>
<rscale>  0 0.56123831E+02</rscale>
<asrwt>0</asrwt>
<pdfrwt beam="2">  1        2 0.74098066E-02 0.56123831E+02</pdfrwt>
<pdfrwt beam="1">  1       -2 0.25153652E-02 0.56123831E+02</pdfrwt>
<totfact> 0.37720836E+05</totfact>
</mgrwt>
</event>
<event>
 4    1  0.4604841E-002  0.4577177E+02  0.7818608E-02  0.1469580E+00
         -2   -1    0    0  501    0 -0.00000000000E+00  0.00000000000E+00  0.54888033715E+03  0.54888033715E+03  0.25500000000E-02 0.  1.
          2   -1    0    0    0  501  0.00000000000E+00 -0.00000000000E+00 -0.95423863307E+00  0.95424204023E+00  0.25500000000E-02 0.  1.
          2    1    1    2    0  502  0.13125001806E+02  0.17874066536E+02  0.34193295942E+03  0.34265127560E+03  0.25500000000E-02 0.  1.
         -2    1    1    2  502    0 -0.13125001806E+02 -0.17874066536E+02  0.20599313909E+03  0.20718330359E+03  0.25500000000E-02 0.  1.
<mgrwt>
<rscale>  0 0.45771771E+02</rscale>
<asrwt>0</asrwt>
<pdfrwt beam="2">  1        2 0.14680630E-03 0.45771771E+02</pdfrwt>
<pdfrwt beam="1">  1       -2 0.84443077E-01 0.45771771E+02</pdfrwt>
<totfact> 0.19093896E+05</totfact>
</mgrwt>
</event>
<event>
 4    1  0.4604841E-002  0.4246343E+02  0.7818608E-02  0.1490828E+00
         -2   -1    0    0  501    0 -0.00000000000E+00  0.00000000000E+00  0.12429683386E+01  0.12429709543E+01  0.25500000000E-02 0. -1.
          2   -1    0    0    0  501  0.00000000000E+00 -0.00000000000E+00 -0.36266825743E+03  0.36266825744E+03  0.25500000000E-02 0. -1.
          2    1    1    2    0  502  0.20323026303E+02 -0.60537000728E+01 -0.17167160826E+03  0.17297633876E+03  0.25500000000E-02 0. -1.
         -2    1    1    2  502    0 -0.20323026303E+02  0.60537000728E+01 -0.18975368083E+03  0.19093488963E+03  0.25500000000E-02 0. -1.
<mgrwt>
<rscale>  0 0.42463426E+02</rscale>
<asrwt>0</asrwt>
<pdfrwt beam="2">  1        2 0.55795032E-01 0.42463426E+02</pdfrwt>
<pdfrwt beam="1">  1       -2 0.19122639E-03 0.42463426E+02</pdfrwt>
<totfact> 0.13499671E+06</totfact>
</mgrwt>
</event>
<event>
 4    1  0.4604841E-002  0.5138941E+02  0.7818608E-02  0.1437988E+00
         -2   -1    0    0  501    0 -0.00000000000E+00  0.00000000000E+00  0.75289713133E+00  0.75290144963E+00  0.25500000000E-02 0.  1.
          2   -1    0    0    0  501  0.00000000000E+00 -0.00000000000E+00 -0.87690049190E+03  0.87690049191E+03  0.25500000000E-02 0.  1.
          2    1    1    2    0  502 -0.11923024666E+02 -0.20709130308E+02 -0.59936487518E+03  0.59984104578E+03  0.25500000000E-02 0.  1.
         -2    1    1    2  502    0  0.11923024666E+02  0.20709130308E+02 -0.27678271959E+03  0.27781234758E+03  0.25500000000E-02 0.  1.
<mgrwt>
<rscale>  0 0.51389406E+02</rscale>
<asrwt>0</asrwt>
<pdfrwt beam="2">  1        2 0.13490695E+00 0.51389406E+02</pdfrwt>
<pdfrwt beam="1">  1       -2 0.11583136E-03 0.51389406E+02</pdfrwt>
<totfact> 0.10699904E+06</totfact>
</mgrwt>
</event>
<event>
 4    1  0.4604841E-002  0.5578833E+02  0.7818608E-02  0.1416407E+00
          2   -1    0    0    0  501  0.00000000000E+00  0.00000000000E+00  0.14083682930E+04  0.14083682930E+04  0.25500000000E-02 0. -1.
         -2   -1    0    0  501    0 -0.00000000000E+00 -0.00000000000E+00 -0.55246931995E+00  0.55247520486E+00  0.25500000000E-02 0. -1.
          2    1    1    2    0  502  0.85646021335E+01  0.26134773773E+02  0.82156799555E+03  0.82202819303E+03  0.25500000000E-02 0. -1.
         -2    1    1    2  502    0 -0.85646021335E+01 -0.26134773773E+02  0.58624782813E+03  0.58689257518E+03  0.25500000000E-02 0. -1.
<mgrwt>
<rscale>  0 0.55788329E+02</rscale>
<asrwt>0</asrwt>
<pdfrwt beam="1">  1        2 0.21666968E+00 0.55788329E+02</pdfrwt>
<pdfrwt beam="2">  1       -2 0.84996661E-04 0.55788329E+02</pdfrwt>
<totfact> 0.85140001E+05</totfact>
</mgrwt>
</event>
<event>
 4    1  0.4604841E-002  0.6605427E+02  0.7818608E-02  0.1374049E+00
         -2   -1    0    0  501    0 -0.00000000000E+00  0.00000000000E+00  0.78587077882E+00  0.78587491594E+00  0.25500000000E-02 0. -1.
          2   -1    0    0    0  501  0.00000000000E+00 -0.00000000000E+00 -0.13880001700E+04  0.13880001700E+04  0.25500000000E-02 0. -1.
          2    1    1    2    0  502 -0.30869496457E+02 -0.83974844916E+01 -0.86615004142E+03  0.86674064045E+03  0.25500000000E-02 0.  1.
         -2    1    1    2  502    0  0.30869496457E+02  0.83974844916E+01 -0.52106425784E+03  0.52204540450E+03  0.25500000000E-02 0.  1.
<mgrwt>
<rscale>  0 0.66054270E+02</rscale>
<asrwt>0</asrwt>
<pdfrwt beam="2">  1        2 0.21353653E+00 0.66054270E+02</pdfrwt>
<pdfrwt beam="1">  1       -2 0.12090463E-03 0.66054270E+02</pdfrwt>
<totfact> 0.55790207E+05</totfact>
</mgrwt>
</event>
<event>
 4    1  0.4604841E-002  0.4165363E+02  0.7818608E-02  0.1496384E+00
         -2   -1    0    0  501    0 -0.00000000000E+00  0.00000000000E+00  0.23281447778E+00  0.23282844234E+00  0.25500000000E-02 0. -1.
          2   -1    0    0    0  501  0.00000000000E+00 -0.00000000000E+00 -0.18630418946E+04  0.18630418946E+04  0.25500000000E-02 0. -1.
          2    1    1    2    0  502 -0.83226781062E+01  0.18990876564E+02 -0.10190138391E+04  0.10192247665E+04  0.25500000000E-02 0. -1.
         -2    1    1    2  502    0  0.83226781062E+01 -0.18990876564E+02 -0.84379524103E+03  0.84404995655E+03  0.25500000000E-02 0. -1.
<mgrwt>
<rscale>  0 0.41653626E+02</rscale>
<asrwt>0</asrwt>
<pdfrwt beam="2">  1        2 0.28660989E+00 0.41653626E+02</pdfrwt>
<pdfrwt beam="1">  1       -2 0.35820178E-04 0.41653626E+02</pdfrwt>
<totfact> 0.15308375E+06</totfact>
</mgrwt>
</event>
<event>
 4    1  0.4604841E-002  0.1138981E+03  0.7818608E-02  0.1253517E+00
          2   -1    0    0    0  501  0.00000000000E+00  0.00000000000E+00  0.96089513732E+02  0.96089513766E+02  0.25500000000E-02 0. -1.
         -2   -1    0    0  501    0 -0.00000000000E+00 -0.00000000000E+00 -0.33751822540E+02  0.33751822636E+02  0.25500000000E-02 0. -1.
          2    1    1    2    0  502  0.46625955628E+02  0.15483014391E+02  0.64001248164E+02  0.80683723551E+02  0.25500000000E-02 0.  1.
         -2    1    1    2  502    0 -0.46625955628E+02 -0.15483014391E+02 -0.16635569723E+01  0.49157612851E+02  0.25500000000E-02 0.  1.
<mgrwt>
<rscale>  0 0.11389813E+03</rscale>
<asrwt>0</asrwt>
<pdfrwt beam="1">  1        2 0.14783002E-01 0.11389813E+03</pdfrwt>
<pdfrwt beam="2">  1       -2 0.51925881E-02 0.11389813E+03</pdfrwt>
<totfact> 0.64895644E+04</totfact>
</mgrwt>
</event>
<event>
 4    1  0.4604841E-002  0.5455991E+02  0.7818608E-02  0.1422192E+00
         -2   -1    0    0  501    0 -0.00000000000E+00  0.00000000000E+00  0.11948759281E+01  0.11948786490E+01  0.25500000000E-02 0.  1.
          2   -1    0    0    0  501  0.00000000000E+00 -0.00000000000E+00 -0.62282198582E+03  0.62282198582E+03  0.25500000000E-02 0.  1.
          2    1    1    2    0  502  0.70949710866E+00 -0.24379418537E+02 -0.17104625989E+03  0.17277639440E+03  0.25500000000E-02 0.  1.
         -2    1    1    2  502    0 -0.70949710866E+00  0.24379418537E+02 -0.45058085000E+03  0.45124047007E+03  0.25500000000E-02 0.  1.
<mgrwt>
<rscale>  0 0.54559906E+02</rscale>
<asrwt>0</asrwt>
<pdfrwt beam="2">  1        2 0.95818508E-01 0.54559906E+02</pdfrwt>
<pdfrwt beam="1">  1       -2 0.18382777E-03 0.54559906E+02</pdfrwt>
<totfact> 0.86126252E+05</totfact>
</mgrwt>
</event>
<event>
 4    1  0.4604841E-002  0.1262596E+03  0.7818608E-02  0.1233114E+00
         -2   -1    0    0  501    0 -0.00000000000E+00  0.00000000000E+00  0.43564442194E+01  0.43564449657E+01  0.25500000000E-02 0. -1.
          2   -1    0    0    0  501  0.00000000000E+00 -0.00000000000E+00 -0.91482253403E+03  0.91482253403E+03  0.25500000000E-02 0. -1.
          2    1    1    2    0  502 -0.46155531046E+01  0.44251519374E+02 -0.12918070503E+03  0.13662779679E+03  0.25500000000E-02 0.  1.
         -2    1    1    2  502    0  0.46155531046E+01 -0.44251519374E+02 -0.78128538478E+03  0.78255118221E+03  0.25500000000E-02 0.  1.
<mgrwt>
<rscale>  0 0.12625963E+03</rscale>
<asrwt>0</asrwt>
<pdfrwt beam="2">  1        2 0.14074178E+00 0.12625963E+03</pdfrwt>
<pdfrwt beam="1">  1       -2 0.67022297E-03 0.12625963E+03</pdfrwt>
<totfact> 0.10393428E+05</totfact>
</mgrwt>
</event>
<event>
 4    1  0.4604841E-002  0.4746539E+02  0.7818608E-02  0.1459512E+00
         -2   -1    0    0  501    0 -0.00000000000E+00  0.00000000000E+00  0.12764899729E+01  0.12764925199E+01  0.25500000000E-02 0. -1.
          2   -1    0    0    0  501  0.00000000000E+00 -0.00000000000E+00 -0.44124148271E+03  0.44124148271E+03  0.25500000000E-02 0. -1.
          2    1    1    2    0  502 -0.28683420882E+01  0.22657226674E+02 -0.15980527589E+03  0.16142894262E+03  0.25500000000E-02 0.  1.
         -2    1    1    2  502    0  0.28683420882E+01 -0.22657226674E+02 -0.28015971685E+03  0.28108903261E+03  0.25500000000E-02 0.  1.
<mgrwt>
<rscale>  0 0.47465393E+02</rscale>
<asrwt>0</asrwt>
<pdfrwt beam="2">  1        2 0.67883184E-01 0.47465393E+02</pdfrwt>
<pdfrwt beam="1">  1       -2 0.19638362E-03 0.47465393E+02</pdfrwt>
<totfact> 0.10975097E+06</totfact>
</mgrwt>
</event>
<event>
 4    1  0.4604841E-002  0.6233737E+02  0.7818608E-02  0.1388277E+00
          2   -1    0    0    0  501  0.00000000000E+00  0.00000000000E+00  0.42407219816E+03  0.42407219817E+03  0.25500000000E-02 0. -1.
         -2   -1    0    0  501    0 -0.00000000000E+00 -0.00000000000E+00 -0.22908522359E+01  0.22908536551E+01  0.25500000000E-02 0. -1.
          2    1    1    2    0  502 -0.62152010071E+01  0.26228878683E+02  0.10385483545E+03  0.10729589765E+03  0.25500000000E-02 0. -1.
         -2    1    1    2  502    0  0.62152010071E+01 -0.26228878683E+02  0.31792651048E+03  0.31906715417E+03  0.25500000000E-02 0. -1.
<mgrwt>
<rscale>  0 0.62337374E+02</rscale>
<asrwt>0</asrwt>
<pdfrwt beam="1">  1        2 0.65241853E-01 0.62337374E+02</pdfrwt>
<pdfrwt beam="2">  1       -2 0.35243904E-03 0.62337374E+02</pdfrwt>
<totfact> 0.54744098E+05</totfact>
</mgrwt>
</event>
<event>
 4    1  0.4604841E-002  0.6191835E+02  0.7818608E-02  0.1389953E+00
          2   -1    0    0    0  501  0.00000000000E+00  0.00000000000E+00  0.31218492471E+03  0.31218492472E+03  0.25500000000E-02 0.  1.
         -2   -1    0    0  501    0 -0.00000000000E+00 -0.00000000000E+00 -0.30702004981E+01  0.30702015570E+01  0.25500000000E-02 0.  1.
          2    1    1    2    0  502  0.23470999395E+02 -0.50930397949E+01  0.25402270553E+03  0.25515556391E+03  0.25500000000E-02 0. -1.
         -2    1    1    2  502    0 -0.23470999395E+02  0.50930397949E+01  0.55092018689E+02  0.60099562367E+02  0.25500000000E-02 0. -1.
<mgrwt>
<rscale>  0 0.61918349E+02</rscale>
<asrwt>0</asrwt>
<pdfrwt beam="1">  1        2 0.48028394E-01 0.61918349E+02</pdfrwt>
<pdfrwt beam="2">  1       -2 0.47233918E-03 0.61918349E+02</pdfrwt>
<totfact> 0.50044657E+05</totfact>
</mgrwt>
</event>
<event>
 4    1  0.4604841E-002  0.1341201E+03  0.7818608E-02  0.1221467E+00
         -2   -1    0    0  501    0 -0.00000000000E+00  0.00000000000E+00  0.27258868506E+01  0.27258880433E+01  0.25500000000E-02 0.  1.
          2   -1    0    0    0  501  0.00000000000E+00 -0.00000000000E+00 -0.16497574235E+04  0.16497574235E+04  0.25500000000E-02 0.  1.
          2    1    1    2    0  502  0.38716833567E+01  0.28349192692E+02 -0.76255735843E+02  0.81446939253E+02  0.25500000000E-02 0. -1.
         -2    1    1    2  502    0 -0.38716833567E+01 -0.28349192692E+02 -0.15707758008E+04  0.15710363723E+04  0.25500000000E-02 0. -1.
<mgrwt>
<rscale>  0 0.13412014E+03</rscale>
<asrwt>0</asrwt>
<pdfrwt beam="2">  1        2 0.25380804E+00 0.13412014E+03</pdfrwt>
<pdfrwt beam="1">  1       -2 0.41936862E-03 0.13412014E+03</pdfrwt>
<totfact> 0.80182794E+04</totfact>
</mgrwt>
</event>
<event>
 4    1  0.4604841E-002  0.4431572E+02  0.7818608E-02  0.1478659E+00
          2   -1    0    0    0  501  0.00000000000E+00  0.00000000000E+00  0.17232602816E+01  0.17232621683E+01  0.25500000000E-02 0.  1.
         -2   -1    0    0  501    0 -0.00000000000E+00 -0.00000000000E+00 -0.28490790897E+03  0.28490790898E+03  0.25500000000E-02 0.  1.
          2    1    1    2    0  502  0.20155526105E+02  0.87070921388E+01 -0.16090109976E+03  0.16239218761E+03  0.25500000000E-02 0. -1.
         -2    1    1    2  502    0 -0.20155526105E+02 -0.87070921388E+01 -0.12228354892E+03  0.12423898353E+03  0.25500000000E-02 0. -1.
<mgrwt>
<rscale>  0 0.44315720E+02</rscale>
<asrwt>0</asrwt>
<pdfrwt beam="1">  1        2 0.26511734E-03 0.44315720E+02</pdfrwt>
<pdfrwt beam="2">  1       -2 0.43831949E-01 0.44315720E+02</pdfrwt>
<totfact> 0.32072392E+05</totfact>
</mgrwt>
</event>
<event>
 4    1  0.4604841E-002  0.4320952E+02  0.7818608E-02  0.1485839E+00
         -2   -1    0    0  501    0 -0.00000000000E+00  0.00000000000E+00  0.57359057781E+01  0.57359063449E+01  0.25500000000E-02 0. -1.
          2   -1    0    0    0  501  0.00000000000E+00 -0.00000000000E+00 -0.81376079187E+02  0.81376079227E+02  0.25500000000E-02 0. -1.
          2    1    1    2    0  502  0.40370757641E+01 -0.21202674156E+02 -0.39747665554E+02  0.45229728007E+02  0.25500000000E-02 0. -1.
         -2    1    1    2  502    0 -0.40370757641E+01  0.21202674156E+02 -0.35892507855E+02  0.41882257565E+02  0.25500000000E-02 0. -1.
<mgrwt>
<rscale>  0 0.43209515E+02</rscale>
<asrwt>0</asrwt>
<pdfrwt beam="2">  1        2 0.12519396E-01 0.43209515E+02</pdfrwt>
<pdfrwt beam="1">  1       -2 0.88244714E-03 0.43209515E+02</pdfrwt>
<totfact> 0.82154557E+05</totfact>
</mgrwt>
</event>
<event>
 4    1  0.4604841E-002  0.5049336E+02  0.7818608E-02  0.1442699E+00
         -2   -1    0    0  501    0 -0.00000000000E+00  0.00000000000E+00  0.50007528941E+00  0.50008179089E+00  0.25500000000E-02 0. -1.
          2   -1    0    0    0  501  0.00000000000E+00 -0.00000000000E+00 -0.12745897176E+04  0.12745897176E+04  0.25500000000E-02 0. -1.
          2    1    1    2    0  502  0.12337301083E+02  0.21785629954E+02 -0.71915387077E+03  0.71958954448E+03  0.25500000000E-02 0.  1.
         -2    1    1    2  502    0 -0.12337301083E+02 -0.21785629954E+02 -0.55493577156E+03  0.55550025494E+03  0.25500000000E-02 0.  1.
<mgrwt>
<rscale>  0 0.50493365E+02</rscale>
<asrwt>0</asrwt>
<pdfrwt beam="2">  1        2 0.19608813E+00 0.50493365E+02</pdfrwt>
<pdfrwt beam="1">  1       -2 0.76936180E-04 0.50493365E+02</pdfrwt>
<totfact> 0.11155547E+06</totfact>
</mgrwt>
</event>
<event>
 4    1  0.4604841E-002  0.7990359E+02  0.7818608E-02  0.1329325E+00
          2   -1    0    0    0  501  0.00000000000E+00  0.00000000000E+00  0.79627476013E+03  0.79627476013E+03  0.25500000000E-02 0. -1.
         -2   -1    0    0  501    0 -0.00000000000E+00 -0.00000000000E+00 -0.20045156169E+01  0.20045172388E+01  0.25500000000E-02 0. -1.
          2    1    1    2    0  502 -0.24366626232E+02 -0.95444563196E+01  0.95540743759E+02  0.99059895240E+02  0.25500000000E-02 0. -1.
         -2    1    1    2  502    0  0.24366626232E+02  0.95444563196E+01  0.69872950075E+03  0.69921938213E+03  0.25500000000E-02 0. -1.
<mgrwt>
<rscale>  0 0.79903588E+02</rscale>
<asrwt>0</asrwt>
<pdfrwt beam="1">  1        2 0.12250382E+00 0.79903588E+02</pdfrwt>
<pdfrwt beam="2">  1       -2 0.30838711E-03 0.79903588E+02</pdfrwt>
<totfact> 0.34403860E+05</totfact>
</mgrwt>
</event>
<event>
 4    1  0.4604841E-002  0.7779804E+02  0.7818608E-02  0.1335419E+00
         -2   -1    0    0  501    0 -0.00000000000E+00  0.00000000000E+00  0.34837514069E+03  0.34837514070E+03  0.25500000000E-02 0. -1.
          2   -1    0    0    0  501  0.00000000000E+00 -0.00000000000E+00 -0.43434031573E+01  0.43434039059E+01  0.25500000000E-02 0. -1.
          2    1    1    2    0  502 -0.37244022485E+02  0.10283440345E+02  0.19242663264E+03  0.19626735671E+03  0.25500000000E-02 0. -1.
         -2    1    1    2  502    0  0.37244022485E+02 -0.10283440345E+02  0.15160510489E+03  0.15645118789E+03  0.25500000000E-02 0. -1.
<mgrwt>
<rscale>  0 0.77798042E+02</rscale>
<asrwt>0</asrwt>
<pdfrwt beam="2">  1        2 0.66821603E-03 0.77798042E+02</pdfrwt>
<pdfrwt beam="1">  1       -2 0.53596168E-01 0.77798042E+02</pdfrwt>
<totfact> 0.70181522E+04</totfact>
</mgrwt>
</event>
<event>
 4    1  0.4604841E-002  0.6009726E+02  0.7818608E-02  0.1397424E+00
          2   -1    0    0    0  501  0.00000000000E+00  0.00000000000E+00  0.20185227882E+04  0.20185227882E+04  0.25500000000E-02 0. -1.
         -2   -1    0    0  501    0 -0.00000000000E+00 -0.00000000000E+00 -0.44731367015E+00  0.44732093848E+00  0.25500000000E-02 0. -1.
          2    1    1    2    0  502 -0.27102804359E+02 -0.97142062160E+01  0.72005715480E+03  0.72063252355E+03  0.25500000000E-02 0.  1.
         -2    1    1    2  502    0  0.27102804359E+02  0.97142062160E+01  0.12980183197E+04  0.12983375856E+04  0.25500000000E-02 0.  1.
<mgrwt>
<rscale>  0 0.60097260E+02</rscale>
<asrwt>0</asrwt>
<pdfrwt beam="1">  1        2 0.31054227E+00 0.60097260E+02</pdfrwt>
<pdfrwt beam="2">  1       -2 0.68817979E-04 0.60097260E+02</pdfrwt>
<totfact> 0.57459322E+05</totfact>
</mgrwt>
</event>
<event>
 4    1  0.4604841E-002  0.4354624E+02  0.7818608E-02  0.1483627E+00
          2   -1    0    0    0  501  0.00000000000E+00  0.00000000000E+00  0.17280139170E+04  0.17280139170E+04  0.25500000000E-02 0. -1.
         -2   -1    0    0  501    0 -0.00000000000E+00 -0.00000000000E+00 -0.27433716049E+00  0.27434901153E+00  0.25500000000E-02 0. -1.
          2    1    1    2    0  502 -0.12732532228E+02  0.16792771177E+02  0.10810868280E+04  0.10812922104E+04  0.25500000000E-02 0.  1.
         -2    1    1    2  502    0  0.12732532228E+02 -0.16792771177E+02  0.64665275187E+03  0.64699605566E+03  0.25500000000E-02 0.  1.
<mgrwt>
<rscale>  0 0.43546236E+02</rscale>
<asrwt>0</asrwt>
<pdfrwt beam="1">  1        2 0.26585685E+00 0.43546236E+02</pdfrwt>
<pdfrwt beam="2">  1       -2 0.42205270E-04 0.43546236E+02</pdfrwt>
<totfact> 0.14418231E+06</totfact>
</mgrwt>
</event>
<event>
 4    1  0.4604841E-002  0.7763158E+02  0.7818608E-02  0.1335910E+00
          2   -1    0    0    0  501  0.00000000000E+00  0.00000000000E+00  0.81836140813E+03  0.81836140813E+03  0.25500000000E-02 0. -1.
         -2   -1    0    0  501    0 -0.00000000000E+00 -0.00000000000E+00 -0.18410753291E+01  0.18410770950E+01  0.25500000000E-02 0. -1.
          2    1    1    2    0  502 -0.23317901431E+02 -0.19124566572E+02  0.66645031892E+03  0.66713229660E+03  0.25500000000E-02 0.  1.
         -2    1    1    2  502    0  0.23317901431E+02  0.19124566572E+02  0.15007001388E+03  0.15307018862E+03  0.25500000000E-02 0.  1.
<mgrwt>
<rscale>  0 0.77631584E+02</rscale>
<asrwt>0</asrwt>
<pdfrwt beam="1">  1        2 0.12590167E+00 0.77631584E+02</pdfrwt>
<pdfrwt beam="2">  1       -2 0.28324268E-03 0.77631584E+02</pdfrwt>
<totfact> 0.37251240E+05</totfact>
</mgrwt>
</event>
<event>
 4    1  0.4604841E-002  0.4838128E+02  0.7818608E-02  0.1454273E+00
         -2   -1    0    0  501    0 -0.00000000000E+00  0.00000000000E+00  0.10777303645E+01  0.10777333813E+01  0.25500000000E-02 0. -1.
          2   -1    0    0    0  501  0.00000000000E+00 -0.00000000000E+00 -0.54298020713E+03  0.54298020713E+03  0.25500000000E-02 0. -1.
          2    1    1    2    0  502  0.24013520800E+02  0.23029838074E+01 -0.29117436607E+03  0.29217197740E+03  0.25500000000E-02 0. -1.
         -2    1    1    2  502    0 -0.24013520800E+02 -0.23029838074E+01 -0.25072811069E+03  0.25188596311E+03  0.25500000000E-02 0. -1.
<mgrwt>
<rscale>  0 0.48381281E+02</rscale>
<asrwt>0</asrwt>
<pdfrwt beam="2">  1        2 0.83535198E-01 0.48381281E+02</pdfrwt>
<pdfrwt beam="1">  1       -2 0.16580534E-03 0.48381281E+02</pdfrwt>
<totfact> 0.11167676E+06</totfact>
</mgrwt>
</event>
<event>
 4    1  0.4604841E-002  0.2080792E+03  0.7818608E-02  0.1143096E+00
          2   -1    0    0    0  501  0.00000000000E+00  0.00000000000E+00  0.70593389421E+03  0.70593389421E+03  0.25500000000E-02 0. -1.
         -2   -1    0    0  501    0 -0.00000000000E+00 -0.00000000000E+00 -0.15333211992E+02  0.15333212204E+02  0.25500000000E-02 0. -1.
          2    1    1    2    0  502 -0.57034112613E+02  0.83550915558E+01  0.64552244038E+03  0.64809098019E+03  0.25500000000E-02 0. -1.
         -2    1    1    2  502    0  0.57034112613E+02 -0.83550915558E+01  0.45078241832E+02  0.73176126227E+02  0.25500000000E-02 0. -1.
<mgrwt>
<rscale>  0 0.20807916E+03</rscale>
<asrwt>0</asrwt>
<pdfrwt beam="1">  1        2 0.10860525E+00 0.20807916E+03</pdfrwt>
<pdfrwt beam="2">  1       -2 0.23589549E-02 0.20807916E+03</pdfrwt>
<totfact> 0.24548733E+04</totfact>
</mgrwt>
</event>
<event>
 4    1  0.4604841E-002  0.1653398E+03  0.7818608E-02  0.1182797E+00
          2   -1    0    0    0  501  0.00000000000E+00  0.00000000000E+00  0.26884922729E+03  0.26884922730E+03  0.25500000000E-02 0.  1.
         -2   -1    0    0  501    0 -0.00000000000E+00 -0.00000000000E+00 -0.25420599584E+02  0.25420599711E+02  0.25500000000E-02 0.  1.
          2    1    1    2    0  502  0.79999956132E+02  0.40432808882E+01  0.85327863828E+02  0.11703497534E+03  0.25500000000E-02 0.  1.
         -2    1    1    2  502    0 -0.79999956132E+02 -0.40432808882E+01  0.15810076388E+03  0.17723485167E+03  0.25500000000E-02 0.  1.
<mgrwt>
<rscale>  0 0.16533975E+03</rscale>
<asrwt>0</asrwt>
<pdfrwt beam="1">  1        2 0.41361422E-01 0.16533975E+03</pdfrwt>
<pdfrwt beam="2">  1       -2 0.39108612E-02 0.16533975E+03</pdfrwt>
<totfact> 0.33088943E+04</totfact>
</mgrwt>
</event>
<event>
 4    1  0.4604841E-002  0.6768209E+02  0.7818608E-02  0.1368157E+00
          2   -1    0    0    0  501  0.00000000000E+00  0.00000000000E+00  0.72529502905E+02  0.72529502950E+02  0.25500000000E-02 0. -1.
         -2   -1    0    0  501    0 -0.00000000000E+00 -0.00000000000E+00 -0.15789659592E+02  0.15789659798E+02  0.25500000000E-02 0. -1.
          2    1    1    2    0  502  0.15907494790E+02  0.24802647599E+02  0.50087845760E+02  0.58112064305E+02  0.25500000000E-02 0. -1.
         -2    1    1    2  502    0 -0.15907494790E+02 -0.24802647599E+02  0.66519975526E+01  0.30207098443E+02  0.25500000000E-02 0. -1.
<mgrwt>
<rscale>  0 0.67682085E+02</rscale>
<asrwt>0</asrwt>
<pdfrwt beam="1">  1        2 0.11158385E-01 0.67682085E+02</pdfrwt>
<pdfrwt beam="2">  1       -2 0.24291784E-02 0.67682085E+02</pdfrwt>
<totfact> 0.25166368E+05</totfact>
</mgrwt>
</event>
<event>
 4    1  0.4604841E-002  0.5576525E+02  0.7818608E-02  0.1416514E+00
          2   -1    0    0    0  501  0.00000000000E+00  0.00000000000E+00  0.59217733532E+03  0.59217733532E+03  0.25500000000E-02 0.  1.
         -2   -1    0    0  501    0 -0.00000000000E+00 -0.00000000000E+00 -0.13128499504E+01  0.13128524269E+01  0.25500000000E-02 0.  1.
          2    1    1    2    0  502  0.18422806627E+02 -0.16132138892E+02  0.15352332619E+03  0.15546400677E+03  0.25500000000E-02 0. -1.
         -2    1    1    2  502    0 -0.18422806627E+02  0.16132138892E+02  0.43734115918E+03  0.43802618098E+03  0.25500000000E-02 0. -1.
<mgrwt>
<rscale>  0 0.55765248E+02</rscale>
<asrwt>0</asrwt>
<pdfrwt beam="1">  1        2 0.91104177E-01 0.55765248E+02</pdfrwt>
<pdfrwt beam="2">  1       -2 0.20197717E-03 0.55765248E+02</pdfrwt>
<totfact> 0.80448942E+05</totfact>
</mgrwt>
</event>
<event>
 4    1  0.4604841E-002  0.4895643E+02  0.7818608E-02  0.1451053E+00
          2   -1    0    0    0  501  0.00000000000E+00  0.00000000000E+00  0.24428722831E+03  0.24428722833E+03  0.25500000000E-02 0. -1.
         -2   -1    0    0  501    0 -0.00000000000E+00 -0.00000000000E+00 -0.24527796241E+01  0.24527809496E+01  0.25500000000E-02 0. -1.
          2    1    1    2    0  502  0.33061795579E+01 -0.23997769962E+02  0.13863558119E+03  0.14073609403E+03  0.25500000000E-02 0.  1.
         -2    1    1    2  502    0 -0.33061795579E+01  0.23997769962E+02  0.10319886750E+03  0.10600391524E+03  0.25500000000E-02 0.  1.
<mgrwt>
<rscale>  0 0.48956426E+02</rscale>
<asrwt>0</asrwt>
<pdfrwt beam="1">  1        2 0.37582656E-01 0.48956426E+02</pdfrwt>
<pdfrwt beam="2">  1       -2 0.37735076E-03 0.48956426E+02</pdfrwt>
<totfact> 0.83019946E+05</totfact>
</mgrwt>
</event>
<event>
 4    1  0.4604841E-002  0.4296274E+02  0.7818608E-02  0.1487476E+00
         -2   -1    0    0  501    0 -0.00000000000E+00  0.00000000000E+00  0.55764528794E+00  0.55765111823E+00  0.25500000000E-02 0.  1.
          2   -1    0    0    0  501  0.00000000000E+00 -0.00000000000E+00 -0.82749163303E+03  0.82749163304E+03  0.25500000000E-02 0.  1.
          2    1    1    2    0  502 -0.19890005445E+02  0.49385105481E+01 -0.53755108470E+03  0.53794160452E+03  0.25500000000E-02 0. -1.
         -2    1    1    2  502    0  0.19890005445E+02 -0.49385105481E+01 -0.28938290305E+03  0.29010767964E+03  0.25500000000E-02 0. -1.
<mgrwt>
<rscale>  0 0.42962739E+02</rscale>
<asrwt>0</asrwt>
<pdfrwt beam="2">  1        2 0.12730542E+00 0.42962739E+02</pdfrwt>
<pdfrwt beam="1">  1       -2 0.85792693E-04 0.42962739E+02</pdfrwt>
<totfact> 0.16457562E+06</totfact>
</mgrwt>
</event>
<event>
 4    1  0.4604841E-002  0.5262993E+02  0.7818608E-02  0.1431651E+00
         -2   -1    0    0  501    0 -0.00000000000E+00  0.00000000000E+00  0.11040302563E+01  0.11040332012E+01  0.25500000000E-02 0. -1.
          2   -1    0    0    0  501  0.00000000000E+00 -0.00000000000E+00 -0.62722596824E+03  0.62722596825E+03  0.25500000000E-02 0. -1.
          2    1    1    2    0  502  0.20202697254E+02 -0.13110427390E+02 -0.43965850246E+03  0.44031764793E+03  0.25500000000E-02 0. -1.
         -2    1    1    2  502    0 -0.20202697254E+02  0.13110427390E+02 -0.18646343552E+03  0.18801235352E+03  0.25500000000E-02 0. -1.
<mgrwt>
<rscale>  0 0.52629930E+02</rscale>
<asrwt>0</asrwt>
<pdfrwt beam="2">  1        2 0.96496019E-01 0.52629930E+02</pdfrwt>
<pdfrwt beam="1">  1       -2 0.16985154E-03 0.52629930E+02</pdfrwt>
<totfact> 0.94381690E+05</totfact>
</mgrwt>
</event>
<event>
 4    1  0.4604841E-002  0.4739522E+02  0.7818608E-02  0.1459920E+00
         -2   -1    0    0  501    0 -0.00000000000E+00  0.00000000000E+00  0.13814029553E+02  0.13814029788E+02  0.25500000000E-02 0. -1.
          2   -1    0    0    0  501  0.00000000000E+00 -0.00000000000E+00 -0.40652641260E+02  0.40652641340E+02  0.25500000000E-02 0. -1.
          2    1    1    2    0  502  0.13095759492E+00 -0.22194025253E+02 -0.38743653441E+01  0.22530038175E+02  0.25500000000E-02 0. -1.
         -2    1    1    2  502    0 -0.13095759492E+00  0.22194025253E+02 -0.22964246363E+02  0.31936632953E+02  0.25500000000E-02 0. -1.
<mgrwt>
<rscale>  0 0.47395223E+02</rscale>
<asrwt>0</asrwt>
<pdfrwt beam="2">  1        2 0.62542525E-02 0.47395223E+02</pdfrwt>
<pdfrwt beam="1">  1       -2 0.21252354E-02 0.47395223E+02</pdfrwt>
<totfact> 0.56701735E+05</totfact>
</mgrwt>
</event>
<event>
 4    1  0.4604841E-002  0.9130524E+02  0.7818608E-02  0.1299721E+00
         -2   -1    0    0  501    0 -0.00000000000E+00  0.00000000000E+00  0.18195511671E+02  0.18195511850E+02  0.25500000000E-02 0.  1.
          2   -1    0    0    0  501  0.00000000000E+00 -0.00000000000E+00 -0.11454261574E+03  0.11454261577E+03  0.25500000000E-02 0.  1.
          2    1    1    2    0  502 -0.34568644886E+02 -0.29769215379E+02 -0.50676475381E+02  0.68185794393E+02  0.25500000000E-02 0.  1.
         -2    1    1    2  502    0  0.34568644886E+02  0.29769215379E+02 -0.45670628690E+02  0.64552333226E+02  0.25500000000E-02 0.  1.
<mgrwt>
<rscale>  0 0.91305236E+02</rscale>
<asrwt>0</asrwt>
<pdfrwt beam="2">  1        2 0.17621941E-01 0.91305236E+02</pdfrwt>
<pdfrwt beam="1">  1       -2 0.27993096E-02 0.91305236E+02</pdfrwt>
<totfact> 0.12746256E+05</totfact>
</mgrwt>
</event>
<event>
 4    1  0.4604841E-002  0.5859687E+02  0.7818608E-02  0.1403816E+00
         -2   -1    0    0  501    0 -0.00000000000E+00  0.00000000000E+00  0.51680848410E+03  0.51680848411E+03  0.25500000000E-02 0.  1.
          2   -1    0    0    0  501  0.00000000000E+00 -0.00000000000E+00 -0.16609594196E+01  0.16609613770E+01  0.25500000000E-02 0.  1.
          2    1    1    2    0  502  0.24820538919E+02  0.10758885053E+02  0.35712369587E+03  0.35814682313E+03  0.25500000000E-02 0.  1.
         -2    1    1    2  502    0 -0.24820538919E+02 -0.10758885053E+02  0.15802382882E+03  0.16032262236E+03  0.25500000000E-02 0.  1.
<mgrwt>
<rscale>  0 0.58596875E+02</rscale>
<asrwt>0</asrwt>
<pdfrwt beam="2">  1        2 0.25553239E-03 0.58596875E+02</pdfrwt>
<pdfrwt beam="1">  1       -2 0.79508990E-01 0.58596875E+02</pdfrwt>
<totfact> 0.10905559E+05</totfact>
</mgrwt>
</event>
<event>
 4    1  0.4604841E-002  0.1331229E+03  0.7818608E-02  0.1222894E+00
          2   -1    0    0    0  501  0.00000000000E+00  0.00000000000E+00  0.32396166405E+03  0.32396166406E+03  0.25500000000E-02 0.  1.
         -2   -1    0    0  501    0 -0.00000000000E+00 -0.00000000000E+00 -0.13675783170E+02  0.13675783407E+02  0.25500000000E-02 0.  1.
          2    1    1    2    0  502 -0.66461429886E+02 -0.16808160510E+01  0.16335466432E+03  0.17636522664E+03  0.25500000000E-02 0.  1.
         -2    1    1    2  502    0  0.66461429886E+02  0.16808160510E+01  0.14693121656E+03  0.16127222083E+03  0.25500000000E-02 0.  1.
<mgrwt>
<rscale>  0 0.13312294E+03</rscale>
<asrwt>0</asrwt>
<pdfrwt beam="1">  1        2 0.49840256E-01 0.13312294E+03</pdfrwt>
<pdfrwt beam="2">  1       -2 0.21039667E-02 0.13312294E+03</pdfrwt>
<totfact> 0.65967480E+04</totfact>
</mgrwt>
</event>
<event>
 4    1  0.4604841E-002  0.4477714E+02  0.7818608E-02  0.1475738E+00
         -2   -1    0    0  501    0 -0.00000000000E+00  0.00000000000E+00  0.25480962434E+00  0.25482238355E+00  0.25500000000E-02 0. -1.
          2   -1    0    0    0  501  0.00000000000E+00 -0.00000000000E+00 -0.19670981052E+04  0.19670981052E+04  0.25500000000E-02 0. -1.
          2    1    1    2    0  502 -0.20097907081E+02  0.96128470444E+01 -0.88601146072E+03  0.88629151030E+03  0.25500000000E-02 0. -1.
         -2    1    1    2  502    0  0.20097907081E+02 -0.96128470444E+01 -0.10808318349E+04  0.10810614173E+04  0.25500000000E-02 0. -1.
<mgrwt>
<rscale>  0 0.44777141E+02</rscale>
<asrwt>0</asrwt>
<pdfrwt beam="2">  1        2 0.30261832E+00 0.44777141E+02</pdfrwt>
<pdfrwt beam="1">  1       -2 0.39204037E-04 0.44777141E+02</pdfrwt>
<totfact> 0.12280750E+06</totfact>
</mgrwt>
</event>
<event>
 4    1  0.4604841E-002  0.7438112E+02  0.7818608E-02  0.1345798E+00
          2   -1    0    0    0  501  0.00000000000E+00  0.00000000000E+00  0.84945921916E+02  0.84945921954E+02  0.25500000000E-02 0. -1.
         -2   -1    0    0  501    0 -0.00000000000E+00 -0.00000000000E+00 -0.16282565769E+02  0.16282565968E+02  0.25500000000E-02 0. -1.
          2    1    1    2    0  502  0.29554856454E+02  0.21249907960E+02  0.44704302437E+02  0.57650002526E+02  0.25500000000E-02 0.  1.
         -2    1    1    2  502    0 -0.29554856454E+02 -0.21249907960E+02  0.23959053710E+02  0.43578485397E+02  0.25500000000E-02 0.  1.
<mgrwt>
<rscale>  0 0.74381115E+02</rscale>
<asrwt>0</asrwt>
<pdfrwt beam="1">  1        2 0.13068603E-01 0.74381115E+02</pdfrwt>
<pdfrwt beam="2">  1       -2 0.25050102E-02 0.74381115E+02</pdfrwt>
<totfact> 0.20365510E+05</totfact>
</mgrwt>
</event>
<event>
 4    1  0.4604841E-002  0.7366304E+02  0.7818608E-02  0.1348062E+00
          2   -1    0    0    0  501  0.00000000000E+00  0.00000000000E+00  0.82423182074E+03  0.82423182075E+03  0.25500000000E-02 0.  1.
         -2   -1    0    0  501    0 -0.00000000000E+00 -0.00000000000E+00 -0.16458476781E+01  0.16458496535E+01  0.25500000000E-02 0.  1.
          2    1    1    2    0  502  0.35842895027E+02 -0.80050186371E+01  0.44253965350E+03  0.44406096245E+03  0.25500000000E-02 0.  1.
         -2    1    1    2  502    0 -0.35842895027E+02  0.80050186371E+01  0.38004631956E+03  0.38181670795E+03  0.25500000000E-02 0.  1.
<mgrwt>
<rscale>  0 0.73663039E+02</rscale>
<asrwt>0</asrwt>
<pdfrwt beam="1">  1        2 0.12680469E+00 0.73663039E+02</pdfrwt>
<pdfrwt beam="2">  1       -2 0.25320790E-03 0.73663039E+02</pdfrwt>
<totfact> 0.42710957E+05</totfact>
</mgrwt>
</event>
<event>
 4    1  0.4604841E-002  0.5505385E+02  0.7818608E-02  0.1419844E+00
         -2   -1    0    0  501    0 -0.00000000000E+00  0.00000000000E+00  0.80871925871E+00  0.80872327895E+00  0.25500000000E-02 0.  1.
          2   -1    0    0    0  501  0.00000000000E+00 -0.00000000000E+00 -0.93695029433E+03  0.93695029434E+03  0.25500000000E-02 0.  1.
          2    1    1    2    0  502 -0.15443973929E+02 -0.22339219505E+02 -0.54457858065E+03  0.54525534162E+03  0.25500000000E-02 0.  1.
         -2    1    1    2  502    0  0.15443973929E+02  0.22339219505E+02 -0.39156299442E+03  0.39250367599E+03  0.25500000000E-02 0.  1.
<mgrwt>
<rscale>  0 0.55053851E+02</rscale>
<asrwt>0</asrwt>
<pdfrwt beam="2">  1        2 0.14414533E+00 0.55053851E+02</pdfrwt>
<pdfrwt beam="1">  1       -2 0.12441941E-03 0.55053851E+02</pdfrwt>
<totfact> 0.90797331E+05</totfact>
</mgrwt>
</event>
<event>
 4    1  0.4604841E-002  0.6040681E+02  0.7818608E-02  0.1396132E+00
         -2   -1    0    0  501    0 -0.00000000000E+00  0.00000000000E+00  0.15839597211E+02  0.15839597416E+02  0.25500000000E-02 0. -1.
          2   -1    0    0    0  501  0.00000000000E+00 -0.00000000000E+00 -0.57592731094E+02  0.57592731150E+02  0.25500000000E-02 0. -1.
          2    1    1    2    0  502  0.25501685069E+01  0.29847592382E+02 -0.25563216291E+02  0.39380961949E+02  0.25500000000E-02 0.  1.
         -2    1    1    2  502    0 -0.25501685069E+01 -0.29847592382E+02 -0.16189917591E+02  0.34051366617E+02  0.25500000000E-02 0.  1.
<mgrwt>
<rscale>  0 0.60406810E+02</rscale>
<asrwt>0</asrwt>
<pdfrwt beam="2">  1        2 0.88604201E-02 0.60406810E+02</pdfrwt>
<pdfrwt beam="1">  1       -2 0.24368612E-02 0.60406810E+02</pdfrwt>
<totfact> 0.32255585E+05</totfact>
</mgrwt>
</event>
<event>
 4    1  0.4604841E-002  0.5279372E+02  0.7818608E-02  0.1430830E+00
          2   -1    0    0    0  501  0.00000000000E+00  0.00000000000E+00  0.85857794262E+02  0.85857794300E+02  0.25500000000E-02 0. -1.
         -2   -1    0    0  501    0 -0.00000000000E+00 -0.00000000000E+00 -0.81156776608E+01  0.81156780614E+01  0.25500000000E-02 0. -1.
          2    1    1    2    0  502  0.23622778962E+01 -0.22233566051E+02  0.13894853869E+02  0.26324490247E+02  0.25500000000E-02 0.  1.
         -2    1    1    2  502    0 -0.23622778962E+01  0.22233566051E+02  0.63847262733E+02  0.67648982115E+02  0.25500000000E-02 0.  1.
<mgrwt>
<rscale>  0 0.52793719E+02</rscale>
<asrwt>0</asrwt>
<pdfrwt beam="1">  1        2 0.13208890E-01 0.52793719E+02</pdfrwt>
<pdfrwt beam="2">  1       -2 0.12485659E-02 0.52793719E+02</pdfrwt>
<totfact> 0.50163387E+05</totfact>
</mgrwt>
</event>
<event>
 4    1  0.4604841E-002  0.4235059E+02  0.7818608E-02  0.1491593E+00
         -2   -1    0    0  501    0 -0.00000000000E+00  0.00000000000E+00  0.16229517767E+01  0.16229537800E+01  0.25500000000E-02 0. -1.
          2   -1    0    0    0  501  0.00000000000E+00 -0.00000000000E+00 -0.27628234403E+03  0.27628234404E+03  0.25500000000E-02 0. -1.
          2    1    1    2    0  502 -0.10494911123E+02  0.17394844591E+02 -0.17652060407E+03  0.17768581104E+03  0.25500000000E-02 0. -1.
         -2    1    1    2  502    0  0.10494911123E+02 -0.17394844591E+02 -0.98138788180E+02  0.10021948678E+03  0.25500000000E-02 0. -1.
<mgrwt>
<rscale>  0 0.42350594E+02</rscale>
<asrwt>0</asrwt>
<pdfrwt beam="2">  1        2 0.42504939E-01 0.42350594E+02</pdfrwt>
<pdfrwt beam="1">  1       -2 0.24968526E-03 0.42350594E+02</pdfrwt>
<totfact> 0.12380276E+06</totfact>
</mgrwt>
</event>
<event>
 4    1  0.4604841E-002  0.4557525E+02  0.7818608E-02  0.1470782E+00
         -2   -1    0    0  501    0 -0.00000000000E+00  0.00000000000E+00  0.36286637316E+01  0.36286646276E+01  0.25500000000E-02 0.  1.
          2   -1    0    0    0  501  0.00000000000E+00 -0.00000000000E+00 -0.14310388581E+03  0.14310388584E+03  0.25500000000E-02 0.  1.
          2    1    1    2    0  502  0.22399631152E+02 -0.29261617323E+01 -0.79380221638E+02  0.82531966486E+02  0.25500000000E-02 0. -1.
         -2    1    1    2  502    0 -0.22399631152E+02  0.29261617323E+01 -0.60095000445E+02  0.64200583979E+02  0.25500000000E-02 0. -1.
<mgrwt>
<rscale>  0 0.45575254E+02</rscale>
<asrwt>0</asrwt>
<pdfrwt beam="2">  1        2 0.22015978E-01 0.45575254E+02</pdfrwt>
<pdfrwt beam="1">  1       -2 0.55825614E-03 0.45575254E+02</pdfrwt>
<totfact> 0.83477980E+05</totfact>
</mgrwt>
</event>
<event>
 4    1  0.4604841E-002  0.6245729E+02  0.7818608E-02  0.1387800E+00
          2   -1    0    0    0  501  0.00000000000E+00  0.00000000000E+00  0.18206197265E+01  0.18206215123E+01  0.25500000000E-02 0.  1.
         -2   -1    0    0  501    0 -0.00000000000E+00 -0.00000000000E+00 -0.53565704660E+03  0.53565704661E+03  0.25500000000E-02 0.  1.
          2    1    1    2    0  502 -0.23874168017E+02  0.20125568556E+02 -0.27089776806E+03  0.27269142846E+03  0.25500000000E-02 0. -1.
         -2    1    1    2  502    0  0.23874168017E+02 -0.20125568556E+02 -0.26293865881E+03  0.26478623966E+03  0.25500000000E-02 0. -1.
<mgrwt>
<rscale>  0 0.62457290E+02</rscale>
<asrwt>0</asrwt>
<pdfrwt beam="1">  1        2 0.28009591E-03 0.62457290E+02</pdfrwt>
<pdfrwt beam="2">  1       -2 0.82408651E-01 0.62457290E+02</pdfrwt>
<totfact> 0.90329171E+04</totfact>
</mgrwt>
</event>
<event>
 4    1  0.4604841E-002  0.6650676E+02  0.7818608E-02  0.1372392E+00
          2   -1    0    0    0  501  0.00000000000E+00  0.00000000000E+00  0.63560842053E+02  0.63560842104E+02  0.25500000000E-02 0. -1.
         -2   -1    0    0  501    0 -0.00000000000E+00 -0.00000000000E+00 -0.17397304818E+02  0.17397305005E+02  0.25500000000E-02 0. -1.
          2    1    1    2    0  502 -0.21573436544E+02  0.24046456452E+02  0.13485823208E+02  0.35007323038E+02  0.25500000000E-02 0.  1.
         -2    1    1    2  502    0  0.21573436544E+02 -0.24046456452E+02  0.32677714028E+02  0.45950824071E+02  0.25500000000E-02 0.  1.
<mgrwt>
<rscale>  0 0.66506762E+02</rscale>
<asrwt>0</asrwt>
<pdfrwt beam="1">  1        2 0.97785910E-02 0.66506762E+02</pdfrwt>
<pdfrwt beam="2">  1       -2 0.26765085E-02 0.66506762E+02</pdfrwt>
<totfact> 0.25548947E+05</totfact>
</mgrwt>
</event>
<event>
 4    1  0.4604841E-002  0.6195640E+02  0.7818608E-02  0.1389800E+00
          2   -1    0    0    0  501  0.00000000000E+00  0.00000000000E+00  0.80042597170E+03  0.80042597170E+03  0.25500000000E-02 0. -1.
         -2   -1    0    0  501    0 -0.00000000000E+00 -0.00000000000E+00 -0.11989211641E+01  0.11989238759E+01  0.25500000000E-02 0. -1.
          2    1    1    2    0  502  0.23082461545E+02 -0.39353138999E+01  0.66203364962E+03  0.66244761299E+03  0.25500000000E-02 0. -1.
         -2    1    1    2  502    0 -0.23082461545E+02  0.39353138999E+01  0.13719340092E+03  0.13917728259E+03  0.25500000000E-02 0. -1.
<mgrwt>
<rscale>  0 0.61956395E+02</rscale>
<asrwt>0</asrwt>
<pdfrwt beam="1">  1        2 0.12314264E+00 0.61956395E+02</pdfrwt>
<pdfrwt beam="2">  1       -2 0.18444935E-03 0.61956395E+02</pdfrwt>
<totfact> 0.66125682E+05</totfact>
</mgrwt>
</event>
<event>
 4    1  0.4604841E-002  0.4964536E+02  0.7818608E-02  0.1447264E+00
          2   -1    0    0    0  501  0.00000000000E+00  0.00000000000E+00  0.85476033970E+02  0.85476034008E+02  0.25500000000E-02 0. -1.
         -2   -1    0    0  501    0 -0.00000000000E+00 -0.00000000000E+00 -0.72086351591E+01  0.72086356101E+01  0.25500000000E-02 0. -1.
          2    1    1    2    0  502  0.55952718245E+01 -0.23990452640E+02  0.33435210894E+02  0.41530256665E+02  0.25500000000E-02 0.  1.
         -2    1    1    2  502    0 -0.55952718245E+01  0.23990452640E+02  0.44832187917E+02  0.51154412953E+02  0.25500000000E-02 0.  1.
<mgrwt>
<rscale>  0 0.49645365E+02</rscale>
<asrwt>0</asrwt>
<pdfrwt beam="1">  1        2 0.13150159E-01 0.49645365E+02</pdfrwt>
<pdfrwt beam="2">  1       -2 0.11090208E-02 0.49645365E+02</pdfrwt>
<totfact> 0.58607749E+05</totfact>
</mgrwt>
</event>
<event>
 4    1  0.4604841E-002  0.4692825E+02  0.7818608E-02  0.1462651E+00
          2   -1    0    0    0  501  0.00000000000E+00  0.00000000000E+00  0.13690946797E+01  0.13690970544E+01  0.25500000000E-02 0. -1.
         -2   -1    0    0  501    0 -0.00000000000E+00 -0.00000000000E+00 -0.40213776172E+03  0.40213776173E+03  0.25500000000E-02 0. -1.
          2    1    1    2    0  502 -0.14063565669E+02  0.18534985696E+02 -0.17425379118E+03  0.17580020854E+03  0.25500000000E-02 0. -1.
         -2    1    1    2  502    0  0.14063565669E+02 -0.18534985696E+02 -0.22651487586E+03  0.22770665025E+03  0.25500000000E-02 0. -1.
<mgrwt>
<rscale>  0 0.46928250E+02</rscale>
<asrwt>0</asrwt>
<pdfrwt beam="1">  1        2 0.21063045E-03 0.46928250E+02</pdfrwt>
<pdfrwt beam="2">  1       -2 0.61867254E-01 0.46928250E+02</pdfrwt>
<totfact> 0.22674120E+05</totfact>
</mgrwt>
</event>
<event>
 4    1  0.4604841E-002  0.6689050E+02  0.7818608E-02  0.1370998E+00
         -2   -1    0    0  501    0 -0.00000000000E+00  0.00000000000E+00  0.53586725475E+01  0.53586731542E+01  0.25500000000E-02 0.  1.
          2   -1    0    0    0  501  0.00000000000E+00 -0.00000000000E+00 -0.20874283808E+03  0.20874283810E+03  0.25500000000E-02 0.  1.
          2    1    1    2    0  502  0.19803654339E+02  0.24270074323E+02 -0.64178309542E+02  0.71414820976E+02  0.25500000000E-02 0.  1.
         -2    1    1    2  502    0 -0.19803654339E+02 -0.24270074323E+02 -0.13920585600E+03  0.14268669028E+03  0.25500000000E-02 0.  1.
<mgrwt>
<rscale>  0 0.66890495E+02</rscale>
<asrwt>0</asrwt>
<pdfrwt beam="2">  1        2 0.32114277E-01 0.66890495E+02</pdfrwt>
<pdfrwt beam="1">  1       -2 0.82441137E-03 0.66890495E+02</pdfrwt>
<totfact> 0.35584174E+05</totfact>
</mgrwt>
</event>
<event>
 4    1  0.4604841E-002  0.4751603E+02  0.7818608E-02  0.1459219E+00
         -2   -1    0    0  501    0 -0.00000000000E+00  0.00000000000E+00  0.68886188810E+03  0.68886188811E+03  0.25500000000E-02 0.  1.
          2   -1    0    0    0  501  0.00000000000E+00 -0.00000000000E+00 -0.81938330326E+00  0.81938727117E+00  0.25500000000E-02 0.  1.
          2    1    1    2    0  502 -0.10866778866E+02 -0.18004748677E+02  0.50446322696E+03  0.50490138168E+03  0.25500000000E-02 0. -1.
         -2    1    1    2  502    0  0.10866778866E+02  0.18004748677E+02  0.18357927784E+03  0.18477989370E+03  0.25500000000E-02 0. -1.
<mgrwt>
<rscale>  0 0.47516031E+02</rscale>
<asrwt>0</asrwt>
<pdfrwt beam="2">  1        2 0.12605942E-03 0.47516031E+02</pdfrwt>
<pdfrwt beam="1">  1       -2 0.10597863E+00 0.47516031E+02</pdfrwt>
<totfact> 0.14273841E+05</totfact>
</mgrwt>
</event>
<event>
 4    1  0.4604841E-002  0.4415656E+02  0.7818608E-02  0.1479677E+00
          2   -1    0    0    0  501  0.00000000000E+00  0.00000000000E+00  0.20243649038E+03  0.20243649040E+03  0.25500000000E-02 0. -1.
         -2   -1    0    0  501    0 -0.00000000000E+00 -0.00000000000E+00 -0.24079166849E+01  0.24079180351E+01  0.25500000000E-02 0. -1.
          2    1    1    2    0  502 -0.17860799247E+02 -0.12916947636E+02  0.94156121071E+02  0.96701762277E+02  0.25500000000E-02 0. -1.
         -2    1    1    2  502    0  0.17860799247E+02  0.12916947636E+02  0.10587245263E+03  0.10814264616E+03  0.25500000000E-02 0. -1.
<mgrwt>
<rscale>  0 0.44156555E+02</rscale>
<asrwt>0</asrwt>
<pdfrwt beam="1">  1        2 0.31144088E-01 0.44156555E+02</pdfrwt>
<pdfrwt beam="2">  1       -2 0.37044868E-03 0.44156555E+02</pdfrwt>
<totfact> 0.10064612E+06</totfact>
</mgrwt>
</event>
<event>
 4    1  0.4604841E-002  0.4120712E+02  0.7818608E-02  0.1499512E+00
         -2   -1    0    0  501    0 -0.00000000000E+00  0.00000000000E+00  0.58172144264E+00  0.58172703163E+00  0.25500000000E-02 0.  1.
          2   -1    0    0    0  501  0.00000000000E+00 -0.00000000000E+00 -0.72973861639E+03  0.72973861639E+03  0.25500000000E-02 0.  1.
          2    1    1    2    0  502  0.19396443018E+02  0.51507395066E+01 -0.28191454871E+03  0.28262796199E+03  0.25500000000E-02 0. -1.
         -2    1    1    2  502    0 -0.19396443018E+02 -0.51507395066E+01 -0.44724234624E+03  0.44769238144E+03  0.25500000000E-02 0. -1.
<mgrwt>
<rscale>  0 0.41207118E+02</rscale>
<asrwt>0</asrwt>
<pdfrwt beam="2">  1        2 0.11226675E+00 0.41207118E+02</pdfrwt>
<pdfrwt beam="1">  1       -2 0.89496621E-04 0.41207118E+02</pdfrwt>
<totfact> 0.17795766E+06</totfact>
</mgrwt>
</event>
<event>
 4    1  0.4604841E-002  0.5155125E+02  0.7818608E-02  0.1437150E+00
          2   -1    0    0    0  501  0.00000000000E+00  0.00000000000E+00  0.30329133096E+02  0.30329133203E+02  0.25500000000E-02 0. -1.
         -2   -1    0    0  501    0 -0.00000000000E+00 -0.00000000000E+00 -0.21905762390E+02  0.21905762538E+02  0.25500000000E-02 0. -1.
          2    1    1    2    0  502 -0.16578087978E+02 -0.16496860384E+02 -0.67672909886E+01  0.24346984153E+02  0.25500000000E-02 0.  1.
         -2    1    1    2  502    0  0.16578087978E+02  0.16496860384E+02  0.15190661694E+02  0.27887911588E+02  0.25500000000E-02 0.  1.
<mgrwt>
<rscale>  0 0.51551248E+02</rscale>
<asrwt>0</asrwt>
<pdfrwt beam="1">  1        2 0.46660205E-02 0.51551248E+02</pdfrwt>
<pdfrwt beam="2">  1       -2 0.33701173E-02 0.51551248E+02</pdfrwt>
<totfact> 0.43407593E+05</totfact>
</mgrwt>
</event>
<event>
 4    1  0.4604841E-002  0.4216030E+02  0.7818608E-02  0.1492890E+00
         -2   -1    0    0  501    0 -0.00000000000E+00  0.00000000000E+00  0.19952799388E+00  0.19954428792E+00  0.25500000000E-02 0.  1.
          2   -1    0    0    0  501  0.00000000000E+00 -0.00000000000E+00 -0.22270290822E+04  0.22270290822E+04  0.25500000000E-02 0.  1.
          2    1    1    2    0  502  0.13570474408E+02 -0.15006018956E+02 -0.14261007842E+04  0.14262442937E+04  0.25500000000E-02 0. -1.
         -2    1    1    2  502    0 -0.13570474408E+02  0.15006018956E+02 -0.80072876997E+03  0.80098433283E+03  0.25500000000E-02 0. -1.
<mgrwt>
<rscale>  0 0.42160303E+02</rscale>
<asrwt>0</asrwt>
<pdfrwt beam="2">  1        2 0.34259996E+00 0.42160303E+02</pdfrwt>
<pdfrwt beam="1">  1       -2 0.30699651E-04 0.42160303E+02</pdfrwt>
<totfact> 0.12572445E+06</totfact>
</mgrwt>
</event>
<event>
 4    1  0.4604841E-002  0.4045036E+02  0.7818608E-02  0.1504923E+00
         -2   -1    0    0  501    0 -0.00000000000E+00  0.00000000000E+00  0.27881908485E+00  0.27883074539E+00  0.25500000000E-02 0. -1.
          2   -1    0    0    0  501  0.00000000000E+00 -0.00000000000E+00 -0.14670778281E+04  0.14670778281E+04  0.25500000000E-02 0. -1.
          2    1    1    2    0  502  0.10481921304E+02  0.17079272006E+02 -0.83264888989E+03  0.83288999637E+03  0.25500000000E-02 0.  1.
         -2    1    1    2  502    0 -0.10481921304E+02 -0.17079272006E+02 -0.63415011915E+03  0.63446666250E+03  0.25500000000E-02 0.  1.
<mgrwt>
<rscale>  0 0.40450357E+02</rscale>
<asrwt>0</asrwt>
<pdfrwt beam="2">  1        2 0.22569810E+00 0.40450357E+02</pdfrwt>
<pdfrwt beam="1">  1       -2 0.42897315E-04 0.40450357E+02</pdfrwt>
<totfact> 0.18561687E+06</totfact>
</mgrwt>
</event>
<event>
 4    1  0.4604841E-002  0.6646645E+02  0.7818608E-02  0.1372539E+00
         -2   -1    0    0  501    0 -0.00000000000E+00  0.00000000000E+00  0.54609060035E+00  0.54609655400E+00  0.25500000000E-02 0.  1.
          2   -1    0    0    0  501  0.00000000000E+00 -0.00000000000E+00 -0.20224502854E+04  0.20224502854E+04  0.25500000000E-02 0.  1.
          2    1    1    2    0  502 -0.28445657793E+02  0.12576973776E+02 -0.65455889131E+03  0.65529739654E+03  0.25500000000E-02 0.  1.
         -2    1    1    2  502    0  0.28445657793E+02 -0.12576973776E+02 -0.13673453035E+04  0.13676989854E+04  0.25500000000E-02 0.  1.
<mgrwt>
<rscale>  0 0.66466446E+02</rscale>
<asrwt>0</asrwt>
<pdfrwt beam="2">  1        2 0.31114020E+00 0.66466446E+02</pdfrwt>
<pdfrwt beam="1">  1       -2 0.84016016E-04 0.66466446E+02</pdfrwt>
<totfact> 0.44356632E+05</totfact>
</mgrwt>
</event>
<event>
 4    1  0.4604841E-002  0.1474695E+03  0.7818608E-02  0.1203617E+00
          2   -1    0    0    0  501  0.00000000000E+00  0.00000000000E+00  0.33852951385E+03  0.33852951386E+03  0.25500000000E-02 0.  1.
         -2   -1    0    0  501    0 -0.00000000000E+00 -0.00000000000E+00 -0.16060076842E+02  0.16060077044E+02  0.25500000000E-02 0.  1.
          2    1    1    2    0  502  0.29055568120E+02 -0.23598513439E+02  0.84840813479E+01  0.38380926489E+02  0.25500000000E-02 0.  1.
         -2    1    1    2  502    0 -0.29055568120E+02  0.23598513439E+02  0.31398535566E+03  0.31620866441E+03  0.25500000000E-02 0.  1.
<mgrwt>
<rscale>  0 0.14746946E+03</rscale>
<asrwt>0</asrwt>
<pdfrwt beam="1">  1        2 0.52081462E-01 0.14746946E+03</pdfrwt>
<pdfrwt beam="2">  1       -2 0.24707811E-02 0.14746946E+03</pdfrwt>
<totfact> 0.50400488E+04</totfact>
</mgrwt>
</event>
<event>
 4    1  0.4604841E-002  0.5194165E+02  0.7818608E-02  0.1435142E+00
          2   -1    0    0    0  501  0.00000000000E+00  0.00000000000E+00  0.41601527575E+03  0.41601527576E+03  0.25500000000E-02 0. -1.
         -2   -1    0    0  501    0 -0.00000000000E+00 -0.00000000000E+00 -0.16212943188E+01  0.16212963242E+01  0.25500000000E-02 0. -1.
          2    1    1    2    0  502  0.21728036888E+02  0.13539535966E+02  0.24229722711E+03  0.24364599913E+03  0.25500000000E-02 0.  1.
         -2    1    1    2  502    0 -0.21728036888E+02 -0.13539535966E+02  0.17209675432E+03  0.17399057295E+03  0.25500000000E-02 0.  1.
<mgrwt>
<rscale>  0 0.51941645E+02</rscale>
<asrwt>0</asrwt>
<pdfrwt beam="1">  1        2 0.64002341E-01 0.51941645E+02</pdfrwt>
<pdfrwt beam="2">  1       -2 0.24943009E-03 0.51941645E+02</pdfrwt>
<totfact> 0.86105938E+05</totfact>
</mgrwt>
</event>
<event>
 4    1  0.4604841E-002  0.5712549E+02  0.7818608E-02  0.1410307E+00
          2   -1    0    0    0  501  0.00000000000E+00  0.00000000000E+00  0.13977489554E+03  0.13977489557E+03  0.25500000000E-02 0.  1.
         -2   -1    0    0  501    0 -0.00000000000E+00 -0.00000000000E+00 -0.58367453091E+01  0.58367458661E+01  0.25500000000E-02 0.  1.
          2    1    1    2    0  502  0.13603848622E+02 -0.24838024147E+02  0.76451260800E+02  0.81527832212E+02  0.25500000000E-02 0. -1.
         -2    1    1    2  502    0 -0.13603848622E+02  0.24838024147E+02  0.57486889435E+02  0.64083809221E+02  0.25500000000E-02 0. -1.
<mgrwt>
<rscale>  0 0.57125494E+02</rscale>
<asrwt>0</asrwt>
<pdfrwt beam="1">  1        2 0.21503833E-01 0.57125494E+02</pdfrwt>
<pdfrwt beam="2">  1       -2 0.89796076E-03 0.57125494E+02</pdfrwt>
<totfact> 0.46871740E+05</totfact>
</mgrwt>
</event>
<event>
 4    1  0.4604841E-002  0.5966852E+02  0.7818608E-02  0.1399228E+00
         -2   -1    0    0  501    0 -0.00000000000E+00  0.00000000000E+00  0.28792100433E+01  0.28792111725E+01  0.25500000000E-02 0. -1.
          2   -1    0    0    0  501  0.00000000000E+00 -0.00000000000E+00 -0.30914138378E+03  0.30914138379E+03  0.25500000000E-02 0. -1.
          2    1    1    2    0  502 -0.10965527716E+00 -0.21661362423E+02 -0.26040768537E+03  0.26130707846E+03  0.25500000000E-02 0.  1.
         -2    1    1    2  502    0  0.10965527716E+00  0.21661362423E+02 -0.45854488362E+02  0.50713516500E+02  0.25500000000E-02 0.  1.
<mgrwt>
<rscale>  0 0.59668523E+02</rscale>
<asrwt>0</asrwt>
<pdfrwt beam="2">  1        2 0.47560187E-01 0.59668523E+02</pdfrwt>
<pdfrwt beam="1">  1       -2 0.44295572E-03 0.59668523E+02</pdfrwt>
<totfact> 0.54798924E+05</totfact>
</mgrwt>
</event>
<event>
 4    1  0.4604841E-002  0.1028297E+03  0.7818608E-02  0.1274456E+00
          2   -1    0    0    0  501  0.00000000000E+00  0.00000000000E+00  0.48335504842E+03  0.48335504843E+03  0.25500000000E-02 0.  1.
         -2   -1    0    0  501    0 -0.00000000000E+00 -0.00000000000E+00 -0.54690339256E+01  0.54690345200E+01  0.25500000000E-02 0.  1.
          2    1    1    2    0  502  0.13917405738E+02 -0.35863546608E+02  0.76786093165E+02  0.85883597199E+02  0.25500000000E-02 0. -1.
         -2    1    1    2  502    0 -0.13917405738E+02  0.35863546608E+02  0.40109992133E+03  0.40294048575E+03  0.25500000000E-02 0. -1.
<mgrwt>
<rscale>  0 0.10282967E+03</rscale>
<asrwt>0</asrwt>
<pdfrwt beam="1">  1        2 0.74362318E-01 0.10282967E+03</pdfrwt>
<pdfrwt beam="2">  1       -2 0.84138985E-03 0.10282967E+03</pdfrwt>
<totfact> 0.15467098E+05</totfact>
</mgrwt>
</event>
<event>
 4    1  0.4604841E-002  0.1417103E+03  0.7818608E-02  0.1211046E+00
          2   -1    0    0    0  501  0.00000000000E+00  0.00000000000E+00  0.53058921770E+03  0.53058921771E+03  0.25500000000E-02 0.  1.
         -2   -1    0    0  501    0 -0.00000000000E+00 -0.00000000000E+00 -0.94620309259E+01  0.94620312695E+01  0.25500000000E-02 0.  1.
          2    1    1    2    0  502 -0.65906691876E+02  0.19127855625E+02  0.19336915728E+03  0.20518576434E+03  0.25500000000E-02 0. -1.
         -2    1    1    2  502    0  0.65906691876E+02 -0.19127855625E+02  0.32775802950E+03  0.33486548464E+03  0.25500000000E-02 0. -1.
<mgrwt>
<rscale>  0 0.14171029E+03</rscale>
<asrwt>0</asrwt>
<pdfrwt beam="1">  1        2 0.81629123E-01 0.14171029E+03</pdfrwt>
<pdfrwt beam="2">  1       -2 0.14556969E-02 0.14171029E+03</pdfrwt>
<totfact> 0.66573319E+04</totfact>
</mgrwt>
</event>
<event>
 4    1  0.4604841E-002  0.6533055E+02  0.7818608E-02  0.1376732E+00
         -2   -1    0    0  501    0 -0.00000000000E+00  0.00000000000E+00  0.48029292282E+01  0.48029299052E+01  0.25500000000E-02 0. -1.
          2   -1    0    0    0  501  0.00000000000E+00 -0.00000000000E+00 -0.22216026121E+03  0.22216026122E+03  0.25500000000E-02 0. -1.
          2    1    1    2    0  502 -0.20606379297E+02  0.93412750178E-01 -0.19673041979E+03  0.19780669774E+03  0.25500000000E-02 0. -1.
         -2    1    1    2  502    0  0.20606379297E+02 -0.93412750178E-01 -0.20626912190E+02  0.29156493388E+02  0.25500000000E-02 0. -1.
<mgrwt>
<rscale>  0 0.65330547E+02</rscale>
<asrwt>0</asrwt>
<pdfrwt beam="2">  1        2 0.34178494E-01 0.65330547E+02</pdfrwt>
<pdfrwt beam="1">  1       -2 0.73891241E-03 0.65330547E+02</pdfrwt>
<totfact> 0.38653141E+05</totfact>
</mgrwt>
</event>
<event>
 4    1  0.4604841E-002  0.9542679E+02  0.7818608E-02  0.1290218E+00
         -2   -1    0    0  501    0 -0.00000000000E+00  0.00000000000E+00  0.41446717318E+01  0.41446725163E+01  0.25500000000E-02 0. -1.
          2   -1    0    0    0  501  0.00000000000E+00 -0.00000000000E+00 -0.54927573580E+03  0.54927573581E+03  0.25500000000E-02 0. -1.
          2    1    1    2    0  502  0.40740000104E+02 -0.24778376952E+02 -0.28235995860E+03  0.28635792603E+03  0.25500000000E-02 0. -1.
         -2    1    1    2  502    0 -0.40740000104E+02  0.24778376952E+02 -0.26277110547E+03  0.26706248230E+03  0.25500000000E-02 0. -1.
<mgrwt>
<rscale>  0 0.95426785E+02</rscale>
<asrwt>0</asrwt>
<pdfrwt beam="2">  1        2 0.84503902E-01 0.95426785E+02</pdfrwt>
<pdfrwt beam="1">  1       -2 0.63764230E-03 0.95426785E+02</pdfrwt>
<totfact> 0.19673338E+05</totfact>
</mgrwt>
</event>
<event>
 4    1  0.4604841E-002  0.6614147E+02  0.7818608E-02  0.1373728E+00
         -2   -1    0    0  501    0 -0.00000000000E+00  0.00000000000E+00  0.12236873024E+01  0.12236899594E+01  0.25500000000E-02 0. -1.
          2   -1    0    0    0  501  0.00000000000E+00 -0.00000000000E+00 -0.89375145831E+03  0.89375145831E+03  0.25500000000E-02 0. -1.
          2    1    1    2    0  502 -0.29534973206E+02  0.62306505574E+00 -0.24512111632E+03  0.24689484507E+03  0.25500000000E-02 0.  1.
         -2    1    1    2  502    0  0.29534973206E+02 -0.62306505574E+00 -0.64740665469E+03  0.64808030320E+03  0.25500000000E-02 0.  1.
<mgrwt>
<rscale>  0 0.66141470E+02</rscale>
<asrwt>0</asrwt>
<pdfrwt beam="2">  1        2 0.13749970E+00 0.66141470E+02</pdfrwt>
<pdfrwt beam="1">  1       -2 0.18826050E-03 0.66141470E+02</pdfrwt>
<totfact> 0.56908736E+05</totfact>
</mgrwt>
</event>
<event>
 4    1  0.4604841E-002  0.1645127E+03  0.7818608E-02  0.1183694E+00
         -2   -1    0    0  501    0 -0.00000000000E+00  0.00000000000E+00  0.66171132338E+02  0.66171132388E+02  0.25500000000E-02 0.  1.
          2   -1    0    0    0  501  0.00000000000E+00 -0.00000000000E+00 -0.10225160460E+03  0.10225160464E+03  0.25500000000E-02 0.  1.
          2    1    1    2    0  502 -0.76222447735E+02  0.12616792166E+02  0.10863017945E+02  0.78019549785E+02  0.25500000000E-02 0. -1.
         -2    1    1    2  502    0  0.76222447735E+02 -0.12616792166E+02 -0.46943490211E+02  0.90403187239E+02  0.25500000000E-02 0. -1.
<mgrwt>
<rscale>  0 0.16451267E+03</rscale>
<asrwt>0</asrwt>
<pdfrwt beam="2">  1        2 0.15731016E-01 0.16451267E+03</pdfrwt>
<pdfrwt beam="1">  1       -2 0.10180174E-01 0.16451267E+03</pdfrwt>
<totfact> 0.22381840E+04</totfact>
</mgrwt>
</event>
<event>
 4    1  0.4604841E-002  0.7879014E+02  0.7818608E-02  0.1332520E+00
         -2   -1    0    0  501    0 -0.00000000000E+00  0.00000000000E+00  0.22742623439E+01  0.22742637735E+01  0.25500000000E-02 0. -1.
          2   -1    0    0    0  501  0.00000000000E+00 -0.00000000000E+00 -0.68240626419E+03  0.68240626419E+03  0.25500000000E-02 0. -1.
          2    1    1    2    0  502  0.16657232519E+02  0.34908120924E+02 -0.27507658607E+03  0.27778259216E+03  0.25500000000E-02 0. -1.
         -2    1    1    2  502    0 -0.16657232519E+02 -0.34908120924E+02 -0.40505541578E+03  0.40689793580E+03  0.25500000000E-02 0. -1.
<mgrwt>
<rscale>  0 0.78790135E+02</rscale>
<asrwt>0</asrwt>
<pdfrwt beam="2">  1        2 0.10498542E+00 0.78790135E+02</pdfrwt>
<pdfrwt beam="1">  1       -2 0.34988717E-03 0.78790135E+02</pdfrwt>
<totfact> 0.34547864E+05</totfact>
</mgrwt>
</event>
<event>
 4    1  0.4604841E-002  0.1029997E+03  0.7818608E-02  0.1274112E+00
         -2   -1    0    0  501    0 -0.00000000000E+00  0.00000000000E+00  0.12927408103E+02  0.12927408355E+02  0.25500000000E-02 0.  1.
          2   -1    0    0    0  501  0.00000000000E+00 -0.00000000000E+00 -0.20516355221E+03  0.20516355223E+03  0.25500000000E-02 0.  1.
          2    1    1    2    0  502  0.34758369178E+02 -0.34760162310E+02 -0.12863369196E+03  0.13770635362E+03  0.25500000000E-02 0.  1.
         -2    1    1    2  502    0 -0.34758369178E+02  0.34760162310E+02 -0.63602452146E+02  0.80384606967E+02  0.25500000000E-02 0.  1.
<mgrwt>
<rscale>  0 0.10299967E+03</rscale>
<asrwt>0</asrwt>
<pdfrwt beam="2">  1        2 0.31563621E-01 0.10299967E+03</pdfrwt>
<pdfrwt beam="1">  1       -2 0.19888322E-02 0.10299967E+03</pdfrwt>
<totfact> 0.11216385E+05</totfact>
</mgrwt>
</event>
<event>
 4    1  0.4604841E-002  0.4192656E+02  0.7818608E-02  0.1494494E+00
         -2   -1    0    0  501    0 -0.00000000000E+00  0.00000000000E+00  0.17623541908E+01  0.17623560356E+01  0.25500000000E-02 0. -1.
          2   -1    0    0    0  501  0.00000000000E+00 -0.00000000000E+00 -0.24935898061E+03  0.24935898062E+03  0.25500000000E-02 0. -1.
          2    1    1    2    0  502  0.19148363829E+02  0.68006463362E+01 -0.92935871173E+02  0.95131407985E+02  0.25500000000E-02 0. -1.
         -2    1    1    2  502    0 -0.19148363829E+02 -0.68006463362E+01 -0.15466075525E+03  0.15598992867E+03  0.25500000000E-02 0. -1.
<mgrwt>
<rscale>  0 0.41926559E+02</rscale>
<asrwt>0</asrwt>
<pdfrwt beam="2">  1        2 0.38362892E-01 0.41926559E+02</pdfrwt>
<pdfrwt beam="1">  1       -2 0.27113176E-03 0.41926559E+02</pdfrwt>
<totfact> 0.12251825E+06</totfact>
</mgrwt>
</event>
<event>
 4    1  0.4604841E-002  0.8523059E+02  0.7818608E-02  0.1314831E+00
         -2   -1    0    0  501    0 -0.00000000000E+00  0.00000000000E+00  0.79437133116E+01  0.79437137209E+01  0.25500000000E-02 0.  1.
          2   -1    0    0    0  501  0.00000000000E+00 -0.00000000000E+00 -0.22861641124E+03  0.22861641126E+03  0.25500000000E-02 0.  1.
          2    1    1    2    0  502 -0.38282324628E+02 -0.17281897196E+02 -0.90348109089E+02  0.99634236948E+02  0.25500000000E-02 0.  1.
         -2    1    1    2  502    0  0.38282324628E+02  0.17281897196E+02 -0.13032458884E+03  0.13692588803E+03  0.25500000000E-02 0.  1.
<mgrwt>
<rscale>  0 0.85230588E+02</rscale>
<asrwt>0</asrwt>
<pdfrwt beam="2">  1        2 0.35171751E-01 0.85230588E+02</pdfrwt>
<pdfrwt beam="1">  1       -2 0.12221099E-02 0.85230588E+02</pdfrwt>
<totfact> 0.19447625E+05</totfact>
</mgrwt>
</event>
<event>
 4    1  0.4604841E-002  0.4949240E+02  0.7818608E-02  0.1448099E+00
         -2   -1    0    0  501    0 -0.00000000000E+00  0.00000000000E+00  0.36687315031E+03  0.36687315032E+03  0.25500000000E-02 0. -1.
          2   -1    0    0    0  501  0.00000000000E+00 -0.00000000000E+00 -0.16691708242E+01  0.16691727720E+01  0.25500000000E-02 0. -1.
          2    1    1    2    0  502 -0.27586632856E+00  0.23343476737E+02  0.24372649721E+03  0.24484198875E+03  0.25500000000E-02 0.  1.
         -2    1    1    2  502    0  0.27586632856E+00 -0.23343476737E+02  0.12147748228E+03  0.12370033434E+03  0.25500000000E-02 0.  1.
<mgrwt>
<rscale>  0 0.49492396E+02</rscale>
<asrwt>0</asrwt>
<pdfrwt beam="2">  1        2 0.25679572E-03 0.49492396E+02</pdfrwt>
<pdfrwt beam="1">  1       -2 0.56442011E-01 0.49492396E+02</pdfrwt>
<totfact> 0.21136795E+05</totfact>
</mgrwt>
</event>
<event>
 4    1  0.4604841E-002  0.5080455E+02  0.7818608E-02  0.1441050E+00
         -2   -1    0    0  501    0 -0.00000000000E+00  0.00000000000E+00  0.56964018857E+03  0.56964018858E+03  0.25500000000E-02 0. -1.
          2   -1    0    0    0  501  0.00000000000E+00 -0.00000000000E+00 -0.11327759813E+01  0.11327788514E+01  0.25500000000E-02 0. -1.
          2    1    1    2    0  502 -0.19712344889E+02  0.10187611126E+02  0.42317889015E+03  0.42376023532E+03  0.25500000000E-02 0. -1.
         -2    1    1    2  502    0  0.19712344889E+02 -0.10187611126E+02  0.14532852243E+03  0.14701273210E+03  0.25500000000E-02 0. -1.
<mgrwt>
<rscale>  0 0.50804549E+02</rscale>
<asrwt>0</asrwt>
<pdfrwt beam="2">  1        2 0.17427349E-03 0.50804549E+02</pdfrwt>
<pdfrwt beam="1">  1       -2 0.87636934E-01 0.50804549E+02</pdfrwt>
<totfact> 0.14348381E+05</totfact>
</mgrwt>
</event>
<event>
 4    1  0.4604841E-002  0.6957081E+02  0.7818608E-02  0.1361559E+00
          2   -1    0    0    0  501  0.00000000000E+00  0.00000000000E+00  0.80533585253E+03  0.80533585253E+03  0.25500000000E-02 0.  1.
         -2   -1    0    0  501    0 -0.00000000000E+00 -0.00000000000E+00 -0.15025080276E+01  0.15025101915E+01  0.25500000000E-02 0.  1.
          2    1    1    2    0  502  0.30343479642E+02  0.16305158222E+02  0.34576874430E+03  0.34748037280E+03  0.25500000000E-02 0.  1.
         -2    1    1    2  502    0 -0.30343479642E+02 -0.16305158222E+02  0.45806460021E+03  0.45935798993E+03  0.25500000000E-02 0.  1.
<mgrwt>
<rscale>  0 0.69570812E+02</rscale>
<asrwt>0</asrwt>
<pdfrwt beam="1">  1        2 0.12389781E+00 0.69570812E+02</pdfrwt>
<pdfrwt beam="2">  1       -2 0.23115527E-03 0.69570812E+02</pdfrwt>
<totfact> 0.49280753E+05</totfact>
</mgrwt>
</event>
<event>
 4    1  0.4604841E-002  0.8752459E+02  0.7818608E-02  0.1308959E+00
         -2   -1    0    0  501    0 -0.00000000000E+00  0.00000000000E+00  0.75820898855E+00  0.75821327660E+00  0.25500000000E-02 0. -1.
          2   -1    0    0    0  501  0.00000000000E+00 -0.00000000000E+00 -0.25258644546E+04  0.25258644546E+04  0.25500000000E-02 0. -1.
          2    1    1    2    0  502  0.40988882202E+02  0.14157208913E+02 -0.14324149864E+04  0.14330712503E+04  0.25500000000E-02 0.  1.
         -2    1    1    2  502    0 -0.40988882202E+02 -0.14157208913E+02 -0.10926912592E+04  0.10935514176E+04  0.25500000000E-02 0.  1.
<mgrwt>
<rscale>  0 0.87524592E+02</rscale>
<asrwt>0</asrwt>
<pdfrwt beam="2">  1        2 0.38858780E+00 0.87524592E+02</pdfrwt>
<pdfrwt beam="1">  1       -2 0.11664989E-03 0.87524592E+02</pdfrwt>
<totfact> 0.16276143E+05</totfact>
</mgrwt>
</event>
<event>
 4    1  0.4604841E-002  0.4082465E+02  0.7818608E-02  0.1502229E+00
          2   -1    0    0    0  501  0.00000000000E+00  0.00000000000E+00  0.90326403939E+00  0.90326763883E+00  0.25500000000E-02 0. -1.
         -2   -1    0    0  501    0 -0.00000000000E+00 -0.00000000000E+00 -0.46128494118E+03  0.46128494119E+03  0.25500000000E-02 0. -1.
          2    1    1    2    0  502  0.16532339657E+02  0.11539041947E+02 -0.26633964300E+03  0.26710161584E+03  0.25500000000E-02 0.  1.
         -2    1    1    2  502    0 -0.16532339657E+02 -0.11539041947E+02 -0.19404203414E+03  0.19508659299E+03  0.25500000000E-02 0.  1.
<mgrwt>
<rscale>  0 0.40824646E+02</rscale>
<asrwt>0</asrwt>
<pdfrwt beam="1">  1        2 0.13896434E-03 0.40824646E+02</pdfrwt>
<pdfrwt beam="2">  1       -2 0.70966726E-01 0.40824646E+02</pdfrwt>
<totfact> 0.28828526E+05</totfact>
</mgrwt>
</event>
<event>
 4    1  0.4604841E-002  0.5883920E+02  0.7818608E-02  0.1402769E+00
         -2   -1    0    0  501    0 -0.00000000000E+00  0.00000000000E+00  0.10305991742E+01  0.10306023289E+01  0.25500000000E-02 0.  1.
          2   -1    0    0    0  501  0.00000000000E+00 -0.00000000000E+00 -0.83981392986E+03  0.83981392986E+03  0.25500000000E-02 0.  1.
          2    1    1    2    0  502 -0.20882760290E+02 -0.52158304674E+01 -0.13278924334E+03  0.13452240601E+03  0.25500000000E-02 0. -1.
         -2    1    1    2  502    0  0.20882760290E+02  0.52158304674E+01 -0.70599408734E+03  0.70632212618E+03  0.25500000000E-02 0. -1.
<mgrwt>
<rscale>  0 0.58839200E+02</rscale>
<asrwt>0</asrwt>
<pdfrwt beam="2">  1        2 0.12920160E+00 0.58839200E+02</pdfrwt>
<pdfrwt beam="1">  1       -2 0.15855463E-03 0.58839200E+02</pdfrwt>
<totfact> 0.75895751E+05</totfact>
</mgrwt>
</event>
<event>
 4    1  0.4604841E-002  0.1065596E+03  0.7818608E-02  0.1267077E+00
         -2   -1    0    0  501    0 -0.00000000000E+00  0.00000000000E+00  0.59321144498E+01  0.59321149979E+01  0.25500000000E-02 0. -1.
          2   -1    0    0    0  501  0.00000000000E+00 -0.00000000000E+00 -0.47853682043E+03  0.47853682043E+03  0.25500000000E-02 0. -1.
          2    1    1    2    0  502 -0.24197452349E+02  0.18034514272E+02 -0.36673101957E+02  0.47493966131E+02  0.25500000000E-02 0. -1.
         -2    1    1    2  502    0  0.24197452349E+02 -0.18034514272E+02 -0.43593160402E+03  0.43697496930E+03  0.25500000000E-02 0. -1.
<mgrwt>
<rscale>  0 0.10655957E+03</rscale>
<asrwt>0</asrwt>
<pdfrwt beam="2">  1        2 0.73621019E-01 0.10655957E+03</pdfrwt>
<pdfrwt beam="1">  1       -2 0.91263341E-03 0.10655957E+03</pdfrwt>
<totfact> 0.14008082E+05</totfact>
</mgrwt>
</event>
<event>
 4    1  0.4604841E-002  0.7238575E+02  0.7818608E-02  0.1352163E+00
          2   -1    0    0    0  501  0.00000000000E+00  0.00000000000E+00  0.99554996806E+03  0.99554996807E+03  0.25500000000E-02 0.  1.
         -2   -1    0    0  501    0 -0.00000000000E+00 -0.00000000000E+00 -0.13157782474E+01  0.13157807184E+01  0.25500000000E-02 0.  1.
          2    1    1    2    0  502 -0.65944511230E+01 -0.29122560508E+02  0.77878329906E+03  0.77935552684E+03  0.25500000000E-02 0.  1.
         -2    1    1    2  502    0  0.65944511230E+01  0.29122560508E+02  0.21545089075E+03  0.21751022194E+03  0.25500000000E-02 0.  1.
<mgrwt>
<rscale>  0 0.72385751E+02</rscale>
<asrwt>0</asrwt>
<pdfrwt beam="1">  1        2 0.15316177E+00 0.72385751E+02</pdfrwt>
<pdfrwt beam="2">  1       -2 0.20242730E-03 0.72385751E+02</pdfrwt>
<totfact> 0.45573317E+05</totfact>
</mgrwt>
</event>
<event>
 4    1  0.4604841E-002  0.4363795E+02  0.7818608E-02  0.1483028E+00
          2   -1    0    0    0  501  0.00000000000E+00  0.00000000000E+00  0.16992421657E+03  0.16992421659E+03  0.25500000000E-02 0.  1.
         -2   -1    0    0  501    0 -0.00000000000E+00 -0.00000000000E+00 -0.28016466822E+01  0.28016478427E+01  0.25500000000E-02 0.  1.
          2    1    1    2    0  502  0.16487124439E+02  0.14023479042E+02  0.94462020628E+02  0.96910043774E+02  0.25500000000E-02 0. -1.
         -2    1    1    2  502    0 -0.16487124439E+02 -0.14023479042E+02  0.72660549261E+02  0.75815820658E+02  0.25500000000E-02 0. -1.
<mgrwt>
<rscale>  0 0.43637952E+02</rscale>
<asrwt>0</asrwt>
<pdfrwt beam="1">  1        2 0.26142194E-01 0.43637952E+02</pdfrwt>
<pdfrwt beam="2">  1       -2 0.43102255E-03 0.43637952E+02</pdfrwt>
<totfact> 0.97959414E+05</totfact>
</mgrwt>
</event>
<event>
 4    1  0.4604841E-002  0.7478724E+02  0.7818608E-02  0.1344531E+00
         -2   -1    0    0  501    0 -0.00000000000E+00  0.00000000000E+00  0.80965068893E+01  0.80965072908E+01  0.25500000000E-02 0. -1.
          2   -1    0    0    0  501  0.00000000000E+00 -0.00000000000E+00 -0.17270198271E+03  0.17270198273E+03  0.25500000000E-02 0. -1.
          2    1    1    2    0  502  0.73569809097E+01 -0.36504929783E+02 -0.74087576086E+02  0.82919864950E+02  0.25500000000E-02 0.  1.
         -2    1    1    2  502    0 -0.73569809097E+01  0.36504929783E+02 -0.90517899734E+02  0.97878625068E+02  0.25500000000E-02 0.  1.
<mgrwt>
<rscale>  0 0.74787240E+02</rscale>
<asrwt>0</asrwt>
<pdfrwt beam="2">  1        2 0.26569533E-01 0.74787240E+02</pdfrwt>
<pdfrwt beam="1">  1       -2 0.12456166E-02 0.74787240E+02</pdfrwt>
<totfact> 0.24911242E+05</totfact>
</mgrwt>
</event>
<event>
 4    1  0.4604841E-002  0.4442955E+02  0.7818608E-02  0.1477935E+00
          2   -1    0    0    0  501  0.00000000000E+00  0.00000000000E+00  0.79354732783E+02  0.79354732824E+02  0.25500000000E-02 0. -1.
         -2   -1    0    0  501    0 -0.00000000000E+00 -0.00000000000E+00 -0.62188625828E+01  0.62188631056E+01  0.25500000000E-02 0. -1.
          2    1    1    2    0  502 -0.98876455009E+01  0.19800514099E+02  0.32877998583E+02  0.39633176626E+02  0.25500000000E-02 0.  1.
         -2    1    1    2  502    0  0.98876455009E+01 -0.19800514099E+02  0.40257871618E+02  0.45940419304E+02  0.25500000000E-02 0.  1.
<mgrwt>
<rscale>  0 0.44429549E+02</rscale>
<asrwt>0</asrwt>
<pdfrwt beam="1">  1        2 0.12208421E-01 0.44429549E+02</pdfrwt>
<pdfrwt beam="2">  1       -2 0.95674806E-03 0.44429549E+02</pdfrwt>
<totfact> 0.76190390E+05</totfact>
</mgrwt>
</event>
<event>
 4    1  0.4604841E-002  0.1258006E+03  0.7818608E-02  0.1233823E+00
          2   -1    0    0    0  501  0.00000000000E+00  0.00000000000E+00  0.54870629051E+03  0.54870629052E+03  0.25500000000E-02 0. -1.
         -2   -1    0    0  501    0 -0.00000000000E+00 -0.00000000000E+00 -0.72105005823E+01  0.72105010333E+01  0.25500000000E-02 0. -1.
          2    1    1    2    0  502 -0.34095734522E+02 -0.49472747851E+02  0.18850459246E+03  0.19784856147E+03  0.25500000000E-02 0.  1.
         -2    1    1    2  502    0  0.34095734522E+02  0.49472747851E+02  0.35299119747E+03  0.35806823008E+03  0.25500000000E-02 0.  1.
<mgrwt>
<rscale>  0 0.12580059E+03</rscale>
<asrwt>0</asrwt>
<pdfrwt beam="1">  1        2 0.84416358E-01 0.12580059E+03</pdfrwt>
<pdfrwt beam="2">  1       -2 0.11093077E-02 0.12580059E+03</pdfrwt>
<totfact> 0.93400543E+04</totfact>
</mgrwt>
</event>
<event>
 4    1  0.4604841E-002  0.4046297E+02  0.7818608E-02  0.1504832E+00
         -2   -1    0    0  501    0 -0.00000000000E+00  0.00000000000E+00  0.96247384178E+02  0.96247384212E+02  0.25500000000E-02 0.  1.
          2   -1    0    0    0  501  0.00000000000E+00 -0.00000000000E+00 -0.42527183497E+01  0.42527191142E+01  0.25500000000E-02 0.  1.
          2    1    1    2    0  502  0.10779654550E+02 -0.17087332713E+02  0.48643620608E+02  0.52672381034E+02  0.25500000000E-02 0. -1.
         -2    1    1    2  502    0 -0.10779654550E+02  0.17087332713E+02  0.43351045221E+02  0.47827722292E+02  0.25500000000E-02 0. -1.
<mgrwt>
<rscale>  0 0.40462974E+02</rscale>
<asrwt>0</asrwt>
<pdfrwt beam="2">  1        2 0.65426445E-03 0.40462974E+02</pdfrwt>
<pdfrwt beam="1">  1       -2 0.14807289E-01 0.40462974E+02</pdfrwt>
<totfact> 0.59443014E+05</totfact>
</mgrwt>
</event>
<event>
 4    1  0.4604841E-002  0.7801104E+02  0.7818608E-02  0.1334792E+00
         -2   -1    0    0  501    0 -0.00000000000E+00  0.00000000000E+00  0.95587568061E+01  0.95587571463E+01  0.25500000000E-02 0. -1.
          2   -1    0    0    0  501  0.00000000000E+00 -0.00000000000E+00 -0.15916614842E+03  0.15916614844E+03  0.25500000000E-02 0. -1.
          2    1    1    2    0  502  0.34674434679E+02 -0.17417917168E+02 -0.83381798043E+02  0.91968606112E+02  0.25500000000E-02 0.  1.
         -2    1    1    2  502    0 -0.34674434679E+02  0.17417917168E+02 -0.66225593574E+02  0.76756299478E+02  0.25500000000E-02 0.  1.
<mgrwt>
<rscale>  0 0.78011039E+02</rscale>
<asrwt>0</asrwt>
<pdfrwt beam="2">  1        2 0.24487098E-01 0.78011039E+02</pdfrwt>
<pdfrwt beam="1">  1       -2 0.14705781E-02 0.78011039E+02</pdfrwt>
<totfact> 0.21676275E+05</totfact>
</mgrwt>
</event>
<event>
 4    1  0.4604841E-002  0.4780789E+02  0.7818608E-02  0.1457537E+00
         -2   -1    0    0  501    0 -0.00000000000E+00  0.00000000000E+00  0.52548857287E+00  0.52549475993E+00  0.25500000000E-02 0. -1.
          2   -1    0    0    0  501  0.00000000000E+00 -0.00000000000E+00 -0.10873597440E+04  0.10873597440E+04  0.25500000000E-02 0. -1.
          2    1    1    2    0  502 -0.21339747763E+02  0.98404815813E+01 -0.64307041650E+03  0.64349963519E+03  0.25500000000E-02 0. -1.
         -2    1    1    2  502    0  0.21339747763E+02 -0.98404815813E+01 -0.44376383889E+03  0.44438560353E+03  0.25500000000E-02 0. -1.
<mgrwt>
<rscale>  0 0.47807886E+02</rscale>
<asrwt>0</asrwt>
<pdfrwt beam="2">  1        2 0.16728431E+00 0.47807886E+02</pdfrwt>
<pdfrwt beam="1">  1       -2 0.80845742E-04 0.47807886E+02</pdfrwt>
<totfact> 0.12943518E+06</totfact>
</mgrwt>
</event>
<event>
 4    1  0.4604841E-002  0.6152616E+02  0.7818608E-02  0.1391537E+00
          2   -1    0    0    0  501  0.00000000000E+00  0.00000000000E+00  0.44556166319E+01  0.44556173616E+01  0.25500000000E-02 0. -1.
         -2   -1    0    0  501    0 -0.00000000000E+00 -0.00000000000E+00 -0.21239863460E+03  0.21239863461E+03  0.25500000000E-02 0. -1.
          2    1    1    2    0  502 -0.20785769189E+02 -0.13060429288E+02 -0.38624503571E+02  0.45765437795E+02  0.25500000000E-02 0. -1.
         -2    1    1    2  502    0  0.20785769189E+02  0.13060429288E+02 -0.16931851439E+03  0.17108881418E+03  0.25500000000E-02 0. -1.
<mgrwt>
<rscale>  0 0.61526156E+02</rscale>
<asrwt>0</asrwt>
<pdfrwt beam="1">  1        2 0.68547971E-03 0.61526156E+02</pdfrwt>
<pdfrwt beam="2">  1       -2 0.32676705E-01 0.61526156E+02</pdfrwt>
<totfact> 0.16433902E+05</totfact>
</mgrwt>
</event>
<event>
 4    1  0.4604841E-002  0.7976414E+02  0.7818608E-02  0.1329722E+00
         -2   -1    0    0  501    0 -0.00000000000E+00  0.00000000000E+00  0.41742488016E+01  0.41742495805E+01  0.25500000000E-02 0.  1.
          2   -1    0    0    0  501  0.00000000000E+00 -0.00000000000E+00 -0.38104562707E+03  0.38104562708E+03  0.25500000000E-02 0.  1.
          2    1    1    2    0  502 -0.32739154496E+02  0.42939266808E+01 -0.80413830496E+02  0.86929133120E+02  0.25500000000E-02 0.  1.
         -2    1    1    2  502    0  0.32739154496E+02 -0.42939266808E+01 -0.29645754777E+03  0.29829074354E+03  0.25500000000E-02 0.  1.
<mgrwt>
<rscale>  0 0.79764137E+02</rscale>
<asrwt>0</asrwt>
<pdfrwt beam="2">  1        2 0.58622377E-01 0.79764137E+02</pdfrwt>
<pdfrwt beam="1">  1       -2 0.64219248E-03 0.79764137E+02</pdfrwt>
<totfact> 0.27911952E+05</totfact>
</mgrwt>
</event>
<event>
 4    1  0.4604841E-002  0.6190188E+02  0.7818608E-02  0.1390019E+00
          2   -1    0    0    0  501  0.00000000000E+00  0.00000000000E+00  0.17508890715E+04  0.17508890715E+04  0.25500000000E-02 0.  1.
         -2   -1    0    0  501    0 -0.00000000000E+00 -0.00000000000E+00 -0.54712516869E+00  0.54713111108E+00  0.25500000000E-02 0.  1.
          2    1    1    2    0  502 -0.40285936344E+01  0.24967874263E+02  0.13799875539E+04  0.13802192845E+04  0.25500000000E-02 0. -1.
         -2    1    1    2  502    0  0.40285936344E+01 -0.24967874263E+02  0.37035439238E+03  0.37121691809E+03  0.25500000000E-02 0. -1.
<mgrwt>
<rscale>  0 0.61901880E+02</rscale>
<asrwt>0</asrwt>
<pdfrwt beam="1">  1        2 0.26936334E+00 0.61901880E+02</pdfrwt>
<pdfrwt beam="2">  1       -2 0.84174876E-04 0.61901880E+02</pdfrwt>
<totfact> 0.59493155E+05</totfact>
</mgrwt>
</event>
<event>
 4    1  0.4604841E-002  0.6935778E+02  0.7818608E-02  0.1362291E+00
          2   -1    0    0    0  501  0.00000000000E+00  0.00000000000E+00  0.12266430287E+03  0.12266430290E+03  0.25500000000E-02 0.  1.
         -2   -1    0    0  501    0 -0.00000000000E+00 -0.00000000000E+00 -0.98042010550E+01  0.98042013866E+01  0.25500000000E-02 0.  1.
          2    1    1    2    0  502  0.32776654340E+02  0.88163448683E+01  0.70014540483E+02  0.77807923067E+02  0.25500000000E-02 0.  1.
         -2    1    1    2  502    0 -0.32776654340E+02 -0.88163448683E+01  0.42845561336E+02  0.54660581219E+02  0.25500000000E-02 0.  1.
<mgrwt>
<rscale>  0 0.69357783E+02</rscale>
<asrwt>0</asrwt>
<pdfrwt beam="1">  1        2 0.18871431E-01 0.69357783E+02</pdfrwt>
<pdfrwt beam="2">  1       -2 0.15083387E-02 0.69357783E+02</pdfrwt>
<totfact> 0.27227443E+05</totfact>
</mgrwt>
</event>
<event>
 4    1  0.4604841E-002  0.2355519E+03  0.7818608E-02  0.1122792E+00
          2   -1    0    0    0  501  0.00000000000E+00  0.00000000000E+00  0.41481321285E+02  0.41481321364E+02  0.25500000000E-02 0.  1.
         -2   -1    0    0  501    0 -0.00000000000E+00 -0.00000000000E+00 -0.33439576160E+03  0.33439576161E+03  0.25500000000E-02 0.  1.
          2    1    1    2    0  502  0.11735645450E+03  0.98120491052E+01 -0.14400357598E+03  0.18602645947E+03  0.25500000000E-02 0.  1.
         -2    1    1    2  502    0 -0.11735645450E+03 -0.98120491052E+01 -0.14891086433E+03  0.18985062350E+03  0.25500000000E-02 0.  1.
<mgrwt>
<rscale>  0 0.23555193E+03</rscale>
<asrwt>0</asrwt>
<pdfrwt beam="1">  1        2 0.63817420E-02 0.23555193E+03</pdfrwt>
<pdfrwt beam="2">  1       -2 0.51445500E-01 0.23555193E+03</pdfrwt>
<totfact> 0.40796589E+03</totfact>
</mgrwt>
</event>
<event>
 4    1  0.4604841E-002  0.5128960E+02  0.7818608E-02  0.1438507E+00
         -2   -1    0    0  501    0 -0.00000000000E+00  0.00000000000E+00  0.14424970442E+03  0.14424970444E+03  0.25500000000E-02 0. -1.
          2   -1    0    0    0  501  0.00000000000E+00 -0.00000000000E+00 -0.45591479546E+01  0.45591486678E+01  0.25500000000E-02 0. -1.
          2    1    1    2    0  502 -0.72502399479E+01  0.21624048885E+02  0.10386537258E+03  0.10633993181E+03  0.25500000000E-02 0. -1.
         -2    1    1    2  502    0  0.72502399479E+01 -0.21624048885E+02  0.35825183879E+02  0.42468921295E+02  0.25500000000E-02 0. -1.
<mgrwt>
<rscale>  0 0.51289601E+02</rscale>
<asrwt>0</asrwt>
<pdfrwt beam="2">  1        2 0.70140751E-03 0.51289601E+02</pdfrwt>
<pdfrwt beam="1">  1       -2 0.22192260E-01 0.51289601E+02</pdfrwt>
<totfact> 0.29855919E+05</totfact>
</mgrwt>
</event>
<event>
 4    1  0.4604841E-002  0.5346721E+02  0.7818608E-02  0.1427490E+00
          2   -1    0    0    0  501  0.00000000000E+00  0.00000000000E+00  0.50063969344E+03  0.50063969344E+03  0.25500000000E-02 0. -1.
         -2   -1    0    0  501    0 -0.00000000000E+00 -0.00000000000E+00 -0.14275438062E+01  0.14275460837E+01  0.25500000000E-02 0. -1.
          2    1    1    2    0  502 -0.21013870896E+02  0.14109670849E+02  0.16881765308E+03  0.17070461499E+03  0.25500000000E-02 0.  1.
         -2    1    1    2  502    0  0.21013870896E+02 -0.14109670849E+02  0.33039449655E+03  0.33136262453E+03  0.25500000000E-02 0.  1.
<mgrwt>
<rscale>  0 0.53467211E+02</rscale>
<asrwt>0</asrwt>
<pdfrwt beam="1">  1        2 0.77021604E-01 0.53467211E+02</pdfrwt>
<pdfrwt beam="2">  1       -2 0.21962198E-03 0.53467211E+02</pdfrwt>
<totfact> 0.85060548E+05</totfact>
</mgrwt>
</event>
<event>
 4    1  0.4604841E-002  0.1309335E+03  0.7818608E-02  0.1226077E+00
         -2   -1    0    0  501    0 -0.00000000000E+00  0.00000000000E+00  0.63110053342E+01  0.63110058494E+01  0.25500000000E-02 0. -1.
          2   -1    0    0    0  501  0.00000000000E+00 -0.00000000000E+00 -0.67911408233E+03  0.67911408233E+03  0.25500000000E-02 0. -1.
          2    1    1    2    0  502 -0.24461191203E+02  0.41242346665E+02 -0.56972899581E+03  0.57174330753E+03  0.25500000000E-02 0. -1.
         -2    1    1    2  502    0  0.24461191203E+02 -0.41242346665E+02 -0.10307408118E+03  0.11368178065E+03  0.25500000000E-02 0. -1.
<mgrwt>
<rscale>  0 0.13093346E+03</rscale>
<asrwt>0</asrwt>
<pdfrwt beam="2">  1        2 0.10447903E+00 0.13093346E+03</pdfrwt>
<pdfrwt beam="1">  1       -2 0.97092447E-03 0.13093346E+03</pdfrwt>
<totfact> 0.89035478E+04</totfact>
</mgrwt>
</event>
<event>
 4    1  0.4604841E-002  0.6648652E+02  0.7818608E-02  0.1372465E+00
          2   -1    0    0    0  501  0.00000000000E+00  0.00000000000E+00  0.85310387610E+03  0.85310387610E+03  0.25500000000E-02 0. -1.
         -2   -1    0    0  501    0 -0.00000000000E+00 -0.00000000000E+00 -0.12954029816E+01  0.12954054914E+01  0.25500000000E-02 0. -1.
          2    1    1    2    0  502  0.20671216231E+02  0.64613788615E+01  0.10180479852E+03  0.10408297462E+03  0.25500000000E-02 0.  1.
         -2    1    1    2  502    0 -0.20671216231E+02 -0.64613788615E+01  0.75000367460E+03  0.75031630698E+03  0.25500000000E-02 0.  1.
<mgrwt>
<rscale>  0 0.66486521E+02</rscale>
<asrwt>0</asrwt>
<pdfrwt beam="1">  1        2 0.13124695E+00 0.66486521E+02</pdfrwt>
<pdfrwt beam="2">  1       -2 0.19929266E-03 0.66486521E+02</pdfrwt>
<totfact> 0.55829158E+05</totfact>
</mgrwt>
</event>
<event>
 4    1  0.4604841E-002  0.5243608E+02  0.7818608E-02  0.1432628E+00
          2   -1    0    0    0  501  0.00000000000E+00  0.00000000000E+00  0.34698304903E+03  0.34698304904E+03  0.25500000000E-02 0.  1.
         -2   -1    0    0  501    0 -0.00000000000E+00 -0.00000000000E+00 -0.19810344850E+01  0.19810361262E+01  0.25500000000E-02 0.  1.
          2    1    1    2    0  502  0.40506911395E+01 -0.24157969684E+02  0.11029506991E+03  0.11298237939E+03  0.25500000000E-02 0.  1.
         -2    1    1    2  502    0 -0.40506911395E+01  0.24157969684E+02  0.23470694464E+03  0.23598170578E+03  0.25500000000E-02 0.  1.
<mgrwt>
<rscale>  0 0.52436082E+02</rscale>
<asrwt>0</asrwt>
<pdfrwt beam="1">  1        2 0.53382084E-01 0.52436082E+02</pdfrwt>
<pdfrwt beam="2">  1       -2 0.30477422E-03 0.52436082E+02</pdfrwt>
<totfact> 0.79033524E+05</totfact>
</mgrwt>
</event>
<event>
 4    1  0.4604841E-002  0.4504342E+02  0.7818608E-02  0.1474071E+00
          2   -1    0    0    0  501  0.00000000000E+00  0.00000000000E+00  0.41012238244E+01  0.41012246172E+01  0.25500000000E-02 0. -1.
         -2   -1    0    0  501    0 -0.00000000000E+00 -0.00000000000E+00 -0.12367708500E+03  0.12367708502E+03  0.25500000000E-02 0. -1.
          2    1    1    2    0  502 -0.44276521958E+01 -0.21872019883E+02 -0.68410108706E+02  0.71957851117E+02  0.25500000000E-02 0. -1.
         -2    1    1    2  502    0  0.44276521958E+01  0.21872019883E+02 -0.51165752465E+02  0.55820458522E+02  0.25500000000E-02 0. -1.
<mgrwt>
<rscale>  0 0.45043422E+02</rscale>
<asrwt>0</asrwt>
<pdfrwt beam="1">  1        2 0.63095767E-03 0.45043422E+02</pdfrwt>
<pdfrwt beam="2">  1       -2 0.19027241E-01 0.45043422E+02</pdfrwt>
<totfact> 0.42971220E+05</totfact>
</mgrwt>
</event>
<event>
 4    1  0.4604841E-002  0.9410985E+02  0.7818608E-02  0.1293194E+00
          2   -1    0    0    0  501  0.00000000000E+00  0.00000000000E+00  0.65444072096E+03  0.65444072096E+03  0.25500000000E-02 0. -1.
         -2   -1    0    0  501    0 -0.00000000000E+00 -0.00000000000E+00 -0.33832942817E+01  0.33832952427E+01  0.25500000000E-02 0. -1.
          2    1    1    2    0  502  0.17306032432E+02 -0.32716896537E+02  0.12242596943E+03  0.12789844438E+03  0.25500000000E-02 0. -1.
         -2    1    1    2  502    0 -0.17306032432E+02  0.32716896537E+02  0.52863145724E+03  0.52992557182E+03  0.25500000000E-02 0. -1.
<mgrwt>
<rscale>  0 0.94109848E+02</rscale>
<asrwt>0</asrwt>
<pdfrwt beam="1">  1        2 0.10068317E+00 0.94109848E+02</pdfrwt>
<pdfrwt beam="2">  1       -2 0.52050698E-03 0.94109848E+02</pdfrwt>
<totfact> 0.21453071E+05</totfact>
</mgrwt>
</event>
<event>
 4    1  0.4604841E-002  0.4288781E+02  0.7818608E-02  0.1487975E+00
          2   -1    0    0    0  501  0.00000000000E+00  0.00000000000E+00  0.70108441260E+02  0.70108441306E+02  0.25500000000E-02 0. -1.
         -2   -1    0    0  501    0 -0.00000000000E+00 -0.00000000000E+00 -0.65589952806E+01  0.65589957763E+01  0.25500000000E-02 0. -1.
          2    1    1    2    0  502 -0.20665037855E+02  0.15037624874E+01  0.41653022548E+02  0.46521816227E+02  0.25500000000E-02 0.  1.
         -2    1    1    2  502    0  0.20665037855E+02 -0.15037624874E+01  0.21896423431E+02  0.30145620855E+02  0.25500000000E-02 0.  1.
<mgrwt>
<rscale>  0 0.42887805E+02</rscale>
<asrwt>0</asrwt>
<pdfrwt beam="1">  1        2 0.10785914E-01 0.42887805E+02</pdfrwt>
<pdfrwt beam="2">  1       -2 0.10090762E-02 0.42887805E+02</pdfrwt>
<totfact> 0.80988004E+05</totfact>
</mgrwt>
</event>
<event>
 4    1  0.4604841E-002  0.1483324E+03  0.7818608E-02  0.1202537E+00
         -2   -1    0    0  501    0 -0.00000000000E+00  0.00000000000E+00  0.17513098413E+02  0.17513098599E+02  0.25500000000E-02 0.  1.
          2   -1    0    0    0  501  0.00000000000E+00 -0.00000000000E+00 -0.31408645073E+03  0.31408645074E+03  0.25500000000E-02 0.  1.
          2    1    1    2    0  502  0.84327014506E+01  0.64809983554E+02 -0.22666320555E+03  0.23589754805E+03  0.25500000000E-02 0. -1.
         -2    1    1    2  502    0 -0.84327014506E+01 -0.64809983554E+02 -0.69910146764E+02  0.95702001280E+02  0.25500000000E-02 0. -1.
<mgrwt>
<rscale>  0 0.14833242E+03</rscale>
<asrwt>0</asrwt>
<pdfrwt beam="2">  1        2 0.48320988E-01 0.14833242E+03</pdfrwt>
<pdfrwt beam="1">  1       -2 0.26943231E-02 0.14833242E+03</pdfrwt>
<totfact> 0.48105775E+04</totfact>
</mgrwt>
</event>
<event>
 4    1  0.4604841E-002  0.5353531E+02  0.7818608E-02  0.1427155E+00
         -2   -1    0    0  501    0 -0.00000000000E+00  0.00000000000E+00  0.50629205351E+00  0.50629847516E+00  0.25500000000E-02 0.  1.
          2   -1    0    0    0  501  0.00000000000E+00 -0.00000000000E+00 -0.14151968824E+04  0.14151968824E+04  0.25500000000E-02 0.  1.
          2    1    1    2    0  502 -0.24735091129E+02 -0.47181365021E+01 -0.94742377913E+03  0.94775835676E+03  0.25500000000E-02 0. -1.
         -2    1    1    2  502    0  0.24735091129E+02  0.47181365021E+01 -0.46726681117E+03  0.46794482407E+03  0.25500000000E-02 0. -1.
<mgrwt>
<rscale>  0 0.53535315E+02</rscale>
<asrwt>0</asrwt>
<pdfrwt beam="2">  1        2 0.21771943E+00 0.53535315E+02</pdfrwt>
<pdfrwt beam="1">  1       -2 0.77892712E-04 0.53535315E+02</pdfrwt>
<totfact> 0.94242628E+05</totfact>
</mgrwt>
</event>
<event>
 4    1  0.4604841E-002  0.4067139E+02  0.7818608E-02  0.1503328E+00
         -2   -1    0    0  501    0 -0.00000000000E+00  0.00000000000E+00  0.14930925548E+03  0.14930925550E+03  0.25500000000E-02 0. -1.
          2   -1    0    0    0  501  0.00000000000E+00 -0.00000000000E+00 -0.27696904440E+01  0.27696916178E+01  0.25500000000E-02 0. -1.
          2    1    1    2    0  502 -0.99537387275E+01 -0.17731656256E+02  0.72417485892E+02  0.75218221314E+02  0.25500000000E-02 0.  1.
         -2    1    1    2  502    0  0.99537387275E+01  0.17731656256E+02  0.74122079141E+02  0.76860725803E+02  0.25500000000E-02 0.  1.
<mgrwt>
<rscale>  0 0.40671391E+02</rscale>
<asrwt>0</asrwt>
<pdfrwt beam="2">  1        2 0.42610616E-03 0.40671391E+02</pdfrwt>
<pdfrwt beam="1">  1       -2 0.22970663E-01 0.40671391E+02</pdfrwt>
<totfact> 0.51882217E+05</totfact>
</mgrwt>
</event>
<event>
 4    1  0.4604841E-002  0.7119526E+02  0.7818608E-02  0.1356075E+00
         -2   -1    0    0  501    0 -0.00000000000E+00  0.00000000000E+00  0.92669985209E+00  0.92670336050E+00  0.25500000000E-02 0.  1.
          2   -1    0    0    0  501  0.00000000000E+00 -0.00000000000E+00 -0.13674209948E+04  0.13674209948E+04  0.25500000000E-02 0.  1.
          2    1    1    2    0  502 -0.26921396759E+02  0.19649359960E+02 -0.44293832282E+03  0.44419051856E+03  0.25500000000E-02 0. -1.
         -2    1    1    2  502    0  0.26921396759E+02 -0.19649359960E+02 -0.92355597217E+03  0.92415717964E+03  0.25500000000E-02 0. -1.
<mgrwt>
<rscale>  0 0.71195259E+02</rscale>
<asrwt>0</asrwt>
<pdfrwt beam="2">  1        2 0.21037085E+00 0.71195259E+02</pdfrwt>
<pdfrwt beam="1">  1       -2 0.14257057E-03 0.71195259E+02</pdfrwt>
<totfact> 0.46234408E+05</totfact>
</mgrwt>
</event>
<event>
 4    1  0.4604841E-002  0.1142481E+03  0.7818608E-02  0.1252899E+00
         -2   -1    0    0  501    0 -0.00000000000E+00  0.00000000000E+00  0.18797965732E+04  0.18797965732E+04  0.25500000000E-02 0. -1.
          2   -1    0    0    0  501  0.00000000000E+00 -0.00000000000E+00 -0.17359098915E+01  0.17359117644E+01  0.25500000000E-02 0. -1.
          2    1    1    2    0  502 -0.56070797986E+01  0.48767585348E+02  0.45791441510E+03  0.46053808560E+03  0.25500000000E-02 0.  1.
         -2    1    1    2  502    0  0.56070797986E+01 -0.48767585348E+02  0.14201462482E+04  0.14209943994E+04  0.25500000000E-02 0.  1.
<mgrwt>
<rscale>  0 0.11424814E+03</rscale>
<asrwt>0</asrwt>
<pdfrwt beam="2">  1        2 0.26706186E-03 0.11424814E+03</pdfrwt>
<pdfrwt beam="1">  1       -2 0.28920092E+00 0.11424814E+03</pdfrwt>
<totfact> 0.37040981E+03</totfact>
</mgrwt>
</event>
<event>
 4    1  0.4604841E-002  0.5269891E+02  0.7818608E-02  0.1431305E+00
         -2   -1    0    0  501    0 -0.00000000000E+00  0.00000000000E+00  0.28201091426E+01  0.28201102955E+01  0.25500000000E-02 0. -1.
          2   -1    0    0    0  501  0.00000000000E+00 -0.00000000000E+00 -0.24619386783E+03  0.24619386784E+03  0.25500000000E-02 0. -1.
          2    1    1    2    0  502 -0.16573755094E+02  0.19762102675E+02 -0.96212874051E+02  0.99609975403E+02  0.25500000000E-02 0. -1.
         -2    1    1    2  502    0  0.16573755094E+02 -0.19762102675E+02 -0.14716088463E+03  0.14940400273E+03  0.25500000000E-02 0. -1.
<mgrwt>
<rscale>  0 0.52698908E+02</rscale>
<asrwt>0</asrwt>
<pdfrwt beam="2">  1        2 0.37875963E-01 0.52698908E+02</pdfrwt>
<pdfrwt beam="1">  1       -2 0.43386323E-03 0.52698908E+02</pdfrwt>
<totfact> 0.69237454E+05</totfact>
</mgrwt>
</event>
<event>
 4    1  0.4604841E-002  0.5862049E+02  0.7818608E-02  0.1403714E+00
         -2   -1    0    0  501    0 -0.00000000000E+00  0.00000000000E+00  0.42412568819E+01  0.42412576484E+01  0.25500000000E-02 0. -1.
          2   -1    0    0    0  501  0.00000000000E+00 -0.00000000000E+00 -0.20255558947E+03  0.20255558949E+03  0.25500000000E-02 0. -1.
          2    1    1    2    0  502 -0.60969529231E+01 -0.22149894785E+02 -0.16336751169E+03  0.16497495130E+03  0.25500000000E-02 0.  1.
         -2    1    1    2  502    0  0.60969529231E+01  0.22149894785E+02 -0.34946820903E+02  0.41821895840E+02  0.25500000000E-02 0.  1.
<mgrwt>
<rscale>  0 0.58620487E+02</rscale>
<asrwt>0</asrwt>
<pdfrwt beam="2">  1        2 0.31162391E-01 0.58620487E+02</pdfrwt>
<pdfrwt beam="1">  1       -2 0.65250128E-03 0.58620487E+02</pdfrwt>
<totfact> 0.49452394E+05</totfact>
</mgrwt>
</event>
<event>
 4    1  0.4604841E-002  0.4389396E+02  0.7818608E-02  0.1481367E+00
         -2   -1    0    0  501    0 -0.00000000000E+00  0.00000000000E+00  0.22652106324E+01  0.22652120677E+01  0.25500000000E-02 0. -1.
          2   -1    0    0    0  501  0.00000000000E+00 -0.00000000000E+00 -0.21263798574E+03  0.21263798576E+03  0.25500000000E-02 0. -1.
          2    1    1    2    0  502 -0.15479792036E+01 -0.20820206676E+02 -0.72055249170E+02  0.75018905518E+02  0.25500000000E-02 0.  1.
         -2    1    1    2  502    0  0.15479792036E+01  0.20820206676E+02 -0.13831752594E+03  0.13988429231E+03  0.25500000000E-02 0.  1.
<mgrwt>
<rscale>  0 0.43893962E+02</rscale>
<asrwt>0</asrwt>
<pdfrwt beam="2">  1        2 0.32713521E-01 0.43893962E+02</pdfrwt>
<pdfrwt beam="1">  1       -2 0.34849422E-03 0.43893962E+02</pdfrwt>
<totfact> 0.10380620E+06</totfact>
</mgrwt>
</event>
<event>
 4    1  0.4604841E-002  0.5770952E+02  0.7818608E-02  0.1407703E+00
          2   -1    0    0    0  501  0.00000000000E+00  0.00000000000E+00  0.11209655460E+03  0.11209655463E+03  0.25500000000E-02 0.  1.
         -2   -1    0    0  501    0 -0.00000000000E+00 -0.00000000000E+00 -0.74275009846E+01  0.74275014223E+01  0.25500000000E-02 0.  1.
          2    1    1    2    0  502  0.41401178199E-01 -0.26363318561E+02  0.28042078149E+02  0.38488757229E+02  0.25500000000E-02 0. -1.
         -2    1    1    2  502    0 -0.41401178199E-01  0.26363318561E+02  0.76626975470E+02  0.81035298826E+02  0.25500000000E-02 0. -1.
<mgrwt>
<rscale>  0 0.57709524E+02</rscale>
<asrwt>0</asrwt>
<pdfrwt beam="1">  1        2 0.17245623E-01 0.57709524E+02</pdfrwt>
<pdfrwt beam="2">  1       -2 0.11426925E-02 0.57709524E+02</pdfrwt>
<totfact> 0.42810780E+05</totfact>
</mgrwt>
</event>
<event>
 4    1  0.4604841E-002  0.4739610E+02  0.7818608E-02  0.1459915E+00
         -2   -1    0    0  501    0 -0.00000000000E+00  0.00000000000E+00  0.74671359526E+02  0.74671359569E+02  0.25500000000E-02 0. -1.
          2   -1    0    0    0  501  0.00000000000E+00 -0.00000000000E+00 -0.75209238515E+01  0.75209242838E+01  0.25500000000E-02 0. -1.
          2    1    1    2    0  502  0.94405233577E+01 -0.18331632975E+02  0.53830392624E+02  0.57644457021E+02  0.25500000000E-02 0. -1.
         -2    1    1    2  502    0 -0.94405233577E+01  0.18331632975E+02  0.13320043051E+02  0.24547826832E+02  0.25500000000E-02 0. -1.
<mgrwt>
<rscale>  0 0.47396102E+02</rscale>
<asrwt>0</asrwt>
<pdfrwt beam="2">  1        2 0.11570652E-02 0.47396102E+02</pdfrwt>
<pdfrwt beam="1">  1       -2 0.11487902E-01 0.47396102E+02</pdfrwt>
<totfact> 0.42979465E+05</totfact>
</mgrwt>
</event>
<event>
 4    1  0.4604841E-002  0.4532848E+02  0.7818608E-02  0.1472301E+00
         -2   -1    0    0  501    0 -0.00000000000E+00  0.00000000000E+00  0.93919606882E+00  0.93919953055E+00  0.25500000000E-02 0. -1.
          2   -1    0    0    0  501  0.00000000000E+00 -0.00000000000E+00 -0.54692174992E+03  0.54692174992E+03  0.25500000000E-02 0. -1.
          2    1    1    2    0  502 -0.11572063398E+01 -0.21294906052E+02 -0.36571544203E+03  0.36633672583E+03  0.25500000000E-02 0. -1.
         -2    1    1    2  502    0  0.11572063398E+01  0.21294906052E+02 -0.18026711182E+03  0.18152422362E+03  0.25500000000E-02 0. -1.
<mgrwt>
<rscale>  0 0.45328477E+02</rscale>
<asrwt>0</asrwt>
<pdfrwt beam="2">  1        2 0.84141553E-01 0.45328477E+02</pdfrwt>
<pdfrwt beam="1">  1       -2 0.14449241E-03 0.45328477E+02</pdfrwt>
<totfact> 0.13131354E+06</totfact>
</mgrwt>
</event>
<event>
 4    1  0.4604841E-002  0.4459259E+02  0.7818608E-02  0.1476901E+00
         -2   -1    0    0  501    0 -0.00000000000E+00  0.00000000000E+00  0.38075482479E+01  0.38075491018E+01  0.25500000000E-02 0.  1.
          2   -1    0    0    0  501  0.00000000000E+00 -0.00000000000E+00 -0.13056294513E+03  0.13056294515E+03  0.25500000000E-02 0.  1.
          2    1    1    2    0  502 -0.18236266187E+02 -0.12348567694E+02 -0.52906243454E+02  0.57307234547E+02  0.25500000000E-02 0. -1.
         -2    1    1    2  502    0  0.18236266187E+02  0.12348567694E+02 -0.73849153428E+02  0.77063259709E+02  0.25500000000E-02 0. -1.
<mgrwt>
<rscale>  0 0.44592590E+02</rscale>
<asrwt>0</asrwt>
<pdfrwt beam="2">  1        2 0.20086604E-01 0.44592590E+02</pdfrwt>
<pdfrwt beam="1">  1       -2 0.58577682E-03 0.44592590E+02</pdfrwt>
<totfact> 0.85801813E+05</totfact>
</mgrwt>
</event>
<event>
 4    1  0.4604841E-002  0.4188383E+02  0.7818608E-02  0.1494789E+00
         -2   -1    0    0  501    0 -0.00000000000E+00  0.00000000000E+00  0.38290343616E+02  0.38290343701E+02  0.25500000000E-02 0.  1.
          2   -1    0    0    0  501  0.00000000000E+00 -0.00000000000E+00 -0.11453639563E+02  0.11453639847E+02  0.25500000000E-02 0.  1.
          2    1    1    2    0  502  0.18877330452E+02  0.81563460865E+01  0.87148048200E+01  0.22334444610E+02  0.25500000000E-02 0.  1.
         -2    1    1    2  502    0 -0.18877330452E+02 -0.81563460865E+01  0.18121899233E+02  0.27409538938E+02  0.25500000000E-02 0.  1.
<mgrwt>
<rscale>  0 0.41883830E+02</rscale>
<asrwt>0</asrwt>
<pdfrwt beam="2">  1        2 0.17620984E-02 0.41883830E+02</pdfrwt>
<pdfrwt beam="1">  1       -2 0.58908222E-02 0.41883830E+02</pdfrwt>
<totfact> 0.64859651E+05</totfact>
</mgrwt>
</event>
<event>
 4    1  0.4604841E-002  0.7121564E+02  0.7818608E-02  0.1356007E+00
         -2   -1    0    0  501    0 -0.00000000000E+00  0.00000000000E+00  0.98424804902E+00  0.98425135230E+00  0.25500000000E-02 0.  1.
          2   -1    0    0    0  501  0.00000000000E+00 -0.00000000000E+00 -0.12882063155E+04  0.12882063155E+04  0.25500000000E-02 0.  1.
          2    1    1    2    0  502  0.19358861677E+02  0.13152603155E+02 -0.15781236780E+03  0.15953839642E+03  0.25500000000E-02 0. -1.
         -2    1    1    2  502    0 -0.19358861677E+02 -0.13152603155E+02 -0.11294096996E+04  0.11296521704E+04  0.25500000000E-02 0. -1.
<mgrwt>
<rscale>  0 0.71215635E+02</rscale>
<asrwt>0</asrwt>
<pdfrwt beam="2">  1        2 0.19818424E+00 0.71215635E+02</pdfrwt>
<pdfrwt beam="1">  1       -2 0.15142406E-03 0.71215635E+02</pdfrwt>
<totfact> 0.46798678E+05</totfact>
</mgrwt>
</event>
<event>
 4    1  0.4604841E-002  0.7961674E+02  0.7818608E-02  0.1330143E+00
         -2   -1    0    0  501    0 -0.00000000000E+00  0.00000000000E+00  0.55266852860E+02  0.55266852919E+02  0.25500000000E-02 0.  1.
          2   -1    0    0    0  501  0.00000000000E+00 -0.00000000000E+00 -0.28673718507E+02  0.28673718620E+02  0.25500000000E-02 0.  1.
          2    1    1    2    0  502  0.31270822841E+02  0.17651156000E+02 -0.48203155006E+01  0.36230693029E+02  0.25500000000E-02 0.  1.
         -2    1    1    2  502    0 -0.31270822841E+02 -0.17651156000E+02  0.31413449854E+02  0.47709878511E+02  0.25500000000E-02 0.  1.
<mgrwt>
<rscale>  0 0.79616737E+02</rscale>
<asrwt>0</asrwt>
<pdfrwt beam="2">  1        2 0.44113414E-02 0.79616737E+02</pdfrwt>
<pdfrwt beam="1">  1       -2 0.85025926E-02 0.79616737E+02</pdfrwt>
<totfact> 0.13001208E+05</totfact>
</mgrwt>
</event>
<event>
 4    1  0.4604841E-002  0.4671860E+02  0.7818608E-02  0.1463889E+00
          2   -1    0    0    0  501  0.00000000000E+00  0.00000000000E+00  0.48082325550E+03  0.48082325551E+03  0.25500000000E-02 0. -1.
         -2   -1    0    0  501    0 -0.00000000000E+00 -0.00000000000E+00 -0.11348372494E+01  0.11348401143E+01  0.25500000000E-02 0. -1.
          2    1    1    2    0  502 -0.20911414751E+02  0.10160136864E+02  0.21645310001E+03  0.21769809406E+03  0.25500000000E-02 0.  1.
         -2    1    1    2  502    0  0.20911414751E+02 -0.10160136864E+02  0.26323531824E+03  0.26426000156E+03  0.25500000000E-02 0.  1.
<mgrwt>
<rscale>  0 0.46718597E+02</rscale>
<asrwt>0</asrwt>
<pdfrwt beam="1">  1        2 0.73972672E-01 0.46718597E+02</pdfrwt>
<pdfrwt beam="2">  1       -2 0.17459089E-03 0.46718597E+02</pdfrwt>
<totfact> 0.11729505E+06</totfact>
</mgrwt>
</event>
<event>
 4    1  0.4604841E-002  0.5511920E+02  0.7818608E-02  0.1419536E+00
          2   -1    0    0    0  501  0.00000000000E+00  0.00000000000E+00  0.76785605554E+03  0.76785605554E+03  0.25500000000E-02 0. -1.
         -2   -1    0    0  501    0 -0.00000000000E+00 -0.00000000000E+00 -0.98915729979E+00  0.98916058668E+00  0.25500000000E-02 0. -1.
          2    1    1    2    0  502 -0.81450953179E+01 -0.20396611105E+02  0.61565740231E+03  0.61604902512E+03  0.25500000000E-02 0. -1.
         -2    1    1    2  502    0  0.81450953179E+01  0.20396611105E+02  0.15120949593E+03  0.15279619101E+03  0.25500000000E-02 0. -1.
<mgrwt>
<rscale>  0 0.55119205E+02</rscale>
<asrwt>0</asrwt>
<pdfrwt beam="1">  1        2 0.11813165E+00 0.55119205E+02</pdfrwt>
<pdfrwt beam="2">  1       -2 0.15217837E-03 0.55119205E+02</pdfrwt>
<totfact> 0.88052893E+05</totfact>
</mgrwt>
</event>
<event>
 4    1  0.4604841E-002  0.5070663E+02  0.7818608E-02  0.1441567E+00
         -2   -1    0    0  501    0 -0.00000000000E+00  0.00000000000E+00  0.19725231062E+02  0.19725231227E+02  0.25500000000E-02 0.  1.
          2   -1    0    0    0  501  0.00000000000E+00 -0.00000000000E+00 -0.32587226601E+02  0.32587226701E+02  0.25500000000E-02 0.  1.
          2    1    1    2    0  502 -0.15160616369E+02 -0.19795528777E+02 -0.11168069332E+02  0.27320926547E+02  0.25500000000E-02 0.  1.
         -2    1    1    2  502    0  0.15160616369E+02  0.19795528777E+02 -0.16939262064E+01  0.24991531381E+02  0.25500000000E-02 0.  1.
<mgrwt>
<rscale>  0 0.50706630E+02</rscale>
<asrwt>0</asrwt>
<pdfrwt beam="2">  1        2 0.50134195E-02 0.50706630E+02</pdfrwt>
<pdfrwt beam="1">  1       -2 0.30346510E-02 0.50706630E+02</pdfrwt>
<totfact> 0.45869185E+05</totfact>
</mgrwt>
</event>
<event>
 4    1  0.4604841E-002  0.6695175E+02  0.7818608E-02  0.1370777E+00
          2   -1    0    0    0  501  0.00000000000E+00  0.00000000000E+00  0.54875855723E+02  0.54875855782E+02  0.25500000000E-02 0. -1.
         -2   -1    0    0  501    0 -0.00000000000E+00 -0.00000000000E+00 -0.20421262605E+02  0.20421262764E+02  0.25500000000E-02 0. -1.
          2    1    1    2    0  502  0.28026358612E+00  0.21490123809E+02  0.46092208029E+02  0.50856618217E+02  0.25500000000E-02 0.  1.
         -2    1    1    2  502    0 -0.28026358612E+00 -0.21490123809E+02 -0.11637614911E+02  0.24440500329E+02  0.25500000000E-02 0.  1.
<mgrwt>
<rscale>  0 0.66951752E+02</rscale>
<asrwt>0</asrwt>
<pdfrwt beam="1">  1        2 0.84424393E-02 0.66951752E+02</pdfrwt>
<pdfrwt beam="2">  1       -2 0.31417327E-02 0.66951752E+02</pdfrwt>
<totfact> 0.24270939E+05</totfact>
</mgrwt>
</event>
<event>
 4    1  0.4604841E-002  0.5386245E+02  0.7818608E-02  0.1425556E+00
          2   -1    0    0    0  501  0.00000000000E+00  0.00000000000E+00  0.28528643389E+03  0.28528643390E+03  0.25500000000E-02 0.  1.
         -2   -1    0    0  501    0 -0.00000000000E+00 -0.00000000000E+00 -0.25423242755E+01  0.25423255543E+01  0.25500000000E-02 0.  1.
          2    1    1    2    0  502  0.86482325029E+01  0.19467904730E+02  0.53321383432E+02  0.57419170819E+02  0.25500000000E-02 0.  1.
         -2    1    1    2  502    0 -0.86482325029E+01 -0.19467904730E+02  0.22942272618E+03  0.23040958864E+03  0.25500000000E-02 0.  1.
<mgrwt>
<rscale>  0 0.53862447E+02</rscale>
<asrwt>0</asrwt>
<pdfrwt beam="1">  1        2 0.43890209E-01 0.53862447E+02</pdfrwt>
<pdfrwt beam="2">  1       -2 0.39112702E-03 0.53862447E+02</pdfrwt>
<totfact> 0.68999633E+05</totfact>
</mgrwt>
</event>
<event>
 4    1  0.4604841E-002  0.5772465E+02  0.7818608E-02  0.1407636E+00
         -2   -1    0    0  501    0 -0.00000000000E+00  0.00000000000E+00  0.19544623978E+01  0.19544640613E+01  0.25500000000E-02 0.  1.
          2   -1    0    0    0  501  0.00000000000E+00 -0.00000000000E+00 -0.42622131133E+03  0.42622131134E+03  0.25500000000E-02 0.  1.
          2    1    1    2    0  502  0.15062059181E+02  0.21998173053E+02 -0.29414643787E+03  0.29535218327E+03  0.25500000000E-02 0.  1.
         -2    1    1    2  502    0 -0.15062059181E+02 -0.21998173053E+02 -0.13012041106E+03  0.13282359213E+03  0.25500000000E-02 0.  1.
<mgrwt>
<rscale>  0 0.57724653E+02</rscale>
<asrwt>0</asrwt>
<pdfrwt beam="2">  1        2 0.65572435E-01 0.57724653E+02</pdfrwt>
<pdfrwt beam="1">  1       -2 0.30068699E-03 0.57724653E+02</pdfrwt>
<totfact> 0.66624837E+05</totfact>
</mgrwt>
</event>
<event>
 4    1  0.4604841E-002  0.5064002E+02  0.7818608E-02  0.1441920E+00
          2   -1    0    0    0  501  0.00000000000E+00  0.00000000000E+00  0.13176462748E+01  0.13176487423E+01  0.25500000000E-02 0.  1.
         -2   -1    0    0  501    0 -0.00000000000E+00 -0.00000000000E+00 -0.48655116585E+03  0.48655116586E+03  0.25500000000E-02 0.  1.
          2    1    1    2    0  502 -0.98383457138E+01 -0.19874052212E+02 -0.12488720008E+03  0.12684078109E+03  0.25500000000E-02 0.  1.
         -2    1    1    2  502    0  0.98383457138E+01  0.19874052212E+02 -0.36034631949E+03  0.36102803351E+03  0.25500000000E-02 0.  1.
<mgrwt>
<rscale>  0 0.50640021E+02</rscale>
<asrwt>0</asrwt>
<pdfrwt beam="1">  1        2 0.20271539E-03 0.50640021E+02</pdfrwt>
<pdfrwt beam="2">  1       -2 0.74853882E-01 0.50640021E+02</pdfrwt>
<totfact> 0.16409308E+05</totfact>
</mgrwt>
</event>
<event>
 4    1  0.4604841E-002  0.1094191E+03  0.7818608E-02  0.1261650E+00
         -2   -1    0    0  501    0 -0.00000000000E+00  0.00000000000E+00  0.10410822609E+02  0.10410822921E+02  0.25500000000E-02 0. -1.
          2   -1    0    0    0  501  0.00000000000E+00 -0.00000000000E+00 -0.28750199213E+03  0.28750199214E+03  0.25500000000E-02 0. -1.
          2    1    1    2    0  502  0.39264921677E+02 -0.23882935891E+02 -0.57731870002E+02  0.73790904057E+02  0.25500000000E-02 0.  1.
         -2    1    1    2  502    0 -0.39264921677E+02  0.23882935891E+02 -0.21935929951E+03  0.22412191100E+03  0.25500000000E-02 0.  1.
<mgrwt>
<rscale>  0 0.10941905E+03</rscale>
<asrwt>0</asrwt>
<pdfrwt beam="2">  1        2 0.44231070E-01 0.10941905E+03</pdfrwt>
<pdfrwt beam="1">  1       -2 0.16016653E-02 0.10941905E+03</pdfrwt>
<totfact> 0.10809537E+05</totfact>
</mgrwt>
</event>
<event>
 4    1  0.4604841E-002  0.4389338E+02  0.7818608E-02  0.1481371E+00
          2   -1    0    0    0  501  0.00000000000E+00  0.00000000000E+00  0.19152867486E+01  0.19152884461E+01  0.25500000000E-02 0.  1.
         -2   -1    0    0  501    0 -0.00000000000E+00 -0.00000000000E+00 -0.25148032029E+03  0.25148032030E+03  0.25500000000E-02 0.  1.
          2    1    1    2    0  502  0.82608626075E+01 -0.19319287658E+02 -0.88188737770E+02  0.90657212634E+02  0.25500000000E-02 0. -1.
         -2    1    1    2  502    0 -0.82608626075E+01  0.19319287658E+02 -0.16137629577E+03  0.16273839612E+03  0.25500000000E-02 0. -1.
<mgrwt>
<rscale>  0 0.43893377E+02</rscale>
<asrwt>0</asrwt>
<pdfrwt beam="1">  1        2 0.29465983E-03 0.43893377E+02</pdfrwt>
<pdfrwt beam="2">  1       -2 0.38689254E-01 0.43893377E+02</pdfrwt>
<totfact> 0.34978328E+05</totfact>
</mgrwt>
</event>
<event>
 4    1  0.4604841E-002  0.6726967E+02  0.7818608E-02  0.1369632E+00
          2   -1    0    0    0  501  0.00000000000E+00  0.00000000000E+00  0.15058099563E+02  0.15058099779E+02  0.25500000000E-02 0. -1.
         -2   -1    0    0  501    0 -0.00000000000E+00 -0.00000000000E+00 -0.75129140898E+02  0.75129140941E+02  0.25500000000E-02 0. -1.
          2    1    1    2    0  502  0.12669250480E+02  0.27751253883E+02 -0.11044150062E+02  0.32444032685E+02  0.25500000000E-02 0.  1.
         -2    1    1    2  502    0 -0.12669250480E+02 -0.27751253883E+02 -0.49026891273E+02  0.57743208035E+02  0.25500000000E-02 0.  1.
<mgrwt>
<rscale>  0 0.67269669E+02</rscale>
<asrwt>0</asrwt>
<pdfrwt beam="1">  1        2 0.23166308E-02 0.67269669E+02</pdfrwt>
<pdfrwt beam="2">  1       -2 0.11558329E-01 0.67269669E+02</pdfrwt>
<totfact> 0.18261353E+05</totfact>
</mgrwt>
</event>
<event>
 4    1  0.4604841E-002  0.6336125E+02  0.7818608E-02  0.1384244E+00
         -2   -1    0    0  501    0 -0.00000000000E+00  0.00000000000E+00  0.73654094942E+00  0.73654536362E+00  0.25500000000E-02 0. -1.
          2   -1    0    0    0  501  0.00000000000E+00 -0.00000000000E+00 -0.13626654862E+04  0.13626654862E+04  0.25500000000E-02 0. -1.
          2    1    1    2    0  502 -0.23841414747E+02 -0.17915813597E+02 -0.45094156983E+03  0.45192664100E+03  0.25500000000E-02 0. -1.
         -2    1    1    2  502    0  0.23841414747E+02  0.17915813597E+02 -0.91098737538E+03  0.91147539053E+03  0.25500000000E-02 0. -1.
<mgrwt>
<rscale>  0 0.63361248E+02</rscale>
<asrwt>0</asrwt>
<pdfrwt beam="2">  1        2 0.20963883E+00 0.63361248E+02</pdfrwt>
<pdfrwt beam="1">  1       -2 0.11331542E-03 0.63361248E+02</pdfrwt>
<totfact> 0.62309147E+05</totfact>
</mgrwt>
</event>
<event>
 4    1  0.4604841E-002  0.4051146E+02  0.7818608E-02  0.1504481E+00
         -2   -1    0    0  501    0 -0.00000000000E+00  0.00000000000E+00  0.98250395198E+00  0.98250726112E+00  0.25500000000E-02 0.  1.
          2   -1    0    0    0  501  0.00000000000E+00 -0.00000000000E+00 -0.41760027877E+03  0.41760027878E+03  0.25500000000E-02 0.  1.
          2    1    1    2    0  502 -0.19045126985E+02  0.62416446708E+01 -0.23864413652E+03  0.23948423517E+03  0.25500000000E-02 0.  1.
         -2    1    1    2  502    0  0.19045126985E+02 -0.62416446708E+01 -0.17797363829E+03  0.17909855087E+03  0.25500000000E-02 0.  1.
<mgrwt>
<rscale>  0 0.40511461E+02</rscale>
<asrwt>0</asrwt>
<pdfrwt beam="2">  1        2 0.64246055E-01 0.40511461E+02</pdfrwt>
<pdfrwt beam="1">  1       -2 0.15115504E-03 0.40511461E+02</pdfrwt>
<totfact> 0.15860595E+06</totfact>
</mgrwt>
</event>
<event>
 4    1  0.4604841E-002  0.5745554E+02  0.7818608E-02  0.1408831E+00
          2   -1    0    0    0  501  0.00000000000E+00  0.00000000000E+00  0.25685231202E+01  0.25685243860E+01  0.25500000000E-02 0.  1.
         -2   -1    0    0  501    0 -0.00000000000E+00 -0.00000000000E+00 -0.32130705981E+03  0.32130705982E+03  0.25500000000E-02 0.  1.
          2    1    1    2    0  502  0.48740085836E+01 -0.25025764552E+02 -0.84747959989E+02  0.88500065423E+02  0.25500000000E-02 0. -1.
         -2    1    1    2  502    0 -0.48740085836E+01  0.25025764552E+02 -0.23399057670E+03  0.23537551878E+03  0.25500000000E-02 0. -1.
<mgrwt>
<rscale>  0 0.57455542E+02</rscale>
<asrwt>0</asrwt>
<pdfrwt beam="1">  1        2 0.39515776E-03 0.57455542E+02</pdfrwt>
<pdfrwt beam="2">  1       -2 0.49431824E-01 0.57455542E+02</pdfrwt>
<totfact> 0.15834174E+05</totfact>
</mgrwt>
</event>
<event>
 4    1  0.4604841E-002  0.6460227E+02  0.7818608E-02  0.1379474E+00
         -2   -1    0    0  501    0 -0.00000000000E+00  0.00000000000E+00  0.52940662128E+00  0.52941276255E+00  0.25500000000E-02 0.  1.
          2   -1    0    0    0  501  0.00000000000E+00 -0.00000000000E+00 -0.19708048435E+04  0.19708048435E+04  0.25500000000E-02 0.  1.
          2    1    1    2    0  502  0.64765320256E+01  0.31454793240E+02 -0.87937055589E+03  0.87995677397E+03  0.25500000000E-02 0.  1.
         -2    1    1    2  502    0 -0.64765320256E+01 -0.31454793240E+02 -0.10909048810E+04  0.10913774823E+04  0.25500000000E-02 0.  1.
<mgrwt>
<rscale>  0 0.64602266E+02</rscale>
<asrwt>0</asrwt>
<pdfrwt beam="2">  1        2 0.30319487E+00 0.64602266E+02</pdfrwt>
<pdfrwt beam="1">  1       -2 0.81449223E-04 0.64602266E+02</pdfrwt>
<totfact> 0.48844974E+05</totfact>
</mgrwt>
</event>
<event>
 4    1  0.4604841E-002  0.4955378E+02  0.7818608E-02  0.1447763E+00
          2   -1    0    0    0  501  0.00000000000E+00  0.00000000000E+00  0.12834919004E+04  0.12834919004E+04  0.25500000000E-02 0.  1.
         -2   -1    0    0  501    0 -0.00000000000E+00 -0.00000000000E+00 -0.47829670203E+00  0.47830349954E+00  0.25500000000E-02 0.  1.
          2    1    1    2    0  502 -0.18989207600E+01 -0.24648992479E+02  0.68420492550E+03  0.68465141409E+03  0.25500000000E-02 0.  1.
         -2    1    1    2  502    0  0.18989207600E+01  0.24648992479E+02  0.59880867820E+03  0.59931878982E+03  0.25500000000E-02 0.  1.
<mgrwt>
<rscale>  0 0.49553781E+02</rscale>
<asrwt>0</asrwt>
<pdfrwt beam="1">  1        2 0.19745687E+00 0.49553781E+02</pdfrwt>
<pdfrwt beam="2">  1       -2 0.73585908E-04 0.49553781E+02</pdfrwt>
<totfact> 0.11672498E+06</totfact>
</mgrwt>
</event>
<event>
 4    1  0.4604841E-002  0.4256646E+02  0.7818608E-02  0.1490132E+00
         -2   -1    0    0  501    0 -0.00000000000E+00  0.00000000000E+00  0.30467955066E+01  0.30467965737E+01  0.25500000000E-02 0. -1.
          2   -1    0    0    0  501  0.00000000000E+00 -0.00000000000E+00 -0.14867288542E+03  0.14867288544E+03  0.25500000000E-02 0. -1.
          2    1    1    2    0  502 -0.20514144563E+02  0.50565626384E+01 -0.63672157693E+02  0.67086083688E+02  0.25500000000E-02 0.  1.
         -2    1    1    2  502    0  0.20514144563E+02 -0.50565626384E+01 -0.81953932222E+02  0.84633598328E+02  0.25500000000E-02 0.  1.
<mgrwt>
<rscale>  0 0.42566464E+02</rscale>
<asrwt>0</asrwt>
<pdfrwt beam="2">  1        2 0.22872746E-01 0.42566464E+02</pdfrwt>
<pdfrwt beam="1">  1       -2 0.46873797E-03 0.42566464E+02</pdfrwt>
<totfact> 0.99989486E+05</totfact>
</mgrwt>
</event>
<event>
 4    1  0.4604841E-002  0.4167840E+02  0.7818608E-02  0.1496211E+00
         -2   -1    0    0  501    0 -0.00000000000E+00  0.00000000000E+00  0.27031864186E+00  0.27033066907E+00  0.25500000000E-02 0.  1.
          2   -1    0    0    0  501  0.00000000000E+00 -0.00000000000E+00 -0.16064837131E+04  0.16064837131E+04  0.25500000000E-02 0.  1.
          2    1    1    2    0  502  0.11772097633E+02 -0.16811875922E+02 -0.94237596344E+03  0.94259942601E+03  0.25500000000E-02 0. -1.
         -2    1    1    2  502    0 -0.11772097633E+02  0.16811875922E+02 -0.66383743106E+03  0.66415461779E+03  0.25500000000E-02 0. -1.
<mgrwt>
<rscale>  0 0.41678395E+02</rscale>
<asrwt>0</asrwt>
<pdfrwt beam="2">  1        2 0.24714370E+00 0.41678395E+02</pdfrwt>
<pdfrwt beam="1">  1       -2 0.41589695E-04 0.41678395E+02</pdfrwt>
<totfact> 0.16665670E+06</totfact>
</mgrwt>
</event>
<event>
 4    1  0.4604841E-002  0.7707042E+02  0.7818608E-02  0.1337577E+00
          2   -1    0    0    0  501  0.00000000000E+00  0.00000000000E+00  0.59222387819E+02  0.59222387874E+02  0.25500000000E-02 0. -1.
         -2   -1    0    0  501    0 -0.00000000000E+00 -0.00000000000E+00 -0.25074342121E+02  0.25074342250E+02  0.25500000000E-02 0. -1.
          2    1    1    2    0  502  0.19884468705E+02  0.29341067964E+02  0.33613795802E+02  0.48848517272E+02  0.25500000000E-02 0. -1.
         -2    1    1    2  502    0 -0.19884468705E+02 -0.29341067964E+02  0.53424989705E+00  0.35448212852E+02  0.25500000000E-02 0. -1.
<mgrwt>
<rscale>  0 0.77070420E+02</rscale>
<asrwt>0</asrwt>
<pdfrwt beam="1">  1        2 0.91111364E-02 0.77070420E+02</pdfrwt>
<pdfrwt beam="2">  1       -2 0.38575912E-02 0.77070420E+02</pdfrwt>
<totfact> 0.16866369E+05</totfact>
</mgrwt>
</event>
<event>
 4    1  0.4604841E-002  0.7591856E+02  0.7818608E-02  0.1341050E+00
          2   -1    0    0    0  501  0.00000000000E+00  0.00000000000E+00  0.20348301227E+04  0.20348301227E+04  0.25500000000E-02 0. -1.
         -2   -1    0    0  501    0 -0.00000000000E+00 -0.00000000000E+00 -0.70811922090E+00  0.70812381227E+00  0.25500000000E-02 0. -1.
          2    1    1    2    0  502 -0.36704837163E+02 -0.90485533550E+01  0.11091074742E+04  0.11097515536E+04  0.25500000000E-02 0. -1.
         -2    1    1    2  502    0  0.36704837163E+02  0.90485533550E+01  0.92501452929E+03  0.92578669292E+03  0.25500000000E-02 0. -1.
<mgrwt>
<rscale>  0 0.75918562E+02</rscale>
<asrwt>0</asrwt>
<pdfrwt beam="1">  1        2 0.31304940E+00 0.75918562E+02</pdfrwt>
<pdfrwt beam="2">  1       -2 0.10894225E-03 0.75918562E+02</pdfrwt>
<totfact> 0.31284807E+05</totfact>
</mgrwt>
</event>
<event>
 4    1  0.4604841E-002  0.9640948E+02  0.7818608E-02  0.1288033E+00
          2   -1    0    0    0  501  0.00000000000E+00  0.00000000000E+00  0.74802254903E+02  0.74802254946E+02  0.25500000000E-02 0.  1.
         -2   -1    0    0  501    0 -0.00000000000E+00 -0.00000000000E+00 -0.31064528823E+02  0.31064528927E+02  0.25500000000E-02 0.  1.
          2    1    1    2    0  502 -0.40244316884E+02 -0.25053355408E+02  0.12269403853E+02  0.48967478351E+02  0.25500000000E-02 0. -1.
         -2    1    1    2  502    0  0.40244316884E+02  0.25053355408E+02  0.31468322227E+02  0.56899305522E+02  0.25500000000E-02 0. -1.
<mgrwt>
<rscale>  0 0.96409477E+02</rscale>
<asrwt>0</asrwt>
<pdfrwt beam="1">  1        2 0.11508039E-01 0.96409477E+02</pdfrwt>
<pdfrwt beam="2">  1       -2 0.47791584E-02 0.96409477E+02</pdfrwt>
<totfact> 0.96366999E+04</totfact>
</mgrwt>
</event>
<event>
 4    1  0.4604841E-002  0.4226223E+02  0.7818608E-02  0.1492194E+00
          2   -1    0    0    0  501  0.00000000000E+00  0.00000000000E+00  0.10028308736E+03  0.10028308739E+03  0.25500000000E-02 0.  1.
         -2   -1    0    0  501    0 -0.00000000000E+00 -0.00000000000E+00 -0.44526342571E+01  0.44526349873E+01  0.25500000000E-02 0.  1.
          2    1    1    2    0  502 -0.10993108968E+02 -0.17387504776E+02  0.59890557968E+02  0.63324976963E+02  0.25500000000E-02 0. -1.
         -2    1    1    2  502    0  0.10993108968E+02  0.17387504776E+02  0.35939895130E+02  0.41410745412E+02  0.25500000000E-02 0. -1.
<mgrwt>
<rscale>  0 0.42262227E+02</rscale>
<asrwt>0</asrwt>
<pdfrwt beam="1">  1        2 0.15428169E-01 0.42262227E+02</pdfrwt>
<pdfrwt beam="2">  1       -2 0.68502066E-03 0.42262227E+02</pdfrwt>
<totfact> 0.91293543E+05</totfact>
</mgrwt>
</event>
<event>
 4    1  0.4604841E-002  0.8240584E+02  0.7818608E-02  0.1322359E+00
         -2   -1    0    0  501    0 -0.00000000000E+00  0.00000000000E+00  0.24057688395E+01  0.24057701909E+01  0.25500000000E-02 0.  1.
          2   -1    0    0    0  501  0.00000000000E+00 -0.00000000000E+00 -0.70567047963E+03  0.70567047964E+03  0.25500000000E-02 0.  1.
          2    1    1    2    0  502 -0.30681086717E+02 -0.16257847468E+02 -0.54223087949E+03  0.54334148872E+03  0.25500000000E-02 0. -1.
         -2    1    1    2  502    0  0.30681086717E+02  0.16257847468E+02 -0.16103383130E+03  0.16473476110E+03  0.25500000000E-02 0. -1.
<mgrwt>
<rscale>  0 0.82405838E+02</rscale>
<asrwt>0</asrwt>
<pdfrwt beam="2">  1        2 0.10856452E+00 0.82405838E+02</pdfrwt>
<pdfrwt beam="1">  1       -2 0.37011895E-03 0.82405838E+02</pdfrwt>
<totfact> 0.30979069E+05</totfact>
</mgrwt>
</event>
<event>
 4    1  0.4604841E-002  0.4531945E+02  0.7818608E-02  0.1472357E+00
         -2   -1    0    0  501    0 -0.00000000000E+00  0.00000000000E+00  0.11652674979E+01  0.11652702880E+01  0.25500000000E-02 0. -1.
          2   -1    0    0    0  501  0.00000000000E+00 -0.00000000000E+00 -0.44063924679E+03  0.44063924680E+03  0.25500000000E-02 0. -1.
          2    1    1    2    0  502  0.17538538246E+02  0.12609907035E+02 -0.15300796597E+03  0.15452523333E+03  0.25500000000E-02 0.  1.
         -2    1    1    2  502    0 -0.17538538246E+02 -0.12609907035E+02 -0.28646601332E+03  0.28727928376E+03  0.25500000000E-02 0.  1.
<mgrwt>
<rscale>  0 0.45319453E+02</rscale>
<asrwt>0</asrwt>
<pdfrwt beam="2">  1        2 0.67790520E-01 0.45319453E+02</pdfrwt>
<pdfrwt beam="1">  1       -2 0.17927249E-03 0.45319453E+02</pdfrwt>
<totfact> 0.12289626E+06</totfact>
</mgrwt>
</event>
<event>
 4    1  0.4604841E-002  0.4552225E+02  0.7818608E-02  0.1471107E+00
         -2   -1    0    0  501    0 -0.00000000000E+00  0.00000000000E+00  0.88524279431E+00  0.88524646702E+00  0.25500000000E-02 0.  1.
          2   -1    0    0    0  501  0.00000000000E+00 -0.00000000000E+00 -0.58522667430E+03  0.58522667430E+03  0.25500000000E-02 0.  1.
          2    1    1    2    0  502  0.20614904444E+02 -0.93334373958E+01 -0.26068168248E+03  0.26166204717E+03  0.25500000000E-02 0.  1.
         -2    1    1    2  502    0 -0.20614904444E+02  0.93334373958E+01 -0.32365974902E+03  0.32444987360E+03  0.25500000000E-02 0.  1.
<mgrwt>
<rscale>  0 0.45522248E+02</rscale>
<asrwt>0</asrwt>
<pdfrwt beam="2">  1        2 0.90034564E-01 0.45522248E+02</pdfrwt>
<pdfrwt beam="1">  1       -2 0.13619195E-03 0.45522248E+02</pdfrwt>
<totfact> 0.13246613E+06</totfact>
</mgrwt>
</event>
<event>
 4    1  0.4604841E-002  0.8365016E+02  0.7818608E-02  0.1319001E+00
         -2   -1    0    0  501    0 -0.00000000000E+00  0.00000000000E+00  0.18116114126E+01  0.18116132072E+01  0.25500000000E-02 0.  1.
          2   -1    0    0    0  501  0.00000000000E+00 -0.00000000000E+00 -0.96562462545E+03  0.96562462546E+03  0.25500000000E-02 0.  1.
          2    1    1    2    0  502  0.53509017365E+01  0.40318954635E+02 -0.59468248273E+03  0.59607172850E+03  0.25500000000E-02 0.  1.
         -2    1    1    2  502    0 -0.53509017365E+01 -0.40318954635E+02 -0.36913053132E+03  0.37136451016E+03  0.25500000000E-02 0.  1.
<mgrwt>
<rscale>  0 0.83650163E+02</rscale>
<asrwt>0</asrwt>
<pdfrwt beam="2">  1        2 0.14855722E+00 0.83650163E+02</pdfrwt>
<pdfrwt beam="1">  1       -2 0.27871036E-03 0.83650163E+02</pdfrwt>
<totfact> 0.31276566E+05</totfact>
</mgrwt>
</event>
<event>
 4    1  0.4604841E-002  0.4875399E+02  0.7818608E-02  0.1452180E+00
         -2   -1    0    0  501    0 -0.00000000000E+00  0.00000000000E+00  0.17421682651E+01  0.17421701313E+01  0.25500000000E-02 0.  1.
          2   -1    0    0    0  501  0.00000000000E+00 -0.00000000000E+00 -0.34109078580E+03  0.34109078581E+03  0.25500000000E-02 0.  1.
          2    1    1    2    0  502 -0.20796589980E+02  0.11656429993E+02 -0.13391012527E+03  0.13601577912E+03  0.25500000000E-02 0. -1.
         -2    1    1    2  502    0  0.20796589980E+02 -0.11656429993E+02 -0.20543849227E+03  0.20681717682E+03  0.25500000000E-02 0. -1.
<mgrwt>
<rscale>  0 0.48753989E+02</rscale>
<asrwt>0</asrwt>
<pdfrwt beam="2">  1        2 0.52475453E-01 0.48753989E+02</pdfrwt>
<pdfrwt beam="1">  1       -2 0.26802630E-03 0.48753989E+02</pdfrwt>
<totfact> 0.94170719E+05</totfact>
</mgrwt>
</event>
<event>
 4    1  0.4604841E-002  0.5924371E+02  0.7818608E-02  0.1401033E+00
         -2   -1    0    0  501    0 -0.00000000000E+00  0.00000000000E+00  0.21352744474E+02  0.21352744627E+02  0.25500000000E-02 0. -1.
          2   -1    0    0    0  501  0.00000000000E+00 -0.00000000000E+00 -0.41093274743E+02  0.41093274822E+02  0.25500000000E-02 0. -1.
          2    1    1    2    0  502 -0.28090244160E+02  0.40976323807E+01 -0.18789435680E+02  0.34042551429E+02  0.25500000000E-02 0.  1.
         -2    1    1    2  502    0  0.28090244160E+02 -0.40976323807E+01 -0.95109458818E+00  0.28403468019E+02  0.25500000000E-02 0.  1.
<mgrwt>
<rscale>  0 0.59243707E+02</rscale>
<asrwt>0</asrwt>
<pdfrwt beam="2">  1        2 0.63220423E-02 0.59243707E+02</pdfrwt>
<pdfrwt beam="1">  1       -2 0.32850376E-02 0.59243707E+02</pdfrwt>
<totfact> 0.31705725E+05</totfact>
</mgrwt>
</event>
<event>
 4    1  0.4604841E-002  0.5669624E+02  0.7818608E-02  0.1412243E+00
         -2   -1    0    0  501    0 -0.00000000000E+00  0.00000000000E+00  0.10767084299E+01  0.10767114496E+01  0.25500000000E-02 0. -1.
          2   -1    0    0    0  501  0.00000000000E+00 -0.00000000000E+00 -0.74636243161E+03  0.74636243162E+03  0.25500000000E-02 0. -1.
          2    1    1    2    0  502 -0.60990802065E+00  0.28195837029E+02 -0.33480303425E+03  0.33598876315E+03  0.25500000000E-02 0.  1.
         -2    1    1    2  502    0  0.60990802065E+00 -0.28195837029E+02 -0.41048268893E+03  0.41145037992E+03  0.25500000000E-02 0.  1.
<mgrwt>
<rscale>  0 0.56696238E+02</rscale>
<asrwt>0</asrwt>
<pdfrwt beam="2">  1        2 0.11482458E+00 0.56696238E+02</pdfrwt>
<pdfrwt beam="1">  1       -2 0.16564828E-03 0.56696238E+02</pdfrwt>
<totfact> 0.81605391E+05</totfact>
</mgrwt>
</event>
<event>
 4    1  0.4604841E-002  0.4416952E+02  0.7818608E-02  0.1479594E+00
         -2   -1    0    0  501    0 -0.00000000000E+00  0.00000000000E+00  0.76161874283E+01  0.76161878552E+01  0.25500000000E-02 0.  1.
          2   -1    0    0    0  501  0.00000000000E+00 -0.00000000000E+00 -0.64039480364E+02  0.64039480415E+02  0.25500000000E-02 0.  1.
          2    1    1    2    0  502  0.19382865132E+02 -0.10564104166E+02 -0.29288897094E+02  0.36676085629E+02  0.25500000000E-02 0.  1.
         -2    1    1    2  502    0 -0.19382865132E+02  0.10564104166E+02 -0.27134395842E+02  0.34979582642E+02  0.25500000000E-02 0.  1.
<mgrwt>
<rscale>  0 0.44169524E+02</rscale>
<asrwt>0</asrwt>
<pdfrwt beam="2">  1        2 0.98522274E-02 0.44169524E+02</pdfrwt>
<pdfrwt beam="1">  1       -2 0.11717212E-02 0.44169524E+02</pdfrwt>
<totfact> 0.73815381E+05</totfact>
</mgrwt>
</event>
<event>
 4    1  0.4604841E-002  0.4677845E+02  0.7818608E-02  0.1463535E+00
         -2   -1    0    0  501    0 -0.00000000000E+00  0.00000000000E+00  0.13202870442E+02  0.13202870688E+02  0.25500000000E-02 0. -1.
          2   -1    0    0    0  501  0.00000000000E+00 -0.00000000000E+00 -0.41434618850E+02  0.41434618929E+02  0.25500000000E-02 0. -1.
          2    1    1    2    0  502 -0.11457396289E+02  0.19861732510E+02 -0.19505882128E+02  0.30103816903E+02  0.25500000000E-02 0.  1.
         -2    1    1    2  502    0  0.11457396289E+02 -0.19861732510E+02 -0.87258662802E+01  0.24533672714E+02  0.25500000000E-02 0.  1.
<mgrwt>
<rscale>  0 0.46778453E+02</rscale>
<asrwt>0</asrwt>
<pdfrwt beam="2">  1        2 0.63745567E-02 0.46778453E+02</pdfrwt>
<pdfrwt beam="1">  1       -2 0.20312109E-02 0.46778453E+02</pdfrwt>
<totfact> 0.58830458E+05</totfact>
</mgrwt>
</event>
<event>
 4    1  0.4604841E-002  0.6005949E+02  0.7818608E-02  0.1397582E+00
         -2   -1    0    0  501    0 -0.00000000000E+00  0.00000000000E+00  0.17416072022E+01  0.17416090690E+01  0.25500000000E-02 0. -1.
          2   -1    0    0    0  501  0.00000000000E+00 -0.00000000000E+00 -0.51778905724E+03  0.51778905724E+03  0.25500000000E-02 0. -1.
          2    1    1    2    0  502  0.17469940967E+02 -0.19162650643E+02 -0.38903447837E+03  0.38989771914E+03  0.25500000000E-02 0. -1.
         -2    1    1    2  502    0 -0.17469940967E+02  0.19162650643E+02 -0.12701297166E+03  0.12963294718E+03  0.25500000000E-02 0. -1.
<mgrwt>
<rscale>  0 0.60059492E+02</rscale>
<asrwt>0</asrwt>
<pdfrwt beam="2">  1        2 0.79659732E-01 0.60059492E+02</pdfrwt>
<pdfrwt beam="1">  1       -2 0.26794013E-03 0.60059492E+02</pdfrwt>
<totfact> 0.64182198E+05</totfact>
</mgrwt>
</event>
<event>
 4    1  0.4604841E-002  0.5296750E+02  0.7818608E-02  0.1429963E+00
          2   -1    0    0    0  501  0.00000000000E+00  0.00000000000E+00  0.22487178204E+04  0.22487178204E+04  0.25500000000E-02 0. -1.
         -2   -1    0    0  501    0 -0.00000000000E+00 -0.00000000000E+00 -0.31190103713E+00  0.31191146093E+00  0.25500000000E-02 0. -1.
          2    1    1    2    0  502  0.14054346610E+01  0.26425944366E+02  0.11683977498E+04  0.11686973977E+04  0.25500000000E-02 0. -1.
         -2    1    1    2  502    0 -0.14054346610E+01 -0.26425944366E+02  0.10800081696E+04  0.10803323341E+04  0.25500000000E-02 0. -1.
<mgrwt>
<rscale>  0 0.52967505E+02</rscale>
<asrwt>0</asrwt>
<pdfrwt beam="1">  1        2 0.34595624E+00 0.52967505E+02</pdfrwt>
<pdfrwt beam="2">  1       -2 0.47985625E-04 0.52967505E+02</pdfrwt>
<totfact> 0.70386510E+05</totfact>
</mgrwt>
</event>
<event>
 4    1  0.4604841E-002  0.7171165E+02  0.7818608E-02  0.1354367E+00
         -2   -1    0    0  501    0 -0.00000000000E+00  0.00000000000E+00  0.54847397290E+00  0.54847990068E+00  0.25500000000E-02 0. -1.
          2   -1    0    0    0  501  0.00000000000E+00 -0.00000000000E+00 -0.23440183654E+04  0.23440183654E+04  0.25500000000E-02 0. -1.
          2    1    1    2    0  502  0.15010251351E+02  0.31722015905E+02 -0.93137893009E+03  0.93203986254E+03  0.25500000000E-02 0.  1.
         -2    1    1    2  502    0 -0.15010251351E+02 -0.31722015905E+02 -0.14120909613E+04  0.14125269827E+04  0.25500000000E-02 0.  1.
<mgrwt>
<rscale>  0 0.71711645E+02</rscale>
<asrwt>0</asrwt>
<pdfrwt beam="2">  1        2 0.36061019E+00 0.71711645E+02</pdfrwt>
<pdfrwt beam="1">  1       -2 0.84382944E-04 0.71711645E+02</pdfrwt>
<totfact> 0.30752820E+05</totfact>
</mgrwt>
</event>
<event>
 4    1  0.4604841E-002  0.7910835E+02  0.7818608E-02  0.1331601E+00
         -2   -1    0    0  501    0 -0.00000000000E+00  0.00000000000E+00  0.90225914391E+00  0.90226274736E+00  0.25500000000E-02 0. -1.
          2   -1    0    0    0  501  0.00000000000E+00 -0.00000000000E+00 -0.17340136964E+04  0.17340136964E+04  0.25500000000E-02 0. -1.
          2    1    1    2    0  502 -0.11894743802E+02  0.34725575513E+02 -0.11897534680E+04  0.11903195643E+04  0.25500000000E-02 0. -1.
         -2    1    1    2  502    0  0.11894743802E+02 -0.34725575513E+02 -0.54335796924E+03  0.54459639484E+03  0.25500000000E-02 0. -1.
<mgrwt>
<rscale>  0 0.79108352E+02</rscale>
<asrwt>0</asrwt>
<pdfrwt beam="2">  1        2 0.26676867E+00 0.79108352E+02</pdfrwt>
<pdfrwt beam="1">  1       -2 0.13881076E-03 0.79108352E+02</pdfrwt>
<totfact> 0.31866117E+05</totfact>
</mgrwt>
</event>
<event>
 4    1  0.4604841E-002  0.5895491E+02  0.7818608E-02  0.1402271E+00
         -2   -1    0    0  501    0 -0.00000000000E+00  0.00000000000E+00  0.13736278692E+03  0.13736278695E+03  0.25500000000E-02 0.  1.
          2   -1    0    0    0  501  0.00000000000E+00 -0.00000000000E+00 -0.63257333318E+01  0.63257338458E+01  0.25500000000E-02 0.  1.
          2    1    1    2    0  502  0.53557818805E+00  0.27624724276E+02  0.40483670689E+02  0.49013669872E+02  0.25500000000E-02 0.  1.
         -2    1    1    2  502    0 -0.53557818805E+00 -0.27624724276E+02  0.90553382902E+02  0.94674850921E+02  0.25500000000E-02 0.  1.
<mgrwt>
<rscale>  0 0.58954912E+02</rscale>
<asrwt>0</asrwt>
<pdfrwt beam="2">  1        2 0.97318971E-03 0.58954912E+02</pdfrwt>
<pdfrwt beam="1">  1       -2 0.21132738E-01 0.58954912E+02</pdfrwt>
<totfact> 0.21503114E+05</totfact>
</mgrwt>
</event>
<event>
 4    1  0.4604841E-002  0.5436150E+02  0.7818608E-02  0.1423143E+00
          2   -1    0    0    0  501  0.00000000000E+00  0.00000000000E+00  0.88530819108E+03  0.88530819109E+03  0.25500000000E-02 0. -1.
         -2   -1    0    0  501    0 -0.00000000000E+00 -0.00000000000E+00 -0.83450203813E+00  0.83450593416E+00  0.25500000000E-02 0. -1.
          2    1    1    2    0  502  0.10960132756E+02 -0.22992254776E+02  0.59690239535E+03  0.59744559406E+03  0.25500000000E-02 0.  1.
         -2    1    1    2  502    0 -0.10960132756E+02  0.22992254776E+02  0.28757129370E+03  0.28869710296E+03  0.25500000000E-02 0.  1.
<mgrwt>
<rscale>  0 0.54361502E+02</rscale>
<asrwt>0</asrwt>
<pdfrwt beam="1">  1        2 0.13620043E+00 0.54361502E+02</pdfrwt>
<pdfrwt beam="2">  1       -2 0.12838601E-03 0.54361502E+02</pdfrwt>
<totfact> 0.93167956E+05</totfact>
</mgrwt>
</event>
<event>
 4    1  0.4604841E-002  0.4594067E+02  0.7818608E-02  0.1468553E+00
          2   -1    0    0    0  501  0.00000000000E+00  0.00000000000E+00  0.23021567755E+02  0.23021567896E+02  0.25500000000E-02 0. -1.
         -2   -1    0    0  501    0 -0.00000000000E+00 -0.00000000000E+00 -0.22919215443E+02  0.22919215585E+02  0.25500000000E-02 0. -1.
          2    1    1    2    0  502 -0.18495759953E+02  0.80710799415E+01  0.11023933385E+02  0.22994838147E+02  0.25500000000E-02 0.  1.
         -2    1    1    2  502    0  0.18495759953E+02 -0.80710799415E+01 -0.10921581073E+02  0.22945945334E+02  0.25500000000E-02 0.  1.
<mgrwt>
<rscale>  0 0.45940669E+02</rscale>
<asrwt>0</asrwt>
<pdfrwt beam="1">  1        2 0.35417797E-02 0.45940669E+02</pdfrwt>
<pdfrwt beam="2">  1       -2 0.35260332E-02 0.45940669E+02</pdfrwt>
<totfact> 0.56227881E+05</totfact>
</mgrwt>
</event>
<event>
 4    1  0.4604841E-002  0.5136040E+02  0.7818608E-02  0.1438139E+00
         -2   -1    0    0  501    0 -0.00000000000E+00  0.00000000000E+00  0.43879596196E+02  0.43879596270E+02  0.25500000000E-02 0. -1.
          2   -1    0    0    0  501  0.00000000000E+00 -0.00000000000E+00 -0.15029144430E+02  0.15029144646E+02  0.25500000000E-02 0. -1.
          2    1    1    2    0  502 -0.20376283787E+02 -0.74342894833E+01 -0.13434439409E+01  0.21731692277E+02  0.25500000000E-02 0. -1.
         -2    1    1    2  502    0  0.20376283787E+02  0.74342894833E+01  0.30193895707E+02  0.37177048640E+02  0.25500000000E-02 0. -1.
<mgrwt>
<rscale>  0 0.51360405E+02</rscale>
<asrwt>0</asrwt>
<pdfrwt beam="2">  1        2 0.23121762E-02 0.51360405E+02</pdfrwt>
<pdfrwt beam="1">  1       -2 0.67507069E-02 0.51360405E+02</pdfrwt>
<totfact> 0.39102105E+05</totfact>
</mgrwt>
</event>
<event>
 4    1  0.4604841E-002  0.4955851E+02  0.7818608E-02  0.1447737E+00
         -2   -1    0    0  501    0 -0.00000000000E+00  0.00000000000E+00  0.40512141457E+02  0.40512141537E+02  0.25500000000E-02 0.  1.
          2   -1    0    0    0  501  0.00000000000E+00 -0.00000000000E+00 -0.15156231721E+02  0.15156231936E+02  0.25500000000E-02 0.  1.
          2    1    1    2    0  502 -0.10322084880E+02 -0.19375794200E+02  0.25585706055E+02  0.33713427562E+02  0.25500000000E-02 0. -1.
         -2    1    1    2  502    0  0.10322084880E+02  0.19375794200E+02 -0.22979631875E+00  0.21954945912E+02  0.25500000000E-02 0. -1.
<mgrwt>
<rscale>  0 0.49558507E+02</rscale>
<asrwt>0</asrwt>
<pdfrwt beam="2">  1        2 0.23317280E-02 0.49558507E+02</pdfrwt>
<pdfrwt beam="1">  1       -2 0.62326372E-02 0.49558507E+02</pdfrwt>
<totfact> 0.43145422E+05</totfact>
</mgrwt>
</event>
<event>
 4    1  0.4604841E-002  0.5263112E+02  0.7818608E-02  0.1431645E+00
         -2   -1    0    0  501    0 -0.00000000000E+00  0.00000000000E+00  0.10721562627E+02  0.10721562931E+02  0.25500000000E-02 0.  1.
          2   -1    0    0    0  501  0.00000000000E+00 -0.00000000000E+00 -0.64590277283E+02  0.64590277333E+02  0.25500000000E-02 0.  1.
          2    1    1    2    0  502 -0.19113769417E+02  0.97150188253E+01 -0.48766867792E+02  0.53272180102E+02  0.25500000000E-02 0.  1.
         -2    1    1    2  502    0  0.19113769417E+02 -0.97150188253E+01 -0.51018468640E+01  0.22039660162E+02  0.25500000000E-02 0.  1.
<mgrwt>
<rscale>  0 0.52631121E+02</rscale>
<asrwt>0</asrwt>
<pdfrwt beam="2">  1        2 0.99369656E-02 0.52631121E+02</pdfrwt>
<pdfrwt beam="1">  1       -2 0.16494712E-02 0.52631121E+02</pdfrwt>
<totfact> 0.47351085E+05</totfact>
</mgrwt>
</event>
<event>
 4    1  0.4604841E-002  0.1047359E+03  0.7818608E-02  0.1270641E+00
          2   -1    0    0    0  501  0.00000000000E+00  0.00000000000E+00  0.14376859966E+04  0.14376859966E+04  0.25500000000E-02 0. -1.
         -2   -1    0    0  501    0 -0.00000000000E+00 -0.00000000000E+00 -0.19075088909E+01  0.19075105953E+01  0.25500000000E-02 0. -1.
          2    1    1    2    0  502 -0.34464437505E+02  0.37849590276E+02  0.56606393903E+03  0.56837379603E+03  0.25500000000E-02 0. -1.
         -2    1    1    2  502    0  0.34464437505E+02 -0.37849590276E+02  0.86971454864E+03  0.87121971113E+03  0.25500000000E-02 0. -1.
<mgrwt>
<rscale>  0 0.10473586E+03</rscale>
<asrwt>0</asrwt>
<pdfrwt beam="1">  1        2 0.22118255E+00 0.10473586E+03</pdfrwt>
<pdfrwt beam="2">  1       -2 0.29346292E-03 0.10473586E+03</pdfrwt>
<totfact> 0.16580068E+05</totfact>
</mgrwt>
</event>
<event>
 4    1  0.4604841E-002  0.7492904E+02  0.7818608E-02  0.1344091E+00
          2   -1    0    0    0  501  0.00000000000E+00  0.00000000000E+00  0.10910688355E+03  0.10910688358E+03  0.25500000000E-02 0. -1.
         -2   -1    0    0  501    0 -0.00000000000E+00 -0.00000000000E+00 -0.12864361365E+02  0.12864361618E+02  0.25500000000E-02 0. -1.
          2    1    1    2    0  502 -0.20998554551E+02 -0.30901797149E+02  0.52647086524E+02  0.64556766386E+02  0.25500000000E-02 0. -1.
         -2    1    1    2  502    0  0.20998554551E+02  0.30901797149E+02  0.43595435662E+02  0.57414478813E+02  0.25500000000E-02 0. -1.
<mgrwt>
<rscale>  0 0.74929044E+02</rscale>
<asrwt>0</asrwt>
<pdfrwt beam="1">  1        2 0.16785673E-01 0.74929044E+02</pdfrwt>
<pdfrwt beam="2">  1       -2 0.19791327E-02 0.74929044E+02</pdfrwt>
<totfact> 0.21429163E+05</totfact>
</mgrwt>
</event>
<event>
 4    1  0.4604841E-002  0.6858493E+02  0.7818608E-02  0.1364972E+00
         -2   -1    0    0  501    0 -0.00000000000E+00  0.00000000000E+00  0.15419781899E+01  0.15419802984E+01  0.25500000000E-02 0. -1.
          2   -1    0    0    0  501  0.00000000000E+00 -0.00000000000E+00 -0.76263875639E+03  0.76263875639E+03  0.25500000000E-02 0. -1.
          2    1    1    2    0  502 -0.28197722553E+02 -0.51364984047E+01 -0.59032738709E+03  0.59102277378E+03  0.25500000000E-02 0. -1.
         -2    1    1    2  502    0  0.28197722553E+02  0.51364984047E+01 -0.17076939111E+03  0.17315796292E+03  0.25500000000E-02 0. -1.
<mgrwt>
<rscale>  0 0.68584929E+02</rscale>
<asrwt>0</asrwt>
<pdfrwt beam="2">  1        2 0.11732874E+00 0.68584929E+02</pdfrwt>
<pdfrwt beam="1">  1       -2 0.23722819E-03 0.68584929E+02</pdfrwt>
<totfact> 0.50611990E+05</totfact>
</mgrwt>
</event>
<event>
 4    1  0.4604841E-002  0.4446386E+02  0.7818608E-02  0.1477717E+00
         -2   -1    0    0  501    0 -0.00000000000E+00  0.00000000000E+00  0.21284464987E+01  0.21284480262E+01  0.25500000000E-02 0. -1.
          2   -1    0    0    0  501  0.00000000000E+00 -0.00000000000E+00 -0.23221566198E+03  0.23221566199E+03  0.25500000000E-02 0. -1.
          2    1    1    2    0  502 -0.17150892393E+02  0.10551152134E+02 -0.16470302743E+03  0.16592940418E+03  0.25500000000E-02 0. -1.
         -2    1    1    2  502    0  0.17150892393E+02 -0.10551152134E+02 -0.65384188049E+02  0.68414705835E+02  0.25500000000E-02 0. -1.
<mgrwt>
<rscale>  0 0.44463864E+02</rscale>
<asrwt>0</asrwt>
<pdfrwt beam="2">  1        2 0.35725466E-01 0.44463864E+02</pdfrwt>
<pdfrwt beam="1">  1       -2 0.32745361E-03 0.44463864E+02</pdfrwt>
<totfact> 0.10356505E+06</totfact>
</mgrwt>
</event>
<event>
 4    1  0.4604841E-002  0.7476394E+02  0.7818608E-02  0.1344604E+00
          2   -1    0    0    0  501  0.00000000000E+00  0.00000000000E+00  0.16270034006E+03  0.16270034008E+03  0.25500000000E-02 0.  1.
         -2   -1    0    0  501    0 -0.00000000000E+00 -0.00000000000E+00 -0.85888675895E+01  0.85888679680E+01  0.25500000000E-02 0.  1.
          2    1    1    2    0  502  0.21386791602E+02 -0.24576564287E+02  0.11905227416E+03  0.12342951979E+03  0.25500000000E-02 0.  1.
         -2    1    1    2  502    0 -0.21386791602E+02  0.24576564287E+02  0.35059198311E+02  0.47859688256E+02  0.25500000000E-02 0.  1.
<mgrwt>
<rscale>  0 0.74763941E+02</rscale>
<asrwt>0</asrwt>
<pdfrwt beam="1">  1        2 0.25030822E-01 0.74763941E+02</pdfrwt>
<pdfrwt beam="2">  1       -2 0.13213642E-02 0.74763941E+02</pdfrwt>
<totfact> 0.24438143E+05</totfact>
</mgrwt>
</event>
<event>
 4    1  0.4604841E-002  0.4158843E+02  0.7818608E-02  0.1496837E+00
         -2   -1    0    0  501    0 -0.00000000000E+00  0.00000000000E+00  0.22061335849E+00  0.22062809532E+00  0.25500000000E-02 0.  1.
          2   -1    0    0    0  501  0.00000000000E+00 -0.00000000000E+00 -0.19599216307E+04  0.19599216307E+04  0.25500000000E-02 0.  1.
          2    1    1    2    0  502 -0.13265690570E+02  0.15939414962E+02 -0.10521920252E+04  0.10523963614E+04  0.25500000000E-02 0.  1.
         -2    1    1    2  502    0  0.13265690570E+02 -0.15939414962E+02 -0.90750899215E+03  0.90774589745E+03  0.25500000000E-02 0.  1.
<mgrwt>
<rscale>  0 0.41588428E+02</rscale>
<asrwt>0</asrwt>
<pdfrwt beam="2">  1        2 0.30151246E+00 0.41588428E+02</pdfrwt>
<pdfrwt beam="1">  1       -2 0.33943220E-04 0.41588428E+02</pdfrwt>
<totfact> 0.14771914E+06</totfact>
</mgrwt>
</event>
<event>
 4    1  0.4604841E-002  0.5553207E+02  0.7818608E-02  0.1417599E+00
         -2   -1    0    0  501    0 -0.00000000000E+00  0.00000000000E+00  0.43200673120E+03  0.43200673120E+03  0.25500000000E-02 0.  1.
          2   -1    0    0    0  501  0.00000000000E+00 -0.00000000000E+00 -0.17845843020E+01  0.17845861238E+01  0.25500000000E-02 0.  1.
          2    1    1    2    0  502 -0.82665266528E+01  0.26403052061E+02  0.23342444150E+03  0.23505834705E+03  0.25500000000E-02 0. -1.
         -2    1    1    2  502    0  0.82665266528E+01 -0.26403052061E+02  0.19679770539E+03  0.19873297028E+03  0.25500000000E-02 0. -1.
<mgrwt>
<rscale>  0 0.55532075E+02</rscale>
<asrwt>0</asrwt>
<pdfrwt beam="2">  1        2 0.27455152E-03 0.55532075E+02</pdfrwt>
<pdfrwt beam="1">  1       -2 0.66462586E-01 0.55532075E+02</pdfrwt>
<totfact> 0.14255982E+05</totfact>
</mgrwt>
</event>
<event>
 4    1  0.4604841E-002  0.4570159E+02  0.7818608E-02  0.1470009E+00
         -2   -1    0    0  501    0 -0.00000000000E+00  0.00000000000E+00  0.11034699090E+02  0.11034699385E+02  0.25500000000E-02 0.  1.
          2   -1    0    0    0  501  0.00000000000E+00 -0.00000000000E+00 -0.47319717768E+02  0.47319717836E+02  0.25500000000E-02 0.  1.
          2    1    1    2    0  502  0.22141646998E+02 -0.41563456432E+01 -0.13258448662E+02  0.26140279423E+02  0.25500000000E-02 0.  1.
         -2    1    1    2  502    0 -0.22141646998E+02  0.41563456432E+01 -0.23026570015E+02  0.32214137798E+02  0.25500000000E-02 0.  1.
<mgrwt>
<rscale>  0 0.45701591E+02</rscale>
<asrwt>0</asrwt>
<pdfrwt beam="2">  1        2 0.72799565E-02 0.45701591E+02</pdfrwt>
<pdfrwt beam="1">  1       -2 0.16976461E-02 0.45701591E+02</pdfrwt>
<totfact> 0.63903714E+05</totfact>
</mgrwt>
</event>
<event>
 4    1  0.4604841E-002  0.5922850E+02  0.7818608E-02  0.1401098E+00
         -2   -1    0    0  501    0 -0.00000000000E+00  0.00000000000E+00  0.18957263323E+03  0.18957263325E+03  0.25500000000E-02 0. -1.
          2   -1    0    0    0  501  0.00000000000E+00 -0.00000000000E+00 -0.46262149974E+01  0.46262157002E+01  0.25500000000E-02 0. -1.
          2    1    1    2    0  502  0.27470347066E+02  0.33214414898E+01  0.12707230017E+03  0.13005007274E+03  0.25500000000E-02 0. -1.
         -2    1    1    2  502    0 -0.27470347066E+02 -0.33214414898E+01  0.57874118064E+02  0.64148776213E+02  0.25500000000E-02 0. -1.
<mgrwt>
<rscale>  0 0.59228501E+02</rscale>
<asrwt>0</asrwt>
<pdfrwt beam="2">  1        2 0.71172550E-03 0.59228501E+02</pdfrwt>
<pdfrwt beam="1">  1       -2 0.29165018E-01 0.59228501E+02</pdfrwt>
<totfact> 0.18946755E+05</totfact>
</mgrwt>
</event>
<event>
 4    1  0.4604841E-002  0.6497942E+02  0.7818608E-02  0.1378049E+00
          2   -1    0    0    0  501  0.00000000000E+00  0.00000000000E+00  0.62850172461E+03  0.62850172461E+03  0.25500000000E-02 0.  1.
         -2   -1    0    0  501    0 -0.00000000000E+00 -0.00000000000E+00 -0.16795188888E+01  0.16795208246E+01  0.25500000000E-02 0.  1.
          2    1    1    2    0  502  0.31828045258E+02 -0.37903553249E+01  0.36490267666E+03  0.36630773224E+03  0.25500000000E-02 0.  1.
         -2    1    1    2  502    0 -0.31828045258E+02  0.37903553249E+01  0.26191952906E+03  0.26387351320E+03  0.25500000000E-02 0.  1.
<mgrwt>
<rscale>  0 0.64979416E+02</rscale>
<asrwt>0</asrwt>
<pdfrwt beam="1">  1        2 0.96692708E-01 0.64979416E+02</pdfrwt>
<pdfrwt beam="2">  1       -2 0.25838731E-03 0.64979416E+02</pdfrwt>
<totfact> 0.55562343E+05</totfact>
</mgrwt>
</event>
<event>
 4    1  0.4604841E-002  0.8312977E+02  0.7818608E-02  0.1320397E+00
         -2   -1    0    0  501    0 -0.00000000000E+00  0.00000000000E+00  0.49074439655E+01  0.49074446280E+01  0.25500000000E-02 0.  1.
          2   -1    0    0    0  501  0.00000000000E+00 -0.00000000000E+00 -0.35204464686E+03  0.35204464687E+03  0.25500000000E-02 0.  1.
          2    1    1    2    0  502 -0.99900603573E+00 -0.34316241020E+02 -0.27418162756E+03  0.27632257835E+03  0.25500000000E-02 0.  1.
         -2    1    1    2  502    0  0.99900603573E+00  0.34316241020E+02 -0.72955575342E+02  0.80629513150E+02  0.25500000000E-02 0.  1.
<mgrwt>
<rscale>  0 0.83129766E+02</rscale>
<asrwt>0</asrwt>
<pdfrwt beam="2">  1        2 0.54160695E-01 0.83129766E+02</pdfrwt>
<pdfrwt beam="1">  1       -2 0.75499170E-03 0.83129766E+02</pdfrwt>
<totfact> 0.24339371E+05</totfact>
</mgrwt>
</event>
<event>
 4    1  0.4604841E-002  0.4734847E+02  0.7818608E-02  0.1460191E+00
          2   -1    0    0    0  501  0.00000000000E+00  0.00000000000E+00  0.18151404249E+04  0.18151404249E+04  0.25500000000E-02 0.  1.
         -2   -1    0    0  501    0 -0.00000000000E+00 -0.00000000000E+00 -0.30876936512E+00  0.30877989465E+00  0.25500000000E-02 0.  1.
          2    1    1    2    0  502 -0.66858423270E+01 -0.22005487958E+02  0.69212688493E+03  0.69250889297E+03  0.25500000000E-02 0. -1.
         -2    1    1    2  502    0  0.66858423270E+01  0.22005487958E+02  0.11227047706E+04  0.11229403118E+04  0.25500000000E-02 0. -1.
<mgrwt>
<rscale>  0 0.47348466E+02</rscale>
<asrwt>0</asrwt>
<pdfrwt beam="1">  1        2 0.27925407E+00 0.47348466E+02</pdfrwt>
<pdfrwt beam="2">  1       -2 0.47503502E-04 0.47348466E+02</pdfrwt>
<totfact> 0.11376250E+06</totfact>
</mgrwt>
</event>
<event>
 4    1  0.4604841E-002  0.5177528E+02  0.7818608E-02  0.1435995E+00
          2   -1    0    0    0  501  0.00000000000E+00  0.00000000000E+00  0.22897520508E+03  0.22897520509E+03  0.25500000000E-02 0. -1.
         -2   -1    0    0  501    0 -0.00000000000E+00 -0.00000000000E+00 -0.29268222019E+01  0.29268233128E+01  0.25500000000E-02 0. -1.
          2    1    1    2    0  502  0.15859476316E+02  0.16977369201E+02  0.61874008810E+02  0.66091958866E+02  0.25500000000E-02 0.  1.
         -2    1    1    2  502    0 -0.15859476316E+02 -0.16977369201E+02  0.16417437406E+03  0.16581006954E+03  0.25500000000E-02 0.  1.
<mgrwt>
<rscale>  0 0.51775278E+02</rscale>
<asrwt>0</asrwt>
<pdfrwt beam="1">  1        2 0.35226953E-01 0.51775278E+02</pdfrwt>
<pdfrwt beam="2">  1       -2 0.45028045E-03 0.51775278E+02</pdfrwt>
<totfact> 0.70602693E+05</totfact>
</mgrwt>
</event>
<event>
 4    1  0.4604841E-002  0.5759016E+02  0.7818608E-02  0.1408232E+00
          2   -1    0    0    0  501  0.00000000000E+00  0.00000000000E+00  0.27425254775E+02  0.27425254893E+02  0.25500000000E-02 0.  1.
         -2   -1    0    0  501    0 -0.00000000000E+00 -0.00000000000E+00 -0.30233323266E+02  0.30233323373E+02  0.25500000000E-02 0.  1.
          2    1    1    2    0  502 -0.20128519310E+02 -0.22464217642E+01 -0.21896690236E+02  0.29827315504E+02  0.25500000000E-02 0. -1.
         -2    1    1    2  502    0  0.20128519310E+02  0.22464217642E+01  0.19088621745E+02  0.27831262763E+02  0.25500000000E-02 0. -1.
<mgrwt>
<rscale>  0 0.57590159E+02</rscale>
<asrwt>0</asrwt>
<pdfrwt beam="1">  1        2 0.42192700E-02 0.57590159E+02</pdfrwt>
<pdfrwt beam="2">  1       -2 0.46512805E-02 0.57590159E+02</pdfrwt>
<totfact> 0.31762354E+05</totfact>
</mgrwt>
</event>
<event>
 4    1  0.4604841E-002  0.4331369E+02  0.7818608E-02  0.1485152E+00
         -2   -1    0    0  501    0 -0.00000000000E+00  0.00000000000E+00  0.83099080142E+00  0.83099471391E+00  0.25500000000E-02 0. -1.
          2   -1    0    0    0  501  0.00000000000E+00 -0.00000000000E+00 -0.56440795326E+03  0.56440795326E+03  0.25500000000E-02 0. -1.
          2    1    1    2    0  502 -0.63312431747E+01 -0.20689056960E+02 -0.29414942382E+03  0.29494407141E+03  0.25500000000E-02 0. -1.
         -2    1    1    2  502    0  0.63312431747E+01  0.20689056960E+02 -0.26942753863E+03  0.27029487656E+03  0.25500000000E-02 0. -1.
<mgrwt>
<rscale>  0 0.43313690E+02</rscale>
<asrwt>0</asrwt>
<pdfrwt beam="2">  1        2 0.86831687E-01 0.43313690E+02</pdfrwt>
<pdfrwt beam="1">  1       -2 0.12784549E-03 0.43313690E+02</pdfrwt>
<totfact> 0.14801563E+06</totfact>
</mgrwt>
</event>
<event>
 4    1  0.4604841E-002  0.5189813E+02  0.7818608E-02  0.1435364E+00
          2   -1    0    0    0  501  0.00000000000E+00  0.00000000000E+00  0.15251709108E+04  0.15251709108E+04  0.25500000000E-02 0.  1.
         -2   -1    0    0  501    0 -0.00000000000E+00 -0.00000000000E+00 -0.44149035975E+00  0.44149772395E+00  0.25500000000E-02 0.  1.
          2    1    1    2    0  502 -0.11917311544E+02 -0.22400494354E+02  0.92216107864E+03  0.92251008635E+03  0.25500000000E-02 0. -1.
         -2    1    1    2  502    0  0.11917311544E+02  0.22400494354E+02  0.60256834183E+03  0.60310232220E+03  0.25500000000E-02 0. -1.
<mgrwt>
<rscale>  0 0.51898126E+02</rscale>
<asrwt>0</asrwt>
<pdfrwt beam="1">  1        2 0.23464594E+00 0.51898126E+02</pdfrwt>
<pdfrwt beam="2">  1       -2 0.67920926E-04 0.51898126E+02</pdfrwt>
<totfact> 0.99285013E+05</totfact>
</mgrwt>
</event>
<event>
 4    1  0.4604841E-002  0.4657824E+02  0.7818608E-02  0.1464723E+00
         -2   -1    0    0  501    0 -0.00000000000E+00  0.00000000000E+00  0.83658666197E+00  0.83659054829E+00  0.25500000000E-02 0. -1.
          2   -1    0    0    0  501  0.00000000000E+00 -0.00000000000E+00 -0.64832709506E+03  0.64832709507E+03  0.25500000000E-02 0. -1.
          2    1    1    2    0  502 -0.41842065552E+00 -0.23263802822E+02 -0.30978410893E+03  0.31065668148E+03  0.25500000000E-02 0. -1.
         -2    1    1    2  502    0  0.41842065552E+00  0.23263802822E+02 -0.33770639947E+03  0.33850700413E+03  0.25500000000E-02 0. -1.
<mgrwt>
<rscale>  0 0.46578238E+02</rscale>
<asrwt>0</asrwt>
<pdfrwt beam="2">  1        2 0.99742229E-01 0.46578238E+02</pdfrwt>
<pdfrwt beam="1">  1       -2 0.12870646E-03 0.46578238E+02</pdfrwt>
<totfact> 0.12864248E+06</totfact>
</mgrwt>
</event>
<event>
 4    1  0.4604841E-002  0.4840753E+02  0.7818608E-02  0.1454125E+00
         -2   -1    0    0  501    0 -0.00000000000E+00  0.00000000000E+00  0.16661324620E+01  0.16661344134E+01  0.25500000000E-02 0. -1.
          2   -1    0    0    0  501  0.00000000000E+00 -0.00000000000E+00 -0.35160581675E+03  0.35160581676E+03  0.25500000000E-02 0. -1.
          2    1    1    2    0  502  0.15404241388E+02  0.16394554110E+02 -0.24014198375E+03  0.24119337558E+03  0.25500000000E-02 0. -1.
         -2    1    1    2  502    0 -0.15404241388E+02 -0.16394554110E+02 -0.10979770054E+03  0.11207857559E+03  0.25500000000E-02 0. -1.
<mgrwt>
<rscale>  0 0.48407529E+02</rscale>
<asrwt>0</asrwt>
<pdfrwt beam="2">  1        2 0.54093144E-01 0.48407529E+02</pdfrwt>
<pdfrwt beam="1">  1       -2 0.25632850E-03 0.48407529E+02</pdfrwt>
<totfact> 0.96855278E+05</totfact>
</mgrwt>
</event>
<event>
 4    1  0.4604841E-002  0.7562933E+02  0.7818608E-02  0.1341933E+00
         -2   -1    0    0  501    0 -0.00000000000E+00  0.00000000000E+00  0.21811904291E+03  0.21811904293E+03  0.25500000000E-02 0.  1.
          2   -1    0    0    0  501  0.00000000000E+00 -0.00000000000E+00 -0.65558189674E+01  0.65558194633E+01  0.25500000000E-02 0.  1.
          2    1    1    2    0  502 -0.20946255338E+02  0.32813646761E+01  0.12762145061E+02  0.24746420345E+02  0.25500000000E-02 0.  1.
         -2    1    1    2  502    0  0.20946255338E+02 -0.32813646761E+01  0.19880107888E+03  0.19992844204E+03  0.25500000000E-02 0.  1.
<mgrwt>
<rscale>  0 0.75629333E+02</rscale>
<asrwt>0</asrwt>
<pdfrwt beam="2">  1        2 0.10085878E-02 0.75629333E+02</pdfrwt>
<pdfrwt beam="1">  1       -2 0.33556769E-01 0.75629333E+02</pdfrwt>
<totfact> 0.96562519E+04</totfact>
</mgrwt>
</event>
<event>
 4    1  0.4604841E-002  0.7494247E+02  0.7818608E-02  0.1344049E+00
         -2   -1    0    0  501    0 -0.00000000000E+00  0.00000000000E+00  0.61945609759E+00  0.61946134613E+00  0.25500000000E-02 0. -1.
          2   -1    0    0    0  501  0.00000000000E+00 -0.00000000000E+00 -0.22666455165E+04  0.22666455165E+04  0.25500000000E-02 0. -1.
          2    1    1    2    0  502  0.14106563993E+01 -0.37247850493E+02 -0.10170157163E+04  0.10176985602E+04  0.25500000000E-02 0.  1.
         -2    1    1    2  502    0 -0.14106563993E+01  0.37247850493E+02 -0.12490103441E+04  0.12495664176E+04  0.25500000000E-02 0.  1.
<mgrwt>
<rscale>  0 0.74942467E+02</rscale>
<asrwt>0</asrwt>
<pdfrwt beam="2">  1        2 0.34870805E+00 0.74942467E+02</pdfrwt>
<pdfrwt beam="1">  1       -2 0.95303157E-04 0.74942467E+02</pdfrwt>
<totfact> 0.28679082E+05</totfact>
</mgrwt>
</event>
<event>
 4    1  0.4604841E-002  0.4495871E+02  0.7818608E-02  0.1474600E+00
          2   -1    0    0    0  501  0.00000000000E+00  0.00000000000E+00  0.16215032151E+03  0.16215032153E+03  0.25500000000E-02 0.  1.
         -2   -1    0    0  501    0 -0.00000000000E+00 -0.00000000000E+00 -0.31163762452E+01  0.31163772885E+01  0.25500000000E-02 0.  1.
          2    1    1    2    0  502  0.19760833937E+02  0.10041189065E+02  0.65760088114E+02  0.69395282483E+02  0.25500000000E-02 0.  1.
         -2    1    1    2  502    0 -0.19760833937E+02 -0.10041189065E+02  0.93273857153E+02  0.95871416336E+02  0.25500000000E-02 0.  1.
<mgrwt>
<rscale>  0 0.44958714E+02</rscale>
<asrwt>0</asrwt>
<pdfrwt beam="1">  1        2 0.24946212E-01 0.44958714E+02</pdfrwt>
<pdfrwt beam="2">  1       -2 0.47944242E-03 0.44958714E+02</pdfrwt>
<totfact> 0.89680955E+05</totfact>
</mgrwt>
</event>
<event>
 4    1  0.4604841E-002  0.5610094E+02  0.7818608E-02  0.1414963E+00
         -2   -1    0    0  501    0 -0.00000000000E+00  0.00000000000E+00  0.28027075719E+01  0.28027087319E+01  0.25500000000E-02 0. -1.
          2   -1    0    0    0  501  0.00000000000E+00 -0.00000000000E+00 -0.28073876203E+03  0.28073876204E+03  0.25500000000E-02 0. -1.
          2    1    1    2    0  502 -0.22216493849E+02  0.37437124941E+01 -0.22342508034E+03  0.22455813170E+03  0.25500000000E-02 0.  1.
         -2    1    1    2  502    0  0.22216493849E+02 -0.37437124941E+01 -0.54510974116E+02  0.58983339069E+02  0.25500000000E-02 0.  1.
<mgrwt>
<rscale>  0 0.56100938E+02</rscale>
<asrwt>0</asrwt>
<pdfrwt beam="2">  1        2 0.43190557E-01 0.56100938E+02</pdfrwt>
<pdfrwt beam="1">  1       -2 0.43118609E-03 0.56100938E+02</pdfrwt>
<totfact> 0.61917364E+05</totfact>
</mgrwt>
</event>
<event>
 4    1  0.4604841E-002  0.5591501E+02  0.7818608E-02  0.1415821E+00
          2   -1    0    0    0  501  0.00000000000E+00  0.00000000000E+00  0.14244786087E+02  0.14244786315E+02  0.25500000000E-02 0.  1.
         -2   -1    0    0  501    0 -0.00000000000E+00 -0.00000000000E+00 -0.54870749254E+02  0.54870749313E+02  0.25500000000E-02 0.  1.
          2    1    1    2    0  502  0.59318110018E+00  0.26582427660E+02 -0.96335793174E+01  0.28280438135E+02  0.25500000000E-02 0. -1.
         -2    1    1    2  502    0 -0.59318110018E+00 -0.26582427660E+02 -0.30992383850E+02  0.40835097494E+02  0.25500000000E-02 0. -1.
<mgrwt>
<rscale>  0 0.55915010E+02</rscale>
<asrwt>0</asrwt>
<pdfrwt beam="1">  1        2 0.21915056E-02 0.55915010E+02</pdfrwt>
<pdfrwt beam="2">  1       -2 0.84416536E-02 0.55915010E+02</pdfrwt>
<totfact> 0.30619579E+05</totfact>
</mgrwt>
</event>
<event>
 4    1  0.4604841E-002  0.6880606E+02  0.7818608E-02  0.1364201E+00
         -2   -1    0    0  501    0 -0.00000000000E+00  0.00000000000E+00  0.57090721288E+00  0.57091290774E+00  0.25500000000E-02 0.  1.
          2   -1    0    0    0  501  0.00000000000E+00 -0.00000000000E+00 -0.20731258981E+04  0.20731258981E+04  0.25500000000E-02 0.  1.
          2    1    1    2    0  502  0.21494142580E+02  0.17974788207E+02 -0.43466015722E+03  0.43556233017E+03  0.25500000000E-02 0.  1.
         -2    1    1    2  502    0 -0.21494142580E+02 -0.17974788207E+02 -0.16378948336E+04  0.16381344808E+04  0.25500000000E-02 0.  1.
<mgrwt>
<rscale>  0 0.68806059E+02</rscale>
<asrwt>0</asrwt>
<pdfrwt beam="2">  1        2 0.31893642E+00 0.68806059E+02</pdfrwt>
<pdfrwt beam="1">  1       -2 0.87833977E-04 0.68806059E+02</pdfrwt>
<totfact> 0.39613992E+05</totfact>
</mgrwt>
</event>
<event>
 4    1  0.4604841E-002  0.1005461E+03  0.7818608E-02  0.1279152E+00
         -2   -1    0    0  501    0 -0.00000000000E+00  0.00000000000E+00  0.79625612737E+01  0.79625616820E+01  0.25500000000E-02 0.  1.
          2   -1    0    0    0  501  0.00000000000E+00 -0.00000000000E+00 -0.31740754280E+03  0.31740754281E+03  0.25500000000E-02 0.  1.
          2    1    1    2    0  502  0.20007657828E+02  0.44436944802E+02 -0.11476981139E+03  0.12468784243E+03  0.25500000000E-02 0. -1.
         -2    1    1    2  502    0 -0.20007657828E+02 -0.44436944802E+02 -0.19467517013E+03  0.20068226206E+03  0.25500000000E-02 0. -1.
<mgrwt>
<rscale>  0 0.10054605E+03</rscale>
<asrwt>0</asrwt>
<pdfrwt beam="2">  1        2 0.48831920E-01 0.10054605E+03</pdfrwt>
<pdfrwt beam="1">  1       -2 0.12250097E-02 0.10054605E+03</pdfrwt>
<totfact> 0.14114686E+05</totfact>
</mgrwt>
</event>
<event>
 4    1  0.4604841E-002  0.4125956E+02  0.7818608E-02  0.1499142E+00
         -2   -1    0    0  501    0 -0.00000000000E+00  0.00000000000E+00  0.46622274886E+01  0.46622281860E+01  0.25500000000E-02 0. -1.
          2   -1    0    0    0  501  0.00000000000E+00 -0.00000000000E+00 -0.91284199801E+02  0.91284199837E+02  0.25500000000E-02 0. -1.
          2    1    1    2    0  502 -0.18498167445E+02 -0.82591191478E+01 -0.34247011395E+02  0.39790112389E+02  0.25500000000E-02 0.  1.
         -2    1    1    2  502    0  0.18498167445E+02  0.82591191478E+01 -0.52374960917E+02  0.56156315633E+02  0.25500000000E-02 0.  1.
<mgrwt>
<rscale>  0 0.41259556E+02</rscale>
<asrwt>0</asrwt>
<pdfrwt beam="2">  1        2 0.14043722E-01 0.41259556E+02</pdfrwt>
<pdfrwt beam="1">  1       -2 0.71726589E-03 0.41259556E+02</pdfrwt>
<totfact> 0.94652326E+05</totfact>
</mgrwt>
</event>
<event>
 4    1  0.4604841E-002  0.4877878E+02  0.7818608E-02  0.1452042E+00
         -2   -1    0    0  501    0 -0.00000000000E+00  0.00000000000E+00  0.48009387341E+00  0.48010064547E+00  0.25500000000E-02 0.  1.
          2   -1    0    0    0  501  0.00000000000E+00 -0.00000000000E+00 -0.12390039351E+04  0.12390039351E+04  0.25500000000E-02 0.  1.
          2    1    1    2    0  502 -0.24023847141E+02 -0.37274930524E+01 -0.66881498893E+03  0.66925669878E+03  0.25500000000E-02 0.  1.
         -2    1    1    2  502    0  0.24023847141E+02  0.37274930524E+01 -0.56970885233E+03  0.57022733701E+03  0.25500000000E-02 0.  1.
<mgrwt>
<rscale>  0 0.48778782E+02</rscale>
<asrwt>0</asrwt>
<pdfrwt beam="2">  1        2 0.19061343E+00 0.48778782E+02</pdfrwt>
<pdfrwt beam="1">  1       -2 0.73862109E-04 0.48778782E+02</pdfrwt>
<totfact> 0.12200852E+06</totfact>
</mgrwt>
</event>
<event>
 4    1  0.4604841E-002  0.1076832E+03  0.7818608E-02  0.1264921E+00
          2   -1    0    0    0  501  0.00000000000E+00  0.00000000000E+00  0.11299201428E+04  0.11299201428E+04  0.25500000000E-02 0.  1.
         -2   -1    0    0  501    0 -0.00000000000E+00 -0.00000000000E+00 -0.25655928185E+01  0.25655940857E+01  0.25500000000E-02 0.  1.
          2    1    1    2    0  502 -0.25707837156E+01 -0.51287825711E+02  0.73386344964E+03  0.73565794546E+03  0.25500000000E-02 0. -1.
         -2    1    1    2  502    0  0.25707837156E+01  0.51287825711E+02  0.39349110032E+03  0.39682779141E+03  0.25500000000E-02 0. -1.
<mgrwt>
<rscale>  0 0.10768316E+03</rscale>
<asrwt>0</asrwt>
<pdfrwt beam="1">  1        2 0.17383360E+00 0.10768316E+03</pdfrwt>
<pdfrwt beam="2">  1       -2 0.39470729E-03 0.10768316E+03</pdfrwt>
<totfact> 0.16068643E+05</totfact>
</mgrwt>
</event>
<event>
 4    1  0.4604841E-002  0.7681497E+02  0.7818608E-02  0.1338341E+00
         -2   -1    0    0  501    0 -0.00000000000E+00  0.00000000000E+00  0.67256887212E+00  0.67257370618E+00  0.25500000000E-02 0.  1.
          2   -1    0    0    0  501  0.00000000000E+00 -0.00000000000E+00 -0.21932766100E+04  0.21932766101E+04  0.25500000000E-02 0.  1.
          2    1    1    2    0  502  0.22025385841E+01  0.37663312442E+02 -0.89082089519E+03  0.89161944999E+03  0.25500000000E-02 0. -1.
         -2    1    1    2  502    0 -0.22025385841E+01 -0.37663312442E+02 -0.13017831460E+04  0.13023297338E+04  0.25500000000E-02 0. -1.
<mgrwt>
<rscale>  0 0.76814969E+02</rscale>
<asrwt>0</asrwt>
<pdfrwt beam="2">  1        2 0.33742145E+00 0.76814969E+02</pdfrwt>
<pdfrwt beam="1">  1       -2 0.10347426E-03 0.76814969E+02</pdfrwt>
<totfact> 0.28004579E+05</totfact>
</mgrwt>
</event>
<event>
 4    1  0.4604841E-002  0.4751733E+02  0.7818608E-02  0.1459212E+00
         -2   -1    0    0  501    0 -0.00000000000E+00  0.00000000000E+00  0.21229013674E+00  0.21230545131E+00  0.25500000000E-02 0.  1.
          2   -1    0    0    0  501  0.00000000000E+00 -0.00000000000E+00 -0.26588785705E+04  0.26588785705E+04  0.25500000000E-02 0.  1.
          2    1    1    2    0  502 -0.14036958314E+02 -0.18198697614E+02 -0.99242865726E+03  0.99269475094E+03  0.25500000000E-02 0.  1.
         -2    1    1    2  502    0  0.14036958314E+02  0.18198697614E+02 -0.16662376231E+04  0.16663961250E+04  0.25500000000E-02 0.  1.
<mgrwt>
<rscale>  0 0.47517326E+02</rscale>
<asrwt>0</asrwt>
<pdfrwt beam="2">  1        2 0.40903158E+00 0.47517326E+02</pdfrwt>
<pdfrwt beam="1">  1       -2 0.32663329E-04 0.47517326E+02</pdfrwt>
<totfact> 0.71734809E+05</totfact>
</mgrwt>
</event>
<event>
 4    1  0.4604841E-002  0.5038766E+02  0.7818608E-02  0.1443262E+00
         -2   -1    0    0  501    0 -0.00000000000E+00  0.00000000000E+00  0.32650188370E+00  0.32651184138E+00  0.25500000000E-02 0.  1.
          2   -1    0    0    0  501  0.00000000000E+00 -0.00000000000E+00 -0.19439992352E+04  0.19439992352E+04  0.25500000000E-02 0.  1.
          2    1    1    2    0  502  0.16235520434E+02 -0.18942322645E+02 -0.11073069285E+04  0.11075879368E+04  0.25500000000E-02 0. -1.
         -2    1    1    2  502    0 -0.16235520434E+02  0.18942322645E+02 -0.83636580477E+03  0.83673781025E+03  0.25500000000E-02 0. -1.
<mgrwt>
<rscale>  0 0.50387661E+02</rscale>
<asrwt>0</asrwt>
<pdfrwt beam="2">  1        2 0.29906754E+00 0.50387661E+02</pdfrwt>
<pdfrwt beam="1">  1       -2 0.50233382E-04 0.50387661E+02</pdfrwt>
<totfact> 0.92547305E+05</totfact>
</mgrwt>
</event>
<event>
 4    1  0.4604841E-002  0.6651316E+02  0.7818608E-02  0.1372368E+00
          2   -1    0    0    0  501  0.00000000000E+00  0.00000000000E+00  0.16839302339E+03  0.16839302341E+03  0.25500000000E-02 0. -1.
         -2   -1    0    0  501    0 -0.00000000000E+00 -0.00000000000E+00 -0.65679690897E+01  0.65679695847E+01  0.25500000000E-02 0. -1.
          2    1    1    2    0  502  0.25650038319E+02  0.14202010342E+02  0.12220160338E+03  0.12566962019E+03  0.25500000000E-02 0. -1.
         -2    1    1    2  502    0 -0.25650038319E+02 -0.14202010342E+02  0.39623450917E+02  0.49291372801E+02  0.25500000000E-02 0. -1.
<mgrwt>
<rscale>  0 0.66513163E+02</rscale>
<asrwt>0</asrwt>
<pdfrwt beam="1">  1        2 0.25906619E-01 0.66513163E+02</pdfrwt>
<pdfrwt beam="2">  1       -2 0.10104568E-02 0.66513163E+02</pdfrwt>
<totfact> 0.33575999E+05</totfact>
</mgrwt>
</event>
<event>
 4    1  0.4604841E-002  0.8441403E+02  0.7818608E-02  0.1316972E+00
         -2   -1    0    0  501    0 -0.00000000000E+00  0.00000000000E+00  0.11012499978E+03  0.11012499981E+03  0.25500000000E-02 0.  1.
          2   -1    0    0    0  501  0.00000000000E+00 -0.00000000000E+00 -0.16176453539E+02  0.16176453740E+02  0.25500000000E-02 0.  1.
          2    1    1    2    0  502  0.24467110498E+02  0.25964389266E+02  0.80718559324E+02  0.88251203006E+02  0.25500000000E-02 0.  1.
         -2    1    1    2  502    0 -0.24467110498E+02 -0.25964389266E+02  0.13229986916E+02  0.38050250543E+02  0.25500000000E-02 0.  1.
<mgrwt>
<rscale>  0 0.84414026E+02</rscale>
<asrwt>0</asrwt>
<pdfrwt beam="2">  1        2 0.24886851E-02 0.84414026E+02</pdfrwt>
<pdfrwt beam="1">  1       -2 0.16942308E-01 0.84414026E+02</pdfrwt>
<totfact> 0.93954711E+04</totfact>
</mgrwt>
</event>
<event>
 4    1  0.4604841E-002  0.4863471E+02  0.7818608E-02  0.1452848E+00
         -2   -1    0    0  501    0 -0.00000000000E+00  0.00000000000E+00  0.21903009794E+01  0.21903024638E+01  0.25500000000E-02 0. -1.
          2   -1    0    0    0  501  0.00000000000E+00 -0.00000000000E+00 -0.26997821732E+03  0.26997821733E+03  0.25500000000E-02 0. -1.
          2    1    1    2    0  502  0.21052623222E+02  0.11022714906E+02 -0.10502040883E+03  0.10767543576E+03  0.25500000000E-02 0.  1.
         -2    1    1    2  502    0 -0.21052623222E+02 -0.11022714906E+02 -0.16276750751E+03  0.16449308404E+03  0.25500000000E-02 0.  1.
<mgrwt>
<rscale>  0 0.48634710E+02</rscale>
<asrwt>0</asrwt>
<pdfrwt beam="2">  1        2 0.41535084E-01 0.48634710E+02</pdfrwt>
<pdfrwt beam="1">  1       -2 0.33696971E-03 0.48634710E+02</pdfrwt>
<totfact> 0.87355074E+05</totfact>
</mgrwt>
</event>
<event>
 4    1  0.4604841E-002  0.9698799E+02  0.7818608E-02  0.1286760E+00
          2   -1    0    0    0  501  0.00000000000E+00  0.00000000000E+00  0.10244062299E+04  0.10244062299E+04  0.25500000000E-02 0. -1.
         -2   -1    0    0  501    0 -0.00000000000E+00 -0.00000000000E+00 -0.22956391323E+01  0.22956405486E+01  0.25500000000E-02 0. -1.
          2    1    1    2    0  502 -0.47359406026E+02 -0.12507669853E+01  0.40145707608E+03  0.40424282517E+03  0.25500000000E-02 0.  1.
         -2    1    1    2  502    0  0.47359406026E+02  0.12507669853E+01  0.62065351468E+03  0.62245904528E+03  0.25500000000E-02 0.  1.
<mgrwt>
<rscale>  0 0.96987994E+02</rscale>
<asrwt>0</asrwt>
<pdfrwt beam="1">  1        2 0.15760154E+00 0.96987994E+02</pdfrwt>
<pdfrwt beam="2">  1       -2 0.35317406E-03 0.96987994E+02</pdfrwt>
<totfact> 0.21254997E+05</totfact>
</mgrwt>
</event>
<event>
 4    1  0.4604841E-002  0.9668604E+02  0.7818608E-02  0.1287423E+00
         -2   -1    0    0  501    0 -0.00000000000E+00  0.00000000000E+00  0.19106776981E+02  0.19106777152E+02  0.25500000000E-02 0. -1.
          2   -1    0    0    0  501  0.00000000000E+00 -0.00000000000E+00 -0.12231511824E+03  0.12231511826E+03  0.25500000000E-02 0. -1.
          2    1    1    2    0  502  0.32883516531E+02 -0.53500457665E+01 -0.10284223070E+03  0.10810399193E+03  0.25500000000E-02 0. -1.
         -2    1    1    2  502    0 -0.32883516531E+02  0.53500457665E+01 -0.36611055369E+00  0.33317903484E+02  0.25500000000E-02 0. -1.
<mgrwt>
<rscale>  0 0.96686042E+02</rscale>
<asrwt>0</asrwt>
<pdfrwt beam="2">  1        2 0.18817710E-01 0.96686042E+02</pdfrwt>
<pdfrwt beam="1">  1       -2 0.29395042E-02 0.96686042E+02</pdfrwt>
<totfact> 0.11122600E+05</totfact>
</mgrwt>
</event>
<event>
 4    1  0.4604841E-002  0.4628134E+02  0.7818608E-02  0.1466497E+00
          2   -1    0    0    0  501  0.00000000000E+00  0.00000000000E+00  0.12404853829E+01  0.12404880039E+01  0.25500000000E-02 0.  1.
         -2   -1    0    0  501    0 -0.00000000000E+00 -0.00000000000E+00 -0.43167790500E+03  0.43167790501E+03  0.25500000000E-02 0.  1.
          2    1    1    2    0  502  0.22916888257E+02 -0.30455343928E+01 -0.22471962758E+03  0.22590566631E+03  0.25500000000E-02 0.  1.
         -2    1    1    2  502    0 -0.22916888257E+02  0.30455343928E+01 -0.20571779204E+03  0.20701272670E+03  0.25500000000E-02 0.  1.
<mgrwt>
<rscale>  0 0.46281344E+02</rscale>
<asrwt>0</asrwt>
<pdfrwt beam="1">  1        2 0.19084445E-03 0.46281344E+02</pdfrwt>
<pdfrwt beam="2">  1       -2 0.66411866E-01 0.46281344E+02</pdfrwt>
<totfact> 0.22333533E+05</totfact>
</mgrwt>
</event>
<event>
 4    1  0.4604841E-002  0.5428669E+02  0.7818608E-02  0.1423503E+00
          2   -1    0    0    0  501  0.00000000000E+00  0.00000000000E+00  0.40786679737E+03  0.40786679738E+03  0.25500000000E-02 0. -1.
         -2   -1    0    0  501    0 -0.00000000000E+00 -0.00000000000E+00 -0.18063761648E+01  0.18063779647E+01  0.25500000000E-02 0. -1.
          2    1    1    2    0  502 -0.19947793734E+02 -0.12544019795E+02  0.10136422720E+03  0.10406715846E+03  0.25500000000E-02 0. -1.
         -2    1    1    2  502    0  0.19947793734E+02  0.12544019795E+02  0.30469619400E+03  0.30560601688E+03  0.25500000000E-02 0. -1.
<mgrwt>
<rscale>  0 0.54286692E+02</rscale>
<asrwt>0</asrwt>
<pdfrwt beam="1">  1        2 0.62748747E-01 0.54286692E+02</pdfrwt>
<pdfrwt beam="2">  1       -2 0.27790413E-03 0.54286692E+02</pdfrwt>
<totfact> 0.76598813E+05</totfact>
</mgrwt>
</event>
<event>
 4    1  0.4604841E-002  0.5282540E+02  0.7818608E-02  0.1430672E+00
         -2   -1    0    0  501    0 -0.00000000000E+00  0.00000000000E+00  0.48290698501E+00  0.48291371763E+00  0.25500000000E-02 0.  1.
          2   -1    0    0    0  501  0.00000000000E+00 -0.00000000000E+00 -0.14446381681E+04  0.14446381681E+04  0.25500000000E-02 0.  1.
          2    1    1    2    0  502 -0.11690632201E+02 -0.23567560175E+02 -0.65774638345E+03  0.65827228844E+03  0.25500000000E-02 0.  1.
         -2    1    1    2  502    0  0.11690632201E+02  0.23567560175E+02 -0.78640887771E+03  0.78684879343E+03  0.25500000000E-02 0.  1.
<mgrwt>
<rscale>  0 0.52825400E+02</rscale>
<asrwt>0</asrwt>
<pdfrwt beam="2">  1        2 0.22224857E+00 0.52825400E+02</pdfrwt>
<pdfrwt beam="1">  1       -2 0.74295057E-04 0.52825400E+02</pdfrwt>
<totfact> 0.96828471E+05</totfact>
</mgrwt>
</event>
<event>
 4    1  0.4604841E-002  0.1338037E+03  0.7818608E-02  0.1221918E+00
          2   -1    0    0    0  501  0.00000000000E+00  0.00000000000E+00  0.49542221128E+03  0.49542221129E+03  0.25500000000E-02 0. -1.
         -2   -1    0    0  501    0 -0.00000000000E+00 -0.00000000000E+00 -0.90344320730E+01  0.90344324329E+01  0.25500000000E-02 0. -1.
          2    1    1    2    0  502 -0.17457112622E+02  0.62717112914E+02  0.30131636651E+03  0.30826894064E+03  0.25500000000E-02 0.  1.
         -2    1    1    2  502    0  0.17457112622E+02 -0.62717112914E+02  0.18507141270E+03  0.19618770308E+03  0.25500000000E-02 0.  1.
<mgrwt>
<rscale>  0 0.13380371E+03</rscale>
<asrwt>0</asrwt>
<pdfrwt beam="1">  1        2 0.76218816E-01 0.13380371E+03</pdfrwt>
<pdfrwt beam="2">  1       -2 0.13899124E-02 0.13380371E+03</pdfrwt>
<totfact> 0.76238904E+04</totfact>
</mgrwt>
</event>
<event>
 4    1  0.4604841E-002  0.4269738E+02  0.7818608E-02  0.1489251E+00
          2   -1    0    0    0  501  0.00000000000E+00  0.00000000000E+00  0.29969108012E+03  0.29969108013E+03  0.25500000000E-02 0. -1.
         -2   -1    0    0  501    0 -0.00000000000E+00 -0.00000000000E+00 -0.15207866254E+01  0.15207887633E+01  0.25500000000E-02 0. -1.
          2    1    1    2    0  502 -0.59826248412E+01  0.20476961686E+02  0.14331614441E+03  0.14489518631E+03  0.25500000000E-02 0.  1.
         -2    1    1    2  502    0  0.59826248412E+01 -0.20476961686E+02  0.15485414908E+03  0.15631668258E+03  0.25500000000E-02 0.  1.
<mgrwt>
<rscale>  0 0.42697377E+02</rscale>
<asrwt>0</asrwt>
<pdfrwt beam="1">  1        2 0.46106271E-01 0.42697377E+02</pdfrwt>
<pdfrwt beam="2">  1       -2 0.23396759E-03 0.42697377E+02</pdfrwt>
<totfact> 0.12480286E+06</totfact>
</mgrwt>
</event>
<event>
 4    1  0.4604841E-002  0.4273831E+02  0.7818608E-02  0.1488976E+00
         -2   -1    0    0  501    0 -0.00000000000E+00  0.00000000000E+00  0.65329488496E+02  0.65329488546E+02  0.25500000000E-02 0. -1.
          2   -1    0    0    0  501  0.00000000000E+00 -0.00000000000E+00 -0.69898094797E+01  0.69898099449E+01  0.25500000000E-02 0. -1.
          2    1    1    2    0  502  0.21257001925E+02 -0.18614812986E+01  0.31110607069E+02  0.37725258411E+02  0.25500000000E-02 0. -1.
         -2    1    1    2  502    0 -0.21257001925E+02  0.18614812986E+01  0.27229071948E+02  0.34594040080E+02  0.25500000000E-02 0. -1.
<mgrwt>
<rscale>  0 0.42738306E+02</rscale>
<asrwt>0</asrwt>
<pdfrwt beam="2">  1        2 0.10753554E-02 0.42738306E+02</pdfrwt>
<pdfrwt beam="1">  1       -2 0.10050690E-01 0.42738306E+02</pdfrwt>
<totfact> 0.56613021E+05</totfact>
</mgrwt>
</event>
<event>
 4    1  0.4604841E-002  0.9874443E+02  0.7818608E-02  0.1282959E+00
         -2   -1    0    0  501    0 -0.00000000000E+00  0.00000000000E+00  0.17946403516E+01  0.17946421632E+01  0.25500000000E-02 0. -1.
          2   -1    0    0    0  501  0.00000000000E+00 -0.00000000000E+00 -0.13582746873E+04  0.13582746873E+04  0.25500000000E-02 0. -1.
          2    1    1    2    0  502 -0.42132405092E+02  0.30948274163E+00 -0.10327285448E+04  0.10335876753E+04  0.25500000000E-02 0. -1.
         -2    1    1    2  502    0  0.42132405092E+02 -0.30948274163E+00 -0.32375150210E+03  0.32648165409E+03  0.25500000000E-02 0. -1.
<mgrwt>
<rscale>  0 0.98744434E+02</rscale>
<asrwt>0</asrwt>
<pdfrwt beam="2">  1        2 0.20896452E+00 0.98744434E+02</pdfrwt>
<pdfrwt beam="1">  1       -2 0.27609974E-03 0.98744434E+02</pdfrwt>
<totfact> 0.19709181E+05</totfact>
</mgrwt>
</event>
<event>
 4    1  0.4604841E-002  0.6566936E+02  0.7818608E-02  0.1375471E+00
         -2   -1    0    0  501    0 -0.00000000000E+00  0.00000000000E+00  0.24142150296E+01  0.24142163763E+01  0.25500000000E-02 0. -1.
          2   -1    0    0    0  501  0.00000000000E+00 -0.00000000000E+00 -0.44657001667E+03  0.44657001667E+03  0.25500000000E-02 0. -1.
          2    1    1    2    0  502  0.10896733174E+02  0.28442827455E+02 -0.30592109552E+03  0.30743365125E+03  0.25500000000E-02 0. -1.
         -2    1    1    2  502    0 -0.10896733174E+02 -0.28442827455E+02 -0.13823470611E+03  0.14155058180E+03  0.25500000000E-02 0. -1.
<mgrwt>
<rscale>  0 0.65669364E+02</rscale>
<asrwt>0</asrwt>
<pdfrwt beam="2">  1        2 0.68703014E-01 0.65669364E+02</pdfrwt>
<pdfrwt beam="1">  1       -2 0.37141816E-03 0.65669364E+02</pdfrwt>
<totfact> 0.48772057E+05</totfact>
</mgrwt>
</event>
<event>
 4    1  0.4604841E-002  0.5526605E+02  0.7818608E-02  0.1418845E+00
          2   -1    0    0    0  501  0.00000000000E+00  0.00000000000E+00  0.19312820670E+02  0.19312820839E+02  0.25500000000E-02 0.  1.
         -2   -1    0    0  501    0 -0.00000000000E+00 -0.00000000000E+00 -0.39537671899E+02  0.39537671981E+02  0.25500000000E-02 0.  1.
          2    1    1    2    0  502 -0.14182642080E+02 -0.21917475274E+02 -0.46614552073E+00  0.26110158117E+02  0.25500000000E-02 0. -1.
         -2    1    1    2  502    0  0.14182642080E+02  0.21917475274E+02 -0.19758705707E+02  0.32740334703E+02  0.25500000000E-02 0. -1.
<mgrwt>
<rscale>  0 0.55266047E+02</rscale>
<asrwt>0</asrwt>
<pdfrwt beam="1">  1        2 0.29712032E-02 0.55266047E+02</pdfrwt>
<pdfrwt beam="2">  1       -2 0.60827188E-02 0.55266047E+02</pdfrwt>
<totfact> 0.33414193E+05</totfact>
</mgrwt>
</event>
<event>
 4    1  0.4604841E-002  0.9315951E+02  0.7818608E-02  0.1295376E+00
          2   -1    0    0    0  501  0.00000000000E+00  0.00000000000E+00  0.53396079155E+02  0.53396079216E+02  0.25500000000E-02 0. -1.
         -2   -1    0    0  501    0 -0.00000000000E+00 -0.00000000000E+00 -0.40633575600E+02  0.40633575680E+02  0.25500000000E-02 0. -1.
          2    1    1    2    0  502  0.25164860000E+01 -0.44393718557E+02  0.20386687525E+02  0.48915764165E+02  0.25500000000E-02 0. -1.
         -2    1    1    2  502    0 -0.25164860000E+01  0.44393718557E+02 -0.76241839690E+01  0.45113890730E+02  0.25500000000E-02 0. -1.
<mgrwt>
<rscale>  0 0.93159511E+02</rscale>
<asrwt>0</asrwt>
<pdfrwt beam="1">  1        2 0.82147814E-02 0.93159511E+02</pdfrwt>
<pdfrwt beam="2">  1       -2 0.62513193E-02 0.93159511E+02</pdfrwt>
<totfact> 0.96722067E+04</totfact>
</mgrwt>
</event>
<event>
 4    1  0.4604841E-002  0.6333205E+02  0.7818608E-02  0.1384358E+00
          2   -1    0    0    0  501  0.00000000000E+00  0.00000000000E+00  0.42075104387E+01  0.42075112114E+01  0.25500000000E-02 0. -1.
         -2   -1    0    0  501    0 -0.00000000000E+00 -0.00000000000E+00 -0.23832075310E+03  0.23832075311E+03  0.25500000000E-02 0. -1.
          2    1    1    2    0  502  0.23884573886E+02 -0.16186052174E+02 -0.16702733106E+03  0.16950100437E+03  0.25500000000E-02 0.  1.
         -2    1    1    2  502    0 -0.23884573886E+02  0.16186052174E+02 -0.67085911595E+02  0.73027259949E+02  0.25500000000E-02 0.  1.
<mgrwt>
<rscale>  0 0.63332050E+02</rscale>
<asrwt>0</asrwt>
<pdfrwt beam="1">  1        2 0.64730955E-03 0.63332050E+02</pdfrwt>
<pdfrwt beam="2">  1       -2 0.36664721E-01 0.63332050E+02</pdfrwt>
<totfact> 0.14510037E+05</totfact>
</mgrwt>
</event>
<event>
 4    1  0.4604841E-002  0.7221500E+02  0.7818608E-02  0.1352719E+00
          2   -1    0    0    0  501  0.00000000000E+00  0.00000000000E+00  0.17735547137E+04  0.17735547137E+04  0.25500000000E-02 0.  1.
         -2   -1    0    0  501    0 -0.00000000000E+00 -0.00000000000E+00 -0.73510433657E+00  0.73510875940E+00  0.25500000000E-02 0.  1.
          2    1    1    2    0  502  0.21122318834E+02  0.13978465150E+02  0.25415474226E+03  0.25541374838E+03  0.25500000000E-02 0.  1.
         -2    1    1    2  502    0 -0.21122318834E+02 -0.13978465150E+02  0.15186648671E+04  0.15188760741E+04  0.25500000000E-02 0.  1.
<mgrwt>
<rscale>  0 0.72215004E+02</rscale>
<asrwt>0</asrwt>
<pdfrwt beam="1">  1        2 0.27285503E+00 0.72215004E+02</pdfrwt>
<pdfrwt beam="2">  1       -2 0.11309312E-03 0.72215004E+02</pdfrwt>
<totfact> 0.39779660E+05</totfact>
</mgrwt>
</event>
<event>
 4    1  0.4604841E-002  0.5322440E+02  0.7818608E-02  0.1428687E+00
         -2   -1    0    0  501    0 -0.00000000000E+00  0.00000000000E+00  0.46643033382E+03  0.46643033383E+03  0.25500000000E-02 0.  1.
          2   -1    0    0    0  501  0.00000000000E+00 -0.00000000000E+00 -0.15183591726E+01  0.15183613138E+01  0.25500000000E-02 0.  1.
          2    1    1    2    0  502 -0.84809210862E+01 -0.22952952615E+02  0.14047759180E+03  0.14259283944E+03  0.25500000000E-02 0.  1.
         -2    1    1    2  502    0  0.84809210862E+01  0.22952952615E+02  0.32443438285E+03  0.32535585570E+03  0.25500000000E-02 0.  1.
<mgrwt>
<rscale>  0 0.53224403E+02</rscale>
<asrwt>0</asrwt>
<pdfrwt beam="2">  1        2 0.23359401E-03 0.53224403E+02</pdfrwt>
<pdfrwt beam="1">  1       -2 0.71758475E-01 0.53224403E+02</pdfrwt>
<totfact> 0.14982578E+05</totfact>
</mgrwt>
</event>
<event>
 4    1  0.4604841E-002  0.6110342E+02  0.7818608E-02  0.1393259E+00
          2   -1    0    0    0  501  0.00000000000E+00  0.00000000000E+00  0.96310914341E+03  0.96310914342E+03  0.25500000000E-02 0.  1.
         -2   -1    0    0  501    0 -0.00000000000E+00 -0.00000000000E+00 -0.96915851435E+00  0.96916186906E+00  0.25500000000E-02 0.  1.
          2    1    1    2    0  502  0.10174336717E+02  0.22069142164E+02  0.18892776151E+03  0.19048428607E+03  0.25500000000E-02 0.  1.
         -2    1    1    2  502    0 -0.10174336717E+02 -0.22069142164E+02  0.77321222338E+03  0.77359401921E+03  0.25500000000E-02 0.  1.
<mgrwt>
<rscale>  0 0.61103422E+02</rscale>
<asrwt>0</asrwt>
<pdfrwt beam="1">  1        2 0.14817113E+00 0.61103422E+02</pdfrwt>
<pdfrwt beam="2">  1       -2 0.14910107E-03 0.61103422E+02</pdfrwt>
<totfact> 0.70044098E+05</totfact>
</mgrwt>
</event>
<event>
 4    1  0.4604841E-002  0.9114469E+02  0.7818608E-02  0.1300103E+00
          2   -1    0    0    0  501  0.00000000000E+00  0.00000000000E+00  0.86258033845E+03  0.86258033846E+03  0.25500000000E-02 0. -1.
         -2   -1    0    0  501    0 -0.00000000000E+00 -0.00000000000E+00 -0.24077041256E+01  0.24077054759E+01  0.25500000000E-02 0. -1.
          2    1    1    2    0  502 -0.20380452973E+02  0.37407556529E+02  0.27642866332E+03  0.27969178404E+03  0.25500000000E-02 0.  1.
         -2    1    1    2  502    0  0.20380452973E+02 -0.37407556529E+02  0.58374397101E+03  0.58529625989E+03  0.25500000000E-02 0.  1.
<mgrwt>
<rscale>  0 0.91144694E+02</rscale>
<asrwt>0</asrwt>
<pdfrwt beam="1">  1        2 0.13270444E+00 0.91144694E+02</pdfrwt>
<pdfrwt beam="2">  1       -2 0.37041676E-03 0.91144694E+02</pdfrwt>
<totfact> 0.24686104E+05</totfact>
</mgrwt>
</event>
<event>
 4    1  0.4604841E-002  0.6232612E+02  0.7818608E-02  0.1388321E+00
          2   -1    0    0    0  501  0.00000000000E+00  0.00000000000E+00  0.59392545545E+00  0.59393092959E+00  0.25500000000E-02 0.  1.
         -2   -1    0    0  501    0 -0.00000000000E+00 -0.00000000000E+00 -0.16351071045E+04  0.16351071045E+04  0.25500000000E-02 0.  1.
          2    1    1    2    0  502 -0.19333941131E+02  0.18723047633E+02 -0.40497782969E+03  0.40587115731E+03  0.25500000000E-02 0. -1.
         -2    1    1    2  502    0  0.19333941131E+02 -0.18723047633E+02 -0.12295353493E+04  0.12298298781E+04  0.25500000000E-02 0. -1.
<mgrwt>
<rscale>  0 0.62326117E+02</rscale>
<asrwt>0</asrwt>
<pdfrwt beam="1">  1        2 0.91374877E-04 0.62326117E+02</pdfrwt>
<pdfrwt beam="2">  1       -2 0.25155134E+00 0.62326117E+02</pdfrwt>
<totfact> 0.24179309E+04</totfact>
</mgrwt>
</event>
<event>
 4    1  0.4604841E-002  0.4746293E+02  0.7818608E-02  0.1459527E+00
          2   -1    0    0    0  501  0.00000000000E+00  0.00000000000E+00  0.42357053420E+03  0.42357053421E+03  0.25500000000E-02 0. -1.
         -2   -1    0    0  501    0 -0.00000000000E+00 -0.00000000000E+00 -0.13296060081E+01  0.13296084534E+01  0.25500000000E-02 0. -1.
          2    1    1    2    0  502 -0.15448357650E+02 -0.16158889809E+02  0.13982715745E+03  0.14160294997E+03  0.25500000000E-02 0.  1.
         -2    1    1    2  502    0  0.15448357650E+02  0.16158889809E+02  0.28241377074E+03  0.28329719269E+03  0.25500000000E-02 0.  1.
<mgrwt>
<rscale>  0 0.47462931E+02</rscale>
<asrwt>0</asrwt>
<pdfrwt beam="1">  1        2 0.65164701E-01 0.47462931E+02</pdfrwt>
<pdfrwt beam="2">  1       -2 0.20455495E-03 0.47462931E+02</pdfrwt>
<totfact> 0.10830129E+06</totfact>
</mgrwt>
</event>
<event>
 4    1  0.4604841E-002  0.5280251E+02  0.7818608E-02  0.1430786E+00
         -2   -1    0    0  501    0 -0.00000000000E+00  0.00000000000E+00  0.10881655336E+01  0.10881685214E+01  0.25500000000E-02 0. -1.
          2   -1    0    0    0  501  0.00000000000E+00 -0.00000000000E+00 -0.64055069612E+03  0.64055069613E+03  0.25500000000E-02 0. -1.
          2    1    1    2    0  502 -0.24659930342E+02  0.60055102746E+00 -0.20538063873E+03  0.20685666437E+03  0.25500000000E-02 0.  1.
         -2    1    1    2  502    0  0.24659930342E+02 -0.60055102746E+00 -0.43408189186E+03  0.43478220027E+03  0.25500000000E-02 0.  1.
<mgrwt>
<rscale>  0 0.52802506E+02</rscale>
<asrwt>0</asrwt>
<pdfrwt beam="2">  1        2 0.98545960E-01 0.52802506E+02</pdfrwt>
<pdfrwt beam="1">  1       -2 0.16741082E-03 0.52802506E+02</pdfrwt>
<totfact> 0.94121768E+05</totfact>
</mgrwt>
</event>
<event>
 4    1  0.4604841E-002  0.8012252E+02  0.7818608E-02  0.1328704E+00
         -2   -1    0    0  501    0 -0.00000000000E+00  0.00000000000E+00  0.55790391463E+02  0.55790391521E+02  0.25500000000E-02 0.  1.
          2   -1    0    0    0  501  0.00000000000E+00 -0.00000000000E+00 -0.28766686925E+02  0.28766687038E+02  0.25500000000E-02 0.  1.
          2    1    1    2    0  502  0.17855050845E+02 -0.35225631094E+02  0.64121970172E+01  0.40009551406E+02  0.25500000000E-02 0.  1.
         -2    1    1    2  502    0 -0.17855050845E+02  0.35225631094E+02  0.20611507520E+02  0.44547527153E+02  0.25500000000E-02 0.  1.
<mgrwt>
<rscale>  0 0.80122524E+02</rscale>
<asrwt>0</asrwt>
<pdfrwt beam="2">  1        2 0.44256441E-02 0.80122524E+02</pdfrwt>
<pdfrwt beam="1">  1       -2 0.85831372E-02 0.80122524E+02</pdfrwt>
<totfact> 0.12775608E+05</totfact>
</mgrwt>
</event>
<event>
 4    1  0.4604841E-002  0.5930540E+02  0.7818608E-02  0.1400770E+00
         -2   -1    0    0  501    0 -0.00000000000E+00  0.00000000000E+00  0.16603218805E+03  0.16603218807E+03  0.25500000000E-02 0.  1.
          2   -1    0    0    0  501  0.00000000000E+00 -0.00000000000E+00 -0.52958554645E+01  0.52958560784E+01  0.25500000000E-02 0.  1.
          2    1    1    2    0  502  0.59503146538E+01  0.28932000961E+02  0.87910158819E+02  0.92739759295E+02  0.25500000000E-02 0.  1.
         -2    1    1    2  502    0 -0.59503146538E+01 -0.28932000961E+02  0.72826173768E+02  0.78588284854E+02  0.25500000000E-02 0.  1.
<mgrwt>
<rscale>  0 0.59305397E+02</rscale>
<asrwt>0</asrwt>
<pdfrwt beam="2">  1        2 0.81474696E-03 0.59305397E+02</pdfrwt>
<pdfrwt beam="1">  1       -2 0.25543416E-01 0.59305397E+02</pdfrwt>
<totfact> 0.19864194E+05</totfact>
</mgrwt>
</event>
<event>
 4    1  0.4604841E-002  0.7020038E+02  0.7818608E-02  0.1359413E+00
          2   -1    0    0    0  501  0.00000000000E+00  0.00000000000E+00  0.19577354045E+04  0.19577354045E+04  0.25500000000E-02 0. -1.
         -2   -1    0    0  501    0 -0.00000000000E+00 -0.00000000000E+00 -0.62930779846E+00  0.62931296483E+00  0.25500000000E-02 0. -1.
          2    1    1    2    0  502 -0.30590114288E+02  0.28566650458E+01  0.14520655826E+04  0.14523905714E+04  0.25500000000E-02 0. -1.
         -2    1    1    2  502    0  0.30590114288E+02 -0.28566650458E+01  0.50504051410E+03  0.50597414610E+03  0.25500000000E-02 0. -1.
<mgrwt>
<rscale>  0 0.70200377E+02</rscale>
<asrwt>0</asrwt>
<pdfrwt beam="1">  1        2 0.30119056E+00 0.70200377E+02</pdfrwt>
<pdfrwt beam="2">  1       -2 0.96816822E-04 0.70200377E+02</pdfrwt>
<totfact> 0.39697261E+05</totfact>
</mgrwt>
</event>
<event>
 4    1  0.4604841E-002  0.6637728E+02  0.7818608E-02  0.1372864E+00
         -2   -1    0    0  501    0 -0.00000000000E+00  0.00000000000E+00  0.41777146975E+01  0.41777154757E+01  0.25500000000E-02 0.  1.
          2   -1    0    0    0  501  0.00000000000E+00 -0.00000000000E+00 -0.26365749510E+03  0.26365749512E+03  0.25500000000E-02 0.  1.
          2    1    1    2    0  502  0.53241934694E+00 -0.21803869385E+02 -0.23068000580E+03  0.23170877685E+03  0.25500000000E-02 0.  1.
         -2    1    1    2  502    0 -0.53241934694E+00  0.21803869385E+02 -0.28799774611E+02  0.36126433738E+02  0.25500000000E-02 0.  1.
<mgrwt>
<rscale>  0 0.66377282E+02</rscale>
<asrwt>0</asrwt>
<pdfrwt beam="2">  1        2 0.40562679E-01 0.66377282E+02</pdfrwt>
<pdfrwt beam="1">  1       -2 0.64272560E-03 0.66377282E+02</pdfrwt>
<totfact> 0.39413120E+05</totfact>
</mgrwt>
</event>
<event>
 4    1  0.4604841E-002  0.4675708E+02  0.7818608E-02  0.1463661E+00
          2   -1    0    0    0  501  0.00000000000E+00  0.00000000000E+00  0.56142686570E+03  0.56142686571E+03  0.25500000000E-02 0.  1.
         -2   -1    0    0  501    0 -0.00000000000E+00 -0.00000000000E+00 -0.97351108523E+00  0.97351442494E+00  0.25500000000E-02 0.  1.
          2    1    1    2    0  502  0.55117649836E-01 -0.23222603876E+02  0.24780903626E+03  0.24889477863E+03  0.25500000000E-02 0.  1.
         -2    1    1    2  502    0 -0.55117649836E-01  0.23222603876E+02  0.31264431835E+03  0.31350560150E+03  0.25500000000E-02 0.  1.
<mgrwt>
<rscale>  0 0.46757084E+02</rscale>
<asrwt>0</asrwt>
<pdfrwt beam="1">  1        2 0.86373502E-01 0.46757084E+02</pdfrwt>
<pdfrwt beam="2">  1       -2 0.14977096E-03 0.46757084E+02</pdfrwt>
<totfact> 0.12263352E+06</totfact>
</mgrwt>
</event>
<event>
 4    1  0.4604841E-002  0.4878125E+02  0.7818608E-02  0.1452028E+00
          2   -1    0    0    0  501  0.00000000000E+00  0.00000000000E+00  0.95918868315E+03  0.95918868315E+03  0.25500000000E-02 0. -1.
         -2   -1    0    0  501    0 -0.00000000000E+00 -0.00000000000E+00 -0.62021163706E+00  0.62021687920E+00  0.25500000000E-02 0. -1.
          2    1    1    2    0  502  0.90073406442E+01  0.22546627644E+02  0.43347773221E+03  0.43415714544E+03  0.25500000000E-02 0. -1.
         -2    1    1    2  502    0 -0.90073406442E+01 -0.22546627644E+02  0.52509073929E+03  0.52565175459E+03  0.25500000000E-02 0. -1.
<mgrwt>
<rscale>  0 0.48781246E+02</rscale>
<asrwt>0</asrwt>
<pdfrwt beam="1">  1        2 0.14756713E+00 0.48781246E+02</pdfrwt>
<pdfrwt beam="2">  1       -2 0.95417812E-04 0.48781246E+02</pdfrwt>
<totfact> 0.12274660E+06</totfact>
</mgrwt>
</event>
<event>
 4    1  0.4604841E-002  0.6490464E+02  0.7818608E-02  0.1378331E+00
          2   -1    0    0    0  501  0.00000000000E+00  0.00000000000E+00  0.11310658551E+04  0.11310658551E+04  0.25500000000E-02 0.  1.
         -2   -1    0    0  501    0 -0.00000000000E+00 -0.00000000000E+00 -0.93111381042E+00  0.93111730220E+00  0.25500000000E-02 0.  1.
          2    1    1    2    0  502 -0.20290915050E+02 -0.10455044175E+02  0.96739131907E+03  0.96766057758E+03  0.25500000000E-02 0.  1.
         -2    1    1    2  502    0  0.20290915050E+02  0.10455044175E+02  0.16274342225E+03  0.16433639485E+03  0.25500000000E-02 0.  1.
<mgrwt>
<rscale>  0 0.64904638E+02</rscale>
<asrwt>0</asrwt>
<pdfrwt beam="1">  1        2 0.17400961E+00 0.64904638E+02</pdfrwt>
<pdfrwt beam="2">  1       -2 0.14324897E-03 0.64904638E+02</pdfrwt>
<totfact> 0.60211086E+05</totfact>
</mgrwt>
</event>
<event>
 4    1  0.4604841E-002  0.5716948E+02  0.7818608E-02  0.1410109E+00
         -2   -1    0    0  501    0 -0.00000000000E+00  0.00000000000E+00  0.12726683468E+03  0.12726683471E+03  0.25500000000E-02 0. -1.
          2   -1    0    0    0  501  0.00000000000E+00 -0.00000000000E+00 -0.64202692619E+01  0.64202697683E+01  0.25500000000E-02 0. -1.
          2    1    1    2    0  502  0.23509003335E+02  0.16056846692E+02  0.66427103028E+02  0.72270710434E+02  0.25500000000E-02 0.  1.
         -2    1    1    2  502    0 -0.23509003335E+02 -0.16056846692E+02  0.54419462394E+02  0.61416394043E+02  0.25500000000E-02 0.  1.
<mgrwt>
<rscale>  0 0.57169481E+02</rscale>
<asrwt>0</asrwt>
<pdfrwt beam="2">  1        2 0.98773378E-03 0.57169481E+02</pdfrwt>
<pdfrwt beam="1">  1       -2 0.19579513E-01 0.57169481E+02</pdfrwt>
<totfact> 0.23760919E+05</totfact>
</mgrwt>
</event>
<event>
 4    1  0.4604841E-002  0.4552931E+02  0.7818608E-02  0.1471064E+00
          2   -1    0    0    0  501  0.00000000000E+00  0.00000000000E+00  0.28659363212E+04  0.28659363212E+04  0.25500000000E-02 0. -1.
         -2   -1    0    0  501    0 -0.00000000000E+00 -0.00000000000E+00 -0.18081482301E+00  0.18083280322E+00  0.25500000000E-02 0. -1.
          2    1    1    2    0  502 -0.66770145725E+01  0.21506192465E+02  0.12228561570E+04  0.12230634814E+04  0.25500000000E-02 0.  1.
         -2    1    1    2  502    0  0.66770145725E+01 -0.21506192465E+02  0.16428993493E+04  0.16430536726E+04  0.25500000000E-02 0.  1.
<mgrwt>
<rscale>  0 0.45529311E+02</rscale>
<asrwt>0</asrwt>
<pdfrwt beam="1">  1        2 0.44095855E+00 0.45529311E+02</pdfrwt>
<pdfrwt beam="2">  1       -2 0.27816192E-04 0.45529311E+02</pdfrwt>
<totfact> 0.68600277E+05</totfact>
</mgrwt>
</event>
<event>
 4    1  0.4604841E-002  0.4298381E+02  0.7818608E-02  0.1487336E+00
         -2   -1    0    0  501    0 -0.00000000000E+00  0.00000000000E+00  0.75181738821E+02  0.75181738864E+02  0.25500000000E-02 0.  1.
          2   -1    0    0    0  501  0.00000000000E+00 -0.00000000000E+00 -0.61438043559E+01  0.61438048851E+01  0.25500000000E-02 0.  1.
          2    1    1    2    0  502  0.19058403441E+02 -0.97176320549E+01  0.38417963640E+02  0.43972662544E+02  0.25500000000E-02 0.  1.
         -2    1    1    2  502    0 -0.19058403441E+02  0.97176320549E+01  0.30619970825E+02  0.37352881205E+02  0.25500000000E-02 0.  1.
<mgrwt>
<rscale>  0 0.42983807E+02</rscale>
<asrwt>0</asrwt>
<pdfrwt beam="2">  1        2 0.94520078E-03 0.42983807E+02</pdfrwt>
<pdfrwt beam="1">  1       -2 0.11566421E-01 0.42983807E+02</pdfrwt>
<totfact> 0.54320426E+05</totfact>
</mgrwt>
</event>
<event>
 4    1  0.4604841E-002  0.4086185E+02  0.7818608E-02  0.1501963E+00
         -2   -1    0    0  501    0 -0.00000000000E+00  0.00000000000E+00  0.50923453787E+01  0.50923460171E+01  0.25500000000E-02 0.  1.
          2   -1    0    0    0  501  0.00000000000E+00 -0.00000000000E+00 -0.81970626305E+02  0.81970626345E+02  0.25500000000E-02 0.  1.
          2    1    1    2    0  502  0.15566150969E+02 -0.12856618918E+02 -0.45117702548E+02  0.49428785092E+02  0.25500000000E-02 0. -1.
         -2    1    1    2  502    0 -0.15566150969E+02  0.12856618918E+02 -0.31760578379E+02  0.37634187270E+02  0.25500000000E-02 0. -1.
<mgrwt>
<rscale>  0 0.40861854E+02</rscale>
<asrwt>0</asrwt>
<pdfrwt beam="2">  1        2 0.12610865E-01 0.40861854E+02</pdfrwt>
<pdfrwt beam="1">  1       -2 0.78343786E-03 0.40861854E+02</pdfrwt>
<totfact> 0.94527195E+05</totfact>
</mgrwt>
</event>
<event>
 4    1  0.4604841E-002  0.4128204E+02  0.7818608E-02  0.1498983E+00
          2   -1    0    0    0  501  0.00000000000E+00  0.00000000000E+00  0.57131907491E+01  0.57131913182E+01  0.25500000000E-02 0. -1.
         -2   -1    0    0  501    0 -0.00000000000E+00 -0.00000000000E+00 -0.74573345255E+02  0.74573345299E+02  0.25500000000E-02 0. -1.
          2    1    1    2    0  502  0.14744367539E+02 -0.14222375382E+02 -0.39342236478E+02  0.44356328897E+02  0.25500000000E-02 0.  1.
         -2    1    1    2  502    0 -0.14744367539E+02  0.14222375382E+02 -0.29517918028E+02  0.35930207720E+02  0.25500000000E-02 0.  1.
<mgrwt>
<rscale>  0 0.41282043E+02</rscale>
<asrwt>0</asrwt>
<pdfrwt beam="1">  1        2 0.87895252E-03 0.41282043E+02</pdfrwt>
<pdfrwt beam="2">  1       -2 0.11472822E-01 0.41282043E+02</pdfrwt>
<totfact> 0.59935757E+05</totfact>
</mgrwt>
</event>
<event>
 4    1  0.4604841E-002  0.5159858E+02  0.7818608E-02  0.1436905E+00
         -2   -1    0    0  501    0 -0.00000000000E+00  0.00000000000E+00  0.71852205300E+01  0.71852209825E+01  0.25500000000E-02 0.  1.
          2   -1    0    0    0  501  0.00000000000E+00 -0.00000000000E+00 -0.92635057841E+02  0.92635057876E+02  0.25500000000E-02 0.  1.
          2    1    1    2    0  502  0.22232337433E+02  0.88471116374E+01 -0.24063219477E+02  0.33935037206E+02  0.25500000000E-02 0. -1.
         -2    1    1    2  502    0 -0.22232337433E+02 -0.88471116374E+01 -0.61386617834E+02  0.65885241653E+02  0.25500000000E-02 0. -1.
<mgrwt>
<rscale>  0 0.51598579E+02</rscale>
<asrwt>0</asrwt>
<pdfrwt beam="2">  1        2 0.14251547E-01 0.51598579E+02</pdfrwt>
<pdfrwt beam="1">  1       -2 0.11054186E-02 0.51598579E+02</pdfrwt>
<totfact> 0.54203459E+05</totfact>
</mgrwt>
</event>
<event>
 4    1  0.4604841E-002  0.4845173E+02  0.7818608E-02  0.1453876E+00
          2   -1    0    0    0  501  0.00000000000E+00  0.00000000000E+00  0.47699631010E+02  0.47699631079E+02  0.25500000000E-02 0.  1.
         -2   -1    0    0  501    0 -0.00000000000E+00 -0.00000000000E+00 -0.12303922231E+02  0.12303922496E+02  0.25500000000E-02 0.  1.
          2    1    1    2    0  502 -0.11895227740E+02 -0.19384467939E+02  0.73632841852E+01  0.23905480559E+02  0.25500000000E-02 0.  1.
         -2    1    1    2  502    0  0.11895227740E+02  0.19384467939E+02  0.28032424594E+02  0.36098073015E+02  0.25500000000E-02 0.  1.
<mgrwt>
<rscale>  0 0.48451731E+02</rscale>
<asrwt>0</asrwt>
<pdfrwt beam="1">  1        2 0.73384048E-02 0.48451731E+02</pdfrwt>
<pdfrwt beam="2">  1       -2 0.18929111E-02 0.48451731E+02</pdfrwt>
<totfact> 0.55126084E+05</totfact>
</mgrwt>
</event>
<event>
 4    1  0.4604841E-002  0.4662230E+02  0.7818608E-02  0.1464461E+00
         -2   -1    0    0  501    0 -0.00000000000E+00  0.00000000000E+00  0.39041988207E+00  0.39042820955E+00  0.25500000000E-02 0. -1.
          2   -1    0    0    0  501  0.00000000000E+00 -0.00000000000E+00 -0.13918447625E+04  0.13918447626E+04  0.25500000000E-02 0. -1.
          2    1    1    2    0  502  0.11742412548E+02  0.17729884523E+02 -0.41058553743E+03  0.41113588582E+03  0.25500000000E-02 0. -1.
         -2    1    1    2  502    0 -0.11742412548E+02 -0.17729884523E+02 -0.98086880524E+03  0.98109930494E+03  0.25500000000E-02 0. -1.
<mgrwt>
<rscale>  0 0.46622298E+02</rscale>
<asrwt>0</asrwt>
<pdfrwt beam="2">  1        2 0.21412599E+00 0.46622298E+02</pdfrwt>
<pdfrwt beam="1">  1       -2 0.60066353E-04 0.46622298E+02</pdfrwt>
<totfact> 0.13330097E+06</totfact>
</mgrwt>
</event>
<event>
 4    1  0.4604841E-002  0.4423683E+02  0.7818608E-02  0.1479163E+00
         -2   -1    0    0  501    0 -0.00000000000E+00  0.00000000000E+00  0.26218088778E+01  0.26218101179E+01  0.25500000000E-02 0.  1.
          2   -1    0    0    0  501  0.00000000000E+00 -0.00000000000E+00 -0.18659797037E+03  0.18659797039E+03  0.25500000000E-02 0.  1.
          2    1    1    2    0  502 -0.25487231216E+01 -0.21382775374E+02 -0.70385912086E+02  0.73606356376E+02  0.25500000000E-02 0.  1.
         -2    1    1    2  502    0  0.25487231216E+01  0.21382775374E+02 -0.11359024941E+03  0.11561342413E+03  0.25500000000E-02 0.  1.
<mgrwt>
<rscale>  0 0.44236832E+02</rscale>
<asrwt>0</asrwt>
<pdfrwt beam="2">  1        2 0.28707370E-01 0.44236832E+02</pdfrwt>
<pdfrwt beam="1">  1       -2 0.40335545E-03 0.44236832E+02</pdfrwt>
<totfact> 0.97574612E+05</totfact>
</mgrwt>
</event>
<event>
 4    1  0.4604841E-002  0.6975688E+02  0.7818608E-02  0.1360922E+00
          2   -1    0    0    0  501  0.00000000000E+00  0.00000000000E+00  0.18442152862E+01  0.18442170491E+01  0.25500000000E-02 0.  1.
         -2   -1    0    0  501    0 -0.00000000000E+00 -0.00000000000E+00 -0.65963278432E+03  0.65963278433E+03  0.25500000000E-02 0.  1.
          2    1    1    2    0  502  0.14582817434E+02 -0.18242348059E+02 -0.83248356054E+02  0.86462307506E+02  0.25500000000E-02 0.  1.
         -2    1    1    2  502    0 -0.14582817434E+02  0.18242348059E+02 -0.57454021298E+03  0.57501469387E+03  0.25500000000E-02 0.  1.
<mgrwt>
<rscale>  0 0.69756876E+02</rscale>
<asrwt>0</asrwt>
<pdfrwt beam="1">  1        2 0.28372609E-03 0.69756876E+02</pdfrwt>
<pdfrwt beam="2">  1       -2 0.10148178E+00 0.69756876E+02</pdfrwt>
<totfact> 0.57143300E+04</totfact>
</mgrwt>
</event>
<event>
 4    1  0.4604841E-002  0.5083472E+02  0.7818608E-02  0.1440891E+00
          2   -1    0    0    0  501  0.00000000000E+00  0.00000000000E+00  0.52837665537E+02  0.52837665599E+02  0.25500000000E-02 0.  1.
         -2   -1    0    0  501    0 -0.00000000000E+00 -0.00000000000E+00 -0.12226927102E+02  0.12226927368E+02  0.25500000000E-02 0.  1.
          2    1    1    2    0  502 -0.86890866331E+01 -0.23824732394E+02  0.22494072793E+02  0.33898398450E+02  0.25500000000E-02 0. -1.
         -2    1    1    2  502    0  0.86890866331E+01  0.23824732394E+02  0.18116665642E+02  0.31166194517E+02  0.25500000000E-02 0. -1.
<mgrwt>
<rscale>  0 0.50834724E+02</rscale>
<asrwt>0</asrwt>
<pdfrwt beam="1">  1        2 0.81288717E-02 0.50834724E+02</pdfrwt>
<pdfrwt beam="2">  1       -2 0.18810657E-02 0.50834724E+02</pdfrwt>
<totfact> 0.49685914E+05</totfact>
</mgrwt>
</event>
<event>
 4    1  0.4604841E-002  0.7790391E+02  0.7818608E-02  0.1335107E+00
          2   -1    0    0    0  501  0.00000000000E+00  0.00000000000E+00  0.43086227292E+03  0.43086227293E+03  0.25500000000E-02 0.  1.
         -2   -1    0    0  501    0 -0.00000000000E+00 -0.00000000000E+00 -0.35214376268E+01  0.35214385501E+01  0.25500000000E-02 0.  1.
          2    1    1    2    0  502  0.57705794039E+01 -0.35836653102E+02  0.29246419354E+03  0.29470810950E+03  0.25500000000E-02 0.  1.
         -2    1    1    2  502    0 -0.57705794039E+01  0.35836653102E+02  0.13487664175E+03  0.13967560198E+03  0.25500000000E-02 0.  1.
<mgrwt>
<rscale>  0 0.77903911E+02</rscale>
<asrwt>0</asrwt>
<pdfrwt beam="1">  1        2 0.66286443E-01 0.77903911E+02</pdfrwt>
<pdfrwt beam="2">  1       -2 0.54176020E-03 0.77903911E+02</pdfrwt>
<totfact> 0.30994132E+05</totfact>
</mgrwt>
</event>
<event>
 4    1  0.4604841E-002  0.4797146E+02  0.7818608E-02  0.1456600E+00
          2   -1    0    0    0  501  0.00000000000E+00  0.00000000000E+00  0.12226017219E+04  0.12226017219E+04  0.25500000000E-02 0. -1.
         -2   -1    0    0  501    0 -0.00000000000E+00 -0.00000000000E+00 -0.47056296723E+00  0.47056987646E+00  0.25500000000E-02 0. -1.
          2    1    1    2    0  502 -0.21073199321E+02  0.82641986437E+01  0.40879732798E+03  0.40942353631E+03  0.25500000000E-02 0.  1.
         -2    1    1    2  502    0  0.21073199321E+02 -0.82641986437E+01  0.81333383093E+03  0.81364875546E+03  0.25500000000E-02 0.  1.
<mgrwt>
<rscale>  0 0.47971463E+02</rscale>
<asrwt>0</asrwt>
<pdfrwt beam="1">  1        2 0.18808955E+00 0.47971463E+02</pdfrwt>
<pdfrwt beam="2">  1       -2 0.72395998E-04 0.47971463E+02</pdfrwt>
<totfact> 0.12734341E+06</totfact>
</mgrwt>
</event>
<event>
 4    1  0.4604841E-002  0.6203802E+02  0.7818608E-02  0.1389473E+00
         -2   -1    0    0  501    0 -0.00000000000E+00  0.00000000000E+00  0.56242778893E+00  0.56243356964E+00  0.25500000000E-02 0. -1.
          2   -1    0    0    0  501  0.00000000000E+00 -0.00000000000E+00 -0.17107511483E+04  0.17107511483E+04  0.25500000000E-02 0. -1.
          2    1    1    2    0  502  0.10405998781E+02 -0.22145854669E+02 -0.13809870638E+04  0.13812038206E+04  0.25500000000E-02 0.  1.
         -2    1    1    2  502    0 -0.10405998781E+02  0.22145854669E+02 -0.32920165672E+03  0.33010976127E+03  0.25500000000E-02 0.  1.
<mgrwt>
<rscale>  0 0.62038018E+02</rscale>
<asrwt>0</asrwt>
<pdfrwt beam="2">  1        2 0.26318832E+00 0.62038018E+02</pdfrwt>
<pdfrwt beam="1">  1       -2 0.86529166E-04 0.62038018E+02</pdfrwt>
<totfact> 0.59995960E+05</totfact>
</mgrwt>
</event>
<event>
 4    1  0.4604841E-002  0.4733703E+02  0.7818608E-02  0.1460258E+00
         -2   -1    0    0  501    0 -0.00000000000E+00  0.00000000000E+00  0.78687590649E+00  0.78688003833E+00  0.25500000000E-02 0. -1.
          2   -1    0    0    0  501  0.00000000000E+00 -0.00000000000E+00 -0.71192568491E+03  0.71192568492E+03  0.25500000000E-02 0. -1.
          2    1    1    2    0  502 -0.22991015433E+02  0.51145709214E+01 -0.32041080769E+03  0.32127532012E+03  0.25500000000E-02 0. -1.
         -2    1    1    2  502    0  0.22991015433E+02 -0.51145709214E+01 -0.39072800131E+03  0.39143724483E+03  0.25500000000E-02 0. -1.
<mgrwt>
<rscale>  0 0.47337032E+02</rscale>
<asrwt>0</asrwt>
<pdfrwt beam="2">  1        2 0.10952651E+00 0.47337032E+02</pdfrwt>
<pdfrwt beam="1">  1       -2 0.12105872E-03 0.47337032E+02</pdfrwt>
<totfact> 0.12636522E+06</totfact>
</mgrwt>
</event>
<event>
 4    1  0.4604841E-002  0.4200606E+02  0.7818608E-02  0.1493947E+00
         -2   -1    0    0  501    0 -0.00000000000E+00  0.00000000000E+00  0.22226387409E+00  0.22227850150E+00  0.25500000000E-02 0. -1.
          2   -1    0    0    0  501  0.00000000000E+00 -0.00000000000E+00 -0.19846354563E+04  0.19846354563E+04  0.25500000000E-02 0. -1.
          2    1    1    2    0  502  0.84497349487E+01  0.18395696796E+02 -0.72773382795E+03  0.72801533228E+03  0.25500000000E-02 0.  1.
         -2    1    1    2  502    0 -0.84497349487E+01 -0.18395696796E+02 -0.12566793644E+04  0.12568424025E+04  0.25500000000E-02 0.  1.
<mgrwt>
<rscale>  0 0.42006061E+02</rscale>
<asrwt>0</asrwt>
<pdfrwt beam="2">  1        2 0.30531434E+00 0.42006061E+02</pdfrwt>
<pdfrwt beam="1">  1       -2 0.34197157E-04 0.42006061E+02</pdfrwt>
<totfact> 0.14260891E+06</totfact>
</mgrwt>
</event>
<event>
 4    1  0.4604841E-002  0.4220558E+02  0.7818608E-02  0.1492581E+00
         -2   -1    0    0  501    0 -0.00000000000E+00  0.00000000000E+00  0.39109596149E+01  0.39109604462E+01  0.25500000000E-02 0. -1.
          2   -1    0    0    0  501  0.00000000000E+00 -0.00000000000E+00 -0.11386663107E+03  0.11386663110E+03  0.25500000000E-02 0. -1.
          2    1    1    2    0  502  0.70705595950E+01  0.18783220018E+02 -0.73175612889E+02  0.75878010618E+02  0.25500000000E-02 0. -1.
         -2    1    1    2  502    0 -0.70705595950E+01 -0.18783220018E+02 -0.36780058571E+02  0.41899580931E+02  0.25500000000E-02 0. -1.
<mgrwt>
<rscale>  0 0.42205585E+02</rscale>
<asrwt>0</asrwt>
<pdfrwt beam="2">  1        2 0.17517941E-01 0.42205585E+02</pdfrwt>
<pdfrwt beam="1">  1       -2 0.60168625E-03 0.42205585E+02</pdfrwt>
<totfact> 0.94676250E+05</totfact>
</mgrwt>
</event>
<event>
 4    1  0.4604841E-002  0.1042531E+03  0.7818608E-02  0.1271598E+00
          2   -1    0    0    0  501  0.00000000000E+00  0.00000000000E+00  0.40753042835E+03  0.40753042836E+03  0.25500000000E-02 0. -1.
         -2   -1    0    0  501    0 -0.00000000000E+00 -0.00000000000E+00 -0.66674175133E+01  0.66674180009E+01  0.25500000000E-02 0. -1.
          2    1    1    2    0  502  0.47746480692E+02 -0.65321061511E+01  0.27937148103E+03  0.28349747662E+03  0.25500000000E-02 0. -1.
         -2    1    1    2  502    0 -0.47746480692E+02  0.65321061511E+01  0.12149152981E+03  0.13070036974E+03  0.25500000000E-02 0. -1.
<mgrwt>
<rscale>  0 0.10425307E+03</rscale>
<asrwt>0</asrwt>
<pdfrwt beam="1">  1        2 0.62697010E-01 0.10425307E+03</pdfrwt>
<pdfrwt beam="2">  1       -2 0.10257562E-02 0.10425307E+03</pdfrwt>
<totfact> 0.14043546E+05</totfact>
</mgrwt>
</event>
<event>
 4    1  0.4604841E-002  0.4150842E+02  0.7818608E-02  0.1497396E+00
         -2   -1    0    0  501    0 -0.00000000000E+00  0.00000000000E+00  0.20607728797E+02  0.20607728955E+02  0.25500000000E-02 0. -1.
          2   -1    0    0    0  501  0.00000000000E+00 -0.00000000000E+00 -0.20901730051E+02  0.20901730207E+02  0.25500000000E-02 0. -1.
          2    1    1    2    0  502  0.17440421350E+02  0.11085682124E+02  0.17704778513E+01  0.20741148554E+02  0.25500000000E-02 0. -1.
         -2    1    1    2  502    0 -0.17440421350E+02 -0.11085682124E+02 -0.20644791059E+01  0.20768310608E+02  0.25500000000E-02 0. -1.
<mgrwt>
<rscale>  0 0.41508418E+02</rscale>
<asrwt>0</asrwt>
<pdfrwt beam="2">  1        2 0.32156508E-02 0.41508418E+02</pdfrwt>
<pdfrwt beam="1">  1       -2 0.31704198E-02 0.41508418E+02</pdfrwt>
<totfact> 0.72123580E+05</totfact>
</mgrwt>
</event>
<event>
 4    1  0.4604841E-002  0.6039431E+02  0.7818608E-02  0.1396184E+00
          2   -1    0    0    0  501  0.00000000000E+00  0.00000000000E+00  0.80694885585E+02  0.80694885625E+02  0.25500000000E-02 0.  1.
         -2   -1    0    0  501    0 -0.00000000000E+00 -0.00000000000E+00 -0.11300196253E+02  0.11300196541E+02  0.25500000000E-02 0.  1.
          2    1    1    2    0  502 -0.29036112161E+02 -0.15072204630E+01  0.22275640969E+02  0.36627472067E+02  0.25500000000E-02 0. -1.
         -2    1    1    2  502    0  0.29036112161E+02  0.15072204630E+01  0.47119048363E+02  0.55367610099E+02  0.25500000000E-02 0. -1.
<mgrwt>
<rscale>  0 0.60394306E+02</rscale>
<asrwt>0</asrwt>
<pdfrwt beam="1">  1        2 0.12414598E-01 0.60394306E+02</pdfrwt>
<pdfrwt beam="2">  1       -2 0.17384917E-02 0.60394306E+02</pdfrwt>
<totfact> 0.34892355E+05</totfact>
</mgrwt>
</event>
<event>
 4    1  0.4604841E-002  0.7890033E+02  0.7818608E-02  0.1332201E+00
         -2   -1    0    0  501    0 -0.00000000000E+00  0.00000000000E+00  0.50057409231E+03  0.50057409232E+03  0.25500000000E-02 0. -1.
          2   -1    0    0    0  501  0.00000000000E+00 -0.00000000000E+00 -0.31090606127E+01  0.31090616585E+01  0.25500000000E-02 0. -1.
          2    1    1    2    0  502  0.38083263158E+02 -0.10032189548E+02  0.26347850878E+03  0.26640552614E+03  0.25500000000E-02 0.  1.
         -2    1    1    2  502    0 -0.38083263158E+02  0.10032189548E+02  0.23398652292E+03  0.23727762784E+03  0.25500000000E-02 0.  1.
<mgrwt>
<rscale>  0 0.78900328E+02</rscale>
<asrwt>0</asrwt>
<pdfrwt beam="2">  1        2 0.47831722E-03 0.78900328E+02</pdfrwt>
<pdfrwt beam="1">  1       -2 0.77011380E-01 0.78900328E+02</pdfrwt>
<totfact> 0.52652396E+04</totfact>
</mgrwt>
</event>
<event>
 4    1  0.4604841E-002  0.4621245E+02  0.7818608E-02  0.1466911E+00
          2   -1    0    0    0  501  0.00000000000E+00  0.00000000000E+00  0.84562942112E+02  0.84562942150E+02  0.25500000000E-02 0.  1.
         -2   -1    0    0  501    0 -0.00000000000E+00 -0.00000000000E+00 -0.63136133741E+01  0.63136138891E+01  0.25500000000E-02 0.  1.
          2    1    1    2    0  502  0.73414045160E+01  0.21903017028E+02  0.38123168591E+02  0.44575939307E+02  0.25500000000E-02 0.  1.
         -2    1    1    2  502    0 -0.73414045160E+01 -0.21903017028E+02  0.40126160147E+02  0.46300616732E+02  0.25500000000E-02 0.  1.
<mgrwt>
<rscale>  0 0.46212455E+02</rscale>
<asrwt>0</asrwt>
<pdfrwt beam="1">  1        2 0.13009683E-01 0.46212455E+02</pdfrwt>
<pdfrwt beam="2">  1       -2 0.97132520E-03 0.46212455E+02</pdfrwt>
<totfact> 0.70054204E+05</totfact>
</mgrwt>
</event>
<event>
 4    1  0.4604841E-002  0.4022018E+02  0.7818608E-02  0.1506597E+00
         -2   -1    0    0  501    0 -0.00000000000E+00  0.00000000000E+00  0.96974487711E+01  0.96974491063E+01  0.25500000000E-02 0. -1.
          2   -1    0    0    0  501  0.00000000000E+00 -0.00000000000E+00 -0.41703299940E+02  0.41703300018E+02  0.25500000000E-02 0. -1.
          2    1    1    2    0  502  0.27514572777E+01  0.19916463296E+02 -0.16544512735E+02  0.26037606179E+02  0.25500000000E-02 0. -1.
         -2    1    1    2  502    0 -0.27514572777E+01 -0.19916463296E+02 -0.15461338433E+02  0.25363142945E+02  0.25500000000E-02 0. -1.
<mgrwt>
<rscale>  0 0.40220175E+02</rscale>
<asrwt>0</asrwt>
<pdfrwt beam="2">  1        2 0.64158922E-02 0.40220175E+02</pdfrwt>
<pdfrwt beam="1">  1       -2 0.14919153E-02 0.40220175E+02</pdfrwt>
<totfact> 0.86313612E+05</totfact>
</mgrwt>
</event>
<event>
 4    1  0.4604841E-002  0.5835641E+02  0.7818608E-02  0.1404861E+00
         -2   -1    0    0  501    0 -0.00000000000E+00  0.00000000000E+00  0.73086071225E+02  0.73086071270E+02  0.25500000000E-02 0. -1.
          2   -1    0    0    0  501  0.00000000000E+00 -0.00000000000E+00 -0.11648836612E+02  0.11648836891E+02  0.25500000000E-02 0. -1.
          2    1    1    2    0  502 -0.27866283506E+02  0.83234690499E+01  0.27295467836E+02  0.39885491903E+02  0.25500000000E-02 0. -1.
         -2    1    1    2  502    0  0.27866283506E+02 -0.83234690499E+01  0.34141766778E+02  0.44849416258E+02  0.25500000000E-02 0. -1.
<mgrwt>
<rscale>  0 0.58356412E+02</rscale>
<asrwt>0</asrwt>
<pdfrwt beam="2">  1        2 0.17921287E-02 0.58356412E+02</pdfrwt>
<pdfrwt beam="1">  1       -2 0.11244011E-01 0.58356412E+02</pdfrwt>
<totfact> 0.26032604E+05</totfact>
</mgrwt>
</event>
<event>
 4    1  0.4604841E-002  0.8712397E+02  0.7818608E-02  0.1309970E+00
         -2   -1    0    0  501    0 -0.00000000000E+00  0.00000000000E+00  0.16586595380E+01  0.16586614982E+01  0.25500000000E-02 0.  1.
          2   -1    0    0    0  501  0.00000000000E+00 -0.00000000000E+00 -0.11440838104E+04  0.11440838104E+04  0.25500000000E-02 0.  1.
          2    1    1    2    0  502  0.16599453209E+02  0.39615612716E+02 -0.66668714585E+03  0.66806937444E+03  0.25500000000E-02 0.  1.
         -2    1    1    2  502    0 -0.16599453209E+02 -0.39615612716E+02 -0.47573800498E+03  0.47767309743E+03  0.25500000000E-02 0.  1.
<mgrwt>
<rscale>  0 0.87123973E+02</rscale>
<asrwt>0</asrwt>
<pdfrwt beam="2">  1        2 0.17601226E+00 0.87123973E+02</pdfrwt>
<pdfrwt beam="1">  1       -2 0.25517946E-03 0.87123973E+02</pdfrwt>
<totfact> 0.28140394E+05</totfact>
</mgrwt>
</event>
<event>
 4    1  0.4604841E-002  0.1473692E+03  0.7818608E-02  0.1203743E+00
          2   -1    0    0    0  501  0.00000000000E+00  0.00000000000E+00  0.45506151769E+03  0.45506151770E+03  0.25500000000E-02 0.  1.
         -2   -1    0    0  501    0 -0.00000000000E+00 -0.00000000000E+00 -0.11931183030E+02  0.11931183302E+02  0.25500000000E-02 0.  1.
          2    1    1    2    0  502 -0.42074273202E+02 -0.28376145738E+02  0.52276395428E+02  0.72857886587E+02  0.25500000000E-02 0.  1.
         -2    1    1    2  502    0  0.42074273202E+02  0.28376145738E+02  0.39085393923E+03  0.39413481441E+03  0.25500000000E-02 0.  1.
<mgrwt>
<rscale>  0 0.14736923E+03</rscale>
<asrwt>0</asrwt>
<pdfrwt beam="1">  1        2 0.70009488E-01 0.14736923E+03</pdfrwt>
<pdfrwt beam="2">  1       -2 0.18355660E-02 0.14736923E+03</pdfrwt>
<totfact> 0.56589688E+04</totfact>
</mgrwt>
</event>
<event>
 4    1  0.4604841E-002  0.4835046E+02  0.7818608E-02  0.1454447E+00
          2   -1    0    0    0  501  0.00000000000E+00  0.00000000000E+00  0.58634021568E+03  0.58634021569E+03  0.25500000000E-02 0. -1.
         -2   -1    0    0  501    0 -0.00000000000E+00 -0.00000000000E+00 -0.99676051164E+00  0.99676377345E+00  0.25500000000E-02 0. -1.
          2    1    1    2    0  502 -0.20541821318E+02  0.12945371172E+00  0.44750276353E+03  0.44797400210E+03  0.25500000000E-02 0. -1.
         -2    1    1    2  502    0  0.20541821318E+02 -0.12945371172E+00  0.13784069164E+03  0.13936297736E+03  0.25500000000E-02 0. -1.
<mgrwt>
<rscale>  0 0.48350459E+02</rscale>
<asrwt>0</asrwt>
<pdfrwt beam="1">  1        2 0.90206128E-01 0.48350459E+02</pdfrwt>
<pdfrwt beam="2">  1       -2 0.15334812E-03 0.48350459E+02</pdfrwt>
<totfact> 0.11432819E+06</totfact>
</mgrwt>
</event>
<event>
 4    1  0.4604841E-002  0.5591298E+02  0.7818608E-02  0.1415830E+00
          2   -1    0    0    0  501  0.00000000000E+00  0.00000000000E+00  0.14009968676E+04  0.14009968676E+04  0.25500000000E-02 0.  1.
         -2   -1    0    0  501    0 -0.00000000000E+00 -0.00000000000E+00 -0.55786085883E+00  0.55786668687E+00  0.25500000000E-02 0.  1.
          2    1    1    2    0  502  0.22558446546E+02 -0.12404400283E+02  0.42698917347E+03  0.42776454613E+03  0.25500000000E-02 0.  1.
         -2    1    1    2  502    0 -0.22558446546E+02  0.12404400283E+02  0.97344983329E+03  0.97379018818E+03  0.25500000000E-02 0.  1.
<mgrwt>
<rscale>  0 0.55912982E+02</rscale>
<asrwt>0</asrwt>
<pdfrwt beam="1">  1        2 0.21553932E+00 0.55912982E+02</pdfrwt>
<pdfrwt beam="2">  1       -2 0.85824663E-04 0.55912982E+02</pdfrwt>
<totfact> 0.84788996E+05</totfact>
</mgrwt>
</event>
<event>
 4    1  0.4604841E-002  0.4883874E+02  0.7818608E-02  0.1451708E+00
         -2   -1    0    0  501    0 -0.00000000000E+00  0.00000000000E+00  0.66766362187E+00  0.66766849145E+00  0.25500000000E-02 0.  1.
          2   -1    0    0    0  501  0.00000000000E+00 -0.00000000000E+00 -0.89311968744E+03  0.89311968745E+03  0.25500000000E-02 0.  1.
          2    1    1    2    0  502  0.22231929347E+02  0.87498845487E+01 -0.35383597884E+03  0.35464167704E+03  0.25500000000E-02 0.  1.
         -2    1    1    2  502    0 -0.22231929347E+02 -0.87498845487E+01 -0.53861604498E+03  0.53914567890E+03  0.25500000000E-02 0.  1.
<mgrwt>
<rscale>  0 0.48838743E+02</rscale>
<asrwt>0</asrwt>
<pdfrwt beam="2">  1        2 0.13740207E+00 0.48838743E+02</pdfrwt>
<pdfrwt beam="1">  1       -2 0.10271857E-03 0.48838743E+02</pdfrwt>
<totfact> 0.12158835E+06</totfact>
</mgrwt>
</event>
<event>
 4    1  0.4604841E-002  0.6263517E+02  0.7818608E-02  0.1387094E+00
          2   -1    0    0    0  501  0.00000000000E+00  0.00000000000E+00  0.28555817768E+02  0.28555817882E+02  0.25500000000E-02 0. -1.
         -2   -1    0    0  501    0 -0.00000000000E+00 -0.00000000000E+00 -0.34346460419E+02  0.34346460514E+02  0.25500000000E-02 0. -1.
          2    1    1    2    0  502 -0.30239584774E+02  0.37612033197E+01  0.43612885881E+01  0.30783111967E+02  0.25500000000E-02 0.  1.
         -2    1    1    2  502    0  0.30239584774E+02 -0.37612033197E+01 -0.10151931239E+02  0.32119166429E+02  0.25500000000E-02 0.  1.
<mgrwt>
<rscale>  0 0.62635175E+02</rscale>
<asrwt>0</asrwt>
<pdfrwt beam="1">  1        2 0.43932028E-02 0.62635175E+02</pdfrwt>
<pdfrwt beam="2">  1       -2 0.52840708E-02 0.62635175E+02</pdfrwt>
<totfact> 0.25473080E+05</totfact>
</mgrwt>
</event>
<event>
 4    1  0.4604841E-002  0.6514855E+02  0.7818608E-02  0.1377414E+00
          2   -1    0    0    0  501  0.00000000000E+00  0.00000000000E+00  0.12260138826E+04  0.12260138827E+04  0.25500000000E-02 0. -1.
         -2   -1    0    0  501    0 -0.00000000000E+00 -0.00000000000E+00 -0.86547230234E+00  0.86547605896E+00  0.25500000000E-02 0. -1.
          2    1    1    2    0  502  0.67185252538E+01  0.29900326926E+02  0.82050848113E+03  0.82108059029E+03  0.25500000000E-02 0. -1.
         -2    1    1    2  502    0 -0.67185252538E+01 -0.29900326926E+02  0.40463992921E+03  0.40579876842E+03  0.25500000000E-02 0. -1.
<mgrwt>
<rscale>  0 0.65148549E+02</rscale>
<asrwt>0</asrwt>
<pdfrwt beam="1">  1        2 0.18861867E+00 0.65148549E+02</pdfrwt>
<pdfrwt beam="2">  1       -2 0.13314906E-03 0.65148549E+02</pdfrwt>
<totfact> 0.59205986E+05</totfact>
</mgrwt>
</event>
<event>
 4    1  0.4604841E-002  0.6603789E+02  0.7818608E-02  0.1374109E+00
          2   -1    0    0    0  501  0.00000000000E+00  0.00000000000E+00  0.15059030006E+02  0.15059030222E+02  0.25500000000E-02 0.  1.
         -2   -1    0    0  501    0 -0.00000000000E+00 -0.00000000000E+00 -0.72398461801E+02  0.72398461846E+02  0.25500000000E-02 0.  1.
          2    1    1    2    0  502  0.32282847589E+02  0.28820183118E+00 -0.37843699965E+02  0.49743451250E+02  0.25500000000E-02 0. -1.
         -2    1    1    2  502    0 -0.32282847589E+02 -0.28820183118E+00 -0.19495731830E+02  0.37714040818E+02  0.25500000000E-02 0. -1.
<mgrwt>
<rscale>  0 0.66037887E+02</rscale>
<asrwt>0</asrwt>
<pdfrwt beam="1">  1        2 0.23167739E-02 0.66037887E+02</pdfrwt>
<pdfrwt beam="2">  1       -2 0.11138225E-01 0.66037887E+02</pdfrwt>
<totfact> 0.19272951E+05</totfact>
</mgrwt>
</event>
<event>
 4    1  0.4604841E-002  0.6882609E+02  0.7818608E-02  0.1364131E+00
         -2   -1    0    0  501    0 -0.00000000000E+00  0.00000000000E+00  0.29220374389E+01  0.29220385516E+01  0.25500000000E-02 0.  1.
          2   -1    0    0    0  501  0.00000000000E+00 -0.00000000000E+00 -0.40528487580E+03  0.40528487580E+03  0.25500000000E-02 0.  1.
          2    1    1    2    0  502  0.25167690208E+02 -0.19868671943E+02 -0.12708413030E+03  0.13106697881E+03  0.25500000000E-02 0. -1.
         -2    1    1    2  502    0 -0.25167690208E+02  0.19868671943E+02 -0.27527870806E+03  0.27713993554E+03  0.25500000000E-02 0. -1.
<mgrwt>
<rscale>  0 0.68826094E+02</rscale>
<asrwt>0</asrwt>
<pdfrwt beam="2">  1        2 0.62351475E-01 0.68826094E+02</pdfrwt>
<pdfrwt beam="1">  1       -2 0.44954463E-03 0.68826094E+02</pdfrwt>
<totfact> 0.41832388E+05</totfact>
</mgrwt>
</event>
<event>
 4    1  0.4604841E-002  0.4406342E+02  0.7818608E-02  0.1480275E+00
         -2   -1    0    0  501    0 -0.00000000000E+00  0.00000000000E+00  0.46868335822E+00  0.46869029516E+00  0.25500000000E-02 0.  1.
          2   -1    0    0    0  501  0.00000000000E+00 -0.00000000000E+00 -0.10356517063E+04  0.10356517063E+04  0.25500000000E-02 0.  1.
          2    1    1    2    0  502  0.27991313702E+01  0.21294653574E+02 -0.40215834441E+03  0.40273146313E+03  0.25500000000E-02 0.  1.
         -2    1    1    2  502    0 -0.27991313702E+01 -0.21294653574E+02 -0.63302467850E+03  0.63338893344E+03  0.25500000000E-02 0.  1.
<mgrwt>
<rscale>  0 0.44063423E+02</rscale>
<asrwt>0</asrwt>
<pdfrwt beam="2">  1        2 0.15932920E+00 0.44063423E+02</pdfrwt>
<pdfrwt beam="1">  1       -2 0.72106495E-04 0.44063423E+02</pdfrwt>
<totfact> 0.15797275E+06</totfact>
</mgrwt>
</event>
<event>
 4    1  0.4604841E-002  0.5947237E+02  0.7818608E-02  0.1400059E+00
          2   -1    0    0    0  501  0.00000000000E+00  0.00000000000E+00  0.60540257173E+03  0.60540257173E+03  0.25500000000E-02 0.  1.
         -2   -1    0    0  501    0 -0.00000000000E+00 -0.00000000000E+00 -0.14605816329E+01  0.14605838589E+01  0.25500000000E-02 0.  1.
          2    1    1    2    0  502 -0.67141164696E+01 -0.28393442902E+02  0.36056573909E+03  0.36174427317E+03  0.25500000000E-02 0. -1.
         -2    1    1    2  502    0  0.67141164696E+01  0.28393442902E+02  0.24337625101E+03  0.24511888242E+03  0.25500000000E-02 0. -1.
<mgrwt>
<rscale>  0 0.59472365E+02</rscale>
<asrwt>0</asrwt>
<pdfrwt beam="1">  1        2 0.93138906E-01 0.59472365E+02</pdfrwt>
<pdfrwt beam="2">  1       -2 0.22470492E-03 0.59472365E+02</pdfrwt>
<totfact> 0.68851337E+05</totfact>
</mgrwt>
</event>
<event>
 4    1  0.4604841E-002  0.4396532E+02  0.7818608E-02  0.1480906E+00
          2   -1    0    0    0  501  0.00000000000E+00  0.00000000000E+00  0.54034771082E+00  0.54035372775E+00  0.25500000000E-02 0. -1.
         -2   -1    0    0  501    0 -0.00000000000E+00 -0.00000000000E+00 -0.89430332722E+03  0.89430332723E+03  0.25500000000E-02 0. -1.
          2    1    1    2    0  502 -0.18297294164E+02 -0.89617048917E+01 -0.27887740776E+03  0.27962065678E+03  0.25500000000E-02 0.  1.
         -2    1    1    2  502    0  0.18297294164E+02  0.89617048917E+01 -0.61488557175E+03  0.61522302418E+03  0.25500000000E-02 0.  1.
<mgrwt>
<rscale>  0 0.43965325E+02</rscale>
<asrwt>0</asrwt>
<pdfrwt beam="1">  1        2 0.83131596E-04 0.43965325E+02</pdfrwt>
<pdfrwt beam="2">  1       -2 0.13758394E+00 0.43965325E+02</pdfrwt>
<totfact> 0.13241118E+05</totfact>
</mgrwt>
</event>
<event>
 4    1  0.4604841E-002  0.4325923E+02  0.7818608E-02  0.1485511E+00
         -2   -1    0    0  501    0 -0.00000000000E+00  0.00000000000E+00  0.13769982738E+02  0.13769982974E+02  0.25500000000E-02 0.  1.
          2   -1    0    0    0  501  0.00000000000E+00 -0.00000000000E+00 -0.33975368907E+02  0.33975369003E+02  0.25500000000E-02 0.  1.
          2    1    1    2    0  502 -0.14638703926E+02  0.15820148998E+02 -0.12098986169E+02  0.24717488541E+02  0.25500000000E-02 0. -1.
         -2    1    1    2  502    0  0.14638703926E+02 -0.15820148998E+02 -0.81064000004E+01  0.23027863436E+02  0.25500000000E-02 0. -1.
<mgrwt>
<rscale>  0 0.43259230E+02</rscale>
<asrwt>0</asrwt>
<pdfrwt beam="2">  1        2 0.52269798E-02 0.43259230E+02</pdfrwt>
<pdfrwt beam="1">  1       -2 0.21184589E-02 0.43259230E+02</pdfrwt>
<totfact> 0.69558541E+05</totfact>
</mgrwt>
</event>
<event>
 4    1  0.4604841E-002  0.4962424E+02  0.7818608E-02  0.1447379E+00
         -2   -1    0    0  501    0 -0.00000000000E+00  0.00000000000E+00  0.31742293101E+02  0.31742293204E+02  0.25500000000E-02 0.  1.
          2   -1    0    0    0  501  0.00000000000E+00 -0.00000000000E+00 -0.19394981357E+02  0.19394981525E+02  0.25500000000E-02 0.  1.
          2    1    1    2    0  502  0.19091853998E+02 -0.15686156121E+02  0.84978162773E+01  0.26129815746E+02  0.25500000000E-02 0. -1.
         -2    1    1    2  502    0 -0.19091853998E+02  0.15686156121E+02  0.38494954672E+01  0.25007458983E+02  0.25500000000E-02 0. -1.
<mgrwt>
<rscale>  0 0.49624236E+02</rscale>
<asrwt>0</asrwt>
<pdfrwt beam="2">  1        2 0.29838433E-02 0.49624236E+02</pdfrwt>
<pdfrwt beam="1">  1       -2 0.48834297E-02 0.49624236E+02</pdfrwt>
<totfact> 0.44712579E+05</totfact>
</mgrwt>
</event>
<event>
 4    1  0.4604841E-002  0.7872407E+02  0.7818608E-02  0.1332712E+00
         -2   -1    0    0  501    0 -0.00000000000E+00  0.00000000000E+00  0.14548547313E+01  0.14548569661E+01  0.25500000000E-02 0.  1.
          2   -1    0    0    0  501  0.00000000000E+00 -0.00000000000E+00 -0.10649643899E+04  0.10649643899E+04  0.25500000000E-02 0.  1.
          2    1    1    2    0  502  0.11990699878E+02  0.20468765504E+02 -0.95725122064E+03  0.95754511469E+03  0.25500000000E-02 0. -1.
         -2    1    1    2  502    0 -0.11990699878E+02 -0.20468765504E+02 -0.10625831457E+03  0.10887413222E+03  0.25500000000E-02 0. -1.
<mgrwt>
<rscale>  0 0.78724067E+02</rscale>
<asrwt>0</asrwt>
<pdfrwt beam="2">  1        2 0.16384005E+00 0.78724067E+02</pdfrwt>
<pdfrwt beam="1">  1       -2 0.22382483E-03 0.78724067E+02</pdfrwt>
<totfact> 0.36744217E+05</totfact>
</mgrwt>
</event>
<event>
 4    1  0.4604841E-002  0.7734741E+02  0.7818608E-02  0.1336752E+00
          2   -1    0    0    0  501  0.00000000000E+00  0.00000000000E+00  0.38765373060E+01  0.38765381447E+01  0.25500000000E-02 0.  1.
         -2   -1    0    0  501    0 -0.00000000000E+00 -0.00000000000E+00 -0.38582250568E+03  0.38582250569E+03  0.25500000000E-02 0.  1.
          2    1    1    2    0  502 -0.21266530696E+02  0.10498978357E+02 -0.37064701437E+02  0.44003249579E+02  0.25500000000E-02 0.  1.
         -2    1    1    2  502    0  0.21266530696E+02 -0.10498978357E+02 -0.34488126694E+03  0.34569579426E+03  0.25500000000E-02 0.  1.
<mgrwt>
<rscale>  0 0.77347411E+02</rscale>
<asrwt>0</asrwt>
<pdfrwt beam="1">  1        2 0.59639072E-03 0.77347411E+02</pdfrwt>
<pdfrwt beam="2">  1       -2 0.59357278E-01 0.77347411E+02</pdfrwt>
<totfact> 0.66750764E+04</totfact>
</mgrwt>
</event>
<event>
 4    1  0.4604841E-002  0.4532713E+02  0.7818608E-02  0.1472310E+00
          2   -1    0    0    0  501  0.00000000000E+00  0.00000000000E+00  0.80994984060E+02  0.80994984100E+02  0.25500000000E-02 0. -1.
         -2   -1    0    0  501    0 -0.00000000000E+00 -0.00000000000E+00 -0.63415918128E+01  0.63415923255E+01  0.25500000000E-02 0. -1.
          2    1    1    2    0  502 -0.22531095337E+02  0.23543392451E+01  0.38610554865E+02  0.44765702539E+02  0.25500000000E-02 0.  1.
         -2    1    1    2  502    0  0.22531095337E+02 -0.23543392451E+01  0.36042837383E+02  0.42570873886E+02  0.25500000000E-02 0.  1.
<mgrwt>
<rscale>  0 0.45327129E+02</rscale>
<asrwt>0</asrwt>
<pdfrwt beam="1">  1        2 0.12460766E-01 0.45327129E+02</pdfrwt>
<pdfrwt beam="2">  1       -2 0.97562963E-03 0.45327129E+02</pdfrwt>
<totfact> 0.72804229E+05</totfact>
</mgrwt>
</event>
<event>
 4    1  0.4604841E-002  0.1077781E+03  0.7818608E-02  0.1264741E+00
          2   -1    0    0    0  501  0.00000000000E+00  0.00000000000E+00  0.67251405826E+02  0.67251405874E+02  0.25500000000E-02 0. -1.
         -2   -1    0    0  501    0 -0.00000000000E+00 -0.00000000000E+00 -0.43181679980E+02  0.43181680055E+02  0.25500000000E-02 0. -1.
          2    1    1    2    0  502 -0.20425955244E+02 -0.15483643435E+02  0.60605819678E+02  0.65802950139E+02  0.25500000000E-02 0.  1.
         -2    1    1    2  502    0  0.20425955244E+02  0.15483643435E+02 -0.36536093832E+02  0.44630135790E+02  0.25500000000E-02 0.  1.
<mgrwt>
<rscale>  0 0.10777808E+03</rscale>
<asrwt>0</asrwt>
<pdfrwt beam="1">  1        2 0.10346370E-01 0.10777808E+03</pdfrwt>
<pdfrwt beam="2">  1       -2 0.66433354E-02 0.10777808E+03</pdfrwt>
<totfact> 0.67952823E+04</totfact>
</mgrwt>
</event>
<event>
 4    1  0.4604841E-002  0.5866960E+02  0.7818608E-02  0.1403501E+00
         -2   -1    0    0  501    0 -0.00000000000E+00  0.00000000000E+00  0.28859488362E+02  0.28859488474E+02  0.25500000000E-02 0.  1.
          2   -1    0    0    0  501  0.00000000000E+00 -0.00000000000E+00 -0.29817934702E+02  0.29817934811E+02  0.25500000000E-02 0.  1.
          2    1    1    2    0  502 -0.14129528458E+02 -0.15601416349E+02 -0.20914339734E+02  0.29672502078E+02  0.25500000000E-02 0. -1.
         -2    1    1    2  502    0  0.14129528458E+02  0.15601416349E+02  0.19955893394E+02  0.29004921207E+02  0.25500000000E-02 0. -1.
<mgrwt>
<rscale>  0 0.58669595E+02</rscale>
<asrwt>0</asrwt>
<pdfrwt beam="2">  1        2 0.45873746E-02 0.58669595E+02</pdfrwt>
<pdfrwt beam="1">  1       -2 0.44399213E-02 0.58669595E+02</pdfrwt>
<totfact> 0.30665386E+05</totfact>
</mgrwt>
</event>
<event>
 4    1  0.4604841E-002  0.5080856E+02  0.7818608E-02  0.1441029E+00
         -2   -1    0    0  501    0 -0.00000000000E+00  0.00000000000E+00  0.83247198180E+00  0.83247588733E+00  0.25500000000E-02 0.  1.
          2   -1    0    0    0  501  0.00000000000E+00 -0.00000000000E+00 -0.77525244529E+03  0.77525244529E+03  0.25500000000E-02 0.  1.
          2    1    1    2    0  502  0.23759565558E+02  0.84725272658E+01 -0.34119088120E+03  0.34212208069E+03  0.25500000000E-02 0. -1.
         -2    1    1    2  502    0 -0.23759565558E+02 -0.84725272658E+01 -0.43322909211E+03  0.43396284049E+03  0.25500000000E-02 0. -1.
<mgrwt>
<rscale>  0 0.50808561E+02</rscale>
<asrwt>0</asrwt>
<pdfrwt beam="2">  1        2 0.11926903E+00 0.50808561E+02</pdfrwt>
<pdfrwt beam="1">  1       -2 0.12807353E-03 0.50808561E+02</pdfrwt>
<totfact> 0.10798202E+06</totfact>
</mgrwt>
</event>
<event>
 4    1  0.4604841E-002  0.5041252E+02  0.7818608E-02  0.1443129E+00
          2   -1    0    0    0  501  0.00000000000E+00  0.00000000000E+00  0.66897625585E+02  0.66897625634E+02  0.25500000000E-02 0.  1.
         -2   -1    0    0  501    0 -0.00000000000E+00 -0.00000000000E+00 -0.94974308076E+01  0.94974311499E+01  0.25500000000E-02 0.  1.
          2    1    1    2    0  502 -0.22421994160E+02  0.22601888734E+01  0.45811442384E+02  0.51054309668E+02  0.25500000000E-02 0. -1.
         -2    1    1    2  502    0  0.22421994160E+02 -0.22601888734E+01  0.11588752394E+02  0.25340747116E+02  0.25500000000E-02 0. -1.
<mgrwt>
<rscale>  0 0.50412522E+02</rscale>
<asrwt>0</asrwt>
<pdfrwt beam="1">  1        2 0.10291942E-01 0.50412522E+02</pdfrwt>
<pdfrwt beam="2">  1       -2 0.14611433E-02 0.50412522E+02</pdfrwt>
<totfact> 0.53287028E+05</totfact>
</mgrwt>
</event>
<event>
 4    1  0.4604841E-002  0.7859452E+02  0.7818608E-02  0.1333088E+00
         -2   -1    0    0  501    0 -0.00000000000E+00  0.00000000000E+00  0.16700825974E+01  0.16700845442E+01  0.25500000000E-02 0. -1.
          2   -1    0    0    0  501  0.00000000000E+00 -0.00000000000E+00 -0.92466910975E+03  0.92466910976E+03  0.25500000000E-02 0. -1.
          2    1    1    2    0  502 -0.59079285905E+01  0.38502332492E+02 -0.52267653288E+03  0.52412602612E+03  0.25500000000E-02 0. -1.
         -2    1    1    2  502    0  0.59079285905E+01 -0.38502332492E+02 -0.40032249427E+03  0.40221316818E+03  0.25500000000E-02 0. -1.
<mgrwt>
<rscale>  0 0.78594521E+02</rscale>
<asrwt>0</asrwt>
<pdfrwt beam="2">  1        2 0.14225638E+00 0.78594521E+02</pdfrwt>
<pdfrwt beam="1">  1       -2 0.25693667E-03 0.78594521E+02</pdfrwt>
<totfact> 0.36655898E+05</totfact>
</mgrwt>
</event>
<event>
 4    1  0.4604841E-002  0.5609939E+02  0.7818608E-02  0.1414970E+00
          2   -1    0    0    0  501  0.00000000000E+00  0.00000000000E+00  0.77895710597E+03  0.77895710597E+03  0.25500000000E-02 0.  1.
         -2   -1    0    0  501    0 -0.00000000000E+00 -0.00000000000E+00 -0.10100480201E+01  0.10100512390E+01  0.25500000000E-02 0.  1.
          2    1    1    2    0  502  0.24252544287E+02 -0.68318367072E+01  0.21760406584E+03  0.21905795894E+03  0.25500000000E-02 0.  1.
         -2    1    1    2  502    0 -0.24252544287E+02  0.68318367072E+01  0.56034299210E+03  0.56090919827E+03  0.25500000000E-02 0.  1.
<mgrwt>
<rscale>  0 0.56099388E+02</rscale>
<asrwt>0</asrwt>
<pdfrwt beam="1">  1        2 0.11983929E+00 0.56099388E+02</pdfrwt>
<pdfrwt beam="2">  1       -2 0.15539259E-03 0.56099388E+02</pdfrwt>
<totfact> 0.84483045E+05</totfact>
</mgrwt>
</event>
<event>
 4    1  0.4604841E-002  0.5475528E+02  0.7818608E-02  0.1421260E+00
          2   -1    0    0    0  501  0.00000000000E+00  0.00000000000E+00  0.81552654159E+03  0.81552654160E+03  0.25500000000E-02 0. -1.
         -2   -1    0    0  501    0 -0.00000000000E+00 -0.00000000000E+00 -0.91907933511E+00  0.91908287261E+00  0.25500000000E-02 0. -1.
          2    1    1    2    0  502 -0.25356225738E+02  0.91536215836E+01  0.47851446562E+03  0.47927322144E+03  0.25500000000E-02 0. -1.
         -2    1    1    2  502    0  0.25356225738E+02 -0.91536215836E+01  0.33609299663E+03  0.33717240303E+03  0.25500000000E-02 0. -1.
<mgrwt>
<rscale>  0 0.54755275E+02</rscale>
<asrwt>0</asrwt>
<pdfrwt beam="1">  1        2 0.12546527E+00 0.54755275E+02</pdfrwt>
<pdfrwt beam="2">  1       -2 0.14139749E-03 0.54755275E+02</pdfrwt>
<totfact> 0.90464540E+05</totfact>
</mgrwt>
</event>
<event>
 4    1  0.4604841E-002  0.6856552E+02  0.7818608E-02  0.1365040E+00
          2   -1    0    0    0  501  0.00000000000E+00  0.00000000000E+00  0.14627631146E+03  0.14627631148E+03  0.25500000000E-02 0. -1.
         -2   -1    0    0  501    0 -0.00000000000E+00 -0.00000000000E+00 -0.80348447247E+01  0.80348451293E+01  0.25500000000E-02 0. -1.
          2    1    1    2    0  502  0.26037713194E+01  0.26633578129E+02  0.11734695477E+03  0.12035960663E+03  0.25500000000E-02 0.  1.
         -2    1    1    2  502    0 -0.26037713194E+01 -0.26633578129E+02  0.20894511967E+02  0.33951549978E+02  0.25500000000E-02 0.  1.
<mgrwt>
<rscale>  0 0.68565516E+02</rscale>
<asrwt>0</asrwt>
<pdfrwt beam="1">  1        2 0.22504045E-01 0.68565516E+02</pdfrwt>
<pdfrwt beam="2">  1       -2 0.12361302E-02 0.68565516E+02</pdfrwt>
<totfact> 0.29634354E+05</totfact>
</mgrwt>
</event>
<event>
 4    1  0.4604841E-002  0.4601615E+02  0.7818608E-02  0.1468096E+00
          2   -1    0    0    0  501  0.00000000000E+00  0.00000000000E+00  0.10168963943E+03  0.10168963946E+03  0.25500000000E-02 0.  1.
         -2   -1    0    0  501    0 -0.00000000000E+00 -0.00000000000E+00 -0.52057573412E+01  0.52057579658E+01  0.25500000000E-02 0.  1.
          2    1    1    2    0  502  0.18180758375E+02  0.13555603599E+02  0.39221873853E+02  0.45306177935E+02  0.25500000000E-02 0. -1.
         -2    1    1    2  502    0 -0.18180758375E+02 -0.13555603599E+02  0.57262008233E+02  0.61589219490E+02  0.25500000000E-02 0. -1.
<mgrwt>
<rscale>  0 0.46016155E+02</rscale>
<asrwt>0</asrwt>
<pdfrwt beam="1">  1        2 0.15644559E-01 0.46016155E+02</pdfrwt>
<pdfrwt beam="2">  1       -2 0.80088584E-03 0.46016155E+02</pdfrwt>
<totfact> 0.74117513E+05</totfact>
</mgrwt>
</event>
<event>
 4    1  0.4604841E-002  0.4967400E+02  0.7818608E-02  0.1447108E+00
          2   -1    0    0    0  501  0.00000000000E+00  0.00000000000E+00  0.19105514701E+04  0.19105514701E+04  0.25500000000E-02 0.  1.
         -2   -1    0    0  501    0 -0.00000000000E+00 -0.00000000000E+00 -0.32287382383E+00  0.32288389340E+00  0.25500000000E-02 0.  1.
          2    1    1    2    0  502 -0.32229512851E+01 -0.23367331816E+02  0.12542212341E+04  0.12544430333E+04  0.25500000000E-02 0. -1.
         -2    1    1    2  502    0  0.32229512851E+01  0.23367331816E+02  0.65600736220E+03  0.65643132076E+03  0.25500000000E-02 0. -1.
<mgrwt>
<rscale>  0 0.49674005E+02</rscale>
<asrwt>0</asrwt>
<pdfrwt beam="1">  1        2 0.29393094E+00 0.49674005E+02</pdfrwt>
<pdfrwt beam="2">  1       -2 0.49673680E-04 0.49674005E+02</pdfrwt>
<totfact> 0.97259016E+05</totfact>
</mgrwt>
</event>
<event>
 4    1  0.4604841E-002  0.4583680E+02  0.7818608E-02  0.1469184E+00
         -2   -1    0    0  501    0 -0.00000000000E+00  0.00000000000E+00  0.94411015946E+02  0.94411015980E+02  0.25500000000E-02 0. -1.
          2   -1    0    0    0  501  0.00000000000E+00 -0.00000000000E+00 -0.55634716184E+01  0.55634722028E+01  0.25500000000E-02 0. -1.
          2    1    1    2    0  502  0.21512024840E+02  0.76587253333E+01  0.48692120680E+02  0.53780534669E+02  0.25500000000E-02 0.  1.
         -2    1    1    2  502    0 -0.21512024840E+02 -0.76587253333E+01  0.40155423648E+02  0.46193953514E+02  0.25500000000E-02 0.  1.
<mgrwt>
<rscale>  0 0.45836799E+02</rscale>
<asrwt>0</asrwt>
<pdfrwt beam="2">  1        2 0.85591880E-03 0.45836799E+02</pdfrwt>
<pdfrwt beam="1">  1       -2 0.14524771E-01 0.45836799E+02</pdfrwt>
<totfact> 0.44223408E+05</totfact>
</mgrwt>
</event>
<event>
 4    1  0.4604841E-002  0.5190983E+02  0.7818608E-02  0.1435304E+00
          2   -1    0    0    0  501  0.00000000000E+00  0.00000000000E+00  0.14479505042E+03  0.14479505044E+03  0.25500000000E-02 0. -1.
         -2   -1    0    0  501    0 -0.00000000000E+00 -0.00000000000E+00 -0.46524901694E+01  0.46524908682E+01  0.25500000000E-02 0. -1.
          2    1    1    2    0  502 -0.12116830140E+02 -0.21384218758E+02  0.46060625050E+02  0.52208079557E+02  0.25500000000E-02 0. -1.
         -2    1    1    2  502    0  0.12116830140E+02  0.21384218758E+02  0.94081935197E+02  0.97239461750E+02  0.25500000000E-02 0. -1.
<mgrwt>
<rscale>  0 0.51909830E+02</rscale>
<asrwt>0</asrwt>
<pdfrwt beam="1">  1        2 0.22276162E-01 0.51909830E+02</pdfrwt>
<pdfrwt beam="2">  1       -2 0.71576775E-03 0.51909830E+02</pdfrwt>
<totfact> 0.60451233E+05</totfact>
</mgrwt>
</event>
<event>
 4    1  0.4604841E-002  0.5729723E+02  0.7818608E-02  0.1409537E+00
          2   -1    0    0    0  501  0.00000000000E+00  0.00000000000E+00  0.39834708449E+03  0.39834708450E+03  0.25500000000E-02 0.  1.
         -2   -1    0    0  501    0 -0.00000000000E+00 -0.00000000000E+00 -0.20603708752E+01  0.20603724532E+01  0.25500000000E-02 0.  1.
          2    1    1    2    0  502 -0.13019988944E+02 -0.25215048198E+02  0.22558884283E+03  0.22736676271E+03  0.25500000000E-02 0. -1.
         -2    1    1    2  502    0  0.13019988944E+02  0.25215048198E+02  0.17069787078E+03  0.17304069424E+03  0.25500000000E-02 0. -1.
<mgrwt>
<rscale>  0 0.57297227E+02</rscale>
<asrwt>0</asrwt>
<pdfrwt beam="1">  1        2 0.61284154E-01 0.57297227E+02</pdfrwt>
<pdfrwt beam="2">  1       -2 0.31698032E-03 0.57297227E+02</pdfrwt>
<totfact> 0.66345773E+05</totfact>
</mgrwt>
</event>
<event>
 4    1  0.4604841E-002  0.6663397E+02  0.7818608E-02  0.1371928E+00
         -2   -1    0    0  501    0 -0.00000000000E+00  0.00000000000E+00  0.11471044007E+01  0.11471072350E+01  0.25500000000E-02 0.  1.
          2   -1    0    0    0  501  0.00000000000E+00 -0.00000000000E+00 -0.96767125254E+03  0.96767125254E+03  0.25500000000E-02 0.  1.
          2    1    1    2    0  502 -0.10461921107E+02 -0.29181211717E+02 -0.66075388590E+03  0.66148068199E+03  0.25500000000E-02 0.  1.
         -2    1    1    2  502    0  0.10461921107E+02  0.29181211717E+02 -0.30577026224E+03  0.30733767779E+03  0.25500000000E-02 0.  1.
<mgrwt>
<rscale>  0 0.66633965E+02</rscale>
<asrwt>0</asrwt>
<pdfrwt beam="2">  1        2 0.14887185E+00 0.66633965E+02</pdfrwt>
<pdfrwt beam="1">  1       -2 0.17647859E-03 0.66633965E+02</pdfrwt>
<totfact> 0.56243383E+05</totfact>
</mgrwt>
</event>
<event>
 4    1  0.4604841E-002  0.9974407E+02  0.7818608E-02  0.1280835E+00
         -2   -1    0    0  501    0 -0.00000000000E+00  0.00000000000E+00  0.35564590784E+02  0.35564590876E+02  0.25500000000E-02 0.  1.
          2   -1    0    0    0  501  0.00000000000E+00 -0.00000000000E+00 -0.69935283150E+02  0.69935283196E+02  0.25500000000E-02 0.  1.
          2    1    1    2    0  502 -0.26654889454E+02  0.17267821753E+02  0.23485591668E+02  0.39499795220E+02  0.25500000000E-02 0. -1.
         -2    1    1    2  502    0  0.26654889454E+02 -0.17267821753E+02 -0.57856284033E+02  0.66000078853E+02  0.25500000000E-02 0. -1.
<mgrwt>
<rscale>  0 0.99744067E+02</rscale>
<asrwt>0</asrwt>
<pdfrwt beam="2">  1        2 0.10759274E-01 0.99744067E+02</pdfrwt>
<pdfrwt beam="1">  1       -2 0.54714755E-02 0.99744067E+02</pdfrwt>
<totfact> 0.85837214E+04</totfact>
</mgrwt>
</event>
<event>
 4    1  0.4604841E-002  0.1065125E+03  0.7818608E-02  0.1267168E+00
         -2   -1    0    0  501    0 -0.00000000000E+00  0.00000000000E+00  0.70548230622E+01  0.70548235231E+01  0.25500000000E-02 0.  1.
          2   -1    0    0    0  501  0.00000000000E+00 -0.00000000000E+00 -0.40202663058E+03  0.40202663059E+03  0.25500000000E-02 0.  1.
          2    1    1    2    0  502  0.48890053672E+02 -0.18823168661E+02 -0.23425995055E+03  0.24004639857E+03  0.25500000000E-02 0. -1.
         -2    1    1    2  502    0 -0.48890053672E+02  0.18823168661E+02 -0.16071185697E+03  0.16903505554E+03  0.25500000000E-02 0. -1.
<mgrwt>
<rscale>  0 0.10651248E+03</rscale>
<asrwt>0</asrwt>
<pdfrwt beam="2">  1        2 0.61850233E-01 0.10651248E+03</pdfrwt>
<pdfrwt beam="1">  1       -2 0.10853577E-02 0.10651248E+03</pdfrwt>
<totfact> 0.13189722E+05</totfact>
</mgrwt>
</event>
<event>
 4    1  0.4604841E-002  0.5899297E+02  0.7818608E-02  0.1402107E+00
          2   -1    0    0    0  501  0.00000000000E+00  0.00000000000E+00  0.17052899914E+03  0.17052899916E+03  0.25500000000E-02 0. -1.
         -2   -1    0    0  501    0 -0.00000000000E+00 -0.00000000000E+00 -0.51020215662E+01  0.51020222035E+01  0.25500000000E-02 0. -1.
          2    1    1    2    0  502  0.14111815300E+02  0.25331178320E+02  0.98809600444E+02  0.10297644912E+03  0.25500000000E-02 0. -1.
         -2    1    1    2  502    0 -0.14111815300E+02 -0.25331178320E+02  0.66617377129E+02  0.72654572245E+02  0.25500000000E-02 0. -1.
<mgrwt>
<rscale>  0 0.58992972E+02</rscale>
<asrwt>0</asrwt>
<pdfrwt beam="1">  1        2 0.26235229E-01 0.58992972E+02</pdfrwt>
<pdfrwt beam="2">  1       -2 0.78492648E-03 0.58992972E+02</pdfrwt>
<totfact> 0.45951548E+05</totfact>
</mgrwt>
</event>
<event>
 4    1  0.4604841E-002  0.5363302E+02  0.7818608E-02  0.1426676E+00
         -2   -1    0    0  501    0 -0.00000000000E+00  0.00000000000E+00  0.23655917522E+01  0.23655931266E+01  0.25500000000E-02 0. -1.
          2   -1    0    0    0  501  0.00000000000E+00 -0.00000000000E+00 -0.30399365758E+03  0.30399365759E+03  0.25500000000E-02 0. -1.
          2    1    1    2    0  502  0.22828654641E+02  0.66203772863E+01 -0.22173392161E+03  0.22300427993E+03  0.25500000000E-02 0.  1.
         -2    1    1    2  502    0 -0.22828654641E+02 -0.66203772863E+01 -0.79894144217E+02  0.83354970787E+02  0.25500000000E-02 0.  1.
<mgrwt>
<rscale>  0 0.53633016E+02</rscale>
<asrwt>0</asrwt>
<pdfrwt beam="2">  1        2 0.46768224E-01 0.53633016E+02</pdfrwt>
<pdfrwt beam="1">  1       -2 0.36393754E-03 0.53633016E+02</pdfrwt>
<totfact> 0.71317382E+05</totfact>
</mgrwt>
</event>
<event>
 4    1  0.4604841E-002  0.6803908E+02  0.7818608E-02  0.1366891E+00
          2   -1    0    0    0  501  0.00000000000E+00  0.00000000000E+00  0.88460612913E+03  0.88460612913E+03  0.25500000000E-02 0.  1.
         -2   -1    0    0  501    0 -0.00000000000E+00 -0.00000000000E+00 -0.13082977029E+01  0.13083001880E+01  0.25500000000E-02 0.  1.
          2    1    1    2    0  502 -0.68798176124E+01  0.31058829733E+02  0.59862574488E+03  0.59947040397E+03  0.25500000000E-02 0. -1.
         -2    1    1    2  502    0  0.68798176124E+01 -0.31058829733E+02  0.28467208654E+03  0.28644402535E+03  0.25500000000E-02 0. -1.
<mgrwt>
<rscale>  0 0.68039085E+02</rscale>
<asrwt>0</asrwt>
<pdfrwt beam="1">  1        2 0.13609309E+00 0.68039085E+02</pdfrwt>
<pdfrwt beam="2">  1       -2 0.20127700E-03 0.68039085E+02</pdfrwt>
<totfact> 0.52884112E+05</totfact>
</mgrwt>
</event>
<event>
 4    1  0.4604841E-002  0.4864637E+02  0.7818608E-02  0.1452782E+00
          2   -1    0    0    0  501  0.00000000000E+00  0.00000000000E+00  0.20263682512E+03  0.20263682514E+03  0.25500000000E-02 0. -1.
         -2   -1    0    0  501    0 -0.00000000000E+00 -0.00000000000E+00 -0.29195942776E+01  0.29195953912E+01  0.25500000000E-02 0. -1.
          2    1    1    2    0  502 -0.19771125080E+01 -0.23747137681E+02  0.79252132701E+02  0.82757090730E+02  0.25500000000E-02 0.  1.
         -2    1    1    2  502    0  0.19771125080E+01  0.23747137681E+02  0.12046509814E+03  0.12279932980E+03  0.25500000000E-02 0.  1.
<mgrwt>
<rscale>  0 0.48646374E+02</rscale>
<asrwt>0</asrwt>
<pdfrwt beam="1">  1        2 0.31174897E-01 0.48646374E+02</pdfrwt>
<pdfrwt beam="2">  1       -2 0.44916843E-03 0.48646374E+02</pdfrwt>
<totfact> 0.79186403E+05</totfact>
</mgrwt>
</event>
<event>
 4    1  0.4604841E-002  0.4523929E+02  0.7818608E-02  0.1472853E+00
         -2   -1    0    0  501    0 -0.00000000000E+00  0.00000000000E+00  0.74549898293E+03  0.74549898294E+03  0.25500000000E-02 0. -1.
          2   -1    0    0    0  501  0.00000000000E+00 -0.00000000000E+00 -0.68631433765E+00  0.68631907489E+00  0.25500000000E-02 0. -1.
          2    1    1    2    0  502 -0.14914504154E+02 -0.13596979746E+02  0.20393285226E+03  0.20492908171E+03  0.25500000000E-02 0. -1.
         -2    1    1    2  502    0  0.14914504154E+02  0.13596979746E+02  0.54087981633E+03  0.54125622030E+03  0.25500000000E-02 0. -1.
<mgrwt>
<rscale>  0 0.45239293E+02</rscale>
<asrwt>0</asrwt>
<pdfrwt beam="2">  1        2 0.10558689E-03 0.45239293E+02</pdfrwt>
<pdfrwt beam="1">  1       -2 0.11469247E+00 0.45239293E+02</pdfrwt>
<totfact> 0.14909655E+05</totfact>
</mgrwt>
</event>
<event>
 4    1  0.4604841E-002  0.4226163E+02  0.7818608E-02  0.1492199E+00
          2   -1    0    0    0  501  0.00000000000E+00  0.00000000000E+00  0.27496463637E+03  0.27496463638E+03  0.25500000000E-02 0. -1.
         -2   -1    0    0  501    0 -0.00000000000E+00 -0.00000000000E+00 -0.16238853041E+01  0.16238873062E+01  0.25500000000E-02 0. -1.
          2    1    1    2    0  502 -0.17444814156E+02 -0.10533940070E+02  0.10009867114E+03  0.10215199168E+03  0.25500000000E-02 0. -1.
         -2    1    1    2  502    0  0.17444814156E+02  0.10533940070E+02  0.17324207992E+03  0.17443653200E+03  0.25500000000E-02 0. -1.
<mgrwt>
<rscale>  0 0.42261628E+02</rscale>
<asrwt>0</asrwt>
<pdfrwt beam="1">  1        2 0.42302225E-01 0.42261628E+02</pdfrwt>
<pdfrwt beam="2">  1       -2 0.24982882E-03 0.42261628E+02</pdfrwt>
<totfact> 0.12423556E+06</totfact>
</mgrwt>
</event>
<event>
 4    1  0.4604841E-002  0.5153021E+02  0.7818608E-02  0.1437259E+00
         -2   -1    0    0  501    0 -0.00000000000E+00  0.00000000000E+00  0.80716696204E+00  0.80717099001E+00  0.25500000000E-02 0.  1.
          2   -1    0    0    0  501  0.00000000000E+00 -0.00000000000E+00 -0.82243082588E+03  0.82243082588E+03  0.25500000000E-02 0.  1.
          2    1    1    2    0  502 -0.20863186806E+02  0.13891491646E+02 -0.31549816094E+03  0.31649223635E+03  0.25500000000E-02 0. -1.
         -2    1    1    2  502    0  0.20863186806E+02 -0.13891491646E+02 -0.50612549798E+03  0.50674576053E+03  0.25500000000E-02 0. -1.
<mgrwt>
<rscale>  0 0.51530211E+02</rscale>
<asrwt>0</asrwt>
<pdfrwt beam="2">  1        2 0.12652715E+00 0.51530211E+02</pdfrwt>
<pdfrwt beam="1">  1       -2 0.12418050E-03 0.51530211E+02</pdfrwt>
<totfact> 0.10532833E+06</totfact>
</mgrwt>
</event>
<event>
 4    1  0.4604841E-002  0.6003885E+02  0.7818608E-02  0.1397669E+00
          2   -1    0    0    0  501  0.00000000000E+00  0.00000000000E+00  0.41668115600E+03  0.41668115601E+03  0.25500000000E-02 0.  1.
         -2   -1    0    0  501    0 -0.00000000000E+00 -0.00000000000E+00 -0.21627222669E+01  0.21627237702E+01  0.25500000000E-02 0.  1.
          2    1    1    2    0  502 -0.21186654201E+02  0.91176409867E+01  0.73221429422E+02  0.76768375172E+02  0.25500000000E-02 0.  1.
         -2    1    1    2  502    0  0.21186654201E+02 -0.91176409867E+01  0.34129700431E+03  0.34207550460E+03  0.25500000000E-02 0.  1.
<mgrwt>
<rscale>  0 0.60038852E+02</rscale>
<asrwt>0</asrwt>
<pdfrwt beam="1">  1        2 0.64104841E-01 0.60038852E+02</pdfrwt>
<pdfrwt beam="2">  1       -2 0.33272637E-03 0.60038852E+02</pdfrwt>
<totfact> 0.59864424E+05</totfact>
</mgrwt>
</event>
<event>
 4    1  0.4604841E-002  0.4190344E+02  0.7818608E-02  0.1494654E+00
         -2   -1    0    0  501    0 -0.00000000000E+00  0.00000000000E+00  0.11352308886E+01  0.11352337526E+01  0.25500000000E-02 0. -1.
          2   -1    0    0    0  501  0.00000000000E+00 -0.00000000000E+00 -0.38668253428E+03  0.38668253429E+03  0.25500000000E-02 0. -1.
          2    1    1    2    0  502 -0.19147501064E+02 -0.85048638387E+01 -0.19164008760E+03  0.19278195633E+03  0.25500000000E-02 0.  1.
         -2    1    1    2  502    0  0.19147501064E+02  0.85048638387E+01 -0.19390721579E+03  0.19503581171E+03  0.25500000000E-02 0.  1.
<mgrwt>
<rscale>  0 0.41903437E+02</rscale>
<asrwt>0</asrwt>
<pdfrwt beam="2">  1        2 0.59489516E-01 0.41903437E+02</pdfrwt>
<pdfrwt beam="1">  1       -2 0.17465144E-03 0.41903437E+02</pdfrwt>
<totfact> 0.14246744E+06</totfact>
</mgrwt>
</event>
<event>
 4    1  0.4604841E-002  0.1176759E+03  0.7818608E-02  0.1246981E+00
         -2   -1    0    0  501    0 -0.00000000000E+00  0.00000000000E+00  0.78538004572E+01  0.78538008712E+01  0.25500000000E-02 0.  1.
          2   -1    0    0    0  501  0.00000000000E+00 -0.00000000000E+00 -0.44079339347E+03  0.44079339348E+03  0.25500000000E-02 0.  1.
          2    1    1    2    0  502 -0.54983092231E+02 -0.20246118133E+02 -0.19598892487E+03  0.20455978199E+03  0.25500000000E-02 0.  1.
         -2    1    1    2  502    0  0.54983092231E+02  0.20246118133E+02 -0.23695066815E+03  0.24408741236E+03  0.25500000000E-02 0.  1.
<mgrwt>
<rscale>  0 0.11767588E+03</rscale>
<asrwt>0</asrwt>
<pdfrwt beam="2">  1        2 0.67814349E-01 0.11767588E+03</pdfrwt>
<pdfrwt beam="1">  1       -2 0.12082774E-02 0.11767588E+03</pdfrwt>
<totfact> 0.10405007E+05</totfact>
</mgrwt>
</event>
<event>
 4    1  0.4604841E-002  0.1127348E+03  0.7818608E-02  0.1255588E+00
         -2   -1    0    0  501    0 -0.00000000000E+00  0.00000000000E+00  0.15036920547E+02  0.15036920763E+02  0.25500000000E-02 0. -1.
          2   -1    0    0    0  501  0.00000000000E+00 -0.00000000000E+00 -0.21129864726E+03  0.21129864727E+03  0.25500000000E-02 0. -1.
          2    1    1    2    0  502  0.50263886486E+01  0.56028786241E+02 -0.90950340472E+02  0.10694135734E+03  0.25500000000E-02 0.  1.
         -2    1    1    2  502    0 -0.50263886486E+01 -0.56028786241E+02 -0.10531138624E+03  0.11939421070E+03  0.25500000000E-02 0.  1.
<mgrwt>
<rscale>  0 0.11273475E+03</rscale>
<asrwt>0</asrwt>
<pdfrwt beam="2">  1        2 0.32507482E-01 0.11273475E+03</pdfrwt>
<pdfrwt beam="1">  1       -2 0.23133726E-02 0.11273475E+03</pdfrwt>
<totfact> 0.88502680E+04</totfact>
</mgrwt>
</event>
<event>
 4    1  0.4604841E-002  0.1375160E+03  0.7818608E-02  0.1216711E+00
          2   -1    0    0    0  501  0.00000000000E+00  0.00000000000E+00  0.19948801287E+04  0.19948801287E+04  0.25500000000E-02 0.  1.
         -2   -1    0    0  501    0 -0.00000000000E+00 -0.00000000000E+00 -0.23698979612E+01  0.23698993331E+01  0.25500000000E-02 0.  1.
          2    1    1    2    0  502 -0.68447973117E+02  0.62367775080E+01  0.96854060333E+03  0.97097627299E+03  0.25500000000E-02 0. -1.
         -2    1    1    2  502    0  0.68447973117E+02 -0.62367775080E+01  0.10239696275E+04  0.10262737551E+04  0.25500000000E-02 0. -1.
<mgrwt>
<rscale>  0 0.13751602E+03</rscale>
<asrwt>0</asrwt>
<pdfrwt beam="1">  1        2 0.30690562E+00 0.13751602E+03</pdfrwt>
<pdfrwt beam="2">  1       -2 0.36459863E-03 0.13751602E+03</pdfrwt>
<totfact> 0.65211876E+04</totfact>
</mgrwt>
</event>
<event>
 4    1  0.4604841E-002  0.6647496E+02  0.7818608E-02  0.1372508E+00
          2   -1    0    0    0  501  0.00000000000E+00  0.00000000000E+00  0.12768843236E+03  0.12768843239E+03  0.25500000000E-02 0. -1.
         -2   -1    0    0  501    0 -0.00000000000E+00 -0.00000000000E+00 -0.86517634013E+01  0.86517637771E+01  0.25500000000E-02 0. -1.
          2    1    1    2    0  502  0.23183134945E+02 -0.11033317209E+02  0.10281040295E+03  0.10596778188E+03  0.25500000000E-02 0.  1.
         -2    1    1    2  502    0 -0.23183134945E+02  0.11033317209E+02  0.16226266009E+02  0.30372414287E+02  0.25500000000E-02 0.  1.
<mgrwt>
<rscale>  0 0.66474962E+02</rscale>
<asrwt>0</asrwt>
<pdfrwt beam="1">  1        2 0.19644374E-01 0.66474962E+02</pdfrwt>
<pdfrwt beam="2">  1       -2 0.13310405E-02 0.66474962E+02</pdfrwt>
<totfact> 0.30807600E+05</totfact>
</mgrwt>
</event>
<event>
 4    1  0.4604841E-002  0.6407541E+02  0.7818608E-02  0.1381484E+00
         -2   -1    0    0  501    0 -0.00000000000E+00  0.00000000000E+00  0.76143304693E+00  0.76143731683E+00  0.25500000000E-02 0. -1.
          2   -1    0    0    0  501  0.00000000000E+00 -0.00000000000E+00 -0.13479998680E+04  0.13479998680E+04  0.25500000000E-02 0. -1.
          2    1    1    2    0  502 -0.19112450588E+02  0.17900224653E+02 -0.10621599911E+04  0.10624827296E+04  0.25500000000E-02 0.  1.
         -2    1    1    2  502    0  0.19112450588E+02 -0.17900224653E+02 -0.28507844377E+03  0.28627857572E+03  0.25500000000E-02 0.  1.
<mgrwt>
<rscale>  0 0.64075410E+02</rscale>
<asrwt>0</asrwt>
<pdfrwt beam="2">  1        2 0.20738269E+00 0.64075410E+02</pdfrwt>
<pdfrwt beam="1">  1       -2 0.11714495E-03 0.64075410E+02</pdfrwt>
<totfact> 0.60718474E+05</totfact>
</mgrwt>
</event>
<event>
 4    1  0.4604841E-002  0.5679460E+02  0.7818608E-02  0.1411798E+00
          2   -1    0    0    0  501  0.00000000000E+00  0.00000000000E+00  0.30973874617E+01  0.30973885113E+01  0.25500000000E-02 0.  1.
         -2   -1    0    0  501    0 -0.00000000000E+00 -0.00000000000E+00 -0.26035058695E+03  0.26035058696E+03  0.25500000000E-02 0.  1.
          2    1    1    2    0  502  0.67915728002E+01 -0.26442811996E+02 -0.16487281471E+03  0.16711790091E+03  0.25500000000E-02 0. -1.
         -2    1    1    2  502    0 -0.67915728002E+01  0.26442811996E+02 -0.92380384775E+02  0.96330074562E+02  0.25500000000E-02 0. -1.
<mgrwt>
<rscale>  0 0.56794605E+02</rscale>
<asrwt>0</asrwt>
<pdfrwt beam="1">  1        2 0.47652144E-03 0.56794605E+02</pdfrwt>
<pdfrwt beam="2">  1       -2 0.40053919E-01 0.56794605E+02</pdfrwt>
<totfact> 0.18251266E+05</totfact>
</mgrwt>
</event>
<event>
 4    1  0.4604841E-002  0.5682474E+02  0.7818608E-02  0.1411661E+00
          2   -1    0    0    0  501  0.00000000000E+00  0.00000000000E+00  0.46252634564E+03  0.46252634565E+03  0.25500000000E-02 0.  1.
         -2   -1    0    0  501    0 -0.00000000000E+00 -0.00000000000E+00 -0.17453328406E+01  0.17453347034E+01  0.25500000000E-02 0.  1.
          2    1    1    2    0  502  0.23654190069E+02  0.62541804285E+01  0.34840092536E+03  0.34925898740E+03  0.25500000000E-02 0.  1.
         -2    1    1    2  502    0 -0.23654190069E+02 -0.62541804285E+01  0.11238008745E+03  0.11501269296E+03  0.25500000000E-02 0.  1.
<mgrwt>
<rscale>  0 0.56824743E+02</rscale>
<asrwt>0</asrwt>
<pdfrwt beam="1">  1        2 0.71157834E-01 0.56824743E+02</pdfrwt>
<pdfrwt beam="2">  1       -2 0.26851314E-03 0.56824743E+02</pdfrwt>
<totfact> 0.71210907E+05</totfact>
</mgrwt>
</event>
<event>
 4    1  0.4604841E-002  0.4816020E+02  0.7818608E-02  0.1455525E+00
          2   -1    0    0    0  501  0.00000000000E+00  0.00000000000E+00  0.34308486279E+01  0.34308495756E+01  0.25500000000E-02 0. -1.
         -2   -1    0    0  501    0 -0.00000000000E+00 -0.00000000000E+00 -0.16901097068E+03  0.16901097070E+03  0.25500000000E-02 0. -1.
          2    1    1    2    0  502  0.78262251848E+01 -0.18811182785E+02 -0.12874739693E+03  0.13034954017E+03  0.25500000000E-02 0. -1.
         -2    1    1    2  502    0 -0.78262251848E+01  0.18811182785E+02 -0.36832725118E+02  0.42092280106E+02  0.25500000000E-02 0. -1.
<mgrwt>
<rscale>  0 0.48160197E+02</rscale>
<asrwt>0</asrwt>
<pdfrwt beam="1">  1        2 0.52782307E-03 0.48160197E+02</pdfrwt>
<pdfrwt beam="2">  1       -2 0.26001681E-01 0.48160197E+02</pdfrwt>
<totfact> 0.32989039E+05</totfact>
</mgrwt>
</event>
<event>
 4    1  0.4604841E-002  0.8966976E+02  0.7818608E-02  0.1303653E+00
          2   -1    0    0    0  501  0.00000000000E+00  0.00000000000E+00  0.34295519092E+02  0.34295519187E+02  0.25500000000E-02 0.  1.
         -2   -1    0    0  501    0 -0.00000000000E+00 -0.00000000000E+00 -0.58613087627E+02  0.58613087682E+02  0.25500000000E-02 0.  1.
          2    1    1    2    0  502  0.23144753559E+02  0.33523245611E+02 -0.31561594049E+02  0.51532725903E+02  0.25500000000E-02 0.  1.
         -2    1    1    2  502    0 -0.23144753559E+02 -0.33523245611E+02  0.72440255139E+01  0.41375880966E+02  0.25500000000E-02 0.  1.
<mgrwt>
<rscale>  0 0.89669756E+02</rscale>
<asrwt>0</asrwt>
<pdfrwt beam="1">  1        2 0.52762337E-02 0.89669756E+02</pdfrwt>
<pdfrwt beam="2">  1       -2 0.90173981E-02 0.89669756E+02</pdfrwt>
<totfact> 0.96228137E+04</totfact>
</mgrwt>
</event>
<event>
 4    1  0.4604841E-002  0.5041966E+02  0.7818608E-02  0.1443091E+00
          2   -1    0    0    0  501  0.00000000000E+00  0.00000000000E+00  0.83814760905E+03  0.83814760905E+03  0.25500000000E-02 0. -1.
         -2   -1    0    0  501    0 -0.00000000000E+00 -0.00000000000E+00 -0.75825990318E+00  0.75826419095E+00  0.25500000000E-02 0. -1.
          2    1    1    2    0  502  0.12945906379E+02 -0.21555627778E+02  0.44889217594E+03  0.44959584874E+03  0.25500000000E-02 0.  1.
         -2    1    1    2  502    0 -0.12945906379E+02  0.21555627778E+02  0.38849717321E+03  0.38931002450E+03  0.25500000000E-02 0.  1.
<mgrwt>
<rscale>  0 0.50419660E+02</rscale>
<asrwt>0</asrwt>
<pdfrwt beam="1">  1        2 0.12894584E+00 0.50419660E+02</pdfrwt>
<pdfrwt beam="2">  1       -2 0.11665566E-03 0.50419660E+02</pdfrwt>
<totfact> 0.11147849E+06</totfact>
</mgrwt>
</event>
<event>
 4    1  0.4604841E-002  0.6039557E+02  0.7818608E-02  0.1396179E+00
         -2   -1    0    0  501    0 -0.00000000000E+00  0.00000000000E+00  0.21403568173E+01  0.21403583363E+01  0.25500000000E-02 0.  1.
          2   -1    0    0    0  501  0.00000000000E+00 -0.00000000000E+00 -0.42605325362E+03  0.42605325363E+03  0.25500000000E-02 0.  1.
          2    1    1    2    0  502 -0.24555543162E+02  0.12324461230E+02 -0.30080271838E+03  0.30205486660E+03  0.25500000000E-02 0. -1.
         -2    1    1    2  502    0  0.24555543162E+02 -0.12324461230E+02 -0.12311017842E+03  0.12613874537E+03  0.25500000000E-02 0. -1.
<mgrwt>
<rscale>  0 0.60395573E+02</rscale>
<asrwt>0</asrwt>
<pdfrwt beam="2">  1        2 0.65546587E-01 0.60395573E+02</pdfrwt>
<pdfrwt beam="1">  1       -2 0.32928612E-03 0.60395573E+02</pdfrwt>
<totfact> 0.59417676E+05</totfact>
</mgrwt>
</event>
<event>
 4    1  0.4604841E-002  0.4913461E+02  0.7818608E-02  0.1450066E+00
          2   -1    0    0    0  501  0.00000000000E+00  0.00000000000E+00  0.37078749703E+03  0.37078749704E+03  0.25500000000E-02 0.  1.
         -2   -1    0    0  501    0 -0.00000000000E+00 -0.00000000000E+00 -0.16277574727E+01  0.16277594701E+01  0.25500000000E-02 0.  1.
          2    1    1    2    0  502  0.18626092850E+02 -0.14880771372E+02  0.13962142464E+03  0.14164219327E+03  0.25500000000E-02 0. -1.
         -2    1    1    2  502    0 -0.18626092850E+02  0.14880771372E+02  0.22953831492E+03  0.23077306324E+03  0.25500000000E-02 0. -1.
<mgrwt>
<rscale>  0 0.49134611E+02</rscale>
<asrwt>0</asrwt>
<pdfrwt beam="1">  1        2 0.57044280E-01 0.49134611E+02</pdfrwt>
<pdfrwt beam="2">  1       -2 0.25042416E-03 0.49134611E+02</pdfrwt>
<totfact> 0.95058006E+05</totfact>
</mgrwt>
</event>
<event>
 4    1  0.4604841E-002  0.9732704E+02  0.7818608E-02  0.1286019E+00
         -2   -1    0    0  501    0 -0.00000000000E+00  0.00000000000E+00  0.58905763619E+00  0.58906315557E+00  0.25500000000E-02 0. -1.
          2   -1    0    0    0  501  0.00000000000E+00 -0.00000000000E+00 -0.40201959076E+04  0.40201959076E+04  0.25500000000E-02 0. -1.
          2    1    1    2    0  502  0.47589127608E+02 -0.11299735887E+00 -0.15897172925E+04  0.15904294413E+04  0.25500000000E-02 0.  1.
         -2    1    1    2  502    0 -0.47589127608E+02  0.11299735887E+00 -0.24298895575E+04  0.24303555295E+04  0.25500000000E-02 0.  1.
<mgrwt>
<rscale>  0 0.97327040E+02</rscale>
<asrwt>0</asrwt>
<pdfrwt beam="2">  1        2 0.61846971E+00 0.97327040E+02</pdfrwt>
<pdfrwt beam="1">  1       -2 0.90627896E-04 0.97327040E+02</pdfrwt>
<totfact> 0.28039667E+04</totfact>
</mgrwt>
</event>
<event>
 4    1  0.4604841E-002  0.7542386E+02  0.7818608E-02  0.1342563E+00
         -2   -1    0    0  501    0 -0.00000000000E+00  0.00000000000E+00  0.12243779665E+02  0.12243779930E+02  0.25500000000E-02 0.  1.
          2   -1    0    0    0  501  0.00000000000E+00 -0.00000000000E+00 -0.11615609288E+03  0.11615609291E+03  0.25500000000E-02 0.  1.
          2    1    1    2    0  502 -0.24338202399E+02  0.25595273675E+02 -0.29453619204E+02  0.45988931508E+02  0.25500000000E-02 0.  1.
         -2    1    1    2  502    0  0.24338202399E+02 -0.25595273675E+02 -0.74458694012E+02  0.82410941331E+02  0.25500000000E-02 0.  1.
<mgrwt>
<rscale>  0 0.75423859E+02</rscale>
<asrwt>0</asrwt>
<pdfrwt beam="2">  1        2 0.17870167E-01 0.75423859E+02</pdfrwt>
<pdfrwt beam="1">  1       -2 0.18836585E-02 0.75423859E+02</pdfrwt>
<totfact> 0.21452596E+05</totfact>
</mgrwt>
</event>
<event>
 4    1  0.4604841E-002  0.4729970E+02  0.7818608E-02  0.1460475E+00
         -2   -1    0    0  501    0 -0.00000000000E+00  0.00000000000E+00  0.16167679508E+02  0.16167679709E+02  0.25500000000E-02 0.  1.
          2   -1    0    0    0  501  0.00000000000E+00 -0.00000000000E+00 -0.34594665826E+02  0.34594665920E+02  0.25500000000E-02 0.  1.
          2    1    1    2    0  502 -0.19097632250E+01  0.23493217179E+02 -0.71388372413E+01  0.24628062300E+02  0.25500000000E-02 0.  1.
         -2    1    1    2  502    0  0.19097632250E+01 -0.23493217179E+02 -0.11288149077E+02  0.26134283328E+02  0.25500000000E-02 0.  1.
<mgrwt>
<rscale>  0 0.47299703E+02</rscale>
<asrwt>0</asrwt>
<pdfrwt beam="2">  1        2 0.53222563E-02 0.47299703E+02</pdfrwt>
<pdfrwt beam="1">  1       -2 0.24873353E-02 0.47299703E+02</pdfrwt>
<totfact> 0.55486915E+05</totfact>
</mgrwt>
</event>
<event>
 4    1  0.4604841E-002  0.4569473E+02  0.7818608E-02  0.1470051E+00
         -2   -1    0    0  501    0 -0.00000000000E+00  0.00000000000E+00  0.88506206345E+03  0.88506206345E+03  0.25500000000E-02 0.  1.
          2   -1    0    0    0  501  0.00000000000E+00 -0.00000000000E+00 -0.58978880325E+00  0.58979431579E+00  0.25500000000E-02 0.  1.
          2    1    1    2    0  502  0.11148546420E+02  0.19093238880E+02  0.33062540663E+03  0.33136385043E+03  0.25500000000E-02 0. -1.
         -2    1    1    2  502    0 -0.11148546420E+02 -0.19093238880E+02  0.55384686802E+03  0.55428800734E+03  0.25500000000E-02 0. -1.
<mgrwt>
<rscale>  0 0.45694732E+02</rscale>
<asrwt>0</asrwt>
<pdfrwt beam="2">  1        2 0.90736992E-04 0.45694732E+02</pdfrwt>
<pdfrwt beam="1">  1       -2 0.13616365E+00 0.45694732E+02</pdfrwt>
<totfact> 0.12197409E+05</totfact>
</mgrwt>
</event>
<event>
 4    1  0.4604841E-002  0.4944239E+02  0.7818608E-02  0.1448373E+00
         -2   -1    0    0  501    0 -0.00000000000E+00  0.00000000000E+00  0.46188102652E+00  0.46188806562E+00  0.25500000000E-02 0. -1.
          2   -1    0    0    0  501  0.00000000000E+00 -0.00000000000E+00 -0.13231391071E+04  0.13231391071E+04  0.25500000000E-02 0. -1.
          2    1    1    2    0  502 -0.11004397608E+02  0.18815585439E+02 -0.34912618051E+03  0.34980596471E+03  0.25500000000E-02 0.  1.
         -2    1    1    2  502    0  0.11004397608E+02 -0.18815585439E+02 -0.97355104554E+03  0.97379503043E+03  0.25500000000E-02 0.  1.
<mgrwt>
<rscale>  0 0.49442391E+02</rscale>
<asrwt>0</asrwt>
<pdfrwt beam="2">  1        2 0.20355683E+00 0.49442391E+02</pdfrwt>
<pdfrwt beam="1">  1       -2 0.71060220E-04 0.49442391E+02</pdfrwt>
<totfact> 0.11670991E+06</totfact>
</mgrwt>
</event>
<event>
 4    1  0.4604841E-002  0.4817031E+02  0.7818608E-02  0.1455468E+00
          2   -1    0    0    0  501  0.00000000000E+00  0.00000000000E+00  0.98931161602E+03  0.98931161602E+03  0.25500000000E-02 0.  1.
         -2   -1    0    0  501    0 -0.00000000000E+00 -0.00000000000E+00 -0.58635924754E+00  0.58636479233E+00  0.25500000000E-02 0.  1.
          2    1    1    2    0  502 -0.19756048006E+02  0.74934093757E+01  0.25679750786E+03  0.25766531134E+03  0.25500000000E-02 0. -1.
         -2    1    1    2  502    0  0.19756048006E+02 -0.74934093757E+01  0.73192774891E+03  0.73223266947E+03  0.25500000000E-02 0. -1.
<mgrwt>
<rscale>  0 0.48170313E+02</rscale>
<asrwt>0</asrwt>
<pdfrwt beam="1">  1        2 0.15220090E+00 0.48170313E+02</pdfrwt>
<pdfrwt beam="2">  1       -2 0.90210068E-04 0.48170313E+02</pdfrwt>
<totfact> 0.12684761E+06</totfact>
</mgrwt>
</event>
<event>
 4    1  0.4604841E-002  0.5005619E+02  0.7818608E-02  0.1445039E+00
         -2   -1    0    0  501    0 -0.00000000000E+00  0.00000000000E+00  0.15208261742E+01  0.15208283120E+01  0.25500000000E-02 0.  1.
          2   -1    0    0    0  501  0.00000000000E+00 -0.00000000000E+00 -0.41188477887E+03  0.41188477888E+03  0.25500000000E-02 0.  1.
          2    1    1    2    0  502 -0.21449065300E+02  0.80058722479E+01 -0.12167004927E+03  0.12380532012E+03  0.25500000000E-02 0. -1.
         -2    1    1    2  502    0  0.21449065300E+02 -0.80058722479E+01 -0.28869390343E+03  0.28960028708E+03  0.25500000000E-02 0. -1.
<mgrwt>
<rscale>  0 0.50056192E+02</rscale>
<asrwt>0</asrwt>
<pdfrwt beam="2">  1        2 0.63366801E-01 0.50056192E+02</pdfrwt>
<pdfrwt beam="1">  1       -2 0.23397375E-03 0.50056192E+02</pdfrwt>
<totfact> 0.94077933E+05</totfact>
</mgrwt>
</event>
<event>
 4    1  0.4604841E-002  0.5132183E+02  0.7818608E-02  0.1438340E+00
         -2   -1    0    0  501    0 -0.00000000000E+00  0.00000000000E+00  0.28829773795E+04  0.28829773795E+04  0.25500000000E-02 0.  1.
          2   -1    0    0    0  501  0.00000000000E+00 -0.00000000000E+00 -0.22839652223E+00  0.22841075690E+00  0.25500000000E-02 0.  1.
          2    1    1    2    0  502 -0.29491327381E+01 -0.24577323419E+02  0.10614274371E+04  0.10617160385E+04  0.25500000000E-02 0. -1.
         -2    1    1    2  502    0  0.29491327381E+01  0.24577323419E+02  0.18213215459E+04  0.18214897517E+04  0.25500000000E-02 0. -1.
<mgrwt>
<rscale>  0 0.51321829E+02</rscale>
<asrwt>0</asrwt>
<pdfrwt beam="2">  1        2 0.35138014E-04 0.51321829E+02</pdfrwt>
<pdfrwt beam="1">  1       -2 0.44354770E+00 0.51321829E+02</pdfrwt>
<totfact> 0.64071894E+03</totfact>
</mgrwt>
</event>
<event>
 4    1  0.4604841E-002  0.4874955E+02  0.7818608E-02  0.1452205E+00
         -2   -1    0    0  501    0 -0.00000000000E+00  0.00000000000E+00  0.17797726768E+01  0.17797745036E+01  0.25500000000E-02 0.  1.
          2   -1    0    0    0  501  0.00000000000E+00 -0.00000000000E+00 -0.33382322916E+03  0.33382322917E+03  0.25500000000E-02 0.  1.
          2    1    1    2    0  502 -0.76611935917E+01 -0.19923645021E+02 -0.85008605818E+02  0.87647638803E+02  0.25500000000E-02 0.  1.
         -2    1    1    2  502    0  0.76611935917E+01  0.19923645021E+02 -0.24703485067E+03  0.24795536487E+03  0.25500000000E-02 0.  1.
<mgrwt>
<rscale>  0 0.48749555E+02</rscale>
<asrwt>0</asrwt>
<pdfrwt beam="2">  1        2 0.51357370E-01 0.48749555E+02</pdfrwt>
<pdfrwt beam="1">  1       -2 0.27381159E-03 0.48749555E+02</pdfrwt>
<totfact> 0.93493885E+05</totfact>
</mgrwt>
</event>
<event>
 4    1  0.4604841E-002  0.4426877E+02  0.7818608E-02  0.1478959E+00
          2   -1    0    0    0  501  0.00000000000E+00  0.00000000000E+00  0.57691595258E+03  0.57691595259E+03  0.25500000000E-02 0.  1.
         -2   -1    0    0  501    0 -0.00000000000E+00 -0.00000000000E+00 -0.84922224656E+00  0.84922607506E+00  0.25500000000E-02 0.  1.
          2    1    1    2    0  502 -0.21613784705E+02 -0.39885466511E+01  0.25383304799E+03  0.25478281035E+03  0.25500000000E-02 0. -1.
         -2    1    1    2  502    0  0.21613784705E+02  0.39885466511E+01  0.32223368235E+03  0.32298236831E+03  0.25500000000E-02 0. -1.
<mgrwt>
<rscale>  0 0.44268769E+02</rscale>
<asrwt>0</asrwt>
<pdfrwt beam="1">  1        2 0.88756266E-01 0.44268769E+02</pdfrwt>
<pdfrwt beam="2">  1       -2 0.13064992E-03 0.44268769E+02</pdfrwt>
<totfact> 0.14123857E+06</totfact>
</mgrwt>
</event>
<event>
 4    1  0.4604841E-002  0.4357875E+02  0.7818608E-02  0.1483414E+00
          2   -1    0    0    0  501  0.00000000000E+00  0.00000000000E+00  0.14368387191E+04  0.14368387191E+04  0.25500000000E-02 0.  1.
         -2   -1    0    0  501    0 -0.00000000000E+00 -0.00000000000E+00 -0.33042662518E+00  0.33043646459E+00  0.25500000000E-02 0.  1.
          2    1    1    2    0  502 -0.20839809517E+02  0.57968646748E+01  0.63177998929E+03  0.63215018483E+03  0.25500000000E-02 0. -1.
         -2    1    1    2  502    0  0.20839809517E+02 -0.57968646748E+01  0.80472830318E+03  0.80501897074E+03  0.25500000000E-02 0. -1.
<mgrwt>
<rscale>  0 0.43578749E+02</rscale>
<asrwt>0</asrwt>
<pdfrwt beam="1">  1        2 0.22105538E+00 0.43578749E+02</pdfrwt>
<pdfrwt beam="2">  1       -2 0.50834871E-04 0.43578749E+02</pdfrwt>
<totfact> 0.15584825E+06</totfact>
</mgrwt>
</event>
<event>
 4    1  0.4604841E-002  0.4851094E+02  0.7818608E-02  0.1453543E+00
          2   -1    0    0    0  501  0.00000000000E+00  0.00000000000E+00  0.80579173332E+01  0.80579177367E+01  0.25500000000E-02 0.  1.
         -2   -1    0    0  501    0 -0.00000000000E+00 -0.00000000000E+00 -0.73012385151E+02  0.73012385196E+02  0.25500000000E-02 0.  1.
          2    1    1    2    0  502 -0.21204001405E+02  0.11740549311E+02 -0.34042798097E+02  0.41789499667E+02  0.25500000000E-02 0.  1.
         -2    1    1    2  502    0  0.21204001405E+02 -0.11740549311E+02 -0.30911669721E+02  0.39280803265E+02  0.25500000000E-02 0.  1.
<mgrwt>
<rscale>  0 0.48510938E+02</rscale>
<asrwt>0</asrwt>
<pdfrwt beam="1">  1        2 0.12396797E-02 0.48510938E+02</pdfrwt>
<pdfrwt beam="2">  1       -2 0.11232674E-01 0.48510938E+02</pdfrwt>
<totfact> 0.40819469E+05</totfact>
</mgrwt>
</event>
<event>
 4    1  0.4604841E-002  0.5604384E+02  0.7818608E-02  0.1415226E+00
         -2   -1    0    0  501    0 -0.00000000000E+00  0.00000000000E+00  0.46493189967E+00  0.46493889257E+00  0.25500000000E-02 0. -1.
          2   -1    0    0    0  501  0.00000000000E+00 -0.00000000000E+00 -0.16888971182E+04  0.16888971182E+04  0.25500000000E-02 0. -1.
          2    1    1    2    0  502 -0.10216055454E+02  0.23571432134E+02 -0.50686667267E+03  0.50751729436E+03  0.25500000000E-02 0.  1.
         -2    1    1    2  502    0  0.10216055454E+02 -0.23571432134E+02 -0.11815655136E+04  0.11818447627E+04  0.25500000000E-02 0.  1.
<mgrwt>
<rscale>  0 0.56043842E+02</rscale>
<asrwt>0</asrwt>
<pdfrwt beam="2">  1        2 0.25982541E+00 0.56043842E+02</pdfrwt>
<pdfrwt beam="1">  1       -2 0.71529875E-04 0.56043842E+02</pdfrwt>
<totfact> 0.78123771E+05</totfact>
</mgrwt>
</event>
<event>
 4    1  0.4604841E-002  0.5391884E+02  0.7818608E-02  0.1425282E+00
          2   -1    0    0    0  501  0.00000000000E+00  0.00000000000E+00  0.44002861101E+03  0.44002861102E+03  0.25500000000E-02 0. -1.
         -2   -1    0    0  501    0 -0.00000000000E+00 -0.00000000000E+00 -0.16517331608E+01  0.16517351292E+01  0.25500000000E-02 0. -1.
          2    1    1    2    0  502 -0.90205917724E+01  0.21700103209E+02  0.32741177283E+03  0.32825407012E+03  0.25500000000E-02 0.  1.
         -2    1    1    2  502    0  0.90205917724E+01 -0.21700103209E+02  0.11096510502E+03  0.11342627603E+03  0.25500000000E-02 0.  1.
<mgrwt>
<rscale>  0 0.53918838E+02</rscale>
<asrwt>0</asrwt>
<pdfrwt beam="1">  1        2 0.67696647E-01 0.53918838E+02</pdfrwt>
<pdfrwt beam="2">  1       -2 0.25411318E-03 0.53918838E+02</pdfrwt>
<totfact> 0.79916482E+05</totfact>
</mgrwt>
</event>
<event>
 4    1  0.4604841E-002  0.5142765E+02  0.7818608E-02  0.1437790E+00
          2   -1    0    0    0  501  0.00000000000E+00  0.00000000000E+00  0.54585343890E+03  0.54585343891E+03  0.25500000000E-02 0.  1.
         -2   -1    0    0  501    0 -0.00000000000E+00 -0.00000000000E+00 -0.12113144387E+01  0.12113171228E+01  0.25500000000E-02 0.  1.
          2    1    1    2    0  502  0.29581917198E+01  0.24160849060E+02  0.36049312522E+03  0.36131397823E+03  0.25500000000E-02 0.  1.
         -2    1    1    2  502    0 -0.29581917198E+01 -0.24160849060E+02  0.18414899925E+03  0.18575077781E+03  0.25500000000E-02 0.  1.
<mgrwt>
<rscale>  0 0.51427654E+02</rscale>
<asrwt>0</asrwt>
<pdfrwt beam="1">  1        2 0.83977638E-01 0.51427654E+02</pdfrwt>
<pdfrwt beam="2">  1       -2 0.18635586E-03 0.51427654E+02</pdfrwt>
<totfact> 0.96179259E+05</totfact>
</mgrwt>
</event>
<event>
 4    1  0.4604841E-002  0.5010237E+02  0.7818608E-02  0.1444790E+00
          2   -1    0    0    0  501  0.00000000000E+00  0.00000000000E+00  0.14766097922E+04  0.14766097922E+04  0.25500000000E-02 0.  1.
         -2   -1    0    0  501    0 -0.00000000000E+00 -0.00000000000E+00 -0.42499796365E+00  0.42500561362E+00  0.25500000000E-02 0.  1.
          2    1    1    2    0  502  0.22946359509E+02 -0.12484080659E+01  0.10321103647E+04  0.10323661651E+04  0.25500000000E-02 0.  1.
         -2    1    1    2  502    0 -0.22946359509E+02  0.12484080659E+01  0.44407442954E+03  0.44466863271E+03  0.25500000000E-02 0.  1.
<mgrwt>
<rscale>  0 0.50102367E+02</rscale>
<asrwt>0</asrwt>
<pdfrwt beam="1">  1        2 0.22717165E+00 0.50102367E+02</pdfrwt>
<pdfrwt beam="2">  1       -2 0.65384629E-04 0.50102367E+02</pdfrwt>
<totfact> 0.10964561E+06</totfact>
</mgrwt>
</event>
<event>
 4    1  0.4604841E-002  0.6075763E+02  0.7818608E-02  0.1394680E+00
          2   -1    0    0    0  501  0.00000000000E+00  0.00000000000E+00  0.14742255110E+04  0.14742255110E+04  0.25500000000E-02 0.  1.
         -2   -1    0    0  501    0 -0.00000000000E+00 -0.00000000000E+00 -0.62600234820E+00  0.62600754185E+00  0.25500000000E-02 0.  1.
          2    1    1    2    0  502  0.21458355300E+02  0.21253726950E+02  0.81616807388E+03  0.81672670260E+03  0.25500000000E-02 0.  1.
         -2    1    1    2  502    0 -0.21458355300E+02 -0.21253726950E+02  0.65743143473E+03  0.65812481590E+03  0.25500000000E-02 0.  1.
<mgrwt>
<rscale>  0 0.60757632E+02</rscale>
<asrwt>0</asrwt>
<pdfrwt beam="1">  1        2 0.22680595E+00 0.60757632E+02</pdfrwt>
<pdfrwt beam="2">  1       -2 0.96307595E-04 0.60757632E+02</pdfrwt>
<totfact> 0.67713943E+05</totfact>
</mgrwt>
</event>
<event>
 4    1  0.4604841E-002  0.5079219E+02  0.7818608E-02  0.1441115E+00
         -2   -1    0    0  501    0 -0.00000000000E+00  0.00000000000E+00  0.15644066032E+01  0.15644086815E+01  0.25500000000E-02 0.  1.
          2   -1    0    0    0  501  0.00000000000E+00 -0.00000000000E+00 -0.41227214446E+03  0.41227214447E+03  0.25500000000E-02 0.  1.
          2    1    1    2    0  502 -0.15673098714E+02  0.17081528009E+02 -0.12086276466E+03  0.12306596813E+03  0.25500000000E-02 0. -1.
         -2    1    1    2  502    0  0.15673098714E+02 -0.17081528009E+02 -0.28984497319E+03  0.29077058502E+03  0.25500000000E-02 0. -1.
<mgrwt>
<rscale>  0 0.50792192E+02</rscale>
<asrwt>0</asrwt>
<pdfrwt beam="2">  1        2 0.63426397E-01 0.50792192E+02</pdfrwt>
<pdfrwt beam="1">  1       -2 0.24067843E-03 0.50792192E+02</pdfrwt>
<totfact> 0.90759274E+05</totfact>
</mgrwt>
</event>
<event>
 4    1  0.4604841E-002  0.4614294E+02  0.7818608E-02  0.1467330E+00
          2   -1    0    0    0  501  0.00000000000E+00  0.00000000000E+00  0.17194182535E+02  0.17194182724E+02  0.25500000000E-02 0.  1.
         -2   -1    0    0  501    0 -0.00000000000E+00 -0.00000000000E+00 -0.30957717687E+02  0.30957717792E+02  0.25500000000E-02 0.  1.
          2    1    1    2    0  502  0.10399067284E+02  0.20381266882E+02 -0.37938812397E+01  0.23193321915E+02  0.25500000000E-02 0.  1.
         -2    1    1    2  502    0 -0.10399067284E+02 -0.20381266882E+02 -0.99696539123E+01  0.24958578600E+02  0.25500000000E-02 0.  1.
<mgrwt>
<rscale>  0 0.46142937E+02</rscale>
<asrwt>0</asrwt>
<pdfrwt beam="1">  1        2 0.26452589E-02 0.46142937E+02</pdfrwt>
<pdfrwt beam="2">  1       -2 0.47627258E-02 0.46142937E+02</pdfrwt>
<totfact> 0.53256334E+05</totfact>
</mgrwt>
</event>
<event>
 4    1  0.4604841E-002  0.4620479E+02  0.7818608E-02  0.1466958E+00
          2   -1    0    0    0  501  0.00000000000E+00  0.00000000000E+00  0.96052397666E+02  0.96052397700E+02  0.25500000000E-02 0.  1.
         -2   -1    0    0  501    0 -0.00000000000E+00 -0.00000000000E+00 -0.55565566950E+01  0.55565572802E+01  0.25500000000E-02 0.  1.
          2    1    1    2    0  502 -0.17747484209E+02  0.93538790796E+01  0.70442004376E+02  0.73243049067E+02  0.25500000000E-02 0.  1.
         -2    1    1    2  502    0  0.17747484209E+02 -0.93538790796E+01  0.20053836595E+02  0.28365905913E+02  0.25500000000E-02 0.  1.
<mgrwt>
<rscale>  0 0.46204789E+02</rscale>
<asrwt>0</asrwt>
<pdfrwt beam="1">  1        2 0.14777292E-01 0.46204789E+02</pdfrwt>
<pdfrwt beam="2">  1       -2 0.85485495E-03 0.46204789E+02</pdfrwt>
<totfact> 0.72302022E+05</totfact>
</mgrwt>
</event>
<event>
 4    1  0.4604841E-002  0.6309068E+02  0.7818608E-02  0.1385301E+00
          2   -1    0    0    0  501  0.00000000000E+00  0.00000000000E+00  0.92785790059E+02  0.92785790094E+02  0.25500000000E-02 0.  1.
         -2   -1    0    0  501    0 -0.00000000000E+00 -0.00000000000E+00 -0.10724793808E+02  0.10724794111E+02  0.25500000000E-02 0.  1.
          2    1    1    2    0  502 -0.30653420299E+02  0.42761552896E+01  0.51035963554E+02  0.59687412931E+02  0.25500000000E-02 0. -1.
         -2    1    1    2  502    0  0.30653420299E+02 -0.42761552896E+01  0.31025032698E+02  0.43823171274E+02  0.25500000000E-02 0. -1.
<mgrwt>
<rscale>  0 0.63090680E+02</rscale>
<asrwt>0</asrwt>
<pdfrwt beam="1">  1        2 0.14274738E-01 0.63090680E+02</pdfrwt>
<pdfrwt beam="2">  1       -2 0.16499682E-02 0.63090680E+02</pdfrwt>
<totfact> 0.32263175E+05</totfact>
</mgrwt>
</event>
<event>
 4    1  0.4604841E-002  0.5002442E+02  0.7818608E-02  0.1445210E+00
         -2   -1    0    0  501    0 -0.00000000000E+00  0.00000000000E+00  0.37745109224E+01  0.37745117838E+01  0.25500000000E-02 0.  1.
          2   -1    0    0    0  501  0.00000000000E+00 -0.00000000000E+00 -0.16574610786E+03  0.16574610788E+03  0.25500000000E-02 0.  1.
          2    1    1    2    0  502  0.18898906296E+02  0.14073786603E+02 -0.52558498509E+02  0.57598922738E+02  0.25500000000E-02 0. -1.
         -2    1    1    2  502    0 -0.18898906296E+02 -0.14073786603E+02 -0.10941309843E+03  0.11192169692E+03  0.25500000000E-02 0. -1.
<mgrwt>
<rscale>  0 0.50024417E+02</rscale>
<asrwt>0</asrwt>
<pdfrwt beam="2">  1        2 0.25499396E-01 0.50024417E+02</pdfrwt>
<pdfrwt beam="1">  1       -2 0.58069418E-03 0.50024417E+02</pdfrwt>
<totfact> 0.69184827E+05</totfact>
</mgrwt>
</event>
<event>
 4    1  0.4604841E-002  0.1160996E+03  0.7818608E-02  0.1249674E+00
          2   -1    0    0    0  501  0.00000000000E+00  0.00000000000E+00  0.45615046648E+01  0.45615053776E+01  0.25500000000E-02 0. -1.
         -2   -1    0    0  501    0 -0.00000000000E+00 -0.00000000000E+00 -0.73874298703E+03  0.73874298703E+03  0.25500000000E-02 0. -1.
          2    1    1    2    0  502  0.75897350789E+01 -0.53889962188E+02 -0.49641842065E+03  0.49939261155E+03  0.25500000000E-02 0. -1.
         -2    1    1    2  502    0 -0.75897350789E+01  0.53889962188E+02 -0.23776306172E+03  0.24391188086E+03  0.25500000000E-02 0. -1.
<mgrwt>
<rscale>  0 0.11609961E+03</rscale>
<asrwt>0</asrwt>
<pdfrwt beam="1">  1        2 0.70177059E-03 0.11609961E+03</pdfrwt>
<pdfrwt beam="2">  1       -2 0.11365267E+00 0.11609961E+03</pdfrwt>
<totfact> 0.13711365E+04</totfact>
</mgrwt>
</event>
<event>
 4    1  0.4604841E-002  0.5534883E+02  0.7818608E-02  0.1418456E+00
          2   -1    0    0    0  501  0.00000000000E+00  0.00000000000E+00  0.51372161540E+02  0.51372161604E+02  0.25500000000E-02 0. -1.
         -2   -1    0    0  501    0 -0.00000000000E+00 -0.00000000000E+00 -0.14908330168E+02  0.14908330386E+02  0.25500000000E-02 0. -1.
          2    1    1    2    0  502  0.23752080960E+02  0.10995381921E+02  0.74667944171E+01  0.27217876458E+02  0.25500000000E-02 0.  1.
         -2    1    1    2  502    0 -0.23752080960E+02 -0.10995381921E+02  0.28997036955E+02  0.39062615532E+02  0.25500000000E-02 0.  1.
<mgrwt>
<rscale>  0 0.55348827E+02</rscale>
<asrwt>0</asrwt>
<pdfrwt beam="1">  1        2 0.79034094E-02 0.55348827E+02</pdfrwt>
<pdfrwt beam="2">  1       -2 0.22935893E-02 0.55348827E+02</pdfrwt>
<totfact> 0.39622625E+05</totfact>
</mgrwt>
</event>
<event>
 4    1  0.4604841E-002  0.4293229E+02  0.7818608E-02  0.1487679E+00
         -2   -1    0    0  501    0 -0.00000000000E+00  0.00000000000E+00  0.55061914087E+00  0.55062504555E+00  0.25500000000E-02 0.  1.
          2   -1    0    0    0  501  0.00000000000E+00 -0.00000000000E+00 -0.83686307958E+03  0.83686307958E+03  0.25500000000E-02 0.  1.
          2    1    1    2    0  502  0.20375415243E+02 -0.51641511182E+01 -0.50310980001E+03  0.50354870358E+03  0.25500000000E-02 0.  1.
         -2    1    1    2  502    0 -0.20375415243E+02  0.51641511182E+01 -0.33320266042E+03  0.33386500104E+03  0.25500000000E-02 0.  1.
<mgrwt>
<rscale>  0 0.42932286E+02</rscale>
<asrwt>0</asrwt>
<pdfrwt beam="2">  1        2 0.12874715E+00 0.42932286E+02</pdfrwt>
<pdfrwt beam="1">  1       -2 0.84711761E-04 0.42932286E+02</pdfrwt>
<totfact> 0.16513716E+06</totfact>
</mgrwt>
</event>
<event>
 4    1  0.4604841E-002  0.9591930E+02  0.7818608E-02  0.1289119E+00
         -2   -1    0    0  501    0 -0.00000000000E+00  0.00000000000E+00  0.13276156361E+02  0.13276156606E+02  0.25500000000E-02 0.  1.
          2   -1    0    0    0  501  0.00000000000E+00 -0.00000000000E+00 -0.17325255481E+03  0.17325255482E+03  0.25500000000E-02 0.  1.
          2    1    1    2    0  502  0.30893102733E+02  0.30580449045E+02 -0.40584338311E+02  0.59469624035E+02  0.25500000000E-02 0. -1.
         -2    1    1    2  502    0 -0.30893102733E+02 -0.30580449045E+02 -0.11939206013E+03  0.12705908740E+03  0.25500000000E-02 0. -1.
<mgrwt>
<rscale>  0 0.95919300E+02</rscale>
<asrwt>0</asrwt>
<pdfrwt beam="2">  1        2 0.26654238E-01 0.95919300E+02</pdfrwt>
<pdfrwt beam="1">  1       -2 0.20424857E-02 0.95919300E+02</pdfrwt>
<totfact> 0.12806398E+05</totfact>
</mgrwt>
</event>
<event>
 4    1  0.4604841E-002  0.4584918E+02  0.7818608E-02  0.1469109E+00
         -2   -1    0    0  501    0 -0.00000000000E+00  0.00000000000E+00  0.31883040099E+00  0.31884059825E+00  0.25500000000E-02 0.  1.
          2   -1    0    0    0  501  0.00000000000E+00 -0.00000000000E+00 -0.16483008136E+04  0.16483008136E+04  0.25500000000E-02 0.  1.
          2    1    1    2    0  502  0.19184058817E+02 -0.11567041935E+02 -0.64889541278E+03  0.64928197365E+03  0.25500000000E-02 0. -1.
         -2    1    1    2  502    0 -0.19184058817E+02  0.11567041935E+02 -0.99908657047E+03  0.99933768060E+03  0.25500000000E-02 0. -1.
<mgrwt>
<rscale>  0 0.45849180E+02</rscale>
<asrwt>0</asrwt>
<pdfrwt beam="2">  1        2 0.25357792E+00 0.45849180E+02</pdfrwt>
<pdfrwt beam="1">  1       -2 0.49052935E-04 0.45849180E+02</pdfrwt>
<totfact> 0.13035472E+06</totfact>
</mgrwt>
</event>
<event>
 4    1  0.4604841E-002  0.5858516E+02  0.7818608E-02  0.1403867E+00
         -2   -1    0    0  501    0 -0.00000000000E+00  0.00000000000E+00  0.96234669660E+00  0.96235007506E+00  0.25500000000E-02 0.  1.
          2   -1    0    0    0  501  0.00000000000E+00 -0.00000000000E+00 -0.89162647339E+03  0.89162647339E+03  0.25500000000E-02 0.  1.
          2    1    1    2    0  502 -0.11399296724E+02  0.24911734424E+02 -0.28735210040E+03  0.28865510231E+03  0.25500000000E-02 0.  1.
         -2    1    1    2  502    0  0.11399296724E+02 -0.24911734424E+02 -0.60331202629E+03  0.60393372116E+03  0.25500000000E-02 0.  1.
<mgrwt>
<rscale>  0 0.58585162E+02</rscale>
<asrwt>0</asrwt>
<pdfrwt beam="2">  1        2 0.13717264E+00 0.58585162E+02</pdfrwt>
<pdfrwt beam="1">  1       -2 0.14805431E-03 0.58585162E+02</pdfrwt>
<totfact> 0.77328655E+05</totfact>
</mgrwt>
</event>
<event>
 4    1  0.4604841E-002  0.8421966E+02  0.7818608E-02  0.1317486E+00
          2   -1    0    0    0  501  0.00000000000E+00  0.00000000000E+00  0.19590481834E+04  0.19590481834E+04  0.25500000000E-02 0.  1.
         -2   -1    0    0  501    0 -0.00000000000E+00 -0.00000000000E+00 -0.90515085909E+00  0.90515445102E+00  0.25500000000E-02 0.  1.
          2    1    1    2    0  502 -0.16280764042E+02 -0.38521566917E+02  0.86443924694E+03  0.86545027937E+03  0.25500000000E-02 0.  1.
         -2    1    1    2  502    0  0.16280764042E+02  0.38521566917E+02  0.10937037856E+04  0.10945030584E+04  0.25500000000E-02 0.  1.
<mgrwt>
<rscale>  0 0.84219657E+02</rscale>
<asrwt>0</asrwt>
<pdfrwt beam="1">  1        2 0.30138869E+00 0.84219657E+02</pdfrwt>
<pdfrwt beam="2">  1       -2 0.13925580E-03 0.84219657E+02</pdfrwt>
<totfact> 0.24716073E+05</totfact>
</mgrwt>
</event>
<event>
 4    1  0.4604841E-002  0.8423048E+02  0.7818608E-02  0.1317457E+00
         -2   -1    0    0  501    0 -0.00000000000E+00  0.00000000000E+00  0.12609996443E+01  0.12610022226E+01  0.25500000000E-02 0. -1.
          2   -1    0    0    0  501  0.00000000000E+00 -0.00000000000E+00 -0.14065759213E+04  0.14065759213E+04  0.25500000000E-02 0. -1.
          2    1    1    2    0  502 -0.46817689118E+01 -0.40290147116E+02 -0.51320575793E+03  0.51480614303E+03  0.25500000000E-02 0.  1.
         -2    1    1    2  502    0  0.46817689118E+01  0.40290147116E+02 -0.89210916370E+03  0.89303078048E+03  0.25500000000E-02 0.  1.
<mgrwt>
<rscale>  0 0.84230483E+02</rscale>
<asrwt>0</asrwt>
<pdfrwt beam="2">  1        2 0.21639504E+00 0.84230483E+02</pdfrwt>
<pdfrwt beam="1">  1       -2 0.19400127E-03 0.84230483E+02</pdfrwt>
<totfact> 0.29680338E+05</totfact>
</mgrwt>
</event>
<event>
 4    1  0.4604841E-002  0.4356749E+02  0.7818608E-02  0.1483488E+00
          2   -1    0    0    0  501  0.00000000000E+00  0.00000000000E+00  0.35235730310E+01  0.35235739537E+01  0.25500000000E-02 0.  1.
         -2   -1    0    0  501    0 -0.00000000000E+00 -0.00000000000E+00 -0.13467338876E+03  0.13467338878E+03  0.25500000000E-02 0.  1.
          2    1    1    2    0  502  0.44234301172E+01  0.20565716058E+02 -0.47626719493E+02  0.52065533966E+02  0.25500000000E-02 0. -1.
         -2    1    1    2  502    0 -0.44234301172E+01 -0.20565716058E+02 -0.83523096236E+02  0.86131428772E+02  0.25500000000E-02 0. -1.
<mgrwt>
<rscale>  0 0.43567492E+02</rscale>
<asrwt>0</asrwt>
<pdfrwt beam="1">  1        2 0.54208834E-03 0.43567492E+02</pdfrwt>
<pdfrwt beam="2">  1       -2 0.20718979E-01 0.43567492E+02</pdfrwt>
<totfact> 0.45418774E+05</totfact>
</mgrwt>
</event>
<event>
 4    1  0.4604841E-002  0.2179851E+03  0.7818608E-02  0.1135394E+00
          2   -1    0    0    0  501  0.00000000000E+00  0.00000000000E+00  0.10879937819E+04  0.10879937819E+04  0.25500000000E-02 0. -1.
         -2   -1    0    0  501    0 -0.00000000000E+00 -0.00000000000E+00 -0.10918610057E+02  0.10918610355E+02  0.25500000000E-02 0. -1.
          2    1    1    2    0  502 -0.94444445961E+02  0.43817813938E+02  0.37599217402E+03  0.39014083242E+03  0.25500000000E-02 0. -1.
         -2    1    1    2  502    0  0.94444445961E+02 -0.43817813938E+02  0.70108299783E+03  0.70877155985E+03  0.25500000000E-02 0. -1.
<mgrwt>
<rscale>  0 0.21798514E+03</rscale>
<asrwt>0</asrwt>
<pdfrwt beam="1">  1        2 0.16738373E+00 0.21798514E+03</pdfrwt>
<pdfrwt beam="2">  1       -2 0.16797855E-02 0.21798514E+03</pdfrwt>
<totfact> 0.22862584E+04</totfact>
</mgrwt>
</event>
<event>
 4    1  0.4604841E-002  0.4970144E+02  0.7818608E-02  0.1446959E+00
          2   -1    0    0    0  501  0.00000000000E+00  0.00000000000E+00  0.17533203011E+02  0.17533203197E+02  0.25500000000E-02 0. -1.
         -2   -1    0    0  501    0 -0.00000000000E+00 -0.00000000000E+00 -0.35222212811E+02  0.35222212903E+02  0.25500000000E-02 0. -1.
          2    1    1    2    0  502  0.16518071030E+02  0.13979988705E+02 -0.21812907566E+02  0.30726042663E+02  0.25500000000E-02 0.  1.
         -2    1    1    2  502    0 -0.16518071030E+02 -0.13979988705E+02  0.41238977665E+01  0.22029373437E+02  0.25500000000E-02 0.  1.
<mgrwt>
<rscale>  0 0.49701437E+02</rscale>
<asrwt>0</asrwt>
<pdfrwt beam="1">  1        2 0.26974159E-02 0.49701437E+02</pdfrwt>
<pdfrwt beam="2">  1       -2 0.54188020E-02 0.49701437E+02</pdfrwt>
<totfact> 0.43825096E+05</totfact>
</mgrwt>
</event>
<event>
 4    1  0.4604841E-002  0.4084117E+02  0.7818608E-02  0.1502111E+00
          2   -1    0    0    0  501  0.00000000000E+00  0.00000000000E+00  0.69578958691E+03  0.69578958691E+03  0.25500000000E-02 0.  1.
         -2   -1    0    0  501    0 -0.00000000000E+00 -0.00000000000E+00 -0.59931668244E+00  0.59932210735E+00  0.25500000000E-02 0.  1.
          2    1    1    2    0  502  0.20342268062E+02  0.13251755583E+01  0.32716054941E+03  0.32779504124E+03  0.25500000000E-02 0. -1.
         -2    1    1    2  502    0 -0.20342268062E+02 -0.13251755583E+01  0.36802972081E+03  0.36859386778E+03  0.25500000000E-02 0. -1.
<mgrwt>
<rscale>  0 0.40841165E+02</rscale>
<asrwt>0</asrwt>
<pdfrwt beam="1">  1        2 0.10704473E+00 0.40841165E+02</pdfrwt>
<pdfrwt beam="2">  1       -2 0.92202828E-04 0.40841165E+02</pdfrwt>
<totfact> 0.17997343E+06</totfact>
</mgrwt>
</event>
<event>
 4    1  0.4604841E-002  0.7687613E+02  0.7818608E-02  0.1338158E+00
          2   -1    0    0    0  501  0.00000000000E+00  0.00000000000E+00  0.11122088389E+04  0.11122088389E+04  0.25500000000E-02 0. -1.
         -2   -1    0    0  501    0 -0.00000000000E+00 -0.00000000000E+00 -0.13284226706E+01  0.13284251181E+01  0.25500000000E-02 0. -1.
          2    1    1    2    0  502  0.22869240900E+01 -0.20400596523E+02  0.84723416919E+02  0.87174949046E+02  0.25500000000E-02 0.  1.
         -2    1    1    2  502    0 -0.22869240900E+01  0.20400596523E+02  0.10261569993E+04  0.10263623149E+04  0.25500000000E-02 0.  1.
<mgrwt>
<rscale>  0 0.76876129E+02</rscale>
<asrwt>0</asrwt>
<pdfrwt beam="1">  1        2 0.17110860E+00 0.76876129E+02</pdfrwt>
<pdfrwt beam="2">  1       -2 0.20437345E-03 0.76876129E+02</pdfrwt>
<totfact> 0.39038676E+05</totfact>
</mgrwt>
</event>
<event>
 4    1  0.4604841E-002  0.6096597E+02  0.7818608E-02  0.1393822E+00
          2   -1    0    0    0  501  0.00000000000E+00  0.00000000000E+00  0.16281928145E+04  0.16281928145E+04  0.25500000000E-02 0. -1.
         -2   -1    0    0  501    0 -0.00000000000E+00 -0.00000000000E+00 -0.57069880351E+00  0.57070450044E+00  0.25500000000E-02 0. -1.
          2    1    1    2    0  502  0.19559996753E+02 -0.21402396109E+02  0.56240237609E+03  0.56314925967E+03  0.25500000000E-02 0.  1.
         -2    1    1    2  502    0 -0.19559996753E+02  0.21402396109E+02  0.10652197396E+04  0.10656142593E+04  0.25500000000E-02 0.  1.
<mgrwt>
<rscale>  0 0.60965969E+02</rscale>
<asrwt>0</asrwt>
<pdfrwt beam="1">  1        2 0.25049002E+00 0.60965969E+02</pdfrwt>
<pdfrwt beam="2">  1       -2 0.87800667E-04 0.60965969E+02</pdfrwt>
<totfact> 0.64400576E+05</totfact>
</mgrwt>
</event>
<event>
 4    1  0.4604841E-002  0.9263533E+02  0.7818608E-02  0.1296593E+00
         -2   -1    0    0  501    0 -0.00000000000E+00  0.00000000000E+00  0.99304440143E+00  0.99304767544E+00  0.25500000000E-02 0.  1.
          2   -1    0    0    0  501  0.00000000000E+00 -0.00000000000E+00 -0.21603489202E+04  0.21603489202E+04  0.25500000000E-02 0.  1.
          2    1    1    2    0  502 -0.30558240829E+02  0.29984742201E+02 -0.66727025419E+03  0.66864226832E+03  0.25500000000E-02 0. -1.
         -2    1    1    2  502    0  0.30558240829E+02 -0.29984742201E+02 -0.14920856216E+04  0.14926996996E+04  0.25500000000E-02 0. -1.
<mgrwt>
<rscale>  0 0.92635327E+02</rscale>
<asrwt>0</asrwt>
<pdfrwt beam="2">  1        2 0.33235761E+00 0.92635327E+02</pdfrwt>
<pdfrwt beam="1">  1       -2 0.15277804E-03 0.92635327E+02</pdfrwt>
<totfact> 0.17423763E+05</totfact>
</mgrwt>
</event>
<event>
 4    1  0.4604841E-002  0.2436068E+03  0.7818608E-02  0.1117413E+00
          2   -1    0    0    0  501  0.00000000000E+00  0.00000000000E+00  0.23107881631E+03  0.23107881633E+03  0.25500000000E-02 0.  1.
         -2   -1    0    0  501    0 -0.00000000000E+00 -0.00000000000E+00 -0.64203503563E+02  0.64203503614E+02  0.25500000000E-02 0.  1.
          2    1    1    2    0  502  0.11518993482E+03 -0.36302536513E+02  0.10258290383E+03  0.15846087027E+03  0.25500000000E-02 0.  1.
         -2    1    1    2  502    0 -0.11518993482E+03  0.36302536513E+02  0.64292408920E+02  0.13682144968E+03  0.25500000000E-02 0.  1.
<mgrwt>
<rscale>  0 0.24360681E+03</rscale>
<asrwt>0</asrwt>
<pdfrwt beam="1">  1        2 0.35550587E-01 0.24360681E+03</pdfrwt>
<pdfrwt beam="2">  1       -2 0.98774622E-02 0.24360681E+03</pdfrwt>
<totfact> 0.96811024E+03</totfact>
</mgrwt>
</event>
<event>
 4    1  0.4604841E-002  0.4553280E+02  0.7818608E-02  0.1471043E+00
         -2   -1    0    0  501    0 -0.00000000000E+00  0.00000000000E+00  0.71865023757E+00  0.71865476166E+00  0.25500000000E-02 0.  1.
          2   -1    0    0    0  501  0.00000000000E+00 -0.00000000000E+00 -0.72122331836E+03  0.72122331837E+03  0.25500000000E-02 0.  1.
          2    1    1    2    0  502  0.14627315359E+02  0.17430816828E+02 -0.34884956587E+03  0.34959092000E+03  0.25500000000E-02 0. -1.
         -2    1    1    2  502    0 -0.14627315359E+02 -0.17430816828E+02 -0.37165510225E+03  0.37235105313E+03  0.25500000000E-02 0. -1.
<mgrwt>
<rscale>  0 0.45532799E+02</rscale>
<asrwt>0</asrwt>
<pdfrwt beam="2">  1        2 0.11095685E+00 0.45532799E+02</pdfrwt>
<pdfrwt beam="1">  1       -2 0.11056250E-03 0.45532799E+02</pdfrwt>
<totfact> 0.13935152E+06</totfact>
</mgrwt>
</event>
<event>
 4    1  0.4604841E-002  0.5438937E+02  0.7818608E-02  0.1423009E+00
         -2   -1    0    0  501    0 -0.00000000000E+00  0.00000000000E+00  0.32761639609E+02  0.32761639708E+02  0.25500000000E-02 0.  1.
          2   -1    0    0    0  501  0.00000000000E+00 -0.00000000000E+00 -0.22573686544E+02  0.22573686688E+02  0.25500000000E-02 0.  1.
          2    1    1    2    0  502  0.80408117176E+01 -0.19250977790E+02 -0.12653502525E+02  0.24400121549E+02  0.25500000000E-02 0.  1.
         -2    1    1    2  502    0 -0.80408117176E+01  0.19250977790E+02  0.22841455590E+02  0.30935204847E+02  0.25500000000E-02 0.  1.
<mgrwt>
<rscale>  0 0.54389374E+02</rscale>
<asrwt>0</asrwt>
<pdfrwt beam="2">  1        2 0.34728749E-02 0.54389374E+02</pdfrwt>
<pdfrwt beam="1">  1       -2 0.50402522E-02 0.54389374E+02</pdfrwt>
<totfact> 0.35836891E+05</totfact>
</mgrwt>
</event>
<event>
 4    1  0.4604841E-002  0.6591571E+02  0.7818608E-02  0.1374560E+00
          2   -1    0    0    0  501  0.00000000000E+00  0.00000000000E+00  0.17037047162E+02  0.17037047353E+02  0.25500000000E-02 0. -1.
         -2   -1    0    0  501    0 -0.00000000000E+00 -0.00000000000E+00 -0.63756373764E+02  0.63756373815E+02  0.25500000000E-02 0. -1.
          2    1    1    2    0  502 -0.27434351659E+01  0.21702030456E+02  0.68563590839E+01  0.22924097121E+02  0.25500000000E-02 0.  1.
         -2    1    1    2  502    0  0.27434351659E+01 -0.21702030456E+02 -0.53575685686E+02  0.57869324047E+02  0.25500000000E-02 0.  1.
<mgrwt>
<rscale>  0 0.65915715E+02</rscale>
<asrwt>0</asrwt>
<pdfrwt beam="1">  1        2 0.26210842E-02 0.65915715E+02</pdfrwt>
<pdfrwt beam="2">  1       -2 0.98086727E-02 0.65915715E+02</pdfrwt>
<totfact> 0.19916136E+05</totfact>
</mgrwt>
</event>
<event>
 4    1  0.4604841E-002  0.4248343E+02  0.7818608E-02  0.1490693E+00
         -2   -1    0    0  501    0 -0.00000000000E+00  0.00000000000E+00  0.13149378017E+01  0.13149402742E+01  0.25500000000E-02 0.  1.
          2   -1    0    0    0  501  0.00000000000E+00 -0.00000000000E+00 -0.34314165462E+03  0.34314165463E+03  0.25500000000E-02 0.  1.
          2    1    1    2    0  502  0.20859939752E+02 -0.40063944643E+01 -0.17211790859E+03  0.17342365106E+03  0.25500000000E-02 0.  1.
         -2    1    1    2  502    0 -0.20859939752E+02  0.40063944643E+01 -0.16970880823E+03  0.17103294385E+03  0.25500000000E-02 0.  1.
<mgrwt>
<rscale>  0 0.42483425E+02</rscale>
<asrwt>0</asrwt>
<pdfrwt beam="2">  1        2 0.52790953E-01 0.42483425E+02</pdfrwt>
<pdfrwt beam="1">  1       -2 0.20229859E-03 0.42483425E+02</pdfrwt>
<totfact> 0.13233508E+06</totfact>
</mgrwt>
</event>
<event>
 4    1  0.4604841E-002  0.5839497E+02  0.7818608E-02  0.1404693E+00
          2   -1    0    0    0  501  0.00000000000E+00  0.00000000000E+00  0.77948012024E+03  0.77948012024E+03  0.25500000000E-02 0. -1.
         -2   -1    0    0  501    0 -0.00000000000E+00 -0.00000000000E+00 -0.10936673319E+01  0.10936703047E+01  0.25500000000E-02 0. -1.
          2    1    1    2    0  502 -0.27741876006E+02 -0.44319542676E+01  0.49549284367E+03  0.49628863783E+03  0.25500000000E-02 0. -1.
         -2    1    1    2  502    0  0.27741876006E+02  0.44319542676E+01  0.28289360923E+03  0.28428515272E+03  0.25500000000E-02 0. -1.
<mgrwt>
<rscale>  0 0.58394969E+02</rscale>
<asrwt>0</asrwt>
<pdfrwt beam="1">  1        2 0.11991987E+00 0.58394969E+02</pdfrwt>
<pdfrwt beam="2">  1       -2 0.16825695E-03 0.58394969E+02</pdfrwt>
<totfact> 0.76411664E+05</totfact>
</mgrwt>
</event>
<event>
 4    1  0.4604841E-002  0.4096554E+02  0.7818608E-02  0.1501224E+00
          2   -1    0    0    0  501  0.00000000000E+00  0.00000000000E+00  0.42217023095E+03  0.42217023096E+03  0.25500000000E-02 0.  1.
         -2   -1    0    0  501    0 -0.00000000000E+00 -0.00000000000E+00 -0.99377721895E+00  0.99378049056E+00  0.25500000000E-02 0.  1.
          2    1    1    2    0  502  0.11859650908E+02  0.16652090903E+02  0.22365605896E+03  0.22458845955E+03  0.25500000000E-02 0. -1.
         -2    1    1    2  502    0 -0.11859650908E+02 -0.16652090903E+02  0.19752039478E+03  0.19857555190E+03  0.25500000000E-02 0. -1.
<mgrwt>
<rscale>  0 0.40965539E+02</rscale>
<asrwt>0</asrwt>
<pdfrwt beam="1">  1        2 0.64949324E-01 0.40965539E+02</pdfrwt>
<pdfrwt beam="2">  1       -2 0.15288892E-03 0.40965539E+02</pdfrwt>
<totfact> 0.15494450E+06</totfact>
</mgrwt>
</event>
<event>
 4    1  0.4604841E-002  0.6395109E+02  0.7818608E-02  0.1381961E+00
         -2   -1    0    0  501    0 -0.00000000000E+00  0.00000000000E+00  0.46681931630E+00  0.46682628094E+00  0.25500000000E-02 0.  1.
          2   -1    0    0    0  501  0.00000000000E+00 -0.00000000000E+00 -0.21902003527E+04  0.21902003527E+04  0.25500000000E-02 0.  1.
          2    1    1    2    0  502 -0.25916910787E+02  0.15695308516E+02 -0.74484731292E+03  0.74546331133E+03  0.25500000000E-02 0. -1.
         -2    1    1    2  502    0  0.25916910787E+02 -0.15695308516E+02 -0.14448862205E+04  0.14452038676E+04  0.25500000000E-02 0. -1.
<mgrwt>
<rscale>  0 0.63951089E+02</rscale>
<asrwt>0</asrwt>
<pdfrwt beam="2">  1        2 0.33694567E+00 0.63951089E+02</pdfrwt>
<pdfrwt beam="1">  1       -2 0.71820646E-04 0.63951089E+02</pdfrwt>
<totfact> 0.45027813E+05</totfact>
</mgrwt>
</event>
<event>
 4    1  0.4604841E-002  0.4657664E+02  0.7818608E-02  0.1464732E+00
         -2   -1    0    0  501    0 -0.00000000000E+00  0.00000000000E+00  0.14545934413E+02  0.14545934637E+02  0.25500000000E-02 0.  1.
          2   -1    0    0    0  501  0.00000000000E+00 -0.00000000000E+00 -0.37285051705E+02  0.37285051792E+02  0.25500000000E-02 0.  1.
          2    1    1    2    0  502 -0.70661873444E+01 -0.21917612714E+02 -0.15229771656E+02  0.27609032976E+02  0.25500000000E-02 0. -1.
         -2    1    1    2  502    0  0.70661873444E+01  0.21917612714E+02 -0.75093456355E+01  0.24221953453E+02  0.25500000000E-02 0. -1.
<mgrwt>
<rscale>  0 0.46576643E+02</rscale>
<asrwt>0</asrwt>
<pdfrwt beam="2">  1        2 0.57361618E-02 0.46576643E+02</pdfrwt>
<pdfrwt beam="1">  1       -2 0.22378361E-02 0.46576643E+02</pdfrwt>
<totfact> 0.58440902E+05</totfact>
</mgrwt>
</event>
<event>
 4    1  0.4604841E-002  0.5354621E+02  0.7818608E-02  0.1427102E+00
          2   -1    0    0    0  501  0.00000000000E+00  0.00000000000E+00  0.14494827111E+02  0.14494827335E+02  0.25500000000E-02 0.  1.
         -2   -1    0    0  501    0 -0.00000000000E+00 -0.00000000000E+00 -0.49452074221E+02  0.49452074286E+02  0.25500000000E-02 0.  1.
          2    1    1    2    0  502 -0.25946257055E+02 -0.61344255245E+01 -0.20394089217E+02  0.33567220814E+02  0.25500000000E-02 0. -1.
         -2    1    1    2  502    0  0.25946257055E+02  0.61344255245E+01 -0.14563157893E+02  0.30379680808E+02  0.25500000000E-02 0. -1.
<mgrwt>
<rscale>  0 0.53546215E+02</rscale>
<asrwt>0</asrwt>
<pdfrwt beam="1">  1        2 0.22299735E-02 0.53546215E+02</pdfrwt>
<pdfrwt beam="2">  1       -2 0.76080113E-02 0.53546215E+02</pdfrwt>
<totfact> 0.34649728E+05</totfact>
</mgrwt>
</event>
<event>
 4    1  0.4604841E-002  0.6496484E+02  0.7818608E-02  0.1378104E+00
         -2   -1    0    0  501    0 -0.00000000000E+00  0.00000000000E+00  0.49012964475E+00  0.49013627816E+00  0.25500000000E-02 0. -1.
          2   -1    0    0    0  501  0.00000000000E+00 -0.00000000000E+00 -0.21526968526E+04  0.21526968526E+04  0.25500000000E-02 0. -1.
          2    1    1    2    0  502 -0.43311044316E+01  0.28142694388E+02 -0.15941857578E+04  0.15944400272E+04  0.25500000000E-02 0. -1.
         -2    1    1    2  502    0  0.43311044316E+01 -0.28142694388E+02 -0.55802096510E+03  0.55874696170E+03  0.25500000000E-02 0. -1.
<mgrwt>
<rscale>  0 0.64964842E+02</rscale>
<asrwt>0</asrwt>
<pdfrwt beam="2">  1        2 0.33117656E+00 0.64964842E+02</pdfrwt>
<pdfrwt beam="1">  1       -2 0.75406795E-04 0.64964842E+02</pdfrwt>
<totfact> 0.44109669E+05</totfact>
</mgrwt>
</event>
<event>
 4    1  0.4604841E-002  0.6170099E+02  0.7818608E-02  0.1390829E+00
          2   -1    0    0    0  501  0.00000000000E+00  0.00000000000E+00  0.10056045896E+02  0.10056046219E+02  0.25500000000E-02 0.  1.
         -2   -1    0    0  501    0 -0.00000000000E+00 -0.00000000000E+00 -0.94644869413E+02  0.94644869448E+02  0.25500000000E-02 0.  1.
          2    1    1    2    0  502  0.19994890428E+02 -0.18312926994E+02 -0.17320777087E+02  0.32174030890E+02  0.25500000000E-02 0.  1.
         -2    1    1    2  502    0 -0.19994890428E+02  0.18312926994E+02 -0.67268046431E+02  0.72526884777E+02  0.25500000000E-02 0.  1.
<mgrwt>
<rscale>  0 0.61700994E+02</rscale>
<asrwt>0</asrwt>
<pdfrwt beam="1">  1        2 0.15470841E-02 0.61700994E+02</pdfrwt>
<pdfrwt beam="2">  1       -2 0.14560749E-01 0.61700994E+02</pdfrwt>
<totfact> 0.21361276E+05</totfact>
</mgrwt>
</event>
<event>
 4    1  0.4604841E-002  0.4755614E+02  0.7818608E-02  0.1458987E+00
         -2   -1    0    0  501    0 -0.00000000000E+00  0.00000000000E+00  0.61303943137E+03  0.61303943138E+03  0.25500000000E-02 0.  1.
          2   -1    0    0    0  501  0.00000000000E+00 -0.00000000000E+00 -0.92228241984E+00  0.92228594506E+00  0.25500000000E-02 0.  1.
          2    1    1    2    0  502  0.16267045585E+02 -0.12185399982E+02  0.14673548992E+03  0.14813643965E+03  0.25500000000E-02 0.  1.
         -2    1    1    2  502    0 -0.16267045585E+02  0.12185399982E+02  0.46538165903E+03  0.46582527767E+03  0.25500000000E-02 0.  1.
<mgrwt>
<rscale>  0 0.47556138E+02</rscale>
<asrwt>0</asrwt>
<pdfrwt beam="2">  1        2 0.14188949E-03 0.47556138E+02</pdfrwt>
<pdfrwt beam="1">  1       -2 0.94314017E-01 0.47556138E+02</pdfrwt>
<totfact> 0.15839243E+05</totfact>
</mgrwt>
</event>
<event>
 4    1  0.4604841E-002  0.8273439E+02  0.7818608E-02  0.1321466E+00
         -2   -1    0    0  501    0 -0.00000000000E+00  0.00000000000E+00  0.71556823310E+00  0.71557277668E+00  0.25500000000E-02 0.  1.
          2   -1    0    0    0  501  0.00000000000E+00 -0.00000000000E+00 -0.23914413048E+04  0.23914413048E+04  0.25500000000E-02 0.  1.
          2    1    1    2    0  502  0.36896037508E+02 -0.16456809461E+02 -0.93820859932E+03  0.93907801593E+03  0.25500000000E-02 0.  1.
         -2    1    1    2  502    0 -0.36896037508E+02  0.16456809461E+02 -0.14525171373E+04  0.14530788617E+04  0.25500000000E-02 0.  1.
<mgrwt>
<rscale>  0 0.82734391E+02</rscale>
<asrwt>0</asrwt>
<pdfrwt beam="2">  1        2 0.36790765E+00 0.82734391E+02</pdfrwt>
<pdfrwt beam="1">  1       -2 0.11008968E-03 0.82734391E+02</pdfrwt>
<totfact> 0.20577447E+05</totfact>
</mgrwt>
</event>
<event>
 4    1  0.4604841E-002  0.4789801E+02  0.7818608E-02  0.1457020E+00
          2   -1    0    0    0  501  0.00000000000E+00  0.00000000000E+00  0.92445911354E+03  0.92445911355E+03  0.25500000000E-02 0. -1.
         -2   -1    0    0  501    0 -0.00000000000E+00 -0.00000000000E+00 -0.62041942403E+00  0.62042466441E+00  0.25500000000E-02 0. -1.
          2    1    1    2    0  502  0.19944935238E+02  0.66995414592E+01  0.24097519299E+03  0.24189197577E+03  0.25500000000E-02 0.  1.
         -2    1    1    2  502    0 -0.19944935238E+02 -0.66995414592E+01  0.68286350113E+03  0.68318756244E+03  0.25500000000E-02 0.  1.
<mgrwt>
<rscale>  0 0.47898009E+02</rscale>
<asrwt>0</asrwt>
<pdfrwt beam="1">  1        2 0.14222501E+00 0.47898009E+02</pdfrwt>
<pdfrwt beam="2">  1       -2 0.95449186E-04 0.47898009E+02</pdfrwt>
<totfact> 0.12799642E+06</totfact>
</mgrwt>
</event>
<event>
 4    1  0.4604841E-002  0.9710794E+02  0.7818608E-02  0.1286498E+00
          2   -1    0    0    0  501  0.00000000000E+00  0.00000000000E+00  0.26308879009E+04  0.26308879009E+04  0.25500000000E-02 0. -1.
         -2   -1    0    0  501    0 -0.00000000000E+00 -0.00000000000E+00 -0.89607886510E+00  0.89608249340E+00  0.25500000000E-02 0. -1.
          2    1    1    2    0  502  0.31651252237E+02  0.35594999123E+02  0.10597766432E+04  0.10608465201E+04  0.25500000000E-02 0.  1.
         -2    1    1    2  502    0 -0.31651252237E+02 -0.35594999123E+02  0.15702151788E+04  0.15709374633E+04  0.25500000000E-02 0.  1.
<mgrwt>
<rscale>  0 0.97107936E+02</rscale>
<asrwt>0</asrwt>
<pdfrwt beam="1">  1        2 0.40474957E+00 0.97107936E+02</pdfrwt>
<pdfrwt beam="2">  1       -2 0.13785939E-03 0.97107936E+02</pdfrwt>
<totfact> 0.11486381E+05</totfact>
</mgrwt>
</event>
<event>
 4    1  0.4604841E-002  0.4774943E+02  0.7818608E-02  0.1457873E+00
          2   -1    0    0    0  501  0.00000000000E+00  0.00000000000E+00  0.75575833049E+03  0.75575833050E+03  0.25500000000E-02 0. -1.
         -2   -1    0    0  501    0 -0.00000000000E+00 -0.00000000000E+00 -0.75420987191E+00  0.75421418270E+00  0.25500000000E-02 0. -1.
          2    1    1    2    0  502  0.83036554427E+00 -0.23859882141E+02  0.37965912645E+03  0.38040903747E+03  0.25500000000E-02 0. -1.
         -2    1    1    2  502    0 -0.83036554427E+00  0.23859882141E+02  0.37534499417E+03  0.37610350721E+03  0.25500000000E-02 0. -1.
<mgrwt>
<rscale>  0 0.47749430E+02</rscale>
<asrwt>0</asrwt>
<pdfrwt beam="1">  1        2 0.11627037E+00 0.47749430E+02</pdfrwt>
<pdfrwt beam="2">  1       -2 0.11603276E-03 0.47749430E+02</pdfrwt>
<totfact> 0.12522912E+06</totfact>
</mgrwt>
</event>
<event>
 4    1  0.4604841E-002  0.4243536E+02  0.7818608E-02  0.1491018E+00
          2   -1    0    0    0  501  0.00000000000E+00  0.00000000000E+00  0.12863394512E+03  0.12863394515E+03  0.25500000000E-02 0.  1.
         -2   -1    0    0  501    0 -0.00000000000E+00 -0.00000000000E+00 -0.34997754882E+01  0.34997764172E+01  0.25500000000E-02 0.  1.
          2    1    1    2    0  502 -0.15065095901E+02  0.14557797349E+02  0.52098440933E+02  0.56152774930E+02  0.25500000000E-02 0.  1.
         -2    1    1    2  502    0  0.15065095901E+02 -0.14557797349E+02  0.73035728702E+02  0.75980946636E+02  0.25500000000E-02 0.  1.
<mgrwt>
<rscale>  0 0.42435362E+02</rscale>
<asrwt>0</asrwt>
<pdfrwt beam="1">  1        2 0.19789839E-01 0.42435362E+02</pdfrwt>
<pdfrwt beam="2">  1       -2 0.53842704E-03 0.42435362E+02</pdfrwt>
<totfact> 0.96603051E+05</totfact>
</mgrwt>
</event>
<event>
 4    1  0.4604841E-002  0.4294568E+02  0.7818608E-02  0.1487590E+00
         -2   -1    0    0  501    0 -0.00000000000E+00  0.00000000000E+00  0.11660820944E+03  0.11660820947E+03  0.25500000000E-02 0. -1.
          2   -1    0    0    0  501  0.00000000000E+00 -0.00000000000E+00 -0.39541190078E+01  0.39541198301E+01  0.25500000000E-02 0. -1.
          2    1    1    2    0  502 -0.18107898524E+02  0.11405743896E+02  0.61266495123E+02  0.64896613270E+02  0.25500000000E-02 0.  1.
         -2    1    1    2  502    0  0.18107898524E+02 -0.11405743896E+02  0.51387595311E+02  0.55665716030E+02  0.25500000000E-02 0.  1.
<mgrwt>
<rscale>  0 0.42945677E+02</rscale>
<asrwt>0</asrwt>
<pdfrwt beam="2">  1        2 0.60832599E-03 0.42945677E+02</pdfrwt>
<pdfrwt beam="1">  1       -2 0.17939727E-01 0.42945677E+02</pdfrwt>
<totfact> 0.49038137E+05</totfact>
</mgrwt>
</event>
<event>
 4    1  0.4604841E-002  0.4246773E+02  0.7818608E-02  0.1490799E+00
         -2   -1    0    0  501    0 -0.00000000000E+00  0.00000000000E+00  0.11642527236E+02  0.11642527515E+02  0.25500000000E-02 0. -1.
          2   -1    0    0    0  501  0.00000000000E+00 -0.00000000000E+00 -0.38726735842E+02  0.38726735926E+02  0.25500000000E-02 0. -1.
          2    1    1    2    0  502 -0.14243834674E+02  0.15625314406E+02 -0.15866237375E+02  0.26434348326E+02  0.25500000000E-02 0.  1.
         -2    1    1    2  502    0  0.14243834674E+02 -0.15625314406E+02 -0.11217971231E+02  0.23934915115E+02  0.25500000000E-02 0.  1.
<mgrwt>
<rscale>  0 0.42467733E+02</rscale>
<asrwt>0</asrwt>
<pdfrwt beam="2">  1        2 0.59579593E-02 0.42467733E+02</pdfrwt>
<pdfrwt beam="1">  1       -2 0.17911581E-02 0.42467733E+02</pdfrwt>
<totfact> 0.74402965E+05</totfact>
</mgrwt>
</event>
<event>
 4    1  0.4604841E-002  0.7951209E+02  0.7818608E-02  0.1330442E+00
         -2   -1    0    0  501    0 -0.00000000000E+00  0.00000000000E+00  0.33420953194E+01  0.33420962923E+01  0.25500000000E-02 0.  1.
          2   -1    0    0    0  501  0.00000000000E+00 -0.00000000000E+00 -0.47291978989E+03  0.47291978990E+03  0.25500000000E-02 0.  1.
          2    1    1    2    0  502 -0.75857095467E+00  0.39170701923E+02 -0.27524727093E+03  0.27802154500E+03  0.25500000000E-02 0.  1.
         -2    1    1    2  502    0  0.75857095467E+00 -0.39170701923E+02 -0.19433042364E+03  0.19824034119E+03  0.25500000000E-02 0.  1.
<mgrwt>
<rscale>  0 0.79512093E+02</rscale>
<asrwt>0</asrwt>
<pdfrwt beam="2">  1        2 0.72756838E-01 0.79512093E+02</pdfrwt>
<pdfrwt beam="1">  1       -2 0.51416896E-03 0.79512093E+02</pdfrwt>
<totfact> 0.30322210E+05</totfact>
</mgrwt>
</event>
<event>
 4    1  0.4604841E-002  0.4972702E+02  0.7818608E-02  0.1446820E+00
          2   -1    0    0    0  501  0.00000000000E+00  0.00000000000E+00  0.50876634551E+01  0.50876640941E+01  0.25500000000E-02 0. -1.
         -2   -1    0    0  501    0 -0.00000000000E+00 -0.00000000000E+00 -0.12150842974E+03  0.12150842977E+03  0.25500000000E-02 0. -1.
          2    1    1    2    0  502 -0.22820899112E+02 -0.54038843783E+01 -0.37186364642E+02  0.43963861573E+02  0.25500000000E-02 0. -1.
         -2    1    1    2  502    0  0.22820899112E+02  0.54038843783E+01 -0.79234401644E+02  0.82632232289E+02  0.25500000000E-02 0. -1.
<mgrwt>
<rscale>  0 0.49727016E+02</rscale>
<asrwt>0</asrwt>
<pdfrwt beam="1">  1        2 0.78271760E-03 0.49727016E+02</pdfrwt>
<pdfrwt beam="2">  1       -2 0.18693602E-01 0.49727016E+02</pdfrwt>
<totfact> 0.33944137E+05</totfact>
</mgrwt>
</event>
<event>
 4    1  0.4604841E-002  0.8498591E+02  0.7818608E-02  0.1315469E+00
          2   -1    0    0    0  501  0.00000000000E+00  0.00000000000E+00  0.28639585210E+04  0.28639585210E+04  0.25500000000E-02 0.  1.
         -2   -1    0    0  501    0 -0.00000000000E+00 -0.00000000000E+00 -0.63047129237E+00  0.63047644920E+00  0.25500000000E-02 0.  1.
          2    1    1    2    0  502 -0.33891112786E+02  0.24830925311E+02  0.16460886627E+04  0.16466247502E+04  0.25500000000E-02 0. -1.
         -2    1    1    2  502    0  0.33891112786E+02 -0.24830925311E+02  0.12172393869E+04  0.12179642472E+04  0.25500000000E-02 0. -1.
<mgrwt>
<rscale>  0 0.84985905E+02</rscale>
<asrwt>0</asrwt>
<pdfrwt beam="1">  1        2 0.44060909E+00 0.84985905E+02</pdfrwt>
<pdfrwt beam="2">  1       -2 0.96995962E-04 0.84985905E+02</pdfrwt>
<totfact> 0.13746574E+05</totfact>
</mgrwt>
</event>
<event>
 4    1  0.4604841E-002  0.7052992E+02  0.7818608E-02  0.1358300E+00
          2   -1    0    0    0  501  0.00000000000E+00  0.00000000000E+00  0.16524355033E+04  0.16524355033E+04  0.25500000000E-02 0.  1.
         -2   -1    0    0  501    0 -0.00000000000E+00 -0.00000000000E+00 -0.75259442380E+00  0.75259874384E+00  0.25500000000E-02 0.  1.
          2    1    1    2    0  502 -0.21152484289E+02 -0.11162049208E+02  0.14332819118E+04  0.14334814465E+04  0.25500000000E-02 0.  1.
         -2    1    1    2  502    0  0.21152484289E+02  0.11162049208E+02  0.21840099709E+03  0.21970665550E+03  0.25500000000E-02 0.  1.
<mgrwt>
<rscale>  0 0.70529918E+02</rscale>
<asrwt>0</asrwt>
<pdfrwt beam="1">  1        2 0.25422038E+00 0.70529918E+02</pdfrwt>
<pdfrwt beam="2">  1       -2 0.11578430E-03 0.70529918E+02</pdfrwt>
<totfact> 0.44074010E+05</totfact>
</mgrwt>
</event>
<event>
 4    1  0.4604841E-002  0.4457644E+02  0.7818608E-02  0.1477003E+00
          2   -1    0    0    0  501  0.00000000000E+00  0.00000000000E+00  0.43277635712E+02  0.43277635787E+02  0.25500000000E-02 0. -1.
         -2   -1    0    0  501    0 -0.00000000000E+00 -0.00000000000E+00 -0.11478557018E+02  0.11478557301E+02  0.25500000000E-02 0. -1.
          2    1    1    2    0  502 -0.72031859084E+01 -0.20928031543E+02  0.19125356263E+02  0.29251455522E+02  0.25500000000E-02 0. -1.
         -2    1    1    2  502    0  0.72031859084E+01  0.20928031543E+02  0.12673722432E+02  0.25504737565E+02  0.25500000000E-02 0. -1.
<mgrwt>
<rscale>  0 0.44576443E+02</rscale>
<asrwt>0</asrwt>
<pdfrwt beam="1">  1        2 0.66580979E-02 0.44576443E+02</pdfrwt>
<pdfrwt beam="2">  1       -2 0.17659319E-02 0.44576443E+02</pdfrwt>
<totfact> 0.67026808E+05</totfact>
</mgrwt>
</event>
<event>
 4    1  0.4604841E-002  0.4132676E+02  0.7818608E-02  0.1498669E+00
         -2   -1    0    0  501    0 -0.00000000000E+00  0.00000000000E+00  0.18929208048E+00  0.18930925554E+00  0.25500000000E-02 0. -1.
          2   -1    0    0    0  501  0.00000000000E+00 -0.00000000000E+00 -0.22555398811E+04  0.22555398811E+04  0.25500000000E-02 0. -1.
          2    1    1    2    0  502  0.10897782250E+02 -0.17214356179E+02 -0.13158037392E+04  0.13159614644E+04  0.25500000000E-02 0. -1.
         -2    1    1    2  502    0 -0.10897782250E+02  0.17214356179E+02 -0.93954684984E+03  0.93976772596E+03  0.25500000000E-02 0. -1.
<mgrwt>
<rscale>  0 0.41326757E+02</rscale>
<asrwt>0</asrwt>
<pdfrwt beam="2">  1        2 0.34698461E+00 0.41326757E+02</pdfrwt>
<pdfrwt beam="1">  1       -2 0.29124986E-04 0.41326757E+02</pdfrwt>
<totfact> 0.13008574E+06</totfact>
</mgrwt>
</event>
<event>
 4    1  0.4604841E-002  0.9939356E+02  0.7818608E-02  0.1281576E+00
         -2   -1    0    0  501    0 -0.00000000000E+00  0.00000000000E+00  0.19733358440E+01  0.19733374916E+01  0.25500000000E-02 0. -1.
          2   -1    0    0    0  501  0.00000000000E+00 -0.00000000000E+00 -0.12515703769E+04  0.12515703769E+04  0.25500000000E-02 0. -1.
          2    1    1    2    0  502 -0.22379054169E+02 -0.73778908840E+01 -0.72961829720E+02  0.76672576205E+02  0.25500000000E-02 0. -1.
         -2    1    1    2  502    0  0.22379054169E+02  0.73778908840E+01 -0.11766352114E+04  0.11768711382E+04  0.25500000000E-02 0. -1.
<mgrwt>
<rscale>  0 0.99393556E+02</rscale>
<asrwt>0</asrwt>
<pdfrwt beam="2">  1        2 0.19254865E+00 0.99393556E+02</pdfrwt>
<pdfrwt beam="1">  1       -2 0.30359126E-03 0.99393556E+02</pdfrwt>
<totfact> 0.19686814E+05</totfact>
</mgrwt>
</event>
<event>
 4    1  0.4604841E-002  0.6090750E+03  0.7818608E-02  0.9886755E-01
         -2   -1    0    0  501    0 -0.00000000000E+00  0.00000000000E+00  0.83193141691E+02  0.83193141730E+02  0.25500000000E-02 0. -1.
          2   -1    0    0    0  501  0.00000000000E+00 -0.00000000000E+00 -0.11147925905E+04  0.11147925905E+04  0.25500000000E-02 0. -1.
          2    1    1    2    0  502  0.22853090992E+03  0.14913179873E+03 -0.24989472186E+03  0.37001897546E+03  0.25500000000E-02 0.  1.
         -2    1    1    2  502    0 -0.22853090992E+03 -0.14913179873E+03 -0.78170472694E+03  0.82796675677E+03  0.25500000000E-02 0.  1.
<mgrwt>
<rscale>  0 0.60907503E+03</rscale>
<asrwt>0</asrwt>
<pdfrwt beam="2">  1        2 0.17150654E+00 0.60907503E+03</pdfrwt>
<pdfrwt beam="1">  1       -2 0.12798946E-01 0.60907503E+03</pdfrwt>
<totfact> 0.98533665E+02</totfact>
</mgrwt>
</event>
<event>
 4    1  0.4604841E-002  0.4275877E+02  0.7818608E-02  0.1488839E+00
         -2   -1    0    0  501    0 -0.00000000000E+00  0.00000000000E+00  0.11032290646E+01  0.11032320116E+01  0.25500000000E-02 0. -1.
          2   -1    0    0    0  501  0.00000000000E+00 -0.00000000000E+00 -0.41430878546E+03  0.41430878547E+03  0.25500000000E-02 0. -1.
          2    1    1    2    0  502  0.11092103305E+02  0.17658317123E+02 -0.25240600242E+03  0.25326594912E+03  0.25500000000E-02 0. -1.
         -2    1    1    2  502    0 -0.11092103305E+02 -0.17658317123E+02 -0.16079955398E+03  0.16214606836E+03  0.25500000000E-02 0. -1.
<mgrwt>
<rscale>  0 0.42758770E+02</rscale>
<asrwt>0</asrwt>
<pdfrwt beam="2">  1        2 0.63739689E-01 0.42758770E+02</pdfrwt>
<pdfrwt beam="1">  1       -2 0.16972811E-03 0.42758770E+02</pdfrwt>
<totfact> 0.13879941E+06</totfact>
</mgrwt>
</event>
<event>
 4    1  0.4604841E-002  0.6116674E+02  0.7818608E-02  0.1393000E+00
          2   -1    0    0    0  501  0.00000000000E+00  0.00000000000E+00  0.85593814648E+02  0.85593814686E+02  0.25500000000E-02 0.  1.
         -2   -1    0    0  501    0 -0.00000000000E+00 -0.00000000000E+00 -0.10927688545E+02  0.10927688842E+02  0.25500000000E-02 0.  1.
          2    1    1    2    0  502 -0.21734534396E+02  0.20220218516E+02  0.48939225424E+02  0.57238929182E+02  0.25500000000E-02 0.  1.
         -2    1    1    2  502    0  0.21734534396E+02 -0.20220218516E+02  0.25726900679E+02  0.39282574346E+02  0.25500000000E-02 0.  1.
<mgrwt>
<rscale>  0 0.61166741E+02</rscale>
<asrwt>0</asrwt>
<pdfrwt beam="1">  1        2 0.13168279E-01 0.61166741E+02</pdfrwt>
<pdfrwt beam="2">  1       -2 0.16811829E-02 0.61166741E+02</pdfrwt>
<totfact> 0.34257210E+05</totfact>
</mgrwt>
</event>
<event>
 4    1  0.4604841E-002  0.4048103E+02  0.7818608E-02  0.1504701E+00
         -2   -1    0    0  501    0 -0.00000000000E+00  0.00000000000E+00  0.47990544548E+02  0.47990544616E+02  0.25500000000E-02 0.  1.
          2   -1    0    0    0  501  0.00000000000E+00 -0.00000000000E+00 -0.85366501257E+01  0.85366505065E+01  0.25500000000E-02 0.  1.
          2    1    1    2    0  502 -0.98606898458E+01 -0.17674720329E+02  0.19416109455E+02  0.28046644288E+02  0.25500000000E-02 0. -1.
         -2    1    1    2  502    0  0.98606898458E+01  0.17674720329E+02  0.20037784967E+02  0.28480550835E+02  0.25500000000E-02 0. -1.
<mgrwt>
<rscale>  0 0.40481033E+02</rscale>
<asrwt>0</asrwt>
<pdfrwt beam="2">  1        2 0.13133308E-02 0.40481033E+02</pdfrwt>
<pdfrwt beam="1">  1       -2 0.73831607E-02 0.40481033E+02</pdfrwt>
<totfact> 0.67931201E+05</totfact>
</mgrwt>
</event>
<event>
 4    1  0.4604841E-002  0.7844160E+02  0.7818608E-02  0.1333533E+00
          2   -1    0    0    0  501  0.00000000000E+00  0.00000000000E+00  0.18460143661E+03  0.18460143663E+03  0.25500000000E-02 0.  1.
         -2   -1    0    0  501    0 -0.00000000000E+00 -0.00000000000E+00 -0.83329316370E+01  0.83329320272E+01  0.25500000000E-02 0.  1.
          2    1    1    2    0  502 -0.10037890476E+02  0.36848655348E+02  0.66177855275E+02  0.76407402662E+02  0.25500000000E-02 0.  1.
         -2    1    1    2  502    0  0.10037890476E+02 -0.36848655348E+02  0.11009064970E+03  0.11652696600E+03  0.25500000000E-02 0.  1.
<mgrwt>
<rscale>  0 0.78441601E+02</rscale>
<asrwt>0</asrwt>
<pdfrwt beam="1">  1        2 0.28400220E-01 0.78441601E+02</pdfrwt>
<pdfrwt beam="2">  1       -2 0.12819896E-02 0.78441601E+02</pdfrwt>
<totfact> 0.22466794E+05</totfact>
</mgrwt>
</event>
<event>
 4    1  0.4604841E-002  0.8172539E+02  0.7818608E-02  0.1324225E+00
          2   -1    0    0    0  501  0.00000000000E+00  0.00000000000E+00  0.63262874467E+03  0.63262874468E+03  0.25500000000E-02 0.  1.
         -2   -1    0    0  501    0 -0.00000000000E+00 -0.00000000000E+00 -0.26393984145E+01  0.26393996463E+01  0.25500000000E-02 0.  1.
          2    1    1    2    0  502 -0.69555858979E+01 -0.20497312350E+02  0.58440543131E+03  0.58480614578E+03  0.25500000000E-02 0. -1.
         -2    1    1    2  502    0  0.69555858979E+01  0.20497312350E+02  0.45583914948E+02  0.50461998546E+02  0.25500000000E-02 0. -1.
<mgrwt>
<rscale>  0 0.81725386E+02</rscale>
<asrwt>0</asrwt>
<pdfrwt beam="1">  1        2 0.97327646E-01 0.81725386E+02</pdfrwt>
<pdfrwt beam="2">  1       -2 0.40606078E-03 0.81725386E+02</pdfrwt>
<totfact> 0.30813258E+05</totfact>
</mgrwt>
</event>
<event>
 4    1  0.4604841E-002  0.4565839E+02  0.7818608E-02  0.1470273E+00
         -2   -1    0    0  501    0 -0.00000000000E+00  0.00000000000E+00  0.28717953875E+00  0.28719085984E+00  0.25500000000E-02 0.  1.
          2   -1    0    0    0  501  0.00000000000E+00 -0.00000000000E+00 -0.18147593762E+04  0.18147593762E+04  0.25500000000E-02 0.  1.
          2    1    1    2    0  502 -0.21751657995E+01 -0.20873248137E+02 -0.12644543472E+04  0.12646284909E+04  0.25500000000E-02 0.  1.
         -2    1    1    2  502    0  0.21751657995E+01  0.20873248137E+02 -0.55001784943E+03  0.55041807613E+03  0.25500000000E-02 0.  1.
<mgrwt>
<rscale>  0 0.45658385E+02</rscale>
<asrwt>0</asrwt>
<pdfrwt beam="2">  1        2 0.27918457E+00 0.45658385E+02</pdfrwt>
<pdfrwt beam="1">  1       -2 0.44183792E-04 0.45658385E+02</pdfrwt>
<totfact> 0.12446512E+06</totfact>
</mgrwt>
</event>
<event>
 4    1  0.4604841E-002  0.9797617E+02  0.7818608E-02  0.1284610E+00
          2   -1    0    0    0  501  0.00000000000E+00  0.00000000000E+00  0.80694514108E+02  0.80694514148E+02  0.25500000000E-02 0.  1.
         -2   -1    0    0  501    0 -0.00000000000E+00 -0.00000000000E+00 -0.29739719743E+02  0.29739719852E+02  0.25500000000E-02 0.  1.
          2    1    1    2    0  502  0.25883807918E+02  0.10457761053E+02 -0.19896623169E+02  0.34281363722E+02  0.25500000000E-02 0. -1.
         -2    1    1    2  502    0 -0.25883807918E+02 -0.10457761053E+02  0.70851417534E+02  0.76152870278E+02  0.25500000000E-02 0. -1.
<mgrwt>
<rscale>  0 0.97976165E+02</rscale>
<asrwt>0</asrwt>
<pdfrwt beam="1">  1        2 0.12414540E-01 0.97976165E+02</pdfrwt>
<pdfrwt beam="2">  1       -2 0.45753416E-02 0.97976165E+02</pdfrwt>
<totfact> 0.94160749E+04</totfact>
</mgrwt>
</event>
<event>
 4    1  0.4604841E-002  0.4275111E+02  0.7818608E-02  0.1488890E+00
         -2   -1    0    0  501    0 -0.00000000000E+00  0.00000000000E+00  0.43396362157E+00  0.43397111349E+00  0.25500000000E-02 0. -1.
          2   -1    0    0    0  501  0.00000000000E+00 -0.00000000000E+00 -0.10528774101E+04  0.10528774101E+04  0.25500000000E-02 0. -1.
          2    1    1    2    0  502  0.18709540153E+02 -0.10337138189E+02 -0.52362404967E+03  0.52406015753E+03  0.25500000000E-02 0. -1.
         -2    1    1    2  502    0 -0.18709540153E+02  0.10337138189E+02 -0.52881939678E+03  0.52925122365E+03  0.25500000000E-02 0. -1.
<mgrwt>
<rscale>  0 0.42751114E+02</rscale>
<asrwt>0</asrwt>
<pdfrwt beam="2">  1        2 0.16197910E+00 0.42751114E+02</pdfrwt>
<pdfrwt beam="1">  1       -2 0.66765053E-04 0.42751114E+02</pdfrwt>
<totfact> 0.17004042E+06</totfact>
</mgrwt>
</event>
<event>
 4    1  0.4604841E-002  0.4084804E+02  0.7818608E-02  0.1502062E+00
          2   -1    0    0    0  501  0.00000000000E+00  0.00000000000E+00  0.85809081424E+02  0.85809081462E+02  0.25500000000E-02 0. -1.
         -2   -1    0    0  501    0 -0.00000000000E+00 -0.00000000000E+00 -0.48612645730E+01  0.48612652418E+01  0.25500000000E-02 0. -1.
          2    1    1    2    0  502  0.14443986015E+02 -0.14151889115E+02  0.46844085926E+02  0.51022280332E+02  0.25500000000E-02 0.  1.
         -2    1    1    2  502    0 -0.14443986015E+02  0.14151889115E+02  0.34103730925E+02  0.39648066372E+02  0.25500000000E-02 0.  1.
<mgrwt>
<rscale>  0 0.40848044E+02</rscale>
<asrwt>0</asrwt>
<pdfrwt beam="1">  1        2 0.13201397E-01 0.40848044E+02</pdfrwt>
<pdfrwt beam="2">  1       -2 0.74788691E-03 0.40848044E+02</pdfrwt>
<totfact> 0.95610790E+05</totfact>
</mgrwt>
</event>
<event>
 4    1  0.4604841E-002  0.5251436E+02  0.7818608E-02  0.1432233E+00
          2   -1    0    0    0  501  0.00000000000E+00  0.00000000000E+00  0.12691890657E+03  0.12691890660E+03  0.25500000000E-02 0. -1.
         -2   -1    0    0  501    0 -0.00000000000E+00 -0.00000000000E+00 -0.54321255849E+01  0.54321261834E+01  0.25500000000E-02 0. -1.
          2    1    1    2    0  502 -0.19251324212E+02 -0.17223800161E+02  0.48877515442E+02  0.55283671171E+02  0.25500000000E-02 0. -1.
         -2    1    1    2  502    0  0.19251324212E+02  0.17223800161E+02  0.72609265548E+02  0.77067361612E+02  0.25500000000E-02 0. -1.
<mgrwt>
<rscale>  0 0.52514359E+02</rscale>
<asrwt>0</asrwt>
<pdfrwt beam="1">  1        2 0.19525983E-01 0.52514359E+02</pdfrwt>
<pdfrwt beam="2">  1       -2 0.83571178E-03 0.52514359E+02</pdfrwt>
<totfact> 0.56452257E+05</totfact>
</mgrwt>
</event>
<event>
 4    1  0.4604841E-002  0.2735761E+03  0.7818608E-02  0.1099250E+00
          2   -1    0    0    0  501  0.00000000000E+00  0.00000000000E+00  0.12239220222E+03  0.12239220225E+03  0.25500000000E-02 0. -1.
         -2   -1    0    0  501    0 -0.00000000000E+00 -0.00000000000E+00 -0.15287714468E+03  0.15287714470E+03  0.25500000000E-02 0. -1.
          2    1    1    2    0  502 -0.10471782817E+03 -0.87859114043E+02 -0.10119499959E+02  0.13706732558E+03  0.25500000000E-02 0. -1.
         -2    1    1    2  502    0  0.10471782817E+03  0.87859114043E+02 -0.20365442498E+02  0.13820202137E+03  0.25500000000E-02 0. -1.
<mgrwt>
<rscale>  0 0.27357610E+03</rscale>
<asrwt>0</asrwt>
<pdfrwt beam="1">  1        2 0.18829570E-01 0.27357610E+03</pdfrwt>
<pdfrwt beam="2">  1       -2 0.23519561E-01 0.27357610E+03</pdfrwt>
<totfact> 0.46858799E+03</totfact>
</mgrwt>
</event>
<event>
 4    1  0.4604841E-002  0.4301393E+02  0.7818608E-02  0.1487135E+00
          2   -1    0    0    0  501  0.00000000000E+00  0.00000000000E+00  0.11053658074E+03  0.11053658077E+03  0.25500000000E-02 0.  1.
         -2   -1    0    0  501    0 -0.00000000000E+00 -0.00000000000E+00 -0.41845828529E+01  0.41845836298E+01  0.25500000000E-02 0.  1.
          2    1    1    2    0  502 -0.67144028764E+01 -0.19941118415E+02  0.41302859911E+02  0.46353615317E+02  0.25500000000E-02 0.  1.
         -2    1    1    2  502    0  0.67144028764E+01  0.19941118415E+02  0.65049137978E+02  0.68367549085E+02  0.25500000000E-02 0.  1.
<mgrwt>
<rscale>  0 0.43013929E+02</rscale>
<asrwt>0</asrwt>
<pdfrwt beam="1">  1        2 0.17005627E-01 0.43013929E+02</pdfrwt>
<pdfrwt beam="2">  1       -2 0.64378207E-03 0.43013929E+02</pdfrwt>
<totfact> 0.89626105E+05</totfact>
</mgrwt>
</event>
<event>
 4    1  0.4604841E-002  0.7144158E+02  0.7818608E-02  0.1355258E+00
          2   -1    0    0    0  501  0.00000000000E+00  0.00000000000E+00  0.26153179842E+04  0.26153179842E+04  0.25500000000E-02 0.  1.
         -2   -1    0    0  501    0 -0.00000000000E+00 -0.00000000000E+00 -0.48788177770E+00  0.48788844167E+00  0.25500000000E-02 0.  1.
          2    1    1    2    0  502 -0.29114371337E+02  0.13678782042E+02  0.18760849498E+04  0.18763607048E+04  0.25500000000E-02 0.  1.
         -2    1    1    2  502    0  0.29114371337E+02 -0.13678782042E+02  0.73874515263E+03  0.73944516784E+03  0.25500000000E-02 0.  1.
<mgrwt>
<rscale>  0 0.71441576E+02</rscale>
<asrwt>0</asrwt>
<pdfrwt beam="1">  1        2 0.40235929E+00 0.71441576E+02</pdfrwt>
<pdfrwt beam="2">  1       -2 0.75058749E-04 0.71441576E+02</pdfrwt>
<totfact> 0.26086257E+05</totfact>
</mgrwt>
</event>
<event>
 4    1  0.4604841E-002  0.5445040E+02  0.7818608E-02  0.1422716E+00
          2   -1    0    0    0  501  0.00000000000E+00  0.00000000000E+00  0.15311708657E+03  0.15311708659E+03  0.25500000000E-02 0.  1.
         -2   -1    0    0  501    0 -0.00000000000E+00 -0.00000000000E+00 -0.48408144601E+01  0.48408151317E+01  0.25500000000E-02 0.  1.
          2    1    1    2    0  502 -0.20100265489E+02  0.42649109977E+01  0.22325399002E+02  0.30341944329E+02  0.25500000000E-02 0.  1.
         -2    1    1    2  502    0  0.20100265489E+02 -0.42649109977E+01  0.12595087311E+03  0.12761595739E+03  0.25500000000E-02 0.  1.
<mgrwt>
<rscale>  0 0.54450398E+02</rscale>
<asrwt>0</asrwt>
<pdfrwt beam="1">  1        2 0.23556474E-01 0.54450398E+02</pdfrwt>
<pdfrwt beam="2">  1       -2 0.74474076E-03 0.54450398E+02</pdfrwt>
<totfact> 0.54478678E+05</totfact>
</mgrwt>
</event>
<event>
 4    1  0.4604841E-002  0.5079159E+02  0.7818608E-02  0.1441118E+00
          2   -1    0    0    0  501  0.00000000000E+00  0.00000000000E+00  0.21160933599E+04  0.21160933599E+04  0.25500000000E-02 0. -1.
         -2   -1    0    0  501    0 -0.00000000000E+00 -0.00000000000E+00 -0.30477626970E+00  0.30478693717E+00  0.25500000000E-02 0. -1.
          2    1    1    2    0  502 -0.23802200234E+02  0.69506314497E+01  0.82932445239E+03  0.82969506648E+03  0.25500000000E-02 0.  1.
         -2    1    1    2  502    0  0.23802200234E+02 -0.69506314497E+01  0.12864641312E+04  0.12867030804E+04  0.25500000000E-02 0.  1.
<mgrwt>
<rscale>  0 0.50791587E+02</rscale>
<asrwt>0</asrwt>
<pdfrwt beam="1">  1        2 0.32554797E+00 0.50791587E+02</pdfrwt>
<pdfrwt beam="2">  1       -2 0.46890177E-04 0.50791587E+02</pdfrwt>
<totfact> 0.83787522E+05</totfact>
</mgrwt>
</event>
<event>
 4    1  0.4604841E-002  0.7011771E+02  0.7818608E-02  0.1359693E+00
          2   -1    0    0    0  501  0.00000000000E+00  0.00000000000E+00  0.14622173899E+03  0.14622173901E+03  0.25500000000E-02 0.  1.
         -2   -1    0    0  501    0 -0.00000000000E+00 -0.00000000000E+00 -0.84058856989E+01  0.84058860857E+01  0.25500000000E-02 0.  1.
          2    1    1    2    0  502  0.23416161861E+02 -0.22116259475E+02  0.38376637346E+02  0.50102014630E+02  0.25500000000E-02 0. -1.
         -2    1    1    2  502    0 -0.23416161861E+02  0.22116259475E+02  0.99439215942E+02  0.10452561047E+03  0.25500000000E-02 0. -1.
<mgrwt>
<rscale>  0 0.70117708E+02</rscale>
<asrwt>0</asrwt>
<pdfrwt beam="1">  1        2 0.22495650E-01 0.70117708E+02</pdfrwt>
<pdfrwt beam="2">  1       -2 0.12932134E-02 0.70117708E+02</pdfrwt>
<totfact> 0.27942239E+05</totfact>
</mgrwt>
</event>
<event>
 4    1  0.4604841E-002  0.9514993E+02  0.7818608E-02  0.1290839E+00
         -2   -1    0    0  501    0 -0.00000000000E+00  0.00000000000E+00  0.14569667646E+01  0.14569689961E+01  0.25500000000E-02 0.  1.
          2   -1    0    0    0  501  0.00000000000E+00 -0.00000000000E+00 -0.15534848318E+04  0.15534848318E+04  0.25500000000E-02 0.  1.
          2    1    1    2    0  502  0.11716625662E+02  0.45798278071E+02 -0.86343365263E+03  0.86472679737E+03  0.25500000000E-02 0.  1.
         -2    1    1    2  502    0 -0.11716625662E+02 -0.45798278071E+02 -0.68859421239E+03  0.69021500342E+03  0.25500000000E-02 0.  1.
<mgrwt>
<rscale>  0 0.95149934E+02</rscale>
<asrwt>0</asrwt>
<pdfrwt beam="2">  1        2 0.23899634E+00 0.95149934E+02</pdfrwt>
<pdfrwt beam="1">  1       -2 0.22415015E-03 0.95149934E+02</pdfrwt>
<totfact> 0.20786709E+05</totfact>
</mgrwt>
</event>
<event>
 4    1  0.4604841E-002  0.5341334E+02  0.7818608E-02  0.1427755E+00
          2   -1    0    0    0  501  0.00000000000E+00  0.00000000000E+00  0.12086700592E+02  0.12086700861E+02  0.25500000000E-02 0.  1.
         -2   -1    0    0  501    0 -0.00000000000E+00 -0.00000000000E+00 -0.59010835500E+02  0.59010835555E+02  0.25500000000E-02 0.  1.
          2    1    1    2    0  502 -0.21228035691E+02 -0.13147963062E+02 -0.36072119314E+02  0.43871360024E+02  0.25500000000E-02 0. -1.
         -2    1    1    2  502    0  0.21228035691E+02  0.13147963062E+02 -0.10852015594E+02  0.27226176392E+02  0.25500000000E-02 0. -1.
<mgrwt>
<rscale>  0 0.53413343E+02</rscale>
<asrwt>0</asrwt>
<pdfrwt beam="1">  1        2 0.18594925E-02 0.53413343E+02</pdfrwt>
<pdfrwt beam="2">  1       -2 0.90785899E-02 0.53413343E+02</pdfrwt>
<totfact> 0.33733652E+05</totfact>
</mgrwt>
</event>
<event>
 4    1  0.4604841E-002  0.4131597E+02  0.7818608E-02  0.1498745E+00
          2   -1    0    0    0  501  0.00000000000E+00  0.00000000000E+00  0.24020139156E+03  0.24020139157E+03  0.25500000000E-02 0. -1.
         -2   -1    0    0  501    0 -0.00000000000E+00 -0.00000000000E+00 -0.17766428197E+01  0.17766446497E+01  0.25500000000E-02 0. -1.
          2    1    1    2    0  502  0.17380657014E+01  0.20155038617E+02  0.94707668439E+02  0.96844147586E+02  0.25500000000E-02 0. -1.
         -2    1    1    2  502    0 -0.17380657014E+01 -0.20155038617E+02  0.14371708030E+03  0.14513388864E+03  0.25500000000E-02 0. -1.
<mgrwt>
<rscale>  0 0.41315968E+02</rscale>
<asrwt>0</asrwt>
<pdfrwt beam="1">  1        2 0.36954076E-01 0.41315968E+02</pdfrwt>
<pdfrwt beam="2">  1       -2 0.27332969E-03 0.41315968E+02</pdfrwt>
<totfact> 0.12538944E+06</totfact>
</mgrwt>
</event>
<event>
 4    1  0.4604841E-002  0.6886554E+02  0.7818608E-02  0.1363994E+00
          2   -1    0    0    0  501  0.00000000000E+00  0.00000000000E+00  0.13717781281E+03  0.13717781284E+03  0.25500000000E-02 0.  1.
         -2   -1    0    0  501    0 -0.00000000000E+00 -0.00000000000E+00 -0.86429097967E+01  0.86429101729E+01  0.25500000000E-02 0.  1.
          2    1    1    2    0  502 -0.28787390403E+02  0.18841410478E+02  0.61346501332E+02  0.70335665399E+02  0.25500000000E-02 0. -1.
         -2    1    1    2  502    0  0.28787390403E+02 -0.18841410478E+02  0.67188401686E+02  0.75485057612E+02  0.25500000000E-02 0. -1.
<mgrwt>
<rscale>  0 0.68865535E+02</rscale>
<asrwt>0</asrwt>
<pdfrwt beam="1">  1        2 0.21104280E-01 0.68865535E+02</pdfrwt>
<pdfrwt beam="2">  1       -2 0.13296784E-02 0.68865535E+02</pdfrwt>
<totfact> 0.28710327E+05</totfact>
</mgrwt>
</event>
<event>
 4    1  0.4604841E-002  0.6155303E+02  0.7818608E-02  0.1391428E+00
          2   -1    0    0    0  501  0.00000000000E+00  0.00000000000E+00  0.42194850591E+02  0.42194850668E+02  0.25500000000E-02 0. -1.
         -2   -1    0    0  501    0 -0.00000000000E+00 -0.00000000000E+00 -0.22448095134E+02  0.22448095279E+02  0.25500000000E-02 0. -1.
          2    1    1    2    0  502  0.24201934281E+02  0.18503576255E+01  0.29745093455E+02  0.38391770439E+02  0.25500000000E-02 0. -1.
         -2    1    1    2  502    0 -0.24201934281E+02 -0.18503576255E+01 -0.99983379984E+01  0.26251175508E+02  0.25500000000E-02 0. -1.
<mgrwt>
<rscale>  0 0.61553035E+02</rscale>
<asrwt>0</asrwt>
<pdfrwt beam="1">  1        2 0.64915154E-02 0.61553035E+02</pdfrwt>
<pdfrwt beam="2">  1       -2 0.34535532E-02 0.61553035E+02</pdfrwt>
<totfact> 0.28779355E+05</totfact>
</mgrwt>
</event>
<event>
 4    1  0.4604841E-002  0.6586436E+02  0.7818608E-02  0.1374749E+00
          2   -1    0    0    0  501  0.00000000000E+00  0.00000000000E+00  0.14215000558E+04  0.14215000558E+04  0.25500000000E-02 0.  1.
         -2   -1    0    0  501    0 -0.00000000000E+00 -0.00000000000E+00 -0.76294434475E+00  0.76294860619E+00  0.25500000000E-02 0.  1.
          2    1    1    2    0  502  0.17610791305E+02 -0.27677047563E+02  0.77283974399E+03  0.77353566746E+03  0.25500000000E-02 0.  1.
         -2    1    1    2  502    0 -0.17610791305E+02  0.27677047563E+02  0.64789736742E+03  0.64872733690E+03  0.25500000000E-02 0.  1.
<mgrwt>
<rscale>  0 0.65864359E+02</rscale>
<asrwt>0</asrwt>
<pdfrwt beam="1">  1        2 0.21869053E+00 0.65864359E+02</pdfrwt>
<pdfrwt beam="2">  1       -2 0.11737734E-03 0.65864359E+02</pdfrwt>
<totfact> 0.55823384E+05</totfact>
</mgrwt>
</event>
<event>
 4    1  0.4604841E-002  0.5953044E+02  0.7818608E-02  0.1399813E+00
         -2   -1    0    0  501    0 -0.00000000000E+00  0.00000000000E+00  0.14199905334E+02  0.14199905563E+02  0.25500000000E-02 0. -1.
          2   -1    0    0    0  501  0.00000000000E+00 -0.00000000000E+00 -0.62392550193E+02  0.62392550245E+02  0.25500000000E-02 0. -1.
          2    1    1    2    0  502  0.14476930460E+02 -0.19040086423E+02 -0.13025501160E+01  0.23954186479E+02  0.25500000000E-02 0.  1.
         -2    1    1    2  502    0 -0.14476930460E+02  0.19040086423E+02 -0.46890094742E+02  0.52638269329E+02  0.25500000000E-02 0.  1.
<mgrwt>
<rscale>  0 0.59530440E+02</rscale>
<asrwt>0</asrwt>
<pdfrwt beam="2">  1        2 0.95988537E-02 0.59530440E+02</pdfrwt>
<pdfrwt beam="1">  1       -2 0.21846009E-02 0.59530440E+02</pdfrwt>
<totfact> 0.34112655E+05</totfact>
</mgrwt>
</event>
<event>
 4    1  0.4604841E-002  0.4197484E+02  0.7818608E-02  0.1494162E+00
          2   -1    0    0    0  501  0.00000000000E+00  0.00000000000E+00  0.25949332508E+04  0.25949332508E+04  0.25500000000E-02 0.  1.
         -2   -1    0    0  501    0 -0.00000000000E+00 -0.00000000000E+00 -0.16973343134E+00  0.16975258530E+00  0.25500000000E-02 0.  1.
          2    1    1    2    0  502 -0.91218422992E+01 -0.18892907783E+02  0.12623098231E+04  0.12624841542E+04  0.25500000000E-02 0. -1.
         -2    1    1    2  502    0  0.91218422992E+01  0.18892907783E+02  0.13324536942E+04  0.13326188492E+04  0.25500000000E-02 0. -1.
<mgrwt>
<rscale>  0 0.41974839E+02</rscale>
<asrwt>0</asrwt>
<pdfrwt beam="1">  1        2 0.39923595E+00 0.41974839E+02</pdfrwt>
<pdfrwt beam="2">  1       -2 0.26113299E-04 0.41974839E+02</pdfrwt>
<totfact> 0.10206333E+06</totfact>
</mgrwt>
</event>
<event>
 4    1  0.4604841E-002  0.8241458E+02  0.7818608E-02  0.1322336E+00
          2   -1    0    0    0  501  0.00000000000E+00  0.00000000000E+00  0.11840992087E+03  0.11840992089E+03  0.25500000000E-02 0. -1.
         -2   -1    0    0  501    0 -0.00000000000E+00 -0.00000000000E+00 -0.14340358888E+02  0.14340359114E+02  0.25500000000E-02 0. -1.
          2    1    1    2    0  502  0.40832094397E+02 -0.53928848686E+01  0.49936067824E+02  0.64729854135E+02  0.25500000000E-02 0. -1.
         -2    1    1    2  502    0 -0.40832094397E+02  0.53928848686E+01  0.54133494154E+02  0.68020425873E+02  0.25500000000E-02 0. -1.
<mgrwt>
<rscale>  0 0.82414581E+02</rscale>
<asrwt>0</asrwt>
<pdfrwt beam="1">  1        2 0.18216910E-01 0.82414581E+02</pdfrwt>
<pdfrwt beam="2">  1       -2 0.22062091E-02 0.82414581E+02</pdfrwt>
<totfact> 0.17012223E+05</totfact>
</mgrwt>
</event>
<event>
 4    1  0.4604841E-002  0.6328017E+02  0.7818608E-02  0.1384560E+00
          2   -1    0    0    0  501  0.00000000000E+00  0.00000000000E+00  0.29712218108E+03  0.29712218109E+03  0.25500000000E-02 0. -1.
         -2   -1    0    0  501    0 -0.00000000000E+00 -0.00000000000E+00 -0.33693041017E+01  0.33693050666E+01  0.25500000000E-02 0. -1.
          2    1    1    2    0  502 -0.16590139454E+02 -0.12861918012E+02  0.25929202492E+03  0.26014037722E+03  0.25500000000E-02 0. -1.
         -2    1    1    2  502    0  0.16590139454E+02  0.12861918012E+02  0.34460852053E+02  0.40351108941E+02  0.25500000000E-02 0. -1.
<mgrwt>
<rscale>  0 0.63280175E+02</rscale>
<asrwt>0</asrwt>
<pdfrwt beam="1">  1        2 0.45711110E-01 0.63280175E+02</pdfrwt>
<pdfrwt beam="2">  1       -2 0.51835449E-03 0.63280175E+02</pdfrwt>
<totfact> 0.46510676E+05</totfact>
</mgrwt>
</event>
<event>
 4    1  0.4604841E-002  0.6411162E+02  0.7818608E-02  0.1381345E+00
          2   -1    0    0    0  501  0.00000000000E+00  0.00000000000E+00  0.71171142527E+02  0.71171142573E+02  0.25500000000E-02 0. -1.
         -2   -1    0    0  501    0 -0.00000000000E+00 -0.00000000000E+00 -0.14438083196E+02  0.14438083421E+02  0.25500000000E-02 0. -1.
          2    1    1    2    0  502  0.22186059274E+02  0.18627457830E+02  0.46693530425E+02  0.54949878994E+02  0.25500000000E-02 0.  1.
         -2    1    1    2  502    0 -0.22186059274E+02 -0.18627457830E+02  0.10039528906E+02  0.30659347001E+02  0.25500000000E-02 0.  1.
<mgrwt>
<rscale>  0 0.64111618E+02</rscale>
<asrwt>0</asrwt>
<pdfrwt beam="1">  1        2 0.10949406E-01 0.64111618E+02</pdfrwt>
<pdfrwt beam="2">  1       -2 0.22212436E-02 0.64111618E+02</pdfrwt>
<totfact> 0.28927420E+05</totfact>
</mgrwt>
</event>
<event>
 4    1  0.4604841E-002  0.9356725E+02  0.7818608E-02  0.1294436E+00
          2   -1    0    0    0  501  0.00000000000E+00  0.00000000000E+00  0.18640143101E+04  0.18640143101E+04  0.25500000000E-02 0. -1.
         -2   -1    0    0  501    0 -0.00000000000E+00 -0.00000000000E+00 -0.11741888958E+01  0.11741916647E+01  0.25500000000E-02 0. -1.
          2    1    1    2    0  502  0.43733239420E+02 -0.99907085087E+01  0.66673993803E+03  0.66824737595E+03  0.25500000000E-02 0.  1.
         -2    1    1    2  502    0 -0.43733239420E+02  0.99907085087E+01  0.11961001832E+04  0.11969411258E+04  0.25500000000E-02 0.  1.
<mgrwt>
<rscale>  0 0.93567248E+02</rscale>
<asrwt>0</asrwt>
<pdfrwt beam="1">  1        2 0.28677095E+00 0.93567248E+02</pdfrwt>
<pdfrwt beam="2">  1       -2 0.18064497E-03 0.93567248E+02</pdfrwt>
<totfact> 0.19511665E+05</totfact>
</mgrwt>
</event>
<event>
 4    1  0.4604841E-002  0.6831122E+02  0.7818608E-02  0.1365932E+00
          2   -1    0    0    0  501  0.00000000000E+00  0.00000000000E+00  0.17328602972E+03  0.17328602974E+03  0.25500000000E-02 0.  1.
         -2   -1    0    0  501    0 -0.00000000000E+00 -0.00000000000E+00 -0.67322547277E+01  0.67322552107E+01  0.25500000000E-02 0.  1.
          2    1    1    2    0  502  0.12805074212E+02 -0.26462445319E+02  0.37452426795E+02  0.47612133088E+02  0.25500000000E-02 0.  1.
         -2    1    1    2  502    0 -0.12805074212E+02  0.26462445319E+02  0.12910134819E+03  0.13240615186E+03  0.25500000000E-02 0.  1.
<mgrwt>
<rscale>  0 0.68311221E+02</rscale>
<asrwt>0</asrwt>
<pdfrwt beam="1">  1        2 0.26659391E-01 0.68311221E+02</pdfrwt>
<pdfrwt beam="2">  1       -2 0.10357315E-02 0.68311221E+02</pdfrwt>
<totfact> 0.31621257E+05</totfact>
</mgrwt>
</event>
<event>
 4    1  0.4604841E-002  0.6770889E+02  0.7818608E-02  0.1368062E+00
         -2   -1    0    0  501    0 -0.00000000000E+00  0.00000000000E+00  0.27020843992E+02  0.27020844112E+02  0.25500000000E-02 0.  1.
          2   -1    0    0    0  501  0.00000000000E+00 -0.00000000000E+00 -0.42416267813E+02  0.42416267890E+02  0.25500000000E-02 0.  1.
          2    1    1    2    0  502 -0.14785112561E+02 -0.28505733356E+02 -0.18692699196E+02  0.37156337244E+02  0.25500000000E-02 0. -1.
         -2    1    1    2  502    0  0.14785112561E+02  0.28505733356E+02  0.32972753743E+01  0.32280774759E+02  0.25500000000E-02 0. -1.
<mgrwt>
<rscale>  0 0.67708888E+02</rscale>
<asrwt>0</asrwt>
<pdfrwt beam="2">  1        2 0.65255796E-02 0.67708888E+02</pdfrwt>
<pdfrwt beam="1">  1       -2 0.41570530E-02 0.67708888E+02</pdfrwt>
<totfact> 0.22273812E+05</totfact>
</mgrwt>
</event>
<event>
 4    1  0.4604841E-002  0.1087350E+03  0.7818608E-02  0.1262931E+00
         -2   -1    0    0  501    0 -0.00000000000E+00  0.00000000000E+00  0.17492246634E+02  0.17492246820E+02  0.25500000000E-02 0.  1.
          2   -1    0    0    0  501  0.00000000000E+00 -0.00000000000E+00 -0.16897901248E+03  0.16897901250E+03  0.25500000000E-02 0.  1.
          2    1    1    2    0  502 -0.16735569060E+02 -0.47552221169E+02 -0.40827704721E+02  0.64870598033E+02  0.25500000000E-02 0.  1.
         -2    1    1    2  502    0  0.16735569060E+02  0.47552221169E+02 -0.11065906112E+03  0.12160066128E+03  0.25500000000E-02 0.  1.
<mgrwt>
<rscale>  0 0.10873495E+03</rscale>
<asrwt>0</asrwt>
<pdfrwt beam="2">  1        2 0.25996770E-01 0.10873495E+03</pdfrwt>
<pdfrwt beam="1">  1       -2 0.26911150E-02 0.10873495E+03</pdfrwt>
<totfact> 0.89968425E+04</totfact>
</mgrwt>
</event>
<event>
 4    1  0.4604841E-002  0.4723187E+02  0.7818608E-02  0.1460871E+00
          2   -1    0    0    0  501  0.00000000000E+00  0.00000000000E+00  0.16334088986E+04  0.16334088986E+04  0.25500000000E-02 0. -1.
         -2   -1    0    0  501    0 -0.00000000000E+00 -0.00000000000E+00 -0.34143601205E+00  0.34144553420E+00  0.25500000000E-02 0. -1.
          2    1    1    2    0  502 -0.22467694973E+02  0.32233112168E+01  0.59096730958E+03  0.59140303351E+03  0.25500000000E-02 0. -1.
         -2    1    1    2  502    0  0.22467694973E+02 -0.32233112168E+01  0.10421001530E+04  0.10423473107E+04  0.25500000000E-02 0. -1.
<mgrwt>
<rscale>  0 0.47231871E+02</rscale>
<asrwt>0</asrwt>
<pdfrwt beam="1">  1        2 0.25128857E+00 0.47231871E+02</pdfrwt>
<pdfrwt beam="2">  1       -2 0.52530418E-04 0.47231871E+02</pdfrwt>
<totfact> 0.12170046E+06</totfact>
</mgrwt>
</event>
<event>
 4    1  0.4604841E-002  0.8086998E+02  0.7818608E-02  0.1326601E+00
          2   -1    0    0    0  501  0.00000000000E+00  0.00000000000E+00  0.29495034758E+03  0.29495034759E+03  0.25500000000E-02 0.  1.
         -2   -1    0    0  501    0 -0.00000000000E+00 -0.00000000000E+00 -0.55432660963E+01  0.55432666828E+01  0.25500000000E-02 0.  1.
          2    1    1    2    0  502 -0.36260272581E+02  0.17028906667E+02  0.16512242870E+03  0.16991235240E+03  0.25500000000E-02 0.  1.
         -2    1    1    2  502    0  0.36260272581E+02 -0.17028906667E+02  0.12428465278E+03  0.13058126188E+03  0.25500000000E-02 0.  1.
<mgrwt>
<rscale>  0 0.80869978E+02</rscale>
<asrwt>0</asrwt>
<pdfrwt beam="1">  1        2 0.45376989E-01 0.80869978E+02</pdfrwt>
<pdfrwt beam="2">  1       -2 0.85280998E-03 0.80869978E+02</pdfrwt>
<totfact> 0.24534618E+05</totfact>
</mgrwt>
</event>
<event>
 4    1  0.4604841E-002  0.6425341E+02  0.7818608E-02  0.1380802E+00
          2   -1    0    0    0  501  0.00000000000E+00  0.00000000000E+00  0.55911372068E+03  0.55911372068E+03  0.25500000000E-02 0.  1.
         -2   -1    0    0  501    0 -0.00000000000E+00 -0.00000000000E+00 -0.18460013729E+01  0.18460031341E+01  0.25500000000E-02 0.  1.
          2    1    1    2    0  502 -0.24655961769E+02  0.59982898649E+01  0.45065412925E+03  0.45136796535E+03  0.25500000000E-02 0.  1.
         -2    1    1    2  502    0  0.24655961769E+02 -0.59982898649E+01  0.10661359006E+03  0.10959175847E+03  0.25500000000E-02 0.  1.
<mgrwt>
<rscale>  0 0.64253411E+02</rscale>
<asrwt>0</asrwt>
<pdfrwt beam="1">  1        2 0.86017596E-01 0.64253411E+02</pdfrwt>
<pdfrwt beam="2">  1       -2 0.28400002E-03 0.64253411E+02</pdfrwt>
<totfact> 0.55342384E+05</totfact>
</mgrwt>
</event>
<event>
 4    1  0.4604841E-002  0.1741160E+03  0.7818608E-02  0.1173622E+00
          2   -1    0    0    0  501  0.00000000000E+00  0.00000000000E+00  0.44110716119E+02  0.44110716193E+02  0.25500000000E-02 0.  1.
         -2   -1    0    0  501    0 -0.00000000000E+00 -0.00000000000E+00 -0.17181987450E+03  0.17181987452E+03  0.25500000000E-02 0.  1.
          2    1    1    2    0  502 -0.39222252863E+02  0.17280906625E+02  0.30119948456E+02  0.52385362029E+02  0.25500000000E-02 0.  1.
         -2    1    1    2  502    0  0.39222252863E+02 -0.17280906625E+02 -0.15782910683E+03  0.16354522868E+03  0.25500000000E-02 0.  1.
<mgrwt>
<rscale>  0 0.17411603E+03</rscale>
<asrwt>0</asrwt>
<pdfrwt beam="1">  1        2 0.67862641E-02 0.17411603E+03</pdfrwt>
<pdfrwt beam="2">  1       -2 0.26433826E-01 0.17411603E+03</pdfrwt>
<totfact> 0.12914208E+04</totfact>
</mgrwt>
</event>
<event>
 4    1  0.4604841E-002  0.6151538E+02  0.7818608E-02  0.1391580E+00
         -2   -1    0    0  501    0 -0.00000000000E+00  0.00000000000E+00  0.10553920925E+01  0.10553951731E+01  0.25500000000E-02 0. -1.
          2   -1    0    0    0  501  0.00000000000E+00 -0.00000000000E+00 -0.89638160280E+03  0.89638160280E+03  0.25500000000E-02 0. -1.
          2    1    1    2    0  502 -0.27658794183E+02  0.12689436622E+02 -0.38241217964E+03  0.38362104457E+03  0.25500000000E-02 0. -1.
         -2    1    1    2  502    0  0.27658794183E+02 -0.12689436622E+02 -0.51291403107E+03  0.51381595340E+03  0.25500000000E-02 0. -1.
<mgrwt>
<rscale>  0 0.61515378E+02</rscale>
<asrwt>0</asrwt>
<pdfrwt beam="2">  1        2 0.13790425E+00 0.61515378E+02</pdfrwt>
<pdfrwt beam="1">  1       -2 0.16236897E-03 0.61515378E+02</pdfrwt>
<totfact> 0.68421501E+05</totfact>
</mgrwt>
</event>
<event>
 4    1  0.4604841E-002  0.5900843E+02  0.7818608E-02  0.1402041E+00
          2   -1    0    0    0  501  0.00000000000E+00  0.00000000000E+00  0.79765941587E+03  0.79765941588E+03  0.25500000000E-02 0. -1.
         -2   -1    0    0  501    0 -0.00000000000E+00 -0.00000000000E+00 -0.10913148630E+01  0.10913178422E+01  0.25500000000E-02 0. -1.
          2    1    1    2    0  502  0.18427956243E+02 -0.78738196958E+01  0.69140235412E+03  0.69169270770E+03  0.25500000000E-02 0. -1.
         -2    1    1    2  502    0 -0.18427956243E+02  0.78738196958E+01  0.10516574689E+03  0.10705802601E+03  0.25500000000E-02 0. -1.
<mgrwt>
<rscale>  0 0.59008432E+02</rscale>
<asrwt>0</asrwt>
<pdfrwt beam="1">  1        2 0.12271697E+00 0.59008432E+02</pdfrwt>
<pdfrwt beam="2">  1       -2 0.16789464E-03 0.59008432E+02</pdfrwt>
<totfact> 0.74734153E+05</totfact>
</mgrwt>
</event>
<event>
 4    1  0.4604841E-002  0.5879693E+02  0.7818608E-02  0.1402951E+00
          2   -1    0    0    0  501  0.00000000000E+00  0.00000000000E+00  0.17235171434E+03  0.17235171436E+03  0.25500000000E-02 0.  1.
         -2   -1    0    0  501    0 -0.00000000000E+00 -0.00000000000E+00 -0.50145703650E+01  0.50145710134E+01  0.25500000000E-02 0.  1.
          2    1    1    2    0  502 -0.20413244284E+02  0.20551149228E+02  0.68519526378E+02  0.74390696854E+02  0.25500000000E-02 0. -1.
         -2    1    1    2  502    0  0.20413244284E+02 -0.20551149228E+02  0.98817617600E+02  0.10297558852E+03  0.25500000000E-02 0. -1.
<mgrwt>
<rscale>  0 0.58796934E+02</rscale>
<asrwt>0</asrwt>
<pdfrwt beam="1">  1        2 0.26515645E-01 0.58796934E+02</pdfrwt>
<pdfrwt beam="2">  1       -2 0.77147251E-03 0.58796934E+02</pdfrwt>
<totfact> 0.46505155E+05</totfact>
</mgrwt>
</event>
<event>
 4    1  0.4604841E-002  0.1002854E+03  0.7818608E-02  0.1279697E+00
          2   -1    0    0    0  501  0.00000000000E+00  0.00000000000E+00  0.11888390901E+04  0.11888390901E+04  0.25500000000E-02 0. -1.
         -2   -1    0    0  501    0 -0.00000000000E+00 -0.00000000000E+00 -0.21149127454E+01  0.21149142827E+01  0.25500000000E-02 0. -1.
          2    1    1    2    0  502  0.47340049437E+02 -0.16108359673E+02  0.63736983655E+03  0.63932845087E+03  0.25500000000E-02 0. -1.
         -2    1    1    2  502    0 -0.47340049437E+02  0.16108359673E+02  0.54935434083E+03  0.55162555355E+03  0.25500000000E-02 0. -1.
<mgrwt>
<rscale>  0 0.10028543E+03</rscale>
<asrwt>0</asrwt>
<pdfrwt beam="1">  1        2 0.18289839E+00 0.10028543E+03</pdfrwt>
<pdfrwt beam="2">  1       -2 0.32537118E-03 0.10028543E+03</pdfrwt>
<totfact> 0.19350859E+05</totfact>
</mgrwt>
</event>
<event>
 4    1  0.4604841E-002  0.5640394E+02  0.7818608E-02  0.1413574E+00
          2   -1    0    0    0  501  0.00000000000E+00  0.00000000000E+00  0.25186910979E+02  0.25186911108E+02  0.25500000000E-02 0. -1.
         -2   -1    0    0  501    0 -0.00000000000E+00 -0.00000000000E+00 -0.31577952486E+02  0.31577952589E+02  0.25500000000E-02 0. -1.
          2    1    1    2    0  502  0.21176124304E+02 -0.80905994807E+01  0.13688753316E+02  0.26481465488E+02  0.25500000000E-02 0. -1.
         -2    1    1    2  502    0 -0.21176124304E+02  0.80905994807E+01 -0.20079794822E+02  0.30283398210E+02  0.25500000000E-02 0. -1.
<mgrwt>
<rscale>  0 0.56403939E+02</rscale>
<asrwt>0</asrwt>
<pdfrwt beam="1">  1        2 0.38749094E-02 0.56403939E+02</pdfrwt>
<pdfrwt beam="2">  1       -2 0.48581465E-02 0.56403939E+02</pdfrwt>
<totfact> 0.33100354E+05</totfact>
</mgrwt>
</event>
<event>
 4    1  0.4604841E-002  0.4916256E+02  0.7818608E-02  0.1449912E+00
          2   -1    0    0    0  501  0.00000000000E+00  0.00000000000E+00  0.39077931533E+03  0.39077931534E+03  0.25500000000E-02 0. -1.
         -2   -1    0    0  501    0 -0.00000000000E+00 -0.00000000000E+00 -0.15462406547E+01  0.15462427574E+01  0.25500000000E-02 0. -1.
          2    1    1    2    0  502  0.10613484616E+02 -0.18175804746E+02  0.93286185232E+02  0.95631157557E+02  0.25500000000E-02 0. -1.
         -2    1    1    2  502    0 -0.10613484616E+02  0.18175804746E+02  0.29594688944E+03  0.29669440054E+03  0.25500000000E-02 0. -1.
<mgrwt>
<rscale>  0 0.49162558E+02</rscale>
<asrwt>0</asrwt>
<pdfrwt beam="1">  1        2 0.60119802E-01 0.49162558E+02</pdfrwt>
<pdfrwt beam="2">  1       -2 0.23788371E-03 0.49162558E+02</pdfrwt>
<totfact> 0.96641251E+05</totfact>
</mgrwt>
</event>
<event>
 4    1  0.4604841E-002  0.9869835E+02  0.7818608E-02  0.1283057E+00
         -2   -1    0    0  501    0 -0.00000000000E+00  0.00000000000E+00  0.16107307995E+02  0.16107308197E+02  0.25500000000E-02 0. -1.
          2   -1    0    0    0  501  0.00000000000E+00 -0.00000000000E+00 -0.15119478866E+03  0.15119478868E+03  0.25500000000E-02 0. -1.
          2    1    1    2    0  502 -0.16748081683E+02  0.39093422180E+02 -0.10997328498E+03  0.11791063275E+03  0.25500000000E-02 0. -1.
         -2    1    1    2  502    0  0.16748081683E+02 -0.39093422180E+02 -0.25114195677E+02  0.49391464129E+02  0.25500000000E-02 0. -1.
<mgrwt>
<rscale>  0 0.98698349E+02</rscale>
<asrwt>0</asrwt>
<pdfrwt beam="2">  1        2 0.23260736E-01 0.98698349E+02</pdfrwt>
<pdfrwt beam="1">  1       -2 0.24780475E-02 0.98698349E+02</pdfrwt>
<totfact> 0.11291506E+05</totfact>
</mgrwt>
</event>
<event>
 4    1  0.4604841E-002  0.5457491E+02  0.7818608E-02  0.1422120E+00
         -2   -1    0    0  501    0 -0.00000000000E+00  0.00000000000E+00  0.12083341591E+03  0.12083341593E+03  0.25500000000E-02 0. -1.
          2   -1    0    0    0  501  0.00000000000E+00 -0.00000000000E+00 -0.61622447758E+01  0.61622453034E+01  0.25500000000E-02 0. -1.
          2    1    1    2    0  502 -0.26911343853E+02 -0.30045306763E+01  0.49493403716E+02  0.56416705420E+02  0.25500000000E-02 0.  1.
         -2    1    1    2  502    0  0.26911343853E+02  0.30045306763E+01  0.65177767415E+02  0.70578955817E+02  0.25500000000E-02 0.  1.
<mgrwt>
<rscale>  0 0.54574907E+02</rscale>
<asrwt>0</asrwt>
<pdfrwt beam="2">  1        2 0.94803777E-03 0.54574907E+02</pdfrwt>
<pdfrwt beam="1">  1       -2 0.18589755E-01 0.54574907E+02</pdfrwt>
<totfact> 0.27059032E+05</totfact>
</mgrwt>
</event>
<event>
 4    1  0.4604841E-002  0.5553232E+02  0.7818608E-02  0.1417598E+00
         -2   -1    0    0  501    0 -0.00000000000E+00  0.00000000000E+00  0.15589376661E+02  0.15589376870E+02  0.25500000000E-02 0. -1.
          2   -1    0    0    0  501  0.00000000000E+00 -0.00000000000E+00 -0.49454172608E+02  0.49454172674E+02  0.25500000000E-02 0. -1.
          2    1    1    2    0  502  0.10012545143E+02 -0.25815156554E+02 -0.19357347123E+02  0.33784319770E+02  0.25500000000E-02 0. -1.
         -2    1    1    2  502    0 -0.10012545143E+02  0.25815156554E+02 -0.14507448823E+02  0.31259229773E+02  0.25500000000E-02 0. -1.
<mgrwt>
<rscale>  0 0.55532323E+02</rscale>
<asrwt>0</asrwt>
<pdfrwt beam="2">  1        2 0.76083342E-02 0.55532323E+02</pdfrwt>
<pdfrwt beam="1">  1       -2 0.23983657E-02 0.55532323E+02</pdfrwt>
<totfact> 0.38985279E+05</totfact>
</mgrwt>
</event>
<event>
 4    1  0.4604841E-002  0.5824493E+02  0.7818608E-02  0.1405348E+00
         -2   -1    0    0  501    0 -0.00000000000E+00  0.00000000000E+00  0.16889931053E+01  0.16889950302E+01  0.25500000000E-02 0.  1.
          2   -1    0    0    0  501  0.00000000000E+00 -0.00000000000E+00 -0.50214390937E+03  0.50214390938E+03  0.25500000000E-02 0.  1.
          2    1    1    2    0  502  0.20819856802E+02 -0.21155974914E+01 -0.75035795697E+02  0.77899376329E+02  0.25500000000E-02 0. -1.
         -2    1    1    2  502    0 -0.20819856802E+02  0.21155974914E+01 -0.42541912057E+03  0.42593352808E+03  0.25500000000E-02 0. -1.
<mgrwt>
<rscale>  0 0.58244934E+02</rscale>
<asrwt>0</asrwt>
<pdfrwt beam="2">  1        2 0.77252790E-01 0.58244934E+02</pdfrwt>
<pdfrwt beam="1">  1       -2 0.25984564E-03 0.58244934E+02</pdfrwt>
<totfact> 0.68694319E+05</totfact>
</mgrwt>
</event>
<event>
 4    1  0.4604841E-002  0.2359828E+03  0.7818608E-02  0.1122498E+00
         -2   -1    0    0  501    0 -0.00000000000E+00  0.00000000000E+00  0.19657358865E+03  0.19657358866E+03  0.25500000000E-02 0. -1.
          2   -1    0    0    0  501  0.00000000000E+00 -0.00000000000E+00 -0.70823212340E+02  0.70823212386E+02  0.25500000000E-02 0. -1.
          2    1    1    2    0  502  0.85165616045E+02  0.14704263148E+02 -0.28145971693E+02  0.90893306905E+02  0.25500000000E-02 0. -1.
         -2    1    1    2  502    0 -0.85165616045E+02 -0.14704263148E+02  0.15389634800E+03  0.17650349414E+03  0.25500000000E-02 0. -1.
<mgrwt>
<rscale>  0 0.23598282E+03</rscale>
<asrwt>0</asrwt>
<pdfrwt beam="2">  1        2 0.10895879E-01 0.23598282E+03</pdfrwt>
<pdfrwt beam="1">  1       -2 0.30242091E-01 0.23598282E+03</pdfrwt>
<totfact> 0.57107620E+03</totfact>
</mgrwt>
</event>
<event>
 4    1  0.4604841E-002  0.8336035E+02  0.7818608E-02  0.1319777E+00
         -2   -1    0    0  501    0 -0.00000000000E+00  0.00000000000E+00  0.11571297111E+01  0.11571325208E+01  0.25500000000E-02 0. -1.
          2   -1    0    0    0  501  0.00000000000E+00 -0.00000000000E+00 -0.15013312770E+04  0.15013312770E+04  0.25500000000E-02 0. -1.
          2    1    1    2    0  502 -0.32922362704E+02 -0.13270304658E+01 -0.12101742967E+04  0.12106227618E+04  0.25500000000E-02 0. -1.
         -2    1    1    2  502    0  0.32922362704E+02  0.13270304658E+01 -0.28999985063E+03  0.29186564777E+03  0.25500000000E-02 0. -1.
<mgrwt>
<rscale>  0 0.83360354E+02</rscale>
<asrwt>0</asrwt>
<pdfrwt beam="2">  1        2 0.23097248E+00 0.83360354E+02</pdfrwt>
<pdfrwt beam="1">  1       -2 0.17802137E-03 0.83360354E+02</pdfrwt>
<totfact> 0.29842986E+05</totfact>
</mgrwt>
</event>
<event>
 4    1  0.4604841E-002  0.5313037E+02  0.7818608E-02  0.1429153E+00
          2   -1    0    0    0  501  0.00000000000E+00  0.00000000000E+00  0.29831611936E+04  0.29831611936E+04  0.25500000000E-02 0. -1.
         -2   -1    0    0  501    0 -0.00000000000E+00 -0.00000000000E+00 -0.23655732079E+00  0.23657106442E+00  0.25500000000E-02 0. -1.
          2    1    1    2    0  502  0.15401760314E+02  0.21098550426E+02  0.17627781549E+04  0.17629716919E+04  0.25500000000E-02 0.  1.
         -2    1    1    2  502    0 -0.15401760314E+02 -0.21098550426E+02  0.12201464814E+04  0.12204260728E+04  0.25500000000E-02 0.  1.
<mgrwt>
<rscale>  0 0.53130373E+02</rscale>
<asrwt>0</asrwt>
<pdfrwt beam="1">  1        2 0.45896763E+00 0.53130373E+02</pdfrwt>
<pdfrwt beam="2">  1       -2 0.36392925E-04 0.53130373E+02</pdfrwt>
<totfact> 0.42272158E+05</totfact>
</mgrwt>
</event>
<event>
 4    1  0.4604841E-002  0.5611878E+02  0.7818608E-02  0.1414881E+00
         -2   -1    0    0  501    0 -0.00000000000E+00  0.00000000000E+00  0.39530013012E+01  0.39530021236E+01  0.25500000000E-02 0. -1.
          2   -1    0    0    0  501  0.00000000000E+00 -0.00000000000E+00 -0.19917251110E+03  0.19917251112E+03  0.25500000000E-02 0. -1.
          2    1    1    2    0  502 -0.69107465931E+01  0.26353385234E+02 -0.12190939158E+03  0.12491660856E+03  0.25500000000E-02 0. -1.
         -2    1    1    2  502    0  0.69107465931E+01 -0.26353385234E+02 -0.73310118217E+02  0.78208904680E+02  0.25500000000E-02 0. -1.
<mgrwt>
<rscale>  0 0.56118777E+02</rscale>
<asrwt>0</asrwt>
<pdfrwt beam="2">  1        2 0.30641917E-01 0.56118777E+02</pdfrwt>
<pdfrwt beam="1">  1       -2 0.60815427E-03 0.56118777E+02</pdfrwt>
<totfact> 0.54946086E+05</totfact>
</mgrwt>
</event>
<event>
 4    1  0.4604841E-002  0.8482425E+02  0.7818608E-02  0.1315893E+00
          2   -1    0    0    0  501  0.00000000000E+00  0.00000000000E+00  0.61488924300E+02  0.61488924352E+02  0.25500000000E-02 0.  1.
         -2   -1    0    0  501    0 -0.00000000000E+00 -0.00000000000E+00 -0.29253861289E+02  0.29253861400E+02  0.25500000000E-02 0.  1.
          2    1    1    2    0  502  0.38346458019E+02 -0.12195190925E+01  0.35457981330E+02  0.52241808123E+02  0.25500000000E-02 0.  1.
         -2    1    1    2  502    0 -0.38346458019E+02  0.12195190925E+01 -0.32229183186E+01  0.38500977630E+02  0.25500000000E-02 0.  1.
<mgrwt>
<rscale>  0 0.84824253E+02</rscale>
<asrwt>0</asrwt>
<pdfrwt beam="1">  1        2 0.94598344E-02 0.84824253E+02</pdfrwt>
<pdfrwt beam="2">  1       -2 0.45005941E-02 0.84824253E+02</pdfrwt>
<totfact> 0.13067037E+05</totfact>
</mgrwt>
</event>
<event>
 4    1  0.4604841E-002  0.4141471E+02  0.7818608E-02  0.1498051E+00
          2   -1    0    0    0  501  0.00000000000E+00  0.00000000000E+00  0.77762624496E+03  0.77762624497E+03  0.25500000000E-02 0.  1.
         -2   -1    0    0  501    0 -0.00000000000E+00 -0.00000000000E+00 -0.55141167386E+00  0.55141757005E+00  0.25500000000E-02 0.  1.
          2    1    1    2    0  502 -0.81782047775E+01 -0.18555491128E+02  0.46737704705E+03  0.46781673057E+03  0.25500000000E-02 0.  1.
         -2    1    1    2  502    0  0.81782047775E+01  0.18555491128E+02  0.30969778623E+03  0.31036093196E+03  0.25500000000E-02 0.  1.
<mgrwt>
<rscale>  0 0.41414707E+02</rscale>
<asrwt>0</asrwt>
<pdfrwt beam="1">  1        2 0.11963527E+00 0.41414707E+02</pdfrwt>
<pdfrwt beam="2">  1       -2 0.84832689E-04 0.41414707E+02</pdfrwt>
<totfact> 0.17799337E+06</totfact>
</mgrwt>
</event>
<event>
 4    1  0.4604841E-002  0.8775401E+02  0.7818608E-02  0.1308384E+00
         -2   -1    0    0  501    0 -0.00000000000E+00  0.00000000000E+00  0.93792366976E+00  0.93792713619E+00  0.25500000000E-02 0. -1.
          2   -1    0    0    0  501  0.00000000000E+00 -0.00000000000E+00 -0.20526061647E+04  0.20526061647E+04  0.25500000000E-02 0. -1.
          2    1    1    2    0  502 -0.16261568326E+02 -0.19353114542E+02 -0.18650872741E+04  0.18652585669E+04  0.25500000000E-02 0.  1.
         -2    1    1    2  502    0  0.16261568326E+02  0.19353114542E+02 -0.18658096697E+03  0.18828552491E+03  0.25500000000E-02 0.  1.
<mgrwt>
<rscale>  0 0.87754008E+02</rscale>
<asrwt>0</asrwt>
<pdfrwt beam="2">  1        2 0.31578197E+00 0.87754008E+02</pdfrwt>
<pdfrwt beam="1">  1       -2 0.14429786E-03 0.87754008E+02</pdfrwt>
<totfact> 0.21234501E+05</totfact>
</mgrwt>
</event>
<event>
 4    1  0.4604841E-002  0.6619299E+02  0.7818608E-02  0.1373539E+00
         -2   -1    0    0  501    0 -0.00000000000E+00  0.00000000000E+00  0.25713940813E+03  0.25713940815E+03  0.25500000000E-02 0. -1.
          2   -1    0    0    0  501  0.00000000000E+00 -0.00000000000E+00 -0.42598597074E+01  0.42598604707E+01  0.25500000000E-02 0. -1.
          2    1    1    2    0  502  0.19321564714E+02 -0.25465641913E+02  0.16030872819E+03  0.16346470604E+03  0.25500000000E-02 0. -1.
         -2    1    1    2  502    0 -0.19321564714E+02  0.25465641913E+02  0.92570820237E+02  0.97934562576E+02  0.25500000000E-02 0. -1.
<mgrwt>
<rscale>  0 0.66192988E+02</rscale>
<asrwt>0</asrwt>
<pdfrwt beam="2">  1        2 0.65536303E-03 0.66192988E+02</pdfrwt>
<pdfrwt beam="1">  1       -2 0.39559913E-01 0.66192988E+02</pdfrwt>
<totfact> 0.12514872E+05</totfact>
</mgrwt>
</event>
<event>
 4    1  0.4604841E-002  0.5676971E+02  0.7818608E-02  0.1411910E+00
          2   -1    0    0    0  501  0.00000000000E+00  0.00000000000E+00  0.17300239198E+02  0.17300239386E+02  0.25500000000E-02 0. -1.
         -2   -1    0    0  501    0 -0.00000000000E+00 -0.00000000000E+00 -0.46571610307E+02  0.46571610376E+02  0.25500000000E-02 0. -1.
          2    1    1    2    0  502  0.59500750050E+01 -0.27715850389E+02 -0.16277044536E+02  0.32688131496E+02  0.25500000000E-02 0. -1.
         -2    1    1    2  502    0 -0.59500750050E+01  0.27715850389E+02 -0.12994326573E+02  0.31183718267E+02  0.25500000000E-02 0. -1.
<mgrwt>
<rscale>  0 0.56769710E+02</rscale>
<asrwt>0</asrwt>
<pdfrwt beam="1">  1        2 0.26615753E-02 0.56769710E+02</pdfrwt>
<pdfrwt beam="2">  1       -2 0.71648631E-02 0.56769710E+02</pdfrwt>
<totfact> 0.30435346E+05</totfact>
</mgrwt>
</event>
<event>
 4    1  0.4604841E-002  0.9557948E+02  0.7818608E-02  0.1289876E+00
          2   -1    0    0    0  501  0.00000000000E+00  0.00000000000E+00  0.81236403215E+03  0.81236403216E+03  0.25500000000E-02 0. -1.
         -2   -1    0    0  501    0 -0.00000000000E+00 -0.00000000000E+00 -0.28113735003E+01  0.28113746567E+01  0.25500000000E-02 0. -1.
          2    1    1    2    0  502  0.37496530204E+02  0.13986819481E+02  0.18200748378E+03  0.18635542668E+03  0.25500000000E-02 0. -1.
         -2    1    1    2  502    0 -0.37496530204E+02 -0.13986819481E+02  0.62754517488E+03  0.62881998013E+03  0.25500000000E-02 0. -1.
<mgrwt>
<rscale>  0 0.95579479E+02</rscale>
<asrwt>0</asrwt>
<pdfrwt beam="1">  1        2 0.12497916E+00 0.95579479E+02</pdfrwt>
<pdfrwt beam="2">  1       -2 0.43251883E-03 0.95579479E+02</pdfrwt>
<totfact> 0.21575929E+05</totfact>
</mgrwt>
</event>
<event>
 4    1  0.4604841E-002  0.7368031E+02  0.7818608E-02  0.1348007E+00
         -2   -1    0    0  501    0 -0.00000000000E+00  0.00000000000E+00  0.13977961504E+02  0.13977961737E+02  0.25500000000E-02 0.  1.
          2   -1    0    0    0  501  0.00000000000E+00 -0.00000000000E+00 -0.97095478447E+02  0.97095478481E+02  0.25500000000E-02 0.  1.
          2    1    1    2    0  502  0.28837932475E+02 -0.20352196040E+02 -0.25650569112E+02  0.43632441318E+02  0.25500000000E-02 0. -1.
         -2    1    1    2  502    0 -0.28837932475E+02  0.20352196040E+02 -0.57466947830E+02  0.67440998899E+02  0.25500000000E-02 0. -1.
<mgrwt>
<rscale>  0 0.73680306E+02</rscale>
<asrwt>0</asrwt>
<pdfrwt beam="2">  1        2 0.14937766E-01 0.73680306E+02</pdfrwt>
<pdfrwt beam="1">  1       -2 0.21504557E-02 0.73680306E+02</pdfrwt>
<totfact> 0.21671598E+05</totfact>
</mgrwt>
</event>
<event>
 4    1  0.4604841E-002  0.4694233E+02  0.7818608E-02  0.1462568E+00
         -2   -1    0    0  501    0 -0.00000000000E+00  0.00000000000E+00  0.93743679819E+03  0.93743679819E+03  0.25500000000E-02 0.  1.
          2   -1    0    0    0  501  0.00000000000E+00 -0.00000000000E+00 -0.58765889894E+00  0.58766443146E+00  0.25500000000E-02 0.  1.
          2    1    1    2    0  502  0.11598849677E+02 -0.19824981065E+02  0.56494737275E+03  0.56541409353E+03  0.25500000000E-02 0. -1.
         -2    1    1    2  502    0 -0.11598849677E+02  0.19824981065E+02  0.37190176655E+03  0.37261036909E+03  0.25500000000E-02 0. -1.
<mgrwt>
<rscale>  0 0.46942334E+02</rscale>
<asrwt>0</asrwt>
<pdfrwt beam="2">  1        2 0.90409570E-04 0.46942334E+02</pdfrwt>
<pdfrwt beam="1">  1       -2 0.14422091E+00 0.46942334E+02</pdfrwt>
<totfact> 0.10723476E+05</totfact>
</mgrwt>
</event>
<event>
 4    1  0.4604841E-002  0.6895315E+02  0.7818608E-02  0.1363690E+00
          2   -1    0    0    0  501  0.00000000000E+00  0.00000000000E+00  0.15123933064E+01  0.15123954562E+01  0.25500000000E-02 0. -1.
         -2   -1    0    0  501    0 -0.00000000000E+00 -0.00000000000E+00 -0.78592873205E+03  0.78592873205E+03  0.25500000000E-02 0. -1.
          2    1    1    2    0  502 -0.27362498393E+02 -0.36968753185E+01 -0.62798535618E+03  0.62859206230E+03  0.25500000000E-02 0.  1.
         -2    1    1    2  502    0  0.27362498393E+02  0.36968753185E+01 -0.15643098256E+03  0.15884906521E+03  0.25500000000E-02 0.  1.
<mgrwt>
<rscale>  0 0.68953149E+02</rscale>
<asrwt>0</asrwt>
<pdfrwt beam="1">  1        2 0.23267669E-03 0.68953149E+02</pdfrwt>
<pdfrwt beam="2">  1       -2 0.12091179E+00 0.68953149E+02</pdfrwt>
<totfact> 0.49740302E+04</totfact>
</mgrwt>
</event>
<event>
 4    1  0.4604841E-002  0.6303775E+02  0.7818608E-02  0.1385508E+00
         -2   -1    0    0  501    0 -0.00000000000E+00  0.00000000000E+00  0.13381229954E+02  0.13381230197E+02  0.25500000000E-02 0. -1.
          2   -1    0    0    0  501  0.00000000000E+00 -0.00000000000E+00 -0.74241265240E+02  0.74241265284E+02  0.25500000000E-02 0. -1.
          2    1    1    2    0  502  0.91995819566E+01  0.28892062603E+02 -0.42391765148E+02  0.52119529435E+02  0.25500000000E-02 0. -1.
         -2    1    1    2  502    0 -0.91995819566E+01 -0.28892062603E+02 -0.18468270138E+02  0.35502966046E+02  0.25500000000E-02 0. -1.
<mgrwt>
<rscale>  0 0.63037749E+02</rscale>
<asrwt>0</asrwt>
<pdfrwt beam="2">  1        2 0.11421733E-01 0.63037749E+02</pdfrwt>
<pdfrwt beam="1">  1       -2 0.20586508E-02 0.63037749E+02</pdfrwt>
<totfact> 0.30556750E+05</totfact>
</mgrwt>
</event>
<event>
 4    1  0.4604841E-002  0.6631058E+02  0.7818608E-02  0.1373108E+00
         -2   -1    0    0  501    0 -0.00000000000E+00  0.00000000000E+00  0.62227202344E+00  0.62227724822E+00  0.25500000000E-02 0. -1.
          2   -1    0    0    0  501  0.00000000000E+00 -0.00000000000E+00 -0.17665405017E+04  0.17665405017E+04  0.25500000000E-02 0. -1.
          2    1    1    2    0  502  0.12705567883E+00  0.32458929720E+02 -0.10630672709E+04  0.10635627018E+04  0.25500000000E-02 0.  1.
         -2    1    1    2  502    0 -0.12705567883E+00 -0.32458929720E+02 -0.70285095879E+03  0.70360007713E+03  0.25500000000E-02 0.  1.
<mgrwt>
<rscale>  0 0.66310583E+02</rscale>
<asrwt>0</asrwt>
<pdfrwt beam="2">  1        2 0.27177145E+00 0.66310583E+02</pdfrwt>
<pdfrwt beam="1">  1       -2 0.95735974E-04 0.66310583E+02</pdfrwt>
<totfact> 0.49650399E+05</totfact>
</mgrwt>
</event>
<event>
 4    1  0.4604841E-002  0.4077394E+02  0.7818608E-02  0.1502592E+00
         -2   -1    0    0  501    0 -0.00000000000E+00  0.00000000000E+00  0.10366072944E+01  0.10366104308E+01  0.25500000000E-02 0. -1.
          2   -1    0    0    0  501  0.00000000000E+00 -0.00000000000E+00 -0.40095017572E+03  0.40095017573E+03  0.25500000000E-02 0. -1.
          2    1    1    2    0  502 -0.33462854109E+01  0.20058744735E+02 -0.21416743104E+03  0.21513074952E+03  0.25500000000E-02 0. -1.
         -2    1    1    2  502    0  0.33462854109E+01 -0.20058744735E+02 -0.18574613739E+03  0.18685603664E+03  0.25500000000E-02 0. -1.
<mgrwt>
<rscale>  0 0.40773938E+02</rscale>
<asrwt>0</asrwt>
<pdfrwt beam="2">  1        2 0.61684519E-01 0.40773938E+02</pdfrwt>
<pdfrwt beam="1">  1       -2 0.15947861E-03 0.40773938E+02</pdfrwt>
<totfact> 0.15406694E+06</totfact>
</mgrwt>
</event>
<event>
 4    1  0.4604841E-002  0.7238566E+02  0.7818608E-02  0.1352163E+00
         -2   -1    0    0  501    0 -0.00000000000E+00  0.00000000000E+00  0.22905515446E+02  0.22905515588E+02  0.25500000000E-02 0. -1.
          2   -1    0    0    0  501  0.00000000000E+00 -0.00000000000E+00 -0.57188014570E+02  0.57188014627E+02  0.25500000000E-02 0. -1.
          2    1    1    2    0  502 -0.34787311230E+02  0.31073927607E+01 -0.27644571251E+02  0.44542510465E+02  0.25500000000E-02 0.  1.
         -2    1    1    2  502    0  0.34787311230E+02 -0.31073927607E+01 -0.66379278731E+01  0.35551019750E+02  0.25500000000E-02 0.  1.
<mgrwt>
<rscale>  0 0.72385660E+02</rscale>
<asrwt>0</asrwt>
<pdfrwt beam="2">  1        2 0.87981561E-02 0.72385660E+02</pdfrwt>
<pdfrwt beam="1">  1       -2 0.35239255E-02 0.72385660E+02</pdfrwt>
<totfact> 0.19845721E+05</totfact>
</mgrwt>
</event>
<event>
 4    1  0.4604841E-002  0.6739357E+02  0.7818608E-02  0.1369188E+00
         -2   -1    0    0  501    0 -0.00000000000E+00  0.00000000000E+00  0.55062720840E+02  0.55062720900E+02  0.25500000000E-02 0. -1.
          2   -1    0    0    0  501  0.00000000000E+00 -0.00000000000E+00 -0.20621451972E+02  0.20621452129E+02  0.25500000000E-02 0. -1.
          2    1    1    2    0  502  0.21143412008E+02 -0.77466326465E+01  0.45372766743E+02  0.50653155451E+02  0.25500000000E-02 0. -1.
         -2    1    1    2  502    0 -0.21143412008E+02  0.77466326465E+01 -0.10931497874E+02  0.25031017578E+02  0.25500000000E-02 0. -1.
<mgrwt>
<rscale>  0 0.67393568E+02</rscale>
<asrwt>0</asrwt>
<pdfrwt beam="2">  1        2 0.31725311E-02 0.67393568E+02</pdfrwt>
<pdfrwt beam="1">  1       -2 0.84711878E-02 0.67393568E+02</pdfrwt>
<totfact> 0.19471102E+05</totfact>
</mgrwt>
</event>
<event>
 4    1  0.4604841E-002  0.6614219E+02  0.7818608E-02  0.1373726E+00
         -2   -1    0    0  501    0 -0.00000000000E+00  0.00000000000E+00  0.71779815952E+03  0.71779815952E+03  0.25500000000E-02 0. -1.
          2   -1    0    0    0  501  0.00000000000E+00 -0.00000000000E+00 -0.15236828113E+01  0.15236849451E+01  0.25500000000E-02 0. -1.
          2    1    1    2    0  502 -0.24180487005E+02  0.14133776848E+02  0.16689184166E+03  0.16922572623E+03  0.25500000000E-02 0. -1.
         -2    1    1    2  502    0  0.24180487005E+02 -0.14133776848E+02  0.54938263504E+03  0.55009611823E+03  0.25500000000E-02 0. -1.
<mgrwt>
<rscale>  0 0.66142195E+02</rscale>
<asrwt>0</asrwt>
<pdfrwt beam="2">  1        2 0.23441240E-03 0.66142195E+02</pdfrwt>
<pdfrwt beam="1">  1       -2 0.11043072E+00 0.66142195E+02</pdfrwt>
<totfact> 0.60399865E+04</totfact>
</mgrwt>
</event>
<event>
 4    1  0.4604841E-002  0.1053265E+03  0.7818608E-02  0.1269478E+00
         -2   -1    0    0  501    0 -0.00000000000E+00  0.00000000000E+00  0.38779435851E+03  0.38779435852E+03  0.25500000000E-02 0.  1.
          2   -1    0    0    0  501  0.00000000000E+00 -0.00000000000E+00 -0.71517684862E+01  0.71517689408E+01  0.25500000000E-02 0.  1.
          2    1    1    2    0  502 -0.37765301866E+02  0.34479457023E+02  0.23750906031E+03  0.24295185679E+03  0.25500000000E-02 0. -1.
         -2    1    1    2  502    0  0.37765301866E+02 -0.34479457023E+02  0.14313352971E+03  0.15199427067E+03  0.25500000000E-02 0. -1.
<mgrwt>
<rscale>  0 0.10532646E+03</rscale>
<asrwt>0</asrwt>
<pdfrwt beam="2">  1        2 0.11002719E-02 0.10532646E+03</pdfrwt>
<pdfrwt beam="1">  1       -2 0.59660679E-01 0.10532646E+03</pdfrwt>
<totfact> 0.29978505E+04</totfact>
</mgrwt>
</event>
<event>
 4    1  0.4604841E-002  0.6855267E+02  0.7818608E-02  0.1365085E+00
          2   -1    0    0    0  501  0.00000000000E+00  0.00000000000E+00  0.71241707433E+01  0.71241711997E+01  0.25500000000E-02 0. -1.
         -2   -1    0    0  501    0 -0.00000000000E+00 -0.00000000000E+00 -0.16491280779E+03  0.16491280781E+03  0.25500000000E-02 0. -1.
          2    1    1    2    0  502 -0.13937145184E+02  0.17480924379E+02 -0.14409652651E+03  0.14582055991E+03  0.25500000000E-02 0. -1.
         -2    1    1    2  502    0  0.13937145184E+02 -0.17480924379E+02 -0.13692110534E+02  0.26216419099E+02  0.25500000000E-02 0. -1.
<mgrwt>
<rscale>  0 0.68552667E+02</rscale>
<asrwt>0</asrwt>
<pdfrwt beam="1">  1        2 0.10960264E-02 0.68552667E+02</pdfrwt>
<pdfrwt beam="2">  1       -2 0.25371198E-01 0.68552667E+02</pdfrwt>
<totfact> 0.13861467E+05</totfact>
</mgrwt>
</event>
<event>
 4    1  0.4604841E-002  0.4892080E+02  0.7818608E-02  0.1451251E+00
          2   -1    0    0    0  501  0.00000000000E+00  0.00000000000E+00  0.31014850493E+02  0.31014850598E+02  0.25500000000E-02 0. -1.
         -2   -1    0    0  501    0 -0.00000000000E+00 -0.00000000000E+00 -0.19291118464E+02  0.19291118632E+02  0.25500000000E-02 0. -1.
          2    1    1    2    0  502 -0.17998014723E+02  0.16354001727E+02  0.31549856995E+01  0.24522150145E+02  0.25500000000E-02 0.  1.
         -2    1    1    2  502    0  0.17998014723E+02 -0.16354001727E+02  0.85687463304E+01  0.25783819086E+02  0.25500000000E-02 0.  1.
<mgrwt>
<rscale>  0 0.48920800E+02</rscale>
<asrwt>0</asrwt>
<pdfrwt beam="1">  1        2 0.47715155E-02 0.48920800E+02</pdfrwt>
<pdfrwt beam="2">  1       -2 0.29678644E-02 0.48920800E+02</pdfrwt>
<totfact> 0.49961445E+05</totfact>
</mgrwt>
</event>
<event>
 4    1  0.4604841E-002  0.4873593E+02  0.7818608E-02  0.1452281E+00
          2   -1    0    0    0  501  0.00000000000E+00  0.00000000000E+00  0.27668453569E+02  0.27668453687E+02  0.25500000000E-02 0.  1.
         -2   -1    0    0  501    0 -0.00000000000E+00 -0.00000000000E+00 -0.21461177442E+02  0.21461177594E+02  0.25500000000E-02 0.  1.
          2    1    1    2    0  502 -0.23962999909E+02  0.19991377303E+01 -0.87484702729E+00  0.24062154520E+02  0.25500000000E-02 0. -1.
         -2    1    1    2  502    0  0.23962999909E+02 -0.19991377303E+01  0.70821231545E+01  0.25067476761E+02  0.25500000000E-02 0. -1.
<mgrwt>
<rscale>  0 0.48735925E+02</rscale>
<asrwt>0</asrwt>
<pdfrwt beam="1">  1        2 0.42566852E-02 0.48735925E+02</pdfrwt>
<pdfrwt beam="2">  1       -2 0.33017196E-02 0.48735925E+02</pdfrwt>
<totfact> 0.49553766E+05</totfact>
</mgrwt>
</event>
<event>
 4    1  0.4604841E-002  0.4351067E+02  0.7818608E-02  0.1483859E+00
         -2   -1    0    0  501    0 -0.00000000000E+00  0.00000000000E+00  0.26448206065E+01  0.26448218357E+01  0.25500000000E-02 0.  1.
          2   -1    0    0    0  501  0.00000000000E+00 -0.00000000000E+00 -0.17895145255E+03  0.17895145256E+03  0.25500000000E-02 0.  1.
          2    1    1    2    0  502 -0.17598207611E+02  0.11902638338E+02 -0.68610829058E+02  0.71824895274E+02  0.25500000000E-02 0.  1.
         -2    1    1    2  502    0  0.17598207611E+02 -0.11902638338E+02 -0.10769580288E+03  0.10977137913E+03  0.25500000000E-02 0.  1.
<mgrwt>
<rscale>  0 0.43510670E+02</rscale>
<asrwt>0</asrwt>
<pdfrwt beam="2">  1        2 0.27530983E-01 0.43510670E+02</pdfrwt>
<pdfrwt beam="1">  1       -2 0.40689571E-03 0.43510670E+02</pdfrwt>
<totfact> 0.10028864E+06</totfact>
</mgrwt>
</event>
<event>
 4    1  0.4604841E-002  0.5007435E+02  0.7818608E-02  0.1444941E+00
          2   -1    0    0    0  501  0.00000000000E+00  0.00000000000E+00  0.73738753187E+03  0.73738753187E+03  0.25500000000E-02 0. -1.
         -2   -1    0    0  501    0 -0.00000000000E+00 -0.00000000000E+00 -0.85010760719E+00  0.85011143170E+00  0.25500000000E-02 0. -1.
          2    1    1    2    0  502  0.49688785465E+01 -0.21225505778E+02  0.54982012743E+03  0.55025210984E+03  0.25500000000E-02 0. -1.
         -2    1    1    2  502    0 -0.49688785465E+01  0.21225505778E+02  0.18671729682E+03  0.18798553346E+03  0.25500000000E-02 0. -1.
<mgrwt>
<rscale>  0 0.50074351E+02</rscale>
<asrwt>0</asrwt>
<pdfrwt beam="1">  1        2 0.11344408E+00 0.50074351E+02</pdfrwt>
<pdfrwt beam="2">  1       -2 0.13078626E-03 0.50074351E+02</pdfrwt>
<totfact> 0.11085778E+06</totfact>
</mgrwt>
</event>
<event>
 4    1  0.4604841E-002  0.5150628E+02  0.7818608E-02  0.1437382E+00
          2   -1    0    0    0  501  0.00000000000E+00  0.00000000000E+00  0.85248084352E+02  0.85248084390E+02  0.25500000000E-02 0.  1.
         -2   -1    0    0  501    0 -0.00000000000E+00 -0.00000000000E+00 -0.77799312277E+01  0.77799316456E+01  0.25500000000E-02 0.  1.
          2    1    1    2    0  502  0.19905602078E+02  0.12632919621E+02  0.57451967349E+02  0.62101145006E+02  0.25500000000E-02 0. -1.
         -2    1    1    2  502    0 -0.19905602078E+02 -0.12632919621E+02  0.20016185775E+02  0.30926871030E+02  0.25500000000E-02 0. -1.
<mgrwt>
<rscale>  0 0.51506281E+02</rscale>
<asrwt>0</asrwt>
<pdfrwt beam="1">  1        2 0.13115089E-01 0.51506281E+02</pdfrwt>
<pdfrwt beam="2">  1       -2 0.11969126E-02 0.51506281E+02</pdfrwt>
<totfact> 0.53338381E+05</totfact>
</mgrwt>
</event>
<event>
 4    1  0.4604841E-002  0.7738733E+02  0.7818608E-02  0.1336634E+00
         -2   -1    0    0  501    0 -0.00000000000E+00  0.00000000000E+00  0.17674824218E+01  0.17674842612E+01  0.25500000000E-02 0. -1.
          2   -1    0    0    0  501  0.00000000000E+00 -0.00000000000E+00 -0.84707992743E+03  0.84707992743E+03  0.25500000000E-02 0. -1.
          2    1    1    2    0  502 -0.21223445240E+02 -0.32271107075E+02 -0.39730739026E+03  0.39918043708E+03  0.25500000000E-02 0.  1.
         -2    1    1    2  502    0  0.21223445240E+02  0.32271107075E+02 -0.44800505474E+03  0.44966697461E+03  0.25500000000E-02 0.  1.
<mgrwt>
<rscale>  0 0.77387329E+02</rscale>
<asrwt>0</asrwt>
<pdfrwt beam="2">  1        2 0.13031966E+00 0.77387329E+02</pdfrwt>
<pdfrwt beam="1">  1       -2 0.27192119E-03 0.77387329E+02</pdfrwt>
<totfact> 0.37756196E+05</totfact>
</mgrwt>
</event>
<event>
 4    1  0.4604841E-002  0.4094756E+02  0.7818608E-02  0.1501352E+00
         -2   -1    0    0  501    0 -0.00000000000E+00  0.00000000000E+00  0.86500910412E+00  0.86501286275E+00  0.25500000000E-02 0. -1.
          2   -1    0    0    0  501  0.00000000000E+00 -0.00000000000E+00 -0.48459001751E+03  0.48459001751E+03  0.25500000000E-02 0. -1.
          2    1    1    2    0  502  0.17261943771E+02 -0.10694296193E+02 -0.27285289203E+03  0.27360746220E+03  0.25500000000E-02 0. -1.
         -2    1    1    2  502    0 -0.17261943771E+02  0.10694296193E+02 -0.21087211637E+03  0.21184756818E+03  0.25500000000E-02 0. -1.
<mgrwt>
<rscale>  0 0.40947561E+02</rscale>
<asrwt>0</asrwt>
<pdfrwt beam="2">  1        2 0.74552094E-01 0.40947561E+02</pdfrwt>
<pdfrwt beam="1">  1       -2 0.13307900E-03 0.40947561E+02</pdfrwt>
<totfact> 0.16207862E+06</totfact>
</mgrwt>
</event>
<event>
 4    1  0.4604841E-002  0.5827300E+02  0.7818608E-02  0.1405225E+00
          2   -1    0    0    0  501  0.00000000000E+00  0.00000000000E+00  0.28618513481E+03  0.28618513482E+03  0.25500000000E-02 0.  1.
         -2   -1    0    0  501    0 -0.00000000000E+00 -0.00000000000E+00 -0.29663856595E+01  0.29663867555E+01  0.25500000000E-02 0.  1.
          2    1    1    2    0  502 -0.16667924571E+02 -0.21625859635E+02  0.19207531961E+03  0.19400625228E+03  0.25500000000E-02 0.  1.
         -2    1    1    2  502    0  0.16667924571E+02  0.21625859635E+02  0.91143429546E+02  0.95145269301E+02  0.25500000000E-02 0.  1.
<mgrwt>
<rscale>  0 0.58273000E+02</rscale>
<asrwt>0</asrwt>
<pdfrwt beam="1">  1        2 0.44028486E-01 0.58273000E+02</pdfrwt>
<pdfrwt beam="2">  1       -2 0.45636707E-03 0.58273000E+02</pdfrwt>
<totfact> 0.56622906E+05</totfact>
</mgrwt>
</event>
<event>
 4    1  0.4604841E-002  0.5267144E+02  0.7818608E-02  0.1431443E+00
         -2   -1    0    0  501    0 -0.00000000000E+00  0.00000000000E+00  0.97359556483E+00  0.97359890425E+00  0.25500000000E-02 0.  1.
          2   -1    0    0    0  501  0.00000000000E+00 -0.00000000000E+00 -0.71237892606E+03  0.71237892606E+03  0.25500000000E-02 0.  1.
          2    1    1    2    0  502 -0.16052758777E+02  0.17743295263E+02 -0.50471409497E+03  0.50528094488E+03  0.25500000000E-02 0. -1.
         -2    1    1    2  502    0  0.16052758777E+02 -0.17743295263E+02 -0.20669123552E+03  0.20807158008E+03  0.25500000000E-02 0. -1.
<mgrwt>
<rscale>  0 0.52671440E+02</rscale>
<asrwt>0</asrwt>
<pdfrwt beam="2">  1        2 0.10959634E+00 0.52671440E+02</pdfrwt>
<pdfrwt beam="1">  1       -2 0.14978476E-03 0.52671440E+02</pdfrwt>
<totfact> 0.97106376E+05</totfact>
</mgrwt>
</event>
<event>
 4    1  0.4604841E-002  0.4765066E+02  0.7818608E-02  0.1458441E+00
         -2   -1    0    0  501    0 -0.00000000000E+00  0.00000000000E+00  0.19911279073E+02  0.19911279237E+02  0.25500000000E-02 0.  1.
          2   -1    0    0    0  501  0.00000000000E+00 -0.00000000000E+00 -0.28508779189E+02  0.28508779303E+02  0.25500000000E-02 0.  1.
          2    1    1    2    0  502  0.10075315624E+02 -0.21103529178E+02  0.33284292750E+00  0.23387640317E+02  0.25500000000E-02 0. -1.
         -2    1    1    2  502    0 -0.10075315624E+02  0.21103529178E+02 -0.89303430435E+01  0.25032418223E+02  0.25500000000E-02 0. -1.
<mgrwt>
<rscale>  0 0.47650656E+02</rscale>
<asrwt>0</asrwt>
<pdfrwt beam="2">  1        2 0.43859661E-02 0.47650656E+02</pdfrwt>
<pdfrwt beam="1">  1       -2 0.30632737E-02 0.47650656E+02</pdfrwt>
<totfact> 0.52795429E+05</totfact>
</mgrwt>
</event>
<event>
 4    1  0.4604841E-002  0.4237910E+02  0.7818608E-02  0.1491400E+00
          2   -1    0    0    0  501  0.00000000000E+00  0.00000000000E+00  0.13509632894E+04  0.13509632894E+04  0.25500000000E-02 0. -1.
         -2   -1    0    0  501    0 -0.00000000000E+00 -0.00000000000E+00 -0.33234832876E+00  0.33235811127E+00  0.25500000000E-02 0. -1.
          2    1    1    2    0  502 -0.17508703141E+02  0.11912580259E+02  0.69858872552E+03  0.69890963055E+03  0.25500000000E-02 0. -1.
         -2    1    1    2  502    0  0.17508703141E+02 -0.11912580259E+02  0.65204221554E+03  0.65238601695E+03  0.25500000000E-02 0. -1.
<mgrwt>
<rscale>  0 0.42379099E+02</rscale>
<asrwt>0</asrwt>
<pdfrwt beam="1">  1        2 0.20784040E+00 0.42379099E+02</pdfrwt>
<pdfrwt beam="2">  1       -2 0.51131292E-04 0.42379099E+02</pdfrwt>
<totfact> 0.16949490E+06</totfact>
</mgrwt>
</event>
<event>
 4    1  0.4604841E-002  0.4962295E+02  0.7818608E-02  0.1447386E+00
         -2   -1    0    0  501    0 -0.00000000000E+00  0.00000000000E+00  0.12158622139E+02  0.12158622406E+02  0.25500000000E-02 0. -1.
          2   -1    0    0    0  501  0.00000000000E+00 -0.00000000000E+00 -0.50631492348E+02  0.50631492413E+02  0.25500000000E-02 0. -1.
          2    1    1    2    0  502 -0.21886700016E+01  0.24484629519E+02 -0.14978813892E+02  0.28786320209E+02  0.25500000000E-02 0. -1.
         -2    1    1    2  502    0  0.21886700016E+01 -0.24484629519E+02 -0.23494056318E+02  0.34003794610E+02  0.25500000000E-02 0. -1.
<mgrwt>
<rscale>  0 0.49622946E+02</rscale>
<asrwt>0</asrwt>
<pdfrwt beam="2">  1        2 0.77894603E-02 0.49622946E+02</pdfrwt>
<pdfrwt beam="1">  1       -2 0.18705573E-02 0.49622946E+02</pdfrwt>
<totfact> 0.52431578E+05</totfact>
</mgrwt>
</event>
<event>
 4    1  0.4604841E-002  0.7167479E+02  0.7818608E-02  0.1354489E+00
         -2   -1    0    0  501    0 -0.00000000000E+00  0.00000000000E+00  0.49310691262E+02  0.49310691328E+02  0.25500000000E-02 0.  1.
          2   -1    0    0    0  501  0.00000000000E+00 -0.00000000000E+00 -0.26045447162E+02  0.26045447287E+02  0.25500000000E-02 0.  1.
          2    1    1    2    0  502 -0.28296783543E+02 -0.20135099404E+02  0.23360142855E+01  0.34807860551E+02  0.25500000000E-02 0. -1.
         -2    1    1    2  502    0  0.28296783543E+02  0.20135099404E+02  0.20929229814E+02  0.40548278064E+02  0.25500000000E-02 0. -1.
<mgrwt>
<rscale>  0 0.71674794E+02</rscale>
<asrwt>0</asrwt>
<pdfrwt beam="2">  1        2 0.40069919E-02 0.71674794E+02</pdfrwt>
<pdfrwt beam="1">  1       -2 0.75862601E-02 0.71674794E+02</pdfrwt>
<totfact> 0.17179488E+05</totfact>
</mgrwt>
</event>
<event>
 4    1  0.4604841E-002  0.4969002E+02  0.7818608E-02  0.1447021E+00
          2   -1    0    0    0  501  0.00000000000E+00  0.00000000000E+00  0.83335696460E+03  0.83335696460E+03  0.25500000000E-02 0. -1.
         -2   -1    0    0  501    0 -0.00000000000E+00 -0.00000000000E+00 -0.74070609866E+00  0.74071048804E+00  0.25500000000E-02 0. -1.
          2    1    1    2    0  502  0.17838490195E+02 -0.11757862542E+02  0.62917668947E+03  0.62953932811E+03  0.25500000000E-02 0.  1.
         -2    1    1    2  502    0 -0.17838490195E+02  0.11757862542E+02  0.20343956903E+03  0.20455834698E+03  0.25500000000E-02 0.  1.
<mgrwt>
<rscale>  0 0.49690016E+02</rscale>
<asrwt>0</asrwt>
<pdfrwt beam="1">  1        2 0.12820817E+00 0.49690016E+02</pdfrwt>
<pdfrwt beam="2">  1       -2 0.11395565E-03 0.49690016E+02</pdfrwt>
<totfact> 0.11546396E+06</totfact>
</mgrwt>
</event>
<event>
 4    1  0.4604841E-002  0.4782188E+02  0.7818608E-02  0.1457457E+00
          2   -1    0    0    0  501  0.00000000000E+00  0.00000000000E+00  0.32806289234E+03  0.32806289235E+03  0.25500000000E-02 0. -1.
         -2   -1    0    0  501    0 -0.00000000000E+00 -0.00000000000E+00 -0.17427534728E+01  0.17427553383E+01  0.25500000000E-02 0. -1.
          2    1    1    2    0  502 -0.23794729599E+02  0.18510881843E+01  0.15312479731E+03  0.15497360821E+03  0.25500000000E-02 0. -1.
         -2    1    1    2  502    0  0.23794729599E+02 -0.18510881843E+01  0.17319534156E+03  0.17483203948E+03  0.25500000000E-02 0. -1.
<mgrwt>
<rscale>  0 0.47821880E+02</rscale>
<asrwt>0</asrwt>
<pdfrwt beam="1">  1        2 0.50471253E-01 0.47821880E+02</pdfrwt>
<pdfrwt beam="2">  1       -2 0.26811586E-03 0.47821880E+02</pdfrwt>
<totfact> 0.97459688E+05</totfact>
</mgrwt>
</event>
<event>
 4    1  0.4604841E-002  0.1140908E+03  0.7818608E-02  0.1253177E+00
          2   -1    0    0    0  501  0.00000000000E+00  0.00000000000E+00  0.13793548722E+04  0.13793548722E+04  0.25500000000E-02 0. -1.
         -2   -1    0    0  501    0 -0.00000000000E+00 -0.00000000000E+00 -0.23592018622E+01  0.23592032404E+01  0.25500000000E-02 0. -1.
          2    1    1    2    0  502  0.47625940093E+00 -0.55224850255E+02  0.51545248424E+03  0.51840261807E+03  0.25500000000E-02 0. -1.
         -2    1    1    2  502    0 -0.47625940093E+00  0.55224850255E+02  0.86154318610E+03  0.86331145737E+03  0.25500000000E-02 0. -1.
<mgrwt>
<rscale>  0 0.11409080E+03</rscale>
<asrwt>0</asrwt>
<pdfrwt beam="1">  1        2 0.21220906E+00 0.11409080E+03</pdfrwt>
<pdfrwt beam="2">  1       -2 0.36295319E-03 0.11409080E+03</pdfrwt>
<totfact> 0.13343714E+05</totfact>
</mgrwt>
</event>
<event>
 4    1  0.4604841E-002  0.5669613E+02  0.7818608E-02  0.1412244E+00
         -2   -1    0    0  501    0 -0.00000000000E+00  0.00000000000E+00  0.15688915781E+03  0.15688915783E+03  0.25500000000E-02 0.  1.
          2   -1    0    0    0  501  0.00000000000E+00 -0.00000000000E+00 -0.51221690031E+01  0.51221696378E+01  0.25500000000E-02 0.  1.
          2    1    1    2    0  502 -0.23534481589E+02  0.14720526893E+02  0.59456482297E+02  0.65617368351E+02  0.25500000000E-02 0. -1.
         -2    1    1    2  502    0  0.23534481589E+02 -0.14720526893E+02  0.92310506508E+02  0.96393959115E+02  0.25500000000E-02 0. -1.
<mgrwt>
<rscale>  0 0.56696132E+02</rscale>
<asrwt>0</asrwt>
<pdfrwt beam="2">  1        2 0.78802621E-03 0.56696132E+02</pdfrwt>
<pdfrwt beam="1">  1       -2 0.24136789E-01 0.56696132E+02</pdfrwt>
<totfact> 0.22663438E+05</totfact>
</mgrwt>
</event>
<event>
 4    1  0.4604841E-002  0.4537580E+02  0.7818608E-02  0.1472009E+00
          2   -1    0    0    0  501  0.00000000000E+00  0.00000000000E+00  0.12055660201E+03  0.12055660204E+03  0.25500000000E-02 0.  1.
         -2   -1    0    0  501    0 -0.00000000000E+00 -0.00000000000E+00 -0.42697027613E+01  0.42697035228E+01  0.25500000000E-02 0.  1.
          2    1    1    2    0  502 -0.21745686080E+02 -0.51917856524E+01  0.68766297426E+02  0.72309288266E+02  0.25500000000E-02 0.  1.
         -2    1    1    2  502    0  0.21745686080E+02  0.51917856524E+01  0.47520601822E+02  0.52517017293E+02  0.25500000000E-02 0.  1.
<mgrwt>
<rscale>  0 0.45375804E+02</rscale>
<asrwt>0</asrwt>
<pdfrwt beam="1">  1        2 0.18547171E-01 0.45375804E+02</pdfrwt>
<pdfrwt beam="2">  1       -2 0.65687735E-03 0.45375804E+02</pdfrwt>
<totfact> 0.80336526E+05</totfact>
</mgrwt>
</event>
<event>
 4    1  0.4604841E-002  0.6634861E+02  0.7818608E-02  0.1372969E+00
         -2   -1    0    0  501    0 -0.00000000000E+00  0.00000000000E+00  0.17699084260E+01  0.17699102629E+01  0.25500000000E-02 0. -1.
          2   -1    0    0    0  501  0.00000000000E+00 -0.00000000000E+00 -0.62180280783E+03  0.62180280783E+03  0.25500000000E-02 0. -1.
          2    1    1    2    0  502  0.54765497103E+01  0.28571766939E+02 -0.16017232130E+03  0.16279284683E+03  0.25500000000E-02 0.  1.
         -2    1    1    2  502    0 -0.54765497103E+01 -0.28571766939E+02 -0.45986057810E+03  0.46077987127E+03  0.25500000000E-02 0.  1.
<mgrwt>
<rscale>  0 0.66348613E+02</rscale>
<asrwt>0</asrwt>
<pdfrwt beam="2">  1        2 0.95661796E-01 0.66348613E+02</pdfrwt>
<pdfrwt beam="1">  1       -2 0.27229424E-03 0.66348613E+02</pdfrwt>
<totfact> 0.52536172E+05</totfact>
</mgrwt>
</event>
<event>
 4    1  0.4604841E-002  0.7649141E+02  0.7818608E-02  0.1339314E+00
          2   -1    0    0    0  501  0.00000000000E+00  0.00000000000E+00  0.14562101061E+04  0.14562101061E+04  0.25500000000E-02 0.  1.
         -2   -1    0    0  501    0 -0.00000000000E+00 -0.00000000000E+00 -0.10044783972E+01  0.10044816339E+01  0.25500000000E-02 0.  1.
          2    1    1    2    0  502 -0.33832115793E+02  0.17359041348E+02  0.64955173595E+03  0.65066381954E+03  0.25500000000E-02 0. -1.
         -2    1    1    2  502    0  0.33832115793E+02 -0.17359041348E+02  0.80565389171E+03  0.80655076815E+03  0.25500000000E-02 0. -1.
<mgrwt>
<rscale>  0 0.76491410E+02</rscale>
<asrwt>0</asrwt>
<pdfrwt beam="1">  1        2 0.22403137E+00 0.76491410E+02</pdfrwt>
<pdfrwt beam="2">  1       -2 0.15453604E-03 0.76491410E+02</pdfrwt>
<totfact> 0.37726347E+05</totfact>
</mgrwt>
</event>
<event>
 4    1  0.4604841E-002  0.8208789E+02  0.7818608E-02  0.1323229E+00
          2   -1    0    0    0  501  0.00000000000E+00  0.00000000000E+00  0.36886206717E+03  0.36886206718E+03  0.25500000000E-02 0.  1.
         -2   -1    0    0  501    0 -0.00000000000E+00 -0.00000000000E+00 -0.45670325994E+01  0.45670333113E+01  0.25500000000E-02 0.  1.
          2    1    1    2    0  502 -0.26342863562E+02 -0.26251032915E+02  0.10315189685E+03  0.10965116060E+03  0.25500000000E-02 0. -1.
         -2    1    1    2  502    0  0.26342863562E+02  0.26251032915E+02  0.26114313772E+03  0.26377793990E+03  0.25500000000E-02 0. -1.
<mgrwt>
<rscale>  0 0.82087885E+02</rscale>
<asrwt>0</asrwt>
<pdfrwt beam="1">  1        2 0.56748012E-01 0.82087885E+02</pdfrwt>
<pdfrwt beam="2">  1       -2 0.70262043E-03 0.82087885E+02</pdfrwt>
<totfact> 0.25586806E+05</totfact>
</mgrwt>
</event>
<event>
 4    1  0.4604841E-002  0.6085575E+02  0.7818608E-02  0.1394275E+00
         -2   -1    0    0  501    0 -0.00000000000E+00  0.00000000000E+00  0.76205970960E+03  0.76205970961E+03  0.25500000000E-02 0. -1.
          2   -1    0    0    0  501  0.00000000000E+00 -0.00000000000E+00 -0.12149370482E+01  0.12149397242E+01  0.25500000000E-02 0. -1.
          2    1    1    2    0  502  0.22256398238E+00  0.30141380284E+02  0.32824971652E+03  0.32963074605E+03  0.25500000000E-02 0.  1.
         -2    1    1    2  502    0 -0.22256398238E+00 -0.30141380284E+02  0.43259505603E+03  0.43364390328E+03  0.25500000000E-02 0.  1.
<mgrwt>
<rscale>  0 0.60855751E+02</rscale>
<asrwt>0</asrwt>
<pdfrwt beam="2">  1        2 0.18691277E-03 0.60855751E+02</pdfrwt>
<pdfrwt beam="1">  1       -2 0.11724048E+00 0.60855751E+02</pdfrwt>
<totfact> 0.70276756E+04</totfact>
</mgrwt>
</event>
<event>
 4    1  0.4604841E-002  0.6529592E+02  0.7818608E-02  0.1376862E+00
         -2   -1    0    0  501    0 -0.00000000000E+00  0.00000000000E+00  0.71614862896E+00  0.71615316886E+00  0.25500000000E-02 0. -1.
          2   -1    0    0    0  501  0.00000000000E+00 -0.00000000000E+00 -0.14883583079E+04  0.14883583079E+04  0.25500000000E-02 0. -1.
          2    1    1    2    0  502 -0.30693446479E+01  0.31341711910E+02 -0.54742584782E+03  0.54833090616E+03  0.25500000000E-02 0.  1.
         -2    1    1    2  502    0  0.30693446479E+01 -0.31341711910E+02 -0.94021631146E+03  0.94074355492E+03  0.25500000000E-02 0.  1.
<mgrwt>
<rscale>  0 0.65295915E+02</rscale>
<asrwt>0</asrwt>
<pdfrwt beam="2">  1        2 0.22897573E+00 0.65295915E+02</pdfrwt>
<pdfrwt beam="1">  1       -2 0.11017825E-03 0.65295915E+02</pdfrwt>
<totfact> 0.56214196E+05</totfact>
</mgrwt>
</event>
<event>
 4    1  0.4604841E-002  0.5745146E+02  0.7818608E-02  0.1408849E+00
         -2   -1    0    0  501    0 -0.00000000000E+00  0.00000000000E+00  0.88633957850E+00  0.88634324666E+00  0.25500000000E-02 0. -1.
          2   -1    0    0    0  501  0.00000000000E+00 -0.00000000000E+00 -0.93098163424E+03  0.93098163425E+03  0.25500000000E-02 0. -1.
          2    1    1    2    0  502 -0.25115886868E+01  0.20434469734E+02 -0.14012234342E+03  0.14162678688E+03  0.25500000000E-02 0. -1.
         -2    1    1    2  502    0  0.25115886868E+01 -0.20434469734E+02 -0.78997295125E+03  0.79024119061E+03  0.25500000000E-02 0. -1.
<mgrwt>
<rscale>  0 0.57451461E+02</rscale>
<asrwt>0</asrwt>
<pdfrwt beam="2">  1        2 0.14322716E+00 0.57451461E+02</pdfrwt>
<pdfrwt beam="1">  1       -2 0.13636096E-03 0.57451461E+02</pdfrwt>
<totfact> 0.81572406E+05</totfact>
</mgrwt>
</event>
<event>
 4    1  0.4604841E-002  0.4614588E+02  0.7818608E-02  0.1467312E+00
         -2   -1    0    0  501    0 -0.00000000000E+00  0.00000000000E+00  0.30706587250E+02  0.30706587355E+02  0.25500000000E-02 0. -1.
          2   -1    0    0    0  501  0.00000000000E+00 -0.00000000000E+00 -0.17337012945E+02  0.17337013133E+02  0.25500000000E-02 0. -1.
          2    1    1    2    0  502 -0.19188060934E+02  0.89881196098E+01  0.16192284151E+02  0.26667546739E+02  0.25500000000E-02 0.  1.
         -2    1    1    2  502    0  0.19188060934E+02 -0.89881196098E+01 -0.28227098469E+01  0.21376053750E+02  0.25500000000E-02 0.  1.
<mgrwt>
<rscale>  0 0.46145878E+02</rscale>
<asrwt>0</asrwt>
<pdfrwt beam="2">  1        2 0.26672328E-02 0.46145878E+02</pdfrwt>
<pdfrwt beam="1">  1       -2 0.47240904E-02 0.46145878E+02</pdfrwt>
<totfact> 0.53312575E+05</totfact>
</mgrwt>
</event>
<event>
 4    1  0.4604841E-002  0.4341408E+02  0.7818608E-02  0.1484492E+00
          2   -1    0    0    0  501  0.00000000000E+00  0.00000000000E+00  0.11203864069E+01  0.11203893088E+01  0.25500000000E-02 0.  1.
         -2   -1    0    0  501    0 -0.00000000000E+00 -0.00000000000E+00 -0.42056470128E+03  0.42056470129E+03  0.25500000000E-02 0.  1.
          2    1    1    2    0  502  0.13495807517E+02 -0.15911603139E+02 -0.15154108524E+03  0.15297063920E+03  0.25500000000E-02 0. -1.
         -2    1    1    2  502    0 -0.13495807517E+02  0.15911603139E+02 -0.26790322964E+03  0.26871445140E+03  0.25500000000E-02 0. -1.
<mgrwt>
<rscale>  0 0.43414080E+02</rscale>
<asrwt>0</asrwt>
<pdfrwt beam="1">  1        2 0.17236770E-03 0.43414080E+02</pdfrwt>
<pdfrwt beam="2">  1       -2 0.64702136E-01 0.43414080E+02</pdfrwt>
<totfact> 0.26566028E+05</totfact>
</mgrwt>
</event>
<event>
 4    1  0.4604841E-002  0.5573309E+02  0.7818608E-02  0.1416664E+00
         -2   -1    0    0  501    0 -0.00000000000E+00  0.00000000000E+00  0.10235373657E+01  0.10235405422E+01  0.25500000000E-02 0. -1.
          2   -1    0    0    0  501  0.00000000000E+00 -0.00000000000E+00 -0.75868559987E+03  0.75868559988E+03  0.25500000000E-02 0. -1.
          2    1    1    2    0  502  0.12999830525E+02 -0.19307617170E+02 -0.58768875495E+03  0.58814951532E+03  0.25500000000E-02 0.  1.
         -2    1    1    2  502    0 -0.12999830525E+02  0.19307617170E+02 -0.16997330756E+03  0.17155962509E+03  0.25500000000E-02 0.  1.
<mgrwt>
<rscale>  0 0.55733088E+02</rscale>
<asrwt>0</asrwt>
<pdfrwt beam="2">  1        2 0.11672041E+00 0.55733088E+02</pdfrwt>
<pdfrwt beam="1">  1       -2 0.15746814E-03 0.55733088E+02</pdfrwt>
<totfact> 0.85454504E+05</totfact>
</mgrwt>
</event>
<event>
 4    1  0.4604841E-002  0.5516014E+02  0.7818608E-02  0.1419343E+00
          2   -1    0    0    0  501  0.00000000000E+00  0.00000000000E+00  0.57527556002E+03  0.57527556003E+03  0.25500000000E-02 0.  1.
         -2   -1    0    0  501    0 -0.00000000000E+00 -0.00000000000E+00 -0.13222524235E+01  0.13222548824E+01  0.25500000000E-02 0.  1.
          2    1    1    2    0  502 -0.16633446578E+01 -0.25945881103E+02  0.19077079570E+03  0.19253428775E+03  0.25500000000E-02 0.  1.
         -2    1    1    2  502    0  0.16633446578E+01  0.25945881103E+02  0.38318251190E+03  0.38406352716E+03  0.25500000000E-02 0.  1.
<mgrwt>
<rscale>  0 0.55160138E+02</rscale>
<asrwt>0</asrwt>
<pdfrwt beam="1">  1        2 0.88504037E-01 0.55160138E+02</pdfrwt>
<pdfrwt beam="2">  1       -2 0.20342340E-03 0.55160138E+02</pdfrwt>
<totfact> 0.82008866E+05</totfact>
</mgrwt>
</event>
<event>
 4    1  0.4604841E-002  0.8539748E+02  0.7818608E-02  0.1314396E+00
          2   -1    0    0    0  501  0.00000000000E+00  0.00000000000E+00  0.12369695886E+04  0.12369695886E+04  0.25500000000E-02 0.  1.
         -2   -1    0    0  501    0 -0.00000000000E+00 -0.00000000000E+00 -0.14739093645E+01  0.14739115704E+01  0.25500000000E-02 0.  1.
          2    1    1    2    0  502 -0.35209070164E+01  0.30063327499E+02  0.10544953795E+04  0.10549297160E+04  0.25500000000E-02 0.  1.
         -2    1    1    2  502    0  0.35209070164E+01 -0.30063327499E+02  0.18100029978E+03  0.18351378416E+03  0.25500000000E-02 0.  1.
<mgrwt>
<rscale>  0 0.85397481E+02</rscale>
<asrwt>0</asrwt>
<pdfrwt beam="1">  1        2 0.19030305E+00 0.85397481E+02</pdfrwt>
<pdfrwt beam="2">  1       -2 0.22675542E-03 0.85397481E+02</pdfrwt>
<totfact> 0.29420299E+05</totfact>
</mgrwt>
</event>
<event>
 4    1  0.4604841E-002  0.4425024E+02  0.7818608E-02  0.1479077E+00
         -2   -1    0    0  501    0 -0.00000000000E+00  0.00000000000E+00  0.47895814479E+01  0.47895821267E+01  0.25500000000E-02 0.  1.
          2   -1    0    0    0  501  0.00000000000E+00 -0.00000000000E+00 -0.10220536149E+03  0.10220536152E+03  0.25500000000E-02 0.  1.
          2    1    1    2    0  502 -0.24029159214E+01 -0.21989503391E+02 -0.47603358448E+02  0.52491827996E+02  0.25500000000E-02 0. -1.
         -2    1    1    2  502    0  0.24029159214E+01  0.21989503391E+02 -0.49812421597E+02  0.54503115656E+02  0.25500000000E-02 0. -1.
<mgrwt>
<rscale>  0 0.44250240E+02</rscale>
<asrwt>0</asrwt>
<pdfrwt beam="2">  1        2 0.15723900E-01 0.44250240E+02</pdfrwt>
<pdfrwt beam="1">  1       -2 0.73685882E-03 0.44250240E+02</pdfrwt>
<totfact> 0.81837251E+05</totfact>
</mgrwt>
</event>
<event>
 4    1  0.4604841E-002  0.7181201E+02  0.7818608E-02  0.1354037E+00
          2   -1    0    0    0  501  0.00000000000E+00  0.00000000000E+00  0.11225015448E+03  0.11225015451E+03  0.25500000000E-02 0.  1.
         -2   -1    0    0  501    0 -0.00000000000E+00 -0.00000000000E+00 -0.11485427432E+02  0.11485427715E+02  0.25500000000E-02 0.  1.
          2    1    1    2    0  502  0.26033880082E+02 -0.13098285633E+02  0.86521765295E+02  0.91298104443E+02  0.25500000000E-02 0. -1.
         -2    1    1    2  502    0 -0.26033880082E+02  0.13098285633E+02  0.14242961752E+02  0.32437477778E+02  0.25500000000E-02 0. -1.
<mgrwt>
<rscale>  0 0.71812005E+02</rscale>
<asrwt>0</asrwt>
<pdfrwt beam="1">  1        2 0.17269255E-01 0.71812005E+02</pdfrwt>
<pdfrwt beam="2">  1       -2 0.17669888E-02 0.71812005E+02</pdfrwt>
<totfact> 0.24191907E+05</totfact>
</mgrwt>
</event>
<event>
 4    1  0.4604841E-002  0.4302788E+02  0.7818608E-02  0.1487043E+00
          2   -1    0    0    0  501  0.00000000000E+00  0.00000000000E+00  0.21767452828E+03  0.21767452830E+03  0.25500000000E-02 0. -1.
         -2   -1    0    0  501    0 -0.00000000000E+00 -0.00000000000E+00 -0.21263375981E+01  0.21263391271E+01  0.25500000000E-02 0. -1.
          2    1    1    2    0  502  0.55425232455E+01 -0.20145499329E+02  0.81582234217E+02  0.84215329089E+02  0.25500000000E-02 0.  1.
         -2    1    1    2  502    0 -0.55425232455E+01  0.20145499329E+02  0.13396595647E+03  0.13558553834E+03  0.25500000000E-02 0.  1.
<mgrwt>
<rscale>  0 0.43027884E+02</rscale>
<asrwt>0</asrwt>
<pdfrwt beam="1">  1        2 0.33488394E-01 0.43027884E+02</pdfrwt>
<pdfrwt beam="2">  1       -2 0.32712893E-03 0.43027884E+02</pdfrwt>
<totfact> 0.10986826E+06</totfact>
</mgrwt>
</event>
<event>
 4    1  0.4604841E-002  0.6962518E+02  0.7818608E-02  0.1361372E+00
          2   -1    0    0    0  501  0.00000000000E+00  0.00000000000E+00  0.17389400239E+03  0.17389400241E+03  0.25500000000E-02 0.  1.
         -2   -1    0    0  501    0 -0.00000000000E+00 -0.00000000000E+00 -0.69692819639E+01  0.69692824304E+01  0.25500000000E-02 0.  1.
          2    1    1    2    0  502  0.27936802370E+02 -0.20612442074E+02  0.76799612464E+02  0.84282371680E+02  0.25500000000E-02 0.  1.
         -2    1    1    2  502    0 -0.27936802370E+02  0.20612442074E+02  0.90125107967E+02  0.96580913164E+02  0.25500000000E-02 0.  1.
<mgrwt>
<rscale>  0 0.69625179E+02</rscale>
<asrwt>0</asrwt>
<pdfrwt beam="1">  1        2 0.26752925E-01 0.69625179E+02</pdfrwt>
<pdfrwt beam="2">  1       -2 0.10721972E-02 0.69625179E+02</pdfrwt>
<totfact> 0.30122414E+05</totfact>
</mgrwt>
</event>
<event>
 4    1  0.4604841E-002  0.4870592E+02  0.7818608E-02  0.1452449E+00
         -2   -1    0    0  501    0 -0.00000000000E+00  0.00000000000E+00  0.36930308711E+02  0.36930308799E+02  0.25500000000E-02 0. -1.
          2   -1    0    0    0  501  0.00000000000E+00 -0.00000000000E+00 -0.16059078752E+02  0.16059078955E+02  0.25500000000E-02 0. -1.
          2    1    1    2    0  502  0.16016837248E+02  0.12438725389E+02  0.25104967804E+02  0.32272594870E+02  0.25500000000E-02 0. -1.
         -2    1    1    2  502    0 -0.16016837248E+02 -0.12438725389E+02 -0.42337378455E+01  0.20716792883E+02  0.25500000000E-02 0. -1.
<mgrwt>
<rscale>  0 0.48705923E+02</rscale>
<asrwt>0</asrwt>
<pdfrwt beam="2">  1        2 0.24706276E-02 0.48705923E+02</pdfrwt>
<pdfrwt beam="1">  1       -2 0.56815859E-02 0.48705923E+02</pdfrwt>
<totfact> 0.45632009E+05</totfact>
</mgrwt>
</event>
<event>
 4    1  0.4604841E-002  0.4111587E+02  0.7818608E-02  0.1500157E+00
          2   -1    0    0    0  501  0.00000000000E+00  0.00000000000E+00  0.71705149624E+00  0.71705603042E+00  0.25500000000E-02 0. -1.
         -2   -1    0    0  501    0 -0.00000000000E+00 -0.00000000000E+00 -0.58939622618E+03  0.58939622619E+03  0.25500000000E-02 0. -1.
          2    1    1    2    0  502  0.20494591385E+02 -0.16120607799E+01 -0.29373698268E+03  0.29445550091E+03  0.25500000000E-02 0. -1.
         -2    1    1    2  502    0 -0.20494591385E+02  0.16120607799E+01 -0.29494219201E+03  0.29565778131E+03  0.25500000000E-02 0. -1.
<mgrwt>
<rscale>  0 0.41115875E+02</rscale>
<asrwt>0</asrwt>
<pdfrwt beam="1">  1        2 0.11031644E-03 0.41115875E+02</pdfrwt>
<pdfrwt beam="2">  1       -2 0.90675956E-01 0.41115875E+02</pdfrwt>
<totfact> 0.23301365E+05</totfact>
</mgrwt>
</event>
<event>
 4    1  0.4604841E-002  0.5598468E+02  0.7818608E-02  0.1415499E+00
         -2   -1    0    0  501    0 -0.00000000000E+00  0.00000000000E+00  0.38324632977E+02  0.38324633062E+02  0.25500000000E-02 0.  1.
          2   -1    0    0    0  501  0.00000000000E+00 -0.00000000000E+00 -0.20445627602E+02  0.20445627761E+02  0.25500000000E-02 0.  1.
          2    1    1    2    0  502  0.29491442950E+00 -0.26987738304E+02  0.11439642547E+01  0.27013582769E+02  0.25500000000E-02 0. -1.
         -2    1    1    2  502    0 -0.29491442950E+00  0.26987738304E+02  0.16735041120E+02  0.31756678055E+02  0.25500000000E-02 0. -1.
<mgrwt>
<rscale>  0 0.55984683E+02</rscale>
<asrwt>0</asrwt>
<pdfrwt beam="2">  1        2 0.31454813E-02 0.55984683E+02</pdfrwt>
<pdfrwt beam="1">  1       -2 0.58960973E-02 0.55984683E+02</pdfrwt>
<totfact> 0.32577636E+05</totfact>
</mgrwt>
</event>
<event>
 4    1  0.4604841E-002  0.2220258E+03  0.7818608E-02  0.1132382E+00
         -2   -1    0    0  501    0 -0.00000000000E+00  0.00000000000E+00  0.60501620827E+01  0.60501626201E+01  0.25500000000E-02 0. -1.
          2   -1    0    0    0  501  0.00000000000E+00 -0.00000000000E+00 -0.20369477723E+04  0.20369477723E+04  0.25500000000E-02 0. -1.
          2    1    1    2    0  502  0.49685931523E+02  0.56284323100E+02 -0.17679170594E+04  0.17695104819E+04  0.25500000000E-02 0.  1.
         -2    1    1    2  502    0 -0.49685931523E+02 -0.56284323100E+02 -0.26298055090E+03  0.27348745305E+03  0.25500000000E-02 0.  1.
<mgrwt>
<rscale>  0 0.22202581E+03</rscale>
<asrwt>0</asrwt>
<pdfrwt beam="2">  1        2 0.31337603E+00 0.22202581E+03</pdfrwt>
<pdfrwt beam="1">  1       -2 0.93079583E-03 0.22202581E+03</pdfrwt>
<totfact> 0.16703332E+04</totfact>
</mgrwt>
</event>
<event>
 4    1  0.4604841E-002  0.7670057E+02  0.7818608E-02  0.1338684E+00
         -2   -1    0    0  501    0 -0.00000000000E+00  0.00000000000E+00  0.42821802297E+01  0.42821809890E+01  0.25500000000E-02 0. -1.
          2   -1    0    0    0  501  0.00000000000E+00 -0.00000000000E+00 -0.34345688528E+03  0.34345688529E+03  0.25500000000E-02 0. -1.
          2    1    1    2    0  502 -0.30091319617E+02 -0.18584582277E+02 -0.10236122952E+03  0.10829910216E+03  0.25500000000E-02 0. -1.
         -2    1    1    2  502    0  0.30091319617E+02  0.18584582277E+02 -0.23681347553E+03  0.23943996411E+03  0.25500000000E-02 0. -1.
<mgrwt>
<rscale>  0 0.76700572E+02</rscale>
<asrwt>0</asrwt>
<pdfrwt beam="2">  1        2 0.52839499E-01 0.76700572E+02</pdfrwt>
<pdfrwt beam="1">  1       -2 0.65879729E-03 0.76700572E+02</pdfrwt>
<totfact> 0.29794345E+05</totfact>
</mgrwt>
</event>
<event>
 4    1  0.4604841E-002  0.4730930E+02  0.7818608E-02  0.1460419E+00
          2   -1    0    0    0  501  0.00000000000E+00  0.00000000000E+00  0.16037260387E+02  0.16037260590E+02  0.25500000000E-02 0.  1.
         -2   -1    0    0  501    0 -0.00000000000E+00 -0.00000000000E+00 -0.34890154098E+02  0.34890154191E+02  0.25500000000E-02 0.  1.
          2    1    1    2    0  502  0.91420680218E+01  0.21209167880E+02 -0.39230990149E+01  0.23426415053E+02  0.25500000000E-02 0. -1.
         -2    1    1    2  502    0 -0.91420680218E+01 -0.21209167880E+02 -0.14929794696E+02  0.27500999728E+02  0.25500000000E-02 0. -1.
<mgrwt>
<rscale>  0 0.47309301E+02</rscale>
<asrwt>0</asrwt>
<pdfrwt beam="1">  1        2 0.24672709E-02 0.47309301E+02</pdfrwt>
<pdfrwt beam="2">  1       -2 0.53677160E-02 0.47309301E+02</pdfrwt>
<totfact> 0.49317870E+05</totfact>
</mgrwt>
</event>
<event>
 4    1  0.4604841E-002  0.6459065E+02  0.7818608E-02  0.1379518E+00
         -2   -1    0    0  501    0 -0.00000000000E+00  0.00000000000E+00  0.25923356921E+01  0.25923369463E+01  0.25500000000E-02 0. -1.
          2   -1    0    0    0  501  0.00000000000E+00 -0.00000000000E+00 -0.40233508579E+03  0.40233508580E+03  0.25500000000E-02 0. -1.
          2    1    1    2    0  502 -0.21722524799E+02 -0.16309937859E+02 -0.90366683891E+02  0.94361113392E+02  0.25500000000E-02 0. -1.
         -2    1    1    2  502    0  0.21722524799E+02  0.16309937859E+02 -0.30937606621E+03  0.31056630935E+03  0.25500000000E-02 0. -1.
<mgrwt>
<rscale>  0 0.64590645E+02</rscale>
<asrwt>0</asrwt>
<pdfrwt beam="2">  1        2 0.61897656E-01 0.64590645E+02</pdfrwt>
<pdfrwt beam="1">  1       -2 0.39882129E-03 0.64590645E+02</pdfrwt>
<totfact> 0.49111839E+05</totfact>
</mgrwt>
</event>
<event>
 4    1  0.4604841E-002  0.5239066E+02  0.7818608E-02  0.1432858E+00
         -2   -1    0    0  501    0 -0.00000000000E+00  0.00000000000E+00  0.14706574238E+01  0.14706596346E+01  0.25500000000E-02 0.  1.
          2   -1    0    0    0  501  0.00000000000E+00 -0.00000000000E+00 -0.46659044094E+03  0.46659044095E+03  0.25500000000E-02 0.  1.
          2    1    1    2    0  502 -0.54611636720E+01  0.25116061180E+02 -0.27772273806E+03  0.27890959123E+03  0.25500000000E-02 0. -1.
         -2    1    1    2  502    0  0.54611636720E+01 -0.25116061180E+02 -0.18739704545E+03  0.18915150935E+03  0.25500000000E-02 0. -1.
<mgrwt>
<rscale>  0 0.52390656E+02</rscale>
<asrwt>0</asrwt>
<pdfrwt beam="2">  1        2 0.71783027E-01 0.52390656E+02</pdfrwt>
<pdfrwt beam="1">  1       -2 0.22625553E-03 0.52390656E+02</pdfrwt>
<totfact> 0.87516794E+05</totfact>
</mgrwt>
</event>
<event>
 4    1  0.4604841E-002  0.8419317E+02  0.7818608E-02  0.1317556E+00
          2   -1    0    0    0  501  0.00000000000E+00  0.00000000000E+00  0.31923312521E+04  0.31923312521E+04  0.25500000000E-02 0.  1.
         -2   -1    0    0  501    0 -0.00000000000E+00 -0.00000000000E+00 -0.55511570426E+00  0.55512156111E+00  0.25500000000E-02 0.  1.
          2    1    1    2    0  502  0.26374665525E+02  0.22036373832E+02  0.25177434128E+04  0.25179779819E+04  0.25500000000E-02 0. -1.
         -2    1    1    2  502    0 -0.26374665525E+02 -0.22036373832E+02  0.67403272361E+03  0.67490839175E+03  0.25500000000E-02 0. -1.
<mgrwt>
<rscale>  0 0.84193172E+02</rscale>
<asrwt>0</asrwt>
<pdfrwt beam="1">  1        2 0.49113160E+00 0.84193172E+02</pdfrwt>
<pdfrwt beam="2">  1       -2 0.85402220E-04 0.84193172E+02</pdfrwt>
<totfact> 0.10618544E+05</totfact>
</mgrwt>
</event>
<event>
 4    1  0.4604841E-002  0.5807498E+02  0.7818608E-02  0.1406092E+00
         -2   -1    0    0  501    0 -0.00000000000E+00  0.00000000000E+00  0.73079533955E+00  0.73079978845E+00  0.25500000000E-02 0. -1.
          2   -1    0    0    0  501  0.00000000000E+00 -0.00000000000E+00 -0.11537746564E+04  0.11537746564E+04  0.25500000000E-02 0. -1.
          2    1    1    2    0  502 -0.18876230651E+02  0.16913224687E+02 -0.85822772602E+03  0.85860188619E+03  0.25500000000E-02 0.  1.
         -2    1    1    2  502    0  0.18876230651E+02 -0.16913224687E+02 -0.29481613505E+03  0.29590357001E+03  0.25500000000E-02 0.  1.
<mgrwt>
<rscale>  0 0.58074976E+02</rscale>
<asrwt>0</asrwt>
<pdfrwt beam="2">  1        2 0.17750234E+00 0.58074976E+02</pdfrwt>
<pdfrwt beam="1">  1       -2 0.11243132E-03 0.58074976E+02</pdfrwt>
<totfact> 0.79636507E+05</totfact>
</mgrwt>
</event>
<event>
 4    1  0.4604841E-002  0.6138701E+02  0.7818608E-02  0.1392102E+00
          2   -1    0    0    0  501  0.00000000000E+00  0.00000000000E+00  0.57247763734E+03  0.57247763734E+03  0.25500000000E-02 0. -1.
         -2   -1    0    0  501    0 -0.00000000000E+00 -0.00000000000E+00 -0.16456375197E+01  0.16456394953E+01  0.25500000000E-02 0. -1.
          2    1    1    2    0  502 -0.23990406214E+02  0.91096438431E+01  0.12792498418E+03  0.13047347157E+03  0.25500000000E-02 0.  1.
         -2    1    1    2  502    0  0.23990406214E+02 -0.91096438431E+01  0.44290701564E+03  0.44364980527E+03  0.25500000000E-02 0.  1.
<mgrwt>
<rscale>  0 0.61387010E+02</rscale>
<asrwt>0</asrwt>
<pdfrwt beam="1">  1        2 0.88073498E-01 0.61387010E+02</pdfrwt>
<pdfrwt beam="2">  1       -2 0.25317511E-03 0.61387010E+02</pdfrwt>
<totfact> 0.62568940E+05</totfact>
</mgrwt>
</event>
<event>
 4    1  0.4604841E-002  0.4507932E+02  0.7818608E-02  0.1473847E+00
          2   -1    0    0    0  501  0.00000000000E+00  0.00000000000E+00  0.70744809379E+03  0.70744809379E+03  0.25500000000E-02 0.  1.
         -2   -1    0    0  501    0 -0.00000000000E+00 -0.00000000000E+00 -0.71812277904E+00  0.71812730646E+00  0.25500000000E-02 0.  1.
          2    1    1    2    0  502 -0.21803118685E+02  0.43256767381E+01  0.29469376118E+03  0.29553087884E+03  0.25500000000E-02 0.  1.
         -2    1    1    2  502    0  0.21803118685E+02 -0.43256767381E+01  0.41203620983E+03  0.41263534226E+03  0.25500000000E-02 0.  1.
<mgrwt>
<rscale>  0 0.45079317E+02</rscale>
<asrwt>0</asrwt>
<pdfrwt beam="1">  1        2 0.10883826E+00 0.45079317E+02</pdfrwt>
<pdfrwt beam="2">  1       -2 0.11048069E-03 0.45079317E+02</pdfrwt>
<totfact> 0.14220494E+06</totfact>
</mgrwt>
</event>
<event>
 4    1  0.4604841E-002  0.9812756E+02  0.7818608E-02  0.1284283E+00
         -2   -1    0    0  501    0 -0.00000000000E+00  0.00000000000E+00  0.43530979338E+02  0.43530979412E+02  0.25500000000E-02 0. -1.
          2   -1    0    0    0  501  0.00000000000E+00 -0.00000000000E+00 -0.55299801473E+02  0.55299801532E+02  0.25500000000E-02 0. -1.
          2    1    1    2    0  502 -0.16485788656E+02  0.15728944465E+02  0.37878951630E+02  0.44204025888E+02  0.25500000000E-02 0.  1.
         -2    1    1    2  502    0  0.16485788656E+02 -0.15728944465E+02 -0.49647773765E+02  0.54626755056E+02  0.25500000000E-02 0.  1.
<mgrwt>
<rscale>  0 0.98127560E+02</rscale>
<asrwt>0</asrwt>
<pdfrwt beam="2">  1        2 0.85076618E-02 0.98127560E+02</pdfrwt>
<pdfrwt beam="1">  1       -2 0.66970737E-02 0.98127560E+02</pdfrwt>
<totfact> 0.84142748E+04</totfact>
</mgrwt>
</event>
<event>
 4    1  0.4604841E-002  0.4811266E+02  0.7818608E-02  0.1455796E+00
         -2   -1    0    0  501    0 -0.00000000000E+00  0.00000000000E+00  0.92639921658E+00  0.92640272613E+00  0.25500000000E-02 0.  1.
          2   -1    0    0    0  501  0.00000000000E+00 -0.00000000000E+00 -0.62468309958E+03  0.62468309959E+03  0.25500000000E-02 0.  1.
          2    1    1    2    0  502 -0.20938214148E+02  0.11841403968E+02 -0.30821511410E+03  0.30915236409E+03  0.25500000000E-02 0.  1.
         -2    1    1    2  502    0  0.20938214148E+02 -0.11841403968E+02 -0.31554158627E+03  0.31645713823E+03  0.25500000000E-02 0.  1.
<mgrwt>
<rscale>  0 0.48112661E+02</rscale>
<asrwt>0</asrwt>
<pdfrwt beam="2">  1        2 0.96104756E-01 0.48112661E+02</pdfrwt>
<pdfrwt beam="1">  1       -2 0.14252373E-03 0.48112661E+02</pdfrwt>
<totfact> 0.11769932E+06</totfact>
</mgrwt>
</event>
<event>
 4    1  0.4604841E-002  0.5525703E+02  0.7818608E-02  0.1418887E+00
         -2   -1    0    0  501    0 -0.00000000000E+00  0.00000000000E+00  0.17275724350E+01  0.17275743169E+01  0.25500000000E-02 0. -1.
          2   -1    0    0    0  501  0.00000000000E+00 -0.00000000000E+00 -0.44185383801E+03  0.44185383802E+03  0.25500000000E-02 0. -1.
          2    1    1    2    0  502 -0.10659407136E+02  0.24996905801E+02 -0.26009395702E+03  0.26150972208E+03  0.25500000000E-02 0.  1.
         -2    1    1    2  502    0  0.10659407136E+02 -0.24996905801E+02 -0.18003230856E+03  0.18207169025E+03  0.25500000000E-02 0.  1.
<mgrwt>
<rscale>  0 0.55257033E+02</rscale>
<asrwt>0</asrwt>
<pdfrwt beam="2">  1        2 0.67977424E-01 0.55257033E+02</pdfrwt>
<pdfrwt beam="1">  1       -2 0.26578087E-03 0.55257033E+02</pdfrwt>
<totfact> 0.75259618E+05</totfact>
</mgrwt>
</event>
<event>
 4    1  0.4604841E-002  0.8221384E+02  0.7818608E-02  0.1322884E+00
         -2   -1    0    0  501    0 -0.00000000000E+00  0.00000000000E+00  0.11657257351E+02  0.11657257630E+02  0.25500000000E-02 0.  1.
          2   -1    0    0    0  501  0.00000000000E+00 -0.00000000000E+00 -0.14495509137E+03  0.14495509139E+03  0.25500000000E-02 0.  1.
          2    1    1    2    0  502  0.39757338593E+02  0.99264407096E+01 -0.72850546605E+02  0.83584581977E+02  0.25500000000E-02 0. -1.
         -2    1    1    2  502    0 -0.39757338593E+02 -0.99264407096E+01 -0.60447287410E+02  0.73027767040E+02  0.25500000000E-02 0. -1.
<mgrwt>
<rscale>  0 0.82213839E+02</rscale>
<asrwt>0</asrwt>
<pdfrwt beam="2">  1        2 0.22300782E-01 0.82213839E+02</pdfrwt>
<pdfrwt beam="1">  1       -2 0.17934243E-02 0.82213839E+02</pdfrwt>
<totfact> 0.18269020E+05</totfact>
</mgrwt>
</event>
<event>
 4    1  0.4604841E-002  0.5890412E+02  0.7818608E-02  0.1402489E+00
         -2   -1    0    0  501    0 -0.00000000000E+00  0.00000000000E+00  0.72892138834E+02  0.72892138878E+02  0.25500000000E-02 0.  1.
          2   -1    0    0    0  501  0.00000000000E+00 -0.00000000000E+00 -0.11900099804E+02  0.11900100077E+02  0.25500000000E-02 0.  1.
          2    1    1    2    0  502  0.12239389659E+02  0.24021994271E+02  0.47562691704E+02  0.54672374346E+02  0.25500000000E-02 0.  1.
         -2    1    1    2  502    0 -0.12239389659E+02 -0.24021994271E+02  0.13429347326E+02  0.30119864610E+02  0.25500000000E-02 0.  1.
<mgrwt>
<rscale>  0 0.58904117E+02</rscale>
<asrwt>0</asrwt>
<pdfrwt beam="2">  1        2 0.18307846E-02 0.58904117E+02</pdfrwt>
<pdfrwt beam="1">  1       -2 0.11214175E-01 0.58904117E+02</pdfrwt>
<totfact> 0.25459980E+05</totfact>
</mgrwt>
</event>
<event>
 4    1  0.4604841E-002  0.4685465E+02  0.7818608E-02  0.1463085E+00
         -2   -1    0    0  501    0 -0.00000000000E+00  0.00000000000E+00  0.14986423076E+01  0.14986444770E+01  0.25500000000E-02 0. -1.
          2   -1    0    0    0  501  0.00000000000E+00 -0.00000000000E+00 -0.36622418497E+03  0.36622418498E+03  0.25500000000E-02 0. -1.
          2    1    1    2    0  502 -0.15687900103E+02  0.17398415374E+02 -0.18113723889E+03  0.18264587152E+03  0.25500000000E-02 0. -1.
         -2    1    1    2  502    0  0.15687900103E+02 -0.17398415374E+02 -0.18358830378E+03  0.18507695794E+03  0.25500000000E-02 0. -1.
<mgrwt>
<rscale>  0 0.46854646E+02</rscale>
<asrwt>0</asrwt>
<pdfrwt beam="2">  1        2 0.56342111E-01 0.46854646E+02</pdfrwt>
<pdfrwt beam="1">  1       -2 0.23056081E-03 0.46854646E+02</pdfrwt>
<totfact> 0.10644669E+06</totfact>
</mgrwt>
</event>
<event>
 4    1  0.4604841E-002  0.1085188E+03  0.7818608E-02  0.1263338E+00
          2   -1    0    0    0  501  0.00000000000E+00  0.00000000000E+00  0.12258672230E+04  0.12258672230E+04  0.25500000000E-02 0.  1.
         -2   -1    0    0  501    0 -0.00000000000E+00 -0.00000000000E+00 -0.24016330737E+01  0.24016344275E+01  0.25500000000E-02 0.  1.
          2    1    1    2    0  502  0.18956558888E+02  0.32105652442E+02  0.16555468064E+03  0.16970113828E+03  0.25500000000E-02 0. -1.
         -2    1    1    2  502    0 -0.18956558888E+02 -0.32105652442E+02  0.10579109093E+04  0.10585677192E+04  0.25500000000E-02 0. -1.
<mgrwt>
<rscale>  0 0.10851883E+03</rscale>
<asrwt>0</asrwt>
<pdfrwt beam="1">  1        2 0.18859522E+00 0.10851883E+03</pdfrwt>
<pdfrwt beam="2">  1       -2 0.36948160E-03 0.10851883E+03</pdfrwt>
<totfact> 0.15622110E+05</totfact>
</mgrwt>
</event>
<event>
 4    1  0.4604841E-002  0.9460802E+02  0.7818608E-02  0.1292061E+00
          2   -1    0    0    0  501  0.00000000000E+00  0.00000000000E+00  0.43848836867E+03  0.43848836868E+03  0.25500000000E-02 0. -1.
         -2   -1    0    0  501    0 -0.00000000000E+00 -0.00000000000E+00 -0.51031442092E+01  0.51031448463E+01  0.25500000000E-02 0. -1.
          2    1    1    2    0  502 -0.15888658784E+01  0.41824367024E+02  0.32004347707E+03  0.32276869333E+03  0.25500000000E-02 0. -1.
         -2    1    1    2  502    0  0.15888658784E+01 -0.41824367024E+02  0.11334174739E+03  0.12082282020E+03  0.25500000000E-02 0. -1.
<mgrwt>
<rscale>  0 0.94608023E+02</rscale>
<asrwt>0</asrwt>
<pdfrwt beam="1">  1        2 0.67459759E-01 0.94608023E+02</pdfrwt>
<pdfrwt beam="2">  1       -2 0.78509905E-03 0.94608023E+02</pdfrwt>
<totfact> 0.18690927E+05</totfact>
</mgrwt>
</event>
<event>
 4    1  0.4604841E-002  0.5771841E+02  0.7818608E-02  0.1407664E+00
         -2   -1    0    0  501    0 -0.00000000000E+00  0.00000000000E+00  0.33920478930E+01  0.33920488515E+01  0.25500000000E-02 0.  1.
          2   -1    0    0    0  501  0.00000000000E+00 -0.00000000000E+00 -0.24553119557E+03  0.24553119559E+03  0.25500000000E-02 0.  1.
          2    1    1    2    0  502 -0.16421727674E+02  0.20421977856E+02 -0.68936787410E+02  0.73749650740E+02  0.25500000000E-02 0. -1.
         -2    1    1    2  502    0  0.16421727674E+02 -0.20421977856E+02 -0.17320236027E+03  0.17517359370E+03  0.25500000000E-02 0. -1.
<mgrwt>
<rscale>  0 0.57718409E+02</rscale>
<asrwt>0</asrwt>
<pdfrwt beam="2">  1        2 0.37774016E-01 0.57718409E+02</pdfrwt>
<pdfrwt beam="1">  1       -2 0.52185379E-03 0.57718409E+02</pdfrwt>
<totfact> 0.54966343E+05</totfact>
</mgrwt>
</event>
<event>
 4    1  0.4604841E-002  0.6304737E+02  0.7818608E-02  0.1385471E+00
          2   -1    0    0    0  501  0.00000000000E+00  0.00000000000E+00  0.49457524030E+03  0.49457524031E+03  0.25500000000E-02 0. -1.
         -2   -1    0    0  501    0 -0.00000000000E+00 -0.00000000000E+00 -0.20092843756E+01  0.20092859937E+01  0.25500000000E-02 0. -1.
          2    1    1    2    0  502 -0.12266345319E+02  0.23258346688E+02  0.38323421422E+03  0.38413523253E+03  0.25500000000E-02 0.  1.
         -2    1    1    2  502    0  0.12266345319E+02 -0.23258346688E+02  0.10933174171E+03  0.11244929377E+03  0.25500000000E-02 0.  1.
<mgrwt>
<rscale>  0 0.63047370E+02</rscale>
<asrwt>0</asrwt>
<pdfrwt beam="1">  1        2 0.76088562E-01 0.63047370E+02</pdfrwt>
<pdfrwt beam="2">  1       -2 0.30912054E-03 0.63047370E+02</pdfrwt>
<totfact> 0.55942642E+05</totfact>
</mgrwt>
</event>
<event>
 4    1  0.4604841E-002  0.4892643E+02  0.7818608E-02  0.1451220E+00
         -2   -1    0    0  501    0 -0.00000000000E+00  0.00000000000E+00  0.93927752015E+00  0.93928098158E+00  0.25500000000E-02 0.  1.
          2   -1    0    0    0  501  0.00000000000E+00 -0.00000000000E+00 -0.63713615538E+03  0.63713615539E+03  0.25500000000E-02 0.  1.
          2    1    1    2    0  502 -0.13483862848E+02  0.16133733949E+02 -0.48116285630E+03  0.48162205745E+03  0.25500000000E-02 0. -1.
         -2    1    1    2  502    0  0.13483862848E+02 -0.16133733949E+02 -0.15503402156E+03  0.15645337892E+03  0.25500000000E-02 0. -1.
<mgrwt>
<rscale>  0 0.48926425E+02</rscale>
<asrwt>0</asrwt>
<pdfrwt beam="2">  1        2 0.98020602E-01 0.48926425E+02</pdfrwt>
<pdfrwt beam="1">  1       -2 0.14450501E-03 0.48926425E+02</pdfrwt>
<totfact> 0.11351220E+06</totfact>
</mgrwt>
</event>
<event>
 4    1  0.4604841E-002  0.6034478E+02  0.7818608E-02  0.1396391E+00
          2   -1    0    0    0  501  0.00000000000E+00  0.00000000000E+00  0.30656369724E+03  0.30656369725E+03  0.25500000000E-02 0.  1.
         -2   -1    0    0  501    0 -0.00000000000E+00 -0.00000000000E+00 -0.29696044724E+01  0.29696055672E+01  0.25500000000E-02 0.  1.
          2    1    1    2    0  502  0.12404117207E+02  0.27189888921E+02  0.17308312680E+03  0.17564430242E+03  0.25500000000E-02 0.  1.
         -2    1    1    2  502    0 -0.12404117207E+02 -0.27189888921E+02  0.13051096597E+03  0.13388900040E+03  0.25500000000E-02 0.  1.
<mgrwt>
<rscale>  0 0.60344779E+02</rscale>
<asrwt>0</asrwt>
<pdfrwt beam="1">  1        2 0.47163672E-01 0.60344779E+02</pdfrwt>
<pdfrwt beam="2">  1       -2 0.45686206E-03 0.60344779E+02</pdfrwt>
<totfact> 0.53093060E+05</totfact>
</mgrwt>
</event>
<event>
 4    1  0.4604841E-002  0.4674175E+02  0.7818608E-02  0.1463752E+00
         -2   -1    0    0  501    0 -0.00000000000E+00  0.00000000000E+00  0.11866592776E+01  0.11866620174E+01  0.25500000000E-02 0. -1.
          2   -1    0    0    0  501  0.00000000000E+00 -0.00000000000E+00 -0.46028142805E+03  0.46028142806E+03  0.25500000000E-02 0. -1.
          2    1    1    2    0  502 -0.16814577657E+02 -0.14066501157E+02 -0.14958363263E+03  0.15118154528E+03  0.25500000000E-02 0. -1.
         -2    1    1    2  502    0  0.16814577657E+02  0.14066501157E+02 -0.30951113615E+03  0.31028654480E+03  0.25500000000E-02 0. -1.
<mgrwt>
<rscale>  0 0.46741753E+02</rscale>
<asrwt>0</asrwt>
<pdfrwt beam="2">  1        2 0.70812385E-01 0.46741753E+02</pdfrwt>
<pdfrwt beam="1">  1       -2 0.18256355E-03 0.46741753E+02</pdfrwt>
<totfact> 0.11554276E+06</totfact>
</mgrwt>
</event>
<event>
 4    1  0.4604841E-002  0.1285428E+03  0.7818608E-02  0.1229634E+00
         -2   -1    0    0  501    0 -0.00000000000E+00  0.00000000000E+00  0.41686148412E+03  0.41686148412E+03  0.25500000000E-02 0.  1.
          2   -1    0    0    0  501  0.00000000000E+00 -0.00000000000E+00 -0.99093244192E+01  0.99093247473E+01  0.25500000000E-02 0.  1.
          2    1    1    2    0  502 -0.45676802260E+02 -0.44560415954E+02  0.17801421765E+03  0.18910595609E+03  0.25500000000E-02 0. -1.
         -2    1    1    2  502    0  0.45676802260E+02  0.44560415954E+02  0.22893794205E+03  0.23766485278E+03  0.25500000000E-02 0. -1.
<mgrwt>
<rscale>  0 0.12854285E+03</rscale>
<asrwt>0</asrwt>
<pdfrwt beam="2">  1        2 0.15245117E-02 0.12854285E+03</pdfrwt>
<pdfrwt beam="1">  1       -2 0.64132526E-01 0.12854285E+03</pdfrwt>
<totfact> 0.16942529E+04</totfact>
</mgrwt>
</event>
<event>
 4    1  0.4604841E-002  0.1000383E+03  0.7818608E-02  0.1280215E+00
         -2   -1    0    0  501    0 -0.00000000000E+00  0.00000000000E+00  0.13022642513E+01  0.13022667479E+01  0.25500000000E-02 0. -1.
          2   -1    0    0    0  501  0.00000000000E+00 -0.00000000000E+00 -0.19212040934E+04  0.19212040934E+04  0.25500000000E-02 0. -1.
          2    1    1    2    0  502 -0.23204169596E+02  0.39873945827E+02 -0.58852068522E+03  0.59032614882E+03  0.25500000000E-02 0. -1.
         -2    1    1    2  502    0  0.23204169596E+02 -0.39873945827E+02 -0.13313811439E+04  0.13321802113E+04  0.25500000000E-02 0. -1.
<mgrwt>
<rscale>  0 0.10003835E+03</rscale>
<asrwt>0</asrwt>
<pdfrwt beam="2">  1        2 0.29556759E+00 0.10003835E+03</pdfrwt>
<pdfrwt beam="1">  1       -2 0.20035008E-03 0.10003835E+03</pdfrwt>
<totfact> 0.15945163E+05</totfact>
</mgrwt>
</event>
<event>
 4    1  0.4604841E-002  0.4423557E+02  0.7818608E-02  0.1479171E+00
         -2   -1    0    0  501    0 -0.00000000000E+00  0.00000000000E+00  0.81078508076E+01  0.81078512086E+01  0.25500000000E-02 0. -1.
          2   -1    0    0    0  501  0.00000000000E+00 -0.00000000000E+00 -0.60336141889E+02  0.60336141943E+02  0.25500000000E-02 0. -1.
          2    1    1    2    0  502 -0.69954291958E+01 -0.18948704516E+02 -0.12171009550E+02  0.23582258425E+02  0.25500000000E-02 0.  1.
         -2    1    1    2  502    0  0.69954291958E+01  0.18948704516E+02 -0.40057281531E+02  0.44861734726E+02  0.25500000000E-02 0.  1.
<mgrwt>
<rscale>  0 0.44235572E+02</rscale>
<asrwt>0</asrwt>
<pdfrwt beam="2">  1        2 0.92824831E-02 0.44235572E+02</pdfrwt>
<pdfrwt beam="1">  1       -2 0.12473617E-02 0.44235572E+02</pdfrwt>
<totfact> 0.72658489E+05</totfact>
</mgrwt>
</event>
<event>
 4    1  0.4604841E-002  0.4866074E+02  0.7818608E-02  0.1452702E+00
         -2   -1    0    0  501    0 -0.00000000000E+00  0.00000000000E+00  0.40783546424E+00  0.40784343613E+00  0.25500000000E-02 0.  1.
          2   -1    0    0    0  501  0.00000000000E+00 -0.00000000000E+00 -0.14514703031E+04  0.14514703031E+04  0.25500000000E-02 0.  1.
          2    1    1    2    0  502 -0.11369038591E+02 -0.21507957083E+02 -0.71521312116E+03  0.71562675742E+03  0.25500000000E-02 0. -1.
         -2    1    1    2  502    0  0.11369038591E+02  0.21507957083E+02 -0.73584934646E+03  0.73625138910E+03  0.25500000000E-02 0. -1.
<mgrwt>
<rscale>  0 0.48660738E+02</rscale>
<asrwt>0</asrwt>
<pdfrwt beam="2">  1        2 0.22329899E+00 0.48660738E+02</pdfrwt>
<pdfrwt beam="1">  1       -2 0.62745693E-04 0.48660738E+02</pdfrwt>
<totfact> 0.11852652E+06</totfact>
</mgrwt>
</event>
<event>
 4    1  0.4604841E-002  0.6535141E+02  0.7818608E-02  0.1376654E+00
          2   -1    0    0    0  501  0.00000000000E+00  0.00000000000E+00  0.12787230170E+04  0.12787230170E+04  0.25500000000E-02 0. -1.
         -2   -1    0    0  501    0 -0.00000000000E+00 -0.00000000000E+00 -0.83497313365E+00  0.83497702748E+00  0.25500000000E-02 0. -1.
          2    1    1    2    0  502 -0.26148013965E+02  0.15582625328E+02  0.40631253171E+03  0.40745111398E+03  0.25500000000E-02 0. -1.
         -2    1    1    2  502    0  0.26148013965E+02 -0.15582625328E+02  0.87157551216E+03  0.87210688006E+03  0.25500000000E-02 0. -1.
<mgrwt>
<rscale>  0 0.65351415E+02</rscale>
<asrwt>0</asrwt>
<pdfrwt beam="1">  1        2 0.19672761E+00 0.65351415E+02</pdfrwt>
<pdfrwt beam="2">  1       -2 0.12845705E-03 0.65351415E+02</pdfrwt>
<totfact> 0.58368825E+05</totfact>
</mgrwt>
</event>
<event>
 4    1  0.4604841E-002  0.8038193E+02  0.7818608E-02  0.1327971E+00
          2   -1    0    0    0  501  0.00000000000E+00  0.00000000000E+00  0.86135286514E+02  0.86135286551E+02  0.25500000000E-02 0. -1.
         -2   -1    0    0  501    0 -0.00000000000E+00 -0.00000000000E+00 -0.18753215948E+02  0.18753216122E+02  0.25500000000E-02 0. -1.
          2    1    1    2    0  502 -0.10431697319E+02 -0.37227921259E+02  0.48019460488E+02  0.61649063434E+02  0.25500000000E-02 0.  1.
         -2    1    1    2  502    0  0.10431697319E+02  0.37227921259E+02  0.19362610077E+02  0.43239439239E+02  0.25500000000E-02 0.  1.
<mgrwt>
<rscale>  0 0.80381929E+02</rscale>
<asrwt>0</asrwt>
<pdfrwt beam="1">  1        2 0.13251582E-01 0.80381929E+02</pdfrwt>
<pdfrwt beam="2">  1       -2 0.28851102E-02 0.80381929E+02</pdfrwt>
<totfact> 0.16576468E+05</totfact>
</mgrwt>
</event>
<event>
 4    1  0.4604841E-002  0.9846363E+02  0.7818608E-02  0.1283560E+00
         -2   -1    0    0  501    0 -0.00000000000E+00  0.00000000000E+00  0.63467766812E+01  0.63467771935E+01  0.25500000000E-02 0.  1.
          2   -1    0    0    0  501  0.00000000000E+00 -0.00000000000E+00 -0.38189014756E+03  0.38189014757E+03  0.25500000000E-02 0.  1.
          2    1    1    2    0  502  0.93638211696E+01 -0.24511632896E+02 -0.35202137697E+03  0.35299794779E+03  0.25500000000E-02 0.  1.
         -2    1    1    2  502    0 -0.93638211696E+01  0.24511632896E+02 -0.23521993912E+02  0.35238976975E+02  0.25500000000E-02 0.  1.
<mgrwt>
<rscale>  0 0.98463630E+02</rscale>
<asrwt>0</asrwt>
<pdfrwt beam="2">  1        2 0.58752313E-01 0.98463630E+02</pdfrwt>
<pdfrwt beam="1">  1       -2 0.97642752E-03 0.98463630E+02</pdfrwt>
<totfact> 0.15990470E+05</totfact>
</mgrwt>
</event>
<event>
 4    1  0.4604841E-002  0.8300374E+02  0.7818608E-02  0.1320737E+00
          2   -1    0    0    0  501  0.00000000000E+00  0.00000000000E+00  0.48100130421E+01  0.48100137180E+01  0.25500000000E-02 0. -1.
         -2   -1    0    0  501    0 -0.00000000000E+00 -0.00000000000E+00 -0.35808741879E+03  0.35808741880E+03  0.25500000000E-02 0. -1.
          2    1    1    2    0  502 -0.40877885654E+02 -0.71484332544E+01 -0.17422954690E+03  0.17910342446E+03  0.25500000000E-02 0. -1.
         -2    1    1    2  502    0  0.40877885654E+02  0.71484332544E+01 -0.17904785885E+03  0.18379400806E+03  0.25500000000E-02 0. -1.
<mgrwt>
<rscale>  0 0.83003742E+02</rscale>
<asrwt>0</asrwt>
<pdfrwt beam="1">  1        2 0.74000234E-03 0.83003742E+02</pdfrwt>
<pdfrwt beam="2">  1       -2 0.55090351E-01 0.83003742E+02</pdfrwt>
<totfact> 0.58442634E+04</totfact>
</mgrwt>
</event>
<event>
 4    1  0.4604841E-002  0.4091797E+02  0.7818608E-02  0.1501563E+00
          2   -1    0    0    0  501  0.00000000000E+00  0.00000000000E+00  0.11829600747E+04  0.11829600747E+04  0.25500000000E-02 0. -1.
         -2   -1    0    0  501    0 -0.00000000000E+00 -0.00000000000E+00 -0.35382819431E+00  0.35383738297E+00  0.25500000000E-02 0. -1.
          2    1    1    2    0  502  0.50246749602E+01  0.19592206872E+02  0.68028836913E+03  0.68058898545E+03  0.25500000000E-02 0.  1.
         -2    1    1    2  502    0 -0.50246749602E+01 -0.19592206872E+02  0.50231787741E+03  0.50272492667E+03  0.25500000000E-02 0.  1.
<mgrwt>
<rscale>  0 0.40917970E+02</rscale>
<asrwt>0</asrwt>
<pdfrwt beam="1">  1        2 0.18199572E+00 0.40917970E+02</pdfrwt>
<pdfrwt beam="2">  1       -2 0.54435258E-04 0.40917970E+02</pdfrwt>
<totfact> 0.18827641E+06</totfact>
</mgrwt>
</event>
<event>
 4    1  0.4604841E-002  0.6964489E+02  0.7818608E-02  0.1361305E+00
          2   -1    0    0    0  501  0.00000000000E+00  0.00000000000E+00  0.55443120176E+03  0.55443120176E+03  0.25500000000E-02 0. -1.
         -2   -1    0    0  501    0 -0.00000000000E+00 -0.00000000000E+00 -0.21871106658E+01  0.21871121524E+01  0.25500000000E-02 0. -1.
          2    1    1    2    0  502 -0.18589438905E+01 -0.30209432649E+02  0.41375038902E+03  0.41485593874E+03  0.25500000000E-02 0.  1.
         -2    1    1    2  502    0  0.18589438905E+01  0.30209432649E+02  0.13849370207E+03  0.14176237517E+03  0.25500000000E-02 0.  1.
<mgrwt>
<rscale>  0 0.69644894E+02</rscale>
<asrwt>0</asrwt>
<pdfrwt beam="1">  1        2 0.85297047E-01 0.69644894E+02</pdfrwt>
<pdfrwt beam="2">  1       -2 0.33647892E-03 0.69644894E+02</pdfrwt>
<totfact> 0.44924029E+05</totfact>
</mgrwt>
</event>
<event>
 4    1  0.4604841E-002  0.1243300E+03  0.7818608E-02  0.1236120E+00
         -2   -1    0    0  501    0 -0.00000000000E+00  0.00000000000E+00  0.23099099343E+01  0.23099113418E+01  0.25500000000E-02 0.  1.
          2   -1    0    0    0  501  0.00000000000E+00 -0.00000000000E+00 -0.16730023977E+04  0.16730023978E+04  0.25500000000E-02 0.  1.
          2    1    1    2    0  502 -0.37691475074E+02 -0.88542829376E+01 -0.14907001897E+04  0.14912029041E+04  0.25500000000E-02 0.  1.
         -2    1    1    2  502    0  0.37691475074E+02  0.88542829376E+01 -0.17999229813E+03  0.18410940501E+03  0.25500000000E-02 0.  1.
<mgrwt>
<rscale>  0 0.12432998E+03</rscale>
<asrwt>0</asrwt>
<pdfrwt beam="2">  1        2 0.25738402E+00 0.12432998E+03</pdfrwt>
<pdfrwt beam="1">  1       -2 0.35537220E-03 0.12432998E+03</pdfrwt>
<totfact> 0.97816819E+04</totfact>
</mgrwt>
</event>
<event>
 4    1  0.4604841E-002  0.4686217E+02  0.7818608E-02  0.1463040E+00
          2   -1    0    0    0  501  0.00000000000E+00  0.00000000000E+00  0.19766042084E+03  0.19766042086E+03  0.25500000000E-02 0. -1.
         -2   -1    0    0  501    0 -0.00000000000E+00 -0.00000000000E+00 -0.27775695996E+01  0.27775707702E+01  0.25500000000E-02 0. -1.
          2    1    1    2    0  502  0.98372133021E+01 -0.19337553702E+02  0.13528999543E+03  0.13701859224E+03  0.25500000000E-02 0. -1.
         -2    1    1    2  502    0 -0.98372133021E+01  0.19337553702E+02  0.59592855807E+02  0.63419399386E+02  0.25500000000E-02 0. -1.
<mgrwt>
<rscale>  0 0.46862168E+02</rscale>
<asrwt>0</asrwt>
<pdfrwt beam="1">  1        2 0.30409303E-01 0.46862168E+02</pdfrwt>
<pdfrwt beam="2">  1       -2 0.42731839E-03 0.46862168E+02</pdfrwt>
<totfact> 0.86193677E+05</totfact>
</mgrwt>
</event>
<event>
 4    1  0.4604841E-002  0.4179233E+02  0.7818608E-02  0.1495421E+00
          2   -1    0    0    0  501  0.00000000000E+00  0.00000000000E+00  0.24638715961E+02  0.24638716093E+02  0.25500000000E-02 0. -1.
         -2   -1    0    0  501    0 -0.00000000000E+00 -0.00000000000E+00 -0.17722098917E+02  0.17722099101E+02  0.25500000000E-02 0. -1.
          2    1    1    2    0  502 -0.62033997099E+01  0.19929179511E+02  0.24470411090E+01  0.21015289211E+02  0.25500000000E-02 0.  1.
         -2    1    1    2  502    0  0.62033997099E+01 -0.19929179511E+02  0.44695759347E+01  0.21345525983E+02  0.25500000000E-02 0.  1.
<mgrwt>
<rscale>  0 0.41792333E+02</rscale>
<asrwt>0</asrwt>
<pdfrwt beam="1">  1        2 0.37905717E-02 0.41792333E+02</pdfrwt>
<pdfrwt beam="2">  1       -2 0.27264768E-02 0.41792333E+02</pdfrwt>
<totfact> 0.72482949E+05</totfact>
</mgrwt>
</event>
<event>
 4    1  0.4604841E-002  0.4601156E+02  0.7818608E-02  0.1468124E+00
          2   -1    0    0    0  501  0.00000000000E+00  0.00000000000E+00  0.12429025695E+04  0.12429025695E+04  0.25500000000E-02 0.  1.
         -2   -1    0    0  501    0 -0.00000000000E+00 -0.00000000000E+00 -0.42582673937E+00  0.42583437445E+00  0.25500000000E-02 0.  1.
          2    1    1    2    0  502 -0.20205898395E+02  0.40240160109E+01  0.89786175241E+03  0.89809810014E+03  0.25500000000E-02 0.  1.
         -2    1    1    2  502    0  0.20205898395E+02 -0.40240160109E+01  0.34461499032E+03  0.34523030370E+03  0.25500000000E-02 0.  1.
<mgrwt>
<rscale>  0 0.46011559E+02</rscale>
<asrwt>0</asrwt>
<pdfrwt beam="1">  1        2 0.19121847E+00 0.46011559E+02</pdfrwt>
<pdfrwt beam="2">  1       -2 0.65511471E-04 0.46011559E+02</pdfrwt>
<totfact> 0.14077030E+06</totfact>
</mgrwt>
</event>
<event>
 4    1  0.4604841E-002  0.3216965E+03  0.7818608E-02  0.1074871E+00
         -2   -1    0    0  501    0 -0.00000000000E+00  0.00000000000E+00  0.86852309043E+02  0.86852309080E+02  0.25500000000E-02 0.  1.
          2   -1    0    0    0  501  0.00000000000E+00 -0.00000000000E+00 -0.29788684560E+03  0.29788684561E+03  0.25500000000E-02 0.  1.
          2    1    1    2    0  502  0.93699578778E+02 -0.12959638666E+03 -0.12613953497E+03  0.20368116454E+03  0.25500000000E-02 0. -1.
         -2    1    1    2  502    0 -0.93699578778E+02  0.12959638666E+03 -0.84895001584E+02  0.18105799015E+03  0.25500000000E-02 0. -1.
<mgrwt>
<rscale>  0 0.32169651E+03</rscale>
<asrwt>0</asrwt>
<pdfrwt beam="2">  1        2 0.45828745E-01 0.32169651E+03</pdfrwt>
<pdfrwt beam="1">  1       -2 0.13361894E-01 0.32169651E+03</pdfrwt>
<totfact> 0.45702305E+03</totfact>
</mgrwt>
</event>
<event>
 4    1  0.4604841E-002  0.4503163E+02  0.7818608E-02  0.1474144E+00
         -2   -1    0    0  501    0 -0.00000000000E+00  0.00000000000E+00  0.10709360637E+03  0.10709360640E+03  0.25500000000E-02 0.  1.
          2   -1    0    0    0  501  0.00000000000E+00 -0.00000000000E+00 -0.47338212024E+01  0.47338218892E+01  0.25500000000E-02 0.  1.
          2    1    1    2    0  502  0.57106511283E+01  0.20099614455E+02  0.72009502534E+02  0.74979827282E+02  0.25500000000E-02 0.  1.
         -2    1    1    2  502    0 -0.57106511283E+01 -0.20099614455E+02  0.30350282632E+02  0.36847601006E+02  0.25500000000E-02 0.  1.
<mgrwt>
<rscale>  0 0.45031634E+02</rscale>
<asrwt>0</asrwt>
<pdfrwt beam="2">  1        2 0.72828028E-03 0.45031634E+02</pdfrwt>
<pdfrwt beam="1">  1       -2 0.16475939E-01 0.45031634E+02</pdfrwt>
<totfact> 0.44730214E+05</totfact>
</mgrwt>
</event>
<event>
 4    1  0.4604841E-002  0.4768688E+02  0.7818608E-02  0.1458233E+00
         -2   -1    0    0  501    0 -0.00000000000E+00  0.00000000000E+00  0.38250175109E+00  0.38251025095E+00  0.25500000000E-02 0. -1.
          2   -1    0    0    0  501  0.00000000000E+00 -0.00000000000E+00 -0.14862762336E+04  0.14862762336E+04  0.25500000000E-02 0. -1.
          2    1    1    2    0  502 -0.27999024860E+01  0.23584394300E+02 -0.80868538691E+03  0.80903406486E+03  0.25500000000E-02 0. -1.
         -2    1    1    2  502    0  0.27999024860E+01 -0.23584394300E+02 -0.67720834496E+03  0.67762467900E+03  0.25500000000E-02 0. -1.
<mgrwt>
<rscale>  0 0.47686878E+02</rscale>
<asrwt>0</asrwt>
<pdfrwt beam="2">  1        2 0.22865326E+00 0.47686878E+02</pdfrwt>
<pdfrwt beam="1">  1       -2 0.58848267E-04 0.47686878E+02</pdfrwt>
<totfact> 0.12361426E+06</totfact>
</mgrwt>
</event>
<event>
 4    1  0.4604841E-002  0.6453728E+02  0.7818608E-02  0.1379721E+00
          2   -1    0    0    0  501  0.00000000000E+00  0.00000000000E+00  0.13068884911E+03  0.13068884913E+03  0.25500000000E-02 0. -1.
         -2   -1    0    0  501    0 -0.00000000000E+00 -0.00000000000E+00 -0.79675128866E+01  0.79675132947E+01  0.25500000000E-02 0. -1.
          2    1    1    2    0  502  0.25405805161E+02  0.11884465914E+02  0.27081327703E+02  0.38988380097E+02  0.25500000000E-02 0.  1.
         -2    1    1    2  502    0 -0.25405805161E+02 -0.11884465914E+02  0.95640008517E+02  0.99667982329E+02  0.25500000000E-02 0.  1.
<mgrwt>
<rscale>  0 0.64537280E+02</rscale>
<asrwt>0</asrwt>
<pdfrwt beam="1">  1        2 0.20105976E-01 0.64537280E+02</pdfrwt>
<pdfrwt beam="2">  1       -2 0.12257713E-02 0.64537280E+02</pdfrwt>
<totfact> 0.33516595E+05</totfact>
</mgrwt>
</event>
<event>
 4    1  0.4604841E-002  0.6303972E+02  0.7818608E-02  0.1385501E+00
         -2   -1    0    0  501    0 -0.00000000000E+00  0.00000000000E+00  0.44424047653E+00  0.44424779514E+00  0.25500000000E-02 0.  1.
          2   -1    0    0    0  501  0.00000000000E+00 -0.00000000000E+00 -0.22363864186E+04  0.22363864186E+04  0.25500000000E-02 0.  1.
          2    1    1    2    0  502  0.20663751693E+02 -0.22326199252E+02 -0.14106816951E+04  0.14110096721E+04  0.25500000000E-02 0. -1.
         -2    1    1    2  502    0 -0.20663751693E+02  0.22326199252E+02 -0.82526048302E+03  0.82582099432E+03  0.25500000000E-02 0. -1.
<mgrwt>
<rscale>  0 0.63039719E+02</rscale>
<asrwt>0</asrwt>
<pdfrwt beam="2">  1        2 0.34405044E+00 0.63039719E+02</pdfrwt>
<pdfrwt beam="1">  1       -2 0.68347042E-04 0.63039719E+02</pdfrwt>
<totfact> 0.45561425E+05</totfact>
</mgrwt>
</event>
<event>
 4    1  0.4604841E-002  0.6181061E+02  0.7818608E-02  0.1390387E+00
          2   -1    0    0    0  501  0.00000000000E+00  0.00000000000E+00  0.66907463649E+02  0.66907463697E+02  0.25500000000E-02 0. -1.
         -2   -1    0    0  501    0 -0.00000000000E+00 -0.00000000000E+00 -0.14275503347E+02  0.14275503574E+02  0.25500000000E-02 0. -1.
          2    1    1    2    0  502 -0.22818166060E+02  0.18813041018E+02  0.14528968226E+02  0.32949812426E+02  0.25500000000E-02 0.  1.
         -2    1    1    2  502    0  0.22818166060E+02 -0.18813041018E+02  0.38102992077E+02  0.48233154846E+02  0.25500000000E-02 0.  1.
<mgrwt>
<rscale>  0 0.61810605E+02</rscale>
<asrwt>0</asrwt>
<pdfrwt beam="1">  1        2 0.10293456E-01 0.61810605E+02</pdfrwt>
<pdfrwt beam="2">  1       -2 0.21962313E-02 0.61810605E+02</pdfrwt>
<totfact> 0.31397585E+05</totfact>
</mgrwt>
</event>
<event>
 4    1  0.4604841E-002  0.5942641E+02  0.7818608E-02  0.1400255E+00
          2   -1    0    0    0  501  0.00000000000E+00  0.00000000000E+00  0.57035107091E+03  0.57035107092E+03  0.25500000000E-02 0.  1.
         -2   -1    0    0  501    0 -0.00000000000E+00 -0.00000000000E+00 -0.15479484122E+01  0.15479505126E+01  0.25500000000E-02 0.  1.
          2    1    1    2    0  502  0.16382928260E+02 -0.21827172885E+02  0.39747384927E+03  0.39840969701E+03  0.25500000000E-02 0.  1.
         -2    1    1    2  502    0 -0.16382928260E+02  0.21827172885E+02  0.17132927323E+03  0.17348932441E+03  0.25500000000E-02 0.  1.
<mgrwt>
<rscale>  0 0.59426413E+02</rscale>
<asrwt>0</asrwt>
<pdfrwt beam="1">  1        2 0.87746375E-01 0.59426413E+02</pdfrwt>
<pdfrwt beam="2">  1       -2 0.23814592E-03 0.59426413E+02</pdfrwt>
<totfact> 0.67846017E+05</totfact>
</mgrwt>
</event>
<event>
 4    1  0.4604841E-002  0.8812427E+02  0.7818608E-02  0.1307459E+00
          2   -1    0    0    0  501  0.00000000000E+00  0.00000000000E+00  0.14701722459E+04  0.14701722459E+04  0.25500000000E-02 0. -1.
         -2   -1    0    0  501    0 -0.00000000000E+00 -0.00000000000E+00 -0.13205731981E+01  0.13205756601E+01  0.25500000000E-02 0. -1.
          2    1    1    2    0  502 -0.13150871669E+02 -0.15070949882E+02  0.78855522371E+02  0.81352764986E+02  0.25500000000E-02 0. -1.
         -2    1    1    2  502    0  0.13150871669E+02  0.15070949882E+02  0.13899961503E+04  0.13901400565E+04  0.25500000000E-02 0. -1.
<mgrwt>
<rscale>  0 0.88124273E+02</rscale>
<asrwt>0</asrwt>
<pdfrwt beam="1">  1        2 0.22618038E+00 0.88124273E+02</pdfrwt>
<pdfrwt beam="2">  1       -2 0.20316527E-03 0.88124273E+02</pdfrwt>
<totfact> 0.25997502E+05</totfact>
</mgrwt>
</event>
<event>
 4    1  0.4604841E-002  0.6576093E+02  0.7818608E-02  0.1375132E+00
         -2   -1    0    0  501    0 -0.00000000000E+00  0.00000000000E+00  0.10399153144E+03  0.10399153147E+03  0.25500000000E-02 0.  1.
          2   -1    0    0    0  501  0.00000000000E+00 -0.00000000000E+00 -0.10396278992E+02  0.10396279305E+02  0.25500000000E-02 0.  1.
          2    1    1    2    0  502  0.17613291327E+02 -0.10947601352E+02  0.91180759987E+02  0.93509405971E+02  0.25500000000E-02 0.  1.
         -2    1    1    2  502    0 -0.17613291327E+02  0.10947601352E+02  0.24144924566E+01  0.20878404802E+02  0.25500000000E-02 0.  1.
<mgrwt>
<rscale>  0 0.65760930E+02</rscale>
<asrwt>0</asrwt>
<pdfrwt beam="2">  1        2 0.15994275E-02 0.65760930E+02</pdfrwt>
<pdfrwt beam="1">  1       -2 0.15998698E-01 0.65760930E+02</pdfrwt>
<totfact> 0.17796345E+05</totfact>
</mgrwt>
</event>
<event>
 4    1  0.4604841E-002  0.6207071E+02  0.7818608E-02  0.1389342E+00
          2   -1    0    0    0  501  0.00000000000E+00  0.00000000000E+00  0.85730960314E+02  0.85730960352E+02  0.25500000000E-02 0. -1.
         -2   -1    0    0  501    0 -0.00000000000E+00 -0.00000000000E+00 -0.11235067300E+02  0.11235067590E+02  0.25500000000E-02 0. -1.
          2    1    1    2    0  502 -0.13312926104E+01  0.25137249960E+02  0.88892265106E+01  0.26695917854E+02  0.25500000000E-02 0. -1.
         -2    1    1    2  502    0  0.13312926104E+01 -0.25137249960E+02  0.65606666503E+02  0.70270110087E+02  0.25500000000E-02 0. -1.
<mgrwt>
<rscale>  0 0.62070706E+02</rscale>
<asrwt>0</asrwt>
<pdfrwt beam="1">  1        2 0.13189378E-01 0.62070706E+02</pdfrwt>
<pdfrwt beam="2">  1       -2 0.17284720E-02 0.62070706E+02</pdfrwt>
<totfact> 0.32982756E+05</totfact>
</mgrwt>
</event>
<event>
 4    1  0.4604841E-002  0.4324312E+02  0.7818608E-02  0.1485617E+00
         -2   -1    0    0  501    0 -0.00000000000E+00  0.00000000000E+00  0.21137768010E+03  0.21137768011E+03  0.25500000000E-02 0.  1.
          2   -1    0    0    0  501  0.00000000000E+00 -0.00000000000E+00 -0.22116418269E+01  0.22116432969E+01  0.25500000000E-02 0.  1.
          2    1    1    2    0  502 -0.17353146635E+02  0.10081877280E+02  0.14431754955E+03  0.14570631785E+03  0.25500000000E-02 0.  1.
         -2    1    1    2  502    0  0.17353146635E+02 -0.10081877280E+02  0.64848488725E+02  0.67883005561E+02  0.25500000000E-02 0.  1.
<mgrwt>
<rscale>  0 0.43243121E+02</rscale>
<asrwt>0</asrwt>
<pdfrwt beam="2">  1        2 0.34025257E-03 0.43243121E+02</pdfrwt>
<pdfrwt beam="1">  1       -2 0.32519656E-01 0.43243121E+02</pdfrwt>
<totfact> 0.39258256E+05</totfact>
</mgrwt>
</event>
<event>
 4    1  0.4604841E-002  0.1152367E+03  0.7818608E-02  0.1251168E+00
         -2   -1    0    0  501    0 -0.00000000000E+00  0.00000000000E+00  0.54101855472E+01  0.54101861481E+01  0.25500000000E-02 0. -1.
          2   -1    0    0    0  501  0.00000000000E+00 -0.00000000000E+00 -0.61363430976E+03  0.61363430977E+03  0.25500000000E-02 0. -1.
          2    1    1    2    0  502 -0.54772618484E+01 -0.57168165904E+02 -0.27910163072E+03  0.28494897766E+03  0.25500000000E-02 0. -1.
         -2    1    1    2  502    0  0.54772618484E+01  0.57168165904E+02 -0.32912249349E+03  0.33409551825E+03  0.25500000000E-02 0. -1.
<mgrwt>
<rscale>  0 0.11523672E+03</rscale>
<asrwt>0</asrwt>
<pdfrwt beam="2">  1        2 0.94405223E-01 0.11523672E+03</pdfrwt>
<pdfrwt beam="1">  1       -2 0.83233677E-03 0.11523672E+03</pdfrwt>
<totfact> 0.12261839E+05</totfact>
</mgrwt>
</event>
<event>
 4    1  0.4604841E-002  0.9533480E+02  0.7818608E-02  0.1290424E+00
         -2   -1    0    0  501    0 -0.00000000000E+00  0.00000000000E+00  0.45034916570E+02  0.45034916643E+02  0.25500000000E-02 0.  1.
          2   -1    0    0    0  501  0.00000000000E+00 -0.00000000000E+00 -0.50453758205E+02  0.50453758270E+02  0.25500000000E-02 0.  1.
          2    1    1    2    0  502  0.12101241738E+02  0.46105213687E+02 -0.24854291332E+01  0.47731626258E+02  0.25500000000E-02 0.  1.
         -2    1    1    2  502    0 -0.12101241738E+02 -0.46105213687E+02 -0.29334125016E+01  0.47757048654E+02  0.25500000000E-02 0.  1.
<mgrwt>
<rscale>  0 0.95334795E+02</rscale>
<asrwt>0</asrwt>
<pdfrwt beam="2">  1        2 0.77621167E-02 0.95334795E+02</pdfrwt>
<pdfrwt beam="1">  1       -2 0.69284487E-02 0.95334795E+02</pdfrwt>
<totfact> 0.89162245E+04</totfact>
</mgrwt>
</event>
<event>
 4    1  0.4604841E-002  0.7421563E+02  0.7818608E-02  0.1346317E+00
         -2   -1    0    0  501    0 -0.00000000000E+00  0.00000000000E+00  0.10618671489E+02  0.10618671795E+02  0.25500000000E-02 0.  1.
          2   -1    0    0    0  501  0.00000000000E+00 -0.00000000000E+00 -0.12967628500E+03  0.12967628503E+03  0.25500000000E-02 0.  1.
          2    1    1    2    0  502  0.74234867161E+01 -0.22087226006E+02 -0.49355336719E+01  0.23818337617E+02  0.25500000000E-02 0. -1.
         -2    1    1    2  502    0 -0.74234867161E+01  0.22087226006E+02 -0.11412207984E+03  0.11647661921E+03  0.25500000000E-02 0. -1.
<mgrwt>
<rscale>  0 0.74215629E+02</rscale>
<asrwt>0</asrwt>
<pdfrwt beam="2">  1        2 0.19950197E-01 0.74215629E+02</pdfrwt>
<pdfrwt beam="1">  1       -2 0.16336419E-02 0.74215629E+02</pdfrwt>
<totfact> 0.23160951E+05</totfact>
</mgrwt>
</event>
<event>
 4    1  0.4604841E-002  0.6908564E+02  0.7818608E-02  0.1363230E+00
         -2   -1    0    0  501    0 -0.00000000000E+00  0.00000000000E+00  0.98915564887E+00  0.98915893576E+00  0.25500000000E-02 0. -1.
          2   -1    0    0    0  501  0.00000000000E+00 -0.00000000000E+00 -0.12062859541E+04  0.12062859541E+04  0.25500000000E-02 0. -1.
          2    1    1    2    0  502  0.13235407515E+02 -0.31475301894E+02 -0.51128228519E+03  0.51242116057E+03  0.25500000000E-02 0. -1.
         -2    1    1    2  502    0 -0.13235407515E+02  0.31475301894E+02 -0.69401451330E+03  0.69485395251E+03  0.25500000000E-02 0. -1.
<mgrwt>
<rscale>  0 0.69085644E+02</rscale>
<asrwt>0</asrwt>
<pdfrwt beam="2">  1        2 0.18558128E+00 0.69085644E+02</pdfrwt>
<pdfrwt beam="1">  1       -2 0.15217901E-03 0.69085644E+02</pdfrwt>
<totfact> 0.51077490E+05</totfact>
</mgrwt>
</event>
<event>
 4    1  0.4604841E-002  0.6381766E+02  0.7818608E-02  0.1382475E+00
          2   -1    0    0    0  501  0.00000000000E+00  0.00000000000E+00  0.13833601664E+01  0.13833625167E+01  0.25500000000E-02 0. -1.
         -2   -1    0    0  501    0 -0.00000000000E+00 -0.00000000000E+00 -0.73601414824E+03  0.73601414825E+03  0.25500000000E-02 0. -1.
          2    1    1    2    0  502  0.25570024344E+02 -0.16287842862E+02 -0.25231593798E+03  0.25413077841E+03  0.25500000000E-02 0.  1.
         -2    1    1    2  502    0 -0.25570024344E+02  0.16287842862E+02 -0.48231485010E+03  0.48326673235E+03  0.25500000000E-02 0.  1.
<mgrwt>
<rscale>  0 0.63817663E+02</rscale>
<asrwt>0</asrwt>
<pdfrwt beam="1">  1        2 0.21282541E-03 0.63817663E+02</pdfrwt>
<pdfrwt beam="2">  1       -2 0.11323263E+00 0.63817663E+02</pdfrwt>
<totfact> 0.64526787E+04</totfact>
</mgrwt>
</event>
<event>
 4    1  0.4604841E-002  0.4454464E+02  0.7818608E-02  0.1477205E+00
         -2   -1    0    0  501    0 -0.00000000000E+00  0.00000000000E+00  0.12013732907E+01  0.12013759970E+01  0.25500000000E-02 0.  1.
          2   -1    0    0    0  501  0.00000000000E+00 -0.00000000000E+00 -0.41290727099E+03  0.41290727099E+03  0.25500000000E-02 0.  1.
          2    1    1    2    0  502  0.64810403602E+01 -0.20020499396E+02 -0.27368038007E+03  0.27448820507E+03  0.25500000000E-02 0. -1.
         -2    1    1    2  502    0 -0.64810403602E+01  0.20020499396E+02 -0.13802551762E+03  0.13962044192E+03  0.25500000000E-02 0. -1.
<mgrwt>
<rscale>  0 0.44544644E+02</rscale>
<asrwt>0</asrwt>
<pdfrwt beam="2">  1        2 0.63524083E-01 0.44544644E+02</pdfrwt>
<pdfrwt beam="1">  1       -2 0.18482720E-03 0.44544644E+02</pdfrwt>
<totfact> 0.12548240E+06</totfact>
</mgrwt>
</event>
<event>
 4    1  0.4604841E-002  0.1146516E+03  0.7818608E-02  0.1252190E+00
         -2   -1    0    0  501    0 -0.00000000000E+00  0.00000000000E+00  0.28522241648E+02  0.28522241762E+02  0.25500000000E-02 0. -1.
          2   -1    0    0    0  501  0.00000000000E+00 -0.00000000000E+00 -0.11521703370E+03  0.11521703373E+03  0.25500000000E-02 0. -1.
          2    1    1    2    0  502 -0.19661372809E+02  0.26712174641E+02 -0.10196581380E+03  0.10722470352E+03  0.25500000000E-02 0. -1.
         -2    1    1    2  502    0  0.19661372809E+02 -0.26712174641E+02  0.15271021744E+02  0.36514571974E+02  0.25500000000E-02 0. -1.
<mgrwt>
<rscale>  0 0.11465161E+03</rscale>
<asrwt>0</asrwt>
<pdfrwt beam="2">  1        2 0.17725697E-01 0.11465161E+03</pdfrwt>
<pdfrwt beam="1">  1       -2 0.43880372E-02 0.11465161E+03</pdfrwt>
<totfact> 0.67710495E+04</totfact>
</mgrwt>
</event>
<event>
 4    1  0.4604841E-002  0.5635848E+02  0.7818608E-02  0.1413782E+00
          2   -1    0    0    0  501  0.00000000000E+00  0.00000000000E+00  0.40750329971E+02  0.40750330051E+02  0.25500000000E-02 0. -1.
         -2   -1    0    0  501    0 -0.00000000000E+00 -0.00000000000E+00 -0.19486213276E+02  0.19486213443E+02  0.25500000000E-02 0. -1.
          2    1    1    2    0  502 -0.25232062621E+02 -0.12244222838E+02  0.77066308174E+01  0.29085565872E+02  0.25500000000E-02 0.  1.
         -2    1    1    2  502    0  0.25232062621E+02  0.12244222838E+02  0.13557485877E+02  0.31150977622E+02  0.25500000000E-02 0.  1.
<mgrwt>
<rscale>  0 0.56358482E+02</rscale>
<asrwt>0</asrwt>
<pdfrwt beam="1">  1        2 0.62692814E-02 0.56358482E+02</pdfrwt>
<pdfrwt beam="2">  1       -2 0.29978790E-02 0.56358482E+02</pdfrwt>
<totfact> 0.36134987E+05</totfact>
</mgrwt>
</event>
<event>
 4    1  0.4604841E-002  0.4424834E+02  0.7818608E-02  0.1479089E+00
          2   -1    0    0    0  501  0.00000000000E+00  0.00000000000E+00  0.60134162403E+02  0.60134162457E+02  0.25500000000E-02 0. -1.
         -2   -1    0    0  501    0 -0.00000000000E+00 -0.00000000000E+00 -0.81397808506E+01  0.81397812501E+01  0.25500000000E-02 0. -1.
          2    1    1    2    0  502  0.19103040825E+02 -0.10487081903E+02  0.31887597040E+02  0.38622841779E+02  0.25500000000E-02 0.  1.
         -2    1    1    2  502    0 -0.19103040825E+02  0.10487081903E+02  0.20106784512E+02  0.29651101928E+02  0.25500000000E-02 0.  1.
<mgrwt>
<rscale>  0 0.44248341E+02</rscale>
<asrwt>0</asrwt>
<pdfrwt beam="1">  1        2 0.92514093E-02 0.44248341E+02</pdfrwt>
<pdfrwt beam="2">  1       -2 0.12522741E-02 0.44248341E+02</pdfrwt>
<totfact> 0.72557271E+05</totfact>
</mgrwt>
</event>
<event>
 4    1  0.4604841E-002  0.1237318E+03  0.7818608E-02  0.1237065E+00
          2   -1    0    0    0  501  0.00000000000E+00  0.00000000000E+00  0.18646652481E+02  0.18646652655E+02  0.25500000000E-02 0.  1.
         -2   -1    0    0  501    0 -0.00000000000E+00 -0.00000000000E+00 -0.20525894766E+03  0.20525894767E+03  0.25500000000E-02 0.  1.
          2    1    1    2    0  502 -0.29276297264E+02 -0.19444472585E+02 -0.11725580034E+01  0.35164811877E+02  0.25500000000E-02 0.  1.
         -2    1    1    2  502    0  0.29276297264E+02  0.19444472585E+02 -0.18543973717E+03  0.18874078845E+03  0.25500000000E-02 0.  1.
<mgrwt>
<rscale>  0 0.12373184E+03</rscale>
<asrwt>0</asrwt>
<pdfrwt beam="1">  1        2 0.28687159E-02 0.12373184E+03</pdfrwt>
<pdfrwt beam="2">  1       -2 0.31578298E-01 0.12373184E+03</pdfrwt>
<totfact> 0.28177893E+04</totfact>
</mgrwt>
</event>
<event>
 4    1  0.4604841E-002  0.9297529E+02  0.7818608E-02  0.1295802E+00
         -2   -1    0    0  501    0 -0.00000000000E+00  0.00000000000E+00  0.17408066440E+01  0.17408085116E+01  0.25500000000E-02 0.  1.
          2   -1    0    0    0  501  0.00000000000E+00 -0.00000000000E+00 -0.12414360335E+04  0.12414360335E+04  0.25500000000E-02 0.  1.
          2    1    1    2    0  502 -0.16216712664E+01 -0.43836229969E+02 -0.41406537005E+03  0.41638248710E+03  0.25500000000E-02 0. -1.
         -2    1    1    2  502    0  0.16216712664E+01  0.43836229969E+02 -0.82562985683E+03  0.82679435495E+03  0.25500000000E-02 0. -1.
<mgrwt>
<rscale>  0 0.92975293E+02</rscale>
<asrwt>0</asrwt>
<pdfrwt beam="2">  1        2 0.19098945E+00 0.92975293E+02</pdfrwt>
<pdfrwt beam="1">  1       -2 0.26781754E-03 0.92975293E+02</pdfrwt>
<totfact> 0.23519215E+05</totfact>
</mgrwt>
</event>
<event>
 4    1  0.4604841E-002  0.1237349E+03  0.7818608E-02  0.1237060E+00
          2   -1    0    0    0  501  0.00000000000E+00  0.00000000000E+00  0.70261381299E+03  0.70261381299E+03  0.25500000000E-02 0. -1.
         -2   -1    0    0  501    0 -0.00000000000E+00 -0.00000000000E+00 -0.54476347530E+01  0.54476353499E+01  0.25500000000E-02 0. -1.
          2    1    1    2    0  502  0.22803649613E+02  0.45669095981E+02  0.54861458033E+03  0.55098423800E+03  0.25500000000E-02 0.  1.
         -2    1    1    2  502    0 -0.22803649613E+02 -0.45669095981E+02  0.14855159790E+03  0.15707721034E+03  0.25500000000E-02 0.  1.
<mgrwt>
<rscale>  0 0.12373494E+03</rscale>
<asrwt>0</asrwt>
<pdfrwt beam="1">  1        2 0.10809442E+00 0.12373494E+03</pdfrwt>
<pdfrwt beam="2">  1       -2 0.83809780E-03 0.12373494E+03</pdfrwt>
<totfact> 0.10475662E+05</totfact>
</mgrwt>
</event>
<event>
 4    1  0.4604841E-002  0.4936068E+02  0.7818608E-02  0.1448821E+00
         -2   -1    0    0  501    0 -0.00000000000E+00  0.00000000000E+00  0.39929367585E+00  0.39930181827E+00  0.25500000000E-02 0.  1.
          2   -1    0    0    0  501  0.00000000000E+00 -0.00000000000E+00 -0.15254759172E+04  0.15254759172E+04  0.25500000000E-02 0.  1.
          2    1    1    2    0  502 -0.17341269089E+02 -0.15767977653E+02 -0.52354769283E+03  0.52407207082E+03  0.25500000000E-02 0. -1.
         -2    1    1    2  502    0  0.17341269089E+02  0.15767977653E+02 -0.10015289307E+04  0.10018031482E+04  0.25500000000E-02 0. -1.
<mgrwt>
<rscale>  0 0.49360677E+02</rscale>
<asrwt>0</asrwt>
<pdfrwt beam="2">  1        2 0.23468394E+00 0.49360677E+02</pdfrwt>
<pdfrwt beam="1">  1       -2 0.61431644E-04 0.49360677E+02</pdfrwt>
<totfact> 0.11243827E+06</totfact>
</mgrwt>
</event>
<event>
 4    1  0.4604841E-002  0.2177171E+03  0.7818608E-02  0.1135597E+00
         -2   -1    0    0  501    0 -0.00000000000E+00  0.00000000000E+00  0.35933711368E+03  0.35933711369E+03  0.25500000000E-02 0. -1.
          2   -1    0    0    0  501  0.00000000000E+00 -0.00000000000E+00 -0.32977890797E+02  0.32977890895E+02  0.25500000000E-02 0. -1.
          2    1    1    2    0  502 -0.15953061532E+02 -0.23429505101E+02  0.35257067311E+03  0.35370824337E+03  0.25500000000E-02 0.  1.
         -2    1    1    2  502    0  0.15953061532E+02  0.23429505101E+02 -0.26211450232E+02  0.38606761212E+02  0.25500000000E-02 0.  1.
<mgrwt>
<rscale>  0 0.21771707E+03</rscale>
<asrwt>0</asrwt>
<pdfrwt beam="2">  1        2 0.50735218E-02 0.21771707E+03</pdfrwt>
<pdfrwt beam="1">  1       -2 0.55282631E-01 0.21771707E+03</pdfrwt>
<totfact> 0.47417464E+03</totfact>
</mgrwt>
</event>
<event>
 4    1  0.4604841E-002  0.6753878E+02  0.7818608E-02  0.1368668E+00
         -2   -1    0    0  501    0 -0.00000000000E+00  0.00000000000E+00  0.12277743309E+02  0.12277743574E+02  0.25500000000E-02 0. -1.
          2   -1    0    0    0  501  0.00000000000E+00 -0.00000000000E+00 -0.92881200061E+02  0.92881200096E+02  0.25500000000E-02 0. -1.
          2    1    1    2    0  502  0.16418751195E+02  0.15631699807E+02 -0.79272130909E+02  0.82449961644E+02  0.25500000000E-02 0.  1.
         -2    1    1    2  502    0 -0.16418751195E+02 -0.15631699807E+02 -0.13313258428E+01  0.22708982026E+02  0.25500000000E-02 0.  1.
<mgrwt>
<rscale>  0 0.67538775E+02</rscale>
<asrwt>0</asrwt>
<pdfrwt beam="2">  1        2 0.14289415E-01 0.67538775E+02</pdfrwt>
<pdfrwt beam="1">  1       -2 0.18888837E-02 0.67538775E+02</pdfrwt>
<totfact> 0.26975414E+05</totfact>
</mgrwt>
</event>
<event>
 4    1  0.4604841E-002  0.5496190E+02  0.7818608E-02  0.1420279E+00
         -2   -1    0    0  501    0 -0.00000000000E+00  0.00000000000E+00  0.46347944847E+03  0.46347944848E+03  0.25500000000E-02 0. -1.
          2   -1    0    0    0  501  0.00000000000E+00 -0.00000000000E+00 -0.16294186475E+01  0.16294206428E+01  0.25500000000E-02 0. -1.
          2    1    1    2    0  502 -0.23838195753E+02  0.11190415922E+02  0.16444407086E+03  0.16653929696E+03  0.25500000000E-02 0.  1.
         -2    1    1    2  502    0  0.23838195753E+02 -0.11190415922E+02  0.29740595897E+03  0.29856957216E+03  0.25500000000E-02 0.  1.
<mgrwt>
<rscale>  0 0.54961897E+02</rscale>
<asrwt>0</asrwt>
<pdfrwt beam="2">  1        2 0.25067974E-03 0.54961897E+02</pdfrwt>
<pdfrwt beam="1">  1       -2 0.71304588E-01 0.54961897E+02</pdfrwt>
<totfact> 0.13901493E+05</totfact>
</mgrwt>
</event>
<event>
 4    1  0.4604841E-002  0.8532864E+02  0.7818608E-02  0.1314575E+00
         -2   -1    0    0  501    0 -0.00000000000E+00  0.00000000000E+00  0.96335574742E+01  0.96335578117E+01  0.25500000000E-02 0. -1.
          2   -1    0    0    0  501  0.00000000000E+00 -0.00000000000E+00 -0.18894826628E+03  0.18894826630E+03  0.25500000000E-02 0. -1.
          2    1    1    2    0  502 -0.25462168787E+02 -0.14760029447E+02 -0.16154153639E+03  0.16420063488E+03  0.25500000000E-02 0.  1.
         -2    1    1    2  502    0  0.25462168787E+02  0.14760029447E+02 -0.17773172414E+02  0.34381189229E+02  0.25500000000E-02 0.  1.
<mgrwt>
<rscale>  0 0.85328636E+02</rscale>
<asrwt>0</asrwt>
<pdfrwt beam="2">  1        2 0.29068961E-01 0.85328636E+02</pdfrwt>
<pdfrwt beam="1">  1       -2 0.14820859E-02 0.85328636E+02</pdfrwt>
<totfact> 0.18105610E+05</totfact>
</mgrwt>
</event>
<event>
 4    1  0.4604841E-002  0.5623983E+02  0.7818608E-02  0.1414325E+00
         -2   -1    0    0  501    0 -0.00000000000E+00  0.00000000000E+00  0.11433420769E+03  0.11433420772E+03  0.25500000000E-02 0.  1.
          2   -1    0    0    0  501  0.00000000000E+00 -0.00000000000E+00 -0.69159505630E+01  0.69159510331E+01  0.25500000000E-02 0.  1.
          2    1    1    2    0  502  0.17265365095E+02  0.21857710348E+02  0.62024890823E+02  0.67992201183E+02  0.25500000000E-02 0. -1.
         -2    1    1    2  502    0 -0.17265365095E+02 -0.21857710348E+02  0.45393366303E+02  0.53257957569E+02  0.25500000000E-02 0. -1.
<mgrwt>
<rscale>  0 0.56239835E+02</rscale>
<asrwt>0</asrwt>
<pdfrwt beam="2">  1        2 0.10639924E-02 0.56239835E+02</pdfrwt>
<pdfrwt beam="1">  1       -2 0.17589879E-01 0.56239835E+02</pdfrwt>
<totfact> 0.25525912E+05</totfact>
</mgrwt>
</event>
<event>
 4    1  0.4604841E-002  0.4214664E+02  0.7818608E-02  0.1492984E+00
         -2   -1    0    0  501    0 -0.00000000000E+00  0.00000000000E+00  0.39816126055E+00  0.39816942612E+00  0.25500000000E-02 0.  1.
          2   -1    0    0    0  501  0.00000000000E+00 -0.00000000000E+00 -0.11153277179E+04  0.11153277179E+04  0.25500000000E-02 0.  1.
          2    1    1    2    0  502 -0.20803167675E+02 -0.11310011414E+01 -0.64131983139E+03  0.64165814659E+03  0.25500000000E-02 0. -1.
         -2    1    1    2  502    0  0.20803167675E+02  0.11310011414E+01 -0.47360972521E+03  0.47406774070E+03  0.25500000000E-02 0. -1.
<mgrwt>
<rscale>  0 0.42146641E+02</rscale>
<asrwt>0</asrwt>
<pdfrwt beam="2">  1        2 0.17158638E+00 0.42146641E+02</pdfrwt>
<pdfrwt beam="1">  1       -2 0.61257100E-04 0.42146641E+02</pdfrwt>
<totfact> 0.17588209E+06</totfact>
</mgrwt>
</event>
<event>
 4    1  0.4604841E-002  0.5641078E+02  0.7818608E-02  0.1413543E+00
          2   -1    0    0    0  501  0.00000000000E+00  0.00000000000E+00  0.13579966212E+04  0.13579966212E+04  0.25500000000E-02 0. -1.
         -2   -1    0    0  501    0 -0.00000000000E+00 -0.00000000000E+00 -0.58581910837E+00  0.58582465827E+00  0.25500000000E-02 0. -1.
          2    1    1    2    0  502  0.68249038463E+01 -0.22112165907E+02  0.29035417121E+03  0.29127490785E+03  0.25500000000E-02 0. -1.
         -2    1    1    2  502    0 -0.68249038463E+01  0.22112165907E+02  0.10670566309E+04  0.10673075381E+04  0.25500000000E-02 0. -1.
<mgrwt>
<rscale>  0 0.56410784E+02</rscale>
<asrwt>0</asrwt>
<pdfrwt beam="1">  1        2 0.20892342E+00 0.56410784E+02</pdfrwt>
<pdfrwt beam="2">  1       -2 0.90126072E-04 0.56410784E+02</pdfrwt>
<totfact> 0.83592342E+05</totfact>
</mgrwt>
</event>
<event>
 4    1  0.4604841E-002  0.1669236E+03  0.7818608E-02  0.1181095E+00
         -2   -1    0    0  501    0 -0.00000000000E+00  0.00000000000E+00  0.10637669586E+02  0.10637669892E+02  0.25500000000E-02 0.  1.
          2   -1    0    0    0  501  0.00000000000E+00 -0.00000000000E+00 -0.65483073407E+03  0.65483073408E+03  0.25500000000E-02 0.  1.
          2    1    1    2    0  502  0.48951745321E+02 -0.27395983514E+02 -0.56846657281E+03  0.57122767588E+03  0.25500000000E-02 0. -1.
         -2    1    1    2  502    0 -0.48951745321E+02  0.27395983514E+02 -0.75726491672E+02  0.94240728085E+02  0.25500000000E-02 0. -1.
<mgrwt>
<rscale>  0 0.16692361E+03</rscale>
<asrwt>0</asrwt>
<pdfrwt beam="2">  1        2 0.10074316E+00 0.16692361E+03</pdfrwt>
<pdfrwt beam="1">  1       -2 0.16365651E-02 0.16692361E+03</pdfrwt>
<totfact> 0.44982310E+04</totfact>
</mgrwt>
</event>
<event>
 4    1  0.4604841E-002  0.4641674E+02  0.7818608E-02  0.1465686E+00
          2   -1    0    0    0  501  0.00000000000E+00  0.00000000000E+00  0.11676325259E+04  0.11676325259E+04  0.25500000000E-02 0.  1.
         -2   -1    0    0  501    0 -0.00000000000E+00 -0.00000000000E+00 -0.46129602052E+00  0.46130306854E+00  0.25500000000E-02 0.  1.
          2    1    1    2    0  502 -0.20327116329E+02  0.46986825516E+00  0.30198545786E+03  0.30266917451E+03  0.25500000000E-02 0. -1.
         -2    1    1    2  502    0  0.20327116329E+02 -0.46986825516E+00  0.86518577200E+03  0.86542465444E+03  0.25500000000E-02 0. -1.
<mgrwt>
<rscale>  0 0.46416736E+02</rscale>
<asrwt>0</asrwt>
<pdfrwt beam="1">  1        2 0.17963662E+00 0.46416736E+02</pdfrwt>
<pdfrwt beam="2">  1       -2 0.70968828E-04 0.46416736E+02</pdfrwt>
<totfact> 0.13869549E+06</totfact>
</mgrwt>
</event>
<event>
 4    1  0.4604841E-002  0.1043198E+03  0.7818608E-02  0.1271466E+00
         -2   -1    0    0  501    0 -0.00000000000E+00  0.00000000000E+00  0.17905377381E+03  0.17905377383E+03  0.25500000000E-02 0. -1.
          2   -1    0    0    0  501  0.00000000000E+00 -0.00000000000E+00 -0.15194631392E+02  0.15194631606E+02  0.25500000000E-02 0. -1.
          2    1    1    2    0  502 -0.48554794107E+02 -0.16175439918E+02  0.10068392725E+03  0.11294452665E+03  0.25500000000E-02 0.  1.
         -2    1    1    2  502    0  0.48554794107E+02  0.16175439918E+02  0.63175215168E+02  0.81303878784E+02  0.25500000000E-02 0.  1.
<mgrwt>
<rscale>  0 0.10431982E+03</rscale>
<asrwt>0</asrwt>
<pdfrwt beam="2">  1        2 0.23376357E-02 0.10431982E+03</pdfrwt>
<pdfrwt beam="1">  1       -2 0.27546733E-01 0.10431982E+03</pdfrwt>
<totfact> 0.46304288E+04</totfact>
</mgrwt>
</event>
<event>
 4    1  0.4604841E-002  0.4692431E+02  0.7818608E-02  0.1462674E+00
         -2   -1    0    0  501    0 -0.00000000000E+00  0.00000000000E+00  0.12286124644E+03  0.12286124647E+03  0.25500000000E-02 0. -1.
          2   -1    0    0    0  501  0.00000000000E+00 -0.00000000000E+00 -0.44804412415E+01  0.44804419672E+01  0.25500000000E-02 0. -1.
          2    1    1    2    0  502 -0.70479020434E+01 -0.22328186103E+02  0.55118105233E+02  0.59885109575E+02  0.25500000000E-02 0.  1.
         -2    1    1    2  502    0  0.70479020434E+01  0.22328186103E+02  0.63262699970E+02  0.67456578863E+02  0.25500000000E-02 0.  1.
<mgrwt>
<rscale>  0 0.46924307E+02</rscale>
<asrwt>0</asrwt>
<pdfrwt beam="2">  1        2 0.68929886E-03 0.46924307E+02</pdfrwt>
<pdfrwt beam="1">  1       -2 0.18901726E-01 0.46924307E+02</pdfrwt>
<totfact> 0.38978928E+05</totfact>
</mgrwt>
</event>
<event>
 4    1  0.4604841E-002  0.8946773E+02  0.7818608E-02  0.1304146E+00
          2   -1    0    0    0  501  0.00000000000E+00  0.00000000000E+00  0.19842108446E+04  0.19842108446E+04  0.25500000000E-02 0.  1.
         -2   -1    0    0  501    0 -0.00000000000E+00 -0.00000000000E+00 -0.10085194640E+01  0.10085226878E+01  0.25500000000E-02 0.  1.
          2    1    1    2    0  502 -0.38061772717E+02  0.44951332471E+01  0.15035011612E+04  0.15039895766E+04  0.25500000000E-02 0.  1.
         -2    1    1    2  502    0  0.38061772717E+02 -0.44951332471E+01  0.47970116392E+03  0.48122979068E+03  0.25500000000E-02 0.  1.
<mgrwt>
<rscale>  0 0.89467725E+02</rscale>
<asrwt>0</asrwt>
<pdfrwt beam="1">  1        2 0.30526598E+00 0.89467725E+02</pdfrwt>
<pdfrwt beam="2">  1       -2 0.15515568E-03 0.89467725E+02</pdfrwt>
<totfact> 0.20841433E+05</totfact>
</mgrwt>
</event>
<event>
 4    1  0.4604841E-002  0.4358146E+02  0.7818608E-02  0.1483397E+00
         -2   -1    0    0  501    0 -0.00000000000E+00  0.00000000000E+00  0.67267493594E+00  0.67267976923E+00  0.25500000000E-02 0. -1.
          2   -1    0    0    0  501  0.00000000000E+00 -0.00000000000E+00 -0.70588964607E+03  0.70588964607E+03  0.25500000000E-02 0. -1.
          2    1    1    2    0  502  0.11196918010E+02  0.16972885572E+02 -0.47963193306E+03  0.48006274698E+03  0.25500000000E-02 0.  1.
         -2    1    1    2  502    0 -0.11196918010E+02 -0.16972885572E+02 -0.22558503807E+03  0.22649957887E+03  0.25500000000E-02 0.  1.
<mgrwt>
<rscale>  0 0.43581463E+02</rscale>
<asrwt>0</asrwt>
<pdfrwt beam="2">  1        2 0.10859781E+00 0.43581463E+02</pdfrwt>
<pdfrwt beam="1">  1       -2 0.10348939E-03 0.43581463E+02</pdfrwt>
<totfact> 0.15430976E+06</totfact>
</mgrwt>
</event>
<event>
 4    1  0.4604841E-002  0.6752673E+02  0.7818608E-02  0.1368711E+00
         -2   -1    0    0  501    0 -0.00000000000E+00  0.00000000000E+00  0.83574545753E+01  0.83574549643E+01  0.25500000000E-02 0. -1.
          2   -1    0    0    0  501  0.00000000000E+00 -0.00000000000E+00 -0.13640096270E+03  0.13640096272E+03  0.25500000000E-02 0. -1.
          2    1    1    2    0  502  0.33665780875E+02 -0.25281380076E+01 -0.63090803040E+02  0.71555752518E+02  0.25500000000E-02 0.  1.
         -2    1    1    2  502    0 -0.33665780875E+02  0.25281380076E+01 -0.64952705085E+02  0.73202665171E+02  0.25500000000E-02 0.  1.
<mgrwt>
<rscale>  0 0.67526732E+02</rscale>
<asrwt>0</asrwt>
<pdfrwt beam="2">  1        2 0.20984762E-01 0.67526732E+02</pdfrwt>
<pdfrwt beam="1">  1       -2 0.12857624E-02 0.67526732E+02</pdfrwt>
<totfact> 0.30172324E+05</totfact>
</mgrwt>
</event>
<event>
 4    1  0.4604841E-002  0.4541644E+02  0.7818608E-02  0.1471759E+00
          2   -1    0    0    0  501  0.00000000000E+00  0.00000000000E+00  0.54395787098E+03  0.54395787099E+03  0.25500000000E-02 0. -1.
         -2   -1    0    0  501    0 -0.00000000000E+00 -0.00000000000E+00 -0.94798217756E+00  0.94798560720E+00  0.25500000000E-02 0. -1.
          2    1    1    2    0  502  0.20359819771E+02  0.11779253562E+01  0.15167302996E+03  0.15303796193E+03  0.25500000000E-02 0.  1.
         -2    1    1    2  502    0 -0.20359819771E+02 -0.11779253562E+01  0.39133685885E+03  0.39186789466E+03  0.25500000000E-02 0.  1.
<mgrwt>
<rscale>  0 0.45416442E+02</rscale>
<asrwt>0</asrwt>
<pdfrwt beam="1">  1        2 0.83685714E-01 0.45416442E+02</pdfrwt>
<pdfrwt beam="2">  1       -2 0.14584387E-03 0.45416442E+02</pdfrwt>
<totfact> 0.13048660E+06</totfact>
</mgrwt>
</event>
<event>
 4    1  0.4604841E-002  0.5152437E+02  0.7818608E-02  0.1437289E+00
          2   -1    0    0    0  501  0.00000000000E+00  0.00000000000E+00  0.96343820473E+00  0.96344157936E+00  0.25500000000E-02 0. -1.
         -2   -1    0    0  501    0 -0.00000000000E+00 -0.00000000000E+00 -0.68887543984E+03  0.68887543984E+03  0.25500000000E-02 0. -1.
          2    1    1    2    0  502  0.46385194585E+01  0.22715563667E+02 -0.19356364480E+03  0.19494716538E+03  0.25500000000E-02 0. -1.
         -2    1    1    2  502    0 -0.46385194585E+01 -0.22715563667E+02 -0.49434835684E+03  0.49489171604E+03  0.25500000000E-02 0. -1.
<mgrwt>
<rscale>  0 0.51524366E+02</rscale>
<asrwt>0</asrwt>
<pdfrwt beam="1">  1        2 0.14822207E-03 0.51524366E+02</pdfrwt>
<pdfrwt beam="2">  1       -2 0.10598044E+00 0.51524366E+02</pdfrwt>
<totfact> 0.11706163E+05</totfact>
</mgrwt>
</event>
<event>
 4    1  0.4604841E-002  0.5742583E+02  0.7818608E-02  0.1408963E+00
          2   -1    0    0    0  501  0.00000000000E+00  0.00000000000E+00  0.21243292954E+01  0.21243308259E+01  0.25500000000E-02 0. -1.
         -2   -1    0    0  501    0 -0.00000000000E+00 -0.00000000000E+00 -0.38809005436E+03  0.38809005437E+03  0.25500000000E-02 0. -1.
          2    1    1    2    0  502  0.87347133194E+01 -0.22212820606E+02 -0.84531927212E+02  0.87837072701E+02  0.25500000000E-02 0.  1.
         -2    1    1    2  502    0 -0.87347133194E+01  0.22212820606E+02 -0.30143379785E+03  0.30237731249E+03  0.25500000000E-02 0.  1.
<mgrwt>
<rscale>  0 0.57425826E+02</rscale>
<asrwt>0</asrwt>
<pdfrwt beam="1">  1        2 0.32682032E-03 0.57425826E+02</pdfrwt>
<pdfrwt beam="2">  1       -2 0.59706106E-01 0.57425826E+02</pdfrwt>
<totfact> 0.14108591E+05</totfact>
</mgrwt>
</event>
<event>
 4    1  0.4604841E-002  0.7332706E+02  0.7818608E-02  0.1349131E+00
          2   -1    0    0    0  501  0.00000000000E+00  0.00000000000E+00  0.16529132562E+04  0.16529132562E+04  0.25500000000E-02 0. -1.
         -2   -1    0    0  501    0 -0.00000000000E+00 -0.00000000000E+00 -0.81323747097E+00  0.81324146887E+00  0.25500000000E-02 0. -1.
          2    1    1    2    0  502  0.10358303059E+02 -0.34380686541E+02  0.99313564564E+03  0.99378455246E+03  0.25500000000E-02 0. -1.
         -2    1    1    2  502    0 -0.10358303059E+02  0.34380686541E+02  0.65896437311E+03  0.65994194523E+03  0.25500000000E-02 0. -1.
<mgrwt>
<rscale>  0 0.73327056E+02</rscale>
<asrwt>0</asrwt>
<pdfrwt beam="1">  1        2 0.25429478E+00 0.73327056E+02</pdfrwt>
<pdfrwt beam="2">  1       -2 0.12511355E-03 0.73327056E+02</pdfrwt>
<totfact> 0.39865329E+05</totfact>
</mgrwt>
</event>
<event>
 4    1  0.4604841E-002  0.4364566E+02  0.7818608E-02  0.1482978E+00
          2   -1    0    0    0  501  0.00000000000E+00  0.00000000000E+00  0.12044170673E+01  0.12044197667E+01  0.25500000000E-02 0. -1.
         -2   -1    0    0  501    0 -0.00000000000E+00 -0.00000000000E+00 -0.39540731041E+03  0.39540731042E+03  0.25500000000E-02 0. -1.
          2    1    1    2    0  502  0.11740262348E+01 -0.20824171422E+02 -0.25543697709E+03  0.25628709239E+03  0.25500000000E-02 0.  1.
         -2    1    1    2  502    0 -0.11740262348E+01  0.20824171422E+02 -0.13876591625E+03  0.14032463780E+03  0.25500000000E-02 0.  1.
<mgrwt>
<rscale>  0 0.43645657E+02</rscale>
<asrwt>0</asrwt>
<pdfrwt beam="1">  1        2 0.18529546E-03 0.43645657E+02</pdfrwt>
<pdfrwt beam="2">  1       -2 0.60831790E-01 0.43645657E+02</pdfrwt>
<totfact> 0.27352996E+05</totfact>
</mgrwt>
</event>
<event>
 4    1  0.4604841E-002  0.5072614E+02  0.7818608E-02  0.1441464E+00
          2   -1    0    0    0  501  0.00000000000E+00  0.00000000000E+00  0.56576244219E+03  0.56576244220E+03  0.25500000000E-02 0. -1.
         -2   -1    0    0  501    0 -0.00000000000E+00 -0.00000000000E+00 -0.11370222196E+01  0.11370250790E+01  0.25500000000E-02 0. -1.
          2    1    1    2    0  502 -0.19818315104E+02 -0.11837354463E+02  0.16488994827E+03  0.16649799885E+03  0.25500000000E-02 0.  1.
         -2    1    1    2  502    0  0.19818315104E+02  0.11837354463E+02  0.39973547170E+03  0.40040146842E+03  0.25500000000E-02 0.  1.
<mgrwt>
<rscale>  0 0.50726138E+02</rscale>
<asrwt>0</asrwt>
<pdfrwt beam="1">  1        2 0.87040513E-01 0.50726138E+02</pdfrwt>
<pdfrwt beam="2">  1       -2 0.17492644E-03 0.50726138E+02</pdfrwt>
<totfact> 0.10054749E+06</totfact>
</mgrwt>
</event>
<event>
 4    1  0.4604841E-002  0.6417731E+02  0.7818608E-02  0.1381093E+00
          2   -1    0    0    0  501  0.00000000000E+00  0.00000000000E+00  0.57690391989E+00  0.57690955555E+00  0.25500000000E-02 0. -1.
         -2   -1    0    0  501    0 -0.00000000000E+00 -0.00000000000E+00 -0.17848321382E+04  0.17848321382E+04  0.25500000000E-02 0. -1.
          2    1    1    2    0  502  0.28119102346E+02  0.15385742397E+02 -0.85015086150E+03  0.85075489555E+03  0.25500000000E-02 0.  1.
         -2    1    1    2  502    0 -0.28119102346E+02 -0.15385742397E+02 -0.93410437279E+03  0.93465415221E+03  0.25500000000E-02 0.  1.
<mgrwt>
<rscale>  0 0.64177307E+02</rscale>
<asrwt>0</asrwt>
<pdfrwt beam="1">  1        2 0.88756312E-04 0.64177307E+02</pdfrwt>
<pdfrwt beam="2">  1       -2 0.27458514E+00 0.64177307E+02</pdfrwt>
<totfact> 0.18815893E+04</totfact>
</mgrwt>
</event>
<event>
 4    1  0.4604841E-002  0.4459289E+02  0.7818608E-02  0.1476899E+00
          2   -1    0    0    0  501  0.00000000000E+00  0.00000000000E+00  0.18540396468E+04  0.18540396468E+04  0.25500000000E-02 0.  1.
         -2   -1    0    0  501    0 -0.00000000000E+00 -0.00000000000E+00 -0.26812816521E+00  0.26814029067E+00  0.25500000000E-02 0.  1.
          2    1    1    2    0  502 -0.13162038144E+01 -0.21739093460E+02  0.11254895279E+04  0.11257002257E+04  0.25500000000E-02 0.  1.
         -2    1    1    2  502    0  0.13162038144E+01  0.21739093460E+02  0.72828199067E+03  0.72860756139E+03  0.25500000000E-02 0.  1.
<mgrwt>
<rscale>  0 0.44592891E+02</rscale>
<asrwt>0</asrwt>
<pdfrwt beam="1">  1        2 0.28522736E+00 0.44592891E+02</pdfrwt>
<pdfrwt beam="2">  1       -2 0.41252795E-04 0.44592891E+02</pdfrwt>
<totfact> 0.12995399E+06</totfact>
</mgrwt>
</event>
<event>
 4    1  0.4604841E-002  0.6341880E+02  0.7818608E-02  0.1384020E+00
         -2   -1    0    0  501    0 -0.00000000000E+00  0.00000000000E+00  0.72978548051E+01  0.72978552506E+01  0.25500000000E-02 0. -1.
          2   -1    0    0    0  501  0.00000000000E+00 -0.00000000000E+00 -0.13777829332E+03  0.13777829334E+03  0.25500000000E-02 0. -1.
          2    1    1    2    0  502  0.66388303294E+01  0.30615554414E+02 -0.76470340085E+02  0.82638363726E+02  0.25500000000E-02 0. -1.
         -2    1    1    2  502    0 -0.66388303294E+01 -0.30615554414E+02 -0.54010098426E+02  0.62437784864E+02  0.25500000000E-02 0. -1.
<mgrwt>
<rscale>  0 0.63418799E+02</rscale>
<asrwt>0</asrwt>
<pdfrwt beam="2">  1        2 0.21196659E-01 0.63418799E+02</pdfrwt>
<pdfrwt beam="1">  1       -2 0.11227470E-02 0.63418799E+02</pdfrwt>
<totfact> 0.35647251E+05</totfact>
</mgrwt>
</event>
<event>
 4    1  0.4604841E-002  0.4549779E+02  0.7818608E-02  0.1471258E+00
          2   -1    0    0    0  501  0.00000000000E+00  0.00000000000E+00  0.70378584187E+03  0.70378584188E+03  0.25500000000E-02 0. -1.
         -2   -1    0    0  501    0 -0.00000000000E+00 -0.00000000000E+00 -0.73532420592E+00  0.73532862742E+00  0.25500000000E-02 0. -1.
          2    1    1    2    0  502  0.86022451575E+01  0.18322192581E+02  0.51230641632E+03  0.51270612008E+03  0.25500000000E-02 0. -1.
         -2    1    1    2  502    0 -0.86022451575E+01 -0.18322192581E+02  0.19074410135E+03  0.19181505042E+03  0.25500000000E-02 0. -1.
<mgrwt>
<rscale>  0 0.45497794E+02</rscale>
<asrwt>0</asrwt>
<pdfrwt beam="1">  1        2 0.10827485E+00 0.45497794E+02</pdfrwt>
<pdfrwt beam="2">  1       -2 0.11312703E-03 0.45497794E+02</pdfrwt>
<totfact> 0.13887852E+06</totfact>
</mgrwt>
</event>
<event>
 4    1  0.4604841E-002  0.1569701E+03  0.7818608E-02  0.1192161E+00
          2   -1    0    0    0  501  0.00000000000E+00  0.00000000000E+00  0.32383838013E+04  0.32383838013E+04  0.25500000000E-02 0.  1.
         -2   -1    0    0  501    0 -0.00000000000E+00 -0.00000000000E+00 -0.19021535802E+01  0.19021552894E+01  0.25500000000E-02 0.  1.
          2    1    1    2    0  502  0.51424330711E+02 -0.54760559751E+02  0.20874820997E+04  0.20888333340E+04  0.25500000000E-02 0. -1.
         -2    1    1    2  502    0 -0.51424330711E+02  0.54760559751E+02  0.11489995481E+04  0.11514526226E+04  0.25500000000E-02 0. -1.
<mgrwt>
<rscale>  0 0.15697014E+03</rscale>
<asrwt>0</asrwt>
<pdfrwt beam="1">  1        2 0.49821590E+00 0.15697014E+03</pdfrwt>
<pdfrwt beam="2">  1       -2 0.29263738E-03 0.15697014E+03</pdfrwt>
<totfact> 0.18544498E+04</totfact>
</mgrwt>
</event>
<event>
 4    1  0.4604841E-002  0.4572809E+02  0.7818608E-02  0.1469847E+00
          2   -1    0    0    0  501  0.00000000000E+00  0.00000000000E+00  0.53940799987E+01  0.53940806014E+01  0.25500000000E-02 0.  1.
         -2   -1    0    0  501    0 -0.00000000000E+00 -0.00000000000E+00 -0.96914509615E+02  0.96914509649E+02  0.25500000000E-02 0.  1.
          2    1    1    2    0  502  0.16598642177E+02 -0.15701047431E+02 -0.47667632652E+02  0.52860580981E+02  0.25500000000E-02 0. -1.
         -2    1    1    2  502    0 -0.16598642177E+02  0.15701047431E+02 -0.43852796965E+02  0.49448009269E+02  0.25500000000E-02 0. -1.
<mgrwt>
<rscale>  0 0.45728094E+02</rscale>
<asrwt>0</asrwt>
<pdfrwt beam="1">  1        2 0.82985858E-03 0.45728094E+02</pdfrwt>
<pdfrwt beam="2">  1       -2 0.14909923E-01 0.45728094E+02</pdfrwt>
<totfact> 0.44197425E+05</totfact>
</mgrwt>
</event>
<event>
 4    1  0.4604841E-002  0.5515414E+02  0.7818608E-02  0.1419371E+00
         -2   -1    0    0  501    0 -0.00000000000E+00  0.00000000000E+00  0.12383686875E+01  0.12383713129E+01  0.25500000000E-02 0.  1.
          2   -1    0    0    0  501  0.00000000000E+00 -0.00000000000E+00 -0.61410949824E+03  0.61410949824E+03  0.25500000000E-02 0.  1.
          2    1    1    2    0  502  0.45695411606E+01 -0.22688453377E+02 -0.13913891325E+03  0.14105064271E+03  0.25500000000E-02 0.  1.
         -2    1    1    2  502    0 -0.45695411606E+01  0.22688453377E+02 -0.47373221630E+03  0.47429722684E+03  0.25500000000E-02 0.  1.
<mgrwt>
<rscale>  0 0.55154140E+02</rscale>
<asrwt>0</asrwt>
<pdfrwt beam="2">  1        2 0.94478141E-01 0.55154140E+02</pdfrwt>
<pdfrwt beam="1">  1       -2 0.19051895E-03 0.55154140E+02</pdfrwt>
<totfact> 0.83516225E+05</totfact>
</mgrwt>
</event>
<event>
 4    1  0.4604841E-002  0.4890359E+02  0.7818608E-02  0.1451347E+00
          2   -1    0    0    0  501  0.00000000000E+00  0.00000000000E+00  0.12551581606E+03  0.12551581609E+03  0.25500000000E-02 0. -1.
         -2   -1    0    0  501    0 -0.00000000000E+00 -0.00000000000E+00 -0.47634646923E+01  0.47634653748E+01  0.25500000000E-02 0. -1.
          2    1    1    2    0  502  0.23484842668E+02  0.53805675577E+01  0.71489203921E+02  0.75440006802E+02  0.25500000000E-02 0. -1.
         -2    1    1    2  502    0 -0.23484842668E+02 -0.53805675577E+01  0.49263147450E+02  0.54839274663E+02  0.25500000000E-02 0. -1.
<mgrwt>
<rscale>  0 0.48903587E+02</rscale>
<asrwt>0</asrwt>
<pdfrwt beam="1">  1        2 0.19310122E-01 0.48903587E+02</pdfrwt>
<pdfrwt beam="2">  1       -2 0.73284091E-03 0.48903587E+02</pdfrwt>
<totfact> 0.67363762E+05</totfact>
</mgrwt>
</event>
<event>
 4    1  0.4604841E-002  0.2803885E+03  0.7818608E-02  0.1095477E+00
         -2   -1    0    0  501    0 -0.00000000000E+00  0.00000000000E+00  0.11258842677E+02  0.11258842966E+02  0.25500000000E-02 0.  1.
          2   -1    0    0    0  501  0.00000000000E+00 -0.00000000000E+00 -0.17456877022E+04  0.17456877022E+04  0.25500000000E-02 0.  1.
          2    1    1    2    0  502 -0.86612674226E+02  0.35264965734E+02 -0.21274122494E+03  0.23238804173E+03  0.25500000000E-02 0. -1.
         -2    1    1    2  502    0  0.86612674226E+02 -0.35264965734E+02 -0.15216876346E+04  0.15245585034E+04  0.25500000000E-02 0. -1.
<mgrwt>
<rscale>  0 0.28038847E+03</rscale>
<asrwt>0</asrwt>
<pdfrwt beam="2">  1        2 0.26856712E+00 0.28038847E+03</pdfrwt>
<pdfrwt beam="1">  1       -2 0.17321310E-02 0.28038847E+03</pdfrwt>
<totfact> 0.96590681E+03</totfact>
</mgrwt>
</event>
<event>
 4    1  0.4604841E-002  0.5291638E+02  0.7818608E-02  0.1430217E+00
          2   -1    0    0    0  501  0.00000000000E+00  0.00000000000E+00  0.99306041206E+02  0.99306041238E+02  0.25500000000E-02 0. -1.
         -2   -1    0    0  501    0 -0.00000000000E+00 -0.00000000000E+00 -0.70492773624E+01  0.70492778236E+01  0.25500000000E-02 0. -1.
          2    1    1    2    0  502 -0.22986438448E+02 -0.90804611339E+01  0.27145462830E+02  0.36711132994E+02  0.25500000000E-02 0.  1.
         -2    1    1    2  502    0  0.22986438448E+02  0.90804611339E+01  0.65111301014E+02  0.69644186068E+02  0.25500000000E-02 0.  1.
<mgrwt>
<rscale>  0 0.52916381E+02</rscale>
<asrwt>0</asrwt>
<pdfrwt beam="1">  1        2 0.15277852E-01 0.52916381E+02</pdfrwt>
<pdfrwt beam="2">  1       -2 0.10845043E-02 0.52916381E+02</pdfrwt>
<totfact> 0.51744413E+05</totfact>
</mgrwt>
</event>
<event>
 4    1  0.4604841E-002  0.1202676E+03  0.7818608E-02  0.1242656E+00
          2   -1    0    0    0  501  0.00000000000E+00  0.00000000000E+00  0.75633460753E+03  0.75633460754E+03  0.25500000000E-02 0.  1.
         -2   -1    0    0  501    0 -0.00000000000E+00 -0.00000000000E+00 -0.47810520918E+01  0.47810527718E+01  0.25500000000E-02 0.  1.
          2    1    1    2    0  502 -0.51611878476E+02 -0.11650462860E+02  0.19493659249E+03  0.20198958979E+03  0.25500000000E-02 0. -1.
         -2    1    1    2  502    0  0.51611878476E+02  0.11650462860E+02  0.55661696295E+03  0.55912607052E+03  0.25500000000E-02 0. -1.
<mgrwt>
<rscale>  0 0.12026763E+03</rscale>
<asrwt>0</asrwt>
<pdfrwt beam="1">  1        2 0.11635920E+00 0.12026763E+03</pdfrwt>
<pdfrwt beam="2">  1       -2 0.73554633E-03 0.12026763E+03</pdfrwt>
<totfact> 0.11503897E+05</totfact>
</mgrwt>
</event>
<event>
 4    1  0.4604841E-002  0.6073456E+02  0.7818608E-02  0.1394775E+00
         -2   -1    0    0  501    0 -0.00000000000E+00  0.00000000000E+00  0.23269968349E+01  0.23269982321E+01  0.25500000000E-02 0. -1.
          2   -1    0    0    0  501  0.00000000000E+00 -0.00000000000E+00 -0.39629249924E+03  0.39629249925E+03  0.25500000000E-02 0. -1.
          2    1    1    2    0  502  0.31572429957E+01  0.29389095817E+02 -0.15128190490E+03  0.15414247271E+03  0.25500000000E-02 0. -1.
         -2    1    1    2  502    0 -0.31572429957E+01 -0.29389095817E+02 -0.24268359751E+03  0.24447702478E+03  0.25500000000E-02 0. -1.
<mgrwt>
<rscale>  0 0.60734559E+02</rscale>
<asrwt>0</asrwt>
<pdfrwt beam="2">  1        2 0.60968023E-01 0.60734559E+02</pdfrwt>
<pdfrwt beam="1">  1       -2 0.35799994E-03 0.60734559E+02</pdfrwt>
<totfact> 0.57151644E+05</totfact>
</mgrwt>
</event>
<event>
 4    1  0.4604841E-002  0.5856858E+02  0.7818608E-02  0.1403939E+00
          2   -1    0    0    0  501  0.00000000000E+00  0.00000000000E+00  0.78625023328E+03  0.78625023328E+03  0.25500000000E-02 0. -1.
         -2   -1    0    0  501    0 -0.00000000000E+00 -0.00000000000E+00 -0.10907068380E+01  0.10907098189E+01  0.25500000000E-02 0. -1.
          2    1    1    2    0  502  0.25025384780E+02  0.22886608113E+01  0.19045862103E+03  0.19210932873E+03  0.25500000000E-02 0.  1.
         -2    1    1    2  502    0 -0.25025384780E+02 -0.22886608113E+01  0.59470090541E+03  0.59523161437E+03  0.25500000000E-02 0.  1.
<mgrwt>
<rscale>  0 0.58568581E+02</rscale>
<asrwt>0</asrwt>
<pdfrwt beam="1">  1        2 0.12096127E+00 0.58568581E+02</pdfrwt>
<pdfrwt beam="2">  1       -2 0.16780170E-03 0.58568581E+02</pdfrwt>
<totfact> 0.75961846E+05</totfact>
</mgrwt>
</event>
<event>
 4    1  0.4604841E-002  0.7000974E+02  0.7818608E-02  0.1360060E+00
         -2   -1    0    0  501    0 -0.00000000000E+00  0.00000000000E+00  0.18018352714E+01  0.18018370758E+01  0.25500000000E-02 0. -1.
          2   -1    0    0    0  501  0.00000000000E+00 -0.00000000000E+00 -0.68005126180E+03  0.68005126180E+03  0.25500000000E-02 0. -1.
          2    1    1    2    0  502 -0.14079566056E+02  0.21471782995E+02 -0.57084665177E+03  0.57142381074E+03  0.25500000000E-02 0. -1.
         -2    1    1    2  502    0  0.14079566056E+02 -0.21471782995E+02 -0.10740277476E+03  0.11042928814E+03  0.25500000000E-02 0. -1.
<mgrwt>
<rscale>  0 0.70009741E+02</rscale>
<asrwt>0</asrwt>
<pdfrwt beam="2">  1        2 0.10462307E+00 0.70009741E+02</pdfrwt>
<pdfrwt beam="1">  1       -2 0.27720611E-03 0.70009741E+02</pdfrwt>
<totfact> 0.46835870E+05</totfact>
</mgrwt>
</event>
<event>
 4    1  0.4604841E-002  0.4287772E+02  0.7818608E-02  0.1488043E+00
         -2   -1    0    0  501    0 -0.00000000000E+00  0.00000000000E+00  0.20400440153E+01  0.20400456090E+01  0.25500000000E-02 0.  1.
          2   -1    0    0    0  501  0.00000000000E+00 -0.00000000000E+00 -0.22530130746E+03  0.22530130747E+03  0.25500000000E-02 0.  1.
          2    1    1    2    0  502  0.17215493757E+02 -0.11693366289E+02 -0.13893339684E+03  0.14048343961E+03  0.25500000000E-02 0. -1.
         -2    1    1    2  502    0 -0.17215493757E+02  0.11693366289E+02 -0.84327866602E+02  0.86857913471E+02  0.25500000000E-02 0. -1.
<mgrwt>
<rscale>  0 0.42877722E+02</rscale>
<asrwt>0</asrwt>
<pdfrwt beam="2">  1        2 0.34661720E-01 0.42877722E+02</pdfrwt>
<pdfrwt beam="1">  1       -2 0.31385323E-03 0.42877722E+02</pdfrwt>
<totfact> 0.11209274E+06</totfact>
</mgrwt>
</event>
<event>
 4    1  0.4604841E-002  0.4772634E+02  0.7818608E-02  0.1458006E+00
          2   -1    0    0    0  501  0.00000000000E+00  0.00000000000E+00  0.86334638112E+03  0.86334638112E+03  0.25500000000E-02 0.  1.
         -2   -1    0    0  501    0 -0.00000000000E+00 -0.00000000000E+00 -0.65958312006E+00  0.65958804929E+00  0.25500000000E-02 0.  1.
          2    1    1    2    0  502 -0.18509727304E+02  0.11589198068E+02  0.25720161813E+03  0.25812708477E+03  0.25500000000E-02 0. -1.
         -2    1    1    2  502    0  0.18509727304E+02 -0.11589198068E+02  0.60548517987E+03  0.60587888441E+03  0.25500000000E-02 0. -1.
<mgrwt>
<rscale>  0 0.47726338E+02</rscale>
<asrwt>0</asrwt>
<pdfrwt beam="1">  1        2 0.13282254E+00 0.47726338E+02</pdfrwt>
<pdfrwt beam="2">  1       -2 0.10147469E-03 0.47726338E+02</pdfrwt>
<totfact> 0.12813787E+06</totfact>
</mgrwt>
</event>
<event>
 4    1  0.4604841E-002  0.6391420E+02  0.7818608E-02  0.1382103E+00
          2   -1    0    0    0  501  0.00000000000E+00  0.00000000000E+00  0.23483786518E+03  0.23483786519E+03  0.25500000000E-02 0.  1.
         -2   -1    0    0  501    0 -0.00000000000E+00 -0.00000000000E+00 -0.43487717660E+01  0.43487725136E+01  0.25500000000E-02 0.  1.
          2    1    1    2    0  502  0.10495895036E+02  0.28406107151E+02  0.15344279368E+03  0.15640256288E+03  0.25500000000E-02 0.  1.
         -2    1    1    2  502    0 -0.10495895036E+02 -0.28406107151E+02  0.77046299728E+02  0.82784074824E+02  0.25500000000E-02 0.  1.
<mgrwt>
<rscale>  0 0.63914204E+02</rscale>
<asrwt>0</asrwt>
<pdfrwt beam="1">  1        2 0.36128918E-01 0.63914204E+02</pdfrwt>
<pdfrwt beam="2">  1       -2 0.66904159E-03 0.63914204E+02</pdfrwt>
<totfact> 0.41702367E+05</totfact>
</mgrwt>
</event>
<event>
 4    1  0.4604841E-002  0.4253565E+02  0.7818608E-02  0.1490340E+00
         -2   -1    0    0  501    0 -0.00000000000E+00  0.00000000000E+00  0.76349431443E+00  0.76349857280E+00  0.25500000000E-02 0.  1.
          2   -1    0    0    0  501  0.00000000000E+00 -0.00000000000E+00 -0.59243290152E+03  0.59243290153E+03  0.25500000000E-02 0.  1.
          2    1    1    2    0  502 -0.42431879884E+01  0.20793237285E+02 -0.27632519776E+03  0.27713891514E+03  0.25500000000E-02 0.  1.
         -2    1    1    2  502    0  0.42431879884E+01 -0.20793237285E+02 -0.31534420944E+03  0.31605748496E+03  0.25500000000E-02 0.  1.
<mgrwt>
<rscale>  0 0.42535652E+02</rscale>
<asrwt>0</asrwt>
<pdfrwt beam="2">  1        2 0.91143156E-01 0.42535652E+02</pdfrwt>
<pdfrwt beam="1">  1       -2 0.11746147E-03 0.42535652E+02</pdfrwt>
<totfact> 0.15675653E+06</totfact>
</mgrwt>
</event>
<event>
 4    1  0.4604841E-002  0.5185879E+02  0.7818608E-02  0.1435566E+00
          2   -1    0    0    0  501  0.00000000000E+00  0.00000000000E+00  0.35327728563E+02  0.35327728655E+02  0.25500000000E-02 0. -1.
         -2   -1    0    0  501    0 -0.00000000000E+00 -0.00000000000E+00 -0.19031325019E+02  0.19031325189E+02  0.25500000000E-02 0. -1.
          2    1    1    2    0  502 -0.17755874236E+02  0.11751205222E+02  0.23659330689E+02  0.31829637591E+02  0.25500000000E-02 0. -1.
         -2    1    1    2  502    0  0.17755874236E+02 -0.11751205222E+02 -0.73629271452E+01  0.22529416253E+02  0.25500000000E-02 0. -1.
<mgrwt>
<rscale>  0 0.51858789E+02</rscale>
<asrwt>0</asrwt>
<pdfrwt beam="1">  1        2 0.54350352E-02 0.51858789E+02</pdfrwt>
<pdfrwt beam="2">  1       -2 0.29278962E-02 0.51858789E+02</pdfrwt>
<totfact> 0.43845090E+05</totfact>
</mgrwt>
</event>
<event>
 4    1  0.4604841E-002  0.8446441E+02  0.7818608E-02  0.1316839E+00
          2   -1    0    0    0  501  0.00000000000E+00  0.00000000000E+00  0.11704767838E+04  0.11704767838E+04  0.25500000000E-02 0. -1.
         -2   -1    0    0  501    0 -0.00000000000E+00 -0.00000000000E+00 -0.15237876264E+01  0.15237897601E+01  0.25500000000E-02 0. -1.
          2    1    1    2    0  502  0.18951317037E+02  0.29368974996E+02  0.91338268504E+03  0.91405121216E+03  0.25500000000E-02 0.  1.
         -2    1    1    2  502    0 -0.18951317037E+02 -0.29368974996E+02  0.25557031111E+03  0.25794936138E+03  0.25500000000E-02 0.  1.
<mgrwt>
<rscale>  0 0.84464414E+02</rscale>
<asrwt>0</asrwt>
<pdfrwt beam="1">  1        2 0.18007382E+00 0.84464414E+02</pdfrwt>
<pdfrwt beam="2">  1       -2 0.23442842E-03 0.84464414E+02</pdfrwt>
<totfact> 0.30466295E+05</totfact>
</mgrwt>
</event>
<event>
 4    1  0.4604841E-002  0.4869209E+02  0.7818608E-02  0.1452526E+00
          2   -1    0    0    0  501  0.00000000000E+00  0.00000000000E+00  0.37223956019E+03  0.37223956020E+03  0.25500000000E-02 0. -1.
         -2   -1    0    0  501    0 -0.00000000000E+00 -0.00000000000E+00 -0.15923336526E+01  0.15923356944E+01  0.25500000000E-02 0. -1.
          2    1    1    2    0  502 -0.16204303309E+02 -0.17267840704E+02  0.22873504300E+03  0.22995755624E+03  0.25500000000E-02 0.  1.
         -2    1    1    2  502    0  0.16204303309E+02  0.17267840704E+02  0.14191218353E+03  0.14387433965E+03  0.25500000000E-02 0.  1.
<mgrwt>
<rscale>  0 0.48692092E+02</rscale>
<asrwt>0</asrwt>
<pdfrwt beam="1">  1        2 0.57267756E-01 0.48692092E+02</pdfrwt>
<pdfrwt beam="2">  1       -2 0.24497400E-03 0.48692092E+02</pdfrwt>
<totfact> 0.97341026E+05</totfact>
</mgrwt>
</event>
<event>
 4    1  0.4604841E-002  0.5903952E+02  0.7818608E-02  0.1401907E+00
         -2   -1    0    0  501    0 -0.00000000000E+00  0.00000000000E+00  0.94041091528E+00  0.94041437253E+00  0.25500000000E-02 0. -1.
          2   -1    0    0    0  501  0.00000000000E+00 -0.00000000000E+00 -0.92663187864E+03  0.92663187864E+03  0.25500000000E-02 0. -1.
          2    1    1    2    0  502 -0.66687809669E+01  0.19814015034E+02 -0.79027996941E+03  0.79055644826E+03  0.25500000000E-02 0. -1.
         -2    1    1    2  502    0  0.66687809669E+01 -0.19814015034E+02 -0.13541149832E+03  0.13701584475E+03  0.25500000000E-02 0. -1.
<mgrwt>
<rscale>  0 0.59039524E+02</rscale>
<asrwt>0</asrwt>
<pdfrwt beam="2">  1        2 0.14255802E+00 0.59039524E+02</pdfrwt>
<pdfrwt beam="1">  1       -2 0.14467961E-03 0.59039524E+02</pdfrwt>
<totfact> 0.76143242E+05</totfact>
</mgrwt>
</event>
<event>
 4    1  0.4604841E-002  0.6228681E+02  0.7818608E-02  0.1388478E+00
         -2   -1    0    0  501    0 -0.00000000000E+00  0.00000000000E+00  0.10500785200E+02  0.10500785509E+02  0.25500000000E-02 0.  1.
          2   -1    0    0    0  501  0.00000000000E+00 -0.00000000000E+00 -0.92365629073E+02  0.92365629109E+02  0.25500000000E-02 0.  1.
          2    1    1    2    0  502 -0.19149656420E+02 -0.21724093110E+02 -0.59853844159E+02  0.66491565101E+02  0.25500000000E-02 0. -1.
         -2    1    1    2  502    0  0.19149656420E+02  0.21724093110E+02 -0.22010999715E+02  0.36374849517E+02  0.25500000000E-02 0. -1.
<mgrwt>
<rscale>  0 0.62286809E+02</rscale>
<asrwt>0</asrwt>
<pdfrwt beam="2">  1        2 0.14210096E-01 0.62286809E+02</pdfrwt>
<pdfrwt beam="1">  1       -2 0.16155055E-02 0.62286809E+02</pdfrwt>
<totfact> 0.33324080E+05</totfact>
</mgrwt>
</event>
<event>
 4    1  0.4604841E-002  0.6625461E+02  0.7818608E-02  0.1373313E+00
          2   -1    0    0    0  501  0.00000000000E+00  0.00000000000E+00  0.10943200393E+04  0.10943200393E+04  0.25500000000E-02 0.  1.
         -2   -1    0    0  501    0 -0.00000000000E+00 -0.00000000000E+00 -0.10028295738E+01  0.10028328158E+01  0.25500000000E-02 0.  1.
          2    1    1    2    0  502  0.68467401621E+01 -0.19013493192E+02  0.11270395837E+03  0.11450141052E+03  0.25500000000E-02 0.  1.
         -2    1    1    2  502    0 -0.68467401621E+01  0.19013493192E+02  0.98061325133E+03  0.98082146157E+03  0.25500000000E-02 0.  1.
<mgrwt>
<rscale>  0 0.66254608E+02</rscale>
<asrwt>0</asrwt>
<pdfrwt beam="1">  1        2 0.16835703E+00 0.66254608E+02</pdfrwt>
<pdfrwt beam="2">  1       -2 0.15428163E-03 0.66254608E+02</pdfrwt>
<totfact> 0.57214955E+05</totfact>
</mgrwt>
</event>
<event>
 4    1  0.4604841E-002  0.9653070E+02  0.7818608E-02  0.1287765E+00
         -2   -1    0    0  501    0 -0.00000000000E+00  0.00000000000E+00  0.18521058699E+03  0.18521058701E+03  0.25500000000E-02 0. -1.
          2   -1    0    0    0  501  0.00000000000E+00 -0.00000000000E+00 -0.12577811820E+02  0.12577812079E+02  0.25500000000E-02 0. -1.
          2    1    1    2    0  502  0.30807251811E+02  0.37137033685E+02  0.83982094871E+02  0.96856792744E+02  0.25500000000E-02 0. -1.
         -2    1    1    2  502    0 -0.30807251811E+02 -0.37137033685E+02  0.88650680303E+02  0.10093160635E+03  0.25500000000E-02 0. -1.
<mgrwt>
<rscale>  0 0.96530698E+02</rscale>
<asrwt>0</asrwt>
<pdfrwt beam="2">  1        2 0.19350481E-02 0.96530698E+02</pdfrwt>
<pdfrwt beam="1">  1       -2 0.28493935E-01 0.96530698E+02</pdfrwt>
<totfact> 0.55654363E+04</totfact>
</mgrwt>
</event>
<event>
 4    1  0.4604841E-002  0.4120093E+02  0.7818608E-02  0.1499555E+00
          2   -1    0    0    0  501  0.00000000000E+00  0.00000000000E+00  0.11271329166E+04  0.11271329166E+04  0.25500000000E-02 0.  1.
         -2   -1    0    0  501    0 -0.00000000000E+00 -0.00000000000E+00 -0.37650770093E+00  0.37651633612E+00  0.25500000000E-02 0.  1.
          2    1    1    2    0  502  0.29137228319E+01 -0.20337024026E+02  0.52192274112E+03  0.52232693979E+03  0.25500000000E-02 0.  1.
         -2    1    1    2  502    0 -0.29137228319E+01  0.20337024026E+02  0.60483366777E+03  0.60518249314E+03  0.25500000000E-02 0.  1.
<mgrwt>
<rscale>  0 0.41200927E+02</rscale>
<asrwt>0</asrwt>
<pdfrwt beam="1">  1        2 0.17340572E+00 0.41200927E+02</pdfrwt>
<pdfrwt beam="2">  1       -2 0.57924708E-04 0.41200927E+02</pdfrwt>
<totfact> 0.18573831E+06</totfact>
</mgrwt>
</event>
<event>
 4    1  0.4604841E-002  0.6883126E+02  0.7818608E-02  0.1364113E+00
          2   -1    0    0    0  501  0.00000000000E+00  0.00000000000E+00  0.91040734826E+02  0.91040734862E+02  0.25500000000E-02 0. -1.
         -2   -1    0    0  501    0 -0.00000000000E+00 -0.00000000000E+00 -0.13009952838E+02  0.13009953088E+02  0.25500000000E-02 0. -1.
          2    1    1    2    0  502  0.13859366263E+02 -0.30405745113E+02  0.51466726069E+02  0.61362979620E+02  0.25500000000E-02 0. -1.
         -2    1    1    2  502    0 -0.13859366263E+02  0.30405745113E+02  0.26564055919E+02  0.42687708330E+02  0.25500000000E-02 0. -1.
<mgrwt>
<rscale>  0 0.68831263E+02</rscale>
<asrwt>0</asrwt>
<pdfrwt beam="1">  1        2 0.14006267E-01 0.68831263E+02</pdfrwt>
<pdfrwt beam="2">  1       -2 0.20015312E-02 0.68831263E+02</pdfrwt>
<totfact> 0.25517192E+05</totfact>
</mgrwt>
</event>
<event>
 4    1  0.4604841E-002  0.4420995E+02  0.7818608E-02  0.1479335E+00
         -2   -1    0    0  501    0 -0.00000000000E+00  0.00000000000E+00  0.47363489022E+00  0.47364175463E+00  0.25500000000E-02 0.  1.
          2   -1    0    0    0  501  0.00000000000E+00 -0.00000000000E+00 -0.10316518805E+04  0.10316518805E+04  0.25500000000E-02 0.  1.
          2    1    1    2    0  502 -0.19288222751E+02  0.89141452985E+01 -0.65785104491E+03  0.65819411637E+03  0.25500000000E-02 0.  1.
         -2    1    1    2  502    0  0.19288222751E+02 -0.89141452985E+01 -0.37332720072E+03  0.37393140591E+03  0.25500000000E-02 0.  1.
<mgrwt>
<rscale>  0 0.44209948E+02</rscale>
<asrwt>0</asrwt>
<pdfrwt beam="2">  1        2 0.15871388E+00 0.44209948E+02</pdfrwt>
<pdfrwt beam="1">  1       -2 0.72868260E-04 0.44209948E+02</pdfrwt>
<totfact> 0.15668955E+06</totfact>
</mgrwt>
</event>
<event>
 4    1  0.4604841E-002  0.5096915E+02  0.7818608E-02  0.1440183E+00
          2   -1    0    0    0  501  0.00000000000E+00  0.00000000000E+00  0.11180566614E+03  0.11180566617E+03  0.25500000000E-02 0. -1.
         -2   -1    0    0  501    0 -0.00000000000E+00 -0.00000000000E+00 -0.58088606276E+01  0.58088611873E+01  0.25500000000E-02 0. -1.
          2    1    1    2    0  502 -0.11638868768E+01  0.25020671580E+02  0.42156558715E+02  0.49036354760E+02  0.25500000000E-02 0. -1.
         -2    1    1    2  502    0  0.11638868768E+01 -0.25020671580E+02  0.63840246803E+02  0.68578172601E+02  0.25500000000E-02 0. -1.
<mgrwt>
<rscale>  0 0.50969150E+02</rscale>
<asrwt>0</asrwt>
<pdfrwt beam="1">  1        2 0.17200873E-01 0.50969150E+02</pdfrwt>
<pdfrwt beam="2">  1       -2 0.89367085E-03 0.50969150E+02</pdfrwt>
<totfact> 0.58757849E+05</totfact>
</mgrwt>
</event>
<event>
 4    1  0.4604841E-002  0.7021931E+02  0.7818608E-02  0.1359349E+00
         -2   -1    0    0  501    0 -0.00000000000E+00  0.00000000000E+00  0.87840325772E+03  0.87840325772E+03  0.25500000000E-02 0.  1.
          2   -1    0    0    0  501  0.00000000000E+00 -0.00000000000E+00 -0.14033269619E+01  0.14033292787E+01  0.25500000000E-02 0.  1.
          2    1    1    2    0  502 -0.15668530057E+01  0.34386517832E+02  0.35187438067E+03  0.35355405162E+03  0.25500000000E-02 0.  1.
         -2    1    1    2  502    0  0.15668530057E+01 -0.34386517832E+02  0.52512555008E+03  0.52625253538E+03  0.25500000000E-02 0.  1.
<mgrwt>
<rscale>  0 0.70219313E+02</rscale>
<asrwt>0</asrwt>
<pdfrwt beam="2">  1        2 0.21589679E-03 0.70219313E+02</pdfrwt>
<pdfrwt beam="1">  1       -2 0.13513886E+00 0.70219313E+02</pdfrwt>
<totfact> 0.42299849E+04</totfact>
</mgrwt>
</event>
<event>
 4    1  0.4604841E-002  0.6512660E+02  0.7818608E-02  0.1377496E+00
         -2   -1    0    0  501    0 -0.00000000000E+00  0.00000000000E+00  0.13975894413E+02  0.13975894646E+02  0.25500000000E-02 0. -1.
          2   -1    0    0    0  501  0.00000000000E+00 -0.00000000000E+00 -0.75871237614E+02  0.75871237657E+02  0.25500000000E-02 0. -1.
          2    1    1    2    0  502 -0.28832126469E+02  0.96632615004E+01 -0.14877038310E+02  0.33852568809E+02  0.25500000000E-02 0. -1.
         -2    1    1    2  502    0  0.28832126469E+02 -0.96632615004E+01 -0.47018304891E+02  0.55994563494E+02  0.25500000000E-02 0. -1.
<mgrwt>
<rscale>  0 0.65126597E+02</rscale>
<asrwt>0</asrwt>
<pdfrwt beam="2">  1        2 0.11672498E-01 0.65126597E+02</pdfrwt>
<pdfrwt beam="1">  1       -2 0.21501377E-02 0.65126597E+02</pdfrwt>
<totfact> 0.28185212E+05</totfact>
</mgrwt>
</event>
<event>
 4    1  0.4604841E-002  0.4378663E+02  0.7818608E-02  0.1482062E+00
          2   -1    0    0    0  501  0.00000000000E+00  0.00000000000E+00  0.17191025224E+03  0.17191025226E+03  0.25500000000E-02 0.  1.
         -2   -1    0    0  501    0 -0.00000000000E+00 -0.00000000000E+00 -0.27881827688E+01  0.27881839349E+01  0.25500000000E-02 0.  1.
          2    1    1    2    0  502  0.13612863971E+02 -0.16569356407E+02  0.10216294299E+03  0.10438927418E+03  0.25500000000E-02 0. -1.
         -2    1    1    2  502    0 -0.13612863971E+02  0.16569356407E+02  0.66959126478E+02  0.70309162009E+02  0.25500000000E-02 0. -1.
<mgrwt>
<rscale>  0 0.43786633E+02</rscale>
<asrwt>0</asrwt>
<pdfrwt beam="1">  1        2 0.26447736E-01 0.43786633E+02</pdfrwt>
<pdfrwt beam="2">  1       -2 0.42895120E-03 0.43786633E+02</pdfrwt>
<totfact> 0.97494034E+05</totfact>
</mgrwt>
</event>
<event>
 4    1  0.4604841E-002  0.4612612E+02  0.7818608E-02  0.1467431E+00
         -2   -1    0    0  501    0 -0.00000000000E+00  0.00000000000E+00  0.47431409675E+01  0.47431416530E+01  0.25500000000E-02 0. -1.
          2   -1    0    0    0  501  0.00000000000E+00 -0.00000000000E+00 -0.11214188719E+03  0.11214188722E+03  0.25500000000E-02 0. -1.
          2    1    1    2    0  502 -0.19913630150E+02 -0.74174993446E+01 -0.76411537509E+02  0.79311380226E+02  0.25500000000E-02 0. -1.
         -2    1    1    2  502    0  0.19913630150E+02  0.74174993446E+01 -0.30987208716E+02  0.37573648649E+02  0.25500000000E-02 0. -1.
<mgrwt>
<rscale>  0 0.46126124E+02</rscale>
<asrwt>0</asrwt>
<pdfrwt beam="2">  1        2 0.17252596E-01 0.46126124E+02</pdfrwt>
<pdfrwt beam="1">  1       -2 0.72971413E-03 0.46126124E+02</pdfrwt>
<totfact> 0.75602788E+05</totfact>
</mgrwt>
</event>
<event>
 4    1  0.4604841E-002  0.6283501E+02  0.7818608E-02  0.1386305E+00
          2   -1    0    0    0  501  0.00000000000E+00  0.00000000000E+00  0.95421644531E+03  0.95421644532E+03  0.25500000000E-02 0.  1.
         -2   -1    0    0  501    0 -0.00000000000E+00 -0.00000000000E+00 -0.10344175134E+01  0.10344206565E+01  0.25500000000E-02 0.  1.
          2    1    1    2    0  502  0.16185912233E+02  0.13189638866E+02  0.11970080735E+03  0.12150816275E+03  0.25500000000E-02 0.  1.
         -2    1    1    2  502    0 -0.16185912233E+02 -0.13189638866E+02  0.83348122045E+03  0.83374270322E+03  0.25500000000E-02 0.  1.
<mgrwt>
<rscale>  0 0.62835013E+02</rscale>
<asrwt>0</asrwt>
<pdfrwt beam="1">  1        2 0.14680259E+00 0.62835013E+02</pdfrwt>
<pdfrwt beam="2">  1       -2 0.15914133E-03 0.62835013E+02</pdfrwt>
<totfact> 0.65223007E+05</totfact>
</mgrwt>
</event>
<event>
 4    1  0.4604841E-002  0.6072549E+02  0.7818608E-02  0.1394812E+00
          2   -1    0    0    0  501  0.00000000000E+00  0.00000000000E+00  0.11107830248E+04  0.11107830248E+04  0.25500000000E-02 0.  1.
         -2   -1    0    0  501    0 -0.00000000000E+00 -0.00000000000E+00 -0.82994965786E+00  0.82995357526E+00  0.25500000000E-02 0.  1.
          2    1    1    2    0  502 -0.25753521290E+02 -0.13349599920E+02  0.71915642486E+03  0.71974121676E+03  0.25500000000E-02 0.  1.
         -2    1    1    2  502    0  0.25753521290E+02  0.13349599920E+02  0.39079665030E+03  0.39187176164E+03  0.25500000000E-02 0.  1.
<mgrwt>
<rscale>  0 0.60725486E+02</rscale>
<asrwt>0</asrwt>
<pdfrwt beam="1">  1        2 0.17089044E+00 0.60725486E+02</pdfrwt>
<pdfrwt beam="2">  1       -2 0.12768431E-03 0.60725486E+02</pdfrwt>
<totfact> 0.71320480E+05</totfact>
</mgrwt>
</event>
<event>
 4    1  0.4604841E-002  0.5590085E+02  0.7818608E-02  0.1415886E+00
          2   -1    0    0    0  501  0.00000000000E+00  0.00000000000E+00  0.17310861837E+01  0.17310880618E+01  0.25500000000E-02 0. -1.
         -2   -1    0    0  501    0 -0.00000000000E+00 -0.00000000000E+00 -0.45129233360E+03  0.45129233361E+03  0.25500000000E-02 0. -1.
          2    1    1    2    0  502  0.21668311675E+02  0.67240567509E+01 -0.92483948484E+02  0.95226096233E+02  0.25500000000E-02 0.  1.
         -2    1    1    2  502    0 -0.21668311675E+02 -0.67240567509E+01 -0.35707729893E+03  0.35779732544E+03  0.25500000000E-02 0.  1.
<mgrwt>
<rscale>  0 0.55900853E+02</rscale>
<asrwt>0</asrwt>
<pdfrwt beam="1">  1        2 0.26632146E-03 0.55900853E+02</pdfrwt>
<pdfrwt beam="2">  1       -2 0.69429496E-01 0.55900853E+02</pdfrwt>
<totfact> 0.13591539E+05</totfact>
</mgrwt>
</event>
<event>
 4    1  0.4604841E-002  0.1130337E+03  0.7818608E-02  0.1255053E+00
          2   -1    0    0    0  501  0.00000000000E+00  0.00000000000E+00  0.18109742226E+02  0.18109742405E+02  0.25500000000E-02 0. -1.
         -2   -1    0    0  501    0 -0.00000000000E+00 -0.00000000000E+00 -0.17637781265E+03  0.17637781267E+03  0.25500000000E-02 0. -1.
          2    1    1    2    0  502 -0.37148766550E+02 -0.17428646391E+02 -0.12264990244E+02  0.42827777941E+02  0.25500000000E-02 0.  1.
         -2    1    1    2  502    0  0.37148766550E+02  0.17428646391E+02 -0.14600308018E+03  0.15165977713E+03  0.25500000000E-02 0.  1.
<mgrwt>
<rscale>  0 0.11303374E+03</rscale>
<asrwt>0</asrwt>
<pdfrwt beam="1">  1        2 0.27861143E-02 0.11303374E+03</pdfrwt>
<pdfrwt beam="2">  1       -2 0.27135047E-01 0.11303374E+03</pdfrwt>
<totfact> 0.37977067E+04</totfact>
</mgrwt>
</event>
<event>
 4    1  0.4604841E-002  0.4168060E+02  0.7818608E-02  0.1496196E+00
          2   -1    0    0    0  501  0.00000000000E+00  0.00000000000E+00  0.96973821928E+02  0.96973821962E+02  0.25500000000E-02 0. -1.
         -2   -1    0    0  501    0 -0.00000000000E+00 -0.00000000000E+00 -0.44787135210E+01  0.44787142469E+01  0.25500000000E-02 0. -1.
          2    1    1    2    0  502 -0.17235215466E+02 -0.11542463084E+02  0.51138047072E+02  0.55184970518E+02  0.25500000000E-02 0. -1.
         -2    1    1    2  502    0  0.17235215466E+02  0.11542463084E+02  0.41357061335E+02  0.46267565690E+02  0.25500000000E-02 0. -1.
<mgrwt>
<rscale>  0 0.41680595E+02</rscale>
<asrwt>0</asrwt>
<pdfrwt beam="1">  1        2 0.14919048E-01 0.41680595E+02</pdfrwt>
<pdfrwt beam="2">  1       -2 0.68903297E-03 0.41680595E+02</pdfrwt>
<totfact> 0.93684335E+05</totfact>
</mgrwt>
</event>
<event>
 4    1  0.4604841E-002  0.5714509E+02  0.7818608E-02  0.1410219E+00
          2   -1    0    0    0  501  0.00000000000E+00  0.00000000000E+00  0.18861672461E+03  0.18861672462E+03  0.25500000000E-02 0.  1.
         -2   -1    0    0  501    0 -0.00000000000E+00 -0.00000000000E+00 -0.43283027568E+01  0.43283035079E+01  0.25500000000E-02 0.  1.
          2    1    1    2    0  502 -0.14201780377E+02 -0.23502782211E+02  0.11879836883E+03  0.12193081555E+03  0.25500000000E-02 0.  1.
         -2    1    1    2  502    0  0.14201780377E+02  0.23502782211E+02  0.65490053018E+02  0.71014212580E+02  0.25500000000E-02 0.  1.
<mgrwt>
<rscale>  0 0.57145091E+02</rscale>
<asrwt>0</asrwt>
<pdfrwt beam="1">  1        2 0.29017959E-01 0.57145091E+02</pdfrwt>
<pdfrwt beam="2">  1       -2 0.66589276E-03 0.57145091E+02</pdfrwt>
<totfact> 0.51523481E+05</totfact>
</mgrwt>
</event>
<event>
 4    1  0.4604841E-002  0.4693146E+02  0.7818608E-02  0.1462632E+00
          2   -1    0    0    0  501  0.00000000000E+00  0.00000000000E+00  0.63986496025E+03  0.63986496026E+03  0.25500000000E-02 0.  1.
         -2   -1    0    0  501    0 -0.00000000000E+00 -0.00000000000E+00 -0.86055556186E+00  0.86055933994E+00  0.25500000000E-02 0.  1.
          2    1    1    2    0  502 -0.23259931948E+02 -0.27575742903E+01  0.30013745945E+03  0.30105003441E+03  0.25500000000E-02 0.  1.
         -2    1    1    2  502    0  0.23259931948E+02  0.27575742903E+01  0.33886694524E+03  0.33967548518E+03  0.25500000000E-02 0.  1.
<mgrwt>
<rscale>  0 0.46931463E+02</rscale>
<asrwt>0</asrwt>
<pdfrwt beam="1">  1        2 0.98440484E-01 0.46931463E+02</pdfrwt>
<pdfrwt beam="2">  1       -2 0.13239383E-03 0.46931463E+02</pdfrwt>
<totfact> 0.12587142E+06</totfact>
</mgrwt>
</event>
<event>
 4    1  0.4604841E-002  0.7811887E+02  0.7818608E-02  0.1334476E+00
         -2   -1    0    0  501    0 -0.00000000000E+00  0.00000000000E+00  0.72238386501E+02  0.72238386547E+02  0.25500000000E-02 0. -1.
          2   -1    0    0    0  501  0.00000000000E+00 -0.00000000000E+00 -0.21119512873E+02  0.21119513027E+02  0.25500000000E-02 0. -1.
          2    1    1    2    0  502  0.84529627100E+01  0.34722519383E+02  0.67191431308E+01  0.36362794472E+02  0.25500000000E-02 0.  1.
         -2    1    1    2  502    0 -0.84529627100E+01 -0.34722519383E+02  0.44399730497E+02  0.56995105102E+02  0.25500000000E-02 0.  1.
<mgrwt>
<rscale>  0 0.78118872E+02</rscale>
<asrwt>0</asrwt>
<pdfrwt beam="2">  1        2 0.32491558E-02 0.78118872E+02</pdfrwt>
<pdfrwt beam="1">  1       -2 0.11113598E-01 0.78118872E+02</pdfrwt>
<totfact> 0.12769810E+05</totfact>
</mgrwt>
</event>
<event>
 4    1  0.4604841E-002  0.5189615E+02  0.7818608E-02  0.1435375E+00
          2   -1    0    0    0  501  0.00000000000E+00  0.00000000000E+00  0.10569053610E+02  0.10569053918E+02  0.25500000000E-02 0. -1.
         -2   -1    0    0  501    0 -0.00000000000E+00 -0.00000000000E+00 -0.63705100438E+02  0.63705100489E+02  0.25500000000E-02 0. -1.
          2    1    1    2    0  502 -0.24505817116E+02 -0.65768089166E+01 -0.34343200268E+02  0.42699471885E+02  0.25500000000E-02 0.  1.
         -2    1    1    2  502    0  0.24505817116E+02  0.65768089166E+01 -0.18792846559E+02  0.31574682522E+02  0.25500000000E-02 0.  1.
<mgrwt>
<rscale>  0 0.51896151E+02</rscale>
<asrwt>0</asrwt>
<pdfrwt beam="1">  1        2 0.16260083E-02 0.51896151E+02</pdfrwt>
<pdfrwt beam="2">  1       -2 0.98007845E-02 0.51896151E+02</pdfrwt>
<totfact> 0.35638832E+05</totfact>
</mgrwt>
</event>
<event>
 4    1  0.4604841E-002  0.8888478E+02  0.7818608E-02  0.1305575E+00
         -2   -1    0    0  501    0 -0.00000000000E+00  0.00000000000E+00  0.17719193475E+02  0.17719193659E+02  0.25500000000E-02 0. -1.
          2   -1    0    0    0  501  0.00000000000E+00 -0.00000000000E+00 -0.11146817568E+03  0.11146817570E+03  0.25500000000E-02 0. -1.
          2    1    1    2    0  502  0.26295084934E+02 -0.34030089409E+02 -0.63166322614E+02  0.76416377799E+02  0.25500000000E-02 0. -1.
         -2    1    1    2  502    0 -0.26295084934E+02  0.34030089409E+02 -0.30582659586E+02  0.52770991565E+02  0.25500000000E-02 0. -1.
<mgrwt>
<rscale>  0 0.88884784E+02</rscale>
<asrwt>0</asrwt>
<pdfrwt beam="2">  1        2 0.17148950E-01 0.88884784E+02</pdfrwt>
<pdfrwt beam="1">  1       -2 0.27260299E-02 0.88884784E+02</pdfrwt>
<totfact> 0.13600940E+05</totfact>
</mgrwt>
</event>
<event>
 4    1  0.4604841E-002  0.1873374E+03  0.7818608E-02  0.1160885E+00
         -2   -1    0    0  501    0 -0.00000000000E+00  0.00000000000E+00  0.99978771519E+01  0.99978774771E+01  0.25500000000E-02 0. -1.
          2   -1    0    0    0  501  0.00000000000E+00 -0.00000000000E+00 -0.87756881360E+03  0.87756881360E+03  0.25500000000E-02 0. -1.
          2    1    1    2    0  502 -0.54269756828E+02  0.75583744815E+02 -0.38282025342E+03  0.39396631255E+03  0.25500000000E-02 0. -1.
         -2    1    1    2  502    0  0.54269756828E+02 -0.75583744815E+02 -0.48475068302E+03  0.49360037853E+03  0.25500000000E-02 0. -1.
<mgrwt>
<rscale>  0 0.18733740E+03</rscale>
<asrwt>0</asrwt>
<pdfrwt beam="2">  1        2 0.13501053E+00 0.18733740E+03</pdfrwt>
<pdfrwt beam="1">  1       -2 0.15381357E-02 0.18733740E+03</pdfrwt>
<totfact> 0.34635590E+04</totfact>
</mgrwt>
</event>
<event>
 4    1  0.4604841E-002  0.7420762E+02  0.7818608E-02  0.1346342E+00
          2   -1    0    0    0  501  0.00000000000E+00  0.00000000000E+00  0.41780195859E+03  0.41780195860E+03  0.25500000000E-02 0.  1.
         -2   -1    0    0  501    0 -0.00000000000E+00 -0.00000000000E+00 -0.32950840679E+01  0.32950850546E+01  0.25500000000E-02 0.  1.
          2    1    1    2    0  502  0.29219971561E+01  0.34399809523E+02  0.28439596183E+03  0.28648376582E+03  0.25500000000E-02 0.  1.
         -2    1    1    2  502    0 -0.29219971561E+01 -0.34399809523E+02  0.13011091269E+03  0.13461327783E+03  0.25500000000E-02 0.  1.
<mgrwt>
<rscale>  0 0.74207622E+02</rscale>
<asrwt>0</asrwt>
<pdfrwt beam="1">  1        2 0.64277212E-01 0.74207622E+02</pdfrwt>
<pdfrwt beam="2">  1       -2 0.50693619E-03 0.74207622E+02</pdfrwt>
<totfact> 0.34801272E+05</totfact>
</mgrwt>
</event>
<event>
 4    1  0.4604841E-002  0.5799348E+02  0.7818608E-02  0.1406450E+00
          2   -1    0    0    0  501  0.00000000000E+00  0.00000000000E+00  0.51522223670E+03  0.51522223670E+03  0.25500000000E-02 0. -1.
         -2   -1    0    0  501    0 -0.00000000000E+00 -0.00000000000E+00 -0.16319374685E+01  0.16319394607E+01  0.25500000000E-02 0. -1.
          2    1    1    2    0  502  0.46026451708E+01  0.20793017868E+02  0.81407210852E+02  0.84146704748E+02  0.25500000000E-02 0.  1.
         -2    1    1    2  502    0 -0.46026451708E+01 -0.20793017868E+02  0.43218308837E+03  0.43270747142E+03  0.25500000000E-02 0.  1.
<mgrwt>
<rscale>  0 0.57993482E+02</rscale>
<asrwt>0</asrwt>
<pdfrwt beam="1">  1        2 0.79264885E-01 0.57993482E+02</pdfrwt>
<pdfrwt beam="2">  1       -2 0.25106769E-03 0.57993482E+02</pdfrwt>
<totfact> 0.70001803E+05</totfact>
</mgrwt>
</event>
<event>
 4    1  0.4604841E-002  0.4962215E+02  0.7818608E-02  0.1447390E+00
         -2   -1    0    0  501    0 -0.00000000000E+00  0.00000000000E+00  0.13917409935E+01  0.13917433296E+01  0.25500000000E-02 0. -1.
          2   -1    0    0    0  501  0.00000000000E+00 -0.00000000000E+00 -0.44231574825E+03  0.44231574826E+03  0.25500000000E-02 0. -1.
          2    1    1    2    0  502  0.18634329957E+02  0.10646114962E+02 -0.10913434672E+03  0.11122447418E+03  0.25500000000E-02 0. -1.
         -2    1    1    2  502    0 -0.18634329957E+02 -0.10646114962E+02 -0.33178966053E+03  0.33248301740E+03  0.25500000000E-02 0. -1.
<mgrwt>
<rscale>  0 0.49622151E+02</rscale>
<asrwt>0</asrwt>
<pdfrwt beam="2">  1        2 0.68048465E-01 0.49622151E+02</pdfrwt>
<pdfrwt beam="1">  1       -2 0.21411453E-03 0.49622151E+02</pdfrwt>
<totfact> 0.98427025E+05</totfact>
</mgrwt>
</event>
<event>
 4    1  0.4604841E-002  0.1694618E+03  0.7818608E-02  0.1178410E+00
          2   -1    0    0    0  501  0.00000000000E+00  0.00000000000E+00  0.49497074961E+03  0.49497074962E+03  0.25500000000E-02 0.  1.
         -2   -1    0    0  501    0 -0.00000000000E+00 -0.00000000000E+00 -0.14504540993E+02  0.14504541218E+02  0.25500000000E-02 0.  1.
          2    1    1    2    0  502 -0.77534184273E+02  0.25870854533E+02  0.17310999428E+03  0.19143646719E+03  0.25500000000E-02 0.  1.
         -2    1    1    2  502    0  0.77534184273E+02 -0.25870854533E+02  0.30735621434E+03  0.31803882364E+03  0.25500000000E-02 0.  1.
<mgrwt>
<rscale>  0 0.16946178E+03</rscale>
<asrwt>0</asrwt>
<pdfrwt beam="1">  1        2 0.76149345E-01 0.16946178E+03</pdfrwt>
<pdfrwt beam="2">  1       -2 0.22314679E-02 0.16946178E+03</pdfrwt>
<totfact> 0.39390999E+04</totfact>
</mgrwt>
</event>
<event>
 4    1  0.4604841E-002  0.4393920E+02  0.7818608E-02  0.1481075E+00
         -2   -1    0    0  501    0 -0.00000000000E+00  0.00000000000E+00  0.26832047825E+00  0.26833259502E+00  0.25500000000E-02 0. -1.
          2   -1    0    0    0  501  0.00000000000E+00 -0.00000000000E+00 -0.17987909035E+04  0.17987909035E+04  0.25500000000E-02 0. -1.
          2    1    1    2    0  502 -0.23779339716E+01  0.21691079772E+02 -0.79482672242E+03  0.79512620142E+03  0.25500000000E-02 0.  1.
         -2    1    1    2  502    0  0.23779339716E+01 -0.21691079772E+02 -0.10036958606E+04  0.10039330347E+04  0.25500000000E-02 0.  1.
<mgrwt>
<rscale>  0 0.43939201E+02</rscale>
<asrwt>0</asrwt>
<pdfrwt beam="2">  1        2 0.27672741E+00 0.43939201E+02</pdfrwt>
<pdfrwt beam="1">  1       -2 0.41282446E-04 0.43939201E+02</pdfrwt>
<totfact> 0.13758884E+06</totfact>
</mgrwt>
</event>
<event>
 4    1  0.4604841E-002  0.4554824E+02  0.7818608E-02  0.1470948E+00
         -2   -1    0    0  501    0 -0.00000000000E+00  0.00000000000E+00  0.10993072791E+02  0.10993073086E+02  0.25500000000E-02 0.  1.
          2   -1    0    0    0  501  0.00000000000E+00 -0.00000000000E+00 -0.47180669519E+02  0.47180669588E+02  0.25500000000E-02 0.  1.
          2    1    1    2    0  502  0.19046046670E+02  0.72373319385E+01 -0.31089143584E+02  0.37170764354E+02  0.25500000000E-02 0.  1.
         -2    1    1    2  502    0 -0.19046046670E+02 -0.72373319385E+01 -0.50984531447E+01  0.21002978320E+02  0.25500000000E-02 0.  1.
<mgrwt>
<rscale>  0 0.45548240E+02</rscale>
<asrwt>0</asrwt>
<pdfrwt beam="2">  1        2 0.72585645E-02 0.45548240E+02</pdfrwt>
<pdfrwt beam="1">  1       -2 0.16912420E-02 0.45548240E+02</pdfrwt>
<totfact> 0.64418236E+05</totfact>
</mgrwt>
</event>
<event>
 4    1  0.4604841E-002  0.7002262E+02  0.7818608E-02  0.1360016E+00
          2   -1    0    0    0  501  0.00000000000E+00  0.00000000000E+00  0.49897260794E+03  0.49897260794E+03  0.25500000000E-02 0.  1.
         -2   -1    0    0  501    0 -0.00000000000E+00 -0.00000000000E+00 -0.24566309367E+01  0.24566322601E+01  0.25500000000E-02 0.  1.
          2    1    1    2    0  502  0.34077792471E+02 -0.67682292553E+01  0.21730225184E+03  0.22006220377E+03  0.25500000000E-02 0.  1.
         -2    1    1    2  502    0 -0.34077792471E+02  0.67682292553E+01  0.27921372516E+03  0.28136703643E+03  0.25500000000E-02 0.  1.
<mgrwt>
<rscale>  0 0.70022621E+02</rscale>
<asrwt>0</asrwt>
<pdfrwt beam="1">  1        2 0.76765056E-01 0.70022621E+02</pdfrwt>
<pdfrwt beam="2">  1       -2 0.37794313E-03 0.70022621E+02</pdfrwt>
<totfact> 0.42890279E+05</totfact>
</mgrwt>
</event>
<event>
 4    1  0.4604841E-002  0.6617676E+02  0.7818608E-02  0.1373599E+00
          2   -1    0    0    0  501  0.00000000000E+00  0.00000000000E+00  0.58768094738E+02  0.58768094793E+02  0.25500000000E-02 0. -1.
         -2   -1    0    0  501    0 -0.00000000000E+00 -0.00000000000E+00 -0.18629849664E+02  0.18629849839E+02  0.25500000000E-02 0. -1.
          2    1    1    2    0  502 -0.30984100846E+02 -0.34849287856E+01  0.33023410789E+02  0.45417011136E+02  0.25500000000E-02 0.  1.
         -2    1    1    2  502    0  0.30984100846E+02  0.34849287856E+01  0.71148342854E+01  0.31980933496E+02  0.25500000000E-02 0.  1.
<mgrwt>
<rscale>  0 0.66176757E+02</rscale>
<asrwt>0</asrwt>
<pdfrwt beam="1">  1        2 0.90412453E-02 0.66176757E+02</pdfrwt>
<pdfrwt beam="2">  1       -2 0.28661308E-02 0.66176757E+02</pdfrwt>
<totfact> 0.25428588E+05</totfact>
</mgrwt>
</event>
<event>
 4    1  0.4604841E-002  0.5179775E+02  0.7818608E-02  0.1435879E+00
         -2   -1    0    0  501    0 -0.00000000000E+00  0.00000000000E+00  0.31385022215E+01  0.31385032574E+01  0.25500000000E-02 0. -1.
          2   -1    0    0    0  501  0.00000000000E+00 -0.00000000000E+00 -0.21371709646E+03  0.21371709647E+03  0.25500000000E-02 0. -1.
          2    1    1    2    0  502 -0.22438221296E+02 -0.12738076797E+01 -0.51404970390E+02  0.56103184832E+02  0.25500000000E-02 0. -1.
         -2    1    1    2  502    0  0.22438221296E+02  0.12738076797E+01 -0.15917362385E+03  0.16075241490E+03  0.25500000000E-02 0. -1.
<mgrwt>
<rscale>  0 0.51797749E+02</rscale>
<asrwt>0</asrwt>
<pdfrwt beam="2">  1        2 0.32879542E-01 0.51797749E+02</pdfrwt>
<pdfrwt beam="1">  1       -2 0.48284675E-03 0.51797749E+02</pdfrwt>
<totfact> 0.68893549E+05</totfact>
</mgrwt>
</event>
<event>
 4    1  0.4604841E-002  0.9079144E+02  0.7818608E-02  0.1300946E+00
          2   -1    0    0    0  501  0.00000000000E+00  0.00000000000E+00  0.12160931169E+04  0.12160931169E+04  0.25500000000E-02 0. -1.
         -2   -1    0    0  501    0 -0.00000000000E+00 -0.00000000000E+00 -0.16945825327E+01  0.16945844513E+01  0.25500000000E-02 0. -1.
          2    1    1    2    0  502  0.24532931406E+02 -0.27453041873E+02  0.25099898597E+03  0.25368489351E+03  0.25500000000E-02 0.  1.
         -2    1    1    2  502    0 -0.24532931406E+02  0.27453041873E+02  0.96339954841E+03  0.96410280786E+03  0.25500000000E-02 0.  1.
<mgrwt>
<rscale>  0 0.90791438E+02</rscale>
<asrwt>0</asrwt>
<pdfrwt beam="1">  1        2 0.18709126E+00 0.90791438E+02</pdfrwt>
<pdfrwt beam="2">  1       -2 0.26070514E-03 0.90791438E+02</pdfrwt>
<totfact> 0.25108259E+05</totfact>
</mgrwt>
</event>
<event>
 4    1  0.4604841E-002  0.1361521E+03  0.7818608E-02  0.1218602E+00
          2   -1    0    0    0  501  0.00000000000E+00  0.00000000000E+00  0.57185338806E+03  0.57185338807E+03  0.25500000000E-02 0. -1.
         -2   -1    0    0  501    0 -0.00000000000E+00 -0.00000000000E+00 -0.81040821999E+01  0.81040826011E+01  0.25500000000E-02 0. -1.
          2    1    1    2    0  502  0.57143496498E+02  0.36968084056E+02  0.28837466392E+03  0.29629708947E+03  0.25500000000E-02 0. -1.
         -2    1    1    2  502    0 -0.57143496498E+02 -0.36968084056E+02  0.27537464194E+03  0.28366038120E+03  0.25500000000E-02 0. -1.
<mgrwt>
<rscale>  0 0.13615208E+03</rscale>
<asrwt>0</asrwt>
<pdfrwt beam="1">  1        2 0.87977420E-01 0.13615208E+03</pdfrwt>
<pdfrwt beam="2">  1       -2 0.12467823E-02 0.13615208E+03</pdfrwt>
<totfact> 0.76167738E+04</totfact>
</mgrwt>
</event>
<event>
 4    1  0.4604841E-002  0.9283549E+02  0.7818608E-02  0.1296127E+00
         -2   -1    0    0  501    0 -0.00000000000E+00  0.00000000000E+00  0.10452717517E+02  0.10452717828E+02  0.25500000000E-02 0.  1.
          2   -1    0    0    0  501  0.00000000000E+00 -0.00000000000E+00 -0.20612890296E+03  0.20612890297E+03  0.25500000000E-02 0.  1.
          2    1    1    2    0  502  0.94492900500E+01  0.27487581239E+02 -0.18226909014E+03  0.18457214696E+03  0.25500000000E-02 0. -1.
         -2    1    1    2  502    0 -0.94492900500E+01 -0.27487581239E+02 -0.13407095295E+02  0.32009473841E+02  0.25500000000E-02 0. -1.
<mgrwt>
<rscale>  0 0.92835494E+02</rscale>
<asrwt>0</asrwt>
<pdfrwt beam="2">  1        2 0.31712136E-01 0.92835494E+02</pdfrwt>
<pdfrwt beam="1">  1       -2 0.16081106E-02 0.92835494E+02</pdfrwt>
<totfact> 0.14896408E+05</totfact>
</mgrwt>
</event>
<event>
 4    1  0.4604841E-002  0.3793085E+03  0.7818608E-02  0.1051190E+00
          2   -1    0    0    0  501  0.00000000000E+00  0.00000000000E+00  0.10148527676E+04  0.10148527676E+04  0.25500000000E-02 0. -1.
         -2   -1    0    0  501    0 -0.00000000000E+00 -0.00000000000E+00 -0.35442314408E+02  0.35442314500E+02  0.25500000000E-02 0. -1.
          2    1    1    2    0  502  0.68088275390E+02  0.17643869579E+02  0.97740163400E+03  0.97992921864E+03  0.25500000000E-02 0. -1.
         -2    1    1    2  502    0 -0.68088275390E+02 -0.17643869579E+02  0.20088191814E+01  0.70365863459E+02  0.25500000000E-02 0. -1.
<mgrwt>
<rscale>  0 0.37930848E+03</rscale>
<asrwt>0</asrwt>
<pdfrwt beam="1">  1        2 0.15613120E+00 0.37930848E+03</pdfrwt>
<pdfrwt beam="2">  1       -2 0.54526636E-02 0.37930848E+03</pdfrwt>
<totfact> 0.44276542E+03</totfact>
</mgrwt>
</event>
<event>
 4    1  0.4604841E-002  0.9052439E+02  0.7818608E-02  0.1301587E+00
          2   -1    0    0    0  501  0.00000000000E+00  0.00000000000E+00  0.12820515827E+03  0.12820515830E+03  0.25500000000E-02 0. -1.
         -2   -1    0    0  501    0 -0.00000000000E+00 -0.00000000000E+00 -0.15979593181E+02  0.15979593385E+02  0.25500000000E-02 0. -1.
          2    1    1    2    0  502 -0.28224313585E+02 -0.34485179793E+02  0.43487935384E+02  0.62265881775E+02  0.25500000000E-02 0. -1.
         -2    1    1    2  502    0  0.28224313585E+02  0.34485179793E+02  0.68737629709E+02  0.81918869910E+02  0.25500000000E-02 0. -1.
<mgrwt>
<rscale>  0 0.90524390E+02</rscale>
<asrwt>0</asrwt>
<pdfrwt beam="1">  1        2 0.19723871E-01 0.90524390E+02</pdfrwt>
<pdfrwt beam="2">  1       -2 0.24583989E-02 0.90524390E+02</pdfrwt>
<totfact> 0.13529724E+05</totfact>
</mgrwt>
</event>
<event>
 4    1  0.4604841E-002  0.5085909E+02  0.7818608E-02  0.1440762E+00
          2   -1    0    0    0  501  0.00000000000E+00  0.00000000000E+00  0.66229786220E+03  0.66229786220E+03  0.25500000000E-02 0. -1.
         -2   -1    0    0  501    0 -0.00000000000E+00 -0.00000000000E+00 -0.97638941049E+00  0.97639274035E+00  0.25500000000E-02 0. -1.
          2    1    1    2    0  502  0.25128674565E+02  0.25796026843E+01  0.29251135984E+03  0.29360006859E+03  0.25500000000E-02 0. -1.
         -2    1    1    2  502    0 -0.25128674565E+02 -0.25796026843E+01  0.36881011295E+03  0.36967418635E+03  0.25500000000E-02 0. -1.
<mgrwt>
<rscale>  0 0.50859089E+02</rscale>
<asrwt>0</asrwt>
<pdfrwt beam="1">  1        2 0.10189213E+00 0.50859089E+02</pdfrwt>
<pdfrwt beam="2">  1       -2 0.15021379E-03 0.50859089E+02</pdfrwt>
<totfact> 0.10415224E+06</totfact>
</mgrwt>
</event>
<event>
 4    1  0.4604841E-002  0.1199991E+03  0.7818608E-02  0.1243098E+00
         -2   -1    0    0  501    0 -0.00000000000E+00  0.00000000000E+00  0.18009594287E+02  0.18009594467E+02  0.25500000000E-02 0.  1.
          2   -1    0    0    0  501  0.00000000000E+00 -0.00000000000E+00 -0.19989059105E+03  0.19989059107E+03  0.25500000000E-02 0.  1.
          2    1    1    2    0  502 -0.41816865667E+02  0.85703361491E+01 -0.16750486966E+03  0.17285827224E+03  0.25500000000E-02 0.  1.
         -2    1    1    2  502    0  0.41816865667E+02 -0.85703361491E+01 -0.14376127100E+02  0.45041913290E+02  0.25500000000E-02 0.  1.
<mgrwt>
<rscale>  0 0.11999914E+03</rscale>
<asrwt>0</asrwt>
<pdfrwt beam="2">  1        2 0.30752397E-01 0.11999914E+03</pdfrwt>
<pdfrwt beam="1">  1       -2 0.27707070E-02 0.11999914E+03</pdfrwt>
<totfact> 0.72853020E+04</totfact>
</mgrwt>
</event>
<event>
 4    1  0.4604841E-002  0.5760916E+02  0.7818608E-02  0.1408148E+00
          2   -1    0    0    0  501  0.00000000000E+00  0.00000000000E+00  0.10986703932E+03  0.10986703935E+03  0.25500000000E-02 0. -1.
         -2   -1    0    0  501    0 -0.00000000000E+00 -0.00000000000E+00 -0.75518898517E+01  0.75518902822E+01  0.25500000000E-02 0. -1.
          2    1    1    2    0  502 -0.26309313932E+02  0.84125642317E+01  0.67810117354E+02  0.73219964891E+02  0.25500000000E-02 0. -1.
         -2    1    1    2  502    0  0.26309313932E+02 -0.84125642317E+01  0.34505032119E+02  0.44198964745E+02  0.25500000000E-02 0. -1.
<mgrwt>
<rscale>  0 0.57609159E+02</rscale>
<asrwt>0</asrwt>
<pdfrwt beam="1">  1        2 0.16902620E-01 0.57609159E+02</pdfrwt>
<pdfrwt beam="2">  1       -2 0.11618293E-02 0.57609159E+02</pdfrwt>
<totfact> 0.42762755E+05</totfact>
</mgrwt>
</event>
<event>
 4    1  0.4604841E-002  0.1160590E+03  0.7818608E-02  0.1249744E+00
          2   -1    0    0    0  501  0.00000000000E+00  0.00000000000E+00  0.39152143436E+03  0.39152143437E+03  0.25500000000E-02 0. -1.
         -2   -1    0    0  501    0 -0.00000000000E+00 -0.00000000000E+00 -0.86008594597E+01  0.86008598377E+01  0.25500000000E-02 0. -1.
          2    1    1    2    0  502  0.35733961231E+01  0.47210169931E+02  0.75781260497E+02  0.89355295051E+02  0.25500000000E-02 0. -1.
         -2    1    1    2  502    0 -0.35733961231E+01 -0.47210169931E+02  0.30713931440E+03  0.31076699915E+03  0.25500000000E-02 0. -1.
<mgrwt>
<rscale>  0 0.11605897E+03</rscale>
<asrwt>0</asrwt>
<pdfrwt beam="1">  1        2 0.60234067E-01 0.11605897E+03</pdfrwt>
<pdfrwt beam="2">  1       -2 0.13232092E-02 0.11605897E+03</pdfrwt>
<totfact> 0.10348027E+05</totfact>
</mgrwt>
</event>
<event>
 4    1  0.4604841E-002  0.5470232E+02  0.7818608E-02  0.1421512E+00
         -2   -1    0    0  501    0 -0.00000000000E+00  0.00000000000E+00  0.85062737893E+01  0.85062741715E+01  0.25500000000E-02 0.  1.
          2   -1    0    0    0  501  0.00000000000E+00 -0.00000000000E+00 -0.87945189344E+02  0.87945189381E+02  0.25500000000E-02 0.  1.
          2    1    1    2    0  502 -0.15087667533E+02  0.22811888420E+02 -0.40172117337E+02  0.48598549183E+02  0.25500000000E-02 0. -1.
         -2    1    1    2  502    0  0.15087667533E+02 -0.22811888420E+02 -0.39266798218E+02  0.47852914370E+02  0.25500000000E-02 0. -1.
<mgrwt>
<rscale>  0 0.54702317E+02</rscale>
<asrwt>0</asrwt>
<pdfrwt beam="2">  1        2 0.13530029E-01 0.54702317E+02</pdfrwt>
<pdfrwt beam="1">  1       -2 0.13086576E-02 0.54702317E+02</pdfrwt>
<totfact> 0.46067270E+05</totfact>
</mgrwt>
</event>
<event>
 4    1  0.4604841E-002  0.4251045E+02  0.7818608E-02  0.1490510E+00
          2   -1    0    0    0  501  0.00000000000E+00  0.00000000000E+00  0.63756050962E+03  0.63756050963E+03  0.25500000000E-02 0. -1.
         -2   -1    0    0  501    0 -0.00000000000E+00 -0.00000000000E+00 -0.70861214859E+00  0.70861673676E+00  0.25500000000E-02 0. -1.
          2    1    1    2    0  502  0.13775591775E+02 -0.15643866263E+02  0.25599941407E+03  0.25684664197E+03  0.25500000000E-02 0.  1.
         -2    1    1    2  502    0 -0.13775591775E+02  0.15643866263E+02  0.38085248341E+03  0.38142248440E+03  0.25500000000E-02 0.  1.
<mgrwt>
<rscale>  0 0.42510450E+02</rscale>
<asrwt>0</asrwt>
<pdfrwt beam="1">  1        2 0.98086490E-01 0.42510450E+02</pdfrwt>
<pdfrwt beam="2">  1       -2 0.10901732E-03 0.42510450E+02</pdfrwt>
<totfact> 0.16002158E+06</totfact>
</mgrwt>
</event>
<event>
 4    1  0.4604841E-002  0.4331676E+02  0.7818608E-02  0.1485132E+00
          2   -1    0    0    0  501  0.00000000000E+00  0.00000000000E+00  0.44432918221E+02  0.44432918294E+02  0.25500000000E-02 0. -1.
         -2   -1    0    0  501    0 -0.00000000000E+00 -0.00000000000E+00 -0.10557159616E+02  0.10557159924E+02  0.25500000000E-02 0. -1.
          2    1    1    2    0  502  0.21109725775E+02  0.16803331999E+00  0.10792110756E+02  0.23709036644E+02  0.25500000000E-02 0. -1.
         -2    1    1    2  502    0 -0.21109725775E+02 -0.16803331999E+00  0.23083647848E+02  0.31281041574E+02  0.25500000000E-02 0. -1.
<mgrwt>
<rscale>  0 0.43316760E+02</rscale>
<asrwt>0</asrwt>
<pdfrwt beam="1">  1        2 0.68358336E-02 0.43316760E+02</pdfrwt>
<pdfrwt beam="2">  1       -2 0.16241784E-02 0.43316760E+02</pdfrwt>
<totfact> 0.72403291E+05</totfact>
</mgrwt>
</event>
<event>
 4    1  0.4604841E-002  0.5470262E+02  0.7818608E-02  0.1421510E+00
         -2   -1    0    0  501    0 -0.00000000000E+00  0.00000000000E+00  0.14697409251E+02  0.14697409472E+02  0.25500000000E-02 0.  1.
          2   -1    0    0    0  501  0.00000000000E+00 -0.00000000000E+00 -0.50899728880E+02  0.50899728944E+02  0.25500000000E-02 0.  1.
          2    1    1    2    0  502 -0.15565874757E+02  0.18374504691E+02 -0.33652142353E+02  0.41380980789E+02  0.25500000000E-02 0.  1.
         -2    1    1    2  502    0  0.15565874757E+02 -0.18374504691E+02 -0.25501772765E+01  0.24216157628E+02  0.25500000000E-02 0.  1.
<mgrwt>
<rscale>  0 0.54702620E+02</rscale>
<asrwt>0</asrwt>
<pdfrwt beam="2">  1        2 0.78307275E-02 0.54702620E+02</pdfrwt>
<pdfrwt beam="1">  1       -2 0.22611399E-02 0.54702620E+02</pdfrwt>
<totfact> 0.40781373E+05</totfact>
</mgrwt>
</event>
<event>
 4    1  0.4604841E-002  0.1103678E+03  0.7818608E-02  0.1259890E+00
          2   -1    0    0    0  501  0.00000000000E+00  0.00000000000E+00  0.37259059160E+03  0.37259059160E+03  0.25500000000E-02 0.  1.
         -2   -1    0    0  501    0 -0.00000000000E+00 -0.00000000000E+00 -0.81732068801E+01  0.81732072779E+01  0.25500000000E-02 0.  1.
          2    1    1    2    0  502 -0.36692840038E+02 -0.17319768035E+02  0.31124445266E+03  0.31387807854E+03  0.25500000000E-02 0. -1.
         -2    1    1    2  502    0  0.36692840038E+02  0.17319768035E+02  0.53172932060E+02  0.66885720339E+02  0.25500000000E-02 0. -1.
<mgrwt>
<rscale>  0 0.11036775E+03</rscale>
<asrwt>0</asrwt>
<pdfrwt beam="1">  1        2 0.57321616E-01 0.11036775E+03</pdfrwt>
<pdfrwt beam="2">  1       -2 0.12574168E-02 0.11036775E+03</pdfrwt>
<totfact> 0.11648621E+05</totfact>
</mgrwt>
</event>
<event>
 4    1  0.4604841E-002  0.9502393E+02  0.7818608E-02  0.1291122E+00
         -2   -1    0    0  501    0 -0.00000000000E+00  0.00000000000E+00  0.99731360435E+00  0.99731686436E+00  0.25500000000E-02 0.  1.
          2   -1    0    0    0  501  0.00000000000E+00 -0.00000000000E+00 -0.22634636692E+04  0.22634636692E+04  0.25500000000E-02 0.  1.
          2    1    1    2    0  502  0.41821685092E+02 -0.18760761117E+02 -0.14292253236E+04  0.14299601551E+04  0.25500000000E-02 0. -1.
         -2    1    1    2  502    0 -0.41821685092E+02  0.18760761117E+02 -0.83324103195E+03  0.83450083093E+03  0.25500000000E-02 0. -1.
<mgrwt>
<rscale>  0 0.95023930E+02</rscale>
<asrwt>0</asrwt>
<pdfrwt beam="2">  1        2 0.34822107E+00 0.95023930E+02</pdfrwt>
<pdfrwt beam="1">  1       -2 0.15343492E-03 0.95023930E+02</pdfrwt>
<totfact> 0.15389413E+05</totfact>
</mgrwt>
</event>
<event>
 4    1  0.4604841E-002  0.1086229E+03  0.7818608E-02  0.1263141E+00
          2   -1    0    0    0  501  0.00000000000E+00  0.00000000000E+00  0.15657313685E+03  0.15657313687E+03  0.25500000000E-02 0.  1.
         -2   -1    0    0  501    0 -0.00000000000E+00 -0.00000000000E+00 -0.18839341480E+02  0.18839341653E+02  0.25500000000E-02 0.  1.
          2    1    1    2    0  502 -0.22757180422E+02  0.39243224478E+02  0.11709235543E+03  0.12557284593E+03  0.25500000000E-02 0.  1.
         -2    1    1    2  502    0  0.22757180422E+02 -0.39243224478E+02  0.20641439947E+02  0.49839632601E+02  0.25500000000E-02 0.  1.
<mgrwt>
<rscale>  0 0.10862292E+03</rscale>
<asrwt>0</asrwt>
<pdfrwt beam="1">  1        2 0.24088175E-01 0.10862292E+03</pdfrwt>
<pdfrwt beam="2">  1       -2 0.28983602E-02 0.10862292E+03</pdfrwt>
<totfact> 0.87769343E+04</totfact>
</mgrwt>
</event>
<event>
 4    1  0.4604841E-002  0.4991435E+02  0.7818608E-02  0.1445804E+00
          2   -1    0    0    0  501  0.00000000000E+00  0.00000000000E+00  0.15611973237E+04  0.15611973237E+04  0.25500000000E-02 0. -1.
         -2   -1    0    0  501    0 -0.00000000000E+00 -0.00000000000E+00 -0.39895931984E+00  0.39896746908E+00  0.25500000000E-02 0. -1.
          2    1    1    2    0  502  0.22732248398E+02 -0.15029164119E+01  0.46158347522E+03  0.46214534346E+03  0.25500000000E-02 0. -1.
         -2    1    1    2  502    0 -0.22732248398E+02  0.15029164119E+01  0.10992148892E+04  0.10994509478E+04  0.25500000000E-02 0. -1.
<mgrwt>
<rscale>  0 0.49914350E+02</rscale>
<asrwt>0</asrwt>
<pdfrwt beam="1">  1        2 0.24018677E+00 0.49914350E+02</pdfrwt>
<pdfrwt beam="2">  1       -2 0.61378329E-04 0.49914350E+02</pdfrwt>
<totfact> 0.10835615E+06</totfact>
</mgrwt>
</event>
<event>
 4    1  0.4604841E-002  0.6140127E+02  0.7818608E-02  0.1392044E+00
          2   -1    0    0    0  501  0.00000000000E+00  0.00000000000E+00  0.96765706437E+03  0.96765706438E+03  0.25500000000E-02 0. -1.
         -2   -1    0    0  501    0 -0.00000000000E+00 -0.00000000000E+00 -0.97403037114E+00  0.97403370907E+00  0.25500000000E-02 0. -1.
          2    1    1    2    0  502  0.11498670950E+02  0.27338617809E+02  0.35821791048E+03  0.35944358507E+03  0.25500000000E-02 0.  1.
         -2    1    1    2  502    0 -0.11498670950E+02 -0.27338617809E+02  0.60846512352E+03  0.60918751301E+03  0.25500000000E-02 0.  1.
<mgrwt>
<rscale>  0 0.61401270E+02</rscale>
<asrwt>0</asrwt>
<pdfrwt beam="1">  1        2 0.14886986E+00 0.61401270E+02</pdfrwt>
<pdfrwt beam="2">  1       -2 0.14985154E-03 0.61401270E+02</pdfrwt>
<totfact> 0.69210698E+05</totfact>
</mgrwt>
</event>
<event>
 4    1  0.4604841E-002  0.8539576E+02  0.7818608E-02  0.1314401E+00
          2   -1    0    0    0  501  0.00000000000E+00  0.00000000000E+00  0.14052237779E+03  0.14052237781E+03  0.25500000000E-02 0. -1.
         -2   -1    0    0  501    0 -0.00000000000E+00 -0.00000000000E+00 -0.12973798587E+02  0.12973798838E+02  0.25500000000E-02 0. -1.
          2    1    1    2    0  502  0.24966523933E+01 -0.25766663382E+02  0.12480766505E+03  0.12746414193E+03  0.25500000000E-02 0.  1.
         -2    1    1    2  502    0 -0.24966523933E+01  0.25766663382E+02  0.27409141514E+01  0.26032034724E+02  0.25500000000E-02 0.  1.
<mgrwt>
<rscale>  0 0.85395762E+02</rscale>
<asrwt>0</asrwt>
<pdfrwt beam="1">  1        2 0.21618828E-01 0.85395762E+02</pdfrwt>
<pdfrwt beam="2">  1       -2 0.19959690E-02 0.85395762E+02</pdfrwt>
<totfact> 0.16328907E+05</totfact>
</mgrwt>
</event>
<event>
 4    1  0.4604841E-002  0.1360896E+03  0.7818608E-02  0.1218690E+00
         -2   -1    0    0  501    0 -0.00000000000E+00  0.00000000000E+00  0.56819557518E+01  0.56819563240E+01  0.25500000000E-02 0. -1.
          2   -1    0    0    0  501  0.00000000000E+00 -0.00000000000E+00 -0.81487636354E+03  0.81487636354E+03  0.25500000000E-02 0. -1.
          2    1    1    2    0  502 -0.15818838394E+02 -0.50228656563E+02 -0.66442366246E+03  0.66650728190E+03  0.25500000000E-02 0.  1.
         -2    1    1    2  502    0  0.15818838394E+02  0.50228656563E+02 -0.14477074532E+03  0.15405103796E+03  0.25500000000E-02 0.  1.
<mgrwt>
<rscale>  0 0.13608955E+03</rscale>
<asrwt>0</asrwt>
<pdfrwt beam="2">  1        2 0.12536550E+00 0.13608955E+03</pdfrwt>
<pdfrwt beam="1">  1       -2 0.87414773E-03 0.13608955E+03</pdfrwt>
<totfact> 0.83323150E+04</totfact>
</mgrwt>
</event>
<event>
 4    1  0.4604841E-002  0.1283373E+03  0.7818608E-02  0.1229944E+00
          2   -1    0    0    0  501  0.00000000000E+00  0.00000000000E+00  0.16985708452E+04  0.16985708452E+04  0.25500000000E-02 0.  1.
         -2   -1    0    0  501    0 -0.00000000000E+00 -0.00000000000E+00 -0.24241633141E+01  0.24241646553E+01  0.25500000000E-02 0.  1.
          2    1    1    2    0  502 -0.57565526270E+02  0.27919783019E+02  0.91342312871E+03  0.91566102689E+03  0.25500000000E-02 0.  1.
         -2    1    1    2  502    0  0.57565526270E+02 -0.27919783019E+02  0.78272355319E+03  0.78533398298E+03  0.25500000000E-02 0.  1.
<mgrwt>
<rscale>  0 0.12833728E+03</rscale>
<asrwt>0</asrwt>
<pdfrwt beam="1">  1        2 0.26131958E+00 0.12833728E+03</pdfrwt>
<pdfrwt beam="2">  1       -2 0.37294690E-03 0.12833728E+03</pdfrwt>
<totfact> 0.88952432E+04</totfact>
</mgrwt>
</event>
<event>
 4    1  0.4604841E-002  0.4421686E+02  0.7818608E-02  0.1479291E+00
         -2   -1    0    0  501    0 -0.00000000000E+00  0.00000000000E+00  0.46141246851E+02  0.46141246922E+02  0.25500000000E-02 0. -1.
          2   -1    0    0    0  501  0.00000000000E+00 -0.00000000000E+00 -0.10593183924E+02  0.10593184231E+02  0.25500000000E-02 0. -1.
          2    1    1    2    0  502 -0.20516822133E+02  0.43673570840E+01  0.88135704423E+01  0.22752864189E+02  0.25500000000E-02 0. -1.
         -2    1    1    2  502    0  0.20516822133E+02 -0.43673570840E+01  0.26734492485E+02  0.33981566964E+02  0.25500000000E-02 0. -1.
<mgrwt>
<rscale>  0 0.44216862E+02</rscale>
<asrwt>0</asrwt>
<pdfrwt beam="2">  1        2 0.16297206E-02 0.44216862E+02</pdfrwt>
<pdfrwt beam="1">  1       -2 0.70986534E-02 0.44216862E+02</pdfrwt>
<totfact> 0.55433255E+05</totfact>
</mgrwt>
</event>
<event>
 4    1  0.4604841E-002  0.5886738E+02  0.7818608E-02  0.1402647E+00
         -2   -1    0    0  501    0 -0.00000000000E+00  0.00000000000E+00  0.44231502089E+02  0.44231502162E+02  0.25500000000E-02 0.  1.
          2   -1    0    0    0  501  0.00000000000E+00 -0.00000000000E+00 -0.19586537876E+02  0.19586538042E+02  0.25500000000E-02 0.  1.
          2    1    1    2    0  502 -0.17032603650E+02 -0.23702576367E+02  0.16439242663E+02  0.33498812209E+02  0.25500000000E-02 0. -1.
         -2    1    1    2  502    0  0.17032603650E+02  0.23702576367E+02  0.82057215502E+01  0.30319227995E+02  0.25500000000E-02 0. -1.
<mgrwt>
<rscale>  0 0.58867376E+02</rscale>
<asrwt>0</asrwt>
<pdfrwt beam="2">  1        2 0.30133135E-02 0.58867376E+02</pdfrwt>
<pdfrwt beam="1">  1       -2 0.68048465E-02 0.58867376E+02</pdfrwt>
<totfact> 0.28164035E+05</totfact>
</mgrwt>
</event>
<event>
 4    1  0.4604841E-002  0.4423128E+02  0.7818608E-02  0.1479198E+00
          2   -1    0    0    0  501  0.00000000000E+00  0.00000000000E+00  0.13954825170E+03  0.13954825172E+03  0.25500000000E-02 0. -1.
         -2   -1    0    0  501    0 -0.00000000000E+00 -0.00000000000E+00 -0.35048917327E+01  0.35048926603E+01  0.25500000000E-02 0. -1.
          2    1    1    2    0  502 -0.15585879218E+02  0.15193182622E+02  0.55350706322E+02  0.59476492214E+02  0.25500000000E-02 0.  1.
         -2    1    1    2  502    0  0.15585879218E+02 -0.15193182622E+02  0.80692653643E+02  0.83576652168E+02  0.25500000000E-02 0.  1.
<mgrwt>
<rscale>  0 0.44231282E+02</rscale>
<asrwt>0</asrwt>
<pdfrwt beam="1">  1        2 0.21468960E-01 0.44231282E+02</pdfrwt>
<pdfrwt beam="2">  1       -2 0.53921422E-03 0.44231282E+02</pdfrwt>
<totfact> 0.89255955E+05</totfact>
</mgrwt>
</event>
<event>
 4    1  0.4604841E-002  0.6009903E+02  0.7818608E-02  0.1397417E+00
         -2   -1    0    0  501    0 -0.00000000000E+00  0.00000000000E+00  0.35470861885E+01  0.35470871051E+01  0.25500000000E-02 0. -1.
          2   -1    0    0    0  501  0.00000000000E+00 -0.00000000000E+00 -0.25456763333E+03  0.25456763335E+03  0.25500000000E-02 0. -1.
          2    1    1    2    0  502 -0.11563091801E+02  0.17882213761E+02 -0.21656607396E+03  0.21761053067E+03  0.25500000000E-02 0. -1.
         -2    1    1    2  502    0  0.11563091801E+02 -0.17882213761E+02 -0.34454473185E+02  0.40504189782E+02  0.25500000000E-02 0. -1.
<mgrwt>
<rscale>  0 0.60099033E+02</rscale>
<asrwt>0</asrwt>
<pdfrwt beam="2">  1        2 0.39164237E-01 0.60099033E+02</pdfrwt>
<pdfrwt beam="1">  1       -2 0.54570584E-03 0.60099033E+02</pdfrwt>
<totfact> 0.50224897E+05</totfact>
</mgrwt>
</event>
<event>
 4    1  0.4604841E-002  0.6767538E+02  0.7818608E-02  0.1368181E+00
          2   -1    0    0    0  501  0.00000000000E+00  0.00000000000E+00  0.11548020399E+03  0.11548020402E+03  0.25500000000E-02 0.  1.
         -2   -1    0    0  501    0 -0.00000000000E+00 -0.00000000000E+00 -0.99150258334E+01  0.99150261613E+01  0.25500000000E-02 0.  1.
          2    1    1    2    0  502 -0.61008376314E+01 -0.23738709052E+02  0.95564322428E+01  0.26307260043E+02  0.25500000000E-02 0. -1.
         -2    1    1    2  502    0  0.61008376314E+01  0.23738709052E+02  0.96008745916E+02  0.99087970139E+02  0.25500000000E-02 0. -1.
<mgrwt>
<rscale>  0 0.67675379E+02</rscale>
<asrwt>0</asrwt>
<pdfrwt beam="1">  1        2 0.17766186E-01 0.67675379E+02</pdfrwt>
<pdfrwt beam="2">  1       -2 0.15253886E-02 0.67675379E+02</pdfrwt>
<totfact> 0.28528387E+05</totfact>
</mgrwt>
</event>
<event>
 4    1  0.4604841E-002  0.5279335E+02  0.7818608E-02  0.1430832E+00
         -2   -1    0    0  501    0 -0.00000000000E+00  0.00000000000E+00  0.41787470942E+02  0.41787471020E+02  0.25500000000E-02 0.  1.
          2   -1    0    0    0  501  0.00000000000E+00 -0.00000000000E+00 -0.16674481150E+02  0.16674481345E+02  0.25500000000E-02 0.  1.
          2    1    1    2    0  502  0.25280686438E+02  0.74099144935E+01  0.10715302636E+02  0.28440071319E+02  0.25500000000E-02 0.  1.
         -2    1    1    2  502    0 -0.25280686438E+02 -0.74099144935E+01  0.14397687156E+02  0.30021881046E+02  0.25500000000E-02 0.  1.
<mgrwt>
<rscale>  0 0.52793348E+02</rscale>
<asrwt>0</asrwt>
<pdfrwt beam="2">  1        2 0.25653048E-02 0.52793348E+02</pdfrwt>
<pdfrwt beam="1">  1       -2 0.64288416E-02 0.52793348E+02</pdfrwt>
<totfact> 0.36918655E+05</totfact>
</mgrwt>
</event>
<event>
 4    1  0.4604841E-002  0.4222358E+02  0.7818608E-02  0.1492458E+00
         -2   -1    0    0  501    0 -0.00000000000E+00  0.00000000000E+00  0.41215213073E+00  0.41216001912E+00  0.25500000000E-02 0. -1.
          2   -1    0    0    0  501  0.00000000000E+00 -0.00000000000E+00 -0.10814053298E+04  0.10814053298E+04  0.25500000000E-02 0. -1.
          2    1    1    2    0  502  0.19220280314E+01 -0.21012032453E+02 -0.52223401072E+03  0.52266008233E+03  0.25500000000E-02 0.  1.
         -2    1    1    2  502    0 -0.19220280314E+01  0.21012032453E+02 -0.55875916690E+03  0.55915740744E+03  0.25500000000E-02 0.  1.
<mgrwt>
<rscale>  0 0.42223585E+02</rscale>
<asrwt>0</asrwt>
<pdfrwt beam="2">  1        2 0.16636778E+00 0.42223585E+02</pdfrwt>
<pdfrwt beam="1">  1       -2 0.63409493E-04 0.42223585E+02</pdfrwt>
<totfact> 0.17523248E+06</totfact>
</mgrwt>
</event>
<event>
 4    1  0.4604841E-002  0.9046235E+02  0.7818608E-02  0.1301736E+00
         -2   -1    0    0  501    0 -0.00000000000E+00  0.00000000000E+00  0.85078282901E+00  0.85078665048E+00  0.25500000000E-02 0.  1.
          2   -1    0    0    0  501  0.00000000000E+00 -0.00000000000E+00 -0.24046729365E+04  0.24046729365E+04  0.25500000000E-02 0.  1.
          2    1    1    2    0  502  0.24172734533E+02 -0.20699355800E+02 -0.34722301343E+03  0.34867836969E+03  0.25500000000E-02 0. -1.
         -2    1    1    2  502    0 -0.24172734533E+02  0.20699355800E+02 -0.20565991402E+04  0.20568453534E+04  0.25500000000E-02 0. -1.
<mgrwt>
<rscale>  0 0.90462347E+02</rscale>
<asrwt>0</asrwt>
<pdfrwt beam="2">  1        2 0.36994424E+00 0.90462347E+02</pdfrwt>
<pdfrwt beam="1">  1       -2 0.13089189E-03 0.90462347E+02</pdfrwt>
<totfact> 0.16121824E+05</totfact>
</mgrwt>
</event>
<event>
 4    1  0.4604841E-002  0.4859986E+02  0.7818608E-02  0.1453043E+00
         -2   -1    0    0  501    0 -0.00000000000E+00  0.00000000000E+00  0.34122504601E+02  0.34122504696E+02  0.25500000000E-02 0.  1.
          2   -1    0    0    0  501  0.00000000000E+00 -0.00000000000E+00 -0.17304900607E+02  0.17304900795E+02  0.25500000000E-02 0.  1.
          2    1    1    2    0  502 -0.22731959660E+02 -0.83719793266E+01  0.10431704685E+02  0.26375225060E+02  0.25500000000E-02 0.  1.
         -2    1    1    2  502    0  0.22731959660E+02  0.83719793266E+01  0.63858993090E+01  0.25052180431E+02  0.25500000000E-02 0.  1.
<mgrwt>
<rscale>  0 0.48599858E+02</rscale>
<asrwt>0</asrwt>
<pdfrwt beam="2">  1        2 0.26622924E-02 0.48599858E+02</pdfrwt>
<pdfrwt beam="1">  1       -2 0.52496161E-02 0.48599858E+02</pdfrwt>
<totfact> 0.46439354E+05</totfact>
</mgrwt>
</event>
<event>
 4    1  0.4604841E-002  0.7810864E+02  0.7818608E-02  0.1334506E+00
         -2   -1    0    0  501    0 -0.00000000000E+00  0.00000000000E+00  0.42669137483E+02  0.42669137560E+02  0.25500000000E-02 0.  1.
          2   -1    0    0    0  501  0.00000000000E+00 -0.00000000000E+00 -0.35745742400E+02  0.35745742491E+02  0.25500000000E-02 0.  1.
          2    1    1    2    0  502 -0.35638214708E+01 -0.30724737489E+02  0.27399041706E+02  0.41320912504E+02  0.25500000000E-02 0. -1.
         -2    1    1    2  502    0  0.35638214708E+01  0.30724737489E+02 -0.20475646623E+02  0.37093967547E+02  0.25500000000E-02 0. -1.
<mgrwt>
<rscale>  0 0.78108642E+02</rscale>
<asrwt>0</asrwt>
<pdfrwt beam="2">  1        2 0.54993450E-02 0.78108642E+02</pdfrwt>
<pdfrwt beam="1">  1       -2 0.65644827E-02 0.78108642E+02</pdfrwt>
<totfact> 0.14446134E+05</totfact>
</mgrwt>
</event>
<event>
 4    1  0.4604841E-002  0.4489214E+02  0.7818608E-02  0.1475016E+00
         -2   -1    0    0  501    0 -0.00000000000E+00  0.00000000000E+00  0.24233763848E+03  0.24233763849E+03  0.25500000000E-02 0.  1.
          2   -1    0    0    0  501  0.00000000000E+00 -0.00000000000E+00 -0.20790241710E+01  0.20790257348E+01  0.25500000000E-02 0.  1.
          2    1    1    2    0  502  0.24546551865E+01 -0.20786066452E+02  0.16427371757E+03  0.16560175174E+03  0.25500000000E-02 0.  1.
         -2    1    1    2  502    0 -0.24546551865E+01  0.20786066452E+02  0.75984896743E+02  0.78814912486E+02  0.25500000000E-02 0.  1.
<mgrwt>
<rscale>  0 0.44892137E+02</rscale>
<asrwt>0</asrwt>
<pdfrwt beam="2">  1        2 0.31984993E-03 0.44892137E+02</pdfrwt>
<pdfrwt beam="1">  1       -2 0.37282721E-01 0.44892137E+02</pdfrwt>
<totfact> 0.33710435E+05</totfact>
</mgrwt>
</event>
<event>
 4    1  0.4604841E-002  0.4184767E+02  0.7818608E-02  0.1495039E+00
          2   -1    0    0    0  501  0.00000000000E+00  0.00000000000E+00  0.20553688012E+02  0.20553688170E+02  0.25500000000E-02 0. -1.
         -2   -1    0    0  501    0 -0.00000000000E+00 -0.00000000000E+00 -0.21300650063E+02  0.21300650216E+02  0.25500000000E-02 0. -1.
          2    1    1    2    0  502  0.12535339860E+02  0.16723032258E+02  0.63284153020E+00  0.20909209651E+02  0.25500000000E-02 0.  1.
         -2    1    1    2  502    0 -0.12535339860E+02 -0.16723032258E+02 -0.13798035815E+01  0.20945128735E+02  0.25500000000E-02 0.  1.
<mgrwt>
<rscale>  0 0.41847672E+02</rscale>
<asrwt>0</asrwt>
<pdfrwt beam="1">  1        2 0.31621059E-02 0.41847672E+02</pdfrwt>
<pdfrwt beam="2">  1       -2 0.32770231E-02 0.41847672E+02</pdfrwt>
<totfact> 0.70471499E+05</totfact>
</mgrwt>
</event>
<event>
 4    1  0.4604841E-002  0.9498617E+02  0.7818608E-02  0.1291207E+00
          2   -1    0    0    0  501  0.00000000000E+00  0.00000000000E+00  0.75499575173E+03  0.75499575173E+03  0.25500000000E-02 0.  1.
         -2   -1    0    0  501    0 -0.00000000000E+00 -0.00000000000E+00 -0.29875568330E+01  0.29875579213E+01  0.25500000000E-02 0.  1.
          2    1    1    2    0  502 -0.12064137818E+02  0.45355304130E+02  0.43406933597E+03  0.43659917026E+03  0.25500000000E-02 0.  1.
         -2    1    1    2  502    0  0.12064137818E+02 -0.45355304130E+02  0.31793885893E+03  0.32138413940E+03  0.25500000000E-02 0.  1.
<mgrwt>
<rscale>  0 0.94986170E+02</rscale>
<asrwt>0</asrwt>
<pdfrwt beam="1">  1        2 0.11615330E+00 0.94986170E+02</pdfrwt>
<pdfrwt beam="2">  1       -2 0.45962379E-03 0.94986170E+02</pdfrwt>
<totfact> 0.21637292E+05</totfact>
</mgrwt>
</event>
<event>
 4    1  0.4604841E-002  0.5373754E+02  0.7818608E-02  0.1426165E+00
          2   -1    0    0    0  501  0.00000000000E+00  0.00000000000E+00  0.34059406595E+02  0.34059406691E+02  0.25500000000E-02 0.  1.
         -2   -1    0    0  501    0 -0.00000000000E+00 -0.00000000000E+00 -0.21196223371E+02  0.21196223525E+02  0.25500000000E-02 0.  1.
          2    1    1    2    0  502  0.24883351582E+02 -0.71849111418E+01 -0.92069539840E+00  0.25916246267E+02  0.25500000000E-02 0.  1.
         -2    1    1    2  502    0 -0.24883351582E+02  0.71849111418E+01  0.13783878622E+02  0.29339383948E+02  0.25500000000E-02 0.  1.
<mgrwt>
<rscale>  0 0.53737540E+02</rscale>
<asrwt>0</asrwt>
<pdfrwt beam="1">  1        2 0.52399087E-02 0.53737540E+02</pdfrwt>
<pdfrwt beam="2">  1       -2 0.32609575E-02 0.53737540E+02</pdfrwt>
<totfact> 0.39675945E+05</totfact>
</mgrwt>
</event>
<event>
 4    1  0.4604841E-002  0.5956699E+02  0.7818608E-02  0.1399658E+00
          2   -1    0    0    0  501  0.00000000000E+00  0.00000000000E+00  0.11289805880E+02  0.11289806168E+02  0.25500000000E-02 0. -1.
         -2   -1    0    0  501    0 -0.00000000000E+00 -0.00000000000E+00 -0.78571453088E+02  0.78571453129E+02  0.25500000000E-02 0. -1.
          2    1    1    2    0  502 -0.29084711649E+02  0.61476119968E+01 -0.30882615483E+02  0.42865481807E+02  0.25500000000E-02 0. -1.
         -2    1    1    2  502    0  0.29084711649E+02 -0.61476119968E+01 -0.36399031725E+02  0.46995777491E+02  0.25500000000E-02 0. -1.
<mgrwt>
<rscale>  0 0.59566986E+02</rscale>
<asrwt>0</asrwt>
<pdfrwt beam="1">  1        2 0.17368933E-02 0.59566986E+02</pdfrwt>
<pdfrwt beam="2">  1       -2 0.12087916E-01 0.59566986E+02</pdfrwt>
<totfact> 0.24360397E+05</totfact>
</mgrwt>
</event>
<event>
 4    1  0.4604841E-002  0.6617127E+02  0.7818608E-02  0.1373619E+00
         -2   -1    0    0  501    0 -0.00000000000E+00  0.00000000000E+00  0.28441210587E+01  0.28441222019E+01  0.25500000000E-02 0.  1.
          2   -1    0    0    0  501  0.00000000000E+00 -0.00000000000E+00 -0.38488483612E+03  0.38488483613E+03  0.25500000000E-02 0.  1.
          2    1    1    2    0  502 -0.23389886953E+02 -0.22177602008E+02 -0.23476142889E+03  0.23696383973E+03  0.25500000000E-02 0. -1.
         -2    1    1    2  502    0  0.23389886953E+02  0.22177602008E+02 -0.14727928618E+03  0.15076511860E+03  0.25500000000E-02 0. -1.
<mgrwt>
<rscale>  0 0.66171271E+02</rscale>
<asrwt>0</asrwt>
<pdfrwt beam="2">  1        2 0.59213011E-01 0.66171271E+02</pdfrwt>
<pdfrwt beam="1">  1       -2 0.43755748E-03 0.66171271E+02</pdfrwt>
<totfact> 0.45457477E+05</totfact>
</mgrwt>
</event>
<event>
 4    1  0.4604841E-002  0.6359388E+02  0.7818608E-02  0.1383340E+00
         -2   -1    0    0  501    0 -0.00000000000E+00  0.00000000000E+00  0.15341435469E+01  0.15341456662E+01  0.25500000000E-02 0. -1.
          2   -1    0    0    0  501  0.00000000000E+00 -0.00000000000E+00 -0.65902869400E+03  0.65902869401E+03  0.25500000000E-02 0. -1.
          2    1    1    2    0  502  0.63496159928E+01 -0.29137284817E+02 -0.44335839585E+03  0.44436017617E+03  0.25500000000E-02 0. -1.
         -2    1    1    2  502    0 -0.63496159928E+01  0.29137284817E+02 -0.21413615460E+03  0.21620266350E+03  0.25500000000E-02 0. -1.
<mgrwt>
<rscale>  0 0.63593878E+02</rscale>
<asrwt>0</asrwt>
<pdfrwt beam="2">  1        2 0.10138880E+00 0.63593878E+02</pdfrwt>
<pdfrwt beam="1">  1       -2 0.23602277E-03 0.63593878E+02</pdfrwt>
<totfact> 0.59407042E+05</totfact>
</mgrwt>
</event>
<event>
 4    1  0.4604841E-002  0.1051714E+03  0.7818608E-02  0.1269782E+00
          2   -1    0    0    0  501  0.00000000000E+00  0.00000000000E+00  0.91233448159E+03  0.91233448159E+03  0.25500000000E-02 0.  1.
         -2   -1    0    0  501    0 -0.00000000000E+00 -0.00000000000E+00 -0.30309674769E+01  0.30309685496E+01  0.25500000000E-02 0.  1.
          2    1    1    2    0  502 -0.36402694690E+02 -0.83356168754E+01  0.13242989364E+03  0.13759475072E+03  0.25500000000E-02 0. -1.
         -2    1    1    2  502    0  0.36402694690E+02  0.83356168754E+01  0.77687362047E+03  0.77777069942E+03  0.25500000000E-02 0. -1.
<mgrwt>
<rscale>  0 0.10517142E+03</rscale>
<asrwt>0</asrwt>
<pdfrwt beam="1">  1        2 0.14035932E+00 0.10517142E+03</pdfrwt>
<pdfrwt beam="2">  1       -2 0.46630222E-03 0.10517142E+03</pdfrwt>
<totfact> 0.17002150E+05</totfact>
</mgrwt>
</event>
<event>
 4    1  0.4604841E-002  0.8957370E+02  0.7818608E-02  0.1303887E+00
         -2   -1    0    0  501    0 -0.00000000000E+00  0.00000000000E+00  0.20306383409E+01  0.20306399420E+01  0.25500000000E-02 0.  1.
          2   -1    0    0    0  501  0.00000000000E+00 -0.00000000000E+00 -0.98779840225E+03  0.98779840225E+03  0.25500000000E-02 0.  1.
          2    1    1    2    0  502  0.28480238893E+02  0.34228834744E+02 -0.43974405166E+03  0.44199272405E+03  0.25500000000E-02 0. -1.
         -2    1    1    2  502    0 -0.28480238893E+02 -0.34228834744E+02 -0.54602371224E+03  0.54783631814E+03  0.25500000000E-02 0. -1.
<mgrwt>
<rscale>  0 0.89573704E+02</rscale>
<asrwt>0</asrwt>
<pdfrwt beam="2">  1        2 0.15196860E+00 0.89573704E+02</pdfrwt>
<pdfrwt beam="1">  1       -2 0.31240681E-03 0.89573704E+02</pdfrwt>
<totfact> 0.26180402E+05</totfact>
</mgrwt>
</event>
<event>
 4    1  0.4604841E-002  0.1092134E+03  0.7818608E-02  0.1262034E+00
         -2   -1    0    0  501    0 -0.00000000000E+00  0.00000000000E+00  0.10843998903E+02  0.10843999203E+02  0.25500000000E-02 0.  1.
          2   -1    0    0    0  501  0.00000000000E+00 -0.00000000000E+00 -0.27498074873E+03  0.27498074874E+03  0.25500000000E-02 0.  1.
          2    1    1    2    0  502  0.33057305323E+02 -0.59654346638E+00 -0.18328916970E+02  0.37803313388E+02  0.25500000000E-02 0.  1.
         -2    1    1    2  502    0 -0.33057305323E+02  0.59654346638E+00 -0.24580783286E+03  0.24802143456E+03  0.25500000000E-02 0.  1.
<mgrwt>
<rscale>  0 0.10921339E+03</rscale>
<asrwt>0</asrwt>
<pdfrwt beam="2">  1        2 0.42304726E-01 0.10921339E+03</pdfrwt>
<pdfrwt beam="1">  1       -2 0.16683077E-02 0.10921339E+03</pdfrwt>
<totfact> 0.10680842E+05</totfact>
</mgrwt>
</event>
<event>
 4    1  0.4604841E-002  0.4956227E+02  0.7818608E-02  0.1447717E+00
          2   -1    0    0    0  501  0.00000000000E+00  0.00000000000E+00  0.16232946220E+03  0.16232946222E+03  0.25500000000E-02 0. -1.
         -2   -1    0    0  501    0 -0.00000000000E+00 -0.00000000000E+00 -0.37830745369E+01  0.37830753963E+01  0.25500000000E-02 0. -1.
          2    1    1    2    0  502  0.97048438542E+01  0.21371906789E+02  0.10590984617E+03  0.10847966591E+03  0.25500000000E-02 0.  1.
         -2    1    1    2  502    0 -0.97048438542E+01 -0.21371906789E+02  0.52636541489E+02  0.57632871701E+02  0.25500000000E-02 0.  1.
<mgrwt>
<rscale>  0 0.49562265E+02</rscale>
<asrwt>0</asrwt>
<pdfrwt beam="1">  1        2 0.24973758E-01 0.49562265E+02</pdfrwt>
<pdfrwt beam="2">  1       -2 0.58201167E-03 0.49562265E+02</pdfrwt>
<totfact> 0.70353317E+05</totfact>
</mgrwt>
</event>
<event>
 4    1  0.4604841E-002  0.1978947E+03  0.7818608E-02  0.1151527E+00
         -2   -1    0    0  501    0 -0.00000000000E+00  0.00000000000E+00  0.85360902729E+03  0.85360902729E+03  0.25500000000E-02 0.  1.
          2   -1    0    0    0  501  0.00000000000E+00 -0.00000000000E+00 -0.11469631378E+02  0.11469631662E+02  0.25500000000E-02 0.  1.
          2    1    1    2    0  502  0.92800778418E+01  0.96325400578E+02  0.51128166589E+03  0.52035914955E+03  0.25500000000E-02 0. -1.
         -2    1    1    2  502    0 -0.92800778418E+01 -0.96325400578E+02  0.33085773002E+03  0.34471950940E+03  0.25500000000E-02 0. -1.
<mgrwt>
<rscale>  0 0.19789473E+03</rscale>
<asrwt>0</asrwt>
<pdfrwt beam="2">  1        2 0.17645587E-02 0.19789473E+03</pdfrwt>
<pdfrwt beam="1">  1       -2 0.13132447E+00 0.19789473E+03</pdfrwt>
<totfact> 0.28403842E+03</totfact>
</mgrwt>
</event>
<event>
 4    1  0.4604841E-002  0.4523697E+02  0.7818608E-02  0.1472868E+00
          2   -1    0    0    0  501  0.00000000000E+00  0.00000000000E+00  0.17370047899E+02  0.17370048086E+02  0.25500000000E-02 0.  1.
         -2   -1    0    0  501    0 -0.00000000000E+00 -0.00000000000E+00 -0.29452755288E+02  0.29452755398E+02  0.25500000000E-02 0.  1.
          2    1    1    2    0  502  0.22079186025E+02 -0.37213762117E+01 -0.27264782008E+01  0.22555992249E+02  0.25500000000E-02 0.  1.
         -2    1    1    2  502    0 -0.22079186025E+02  0.37213762117E+01 -0.93562291879E+01  0.24266811236E+02  0.25500000000E-02 0.  1.
<mgrwt>
<rscale>  0 0.45236966E+02</rscale>
<asrwt>0</asrwt>
<pdfrwt beam="1">  1        2 0.26723151E-02 0.45236966E+02</pdfrwt>
<pdfrwt beam="2">  1       -2 0.45311931E-02 0.45236966E+02</pdfrwt>
<totfact> 0.56202907E+05</totfact>
</mgrwt>
</event>
<event>
 4    1  0.4604841E-002  0.5196698E+02  0.7818608E-02  0.1435012E+00
          2   -1    0    0    0  501  0.00000000000E+00  0.00000000000E+00  0.10630345850E+03  0.10630345853E+03  0.25500000000E-02 0. -1.
         -2   -1    0    0  501    0 -0.00000000000E+00 -0.00000000000E+00 -0.63510806136E+01  0.63510811255E+01  0.25500000000E-02 0. -1.
          2    1    1    2    0  502 -0.19797733549E+02 -0.16672429252E+02  0.54929863354E+02  0.60722401512E+02  0.25500000000E-02 0. -1.
         -2    1    1    2  502    0  0.19797733549E+02  0.16672429252E+02  0.45022514530E+02  0.51932138141E+02  0.25500000000E-02 0. -1.
<mgrwt>
<rscale>  0 0.51966984E+02</rscale>
<asrwt>0</asrwt>
<pdfrwt beam="1">  1        2 0.16354377E-01 0.51966984E+02</pdfrwt>
<pdfrwt beam="2">  1       -2 0.97708942E-03 0.51966984E+02</pdfrwt>
<totfact> 0.55177675E+05</totfact>
</mgrwt>
</event>
<event>
 4    1  0.4604841E-002  0.1223858E+03  0.7818608E-02  0.1239212E+00
         -2   -1    0    0  501    0 -0.00000000000E+00  0.00000000000E+00  0.58968378151E+02  0.58968378206E+02  0.25500000000E-02 0.  1.
          2   -1    0    0    0  501  0.00000000000E+00 -0.00000000000E+00 -0.63501296735E+02  0.63501296786E+02  0.25500000000E-02 0.  1.
          2    1    1    2    0  502 -0.31940906726E+02 -0.28256473081E+02 -0.46181840204E+02  0.62860259024E+02  0.25500000000E-02 0. -1.
         -2    1    1    2  502    0  0.31940906726E+02  0.28256473081E+02  0.41648921620E+02  0.59609415968E+02  0.25500000000E-02 0. -1.
<mgrwt>
<rscale>  0 0.12238576E+03</rscale>
<asrwt>0</asrwt>
<pdfrwt beam="2">  1        2 0.97694302E-02 0.12238576E+03</pdfrwt>
<pdfrwt beam="1">  1       -2 0.90720582E-02 0.12238576E+03</pdfrwt>
<totfact> 0.45941828E+04</totfact>
</mgrwt>
</event>
<event>
 4    1  0.4604841E-002  0.8830913E+02  0.7818608E-02  0.1306999E+00
         -2   -1    0    0  501    0 -0.00000000000E+00  0.00000000000E+00  0.60978087044E+01  0.60978092375E+01  0.25500000000E-02 0. -1.
          2   -1    0    0    0  501  0.00000000000E+00 -0.00000000000E+00 -0.31972558964E+03  0.31972558965E+03  0.25500000000E-02 0. -1.
          2    1    1    2    0  502 -0.23192540376E+02 -0.64249126501E-01 -0.29544225718E+03  0.29635118591E+03  0.25500000000E-02 0. -1.
         -2    1    1    2  502    0  0.23192540376E+02  0.64249126501E-01 -0.18185523760E+02  0.29472212980E+02  0.25500000000E-02 0. -1.
<mgrwt>
<rscale>  0 0.88309129E+02</rscale>
<asrwt>0</asrwt>
<pdfrwt beam="2">  1        2 0.49188539E-01 0.88309129E+02</pdfrwt>
<pdfrwt beam="1">  1       -2 0.93812471E-03 0.88309129E+02</pdfrwt>
<totfact> 0.20027628E+05</totfact>
</mgrwt>
</event>
<event>
 4    1  0.4604841E-002  0.4828807E+02  0.7818608E-02  0.1454800E+00
         -2   -1    0    0  501    0 -0.00000000000E+00  0.00000000000E+00  0.21164790497E+02  0.21164790651E+02  0.25500000000E-02 0.  1.
          2   -1    0    0    0  501  0.00000000000E+00 -0.00000000000E+00 -0.27542649773E+02  0.27542649891E+02  0.25500000000E-02 0.  1.
          2    1    1    2    0  502 -0.24112646370E+02 -0.10317291529E+01 -0.38657505787E+01  0.24442344692E+02  0.25500000000E-02 0.  1.
         -2    1    1    2  502    0  0.24112646370E+02  0.10317291529E+01 -0.25121086972E+01  0.24265095850E+02  0.25500000000E-02 0.  1.
<mgrwt>
<rscale>  0 0.48288070E+02</rscale>
<asrwt>0</asrwt>
<pdfrwt beam="2">  1        2 0.42373307E-02 0.48288070E+02</pdfrwt>
<pdfrwt beam="1">  1       -2 0.32561216E-02 0.48288070E+02</pdfrwt>
<totfact> 0.50727005E+05</totfact>
</mgrwt>
</event>
<event>
 4    1  0.4604841E-002  0.4405624E+02  0.7818608E-02  0.1480321E+00
          2   -1    0    0    0  501  0.00000000000E+00  0.00000000000E+00  0.38545279850E+03  0.38545279850E+03  0.25500000000E-02 0. -1.
         -2   -1    0    0  501    0 -0.00000000000E+00 -0.00000000000E+00 -0.12588769427E+01  0.12588795254E+01  0.25500000000E-02 0. -1.
          2    1    1    2    0  502  0.35124118454E+01 -0.20886775154E+02  0.24523182980E+03  0.24614476385E+03  0.25500000000E-02 0. -1.
         -2    1    1    2  502    0 -0.35124118454E+01  0.20886775154E+02  0.13896209175E+03  0.14056691418E+03  0.25500000000E-02 0. -1.
<mgrwt>
<rscale>  0 0.44056243E+02</rscale>
<asrwt>0</asrwt>
<pdfrwt beam="1">  1        2 0.59300374E-01 0.44056243E+02</pdfrwt>
<pdfrwt beam="2">  1       -2 0.19367376E-03 0.44056243E+02</pdfrwt>
<totfact> 0.12597394E+06</totfact>
</mgrwt>
</event>
<event>
 4    1  0.4604841E-002  0.5728209E+02  0.7818608E-02  0.1409605E+00
          2   -1    0    0    0  501  0.00000000000E+00  0.00000000000E+00  0.39152282759E+03  0.39152282759E+03  0.25500000000E-02 0.  1.
         -2   -1    0    0  501    0 -0.00000000000E+00 -0.00000000000E+00 -0.20951761387E+01  0.20951776905E+01  0.25500000000E-02 0.  1.
          2    1    1    2    0  502  0.12835142946E+02 -0.18947809899E+02  0.76381217263E+02  0.79736132033E+02  0.25500000000E-02 0.  1.
         -2    1    1    2  502    0 -0.12835142946E+02  0.18947809899E+02  0.31304643418E+03  0.31388187325E+03  0.25500000000E-02 0.  1.
<mgrwt>
<rscale>  0 0.57282095E+02</rscale>
<asrwt>0</asrwt>
<pdfrwt beam="1">  1        2 0.60234228E-01 0.57282095E+02</pdfrwt>
<pdfrwt beam="2">  1       -2 0.32233520E-03 0.57282095E+02</pdfrwt>
<totfact> 0.65997433E+05</totfact>
</mgrwt>
</event>
<event>
 4    1  0.4604841E-002  0.4243385E+02  0.7818608E-02  0.1491028E+00
         -2   -1    0    0  501    0 -0.00000000000E+00  0.00000000000E+00  0.10927819494E+04  0.10927819494E+04  0.25500000000E-02 0.  1.
          2   -1    0    0    0  501  0.00000000000E+00 -0.00000000000E+00 -0.41193359013E+00  0.41194148271E+00  0.25500000000E-02 0.  1.
          2    1    1    2    0  502  0.17162476854E+02 -0.12464707559E+02  0.55876256931E+03  0.55916502789E+03  0.25500000000E-02 0. -1.
         -2    1    1    2  502    0 -0.17162476854E+02  0.12464707559E+02  0.53360744647E+03  0.53402886296E+03  0.25500000000E-02 0. -1.
<mgrwt>
<rscale>  0 0.42433850E+02</rscale>
<asrwt>0</asrwt>
<pdfrwt beam="2">  1        2 0.63376530E-04 0.42433850E+02</pdfrwt>
<pdfrwt beam="1">  1       -2 0.16811626E+00 0.42433850E+02</pdfrwt>
<totfact> 0.11434944E+05</totfact>
</mgrwt>
</event>
<event>
 4    1  0.4604841E-002  0.4533032E+02  0.7818608E-02  0.1472290E+00
          2   -1    0    0    0  501  0.00000000000E+00  0.00000000000E+00  0.59201941615E+01  0.59201947107E+01  0.25500000000E-02 0. -1.
         -2   -1    0    0  501    0 -0.00000000000E+00 -0.00000000000E+00 -0.86772413872E+02  0.86772413909E+02  0.25500000000E-02 0. -1.
          2    1    1    2    0  502  0.21869186081E+02 -0.47935854098E+01 -0.33205298693E+02  0.40047866719E+02  0.25500000000E-02 0.  1.
         -2    1    1    2  502    0 -0.21869186081E+02  0.47935854098E+01 -0.47646921017E+02  0.52644741901E+02  0.25500000000E-02 0.  1.
<mgrwt>
<rscale>  0 0.45330324E+02</rscale>
<asrwt>0</asrwt>
<pdfrwt beam="1">  1        2 0.91079921E-03 0.45330324E+02</pdfrwt>
<pdfrwt beam="2">  1       -2 0.13349601E-01 0.45330324E+02</pdfrwt>
<totfact> 0.46332605E+05</totfact>
</mgrwt>
</event>
<event>
 4    1  0.4604841E-002  0.4439220E+02  0.7818608E-02  0.1478172E+00
          2   -1    0    0    0  501  0.00000000000E+00  0.00000000000E+00  0.11694948171E+03  0.11694948174E+03  0.25500000000E-02 0.  1.
         -2   -1    0    0  501    0 -0.00000000000E+00 -0.00000000000E+00 -0.42126467926E+01  0.42126475644E+01  0.25500000000E-02 0.  1.
          2    1    1    2    0  502  0.13622556975E+01  0.21502996559E+02  0.70921875471E+02  0.74122513640E+02  0.25500000000E-02 0.  1.
         -2    1    1    2  502    0 -0.13622556975E+01 -0.21502996559E+02  0.41814959448E+02  0.47039615663E+02  0.25500000000E-02 0.  1.
<mgrwt>
<rscale>  0 0.44392202E+02</rscale>
<asrwt>0</asrwt>
<pdfrwt beam="1">  1        2 0.17992228E-01 0.44392202E+02</pdfrwt>
<pdfrwt beam="2">  1       -2 0.64809958E-03 0.44392202E+02</pdfrwt>
<totfact> 0.84137807E+05</totfact>
</mgrwt>
</event>
<event>
 4    1  0.4604841E-002  0.4672779E+02  0.7818608E-02  0.1463835E+00
          2   -1    0    0    0  501  0.00000000000E+00  0.00000000000E+00  0.11365654273E+01  0.11365682879E+01  0.25500000000E-02 0.  1.
         -2   -1    0    0  501    0 -0.00000000000E+00 -0.00000000000E+00 -0.48028109946E+03  0.48028109947E+03  0.25500000000E-02 0.  1.
          2    1    1    2    0  502  0.93970490076E+01  0.19766803319E+02 -0.32380225495E+03  0.32454110889E+03  0.25500000000E-02 0. -1.
         -2    1    1    2  502    0 -0.93970490076E+01 -0.19766803319E+02 -0.15534227908E+03  0.15687655886E+03  0.25500000000E-02 0. -1.
<mgrwt>
<rscale>  0 0.46727790E+02</rscale>
<asrwt>0</asrwt>
<pdfrwt beam="1">  1        2 0.17485682E-03 0.46727790E+02</pdfrwt>
<pdfrwt beam="2">  1       -2 0.73889238E-01 0.46727790E+02</pdfrwt>
<totfact> 0.20177003E+05</totfact>
</mgrwt>
</event>
<event>
 4    1  0.4604841E-002  0.4058430E+02  0.7818608E-02  0.1503955E+00
         -2   -1    0    0  501    0 -0.00000000000E+00  0.00000000000E+00  0.85761497853E+00  0.85761876956E+00  0.25500000000E-02 0. -1.
          2   -1    0    0    0  501  0.00000000000E+00 -0.00000000000E+00 -0.48013442666E+03  0.48013442667E+03  0.25500000000E-02 0. -1.
          2    1    1    2    0  502  0.14916242700E+02 -0.13753528068E+02 -0.23557495178E+03  0.23644705907E+03  0.25500000000E-02 0.  1.
         -2    1    1    2  502    0 -0.14916242700E+02  0.13753528068E+02 -0.24370185990E+03  0.24454498637E+03  0.25500000000E-02 0.  1.
<mgrwt>
<rscale>  0 0.40584302E+02</rscale>
<asrwt>0</asrwt>
<pdfrwt beam="2">  1        2 0.73866620E-01 0.40584302E+02</pdfrwt>
<pdfrwt beam="1">  1       -2 0.13194144E-03 0.40584302E+02</pdfrwt>
<totfact> 0.16512714E+06</totfact>
</mgrwt>
</event>
<event>
 4    1  0.4604841E-002  0.5711198E+02  0.7818608E-02  0.1410367E+00
         -2   -1    0    0  501    0 -0.00000000000E+00  0.00000000000E+00  0.41784637683E+02  0.41784637761E+02  0.25500000000E-02 0.  1.
          2   -1    0    0    0  501  0.00000000000E+00 -0.00000000000E+00 -0.19515411984E+02  0.19515412150E+02  0.25500000000E-02 0.  1.
          2    1    1    2    0  502 -0.27236127673E+02 -0.85553152378E+01  0.10419134505E+02  0.30390104307E+02  0.25500000000E-02 0.  1.
         -2    1    1    2  502    0  0.27236127673E+02  0.85553152378E+01  0.11850091195E+02  0.30909945605E+02  0.25500000000E-02 0.  1.
<mgrwt>
<rscale>  0 0.57111975E+02</rscale>
<asrwt>0</asrwt>
<pdfrwt beam="2">  1        2 0.30023711E-02 0.57111975E+02</pdfrwt>
<pdfrwt beam="1">  1       -2 0.64284057E-02 0.57111975E+02</pdfrwt>
<totfact> 0.30594520E+05</totfact>
</mgrwt>
</event>
<event>
 4    1  0.4604841E-002  0.4630344E+02  0.7818608E-02  0.1466365E+00
          2   -1    0    0    0  501  0.00000000000E+00  0.00000000000E+00  0.13969547447E+04  0.13969547447E+04  0.25500000000E-02 0.  1.
         -2   -1    0    0  501    0 -0.00000000000E+00 -0.00000000000E+00 -0.38368897014E+00  0.38369744370E+00  0.25500000000E-02 0.  1.
          2    1    1    2    0  502 -0.18369519129E+02 -0.12697777236E+02  0.88266522348E+03  0.88294765956E+03  0.25500000000E-02 0. -1.
         -2    1    1    2  502    0  0.18369519129E+02  0.12697777236E+02  0.51390583229E+03  0.51439078263E+03  0.25500000000E-02 0. -1.
<mgrwt>
<rscale>  0 0.46303436E+02</rscale>
<asrwt>0</asrwt>
<pdfrwt beam="1">  1        2 0.21491661E+00 0.46303436E+02</pdfrwt>
<pdfrwt beam="2">  1       -2 0.59029588E-04 0.46303436E+02</pdfrwt>
<totfact> 0.13543434E+06</totfact>
</mgrwt>
</event>
<event>
 4    1  0.4604841E-002  0.4641557E+02  0.7818608E-02  0.1465693E+00
         -2   -1    0    0  501    0 -0.00000000000E+00  0.00000000000E+00  0.79807727682E+01  0.79807731756E+01  0.25500000000E-02 0. -1.
          2   -1    0    0    0  501  0.00000000000E+00 -0.00000000000E+00 -0.67487361892E+02  0.67487361940E+02  0.25500000000E-02 0. -1.
          2    1    1    2    0  502  0.10102629352E+02  0.20594432688E+02 -0.35480498375E+02  0.42249965077E+02  0.25500000000E-02 0.  1.
         -2    1    1    2  502    0 -0.10102629352E+02 -0.20594432688E+02 -0.24026090749E+02  0.33218170039E+02  0.25500000000E-02 0.  1.
<mgrwt>
<rscale>  0 0.46415571E+02</rscale>
<asrwt>0</asrwt>
<pdfrwt beam="2">  1        2 0.10382671E-01 0.46415571E+02</pdfrwt>
<pdfrwt beam="1">  1       -2 0.12278113E-02 0.46415571E+02</pdfrwt>
<totfact> 0.65857901E+05</totfact>
</mgrwt>
</event>
<event>
 4    1  0.4604841E-002  0.1055464E+03  0.7818608E-02  0.1269047E+00
          2   -1    0    0    0  501  0.00000000000E+00  0.00000000000E+00  0.70260035252E+03  0.70260035253E+03  0.25500000000E-02 0. -1.
         -2   -1    0    0  501    0 -0.00000000000E+00 -0.00000000000E+00 -0.39638594715E+01  0.39638602918E+01  0.25500000000E-02 0. -1.
          2    1    1    2    0  502  0.38522550041E+02  0.17123036246E+02  0.13679781698E+03  0.14314617692E+03  0.25500000000E-02 0. -1.
         -2    1    1    2  502    0 -0.38522550041E+02 -0.17123036246E+02  0.56183867607E+03  0.56341803589E+03  0.25500000000E-02 0. -1.
<mgrwt>
<rscale>  0 0.10554638E+03</rscale>
<asrwt>0</asrwt>
<pdfrwt beam="1">  1        2 0.10809216E+00 0.10554638E+03</pdfrwt>
<pdfrwt beam="2">  1       -2 0.60982576E-03 0.10554638E+03</pdfrwt>
<totfact> 0.16087413E+05</totfact>
</mgrwt>
</event>
<event>
 4    1  0.4604841E-002  0.4086302E+02  0.7818608E-02  0.1501955E+00
         -2   -1    0    0  501    0 -0.00000000000E+00  0.00000000000E+00  0.91774033361E+01  0.91774036904E+01  0.25500000000E-02 0.  1.
          2   -1    0    0    0  501  0.00000000000E+00 -0.00000000000E+00 -0.45486341803E+02  0.45486341874E+02  0.25500000000E-02 0.  1.
          2    1    1    2    0  502 -0.13350166130E+01  0.20370716580E+02 -0.17036725243E+02  0.26589441078E+02  0.25500000000E-02 0. -1.
         -2    1    1    2  502    0  0.13350166130E+01 -0.20370716580E+02 -0.19272213223E+02  0.28074304486E+02  0.25500000000E-02 0. -1.
<mgrwt>
<rscale>  0 0.40863016E+02</rscale>
<asrwt>0</asrwt>
<pdfrwt beam="2">  1        2 0.69978987E-02 0.40863016E+02</pdfrwt>
<pdfrwt beam="1">  1       -2 0.14119083E-02 0.40863016E+02</pdfrwt>
<totfact> 0.84161276E+05</totfact>
</mgrwt>
</event>
<event>
 4    1  0.4604841E-002  0.6011176E+02  0.7818608E-02  0.1397363E+00
         -2   -1    0    0  501    0 -0.00000000000E+00  0.00000000000E+00  0.23028351143E+02  0.23028351284E+02  0.25500000000E-02 0.  1.
          2   -1    0    0    0  501  0.00000000000E+00 -0.00000000000E+00 -0.39227989323E+02  0.39227989406E+02  0.25500000000E-02 0.  1.
          2    1    1    2    0  502  0.92348900041E+01 -0.28570868950E+02 -0.67187657459E+01  0.30768808323E+02  0.25500000000E-02 0.  1.
         -2    1    1    2  502    0 -0.92348900041E+01  0.28570868950E+02 -0.94808724339E+01  0.31487532367E+02  0.25500000000E-02 0.  1.
<mgrwt>
<rscale>  0 0.60111760E+02</rscale>
<asrwt>0</asrwt>
<pdfrwt beam="2">  1        2 0.60350753E-02 0.60111760E+02</pdfrwt>
<pdfrwt beam="1">  1       -2 0.35428233E-02 0.60111760E+02</pdfrwt>
<totfact> 0.30228920E+05</totfact>
</mgrwt>
</event>
<event>
 4    1  0.4604841E-002  0.5387226E+02  0.7818608E-02  0.1425509E+00
         -2   -1    0    0  501    0 -0.00000000000E+00  0.00000000000E+00  0.36233944632E+00  0.36234841915E+00  0.25500000000E-02 0.  1.
          2   -1    0    0    0  501  0.00000000000E+00 -0.00000000000E+00 -0.20023932944E+04  0.20023932944E+04  0.25500000000E-02 0.  1.
          2    1    1    2    0  502  0.11224580383E+02 -0.23550518331E+02 -0.75180601704E+03  0.75225853626E+03  0.25500000000E-02 0. -1.
         -2    1    1    2  502    0 -0.11224580383E+02  0.23550518331E+02 -0.12502249379E+04  0.12504971066E+04  0.25500000000E-02 0. -1.
<mgrwt>
<rscale>  0 0.53872259E+02</rscale>
<asrwt>0</asrwt>
<pdfrwt beam="2">  1        2 0.30805165E+00 0.53872259E+02</pdfrwt>
<pdfrwt beam="1">  1       -2 0.55746824E-04 0.53872259E+02</pdfrwt>
<totfact> 0.76296859E+05</totfact>
</mgrwt>
</event>
<event>
 4    1  0.4604841E-002  0.7817056E+02  0.7818608E-02  0.1334325E+00
          2   -1    0    0    0  501  0.00000000000E+00  0.00000000000E+00  0.92211213367E+03  0.92211213368E+03  0.25500000000E-02 0.  1.
         -2   -1    0    0  501    0 -0.00000000000E+00 -0.00000000000E+00 -0.16566948045E+01  0.16566967670E+01  0.25500000000E-02 0.  1.
          2    1    1    2    0  502  0.19756243869E+02 -0.33345185720E+02  0.51984235008E+03  0.52128521898E+03  0.25500000000E-02 0.  1.
         -2    1    1    2  502    0 -0.19756243869E+02  0.33345185720E+02  0.40061308879E+03  0.40248361146E+03  0.25500000000E-02 0.  1.
<mgrwt>
<rscale>  0 0.78170565E+02</rscale>
<asrwt>0</asrwt>
<pdfrwt beam="1">  1        2 0.14186339E+00 0.78170565E+02</pdfrwt>
<pdfrwt beam="2">  1       -2 0.25487630E-03 0.78170565E+02</pdfrwt>
<totfact> 0.37163842E+05</totfact>
</mgrwt>
</event>
<event>
 4    1  0.4604841E-002  0.4077040E+02  0.7818608E-02  0.1502617E+00
          2   -1    0    0    0  501  0.00000000000E+00  0.00000000000E+00  0.21615194700E+04  0.21615194700E+04  0.25500000000E-02 0.  1.
         -2   -1    0    0  501    0 -0.00000000000E+00 -0.00000000000E+00 -0.19224347814E+00  0.19226038955E+00  0.25500000000E-02 0.  1.
          2    1    1    2    0  502  0.17803710780E+02 -0.97957881085E+01  0.99473077929E+03  0.99493831611E+03  0.25500000000E-02 0. -1.
         -2    1    1    2  502    0 -0.17803710780E+02  0.97957881085E+01  0.11665964472E+04  0.11667734142E+04  0.25500000000E-02 0. -1.
<mgrwt>
<rscale>  0 0.40770396E+02</rscale>
<asrwt>0</asrwt>
<pdfrwt beam="1">  1        2 0.33254742E+00 0.40770396E+02</pdfrwt>
<pdfrwt beam="2">  1       -2 0.29576690E-04 0.40770396E+02</pdfrwt>
<totfact> 0.14122554E+06</totfact>
</mgrwt>
</event>
<event>
 4    1  0.4604841E-002  0.4439907E+02  0.7818608E-02  0.1478128E+00
          2   -1    0    0    0  501  0.00000000000E+00  0.00000000000E+00  0.21598296960E+01  0.21598312013E+01  0.25500000000E-02 0.  1.
         -2   -1    0    0  501    0 -0.00000000000E+00 -0.00000000000E+00 -0.22817497595E+03  0.22817497596E+03  0.25500000000E-02 0.  1.
          2    1    1    2    0  502  0.11975800403E+01 -0.22059818324E+02 -0.10170158462E+03  0.10407344571E+03  0.25500000000E-02 0.  1.
         -2    1    1    2  502    0 -0.11975800403E+01  0.22059818324E+02 -0.12431356163E+03  0.12626136145E+03  0.25500000000E-02 0.  1.
<mgrwt>
<rscale>  0 0.44399066E+02</rscale>
<asrwt>0</asrwt>
<pdfrwt beam="1">  1        2 0.33228179E-03 0.44399066E+02</pdfrwt>
<pdfrwt beam="2">  1       -2 0.35103824E-01 0.44399066E+02</pdfrwt>
<totfact> 0.35605730E+05</totfact>
</mgrwt>
</event>
<event>
 4    1  0.4604841E-002  0.6969695E+02  0.7818608E-02  0.1361127E+00
         -2   -1    0    0  501    0 -0.00000000000E+00  0.00000000000E+00  0.23457947394E+03  0.23457947395E+03  0.25500000000E-02 0.  1.
          2   -1    0    0    0  501  0.00000000000E+00 -0.00000000000E+00 -0.51769922889E+01  0.51769929169E+01  0.25500000000E-02 0.  1.
          2    1    1    2    0  502 -0.29295255315E+02  0.10612950372E+02  0.16838810140E+03  0.17124660406E+03  0.25500000000E-02 0.  1.
         -2    1    1    2  502    0  0.29295255315E+02 -0.10612950372E+02  0.61014380248E+02  0.68509862816E+02  0.25500000000E-02 0.  1.
<mgrwt>
<rscale>  0 0.69696950E+02</rscale>
<asrwt>0</asrwt>
<pdfrwt beam="2">  1        2 0.79646026E-03 0.69696950E+02</pdfrwt>
<pdfrwt beam="1">  1       -2 0.36089156E-01 0.69696950E+02</pdfrwt>
<totfact> 0.11484866E+05</totfact>
</mgrwt>
</event>
<event>
 4    1  0.4604841E-002  0.4564130E+02  0.7818608E-02  0.1470377E+00
         -2   -1    0    0  501    0 -0.00000000000E+00  0.00000000000E+00  0.12791635090E+01  0.12791660507E+01  0.25500000000E-02 0.  1.
          2   -1    0    0    0  501  0.00000000000E+00 -0.00000000000E+00 -0.40712655781E+03  0.40712655782E+03  0.25500000000E-02 0.  1.
          2    1    1    2    0  502 -0.20010157093E+02  0.10113201157E+02 -0.16485588991E+03  0.16637351853E+03  0.25500000000E-02 0. -1.
         -2    1    1    2  502    0  0.20010157093E+02 -0.10113201157E+02 -0.24099150440E+03  0.24203220534E+03  0.25500000000E-02 0. -1.
<mgrwt>
<rscale>  0 0.45641295E+02</rscale>
<asrwt>0</asrwt>
<pdfrwt beam="2">  1        2 0.62634752E-01 0.45641295E+02</pdfrwt>
<pdfrwt beam="1">  1       -2 0.19679491E-03 0.45641295E+02</pdfrwt>
<totfact> 0.11767585E+06</totfact>
</mgrwt>
</event>
<event>
 4    1  0.4604841E-002  0.5559561E+02  0.7818608E-02  0.1417303E+00
         -2   -1    0    0  501    0 -0.00000000000E+00  0.00000000000E+00  0.14835726902E+01  0.14835748817E+01  0.25500000000E-02 0. -1.
          2   -1    0    0    0  501  0.00000000000E+00 -0.00000000000E+00 -0.52084899950E+03  0.52084899951E+03  0.25500000000E-02 0. -1.
          2    1    1    2    0  502 -0.91068310427E+01 -0.19117310734E+02 -0.42887794365E+03  0.42940039182E+03  0.25500000000E-02 0. -1.
         -2    1    1    2  502    0  0.91068310427E+01  0.19117310734E+02 -0.90487483165E+02  0.92932182571E+02  0.25500000000E-02 0. -1.
<mgrwt>
<rscale>  0 0.55595609E+02</rscale>
<asrwt>0</asrwt>
<pdfrwt beam="2">  1        2 0.80130470E-01 0.55595609E+02</pdfrwt>
<pdfrwt beam="1">  1       -2 0.22824254E-03 0.55595609E+02</pdfrwt>
<totfact> 0.78093660E+05</totfact>
</mgrwt>
</event>
<event>
 4    1  0.4604841E-002  0.1144183E+03  0.7818608E-02  0.1252600E+00
          2   -1    0    0    0  501  0.00000000000E+00  0.00000000000E+00  0.13026793496E+04  0.13026793496E+04  0.25500000000E-02 0. -1.
         -2   -1    0    0  501    0 -0.00000000000E+00 -0.00000000000E+00 -0.25124260374E+01  0.25124273315E+01  0.25500000000E-02 0. -1.
          2    1    1    2    0  502 -0.41732441920E+01  0.44700203377E+02  0.10545746558E+04  0.10555298332E+04  0.25500000000E-02 0. -1.
         -2    1    1    2  502    0  0.41732441920E+01 -0.44700203377E+02  0.24559226774E+03  0.24966194369E+03  0.25500000000E-02 0. -1.
<mgrwt>
<rscale>  0 0.11441829E+03</rscale>
<asrwt>0</asrwt>
<pdfrwt beam="1">  1        2 0.20041208E+00 0.11441829E+03</pdfrwt>
<pdfrwt beam="2">  1       -2 0.38652742E-03 0.11441829E+03</pdfrwt>
<totfact> 0.13418078E+05</totfact>
</mgrwt>
</event>
<event>
 4    1  0.4604841E-002  0.4735236E+02  0.7818608E-02  0.1460169E+00
          2   -1    0    0    0  501  0.00000000000E+00  0.00000000000E+00  0.92644221623E+02  0.92644221658E+02  0.25500000000E-02 0. -1.
         -2   -1    0    0  501    0 -0.00000000000E+00 -0.00000000000E+00 -0.60506891062E+01  0.60506896435E+01  0.25500000000E-02 0. -1.
          2    1    1    2    0  502  0.16501736008E+02 -0.16346781894E+02  0.33737086063E+02  0.40959926173E+02  0.25500000000E-02 0.  1.
         -2    1    1    2  502    0 -0.16501736008E+02  0.16346781894E+02  0.52856446454E+02  0.57734985129E+02  0.25500000000E-02 0.  1.
<mgrwt>
<rscale>  0 0.47352356E+02</rscale>
<asrwt>0</asrwt>
<pdfrwt beam="1">  1        2 0.14252957E-01 0.47352356E+02</pdfrwt>
<pdfrwt beam="2">  1       -2 0.93087530E-03 0.47352356E+02</pdfrwt>
<totfact> 0.67366685E+05</totfact>
</mgrwt>
</event>
<event>
 4    1  0.4604841E-002  0.6237283E+02  0.7818608E-02  0.1388135E+00
          2   -1    0    0    0  501  0.00000000000E+00  0.00000000000E+00  0.12662103328E+04  0.12662103328E+04  0.25500000000E-02 0.  1.
         -2   -1    0    0  501    0 -0.00000000000E+00 -0.00000000000E+00 -0.76811075151E+00  0.76811498428E+00  0.25500000000E-02 0.  1.
          2    1    1    2    0  502 -0.10504111247E+02 -0.26828896132E+02  0.39026672284E+03  0.39132881441E+03  0.25500000000E-02 0. -1.
         -2    1    1    2  502    0  0.10504111247E+02  0.26828896132E+02  0.87517549919E+03  0.87564963337E+03  0.25500000000E-02 0. -1.
<mgrwt>
<rscale>  0 0.62372829E+02</rscale>
<asrwt>0</asrwt>
<pdfrwt beam="1">  1        2 0.19480181E+00 0.62372829E+02</pdfrwt>
<pdfrwt beam="2">  1       -2 0.11817108E-03 0.62372829E+02</pdfrwt>
<totfact> 0.65809420E+05</totfact>
</mgrwt>
</event>
