<event>
 4    1  0.4635140E-002  0.4486595E+02  0.7818608E-02  0.1475180E+00
         -2   -1    0    0  501    0 -0.00000000000E+00  0.00000000000E+00  0.11628450659E+02  0.11628450938E+02  0.25500000000E-02 0.  1.
          2   -1    0    0    0  501  0.00000000000E+00 -0.00000000000E+00 -0.43276475297E+02  0.43276475372E+02  0.25500000000E-02 0.  1.
          2    1    1    2    0  502 -0.19301710863E+02 -0.83203917832E+01 -0.25417298501E+02  0.32982177479E+02  0.25500000000E-02 0.  1.
         -2    1    1    2  502    0  0.19301710863E+02  0.83203917832E+01 -0.62307261375E+01  0.21922748832E+02  0.25500000000E-02 0.  1.
<mgrwt>
<rscale>  0 0.44865950E+02</rscale>
<asrwt>0</asrwt>
<pdfrwt beam="2">  1        2 0.66579192E-02 0.44865950E+02</pdfrwt>
<pdfrwt beam="1">  1       -2 0.17889925E-02 0.44865950E+02</pdfrwt>
<totfact> 0.65932741E+05</totfact>
</mgrwt>
</event>
<event>
 4    1  0.4635140E-002  0.6196834E+02  0.7818608E-02  0.1389752E+00
         -2   -1    0    0  501    0 -0.00000000000E+00  0.00000000000E+00  0.49527747555E+03  0.49527747556E+03  0.25500000000E-02 0. -1.
          2   -1    0    0    0  501  0.00000000000E+00 -0.00000000000E+00 -0.19383447016E+01  0.19383463789E+01  0.25500000000E-02 0. -1.
          2    1    1    2    0  502 -0.22417727351E+01  0.25831440525E+02  0.38277254773E+03  0.38364972588E+03  0.25500000000E-02 0. -1.
         -2    1    1    2  502    0  0.22417727351E+01 -0.25831440525E+02  0.11056658312E+03  0.11356609606E+03  0.25500000000E-02 0. -1.
<mgrwt>
<rscale>  0 0.61968343E+02</rscale>
<asrwt>0</asrwt>
<pdfrwt beam="2">  1        2 0.29820683E-03 0.61968343E+02</pdfrwt>
<pdfrwt beam="1">  1       -2 0.76196581E-01 0.61968343E+02</pdfrwt>
<totfact> 0.98007565E+04</totfact>
</mgrwt>
</event>
<event>
 4    1  0.4635140E-002  0.6023269E+02  0.7818608E-02  0.1396858E+00
          2   -1    0    0    0  501  0.00000000000E+00  0.00000000000E+00  0.14309536050E+02  0.14309536277E+02  0.25500000000E-02 0.  1.
         -2   -1    0    0  501    0 -0.00000000000E+00 -0.00000000000E+00 -0.63383895648E+02  0.63383895699E+02  0.25500000000E-02 0.  1.
          2    1    1    2    0  502  0.14399549432E+02 -0.24528063209E+02 -0.37307804829E+02  0.46913166768E+02  0.25500000000E-02 0.  1.
         -2    1    1    2  502    0 -0.14399549432E+02  0.24528063209E+02 -0.11766554770E+02  0.30780265208E+02  0.25500000000E-02 0.  1.
<mgrwt>
<rscale>  0 0.60232687E+02</rscale>
<asrwt>0</asrwt>
<pdfrwt beam="1">  1        2 0.22014671E-02 0.60232687E+02</pdfrwt>
<pdfrwt beam="2">  1       -2 0.97513685E-02 0.60232687E+02</pdfrwt>
<totfact> 0.24842079E+05</totfact>
</mgrwt>
</event>
<event>
 4    1  0.4635140E-002  0.1038813E+03  0.7818608E-02  0.1272339E+00
          2   -1    0    0    0  501  0.00000000000E+00  0.00000000000E+00  0.11220738621E+04  0.11220738621E+04  0.25500000000E-02 0. -1.
         -2   -1    0    0  501    0 -0.00000000000E+00 -0.00000000000E+00 -0.24043262720E+01  0.24043276243E+01  0.25500000000E-02 0. -1.
          2    1    1    2    0  502  0.25902537208E+02 -0.42051330365E+02  0.73389845041E+03  0.73555842143E+03  0.25500000000E-02 0. -1.
         -2    1    1    2  502    0 -0.25902537208E+02  0.42051330365E+02  0.38577108538E+03  0.38891976826E+03  0.25500000000E-02 0. -1.
<mgrwt>
<rscale>  0 0.10388133E+03</rscale>
<asrwt>0</asrwt>
<pdfrwt beam="1">  1        2 0.17262667E+00 0.10388133E+03</pdfrwt>
<pdfrwt beam="2">  1       -2 0.36989662E-03 0.10388133E+03</pdfrwt>
<totfact> 0.17694048E+05</totfact>
</mgrwt>
</event>
<event>
 4    1  0.4635140E-002  0.1256501E+03  0.7818608E-02  0.1234057E+00
          2   -1    0    0    0  501  0.00000000000E+00  0.00000000000E+00  0.15633486872E+04  0.15633486872E+04  0.25500000000E-02 0. -1.
         -2   -1    0    0  501    0 -0.00000000000E+00 -0.00000000000E+00 -0.25246979322E+01  0.25246992199E+01  0.25500000000E-02 0. -1.
          2    1    1    2    0  502 -0.30699762190E+02  0.54809612792E+02  0.78844162387E+03  0.79094042968E+03  0.25500000000E-02 0. -1.
         -2    1    1    2  502    0  0.30699762190E+02 -0.54809612792E+02  0.77238236535E+03  0.77493295669E+03  0.25500000000E-02 0. -1.
<mgrwt>
<rscale>  0 0.12565006E+03</rscale>
<asrwt>0</asrwt>
<pdfrwt beam="1">  1        2 0.24051448E+00 0.12565006E+03</pdfrwt>
<pdfrwt beam="2">  1       -2 0.38841631E-03 0.12565006E+03</pdfrwt>
<totfact> 0.98346932E+04</totfact>
</mgrwt>
</event>
<event>
 4    1  0.4635140E-002  0.5905315E+02  0.7818608E-02  0.1401849E+00
          2   -1    0    0    0  501  0.00000000000E+00  0.00000000000E+00  0.86431822419E+02  0.86431822457E+02  0.25500000000E-02 0. -1.
         -2   -1    0    0  501    0 -0.00000000000E+00 -0.00000000000E+00 -0.10086779130E+02  0.10086779452E+02  0.25500000000E-02 0. -1.
          2    1    1    2    0  502  0.70629391755E+01  0.27711193968E+02  0.26159324147E+02  0.38757007459E+02  0.25500000000E-02 0. -1.
         -2    1    1    2  502    0 -0.70629391755E+01 -0.27711193968E+02  0.50185719143E+02  0.57761594449E+02  0.25500000000E-02 0. -1.
<mgrwt>
<rscale>  0 0.59053153E+02</rscale>
<asrwt>0</asrwt>
<pdfrwt beam="1">  1        2 0.13297203E-01 0.59053153E+02</pdfrwt>
<pdfrwt beam="2">  1       -2 0.15518123E-02 0.59053153E+02</pdfrwt>
<totfact> 0.37634868E+05</totfact>
</mgrwt>
</event>
<event>
 4    1  0.4635140E-002  0.7114275E+02  0.7818608E-02  0.1356250E+00
          2   -1    0    0    0  501  0.00000000000E+00  0.00000000000E+00  0.13305444867E+02  0.13305445112E+02  0.25500000000E-02 0. -1.
         -2   -1    0    0  501    0 -0.00000000000E+00 -0.00000000000E+00 -0.95098109822E+02  0.95098109856E+02  0.25500000000E-02 0. -1.
          2    1    1    2    0  502  0.25578401480E+01  0.34776870742E+02 -0.30192144214E+02  0.46125251907E+02  0.25500000000E-02 0.  1.
         -2    1    1    2  502    0 -0.25578401480E+01 -0.34776870742E+02 -0.51600520741E+02  0.62278303060E+02  0.25500000000E-02 0.  1.
<mgrwt>
<rscale>  0 0.71142749E+02</rscale>
<asrwt>0</asrwt>
<pdfrwt beam="1">  1        2 0.20469916E-02 0.71142749E+02</pdfrwt>
<pdfrwt beam="2">  1       -2 0.14630478E-01 0.71142749E+02</pdfrwt>
<totfact> 0.14997892E+05</totfact>
</mgrwt>
</event>
<event>
 4    1  0.4635140E-002  0.7416692E+02  0.7818608E-02  0.1346470E+00
         -2   -1    0    0  501    0 -0.00000000000E+00  0.00000000000E+00  0.26099488960E+03  0.26099488961E+03  0.25500000000E-02 0.  1.
          2   -1    0    0    0  501  0.00000000000E+00 -0.00000000000E+00 -0.52690034112E+01  0.52690040283E+01  0.25500000000E-02 0.  1.
          2    1    1    2    0  502  0.30782663685E+02 -0.52867888510E+01  0.19963372092E+03  0.20206223064E+03  0.25500000000E-02 0. -1.
         -2    1    1    2  502    0 -0.30782663685E+02  0.52867888510E+01  0.56092165270E+02  0.64201662993E+02  0.25500000000E-02 0. -1.
<mgrwt>
<rscale>  0 0.74166921E+02</rscale>
<asrwt>0</asrwt>
<pdfrwt beam="2">  1        2 0.81061599E-03 0.74166921E+02</pdfrwt>
<pdfrwt beam="1">  1       -2 0.40153058E-01 0.74166921E+02</pdfrwt>
<totfact> 0.93159712E+04</totfact>
</mgrwt>
</event>
<event>
 4    1  0.4635140E-002  0.4293756E+02  0.7818608E-02  0.1487644E+00
          2   -1    0    0    0  501  0.00000000000E+00  0.00000000000E+00  0.88192980342E+02  0.88192980378E+02  0.25500000000E-02 0.  1.
         -2   -1    0    0  501    0 -0.00000000000E+00 -0.00000000000E+00 -0.52261355715E+01  0.52261361936E+01  0.25500000000E-02 0.  1.
          2    1    1    2    0  502 -0.28388172747E+01  0.21191411743E+02  0.45709923437E+02  0.50463173922E+02  0.25500000000E-02 0. -1.
         -2    1    1    2  502    0  0.28388172747E+01 -0.21191411743E+02  0.37256921333E+02  0.42955942650E+02  0.25500000000E-02 0. -1.
<mgrwt>
<rscale>  0 0.42937559E+02</rscale>
<asrwt>0</asrwt>
<pdfrwt beam="1">  1        2 0.13568149E-01 0.42937559E+02</pdfrwt>
<pdfrwt beam="2">  1       -2 0.80402102E-03 0.42937559E+02</pdfrwt>
<totfact> 0.85045030E+05</totfact>
</mgrwt>
</event>
<event>
 4    1  0.4635140E-002  0.4608782E+02  0.7818608E-02  0.1467663E+00
         -2   -1    0    0  501    0 -0.00000000000E+00  0.00000000000E+00  0.35271514590E+02  0.35271514682E+02  0.25500000000E-02 0.  1.
          2   -1    0    0    0  501  0.00000000000E+00 -0.00000000000E+00 -0.15055258972E+02  0.15055259188E+02  0.25500000000E-02 0.  1.
          2    1    1    2    0  502 -0.21595958351E+02  0.73604185231E+01  0.65763658523E+01  0.23744678820E+02  0.25500000000E-02 0. -1.
         -2    1    1    2  502    0  0.21595958351E+02 -0.73604185231E+01  0.13639889766E+02  0.26582095050E+02  0.25500000000E-02 0. -1.
<mgrwt>
<rscale>  0 0.46087820E+02</rscale>
<asrwt>0</asrwt>
<pdfrwt beam="2">  1        2 0.23161937E-02 0.46087820E+02</pdfrwt>
<pdfrwt beam="1">  1       -2 0.54263868E-02 0.46087820E+02</pdfrwt>
<totfact> 0.52376082E+05</totfact>
</mgrwt>
</event>
<event>
 4    1  0.4635140E-002  0.4124447E+02  0.7818608E-02  0.1499248E+00
         -2   -1    0    0  501    0 -0.00000000000E+00  0.00000000000E+00  0.56700509311E+00  0.56701082715E+00  0.25500000000E-02 0.  1.
          2   -1    0    0    0  501  0.00000000000E+00 -0.00000000000E+00 -0.75003617513E+03  0.75003617513E+03  0.25500000000E-02 0.  1.
          2    1    1    2    0  502  0.17510798124E+02  0.10190688468E+02 -0.30472611634E+03  0.30539889352E+03  0.25500000000E-02 0.  1.
         -2    1    1    2  502    0 -0.17510798124E+02 -0.10190688468E+02 -0.44474305370E+03  0.44520429243E+03  0.25500000000E-02 0.  1.
<mgrwt>
<rscale>  0 0.41244466E+02</rscale>
<asrwt>0</asrwt>
<pdfrwt beam="2">  1        2 0.11538939E+00 0.41244466E+02</pdfrwt>
<pdfrwt beam="1">  1       -2 0.87232594E-04 0.41244466E+02</pdfrwt>
<totfact> 0.17855126E+06</totfact>
</mgrwt>
</event>
<event>
 4    1  0.4635140E-002  0.5810044E+02  0.7818608E-02  0.1405981E+00
          2   -1    0    0    0  501  0.00000000000E+00  0.00000000000E+00  0.23041014437E+03  0.23041014438E+03  0.25500000000E-02 0.  1.
         -2   -1    0    0  501    0 -0.00000000000E+00 -0.00000000000E+00 -0.36626645004E+01  0.36626653881E+01  0.25500000000E-02 0.  1.
          2    1    1    2    0  502  0.95269484505E+01  0.26765823047E+02  0.88952954704E+02  0.93379870353E+02  0.25500000000E-02 0. -1.
         -2    1    1    2  502    0 -0.95269484505E+01 -0.26765823047E+02  0.13779452516E+03  0.14069293941E+03  0.25500000000E-02 0. -1.
<mgrwt>
<rscale>  0 0.58100436E+02</rscale>
<asrwt>0</asrwt>
<pdfrwt beam="1">  1        2 0.35447720E-01 0.58100436E+02</pdfrwt>
<pdfrwt beam="2">  1       -2 0.56348683E-03 0.58100436E+02</pdfrwt>
<totfact> 0.52872148E+05</totfact>
</mgrwt>
</event>
<event>
 4    1  0.4635140E-002  0.5907822E+02  0.7818608E-02  0.1401741E+00
         -2   -1    0    0  501    0 -0.00000000000E+00  0.00000000000E+00  0.77960927621E+00  0.77961344656E+00  0.25500000000E-02 0. -1.
          2   -1    0    0    0  501  0.00000000000E+00 -0.00000000000E+00 -0.11192229279E+04  0.11192229279E+04  0.25500000000E-02 0. -1.
          2    1    1    2    0  502  0.27621721111E+02  0.58692818397E+01 -0.72356756962E+03  0.72411838518E+03  0.25500000000E-02 0.  1.
         -2    1    1    2  502    0 -0.27621721111E+02 -0.58692818397E+01 -0.39487574898E+03  0.39588415614E+03  0.25500000000E-02 0.  1.
<mgrwt>
<rscale>  0 0.59078216E+02</rscale>
<asrwt>0</asrwt>
<pdfrwt beam="2">  1        2 0.17218686E+00 0.59078216E+02</pdfrwt>
<pdfrwt beam="1">  1       -2 0.11994110E-03 0.59078216E+02</pdfrwt>
<totfact> 0.76413603E+05</totfact>
</mgrwt>
</event>
<event>
 4    1  0.4635140E-002  0.4846521E+02  0.7818608E-02  0.1453800E+00
          2   -1    0    0    0  501  0.00000000000E+00  0.00000000000E+00  0.57988720959E+03  0.57988720960E+03  0.25500000000E-02 0. -1.
         -2   -1    0    0  501    0 -0.00000000000E+00 -0.00000000000E+00 -0.10126421309E+01  0.10126453416E+01  0.25500000000E-02 0. -1.
          2    1    1    2    0  502 -0.22750716918E+02  0.82737759573E+01  0.30239459684E+03  0.30336206535E+03  0.25500000000E-02 0.  1.
         -2    1    1    2  502    0  0.22750716918E+02 -0.82737759573E+01  0.27647997062E+03  0.27753778959E+03  0.25500000000E-02 0.  1.
<mgrwt>
<rscale>  0 0.48465210E+02</rscale>
<asrwt>0</asrwt>
<pdfrwt beam="1">  1        2 0.89213465E-01 0.48465210E+02</pdfrwt>
<pdfrwt beam="2">  1       -2 0.15579126E-03 0.48465210E+02</pdfrwt>
<totfact> 0.11331482E+06</totfact>
</mgrwt>
</event>
<event>
 4    1  0.4635140E-002  0.5122339E+02  0.7818608E-02  0.1438852E+00
          2   -1    0    0    0  501  0.00000000000E+00  0.00000000000E+00  0.72911673635E+03  0.72911673636E+03  0.25500000000E-02 0. -1.
         -2   -1    0    0  501    0 -0.00000000000E+00 -0.00000000000E+00 -0.89966045430E+00  0.89966406816E+00  0.25500000000E-02 0. -1.
          2    1    1    2    0  502  0.14694962109E+02 -0.20970708380E+02  0.35703583852E+03  0.35795293338E+03  0.25500000000E-02 0.  1.
         -2    1    1    2  502    0 -0.14694962109E+02  0.20970708380E+02  0.37118123738E+03  0.37206346705E+03  0.25500000000E-02 0.  1.
<mgrwt>
<rscale>  0 0.51223386E+02</rscale>
<asrwt>0</asrwt>
<pdfrwt beam="1">  1        2 0.11217147E+00 0.51223386E+02</pdfrwt>
<pdfrwt beam="2">  1       -2 0.13840999E-03 0.51223386E+02</pdfrwt>
<totfact> 0.10456910E+06</totfact>
</mgrwt>
</event>
<event>
 4    1  0.4635140E-002  0.6610795E+02  0.7818608E-02  0.1373852E+00
          2   -1    0    0    0  501  0.00000000000E+00  0.00000000000E+00  0.15799874684E+04  0.15799874684E+04  0.25500000000E-02 0. -1.
         -2   -1    0    0  501    0 -0.00000000000E+00 -0.00000000000E+00 -0.69150022159E+00  0.69150492331E+00  0.25500000000E-02 0. -1.
          2    1    1    2    0  502  0.14928228213E+01  0.29295692351E+02  0.11539208816E+04  0.11542936659E+04  0.25500000000E-02 0.  1.
         -2    1    1    2  502    0 -0.14928228213E+01 -0.29295692351E+02  0.42537508657E+03  0.42638530742E+03  0.25500000000E-02 0.  1.
<mgrwt>
<rscale>  0 0.66107954E+02</rscale>
<asrwt>0</asrwt>
<pdfrwt beam="1">  1        2 0.24307731E+00 0.66107954E+02</pdfrwt>
<pdfrwt beam="2">  1       -2 0.10638400E-03 0.66107954E+02</pdfrwt>
<totfact> 0.53171886E+05</totfact>
</mgrwt>
</event>
<event>
 4    1  0.4635140E-002  0.5075620E+02  0.7818608E-02  0.1441305E+00
         -2   -1    0    0  501    0 -0.00000000000E+00  0.00000000000E+00  0.37547301696E+00  0.37548167594E+00  0.25500000000E-02 0.  1.
          2   -1    0    0    0  501  0.00000000000E+00 -0.00000000000E+00 -0.17152777414E+04  0.17152777414E+04  0.25500000000E-02 0.  1.
          2    1    1    2    0  502 -0.22623054935E+02 -0.21895115236E+01 -0.12390548970E+04  0.12392633434E+04  0.25500000000E-02 0. -1.
         -2    1    1    2  502    0  0.22623054935E+02  0.21895115236E+01 -0.47584737145E+03  0.47638987972E+03  0.25500000000E-02 0. -1.
<mgrwt>
<rscale>  0 0.50756199E+02</rscale>
<asrwt>0</asrwt>
<pdfrwt beam="2">  1        2 0.26388261E+00 0.50756199E+02</pdfrwt>
<pdfrwt beam="1">  1       -2 0.57767119E-04 0.50756199E+02</pdfrwt>
<totfact> 0.99199987E+05</totfact>
</mgrwt>
</event>
<event>
 4    1  0.4635140E-002  0.8151666E+02  0.7818608E-02  0.1324802E+00
          2   -1    0    0    0  501  0.00000000000E+00  0.00000000000E+00  0.11440421050E+03  0.11440421053E+03  0.25500000000E-02 0.  1.
         -2   -1    0    0  501    0 -0.00000000000E+00 -0.00000000000E+00 -0.14520807893E+02  0.14520808117E+02  0.25500000000E-02 0.  1.
          2    1    1    2    0  502 -0.22937640365E+02 -0.18976293320E+02  0.93971174448E+02  0.98573914843E+02  0.25500000000E-02 0. -1.
         -2    1    1    2  502    0  0.22937640365E+02  0.18976293320E+02  0.59122281576E+01  0.30351103801E+02  0.25500000000E-02 0. -1.
<mgrwt>
<rscale>  0 0.81516663E+02</rscale>
<asrwt>0</asrwt>
<pdfrwt beam="1">  1        2 0.17600647E-01 0.81516663E+02</pdfrwt>
<pdfrwt beam="2">  1       -2 0.22339705E-02 0.81516663E+02</pdfrwt>
<totfact> 0.17337579E+05</totfact>
</mgrwt>
</event>
<event>
 4    1  0.4635140E-002  0.4779942E+02  0.7818608E-02  0.1457586E+00
         -2   -1    0    0  501    0 -0.00000000000E+00  0.00000000000E+00  0.10383051399E+01  0.10383082712E+01  0.25500000000E-02 0.  1.
          2   -1    0    0    0  501  0.00000000000E+00 -0.00000000000E+00 -0.55012268474E+03  0.55012268475E+03  0.25500000000E-02 0.  1.
          2    1    1    2    0  502  0.20357479085E+02  0.15071571797E+01 -0.41786546625E+03  0.41836377278E+03  0.25500000000E-02 0.  1.
         -2    1    1    2  502    0 -0.20357479085E+02 -0.15071571797E+01 -0.13121891335E+03  0.13279722024E+03  0.25500000000E-02 0.  1.
<mgrwt>
<rscale>  0 0.47799417E+02</rscale>
<asrwt>0</asrwt>
<pdfrwt beam="2">  1        2 0.84634027E-01 0.47799417E+02</pdfrwt>
<pdfrwt beam="1">  1       -2 0.15973993E-03 0.47799417E+02</pdfrwt>
<totfact> 0.11549212E+06</totfact>
</mgrwt>
</event>
<event>
 4    1  0.4635140E-002  0.9364987E+02  0.7818608E-02  0.1294246E+00
         -2   -1    0    0  501    0 -0.00000000000E+00  0.00000000000E+00  0.88732396166E+02  0.88732396202E+02  0.25500000000E-02 0.  1.
          2   -1    0    0    0  501  0.00000000000E+00 -0.00000000000E+00 -0.24709968820E+02  0.24709968952E+02  0.25500000000E-02 0.  1.
          2    1    1    2    0  502  0.42579350837E+02 -0.58276835065E+01  0.94915286836E+01  0.44011954467E+02  0.25500000000E-02 0. -1.
         -2    1    1    2  502    0 -0.42579350837E+02  0.58276835065E+01  0.54530898662E+02  0.69430410687E+02  0.25500000000E-02 0. -1.
<mgrwt>
<rscale>  0 0.93649875E+02</rscale>
<asrwt>0</asrwt>
<pdfrwt beam="2">  1        2 0.38015337E-02 0.93649875E+02</pdfrwt>
<pdfrwt beam="1">  1       -2 0.13651138E-01 0.93649875E+02</pdfrwt>
<totfact> 0.77346158E+04</totfact>
</mgrwt>
</event>
<event>
 4    1  0.4635140E-002  0.5210384E+02  0.7818608E-02  0.1434313E+00
         -2   -1    0    0  501    0 -0.00000000000E+00  0.00000000000E+00  0.77680448513E+03  0.77680448514E+03  0.25500000000E-02 0.  1.
          2   -1    0    0    0  501  0.00000000000E+00 -0.00000000000E+00 -0.87370911974E+00  0.87371284094E+00  0.25500000000E-02 0.  1.
          2    1    1    2    0  502 -0.53097212932E+01  0.23858421249E+02  0.25339921296E+03  0.25457529052E+03  0.25500000000E-02 0. -1.
         -2    1    1    2  502    0  0.53097212932E+01 -0.23858421249E+02  0.52253156305E+03  0.52310290746E+03  0.25500000000E-02 0. -1.
<mgrwt>
<rscale>  0 0.52103843E+02</rscale>
<asrwt>0</asrwt>
<pdfrwt beam="2">  1        2 0.13441685E-03 0.52103843E+02</pdfrwt>
<pdfrwt beam="1">  1       -2 0.11950858E+00 0.52103843E+02</pdfrwt>
<totfact> 0.10138286E+05</totfact>
</mgrwt>
</event>
<event>
 4    1  0.4635140E-002  0.4242831E+02  0.7818608E-02  0.1491066E+00
         -2   -1    0    0  501    0 -0.00000000000E+00  0.00000000000E+00  0.45256341105E+00  0.45257059506E+00  0.25500000000E-02 0.  1.
          2   -1    0    0    0  501  0.00000000000E+00 -0.00000000000E+00 -0.99441731993E+03  0.99441731993E+03  0.25500000000E-02 0.  1.
          2    1    1    2    0  502 -0.74014270402E+01  0.19821461474E+02 -0.46089182254E+03  0.46137722478E+03  0.25500000000E-02 0.  1.
         -2    1    1    2  502    0  0.74014270402E+01 -0.19821461474E+02 -0.53307293397E+03  0.53349266574E+03  0.25500000000E-02 0.  1.
<mgrwt>
<rscale>  0 0.42428315E+02</rscale>
<asrwt>0</asrwt>
<pdfrwt beam="2">  1        2 0.15298553E+00 0.42428315E+02</pdfrwt>
<pdfrwt beam="1">  1       -2 0.69626489E-04 0.42428315E+02</pdfrwt>
<totfact> 0.17290782E+06</totfact>
</mgrwt>
</event>
<event>
 4    1  0.4635140E-002  0.5786760E+02  0.7818608E-02  0.1407005E+00
         -2   -1    0    0  501    0 -0.00000000000E+00  0.00000000000E+00  0.25995394171E+02  0.25995394296E+02  0.25500000000E-02 0. -1.
          2   -1    0    0    0  501  0.00000000000E+00 -0.00000000000E+00 -0.32204355309E+02  0.32204355410E+02  0.25500000000E-02 0. -1.
          2    1    1    2    0  502 -0.20572841341E+02 -0.20106277617E+02 -0.62304889061E+01  0.29433368801E+02  0.25500000000E-02 0. -1.
         -2    1    1    2  502    0  0.20572841341E+02  0.20106277617E+02  0.21527768714E-01  0.28766380905E+02  0.25500000000E-02 0. -1.
<mgrwt>
<rscale>  0 0.57867605E+02</rscale>
<asrwt>0</asrwt>
<pdfrwt beam="2">  1        2 0.49545162E-02 0.57867605E+02</pdfrwt>
<pdfrwt beam="1">  1       -2 0.39992914E-02 0.57867605E+02</pdfrwt>
<totfact> 0.32264809E+05</totfact>
</mgrwt>
</event>
<event>
 4    1  0.4635140E-002  0.4431033E+02  0.7818608E-02  0.1478694E+00
          2   -1    0    0    0  501  0.00000000000E+00  0.00000000000E+00  0.37724326030E+02  0.37724326116E+02  0.25500000000E-02 0.  1.
         -2   -1    0    0  501    0 -0.00000000000E+00 -0.00000000000E+00 -0.13011534796E+02  0.13011535046E+02  0.25500000000E-02 0.  1.
          2    1    1    2    0  502  0.46603525038E+01  0.21469256412E+02  0.90768753427E+01  0.23770518060E+02  0.25500000000E-02 0. -1.
         -2    1    1    2  502    0 -0.46603525038E+01 -0.21469256412E+02  0.15635915891E+02  0.26965343102E+02  0.25500000000E-02 0. -1.
<mgrwt>
<rscale>  0 0.44310332E+02</rscale>
<asrwt>0</asrwt>
<pdfrwt beam="1">  1        2 0.58037424E-02 0.44310332E+02</pdfrwt>
<pdfrwt beam="2">  1       -2 0.20017746E-02 0.44310332E+02</pdfrwt>
<totfact> 0.66520517E+05</totfact>
</mgrwt>
</event>
<event>
 4    1  0.4635140E-002  0.6830543E+02  0.7818608E-02  0.1365952E+00
          2   -1    0    0    0  501  0.00000000000E+00  0.00000000000E+00  0.35583374118E+03  0.35583374118E+03  0.25500000000E-02 0. -1.
         -2   -1    0    0  501    0 -0.00000000000E+00 -0.00000000000E+00 -0.32779574737E+01  0.32779584656E+01  0.25500000000E-02 0. -1.
          2    1    1    2    0  502  0.19922381666E+02  0.13510093793E+02  0.30365385477E+03  0.30460644683E+03  0.25500000000E-02 0.  1.
         -2    1    1    2  502    0 -0.19922381666E+02 -0.13510093793E+02  0.48901928930E+02  0.54505252821E+02  0.25500000000E-02 0.  1.
<mgrwt>
<rscale>  0 0.68305433E+02</rscale>
<asrwt>0</asrwt>
<pdfrwt beam="1">  1        2 0.54743645E-01 0.68305433E+02</pdfrwt>
<pdfrwt beam="2">  1       -2 0.50430130E-03 0.68305433E+02</pdfrwt>
<totfact> 0.40754532E+05</totfact>
</mgrwt>
</event>
<event>
 4    1  0.4635140E-002  0.4495128E+02  0.7818608E-02  0.1474646E+00
          2   -1    0    0    0  501  0.00000000000E+00  0.00000000000E+00  0.11466818957E+02  0.11466819241E+02  0.25500000000E-02 0.  1.
         -2   -1    0    0  501    0 -0.00000000000E+00 -0.00000000000E+00 -0.44053569810E+02  0.44053569884E+02  0.25500000000E-02 0.  1.
          2    1    1    2    0  502  0.57248099804E+01  0.21576886472E+02 -0.19518641288E+02  0.29653209664E+02  0.25500000000E-02 0. -1.
         -2    1    1    2  502    0 -0.57248099804E+01 -0.21576886472E+02 -0.13068109566E+02  0.25867179461E+02  0.25500000000E-02 0. -1.
<mgrwt>
<rscale>  0 0.44951277E+02</rscale>
<asrwt>0</asrwt>
<pdfrwt beam="1">  1        2 0.17641260E-02 0.44951277E+02</pdfrwt>
<pdfrwt beam="2">  1       -2 0.67774722E-02 0.44951277E+02</pdfrwt>
<totfact> 0.53696661E+05</totfact>
</mgrwt>
</event>
<event>
 4    1  0.4635140E-002  0.4208588E+02  0.7818608E-02  0.1493400E+00
          2   -1    0    0    0  501  0.00000000000E+00  0.00000000000E+00  0.14469556722E+03  0.14469556724E+03  0.25500000000E-02 0.  1.
         -2   -1    0    0  501    0 -0.00000000000E+00 -0.00000000000E+00 -0.30602544939E+01  0.30602555563E+01  0.25500000000E-02 0.  1.
          2    1    1    2    0  502  0.20733326307E+02 -0.21616511003E+00  0.83421335795E+02  0.85959506859E+02  0.25500000000E-02 0.  1.
         -2    1    1    2  502    0 -0.20733326307E+02  0.21616511003E+00  0.58213976928E+02  0.61796315937E+02  0.25500000000E-02 0.  1.
<mgrwt>
<rscale>  0 0.42085881E+02</rscale>
<asrwt>0</asrwt>
<pdfrwt beam="1">  1        2 0.22260848E-01 0.42085881E+02</pdfrwt>
<pdfrwt beam="2">  1       -2 0.47080864E-03 0.42085881E+02</pdfrwt>
<totfact> 0.10199875E+06</totfact>
</mgrwt>
</event>
<event>
 4    1  0.4635140E-002  0.6160090E+02  0.7818608E-02  0.1391234E+00
          2   -1    0    0    0  501  0.00000000000E+00  0.00000000000E+00  0.94902702969E+03  0.94902702969E+03  0.25500000000E-02 0. -1.
         -2   -1    0    0  501    0 -0.00000000000E+00 -0.00000000000E+00 -0.99961962268E+00  0.99962287516E+00  0.25500000000E-02 0. -1.
          2    1    1    2    0  502 -0.22047696670E+02  0.20844386643E+02  0.55573465038E+03  0.55656229752E+03  0.25500000000E-02 0.  1.
         -2    1    1    2  502    0  0.22047696670E+02 -0.20844386643E+02  0.39229275969E+03  0.39346435505E+03  0.25500000000E-02 0.  1.
<mgrwt>
<rscale>  0 0.61600896E+02</rscale>
<asrwt>0</asrwt>
<pdfrwt beam="1">  1        2 0.14600429E+00 0.61600896E+02</pdfrwt>
<pdfrwt beam="2">  1       -2 0.15378775E-03 0.61600896E+02</pdfrwt>
<totfact> 0.68550963E+05</totfact>
</mgrwt>
</event>
<event>
 4    1  0.4635140E-002  0.7313709E+02  0.7818608E-02  0.1349739E+00
          2   -1    0    0    0  501  0.00000000000E+00  0.00000000000E+00  0.16559885460E+01  0.16559905094E+01  0.25500000000E-02 0.  1.
         -2   -1    0    0  501    0 -0.00000000000E+00 -0.00000000000E+00 -0.80752827943E+03  0.80752827944E+03  0.25500000000E-02 0.  1.
          2    1    1    2    0  502  0.45847823348E+01  0.36276248284E+02 -0.39716640764E+03  0.39884601262E+03  0.25500000000E-02 0.  1.
         -2    1    1    2  502    0 -0.45847823348E+01 -0.36276248284E+02 -0.40870588324E+03  0.41033825732E+03  0.25500000000E-02 0.  1.
<mgrwt>
<rscale>  0 0.73137087E+02</rscale>
<asrwt>0</asrwt>
<pdfrwt beam="1">  1        2 0.25476826E-03 0.73137087E+02</pdfrwt>
<pdfrwt beam="2">  1       -2 0.12423481E+00 0.73137087E+02</pdfrwt>
<totfact> 0.41653792E+04</totfact>
</mgrwt>
</event>
<event>
 4    1  0.4635140E-002  0.5345792E+02  0.7818608E-02  0.1427535E+00
          2   -1    0    0    0  501  0.00000000000E+00  0.00000000000E+00  0.10706478323E+03  0.10706478326E+03  0.25500000000E-02 0.  1.
         -2   -1    0    0  501    0 -0.00000000000E+00 -0.00000000000E+00 -0.66729431120E+01  0.66729435992E+01  0.25500000000E-02 0.  1.
          2    1    1    2    0  502 -0.21971301577E+02 -0.24394878271E+01  0.18228727387E+02  0.28652673566E+02  0.25500000000E-02 0. -1.
         -2    1    1    2  502    0  0.21971301577E+02  0.24394878271E+01  0.82163112726E+02  0.85085053289E+02  0.25500000000E-02 0. -1.
<mgrwt>
<rscale>  0 0.53457918E+02</rscale>
<asrwt>0</asrwt>
<pdfrwt beam="1">  1        2 0.16471504E-01 0.53457918E+02</pdfrwt>
<pdfrwt beam="2">  1       -2 0.10266067E-02 0.53457918E+02</pdfrwt>
<totfact> 0.51437608E+05</totfact>
</mgrwt>
</event>
<event>
 4    1  0.4635140E-002  0.4074309E+02  0.7818608E-02  0.1502813E+00
         -2   -1    0    0  501    0 -0.00000000000E+00  0.00000000000E+00  0.70434054473E+02  0.70434054519E+02  0.25500000000E-02 0.  1.
          2   -1    0    0    0  501  0.00000000000E+00 -0.00000000000E+00 -0.58920341688E+01  0.58920347206E+01  0.25500000000E-02 0.  1.
          2    1    1    2    0  502 -0.18854029934E+02 -0.76702934103E+01  0.30712605305E+02  0.36845243613E+02  0.25500000000E-02 0.  1.
         -2    1    1    2  502    0  0.18854029934E+02  0.76702934103E+01  0.33829414999E+02  0.39480845627E+02  0.25500000000E-02 0.  1.
<mgrwt>
<rscale>  0 0.40743092E+02</rscale>
<asrwt>0</asrwt>
<pdfrwt beam="2">  1        2 0.90646678E-03 0.40743092E+02</pdfrwt>
<pdfrwt beam="1">  1       -2 0.10836009E-01 0.40743092E+02</pdfrwt>
<totfact> 0.62553000E+05</totfact>
</mgrwt>
</event>
<event>
 4    1  0.4635140E-002  0.5016101E+02  0.7818608E-02  0.1444475E+00
         -2   -1    0    0  501    0 -0.00000000000E+00  0.00000000000E+00  0.67624754505E+02  0.67624754553E+02  0.25500000000E-02 0. -1.
          2   -1    0    0    0  501  0.00000000000E+00 -0.00000000000E+00 -0.93017963565E+01  0.93017967061E+01  0.25500000000E-02 0. -1.
          2    1    1    2    0  502  0.78179480266E+01 -0.19288210485E+02  0.50625000450E+02  0.54736149409E+02  0.25500000000E-02 0.  1.
         -2    1    1    2  502    0 -0.78179480266E+01  0.19288210485E+02  0.76979576983E+01  0.22190401850E+02  0.25500000000E-02 0.  1.
<mgrwt>
<rscale>  0 0.50161009E+02</rscale>
<asrwt>0</asrwt>
<pdfrwt beam="2">  1        2 0.14310457E-02 0.50161009E+02</pdfrwt>
<pdfrwt beam="1">  1       -2 0.10403808E-01 0.50161009E+02</pdfrwt>
<totfact> 0.38238692E+05</totfact>
</mgrwt>
</event>
<event>
 4    1  0.4635140E-002  0.7096194E+02  0.7818608E-02  0.1356852E+00
          2   -1    0    0    0  501  0.00000000000E+00  0.00000000000E+00  0.42092125040E+01  0.42092132764E+01  0.25500000000E-02 0. -1.
         -2   -1    0    0  501    0 -0.00000000000E+00 -0.00000000000E+00 -0.29908182593E+03  0.29908182594E+03  0.25500000000E-02 0. -1.
          2    1    1    2    0  502  0.34436840197E+02 -0.34795256766E+01 -0.11408379453E+03  0.11921877051E+03  0.25500000000E-02 0.  1.
         -2    1    1    2  502    0 -0.34436840197E+02  0.34795256766E+01 -0.18078881890E+03  0.18407226871E+03  0.25500000000E-02 0.  1.
<mgrwt>
<rscale>  0 0.70961936E+02</rscale>
<asrwt>0</asrwt>
<pdfrwt beam="1">  1        2 0.64757145E-03 0.70961936E+02</pdfrwt>
<pdfrwt beam="2">  1       -2 0.46012572E-01 0.70961936E+02</pdfrwt>
<totfact> 0.96960581E+04</totfact>
</mgrwt>
</event>
<event>
 4    1  0.4635140E-002  0.4527571E+02  0.7818608E-02  0.1472628E+00
          2   -1    0    0    0  501  0.00000000000E+00  0.00000000000E+00  0.27265956320E+02  0.27265956439E+02  0.25500000000E-02 0.  1.
         -2   -1    0    0  501    0 -0.00000000000E+00 -0.00000000000E+00 -0.18795326905E+02  0.18795327078E+02  0.25500000000E-02 0.  1.
          2    1    1    2    0  502  0.21920504621E+02  0.52067593125E+01  0.64766512377E+01  0.23442821570E+02  0.25500000000E-02 0.  1.
         -2    1    1    2  502    0 -0.21920504621E+02 -0.52067593125E+01  0.19939781774E+01  0.22618461947E+02  0.25500000000E-02 0.  1.
<mgrwt>
<rscale>  0 0.45275714E+02</rscale>
<asrwt>0</asrwt>
<pdfrwt beam="1">  1        2 0.41947625E-02 0.45275714E+02</pdfrwt>
<pdfrwt beam="2">  1       -2 0.28915888E-02 0.45275714E+02</pdfrwt>
<totfact> 0.59870787E+05</totfact>
</mgrwt>
</event>
<event>
 4    1  0.4635140E-002  0.6877233E+02  0.7818608E-02  0.1364318E+00
         -2   -1    0    0  501    0 -0.00000000000E+00  0.00000000000E+00  0.90430972439E+00  0.90431331967E+00  0.25500000000E-02 0. -1.
          2   -1    0    0    0  501  0.00000000000E+00 -0.00000000000E+00 -0.13075230626E+04  0.13075230626E+04  0.25500000000E-02 0. -1.
          2    1    1    2    0  502 -0.74575721297E+01 -0.33354724150E+02 -0.58147670809E+03  0.58248031302E+03  0.25500000000E-02 0. -1.
         -2    1    1    2  502    0  0.74575721297E+01  0.33354724150E+02 -0.72514204481E+03  0.72594706292E+03  0.25500000000E-02 0. -1.
<mgrwt>
<rscale>  0 0.68772325E+02</rscale>
<asrwt>0</asrwt>
<pdfrwt beam="2">  1        2 0.20115588E+00 0.68772325E+02</pdfrwt>
<pdfrwt beam="1">  1       -2 0.13912590E-03 0.68772325E+02</pdfrwt>
<totfact> 0.51035088E+05</totfact>
</mgrwt>
</event>
<event>
 4    1  0.4635140E-002  0.5007865E+02  0.7818608E-02  0.1444918E+00
          2   -1    0    0    0  501  0.00000000000E+00  0.00000000000E+00  0.69734815741E+01  0.69734820403E+01  0.25500000000E-02 0. -1.
         -2   -1    0    0  501    0 -0.00000000000E+00 -0.00000000000E+00 -0.89907429065E+02  0.89907429101E+02  0.25500000000E-02 0. -1.
          2    1    1    2    0  502 -0.81722281090E+01 -0.23659070947E+02 -0.42736838392E+02  0.49527510664E+02  0.25500000000E-02 0. -1.
         -2    1    1    2  502    0  0.81722281090E+01  0.23659070947E+02 -0.40197109099E+02  0.47353400477E+02  0.25500000000E-02 0. -1.
<mgrwt>
<rscale>  0 0.50078651E+02</rscale>
<asrwt>0</asrwt>
<pdfrwt beam="1">  1        2 0.10728434E-02 0.50078651E+02</pdfrwt>
<pdfrwt beam="2">  1       -2 0.13831911E-01 0.50078651E+02</pdfrwt>
<totfact> 0.36088593E+05</totfact>
</mgrwt>
</event>
<event>
 4    1  0.4635140E-002  0.6034607E+02  0.7818608E-02  0.1396385E+00
          2   -1    0    0    0  501  0.00000000000E+00  0.00000000000E+00  0.12178298447E+04  0.12178298447E+04  0.25500000000E-02 0. -1.
         -2   -1    0    0  501    0 -0.00000000000E+00 -0.00000000000E+00 -0.74756702295E+00  0.74757137204E+00  0.25500000000E-02 0. -1.
          2    1    1    2    0  502 -0.27123604499E+01 -0.28715401553E+02  0.42965113018E+03  0.43061818918E+03  0.25500000000E-02 0. -1.
         -2    1    1    2  502    0  0.27123604499E+01  0.28715401553E+02  0.78743114753E+03  0.78795922693E+03  0.25500000000E-02 0. -1.
<mgrwt>
<rscale>  0 0.60346071E+02</rscale>
<asrwt>0</asrwt>
<pdfrwt beam="1">  1        2 0.18735854E+00 0.60346071E+02</pdfrwt>
<pdfrwt beam="2">  1       -2 0.11501058E-03 0.60346071E+02</pdfrwt>
<totfact> 0.71935390E+05</totfact>
</mgrwt>
</event>
<event>
 4    1  0.4635140E-002  0.4225837E+02  0.7818608E-02  0.1492221E+00
          2   -1    0    0    0  501  0.00000000000E+00  0.00000000000E+00  0.21931844717E+03  0.21931844719E+03  0.25500000000E-02 0. -1.
         -2   -1    0    0  501    0 -0.00000000000E+00 -0.00000000000E+00 -0.20355889931E+01  0.20355905903E+01  0.25500000000E-02 0. -1.
          2    1    1    2    0  502 -0.17991457898E+02 -0.92708904946E+01  0.76865289680E+02  0.79485311423E+02  0.25500000000E-02 0.  1.
         -2    1    1    2  502    0  0.17991457898E+02  0.92708904946E+01  0.14041756850E+03  0.14186872635E+03  0.25500000000E-02 0.  1.
<mgrwt>
<rscale>  0 0.42258367E+02</rscale>
<asrwt>0</asrwt>
<pdfrwt beam="1">  1        2 0.33741305E-01 0.42258367E+02</pdfrwt>
<pdfrwt beam="2">  1       -2 0.31316762E-03 0.42258367E+02</pdfrwt>
<totfact> 0.11512120E+06</totfact>
</mgrwt>
</event>
<event>
 4    1  0.4635140E-002  0.4465845E+02  0.7818608E-02  0.1476485E+00
         -2   -1    0    0  501    0 -0.00000000000E+00  0.00000000000E+00  0.30996954812E+03  0.30996954813E+03  0.25500000000E-02 0. -1.
          2   -1    0    0    0  501  0.00000000000E+00 -0.00000000000E+00 -0.16085256105E+01  0.16085276318E+01  0.25500000000E-02 0. -1.
          2    1    1    2    0  502 -0.12688260516E+02 -0.17614054425E+02  0.11769493068E+03  0.11968017205E+03  0.25500000000E-02 0.  1.
         -2    1    1    2  502    0  0.12688260516E+02  0.17614054425E+02  0.19066609184E+03  0.19189790372E+03  0.25500000000E-02 0.  1.
<mgrwt>
<rscale>  0 0.44658449E+02</rscale>
<asrwt>0</asrwt>
<pdfrwt beam="2">  1        2 0.24746556E-03 0.44658449E+02</pdfrwt>
<pdfrwt beam="1">  1       -2 0.47687637E-01 0.44658449E+02</pdfrwt>
<totfact> 0.30055748E+05</totfact>
</mgrwt>
</event>
<event>
 4    1  0.4635140E-002  0.5935762E+02  0.7818608E-02  0.1400547E+00
          2   -1    0    0    0  501  0.00000000000E+00  0.00000000000E+00  0.11002955509E+03  0.11002955512E+03  0.25500000000E-02 0.  1.
         -2   -1    0    0  501    0 -0.00000000000E+00 -0.00000000000E+00 -0.80054093929E+01  0.80054097990E+01  0.25500000000E-02 0.  1.
          2    1    1    2    0  502 -0.26003332198E+02 -0.13088987289E+02  0.62493504425E+02  0.68941518517E+02  0.25500000000E-02 0.  1.
         -2    1    1    2  502    0  0.26003332198E+02  0.13088987289E+02  0.39530641271E+02  0.49093446401E+02  0.25500000000E-02 0.  1.
<mgrwt>
<rscale>  0 0.59357617E+02</rscale>
<asrwt>0</asrwt>
<pdfrwt beam="1">  1        2 0.16927623E-01 0.59357617E+02</pdfrwt>
<pdfrwt beam="2">  1       -2 0.12316016E-02 0.59357617E+02</pdfrwt>
<totfact> 0.39604472E+05</totfact>
</mgrwt>
</event>
<event>
 4    1  0.4635140E-002  0.6314766E+02  0.7818608E-02  0.1385078E+00
          2   -1    0    0    0  501  0.00000000000E+00  0.00000000000E+00  0.95224564844E+03  0.95224564844E+03  0.25500000000E-02 0. -1.
         -2   -1    0    0  501    0 -0.00000000000E+00 -0.00000000000E+00 -0.10468991353E+01  0.10469022409E+01  0.25500000000E-02 0. -1.
          2    1    1    2    0  502 -0.23799822884E+02 -0.61996360509E+01  0.77450487801E+03  0.77489526591E+03  0.25500000000E-02 0.  1.
         -2    1    1    2  502    0  0.23799822884E+02  0.61996360509E+01  0.17669387130E+03  0.17839728478E+03  0.25500000000E-02 0.  1.
<mgrwt>
<rscale>  0 0.63147656E+02</rscale>
<asrwt>0</asrwt>
<pdfrwt beam="1">  1        2 0.14649906E+00 0.63147656E+02</pdfrwt>
<pdfrwt beam="2">  1       -2 0.16106195E-03 0.63147656E+02</pdfrwt>
<totfact> 0.64398533E+05</totfact>
</mgrwt>
</event>
<event>
 4    1  0.4635140E-002  0.6611190E+02  0.7818608E-02  0.1373837E+00
         -2   -1    0    0  501    0 -0.00000000000E+00  0.00000000000E+00  0.26829623550E+03  0.26829623551E+03  0.25500000000E-02 0.  1.
          2   -1    0    0    0  501  0.00000000000E+00 -0.00000000000E+00 -0.40727215465E+01  0.40727223448E+01  0.25500000000E-02 0.  1.
          2    1    1    2    0  502  0.27088672748E+02  0.14112831692E+02  0.18417942588E+03  0.18669501636E+03  0.25500000000E-02 0.  1.
         -2    1    1    2  502    0 -0.27088672748E+02 -0.14112831692E+02  0.80044088072E+02  0.85673941496E+02  0.25500000000E-02 0.  1.
<mgrwt>
<rscale>  0 0.66111904E+02</rscale>
<asrwt>0</asrwt>
<pdfrwt beam="2">  1        2 0.62657272E-03 0.66111904E+02</pdfrwt>
<pdfrwt beam="1">  1       -2 0.41276337E-01 0.66111904E+02</pdfrwt>
<totfact> 0.12287246E+05</totfact>
</mgrwt>
</event>
<event>
 4    1  0.4635140E-002  0.7873720E+02  0.7818608E-02  0.1332674E+00
         -2   -1    0    0  501    0 -0.00000000000E+00  0.00000000000E+00  0.73683172200E+00  0.73683613446E+00  0.25500000000E-02 0.  1.
          2   -1    0    0    0  501  0.00000000000E+00 -0.00000000000E+00 -0.21034409163E+04  0.21034409163E+04  0.25500000000E-02 0.  1.
          2    1    1    2    0  502  0.28841840596E+02 -0.14839982580E+02 -0.16476099796E+04  0.16479292223E+04  0.25500000000E-02 0.  1.
         -2    1    1    2  502    0 -0.28841840596E+02  0.14839982580E+02 -0.45509410501E+03  0.45624853016E+03  0.25500000000E-02 0.  1.
<mgrwt>
<rscale>  0 0.78737199E+02</rscale>
<asrwt>0</asrwt>
<pdfrwt beam="2">  1        2 0.32360149E+00 0.78737199E+02</pdfrwt>
<pdfrwt beam="1">  1       -2 0.11336075E-03 0.78737199E+02</pdfrwt>
<totfact> 0.27514654E+05</totfact>
</mgrwt>
</event>
<event>
 4    1  0.4635140E-002  0.4405363E+02  0.7818608E-02  0.1480338E+00
          2   -1    0    0    0  501  0.00000000000E+00  0.00000000000E+00  0.19694441429E+04  0.19694441429E+04  0.25500000000E-02 0.  1.
         -2   -1    0    0  501    0 -0.00000000000E+00 -0.00000000000E+00 -0.24634741510E+00  0.24636061257E+00  0.25500000000E-02 0.  1.
          2    1    1    2    0  502 -0.16966691262E+02  0.12306413983E+02  0.68180129002E+03  0.68212338731E+03  0.25500000000E-02 0.  1.
         -2    1    1    2  502    0  0.16966691262E+02 -0.12306413983E+02  0.12873965054E+04  0.12875671162E+04  0.25500000000E-02 0.  1.
<mgrwt>
<rscale>  0 0.44053625E+02</rscale>
<asrwt>0</asrwt>
<pdfrwt beam="1">  1        2 0.30297881E+00 0.44053625E+02</pdfrwt>
<pdfrwt beam="2">  1       -2 0.37902194E-04 0.44053625E+02</pdfrwt>
<totfact> 0.12770348E+06</totfact>
</mgrwt>
</event>
<event>
 4    1  0.4635140E-002  0.6783608E+02  0.7818608E-02  0.1367610E+00
          2   -1    0    0    0  501  0.00000000000E+00  0.00000000000E+00  0.26851404708E+03  0.26851404709E+03  0.25500000000E-02 0.  1.
         -2   -1    0    0  501    0 -0.00000000000E+00 -0.00000000000E+00 -0.42844442422E+01  0.42844450010E+01  0.25500000000E-02 0.  1.
          2    1    1    2    0  502 -0.26801284728E+02 -0.18686017219E+02  0.16874243978E+03  0.17187637154E+03  0.25500000000E-02 0.  1.
         -2    1    1    2  502    0  0.26801284728E+02  0.18686017219E+02  0.95487163054E+02  0.10092212055E+03  0.25500000000E-02 0.  1.
<mgrwt>
<rscale>  0 0.67836084E+02</rscale>
<asrwt>0</asrwt>
<pdfrwt beam="1">  1        2 0.41309860E-01 0.67836084E+02</pdfrwt>
<pdfrwt beam="2">  1       -2 0.65914523E-03 0.67836084E+02</pdfrwt>
<totfact> 0.37506143E+05</totfact>
</mgrwt>
</event>
<event>
 4    1  0.4635140E-002  0.1006911E+03  0.7818608E-02  0.1278849E+00
          2   -1    0    0    0  501  0.00000000000E+00  0.00000000000E+00  0.13830310046E+03  0.13830310048E+03  0.25500000000E-02 0. -1.
         -2   -1    0    0  501    0 -0.00000000000E+00 -0.00000000000E+00 -0.18326950170E+02  0.18326950347E+02  0.25500000000E-02 0. -1.
          2    1    1    2    0  502 -0.37816869592E+02  0.54506506357E+01  0.11098661320E+03  0.11737910177E+03  0.25500000000E-02 0. -1.
         -2    1    1    2  502    0  0.37816869592E+02 -0.54506506357E+01  0.89895370925E+01  0.39250949055E+02  0.25500000000E-02 0. -1.
<mgrwt>
<rscale>  0 0.10069109E+03</rscale>
<asrwt>0</asrwt>
<pdfrwt beam="1">  1        2 0.21277399E-01 0.10069109E+03</pdfrwt>
<pdfrwt beam="2">  1       -2 0.28195309E-02 0.10069109E+03</pdfrwt>
<totfact> 0.10363643E+05</totfact>
</mgrwt>
</event>
<event>
 4    1  0.4635140E-002  0.5411961E+02  0.7818608E-02  0.1424309E+00
         -2   -1    0    0  501    0 -0.00000000000E+00  0.00000000000E+00  0.30414957491E+00  0.30416026436E+00  0.25500000000E-02 0.  1.
          2   -1    0    0    0  501  0.00000000000E+00 -0.00000000000E+00 -0.24074347749E+04  0.24074347749E+04  0.25500000000E-02 0.  1.
          2    1    1    2    0  502 -0.12520142946E+01 -0.25642784125E+02 -0.15839759361E+04  0.15841839811E+04  0.25500000000E-02 0.  1.
         -2    1    1    2  502    0  0.12520142946E+01  0.25642784125E+02 -0.82315468917E+03  0.82355495398E+03  0.25500000000E-02 0.  1.
<mgrwt>
<rscale>  0 0.54119613E+02</rscale>
<asrwt>0</asrwt>
<pdfrwt beam="2">  1        2 0.37035932E+00 0.54119613E+02</pdfrwt>
<pdfrwt beam="1">  1       -2 0.46794993E-04 0.54119613E+02</pdfrwt>
<totfact> 0.60852688E+05</totfact>
</mgrwt>
</event>
<event>
 4    1  0.4635140E-002  0.4384607E+02  0.7818608E-02  0.1481677E+00
          2   -1    0    0    0  501  0.00000000000E+00  0.00000000000E+00  0.24617595755E+03  0.24617595757E+03  0.25500000000E-02 0.  1.
         -2   -1    0    0  501    0 -0.00000000000E+00 -0.00000000000E+00 -0.19523403339E+01  0.19523419992E+01  0.25500000000E-02 0.  1.
          2    1    1    2    0  502  0.19578717905E+02  0.87187119889E+01  0.14821562970E+03  0.14975718690E+03  0.25500000000E-02 0. -1.
         -2    1    1    2  502    0 -0.19578717905E+02 -0.87187119889E+01  0.96007987516E+02  0.98371112665E+02  0.25500000000E-02 0. -1.
<mgrwt>
<rscale>  0 0.43846070E+02</rscale>
<asrwt>0</asrwt>
<pdfrwt beam="1">  1        2 0.37873207E-01 0.43846070E+02</pdfrwt>
<pdfrwt beam="2">  1       -2 0.30036032E-03 0.43846070E+02</pdfrwt>
<totfact> 0.10932599E+06</totfact>
</mgrwt>
</event>
<event>
 4    1  0.4635140E-002  0.6019345E+02  0.7818608E-02  0.1397022E+00
          2   -1    0    0    0  501  0.00000000000E+00  0.00000000000E+00  0.18342339277E+04  0.18342339277E+04  0.25500000000E-02 0.  1.
         -2   -1    0    0  501    0 -0.00000000000E+00 -0.00000000000E+00 -0.49383388309E+00  0.49384046673E+00  0.25500000000E-02 0.  1.
          2    1    1    2    0  502  0.18576351185E+02 -0.23662655517E+02  0.88942389451E+03  0.88993250655E+03  0.25500000000E-02 0.  1.
         -2    1    1    2  502    0 -0.18576351185E+02  0.23662655517E+02  0.94431619927E+03  0.94479526158E+03  0.25500000000E-02 0.  1.
<mgrwt>
<rscale>  0 0.60193452E+02</rscale>
<asrwt>0</asrwt>
<pdfrwt beam="1">  1        2 0.28218878E+00 0.60193452E+02</pdfrwt>
<pdfrwt beam="2">  1       -2 0.75975234E-04 0.60193452E+02</pdfrwt>
<totfact> 0.61913694E+05</totfact>
</mgrwt>
</event>
<event>
 4    1  0.4635140E-002  0.6647998E+02  0.7818608E-02  0.1372489E+00
          2   -1    0    0    0  501  0.00000000000E+00  0.00000000000E+00  0.66629866581E+03  0.66629866581E+03  0.25500000000E-02 0.  1.
         -2   -1    0    0  501    0 -0.00000000000E+00 -0.00000000000E+00 -0.16582595568E+01  0.16582615175E+01  0.25500000000E-02 0.  1.
          2    1    1    2    0  502 -0.32367719766E+02 -0.75558124416E+01  0.33604178722E+03  0.33768156946E+03  0.25500000000E-02 0. -1.
         -2    1    1    2  502    0  0.32367719766E+02  0.75558124416E+01  0.32859861903E+03  0.33027535787E+03  0.25500000000E-02 0. -1.
<mgrwt>
<rscale>  0 0.66479976E+02</rscale>
<asrwt>0</asrwt>
<pdfrwt beam="1">  1        2 0.10250745E+00 0.66479976E+02</pdfrwt>
<pdfrwt beam="2">  1       -2 0.25511711E-03 0.66479976E+02</pdfrwt>
<totfact> 0.53202730E+05</totfact>
</mgrwt>
</event>
<event>
 4    1  0.4635140E-002  0.4346465E+02  0.7818608E-02  0.1484161E+00
          2   -1    0    0    0  501  0.00000000000E+00  0.00000000000E+00  0.30699138867E+03  0.30699138868E+03  0.25500000000E-02 0. -1.
         -2   -1    0    0  501    0 -0.00000000000E+00 -0.00000000000E+00 -0.15384586122E+01  0.15384607256E+01  0.25500000000E-02 0. -1.
          2    1    1    2    0  502 -0.22970347939E+01 -0.21610563717E+02  0.15295471257E+03  0.15449089596E+03  0.25500000000E-02 0.  1.
         -2    1    1    2  502    0  0.22970347939E+01  0.21610563717E+02  0.15249821749E+03  0.15403895344E+03  0.25500000000E-02 0.  1.
<mgrwt>
<rscale>  0 0.43464646E+02</rscale>
<asrwt>0</asrwt>
<pdfrwt beam="1">  1        2 0.47229439E-01 0.43464646E+02</pdfrwt>
<pdfrwt beam="2">  1       -2 0.23668613E-03 0.43464646E+02</pdfrwt>
<totfact> 0.12048207E+06</totfact>
</mgrwt>
</event>
<event>
 4    1  0.4635140E-002  0.4861935E+02  0.7818608E-02  0.1452934E+00
         -2   -1    0    0  501    0 -0.00000000000E+00  0.00000000000E+00  0.10868931007E+03  0.10868931010E+03  0.25500000000E-02 0.  1.
          2   -1    0    0    0  501  0.00000000000E+00 -0.00000000000E+00 -0.54371518736E+01  0.54371524715E+01  0.25500000000E-02 0.  1.
          2    1    1    2    0  502  0.19079855710E+02  0.12766836689E+02  0.32857975674E+02  0.40083407850E+02  0.25500000000E-02 0. -1.
         -2    1    1    2  502    0 -0.19079855710E+02 -0.12766836689E+02  0.70394182520E+02  0.74043054719E+02  0.25500000000E-02 0. -1.
<mgrwt>
<rscale>  0 0.48619351E+02</rscale>
<asrwt>0</asrwt>
<pdfrwt beam="2">  1        2 0.83648500E-03 0.48619351E+02</pdfrwt>
<pdfrwt beam="1">  1       -2 0.16721431E-01 0.48619351E+02</pdfrwt>
<totfact> 0.36984178E+05</totfact>
</mgrwt>
</event>
<event>
 4    1  0.4635140E-002  0.4957238E+02  0.7818608E-02  0.1447662E+00
          2   -1    0    0    0  501  0.00000000000E+00  0.00000000000E+00  0.26806503002E+03  0.26806503003E+03  0.25500000000E-02 0.  1.
         -2   -1    0    0  501    0 -0.00000000000E+00 -0.00000000000E+00 -0.22918137647E+01  0.22918151834E+01  0.25500000000E-02 0.  1.
          2    1    1    2    0  502 -0.20370628804E+02  0.57748163663E+01  0.62610203196E+02  0.66093483587E+02  0.25500000000E-02 0.  1.
         -2    1    1    2  502    0  0.20370628804E+02 -0.57748163663E+01  0.20316301306E+03  0.20426336163E+03  0.25500000000E-02 0.  1.
<mgrwt>
<rscale>  0 0.49572384E+02</rscale>
<asrwt>0</asrwt>
<pdfrwt beam="1">  1        2 0.41240793E-01 0.49572384E+02</pdfrwt>
<pdfrwt beam="2">  1       -2 0.35258668E-03 0.49572384E+02</pdfrwt>
<totfact> 0.83097549E+05</totfact>
</mgrwt>
</event>
<event>
 4    1  0.4635140E-002  0.6924079E+02  0.7818608E-02  0.1362694E+00
          2   -1    0    0    0  501  0.00000000000E+00  0.00000000000E+00  0.57595640051E+03  0.57595640052E+03  0.25500000000E-02 0.  1.
         -2   -1    0    0  501    0 -0.00000000000E+00 -0.00000000000E+00 -0.20810104907E+01  0.20810120530E+01  0.25500000000E-02 0.  1.
          2    1    1    2    0  502 -0.17253578685E+02  0.24216403993E+02  0.13890051376E+03  0.14204743197E+03  0.25500000000E-02 0.  1.
         -2    1    1    2  502    0  0.17253578685E+02 -0.24216403993E+02  0.43497487626E+03  0.43598998060E+03  0.25500000000E-02 0.  1.
<mgrwt>
<rscale>  0 0.69240790E+02</rscale>
<asrwt>0</asrwt>
<pdfrwt beam="1">  1        2 0.88608787E-01 0.69240790E+02</pdfrwt>
<pdfrwt beam="2">  1       -2 0.32015519E-03 0.69240790E+02</pdfrwt>
<totfact> 0.46111398E+05</totfact>
</mgrwt>
</event>
<event>
 4    1  0.4635140E-002  0.2231283E+03  0.7818608E-02  0.1131572E+00
         -2   -1    0    0  501    0 -0.00000000000E+00  0.00000000000E+00  0.13843951904E+03  0.13843951907E+03  0.25500000000E-02 0. -1.
          2   -1    0    0    0  501  0.00000000000E+00 -0.00000000000E+00 -0.89906109815E+02  0.89906109851E+02  0.25500000000E-02 0. -1.
          2    1    1    2    0  502 -0.41273926357E+02 -0.53506312186E+02  0.11511228865E+03  0.13348146480E+03  0.25500000000E-02 0.  1.
         -2    1    1    2  502    0  0.41273926357E+02  0.53506312186E+02 -0.66578879427E+02  0.94864164113E+02  0.25500000000E-02 0.  1.
<mgrwt>
<rscale>  0 0.22312829E+03</rscale>
<asrwt>0</asrwt>
<pdfrwt beam="2">  1        2 0.13831709E-01 0.22312829E+03</pdfrwt>
<pdfrwt beam="1">  1       -2 0.21298387E-01 0.22312829E+03</pdfrwt>
<totfact> 0.79212244E+03</totfact>
</mgrwt>
</event>
<event>
 4    1  0.4635140E-002  0.5818569E+02  0.7818608E-02  0.1405607E+00
          2   -1    0    0    0  501  0.00000000000E+00  0.00000000000E+00  0.63314966687E+03  0.63314966687E+03  0.25500000000E-02 0.  1.
         -2   -1    0    0  501    0 -0.00000000000E+00 -0.00000000000E+00 -0.13367972664E+01  0.13367996985E+01  0.25500000000E-02 0.  1.
          2    1    1    2    0  502 -0.23984961654E+02 -0.87264312249E+01  0.16364707505E+03  0.16562546352E+03  0.25500000000E-02 0.  1.
         -2    1    1    2  502    0  0.23984961654E+02  0.87264312249E+01  0.46816579455E+03  0.46886100305E+03  0.25500000000E-02 0.  1.
<mgrwt>
<rscale>  0 0.58185686E+02</rscale>
<asrwt>0</asrwt>
<pdfrwt beam="1">  1        2 0.97407886E-01 0.58185686E+02</pdfrwt>
<pdfrwt beam="2">  1       -2 0.20566079E-03 0.58185686E+02</pdfrwt>
<totfact> 0.73618463E+05</totfact>
</mgrwt>
</event>
<event>
 4    1  0.4635140E-002  0.7442447E+02  0.7818608E-02  0.1345663E+00
          2   -1    0    0    0  501  0.00000000000E+00  0.00000000000E+00  0.32332746318E+01  0.32332756374E+01  0.25500000000E-02 0.  1.
         -2   -1    0    0  501    0 -0.00000000000E+00 -0.00000000000E+00 -0.42828101185E+03  0.42828101186E+03  0.25500000000E-02 0.  1.
          2    1    1    2    0  502  0.12922557399E+01  0.33061056463E+02 -0.31126852529E+03  0.31302204111E+03  0.25500000000E-02 0. -1.
         -2    1    1    2  502    0 -0.12922557399E+01 -0.33061056463E+02 -0.11377921193E+03  0.11849224639E+03  0.25500000000E-02 0. -1.
<mgrwt>
<rscale>  0 0.74424468E+02</rscale>
<asrwt>0</asrwt>
<pdfrwt beam="1">  1        2 0.49742728E-03 0.74424468E+02</pdfrwt>
<pdfrwt beam="2">  1       -2 0.65889342E-01 0.74424468E+02</pdfrwt>
<totfact> 0.68605484E+04</totfact>
</mgrwt>
</event>
<event>
 4    1  0.4635140E-002  0.6923820E+02  0.7818608E-02  0.1362703E+00
         -2   -1    0    0  501    0 -0.00000000000E+00  0.00000000000E+00  0.24432890370E+03  0.24432890372E+03  0.25500000000E-02 0. -1.
          2   -1    0    0    0  501  0.00000000000E+00 -0.00000000000E+00 -0.49051994063E+01  0.49052000691E+01  0.25500000000E-02 0. -1.
          2    1    1    2    0  502  0.22772599909E+02  0.22574025288E+02  0.72736038363E+02  0.79490308891E+02  0.25500000000E-02 0.  1.
         -2    1    1    2  502    0 -0.22772599909E+02 -0.22574025288E+02  0.16668766594E+03  0.16974379490E+03  0.25500000000E-02 0.  1.
<mgrwt>
<rscale>  0 0.69238200E+02</rscale>
<asrwt>0</asrwt>
<pdfrwt beam="2">  1        2 0.75464632E-03 0.69238200E+02</pdfrwt>
<pdfrwt beam="1">  1       -2 0.37589052E-01 0.69238200E+02</pdfrwt>
<totfact> 0.11454693E+05</totfact>
</mgrwt>
</event>
<event>
 4    1  0.4635140E-002  0.6145594E+02  0.7818608E-02  0.1391821E+00
         -2   -1    0    0  501    0 -0.00000000000E+00  0.00000000000E+00  0.36768118360E+00  0.36769002607E+00  0.25500000000E-02 0. -1.
          2   -1    0    0    0  501  0.00000000000E+00 -0.00000000000E+00 -0.25679772213E+04  0.25679772213E+04  0.25500000000E-02 0. -1.
          2    1    1    2    0  502  0.20679011373E+02  0.18469477025E+02 -0.18373905208E+04  0.18375997032E+04  0.25500000000E-02 0.  1.
         -2    1    1    2  502    0 -0.20679011373E+02 -0.18469477025E+02 -0.73021901927E+03  0.73074520813E+03  0.25500000000E-02 0.  1.
<mgrwt>
<rscale>  0 0.61455944E+02</rscale>
<asrwt>0</asrwt>
<pdfrwt beam="2">  1        2 0.39505906E+00 0.61455944E+02</pdfrwt>
<pdfrwt beam="1">  1       -2 0.56569073E-04 0.61455944E+02</pdfrwt>
<totfact> 0.39738215E+05</totfact>
</mgrwt>
</event>
<event>
 4    1  0.4635140E-002  0.4957315E+02  0.7818608E-02  0.1447658E+00
          2   -1    0    0    0  501  0.00000000000E+00  0.00000000000E+00  0.96107716222E+03  0.96107716223E+03  0.25500000000E-02 0.  1.
         -2   -1    0    0  501    0 -0.00000000000E+00 -0.00000000000E+00 -0.63925347397E+00  0.63925855996E+00  0.25500000000E-02 0.  1.
          2    1    1    2    0  502 -0.19884250674E+01 -0.21687827089E+02  0.25062761368E+03  0.25157208991E+03  0.25500000000E-02 0.  1.
         -2    1    1    2  502    0  0.19884250674E+01  0.21687827089E+02  0.70981029507E+03  0.71014433088E+03  0.25500000000E-02 0.  1.
<mgrwt>
<rscale>  0 0.49573152E+02</rscale>
<asrwt>0</asrwt>
<pdfrwt beam="1">  1        2 0.14785769E+00 0.49573152E+02</pdfrwt>
<pdfrwt beam="2">  1       -2 0.98347302E-04 0.49573152E+02</pdfrwt>
<totfact> 0.11798985E+06</totfact>
</mgrwt>
</event>
<event>
 4    1  0.4635140E-002  0.4593650E+02  0.7818608E-02  0.1468579E+00
         -2   -1    0    0  501    0 -0.00000000000E+00  0.00000000000E+00  0.15491414294E+02  0.15491414504E+02  0.25500000000E-02 0. -1.
          2   -1    0    0    0  501  0.00000000000E+00 -0.00000000000E+00 -0.34053736367E+02  0.34053736462E+02  0.25500000000E-02 0. -1.
          2    1    1    2    0  502 -0.57126985843E+01 -0.21153327005E+02 -0.18522282302E+01  0.21989291131E+02  0.25500000000E-02 0. -1.
         -2    1    1    2  502    0  0.57126985843E+01  0.21153327005E+02 -0.16710093843E+02  0.27555859835E+02  0.25500000000E-02 0. -1.
<mgrwt>
<rscale>  0 0.45936502E+02</rscale>
<asrwt>0</asrwt>
<pdfrwt beam="2">  1        2 0.52390364E-02 0.45936502E+02</pdfrwt>
<pdfrwt beam="1">  1       -2 0.23832945E-02 0.45936502E+02</pdfrwt>
<totfact> 0.59675015E+05</totfact>
</mgrwt>
</event>
<event>
 4    1  0.4635140E-002  0.4384897E+02  0.7818608E-02  0.1481658E+00
          2   -1    0    0    0  501  0.00000000000E+00  0.00000000000E+00  0.28674306760E+03  0.28674306761E+03  0.25500000000E-02 0. -1.
         -2   -1    0    0  501    0 -0.00000000000E+00 -0.00000000000E+00 -0.16763534937E+01  0.16763554331E+01  0.25500000000E-02 0. -1.
          2    1    1    2    0  502  0.12196149055E+02 -0.17992560696E+02  0.16137406213E+03  0.16283140431E+03  0.25500000000E-02 0.  1.
         -2    1    1    2  502    0 -0.12196149055E+02  0.17992560696E+02  0.12369265198E+03  0.12558801874E+03  0.25500000000E-02 0.  1.
<mgrwt>
<rscale>  0 0.43848969E+02</rscale>
<asrwt>0</asrwt>
<pdfrwt beam="1">  1        2 0.44114273E-01 0.43848969E+02</pdfrwt>
<pdfrwt beam="2">  1       -2 0.25790095E-03 0.43848969E+02</pdfrwt>
<totfact> 0.11517399E+06</totfact>
</mgrwt>
</event>
<event>
 4    1  0.4635140E-002  0.9471429E+02  0.7818608E-02  0.1291821E+00
         -2   -1    0    0  501    0 -0.00000000000E+00  0.00000000000E+00  0.12075718916E+02  0.12075719185E+02  0.25500000000E-02 0. -1.
          2   -1    0    0    0  501  0.00000000000E+00 -0.00000000000E+00 -0.18571972131E+03  0.18571972132E+03  0.25500000000E-02 0. -1.
          2    1    1    2    0  502 -0.23538968670E+00 -0.41488511831E+02 -0.39138924412E+02  0.57036895365E+02  0.25500000000E-02 0.  1.
         -2    1    1    2  502    0  0.23538968670E+00  0.41488511831E+02 -0.13450507798E+03  0.14075854514E+03  0.25500000000E-02 0.  1.
<mgrwt>
<rscale>  0 0.94714290E+02</rscale>
<asrwt>0</asrwt>
<pdfrwt beam="2">  1        2 0.28572263E-01 0.94714290E+02</pdfrwt>
<pdfrwt beam="1">  1       -2 0.18578031E-02 0.94714290E+02</pdfrwt>
<totfact> 0.13587533E+05</totfact>
</mgrwt>
</event>
<event>
 4    1  0.4635140E-002  0.1403227E+03  0.7818608E-02  0.1212895E+00
          2   -1    0    0    0  501  0.00000000000E+00  0.00000000000E+00  0.19012109970E+04  0.19012109970E+04  0.25500000000E-02 0.  1.
         -2   -1    0    0  501    0 -0.00000000000E+00 -0.00000000000E+00 -0.25891983747E+01  0.25891996304E+01  0.25500000000E-02 0.  1.
          2    1    1    2    0  502  0.19037048315E+02 -0.61450740960E+02  0.13291979861E+04  0.13307538799E+04  0.25500000000E-02 0.  1.
         -2    1    1    2  502    0 -0.19037048315E+02  0.61450740960E+02  0.56942381259E+03  0.57304631673E+03  0.25500000000E-02 0.  1.
<mgrwt>
<rscale>  0 0.14032268E+03</rscale>
<asrwt>0</asrwt>
<pdfrwt beam="1">  1        2 0.29249354E+00 0.14032268E+03</pdfrwt>
<pdfrwt beam="2">  1       -2 0.39833893E-03 0.14032268E+03</pdfrwt>
<totfact> 0.64370120E+04</totfact>
</mgrwt>
</event>
<event>
 4    1  0.4635140E-002  0.9583527E+02  0.7818608E-02  0.1289306E+00
          2   -1    0    0    0  501  0.00000000000E+00  0.00000000000E+00  0.17735006497E+04  0.17735006497E+04  0.25500000000E-02 0. -1.
         -2   -1    0    0  501    0 -0.00000000000E+00 -0.00000000000E+00 -0.12946695493E+01  0.12946720606E+01  0.25500000000E-02 0. -1.
          2    1    1    2    0  502  0.29812318169E+02 -0.97406254201E+01  0.21519409397E+03  0.21746758881E+03  0.25500000000E-02 0. -1.
         -2    1    1    2  502    0 -0.29812318169E+02  0.97406254201E+01  0.15570118862E+04  0.15573277329E+04  0.25500000000E-02 0. -1.
<mgrwt>
<rscale>  0 0.95835265E+02</rscale>
<asrwt>0</asrwt>
<pdfrwt beam="1">  1        2 0.27284652E+00 0.95835265E+02</pdfrwt>
<pdfrwt beam="2">  1       -2 0.19917993E-03 0.95835265E+02</pdfrwt>
<totfact> 0.18977426E+05</totfact>
</mgrwt>
</event>
<event>
 4    1  0.4635140E-002  0.9207364E+02  0.7818608E-02  0.1297906E+00
         -2   -1    0    0  501    0 -0.00000000000E+00  0.00000000000E+00  0.22087715852E+02  0.22087715999E+02  0.25500000000E-02 0.  1.
          2   -1    0    0    0  501  0.00000000000E+00 -0.00000000000E+00 -0.95953282029E+02  0.95953282063E+02  0.25500000000E-02 0.  1.
          2    1    1    2    0  502  0.21417827543E+02  0.32965827385E+01  0.15140258691E+02  0.26435170401E+02  0.25500000000E-02 0.  1.
         -2    1    1    2  502    0 -0.21417827543E+02 -0.32965827385E+01 -0.89005824868E+02  0.91605827660E+02  0.25500000000E-02 0.  1.
<mgrwt>
<rscale>  0 0.92073641E+02</rscale>
<asrwt>0</asrwt>
<pdfrwt beam="2">  1        2 0.14762043E-01 0.92073641E+02</pdfrwt>
<pdfrwt beam="1">  1       -2 0.33981102E-02 0.92073641E+02</pdfrwt>
<totfact> 0.11792006E+05</totfact>
</mgrwt>
</event>
<event>
 4    1  0.4635140E-002  0.4895833E+02  0.7818608E-02  0.1451042E+00
          2   -1    0    0    0  501  0.00000000000E+00  0.00000000000E+00  0.92965328923E+03  0.92965328924E+03  0.25500000000E-02 0.  1.
         -2   -1    0    0  501    0 -0.00000000000E+00 -0.00000000000E+00 -0.64457060897E+00  0.64457565301E+00  0.25500000000E-02 0.  1.
          2    1    1    2    0  502 -0.14621364759E+02  0.16811697917E+02  0.65717582385E+03  0.65755340540E+03  0.25500000000E-02 0.  1.
         -2    1    1    2  502    0  0.14621364759E+02 -0.16811697917E+02  0.27183289477E+03  0.27274445949E+03  0.25500000000E-02 0.  1.
<mgrwt>
<rscale>  0 0.48958331E+02</rscale>
<asrwt>0</asrwt>
<pdfrwt beam="1">  1        2 0.14302357E+00 0.48958331E+02</pdfrwt>
<pdfrwt beam="2">  1       -2 0.99165106E-04 0.48958331E+02</pdfrwt>
<totfact> 0.12135187E+06</totfact>
</mgrwt>
</event>
<event>
 4    1  0.4635140E-002  0.4945762E+02  0.7818608E-02  0.1448289E+00
          2   -1    0    0    0  501  0.00000000000E+00  0.00000000000E+00  0.42806841409E+03  0.42806841410E+03  0.25500000000E-02 0. -1.
         -2   -1    0    0  501    0 -0.00000000000E+00 -0.00000000000E+00 -0.14285413996E+01  0.14285436755E+01  0.25500000000E-02 0. -1.
          2    1    1    2    0  502  0.65775103595E+01  0.23784345611E+02  0.19943835074E+03  0.20095923589E+03  0.25500000000E-02 0. -1.
         -2    1    1    2  502    0 -0.65775103595E+01 -0.23784345611E+02  0.22720152195E+03  0.22853772188E+03  0.25500000000E-02 0. -1.
<mgrwt>
<rscale>  0 0.49457616E+02</rscale>
<asrwt>0</asrwt>
<pdfrwt beam="1">  1        2 0.65856686E-01 0.49457616E+02</pdfrwt>
<pdfrwt beam="2">  1       -2 0.21977575E-03 0.49457616E+02</pdfrwt>
<totfact> 0.98176597E+05</totfact>
</mgrwt>
</event>
<event>
 4    1  0.4635140E-002  0.4071613E+02  0.7818608E-02  0.1503007E+00
         -2   -1    0    0  501    0 -0.00000000000E+00  0.00000000000E+00  0.20441497920E+02  0.20441498079E+02  0.25500000000E-02 0.  1.
          2   -1    0    0    0  501  0.00000000000E+00 -0.00000000000E+00 -0.20274973361E+02  0.20274973522E+02  0.25500000000E-02 0.  1.
          2    1    1    2    0  502 -0.93171342795E+01  0.17826895803E+02 -0.30542184431E+01  0.20345403952E+02  0.25500000000E-02 0. -1.
         -2    1    1    2  502    0  0.93171342795E+01 -0.17826895803E+02  0.32207430014E+01  0.20371067649E+02  0.25500000000E-02 0. -1.
<mgrwt>
<rscale>  0 0.40716131E+02</rscale>
<asrwt>0</asrwt>
<pdfrwt beam="2">  1        2 0.31192267E-02 0.40716131E+02</pdfrwt>
<pdfrwt beam="1">  1       -2 0.31448459E-02 0.40716131E+02</pdfrwt>
<totfact> 0.75468361E+05</totfact>
</mgrwt>
</event>
<event>
 4    1  0.4635140E-002  0.4456433E+02  0.7818608E-02  0.1477080E+00
         -2   -1    0    0  501    0 -0.00000000000E+00  0.00000000000E+00  0.13102143288E+04  0.13102143288E+04  0.25500000000E-02 0.  1.
          2   -1    0    0    0  501  0.00000000000E+00 -0.00000000000E+00 -0.37893747935E+00  0.37894605916E+00  0.25500000000E-02 0.  1.
          2    1    1    2    0  502  0.17592357390E+02  0.12532406149E+02  0.81584359123E+03  0.81612947355E+03  0.25500000000E-02 0.  1.
         -2    1    1    2  502    0 -0.17592357390E+02 -0.12532406149E+02  0.49399180007E+03  0.49446380129E+03  0.25500000000E-02 0.  1.
<mgrwt>
<rscale>  0 0.44564333E+02</rscale>
<asrwt>0</asrwt>
<pdfrwt beam="2">  1        2 0.58298427E-04 0.44564333E+02</pdfrwt>
<pdfrwt beam="1">  1       -2 0.20157250E+00 0.44564333E+02</pdfrwt>
<totfact> 0.79798677E+04</totfact>
</mgrwt>
</event>
<event>
 4    1  0.4635140E-002  0.4527448E+02  0.7818608E-02  0.1472635E+00
          2   -1    0    0    0  501  0.00000000000E+00  0.00000000000E+00  0.12038393815E+03  0.12038393817E+03  0.25500000000E-02 0.  1.
         -2   -1    0    0  501    0 -0.00000000000E+00 -0.00000000000E+00 -0.42567512607E+01  0.42567520245E+01  0.25500000000E-02 0.  1.
          2    1    1    2    0  502 -0.16475133149E+02 -0.15044242560E+02  0.47513714244E+02  0.52491068710E+02  0.25500000000E-02 0.  1.
         -2    1    1    2  502    0  0.16475133149E+02  0.15044242560E+02  0.68613472643E+02  0.72149621490E+02  0.25500000000E-02 0.  1.
<mgrwt>
<rscale>  0 0.45274475E+02</rscale>
<asrwt>0</asrwt>
<pdfrwt beam="1">  1        2 0.18520605E-01 0.45274475E+02</pdfrwt>
<pdfrwt beam="2">  1       -2 0.65488492E-03 0.45274475E+02</pdfrwt>
<totfact> 0.80753455E+05</totfact>
</mgrwt>
</event>
<event>
 4    1  0.4635140E-002  0.6644815E+02  0.7818608E-02  0.1372605E+00
         -2   -1    0    0  501    0 -0.00000000000E+00  0.00000000000E+00  0.89435832420E+01  0.89435836055E+01  0.25500000000E-02 0.  1.
          2   -1    0    0    0  501  0.00000000000E+00 -0.00000000000E+00 -0.12342246832E+03  0.12342246835E+03  0.25500000000E-02 0.  1.
          2    1    1    2    0  502  0.29369778648E+02  0.49654092763E+01 -0.27922214729E+02  0.40827555266E+02  0.25500000000E-02 0. -1.
         -2    1    1    2  502    0 -0.29369778648E+02 -0.49654092763E+01 -0.86556670350E+02  0.91538496687E+02  0.25500000000E-02 0. -1.
<mgrwt>
<rscale>  0 0.66448150E+02</rscale>
<asrwt>0</asrwt>
<pdfrwt beam="2">  1        2 0.18988071E-01 0.66448150E+02</pdfrwt>
<pdfrwt beam="1">  1       -2 0.13759360E-02 0.66448150E+02</pdfrwt>
<totfact> 0.30526249E+05</totfact>
</mgrwt>
</event>
<event>
 4    1  0.4635140E-002  0.5609629E+02  0.7818608E-02  0.1414984E+00
          2   -1    0    0    0  501  0.00000000000E+00  0.00000000000E+00  0.10324316657E+02  0.10324316971E+02  0.25500000000E-02 0. -1.
         -2   -1    0    0  501    0 -0.00000000000E+00 -0.00000000000E+00 -0.76198607290E+02  0.76198607333E+02  0.25500000000E-02 0. -1.
          2    1    1    2    0  502  0.21520646868E+02 -0.17981404259E+02 -0.33675919005E+02  0.43823928031E+02  0.25500000000E-02 0.  1.
         -2    1    1    2  502    0 -0.21520646868E+02  0.17981404259E+02 -0.32198371628E+02  0.42698996273E+02  0.25500000000E-02 0.  1.
<mgrwt>
<rscale>  0 0.56096295E+02</rscale>
<asrwt>0</asrwt>
<pdfrwt beam="1">  1        2 0.15883565E-02 0.56096295E+02</pdfrwt>
<pdfrwt beam="2">  1       -2 0.11722862E-01 0.56096295E+02</pdfrwt>
<totfact> 0.28408906E+05</totfact>
</mgrwt>
</event>
<event>
 4    1  0.4635140E-002  0.1531086E+03  0.7818608E-02  0.1196704E+00
          2   -1    0    0    0  501  0.00000000000E+00  0.00000000000E+00  0.22783150755E+04  0.22783150755E+04  0.25500000000E-02 0. -1.
         -2   -1    0    0  501    0 -0.00000000000E+00 -0.00000000000E+00 -0.25723219534E+01  0.25723232173E+01  0.25500000000E-02 0. -1.
          2    1    1    2    0  502 -0.45968173654E+02  0.18772807709E+02  0.20058891359E+04  0.20065036050E+04  0.25500000000E-02 0. -1.
         -2    1    1    2  502    0  0.45968173654E+02 -0.18772807709E+02  0.26985361758E+03  0.27438379366E+03  0.25500000000E-02 0. -1.
<mgrwt>
<rscale>  0 0.15310861E+03</rscale>
<asrwt>0</asrwt>
<pdfrwt beam="1">  1        2 0.35051024E+00 0.15310861E+03</pdfrwt>
<pdfrwt beam="2">  1       -2 0.39574168E-03 0.15310861E+03</pdfrwt>
<totfact> 0.41742754E+04</totfact>
</mgrwt>
</event>
<event>
 4    1  0.4635140E-002  0.4661044E+02  0.7818608E-02  0.1464531E+00
          2   -1    0    0    0  501  0.00000000000E+00  0.00000000000E+00  0.77448316643E+03  0.77448316643E+03  0.25500000000E-02 0.  1.
         -2   -1    0    0  501    0 -0.00000000000E+00 -0.00000000000E+00 -0.70128244292E+00  0.70128707905E+00  0.25500000000E-02 0.  1.
          2    1    1    2    0  502  0.70663395449E+01  0.19078467971E+02  0.57593957091E+03  0.57629880309E+03  0.25500000000E-02 0. -1.
         -2    1    1    2  502    0 -0.70663395449E+01 -0.19078467971E+02  0.19784231307E+03  0.19888565042E+03  0.25500000000E-02 0. -1.
<mgrwt>
<rscale>  0 0.46610439E+02</rscale>
<asrwt>0</asrwt>
<pdfrwt beam="1">  1        2 0.11915127E+00 0.46610439E+02</pdfrwt>
<pdfrwt beam="2">  1       -2 0.10788996E-03 0.46610439E+02</pdfrwt>
<totfact> 0.13347437E+06</totfact>
</mgrwt>
</event>
<event>
 4    1  0.4635140E-002  0.5287812E+02  0.7818608E-02  0.1430408E+00
          2   -1    0    0    0  501  0.00000000000E+00  0.00000000000E+00  0.31341591324E+02  0.31341591428E+02  0.25500000000E-02 0. -1.
         -2   -1    0    0  501    0 -0.00000000000E+00 -0.00000000000E+00 -0.22303396790E+02  0.22303396936E+02  0.25500000000E-02 0. -1.
          2    1    1    2    0  502 -0.66112612483E+01 -0.24622503360E+02  0.11624056182E+02  0.28019549168E+02  0.25500000000E-02 0. -1.
         -2    1    1    2  502    0  0.66112612483E+01  0.24622503360E+02 -0.25858616469E+01  0.25625439195E+02  0.25500000000E-02 0. -1.
<mgrwt>
<rscale>  0 0.52878122E+02</rscale>
<asrwt>0</asrwt>
<pdfrwt beam="1">  1        2 0.48217833E-02 0.52878122E+02</pdfrwt>
<pdfrwt beam="2">  1       -2 0.34312918E-02 0.52878122E+02</pdfrwt>
<totfact> 0.40816985E+05</totfact>
</mgrwt>
</event>
<event>
 4    1  0.4635140E-002  0.7888391E+02  0.7818608E-02  0.1332249E+00
         -2   -1    0    0  501    0 -0.00000000000E+00  0.00000000000E+00  0.10294857360E+01  0.10294888941E+01  0.25500000000E-02 0.  1.
          2   -1    0    0    0  501  0.00000000000E+00 -0.00000000000E+00 -0.15111090956E+04  0.15111090956E+04  0.25500000000E-02 0.  1.
          2    1    1    2    0  502  0.54706506054E+01  0.33205449966E+02 -0.36072411457E+03  0.36229051432E+03  0.25500000000E-02 0.  1.
         -2    1    1    2  502    0 -0.54706506054E+01 -0.33205449966E+02 -0.11493554953E+04  0.11498480702E+04  0.25500000000E-02 0.  1.
<mgrwt>
<rscale>  0 0.78883906E+02</rscale>
<asrwt>0</asrwt>
<pdfrwt beam="2">  1        2 0.23247655E+00 0.78883906E+02</pdfrwt>
<pdfrwt beam="1">  1       -2 0.15838387E-03 0.78883906E+02</pdfrwt>
<totfact> 0.34371362E+05</totfact>
</mgrwt>
</event>
<event>
 4    1  0.4635140E-002  0.4954209E+02  0.7818608E-02  0.1447827E+00
         -2   -1    0    0  501    0 -0.00000000000E+00  0.00000000000E+00  0.89616942827E+01  0.89616946455E+01  0.25500000000E-02 0.  1.
          2   -1    0    0    0  501  0.00000000000E+00 -0.00000000000E+00 -0.68469706337E+02  0.68469706384E+02  0.25500000000E-02 0.  1.
          2    1    1    2    0  502  0.39904191014E+00 -0.22773937574E+02 -0.44971082594E+02  0.50410413044E+02  0.25500000000E-02 0.  1.
         -2    1    1    2  502    0 -0.39904191014E+00  0.22773937574E+02 -0.14536929460E+02  0.27020987986E+02  0.25500000000E-02 0.  1.
<mgrwt>
<rscale>  0 0.49542087E+02</rscale>
<asrwt>0</asrwt>
<pdfrwt beam="2">  1        2 0.10533801E-01 0.49542087E+02</pdfrwt>
<pdfrwt beam="1">  1       -2 0.13787223E-02 0.49542087E+02</pdfrwt>
<totfact> 0.55990847E+05</totfact>
</mgrwt>
</event>
<event>
 4    1  0.4635140E-002  0.4748149E+02  0.7818608E-02  0.1459419E+00
         -2   -1    0    0  501    0 -0.00000000000E+00  0.00000000000E+00  0.19979620264E+01  0.19979636537E+01  0.25500000000E-02 0. -1.
          2   -1    0    0    0  501  0.00000000000E+00 -0.00000000000E+00 -0.28209880023E+03  0.28209880025E+03  0.25500000000E-02 0. -1.
          2    1    1    2    0  502  0.75532548977E+01 -0.19282420073E+02 -0.70592508277E+02  0.73567422239E+02  0.25500000000E-02 0.  1.
         -2    1    1    2  502    0 -0.75532548977E+01  0.19282420073E+02 -0.20950832993E+03  0.21052934166E+03  0.25500000000E-02 0.  1.
<mgrwt>
<rscale>  0 0.47481488E+02</rscale>
<asrwt>0</asrwt>
<pdfrwt beam="2">  1        2 0.43399784E-01 0.47481488E+02</pdfrwt>
<pdfrwt beam="1">  1       -2 0.30737912E-03 0.47481488E+02</pdfrwt>
<totfact> 0.94136332E+05</totfact>
</mgrwt>
</event>
<event>
 4    1  0.4635140E-002  0.1099616E+03  0.7818608E-02  0.1260641E+00
         -2   -1    0    0  501    0 -0.00000000000E+00  0.00000000000E+00  0.76852804206E+01  0.76852808436E+01  0.25500000000E-02 0. -1.
          2   -1    0    0    0  501  0.00000000000E+00 -0.00000000000E+00 -0.39333464015E+03  0.39333464016E+03  0.25500000000E-02 0. -1.
          2    1    1    2    0  502 -0.27233101490E+02  0.47100955821E+01 -0.36616073048E+03  0.36720227038E+03  0.25500000000E-02 0.  1.
         -2    1    1    2  502    0  0.27233101490E+02 -0.47100955821E+01 -0.19488629244E+02  0.33817650621E+02  0.25500000000E-02 0.  1.
<mgrwt>
<rscale>  0 0.10996158E+03</rscale>
<asrwt>0</asrwt>
<pdfrwt beam="2">  1        2 0.60513006E-01 0.10996158E+03</pdfrwt>
<pdfrwt beam="1">  1       -2 0.11823512E-02 0.10996158E+03</pdfrwt>
<totfact> 0.12004404E+05</totfact>
</mgrwt>
</event>
<event>
 4    1  0.4635140E-002  0.4693147E+02  0.7818608E-02  0.1462632E+00
          2   -1    0    0    0  501  0.00000000000E+00  0.00000000000E+00  0.13623779486E+04  0.13623779486E+04  0.25500000000E-02 0.  1.
         -2   -1    0    0  501    0 -0.00000000000E+00 -0.00000000000E+00 -0.40417219641E+00  0.40418024055E+00  0.25500000000E-02 0.  1.
          2    1    1    2    0  502  0.17864506609E+02 -0.15208528338E+02  0.66797379981E+03  0.66838569491E+03  0.25500000000E-02 0. -1.
         -2    1    1    2  502    0 -0.17864506609E+02  0.15208528338E+02  0.69399997657E+03  0.69439643390E+03  0.25500000000E-02 0. -1.
<mgrwt>
<rscale>  0 0.46931472E+02</rscale>
<asrwt>0</asrwt>
<pdfrwt beam="1">  1        2 0.20960098E+00 0.46931472E+02</pdfrwt>
<pdfrwt beam="2">  1       -2 0.62179660E-04 0.46931472E+02</pdfrwt>
<totfact> 0.13185123E+06</totfact>
</mgrwt>
</event>
<event>
 4    1  0.4635140E-002  0.5172373E+02  0.7818608E-02  0.1436260E+00
          2   -1    0    0    0  501  0.00000000000E+00  0.00000000000E+00  0.85363619134E+01  0.85363622943E+01  0.25500000000E-02 0. -1.
         -2   -1    0    0  501    0 -0.00000000000E+00 -0.00000000000E+00 -0.78351416266E+02  0.78351416308E+02  0.25500000000E-02 0. -1.
          2    1    1    2    0  502  0.10325528694E+02 -0.23633228581E+02 -0.31680643520E+02  0.40851061386E+02  0.25500000000E-02 0. -1.
         -2    1    1    2  502    0 -0.10325528694E+02  0.23633228581E+02 -0.38134410832E+02  0.46036717216E+02  0.25500000000E-02 0. -1.
<mgrwt>
<rscale>  0 0.51723730E+02</rscale>
<asrwt>0</asrwt>
<pdfrwt beam="1">  1        2 0.13132865E-02 0.51723730E+02</pdfrwt>
<pdfrwt beam="2">  1       -2 0.12054064E-01 0.51723730E+02</pdfrwt>
<totfact> 0.34419420E+05</totfact>
</mgrwt>
</event>
<event>
 4    1  0.4635140E-002  0.4752224E+02  0.7818608E-02  0.1459183E+00
          2   -1    0    0    0  501  0.00000000000E+00  0.00000000000E+00  0.60466284122E+03  0.60466284123E+03  0.25500000000E-02 0. -1.
         -2   -1    0    0  501    0 -0.00000000000E+00 -0.00000000000E+00 -0.93372655126E+00  0.93373003326E+00  0.25500000000E-02 0. -1.
          2    1    1    2    0  502  0.16580280572E+02 -0.15624502100E+02  0.21584870284E+03  0.21704767516E+03  0.25500000000E-02 0.  1.
         -2    1    1    2  502    0 -0.16580280572E+02  0.15624502100E+02  0.38788041183E+03  0.38854889610E+03  0.25500000000E-02 0.  1.
<mgrwt>
<rscale>  0 0.47522239E+02</rscale>
<asrwt>0</asrwt>
<pdfrwt beam="1">  1        2 0.93024991E-01 0.47522239E+02</pdfrwt>
<pdfrwt beam="2">  1       -2 0.14365060E-03 0.47522239E+02</pdfrwt>
<totfact> 0.12028963E+06</totfact>
</mgrwt>
</event>
<event>
 4    1  0.4635140E-002  0.6766968E+02  0.7818608E-02  0.1368202E+00
         -2   -1    0    0  501    0 -0.00000000000E+00  0.00000000000E+00  0.77205008756E+00  0.77205429873E+00  0.25500000000E-02 0.  1.
          2   -1    0    0    0  501  0.00000000000E+00 -0.00000000000E+00 -0.14827965823E+04  0.14827965823E+04  0.25500000000E-02 0.  1.
          2    1    1    2    0  502 -0.41311838109E+01 -0.24787154015E+02 -0.12377308873E+04  0.12379859527E+04  0.25500000000E-02 0.  1.
         -2    1    1    2  502    0  0.41311838109E+01  0.24787154015E+02 -0.24429364486E+03  0.24558268385E+03  0.25500000000E-02 0.  1.
<mgrwt>
<rscale>  0 0.67669679E+02</rscale>
<asrwt>0</asrwt>
<pdfrwt beam="2">  1        2 0.22812027E+00 0.67669679E+02</pdfrwt>
<pdfrwt beam="1">  1       -2 0.11877845E-03 0.67669679E+02</pdfrwt>
<totfact> 0.51388232E+05</totfact>
</mgrwt>
</event>
<event>
 4    1  0.4635140E-002  0.6701708E+02  0.7818608E-02  0.1370541E+00
         -2   -1    0    0  501    0 -0.00000000000E+00  0.00000000000E+00  0.20755278906E+03  0.20755278908E+03  0.25500000000E-02 0.  1.
          2   -1    0    0    0  501  0.00000000000E+00 -0.00000000000E+00 -0.54098156928E+01  0.54098162938E+01  0.25500000000E-02 0.  1.
          2    1    1    2    0  502 -0.26381430932E+02  0.82108869140E+00  0.16667217518E+03  0.16874912762E+03  0.25500000000E-02 0.  1.
         -2    1    1    2  502    0  0.26381430932E+02 -0.82108869140E+00  0.35470798185E+02  0.44213477753E+02  0.25500000000E-02 0.  1.
<mgrwt>
<rscale>  0 0.67017084E+02</rscale>
<asrwt>0</asrwt>
<pdfrwt beam="2">  1        2 0.83227951E-03 0.67017084E+02</pdfrwt>
<pdfrwt beam="1">  1       -2 0.31931194E-01 0.67017084E+02</pdfrwt>
<totfact> 0.13393235E+05</totfact>
</mgrwt>
</event>
<event>
 4    1  0.4635140E-002  0.4624626E+02  0.7818608E-02  0.1466708E+00
          2   -1    0    0    0  501  0.00000000000E+00  0.00000000000E+00  0.40770945064E+03  0.40770945064E+03  0.25500000000E-02 0. -1.
         -2   -1    0    0  501    0 -0.00000000000E+00 -0.00000000000E+00 -0.13114209470E+01  0.13114234261E+01  0.25500000000E-02 0. -1.
          2    1    1    2    0  502 -0.15931352550E+02 -0.16271105500E+02  0.16768637437E+03  0.16922552119E+03  0.25500000000E-02 0.  1.
         -2    1    1    2  502    0  0.15931352550E+02  0.16271105500E+02  0.23871165532E+03  0.23979535288E+03  0.25500000000E-02 0.  1.
<mgrwt>
<rscale>  0 0.46246264E+02</rscale>
<asrwt>0</asrwt>
<pdfrwt beam="1">  1        2 0.62724454E-01 0.46246264E+02</pdfrwt>
<pdfrwt beam="2">  1       -2 0.20175751E-03 0.46246264E+02</pdfrwt>
<totfact> 0.11398846E+06</totfact>
</mgrwt>
</event>
<event>
 4    1  0.4635140E-002  0.2706654E+03  0.7818608E-02  0.1100899E+00
         -2   -1    0    0  501    0 -0.00000000000E+00  0.00000000000E+00  0.58947827358E+02  0.58947827413E+02  0.25500000000E-02 0. -1.
          2   -1    0    0    0  501  0.00000000000E+00 -0.00000000000E+00 -0.31069756030E+03  0.31069756031E+03  0.25500000000E-02 0. -1.
          2    1    1    2    0  502 -0.55743921643E+02 -0.12128314330E+03 -0.15635030201E+03  0.20557821527E+03  0.25500000000E-02 0. -1.
         -2    1    1    2  502    0  0.55743921643E+02  0.12128314330E+03 -0.95399430928E+02  0.16406717245E+03  0.25500000000E-02 0. -1.
<mgrwt>
<rscale>  0 0.27066545E+03</rscale>
<asrwt>0</asrwt>
<pdfrwt beam="2">  1        2 0.47799624E-01 0.27066545E+03</pdfrwt>
<pdfrwt beam="1">  1       -2 0.90688967E-02 0.27066545E+03</pdfrwt>
<totfact> 0.80932267E+03</totfact>
</mgrwt>
</event>
<event>
 4    1  0.4635140E-002  0.6089699E+02  0.7818608E-02  0.1394106E+00
         -2   -1    0    0  501    0 -0.00000000000E+00  0.00000000000E+00  0.78827795620E+01  0.78827799744E+01  0.25500000000E-02 0.  1.
          2   -1    0    0    0  501  0.00000000000E+00 -0.00000000000E+00 -0.11761216717E+03  0.11761216720E+03  0.25500000000E-02 0.  1.
          2    1    1    2    0  502 -0.27502017531E+02  0.13038960595E+02 -0.56631856765E+02  0.64292633084E+02  0.25500000000E-02 0.  1.
         -2    1    1    2  502    0  0.27502017531E+02 -0.13038960595E+02 -0.53097530846E+02  0.61202314091E+02  0.25500000000E-02 0.  1.
<mgrwt>
<rscale>  0 0.60896989E+02</rscale>
<asrwt>0</asrwt>
<pdfrwt beam="2">  1        2 0.18094178E-01 0.60896989E+02</pdfrwt>
<pdfrwt beam="1">  1       -2 0.12127354E-02 0.60896989E+02</pdfrwt>
<totfact> 0.37774702E+05</totfact>
</mgrwt>
</event>
<event>
 4    1  0.4635140E-002  0.6003021E+02  0.7818608E-02  0.1397705E+00
         -2   -1    0    0  501    0 -0.00000000000E+00  0.00000000000E+00  0.46355212478E+01  0.46355219492E+01  0.25500000000E-02 0.  1.
          2   -1    0    0    0  501  0.00000000000E+00 -0.00000000000E+00 -0.19434845210E+03  0.19434845212E+03  0.25500000000E-02 0.  1.
          2    1    1    2    0  502  0.15244105210E+02 -0.20737650353E+02 -0.14604449030E+03  0.14829506411E+03  0.25500000000E-02 0. -1.
         -2    1    1    2  502    0 -0.15244105210E+02  0.20737650353E+02 -0.43668440553E+02  0.50688909957E+02  0.25500000000E-02 0. -1.
<mgrwt>
<rscale>  0 0.60030207E+02</rscale>
<asrwt>0</asrwt>
<pdfrwt beam="2">  1        2 0.29899756E-01 0.60030207E+02</pdfrwt>
<pdfrwt beam="1">  1       -2 0.71315732E-03 0.60030207E+02</pdfrwt>
<totfact> 0.45891687E+05</totfact>
</mgrwt>
</event>
<event>
 4    1  0.4635140E-002  0.6255934E+02  0.7818608E-02  0.1387395E+00
         -2   -1    0    0  501    0 -0.00000000000E+00  0.00000000000E+00  0.22811134670E+01  0.22811148923E+01  0.25500000000E-02 0.  1.
          2   -1    0    0    0  501  0.00000000000E+00 -0.00000000000E+00 -0.42892097904E+03  0.42892097905E+03  0.25500000000E-02 0.  1.
          2    1    1    2    0  502 -0.20560090870E+02 -0.23442706826E+02 -0.23039918274E+03  0.23249959409E+03  0.25500000000E-02 0.  1.
         -2    1    1    2  502    0  0.20560090870E+02  0.23442706826E+02 -0.19624068284E+03  0.19870249985E+03  0.25500000000E-02 0.  1.
<mgrwt>
<rscale>  0 0.62559339E+02</rscale>
<asrwt>0</asrwt>
<pdfrwt beam="2">  1        2 0.65987779E-01 0.62559339E+02</pdfrwt>
<pdfrwt beam="1">  1       -2 0.35094098E-03 0.62559339E+02</pdfrwt>
<totfact> 0.54459971E+05</totfact>
</mgrwt>
</event>
<event>
 4    1  0.4635140E-002  0.5236163E+02  0.7818608E-02  0.1433004E+00
          2   -1    0    0    0  501  0.00000000000E+00  0.00000000000E+00  0.14116666358E+04  0.14116666358E+04  0.25500000000E-02 0. -1.
         -2   -1    0    0  501    0 -0.00000000000E+00 -0.00000000000E+00 -0.48554698088E+00  0.48555367689E+00  0.25500000000E-02 0. -1.
          2    1    1    2    0  502  0.15511815180E+01  0.24416774964E+02  0.45425521071E+03  0.45491359787E+03  0.25500000000E-02 0. -1.
         -2    1    1    2  502    0 -0.15511815180E+01 -0.24416774964E+02  0.95692587815E+03  0.95723859165E+03  0.25500000000E-02 0. -1.
<mgrwt>
<rscale>  0 0.52361635E+02</rscale>
<asrwt>0</asrwt>
<pdfrwt beam="1">  1        2 0.21717616E+00 0.52361635E+02</pdfrwt>
<pdfrwt beam="2">  1       -2 0.74701193E-04 0.52361635E+02</pdfrwt>
<totfact> 0.99657495E+05</totfact>
</mgrwt>
</event>
<event>
 4    1  0.4635140E-002  0.1172254E+03  0.7818608E-02  0.1247746E+00
          2   -1    0    0    0  501  0.00000000000E+00  0.00000000000E+00  0.43617200479E+03  0.43617200479E+03  0.25500000000E-02 0. -1.
         -2   -1    0    0  501    0 -0.00000000000E+00 -0.00000000000E+00 -0.78763603467E+01  0.78763607595E+01  0.25500000000E-02 0. -1.
          2    1    1    2    0  502  0.32176175781E+01  0.52829961140E+02  0.11876194398E+03  0.13002214119E+03  0.25500000000E-02 0. -1.
         -2    1    1    2  502    0 -0.32176175781E+01 -0.52829961140E+02  0.30953370046E+03  0.31402622436E+03  0.25500000000E-02 0. -1.
<mgrwt>
<rscale>  0 0.11722539E+03</rscale>
<asrwt>0</asrwt>
<pdfrwt beam="1">  1        2 0.67103366E-01 0.11722539E+03</pdfrwt>
<pdfrwt beam="2">  1       -2 0.12117481E-02 0.11722539E+03</pdfrwt>
<totfact> 0.10474767E+05</totfact>
</mgrwt>
</event>
<event>
 4    1  0.4635140E-002  0.7866020E+02  0.7818608E-02  0.1332897E+00
         -2   -1    0    0  501    0 -0.00000000000E+00  0.00000000000E+00  0.86146839240E+00  0.86147216647E+00  0.25500000000E-02 0.  1.
          2   -1    0    0    0  501  0.00000000000E+00 -0.00000000000E+00 -0.17956010601E+04  0.17956010601E+04  0.25500000000E-02 0.  1.
          2    1    1    2    0  502  0.18057582149E+02  0.32564286013E+02 -0.11865674687E+04  0.11871515770E+04  0.25500000000E-02 0.  1.
         -2    1    1    2  502    0 -0.18057582149E+02 -0.32564286013E+02 -0.60817212308E+03  0.60931095533E+03  0.25500000000E-02 0.  1.
<mgrwt>
<rscale>  0 0.78660205E+02</rscale>
<asrwt>0</asrwt>
<pdfrwt beam="2">  1        2 0.27624332E+00 0.78660205E+02</pdfrwt>
<pdfrwt beam="1">  1       -2 0.13253533E-03 0.78660205E+02</pdfrwt>
<totfact> 0.31615121E+05</totfact>
</mgrwt>
</event>
<event>
 4    1  0.4635140E-002  0.5780388E+02  0.7818608E-02  0.1407286E+00
          2   -1    0    0    0  501  0.00000000000E+00  0.00000000000E+00  0.15831317946E+02  0.15831318151E+02  0.25500000000E-02 0. -1.
         -2   -1    0    0  501    0 -0.00000000000E+00 -0.00000000000E+00 -0.52763905948E+02  0.52763906010E+02  0.25500000000E-02 0. -1.
          2    1    1    2    0  502 -0.17580246110E+02 -0.14556803392E+02  0.25738237330E+01  0.22969330713E+02  0.25500000000E-02 0.  1.
         -2    1    1    2  502    0  0.17580246110E+02  0.14556803392E+02 -0.39506411735E+02  0.45625893449E+02  0.25500000000E-02 0.  1.
<mgrwt>
<rscale>  0 0.57803882E+02</rscale>
<asrwt>0</asrwt>
<pdfrwt beam="1">  1        2 0.24355874E-02 0.57803882E+02</pdfrwt>
<pdfrwt beam="2">  1       -2 0.81175240E-02 0.57803882E+02</pdfrwt>
<totfact> 0.28469324E+05</totfact>
</mgrwt>
</event>
<event>
 4    1  0.4635140E-002  0.1611726E+03  0.7818608E-02  0.1187379E+00
          2   -1    0    0    0  501  0.00000000000E+00  0.00000000000E+00  0.99779986203E+03  0.99779986203E+03  0.25500000000E-02 0. -1.
         -2   -1    0    0  501    0 -0.00000000000E+00 -0.00000000000E+00 -0.65084678407E+01  0.65084683402E+01  0.25500000000E-02 0. -1.
          2    1    1    2    0  502 -0.33618982967E+02 -0.47781859197E+02  0.84151193400E+03  0.84353759676E+03  0.25500000000E-02 0. -1.
         -2    1    1    2  502    0  0.33618982967E+02  0.47781859197E+02  0.14977946019E+03  0.16077073361E+03  0.25500000000E-02 0. -1.
<mgrwt>
<rscale>  0 0.16117256E+03</rscale>
<asrwt>0</asrwt>
<pdfrwt beam="1">  1        2 0.15350769E+00 0.16117256E+03</pdfrwt>
<pdfrwt beam="2">  1       -2 0.10013027E-02 0.16117256E+03</pdfrwt>
<totfact> 0.53488630E+04</totfact>
</mgrwt>
</event>
<event>
 4    1  0.4635140E-002  0.4947017E+02  0.7818608E-02  0.1448220E+00
          2   -1    0    0    0  501  0.00000000000E+00  0.00000000000E+00  0.89394677189E+02  0.89394677225E+02  0.25500000000E-02 0.  1.
         -2   -1    0    0  501    0 -0.00000000000E+00 -0.00000000000E+00 -0.68440795633E+01  0.68440800383E+01  0.25500000000E-02 0.  1.
          2    1    1    2    0  502  0.18876292499E+02  0.11676614170E+02  0.20038754111E+02  0.29903334426E+02  0.25500000000E-02 0.  1.
         -2    1    1    2  502    0 -0.18876292499E+02 -0.11676614170E+02  0.62511843515E+02  0.66335422838E+02  0.25500000000E-02 0.  1.
<mgrwt>
<rscale>  0 0.49470165E+02</rscale>
<asrwt>0</asrwt>
<pdfrwt beam="1">  1        2 0.13753027E-01 0.49470165E+02</pdfrwt>
<pdfrwt beam="2">  1       -2 0.10529354E-02 0.49470165E+02</pdfrwt>
<totfact> 0.59787345E+05</totfact>
</mgrwt>
</event>
<event>
 4    1  0.4635140E-002  0.5732483E+02  0.7818608E-02  0.1409414E+00
         -2   -1    0    0  501    0 -0.00000000000E+00  0.00000000000E+00  0.39420749060E+01  0.39420757308E+01  0.25500000000E-02 0.  1.
          2   -1    0    0    0  501  0.00000000000E+00 -0.00000000000E+00 -0.20840137453E+03  0.20840137455E+03  0.25500000000E-02 0.  1.
          2    1    1    2    0  502  0.20651678148E+02 -0.19699079743E+02 -0.11202192736E+03  0.11560042288E+03  0.25500000000E-02 0.  1.
         -2    1    1    2  502    0 -0.20651678148E+02  0.19699079743E+02 -0.92437372260E+02  0.96743027396E+02  0.25500000000E-02 0.  1.
<mgrwt>
<rscale>  0 0.57324826E+02</rscale>
<asrwt>0</asrwt>
<pdfrwt beam="2">  1        2 0.32061741E-01 0.57324826E+02</pdfrwt>
<pdfrwt beam="1">  1       -2 0.60647329E-03 0.57324826E+02</pdfrwt>
<totfact> 0.52858388E+05</totfact>
</mgrwt>
</event>
<event>
 4    1  0.4635140E-002  0.4985761E+02  0.7818608E-02  0.1446111E+00
         -2   -1    0    0  501    0 -0.00000000000E+00  0.00000000000E+00  0.36523258076E+01  0.36523266978E+01  0.25500000000E-02 0. -1.
          2   -1    0    0    0  501  0.00000000000E+00 -0.00000000000E+00 -0.17015057933E+03  0.17015057935E+03  0.25500000000E-02 0. -1.
          2    1    1    2    0  502 -0.11777306542E+02  0.21198369114E+02 -0.63111829421E+02  0.67610493430E+02  0.25500000000E-02 0.  1.
         -2    1    1    2  502    0  0.11777306542E+02 -0.21198369114E+02 -0.10338642410E+03  0.10619241261E+03  0.25500000000E-02 0.  1.
<mgrwt>
<rscale>  0 0.49857615E+02</rscale>
<asrwt>0</asrwt>
<pdfrwt beam="2">  1        2 0.26177006E-01 0.49857615E+02</pdfrwt>
<pdfrwt beam="1">  1       -2 0.56189648E-03 0.49857615E+02</pdfrwt>
<totfact> 0.70347779E+05</totfact>
</mgrwt>
</event>
<event>
 4    1  0.4635140E-002  0.8113987E+02  0.7818608E-02  0.1325847E+00
         -2   -1    0    0  501    0 -0.00000000000E+00  0.00000000000E+00  0.94528396329E+02  0.94528396364E+02  0.25500000000E-02 0. -1.
          2   -1    0    0    0  501  0.00000000000E+00 -0.00000000000E+00 -0.17411905173E+02  0.17411905360E+02  0.25500000000E-02 0. -1.
          2    1    1    2    0  502  0.10047962759E+01  0.40446927100E+02  0.34429595733E+02  0.53125893839E+02  0.25500000000E-02 0.  1.
         -2    1    1    2  502    0 -0.10047962759E+01 -0.40446927100E+02  0.42686895424E+02  0.58814407884E+02  0.25500000000E-02 0.  1.
<mgrwt>
<rscale>  0 0.81139867E+02</rscale>
<asrwt>0</asrwt>
<pdfrwt beam="2">  1        2 0.26787547E-02 0.81139867E+02</pdfrwt>
<pdfrwt beam="1">  1       -2 0.14542830E-01 0.81139867E+02</pdfrwt>
<totfact> 0.10838276E+05</totfact>
</mgrwt>
</event>
<event>
 4    1  0.4635140E-002  0.6861322E+02  0.7818608E-02  0.1364873E+00
          2   -1    0    0    0  501  0.00000000000E+00  0.00000000000E+00  0.40857269388E+02  0.40857269468E+02  0.25500000000E-02 0. -1.
         -2   -1    0    0  501    0 -0.00000000000E+00 -0.00000000000E+00 -0.28806219095E+02  0.28806219208E+02  0.25500000000E-02 0. -1.
          2    1    1    2    0  502  0.12597634351E+01 -0.32336304126E+02  0.17589328615E+02  0.36832160622E+02  0.25500000000E-02 0.  1.
         -2    1    1    2  502    0 -0.12597634351E+01  0.32336304126E+02 -0.55382783220E+01  0.32831328053E+02  0.25500000000E-02 0.  1.
<mgrwt>
<rscale>  0 0.68613219E+02</rscale>
<asrwt>0</asrwt>
<pdfrwt beam="1">  1        2 0.62857337E-02 0.68613219E+02</pdfrwt>
<pdfrwt beam="2">  1       -2 0.44317261E-02 0.68613219E+02</pdfrwt>
<totfact> 0.21314366E+05</totfact>
</mgrwt>
</event>
<event>
 4    1  0.4635140E-002  0.1870745E+03  0.7818608E-02  0.1161127E+00
         -2   -1    0    0  501    0 -0.00000000000E+00  0.00000000000E+00  0.26179998728E+02  0.26179998852E+02  0.25500000000E-02 0. -1.
          2   -1    0    0    0  501  0.00000000000E+00 -0.00000000000E+00 -0.33419484633E+03  0.33419484634E+03  0.25500000000E-02 0. -1.
          2    1    1    2    0  502 -0.24844375807E+02  0.25851795661E+02  0.12416508371E+02  0.37943748296E+02  0.25500000000E-02 0. -1.
         -2    1    1    2  502    0  0.24844375807E+02 -0.25851795661E+02 -0.32043135597E+03  0.32243109689E+03  0.25500000000E-02 0. -1.
<mgrwt>
<rscale>  0 0.18707454E+03</rscale>
<asrwt>0</asrwt>
<pdfrwt beam="2">  1        2 0.51414589E-01 0.18707454E+03</pdfrwt>
<pdfrwt beam="1">  1       -2 0.40276924E-02 0.18707454E+03</pdfrwt>
<totfact> 0.25386004E+04</totfact>
</mgrwt>
</event>
<event>
 4    1  0.4635140E-002  0.4733023E+02  0.7818608E-02  0.1460298E+00
          2   -1    0    0    0  501  0.00000000000E+00  0.00000000000E+00  0.13723322018E+04  0.13723322018E+04  0.25500000000E-02 0. -1.
         -2   -1    0    0  501    0 -0.00000000000E+00 -0.00000000000E+00 -0.40808797562E+00  0.40809594257E+00  0.25500000000E-02 0. -1.
          2    1    1    2    0  502 -0.65634195531E+01  0.22708054860E+02  0.71907559212E+03  0.71946399592E+03  0.25500000000E-02 0. -1.
         -2    1    1    2  502    0  0.65634195531E+01 -0.22708054860E+02  0.65284852169E+03  0.65327630182E+03  0.25500000000E-02 0. -1.
<mgrwt>
<rscale>  0 0.47330233E+02</rscale>
<asrwt>0</asrwt>
<pdfrwt beam="1">  1        2 0.21112878E+00 0.47330233E+02</pdfrwt>
<pdfrwt beam="2">  1       -2 0.62783155E-04 0.47330233E+02</pdfrwt>
<totfact> 0.12891244E+06</totfact>
</mgrwt>
</event>
<event>
 4    1  0.4635140E-002  0.5746526E+02  0.7818608E-02  0.1408788E+00
          2   -1    0    0    0  501  0.00000000000E+00  0.00000000000E+00  0.21435382265E+01  0.21435397433E+01  0.25500000000E-02 0. -1.
         -2   -1    0    0  501    0 -0.00000000000E+00 -0.00000000000E+00 -0.38514065632E+03  0.38514065633E+03  0.25500000000E-02 0. -1.
          2    1    1    2    0  502  0.22450270853E+02  0.11873917182E+02 -0.10093895835E+03  0.10408495516E+03  0.25500000000E-02 0.  1.
         -2    1    1    2  502    0 -0.22450270853E+02 -0.11873917182E+02 -0.28205815974E+03  0.28319924091E+03  0.25500000000E-02 0.  1.
<mgrwt>
<rscale>  0 0.57465260E+02</rscale>
<asrwt>0</asrwt>
<pdfrwt beam="1">  1        2 0.32977554E-03 0.57465260E+02</pdfrwt>
<pdfrwt beam="2">  1       -2 0.59252354E-01 0.57465260E+02</pdfrwt>
<totfact> 0.14155107E+05</totfact>
</mgrwt>
</event>
<event>
 4    1  0.4635140E-002  0.5121832E+02  0.7818608E-02  0.1438879E+00
         -2   -1    0    0  501    0 -0.00000000000E+00  0.00000000000E+00  0.10617057778E+03  0.10617057781E+03  0.25500000000E-02 0.  1.
          2   -1    0    0    0  501  0.00000000000E+00 -0.00000000000E+00 -0.61771270053E+01  0.61771275317E+01  0.25500000000E-02 0.  1.
          2    1    1    2    0  502  0.19413364178E+02  0.92220888121E+01  0.19452317507E+02  0.28988244060E+02  0.25500000000E-02 0.  1.
         -2    1    1    2  502    0 -0.19413364178E+02 -0.92220888121E+01  0.80541133269E+02  0.83359461284E+02  0.25500000000E-02 0.  1.
<mgrwt>
<rscale>  0 0.51218324E+02</rscale>
<asrwt>0</asrwt>
<pdfrwt beam="2">  1        2 0.95032723E-03 0.51218324E+02</pdfrwt>
<pdfrwt beam="1">  1       -2 0.16333936E-01 0.51218324E+02</pdfrwt>
<totfact> 0.32773421E+05</totfact>
</mgrwt>
</event>
<event>
 4    1  0.4635140E-002  0.4360104E+02  0.7818608E-02  0.1483269E+00
         -2   -1    0    0  501    0 -0.00000000000E+00  0.00000000000E+00  0.32844494894E+01  0.32844504793E+01  0.25500000000E-02 0. -1.
          2   -1    0    0    0  501  0.00000000000E+00 -0.00000000000E+00 -0.14470085030E+03  0.14470085032E+03  0.25500000000E-02 0. -1.
          2    1    1    2    0  502  0.20879957277E+02  0.53002936320E+01 -0.59350980223E+02  0.63139564367E+02  0.25500000000E-02 0. -1.
         -2    1    1    2  502    0 -0.20879957277E+02 -0.53002936320E+01 -0.82065420589E+02  0.84845736437E+02  0.25500000000E-02 0. -1.
<mgrwt>
<rscale>  0 0.43601042E+02</rscale>
<asrwt>0</asrwt>
<pdfrwt beam="2">  1        2 0.22261665E-01 0.43601042E+02</pdfrwt>
<pdfrwt beam="1">  1       -2 0.50530011E-03 0.43601042E+02</pdfrwt>
<totfact> 0.93479080E+05</totfact>
</mgrwt>
</event>
<event>
 4    1  0.4635140E-002  0.6719334E+02  0.7818608E-02  0.1369906E+00
          2   -1    0    0    0  501  0.00000000000E+00  0.00000000000E+00  0.45916317790E+02  0.45916317861E+02  0.25500000000E-02 0.  1.
         -2   -1    0    0  501    0 -0.00000000000E+00 -0.00000000000E+00 -0.24582461580E+02  0.24582461713E+02  0.25500000000E-02 0.  1.
          2    1    1    2    0  502 -0.22992815206E+02 -0.93469561584E+00  0.36349512523E+02  0.43021276994E+02  0.25500000000E-02 0.  1.
         -2    1    1    2  502    0  0.22992815206E+02  0.93469561584E+00 -0.15015656314E+02  0.27477502580E+02  0.25500000000E-02 0.  1.
<mgrwt>
<rscale>  0 0.67193337E+02</rscale>
<asrwt>0</asrwt>
<pdfrwt beam="1">  1        2 0.70640489E-02 0.67193337E+02</pdfrwt>
<pdfrwt beam="2">  1       -2 0.37819172E-02 0.67193337E+02</pdfrwt>
<totfact> 0.23123844E+05</totfact>
</mgrwt>
</event>
<event>
 4    1  0.4635140E-002  0.1234113E+03  0.7818608E-02  0.1237573E+00
         -2   -1    0    0  501    0 -0.00000000000E+00  0.00000000000E+00  0.20714616374E+02  0.20714616531E+02  0.25500000000E-02 0. -1.
          2   -1    0    0    0  501  0.00000000000E+00 -0.00000000000E+00 -0.18381155748E+03  0.18381155750E+03  0.25500000000E-02 0. -1.
          2    1    1    2    0  502 -0.50043102976E+02  0.74872842427E+01 -0.23020348618E+02  0.55590539103E+02  0.25500000000E-02 0. -1.
         -2    1    1    2  502    0  0.50043102976E+02 -0.74872842427E+01 -0.14007659249E+03  0.14893563492E+03  0.25500000000E-02 0. -1.
<mgrwt>
<rscale>  0 0.12341128E+03</rscale>
<asrwt>0</asrwt>
<pdfrwt beam="2">  1        2 0.28278700E-01 0.12341128E+03</pdfrwt>
<pdfrwt beam="1">  1       -2 0.31868642E-02 0.12341128E+03</pdfrwt>
<totfact> 0.65218354E+04</totfact>
</mgrwt>
</event>
<event>
 4    1  0.4635140E-002  0.1010994E+03  0.7818608E-02  0.1278001E+00
         -2   -1    0    0  501    0 -0.00000000000E+00  0.00000000000E+00  0.28384453446E+01  0.28384464900E+01  0.25500000000E-02 0.  1.
          2   -1    0    0    0  501  0.00000000000E+00 -0.00000000000E+00 -0.90023706421E+03  0.90023706422E+03  0.25500000000E-02 0.  1.
          2    1    1    2    0  502 -0.48782128628E+02 -0.11831824312E+02 -0.39541303400E+03  0.39858644684E+03  0.25500000000E-02 0.  1.
         -2    1    1    2  502    0  0.48782128628E+02  0.11831824312E+02 -0.50198558487E+03  0.50448906387E+03  0.25500000000E-02 0.  1.
<mgrwt>
<rscale>  0 0.10109944E+03</rscale>
<asrwt>0</asrwt>
<pdfrwt beam="2">  1        2 0.13849778E+00 0.10109944E+03</pdfrwt>
<pdfrwt beam="1">  1       -2 0.43668471E-03 0.10109944E+03</pdfrwt>
<totfact> 0.18861840E+05</totfact>
</mgrwt>
</event>
<event>
 4    1  0.4635140E-002  0.4876877E+02  0.7818608E-02  0.1452098E+00
          2   -1    0    0    0  501  0.00000000000E+00  0.00000000000E+00  0.33130314566E+03  0.33130314567E+03  0.25500000000E-02 0.  1.
         -2   -1    0    0  501    0 -0.00000000000E+00 -0.00000000000E+00 -0.17947248051E+01  0.17947266166E+01  0.25500000000E-02 0.  1.
          2    1    1    2    0  502 -0.22905522760E+02  0.63612502339E+01  0.20183240523E+03  0.20322757757E+03  0.25500000000E-02 0. -1.
         -2    1    1    2  502    0  0.22905522760E+02 -0.63612502339E+01  0.12767601563E+03  0.12987029472E+03  0.25500000000E-02 0. -1.
<mgrwt>
<rscale>  0 0.48768772E+02</rscale>
<asrwt>0</asrwt>
<pdfrwt beam="1">  1        2 0.50969750E-01 0.48768772E+02</pdfrwt>
<pdfrwt beam="2">  1       -2 0.27611146E-03 0.48768772E+02</pdfrwt>
<totfact> 0.93158152E+05</totfact>
</mgrwt>
</event>
<event>
 4    1  0.4635140E-002  0.7409538E+02  0.7818608E-02  0.1346695E+00
          2   -1    0    0    0  501  0.00000000000E+00  0.00000000000E+00  0.50200778606E+03  0.50200778607E+03  0.25500000000E-02 0. -1.
         -2   -1    0    0  501    0 -0.00000000000E+00 -0.00000000000E+00 -0.27340831042E+01  0.27340842933E+01  0.25500000000E-02 0. -1.
          2    1    1    2    0  502 -0.15892030172E+02 -0.30908671513E+02  0.33704078668E+03  0.33882797182E+03  0.25500000000E-02 0. -1.
         -2    1    1    2  502    0  0.15892030172E+02  0.30908671513E+02  0.16223291628E+03  0.16591389854E+03  0.25500000000E-02 0. -1.
<mgrwt>
<rscale>  0 0.74095379E+02</rscale>
<asrwt>0</asrwt>
<pdfrwt beam="1">  1        2 0.77231960E-01 0.74095379E+02</pdfrwt>
<pdfrwt beam="2">  1       -2 0.42062830E-03 0.74095379E+02</pdfrwt>
<totfact> 0.37139581E+05</totfact>
</mgrwt>
</event>
<event>
 4    1  0.4635140E-002  0.4458904E+02  0.7818608E-02  0.1476924E+00
          2   -1    0    0    0  501  0.00000000000E+00  0.00000000000E+00  0.11648891772E+04  0.11648891772E+04  0.25500000000E-02 0.  1.
         -2   -1    0    0  501    0 -0.00000000000E+00 -0.00000000000E+00 -0.42668544024E+00  0.42669305995E+00  0.25500000000E-02 0.  1.
          2    1    1    2    0  502 -0.11786167881E+02 -0.18924110592E+02  0.58484093515E+03  0.58526571328E+03  0.25500000000E-02 0.  1.
         -2    1    1    2  502    0  0.11786167881E+02  0.18924110592E+02  0.57962155662E+03  0.58005015699E+03  0.25500000000E-02 0.  1.
<mgrwt>
<rscale>  0 0.44589043E+02</rscale>
<asrwt>0</asrwt>
<pdfrwt beam="1">  1        2 0.17921280E+00 0.44589043E+02</pdfrwt>
<pdfrwt beam="2">  1       -2 0.65644836E-04 0.44589043E+02</pdfrwt>
<totfact> 0.15302266E+06</totfact>
</mgrwt>
</event>
<event>
 4    1  0.4635140E-002  0.4559451E+02  0.7818608E-02  0.1470664E+00
          2   -1    0    0    0  501  0.00000000000E+00  0.00000000000E+00  0.64010209122E+03  0.64010209123E+03  0.25500000000E-02 0.  1.
         -2   -1    0    0  501    0 -0.00000000000E+00 -0.00000000000E+00 -0.81192276329E+00  0.81192676766E+00  0.25500000000E-02 0.  1.
          2    1    1    2    0  502 -0.96448190252E+01 -0.18194207630E+02  0.18215882965E+03  0.18331909598E+03  0.25500000000E-02 0. -1.
         -2    1    1    2  502    0  0.96448190252E+01  0.18194207630E+02  0.45713133881E+03  0.45759492201E+03  0.25500000000E-02 0. -1.
<mgrwt>
<rscale>  0 0.45594506E+02</rscale>
<asrwt>0</asrwt>
<pdfrwt beam="1">  1        2 0.98477008E-01 0.45594506E+02</pdfrwt>
<pdfrwt beam="2">  1       -2 0.12491180E-03 0.45594506E+02</pdfrwt>
<totfact> 0.13510417E+06</totfact>
</mgrwt>
</event>
<event>
 4    1  0.4635140E-002  0.4277426E+02  0.7818608E-02  0.1488735E+00
          2   -1    0    0    0  501  0.00000000000E+00  0.00000000000E+00  0.11022589344E+03  0.11022589347E+03  0.25500000000E-02 0. -1.
         -2   -1    0    0  501    0 -0.00000000000E+00 -0.00000000000E+00 -0.41497453143E+01  0.41497460977E+01  0.25500000000E-02 0. -1.
          2    1    1    2    0  502  0.12237469942E+02 -0.16564195763E+02  0.37612181786E+02  0.42881283529E+02  0.25500000000E-02 0. -1.
         -2    1    1    2  502    0 -0.12237469942E+02  0.16564195763E+02  0.68463966338E+02  0.71494356037E+02  0.25500000000E-02 0. -1.
<mgrwt>
<rscale>  0 0.42774265E+02</rscale>
<asrwt>0</asrwt>
<pdfrwt beam="1">  1        2 0.16957831E-01 0.42774265E+02</pdfrwt>
<pdfrwt beam="2">  1       -2 0.63842236E-03 0.42774265E+02</pdfrwt>
<totfact> 0.90807382E+05</totfact>
</mgrwt>
</event>
<event>
 4    1  0.4635140E-002  0.8823155E+02  0.7818608E-02  0.1307192E+00
         -2   -1    0    0  501    0 -0.00000000000E+00  0.00000000000E+00  0.37006583742E+01  0.37006592527E+01  0.25500000000E-02 0.  1.
          2   -1    0    0    0  501  0.00000000000E+00 -0.00000000000E+00 -0.52590678607E+03  0.52590678608E+03  0.25500000000E-02 0.  1.
          2    1    1    2    0  502  0.41222383325E+02  0.15112704199E+02 -0.23526950437E+03  0.23933118979E+03  0.25500000000E-02 0.  1.
         -2    1    1    2  502    0 -0.41222383325E+02 -0.15112704199E+02 -0.28693662333E+03  0.29027625554E+03  0.25500000000E-02 0.  1.
<mgrwt>
<rscale>  0 0.88231550E+02</rscale>
<asrwt>0</asrwt>
<pdfrwt beam="2">  1        2 0.80908677E-01 0.88231550E+02</pdfrwt>
<pdfrwt beam="1">  1       -2 0.56933254E-03 0.88231550E+02</pdfrwt>
<totfact> 0.23883803E+05</totfact>
</mgrwt>
</event>
<event>
 4    1  0.4635140E-002  0.7160956E+02  0.7818608E-02  0.1354704E+00
         -2   -1    0    0  501    0 -0.00000000000E+00  0.00000000000E+00  0.47414135132E+00  0.47414820841E+00  0.25500000000E-02 0.  1.
          2   -1    0    0    0  501  0.00000000000E+00 -0.00000000000E+00 -0.27037783508E+04  0.27037783508E+04  0.25500000000E-02 0.  1.
          2    1    1    2    0  502  0.35543409534E+02 -0.10544811874E+01 -0.11935099610E+04  0.11940395608E+04  0.25500000000E-02 0.  1.
         -2    1    1    2  502    0 -0.35543409534E+02  0.10544811874E+01 -0.15097942485E+04  0.15102129382E+04  0.25500000000E-02 0.  1.
<mgrwt>
<rscale>  0 0.71609563E+02</rscale>
<asrwt>0</asrwt>
<pdfrwt beam="2">  1        2 0.41595356E+00 0.71609563E+02</pdfrwt>
<pdfrwt beam="1">  1       -2 0.72947516E-04 0.71609563E+02</pdfrwt>
<totfact> 0.24349775E+05</totfact>
</mgrwt>
</event>
<event>
 4    1  0.4635140E-002  0.8420350E+02  0.7818608E-02  0.1317529E+00
          2   -1    0    0    0  501  0.00000000000E+00  0.00000000000E+00  0.57039434445E+03  0.57039434445E+03  0.25500000000E-02 0.  1.
         -2   -1    0    0  501    0 -0.00000000000E+00 -0.00000000000E+00 -0.31075994927E+01  0.31076005389E+01  0.25500000000E-02 0.  1.
          2    1    1    2    0  502 -0.18499639742E+02  0.10783821483E+02  0.53053557582E+03  0.53096753639E+03  0.25500000000E-02 0.  1.
         -2    1    1    2  502    0  0.18499639742E+02 -0.10783821483E+02  0.36751169131E+02  0.42534408604E+02  0.25500000000E-02 0.  1.
<mgrwt>
<rscale>  0 0.84203503E+02</rscale>
<asrwt>0</asrwt>
<pdfrwt beam="1">  1        2 0.87752941E-01 0.84203503E+02</pdfrwt>
<pdfrwt beam="2">  1       -2 0.47809250E-03 0.84203503E+02</pdfrwt>
<totfact> 0.27681452E+05</totfact>
</mgrwt>
</event>
<event>
 4    1  0.4635140E-002  0.4185734E+02  0.7818608E-02  0.1494972E+00
         -2   -1    0    0  501    0 -0.00000000000E+00  0.00000000000E+00  0.38999958745E+02  0.38999958829E+02  0.25500000000E-02 0. -1.
          2   -1    0    0    0  501  0.00000000000E+00 -0.00000000000E+00 -0.11231019240E+02  0.11231019530E+02  0.25500000000E-02 0. -1.
          2    1    1    2    0  502 -0.66806526242E+01  0.19800513452E+02  0.12506845111E+02  0.24353903867E+02  0.25500000000E-02 0. -1.
         -2    1    1    2  502    0  0.66806526242E+01 -0.19800513452E+02  0.15262094394E+02  0.25877074491E+02  0.25500000000E-02 0. -1.
<mgrwt>
<rscale>  0 0.41857343E+02</rscale>
<asrwt>0</asrwt>
<pdfrwt beam="2">  1        2 0.17278491E-02 0.41857343E+02</pdfrwt>
<pdfrwt beam="1">  1       -2 0.59999937E-02 0.41857343E+02</pdfrwt>
<totfact> 0.64781749E+05</totfact>
</mgrwt>
</event>
<event>
 4    1  0.4635140E-002  0.4180279E+02  0.7818608E-02  0.1495349E+00
         -2   -1    0    0  501    0 -0.00000000000E+00  0.00000000000E+00  0.41430077975E+00  0.41430862724E+00  0.25500000000E-02 0. -1.
          2   -1    0    0    0  501  0.00000000000E+00 -0.00000000000E+00 -0.10544615439E+04  0.10544615439E+04  0.25500000000E-02 0. -1.
          2    1    1    2    0  502  0.42302280738E+01 -0.20425066356E+02 -0.56078715564E+03  0.56117493895E+03  0.25500000000E-02 0.  1.
         -2    1    1    2  502    0 -0.42302280738E+01  0.20425066356E+02 -0.49326008746E+03  0.49370091356E+03  0.25500000000E-02 0.  1.
<mgrwt>
<rscale>  0 0.41802793E+02</rscale>
<asrwt>0</asrwt>
<pdfrwt beam="2">  1        2 0.16222271E+00 0.41802793E+02</pdfrwt>
<pdfrwt beam="1">  1       -2 0.63740029E-04 0.41802793E+02</pdfrwt>
<totfact> 0.17954190E+06</totfact>
</mgrwt>
</event>
<event>
 4    1  0.4635140E-002  0.5519556E+02  0.7818608E-02  0.1419176E+00
         -2   -1    0    0  501    0 -0.00000000000E+00  0.00000000000E+00  0.25666998639E+02  0.25666998766E+02  0.25500000000E-02 0.  1.
          2   -1    0    0    0  501  0.00000000000E+00 -0.00000000000E+00 -0.29673806198E+02  0.29673806308E+02  0.25500000000E-02 0.  1.
          2    1    1    2    0  502  0.70301181243E+01  0.24477464558E+02 -0.12664761726E+02  0.28442310527E+02  0.25500000000E-02 0.  1.
         -2    1    1    2  502    0 -0.70301181243E+01 -0.24477464558E+02  0.86579541679E+01  0.26898494547E+02  0.25500000000E-02 0.  1.
<mgrwt>
<rscale>  0 0.55195563E+02</rscale>
<asrwt>0</asrwt>
<pdfrwt beam="2">  1        2 0.45652010E-02 0.55195563E+02</pdfrwt>
<pdfrwt beam="1">  1       -2 0.39487690E-02 0.55195563E+02</pdfrwt>
<totfact> 0.36086834E+05</totfact>
</mgrwt>
</event>
<event>
 4    1  0.4635140E-002  0.4129469E+02  0.7818608E-02  0.1498894E+00
         -2   -1    0    0  501    0 -0.00000000000E+00  0.00000000000E+00  0.25086842100E+01  0.25086855060E+01  0.25500000000E-02 0.  1.
          2   -1    0    0    0  501  0.00000000000E+00 -0.00000000000E+00 -0.16993481316E+03  0.16993481318E+03  0.25500000000E-02 0.  1.
          2    1    1    2    0  502  0.18069178157E+02  0.99883488369E+01 -0.84652207740E+02  0.87133567547E+02  0.25500000000E-02 0. -1.
         -2    1    1    2  502    0 -0.18069178157E+02 -0.99883488369E+01 -0.82773921207E+02  0.85309931135E+02  0.25500000000E-02 0. -1.
<mgrwt>
<rscale>  0 0.41294692E+02</rscale>
<asrwt>0</asrwt>
<pdfrwt beam="2">  1        2 0.26143809E-01 0.41294692E+02</pdfrwt>
<pdfrwt beam="1">  1       -2 0.38595165E-03 0.41294692E+02</pdfrwt>
<totfact> 0.11219082E+06</totfact>
</mgrwt>
</event>
<event>
 4    1  0.4635140E-002  0.4442279E+02  0.7818608E-02  0.1477978E+00
          2   -1    0    0    0  501  0.00000000000E+00  0.00000000000E+00  0.20907895878E+04  0.20907895878E+04  0.25500000000E-02 0.  1.
         -2   -1    0    0  501    0 -0.00000000000E+00 -0.00000000000E+00 -0.23595475241E+00  0.23596853113E+00  0.25500000000E-02 0.  1.
          2    1    1    2    0  502 -0.69915418949E+01  0.20934023858E+02  0.92777710651E+03  0.92803958664E+03  0.25500000000E-02 0. -1.
         -2    1    1    2  502    0  0.69915418949E+01 -0.20934023858E+02  0.11627765265E+04  0.11629859697E+04  0.25500000000E-02 0. -1.
<mgrwt>
<rscale>  0 0.44422794E+02</rscale>
<asrwt>0</asrwt>
<pdfrwt beam="1">  1        2 0.32165939E+00 0.44422794E+02</pdfrwt>
<pdfrwt beam="2">  1       -2 0.36301853E-04 0.44422794E+02</pdfrwt>
<totfact> 0.11836207E+06</totfact>
</mgrwt>
</event>
<event>
 4    1  0.4635140E-002  0.7585123E+02  0.7818608E-02  0.1341255E+00
         -2   -1    0    0  501    0 -0.00000000000E+00  0.00000000000E+00  0.62467226489E+01  0.62467231693E+01  0.25500000000E-02 0. -1.
          2   -1    0    0    0  501  0.00000000000E+00 -0.00000000000E+00 -0.23025707161E+03  0.23025707163E+03  0.25500000000E-02 0. -1.
          2    1    1    2    0  502 -0.17108451977E+02 -0.21078924267E+02 -0.29432316217E+02  0.40040996762E+02  0.25500000000E-02 0. -1.
         -2    1    1    2  502    0  0.17108451977E+02  0.21078924267E+02 -0.19457803275E+03  0.19646279803E+03  0.25500000000E-02 0. -1.
<mgrwt>
<rscale>  0 0.75851226E+02</rscale>
<asrwt>0</asrwt>
<pdfrwt beam="2">  1        2 0.35424158E-01 0.75851226E+02</pdfrwt>
<pdfrwt beam="1">  1       -2 0.96103448E-03 0.75851226E+02</pdfrwt>
<totfact> 0.26538684E+05</totfact>
</mgrwt>
</event>
<event>
 4    1  0.4635140E-002  0.5393029E+02  0.7818608E-02  0.1425226E+00
         -2   -1    0    0  501    0 -0.00000000000E+00  0.00000000000E+00  0.11362296845E+01  0.11362325459E+01  0.25500000000E-02 0.  1.
          2   -1    0    0    0  501  0.00000000000E+00 -0.00000000000E+00 -0.63993949496E+03  0.63993949496E+03  0.25500000000E-02 0.  1.
          2    1    1    2    0  502  0.21854502619E+02 -0.15792191049E+02 -0.32328236923E+03  0.32440484405E+03  0.25500000000E-02 0.  1.
         -2    1    1    2  502    0 -0.21854502619E+02  0.15792191049E+02 -0.31552089604E+03  0.31667088346E+03  0.25500000000E-02 0.  1.
<mgrwt>
<rscale>  0 0.53930295E+02</rscale>
<asrwt>0</asrwt>
<pdfrwt beam="2">  1        2 0.98451942E-01 0.53930295E+02</pdfrwt>
<pdfrwt beam="1">  1       -2 0.17480530E-03 0.53930295E+02</pdfrwt>
<totfact> 0.89277260E+05</totfact>
</mgrwt>
</event>
<event>
 4    1  0.4635140E-002  0.1005150E+03  0.7818608E-02  0.1279217E+00
         -2   -1    0    0  501    0 -0.00000000000E+00  0.00000000000E+00  0.35949953025E+03  0.35949953026E+03  0.25500000000E-02 0.  1.
          2   -1    0    0    0  501  0.00000000000E+00 -0.00000000000E+00 -0.70259236907E+01  0.70259241535E+01  0.25500000000E-02 0.  1.
          2    1    1    2    0  502 -0.20293807744E+02 -0.14251845135E+02  0.33563668425E+03  0.33655153772E+03  0.25500000000E-02 0. -1.
         -2    1    1    2  502    0  0.20293807744E+02  0.14251845135E+02  0.16836922313E+02  0.29973916694E+02  0.25500000000E-02 0. -1.
<mgrwt>
<rscale>  0 0.10051500E+03</rscale>
<asrwt>0</asrwt>
<pdfrwt beam="2">  1        2 0.10809111E-02 0.10051500E+03</pdfrwt>
<pdfrwt beam="1">  1       -2 0.55307635E-01 0.10051500E+03</pdfrwt>
<totfact> 0.35565826E+04</totfact>
</mgrwt>
</event>
<event>
 4    1  0.4635140E-002  0.5135057E+02  0.7818608E-02  0.1438190E+00
         -2   -1    0    0  501    0 -0.00000000000E+00  0.00000000000E+00  0.22870796559E+03  0.22870796561E+03  0.25500000000E-02 0. -1.
          2   -1    0    0    0  501  0.00000000000E+00 -0.00000000000E+00 -0.28823661551E+01  0.28823672830E+01  0.25500000000E-02 0. -1.
          2    1    1    2    0  502  0.22825432934E+02  0.42106428386E+01  0.16241804911E+03  0.16406813397E+03  0.25500000000E-02 0.  1.
         -2    1    1    2  502    0 -0.22825432934E+02 -0.42106428386E+01  0.63407550332E+02  0.67522198923E+02  0.25500000000E-02 0.  1.
<mgrwt>
<rscale>  0 0.51350569E+02</rscale>
<asrwt>0</asrwt>
<pdfrwt beam="2">  1        2 0.44344085E-03 0.51350569E+02</pdfrwt>
<pdfrwt beam="1">  1       -2 0.35185855E-01 0.51350569E+02</pdfrwt>
<totfact> 0.24917364E+05</totfact>
</mgrwt>
</event>
<event>
 4    1  0.4635140E-002  0.5981841E+02  0.7818608E-02  0.1398595E+00
         -2   -1    0    0  501    0 -0.00000000000E+00  0.00000000000E+00  0.22670671042E+01  0.22670685383E+01  0.25500000000E-02 0.  1.
          2   -1    0    0    0  501  0.00000000000E+00 -0.00000000000E+00 -0.39458927885E+03  0.39458927886E+03  0.25500000000E-02 0.  1.
          2    1    1    2    0  502  0.29214609731E+02  0.63037344635E+01 -0.20381268291E+03  0.20599233046E+03  0.25500000000E-02 0. -1.
         -2    1    1    2  502    0 -0.29214609731E+02 -0.63037344635E+01 -0.18850952884E+03  0.19086401694E+03  0.25500000000E-02 0. -1.
<mgrwt>
<rscale>  0 0.59818414E+02</rscale>
<asrwt>0</asrwt>
<pdfrwt beam="2">  1        2 0.60705989E-01 0.59818414E+02</pdfrwt>
<pdfrwt beam="1">  1       -2 0.34877998E-03 0.59818414E+02</pdfrwt>
<totfact> 0.59309610E+05</totfact>
</mgrwt>
</event>
<event>
 4    1  0.4635140E-002  0.1165980E+03  0.7818608E-02  0.1248817E+00
         -2   -1    0    0  501    0 -0.00000000000E+00  0.00000000000E+00  0.35795306009E+02  0.35795306100E+02  0.25500000000E-02 0.  1.
          2   -1    0    0    0  501  0.00000000000E+00 -0.00000000000E+00 -0.94950285899E+02  0.94950285934E+02  0.25500000000E-02 0.  1.
          2    1    1    2    0  502 -0.14851721926E+02 -0.48663030445E+02 -0.61493454642E+02  0.79812963524E+02  0.25500000000E-02 0.  1.
         -2    1    1    2  502    0  0.14851721926E+02  0.48663030445E+02  0.23384747516E+01  0.50932628510E+02  0.25500000000E-02 0.  1.
<mgrwt>
<rscale>  0 0.11659802E+03</rscale>
<asrwt>0</asrwt>
<pdfrwt beam="2">  1        2 0.14607736E-01 0.11659802E+03</pdfrwt>
<pdfrwt beam="1">  1       -2 0.55069702E-02 0.11659802E+03</pdfrwt>
<totfact> 0.60438269E+04</totfact>
</mgrwt>
</event>
<event>
 4    1  0.4635140E-002  0.8298966E+02  0.7818608E-02  0.1320775E+00
          2   -1    0    0    0  501  0.00000000000E+00  0.00000000000E+00  0.13517983553E+03  0.13517983555E+03  0.25500000000E-02 0. -1.
         -2   -1    0    0  501    0 -0.00000000000E+00 -0.00000000000E+00 -0.12737261808E+02  0.12737262063E+02  0.25500000000E-02 0. -1.
          2    1    1    2    0  502 -0.37021092622E+02  0.41055234260E+01  0.28627836160E+02  0.46978395367E+02  0.25500000000E-02 0. -1.
         -2    1    1    2  502    0  0.37021092622E+02 -0.41055234260E+01  0.93814737560E+02  0.10093870225E+03  0.25500000000E-02 0. -1.
<mgrwt>
<rscale>  0 0.82989661E+02</rscale>
<asrwt>0</asrwt>
<pdfrwt beam="1">  1        2 0.20796899E-01 0.82989661E+02</pdfrwt>
<pdfrwt beam="2">  1       -2 0.19595787E-02 0.82989661E+02</pdfrwt>
<totfact> 0.17412896E+05</totfact>
</mgrwt>
</event>
<event>
 4    1  0.4635140E-002  0.4667326E+02  0.7818608E-02  0.1464158E+00
          2   -1    0    0    0  501  0.00000000000E+00  0.00000000000E+00  0.65792627032E+03  0.65792627033E+03  0.25500000000E-02 0.  1.
         -2   -1    0    0  501    0 -0.00000000000E+00 -0.00000000000E+00 -0.82774764648E+00  0.82775157430E+00  0.25500000000E-02 0.  1.
          2    1    1    2    0  502 -0.67102802623E+01 -0.20643428459E+02  0.20761202698E+03  0.20874370111E+03  0.25500000000E-02 0. -1.
         -2    1    1    2  502    0  0.67102802623E+01  0.20643428459E+02  0.44948649569E+03  0.45001032079E+03  0.25500000000E-02 0. -1.
<mgrwt>
<rscale>  0 0.46673256E+02</rscale>
<asrwt>0</asrwt>
<pdfrwt beam="1">  1        2 0.10121941E+00 0.46673256E+02</pdfrwt>
<pdfrwt beam="2">  1       -2 0.12734612E-03 0.46673256E+02</pdfrwt>
<totfact> 0.12846404E+06</totfact>
</mgrwt>
</event>
<event>
 4    1  0.4635140E-002  0.5500223E+02  0.7818608E-02  0.1420088E+00
         -2   -1    0    0  501    0 -0.00000000000E+00  0.00000000000E+00  0.30358232283E+01  0.30358242992E+01  0.25500000000E-02 0. -1.
          2   -1    0    0    0  501  0.00000000000E+00 -0.00000000000E+00 -0.24912883055E+03  0.24912883056E+03  0.25500000000E-02 0. -1.
          2    1    1    2    0  502  0.14468849517E+02 -0.22402807273E+02 -0.15382770006E+03  0.15612237089E+03  0.25500000000E-02 0.  1.
         -2    1    1    2  502    0 -0.14468849517E+02  0.22402807273E+02 -0.92265307268E+02  0.96042283978E+02  0.25500000000E-02 0.  1.
<mgrwt>
<rscale>  0 0.55002226E+02</rscale>
<asrwt>0</asrwt>
<pdfrwt beam="2">  1        2 0.38327496E-01 0.55002226E+02</pdfrwt>
<pdfrwt beam="1">  1       -2 0.46705001E-03 0.55002226E+02</pdfrwt>
<totfact> 0.62418484E+05</totfact>
</mgrwt>
</event>
<event>
 4    1  0.4635140E-002  0.4663386E+02  0.7818608E-02  0.1464392E+00
         -2   -1    0    0  501    0 -0.00000000000E+00  0.00000000000E+00  0.34172598639E+00  0.34173550046E+00  0.25500000000E-02 0. -1.
          2   -1    0    0    0  501  0.00000000000E+00 -0.00000000000E+00 -0.15909575759E+04  0.15909575759E+04  0.25500000000E-02 0. -1.
          2    1    1    2    0  502  0.17552680832E+01  0.22978912433E+02 -0.67433756819E+03  0.67473125559E+03  0.25500000000E-02 0.  1.
         -2    1    1    2  502    0 -0.17552680832E+01 -0.22978912433E+02 -0.91627828175E+03  0.91656805584E+03  0.25500000000E-02 0.  1.
<mgrwt>
<rscale>  0 0.46633855E+02</rscale>
<asrwt>0</asrwt>
<pdfrwt beam="2">  1        2 0.24475677E+00 0.46633855E+02</pdfrwt>
<pdfrwt beam="1">  1       -2 0.52575235E-04 0.46633855E+02</pdfrwt>
<totfact> 0.12713744E+06</totfact>
</mgrwt>
</event>
<event>
 4    1  0.4635140E-002  0.4960688E+02  0.7818608E-02  0.1447473E+00
          2   -1    0    0    0  501  0.00000000000E+00  0.00000000000E+00  0.40790485222E+01  0.40790493192E+01  0.25500000000E-02 0. -1.
         -2   -1    0    0  501    0 -0.00000000000E+00 -0.00000000000E+00 -0.15082210161E+03  0.15082210164E+03  0.25500000000E-02 0. -1.
          2    1    1    2    0  502  0.18279528043E+02  0.10280694195E+02 -0.11472375348E+03  0.11662492632E+03  0.25500000000E-02 0. -1.
         -2    1    1    2  502    0 -0.18279528043E+02 -0.10280694195E+02 -0.32019299608E+02  0.38276224637E+02  0.25500000000E-02 0. -1.
<mgrwt>
<rscale>  0 0.49606884E+02</rscale>
<asrwt>0</asrwt>
<pdfrwt beam="1">  1        2 0.62754611E-03 0.49606884E+02</pdfrwt>
<pdfrwt beam="2">  1       -2 0.23203396E-01 0.49606884E+02</pdfrwt>
<totfact> 0.31926989E+05</totfact>
</mgrwt>
</event>
<event>
 4    1  0.4635140E-002  0.5504887E+02  0.7818608E-02  0.1419868E+00
         -2   -1    0    0  501    0 -0.00000000000E+00  0.00000000000E+00  0.46379243359E+00  0.46379944367E+00  0.25500000000E-02 0. -1.
          2   -1    0    0    0  501  0.00000000000E+00 -0.00000000000E+00 -0.16334649335E+04  0.16334649335E+04  0.25500000000E-02 0. -1.
          2    1    1    2    0  502  0.24736341984E+02 -0.11735132751E+02 -0.73257798606E+03  0.73308942539E+03  0.25500000000E-02 0. -1.
         -2    1    1    2  502    0 -0.24736341984E+02  0.11735132751E+02 -0.90042315499E+03  0.90083930754E+03  0.25500000000E-02 0. -1.
<mgrwt>
<rscale>  0 0.55048866E+02</rscale>
<asrwt>0</asrwt>
<pdfrwt beam="2">  1        2 0.25129769E+00 0.55048866E+02</pdfrwt>
<pdfrwt beam="1">  1       -2 0.71354529E-04 0.55048866E+02</pdfrwt>
<totfact> 0.83158296E+05</totfact>
</mgrwt>
</event>
<event>
 4    1  0.4635140E-002  0.1496515E+03  0.7818608E-02  0.1200902E+00
          2   -1    0    0    0  501  0.00000000000E+00  0.00000000000E+00  0.46253913746E+03  0.46253913746E+03  0.25500000000E-02 0.  1.
         -2   -1    0    0  501    0 -0.00000000000E+00 -0.00000000000E+00 -0.12104691910E+02  0.12104692178E+02  0.25500000000E-02 0.  1.
          2    1    1    2    0  502 -0.71563969647E+02 -0.19417354687E+02  0.19342800401E+03  0.20715411692E+03  0.25500000000E-02 0. -1.
         -2    1    1    2  502    0  0.71563969647E+02  0.19417354687E+02  0.25700644154E+03  0.26748971272E+03  0.25500000000E-02 0. -1.
<mgrwt>
<rscale>  0 0.14965151E+03</rscale>
<asrwt>0</asrwt>
<pdfrwt beam="1">  1        2 0.71159871E-01 0.14965151E+03</pdfrwt>
<pdfrwt beam="2">  1       -2 0.18622602E-02 0.14965151E+03</pdfrwt>
<totfact> 0.54534462E+04</totfact>
</mgrwt>
</event>
<event>
 4    1  0.4635140E-002  0.4535906E+02  0.7818608E-02  0.1472112E+00
         -2   -1    0    0  501    0 -0.00000000000E+00  0.00000000000E+00  0.22964954635E+02  0.22964954777E+02  0.25500000000E-02 0.  1.
          2   -1    0    0    0  501  0.00000000000E+00 -0.00000000000E+00 -0.22397653062E+02  0.22397653207E+02  0.25500000000E-02 0.  1.
          2    1    1    2    0  502  0.19107701356E+02 -0.11636072850E+02 -0.34393603358E+01  0.22634744277E+02  0.25500000000E-02 0.  1.
         -2    1    1    2  502    0 -0.19107701356E+02  0.11636072850E+02  0.40066619090E+01  0.22727863706E+02  0.25500000000E-02 0.  1.
<mgrwt>
<rscale>  0 0.45359061E+02</rscale>
<asrwt>0</asrwt>
<pdfrwt beam="2">  1        2 0.34457928E-02 0.45359061E+02</pdfrwt>
<pdfrwt beam="1">  1       -2 0.35330700E-02 0.45359061E+02</pdfrwt>
<totfact> 0.57893953E+05</totfact>
</mgrwt>
</event>
<event>
 4    1  0.4635140E-002  0.1176673E+03  0.7818608E-02  0.1246996E+00
          2   -1    0    0    0  501  0.00000000000E+00  0.00000000000E+00  0.30868219163E+03  0.30868219164E+03  0.25500000000E-02 0. -1.
         -2   -1    0    0  501    0 -0.00000000000E+00 -0.00000000000E+00 -0.11213475592E+02  0.11213475882E+02  0.25500000000E-02 0. -1.
          2    1    1    2    0  502 -0.25011409169E+02 -0.72967097502E+01  0.29214351462E+03  0.29330299300E+03  0.25500000000E-02 0.  1.
         -2    1    1    2  502    0  0.25011409169E+02  0.72967097502E+01  0.53252014232E+01  0.26592674527E+02  0.25500000000E-02 0.  1.
<mgrwt>
<rscale>  0 0.11766733E+03</rscale>
<asrwt>0</asrwt>
<pdfrwt beam="1">  1        2 0.47489575E-01 0.11766733E+03</pdfrwt>
<pdfrwt beam="2">  1       -2 0.17251499E-02 0.11766733E+03</pdfrwt>
<totfact> 0.91052719E+04</totfact>
</mgrwt>
</event>
<event>
 4    1  0.4635140E-002  0.9580124E+02  0.7818608E-02  0.1289382E+00
         -2   -1    0    0  501    0 -0.00000000000E+00  0.00000000000E+00  0.16583100683E+01  0.16583120289E+01  0.25500000000E-02 0. -1.
          2   -1    0    0    0  501  0.00000000000E+00 -0.00000000000E+00 -0.13836181617E+04  0.13836181617E+04  0.25500000000E-02 0. -1.
          2    1    1    2    0  502 -0.89266967977E+01 -0.43571490629E+02 -0.43380962205E+03  0.43608364897E+03  0.25500000000E-02 0. -1.
         -2    1    1    2  502    0  0.89266967977E+01  0.43571490629E+02 -0.94815022959E+03  0.94919282477E+03  0.25500000000E-02 0. -1.
<mgrwt>
<rscale>  0 0.95801238E+02</rscale>
<asrwt>0</asrwt>
<pdfrwt beam="2">  1        2 0.21286341E+00 0.95801238E+02</pdfrwt>
<pdfrwt beam="1">  1       -2 0.25512588E-03 0.95801238E+02</pdfrwt>
<totfact> 0.21253349E+05</totfact>
</mgrwt>
</event>
<event>
 4    1  0.4635140E-002  0.9206486E+02  0.7818608E-02  0.1297927E+00
          2   -1    0    0    0  501  0.00000000000E+00  0.00000000000E+00  0.29434357158E+04  0.29434357158E+04  0.25500000000E-02 0.  1.
         -2   -1    0    0  501    0 -0.00000000000E+00 -0.00000000000E+00 -0.71989947892E+00  0.71990399516E+00  0.25500000000E-02 0.  1.
          2    1    1    2    0  502 -0.46010421798E+02  0.39867486260E+00  0.15150492631E+04  0.15157477981E+04  0.25500000000E-02 0.  1.
         -2    1    1    2  502    0  0.46010421798E+02 -0.39867486260E+00  0.14276665533E+04  0.14284078218E+04  0.25500000000E-02 0.  1.
<mgrwt>
<rscale>  0 0.92064857E+02</rscale>
<asrwt>0</asrwt>
<pdfrwt beam="1">  1        2 0.45284279E+00 0.92064857E+02</pdfrwt>
<pdfrwt beam="2">  1       -2 0.11075252E-03 0.92064857E+02</pdfrwt>
<totfact> 0.10414755E+05</totfact>
</mgrwt>
</event>
<event>
 4    1  0.4635140E-002  0.4149700E+02  0.7818608E-02  0.1497475E+00
          2   -1    0    0    0  501  0.00000000000E+00  0.00000000000E+00  0.13560730348E+02  0.13560730588E+02  0.25500000000E-02 0. -1.
         -2   -1    0    0  501    0 -0.00000000000E+00 -0.00000000000E+00 -0.31746097319E+02  0.31746097422E+02  0.25500000000E-02 0. -1.
          2    1    1    2    0  502  0.10867952099E+02  0.17671959436E+02 -0.94197410236E+01  0.22784689170E+02  0.25500000000E-02 0.  1.
         -2    1    1    2  502    0 -0.10867952099E+02 -0.17671959436E+02 -0.87656259479E+01  0.22522138839E+02  0.25500000000E-02 0.  1.
<mgrwt>
<rscale>  0 0.41497001E+02</rscale>
<asrwt>0</asrwt>
<pdfrwt beam="1">  1        2 0.20862662E-02 0.41497001E+02</pdfrwt>
<pdfrwt beam="2">  1       -2 0.48840150E-02 0.41497001E+02</pdfrwt>
<totfact> 0.68078112E+05</totfact>
</mgrwt>
</event>
<event>
 4    1  0.4635140E-002  0.5585116E+02  0.7818608E-02  0.1416116E+00
         -2   -1    0    0  501    0 -0.00000000000E+00  0.00000000000E+00  0.17385377154E+02  0.17385377341E+02  0.25500000000E-02 0.  1.
          2   -1    0    0    0  501  0.00000000000E+00 -0.00000000000E+00 -0.44855969106E+02  0.44855969178E+02  0.25500000000E-02 0.  1.
          2    1    1    2    0  502 -0.22826648298E+01  0.26645227226E+02 -0.22696412627E+02  0.35075715892E+02  0.25500000000E-02 0.  1.
         -2    1    1    2  502    0  0.22826648298E+01 -0.26645227226E+02 -0.47741793244E+01  0.27165630628E+02  0.25500000000E-02 0.  1.
<mgrwt>
<rscale>  0 0.55851158E+02</rscale>
<asrwt>0</asrwt>
<pdfrwt beam="2">  1        2 0.69009183E-02 0.55851158E+02</pdfrwt>
<pdfrwt beam="1">  1       -2 0.26746734E-02 0.55851158E+02</pdfrwt>
<totfact> 0.37683054E+05</totfact>
</mgrwt>
</event>
<event>
 4    1  0.4635140E-002  0.4701221E+02  0.7818608E-02  0.1462157E+00
          2   -1    0    0    0  501  0.00000000000E+00  0.00000000000E+00  0.27478590231E+03  0.27478590232E+03  0.25500000000E-02 0. -1.
         -2   -1    0    0  501    0 -0.00000000000E+00 -0.00000000000E+00 -0.20107896933E+01  0.20107913102E+01  0.25500000000E-02 0. -1.
          2    1    1    2    0  502  0.14420123972E+02 -0.14959626913E+02  0.71673986825E+02  0.74625001217E+02  0.25500000000E-02 0. -1.
         -2    1    1    2  502    0 -0.14420123972E+02  0.14959626913E+02  0.20110112579E+03  0.20217169242E+03  0.25500000000E-02 0. -1.
<mgrwt>
<rscale>  0 0.47012206E+02</rscale>
<asrwt>0</asrwt>
<pdfrwt beam="1">  1        2 0.42274732E-01 0.47012206E+02</pdfrwt>
<pdfrwt beam="2">  1       -2 0.30935255E-03 0.47012206E+02</pdfrwt>
<totfact> 0.95603851E+05</totfact>
</mgrwt>
</event>
<event>
 4    1  0.4635140E-002  0.4177934E+02  0.7818608E-02  0.1495511E+00
          2   -1    0    0    0  501  0.00000000000E+00  0.00000000000E+00  0.25520328739E+03  0.25520328740E+03  0.25500000000E-02 0. -1.
         -2   -1    0    0  501    0 -0.00000000000E+00 -0.00000000000E+00 -0.17099235850E+01  0.17099254864E+01  0.25500000000E-02 0. -1.
          2    1    1    2    0  502  0.53876028898E+01 -0.20018152982E+02  0.11091821163E+03  0.11283883370E+03  0.25500000000E-02 0. -1.
         -2    1    1    2  502    0 -0.53876028898E+01  0.20018152982E+02  0.14257515218E+03  0.14407437919E+03  0.25500000000E-02 0. -1.
<mgrwt>
<rscale>  0 0.41779343E+02</rscale>
<asrwt>0</asrwt>
<pdfrwt beam="1">  1        2 0.39262036E-01 0.41779343E+02</pdfrwt>
<pdfrwt beam="2">  1       -2 0.26306537E-03 0.41779343E+02</pdfrwt>
<totfact> 0.12454586E+06</totfact>
</mgrwt>
</event>
<event>
 4    1  0.4635140E-002  0.5927721E+02  0.7818608E-02  0.1400890E+00
         -2   -1    0    0  501    0 -0.00000000000E+00  0.00000000000E+00  0.33530005757E+03  0.33530005758E+03  0.25500000000E-02 0.  1.
          2   -1    0    0    0  501  0.00000000000E+00 -0.00000000000E+00 -0.26198823909E+01  0.26198836319E+01  0.25500000000E-02 0.  1.
          2    1    1    2    0  502 -0.28199058470E+02 -0.75616847293E+01  0.13722703549E+03  0.14029834372E+03  0.25500000000E-02 0. -1.
         -2    1    1    2  502    0  0.28199058470E+02  0.75616847293E+01  0.19545313969E+03  0.19762159750E+03  0.25500000000E-02 0. -1.
<mgrwt>
<rscale>  0 0.59277211E+02</rscale>
<asrwt>0</asrwt>
<pdfrwt beam="2">  1        2 0.40305871E-03 0.59277211E+02</pdfrwt>
<pdfrwt beam="1">  1       -2 0.51584652E-01 0.59277211E+02</pdfrwt>
<totfact> 0.14285031E+05</totfact>
</mgrwt>
</event>
<event>
 4    1  0.4635140E-002  0.6071925E+02  0.7818608E-02  0.1394838E+00
          2   -1    0    0    0  501  0.00000000000E+00  0.00000000000E+00  0.79000790222E+01  0.79000794338E+01  0.25500000000E-02 0.  1.
         -2   -1    0    0  501    0 -0.00000000000E+00 -0.00000000000E+00 -0.11667058282E+03  0.11667058285E+03  0.25500000000E-02 0.  1.
          2    1    1    2    0  502  0.13945908459E+01 -0.27293937052E+02 -0.81509878144E+02  0.85969553477E+02  0.25500000000E-02 0. -1.
         -2    1    1    2  502    0 -0.13945908459E+01  0.27293937052E+02 -0.27260625654E+02  0.38601108805E+02  0.25500000000E-02 0. -1.
<mgrwt>
<rscale>  0 0.60719251E+02</rscale>
<asrwt>0</asrwt>
<pdfrwt beam="1">  1        2 0.12153969E-02 0.60719251E+02</pdfrwt>
<pdfrwt beam="2">  1       -2 0.17949319E-01 0.60719251E+02</pdfrwt>
<totfact> 0.21001878E+05</totfact>
</mgrwt>
</event>
<event>
 4    1  0.4635140E-002  0.4480496E+02  0.7818608E-02  0.1475563E+00
          2   -1    0    0    0  501  0.00000000000E+00  0.00000000000E+00  0.18311784178E+01  0.18311801933E+01  0.25500000000E-02 0.  1.
         -2   -1    0    0  501    0 -0.00000000000E+00 -0.00000000000E+00 -0.27406985534E+03  0.27406985535E+03  0.25500000000E-02 0.  1.
          2    1    1    2    0  502 -0.20103022364E+02  0.10354595844E+00 -0.75244394138E+02  0.77883638113E+02  0.25500000000E-02 0.  1.
         -2    1    1    2  502    0  0.20103022364E+02 -0.10354595844E+00 -0.19699428278E+03  0.19801739743E+03  0.25500000000E-02 0.  1.
<mgrwt>
<rscale>  0 0.44804957E+02</rscale>
<asrwt>0</asrwt>
<pdfrwt beam="1">  1        2 0.28172011E-03 0.44804957E+02</pdfrwt>
<pdfrwt beam="2">  1       -2 0.42164561E-01 0.44804957E+02</pdfrwt>
<totfact> 0.31869848E+05</totfact>
</mgrwt>
</event>
<event>
 4    1  0.4635140E-002  0.4628229E+02  0.7818608E-02  0.1466492E+00
         -2   -1    0    0  501    0 -0.00000000000E+00  0.00000000000E+00  0.87347489380E+01  0.87347493102E+01  0.25500000000E-02 0. -1.
          2   -1    0    0    0  501  0.00000000000E+00 -0.00000000000E+00 -0.61308296755E+02  0.61308296808E+02  0.25500000000E-02 0. -1.
          2    1    1    2    0  502  0.11292492385E+02  0.18782252834E+02 -0.15040849209E+02  0.26580454420E+02  0.25500000000E-02 0.  1.
         -2    1    1    2  502    0 -0.11292492385E+02 -0.18782252834E+02 -0.37532698608E+02  0.43462591698E+02  0.25500000000E-02 0.  1.
<mgrwt>
<rscale>  0 0.46282290E+02</rscale>
<asrwt>0</asrwt>
<pdfrwt beam="2">  1        2 0.94320454E-02 0.46282290E+02</pdfrwt>
<pdfrwt beam="1">  1       -2 0.13438076E-02 0.46282290E+02</pdfrwt>
<totfact> 0.65026483E+05</totfact>
</mgrwt>
</event>
<event>
 4    1  0.4635140E-002  0.6955448E+02  0.7818608E-02  0.1361615E+00
          2   -1    0    0    0  501  0.00000000000E+00  0.00000000000E+00  0.19116362796E+03  0.19116362797E+03  0.25500000000E-02 0. -1.
         -2   -1    0    0  501    0 -0.00000000000E+00 -0.00000000000E+00 -0.63268120531E+01  0.63268125670E+01  0.25500000000E-02 0. -1.
          2    1    1    2    0  502  0.59072937720E+01  0.23778784446E+02  0.22341350720E+02  0.33158146328E+02  0.25500000000E-02 0. -1.
         -2    1    1    2  502    0 -0.59072937720E+01 -0.23778784446E+02  0.16249546518E+03  0.16433229421E+03  0.25500000000E-02 0. -1.
<mgrwt>
<rscale>  0 0.69554479E+02</rscale>
<asrwt>0</asrwt>
<pdfrwt beam="1">  1        2 0.29409786E-01 0.69554479E+02</pdfrwt>
<pdfrwt beam="2">  1       -2 0.97335585E-03 0.69554479E+02</pdfrwt>
<totfact> 0.31188038E+05</totfact>
</mgrwt>
</event>
<event>
 4    1  0.4635140E-002  0.6701335E+02  0.7818608E-02  0.1370554E+00
         -2   -1    0    0  501    0 -0.00000000000E+00  0.00000000000E+00  0.11292518577E+01  0.11292547368E+01  0.25500000000E-02 0. -1.
          2   -1    0    0    0  501  0.00000000000E+00 -0.00000000000E+00 -0.99419427063E+03  0.99419427063E+03  0.25500000000E-02 0. -1.
          2    1    1    2    0  502  0.28453668394E+02 -0.15890120753E+02 -0.61214462226E+03  0.61301153803E+03  0.25500000000E-02 0. -1.
         -2    1    1    2  502    0 -0.28453668394E+02  0.15890120753E+02 -0.38092039651E+03  0.38231198734E+03  0.25500000000E-02 0. -1.
<mgrwt>
<rscale>  0 0.67013347E+02</rscale>
<asrwt>0</asrwt>
<pdfrwt beam="2">  1        2 0.15295227E+00 0.67013347E+02</pdfrwt>
<pdfrwt beam="1">  1       -2 0.17373207E-03 0.67013347E+02</pdfrwt>
<totfact> 0.55518818E+05</totfact>
</mgrwt>
</event>
<event>
 4    1  0.4635140E-002  0.6558007E+02  0.7818608E-02  0.1375803E+00
          2   -1    0    0    0  501  0.00000000000E+00  0.00000000000E+00  0.17247409692E+03  0.17247409694E+03  0.25500000000E-02 0.  1.
         -2   -1    0    0  501    0 -0.00000000000E+00 -0.00000000000E+00 -0.62339004183E+01  0.62339009399E+01  0.25500000000E-02 0.  1.
          2    1    1    2    0  502  0.16439781013E+02  0.25517422896E+02  0.49327341861E+02  0.57918839185E+02  0.25500000000E-02 0. -1.
         -2    1    1    2  502    0 -0.16439781013E+02 -0.25517422896E+02  0.11691285464E+03  0.12078915869E+03  0.25500000000E-02 0. -1.
<mgrwt>
<rscale>  0 0.65580070E+02</rscale>
<asrwt>0</asrwt>
<pdfrwt beam="1">  1        2 0.26534474E-01 0.65580070E+02</pdfrwt>
<pdfrwt beam="2">  1       -2 0.95906173E-03 0.65580070E+02</pdfrwt>
<totfact> 0.35107692E+05</totfact>
</mgrwt>
</event>
<event>
 4    1  0.4635140E-002  0.6923580E+02  0.7818608E-02  0.1362711E+00
         -2   -1    0    0  501    0 -0.00000000000E+00  0.00000000000E+00  0.18962073968E+03  0.18962073970E+03  0.25500000000E-02 0. -1.
          2   -1    0    0    0  501  0.00000000000E+00 -0.00000000000E+00 -0.63199776638E+01  0.63199781782E+01  0.25500000000E-02 0. -1.
          2    1    1    2    0  502 -0.30397892813E+02 -0.15595557023E+02  0.75856373464E+02  0.83195208323E+02  0.25500000000E-02 0.  1.
         -2    1    1    2  502    0  0.30397892813E+02  0.15595557023E+02  0.10744438856E+03  0.11274550956E+03  0.25500000000E-02 0.  1.
<mgrwt>
<rscale>  0 0.69235797E+02</rscale>
<asrwt>0</asrwt>
<pdfrwt beam="2">  1        2 0.97230439E-03 0.69235797E+02</pdfrwt>
<pdfrwt beam="1">  1       -2 0.29172419E-01 0.69235797E+02</pdfrwt>
<totfact> 0.12812121E+05</totfact>
</mgrwt>
</event>
<event>
 4    1  0.4635140E-002  0.8401715E+02  0.7818608E-02  0.1318023E+00
         -2   -1    0    0  501    0 -0.00000000000E+00  0.00000000000E+00  0.90566178786E+00  0.90566537777E+00  0.25500000000E-02 0.  1.
          2   -1    0    0    0  501  0.00000000000E+00 -0.00000000000E+00 -0.19485385646E+04  0.19485385646E+04  0.25500000000E-02 0.  1.
          2    1    1    2    0  502 -0.29582659945E+02  0.28428821111E+02 -0.76448951340E+03  0.76558967322E+03  0.25500000000E-02 0. -1.
         -2    1    1    2  502    0  0.29582659945E+02 -0.28428821111E+02 -0.11831433894E+04  0.11838545568E+04  0.25500000000E-02 0. -1.
<mgrwt>
<rscale>  0 0.84017151E+02</rscale>
<asrwt>0</asrwt>
<pdfrwt beam="2">  1        2 0.29977181E+00 0.84017151E+02</pdfrwt>
<pdfrwt beam="1">  1       -2 0.13933442E-03 0.84017151E+02</pdfrwt>
<totfact> 0.24989602E+05</totfact>
</mgrwt>
</event>
<event>
 4    1  0.4635140E-002  0.5039822E+02  0.7818608E-02  0.1443205E+00
          2   -1    0    0    0  501  0.00000000000E+00  0.00000000000E+00  0.78088317280E+01  0.78088321444E+01  0.25500000000E-02 0. -1.
         -2   -1    0    0  501    0 -0.00000000000E+00 -0.00000000000E+00 -0.81317559549E+02  0.81317559589E+02  0.25500000000E-02 0. -1.
          2    1    1    2    0  502 -0.10187207726E+02 -0.22223115806E+02 -0.25946719437E+02  0.35649380547E+02  0.25500000000E-02 0. -1.
         -2    1    1    2  502    0  0.10187207726E+02  0.22223115806E+02 -0.47562008384E+02  0.53477011186E+02  0.25500000000E-02 0. -1.
<mgrwt>
<rscale>  0 0.50398221E+02</rscale>
<asrwt>0</asrwt>
<pdfrwt beam="1">  1        2 0.12013588E-02 0.50398221E+02</pdfrwt>
<pdfrwt beam="2">  1       -2 0.12510393E-01 0.50398221E+02</pdfrwt>
<totfact> 0.36361801E+05</totfact>
</mgrwt>
</event>
<event>
 4    1  0.4635140E-002  0.4684231E+02  0.7818608E-02  0.1463158E+00
         -2   -1    0    0  501    0 -0.00000000000E+00  0.00000000000E+00  0.16907858748E+01  0.16907877977E+01  0.25500000000E-02 0. -1.
          2   -1    0    0    0  501  0.00000000000E+00 -0.00000000000E+00 -0.32443509848E+03  0.32443509849E+03  0.25500000000E-02 0. -1.
          2    1    1    2    0  502 -0.12963600786E+01 -0.21266688881E+02 -0.93656689962E+02  0.96049613151E+02  0.25500000000E-02 0.  1.
         -2    1    1    2  502    0  0.12963600786E+01  0.21266688881E+02 -0.22908762265E+03  0.23007627314E+03  0.25500000000E-02 0.  1.
<mgrwt>
<rscale>  0 0.46842314E+02</rscale>
<asrwt>0</asrwt>
<pdfrwt beam="2">  1        2 0.49913043E-01 0.46842314E+02</pdfrwt>
<pdfrwt beam="1">  1       -2 0.26012131E-03 0.46842314E+02</pdfrwt>
<totfact> 0.10217781E+06</totfact>
</mgrwt>
</event>
<event>
 4    1  0.4635140E-002  0.6707839E+02  0.7818608E-02  0.1370320E+00
         -2   -1    0    0  501    0 -0.00000000000E+00  0.00000000000E+00  0.13801678277E+01  0.13801701833E+01  0.25500000000E-02 0. -1.
          2   -1    0    0    0  501  0.00000000000E+00 -0.00000000000E+00 -0.81502897250E+03  0.81502897250E+03  0.25500000000E-02 0. -1.
          2    1    1    2    0  502 -0.84125511251E+01 -0.31228252141E+02 -0.29871290217E+03  0.30045860394E+03  0.25500000000E-02 0.  1.
         -2    1    1    2  502    0  0.84125511251E+01  0.31228252141E+02 -0.51493590249E+03  0.51595053875E+03  0.25500000000E-02 0.  1.
<mgrwt>
<rscale>  0 0.67078394E+02</rscale>
<asrwt>0</asrwt>
<pdfrwt beam="2">  1        2 0.12538869E+00 0.67078394E+02</pdfrwt>
<pdfrwt beam="1">  1       -2 0.21233434E-03 0.67078394E+02</pdfrwt>
<totfact> 0.54206198E+05</totfact>
</mgrwt>
</event>
<event>
 4    1  0.4635140E-002  0.1025719E+03  0.7818608E-02  0.1274979E+00
          2   -1    0    0    0  501  0.00000000000E+00  0.00000000000E+00  0.71220183028E+03  0.71220183028E+03  0.25500000000E-02 0.  1.
         -2   -1    0    0  501    0 -0.00000000000E+00 -0.00000000000E+00 -0.36931226081E+01  0.36931234885E+01  0.25500000000E-02 0.  1.
          2    1    1    2    0  502 -0.15039375507E+02  0.46069606571E+02  0.47138797070E+03  0.47387256767E+03  0.25500000000E-02 0.  1.
         -2    1    1    2  502    0  0.15039375507E+02 -0.46069606571E+02  0.23712073697E+03  0.24202238610E+03  0.25500000000E-02 0.  1.
<mgrwt>
<rscale>  0 0.10257191E+03</rscale>
<asrwt>0</asrwt>
<pdfrwt beam="1">  1        2 0.10956953E+00 0.10257191E+03</pdfrwt>
<pdfrwt beam="2">  1       -2 0.56817267E-03 0.10257191E+03</pdfrwt>
<totfact> 0.17419274E+05</totfact>
</mgrwt>
</event>
<event>
 4    1  0.4635140E-002  0.5810373E+02  0.7818608E-02  0.1405966E+00
          2   -1    0    0    0  501  0.00000000000E+00  0.00000000000E+00  0.13028192438E+04  0.13028192438E+04  0.25500000000E-02 0.  1.
         -2   -1    0    0  501    0 -0.00000000000E+00 -0.00000000000E+00 -0.64783179024E+00  0.64783680889E+00  0.25500000000E-02 0.  1.
          2    1    1    2    0  502  0.27112796029E+00 -0.28577179930E+02  0.76826105031E+03  0.76879241031E+03  0.25500000000E-02 0.  1.
         -2    1    1    2  502    0 -0.27112796029E+00  0.28577179930E+02  0.53391036170E+03  0.53467467030E+03  0.25500000000E-02 0.  1.
<mgrwt>
<rscale>  0 0.58103735E+02</rscale>
<asrwt>0</asrwt>
<pdfrwt beam="1">  1        2 0.20043472E+00 0.58103735E+02</pdfrwt>
<pdfrwt beam="2">  1       -2 0.99666323E-04 0.58103735E+02</pdfrwt>
<totfact> 0.78306704E+05</totfact>
</mgrwt>
</event>
<event>
 4    1  0.4635140E-002  0.4728497E+02  0.7818608E-02  0.1460561E+00
          2   -1    0    0    0  501  0.00000000000E+00  0.00000000000E+00  0.13393735623E+03  0.13393735625E+03  0.25500000000E-02 0. -1.
         -2   -1    0    0  501    0 -0.00000000000E+00 -0.00000000000E+00 -0.41733475560E+01  0.41733483351E+01  0.25500000000E-02 0. -1.
          2    1    1    2    0  502  0.22686847361E+02 -0.42296684038E+01  0.79884893815E+02  0.83151544810E+02  0.25500000000E-02 0. -1.
         -2    1    1    2  502    0 -0.22686847361E+02  0.42296684038E+01  0.49879114858E+02  0.54959159778E+02  0.25500000000E-02 0. -1.
<mgrwt>
<rscale>  0 0.47284974E+02</rscale>
<asrwt>0</asrwt>
<pdfrwt beam="1">  1        2 0.20605746E-01 0.47284974E+02</pdfrwt>
<pdfrwt beam="2">  1       -2 0.64205356E-03 0.47284974E+02</pdfrwt>
<totfact> 0.74682566E+05</totfact>
</mgrwt>
</event>
<event>
 4    1  0.4635140E-002  0.4230359E+02  0.7818608E-02  0.1491913E+00
          2   -1    0    0    0  501  0.00000000000E+00  0.00000000000E+00  0.49885967419E+02  0.49885967484E+02  0.25500000000E-02 0. -1.
         -2   -1    0    0  501    0 -0.00000000000E+00 -0.00000000000E+00 -0.89684226077E+01  0.89684229702E+01  0.25500000000E-02 0. -1.
          2    1    1    2    0  502 -0.13713982073E+02 -0.15947465416E+02  0.23570761042E+02  0.31590754029E+02  0.25500000000E-02 0. -1.
         -2    1    1    2  502    0  0.13713982073E+02  0.15947465416E+02  0.17346783769E+02  0.27263636425E+02  0.25500000000E-02 0. -1.
<mgrwt>
<rscale>  0 0.42303591E+02</rscale>
<asrwt>0</asrwt>
<pdfrwt beam="1">  1        2 0.76747644E-02 0.42303591E+02</pdfrwt>
<pdfrwt beam="2">  1       -2 0.13797573E-02 0.42303591E+02</pdfrwt>
<totfact> 0.78420489E+05</totfact>
</mgrwt>
</event>
<event>
 4    1  0.4635140E-002  0.4137892E+02  0.7818608E-02  0.1498303E+00
         -2   -1    0    0  501    0 -0.00000000000E+00  0.00000000000E+00  0.45063743727E+02  0.45063743799E+02  0.25500000000E-02 0. -1.
          2   -1    0    0    0  501  0.00000000000E+00 -0.00000000000E+00 -0.94988479176E+01  0.94988482599E+01  0.25500000000E-02 0. -1.
          2    1    1    2    0  502 -0.17197546483E+02  0.11387308958E+02  0.15645145424E+02  0.25888163168E+02  0.25500000000E-02 0. -1.
         -2    1    1    2  502    0  0.17197546483E+02 -0.11387308958E+02  0.19919750385E+02  0.28674428891E+02  0.25500000000E-02 0. -1.
<mgrwt>
<rscale>  0 0.41378915E+02</rscale>
<asrwt>0</asrwt>
<pdfrwt beam="2">  1        2 0.14613612E-02 0.41378915E+02</pdfrwt>
<pdfrwt beam="1">  1       -2 0.69328838E-02 0.41378915E+02</pdfrwt>
<totfact> 0.65130542E+05</totfact>
</mgrwt>
</event>
<event>
 4    1  0.4635140E-002  0.6698259E+02  0.7818608E-02  0.1370665E+00
          2   -1    0    0    0  501  0.00000000000E+00  0.00000000000E+00  0.23549637784E+03  0.23549637786E+03  0.25500000000E-02 0. -1.
         -2   -1    0    0  501    0 -0.00000000000E+00 -0.00000000000E+00 -0.47629896120E+01  0.47629902946E+01  0.25500000000E-02 0. -1.
          2    1    1    2    0  502 -0.29337223966E+02  0.15042509533E+02  0.94232292684E+02  0.99833234917E+02  0.25500000000E-02 0.  1.
         -2    1    1    2  502    0  0.29337223966E+02 -0.15042509533E+02  0.13650109555E+03  0.14042613324E+03  0.25500000000E-02 0.  1.
<mgrwt>
<rscale>  0 0.66982591E+02</rscale>
<asrwt>0</asrwt>
<pdfrwt beam="1">  1        2 0.36230210E-01 0.66982591E+02</pdfrwt>
<pdfrwt beam="2">  1       -2 0.73276773E-03 0.66982591E+02</pdfrwt>
<totfact> 0.36985943E+05</totfact>
</mgrwt>
</event>
<event>
 4    1  0.4635140E-002  0.6763993E+02  0.7818608E-02  0.1368308E+00
          2   -1    0    0    0  501  0.00000000000E+00  0.00000000000E+00  0.12620782692E+04  0.12620782692E+04  0.25500000000E-02 0.  1.
         -2   -1    0    0  501    0 -0.00000000000E+00 -0.00000000000E+00 -0.90627336237E+00  0.90627694986E+00  0.25500000000E-02 0.  1.
          2    1    1    2    0  502 -0.20546340470E+02 -0.16523202949E+02  0.23509640296E+03  0.23657025814E+03  0.25500000000E-02 0. -1.
         -2    1    1    2  502    0  0.20546340470E+02  0.16523202949E+02  0.10260755929E+04  0.10264142880E+04  0.25500000000E-02 0. -1.
<mgrwt>
<rscale>  0 0.67639934E+02</rscale>
<asrwt>0</asrwt>
<pdfrwt beam="1">  1        2 0.19416584E+00 0.67639934E+02</pdfrwt>
<pdfrwt beam="2">  1       -2 0.13942698E-03 0.67639934E+02</pdfrwt>
<totfact> 0.53583793E+05</totfact>
</mgrwt>
</event>
<event>
 4    1  0.4635140E-002  0.6892439E+02  0.7818608E-02  0.1363789E+00
         -2   -1    0    0  501    0 -0.00000000000E+00  0.00000000000E+00  0.61926470312E+00  0.61926995328E+00  0.25500000000E-02 0.  1.
          2   -1    0    0    0  501  0.00000000000E+00 -0.00000000000E+00 -0.19178191894E+04  0.19178191894E+04  0.25500000000E-02 0.  1.
          2    1    1    2    0  502 -0.37574444060E+01  0.24220898760E+02 -0.28430980755E+03  0.28536439336E+03  0.25500000000E-02 0. -1.
         -2    1    1    2  502    0  0.37574444060E+01 -0.24220898760E+02 -0.16328901172E+04  0.16330740660E+04  0.25500000000E-02 0. -1.
<mgrwt>
<rscale>  0 0.68924387E+02</rscale>
<asrwt>0</asrwt>
<pdfrwt beam="2">  1        2 0.29504435E+00 0.68924387E+02</pdfrwt>
<pdfrwt beam="1">  1       -2 0.95273432E-04 0.68924387E+02</pdfrwt>
<totfact> 0.42347206E+05</totfact>
</mgrwt>
</event>
<event>
 4    1  0.4635140E-002  0.7137990E+02  0.7818608E-02  0.1355463E+00
          2   -1    0    0    0  501  0.00000000000E+00  0.00000000000E+00  0.20159159167E+02  0.20159159329E+02  0.25500000000E-02 0.  1.
         -2   -1    0    0  501    0 -0.00000000000E+00 -0.00000000000E+00 -0.63185791655E+02  0.63185791706E+02  0.25500000000E-02 0.  1.
          2    1    1    2    0  502  0.85302746178E+00  0.35679071211E+02 -0.21255762696E+02  0.41539514112E+02  0.25500000000E-02 0. -1.
         -2    1    1    2  502    0 -0.85302746178E+00 -0.35679071211E+02 -0.21770869791E+02  0.41805436923E+02  0.25500000000E-02 0. -1.
<mgrwt>
<rscale>  0 0.71379897E+02</rscale>
<asrwt>0</asrwt>
<pdfrwt beam="1">  1        2 0.31014091E-02 0.71379897E+02</pdfrwt>
<pdfrwt beam="2">  1       -2 0.97208910E-02 0.71379897E+02</pdfrwt>
<totfact> 0.16432944E+05</totfact>
</mgrwt>
</event>
<event>
 4    1  0.4635140E-002  0.7356987E+02  0.7818608E-02  0.1348358E+00
         -2   -1    0    0  501    0 -0.00000000000E+00  0.00000000000E+00  0.72118606231E+02  0.72118606276E+02  0.25500000000E-02 0. -1.
          2   -1    0    0    0  501  0.00000000000E+00 -0.00000000000E+00 -0.18762584144E+02  0.18762584317E+02  0.25500000000E-02 0. -1.
          2    1    1    2    0  502 -0.80319954611E+01 -0.26193245975E+02  0.57000454929E+02  0.63242793695E+02  0.25500000000E-02 0.  1.
         -2    1    1    2  502    0  0.80319954611E+01  0.26193245975E+02 -0.36444328413E+01  0.27638396897E+02  0.25500000000E-02 0.  1.
<mgrwt>
<rscale>  0 0.73569870E+02</rscale>
<asrwt>0</asrwt>
<pdfrwt beam="2">  1        2 0.28865514E-02 0.73569870E+02</pdfrwt>
<pdfrwt beam="1">  1       -2 0.11095170E-01 0.73569870E+02</pdfrwt>
<totfact> 0.14801113E+05</totfact>
</mgrwt>
</event>
<event>
 4    1  0.4635140E-002  0.5876850E+02  0.7818608E-02  0.1403074E+00
         -2   -1    0    0  501    0 -0.00000000000E+00  0.00000000000E+00  0.82159777590E+01  0.82159781547E+01  0.25500000000E-02 0.  1.
          2   -1    0    0    0  501  0.00000000000E+00 -0.00000000000E+00 -0.10509207018E+03  0.10509207021E+03  0.25500000000E-02 0.  1.
          2    1    1    2    0  502 -0.14298278655E+02  0.17172093451E+02 -0.85228402034E+02  0.88109035211E+02  0.25500000000E-02 0.  1.
         -2    1    1    2  502    0  0.14298278655E+02 -0.17172093451E+02 -0.11647690382E+02  0.25199013150E+02  0.25500000000E-02 0.  1.
<mgrwt>
<rscale>  0 0.58768500E+02</rscale>
<asrwt>0</asrwt>
<pdfrwt beam="2">  1        2 0.16168010E-01 0.58768500E+02</pdfrwt>
<pdfrwt beam="1">  1       -2 0.12639967E-02 0.58768500E+02</pdfrwt>
<totfact> 0.40125302E+05</totfact>
</mgrwt>
</event>
<event>
 4    1  0.4635140E-002  0.4434159E+02  0.7818608E-02  0.1478494E+00
         -2   -1    0    0  501    0 -0.00000000000E+00  0.00000000000E+00  0.80774706941E+02  0.80774706981E+02  0.25500000000E-02 0. -1.
          2   -1    0    0    0  501  0.00000000000E+00 -0.00000000000E+00 -0.60853708580E+01  0.60853713923E+01  0.25500000000E-02 0. -1.
          2    1    1    2    0  502  0.95258334913E+01 -0.18721639170E+02  0.51237955541E+02  0.55376613939E+02  0.25500000000E-02 0.  1.
         -2    1    1    2  502    0 -0.95258334913E+01  0.18721639170E+02  0.23451380542E+02  0.31483464434E+02  0.25500000000E-02 0.  1.
<mgrwt>
<rscale>  0 0.44341586E+02</rscale>
<asrwt>0</asrwt>
<pdfrwt beam="2">  1        2 0.93621101E-03 0.44341586E+02</pdfrwt>
<pdfrwt beam="1">  1       -2 0.12426877E-01 0.44341586E+02</pdfrwt>
<totfact> 0.49647037E+05</totfact>
</mgrwt>
</event>
<event>
 4    1  0.4635140E-002  0.9588889E+02  0.7818608E-02  0.1289187E+00
         -2   -1    0    0  501    0 -0.00000000000E+00  0.00000000000E+00  0.67962780886E+01  0.67962785670E+01  0.25500000000E-02 0. -1.
          2   -1    0    0    0  501  0.00000000000E+00 -0.00000000000E+00 -0.33822475806E+03  0.33822475807E+03  0.25500000000E-02 0. -1.
          2    1    1    2    0  502 -0.25766248274E+02  0.30036402710E+02 -0.26310240489E+03  0.26606194862E+03  0.25500000000E-02 0.  1.
         -2    1    1    2  502    0  0.25766248274E+02 -0.30036402710E+02 -0.68326075081E+02  0.78959088016E+02  0.25500000000E-02 0.  1.
<mgrwt>
<rscale>  0 0.95888886E+02</rscale>
<asrwt>0</asrwt>
<pdfrwt beam="2">  1        2 0.52034565E-01 0.95888886E+02</pdfrwt>
<pdfrwt beam="1">  1       -2 0.10455815E-02 0.95888886E+02</pdfrwt>
<totfact> 0.16417150E+05</totfact>
</mgrwt>
</event>
<event>
 4    1  0.4635140E-002  0.8992922E+02  0.7818608E-02  0.1303023E+00
          2   -1    0    0    0  501  0.00000000000E+00  0.00000000000E+00  0.45627592567E+02  0.45627592638E+02  0.25500000000E-02 0.  1.
         -2   -1    0    0  501    0 -0.00000000000E+00 -0.00000000000E+00 -0.44311256772E+02  0.44311256846E+02  0.25500000000E-02 0.  1.
          2    1    1    2    0  502  0.19901765607E+02 -0.24509132953E+02 -0.31361477911E+02  0.44500788483E+02  0.25500000000E-02 0. -1.
         -2    1    1    2  502    0 -0.19901765607E+02  0.24509132953E+02  0.32677813706E+02  0.45438061000E+02  0.25500000000E-02 0. -1.
<mgrwt>
<rscale>  0 0.89929216E+02</rscale>
<asrwt>0</asrwt>
<pdfrwt beam="1">  1        2 0.70196296E-02 0.89929216E+02</pdfrwt>
<pdfrwt beam="2">  1       -2 0.68171164E-02 0.89929216E+02</pdfrwt>
<totfact> 0.10266824E+05</totfact>
</mgrwt>
</event>
<event>
 4    1  0.4635140E-002  0.5260700E+02  0.7818608E-02  0.1431767E+00
          2   -1    0    0    0  501  0.00000000000E+00  0.00000000000E+00  0.58999601471E+03  0.58999601472E+03  0.25500000000E-02 0. -1.
         -2   -1    0    0  501    0 -0.00000000000E+00 -0.00000000000E+00 -0.11726744991E+01  0.11726772716E+01  0.25500000000E-02 0. -1.
          2    1    1    2    0  502 -0.18058126184E+02  0.12946118316E+02  0.45260699171E+03  0.45315205710E+03  0.25500000000E-02 0.  1.
         -2    1    1    2  502    0  0.18058126184E+02 -0.12946118316E+02  0.13621634850E+03  0.13801663489E+03  0.25500000000E-02 0.  1.
<mgrwt>
<rscale>  0 0.52607000E+02</rscale>
<asrwt>0</asrwt>
<pdfrwt beam="1">  1        2 0.90768730E-01 0.52607000E+02</pdfrwt>
<pdfrwt beam="2">  1       -2 0.18041145E-03 0.52607000E+02</pdfrwt>
<totfact> 0.92950028E+05</totfact>
</mgrwt>
</event>
<event>
 4    1  0.4635140E-002  0.9885796E+02  0.7818608E-02  0.1282716E+00
          2   -1    0    0    0  501  0.00000000000E+00  0.00000000000E+00  0.35660193680E+03  0.35660193680E+03  0.25500000000E-02 0. -1.
         -2   -1    0    0  501    0 -0.00000000000E+00 -0.00000000000E+00 -0.68514040439E+01  0.68514045185E+01  0.25500000000E-02 0. -1.
          2    1    1    2    0  502 -0.69899546997E+01 -0.29508961546E+02  0.31369128887E+02  0.43630958411E+02  0.25500000000E-02 0.  1.
         -2    1    1    2  502    0  0.69899546997E+01  0.29508961546E+02  0.31838140386E+03  0.31982238291E+03  0.25500000000E-02 0.  1.
<mgrwt>
<rscale>  0 0.98857960E+02</rscale>
<asrwt>0</asrwt>
<pdfrwt beam="1">  1        2 0.54861828E-01 0.98857960E+02</pdfrwt>
<pdfrwt beam="2">  1       -2 0.10540624E-02 0.98857960E+02</pdfrwt>
<totfact> 0.15427222E+05</totfact>
</mgrwt>
</event>
<event>
 4    1  0.4635140E-002  0.9405880E+02  0.7818608E-02  0.1293310E+00
          2   -1    0    0    0  501  0.00000000000E+00  0.00000000000E+00  0.50933049642E+03  0.50933049643E+03  0.25500000000E-02 0. -1.
         -2   -1    0    0  501    0 -0.00000000000E+00 -0.00000000000E+00 -0.43424932807E+01  0.43424940294E+01  0.25500000000E-02 0. -1.
          2    1    1    2    0  502  0.18172955278E+02  0.41595928340E+02  0.18532205368E+03  0.19080026505E+03  0.25500000000E-02 0.  1.
         -2    1    1    2  502    0 -0.18172955278E+02 -0.41595928340E+02  0.31966594946E+03  0.32287272540E+03  0.25500000000E-02 0.  1.
<mgrwt>
<rscale>  0 0.94058800E+02</rscale>
<asrwt>0</asrwt>
<pdfrwt beam="1">  1        2 0.78358518E-01 0.94058800E+02</pdfrwt>
<pdfrwt beam="2">  1       -2 0.66807612E-03 0.94058800E+02</pdfrwt>
<totfact> 0.19961983E+05</totfact>
</mgrwt>
</event>
<event>
 4    1  0.4635140E-002  0.7248207E+02  0.7818608E-02  0.1351850E+00
         -2   -1    0    0  501    0 -0.00000000000E+00  0.00000000000E+00  0.77780696398E+00  0.77781114399E+00  0.25500000000E-02 0.  1.
          2   -1    0    0    0  501  0.00000000000E+00 -0.00000000000E+00 -0.16886056033E+04  0.16886056033E+04  0.25500000000E-02 0.  1.
          2    1    1    2    0  502  0.14396806633E+02 -0.29093657618E+02 -0.46830424433E+03  0.46942792228E+03  0.25500000000E-02 0.  1.
         -2    1    1    2  502    0 -0.14396806633E+02  0.29093657618E+02 -0.12195235520E+04  0.12199554921E+04  0.25500000000E-02 0.  1.
<mgrwt>
<rscale>  0 0.72482073E+02</rscale>
<asrwt>0</asrwt>
<pdfrwt beam="2">  1        2 0.25978254E+00 0.72482073E+02</pdfrwt>
<pdfrwt beam="1">  1       -2 0.11966428E-03 0.72482073E+02</pdfrwt>
<totfact> 0.40599941E+05</totfact>
</mgrwt>
</event>
<event>
 4    1  0.4635140E-002  0.7894579E+02  0.7818608E-02  0.1332070E+00
         -2   -1    0    0  501    0 -0.00000000000E+00  0.00000000000E+00  0.80321408583E+01  0.80321412630E+01  0.25500000000E-02 0. -1.
          2   -1    0    0    0  501  0.00000000000E+00 -0.00000000000E+00 -0.19398433203E+03  0.19398433205E+03  0.25500000000E-02 0. -1.
          2    1    1    2    0  502  0.24019072622E+02  0.26867320354E+02 -0.13418520136E+03  0.13894040817E+03  0.25500000000E-02 0.  1.
         -2    1    1    2  502    0 -0.24019072622E+02 -0.26867320354E+02 -0.51766989816E+02  0.63076065141E+02  0.25500000000E-02 0.  1.
<mgrwt>
<rscale>  0 0.78945792E+02</rscale>
<asrwt>0</asrwt>
<pdfrwt beam="2">  1        2 0.29843740E-01 0.78945792E+02</pdfrwt>
<pdfrwt beam="1">  1       -2 0.12357142E-02 0.78945792E+02</pdfrwt>
<totfact> 0.22474062E+05</totfact>
</mgrwt>
</event>
<event>
 4    1  0.4635140E-002  0.5087326E+02  0.7818608E-02  0.1440688E+00
         -2   -1    0    0  501    0 -0.00000000000E+00  0.00000000000E+00  0.44116628839E+00  0.44117365800E+00  0.25500000000E-02 0.  1.
          2   -1    0    0    0  501  0.00000000000E+00 -0.00000000000E+00 -0.14666053861E+04  0.14666053861E+04  0.25500000000E-02 0.  1.
          2    1    1    2    0  502  0.23759824155E+02 -0.90366803195E+01 -0.75937659465E+03  0.75980195008E+03  0.25500000000E-02 0. -1.
         -2    1    1    2  502    0 -0.23759824155E+02  0.90366803195E+01 -0.70678762515E+03  0.70724460967E+03  0.25500000000E-02 0. -1.
<mgrwt>
<rscale>  0 0.50873265E+02</rscale>
<asrwt>0</asrwt>
<pdfrwt beam="2">  1        2 0.22562770E+00 0.50873265E+02</pdfrwt>
<pdfrwt beam="1">  1       -2 0.67873478E-04 0.50873265E+02</pdfrwt>
<totfact> 0.10581200E+06</totfact>
</mgrwt>
</event>
<event>
 4    1  0.4635140E-002  0.5083630E+02  0.7818608E-02  0.1440882E+00
         -2   -1    0    0  501    0 -0.00000000000E+00  0.00000000000E+00  0.63366961339E+00  0.63367474419E+00  0.25500000000E-02 0.  1.
          2   -1    0    0    0  501  0.00000000000E+00 -0.00000000000E+00 -0.10195846200E+04  0.10195846200E+04  0.25500000000E-02 0.  1.
          2    1    1    2    0  502  0.12568729239E+02  0.16102724517E+02 -0.20590587506E+03  0.20691665009E+03  0.25500000000E-02 0.  1.
         -2    1    1    2  502    0 -0.12568729239E+02 -0.16102724517E+02 -0.81304507531E+03  0.81330164465E+03  0.25500000000E-02 0.  1.
<mgrwt>
<rscale>  0 0.50836302E+02</rscale>
<asrwt>0</asrwt>
<pdfrwt beam="2">  1        2 0.15685786E+00 0.50836302E+02</pdfrwt>
<pdfrwt beam="1">  1       -2 0.97488844E-04 0.50836302E+02</pdfrwt>
<totfact> 0.11120755E+06</totfact>
</mgrwt>
</event>
<event>
 4    1  0.4635140E-002  0.1009197E+03  0.7818608E-02  0.1278374E+00
         -2   -1    0    0  501    0 -0.00000000000E+00  0.00000000000E+00  0.11835189257E+03  0.11835189260E+03  0.25500000000E-02 0. -1.
          2   -1    0    0    0  501  0.00000000000E+00 -0.00000000000E+00 -0.21513796596E+02  0.21513796747E+02  0.25500000000E-02 0. -1.
          2    1    1    2    0  502  0.15880530217E+02 -0.23590322918E+02  0.10618846224E+03  0.10993036020E+03  0.25500000000E-02 0.  1.
         -2    1    1    2  502    0 -0.15880530217E+02  0.23590322918E+02 -0.93503662597E+01  0.29935329145E+02  0.25500000000E-02 0.  1.
<mgrwt>
<rscale>  0 0.10091974E+03</rscale>
<asrwt>0</asrwt>
<pdfrwt beam="2">  1        2 0.33098149E-02 0.10091974E+03</pdfrwt>
<pdfrwt beam="1">  1       -2 0.18207983E-01 0.10091974E+03</pdfrwt>
<totfact> 0.58723875E+04</totfact>
</mgrwt>
</event>
<event>
 4    1  0.4635140E-002  0.5709647E+02  0.7818608E-02  0.1410437E+00
          2   -1    0    0    0  501  0.00000000000E+00  0.00000000000E+00  0.17045357513E+04  0.17045357513E+04  0.25500000000E-02 0. -1.
         -2   -1    0    0  501    0 -0.00000000000E+00 -0.00000000000E+00 -0.47813360787E+00  0.47814040770E+00  0.25500000000E-02 0. -1.
          2    1    1    2    0  502  0.24605304305E+02 -0.92638740883E+01  0.11842375418E+04  0.11845293563E+04  0.25500000000E-02 0.  1.
         -2    1    1    2  502    0 -0.24605304305E+02  0.92638740883E+01  0.51982007582E+03  0.52048453541E+03  0.25500000000E-02 0.  1.
<mgrwt>
<rscale>  0 0.57096467E+02</rscale>
<asrwt>0</asrwt>
<pdfrwt beam="1">  1        2 0.26223988E+00 0.57096467E+02</pdfrwt>
<pdfrwt beam="2">  1       -2 0.73558526E-04 0.57096467E+02</pdfrwt>
<totfact> 0.74165372E+05</totfact>
</mgrwt>
</event>
<event>
 4    1  0.4635140E-002  0.5263106E+02  0.7818608E-02  0.1431646E+00
         -2   -1    0    0  501    0 -0.00000000000E+00  0.00000000000E+00  0.39192013877E+03  0.39192013878E+03  0.25500000000E-02 0. -1.
          2   -1    0    0    0  501  0.00000000000E+00 -0.00000000000E+00 -0.17669585295E+01  0.17669603695E+01  0.25500000000E-02 0. -1.
          2    1    1    2    0  502 -0.11051645196E+02  0.18462279862E+02  0.30839804336E+03  0.30914777663E+03  0.25500000000E-02 0. -1.
         -2    1    1    2  502    0  0.11051645196E+02 -0.18462279862E+02  0.81755136878E+02  0.84539322517E+02  0.25500000000E-02 0. -1.
<mgrwt>
<rscale>  0 0.52631055E+02</rscale>
<asrwt>0</asrwt>
<pdfrwt beam="2">  1        2 0.27183980E-03 0.52631055E+02</pdfrwt>
<pdfrwt beam="1">  1       -2 0.60295432E-01 0.52631055E+02</pdfrwt>
<totfact> 0.17405130E+05</totfact>
</mgrwt>
</event>
<event>
 4    1  0.4635140E-002  0.5548259E+02  0.7818608E-02  0.1417830E+00
         -2   -1    0    0  501    0 -0.00000000000E+00  0.00000000000E+00  0.16893799879E+01  0.16893819125E+01  0.25500000000E-02 0.  1.
          2   -1    0    0    0  501  0.00000000000E+00 -0.00000000000E+00 -0.45553931878E+03  0.45553931879E+03  0.25500000000E-02 0.  1.
          2    1    1    2    0  502 -0.16778111767E+02  0.21626953047E+02 -0.26410002405E+03  0.26551469421E+03  0.25500000000E-02 0. -1.
         -2    1    1    2  502    0  0.16778111767E+02 -0.21626953047E+02 -0.18974991474E+03  0.19171400649E+03  0.25500000000E-02 0. -1.
<mgrwt>
<rscale>  0 0.55482590E+02</rscale>
<asrwt>0</asrwt>
<pdfrwt beam="2">  1        2 0.70082875E-01 0.55482590E+02</pdfrwt>
<pdfrwt beam="1">  1       -2 0.25990512E-03 0.55482590E+02</pdfrwt>
<totfact> 0.75243734E+05</totfact>
</mgrwt>
</event>
<event>
 4    1  0.4635140E-002  0.1890390E+03  0.7818608E-02  0.1159331E+00
          2   -1    0    0    0  501  0.00000000000E+00  0.00000000000E+00  0.78322662797E+03  0.78322662797E+03  0.25500000000E-02 0. -1.
         -2   -1    0    0  501    0 -0.00000000000E+00 -0.00000000000E+00 -0.11406573454E+02  0.11406573739E+02  0.25500000000E-02 0. -1.
          2    1    1    2    0  502 -0.56823615093E+02  0.25546385299E+02  0.87121534119E+02  0.10710603507E+03  0.25500000000E-02 0.  1.
         -2    1    1    2  502    0  0.56823615093E+02 -0.25546385299E+02  0.68469852039E+03  0.68752716664E+03  0.25500000000E-02 0.  1.
<mgrwt>
<rscale>  0 0.18903896E+03</rscale>
<asrwt>0</asrwt>
<pdfrwt beam="1">  1        2 0.12049642E+00 0.18903896E+03</pdfrwt>
<pdfrwt beam="2">  1       -2 0.17548573E-02 0.18903896E+03</pdfrwt>
<totfact> 0.33086605E+04</totfact>
</mgrwt>
</event>
<event>
 4    1  0.4635140E-002  0.4497643E+02  0.7818608E-02  0.1474489E+00
          2   -1    0    0    0  501  0.00000000000E+00  0.00000000000E+00  0.16785291656E+01  0.16785311025E+01  0.25500000000E-02 0.  1.
         -2   -1    0    0  501    0 -0.00000000000E+00 -0.00000000000E+00 -0.30128725267E+03  0.30128725269E+03  0.25500000000E-02 0.  1.
          2    1    1    2    0  502  0.20732128636E+02  0.95846983356E+00 -0.91475824496E+02  0.93800673217E+02  0.25500000000E-02 0.  1.
         -2    1    1    2  502    0 -0.20732128636E+02 -0.95846983356E+00 -0.20813289901E+03  0.20916511057E+03  0.25500000000E-02 0.  1.
<mgrwt>
<rscale>  0 0.44976427E+02</rscale>
<asrwt>0</asrwt>
<pdfrwt beam="1">  1        2 0.25823565E-03 0.44976427E+02</pdfrwt>
<pdfrwt beam="2">  1       -2 0.46351842E-01 0.44976427E+02</pdfrwt>
<totfact> 0.30014865E+05</totfact>
</mgrwt>
</event>
<event>
 4    1  0.4635140E-002  0.5600228E+02  0.7818608E-02  0.1415418E+00
         -2   -1    0    0  501    0 -0.00000000000E+00  0.00000000000E+00  0.35309732985E+00  0.35310653753E+00  0.25500000000E-02 0. -1.
          2   -1    0    0    0  501  0.00000000000E+00 -0.00000000000E+00 -0.22205025015E+04  0.22205025015E+04  0.25500000000E-02 0. -1.
          2    1    1    2    0  502 -0.16532739978E+02  0.20431094047E+02 -0.72701930554E+03  0.72749421423E+03  0.25500000000E-02 0.  1.
         -2    1    1    2  502    0  0.16532739978E+02 -0.20431094047E+02 -0.14931300986E+04  0.14933613938E+04  0.25500000000E-02 0.  1.
<mgrwt>
<rscale>  0 0.56002276E+02</rscale>
<asrwt>0</asrwt>
<pdfrwt beam="2">  1        2 0.34160459E+00 0.56002276E+02</pdfrwt>
<pdfrwt beam="1">  1       -2 0.54325152E-04 0.56002276E+02</pdfrwt>
<totfact> 0.62108513E+05</totfact>
</mgrwt>
</event>
<event>
 4    1  0.4635140E-002  0.5069463E+02  0.7818608E-02  0.1441631E+00
          2   -1    0    0    0  501  0.00000000000E+00  0.00000000000E+00  0.17135549101E+03  0.17135549103E+03  0.25500000000E-02 0.  1.
         -2   -1    0    0  501    0 -0.00000000000E+00 -0.00000000000E+00 -0.37494353177E+01  0.37494361848E+01  0.25500000000E-02 0.  1.
          2    1    1    2    0  502 -0.63781510264E+01  0.24021213201E+02  0.10099982489E+03  0.10401280752E+03  0.25500000000E-02 0.  1.
         -2    1    1    2  502    0  0.63781510264E+01 -0.24021213201E+02  0.66606230799E+02  0.71092119689E+02  0.25500000000E-02 0.  1.
<mgrwt>
<rscale>  0 0.50694631E+02</rscale>
<asrwt>0</asrwt>
<pdfrwt beam="1">  1        2 0.26362386E-01 0.50694631E+02</pdfrwt>
<pdfrwt beam="2">  1       -2 0.57683622E-03 0.50694631E+02</pdfrwt>
<totfact> 0.67620146E+05</totfact>
</mgrwt>
</event>
<event>
 4    1  0.4635140E-002  0.4833102E+02  0.7818608E-02  0.1454557E+00
         -2   -1    0    0  501    0 -0.00000000000E+00  0.00000000000E+00  0.36519277180E+00  0.36520167453E+00  0.25500000000E-02 0.  1.
          2   -1    0    0    0  501  0.00000000000E+00 -0.00000000000E+00 -0.15990585912E+04  0.15990585912E+04  0.25500000000E-02 0.  1.
          2    1    1    2    0  502  0.26225404187E+00  0.21103529345E+02 -0.11888682901E+04  0.11890556080E+04  0.25500000000E-02 0.  1.
         -2    1    1    2  502    0 -0.26225404187E+00 -0.21103529345E+02 -0.40982510832E+03  0.41036818486E+03  0.25500000000E-02 0.  1.
<mgrwt>
<rscale>  0 0.48331015E+02</rscale>
<asrwt>0</asrwt>
<pdfrwt beam="2">  1        2 0.24600341E+00 0.48331015E+02</pdfrwt>
<pdfrwt beam="1">  1       -2 0.56185469E-04 0.48331015E+02</pdfrwt>
<totfact> 0.11613766E+06</totfact>
</mgrwt>
</event>
<event>
 4    1  0.4635140E-002  0.5804133E+02  0.7818608E-02  0.1406240E+00
         -2   -1    0    0  501    0 -0.00000000000E+00  0.00000000000E+00  0.12193475853E+03  0.12193475856E+03  0.25500000000E-02 0. -1.
          2   -1    0    0    0  501  0.00000000000E+00 -0.00000000000E+00 -0.69069644854E+01  0.69069649562E+01  0.25500000000E-02 0. -1.
          2    1    1    2    0  502 -0.22708251009E+02 -0.39022721444E+01  0.96680271263E+02  0.99387963304E+02  0.25500000000E-02 0.  1.
         -2    1    1    2  502    0  0.22708251009E+02  0.39022721444E+01  0.18347522786E+02  0.29453760213E+02  0.25500000000E-02 0.  1.
<mgrwt>
<rscale>  0 0.58041333E+02</rscale>
<asrwt>0</asrwt>
<pdfrwt beam="2">  1        2 0.10626100E-02 0.58041333E+02</pdfrwt>
<pdfrwt beam="1">  1       -2 0.18759193E-01 0.58041333E+02</pdfrwt>
<totfact> 0.23182250E+05</totfact>
</mgrwt>
</event>
<event>
 4    1  0.4635140E-002  0.7020517E+02  0.7818608E-02  0.1359397E+00
          2   -1    0    0    0  501  0.00000000000E+00  0.00000000000E+00  0.29023298249E+02  0.29023298361E+02  0.25500000000E-02 0. -1.
         -2   -1    0    0  501    0 -0.00000000000E+00 -0.00000000000E+00 -0.42455252202E+02  0.42455252279E+02  0.25500000000E-02 0. -1.
          2    1    1    2    0  502 -0.92753413885E+01 -0.32587214294E+02 -0.16060296088E+02  0.37495221165E+02  0.25500000000E-02 0. -1.
         -2    1    1    2  502    0  0.92753413885E+01  0.32587214294E+02  0.26283421343E+01  0.33983329474E+02  0.25500000000E-02 0. -1.
<mgrwt>
<rscale>  0 0.70205169E+02</rscale>
<asrwt>0</asrwt>
<pdfrwt beam="1">  1        2 0.44651228E-02 0.70205169E+02</pdfrwt>
<pdfrwt beam="2">  1       -2 0.65315773E-02 0.70205169E+02</pdfrwt>
<totfact> 0.18633014E+05</totfact>
</mgrwt>
</event>
<event>
 4    1  0.4635140E-002  0.5572957E+02  0.7818608E-02  0.1416680E+00
          2   -1    0    0    0  501  0.00000000000E+00  0.00000000000E+00  0.12011728308E+04  0.12011728308E+04  0.25500000000E-02 0.  1.
         -2   -1    0    0  501    0 -0.00000000000E+00 -0.00000000000E+00 -0.64640420942E+00  0.64640923915E+00  0.25500000000E-02 0.  1.
          2    1    1    2    0  502 -0.12307276760E+02  0.23792091756E+02  0.43473924636E+03  0.43556370949E+03  0.25500000000E-02 0. -1.
         -2    1    1    2  502    0  0.12307276760E+02 -0.23792091756E+02  0.76578718024E+03  0.76625553056E+03  0.25500000000E-02 0. -1.
<mgrwt>
<rscale>  0 0.55729568E+02</rscale>
<asrwt>0</asrwt>
<pdfrwt beam="1">  1        2 0.18479306E+00 0.55729568E+02</pdfrwt>
<pdfrwt beam="2">  1       -2 0.99448675E-04 0.55729568E+02</pdfrwt>
<totfact> 0.87987479E+05</totfact>
</mgrwt>
</event>
<event>
 4    1  0.4635140E-002  0.5603024E+02  0.7818608E-02  0.1415289E+00
          2   -1    0    0    0  501  0.00000000000E+00  0.00000000000E+00  0.32662210482E+01  0.32662220436E+01  0.25500000000E-02 0. -1.
         -2   -1    0    0  501    0 -0.00000000000E+00 -0.00000000000E+00 -0.24029199932E+03  0.24029199933E+03  0.25500000000E-02 0. -1.
          2    1    1    2    0  502  0.26181104324E+02  0.96532810640E+01 -0.12934606044E+03  0.13232172692E+03  0.25500000000E-02 0.  1.
         -2    1    1    2  502    0 -0.26181104324E+02 -0.96532810640E+01 -0.10767971784E+03  0.11123649446E+03  0.25500000000E-02 0.  1.
<mgrwt>
<rscale>  0 0.56030239E+02</rscale>
<asrwt>0</asrwt>
<pdfrwt beam="1">  1        2 0.50249581E-03 0.56030239E+02</pdfrwt>
<pdfrwt beam="2">  1       -2 0.36967986E-01 0.56030239E+02</pdfrwt>
<totfact> 0.19625204E+05</totfact>
</mgrwt>
</event>
<event>
 4    1  0.4635140E-002  0.6419247E+02  0.7818608E-02  0.1381035E+00
          2   -1    0    0    0  501  0.00000000000E+00  0.00000000000E+00  0.39372543268E+02  0.39372543350E+02  0.25500000000E-02 0. -1.
         -2   -1    0    0  501    0 -0.00000000000E+00 -0.00000000000E+00 -0.26164634813E+02  0.26164634938E+02  0.25500000000E-02 0. -1.
          2    1    1    2    0  502  0.17089142488E+02  0.26027375187E+02 -0.13506118840E+01  0.31165481050E+02  0.25500000000E-02 0.  1.
         -2    1    1    2  502    0 -0.17089142488E+02 -0.26027375187E+02  0.14558520338E+02  0.34371697238E+02  0.25500000000E-02 0.  1.
<mgrwt>
<rscale>  0 0.64192468E+02</rscale>
<asrwt>0</asrwt>
<pdfrwt beam="1">  1        2 0.60573143E-02 0.64192468E+02</pdfrwt>
<pdfrwt beam="2">  1       -2 0.40253285E-02 0.64192468E+02</pdfrwt>
<totfact> 0.25353814E+05</totfact>
</mgrwt>
</event>
<event>
 4    1  0.4635140E-002  0.6856547E+02  0.7818608E-02  0.1365040E+00
          2   -1    0    0    0  501  0.00000000000E+00  0.00000000000E+00  0.19148617464E+03  0.19148617465E+03  0.25500000000E-02 0. -1.
         -2   -1    0    0  501    0 -0.00000000000E+00 -0.00000000000E+00 -0.61378114144E+01  0.61378119441E+01  0.25500000000E-02 0. -1.
          2    1    1    2    0  502 -0.20288123876E+02 -0.28593586884E+01  0.17189836580E+03  0.17311508333E+03  0.25500000000E-02 0. -1.
         -2    1    1    2  502    0  0.20288123876E+02  0.28593586884E+01  0.13449997419E+02  0.24508903272E+02  0.25500000000E-02 0. -1.
<mgrwt>
<rscale>  0 0.68565475E+02</rscale>
<asrwt>0</asrwt>
<pdfrwt beam="1">  1        2 0.29459411E-01 0.68565475E+02</pdfrwt>
<pdfrwt beam="2">  1       -2 0.94427873E-03 0.68565475E+02</pdfrwt>
<totfact> 0.32392469E+05</totfact>
</mgrwt>
</event>
<event>
 4    1  0.4635140E-002  0.7011599E+02  0.7818608E-02  0.1359699E+00
          2   -1    0    0    0  501  0.00000000000E+00  0.00000000000E+00  0.21682140583E+03  0.21682140585E+03  0.25500000000E-02 0.  1.
         -2   -1    0    0  501    0 -0.00000000000E+00 -0.00000000000E+00 -0.56685500803E+01  0.56685506538E+01  0.25500000000E-02 0.  1.
          2    1    1    2    0  502  0.11466303977E+02 -0.18250403448E+02  0.17839013220E+02  0.27978272857E+02  0.25500000000E-02 0.  1.
         -2    1    1    2  502    0 -0.11466303977E+02  0.18250403448E+02  0.19331384253E+03  0.19451168364E+03  0.25500000000E-02 0.  1.
<mgrwt>
<rscale>  0 0.70115991E+02</rscale>
<asrwt>0</asrwt>
<pdfrwt beam="1">  1        2 0.33357138E-01 0.70115991E+02</pdfrwt>
<pdfrwt beam="2">  1       -2 0.87208472E-03 0.70115991E+02</pdfrwt>
<totfact> 0.31906264E+05</totfact>
</mgrwt>
</event>
<event>
 4    1  0.4635140E-002  0.6695430E+02  0.7818608E-02  0.1370767E+00
         -2   -1    0    0  501    0 -0.00000000000E+00  0.00000000000E+00  0.16375209382E+01  0.16375229237E+01  0.25500000000E-02 0.  1.
          2   -1    0    0    0  501  0.00000000000E+00 -0.00000000000E+00 -0.68439968867E+03  0.68439968868E+03  0.25500000000E-02 0.  1.
          2    1    1    2    0  502 -0.61532359170E+01 -0.31993389760E+02 -0.42027146018E+03  0.42153237070E+03  0.25500000000E-02 0.  1.
         -2    1    1    2  502    0  0.61532359170E+01  0.31993389760E+02 -0.26249070756E+03  0.26450484090E+03  0.25500000000E-02 0.  1.
<mgrwt>
<rscale>  0 0.66954298E+02</rscale>
<asrwt>0</asrwt>
<pdfrwt beam="2">  1        2 0.10529203E+00 0.66954298E+02</pdfrwt>
<pdfrwt beam="1">  1       -2 0.25192700E-03 0.66954298E+02</pdfrwt>
<totfact> 0.52582992E+05</totfact>
</mgrwt>
</event>
<event>
 4    1  0.4635140E-002  0.4998598E+02  0.7818608E-02  0.1445417E+00
          2   -1    0    0    0  501  0.00000000000E+00  0.00000000000E+00  0.93879089622E+03  0.93879089622E+03  0.25500000000E-02 0. -1.
         -2   -1    0    0  501    0 -0.00000000000E+00 -0.00000000000E+00 -0.66537433527E+00  0.66537922160E+00  0.25500000000E-02 0. -1.
          2    1    1    2    0  502  0.71019660191E+01 -0.23908774551E+02  0.49926411206E+03  0.49988670819E+03  0.25500000000E-02 0. -1.
         -2    1    1    2  502    0 -0.71019660191E+01  0.23908774551E+02  0.43886140982E+03  0.43956956726E+03  0.25500000000E-02 0. -1.
<mgrwt>
<rscale>  0 0.49985985E+02</rscale>
<asrwt>0</asrwt>
<pdfrwt beam="1">  1        2 0.14442934E+00 0.49985985E+02</pdfrwt>
<pdfrwt beam="2">  1       -2 0.10236568E-03 0.49985985E+02</pdfrwt>
<totfact> 0.11539367E+06</totfact>
</mgrwt>
</event>
<event>
 4    1  0.4635140E-002  0.5454975E+02  0.7818608E-02  0.1422240E+00
         -2   -1    0    0  501    0 -0.00000000000E+00  0.00000000000E+00  0.11555921529E+02  0.11555921811E+02  0.25500000000E-02 0. -1.
          2   -1    0    0    0  501  0.00000000000E+00 -0.00000000000E+00 -0.64375553197E+02  0.64375553247E+02  0.25500000000E-02 0. -1.
          2    1    1    2    0  502  0.74321461677E+01 -0.25969595545E+02 -0.21153013136E+02  0.34308988045E+02  0.25500000000E-02 0.  1.
         -2    1    1    2  502    0 -0.74321461677E+01  0.25969595545E+02 -0.31666618532E+02  0.41622487013E+02  0.25500000000E-02 0.  1.
<mgrwt>
<rscale>  0 0.54549752E+02</rscale>
<asrwt>0</asrwt>
<pdfrwt beam="2">  1        2 0.99039311E-02 0.54549752E+02</pdfrwt>
<pdfrwt beam="1">  1       -2 0.17778341E-02 0.54549752E+02</pdfrwt>
<totfact> 0.43135051E+05</totfact>
</mgrwt>
</event>
<event>
 4    1  0.4635140E-002  0.5594663E+02  0.7818608E-02  0.1415675E+00
          2   -1    0    0    0  501  0.00000000000E+00  0.00000000000E+00  0.10658926362E+04  0.10658926362E+04  0.25500000000E-02 0. -1.
         -2   -1    0    0  501    0 -0.00000000000E+00 -0.00000000000E+00 -0.73413015365E+00  0.73413458234E+00  0.25500000000E-02 0. -1.
          2    1    1    2    0  502  0.11696486743E+02 -0.16772899217E+02  0.16865677770E+03  0.16989186743E+03  0.25500000000E-02 0. -1.
         -2    1    1    2  502    0 -0.11696486743E+02  0.16772899217E+02  0.89650172838E+03  0.89673490338E+03  0.25500000000E-02 0. -1.
<mgrwt>
<rscale>  0 0.55946628E+02</rscale>
<asrwt>0</asrwt>
<pdfrwt beam="1">  1        2 0.16398314E+00 0.55946628E+02</pdfrwt>
<pdfrwt beam="2">  1       -2 0.11294368E-03 0.55946628E+02</pdfrwt>
<totfact> 0.87697391E+05</totfact>
</mgrwt>
</event>
<event>
 4    1  0.4635140E-002  0.5996889E+02  0.7818608E-02  0.1397962E+00
          2   -1    0    0    0  501  0.00000000000E+00  0.00000000000E+00  0.26174717435E+04  0.26174717435E+04  0.25500000000E-02 0.  1.
         -2   -1    0    0  501    0 -0.00000000000E+00 -0.00000000000E+00 -0.34348209263E+00  0.34349155806E+00  0.25500000000E-02 0.  1.
          2    1    1    2    0  502 -0.14900878523E+02 -0.25856349592E+02  0.11814445508E+04  0.11818213967E+04  0.25500000000E-02 0.  1.
         -2    1    1    2  502    0  0.14900878523E+02  0.25856349592E+02  0.14356837106E+04  0.14359938384E+04  0.25500000000E-02 0.  1.
<mgrwt>
<rscale>  0 0.59968894E+02</rscale>
<asrwt>0</asrwt>
<pdfrwt beam="1">  1        2 0.40268213E+00 0.59968894E+02</pdfrwt>
<pdfrwt beam="2">  1       -2 0.52844892E-04 0.59968894E+02</pdfrwt>
<totfact> 0.40914728E+05</totfact>
</mgrwt>
</event>
<event>
 4    1  0.4635140E-002  0.5441919E+02  0.7818608E-02  0.1422866E+00
         -2   -1    0    0  501    0 -0.00000000000E+00  0.00000000000E+00  0.66470715439E+01  0.66470720330E+01  0.25500000000E-02 0. -1.
          2   -1    0    0    0  501  0.00000000000E+00 -0.00000000000E+00 -0.11138169994E+03  0.11138169997E+03  0.25500000000E-02 0. -1.
          2    1    1    2    0  502  0.15552155757E+02  0.22272558821E+02 -0.55745291763E+02  0.62011885839E+02  0.25500000000E-02 0. -1.
         -2    1    1    2  502    0 -0.15552155757E+02 -0.22272558821E+02 -0.48989336634E+02  0.56016886163E+02  0.25500000000E-02 0. -1.
<mgrwt>
<rscale>  0 0.54419194E+02</rscale>
<asrwt>0</asrwt>
<pdfrwt beam="2">  1        2 0.17135645E-01 0.54419194E+02</pdfrwt>
<pdfrwt beam="1">  1       -2 0.10226265E-02 0.54419194E+02</pdfrwt>
<totfact> 0.49682204E+05</totfact>
</mgrwt>
</event>
<event>
 4    1  0.4635140E-002  0.6231210E+02  0.7818608E-02  0.1388377E+00
          2   -1    0    0    0  501  0.00000000000E+00  0.00000000000E+00  0.49280381386E+03  0.49280381387E+03  0.25500000000E-02 0.  1.
         -2   -1    0    0  501    0 -0.00000000000E+00 -0.00000000000E+00 -0.19697472576E+01  0.19697489082E+01  0.25500000000E-02 0.  1.
          2    1    1    2    0  502  0.58855121552E+01  0.23433102890E+02  0.89224082585E+02  0.92437473376E+02  0.25500000000E-02 0. -1.
         -2    1    1    2  502    0 -0.58855121552E+01 -0.23433102890E+02  0.40160998402E+03  0.40233608940E+03  0.25500000000E-02 0. -1.
<mgrwt>
<rscale>  0 0.62312097E+02</rscale>
<asrwt>0</asrwt>
<pdfrwt beam="1">  1        2 0.75816039E-01 0.62312097E+02</pdfrwt>
<pdfrwt beam="2">  1       -2 0.30303790E-03 0.62312097E+02</pdfrwt>
<totfact> 0.57570595E+05</totfact>
</mgrwt>
</event>
<event>
 4    1  0.4635140E-002  0.4845912E+02  0.7818608E-02  0.1453834E+00
          2   -1    0    0    0  501  0.00000000000E+00  0.00000000000E+00  0.31487680496E+03  0.31487680497E+03  0.25500000000E-02 0.  1.
         -2   -1    0    0  501    0 -0.00000000000E+00 -0.00000000000E+00 -0.18644476760E+01  0.18644494198E+01  0.25500000000E-02 0.  1.
          2    1    1    2    0  502  0.79479518813E+01  0.22031331828E+02  0.11593814588E+03  0.11828018937E+03  0.25500000000E-02 0. -1.
         -2    1    1    2  502    0 -0.79479518813E+01 -0.22031331828E+02  0.19707421140E+03  0.19846106502E+03  0.25500000000E-02 0. -1.
<mgrwt>
<rscale>  0 0.48459121E+02</rscale>
<asrwt>0</asrwt>
<pdfrwt beam="1">  1        2 0.48442639E-01 0.48459121E+02</pdfrwt>
<pdfrwt beam="2">  1       -2 0.28683792E-03 0.48459121E+02</pdfrwt>
<totfact> 0.92986580E+05</totfact>
</mgrwt>
</event>
<event>
 4    1  0.4635140E-002  0.1256893E+03  0.7818608E-02  0.1233996E+00
         -2   -1    0    0  501    0 -0.00000000000E+00  0.00000000000E+00  0.54257445135E+02  0.54257445195E+02  0.25500000000E-02 0.  1.
          2   -1    0    0    0  501  0.00000000000E+00 -0.00000000000E+00 -0.72790888602E+02  0.72790888647E+02  0.25500000000E-02 0.  1.
          2    1    1    2    0  502  0.60353714969E+02 -0.10974913943E+02 -0.23068224139E+02  0.65537490172E+02  0.25500000000E-02 0. -1.
         -2    1    1    2  502    0 -0.60353714969E+02  0.10974913943E+02  0.45347806710E+01  0.61510843669E+02  0.25500000000E-02 0. -1.
<mgrwt>
<rscale>  0 0.12568926E+03</rscale>
<asrwt>0</asrwt>
<pdfrwt beam="2">  1        2 0.11198598E-01 0.12568926E+03</pdfrwt>
<pdfrwt beam="1">  1       -2 0.83472993E-02 0.12568926E+03</pdfrwt>
<totfact> 0.44413905E+04</totfact>
</mgrwt>
</event>
<event>
 4    1  0.4635140E-002  0.5072081E+02  0.7818608E-02  0.1441492E+00
         -2   -1    0    0  501    0 -0.00000000000E+00  0.00000000000E+00  0.25247154780E+00  0.25248442516E+00  0.25500000000E-02 0.  1.
          2   -1    0    0    0  501  0.00000000000E+00 -0.00000000000E+00 -0.25473508867E+04  0.25473508867E+04  0.25500000000E-02 0.  1.
          2    1    1    2    0  502 -0.24168664458E+02 -0.74518161514E+01 -0.11796334524E+04  0.11799045452E+04  0.25500000000E-02 0. -1.
         -2    1    1    2  502    0  0.24168664458E+02  0.74518161514E+01 -0.13674649628E+04  0.13676988259E+04  0.25500000000E-02 0. -1.
<mgrwt>
<rscale>  0 0.50720805E+02</rscale>
<asrwt>0</asrwt>
<pdfrwt beam="2">  1        2 0.39187956E+00 0.50720805E+02</pdfrwt>
<pdfrwt beam="1">  1       -2 0.38844807E-04 0.50720805E+02</pdfrwt>
<totfact> 0.65620193E+05</totfact>
</mgrwt>
</event>
<event>
 4    1  0.4635140E-002  0.5241866E+02  0.7818608E-02  0.1432716E+00
         -2   -1    0    0  501    0 -0.00000000000E+00  0.00000000000E+00  0.43909368951E+02  0.43909369025E+02  0.25500000000E-02 0. -1.
          2   -1    0    0    0  501  0.00000000000E+00 -0.00000000000E+00 -0.15644247163E+02  0.15644247371E+02  0.25500000000E-02 0. -1.
          2    1    1    2    0  502  0.12231065029E+02 -0.19843400340E+02  0.27745545506E+02  0.36237753666E+02  0.25500000000E-02 0.  1.
         -2    1    1    2  502    0 -0.12231065029E+02  0.19843400340E+02  0.51957628072E+00  0.23315862730E+02  0.25500000000E-02 0.  1.
<mgrwt>
<rscale>  0 0.52418662E+02</rscale>
<asrwt>0</asrwt>
<pdfrwt beam="2">  1        2 0.24068073E-02 0.52418662E+02</pdfrwt>
<pdfrwt beam="1">  1       -2 0.67552875E-02 0.52418662E+02</pdfrwt>
<totfact> 0.37236098E+05</totfact>
</mgrwt>
</event>
<event>
 4    1  0.4635140E-002  0.6264613E+02  0.7818608E-02  0.1387051E+00
         -2   -1    0    0  501    0 -0.00000000000E+00  0.00000000000E+00  0.14272489830E+01  0.14272512609E+01  0.25500000000E-02 0.  1.
          2   -1    0    0    0  501  0.00000000000E+00 -0.00000000000E+00 -0.68742996522E+03  0.68742996522E+03  0.25500000000E-02 0.  1.
          2    1    1    2    0  502 -0.39110606529E+01 -0.29990559910E+02 -0.25339611269E+03  0.25519467081E+03  0.25500000000E-02 0.  1.
         -2    1    1    2  502    0  0.39110606529E+01  0.29990559910E+02 -0.43260660355E+03  0.43366254567E+03  0.25500000000E-02 0.  1.
<mgrwt>
<rscale>  0 0.62646133E+02</rscale>
<asrwt>0</asrwt>
<pdfrwt beam="2">  1        2 0.10575819E+00 0.62646133E+02</pdfrwt>
<pdfrwt beam="1">  1       -2 0.21957749E-03 0.62646133E+02</pdfrwt>
<totfact> 0.62342278E+05</totfact>
</mgrwt>
</event>
<event>
 4    1  0.4635140E-002  0.5351304E+02  0.7818608E-02  0.1427265E+00
          2   -1    0    0    0  501  0.00000000000E+00  0.00000000000E+00  0.63759629142E+03  0.63759629143E+03  0.25500000000E-02 0. -1.
         -2   -1    0    0  501    0 -0.00000000000E+00 -0.00000000000E+00 -0.11228272331E+01  0.11228301287E+01  0.25500000000E-02 0. -1.
          2    1    1    2    0  502  0.25575465449E+02 -0.65188282892E+01  0.26578471934E+03  0.26709196281E+03  0.25500000000E-02 0.  1.
         -2    1    1    2  502    0 -0.25575465449E+02  0.65188282892E+01  0.37068874485E+03  0.37162715875E+03  0.25500000000E-02 0.  1.
<mgrwt>
<rscale>  0 0.53513042E+02</rscale>
<asrwt>0</asrwt>
<pdfrwt beam="1">  1        2 0.98091970E-01 0.53513042E+02</pdfrwt>
<pdfrwt beam="2">  1       -2 0.17274247E-03 0.53513042E+02</pdfrwt>
<totfact> 0.90936750E+05</totfact>
</mgrwt>
</event>
<event>
 4    1  0.4635140E-002  0.7269052E+02  0.7818608E-02  0.1351176E+00
         -2   -1    0    0  501    0 -0.00000000000E+00  0.00000000000E+00  0.14317707988E+02  0.14317708215E+02  0.25500000000E-02 0.  1.
          2   -1    0    0    0  501  0.00000000000E+00 -0.00000000000E+00 -0.92261830346E+02  0.92261830381E+02  0.25500000000E-02 0.  1.
          2    1    1    2    0  502  0.13141710122E+02 -0.24895543075E+02 -0.72678473407E+02  0.77940061029E+02  0.25500000000E-02 0.  1.
         -2    1    1    2  502    0 -0.13141710122E+02  0.24895543075E+02 -0.52656489503E+01  0.28639477567E+02  0.25500000000E-02 0.  1.
<mgrwt>
<rscale>  0 0.72690521E+02</rscale>
<asrwt>0</asrwt>
<pdfrwt beam="2">  1        2 0.14194127E-01 0.72690521E+02</pdfrwt>
<pdfrwt beam="1">  1       -2 0.22027244E-02 0.72690521E+02</pdfrwt>
<totfact> 0.22150946E+05</totfact>
</mgrwt>
</event>
<event>
 4    1  0.4635140E-002  0.7228574E+02  0.7818608E-02  0.1352488E+00
          2   -1    0    0    0  501  0.00000000000E+00  0.00000000000E+00  0.10589823084E+04  0.10589823084E+04  0.25500000000E-02 0.  1.
         -2   -1    0    0  501    0 -0.00000000000E+00 -0.00000000000E+00 -0.12335480604E+01  0.12335506961E+01  0.25500000000E-02 0.  1.
          2    1    1    2    0  502 -0.17228249876E+02 -0.28501771527E+02  0.73481062511E+03  0.73556496542E+03  0.25500000000E-02 0.  1.
         -2    1    1    2  502    0  0.17228249876E+02  0.28501771527E+02  0.32293813527E+03  0.32465089372E+03  0.25500000000E-02 0.  1.
<mgrwt>
<rscale>  0 0.72285738E+02</rscale>
<asrwt>0</asrwt>
<pdfrwt beam="1">  1        2 0.16291986E+00 0.72285738E+02</pdfrwt>
<pdfrwt beam="2">  1       -2 0.18977741E-03 0.72285738E+02</pdfrwt>
<totfact> 0.45801287E+05</totfact>
</mgrwt>
</event>
<event>
 4    1  0.4635140E-002  0.4275325E+02  0.7818608E-02  0.1488876E+00
          2   -1    0    0    0  501  0.00000000000E+00  0.00000000000E+00  0.10512386714E+04  0.10512386714E+04  0.25500000000E-02 0.  1.
         -2   -1    0    0  501    0 -0.00000000000E+00 -0.00000000000E+00 -0.43468351882E+00  0.43469099834E+00  0.25500000000E-02 0.  1.
          2    1    1    2    0  502  0.57534028349E+01  0.20511579464E+02  0.48185805010E+03  0.48232873332E+03  0.25500000000E-02 0. -1.
         -2    1    1    2  502    0 -0.57534028349E+01 -0.20511579464E+02  0.56894593781E+03  0.56934462910E+03  0.25500000000E-02 0. -1.
<mgrwt>
<rscale>  0 0.42753248E+02</rscale>
<asrwt>0</asrwt>
<pdfrwt beam="1">  1        2 0.16172941E+00 0.42753248E+02</pdfrwt>
<pdfrwt beam="2">  1       -2 0.66874805E-04 0.42753248E+02</pdfrwt>
<totfact> 0.17001743E+06</totfact>
</mgrwt>
</event>
<event>
 4    1  0.4635140E-002  0.1149902E+03  0.7818608E-02  0.1251598E+00
          2   -1    0    0    0  501  0.00000000000E+00  0.00000000000E+00  0.23208139962E+04  0.23208139962E+04  0.25500000000E-02 0. -1.
         -2   -1    0    0  501    0 -0.00000000000E+00 -0.00000000000E+00 -0.14243642108E+01  0.14243664934E+01  0.25500000000E-02 0. -1.
          2    1    1    2    0  502  0.20121558035E+02  0.33929326574E+02  0.31496728319E+03  0.31742789069E+03  0.25500000000E-02 0.  1.
         -2    1    1    2  502    0 -0.20121558035E+02 -0.33929326574E+02  0.20044223488E+04  0.20048104720E+04  0.25500000000E-02 0.  1.
<mgrwt>
<rscale>  0 0.11499021E+03</rscale>
<asrwt>0</asrwt>
<pdfrwt beam="1">  1        2 0.35704387E+00 0.11499021E+03</pdfrwt>
<pdfrwt beam="2">  1       -2 0.21913585E-03 0.11499021E+03</pdfrwt>
<totfact> 0.89221803E+04</totfact>
</mgrwt>
</event>
<event>
 4    1  0.4635140E-002  0.4275980E+02  0.7818608E-02  0.1488832E+00
          2   -1    0    0    0  501  0.00000000000E+00  0.00000000000E+00  0.39408206417E+02  0.39408206499E+02  0.25500000000E-02 0.  1.
         -2   -1    0    0  501    0 -0.00000000000E+00 -0.00000000000E+00 -0.11599110249E+02  0.11599110530E+02  0.25500000000E-02 0.  1.
          2    1    1    2    0  502  0.19273154001E+02  0.83121206222E+01  0.90510767222E+01  0.22857554785E+02  0.25500000000E-02 0. -1.
         -2    1    1    2  502    0 -0.19273154001E+02 -0.83121206222E+01  0.18758019445E+02  0.28149762244E+02  0.25500000000E-02 0. -1.
<mgrwt>
<rscale>  0 0.42759801E+02</rscale>
<asrwt>0</asrwt>
<pdfrwt beam="1">  1        2 0.60628011E-02 0.42759801E+02</pdfrwt>
<pdfrwt beam="2">  1       -2 0.17844785E-02 0.42759801E+02</pdfrwt>
<totfact> 0.73332361E+05</totfact>
</mgrwt>
</event>
<event>
 4    1  0.4635140E-002  0.4128862E+02  0.7818608E-02  0.1498937E+00
         -2   -1    0    0  501    0 -0.00000000000E+00  0.00000000000E+00  0.49886424875E+01  0.49886431393E+01  0.25500000000E-02 0.  1.
          2   -1    0    0    0  501  0.00000000000E+00 -0.00000000000E+00 -0.85431574694E+02  0.85431574733E+02  0.25500000000E-02 0.  1.
          2    1    1    2    0  502 -0.89248250133E+01  0.18043478704E+02 -0.50249446267E+02  0.54131566409E+02  0.25500000000E-02 0. -1.
         -2    1    1    2  502    0  0.89248250133E+01 -0.18043478704E+02 -0.30193485940E+02  0.36288651463E+02  0.25500000000E-02 0. -1.
<mgrwt>
<rscale>  0 0.41288624E+02</rscale>
<asrwt>0</asrwt>
<pdfrwt beam="2">  1        2 0.13143318E-01 0.41288624E+02</pdfrwt>
<pdfrwt beam="1">  1       -2 0.76748358E-03 0.41288624E+02</pdfrwt>
<totfact> 0.93013040E+05</totfact>
</mgrwt>
</event>
<event>
 4    1  0.4635140E-002  0.8660234E+02  0.7818608E-02  0.1311295E+00
          2   -1    0    0    0  501  0.00000000000E+00  0.00000000000E+00  0.21486104261E+02  0.21486104412E+02  0.25500000000E-02 0.  1.
         -2   -1    0    0  501    0 -0.00000000000E+00 -0.00000000000E+00 -0.87265303351E+02  0.87265303389E+02  0.25500000000E-02 0.  1.
          2    1    1    2    0  502  0.10051913638E+02 -0.35311796150E+02 -0.40611101268E+01  0.36938550825E+02  0.25500000000E-02 0.  1.
         -2    1    1    2  502    0 -0.10051913638E+02  0.35311796150E+02 -0.61718088964E+02  0.71812856975E+02  0.25500000000E-02 0.  1.
<mgrwt>
<rscale>  0 0.86602342E+02</rscale>
<asrwt>0</asrwt>
<pdfrwt beam="1">  1        2 0.33055546E-02 0.86602342E+02</pdfrwt>
<pdfrwt beam="2">  1       -2 0.13425431E-01 0.86602342E+02</pdfrwt>
<totfact> 0.94288166E+04</totfact>
</mgrwt>
</event>
<event>
 4    1  0.4635140E-002  0.4978434E+02  0.7818608E-02  0.1446508E+00
          2   -1    0    0    0  501  0.00000000000E+00  0.00000000000E+00  0.81803909647E+03  0.81803909648E+03  0.25500000000E-02 0.  1.
         -2   -1    0    0  501    0 -0.00000000000E+00 -0.00000000000E+00 -0.75744332909E+00  0.75744762148E+00  0.25500000000E-02 0.  1.
          2    1    1    2    0  502 -0.15017125339E+02  0.15158125514E+02  0.61947995382E+03  0.61984731670E+03  0.25500000000E-02 0.  1.
         -2    1    1    2  502    0  0.15017125339E+02 -0.15158125514E+02  0.19780169932E+03  0.19894922740E+03  0.25500000000E-02 0.  1.
<mgrwt>
<rscale>  0 0.49784336E+02</rscale>
<asrwt>0</asrwt>
<pdfrwt beam="1">  1        2 0.12585172E+00 0.49784336E+02</pdfrwt>
<pdfrwt beam="2">  1       -2 0.11653049E-03 0.49784336E+02</pdfrwt>
<totfact> 0.11459760E+06</totfact>
</mgrwt>
</event>
<event>
 4    1  0.4635140E-002  0.4790937E+02  0.7818608E-02  0.1456955E+00
          2   -1    0    0    0  501  0.00000000000E+00  0.00000000000E+00  0.56016373571E+03  0.56016373571E+03  0.25500000000E-02 0.  1.
         -2   -1    0    0  501    0 -0.00000000000E+00 -0.00000000000E+00 -0.10243896440E+01  0.10243928178E+01  0.25500000000E-02 0.  1.
          2    1    1    2    0  502 -0.16975621149E+02  0.14476962471E+02  0.17740462165E+03  0.17880199648E+03  0.25500000000E-02 0.  1.
         -2    1    1    2  502    0  0.16975621149E+02 -0.14476962471E+02  0.38173472441E+03  0.38238613205E+03  0.25500000000E-02 0.  1.
<mgrwt>
<rscale>  0 0.47909365E+02</rscale>
<asrwt>0</asrwt>
<pdfrwt beam="1">  1        2 0.86179113E-01 0.47909365E+02</pdfrwt>
<pdfrwt beam="2">  1       -2 0.15759851E-03 0.47909365E+02</pdfrwt>
<totfact> 0.11544264E+06</totfact>
</mgrwt>
</event>
<event>
 4    1  0.4635140E-002  0.7953009E+02  0.7818608E-02  0.1330390E+00
         -2   -1    0    0  501    0 -0.00000000000E+00  0.00000000000E+00  0.15419728194E+02  0.15419728405E+02  0.25500000000E-02 0. -1.
          2   -1    0    0    0  501  0.00000000000E+00 -0.00000000000E+00 -0.10254777443E+03  0.10254777446E+03  0.25500000000E-02 0. -1.
          2    1    1    2    0  502 -0.32240313447E+02  0.20303349124E+00 -0.90383378577E+01  0.33483885550E+02  0.25500000000E-02 0.  1.
         -2    1    1    2  502    0  0.32240313447E+02 -0.20303349124E+00 -0.78089708379E+02  0.84483617317E+02  0.25500000000E-02 0.  1.
<mgrwt>
<rscale>  0 0.79530090E+02</rscale>
<asrwt>0</asrwt>
<pdfrwt beam="2">  1        2 0.15776580E-01 0.79530090E+02</pdfrwt>
<pdfrwt beam="1">  1       -2 0.23722660E-02 0.79530090E+02</pdfrwt>
<totfact> 0.17932812E+05</totfact>
</mgrwt>
</event>
<event>
 4    1  0.4635140E-002  0.4626014E+02  0.7818608E-02  0.1466625E+00
         -2   -1    0    0  501    0 -0.00000000000E+00  0.00000000000E+00  0.39997839599E+03  0.39997839600E+03  0.25500000000E-02 0. -1.
          2   -1    0    0    0  501  0.00000000000E+00 -0.00000000000E+00 -0.13375712834E+01  0.13375737141E+01  0.25500000000E-02 0. -1.
          2    1    1    2    0  502 -0.14877343059E+02 -0.17003662839E+02  0.24229568841E+03  0.24334679064E+03  0.25500000000E-02 0.  1.
         -2    1    1    2  502    0  0.14877343059E+02  0.17003662839E+02  0.15634513630E+03  0.15796917907E+03  0.25500000000E-02 0.  1.
<mgrwt>
<rscale>  0 0.46260139E+02</rscale>
<asrwt>0</asrwt>
<pdfrwt beam="2">  1        2 0.20578008E-03 0.46260139E+02</pdfrwt>
<pdfrwt beam="1">  1       -2 0.61535229E-01 0.46260139E+02</pdfrwt>
<totfact> 0.23566270E+05</totfact>
</mgrwt>
</event>
<event>
 4    1  0.4635140E-002  0.4199068E+02  0.7818608E-02  0.1494053E+00
          2   -1    0    0    0  501  0.00000000000E+00  0.00000000000E+00  0.31606986924E+01  0.31606997210E+01  0.25500000000E-02 0.  1.
         -2   -1    0    0  501    0 -0.00000000000E+00 -0.00000000000E+00 -0.13946415621E+03  0.13946415623E+03  0.25500000000E-02 0.  1.
          2    1    1    2    0  502 -0.19729675768E+02  0.35642598816E+01 -0.46983573585E+02  0.51082484745E+02  0.25500000000E-02 0. -1.
         -2    1    1    2  502    0  0.19729675768E+02 -0.35642598816E+01 -0.89319883934E+02  0.91542371211E+02  0.25500000000E-02 0. -1.
<mgrwt>
<rscale>  0 0.41990678E+02</rscale>
<asrwt>0</asrwt>
<pdfrwt beam="1">  1        2 0.48626153E-03 0.41990678E+02</pdfrwt>
<pdfrwt beam="2">  1       -2 0.21456019E-01 0.41990678E+02</pdfrwt>
<totfact> 0.49112005E+05</totfact>
</mgrwt>
</event>
<event>
 4    1  0.4635140E-002  0.4256478E+02  0.7818608E-02  0.1490143E+00
          2   -1    0    0    0  501  0.00000000000E+00  0.00000000000E+00  0.24265636717E+04  0.24265636717E+04  0.25500000000E-02 0.  1.
         -2   -1    0    0  501    0 -0.00000000000E+00 -0.00000000000E+00 -0.18665035431E+00  0.18666777243E+00  0.25500000000E-02 0.  1.
          2    1    1    2    0  502  0.20063851628E+02  0.66626944438E+01  0.10736465623E+04  0.10738546877E+04  0.25500000000E-02 0.  1.
         -2    1    1    2  502    0 -0.20063851628E+02 -0.66626944438E+01  0.13527304590E+04  0.13528956517E+04  0.25500000000E-02 0.  1.
<mgrwt>
<rscale>  0 0.42564779E+02</rscale>
<asrwt>0</asrwt>
<pdfrwt beam="1">  1        2 0.37333604E+00 0.42564779E+02</pdfrwt>
<pdfrwt beam="2">  1       -2 0.28715352E-04 0.42564779E+02</pdfrwt>
<totfact> 0.10967290E+06</totfact>
</mgrwt>
</event>
<event>
 4    1  0.4635140E-002  0.4237465E+02  0.7818608E-02  0.1491430E+00
          2   -1    0    0    0  501  0.00000000000E+00  0.00000000000E+00  0.95130709343E+02  0.95130709377E+02  0.25500000000E-02 0. -1.
         -2   -1    0    0  501    0 -0.00000000000E+00 -0.00000000000E+00 -0.47187999343E+01  0.47188006233E+01  0.25500000000E-02 0. -1.
          2    1    1    2    0  502  0.11241423673E+02  0.17915284781E+02  0.42248027289E+02  0.47246405697E+02  0.25500000000E-02 0.  1.
         -2    1    1    2  502    0 -0.11241423673E+02 -0.17915284781E+02  0.48163882120E+02  0.52603104304E+02  0.25500000000E-02 0.  1.
<mgrwt>
<rscale>  0 0.42374654E+02</rscale>
<asrwt>0</asrwt>
<pdfrwt beam="1">  1        2 0.14635494E-01 0.42374654E+02</pdfrwt>
<pdfrwt beam="2">  1       -2 0.72596926E-03 0.42374654E+02</pdfrwt>
<totfact> 0.89506864E+05</totfact>
</mgrwt>
</event>
<event>
 4    1  0.4635140E-002  0.6395332E+02  0.7818608E-02  0.1381953E+00
          2   -1    0    0    0  501  0.00000000000E+00  0.00000000000E+00  0.18781173436E+02  0.18781173610E+02  0.25500000000E-02 0. -1.
         -2   -1    0    0  501    0 -0.00000000000E+00 -0.00000000000E+00 -0.54443174809E+02  0.54443174868E+02  0.25500000000E-02 0. -1.
          2    1    1    2    0  502 -0.28025741806E+02  0.15396875156E+02 -0.17862192798E+02  0.36627365540E+02  0.25500000000E-02 0. -1.
         -2    1    1    2  502    0  0.28025741806E+02 -0.15396875156E+02 -0.17799808574E+02  0.36596982938E+02  0.25500000000E-02 0. -1.
<mgrwt>
<rscale>  0 0.63953318E+02</rscale>
<asrwt>0</asrwt>
<pdfrwt beam="1">  1        2 0.28894113E-02 0.63953318E+02</pdfrwt>
<pdfrwt beam="2">  1       -2 0.83758730E-02 0.63953318E+02</pdfrwt>
<totfact> 0.22159124E+05</totfact>
</mgrwt>
</event>
<event>
 4    1  0.4635140E-002  0.7092931E+02  0.7818608E-02  0.1356961E+00
          2   -1    0    0    0  501  0.00000000000E+00  0.00000000000E+00  0.39636579496E+03  0.39636579497E+03  0.25500000000E-02 0.  1.
         -2   -1    0    0  501    0 -0.00000000000E+00 -0.00000000000E+00 -0.31731837324E+01  0.31731847570E+01  0.25500000000E-02 0.  1.
          2    1    1    2    0  502 -0.19396763697E+02 -0.21458182691E+02  0.81011127389E+02  0.86020293034E+02  0.25500000000E-02 0.  1.
         -2    1    1    2  502    0  0.19396763697E+02  0.21458182691E+02  0.31218148384E+03  0.31351868670E+03  0.25500000000E-02 0.  1.
<mgrwt>
<rscale>  0 0.70929308E+02</rscale>
<asrwt>0</asrwt>
<pdfrwt beam="1">  1        2 0.60979365E-01 0.70929308E+02</pdfrwt>
<pdfrwt beam="2">  1       -2 0.48818210E-03 0.70929308E+02</pdfrwt>
<totfact> 0.38409594E+05</totfact>
</mgrwt>
</event>
<event>
 4    1  0.4635140E-002  0.4125623E+02  0.7818608E-02  0.1499165E+00
         -2   -1    0    0  501    0 -0.00000000000E+00  0.00000000000E+00  0.15683277969E+00  0.15685350900E+00  0.25500000000E-02 0.  1.
          2   -1    0    0    0  501  0.00000000000E+00 -0.00000000000E+00 -0.27130236273E+04  0.27130236273E+04  0.25500000000E-02 0.  1.
          2    1    1    2    0  502  0.20504772888E+02 -0.10308197688E+01 -0.14881399790E+04  0.14882815948E+04  0.25500000000E-02 0. -1.
         -2    1    1    2  502    0 -0.20504772888E+02  0.10308197688E+01 -0.12247268156E+04  0.12248988861E+04  0.25500000000E-02 0. -1.
<mgrwt>
<rscale>  0 0.41256232E+02</rscale>
<asrwt>0</asrwt>
<pdfrwt beam="2">  1        2 0.41735067E+00 0.41256232E+02</pdfrwt>
<pdfrwt beam="1">  1       -2 0.24131887E-04 0.41256232E+02</pdfrwt>
<totfact> 0.98281527E+05</totfact>
</mgrwt>
</event>
<event>
 4    1  0.4635140E-002  0.1015367E+03  0.7818608E-02  0.1277097E+00
          2   -1    0    0    0  501  0.00000000000E+00  0.00000000000E+00  0.73530316771E+03  0.73530316772E+03  0.25500000000E-02 0. -1.
         -2   -1    0    0  501    0 -0.00000000000E+00 -0.00000000000E+00 -0.35052555486E+01  0.35052564761E+01  0.25500000000E-02 0. -1.
          2    1    1    2    0  502 -0.90617259664E+01  0.37554506081E+02  0.12622677602E+03  0.13200626801E+03  0.25500000000E-02 0.  1.
         -2    1    1    2  502    0  0.90617259664E+01 -0.37554506081E+02  0.60557113615E+03  0.60680215618E+03  0.25500000000E-02 0.  1.
<mgrwt>
<rscale>  0 0.10153671E+03</rscale>
<asrwt>0</asrwt>
<pdfrwt beam="1">  1        2 0.11312366E+00 0.10153671E+03</pdfrwt>
<pdfrwt beam="2">  1       -2 0.53926971E-03 0.10153671E+03</pdfrwt>
<totfact> 0.18024408E+05</totfact>
</mgrwt>
</event>
<event>
 4    1  0.4635140E-002  0.4355211E+02  0.7818608E-02  0.1483588E+00
          2   -1    0    0    0  501  0.00000000000E+00  0.00000000000E+00  0.44974005159E+02  0.44974005231E+02  0.25500000000E-02 0. -1.
         -2   -1    0    0  501    0 -0.00000000000E+00 -0.00000000000E+00 -0.10543791804E+02  0.10543792112E+02  0.25500000000E-02 0. -1.
          2    1    1    2    0  502  0.97224961401E+01 -0.18945671956E+02  0.11411011011E+02  0.24159399741E+02  0.25500000000E-02 0.  1.
         -2    1    1    2  502    0 -0.97224961401E+01  0.18945671956E+02  0.23019202344E+02  0.31358397601E+02  0.25500000000E-02 0.  1.
<mgrwt>
<rscale>  0 0.43552109E+02</rscale>
<asrwt>0</asrwt>
<pdfrwt beam="1">  1        2 0.69190778E-02 0.43552109E+02</pdfrwt>
<pdfrwt beam="2">  1       -2 0.16221218E-02 0.43552109E+02</pdfrwt>
<totfact> 0.71566537E+05</totfact>
</mgrwt>
</event>
<event>
 4    1  0.4635140E-002  0.4915459E+02  0.7818608E-02  0.1449956E+00
         -2   -1    0    0  501    0 -0.00000000000E+00  0.00000000000E+00  0.67743592491E+00  0.67744072424E+00  0.25500000000E-02 0.  1.
          2   -1    0    0    0  501  0.00000000000E+00 -0.00000000000E+00 -0.89165800655E+03  0.89165800655E+03  0.25500000000E-02 0.  1.
          2    1    1    2    0  502  0.52094547462E+01  0.21272364335E+02 -0.64795963491E+03  0.64832965410E+03  0.25500000000E-02 0. -1.
         -2    1    1    2  502    0 -0.52094547462E+01 -0.21272364335E+02 -0.24302093572E+03  0.24400579318E+03  0.25500000000E-02 0. -1.
<mgrwt>
<rscale>  0 0.49154585E+02</rscale>
<asrwt>0</asrwt>
<pdfrwt beam="2">  1        2 0.13717722E+00 0.49154585E+02</pdfrwt>
<pdfrwt beam="1">  1       -2 0.10422199E-03 0.49154585E+02</pdfrwt>
<totfact> 0.11965181E+06</totfact>
</mgrwt>
</event>
<event>
 4    1  0.4635140E-002  0.5206853E+02  0.7818608E-02  0.1434493E+00
          2   -1    0    0    0  501  0.00000000000E+00  0.00000000000E+00  0.33830100453E+02  0.33830100549E+02  0.25500000000E-02 0. -1.
         -2   -1    0    0  501    0 -0.00000000000E+00 -0.00000000000E+00 -0.20034910004E+02  0.20034910166E+02  0.25500000000E-02 0. -1.
          2    1    1    2    0  502 -0.25737035252E+02  0.30848456976E+01  0.43908186391E+01  0.26290503064E+02  0.25500000000E-02 0. -1.
         -2    1    1    2  502    0  0.25737035252E+02 -0.30848456976E+01  0.94043718099E+01  0.27574507651E+02  0.25500000000E-02 0. -1.
<mgrwt>
<rscale>  0 0.52068533E+02</rscale>
<asrwt>0</asrwt>
<pdfrwt beam="1">  1        2 0.52046308E-02 0.52068533E+02</pdfrwt>
<pdfrwt beam="2">  1       -2 0.30822939E-02 0.52068533E+02</pdfrwt>
<totfact> 0.43063626E+05</totfact>
</mgrwt>
</event>
<event>
 4    1  0.4635140E-002  0.7850567E+02  0.7818608E-02  0.1333346E+00
          2   -1    0    0    0  501  0.00000000000E+00  0.00000000000E+00  0.26158297510E+03  0.26158297512E+03  0.25500000000E-02 0.  1.
         -2   -1    0    0  501    0 -0.00000000000E+00 -0.00000000000E+00 -0.58902349233E+01  0.58902354752E+01  0.25500000000E-02 0.  1.
          2    1    1    2    0  502  0.38872458681E+02 -0.36579822380E+01  0.14161710031E+03  0.14690082364E+03  0.25500000000E-02 0.  1.
         -2    1    1    2  502    0 -0.38872458681E+02  0.36579822380E+01  0.11407563987E+03  0.12057238696E+03  0.25500000000E-02 0.  1.
<mgrwt>
<rscale>  0 0.78505675E+02</rscale>
<asrwt>0</asrwt>
<pdfrwt beam="1">  1        2 0.40243544E-01 0.78505675E+02</pdfrwt>
<pdfrwt beam="2">  1       -2 0.90618982E-03 0.78505675E+02</pdfrwt>
<totfact> 0.25386230E+05</totfact>
</mgrwt>
</event>
<event>
 4    1  0.4635140E-002  0.5838550E+02  0.7818608E-02  0.1404735E+00
         -2   -1    0    0  501    0 -0.00000000000E+00  0.00000000000E+00  0.25537898305E+01  0.25537911036E+01  0.25500000000E-02 0. -1.
          2   -1    0    0    0  501  0.00000000000E+00 -0.00000000000E+00 -0.33370661211E+03  0.33370661212E+03  0.25500000000E-02 0. -1.
          2    1    1    2    0  502  0.14487578699E+02  0.25145948362E+02 -0.14735648367E+03  0.15018702322E+03  0.25500000000E-02 0. -1.
         -2    1    1    2  502    0 -0.14487578699E+02 -0.25145948362E+02 -0.18379633861E+03  0.18607338001E+03  0.25500000000E-02 0. -1.
<mgrwt>
<rscale>  0 0.58385504E+02</rscale>
<asrwt>0</asrwt>
<pdfrwt beam="2">  1        2 0.51339444E-01 0.58385504E+02</pdfrwt>
<pdfrwt beam="1">  1       -2 0.39289111E-03 0.58385504E+02</pdfrwt>
<totfact> 0.59489920E+05</totfact>
</mgrwt>
</event>
<event>
 4    1  0.4635140E-002  0.6110721E+02  0.7818608E-02  0.1393243E+00
         -2   -1    0    0  501    0 -0.00000000000E+00  0.00000000000E+00  0.18806667163E+02  0.18806667336E+02  0.25500000000E-02 0.  1.
          2   -1    0    0    0  501  0.00000000000E+00 -0.00000000000E+00 -0.49637867280E+02  0.49637867345E+02  0.25500000000E-02 0.  1.
          2    1    1    2    0  502  0.22813070294E+02 -0.11047162423E+01  0.73157075073E+01  0.23982830464E+02  0.25500000000E-02 0. -1.
         -2    1    1    2  502    0 -0.22813070294E+02  0.11047162423E+01 -0.38146907624E+02  0.44461704218E+02  0.25500000000E-02 0. -1.
<mgrwt>
<rscale>  0 0.61107213E+02</rscale>
<asrwt>0</asrwt>
<pdfrwt beam="2">  1        2 0.76365949E-02 0.61107213E+02</pdfrwt>
<pdfrwt beam="1">  1       -2 0.28933335E-02 0.61107213E+02</pdfrwt>
<totfact> 0.30320384E+05</totfact>
</mgrwt>
</event>
<event>
 4    1  0.4635140E-002  0.5898287E+02  0.7818608E-02  0.1402150E+00
          2   -1    0    0    0  501  0.00000000000E+00  0.00000000000E+00  0.45331089744E+02  0.45331089815E+02  0.25500000000E-02 0. -1.
         -2   -1    0    0  501    0 -0.00000000000E+00 -0.00000000000E+00 -0.19186497211E+02  0.19186497381E+02  0.25500000000E-02 0. -1.
          2    1    1    2    0  502 -0.22913312923E+02 -0.12959125229E+02  0.27616036805E+02  0.38152383033E+02  0.25500000000E-02 0.  1.
         -2    1    1    2  502    0  0.22913312923E+02  0.12959125229E+02 -0.14714442724E+01  0.26365204163E+02  0.25500000000E-02 0.  1.
<mgrwt>
<rscale>  0 0.58982873E+02</rscale>
<asrwt>0</asrwt>
<pdfrwt beam="1">  1        2 0.69740138E-02 0.58982873E+02</pdfrwt>
<pdfrwt beam="2">  1       -2 0.29517688E-02 0.58982873E+02</pdfrwt>
<totfact> 0.32698130E+05</totfact>
</mgrwt>
</event>
<event>
 4    1  0.4635140E-002  0.4133303E+02  0.7818608E-02  0.1498625E+00
         -2   -1    0    0  501    0 -0.00000000000E+00  0.00000000000E+00  0.35845596894E+00  0.35846503897E+00  0.25500000000E-02 0.  1.
          2   -1    0    0    0  501  0.00000000000E+00 -0.00000000000E+00 -0.11914974725E+04  0.11914974725E+04  0.25500000000E-02 0.  1.
          2    1    1    2    0  502 -0.20442338969E+02 -0.20830124631E+01 -0.53189202273E+03  0.53228878630E+03  0.25500000000E-02 0. -1.
         -2    1    1    2  502    0  0.20442338969E+02  0.20830124631E+01 -0.65924699380E+03  0.65956715124E+03  0.25500000000E-02 0. -1.
<mgrwt>
<rscale>  0 0.41333027E+02</rscale>
<asrwt>0</asrwt>
<pdfrwt beam="2">  1        2 0.18330413E+00 0.41333027E+02</pdfrwt>
<pdfrwt beam="1">  1       -2 0.55148724E-04 0.41333027E+02</pdfrwt>
<totfact> 0.18361883E+06</totfact>
</mgrwt>
</event>
<event>
 4    1  0.4635140E-002  0.7435239E+02  0.7818608E-02  0.1345888E+00
         -2   -1    0    0  501    0 -0.00000000000E+00  0.00000000000E+00  0.10159299074E+02  0.10159299394E+02  0.25500000000E-02 0.  1.
          2   -1    0    0    0  501  0.00000000000E+00 -0.00000000000E+00 -0.13603986063E+03  0.13603986065E+03  0.25500000000E-02 0.  1.
          2    1    1    2    0  502  0.31555835192E+02  0.14228932833E+02 -0.36279942780E+02  0.50144466483E+02  0.25500000000E-02 0.  1.
         -2    1    1    2  502    0 -0.31555835192E+02 -0.14228932833E+02 -0.89600618774E+02  0.96054693563E+02  0.25500000000E-02 0.  1.
<mgrwt>
<rscale>  0 0.74352395E+02</rscale>
<asrwt>0</asrwt>
<pdfrwt beam="2">  1        2 0.20929208E-01 0.74352395E+02</pdfrwt>
<pdfrwt beam="1">  1       -2 0.15629692E-02 0.74352395E+02</pdfrwt>
<totfact> 0.23397502E+05</totfact>
</mgrwt>
</event>
<event>
 4    1  0.4635140E-002  0.5211436E+02  0.7818608E-02  0.1434260E+00
         -2   -1    0    0  501    0 -0.00000000000E+00  0.00000000000E+00  0.33634793253E+00  0.33635759872E+00  0.25500000000E-02 0.  1.
          2   -1    0    0    0  501  0.00000000000E+00 -0.00000000000E+00 -0.20186441533E+04  0.20186441533E+04  0.25500000000E-02 0.  1.
          2    1    1    2    0  502  0.19822127984E+02  0.15541815615E+02 -0.75068275002E+03  0.75110522297E+03  0.25500000000E-02 0. -1.
         -2    1    1    2  502    0 -0.19822127984E+02 -0.15541815615E+02 -0.12676250553E+04  0.12678752879E+04  0.25500000000E-02 0. -1.
<mgrwt>
<rscale>  0 0.52114357E+02</rscale>
<asrwt>0</asrwt>
<pdfrwt beam="2">  1        2 0.31055094E+00 0.52114357E+02</pdfrwt>
<pdfrwt beam="1">  1       -2 0.51748196E-04 0.52114357E+02</pdfrwt>
<totfact> 0.82296508E+05</totfact>
</mgrwt>
</event>
<event>
 4    1  0.4635140E-002  0.6683837E+02  0.7818608E-02  0.1371187E+00
          2   -1    0    0    0  501  0.00000000000E+00  0.00000000000E+00  0.89772120426E+03  0.89772120426E+03  0.25500000000E-02 0.  1.
         -2   -1    0    0  501    0 -0.00000000000E+00 -0.00000000000E+00 -0.12440843261E+01  0.12440869395E+01  0.25500000000E-02 0.  1.
          2    1    1    2    0  502  0.70306199728E+01 -0.32385969290E+02  0.39029266051E+03  0.39169712978E+03  0.25500000000E-02 0.  1.
         -2    1    1    2  502    0 -0.70306199728E+01  0.32385969290E+02  0.50618445942E+03  0.50726816142E+03  0.25500000000E-02 0.  1.
<mgrwt>
<rscale>  0 0.66838374E+02</rscale>
<asrwt>0</asrwt>
<pdfrwt beam="1">  1        2 0.13811107E+00 0.66838374E+02</pdfrwt>
<pdfrwt beam="2">  1       -2 0.19139763E-03 0.66838374E+02</pdfrwt>
<totfact> 0.55436680E+05</totfact>
</mgrwt>
</event>
<event>
 4    1  0.4635140E-002  0.5196518E+02  0.7818608E-02  0.1435021E+00
          2   -1    0    0    0  501  0.00000000000E+00  0.00000000000E+00  0.31726017979E+02  0.31726018082E+02  0.25500000000E-02 0. -1.
         -2   -1    0    0  501    0 -0.00000000000E+00 -0.00000000000E+00 -0.21278910017E+02  0.21278910170E+02  0.25500000000E-02 0. -1.
          2    1    1    2    0  502  0.21592934318E+02  0.51646855409E+00 -0.95074849283E+01  0.23599021767E+02  0.25500000000E-02 0. -1.
         -2    1    1    2  502    0 -0.21592934318E+02 -0.51646855409E+00  0.19954592891E+02  0.29405906484E+02  0.25500000000E-02 0. -1.
<mgrwt>
<rscale>  0 0.51965184E+02</rscale>
<asrwt>0</asrwt>
<pdfrwt beam="1">  1        2 0.48809259E-02 0.51965184E+02</pdfrwt>
<pdfrwt beam="2">  1       -2 0.32736785E-02 0.51965184E+02</pdfrwt>
<totfact> 0.42823242E+05</totfact>
</mgrwt>
</event>
<event>
 4    1  0.4635140E-002  0.4966364E+02  0.7818608E-02  0.1447164E+00
         -2   -1    0    0  501    0 -0.00000000000E+00  0.00000000000E+00  0.28073978773E+01  0.28073990354E+01  0.25500000000E-02 0. -1.
          2   -1    0    0    0  501  0.00000000000E+00 -0.00000000000E+00 -0.21964079725E+03  0.21964079726E+03  0.25500000000E-02 0. -1.
          2    1    1    2    0  502 -0.12004134207E+02  0.18180181642E+02 -0.16179147290E+03  0.16325164303E+03  0.25500000000E-02 0. -1.
         -2    1    1    2  502    0  0.12004134207E+02 -0.18180181642E+02 -0.55041926469E+02  0.59196553266E+02  0.25500000000E-02 0. -1.
<mgrwt>
<rscale>  0 0.49663638E+02</rscale>
<asrwt>0</asrwt>
<pdfrwt beam="2">  1        2 0.33790878E-01 0.49663638E+02</pdfrwt>
<pdfrwt beam="1">  1       -2 0.43190763E-03 0.49663638E+02</pdfrwt>
<totfact> 0.77257266E+05</totfact>
</mgrwt>
</event>
<event>
 4    1  0.4635140E-002  0.4414756E+02  0.7818608E-02  0.1479734E+00
         -2   -1    0    0  501    0 -0.00000000000E+00  0.00000000000E+00  0.13788505074E+02  0.13788505310E+02  0.25500000000E-02 0. -1.
          2   -1    0    0    0  501  0.00000000000E+00 -0.00000000000E+00 -0.35337536257E+02  0.35337536349E+02  0.25500000000E-02 0. -1.
          2    1    1    2    0  502  0.16325862084E+02  0.12211462671E+02 -0.13587395822E+01  0.20432811189E+02  0.25500000000E-02 0.  1.
         -2    1    1    2  502    0 -0.16325862084E+02 -0.12211462671E+02 -0.20190291601E+02  0.28693230470E+02  0.25500000000E-02 0.  1.
<mgrwt>
<rscale>  0 0.44147562E+02</rscale>
<asrwt>0</asrwt>
<pdfrwt beam="2">  1        2 0.54365440E-02 0.44147562E+02</pdfrwt>
<pdfrwt beam="1">  1       -2 0.21213085E-02 0.44147562E+02</pdfrwt>
<totfact> 0.66451344E+05</totfact>
</mgrwt>
</event>
<event>
 4    1  0.4635140E-002  0.4845805E+02  0.7818608E-02  0.1453840E+00
          2   -1    0    0    0  501  0.00000000000E+00  0.00000000000E+00  0.22998230989E+02  0.22998231130E+02  0.25500000000E-02 0. -1.
         -2   -1    0    0  501    0 -0.00000000000E+00 -0.00000000000E+00 -0.25525691932E+02  0.25525692059E+02  0.25500000000E-02 0. -1.
          2    1    1    2    0  502 -0.17612710183E+01  0.23974143323E+02 -0.42983837159E+01  0.24420027288E+02  0.25500000000E-02 0. -1.
         -2    1    1    2  502    0  0.17612710183E+01 -0.23974143323E+02  0.17709227725E+01  0.24103895901E+02  0.25500000000E-02 0. -1.
<mgrwt>
<rscale>  0 0.48458055E+02</rscale>
<asrwt>0</asrwt>
<pdfrwt beam="1">  1        2 0.35381894E-02 0.48458055E+02</pdfrwt>
<pdfrwt beam="2">  1       -2 0.39270295E-02 0.48458055E+02</pdfrwt>
<totfact> 0.48887450E+05</totfact>
</mgrwt>
</event>
<event>
 4    1  0.4635140E-002  0.5141935E+02  0.7818608E-02  0.1437833E+00
          2   -1    0    0    0  501  0.00000000000E+00  0.00000000000E+00  0.48773522019E+03  0.48773522020E+03  0.25500000000E-02 0.  1.
         -2   -1    0    0  501    0 -0.00000000000E+00 -0.00000000000E+00 -0.13552164936E+01  0.13552188926E+01  0.25500000000E-02 0.  1.
          2    1    1    2    0  502  0.22797439727E+02 -0.89816976898E+01  0.16914858983E+03  0.17091412932E+03  0.25500000000E-02 0. -1.
         -2    1    1    2  502    0 -0.22797439727E+02  0.89816976898E+01  0.31723141386E+03  0.31817630977E+03  0.25500000000E-02 0. -1.
<mgrwt>
<rscale>  0 0.51419351E+02</rscale>
<asrwt>0</asrwt>
<pdfrwt beam="1">  1        2 0.75036312E-01 0.51419351E+02</pdfrwt>
<pdfrwt beam="2">  1       -2 0.20849469E-03 0.51419351E+02</pdfrwt>
<totfact> 0.92985286E+05</totfact>
</mgrwt>
</event>
<event>
 4    1  0.4635140E-002  0.1069449E+03  0.7818608E-02  0.1266334E+00
          2   -1    0    0    0  501  0.00000000000E+00  0.00000000000E+00  0.22526124097E+04  0.22526124097E+04  0.25500000000E-02 0. -1.
         -2   -1    0    0  501    0 -0.00000000000E+00 -0.00000000000E+00 -0.12693261427E+01  0.12693287041E+01  0.25500000000E-02 0. -1.
          2    1    1    2    0  502 -0.21716149409E+02  0.42167569578E+02  0.60532070231E+03  0.60717612578E+03  0.25500000000E-02 0.  1.
         -2    1    1    2  502    0  0.21716149409E+02 -0.42167569578E+02  0.16460223813E+04  0.16467056127E+04  0.25500000000E-02 0.  1.
<mgrwt>
<rscale>  0 0.10694490E+03</rscale>
<asrwt>0</asrwt>
<pdfrwt beam="1">  1        2 0.34655566E+00 0.10694490E+03</pdfrwt>
<pdfrwt beam="2">  1       -2 0.19528120E-03 0.10694490E+03</pdfrwt>
<totfact> 0.11288744E+05</totfact>
</mgrwt>
</event>
<event>
 4    1  0.4635140E-002  0.5900541E+02  0.7818608E-02  0.1402054E+00
          2   -1    0    0    0  501  0.00000000000E+00  0.00000000000E+00  0.15980644490E+04  0.15980644490E+04  0.25500000000E-02 0. -1.
         -2   -1    0    0  501    0 -0.00000000000E+00 -0.00000000000E+00 -0.54466186497E+00  0.54466783424E+00  0.25500000000E-02 0. -1.
          2    1    1    2    0  502  0.30846119224E+00 -0.28796447587E+02  0.62511567219E+03  0.62577866228E+03  0.25500000000E-02 0. -1.
         -2    1    1    2  502    0 -0.30846119224E+00  0.28796447587E+02  0.97240411495E+03  0.97283045456E+03  0.25500000000E-02 0. -1.
<mgrwt>
<rscale>  0 0.59005408E+02</rscale>
<asrwt>0</asrwt>
<pdfrwt beam="1">  1        2 0.24585184E+00 0.59005408E+02</pdfrwt>
<pdfrwt beam="2">  1       -2 0.83796034E-04 0.59005408E+02</pdfrwt>
<totfact> 0.70579694E+05</totfact>
</mgrwt>
</event>
<event>
 4    1  0.4635140E-002  0.4595636E+02  0.7818608E-02  0.1468458E+00
          2   -1    0    0    0  501  0.00000000000E+00  0.00000000000E+00  0.33077726681E+00  0.33078709579E+00  0.25500000000E-02 0. -1.
         -2   -1    0    0  501    0 -0.00000000000E+00 -0.00000000000E+00 -0.15962067492E+04  0.15962067492E+04  0.25500000000E-02 0. -1.
          2    1    1    2    0  502  0.79958419474E+01  0.21532232182E+02 -0.82061879345E+03  0.82094017728E+03  0.25500000000E-02 0.  1.
         -2    1    1    2  502    0 -0.79958419474E+01 -0.21532232182E+02 -0.77525717847E+03  0.77559735900E+03  0.25500000000E-02 0.  1.
<mgrwt>
<rscale>  0 0.45956360E+02</rscale>
<asrwt>0</asrwt>
<pdfrwt beam="1">  1        2 0.50890844E-04 0.45956360E+02</pdfrwt>
<pdfrwt beam="2">  1       -2 0.24556410E+00 0.45956360E+02</pdfrwt>
<totfact> 0.53968681E+04</totfact>
</mgrwt>
</event>
<event>
 4    1  0.4635140E-002  0.6901367E+02  0.7818608E-02  0.1363480E+00
          2   -1    0    0    0  501  0.00000000000E+00  0.00000000000E+00  0.16631539283E+03  0.16631539285E+03  0.25500000000E-02 0.  1.
         -2   -1    0    0  501    0 -0.00000000000E+00 -0.00000000000E+00 -0.71594191465E+01  0.71594196006E+01  0.25500000000E-02 0.  1.
          2    1    1    2    0  502 -0.52352568345E+00 -0.23472842533E+02  0.16013800928E+02  0.28419891667E+02  0.25500000000E-02 0. -1.
         -2    1    1    2  502    0  0.52352568345E+00  0.23472842533E+02  0.14314217275E+03  0.14505492078E+03  0.25500000000E-02 0. -1.
<mgrwt>
<rscale>  0 0.69013670E+02</rscale>
<asrwt>0</asrwt>
<pdfrwt beam="1">  1        2 0.25586981E-01 0.69013670E+02</pdfrwt>
<pdfrwt beam="2">  1       -2 0.11014492E-02 0.69013670E+02</pdfrwt>
<totfact> 0.30371829E+05</totfact>
</mgrwt>
</event>
<event>
 4    1  0.4635140E-002  0.5559570E+02  0.7818608E-02  0.1417303E+00
         -2   -1    0    0  501    0 -0.00000000000E+00  0.00000000000E+00  0.63639560268E+00  0.63640071151E+00  0.25500000000E-02 0.  1.
          2   -1    0    0    0  501  0.00000000000E+00 -0.00000000000E+00 -0.12142092824E+04  0.12142092824E+04  0.25500000000E-02 0.  1.
          2    1    1    2    0  502 -0.21294190914E+02 -0.49555249895E+00 -0.21648757891E+03  0.21753289399E+03  0.25500000000E-02 0. -1.
         -2    1    1    2  502    0  0.21294190914E+02  0.49555249895E+00 -0.99708530787E+03  0.99731278911E+03  0.25500000000E-02 0. -1.
<mgrwt>
<rscale>  0 0.55595703E+02</rscale>
<asrwt>0</asrwt>
<pdfrwt beam="2">  1        2 0.18679957E+00 0.55595703E+02</pdfrwt>
<pdfrwt beam="1">  1       -2 0.97908381E-04 0.55595703E+02</pdfrwt>
<totfact> 0.88410815E+05</totfact>
</mgrwt>
</event>
<event>
 4    1  0.4635140E-002  0.7008000E+02  0.7818608E-02  0.1359821E+00
         -2   -1    0    0  501    0 -0.00000000000E+00  0.00000000000E+00  0.34008225755E+02  0.34008225851E+02  0.25500000000E-02 0. -1.
          2   -1    0    0    0  501  0.00000000000E+00 -0.00000000000E+00 -0.36103073572E+02  0.36103073662E+02  0.25500000000E-02 0. -1.
          2    1    1    2    0  502 -0.21644893474E+02 -0.14227293198E+02 -0.24656358506E+02  0.35761058520E+02  0.25500000000E-02 0. -1.
         -2    1    1    2  502    0  0.21644893474E+02  0.14227293198E+02  0.22561510689E+02  0.34350240993E+02  0.25500000000E-02 0. -1.
<mgrwt>
<rscale>  0 0.70079997E+02</rscale>
<asrwt>0</asrwt>
<pdfrwt beam="2">  1        2 0.55543191E-02 0.70079997E+02</pdfrwt>
<pdfrwt beam="1">  1       -2 0.52320347E-02 0.70079997E+02</pdfrwt>
<totfact> 0.19597198E+05</totfact>
</mgrwt>
</event>
<event>
 4    1  0.4635140E-002  0.5296924E+02  0.7818608E-02  0.1429954E+00
         -2   -1    0    0  501    0 -0.00000000000E+00  0.00000000000E+00  0.99285168869E+01  0.99285172144E+01  0.25500000000E-02 0.  1.
          2   -1    0    0    0  501  0.00000000000E+00 -0.00000000000E+00 -0.70648522010E+02  0.70648522056E+02  0.25500000000E-02 0.  1.
          2    1    1    2    0  502  0.11172248952E+02 -0.23151163510E+02 -0.20662454642E+02  0.32980790725E+02  0.25500000000E-02 0.  1.
         -2    1    1    2  502    0 -0.11172248952E+02  0.23151163510E+02 -0.40057550481E+02  0.47596248545E+02  0.25500000000E-02 0.  1.
<mgrwt>
<rscale>  0 0.52969239E+02</rscale>
<asrwt>0</asrwt>
<pdfrwt beam="2">  1        2 0.10869003E-01 0.52969239E+02</pdfrwt>
<pdfrwt beam="1">  1       -2 0.15274642E-02 0.52969239E+02</pdfrwt>
<totfact> 0.47507088E+05</totfact>
</mgrwt>
</event>
<event>
 4    1  0.4635140E-002  0.4748449E+02  0.7818608E-02  0.1459402E+00
         -2   -1    0    0  501    0 -0.00000000000E+00  0.00000000000E+00  0.51634868566E+00  0.51635498224E+00  0.25500000000E-02 0. -1.
          2   -1    0    0    0  501  0.00000000000E+00 -0.00000000000E+00 -0.10916861215E+04  0.10916861215E+04  0.25500000000E-02 0. -1.
          2    1    1    2    0  502  0.39051561195E+01  0.23385712438E+02 -0.57424279044E+03  0.57473204554E+03  0.25500000000E-02 0. -1.
         -2    1    1    2  502    0 -0.39051561195E+01 -0.23385712438E+02 -0.51692698233E+03  0.51747043090E+03  0.25500000000E-02 0. -1.
<mgrwt>
<rscale>  0 0.47484487E+02</rscale>
<asrwt>0</asrwt>
<pdfrwt beam="2">  1        2 0.16794986E+00 0.47484487E+02</pdfrwt>
<pdfrwt beam="1">  1       -2 0.79439618E-04 0.47484487E+02</pdfrwt>
<totfact> 0.13160031E+06</totfact>
</mgrwt>
</event>
<event>
 4    1  0.4635140E-002  0.7017386E+02  0.7818608E-02  0.1359503E+00
          2   -1    0    0    0  501  0.00000000000E+00  0.00000000000E+00  0.95788549001E+03  0.95788549001E+03  0.25500000000E-02 0. -1.
         -2   -1    0    0  501    0 -0.00000000000E+00 -0.00000000000E+00 -0.12852177691E+01  0.12852202989E+01  0.25500000000E-02 0. -1.
          2    1    1    2    0  502  0.74943234515E+01 -0.30102646027E+02  0.25422089351E+03  0.25610661234E+03  0.25500000000E-02 0.  1.
         -2    1    1    2  502    0 -0.74943234515E+01  0.30102646027E+02  0.70237937873E+03  0.70306409797E+03  0.25500000000E-02 0.  1.
<mgrwt>
<rscale>  0 0.70173860E+02</rscale>
<asrwt>0</asrwt>
<pdfrwt beam="1">  1        2 0.14736776E+00 0.70173860E+02</pdfrwt>
<pdfrwt beam="2">  1       -2 0.19772499E-03 0.70173860E+02</pdfrwt>
<totfact> 0.49240685E+05</totfact>
</mgrwt>
</event>
<event>
 4    1  0.4635140E-002  0.4903176E+02  0.7818608E-02  0.1450635E+00
         -2   -1    0    0  501    0 -0.00000000000E+00  0.00000000000E+00  0.61413950175E+00  0.61414479572E+00  0.25500000000E-02 0. -1.
          2   -1    0    0    0  501  0.00000000000E+00 -0.00000000000E+00 -0.97864685523E+03  0.97864685523E+03  0.25500000000E-02 0. -1.
          2    1    1    2    0  502  0.16389248941E+02 -0.17397544003E+02 -0.59794377358E+03  0.59842128838E+03  0.25500000000E-02 0. -1.
         -2    1    1    2  502    0 -0.16389248941E+02  0.17397544003E+02 -0.38008894215E+03  0.38083971165E+03  0.25500000000E-02 0. -1.
<mgrwt>
<rscale>  0 0.49031756E+02</rscale>
<asrwt>0</asrwt>
<pdfrwt beam="2">  1        2 0.15055981E+00 0.49031756E+02</pdfrwt>
<pdfrwt beam="1">  1       -2 0.94484191E-04 0.49031756E+02</pdfrwt>
<totfact> 0.12136491E+06</totfact>
</mgrwt>
</event>
<event>
 4    1  0.4635140E-002  0.4499088E+02  0.7818608E-02  0.1474399E+00
         -2   -1    0    0  501    0 -0.00000000000E+00  0.00000000000E+00  0.25074211599E+01  0.25074224566E+01  0.25500000000E-02 0. -1.
          2   -1    0    0    0  501  0.00000000000E+00 -0.00000000000E+00 -0.20181876909E+03  0.20181876911E+03  0.25500000000E-02 0. -1.
          2    1    1    2    0  502  0.22116691271E+02 -0.36984230394E+01 -0.91508246219E+02  0.94215632983E+02  0.25500000000E-02 0. -1.
         -2    1    1    2  502    0 -0.22116691271E+02  0.36984230394E+01 -0.10780310171E+03  0.11011055858E+03  0.25500000000E-02 0. -1.
<mgrwt>
<rscale>  0 0.44990878E+02</rscale>
<asrwt>0</asrwt>
<pdfrwt beam="2">  1        2 0.31049029E-01 0.44990878E+02</pdfrwt>
<pdfrwt beam="1">  1       -2 0.38575736E-03 0.44990878E+02</pdfrwt>
<totfact> 0.96005493E+05</totfact>
</mgrwt>
</event>
<event>
 4    1  0.4635140E-002  0.4891753E+02  0.7818608E-02  0.1451269E+00
          2   -1    0    0    0  501  0.00000000000E+00  0.00000000000E+00  0.96863378374E+02  0.96863378408E+02  0.25500000000E-02 0.  1.
         -2   -1    0    0  501    0 -0.00000000000E+00 -0.00000000000E+00 -0.61760293032E+01  0.61760298296E+01  0.25500000000E-02 0.  1.
          2    1    1    2    0  502  0.86671349249E+01 -0.19146811784E+02  0.18991774406E+02  0.28326791751E+02  0.25500000000E-02 0. -1.
         -2    1    1    2  502    0 -0.86671349249E+01  0.19146811784E+02  0.71695574665E+02  0.74712616487E+02  0.25500000000E-02 0. -1.
<mgrwt>
<rscale>  0 0.48917526E+02</rscale>
<asrwt>0</asrwt>
<pdfrwt beam="1">  1        2 0.14902057E-01 0.48917526E+02</pdfrwt>
<pdfrwt beam="2">  1       -2 0.95015849E-03 0.48917526E+02</pdfrwt>
<totfact> 0.62763466E+05</totfact>
</mgrwt>
</event>
<event>
 4    1  0.4635140E-002  0.4294535E+02  0.7818608E-02  0.1487592E+00
          2   -1    0    0    0  501  0.00000000000E+00  0.00000000000E+00  0.23176720036E+04  0.23176720036E+04  0.25500000000E-02 0. -1.
         -2   -1    0    0  501    0 -0.00000000000E+00 -0.00000000000E+00 -0.19893099445E+00  0.19894733739E+00  0.25500000000E-02 0. -1.
          2    1    1    2    0  502 -0.17285473987E+02 -0.12702385391E+02  0.12109959923E+04  0.12111859608E+04  0.25500000000E-02 0. -1.
         -2    1    1    2  502    0  0.17285473987E+02  0.12702385391E+02  0.11064770803E+04  0.11066849901E+04  0.25500000000E-02 0. -1.
<mgrwt>
<rscale>  0 0.42945348E+02</rscale>
<asrwt>0</asrwt>
<pdfrwt beam="1">  1        2 0.35658525E+00 0.42945348E+02</pdfrwt>
<pdfrwt beam="2">  1       -2 0.30604281E-04 0.42945348E+02</pdfrwt>
<totfact> 0.11430294E+06</totfact>
</mgrwt>
</event>
<event>
 4    1  0.4635140E-002  0.5582318E+02  0.7818608E-02  0.1416246E+00
         -2   -1    0    0  501    0 -0.00000000000E+00  0.00000000000E+00  0.10176120153E+03  0.10176120157E+03  0.25500000000E-02 0. -1.
          2   -1    0    0    0  501  0.00000000000E+00 -0.00000000000E+00 -0.76557341647E+01  0.76557345894E+01  0.25500000000E-02 0. -1.
          2    1    1    2    0  502 -0.25587481506E+02  0.11048453215E+02  0.44100123240E+02  0.52169036838E+02  0.25500000000E-02 0.  1.
         -2    1    1    2  502    0  0.25587481506E+02 -0.11048453215E+02  0.50005344128E+02  0.57247899316E+02  0.25500000000E-02 0.  1.
<mgrwt>
<rscale>  0 0.55823176E+02</rscale>
<asrwt>0</asrwt>
<pdfrwt beam="2">  1        2 0.11778053E-02 0.55823176E+02</pdfrwt>
<pdfrwt beam="1">  1       -2 0.15655569E-01 0.55823176E+02</pdfrwt>
<totfact> 0.26828324E+05</totfact>
</mgrwt>
</event>
<event>
 4    1  0.4635140E-002  0.4352286E+02  0.7818608E-02  0.1483780E+00
         -2   -1    0    0  501    0 -0.00000000000E+00  0.00000000000E+00  0.72207498908E+00  0.72207949172E+00  0.25500000000E-02 0. -1.
          2   -1    0    0    0  501  0.00000000000E+00 -0.00000000000E+00 -0.65582997761E+03  0.65582997762E+03  0.25500000000E-02 0. -1.
          2    1    1    2    0  502 -0.85589156441E+01  0.19967387197E+02 -0.30842300687E+03  0.30918716461E+03  0.25500000000E-02 0.  1.
         -2    1    1    2  502    0  0.85589156441E+01 -0.19967387197E+02 -0.34668489576E+03  0.34736489250E+03  0.25500000000E-02 0.  1.
<mgrwt>
<rscale>  0 0.43522863E+02</rscale>
<asrwt>0</asrwt>
<pdfrwt beam="2">  1        2 0.10089644E+00 0.43522863E+02</pdfrwt>
<pdfrwt beam="1">  1       -2 0.11108933E-03 0.43522863E+02</pdfrwt>
<totfact> 0.15220529E+06</totfact>
</mgrwt>
</event>
<event>
 4    1  0.4635140E-002  0.5218868E+02  0.7818608E-02  0.1433882E+00
          2   -1    0    0    0  501  0.00000000000E+00  0.00000000000E+00  0.10265122420E+04  0.10265122420E+04  0.25500000000E-02 0.  1.
         -2   -1    0    0  501    0 -0.00000000000E+00 -0.00000000000E+00 -0.66332578228E+00  0.66333068370E+00  0.25500000000E-02 0.  1.
          2    1    1    2    0  502  0.19692625617E+02 -0.15747007500E+02  0.64517025029E+03  0.64566277546E+03  0.25500000000E-02 0.  1.
         -2    1    1    2  502    0 -0.19692625617E+02  0.15747007500E+02  0.38067866594E+03  0.38151279724E+03  0.25500000000E-02 0.  1.
<mgrwt>
<rscale>  0 0.52188679E+02</rscale>
<asrwt>0</asrwt>
<pdfrwt beam="1">  1        2 0.15792546E+00 0.52188679E+02</pdfrwt>
<pdfrwt beam="2">  1       -2 0.10205017E-03 0.52188679E+02</pdfrwt>
<totfact> 0.10422641E+06</totfact>
</mgrwt>
</event>
<event>
 4    1  0.4635140E-002  0.8672195E+02  0.7818608E-02  0.1310990E+00
          2   -1    0    0    0  501  0.00000000000E+00  0.00000000000E+00  0.11929545312E+03  0.11929545315E+03  0.25500000000E-02 0. -1.
         -2   -1    0    0  501    0 -0.00000000000E+00 -0.00000000000E+00 -0.15760650357E+02  0.15760650564E+02  0.25500000000E-02 0. -1.
          2    1    1    2    0  502  0.80385323806E+01  0.41644593715E+02  0.37726756254E+02  0.56764410791E+02  0.25500000000E-02 0. -1.
         -2    1    1    2  502    0 -0.80385323806E+01 -0.41644593715E+02  0.65808046511E+02  0.78291692922E+02  0.25500000000E-02 0. -1.
<mgrwt>
<rscale>  0 0.86721945E+02</rscale>
<asrwt>0</asrwt>
<pdfrwt beam="1">  1        2 0.18353146E-01 0.86721945E+02</pdfrwt>
<pdfrwt beam="2">  1       -2 0.24247155E-02 0.86721945E+02</pdfrwt>
<totfact> 0.14856388E+05</totfact>
</mgrwt>
</event>
<event>
 4    1  0.4635140E-002  0.6071183E+02  0.7818608E-02  0.1394869E+00
         -2   -1    0    0  501    0 -0.00000000000E+00  0.00000000000E+00  0.65936063442E+01  0.65936068372E+01  0.25500000000E-02 0. -1.
          2   -1    0    0    0  501  0.00000000000E+00 -0.00000000000E+00 -0.13975378044E+03  0.13975378046E+03  0.25500000000E-02 0. -1.
          2    1    1    2    0  502  0.23111673950E+02 -0.33775039332E+01 -0.11331720835E+03  0.11569938081E+03  0.25500000000E-02 0.  1.
         -2    1    1    2  502    0 -0.23111673950E+02  0.33775039332E+01 -0.19842965746E+02  0.30648006488E+02  0.25500000000E-02 0.  1.
<mgrwt>
<rscale>  0 0.60711826E+02</rscale>
<asrwt>0</asrwt>
<pdfrwt beam="2">  1        2 0.21500579E-01 0.60711826E+02</pdfrwt>
<pdfrwt beam="1">  1       -2 0.10144011E-02 0.60711826E+02</pdfrwt>
<totfact> 0.40081318E+05</totfact>
</mgrwt>
</event>
<event>
 4    1  0.4635140E-002  0.4432632E+02  0.7818608E-02  0.1478592E+00
         -2   -1    0    0  501    0 -0.00000000000E+00  0.00000000000E+00  0.30843721135E+00  0.30844775222E+00  0.25500000000E-02 0. -1.
          2   -1    0    0    0  501  0.00000000000E+00 -0.00000000000E+00 -0.15925354357E+04  0.15925354357E+04  0.25500000000E-02 0. -1.
          2    1    1    2    0  502 -0.20270498087E+02  0.24883962478E+01 -0.48674195975E+03  0.48717021727E+03  0.25500000000E-02 0. -1.
         -2    1    1    2  502    0  0.20270498087E+02 -0.24883962478E+01 -0.11054850387E+04  0.11056736662E+04  0.25500000000E-02 0. -1.
<mgrwt>
<rscale>  0 0.44326317E+02</rscale>
<asrwt>0</asrwt>
<pdfrwt beam="2">  1        2 0.24499887E+00 0.44326317E+02</pdfrwt>
<pdfrwt beam="1">  1       -2 0.47453965E-04 0.44326317E+02</pdfrwt>
<totfact> 0.14394111E+06</totfact>
</mgrwt>
</event>
<event>
 4    1  0.4635140E-002  0.8409182E+02  0.7818608E-02  0.1317825E+00
         -2   -1    0    0  501    0 -0.00000000000E+00  0.00000000000E+00  0.43011865194E+02  0.43011865270E+02  0.25500000000E-02 0. -1.
          2   -1    0    0    0  501  0.00000000000E+00 -0.00000000000E+00 -0.41101646482E+02  0.41101646561E+02  0.25500000000E-02 0. -1.
          2    1    1    2    0  502 -0.23110203339E+02  0.33976161886E+02  0.98679300541E+01  0.42259166164E+02  0.25500000000E-02 0.  1.
         -2    1    1    2  502    0  0.23110203339E+02 -0.33976161886E+02 -0.79577113418E+01  0.41854345666E+02  0.25500000000E-02 0.  1.
<mgrwt>
<rscale>  0 0.84091818E+02</rscale>
<asrwt>0</asrwt>
<pdfrwt beam="2">  1        2 0.63233303E-02 0.84091818E+02</pdfrwt>
<pdfrwt beam="1">  1       -2 0.66172100E-02 0.84091818E+02</pdfrwt>
<totfact> 0.12110892E+05</totfact>
</mgrwt>
</event>
<event>
 4    1  0.4635140E-002  0.5607263E+02  0.7818608E-02  0.1415093E+00
         -2   -1    0    0  501    0 -0.00000000000E+00  0.00000000000E+00  0.67203215946E+01  0.67203220784E+01  0.25500000000E-02 0.  1.
          2   -1    0    0    0  501  0.00000000000E+00 -0.00000000000E+00 -0.11696389084E+03  0.11696389087E+03  0.25500000000E-02 0.  1.
          2    1    1    2    0  502  0.21304240082E+02  0.10293474661E+02 -0.21946244254E+02  0.32271719964E+02  0.25500000000E-02 0.  1.
         -2    1    1    2  502    0 -0.21304240082E+02 -0.10293474661E+02 -0.88297324991E+02  0.91412492981E+02  0.25500000000E-02 0.  1.
<mgrwt>
<rscale>  0 0.56072631E+02</rscale>
<asrwt>0</asrwt>
<pdfrwt beam="2">  1        2 0.17994443E-01 0.56072631E+02</pdfrwt>
<pdfrwt beam="1">  1       -2 0.10338958E-02 0.56072631E+02</pdfrwt>
<totfact> 0.46650982E+05</totfact>
</mgrwt>
</event>
<event>
 4    1  0.4635140E-002  0.5869808E+02  0.7818608E-02  0.1403378E+00
         -2   -1    0    0  501    0 -0.00000000000E+00  0.00000000000E+00  0.63471919118E+01  0.63471924240E+01  0.25500000000E-02 0. -1.
          2   -1    0    0    0  501  0.00000000000E+00 -0.00000000000E+00 -0.13570820517E+03  0.13570820519E+03  0.25500000000E-02 0. -1.
          2    1    1    2    0  502  0.12171486164E+02 -0.24397400152E+02 -0.38392812096E+02  0.47089130771E+02  0.25500000000E-02 0. -1.
         -2    1    1    2  502    0 -0.12171486164E+02  0.24397400152E+02 -0.90968201162E+02  0.94966266846E+02  0.25500000000E-02 0. -1.
<mgrwt>
<rscale>  0 0.58698077E+02</rscale>
<asrwt>0</asrwt>
<pdfrwt beam="2">  1        2 0.20878183E-01 0.58698077E+02</pdfrwt>
<pdfrwt beam="1">  1       -2 0.97649121E-03 0.58698077E+02</pdfrwt>
<totfact> 0.43328044E+05</totfact>
</mgrwt>
</event>
<event>
 4    1  0.4635140E-002  0.6042390E+02  0.7818608E-02  0.1396061E+00
          2   -1    0    0    0  501  0.00000000000E+00  0.00000000000E+00  0.67496990470E+02  0.67496990518E+02  0.25500000000E-02 0.  1.
         -2   -1    0    0  501    0 -0.00000000000E+00 -0.00000000000E+00 -0.13523003540E+02  0.13523003781E+02  0.25500000000E-02 0.  1.
          2    1    1    2    0  502  0.28792273955E+02 -0.91151135154E+01  0.28094086245E+02  0.41247521408E+02  0.25500000000E-02 0.  1.
         -2    1    1    2  502    0 -0.28792273955E+02  0.91151135154E+01  0.25879900685E+02  0.39772472890E+02  0.25500000000E-02 0.  1.
<mgrwt>
<rscale>  0 0.60423904E+02</rscale>
<asrwt>0</asrwt>
<pdfrwt beam="1">  1        2 0.10384152E-01 0.60423904E+02</pdfrwt>
<pdfrwt beam="2">  1       -2 0.20804621E-02 0.60423904E+02</pdfrwt>
<totfact> 0.33393754E+05</totfact>
</mgrwt>
</event>
<event>
 4    1  0.4635140E-002  0.4756143E+02  0.7818608E-02  0.1458957E+00
         -2   -1    0    0  501    0 -0.00000000000E+00  0.00000000000E+00  0.23702796662E+00  0.23704168296E+00  0.25500000000E-02 0. -1.
          2   -1    0    0    0  501  0.00000000000E+00 -0.00000000000E+00 -0.23858201127E+04  0.23858201127E+04  0.25500000000E-02 0. -1.
          2    1    1    2    0  502  0.22038745956E+02 -0.89103697082E+01 -0.11602234360E+04  0.11604669416E+04  0.25500000000E-02 0. -1.
         -2    1    1    2  502    0 -0.22038745956E+02  0.89103697082E+01 -0.12253596487E+04  0.12255902128E+04  0.25500000000E-02 0. -1.
<mgrwt>
<rscale>  0 0.47561432E+02</rscale>
<asrwt>0</asrwt>
<pdfrwt beam="2">  1        2 0.36703002E+00 0.47561432E+02</pdfrwt>
<pdfrwt beam="1">  1       -2 0.36468807E-04 0.47561432E+02</pdfrwt>
<totfact> 0.85297818E+05</totfact>
</mgrwt>
</event>
<event>
 4    1  0.4635140E-002  0.5310868E+02  0.7818608E-02  0.1429261E+00
          2   -1    0    0    0  501  0.00000000000E+00  0.00000000000E+00  0.58687087692E+00  0.58687641686E+00  0.25500000000E-02 0.  1.
         -2   -1    0    0  501    0 -0.00000000000E+00 -0.00000000000E+00 -0.12015072308E+04  0.12015072308E+04  0.25500000000E-02 0.  1.
          2    1    1    2    0  502  0.23722203231E+02  0.11341007566E+02 -0.68445729267E+03  0.68496214996E+03  0.25500000000E-02 0. -1.
         -2    1    1    2  502    0 -0.23722203231E+02 -0.11341007566E+02 -0.51646306726E+03  0.51713195727E+03  0.25500000000E-02 0. -1.
<mgrwt>
<rscale>  0 0.53108679E+02</rscale>
<asrwt>0</asrwt>
<pdfrwt beam="1">  1        2 0.90289215E-04 0.53108679E+02</pdfrwt>
<pdfrwt beam="2">  1       -2 0.18484530E+00 0.53108679E+02</pdfrwt>
<totfact> 0.58551861E+04</totfact>
</mgrwt>
</event>
<event>
 4    1  0.4635140E-002  0.5800064E+02  0.7818608E-02  0.1406419E+00
         -2   -1    0    0  501    0 -0.00000000000E+00  0.00000000000E+00  0.16229049766E+01  0.16229069799E+01  0.25500000000E-02 0.  1.
          2   -1    0    0    0  501  0.00000000000E+00 -0.00000000000E+00 -0.51821760011E+03  0.51821760011E+03  0.25500000000E-02 0.  1.
          2    1    1    2    0  502  0.26798865758E+00  0.23344178587E+02 -0.41249588105E+03  0.41315599279E+03  0.25500000000E-02 0.  1.
         -2    1    1    2  502    0 -0.26798865758E+00 -0.23344178587E+02 -0.10409881408E+03  0.10668451430E+03  0.25500000000E-02 0.  1.
<mgrwt>
<rscale>  0 0.58000636E+02</rscale>
<asrwt>0</asrwt>
<pdfrwt beam="2">  1        2 0.79725653E-01 0.58000636E+02</pdfrwt>
<pdfrwt beam="1">  1       -2 0.24967826E-03 0.58000636E+02</pdfrwt>
<totfact> 0.70104468E+05</totfact>
</mgrwt>
</event>
<event>
 4    1  0.4635140E-002  0.4761658E+02  0.7818608E-02  0.1458638E+00
         -2   -1    0    0  501    0 -0.00000000000E+00  0.00000000000E+00  0.22818535829E+03  0.22818535831E+03  0.25500000000E-02 0.  1.
          2   -1    0    0    0  501  0.00000000000E+00 -0.00000000000E+00 -0.24840970008E+01  0.24840983096E+01  0.25500000000E-02 0.  1.
          2    1    1    2    0  502 -0.21615108953E+02 -0.87375880059E+01  0.89478993302E+02  0.92466472995E+02  0.25500000000E-02 0.  1.
         -2    1    1    2  502    0  0.21615108953E+02  0.87375880059E+01  0.13622226799E+03  0.13820298362E+03  0.25500000000E-02 0.  1.
<mgrwt>
<rscale>  0 0.47616582E+02</rscale>
<asrwt>0</asrwt>
<pdfrwt beam="2">  1        2 0.38216878E-03 0.47616582E+02</pdfrwt>
<pdfrwt beam="1">  1       -2 0.35105448E-01 0.47616582E+02</pdfrwt>
<totfact> 0.30021329E+05</totfact>
</mgrwt>
</event>
<event>
 4    1  0.4635140E-002  0.4785119E+02  0.7818608E-02  0.1457289E+00
         -2   -1    0    0  501    0 -0.00000000000E+00  0.00000000000E+00  0.18519670491E+01  0.18519688047E+01  0.25500000000E-02 0. -1.
          2   -1    0    0    0  501  0.00000000000E+00 -0.00000000000E+00 -0.30909503545E+03  0.30909503546E+03  0.25500000000E-02 0. -1.
          2    1    1    2    0  502 -0.21403187521E+02 -0.10654271866E+02 -0.14772230718E+03  0.14964454548E+03  0.25500000000E-02 0. -1.
         -2    1    1    2  502    0  0.21403187521E+02  0.10654271866E+02 -0.15952076122E+03  0.16130245879E+03  0.25500000000E-02 0. -1.
<mgrwt>
<rscale>  0 0.47851190E+02</rscale>
<asrwt>0</asrwt>
<pdfrwt beam="2">  1        2 0.47553042E-01 0.47851190E+02</pdfrwt>
<pdfrwt beam="1">  1       -2 0.28491839E-03 0.47851190E+02</pdfrwt>
<totfact> 0.95324404E+05</totfact>
</mgrwt>
</event>
<event>
 4    1  0.4635140E-002  0.4480023E+02  0.7818608E-02  0.1475593E+00
         -2   -1    0    0  501    0 -0.00000000000E+00  0.00000000000E+00  0.25636827421E+01  0.25636840103E+01  0.25500000000E-02 0. -1.
          2   -1    0    0    0  501  0.00000000000E+00 -0.00000000000E+00 -0.19572041768E+03  0.19572041770E+03  0.25500000000E-02 0. -1.
          2    1    1    2    0  502  0.14163065965E+02 -0.16723583561E+02 -0.11709807859E+03  0.11913114916E+03  0.25500000000E-02 0. -1.
         -2    1    1    2  502    0 -0.14163065965E+02  0.16723583561E+02 -0.76058656345E+02  0.79152952542E+02  0.25500000000E-02 0. -1.
<mgrwt>
<rscale>  0 0.44800231E+02</rscale>
<asrwt>0</asrwt>
<pdfrwt beam="2">  1        2 0.30110822E-01 0.44800231E+02</pdfrwt>
<pdfrwt beam="1">  1       -2 0.39441298E-03 0.44800231E+02</pdfrwt>
<totfact> 0.96047630E+05</totfact>
</mgrwt>
</event>
<event>
 4    1  0.4635140E-002  0.1453217E+03  0.7818608E-02  0.1206342E+00
          2   -1    0    0    0  501  0.00000000000E+00  0.00000000000E+00  0.14040619566E+04  0.14040619566E+04  0.25500000000E-02 0. -1.
         -2   -1    0    0  501    0 -0.00000000000E+00 -0.00000000000E+00 -0.37602324721E+01  0.37602333368E+01  0.25500000000E-02 0. -1.
          2    1    1    2    0  502  0.70171829156E+02  0.18758878618E+02  0.68172187347E+03  0.68558055246E+03  0.25500000000E-02 0. -1.
         -2    1    1    2  502    0 -0.70171829156E+02 -0.18758878618E+02  0.71857985066E+03  0.72224163749E+03  0.25500000000E-02 0. -1.
<mgrwt>
<rscale>  0 0.14532171E+03</rscale>
<asrwt>0</asrwt>
<pdfrwt beam="1">  1        2 0.21600959E+00 0.14532171E+03</pdfrwt>
<pdfrwt beam="2">  1       -2 0.57849723E-03 0.14532171E+03</pdfrwt>
<totfact> 0.68742166E+04</totfact>
</mgrwt>
</event>
<event>
 4    1  0.4635140E-002  0.5040103E+02  0.7818608E-02  0.1443190E+00
          2   -1    0    0    0  501  0.00000000000E+00  0.00000000000E+00  0.75613777149E+01  0.75613781449E+01  0.25500000000E-02 0.  1.
         -2   -1    0    0  501    0 -0.00000000000E+00 -0.00000000000E+00 -0.83988125979E+02  0.83988126018E+02  0.25500000000E-02 0.  1.
          2    1    1    2    0  502  0.19623695319E+02  0.10736098881E+02 -0.59295814817E+02  0.63374655016E+02  0.25500000000E-02 0. -1.
         -2    1    1    2  502    0 -0.19623695319E+02 -0.10736098881E+02 -0.17130933448E+02  0.28174849147E+02  0.25500000000E-02 0. -1.
<mgrwt>
<rscale>  0 0.50401030E+02</rscale>
<asrwt>0</asrwt>
<pdfrwt beam="1">  1        2 0.11632890E-02 0.50401030E+02</pdfrwt>
<pdfrwt beam="2">  1       -2 0.12921250E-01 0.50401030E+02</pdfrwt>
<totfact> 0.36094365E+05</totfact>
</mgrwt>
</event>
<event>
 4    1  0.4635140E-002  0.4153360E+02  0.7818608E-02  0.1497220E+00
         -2   -1    0    0  501    0 -0.00000000000E+00  0.00000000000E+00  0.43601316825E+00  0.43602062496E+00  0.25500000000E-02 0.  1.
          2   -1    0    0    0  501  0.00000000000E+00 -0.00000000000E+00 -0.98909026423E+03  0.98909026423E+03  0.25500000000E-02 0.  1.
          2    1    1    2    0  502  0.17458221344E+02  0.11223632086E+02 -0.51118476630E+03  0.51160592717E+03  0.25500000000E-02 0.  1.
         -2    1    1    2  502    0 -0.17458221344E+02 -0.11223632086E+02 -0.47746948476E+03  0.47792035769E+03  0.25500000000E-02 0.  1.
<mgrwt>
<rscale>  0 0.41533604E+02</rscale>
<asrwt>0</asrwt>
<pdfrwt beam="2">  1        2 0.15216594E+00 0.41533604E+02</pdfrwt>
<pdfrwt beam="1">  1       -2 0.67080314E-04 0.41533604E+02</pdfrwt>
<totfact> 0.18200959E+06</totfact>
</mgrwt>
</event>
<event>
 4    1  0.4635140E-002  0.4675098E+02  0.7818608E-02  0.1463698E+00
          2   -1    0    0    0  501  0.00000000000E+00  0.00000000000E+00  0.23559907523E+03  0.23559907525E+03  0.25500000000E-02 0.  1.
         -2   -1    0    0  501    0 -0.00000000000E+00 -0.00000000000E+00 -0.23192511629E+01  0.23192525648E+01  0.25500000000E-02 0.  1.
          2    1    1    2    0  502 -0.16468279006E+02 -0.15914086400E+02  0.14048322511E+03  0.14233762294E+03  0.25500000000E-02 0. -1.
         -2    1    1    2  502    0  0.16468279006E+02  0.15914086400E+02  0.92796598961E+02  0.95580704876E+02  0.25500000000E-02 0. -1.
<mgrwt>
<rscale>  0 0.46750983E+02</rscale>
<asrwt>0</asrwt>
<pdfrwt beam="1">  1        2 0.36245992E-01 0.46750983E+02</pdfrwt>
<pdfrwt beam="2">  1       -2 0.35680817E-03 0.46750983E+02</pdfrwt>
<totfact> 0.91946464E+05</totfact>
</mgrwt>
</event>
<event>
 4    1  0.4635140E-002  0.1124284E+03  0.7818608E-02  0.1256138E+00
         -2   -1    0    0  501    0 -0.00000000000E+00  0.00000000000E+00  0.16609981720E+03  0.16609981722E+03  0.25500000000E-02 0.  1.
          2   -1    0    0    0  501  0.00000000000E+00 -0.00000000000E+00 -0.19024906600E+02  0.19024906771E+02  0.25500000000E-02 0.  1.
          2    1    1    2    0  502  0.34364037963E+02 -0.44345465229E+02  0.67686541746E+02  0.87914022383E+02  0.25500000000E-02 0. -1.
         -2    1    1    2  502    0 -0.34364037963E+02  0.44345465229E+02  0.79388368855E+02  0.97210701609E+02  0.25500000000E-02 0. -1.
<mgrwt>
<rscale>  0 0.11242835E+03</rscale>
<asrwt>0</asrwt>
<pdfrwt beam="2">  1        2 0.29269088E-02 0.11242835E+03</pdfrwt>
<pdfrwt beam="1">  1       -2 0.25553818E-01 0.11242835E+03</pdfrwt>
<totfact> 0.39467164E+04</totfact>
</mgrwt>
</event>
<event>
 4    1  0.4635140E-002  0.4622954E+02  0.7818608E-02  0.1466809E+00
         -2   -1    0    0  501    0 -0.00000000000E+00  0.00000000000E+00  0.71214000511E+00  0.71214457056E+00  0.25500000000E-02 0.  1.
          2   -1    0    0    0  501  0.00000000000E+00 -0.00000000000E+00 -0.75026098241E+03  0.75026098241E+03  0.25500000000E-02 0.  1.
          2    1    1    2    0  502 -0.15203587991E+02  0.15546613680E+02 -0.24743799856E+03  0.24839164524E+03  0.25500000000E-02 0. -1.
         -2    1    1    2  502    0  0.15203587991E+02 -0.15546613680E+02 -0.50211084384E+03  0.50258148174E+03  0.25500000000E-02 0. -1.
<mgrwt>
<rscale>  0 0.46229539E+02</rscale>
<asrwt>0</asrwt>
<pdfrwt beam="2">  1        2 0.11542413E+00 0.46229539E+02</pdfrwt>
<pdfrwt beam="1">  1       -2 0.10956095E-03 0.46229539E+02</pdfrwt>
<totfact> 0.13536207E+06</totfact>
</mgrwt>
</event>
<event>
 4    1  0.4635140E-002  0.5829405E+02  0.7818608E-02  0.1405134E+00
         -2   -1    0    0  501    0 -0.00000000000E+00  0.00000000000E+00  0.63216629312E+00  0.63217143613E+00  0.25500000000E-02 0.  1.
          2   -1    0    0    0  501  0.00000000000E+00 -0.00000000000E+00 -0.13438640683E+04  0.13438640683E+04  0.25500000000E-02 0.  1.
          2    1    1    2    0  502  0.18847050565E+02 -0.21893690652E+02 -0.58227736008E+03  0.58299354120E+03  0.25500000000E-02 0. -1.
         -2    1    1    2  502    0 -0.18847050565E+02  0.21893690652E+02 -0.76095454189E+03  0.76150269851E+03  0.25500000000E-02 0. -1.
<mgrwt>
<rscale>  0 0.58294049E+02</rscale>
<asrwt>0</asrwt>
<pdfrwt beam="2">  1        2 0.20674603E+00 0.58294049E+02</pdfrwt>
<pdfrwt beam="1">  1       -2 0.97257824E-04 0.58294049E+02</pdfrwt>
<totfact> 0.77165591E+05</totfact>
</mgrwt>
</event>
<event>
 4    1  0.4635140E-002  0.4925474E+02  0.7818608E-02  0.1449403E+00
         -2   -1    0    0  501    0 -0.00000000000E+00  0.00000000000E+00  0.37602183583E+01  0.37602192230E+01  0.25500000000E-02 0.  1.
          2   -1    0    0    0  501  0.00000000000E+00 -0.00000000000E+00 -0.16129574674E+03  0.16129574676E+03  0.25500000000E-02 0.  1.
          2    1    1    2    0  502  0.94331870703E+01 -0.22688087056E+02 -0.84348053798E+02  0.87854018113E+02  0.25500000000E-02 0.  1.
         -2    1    1    2  502    0 -0.94331870703E+01  0.22688087056E+02 -0.73187474586E+02  0.77201947872E+02  0.25500000000E-02 0.  1.
<mgrwt>
<rscale>  0 0.49254738E+02</rscale>
<asrwt>0</asrwt>
<pdfrwt beam="2">  1        2 0.24814725E-01 0.49254738E+02</pdfrwt>
<pdfrwt beam="1">  1       -2 0.57849532E-03 0.49254738E+02</pdfrwt>
<totfact> 0.71317327E+05</totfact>
</mgrwt>
</event>
<event>
 4    1  0.4635140E-002  0.6710468E+02  0.7818608E-02  0.1370225E+00
          2   -1    0    0    0  501  0.00000000000E+00  0.00000000000E+00  0.58795824645E+03  0.58795824645E+03  0.25500000000E-02 0. -1.
         -2   -1    0    0  501    0 -0.00000000000E+00 -0.00000000000E+00 -0.19146922585E+01  0.19146939566E+01  0.25500000000E-02 0. -1.
          2    1    1    2    0  502 -0.95096309886E+01 -0.22715630717E+02  0.92701022415E+02  0.95916174463E+02  0.25500000000E-02 0.  1.
         -2    1    1    2  502    0  0.95096309886E+01  0.22715630717E+02  0.49334253178E+03  0.49395676595E+03  0.25500000000E-02 0.  1.
<mgrwt>
<rscale>  0 0.67104683E+02</rscale>
<asrwt>0</asrwt>
<pdfrwt beam="1">  1        2 0.90455103E-01 0.67104683E+02</pdfrwt>
<pdfrwt beam="2">  1       -2 0.29456821E-03 0.67104683E+02</pdfrwt>
<totfact> 0.50260179E+05</totfact>
</mgrwt>
</event>
<event>
 4    1  0.4635140E-002  0.9504843E+02  0.7818608E-02  0.1291067E+00
          2   -1    0    0    0  501  0.00000000000E+00  0.00000000000E+00  0.12627294669E+04  0.12627294669E+04  0.25500000000E-02 0.  1.
         -2   -1    0    0  501    0 -0.00000000000E+00 -0.00000000000E+00 -0.17886254737E+01  0.17886272914E+01  0.25500000000E-02 0.  1.
          2    1    1    2    0  502  0.31037377714E+02  0.30159449227E+02  0.36921149349E+03  0.37173920714E+03  0.25500000000E-02 0.  1.
         -2    1    1    2  502    0 -0.31037377714E+02 -0.30159449227E+02  0.89172934793E+03  0.89277888704E+03  0.25500000000E-02 0.  1.
<mgrwt>
<rscale>  0 0.95048435E+02</rscale>
<asrwt>0</asrwt>
<pdfrwt beam="1">  1        2 0.19426500E+00 0.95048435E+02</pdfrwt>
<pdfrwt beam="2">  1       -2 0.27517481E-03 0.95048435E+02</pdfrwt>
<totfact> 0.22130966E+05</totfact>
</mgrwt>
</event>
<event>
 4    1  0.4635140E-002  0.4986949E+02  0.7818608E-02  0.1446047E+00
         -2   -1    0    0  501    0 -0.00000000000E+00  0.00000000000E+00  0.28971243987E+02  0.28971244099E+02  0.25500000000E-02 0.  1.
          2   -1    0    0    0  501  0.00000000000E+00 -0.00000000000E+00 -0.21460641291E+02  0.21460641443E+02  0.25500000000E-02 0.  1.
          2    1    1    2    0  502  0.81538265451E+01  0.23533050246E+02  0.49739362849E+01  0.25397428804E+02  0.25500000000E-02 0.  1.
         -2    1    1    2  502    0 -0.81538265451E+01 -0.23533050246E+02  0.25366664106E+01  0.25034456738E+02  0.25500000000E-02 0.  1.
<mgrwt>
<rscale>  0 0.49869489E+02</rscale>
<asrwt>0</asrwt>
<pdfrwt beam="2">  1        2 0.33016372E-02 0.49869489E+02</pdfrwt>
<pdfrwt beam="1">  1       -2 0.44571145E-02 0.49869489E+02</pdfrwt>
<totfact> 0.44833601E+05</totfact>
</mgrwt>
</event>
<event>
 4    1  0.4635140E-002  0.8172402E+02  0.7818608E-02  0.1324229E+00
          2   -1    0    0    0  501  0.00000000000E+00  0.00000000000E+00  0.35869783431E+03  0.35869783432E+03  0.25500000000E-02 0. -1.
         -2   -1    0    0  501    0 -0.00000000000E+00 -0.00000000000E+00 -0.46549028169E+01  0.46549035154E+01  0.25500000000E-02 0. -1.
          2    1    1    2    0  502  0.25099625625E+02  0.22238706907E+02  0.28083110892E+03  0.28282620642E+03  0.25500000000E-02 0. -1.
         -2    1    1    2  502    0 -0.25099625625E+02 -0.22238706907E+02  0.73211822572E+02  0.80526531418E+02  0.25500000000E-02 0. -1.
<mgrwt>
<rscale>  0 0.81724016E+02</rscale>
<asrwt>0</asrwt>
<pdfrwt beam="1">  1        2 0.55184279E-01 0.81724016E+02</pdfrwt>
<pdfrwt beam="2">  1       -2 0.71613899E-03 0.81724016E+02</pdfrwt>
<totfact> 0.25628848E+05</totfact>
</mgrwt>
</event>
<event>
 4    1  0.4635140E-002  0.4883723E+02  0.7818608E-02  0.1451716E+00
          2   -1    0    0    0  501  0.00000000000E+00  0.00000000000E+00  0.40214936974E+01  0.40214945058E+01  0.25500000000E-02 0. -1.
         -2   -1    0    0  501    0 -0.00000000000E+00 -0.00000000000E+00 -0.14827047731E+03  0.14827047733E+03  0.25500000000E-02 0. -1.
          2    1    1    2    0  502  0.17946353830E+02 -0.10727725532E+02 -0.32789508552E+02  0.38888399150E+02  0.25500000000E-02 0.  1.
         -2    1    1    2  502    0 -0.17946353830E+02  0.10727725532E+02 -0.11145947506E+03  0.11340357268E+03  0.25500000000E-02 0.  1.
<mgrwt>
<rscale>  0 0.48837234E+02</rscale>
<asrwt>0</asrwt>
<pdfrwt beam="1">  1        2 0.61869152E-03 0.48837234E+02</pdfrwt>
<pdfrwt beam="2">  1       -2 0.22810838E-01 0.48837234E+02</pdfrwt>
<totfact> 0.33361455E+05</totfact>
</mgrwt>
</event>
<event>
 4    1  0.4635140E-002  0.7066141E+02  0.7818608E-02  0.1357858E+00
          2   -1    0    0    0  501  0.00000000000E+00  0.00000000000E+00  0.37830503118E+02  0.37830503204E+02  0.25500000000E-02 0. -1.
         -2   -1    0    0  501    0 -0.00000000000E+00 -0.00000000000E+00 -0.32996090701E+02  0.32996090800E+02  0.25500000000E-02 0. -1.
          2    1    1    2    0  502  0.14678500983E+02  0.17681363110E+02 -0.24481505863E+02  0.33577271008E+02  0.25500000000E-02 0.  1.
         -2    1    1    2  502    0 -0.14678500983E+02 -0.17681363110E+02  0.29315918280E+02  0.37249322995E+02  0.25500000000E-02 0.  1.
<mgrwt>
<rscale>  0 0.70661410E+02</rscale>
<asrwt>0</asrwt>
<pdfrwt beam="1">  1        2 0.58200774E-02 0.70661410E+02</pdfrwt>
<pdfrwt beam="2">  1       -2 0.50763216E-02 0.70661410E+02</pdfrwt>
<totfact> 0.19344886E+05</totfact>
</mgrwt>
</event>
<event>
 4    1  0.4635140E-002  0.6428730E+02  0.7818608E-02  0.1380673E+00
          2   -1    0    0    0  501  0.00000000000E+00  0.00000000000E+00  0.39439826853E+01  0.39439835097E+01  0.25500000000E-02 0.  1.
         -2   -1    0    0  501    0 -0.00000000000E+00 -0.00000000000E+00 -0.26197229637E+03  0.26197229638E+03  0.25500000000E-02 0.  1.
          2    1    1    2    0  502  0.76698020272E+01  0.23062865820E+02 -0.21602487655E+03  0.21738783070E+03  0.25500000000E-02 0.  1.
         -2    1    1    2  502    0 -0.76698020272E+01 -0.23062865820E+02 -0.42003437131E+02  0.48528449185E+02  0.25500000000E-02 0.  1.
<mgrwt>
<rscale>  0 0.64287302E+02</rscale>
<asrwt>0</asrwt>
<pdfrwt beam="1">  1        2 0.60676684E-03 0.64287302E+02</pdfrwt>
<pdfrwt beam="2">  1       -2 0.40303417E-01 0.64287302E+02</pdfrwt>
<totfact> 0.13345204E+05</totfact>
</mgrwt>
</event>
<event>
 4    1  0.4635140E-002  0.5686146E+02  0.7818608E-02  0.1411496E+00
          2   -1    0    0    0  501  0.00000000000E+00  0.00000000000E+00  0.11141599869E+02  0.11141600161E+02  0.25500000000E-02 0. -1.
         -2   -1    0    0  501    0 -0.00000000000E+00 -0.00000000000E+00 -0.72548497679E+02  0.72548497724E+02  0.25500000000E-02 0. -1.
          2    1    1    2    0  502 -0.26283392654E+02 -0.90183000279E+01 -0.39553984364E+02  0.48339054090E+02  0.25500000000E-02 0. -1.
         -2    1    1    2  502    0  0.26283392654E+02  0.90183000279E+01 -0.21852913446E+02  0.35351043795E+02  0.25500000000E-02 0. -1.
<mgrwt>
<rscale>  0 0.56861458E+02</rscale>
<asrwt>0</asrwt>
<pdfrwt beam="1">  1        2 0.17140924E-02 0.56861458E+02</pdfrwt>
<pdfrwt beam="2">  1       -2 0.11161307E-01 0.56861458E+02</pdfrwt>
<totfact> 0.27780271E+05</totfact>
</mgrwt>
</event>
<event>
 4    1  0.4635140E-002  0.4851453E+02  0.7818608E-02  0.1453522E+00
          2   -1    0    0    0  501  0.00000000000E+00  0.00000000000E+00  0.18308232395E+01  0.18308250153E+01  0.25500000000E-02 0. -1.
         -2   -1    0    0  501    0 -0.00000000000E+00 -0.00000000000E+00 -0.32139350916E+03  0.32139350917E+03  0.25500000000E-02 0. -1.
          2    1    1    2    0  502  0.29038024066E+01  0.22022446687E+02 -0.94845868809E+02  0.97412314741E+02  0.25500000000E-02 0.  1.
         -2    1    1    2  502    0 -0.29038024066E+01 -0.22022446687E+02 -0.22471681711E+03  0.22581201944E+03  0.25500000000E-02 0.  1.
<mgrwt>
<rscale>  0 0.48514534E+02</rscale>
<asrwt>0</asrwt>
<pdfrwt beam="1">  1        2 0.28166551E-03 0.48514534E+02</pdfrwt>
<pdfrwt beam="2">  1       -2 0.49445110E-01 0.48514534E+02</pdfrwt>
<totfact> 0.24052309E+05</totfact>
</mgrwt>
</event>
<event>
 4    1  0.4635140E-002  0.4712461E+02  0.7818608E-02  0.1461498E+00
          2   -1    0    0    0  501  0.00000000000E+00  0.00000000000E+00  0.11214360428E+04  0.11214360428E+04  0.25500000000E-02 0. -1.
         -2   -1    0    0  501    0 -0.00000000000E+00 -0.00000000000E+00 -0.49506040254E+00  0.49506696988E+00  0.25500000000E-02 0. -1.
          2    1    1    2    0  502  0.96639045935E+01  0.20817533978E+02  0.68739391711E+03  0.68777696825E+03  0.25500000000E-02 0.  1.
         -2    1    1    2  502    0 -0.96639045935E+01 -0.20817533978E+02  0.43354706530E+03  0.43415414154E+03  0.25500000000E-02 0.  1.
<mgrwt>
<rscale>  0 0.47124612E+02</rscale>
<asrwt>0</asrwt>
<pdfrwt beam="1">  1        2 0.17252645E+00 0.47124612E+02</pdfrwt>
<pdfrwt beam="2">  1       -2 0.76164604E-04 0.47124612E+02</pdfrwt>
<totfact> 0.13396592E+06</totfact>
</mgrwt>
</event>
<event>
 4    1  0.4635140E-002  0.8635343E+02  0.7818608E-02  0.1311931E+00
          2   -1    0    0    0  501  0.00000000000E+00  0.00000000000E+00  0.10251618508E+04  0.10251618508E+04  0.25500000000E-02 0.  1.
         -2   -1    0    0  501    0 -0.00000000000E+00 -0.00000000000E+00 -0.18184715440E+01  0.18184733319E+01  0.25500000000E-02 0.  1.
          2    1    1    2    0  502 -0.21755980939E+01  0.41301277111E+02  0.65911302906E+03  0.66040935321E+03  0.25500000000E-02 0. -1.
         -2    1    1    2  502    0  0.21755980939E+01 -0.41301277111E+02  0.36423035023E+03  0.36657097097E+03  0.25500000000E-02 0. -1.
<mgrwt>
<rscale>  0 0.86353427E+02</rscale>
<asrwt>0</asrwt>
<pdfrwt beam="1">  1        2 0.15771654E+00 0.86353427E+02</pdfrwt>
<pdfrwt beam="2">  1       -2 0.27976618E-03 0.86353427E+02</pdfrwt>
<totfact> 0.28861332E+05</totfact>
</mgrwt>
</event>
<event>
 4    1  0.4635140E-002  0.5506076E+02  0.7818608E-02  0.1419812E+00
         -2   -1    0    0  501    0 -0.00000000000E+00  0.00000000000E+00  0.28629649549E+00  0.28630785150E+00  0.25500000000E-02 0.  1.
          2   -1    0    0    0  501  0.00000000000E+00 -0.00000000000E+00 -0.26472795029E+04  0.26472795029E+04  0.25500000000E-02 0.  1.
          2    1    1    2    0  502 -0.16298382306E+02  0.22095614343E+02 -0.12265085716E+04  0.12268158500E+04  0.25500000000E-02 0. -1.
         -2    1    1    2  502    0  0.16298382306E+02 -0.22095614343E+02 -0.14204846348E+04  0.14207499608E+04  0.25500000000E-02 0. -1.
<mgrwt>
<rscale>  0 0.55060762E+02</rscale>
<asrwt>0</asrwt>
<pdfrwt beam="2">  1        2 0.40725417E+00 0.55060762E+02</pdfrwt>
<pdfrwt beam="1">  1       -2 0.44048608E-04 0.55060762E+02</pdfrwt>
<totfact> 0.49837083E+05</totfact>
</mgrwt>
</event>
<event>
 4    1  0.4635140E-002  0.4556557E+02  0.7818608E-02  0.1470841E+00
          2   -1    0    0    0  501  0.00000000000E+00  0.00000000000E+00  0.62101692620E+03  0.62101692620E+03  0.25500000000E-02 0. -1.
         -2   -1    0    0  501    0 -0.00000000000E+00 -0.00000000000E+00 -0.83581306854E+00  0.83581695846E+00  0.25500000000E-02 0. -1.
          2    1    1    2    0  502 -0.20403484947E+02 -0.12889545039E+01  0.17287339517E+03  0.17407806974E+03  0.25500000000E-02 0.  1.
         -2    1    1    2  502    0  0.20403484947E+02  0.12889545039E+01  0.44730771796E+03  0.44777467342E+03  0.25500000000E-02 0.  1.
<mgrwt>
<rscale>  0 0.45565569E+02</rscale>
<asrwt>0</asrwt>
<pdfrwt beam="1">  1        2 0.95541417E-01 0.45565569E+02</pdfrwt>
<pdfrwt beam="2">  1       -2 0.12858645E-03 0.45565569E+02</pdfrwt>
<totfact> 0.13427324E+06</totfact>
</mgrwt>
</event>
<event>
 4    1  0.4635140E-002  0.4859145E+02  0.7818608E-02  0.1453090E+00
          2   -1    0    0    0  501  0.00000000000E+00  0.00000000000E+00  0.28906850475E+02  0.28906850588E+02  0.25500000000E-02 0.  1.
         -2   -1    0    0  501    0 -0.00000000000E+00 -0.00000000000E+00 -0.20420150283E+02  0.20420150442E+02  0.25500000000E-02 0.  1.
          2    1    1    2    0  502 -0.21963263433E+02 -0.10386745573E+02  0.43582306837E+01  0.24683265696E+02  0.25500000000E-02 0.  1.
         -2    1    1    2  502    0  0.21963263433E+02  0.10386745573E+02  0.41284695085E+01  0.24643735334E+02  0.25500000000E-02 0.  1.
<mgrwt>
<rscale>  0 0.48591449E+02</rscale>
<asrwt>0</asrwt>
<pdfrwt beam="1">  1        2 0.44472078E-02 0.48591449E+02</pdfrwt>
<pdfrwt beam="2">  1       -2 0.31415616E-02 0.48591449E+02</pdfrwt>
<totfact> 0.50283396E+05</totfact>
</mgrwt>
</event>
<event>
 4    1  0.4635140E-002  0.6725838E+02  0.7818608E-02  0.1369672E+00
         -2   -1    0    0  501    0 -0.00000000000E+00  0.00000000000E+00  0.12775039399E+03  0.12775039402E+03  0.25500000000E-02 0. -1.
          2   -1    0    0    0  501  0.00000000000E+00 -0.00000000000E+00 -0.88525931291E+01  0.88525934963E+01  0.25500000000E-02 0. -1.
          2    1    1    2    0  502 -0.17687021782E+02 -0.18404024457E+02  0.10391769195E+03  0.10700666130E+03  0.25500000000E-02 0.  1.
         -2    1    1    2  502    0  0.17687021782E+02  0.18404024457E+02  0.14980108909E+02  0.29596326210E+02  0.25500000000E-02 0.  1.
<mgrwt>
<rscale>  0 0.67258376E+02</rscale>
<asrwt>0</asrwt>
<pdfrwt beam="2">  1        2 0.13619376E-02 0.67258376E+02</pdfrwt>
<pdfrwt beam="1">  1       -2 0.19653904E-01 0.67258376E+02</pdfrwt>
<totfact> 0.15848695E+05</totfact>
</mgrwt>
</event>
<event>
 4    1  0.4635140E-002  0.6775590E+02  0.7818608E-02  0.1367895E+00
         -2   -1    0    0  501    0 -0.00000000000E+00  0.00000000000E+00  0.87390056613E+02  0.87390056650E+02  0.25500000000E-02 0. -1.
          2   -1    0    0    0  501  0.00000000000E+00 -0.00000000000E+00 -0.13133248630E+02  0.13133248878E+02  0.25500000000E-02 0. -1.
          2    1    1    2    0  502  0.28011220662E+02  0.18102414461E+02  0.28302552448E+02  0.43741974965E+02  0.25500000000E-02 0. -1.
         -2    1    1    2  502    0 -0.28011220662E+02 -0.18102414461E+02  0.45954255534E+02  0.56781330562E+02  0.25500000000E-02 0. -1.
<mgrwt>
<rscale>  0 0.67755896E+02</rscale>
<asrwt>0</asrwt>
<pdfrwt beam="2">  1        2 0.20204999E-02 0.67755896E+02</pdfrwt>
<pdfrwt beam="1">  1       -2 0.13444624E-01 0.67755896E+02</pdfrwt>
<totfact> 0.17296158E+05</totfact>
</mgrwt>
</event>
<event>
 4    1  0.4635140E-002  0.4685561E+02  0.7818608E-02  0.1463079E+00
          2   -1    0    0    0  501  0.00000000000E+00  0.00000000000E+00  0.34406527860E+03  0.34406527861E+03  0.25500000000E-02 0.  1.
         -2   -1    0    0  501    0 -0.00000000000E+00 -0.00000000000E+00 -0.15952252195E+01  0.15952272576E+01  0.25500000000E-02 0.  1.
          2    1    1    2    0  502  0.12968913081E+02 -0.19176114489E+02  0.14469177981E+03  0.14653200068E+03  0.25500000000E-02 0. -1.
         -2    1    1    2  502    0 -0.12968913081E+02  0.19176114489E+02  0.19777827357E+03  0.19912850518E+03  0.25500000000E-02 0. -1.
<mgrwt>
<rscale>  0 0.46855606E+02</rscale>
<asrwt>0</asrwt>
<pdfrwt beam="1">  1        2 0.52933107E-01 0.46855606E+02</pdfrwt>
<pdfrwt beam="2">  1       -2 0.24541948E-03 0.46855606E+02</pdfrwt>
<totfact> 0.10419380E+06</totfact>
</mgrwt>
</event>
<event>
 4    1  0.4635140E-002  0.4398510E+02  0.7818608E-02  0.1480779E+00
          2   -1    0    0    0  501  0.00000000000E+00  0.00000000000E+00  0.53805485632E+02  0.53805485692E+02  0.25500000000E-02 0. -1.
         -2   -1    0    0  501    0 -0.00000000000E+00 -0.00000000000E+00 -0.89892746565E+01  0.89892750182E+01  0.25500000000E-02 0. -1.
          2    1    1    2    0  502  0.97356454472E+01  0.19360308272E+02  0.27762784814E+02  0.35218980050E+02  0.25500000000E-02 0.  1.
         -2    1    1    2  502    0 -0.97356454472E+01 -0.19360308272E+02  0.17053426162E+02  0.27575780660E+02  0.25500000000E-02 0.  1.
<mgrwt>
<rscale>  0 0.43985102E+02</rscale>
<asrwt>0</asrwt>
<pdfrwt beam="1">  1        2 0.82777670E-02 0.43985102E+02</pdfrwt>
<pdfrwt beam="2">  1       -2 0.13829654E-02 0.43985102E+02</pdfrwt>
<totfact> 0.72090188E+05</totfact>
</mgrwt>
</event>
<event>
 4    1  0.4635140E-002  0.7952442E+02  0.7818608E-02  0.1330407E+00
          2   -1    0    0    0  501  0.00000000000E+00  0.00000000000E+00  0.49243662273E+03  0.49243662274E+03  0.25500000000E-02 0.  1.
         -2   -1    0    0  501    0 -0.00000000000E+00 -0.00000000000E+00 -0.32106323642E+01  0.32106333769E+01  0.25500000000E-02 0.  1.
          2    1    1    2    0  502 -0.33320860030E+02  0.12665235477E+02  0.35441108929E+03  0.35619925340E+03  0.25500000000E-02 0. -1.
         -2    1    1    2  502    0  0.33320860030E+02 -0.12665235477E+02  0.13481490107E+03  0.13944800271E+03  0.25500000000E-02 0. -1.
<mgrwt>
<rscale>  0 0.79524417E+02</rscale>
<asrwt>0</asrwt>
<pdfrwt beam="1">  1        2 0.75759467E-01 0.79524417E+02</pdfrwt>
<pdfrwt beam="2">  1       -2 0.49394361E-03 0.79524417E+02</pdfrwt>
<totfact> 0.30713575E+05</totfact>
</mgrwt>
</event>
<event>
 4    1  0.4635140E-002  0.4302587E+02  0.7818608E-02  0.1487056E+00
          2   -1    0    0    0  501  0.00000000000E+00  0.00000000000E+00  0.10942965007E+04  0.10942965007E+04  0.25500000000E-02 0.  1.
         -2   -1    0    0  501    0 -0.00000000000E+00 -0.00000000000E+00 -0.42292216333E+00  0.42292985084E+00  0.25500000000E-02 0.  1.
          2    1    1    2    0  502  0.64751303514E+01  0.20267210778E+02  0.62787402657E+03  0.62823441516E+03  0.25500000000E-02 0. -1.
         -2    1    1    2  502    0 -0.64751303514E+01 -0.20267210778E+02  0.46599955197E+03  0.46648501540E+03  0.25500000000E-02 0. -1.
<mgrwt>
<rscale>  0 0.43025874E+02</rscale>
<asrwt>0</asrwt>
<pdfrwt beam="1">  1        2 0.16835144E+00 0.43025874E+02</pdfrwt>
<pdfrwt beam="2">  1       -2 0.65066264E-04 0.43025874E+02</pdfrwt>
<totfact> 0.16737890E+06</totfact>
</mgrwt>
</event>
<event>
 4    1  0.4635140E-002  0.6769417E+02  0.7818608E-02  0.1368114E+00
         -2   -1    0    0  501    0 -0.00000000000E+00  0.00000000000E+00  0.34268847268E+01  0.34268856755E+01  0.25500000000E-02 0. -1.
          2   -1    0    0    0  501  0.00000000000E+00 -0.00000000000E+00 -0.33430507191E+03  0.33430507192E+03  0.25500000000E-02 0. -1.
          2    1    1    2    0  502 -0.73988758784E+01  0.26723014762E+02 -0.68599139970E+02  0.73991248762E+02  0.25500000000E-02 0.  1.
         -2    1    1    2  502    0  0.73988758784E+01 -0.26723014762E+02 -0.26227904721E+03  0.26374070883E+03  0.25500000000E-02 0.  1.
<mgrwt>
<rscale>  0 0.67694168E+02</rscale>
<asrwt>0</asrwt>
<pdfrwt beam="2">  1        2 0.51431524E-01 0.67694168E+02</pdfrwt>
<pdfrwt beam="1">  1       -2 0.52721337E-03 0.67694168E+02</pdfrwt>
<totfact> 0.40794873E+05</totfact>
</mgrwt>
</event>
<event>
 4    1  0.4635140E-002  0.4007952E+02  0.7818608E-02  0.1507627E+00
          2   -1    0    0    0  501  0.00000000000E+00  0.00000000000E+00  0.12403366709E+04  0.12403366709E+04  0.25500000000E-02 0. -1.
         -2   -1    0    0  501    0 -0.00000000000E+00 -0.00000000000E+00 -0.32377161772E+00  0.32378165936E+00  0.25500000000E-02 0. -1.
          2    1    1    2    0  502 -0.24069018047E+01  0.19887419895E+02  0.63665862242E+03  0.63697370758E+03  0.25500000000E-02 0. -1.
         -2    1    1    2  502    0  0.24069018047E+01 -0.19887419895E+02  0.60335427685E+03  0.60368674497E+03  0.25500000000E-02 0. -1.
<mgrwt>
<rscale>  0 0.40079523E+02</rscale>
<asrwt>0</asrwt>
<pdfrwt beam="1">  1        2 0.19082215E+00 0.40079523E+02</pdfrwt>
<pdfrwt beam="2">  1       -2 0.49811498E-04 0.40079523E+02</pdfrwt>
<totfact> 0.19693607E+06</totfact>
</mgrwt>
</event>
<event>
 4    1  0.4635140E-002  0.4673751E+02  0.7818608E-02  0.1463777E+00
          2   -1    0    0    0  501  0.00000000000E+00  0.00000000000E+00  0.53357051460E+01  0.53357057554E+01  0.25500000000E-02 0. -1.
         -2   -1    0    0  501    0 -0.00000000000E+00 -0.00000000000E+00 -0.10234798852E+03  0.10234798855E+03  0.25500000000E-02 0. -1.
          2    1    1    2    0  502  0.13362319639E+02  0.15121337705E+02 -0.21352791608E+02  0.29379383181E+02  0.25500000000E-02 0. -1.
         -2    1    1    2  502    0 -0.13362319639E+02 -0.15121337705E+02 -0.75659491764E+02  0.78304311124E+02  0.25500000000E-02 0. -1.
<mgrwt>
<rscale>  0 0.46737511E+02</rscale>
<asrwt>0</asrwt>
<pdfrwt beam="1">  1        2 0.82087784E-03 0.46737511E+02</pdfrwt>
<pdfrwt beam="2">  1       -2 0.15745843E-01 0.46737511E+02</pdfrwt>
<totfact> 0.41352071E+05</totfact>
</mgrwt>
</event>
<event>
 4    1  0.4635140E-002  0.4245163E+02  0.7818608E-02  0.1490908E+00
          2   -1    0    0    0  501  0.00000000000E+00  0.00000000000E+00  0.54010132361E+02  0.54010132421E+02  0.25500000000E-02 0. -1.
         -2   -1    0    0  501    0 -0.00000000000E+00 -0.00000000000E+00 -0.83416792184E+01  0.83416796082E+01  0.25500000000E-02 0. -1.
          2    1    1    2    0  502  0.20121014237E+02 -0.67381236260E+01  0.22060248243E+02  0.30609019634E+02  0.25500000000E-02 0.  1.
         -2    1    1    2  502    0 -0.20121014237E+02  0.67381236260E+01  0.23608204899E+02  0.31742792395E+02  0.25500000000E-02 0.  1.
<mgrwt>
<rscale>  0 0.42451630E+02</rscale>
<asrwt>0</asrwt>
<pdfrwt beam="1">  1        2 0.83092509E-02 0.42451630E+02</pdfrwt>
<pdfrwt beam="2">  1       -2 0.12833353E-02 0.42451630E+02</pdfrwt>
<totfact> 0.78873113E+05</totfact>
</mgrwt>
</event>
<event>
 4    1  0.4635140E-002  0.8127957E+02  0.7818608E-02  0.1325459E+00
         -2   -1    0    0  501    0 -0.00000000000E+00  0.00000000000E+00  0.29962821993E+01  0.29962832844E+01  0.25500000000E-02 0.  1.
          2   -1    0    0    0  501  0.00000000000E+00 -0.00000000000E+00 -0.55121365236E+03  0.55121365236E+03  0.25500000000E-02 0.  1.
          2    1    1    2    0  502 -0.10502890039E+02 -0.21215827890E+02 -0.48872003396E+02  0.54303727080E+02  0.25500000000E-02 0. -1.
         -2    1    1    2  502    0  0.10502890039E+02  0.21215827890E+02 -0.49934536676E+03  0.49990620857E+03  0.25500000000E-02 0. -1.
<mgrwt>
<rscale>  0 0.81279566E+02</rscale>
<asrwt>0</asrwt>
<pdfrwt beam="2">  1        2 0.84802020E-01 0.81279566E+02</pdfrwt>
<pdfrwt beam="1">  1       -2 0.46096701E-03 0.81279566E+02</pdfrwt>
<totfact> 0.30054667E+05</totfact>
</mgrwt>
</event>
<event>
 4    1  0.4635140E-002  0.5350475E+02  0.7818608E-02  0.1427305E+00
         -2   -1    0    0  501    0 -0.00000000000E+00  0.00000000000E+00  0.44063735202E+02  0.44063735276E+02  0.25500000000E-02 0. -1.
          2   -1    0    0    0  501  0.00000000000E+00 -0.00000000000E+00 -0.16242144400E+02  0.16242144600E+02  0.25500000000E-02 0. -1.
          2    1    1    2    0  502 -0.15709696249E+02  0.18715242612E+02  0.16343348954E+01  0.24489302140E+02  0.25500000000E-02 0.  1.
         -2    1    1    2  502    0  0.15709696249E+02 -0.18715242612E+02  0.26187255908E+02  0.35816577736E+02  0.25500000000E-02 0.  1.
<mgrwt>
<rscale>  0 0.53504750E+02</rscale>
<asrwt>0</asrwt>
<pdfrwt beam="2">  1        2 0.24987915E-02 0.53504750E+02</pdfrwt>
<pdfrwt beam="1">  1       -2 0.67790362E-02 0.53504750E+02</pdfrwt>
<totfact> 0.35429708E+05</totfact>
</mgrwt>
</event>
<event>
 4    1  0.4635140E-002  0.4463251E+02  0.7818608E-02  0.1476649E+00
         -2   -1    0    0  501    0 -0.00000000000E+00  0.00000000000E+00  0.51932900607E+02  0.51932900670E+02  0.25500000000E-02 0.  1.
          2   -1    0    0    0  501  0.00000000000E+00 -0.00000000000E+00 -0.95895895572E+01  0.95895898963E+01  0.25500000000E-02 0.  1.
          2    1    1    2    0  502  0.10331185103E+02 -0.17387648971E+02  0.34172130169E+02  0.39708918509E+02  0.25500000000E-02 0.  1.
         -2    1    1    2  502    0 -0.10331185103E+02  0.17387648971E+02  0.81711808810E+01  0.21813572057E+02  0.25500000000E-02 0.  1.
<mgrwt>
<rscale>  0 0.44632509E+02</rscale>
<asrwt>0</asrwt>
<pdfrwt beam="2">  1        2 0.14753215E-02 0.44632509E+02</pdfrwt>
<pdfrwt beam="1">  1       -2 0.79896770E-02 0.44632509E+02</pdfrwt>
<totfact> 0.53162957E+05</totfact>
</mgrwt>
</event>
<event>
 4    1  0.4635140E-002  0.8527616E+02  0.7818608E-02  0.1314712E+00
         -2   -1    0    0  501    0 -0.00000000000E+00  0.00000000000E+00  0.48506782917E+02  0.48506782984E+02  0.25500000000E-02 0.  1.
          2   -1    0    0    0  501  0.00000000000E+00 -0.00000000000E+00 -0.37479416108E+02  0.37479416195E+02  0.25500000000E-02 0.  1.
          2    1    1    2    0  502 -0.30042128831E+02  0.22668801902E+02  0.25720548686E+02  0.45584544701E+02  0.25500000000E-02 0.  1.
         -2    1    1    2  502    0  0.30042128831E+02 -0.22668801902E+02 -0.14693181877E+02  0.40401654478E+02  0.25500000000E-02 0.  1.
<mgrwt>
<rscale>  0 0.85276161E+02</rscale>
<asrwt>0</asrwt>
<pdfrwt beam="2">  1        2 0.57660640E-02 0.85276161E+02</pdfrwt>
<pdfrwt beam="1">  1       -2 0.74625820E-02 0.85276161E+02</pdfrwt>
<totfact> 0.11378282E+05</totfact>
</mgrwt>
</event>
<event>
 4    1  0.4635140E-002  0.5484396E+02  0.7818608E-02  0.1420838E+00
         -2   -1    0    0  501    0 -0.00000000000E+00  0.00000000000E+00  0.96089610431E+00  0.96089948786E+00  0.25500000000E-02 0. -1.
          2   -1    0    0    0  501  0.00000000000E+00 -0.00000000000E+00 -0.78256505668E+03  0.78256505668E+03  0.25500000000E-02 0. -1.
          2    1    1    2    0  502 -0.11654524503E+02  0.18927960096E+02 -0.16138566532E+03  0.16290926490E+03  0.25500000000E-02 0. -1.
         -2    1    1    2  502    0  0.11654524503E+02 -0.18927960096E+02 -0.62021849526E+03  0.62061669127E+03  0.25500000000E-02 0. -1.
<mgrwt>
<rscale>  0 0.54843962E+02</rscale>
<asrwt>0</asrwt>
<pdfrwt beam="2">  1        2 0.12039411E+00 0.54843962E+02</pdfrwt>
<pdfrwt beam="1">  1       -2 0.14783106E-03 0.54843962E+02</pdfrwt>
<totfact> 0.89470843E+05</totfact>
</mgrwt>
</event>
<event>
 4    1  0.4635140E-002  0.6063305E+02  0.7818608E-02  0.1395194E+00
         -2   -1    0    0  501    0 -0.00000000000E+00  0.00000000000E+00  0.11829233538E+01  0.11829261023E+01  0.25500000000E-02 0. -1.
          2   -1    0    0    0  501  0.00000000000E+00 -0.00000000000E+00 -0.77696539251E+03  0.77696539251E+03  0.25500000000E-02 0. -1.
          2    1    1    2    0  502  0.76129526569E+01 -0.23865071891E+02 -0.16874125077E+03  0.17059046991E+03  0.25500000000E-02 0.  1.
         -2    1    1    2  502    0 -0.76129526569E+01  0.23865071891E+02 -0.60704121838E+03  0.60755784871E+03  0.25500000000E-02 0.  1.
<mgrwt>
<rscale>  0 0.60633046E+02</rscale>
<asrwt>0</asrwt>
<pdfrwt beam="2">  1        2 0.11953273E+00 0.60633046E+02</pdfrwt>
<pdfrwt beam="1">  1       -2 0.18198904E-03 0.60633046E+02</pdfrwt>
<totfact> 0.69465937E+05</totfact>
</mgrwt>
</event>
<event>
 4    1  0.4635140E-002  0.5249168E+02  0.7818608E-02  0.1432347E+00
          2   -1    0    0    0  501  0.00000000000E+00  0.00000000000E+00  0.41814541178E+02  0.41814541256E+02  0.25500000000E-02 0. -1.
         -2   -1    0    0  501    0 -0.00000000000E+00 -0.00000000000E+00 -0.16473790370E+02  0.16473790567E+02  0.25500000000E-02 0. -1.
          2    1    1    2    0  502 -0.20880698312E+02  0.84068004453E+01 -0.23169801515E+01  0.22628439169E+02  0.25500000000E-02 0.  1.
         -2    1    1    2  502    0  0.20880698312E+02 -0.84068004453E+01  0.27657730960E+02  0.35659892653E+02  0.25500000000E-02 0.  1.
<mgrwt>
<rscale>  0 0.52491675E+02</rscale>
<asrwt>0</asrwt>
<pdfrwt beam="1">  1        2 0.64330062E-02 0.52491675E+02</pdfrwt>
<pdfrwt beam="2">  1       -2 0.25344294E-02 0.52491675E+02</pdfrwt>
<totfact> 0.43755512E+05</totfact>
</mgrwt>
</event>
<event>
 4    1  0.4635140E-002  0.5646148E+02  0.7818608E-02  0.1413311E+00
          2   -1    0    0    0  501  0.00000000000E+00  0.00000000000E+00  0.17668651897E+04  0.17668651897E+04  0.25500000000E-02 0.  1.
         -2   -1    0    0  501    0 -0.00000000000E+00 -0.00000000000E+00 -0.45106341436E+00  0.45107062227E+00  0.25500000000E-02 0.  1.
          2    1    1    2    0  502  0.14981002730E+02  0.21184326315E+02  0.53497635084E+03  0.53560517370E+03  0.25500000000E-02 0.  1.
         -2    1    1    2  502    0 -0.14981002730E+02 -0.21184326315E+02  0.12314377755E+04  0.12317110867E+04  0.25500000000E-02 0.  1.
<mgrwt>
<rscale>  0 0.56461478E+02</rscale>
<asrwt>0</asrwt>
<pdfrwt beam="1">  1        2 0.27182700E+00 0.56461478E+02</pdfrwt>
<pdfrwt beam="2">  1       -2 0.69394522E-04 0.56461478E+02</pdfrwt>
<totfact> 0.74644170E+05</totfact>
</mgrwt>
</event>
<event>
 4    1  0.4635140E-002  0.4173432E+02  0.7818608E-02  0.1495823E+00
          2   -1    0    0    0  501  0.00000000000E+00  0.00000000000E+00  0.15611696631E+01  0.15611717456E+01  0.25500000000E-02 0.  1.
         -2   -1    0    0  501    0 -0.00000000000E+00 -0.00000000000E+00 -0.27891783358E+03  0.27891783359E+03  0.25500000000E-02 0.  1.
          2    1    1    2    0  502  0.12851934515E+02  0.16224551744E+02 -0.15649744773E+03  0.15786025293E+03  0.25500000000E-02 0. -1.
         -2    1    1    2  502    0 -0.12851934515E+02 -0.16224551744E+02 -0.12085921618E+03  0.12261875241E+03  0.25500000000E-02 0. -1.
<mgrwt>
<rscale>  0 0.41734319E+02</rscale>
<asrwt>0</asrwt>
<pdfrwt beam="1">  1        2 0.24018033E-03 0.41734319E+02</pdfrwt>
<pdfrwt beam="2">  1       -2 0.42910396E-01 0.41734319E+02</pdfrwt>
<totfact> 0.37503486E+05</totfact>
</mgrwt>
</event>
<event>
 4    1  0.4635140E-002  0.6052779E+02  0.7818608E-02  0.1395630E+00
          2   -1    0    0    0  501  0.00000000000E+00  0.00000000000E+00  0.73669715894E+02  0.73669715938E+02  0.25500000000E-02 0. -1.
         -2   -1    0    0  501    0 -0.00000000000E+00 -0.00000000000E+00 -0.12432561480E+02  0.12432561741E+02  0.25500000000E-02 0. -1.
          2    1    1    2    0  502 -0.41983780941E+01  0.29781980742E+02  0.25834466918E+02  0.39648612119E+02  0.25500000000E-02 0.  1.
         -2    1    1    2  502    0  0.41983780941E+01 -0.29781980742E+02  0.35402687496E+02  0.46453665560E+02  0.25500000000E-02 0.  1.
<mgrwt>
<rscale>  0 0.60527788E+02</rscale>
<asrwt>0</asrwt>
<pdfrwt beam="1">  1        2 0.11333803E-01 0.60527788E+02</pdfrwt>
<pdfrwt beam="2">  1       -2 0.19127018E-02 0.60527788E+02</pdfrwt>
<totfact> 0.33932510E+05</totfact>
</mgrwt>
</event>
<event>
 4    1  0.4635140E-002  0.4189960E+02  0.7818608E-02  0.1494680E+00
          2   -1    0    0    0  501  0.00000000000E+00  0.00000000000E+00  0.82803646863E+02  0.82803646902E+02  0.25500000000E-02 0. -1.
         -2   -1    0    0  501    0 -0.00000000000E+00 -0.00000000000E+00 -0.53004207337E+01  0.53004213471E+01  0.25500000000E-02 0. -1.
          2    1    1    2    0  502  0.12769879516E+02 -0.16367891683E+02  0.32835283962E+02  0.38847568526E+02  0.25500000000E-02 0. -1.
         -2    1    1    2  502    0 -0.12769879516E+02  0.16367891683E+02  0.44667942168E+02  0.49256499724E+02  0.25500000000E-02 0. -1.
<mgrwt>
<rscale>  0 0.41899604E+02</rscale>
<asrwt>0</asrwt>
<pdfrwt beam="1">  1        2 0.12739024E-01 0.41899604E+02</pdfrwt>
<pdfrwt beam="2">  1       -2 0.81544931E-03 0.41899604E+02</pdfrwt>
<totfact> 0.89042906E+05</totfact>
</mgrwt>
</event>
<event>
 4    1  0.4635140E-002  0.4604828E+02  0.7818608E-02  0.1467902E+00
          2   -1    0    0    0  501  0.00000000000E+00  0.00000000000E+00  0.36217399564E+03  0.36217399565E+03  0.25500000000E-02 0.  1.
         -2   -1    0    0  501    0 -0.00000000000E+00 -0.00000000000E+00 -0.14636901299E+01  0.14636923511E+01  0.25500000000E-02 0.  1.
          2    1    1    2    0  502 -0.14002358240E+02 -0.17015467399E+02  0.12766530695E+03  0.12955316581E+03  0.25500000000E-02 0. -1.
         -2    1    1    2  502    0  0.14002358240E+02  0.17015467399E+02  0.23304499856E+03  0.23408452219E+03  0.25500000000E-02 0. -1.
<mgrwt>
<rscale>  0 0.46048275E+02</rscale>
<asrwt>0</asrwt>
<pdfrwt beam="1">  1        2 0.55719079E-01 0.46048275E+02</pdfrwt>
<pdfrwt beam="2">  1       -2 0.22518326E-03 0.46048275E+02</pdfrwt>
<totfact> 0.11067314E+06</totfact>
</mgrwt>
</event>
<event>
 4    1  0.4635140E-002  0.4698301E+02  0.7818608E-02  0.1462329E+00
          2   -1    0    0    0  501  0.00000000000E+00  0.00000000000E+00  0.85017186883E+03  0.85017186884E+03  0.25500000000E-02 0.  1.
         -2   -1    0    0  501    0 -0.00000000000E+00 -0.00000000000E+00 -0.64910238645E+00  0.64910739527E+00  0.25500000000E-02 0.  1.
          2    1    1    2    0  502 -0.14684883916E+02 -0.16876222813E+02  0.29493274332E+03  0.29577994489E+03  0.25500000000E-02 0. -1.
         -2    1    1    2  502    0  0.14684883916E+02  0.16876222813E+02  0.55459002313E+03  0.55504103134E+03  0.25500000000E-02 0. -1.
<mgrwt>
<rscale>  0 0.46983006E+02</rscale>
<asrwt>0</asrwt>
<pdfrwt beam="1">  1        2 0.13079650E+00 0.46983006E+02</pdfrwt>
<pdfrwt beam="2">  1       -2 0.99861657E-04 0.46983006E+02</pdfrwt>
<totfact> 0.13288737E+06</totfact>
</mgrwt>
</event>
<event>
 4    1  0.4635140E-002  0.4998409E+02  0.7818608E-02  0.1445427E+00
          2   -1    0    0    0  501  0.00000000000E+00  0.00000000000E+00  0.53961849560E+02  0.53961849621E+02  0.25500000000E-02 0. -1.
         -2   -1    0    0  501    0 -0.00000000000E+00 -0.00000000000E+00 -0.11574887248E+02  0.11574887529E+02  0.25500000000E-02 0. -1.
          2    1    1    2    0  502 -0.20816404998E+02 -0.11402558983E+02  0.10931150993E+02  0.26131037808E+02  0.25500000000E-02 0.  1.
         -2    1    1    2  502    0  0.20816404998E+02  0.11402558983E+02  0.31455811320E+02  0.39405699342E+02  0.25500000000E-02 0.  1.
<mgrwt>
<rscale>  0 0.49984091E+02</rscale>
<asrwt>0</asrwt>
<pdfrwt beam="1">  1        2 0.83018231E-02 0.49984091E+02</pdfrwt>
<pdfrwt beam="2">  1       -2 0.17807519E-02 0.49984091E+02</pdfrwt>
<totfact> 0.52102285E+05</totfact>
</mgrwt>
</event>
<event>
 4    1  0.4635140E-002  0.4661226E+02  0.7818608E-02  0.1464520E+00
         -2   -1    0    0  501    0 -0.00000000000E+00  0.00000000000E+00  0.84545041547E+01  0.84545045392E+01  0.25500000000E-02 0.  1.
          2   -1    0    0    0  501  0.00000000000E+00 -0.00000000000E+00 -0.64246903355E+02  0.64246903405E+02  0.25500000000E-02 0.  1.
          2    1    1    2    0  502 -0.72478072177E+01 -0.21718897028E+02 -0.34683074342E+02  0.41559076625E+02  0.25500000000E-02 0. -1.
         -2    1    1    2  502    0  0.72478072177E+01  0.21718897028E+02 -0.21109324858E+02  0.31142331320E+02  0.25500000000E-02 0. -1.
<mgrwt>
<rscale>  0 0.46612261E+02</rscale>
<asrwt>0</asrwt>
<pdfrwt beam="2">  1        2 0.98841387E-02 0.46612261E+02</pdfrwt>
<pdfrwt beam="1">  1       -2 0.13006930E-02 0.46612261E+02</pdfrwt>
<totfact> 0.64485535E+05</totfact>
</mgrwt>
</event>
<event>
 4    1  0.4635140E-002  0.4507092E+02  0.7818608E-02  0.1473899E+00
         -2   -1    0    0  501    0 -0.00000000000E+00  0.00000000000E+00  0.35177742907E+00  0.35178667130E+00  0.25500000000E-02 0. -1.
          2   -1    0    0    0  501  0.00000000000E+00 -0.00000000000E+00 -0.14436410155E+04  0.14436410155E+04  0.25500000000E-02 0. -1.
          2    1    1    2    0  502  0.17418228814E+02  0.14210317542E+02 -0.67079384064E+03  0.67117039898E+03  0.25500000000E-02 0.  1.
         -2    1    1    2  502    0 -0.17418228814E+02 -0.14210317542E+02 -0.77249539739E+03  0.77282240316E+03  0.25500000000E-02 0.  1.
<mgrwt>
<rscale>  0 0.45070922E+02</rscale>
<asrwt>0</asrwt>
<pdfrwt beam="2">  1        2 0.22209388E+00 0.45070922E+02</pdfrwt>
<pdfrwt beam="1">  1       -2 0.54121471E-04 0.45070922E+02</pdfrwt>
<totfact> 0.14334275E+06</totfact>
</mgrwt>
</event>
<event>
 4    1  0.4635140E-002  0.4063436E+02  0.7818608E-02  0.1503594E+00
          2   -1    0    0    0  501  0.00000000000E+00  0.00000000000E+00  0.47422793140E+03  0.47422793141E+03  0.25500000000E-02 0.  1.
         -2   -1    0    0  501    0 -0.00000000000E+00 -0.00000000000E+00 -0.87044009986E+00  0.87044383503E+00  0.25500000000E-02 0.  1.
          2    1    1    2    0  502  0.18598787144E+02 -0.79486888192E+01  0.25914252755E+03  0.25993065639E+03  0.25500000000E-02 0.  1.
         -2    1    1    2  502    0 -0.18598787144E+02  0.79486888192E+01  0.21421496375E+03  0.21516771885E+03  0.25500000000E-02 0.  1.
<mgrwt>
<rscale>  0 0.40634365E+02</rscale>
<asrwt>0</asrwt>
<pdfrwt beam="1">  1        2 0.72958299E-01 0.40634365E+02</pdfrwt>
<pdfrwt beam="2">  1       -2 0.13391386E-03 0.40634365E+02</pdfrwt>
<totfact> 0.16400395E+06</totfact>
</mgrwt>
</event>
<event>
 4    1  0.4635140E-002  0.8623210E+02  0.7818608E-02  0.1312242E+00
         -2   -1    0    0  501    0 -0.00000000000E+00  0.00000000000E+00  0.23413066786E+03  0.23413066787E+03  0.25500000000E-02 0.  1.
          2   -1    0    0    0  501  0.00000000000E+00 -0.00000000000E+00 -0.79399844360E+01  0.79399848455E+01  0.25500000000E-02 0.  1.
          2    1    1    2    0  502 -0.29268159086E+02  0.29562975838E+01  0.20158353070E+03  0.20371864099E+03  0.25500000000E-02 0.  1.
         -2    1    1    2  502    0  0.29268159086E+02 -0.29562975838E+01  0.24607152718E+02  0.38352011721E+02  0.25500000000E-02 0.  1.
<mgrwt>
<rscale>  0 0.86232103E+02</rscale>
<asrwt>0</asrwt>
<pdfrwt beam="2">  1        2 0.12215363E-02 0.86232103E+02</pdfrwt>
<pdfrwt beam="1">  1       -2 0.36020096E-01 0.86232103E+02</pdfrwt>
<totfact> 0.66901129E+04</totfact>
</mgrwt>
</event>
<event>
 4    1  0.4635140E-002  0.5610322E+02  0.7818608E-02  0.1414953E+00
         -2   -1    0    0  501    0 -0.00000000000E+00  0.00000000000E+00  0.22130536471E+01  0.22130551162E+01  0.25500000000E-02 0.  1.
          2   -1    0    0    0  501  0.00000000000E+00 -0.00000000000E+00 -0.35556871642E+03  0.35556871643E+03  0.25500000000E-02 0.  1.
          2    1    1    2    0  502 -0.24980611490E+02  0.33550254837E+01 -0.98156393458E+02  0.10134083446E+03  0.25500000000E-02 0. -1.
         -2    1    1    2  502    0  0.24980611490E+02 -0.33550254837E+01 -0.25519926931E+03  0.25644093708E+03  0.25500000000E-02 0. -1.
<mgrwt>
<rscale>  0 0.56103223E+02</rscale>
<asrwt>0</asrwt>
<pdfrwt beam="2">  1        2 0.54702834E-01 0.56103223E+02</pdfrwt>
<pdfrwt beam="1">  1       -2 0.34047019E-03 0.56103223E+02</pdfrwt>
<totfact> 0.67269137E+05</totfact>
</mgrwt>
</event>
<event>
 4    1  0.4635140E-002  0.4249496E+02  0.7818608E-02  0.1490615E+00
         -2   -1    0    0  501    0 -0.00000000000E+00  0.00000000000E+00  0.67329676832E+00  0.67330159715E+00  0.25500000000E-02 0.  1.
          2   -1    0    0    0  501  0.00000000000E+00 -0.00000000000E+00 -0.67051238736E+03  0.67051238737E+03  0.25500000000E-02 0.  1.
          2    1    1    2    0  502  0.14073930441E+02 -0.15721974404E+02 -0.29559338518E+03  0.29634558435E+03  0.25500000000E-02 0. -1.
         -2    1    1    2  502    0 -0.14073930441E+02  0.15721974404E+02 -0.37424570542E+03  0.37484010461E+03  0.25500000000E-02 0. -1.
<mgrwt>
<rscale>  0 0.42494962E+02</rscale>
<asrwt>0</asrwt>
<pdfrwt beam="2">  1        2 0.10315522E+00 0.42494962E+02</pdfrwt>
<pdfrwt beam="1">  1       -2 0.10358503E-03 0.42494962E+02</pdfrwt>
<totfact> 0.16214025E+06</totfact>
</mgrwt>
</event>
<event>
 4    1  0.4635140E-002  0.4374738E+02  0.7818608E-02  0.1482316E+00
          2   -1    0    0    0  501  0.00000000000E+00  0.00000000000E+00  0.67825191600E+02  0.67825191648E+02  0.25500000000E-02 0. -1.
         -2   -1    0    0  501    0 -0.00000000000E+00 -0.00000000000E+00 -0.70542858861E+01  0.70542863470E+01  0.25500000000E-02 0. -1.
          2    1    1    2    0  502  0.64882683325E+01  0.20887819787E+02  0.29967369169E+02  0.37100429415E+02  0.25500000000E-02 0.  1.
         -2    1    1    2  502    0 -0.64882683325E+01 -0.20887819787E+02  0.30803536546E+02  0.37779048580E+02  0.25500000000E-02 0.  1.
<mgrwt>
<rscale>  0 0.43747380E+02</rscale>
<asrwt>0</asrwt>
<pdfrwt beam="1">  1        2 0.10434645E-01 0.43747380E+02</pdfrwt>
<pdfrwt beam="2">  1       -2 0.10852748E-02 0.43747380E+02</pdfrwt>
<totfact> 0.76524403E+05</totfact>
</mgrwt>
</event>
<event>
 4    1  0.4635140E-002  0.5318680E+02  0.7818608E-02  0.1428873E+00
         -2   -1    0    0  501    0 -0.00000000000E+00  0.00000000000E+00  0.12014506817E+01  0.12014533878E+01  0.25500000000E-02 0. -1.
          2   -1    0    0    0  501  0.00000000000E+00 -0.00000000000E+00 -0.58862857793E+03  0.58862857794E+03  0.25500000000E-02 0. -1.
          2    1    1    2    0  502 -0.50624614033E+01 -0.25338979851E+02 -0.36342639021E+03  0.36434383969E+03  0.25500000000E-02 0. -1.
         -2    1    1    2  502    0  0.50624614033E+01  0.25338979851E+02 -0.22400073704E+03  0.22548619163E+03  0.25500000000E-02 0. -1.
<mgrwt>
<rscale>  0 0.53186803E+02</rscale>
<asrwt>0</asrwt>
<pdfrwt beam="2">  1        2 0.90558013E-01 0.53186803E+02</pdfrwt>
<pdfrwt beam="1">  1       -2 0.18483925E-03 0.53186803E+02</pdfrwt>
<totfact> 0.90391451E+05</totfact>
</mgrwt>
</event>
<event>
 4    1  0.4635140E-002  0.4960197E+02  0.7818608E-02  0.1447500E+00
          2   -1    0    0    0  501  0.00000000000E+00  0.00000000000E+00  0.10424341315E+04  0.10424341315E+04  0.25500000000E-02 0. -1.
         -2   -1    0    0  501    0 -0.00000000000E+00 -0.00000000000E+00 -0.59004771184E+00  0.59005322196E+00  0.25500000000E-02 0. -1.
          2    1    1    2    0  502 -0.24394650194E+02  0.35252565525E+01  0.46309594176E+03  0.46375141798E+03  0.25500000000E-02 0.  1.
         -2    1    1    2  502    0  0.24394650194E+02 -0.35252565525E+01  0.57874814203E+03  0.57927276676E+03  0.25500000000E-02 0.  1.
<mgrwt>
<rscale>  0 0.49601966E+02</rscale>
<asrwt>0</asrwt>
<pdfrwt beam="1">  1        2 0.16037403E+00 0.49601966E+02</pdfrwt>
<pdfrwt beam="2">  1       -2 0.90777252E-04 0.49601966E+02</pdfrwt>
<totfact> 0.11822439E+06</totfact>
</mgrwt>
</event>
<event>
 4    1  0.4635140E-002  0.1379326E+03  0.7818608E-02  0.1216138E+00
         -2   -1    0    0  501    0 -0.00000000000E+00  0.00000000000E+00  0.51487429178E+01  0.51487435493E+01  0.25500000000E-02 0.  1.
          2   -1    0    0    0  501  0.00000000000E+00 -0.00000000000E+00 -0.92378928776E+03  0.92378928776E+03  0.25500000000E-02 0.  1.
          2    1    1    2    0  502  0.11355271028E+02 -0.61459572195E+02 -0.26295575400E+03  0.27028124197E+03  0.25500000000E-02 0.  1.
         -2    1    1    2  502    0 -0.11355271028E+02  0.61459572195E+02 -0.65568479084E+03  0.65865678934E+03  0.25500000000E-02 0.  1.
<mgrwt>
<rscale>  0 0.13793265E+03</rscale>
<asrwt>0</asrwt>
<pdfrwt beam="2">  1        2 0.14212130E+00 0.13793265E+03</pdfrwt>
<pdfrwt beam="1">  1       -2 0.79211508E-03 0.13793265E+03</pdfrwt>
<totfact> 0.81726909E+04</totfact>
</mgrwt>
</event>
<event>
 4    1  0.4635140E-002  0.4206742E+02  0.7818608E-02  0.1493526E+00
          2   -1    0    0    0  501  0.00000000000E+00  0.00000000000E+00  0.16322942409E+01  0.16322962327E+01  0.25500000000E-02 0. -1.
         -2   -1    0    0  501    0 -0.00000000000E+00 -0.00000000000E+00 -0.27103974095E+03  0.27103974097E+03  0.25500000000E-02 0. -1.
          2    1    1    2    0  502  0.79912549237E+01  0.18907501046E+02 -0.10495583434E+03  0.10694428886E+03  0.25500000000E-02 0. -1.
         -2    1    1    2  502    0 -0.79912549237E+01 -0.18907501046E+02 -0.16445161237E+03  0.16572774834E+03  0.25500000000E-02 0. -1.
<mgrwt>
<rscale>  0 0.42067416E+02</rscale>
<asrwt>0</asrwt>
<pdfrwt beam="1">  1        2 0.25112256E-03 0.42067416E+02</pdfrwt>
<pdfrwt beam="2">  1       -2 0.41698386E-01 0.42067416E+02</pdfrwt>
<totfact> 0.37342362E+05</totfact>
</mgrwt>
</event>
<event>
 4    1  0.4635140E-002  0.4603342E+02  0.7818608E-02  0.1467991E+00
          2   -1    0    0    0  501  0.00000000000E+00  0.00000000000E+00  0.60116996321E+03  0.60116996322E+03  0.25500000000E-02 0. -1.
         -2   -1    0    0  501    0 -0.00000000000E+00 -0.00000000000E+00 -0.88122805876E+00  0.88123174821E+00  0.25500000000E-02 0. -1.
          2    1    1    2    0  502 -0.65658542231E+01 -0.21549808351E+02  0.23843311733E+03  0.23949500231E+03  0.25500000000E-02 0. -1.
         -2    1    1    2  502    0  0.65658542231E+01  0.21549808351E+02  0.36185561782E+03  0.36255619266E+03  0.25500000000E-02 0. -1.
<mgrwt>
<rscale>  0 0.46033421E+02</rscale>
<asrwt>0</asrwt>
<pdfrwt beam="1">  1        2 0.92487658E-01 0.46033421E+02</pdfrwt>
<pdfrwt beam="2">  1       -2 0.13557387E-03 0.46033421E+02</pdfrwt>
<totfact> 0.12984505E+06</totfact>
</mgrwt>
</event>
<event>
 4    1  0.4635140E-002  0.4989187E+02  0.7818608E-02  0.1445926E+00
          2   -1    0    0    0  501  0.00000000000E+00  0.00000000000E+00  0.10284661028E+04  0.10284661029E+04  0.25500000000E-02 0.  1.
         -2   -1    0    0  501    0 -0.00000000000E+00 -0.00000000000E+00 -0.60507291355E+00  0.60507828684E+00  0.25500000000E-02 0.  1.
          2    1    1    2    0  502 -0.24916397966E+02  0.70517335927E+00  0.49355784398E+03  0.49418687712E+03  0.25500000000E-02 0.  1.
         -2    1    1    2  502    0  0.24916397966E+02 -0.70517335927E+00  0.53430318596E+03  0.53488430402E+03  0.25500000000E-02 0.  1.
<mgrwt>
<rscale>  0 0.49891873E+02</rscale>
<asrwt>0</asrwt>
<pdfrwt beam="1">  1        2 0.15822592E+00 0.49891873E+02</pdfrwt>
<pdfrwt beam="2">  1       -2 0.93088341E-04 0.49891873E+02</pdfrwt>
<totfact> 0.11650764E+06</totfact>
</mgrwt>
</event>
<event>
 4    1  0.4635140E-002  0.8716645E+02  0.7818608E-02  0.1309862E+00
          2   -1    0    0    0  501  0.00000000000E+00  0.00000000000E+00  0.34670875207E+03  0.34670875208E+03  0.25500000000E-02 0. -1.
         -2   -1    0    0  501    0 -0.00000000000E+00 -0.00000000000E+00 -0.54786538248E+01  0.54786544182E+01  0.25500000000E-02 0. -1.
          2    1    1    2    0  502 -0.19949204441E+02  0.31245332836E+02  0.78015283111E+02  0.86374915267E+02  0.25500000000E-02 0.  1.
         -2    1    1    2  502    0  0.19949204441E+02 -0.31245332836E+02  0.26321481513E+03  0.26581249123E+03  0.25500000000E-02 0.  1.
<mgrwt>
<rscale>  0 0.87166446E+02</rscale>
<asrwt>0</asrwt>
<pdfrwt beam="1">  1        2 0.53339813E-01 0.87166446E+02</pdfrwt>
<pdfrwt beam="2">  1       -2 0.84286979E-03 0.87166446E+02</pdfrwt>
<totfact> 0.21356567E+05</totfact>
</mgrwt>
</event>
<event>
 4    1  0.4635140E-002  0.6681886E+02  0.7818608E-02  0.1371257E+00
         -2   -1    0    0  501    0 -0.00000000000E+00  0.00000000000E+00  0.11449681072E+01  0.11449709468E+01  0.25500000000E-02 0.  1.
          2   -1    0    0    0  501  0.00000000000E+00 -0.00000000000E+00 -0.97486434664E+03  0.97486434665E+03  0.25500000000E-02 0.  1.
          2    1    1    2    0  502  0.21176731371E+02 -0.15022788396E+02 -0.17975141835E+03  0.18161693349E+03  0.25500000000E-02 0.  1.
         -2    1    1    2  502    0 -0.21176731371E+02  0.15022788396E+02 -0.79396796018E+03  0.79439238410E+03  0.25500000000E-02 0.  1.
<mgrwt>
<rscale>  0 0.66818859E+02</rscale>
<asrwt>0</asrwt>
<pdfrwt beam="2">  1        2 0.14997847E+00 0.66818859E+02</pdfrwt>
<pdfrwt beam="1">  1       -2 0.17614994E-03 0.66818859E+02</pdfrwt>
<totfact> 0.55873364E+05</totfact>
</mgrwt>
</event>
<event>
 4    1  0.4635140E-002  0.5006698E+02  0.7818608E-02  0.1444981E+00
          2   -1    0    0    0  501  0.00000000000E+00  0.00000000000E+00  0.22135060166E+04  0.22135060166E+04  0.25500000000E-02 0. -1.
         -2   -1    0    0  501    0 -0.00000000000E+00 -0.00000000000E+00 -0.28310874292E+00  0.28312022679E+00  0.25500000000E-02 0. -1.
          2    1    1    2    0  502  0.22118553201E+02  0.81219669012E+01  0.73278184445E+03  0.73316057471E+03  0.25500000000E-02 0.  1.
         -2    1    1    2  502    0 -0.22118553201E+02 -0.81219669012E+01  0.14804410634E+04  0.14806285621E+04  0.25500000000E-02 0.  1.
<mgrwt>
<rscale>  0 0.50066980E+02</rscale>
<asrwt>0</asrwt>
<pdfrwt beam="1">  1        2 0.34054295E+00 0.50066980E+02</pdfrwt>
<pdfrwt beam="2">  1       -2 0.43555619E-04 0.50066980E+02</pdfrwt>
<totfact> 0.82626113E+05</totfact>
</mgrwt>
</event>
<event>
 4    1  0.4635140E-002  0.8271091E+02  0.7818608E-02  0.1321530E+00
          2   -1    0    0    0  501  0.00000000000E+00  0.00000000000E+00  0.10852705086E+03  0.10852705089E+03  0.25500000000E-02 0. -1.
         -2   -1    0    0  501    0 -0.00000000000E+00 -0.00000000000E+00 -0.15758963655E+02  0.15758963861E+02  0.25500000000E-02 0. -1.
          2    1    1    2    0  502  0.25057582774E+02 -0.97635559800E+01 -0.82575816755E+00  0.26905229285E+02  0.25500000000E-02 0.  1.
         -2    1    1    2  502    0 -0.25057582774E+02  0.97635559800E+01  0.93593845369E+02  0.97380785463E+02  0.25500000000E-02 0.  1.
<mgrwt>
<rscale>  0 0.82710915E+02</rscale>
<asrwt>0</asrwt>
<pdfrwt beam="1">  1        2 0.16696469E-01 0.82710915E+02</pdfrwt>
<pdfrwt beam="2">  1       -2 0.24244560E-02 0.82710915E+02</pdfrwt>
<totfact> 0.16404652E+05</totfact>
</mgrwt>
</event>
<event>
 4    1  0.4635140E-002  0.5777458E+02  0.7818608E-02  0.1407415E+00
         -2   -1    0    0  501    0 -0.00000000000E+00  0.00000000000E+00  0.31715543442E+02  0.31715543545E+02  0.25500000000E-02 0. -1.
          2   -1    0    0    0  501  0.00000000000E+00 -0.00000000000E+00 -0.26311248297E+02  0.26311248421E+02  0.25500000000E-02 0. -1.
          2    1    1    2    0  502  0.96458434525E+01  0.20428003185E+02 -0.15380054787E+02  0.27329319453E+02  0.25500000000E-02 0.  1.
         -2    1    1    2  502    0 -0.96458434525E+01 -0.20428003185E+02  0.20784349933E+02  0.30697472512E+02  0.25500000000E-02 0.  1.
<mgrwt>
<rscale>  0 0.57774581E+02</rscale>
<asrwt>0</asrwt>
<pdfrwt beam="2">  1        2 0.40478844E-02 0.57774581E+02</pdfrwt>
<pdfrwt beam="1">  1       -2 0.48793144E-02 0.57774581E+02</pdfrwt>
<totfact> 0.31259105E+05</totfact>
</mgrwt>
</event>
<event>
 4    1  0.4635140E-002  0.7263818E+02  0.7818608E-02  0.1351345E+00
          2   -1    0    0    0  501  0.00000000000E+00  0.00000000000E+00  0.99643557729E+00  0.99643884016E+00  0.25500000000E-02 0.  1.
         -2   -1    0    0  501    0 -0.00000000000E+00 -0.00000000000E+00 -0.13237928707E+04  0.13237928707E+04  0.25500000000E-02 0.  1.
          2    1    1    2    0  502 -0.23445747735E+02 -0.11819745600E+02 -0.20374418126E+03  0.20542906532E+03  0.25500000000E-02 0.  1.
         -2    1    1    2  502    0  0.23445747735E+02  0.11819745600E+02 -0.11190522539E+04  0.11193602442E+04  0.25500000000E-02 0.  1.
<mgrwt>
<rscale>  0 0.72638185E+02</rscale>
<asrwt>0</asrwt>
<pdfrwt beam="1">  1        2 0.15329909E-03 0.72638185E+02</pdfrwt>
<pdfrwt beam="2">  1       -2 0.20365904E+00 0.72638185E+02</pdfrwt>
<totfact> 0.23262998E+04</totfact>
</mgrwt>
</event>
<event>
 4    1  0.4635140E-002  0.1564697E+03  0.7818608E-02  0.1192741E+00
         -2   -1    0    0  501    0 -0.00000000000E+00  0.00000000000E+00  0.27338304527E+02  0.27338304646E+02  0.25500000000E-02 0.  1.
          2   -1    0    0    0  501  0.00000000000E+00 -0.00000000000E+00 -0.22388696642E+03  0.22388696643E+03  0.25500000000E-02 0.  1.
          2    1    1    2    0  502  0.39428645326E+02 -0.64539163185E+02 -0.13041684775E+03  0.15075966251E+03  0.25500000000E-02 0. -1.
         -2    1    1    2  502    0 -0.39428645326E+02  0.64539163185E+02 -0.66131814147E+02  0.10046560857E+03  0.25500000000E-02 0. -1.
<mgrwt>
<rscale>  0 0.15646968E+03</rscale>
<asrwt>0</asrwt>
<pdfrwt beam="2">  1        2 0.34444148E-01 0.15646968E+03</pdfrwt>
<pdfrwt beam="1">  1       -2 0.42058932E-02 0.15646968E+03</pdfrwt>
<totfact> 0.35917605E+04</totfact>
</mgrwt>
</event>
<event>
 4    1  0.4635140E-002  0.4649464E+02  0.7818608E-02  0.1465221E+00
         -2   -1    0    0  501    0 -0.00000000000E+00  0.00000000000E+00  0.84411748336E+02  0.84411748375E+02  0.25500000000E-02 0.  1.
          2   -1    0    0    0  501  0.00000000000E+00 -0.00000000000E+00 -0.64024020234E+01  0.64024025312E+01  0.25500000000E-02 0.  1.
          2    1    1    2    0  502 -0.20412620968E+02  0.45793040570E+01  0.19201624775E+02  0.28396258925E+02  0.25500000000E-02 0. -1.
         -2    1    1    2  502    0  0.20412620968E+02 -0.45793040570E+01  0.58807721537E+02  0.62417891981E+02  0.25500000000E-02 0. -1.
<mgrwt>
<rscale>  0 0.46494644E+02</rscale>
<asrwt>0</asrwt>
<pdfrwt beam="2">  1        2 0.98498501E-03 0.46494644E+02</pdfrwt>
<pdfrwt beam="1">  1       -2 0.12986422E-01 0.46494644E+02</pdfrwt>
<totfact> 0.43847661E+05</totfact>
</mgrwt>
</event>
<event>
 4    1  0.4635140E-002  0.4641768E+02  0.7818608E-02  0.1465681E+00
         -2   -1    0    0  501    0 -0.00000000000E+00  0.00000000000E+00  0.14595931136E+01  0.14595953411E+01  0.25500000000E-02 0.  1.
          2   -1    0    0    0  501  0.00000000000E+00 -0.00000000000E+00 -0.36904108235E+03  0.36904108236E+03  0.25500000000E-02 0.  1.
          2    1    1    2    0  502 -0.21355594496E+02  0.45997638167E+01 -0.12123037164E+03  0.12318288135E+03  0.25500000000E-02 0.  1.
         -2    1    1    2  502    0  0.21355594496E+02 -0.45997638167E+01 -0.24635111759E+03  0.24731779634E+03  0.25500000000E-02 0.  1.
<mgrwt>
<rscale>  0 0.46417679E+02</rscale>
<asrwt>0</asrwt>
<pdfrwt beam="2">  1        2 0.56775477E-01 0.46417679E+02</pdfrwt>
<pdfrwt beam="1">  1       -2 0.22455325E-03 0.46417679E+02</pdfrwt>
<totfact> 0.10921472E+06</totfact>
</mgrwt>
</event>
<event>
 4    1  0.4635140E-002  0.5261681E+02  0.7818608E-02  0.1431717E+00
          2   -1    0    0    0  501  0.00000000000E+00  0.00000000000E+00  0.29994649075E+04  0.29994649075E+04  0.25500000000E-02 0. -1.
         -2   -1    0    0  501    0 -0.00000000000E+00 -0.00000000000E+00 -0.23074487310E+00  0.23075896291E+00  0.25500000000E-02 0. -1.
          2    1    1    2    0  502 -0.15541924422E+02 -0.21226259931E+02  0.15089416485E+04  0.15091709658E+04  0.25500000000E-02 0.  1.
         -2    1    1    2  502    0  0.15541924422E+02  0.21226259931E+02  0.14902925141E+04  0.14905247006E+04  0.25500000000E-02 0.  1.
<mgrwt>
<rscale>  0 0.52616814E+02</rscale>
<asrwt>0</asrwt>
<pdfrwt beam="1">  1        2 0.46145562E+00 0.52616814E+02</pdfrwt>
<pdfrwt beam="2">  1       -2 0.35500335E-04 0.52616814E+02</pdfrwt>
<totfact> 0.42752865E+05</totfact>
</mgrwt>
</event>
<event>
 4    1  0.4635140E-002  0.7774818E+02  0.7818608E-02  0.1335566E+00
          2   -1    0    0    0  501  0.00000000000E+00  0.00000000000E+00  0.19996474637E+04  0.19996474637E+04  0.25500000000E-02 0. -1.
         -2   -1    0    0  501    0 -0.00000000000E+00 -0.00000000000E+00 -0.75572844583E+00  0.75573274796E+00  0.25500000000E-02 0. -1.
          2    1    1    2    0  502  0.20103194486E+02 -0.23059470786E+02  0.16165820100E+04  0.16168714460E+04  0.25500000000E-02 0. -1.
         -2    1    1    2  502    0 -0.20103194486E+02  0.23059470786E+02  0.38230972525E+03  0.38353175051E+03  0.25500000000E-02 0. -1.
<mgrwt>
<rscale>  0 0.77748177E+02</rscale>
<asrwt>0</asrwt>
<pdfrwt beam="1">  1        2 0.30763886E+00 0.77748177E+02</pdfrwt>
<pdfrwt beam="2">  1       -2 0.11626595E-03 0.77748177E+02</pdfrwt>
<totfact> 0.29897304E+05</totfact>
</mgrwt>
</event>
<event>
 4    1  0.4635140E-002  0.5285924E+02  0.7818608E-02  0.1430503E+00
         -2   -1    0    0  501    0 -0.00000000000E+00  0.00000000000E+00  0.96224268795E+01  0.96224272174E+01  0.25500000000E-02 0.  1.
          2   -1    0    0    0  501  0.00000000000E+00 -0.00000000000E+00 -0.72593415287E+02  0.72593415332E+02  0.25500000000E-02 0.  1.
          2    1    1    2    0  502 -0.96213873385E+01 -0.21101009323E+02 -0.51202641489E+02  0.56209733950E+02  0.25500000000E-02 0. -1.
         -2    1    1    2  502    0  0.96213873385E+01  0.21101009323E+02 -0.11768346919E+02  0.26006108599E+02  0.25500000000E-02 0. -1.
<mgrwt>
<rscale>  0 0.52859241E+02</rscale>
<asrwt>0</asrwt>
<pdfrwt beam="2">  1        2 0.11168217E-01 0.52859241E+02</pdfrwt>
<pdfrwt beam="1">  1       -2 0.14803734E-02 0.52859241E+02</pdfrwt>
<totfact> 0.48056768E+05</totfact>
</mgrwt>
</event>
<event>
 4    1  0.4635140E-002  0.7298144E+02  0.7818608E-02  0.1350238E+00
          2   -1    0    0    0  501  0.00000000000E+00  0.00000000000E+00  0.19228092012E+04  0.19228092012E+04  0.25500000000E-02 0. -1.
         -2   -1    0    0  501    0 -0.00000000000E+00 -0.00000000000E+00 -0.69251183763E+00  0.69251653248E+00  0.25500000000E-02 0. -1.
          2    1    1    2    0  502  0.94615073066E+01  0.34624727786E+02  0.11342493109E+04  0.11348171179E+04  0.25500000000E-02 0. -1.
         -2    1    1    2  502    0 -0.94615073066E+01 -0.34624727786E+02  0.78786737851E+03  0.78868459984E+03  0.25500000000E-02 0. -1.
<mgrwt>
<rscale>  0 0.72981440E+02</rscale>
<asrwt>0</asrwt>
<pdfrwt beam="1">  1        2 0.29582328E+00 0.72981440E+02</pdfrwt>
<pdfrwt beam="2">  1       -2 0.10653831E-03 0.72981440E+02</pdfrwt>
<totfact> 0.36460844E+05</totfact>
</mgrwt>
</event>
<event>
 4    1  0.4635140E-002  0.5369906E+02  0.7818608E-02  0.1426353E+00
          2   -1    0    0    0  501  0.00000000000E+00  0.00000000000E+00  0.12135691433E+02  0.12135691701E+02  0.25500000000E-02 0.  1.
         -2   -1    0    0  501    0 -0.00000000000E+00 -0.00000000000E+00 -0.59403052833E+02  0.59403052888E+02  0.25500000000E-02 0.  1.
          2    1    1    2    0  502  0.13709046737E+02  0.22934763569E+02 -0.20120118463E+02  0.33447877599E+02  0.25500000000E-02 0.  1.
         -2    1    1    2  502    0 -0.13709046737E+02 -0.22934763569E+02 -0.27147242937E+02  0.38090866989E+02  0.25500000000E-02 0.  1.
<mgrwt>
<rscale>  0 0.53699055E+02</rscale>
<asrwt>0</asrwt>
<pdfrwt beam="1">  1        2 0.18670295E-02 0.53699055E+02</pdfrwt>
<pdfrwt beam="2">  1       -2 0.91389310E-02 0.53699055E+02</pdfrwt>
<totfact> 0.33258139E+05</totfact>
</mgrwt>
</event>
<event>
 4    1  0.4635140E-002  0.4182119E+02  0.7818608E-02  0.1495222E+00
          2   -1    0    0    0  501  0.00000000000E+00  0.00000000000E+00  0.36435505728E+01  0.36435514651E+01  0.25500000000E-02 0. -1.
         -2   -1    0    0  501    0 -0.00000000000E+00 -0.00000000000E+00 -0.12000737854E+03  0.12000737856E+03  0.25500000000E-02 0. -1.
          2    1    1    2    0  502  0.14530386079E+02  0.14365913825E+02 -0.45045101508E+02  0.49462842377E+02  0.25500000000E-02 0.  1.
         -2    1    1    2  502    0 -0.14530386079E+02 -0.14365913825E+02 -0.71318726457E+02  0.74188087652E+02  0.25500000000E-02 0.  1.
<mgrwt>
<rscale>  0 0.41821191E+02</rscale>
<asrwt>0</asrwt>
<pdfrwt beam="1">  1        2 0.56054640E-03 0.41821191E+02</pdfrwt>
<pdfrwt beam="2">  1       -2 0.18462671E-01 0.41821191E+02</pdfrwt>
<totfact> 0.51858139E+05</totfact>
</mgrwt>
</event>
<event>
 4    1  0.4635140E-002  0.3136977E+03  0.7818608E-02  0.1078587E+00
         -2   -1    0    0  501    0 -0.00000000000E+00  0.00000000000E+00  0.53400626503E+02  0.53400626564E+02  0.25500000000E-02 0.  1.
          2   -1    0    0    0  501  0.00000000000E+00 -0.00000000000E+00 -0.46069804950E+03  0.46069804951E+03  0.25500000000E-02 0.  1.
          2    1    1    2    0  502 -0.78819971358E+02 -0.13254917130E+03 -0.15672839338E+03  0.21987646531E+03  0.25500000000E-02 0.  1.
         -2    1    1    2  502    0  0.78819971358E+02  0.13254917130E+03 -0.25056902962E+03  0.29422221077E+03  0.25500000000E-02 0.  1.
<mgrwt>
<rscale>  0 0.31369772E+03</rscale>
<asrwt>0</asrwt>
<pdfrwt beam="2">  1        2 0.70876620E-01 0.31369772E+03</pdfrwt>
<pdfrwt beam="1">  1       -2 0.82154813E-02 0.31369772E+03</pdfrwt>
<totfact> 0.61897857E+03</totfact>
</mgrwt>
</event>
<event>
 4    1  0.4635140E-002  0.5607759E+02  0.7818608E-02  0.1415071E+00
          2   -1    0    0    0  501  0.00000000000E+00  0.00000000000E+00  0.15651476035E+04  0.15651476035E+04  0.25500000000E-02 0. -1.
         -2   -1    0    0  501    0 -0.00000000000E+00 -0.00000000000E+00 -0.50229701591E+00  0.50230348863E+00  0.25500000000E-02 0. -1.
          2    1    1    2    0  502 -0.20599105101E+02 -0.18431391331E+02  0.65096896156E+03  0.65155554501E+03  0.25500000000E-02 0. -1.
         -2    1    1    2  502    0  0.20599105101E+02  0.18431391331E+02  0.91367634491E+03  0.91409436196E+03  0.25500000000E-02 0. -1.
<mgrwt>
<rscale>  0 0.56077591E+02</rscale>
<asrwt>0</asrwt>
<pdfrwt beam="1">  1        2 0.24079057E+00 0.56077591E+02</pdfrwt>
<pdfrwt beam="2">  1       -2 0.77277403E-04 0.56077591E+02</pdfrwt>
<totfact> 0.80970041E+05</totfact>
</mgrwt>
</event>
<event>
 4    1  0.4635140E-002  0.6776936E+02  0.7818608E-02  0.1367847E+00
          2   -1    0    0    0  501  0.00000000000E+00  0.00000000000E+00  0.91121370316E+03  0.91121370317E+03  0.25500000000E-02 0. -1.
         -2   -1    0    0  501    0 -0.00000000000E+00 -0.00000000000E+00 -0.12600450429E+01  0.12600476231E+01  0.25500000000E-02 0. -1.
          2    1    1    2    0  502  0.26580743092E+02 -0.19037392852E+02  0.57481244899E+03  0.57574153033E+03  0.25500000000E-02 0. -1.
         -2    1    1    2  502    0 -0.26580743092E+02  0.19037392852E+02  0.33514120913E+03  0.33673222046E+03  0.25500000000E-02 0. -1.
<mgrwt>
<rscale>  0 0.67769359E+02</rscale>
<asrwt>0</asrwt>
<pdfrwt beam="1">  1        2 0.14018683E+00 0.67769359E+02</pdfrwt>
<pdfrwt beam="2">  1       -2 0.19385313E-03 0.67769359E+02</pdfrwt>
<totfact> 0.53599750E+05</totfact>
</mgrwt>
</event>
<event>
 4    1  0.4635140E-002  0.5222244E+02  0.7818608E-02  0.1433710E+00
         -2   -1    0    0  501    0 -0.00000000000E+00  0.00000000000E+00  0.20921517339E+02  0.20921517495E+02  0.25500000000E-02 0. -1.
          2   -1    0    0    0  501  0.00000000000E+00 -0.00000000000E+00 -0.32588261805E+02  0.32588261905E+02  0.25500000000E-02 0. -1.
          2    1    1    2    0  502  0.19898102749E+02  0.13200029802E+02 -0.16658877135E+02  0.29115176003E+02  0.25500000000E-02 0.  1.
         -2    1    1    2  502    0 -0.19898102749E+02 -0.13200029802E+02  0.49921326693E+01  0.24394603396E+02  0.25500000000E-02 0.  1.
<mgrwt>
<rscale>  0 0.52222443E+02</rscale>
<asrwt>0</asrwt>
<pdfrwt beam="2">  1        2 0.50135787E-02 0.52222443E+02</pdfrwt>
<pdfrwt beam="1">  1       -2 0.32186950E-02 0.52222443E+02</pdfrwt>
<totfact> 0.42460922E+05</totfact>
</mgrwt>
</event>
<event>
 4    1  0.4635140E-002  0.5853123E+02  0.7818608E-02  0.1404101E+00
         -2   -1    0    0  501    0 -0.00000000000E+00  0.00000000000E+00  0.31983128532E+02  0.31983128634E+02  0.25500000000E-02 0. -1.
          2   -1    0    0    0  501  0.00000000000E+00 -0.00000000000E+00 -0.26778999893E+02  0.26779000015E+02  0.25500000000E-02 0. -1.
          2    1    1    2    0  502  0.47225288884E+01 -0.25995757627E+02  0.15237200443E+02  0.30500065206E+02  0.25500000000E-02 0.  1.
         -2    1    1    2  502    0 -0.47225288884E+01  0.25995757627E+02 -0.10033071804E+02  0.28262063443E+02  0.25500000000E-02 0.  1.
<mgrwt>
<rscale>  0 0.58531229E+02</rscale>
<asrwt>0</asrwt>
<pdfrwt beam="2">  1        2 0.41198461E-02 0.58531229E+02</pdfrwt>
<pdfrwt beam="1">  1       -2 0.49204813E-02 0.58531229E+02</pdfrwt>
<totfact> 0.30271992E+05</totfact>
</mgrwt>
</event>
<event>
 4    1  0.4635140E-002  0.7671759E+02  0.7818608E-02  0.1338633E+00
         -2   -1    0    0  501    0 -0.00000000000E+00  0.00000000000E+00  0.60682712119E+00  0.60683247895E+00  0.25500000000E-02 0.  1.
          2   -1    0    0    0  501  0.00000000000E+00 -0.00000000000E+00 -0.24247279347E+04  0.24247279347E+04  0.25500000000E-02 0.  1.
          2    1    1    2    0  502 -0.81194807016E+01  0.28864559621E+02 -0.45576456526E+03  0.45674985246E+03  0.25500000000E-02 0. -1.
         -2    1    1    2  502    0  0.81194807016E+01 -0.28864559621E+02 -0.19683565423E+04  0.19685849147E+04  0.25500000000E-02 0. -1.
<mgrwt>
<rscale>  0 0.76717590E+02</rscale>
<asrwt>0</asrwt>
<pdfrwt beam="2">  1        2 0.37302731E+00 0.76717590E+02</pdfrwt>
<pdfrwt beam="1">  1       -2 0.93360373E-04 0.76717590E+02</pdfrwt>
<totfact> 0.24563849E+05</totfact>
</mgrwt>
</event>
<event>
 4    1  0.4635140E-002  0.4444526E+02  0.7818608E-02  0.1477835E+00
         -2   -1    0    0  501    0 -0.00000000000E+00  0.00000000000E+00  0.10863705406E+01  0.10863735333E+01  0.25500000000E-02 0. -1.
          2   -1    0    0    0  501  0.00000000000E+00 -0.00000000000E+00 -0.45458216348E+03  0.45458216349E+03  0.25500000000E-02 0. -1.
          2    1    1    2    0  502  0.19021242481E+02  0.10010759636E+02 -0.16891301551E+03  0.17027515905E+03  0.25500000000E-02 0. -1.
         -2    1    1    2  502    0 -0.19021242481E+02 -0.10010759636E+02 -0.28458277743E+03  0.28539337798E+03  0.25500000000E-02 0. -1.
<mgrwt>
<rscale>  0 0.44445263E+02</rscale>
<asrwt>0</asrwt>
<pdfrwt beam="2">  1        2 0.69935566E-01 0.44445263E+02</pdfrwt>
<pdfrwt beam="1">  1       -2 0.16713452E-03 0.44445263E+02</pdfrwt>
<totfact> 0.13019141E+06</totfact>
</mgrwt>
</event>
<event>
 4    1  0.4635140E-002  0.7165051E+02  0.7818608E-02  0.1354569E+00
         -2   -1    0    0  501    0 -0.00000000000E+00  0.00000000000E+00  0.60637760060E+01  0.60637765422E+01  0.25500000000E-02 0.  1.
          2   -1    0    0    0  501  0.00000000000E+00 -0.00000000000E+00 -0.21165837879E+03  0.21165837880E+03  0.25500000000E-02 0.  1.
          2    1    1    2    0  502 -0.30116581662E+02 -0.19382160702E+02 -0.10546788784E+03  0.11138290720E+03  0.25500000000E-02 0. -1.
         -2    1    1    2  502    0  0.30116581662E+02  0.19382160702E+02 -0.10012671494E+03  0.10633924814E+03  0.25500000000E-02 0. -1.
<mgrwt>
<rscale>  0 0.71650515E+02</rscale>
<asrwt>0</asrwt>
<pdfrwt beam="2">  1        2 0.32562822E-01 0.71650515E+02</pdfrwt>
<pdfrwt beam="1">  1       -2 0.93288882E-03 0.71650515E+02</pdfrwt>
<totfact> 0.29901202E+05</totfact>
</mgrwt>
</event>
<event>
 4    1  0.4635140E-002  0.8843370E+02  0.7818608E-02  0.1306690E+00
          2   -1    0    0    0  501  0.00000000000E+00  0.00000000000E+00  0.22960079081E+02  0.22960079222E+02  0.25500000000E-02 0. -1.
         -2   -1    0    0  501    0 -0.00000000000E+00 -0.00000000000E+00 -0.85153453677E+02  0.85153453716E+02  0.25500000000E-02 0. -1.
          2    1    1    2    0  502  0.35170497513E+02  0.15024625166E+02 -0.39677320031E+01  0.38450567751E+02  0.25500000000E-02 0. -1.
         -2    1    1    2  502    0 -0.35170497513E+02 -0.15024625166E+02 -0.58225642594E+02  0.69662965187E+02  0.25500000000E-02 0. -1.
<mgrwt>
<rscale>  0 0.88433705E+02</rscale>
<asrwt>0</asrwt>
<pdfrwt beam="1">  1        2 0.35323199E-02 0.88433705E+02</pdfrwt>
<pdfrwt beam="2">  1       -2 0.13100531E-01 0.88433705E+02</pdfrwt>
<totfact> 0.90150284E+04</totfact>
</mgrwt>
</event>
<event>
 4    1  0.4635140E-002  0.7055182E+02  0.7818608E-02  0.1358227E+00
         -2   -1    0    0  501    0 -0.00000000000E+00  0.00000000000E+00  0.95233354702E+02  0.95233354736E+02  0.25500000000E-02 0.  1.
          2   -1    0    0    0  501  0.00000000000E+00 -0.00000000000E+00 -0.13066744622E+02  0.13066744871E+02  0.25500000000E-02 0.  1.
          2    1    1    2    0  502 -0.30463577049E+02 -0.10516535473E+02  0.63102637022E+02  0.70855979639E+02  0.25500000000E-02 0. -1.
         -2    1    1    2  502    0  0.30463577049E+02  0.10516535473E+02  0.19063973058E+02  0.37444119968E+02  0.25500000000E-02 0. -1.
<mgrwt>
<rscale>  0 0.70551823E+02</rscale>
<asrwt>0</asrwt>
<pdfrwt beam="2">  1        2 0.20102685E-02 0.70551823E+02</pdfrwt>
<pdfrwt beam="1">  1       -2 0.14651285E-01 0.70551823E+02</pdfrwt>
<totfact> 0.15305483E+05</totfact>
</mgrwt>
</event>
<event>
 4    1  0.4635140E-002  0.8541949E+02  0.7818608E-02  0.1314339E+00
          2   -1    0    0    0  501  0.00000000000E+00  0.00000000000E+00  0.12963053662E+04  0.12963053662E+04  0.25500000000E-02 0. -1.
         -2   -1    0    0  501    0 -0.00000000000E+00 -0.00000000000E+00 -0.14071690532E+01  0.14071713636E+01  0.25500000000E-02 0. -1.
          2    1    1    2    0  502 -0.22135642860E+02  0.81981357520E+01  0.10669828270E+03  0.10927817556E+03  0.25500000000E-02 0.  1.
         -2    1    1    2  502    0  0.22135642860E+02 -0.81981357520E+01  0.11881999144E+04  0.11884343620E+04  0.25500000000E-02 0.  1.
<mgrwt>
<rscale>  0 0.85419489E+02</rscale>
<asrwt>0</asrwt>
<pdfrwt beam="1">  1        2 0.19943083E+00 0.85419489E+02</pdfrwt>
<pdfrwt beam="2">  1       -2 0.21648856E-03 0.85419489E+02</pdfrwt>
<totfact> 0.29174326E+05</totfact>
</mgrwt>
</event>
<event>
 4    1  0.4635140E-002  0.4841264E+02  0.7818608E-02  0.1454096E+00
         -2   -1    0    0  501    0 -0.00000000000E+00  0.00000000000E+00  0.15949327540E+01  0.15949347925E+01  0.25500000000E-02 0.  1.
          2   -1    0    0    0  501  0.00000000000E+00 -0.00000000000E+00 -0.36737953512E+03  0.36737953513E+03  0.25500000000E-02 0.  1.
          2    1    1    2    0  502  0.10219196041E+02 -0.20995604993E+02 -0.13427090802E+03  0.13628618472E+03  0.25500000000E-02 0. -1.
         -2    1    1    2  502    0 -0.10219196041E+02  0.20995604993E+02 -0.23151369434E+03  0.23268828520E+03  0.25500000000E-02 0. -1.
<mgrwt>
<rscale>  0 0.48412644E+02</rscale>
<asrwt>0</asrwt>
<pdfrwt beam="2">  1        2 0.56519861E-01 0.48412644E+02</pdfrwt>
<pdfrwt beam="1">  1       -2 0.24537472E-03 0.48412644E+02</pdfrwt>
<totfact> 0.98295436E+05</totfact>
</mgrwt>
</event>
<event>
 4    1  0.4635140E-002  0.4128256E+02  0.7818608E-02  0.1498980E+00
         -2   -1    0    0  501    0 -0.00000000000E+00  0.00000000000E+00  0.51650358415E+01  0.51650364710E+01  0.25500000000E-02 0.  1.
          2   -1    0    0    0  501  0.00000000000E+00 -0.00000000000E+00 -0.82489715164E+02  0.82489715203E+02  0.25500000000E-02 0.  1.
          2    1    1    2    0  502 -0.11842532132E+02 -0.16903870797E+02 -0.38077209269E+02  0.43311202794E+02  0.25500000000E-02 0. -1.
         -2    1    1    2  502    0  0.11842532132E+02  0.16903870797E+02 -0.39247470053E+02  0.44343548880E+02  0.25500000000E-02 0. -1.
<mgrwt>
<rscale>  0 0.41282556E+02</rscale>
<asrwt>0</asrwt>
<pdfrwt beam="2">  1        2 0.12690724E-01 0.41282556E+02</pdfrwt>
<pdfrwt beam="1">  1       -2 0.79462101E-03 0.41282556E+02</pdfrwt>
<totfact> 0.92295555E+05</totfact>
</mgrwt>
</event>
<event>
 4    1  0.4635140E-002  0.6705439E+02  0.7818608E-02  0.1370406E+00
         -2   -1    0    0  501    0 -0.00000000000E+00  0.00000000000E+00  0.69767779985E+02  0.69767780031E+02  0.25500000000E-02 0. -1.
          2   -1    0    0    0  501  0.00000000000E+00 -0.00000000000E+00 -0.16111631157E+02  0.16111631359E+02  0.25500000000E-02 0. -1.
          2    1    1    2    0  502 -0.18843193918E+02  0.27725193801E+02  0.26103108931E+02  0.42486758298E+02  0.25500000000E-02 0.  1.
         -2    1    1    2  502    0  0.18843193918E+02 -0.27725193801E+02  0.27553039896E+02  0.43392653092E+02  0.25500000000E-02 0.  1.
<mgrwt>
<rscale>  0 0.67054388E+02</rscale>
<asrwt>0</asrwt>
<pdfrwt beam="2">  1        2 0.24787125E-02 0.67054388E+02</pdfrwt>
<pdfrwt beam="1">  1       -2 0.10733505E-01 0.67054388E+02</pdfrwt>
<totfact> 0.18721379E+05</totfact>
</mgrwt>
</event>
<event>
 4    1  0.4635140E-002  0.7317611E+02  0.7818608E-02  0.1349614E+00
         -2   -1    0    0  501    0 -0.00000000000E+00  0.00000000000E+00  0.46324103461E+02  0.46324103531E+02  0.25500000000E-02 0. -1.
          2   -1    0    0    0  501  0.00000000000E+00 -0.00000000000E+00 -0.28898257239E+02  0.28898257352E+02  0.25500000000E-02 0. -1.
          2    1    1    2    0  502 -0.32098474286E+02 -0.17022729070E+02  0.13146354162E+02  0.38638219301E+02  0.25500000000E-02 0. -1.
         -2    1    1    2  502    0  0.32098474286E+02  0.17022729070E+02  0.42794920603E+01  0.36584141582E+02  0.25500000000E-02 0. -1.
<mgrwt>
<rscale>  0 0.73176113E+02</rscale>
<asrwt>0</asrwt>
<pdfrwt beam="2">  1        2 0.44458858E-02 0.73176113E+02</pdfrwt>
<pdfrwt beam="1">  1       -2 0.71267851E-02 0.73176113E+02</pdfrwt>
<totfact> 0.16568607E+05</totfact>
</mgrwt>
</event>
<event>
 4    1  0.4635140E-002  0.6586019E+02  0.7818608E-02  0.1374765E+00
          2   -1    0    0    0  501  0.00000000000E+00  0.00000000000E+00  0.12499309539E+04  0.12499309539E+04  0.25500000000E-02 0. -1.
         -2   -1    0    0  501    0 -0.00000000000E+00 -0.00000000000E+00 -0.86755894746E+00  0.86756269503E+00  0.25500000000E-02 0. -1.
          2    1    1    2    0  502 -0.30486879480E+02 -0.10656027247E+02  0.74671563440E+03  0.74741370030E+03  0.25500000000E-02 0.  1.
         -2    1    1    2  502    0  0.30486879480E+02  0.10656027247E+02  0.50234776059E+03  0.50338481633E+03  0.25500000000E-02 0.  1.
<mgrwt>
<rscale>  0 0.65860189E+02</rscale>
<asrwt>0</asrwt>
<pdfrwt beam="1">  1        2 0.19229749E+00 0.65860189E+02</pdfrwt>
<pdfrwt beam="2">  1       -2 0.13347061E-03 0.65860189E+02</pdfrwt>
<totfact> 0.57438011E+05</totfact>
</mgrwt>
</event>
<event>
 4    1  0.4635140E-002  0.7143691E+02  0.7818608E-02  0.1355274E+00
          2   -1    0    0    0  501  0.00000000000E+00  0.00000000000E+00  0.17005776897E+04  0.17005776898E+04  0.25500000000E-02 0. -1.
         -2   -1    0    0  501    0 -0.00000000000E+00 -0.00000000000E+00 -0.75021814690E+00  0.75022248063E+00  0.25500000000E-02 0. -1.
          2    1    1    2    0  502  0.12770258320E+02  0.23772132181E+02  0.14072312828E+04  0.14074899918E+04  0.25500000000E-02 0. -1.
         -2    1    1    2  502    0 -0.12770258320E+02 -0.23772132181E+02  0.29259618885E+03  0.29383792046E+03  0.25500000000E-02 0. -1.
<mgrwt>
<rscale>  0 0.71436907E+02</rscale>
<asrwt>0</asrwt>
<pdfrwt beam="1">  1        2 0.26162829E+00 0.71436907E+02</pdfrwt>
<pdfrwt beam="2">  1       -2 0.11541809E-03 0.71436907E+02</pdfrwt>
<totfact> 0.41978862E+05</totfact>
</mgrwt>
</event>
<event>
 4    1  0.4635140E-002  0.4547525E+02  0.7818608E-02  0.1471396E+00
         -2   -1    0    0  501    0 -0.00000000000E+00  0.00000000000E+00  0.10567001436E+03  0.10567001439E+03  0.25500000000E-02 0.  1.
          2   -1    0    0    0  501  0.00000000000E+00 -0.00000000000E+00 -0.48925857641E+01  0.48925864286E+01  0.25500000000E-02 0.  1.
          2    1    1    2    0  502  0.17716666509E+02  0.12531415317E+02  0.66893256764E+02  0.70325133835E+02  0.25500000000E-02 0.  1.
         -2    1    1    2  502    0 -0.17716666509E+02 -0.12531415317E+02  0.33884171833E+02  0.40237466985E+02  0.25500000000E-02 0.  1.
<mgrwt>
<rscale>  0 0.45475252E+02</rscale>
<asrwt>0</asrwt>
<pdfrwt beam="2">  1        2 0.75270559E-03 0.45475252E+02</pdfrwt>
<pdfrwt beam="1">  1       -2 0.16256925E-01 0.45475252E+02</pdfrwt>
<totfact> 0.43832022E+05</totfact>
</mgrwt>
</event>
<event>
 4    1  0.4635140E-002  0.4224659E+02  0.7818608E-02  0.1492301E+00
          2   -1    0    0    0  501  0.00000000000E+00  0.00000000000E+00  0.57574744884E+01  0.57574750531E+01  0.25500000000E-02 0. -1.
         -2   -1    0    0  501    0 -0.00000000000E+00 -0.00000000000E+00 -0.77498155764E+02  0.77498155805E+02  0.25500000000E-02 0. -1.
          2    1    1    2    0  502  0.11457130296E+02 -0.17719975357E+02 -0.37771139956E+02  0.43265718316E+02  0.25500000000E-02 0. -1.
         -2    1    1    2  502    0 -0.11457130296E+02  0.17719975357E+02 -0.33969541319E+02  0.39989912543E+02  0.25500000000E-02 0. -1.
<mgrwt>
<rscale>  0 0.42246594E+02</rscale>
<asrwt>0</asrwt>
<pdfrwt beam="1">  1        2 0.88576541E-03 0.42246594E+02</pdfrwt>
<pdfrwt beam="2">  1       -2 0.11922792E-01 0.42246594E+02</pdfrwt>
<totfact> 0.56266304E+05</totfact>
</mgrwt>
</event>
<event>
 4    1  0.4635140E-002  0.4097676E+02  0.7818608E-02  0.1501144E+00
         -2   -1    0    0  501    0 -0.00000000000E+00  0.00000000000E+00  0.75618228555E+00  0.75618658510E+00  0.25500000000E-02 0.  1.
          2   -1    0    0    0  501  0.00000000000E+00 -0.00000000000E+00 -0.55512072726E+03  0.55512072727E+03  0.25500000000E-02 0.  1.
          2    1    1    2    0  502 -0.17100630405E+02  0.10948768230E+02 -0.24011407569E+03  0.24097111121E+03  0.25500000000E-02 0. -1.
         -2    1    1    2  502    0  0.17100630405E+02 -0.10948768230E+02 -0.31425046929E+03  0.31490580265E+03  0.25500000000E-02 0. -1.
<mgrwt>
<rscale>  0 0.40976757E+02</rscale>
<asrwt>0</asrwt>
<pdfrwt beam="2">  1        2 0.85402863E-01 0.40976757E+02</pdfrwt>
<pdfrwt beam="1">  1       -2 0.11633651E-03 0.40976757E+02</pdfrwt>
<totfact> 0.16848091E+06</totfact>
</mgrwt>
</event>
<event>
 4    1  0.4635140E-002  0.7114227E+02  0.7818608E-02  0.1356251E+00
         -2   -1    0    0  501    0 -0.00000000000E+00  0.00000000000E+00  0.89439668889E+00  0.89440032402E+00  0.25500000000E-02 0. -1.
          2   -1    0    0    0  501  0.00000000000E+00 -0.00000000000E+00 -0.14147002595E+04  0.14147002595E+04  0.25500000000E-02 0. -1.
          2    1    1    2    0  502 -0.18517262839E+01 -0.31250051135E+02 -0.37080132534E+03  0.37212043409E+03  0.25500000000E-02 0. -1.
         -2    1    1    2  502    0  0.18517262839E+01  0.31250051135E+02 -0.10430045374E+04  0.10434742257E+04  0.25500000000E-02 0. -1.
<mgrwt>
<rscale>  0 0.71142274E+02</rscale>
<asrwt>0</asrwt>
<pdfrwt beam="2">  1        2 0.21764440E+00 0.71142274E+02</pdfrwt>
<pdfrwt beam="1">  1       -2 0.13760090E-03 0.71142274E+02</pdfrwt>
<totfact> 0.45896968E+05</totfact>
</mgrwt>
</event>
<event>
 4    1  0.4635140E-002  0.4134249E+02  0.7818608E-02  0.1498558E+00
          2   -1    0    0    0  501  0.00000000000E+00  0.00000000000E+00  0.22224419676E+03  0.22224419677E+03  0.25500000000E-02 0. -1.
         -2   -1    0    0  501    0 -0.00000000000E+00 -0.00000000000E+00 -0.19226605357E+01  0.19226622267E+01  0.25500000000E-02 0. -1.
          2    1    1    2    0  502  0.20010323285E+02  0.41339677289E+01  0.12713283492E+03  0.12876436016E+03  0.25500000000E-02 0. -1.
         -2    1    1    2  502    0 -0.20010323285E+02 -0.41339677289E+01  0.93188701308E+02  0.95402498841E+02  0.25500000000E-02 0. -1.
<mgrwt>
<rscale>  0 0.41342488E+02</rscale>
<asrwt>0</asrwt>
<pdfrwt beam="1">  1        2 0.34191408E-01 0.41342488E+02</pdfrwt>
<pdfrwt beam="2">  1       -2 0.29579412E-03 0.41342488E+02</pdfrwt>
<totfact> 0.12198636E+06</totfact>
</mgrwt>
</event>
<event>
 4    1  0.4635140E-002  0.4635894E+02  0.7818608E-02  0.1466032E+00
         -2   -1    0    0  501    0 -0.00000000000E+00  0.00000000000E+00  0.91270350220E+00  0.91270706441E+00  0.25500000000E-02 0.  1.
          2   -1    0    0    0  501  0.00000000000E+00 -0.00000000000E+00 -0.58867616964E+03  0.58867616965E+03  0.25500000000E-02 0.  1.
          2    1    1    2    0  502 -0.16643241909E+02 -0.11264898873E+02 -0.14699542463E+03  0.14836290074E+03  0.25500000000E-02 0.  1.
         -2    1    1    2  502    0  0.16643241909E+02  0.11264898873E+02 -0.44076804151E+03  0.44122597597E+03  0.25500000000E-02 0.  1.
<mgrwt>
<rscale>  0 0.46358941E+02</rscale>
<asrwt>0</asrwt>
<pdfrwt beam="2">  1        2 0.90565261E-01 0.46358941E+02</pdfrwt>
<pdfrwt beam="1">  1       -2 0.14041667E-03 0.46358941E+02</pdfrwt>
<totfact> 0.12690092E+06</totfact>
</mgrwt>
</event>
<event>
 4    1  0.4635140E-002  0.4763571E+02  0.7818608E-02  0.1458528E+00
          2   -1    0    0    0  501  0.00000000000E+00  0.00000000000E+00  0.15775575643E+03  0.15775575645E+03  0.25500000000E-02 0. -1.
         -2   -1    0    0  501    0 -0.00000000000E+00 -0.00000000000E+00 -0.35960029867E+01  0.35960038909E+01  0.25500000000E-02 0. -1.
          2    1    1    2    0  502 -0.17469825808E+02 -0.11964497337E+02  0.11402153557E+03  0.11597092131E+03  0.25500000000E-02 0.  1.
         -2    1    1    2  502    0  0.17469825808E+02  0.11964497337E+02  0.40138217878E+02  0.45380839031E+02  0.25500000000E-02 0.  1.
<mgrwt>
<rscale>  0 0.47635711E+02</rscale>
<asrwt>0</asrwt>
<pdfrwt beam="1">  1        2 0.24270118E-01 0.47635711E+02</pdfrwt>
<pdfrwt beam="2">  1       -2 0.55323127E-03 0.47635711E+02</pdfrwt>
<totfact> 0.77005151E+05</totfact>
</mgrwt>
</event>
<event>
 4    1  0.4635140E-002  0.7185904E+02  0.7818608E-02  0.1353883E+00
          2   -1    0    0    0  501  0.00000000000E+00  0.00000000000E+00  0.16406237116E+03  0.16406237118E+03  0.25500000000E-02 0. -1.
         -2   -1    0    0  501    0 -0.00000000000E+00 -0.00000000000E+00 -0.78685342978E+01  0.78685347110E+01  0.25500000000E-02 0. -1.
          2    1    1    2    0  502  0.10547412134E+02  0.26039419912E+02  0.24509260345E+02  0.37282745892E+02  0.25500000000E-02 0. -1.
         -2    1    1    2  502    0 -0.10547412134E+02 -0.26039419912E+02  0.13168457651E+03  0.13464816000E+03  0.25500000000E-02 0. -1.
<mgrwt>
<rscale>  0 0.71859041E+02</rscale>
<asrwt>0</asrwt>
<pdfrwt beam="1">  1        2 0.25240361E-01 0.71859041E+02</pdfrwt>
<pdfrwt beam="2">  1       -2 0.12105439E-02 0.71859041E+02</pdfrwt>
<totfact> 0.27199439E+05</totfact>
</mgrwt>
</event>
<event>
 4    1  0.4635140E-002  0.6816511E+02  0.7818608E-02  0.1366446E+00
          2   -1    0    0    0  501  0.00000000000E+00  0.00000000000E+00  0.39866727503E+03  0.39866727504E+03  0.25500000000E-02 0.  1.
         -2   -1    0    0  501    0 -0.00000000000E+00 -0.00000000000E+00 -0.29137589824E+01  0.29137600982E+01  0.25500000000E-02 0.  1.
          2    1    1    2    0  502  0.19045320005E+02 -0.26767502723E+02  0.25135377370E+03  0.25349150474E+03  0.25500000000E-02 0. -1.
         -2    1    1    2  502    0 -0.19045320005E+02  0.26767502723E+02  0.14439974235E+03  0.14808953040E+03  0.25500000000E-02 0. -1.
<mgrwt>
<rscale>  0 0.68165111E+02</rscale>
<asrwt>0</asrwt>
<pdfrwt beam="1">  1        2 0.61333403E-01 0.68165111E+02</pdfrwt>
<pdfrwt beam="2">  1       -2 0.44827088E-03 0.68165111E+02</pdfrwt>
<totfact> 0.42639928E+05</totfact>
</mgrwt>
</event>
<event>
 4    1  0.4635140E-002  0.5782056E+02  0.7818608E-02  0.1407212E+00
          2   -1    0    0    0  501  0.00000000000E+00  0.00000000000E+00  0.14251548296E+02  0.14251548524E+02  0.25500000000E-02 0. -1.
         -2   -1    0    0  501    0 -0.00000000000E+00 -0.00000000000E+00 -0.58646558166E+02  0.58646558221E+02  0.25500000000E-02 0. -1.
          2    1    1    2    0  502 -0.90292788384E+01 -0.25093720078E+02 -0.36269669565E+02  0.45019013767E+02  0.25500000000E-02 0.  1.
         -2    1    1    2  502    0  0.90292788384E+01  0.25093720078E+02 -0.81253403055E+01  0.27879092978E+02  0.25500000000E-02 0.  1.
<mgrwt>
<rscale>  0 0.57820559E+02</rscale>
<asrwt>0</asrwt>
<pdfrwt beam="1">  1        2 0.21925459E-02 0.57820559E+02</pdfrwt>
<pdfrwt beam="2">  1       -2 0.90225473E-02 0.57820559E+02</pdfrwt>
<totfact> 0.27870954E+05</totfact>
</mgrwt>
</event>
<event>
 4    1  0.4635140E-002  0.6460121E+02  0.7818608E-02  0.1379478E+00
          2   -1    0    0    0  501  0.00000000000E+00  0.00000000000E+00  0.33700696409E+03  0.33700696410E+03  0.25500000000E-02 0. -1.
         -2   -1    0    0  501    0 -0.00000000000E+00 -0.00000000000E+00 -0.30958677277E+01  0.30958687779E+01  0.25500000000E-02 0. -1.
          2    1    1    2    0  502  0.26514666222E+02 -0.12054009078E+02  0.93438228073E+02  0.97872514690E+02  0.25500000000E-02 0. -1.
         -2    1    1    2  502    0 -0.26514666222E+02  0.12054009078E+02  0.24047286829E+03  0.24223031819E+03  0.25500000000E-02 0. -1.
<mgrwt>
<rscale>  0 0.64601213E+02</rscale>
<asrwt>0</asrwt>
<pdfrwt beam="1">  1        2 0.51847204E-01 0.64601213E+02</pdfrwt>
<pdfrwt beam="2">  1       -2 0.47628762E-03 0.64601213E+02</pdfrwt>
<totfact> 0.46135894E+05</totfact>
</mgrwt>
</event>
<event>
 4    1  0.4635140E-002  0.4087777E+02  0.7818608E-02  0.1501850E+00
         -2   -1    0    0  501    0 -0.00000000000E+00  0.00000000000E+00  0.10160940670E+01  0.10160972668E+01  0.25500000000E-02 0.  1.
          2   -1    0    0    0  501  0.00000000000E+00 -0.00000000000E+00 -0.41113059560E+03  0.41113059560E+03  0.25500000000E-02 0.  1.
          2    1    1    2    0  502  0.70308673271E+01 -0.18849616044E+02 -0.24141955607E+03  0.24225635839E+03  0.25500000000E-02 0.  1.
         -2    1    1    2  502    0 -0.70308673271E+01  0.18849616044E+02 -0.16869494546E+03  0.16989033448E+03  0.25500000000E-02 0.  1.
<mgrwt>
<rscale>  0 0.40877770E+02</rscale>
<asrwt>0</asrwt>
<pdfrwt beam="2">  1        2 0.63250728E-01 0.40877770E+02</pdfrwt>
<pdfrwt beam="1">  1       -2 0.15632274E-03 0.40877770E+02</pdfrwt>
<totfact> 0.15439918E+06</totfact>
</mgrwt>
</event>
<event>
 4    1  0.4635140E-002  0.7760376E+02  0.7818608E-02  0.1335992E+00
         -2   -1    0    0  501    0 -0.00000000000E+00  0.00000000000E+00  0.10776483906E+01  0.10776514075E+01  0.25500000000E-02 0. -1.
          2   -1    0    0    0  501  0.00000000000E+00 -0.00000000000E+00 -0.13971012288E+04  0.13971012288E+04  0.25500000000E-02 0. -1.
          2    1    1    2    0  502 -0.83638257159E+01  0.37515107734E+02 -0.79377138768E+03  0.79470142368E+03  0.25500000000E-02 0.  1.
         -2    1    1    2  502    0  0.83638257159E+01 -0.37515107734E+02 -0.60225219270E+03  0.60347745651E+03  0.25500000000E-02 0.  1.
<mgrwt>
<rscale>  0 0.77603763E+02</rscale>
<asrwt>0</asrwt>
<pdfrwt beam="2">  1        2 0.21493720E+00 0.77603763E+02</pdfrwt>
<pdfrwt beam="1">  1       -2 0.16579341E-03 0.77603763E+02</pdfrwt>
<totfact> 0.36805236E+05</totfact>
</mgrwt>
</event>
<event>
 4    1  0.4635140E-002  0.4565024E+02  0.7818608E-02  0.1470323E+00
          2   -1    0    0    0  501  0.00000000000E+00  0.00000000000E+00  0.10705659511E+03  0.10705659514E+03  0.25500000000E-02 0. -1.
         -2   -1    0    0  501    0 -0.00000000000E+00 -0.00000000000E+00 -0.48664546042E+01  0.48664552723E+01  0.25500000000E-02 0. -1.
          2    1    1    2    0  502 -0.10032196706E+02 -0.20079880200E+02  0.61245302247E+02  0.65229085640E+02  0.25500000000E-02 0. -1.
         -2    1    1    2  502    0  0.10032196706E+02  0.20079880200E+02  0.40944838255E+02  0.46693964769E+02  0.25500000000E-02 0. -1.
<mgrwt>
<rscale>  0 0.45650240E+02</rscale>
<asrwt>0</asrwt>
<pdfrwt beam="1">  1        2 0.16470244E-01 0.45650240E+02</pdfrwt>
<pdfrwt beam="2">  1       -2 0.74868546E-03 0.45650240E+02</pdfrwt>
<totfact> 0.76634973E+05</totfact>
</mgrwt>
</event>
<event>
 4    1  0.4635140E-002  0.7256622E+02  0.7818608E-02  0.1351578E+00
         -2   -1    0    0  501    0 -0.00000000000E+00  0.00000000000E+00  0.36240772526E+02  0.36240772616E+02  0.25500000000E-02 0.  1.
          2   -1    0    0    0  501  0.00000000000E+00 -0.00000000000E+00 -0.36325493062E+02  0.36325493151E+02  0.25500000000E-02 0.  1.
          2    1    1    2    0  502 -0.19258975416E+01 -0.30346696835E+02 -0.19837141774E+02  0.36306243133E+02  0.25500000000E-02 0. -1.
         -2    1    1    2  502    0  0.19258975416E+01  0.30346696835E+02  0.19752421238E+02  0.36260022634E+02  0.25500000000E-02 0. -1.
<mgrwt>
<rscale>  0 0.72566216E+02</rscale>
<asrwt>0</asrwt>
<pdfrwt beam="2">  1        2 0.55885374E-02 0.72566216E+02</pdfrwt>
<pdfrwt beam="1">  1       -2 0.55755035E-02 0.72566216E+02</pdfrwt>
<totfact> 0.17817127E+05</totfact>
</mgrwt>
</event>
<event>
 4    1  0.4635140E-002  0.8022168E+02  0.7818608E-02  0.1328424E+00
         -2   -1    0    0  501    0 -0.00000000000E+00  0.00000000000E+00  0.10460532806E+03  0.10460532809E+03  0.25500000000E-02 0. -1.
          2   -1    0    0    0  501  0.00000000000E+00 -0.00000000000E+00 -0.15380471833E+02  0.15380472044E+02  0.25500000000E-02 0. -1.
          2    1    1    2    0  502  0.39311140326E+02 -0.71038538573E+01  0.39209568496E+02  0.55975179871E+02  0.25500000000E-02 0.  1.
         -2    1    1    2  502    0 -0.39311140326E+02  0.71038538573E+01  0.50015287733E+02  0.64010620267E+02  0.25500000000E-02 0.  1.
<mgrwt>
<rscale>  0 0.80221676E+02</rscale>
<asrwt>0</asrwt>
<pdfrwt beam="2">  1        2 0.23662265E-02 0.80221676E+02</pdfrwt>
<pdfrwt beam="1">  1       -2 0.16093127E-01 0.80221676E+02</pdfrwt>
<totfact> 0.10833816E+05</totfact>
</mgrwt>
</event>
<event>
 4    1  0.4635140E-002  0.6259918E+02  0.7818608E-02  0.1387237E+00
         -2   -1    0    0  501    0 -0.00000000000E+00  0.00000000000E+00  0.71827631792E+01  0.71827636319E+01  0.25500000000E-02 0. -1.
          2   -1    0    0    0  501  0.00000000000E+00 -0.00000000000E+00 -0.13639102231E+03  0.13639102234E+03  0.25500000000E-02 0. -1.
          2    1    1    2    0  502 -0.18483639595E+02  0.21990973140E+02 -0.93104695772E+02  0.97435785078E+02  0.25500000000E-02 0. -1.
         -2    1    1    2  502    0  0.18483639595E+02 -0.21990973140E+02 -0.36103563362E+02  0.46138000891E+02  0.25500000000E-02 0. -1.
<mgrwt>
<rscale>  0 0.62599184E+02</rscale>
<asrwt>0</asrwt>
<pdfrwt beam="2">  1        2 0.20983232E-01 0.62599184E+02</pdfrwt>
<pdfrwt beam="1">  1       -2 0.11050406E-02 0.62599184E+02</pdfrwt>
<totfact> 0.36757093E+05</totfact>
</mgrwt>
</event>
<event>
 4    1  0.4635140E-002  0.5032395E+02  0.7818608E-02  0.1443602E+00
          2   -1    0    0    0  501  0.00000000000E+00  0.00000000000E+00  0.12532331694E+04  0.12532331694E+04  0.25500000000E-02 0. -1.
         -2   -1    0    0  501    0 -0.00000000000E+00 -0.00000000000E+00 -0.50519012015E+00  0.50519655580E+00  0.25500000000E-02 0. -1.
          2    1    1    2    0  502  0.10829010351E+02  0.18623548179E+02  0.30247025504E+03  0.30323647406E+03  0.25500000000E-02 0. -1.
         -2    1    1    2  502    0 -0.10829010351E+02 -0.18623548179E+02  0.95025772427E+03  0.95050189192E+03  0.25500000000E-02 0. -1.
<mgrwt>
<rscale>  0 0.50323953E+02</rscale>
<asrwt>0</asrwt>
<pdfrwt beam="1">  1        2 0.19280714E+00 0.50323953E+02</pdfrwt>
<pdfrwt beam="2">  1       -2 0.77721231E-04 0.50323953E+02</pdfrwt>
<totfact> 0.11278209E+06</totfact>
</mgrwt>
</event>
<event>
 4    1  0.4635140E-002  0.8114217E+02  0.7818608E-02  0.1325841E+00
         -2   -1    0    0  501    0 -0.00000000000E+00  0.00000000000E+00  0.53055627900E+01  0.53055634028E+01  0.25500000000E-02 0.  1.
          2   -1    0    0    0  501  0.00000000000E+00 -0.00000000000E+00 -0.31024281192E+03  0.31024281194E+03  0.25500000000E-02 0.  1.
          2    1    1    2    0  502 -0.61307909512E+01 -0.37977130002E+02 -0.20259745441E+03  0.20621730660E+03  0.25500000000E-02 0. -1.
         -2    1    1    2  502    0  0.61307909512E+01  0.37977130002E+02 -0.10233979472E+03  0.10933106874E+03  0.25500000000E-02 0. -1.
<mgrwt>
<rscale>  0 0.81142167E+02</rscale>
<asrwt>0</asrwt>
<pdfrwt beam="2">  1        2 0.47729649E-01 0.81142167E+02</pdfrwt>
<pdfrwt beam="1">  1       -2 0.81624072E-03 0.81142167E+02</pdfrwt>
<totfact> 0.24773261E+05</totfact>
</mgrwt>
</event>
<event>
 4    1  0.4635140E-002  0.4620010E+02  0.7818608E-02  0.1466986E+00
         -2   -1    0    0  501    0 -0.00000000000E+00  0.00000000000E+00  0.16300422360E+02  0.16300422559E+02  0.25500000000E-02 0. -1.
          2   -1    0    0    0  501  0.00000000000E+00 -0.00000000000E+00 -0.32736099601E+02  0.32736099700E+02  0.25500000000E-02 0. -1.
          2    1    1    2    0  502 -0.12037418122E+02  0.16020544860E+02 -0.20414869505E+02  0.28606366356E+02  0.25500000000E-02 0.  1.
         -2    1    1    2  502    0  0.12037418122E+02 -0.16020544860E+02  0.39791922646E+01  0.20430155903E+02  0.25500000000E-02 0.  1.
<mgrwt>
<rscale>  0 0.46200098E+02</rscale>
<asrwt>0</asrwt>
<pdfrwt beam="2">  1        2 0.50363231E-02 0.46200098E+02</pdfrwt>
<pdfrwt beam="1">  1       -2 0.25077573E-02 0.46200098E+02</pdfrwt>
<totfact> 0.58437799E+05</totfact>
</mgrwt>
</event>
<event>
 4    1  0.4635140E-002  0.4150405E+02  0.7818608E-02  0.1497426E+00
         -2   -1    0    0  501    0 -0.00000000000E+00  0.00000000000E+00  0.56822275095E+00  0.56822847271E+00  0.25500000000E-02 0.  1.
          2   -1    0    0    0  501  0.00000000000E+00 -0.00000000000E+00 -0.75787964606E+03  0.75787964606E+03  0.25500000000E-02 0.  1.
          2    1    1    2    0  502  0.10930474941E+02  0.17319807109E+02 -0.43980048267E+03  0.44027708952E+03  0.25500000000E-02 0.  1.
         -2    1    1    2  502    0 -0.10930474941E+02 -0.17319807109E+02 -0.31751094064E+03  0.31817078501E+03  0.25500000000E-02 0.  1.
<mgrwt>
<rscale>  0 0.41504054E+02</rscale>
<asrwt>0</asrwt>
<pdfrwt beam="2">  1        2 0.11659606E+00 0.41504054E+02</pdfrwt>
<pdfrwt beam="1">  1       -2 0.87419932E-04 0.41504054E+02</pdfrwt>
<totfact> 0.17622340E+06</totfact>
</mgrwt>
</event>
<event>
 4    1  0.4635140E-002  0.5626549E+02  0.7818608E-02  0.1414207E+00
          2   -1    0    0    0  501  0.00000000000E+00  0.00000000000E+00  0.94392361841E+02  0.94392361875E+02  0.25500000000E-02 0. -1.
         -2   -1    0    0  501    0 -0.00000000000E+00 -0.00000000000E+00 -0.83846957519E+01  0.83846961396E+01  0.25500000000E-02 0. -1.
          2    1    1    2    0  502  0.40969810772E+01 -0.27511544673E+02  0.35301344760E+02  0.44942800231E+02  0.25500000000E-02 0. -1.
         -2    1    1    2  502    0 -0.40969810772E+01  0.27511544673E+02  0.50706321329E+02  0.57834257784E+02  0.25500000000E-02 0. -1.
<mgrwt>
<rscale>  0 0.56265487E+02</rscale>
<asrwt>0</asrwt>
<pdfrwt beam="1">  1        2 0.14521902E-01 0.56265487E+02</pdfrwt>
<pdfrwt beam="2">  1       -2 0.12899532E-02 0.56265487E+02</pdfrwt>
<totfact> 0.43625392E+05</totfact>
</mgrwt>
</event>
<event>
 4    1  0.4635140E-002  0.4093972E+02  0.7818608E-02  0.1501408E+00
         -2   -1    0    0  501    0 -0.00000000000E+00  0.00000000000E+00  0.12343785524E+02  0.12343785787E+02  0.25500000000E-02 0.  1.
          2   -1    0    0    0  501  0.00000000000E+00 -0.00000000000E+00 -0.33945428792E+02  0.33945428888E+02  0.25500000000E-02 0.  1.
          2    1    1    2    0  502 -0.12625807986E+02 -0.15931148249E+02 -0.80772071054E+01  0.21873586650E+02  0.25500000000E-02 0.  1.
         -2    1    1    2  502    0  0.12625807986E+02  0.15931148249E+02 -0.13524436163E+02  0.24415628025E+02  0.25500000000E-02 0.  1.
<mgrwt>
<rscale>  0 0.40939717E+02</rscale>
<asrwt>0</asrwt>
<pdfrwt beam="2">  1        2 0.52223737E-02 0.40939717E+02</pdfrwt>
<pdfrwt beam="1">  1       -2 0.18990440E-02 0.40939717E+02</pdfrwt>
<totfact> 0.79957040E+05</totfact>
</mgrwt>
</event>
<event>
 4    1  0.4635140E-002  0.5347417E+02  0.7818608E-02  0.1427456E+00
         -2   -1    0    0  501    0 -0.00000000000E+00  0.00000000000E+00  0.75714690173E+00  0.75715119580E+00  0.25500000000E-02 0.  1.
          2   -1    0    0    0  501  0.00000000000E+00 -0.00000000000E+00 -0.94416244356E+03  0.94416244357E+03  0.25500000000E-02 0.  1.
          2    1    1    2    0  502 -0.16867347348E+02 -0.19833009132E+02 -0.36419341728E+03  0.36512285720E+03  0.25500000000E-02 0.  1.
         -2    1    1    2  502    0  0.16867347348E+02  0.19833009132E+02 -0.57921187938E+03  0.57979673756E+03  0.25500000000E-02 0.  1.
<mgrwt>
<rscale>  0 0.53474169E+02</rscale>
<asrwt>0</asrwt>
<pdfrwt beam="2">  1        2 0.14525482E+00 0.53474169E+02</pdfrwt>
<pdfrwt beam="1">  1       -2 0.11648523E-03 0.53474169E+02</pdfrwt>
<totfact> 0.97684896E+05</totfact>
</mgrwt>
</event>
<event>
 4    1  0.4635140E-002  0.5902650E+02  0.7818608E-02  0.1401963E+00
          2   -1    0    0    0  501  0.00000000000E+00  0.00000000000E+00  0.86900372478E+03  0.86900372478E+03  0.25500000000E-02 0. -1.
         -2   -1    0    0  501    0 -0.00000000000E+00 -0.00000000000E+00 -0.10023323556E+01  0.10023355992E+01  0.25500000000E-02 0. -1.
          2    1    1    2    0  502 -0.15451807217E+02  0.21365232574E+02  0.23857339969E+03  0.24002603725E+03  0.25500000000E-02 0. -1.
         -2    1    1    2  502    0  0.15451807217E+02 -0.21365232574E+02  0.62942799273E+03  0.62998002313E+03  0.25500000000E-02 0. -1.
<mgrwt>
<rscale>  0 0.59026501E+02</rscale>
<asrwt>0</asrwt>
<pdfrwt beam="1">  1        2 0.13369318E+00 0.59026501E+02</pdfrwt>
<pdfrwt beam="2">  1       -2 0.15420488E-03 0.59026501E+02</pdfrwt>
<totfact> 0.75646744E+05</totfact>
</mgrwt>
</event>
<event>
 4    1  0.4635140E-002  0.5519030E+02  0.7818608E-02  0.1419201E+00
          2   -1    0    0    0  501  0.00000000000E+00  0.00000000000E+00  0.24601146387E+04  0.24601146387E+04  0.25500000000E-02 0.  1.
         -2   -1    0    0  501    0 -0.00000000000E+00 -0.00000000000E+00 -0.30952999725E+00  0.30954050090E+00  0.25500000000E-02 0.  1.
          2    1    1    2    0  502  0.24414183359E+02  0.50517640846E+01  0.70256776757E+03  0.70300998621E+03  0.25500000000E-02 0.  1.
         -2    1    1    2  502    0 -0.24414183359E+02 -0.50517640846E+01  0.17572373411E+04  0.17574141930E+04  0.25500000000E-02 0.  1.
<mgrwt>
<rscale>  0 0.55190296E+02</rscale>
<asrwt>0</asrwt>
<pdfrwt beam="1">  1        2 0.37845603E+00 0.55190296E+02</pdfrwt>
<pdfrwt beam="2">  1       -2 0.47623720E-04 0.55190296E+02</pdfrwt>
<totfact> 0.56064514E+05</totfact>
</mgrwt>
</event>
<event>
 4    1  0.4635140E-002  0.8508882E+02  0.7818608E-02  0.1315200E+00
          2   -1    0    0    0  501  0.00000000000E+00  0.00000000000E+00  0.34731081855E+03  0.34731081856E+03  0.25500000000E-02 0. -1.
         -2   -1    0    0  501    0 -0.00000000000E+00 -0.00000000000E+00 -0.52115469802E+01  0.52115476041E+01  0.25500000000E-02 0. -1.
          2    1    1    2    0  502 -0.10232431008E+02  0.23538453274E+02  0.31162263000E+03  0.31267782934E+03  0.25500000000E-02 0.  1.
         -2    1    1    2  502    0  0.10232431008E+02 -0.23538453274E+02  0.30476641578E+02  0.39844536830E+02  0.25500000000E-02 0.  1.
<mgrwt>
<rscale>  0 0.85088819E+02</rscale>
<asrwt>0</asrwt>
<pdfrwt beam="1">  1        2 0.53432442E-01 0.85088819E+02</pdfrwt>
<pdfrwt beam="2">  1       -2 0.80177639E-03 0.85088819E+02</pdfrwt>
<totfact> 0.22777331E+05</totfact>
</mgrwt>
</event>
<event>
 4    1  0.4635140E-002  0.1011482E+03  0.7818608E-02  0.1277900E+00
          2   -1    0    0    0  501  0.00000000000E+00  0.00000000000E+00  0.98049229500E+03  0.98049229500E+03  0.25500000000E-02 0.  1.
         -2   -1    0    0  501    0 -0.00000000000E+00 -0.00000000000E+00 -0.26086284741E+01  0.26086297205E+01  0.25500000000E-02 0.  1.
          2    1    1    2    0  502 -0.44627599426E+01  0.33058894489E+02  0.85839879423E+03  0.85904673719E+03  0.25500000000E-02 0. -1.
         -2    1    1    2  502    0  0.44627599426E+01 -0.33058894489E+02  0.11948487229E+03  0.12405418753E+03  0.25500000000E-02 0. -1.
<mgrwt>
<rscale>  0 0.10114822E+03</rscale>
<asrwt>0</asrwt>
<pdfrwt beam="1">  1        2 0.15084529E+00 0.10114822E+03</pdfrwt>
<pdfrwt beam="2">  1       -2 0.40132669E-03 0.10114822E+03</pdfrwt>
<totfact> 0.18977283E+05</totfact>
</mgrwt>
</event>
<event>
 4    1  0.4635140E-002  0.2396734E+03  0.7818608E-02  0.1120011E+00
          2   -1    0    0    0  501  0.00000000000E+00  0.00000000000E+00  0.13382153803E+03  0.13382153805E+03  0.25500000000E-02 0. -1.
         -2   -1    0    0  501    0 -0.00000000000E+00 -0.00000000000E+00 -0.10731335319E+03  0.10731335322E+03  0.25500000000E-02 0. -1.
          2    1    1    2    0  502  0.10108035016E+03  0.61209497191E+02  0.33300403213E+02  0.12277115539E+03  0.25500000000E-02 0. -1.
         -2    1    1    2  502    0 -0.10108035016E+03 -0.61209497191E+02 -0.67922183740E+01  0.11836373588E+03  0.25500000000E-02 0. -1.
<mgrwt>
<rscale>  0 0.23967343E+03</rscale>
<asrwt>0</asrwt>
<pdfrwt beam="1">  1        2 0.20587929E-01 0.23967343E+03</pdfrwt>
<pdfrwt beam="2">  1       -2 0.16509747E-01 0.23967343E+03</pdfrwt>
<totfact> 0.76952905E+03</totfact>
</mgrwt>
</event>
<event>
 4    1  0.4635140E-002  0.6538318E+02  0.7818608E-02  0.1376536E+00
         -2   -1    0    0  501    0 -0.00000000000E+00  0.00000000000E+00  0.21759626027E+01  0.21759640968E+01  0.25500000000E-02 0.  1.
          2   -1    0    0    0  501  0.00000000000E+00 -0.00000000000E+00 -0.49115712721E+03  0.49115712721E+03  0.25500000000E-02 0.  1.
          2    1    1    2    0  502 -0.31202530820E+02  0.96942035386E+01 -0.25263244881E+03  0.25473658887E+03  0.25500000000E-02 0.  1.
         -2    1    1    2  502    0  0.31202530820E+02 -0.96942035386E+01 -0.23634871579E+03  0.23859650243E+03  0.25500000000E-02 0.  1.
<mgrwt>
<rscale>  0 0.65383176E+02</rscale>
<asrwt>0</asrwt>
<pdfrwt beam="2">  1        2 0.75562547E-01 0.65383176E+02</pdfrwt>
<pdfrwt beam="1">  1       -2 0.33476398E-03 0.65383176E+02</pdfrwt>
<totfact> 0.50875439E+05</totfact>
</mgrwt>
</event>
<event>
 4    1  0.4635140E-002  0.4679982E+02  0.7818608E-02  0.1463409E+00
          2   -1    0    0    0  501  0.00000000000E+00  0.00000000000E+00  0.48895713169E+03  0.48895713169E+03  0.25500000000E-02 0. -1.
         -2   -1    0    0  501    0 -0.00000000000E+00 -0.00000000000E+00 -0.11198427428E+01  0.11198456461E+01  0.25500000000E-02 0. -1.
          2    1    1    2    0  502 -0.15485395087E+02  0.14136873138E+02  0.35269768882E+03  0.35332040466E+03  0.25500000000E-02 0. -1.
         -2    1    1    2  502    0  0.15485395087E+02 -0.14136873138E+02  0.13513960013E+03  0.13675657269E+03  0.25500000000E-02 0. -1.
<mgrwt>
<rscale>  0 0.46799821E+02</rscale>
<asrwt>0</asrwt>
<pdfrwt beam="1">  1        2 0.75224200E-01 0.46799821E+02</pdfrwt>
<pdfrwt beam="2">  1       -2 0.17228366E-03 0.46799821E+02</pdfrwt>
<totfact> 0.11740940E+06</totfact>
</mgrwt>
</event>
<event>
 4    1  0.4635140E-002  0.8648595E+02  0.7818608E-02  0.1311592E+00
          2   -1    0    0    0  501  0.00000000000E+00  0.00000000000E+00  0.23684951883E+03  0.23684951884E+03  0.25500000000E-02 0.  1.
         -2   -1    0    0  501    0 -0.00000000000E+00 -0.00000000000E+00 -0.78951169487E+01  0.78951173605E+01  0.25500000000E-02 0.  1.
          2    1    1    2    0  502  0.27173227100E+02 -0.10666108966E+02  0.20475892347E+03  0.20682931827E+03  0.25500000000E-02 0. -1.
         -2    1    1    2  502    0 -0.27173227100E+02  0.10666108966E+02  0.24195478410E+02  0.37915317926E+02  0.25500000000E-02 0. -1.
<mgrwt>
<rscale>  0 0.86485946E+02</rscale>
<asrwt>0</asrwt>
<pdfrwt beam="1">  1        2 0.36438387E-01 0.86485946E+02</pdfrwt>
<pdfrwt beam="2">  1       -2 0.12146334E-02 0.86485946E+02</pdfrwt>
<totfact> 0.18947911E+05</totfact>
</mgrwt>
</event>
<event>
 4    1  0.4635140E-002  0.4737105E+02  0.7818608E-02  0.1460060E+00
          2   -1    0    0    0  501  0.00000000000E+00  0.00000000000E+00  0.92396879065E+03  0.92396879066E+03  0.25500000000E-02 0. -1.
         -2   -1    0    0  501    0 -0.00000000000E+00 -0.00000000000E+00 -0.60716514631E+00  0.60717050109E+00  0.25500000000E-02 0. -1.
          2    1    1    2    0  502 -0.99336841565E+01 -0.21501487255E+02  0.45953550900E+03  0.46014549446E+03  0.25500000000E-02 0. -1.
         -2    1    1    2  502    0  0.99336841565E+01  0.21501487255E+02  0.46382611651E+03  0.46443046670E+03  0.25500000000E-02 0. -1.
<mgrwt>
<rscale>  0 0.47371051E+02</rscale>
<asrwt>0</asrwt>
<pdfrwt beam="1">  1        2 0.14214899E+00 0.47371051E+02</pdfrwt>
<pdfrwt beam="2">  1       -2 0.93410472E-04 0.47371051E+02</pdfrwt>
<totfact> 0.13151099E+06</totfact>
</mgrwt>
</event>
<event>
 4    1  0.4635140E-002  0.4089934E+02  0.7818608E-02  0.1501696E+00
          2   -1    0    0    0  501  0.00000000000E+00  0.00000000000E+00  0.30439098380E+03  0.30439098381E+03  0.25500000000E-02 0. -1.
         -2   -1    0    0  501    0 -0.00000000000E+00 -0.00000000000E+00 -0.13738538780E+01  0.13738562445E+01  0.25500000000E-02 0. -1.
          2    1    1    2    0  502  0.19540635968E+02  0.53616220960E+01  0.17212621761E+03  0.17331479522E+03  0.25500000000E-02 0. -1.
         -2    1    1    2  502    0 -0.19540635968E+02 -0.53616220960E+01  0.13089091231E+03  0.13245004484E+03  0.25500000000E-02 0. -1.
<mgrwt>
<rscale>  0 0.40899345E+02</rscale>
<asrwt>0</asrwt>
<pdfrwt beam="1">  1        2 0.46829401E-01 0.40899345E+02</pdfrwt>
<pdfrwt beam="2">  1       -2 0.21136223E-03 0.40899345E+02</pdfrwt>
<totfact> 0.13931476E+06</totfact>
</mgrwt>
</event>
<event>
 4    1  0.4635140E-002  0.5565060E+02  0.7818608E-02  0.1417047E+00
         -2   -1    0    0  501    0 -0.00000000000E+00  0.00000000000E+00  0.60016840162E+01  0.60016845579E+01  0.25500000000E-02 0.  1.
          2   -1    0    0    0  501  0.00000000000E+00 -0.00000000000E+00 -0.12900500822E+03  0.12900500824E+03  0.25500000000E-02 0.  1.
          2    1    1    2    0  502 -0.14616350678E+02 -0.21191421659E+02 -0.87122165492E+02  0.90845945345E+02  0.25500000000E-02 0.  1.
         -2    1    1    2  502    0  0.14616350678E+02  0.21191421659E+02 -0.35881158710E+02  0.44160747456E+02  0.25500000000E-02 0.  1.
<mgrwt>
<rscale>  0 0.55650601E+02</rscale>
<asrwt>0</asrwt>
<pdfrwt beam="2">  1        2 0.19846922E-01 0.55650601E+02</pdfrwt>
<pdfrwt beam="1">  1       -2 0.92333614E-03 0.55650601E+02</pdfrwt>
<totfact> 0.48927881E+05</totfact>
</mgrwt>
</event>
<event>
 4    1  0.4635140E-002  0.7478502E+02  0.7818608E-02  0.1344538E+00
          2   -1    0    0    0  501  0.00000000000E+00  0.00000000000E+00  0.64492163696E+03  0.64492163697E+03  0.25500000000E-02 0. -1.
         -2   -1    0    0  501    0 -0.00000000000E+00 -0.00000000000E+00 -0.21680145356E+01  0.21680160352E+01  0.25500000000E-02 0. -1.
          2    1    1    2    0  502 -0.30769149257E+02 -0.19265129405E+01  0.50446765499E+03  0.50540881170E+03  0.25500000000E-02 0. -1.
         -2    1    1    2  502    0  0.30769149257E+02  0.19265129405E+01  0.13828596743E+03  0.14168084131E+03  0.25500000000E-02 0. -1.
<mgrwt>
<rscale>  0 0.74785024E+02</rscale>
<asrwt>0</asrwt>
<pdfrwt beam="1">  1        2 0.99218821E-01 0.74785024E+02</pdfrwt>
<pdfrwt beam="2">  1       -2 0.33354045E-03 0.74785024E+02</pdfrwt>
<totfact> 0.38999715E+05</totfact>
</mgrwt>
</event>
<event>
 4    1  0.4635140E-002  0.4312913E+02  0.7818608E-02  0.1486371E+00
         -2   -1    0    0  501    0 -0.00000000000E+00  0.00000000000E+00  0.32683486822E+02  0.32683486922E+02  0.25500000000E-02 0.  1.
          2   -1    0    0    0  501  0.00000000000E+00 -0.00000000000E+00 -0.14228297461E+02  0.14228297689E+02  0.25500000000E-02 0.  1.
          2    1    1    2    0  502 -0.10990961185E+02  0.18001599480E+02  0.14112780213E+02  0.25377734009E+02  0.25500000000E-02 0.  1.
         -2    1    1    2  502    0  0.10990961185E+02 -0.18001599480E+02  0.43424091481E+01  0.21534050602E+02  0.25500000000E-02 0.  1.
<mgrwt>
<rscale>  0 0.43129126E+02</rscale>
<asrwt>0</asrwt>
<pdfrwt beam="2">  1        2 0.21889689E-02 0.43129126E+02</pdfrwt>
<pdfrwt beam="1">  1       -2 0.50282287E-02 0.43129126E+02</pdfrwt>
<totfact> 0.61936579E+05</totfact>
</mgrwt>
</event>
<event>
 4    1  0.4635140E-002  0.5183060E+02  0.7818608E-02  0.1435711E+00
          2   -1    0    0    0  501  0.00000000000E+00  0.00000000000E+00  0.18135283543E+01  0.18135301471E+01  0.25500000000E-02 0.  1.
         -2   -1    0    0  501    0 -0.00000000000E+00 -0.00000000000E+00 -0.37032920836E+03  0.37032920837E+03  0.25500000000E-02 0.  1.
          2    1    1    2    0  502 -0.21720513822E+02 -0.13302767820E+02 -0.21858573031E+03  0.22006468561E+03  0.25500000000E-02 0.  1.
         -2    1    1    2  502    0  0.21720513822E+02  0.13302767820E+02 -0.14992994970E+03  0.15207805290E+03  0.25500000000E-02 0.  1.
<mgrwt>
<rscale>  0 0.51830603E+02</rscale>
<asrwt>0</asrwt>
<pdfrwt beam="1">  1        2 0.27900479E-03 0.51830603E+02</pdfrwt>
<pdfrwt beam="2">  1       -2 0.56973665E-01 0.51830603E+02</pdfrwt>
<totfact> 0.18754829E+05</totfact>
</mgrwt>
</event>
<event>
 4    1  0.4635140E-002  0.4336184E+02  0.7818608E-02  0.1484835E+00
          2   -1    0    0    0  501  0.00000000000E+00  0.00000000000E+00  0.88079249482E+02  0.88079249519E+02  0.25500000000E-02 0.  1.
         -2   -1    0    0  501    0 -0.00000000000E+00 -0.00000000000E+00 -0.53368112032E+01  0.53368118124E+01  0.25500000000E-02 0.  1.
          2    1    1    2    0  502  0.18784952018E+02  0.83912709068E+01  0.56105142083E+02  0.59758470734E+02  0.25500000000E-02 0.  1.
         -2    1    1    2  502    0 -0.18784952018E+02 -0.83912709068E+01  0.26637296196E+02  0.33657590598E+02  0.25500000000E-02 0.  1.
<mgrwt>
<rscale>  0 0.43361843E+02</rscale>
<asrwt>0</asrwt>
<pdfrwt beam="1">  1        2 0.13550654E-01 0.43361843E+02</pdfrwt>
<pdfrwt beam="2">  1       -2 0.82104793E-03 0.43361843E+02</pdfrwt>
<totfact> 0.82961605E+05</totfact>
</mgrwt>
</event>
<event>
 4    1  0.4635140E-002  0.4711680E+02  0.7818608E-02  0.1461544E+00
          2   -1    0    0    0  501  0.00000000000E+00  0.00000000000E+00  0.38356309546E+03  0.38356309547E+03  0.25500000000E-02 0. -1.
         -2   -1    0    0  501    0 -0.00000000000E+00 -0.00000000000E+00 -0.14469533166E+01  0.14469555635E+01  0.25500000000E-02 0. -1.
          2    1    1    2    0  502  0.20069734817E+02  0.12201785131E+02  0.17616794796E+03  0.17772682328E+03  0.25500000000E-02 0.  1.
         -2    1    1    2  502    0 -0.20069734817E+02 -0.12201785131E+02  0.20594819418E+03  0.20728322775E+03  0.25500000000E-02 0.  1.
<mgrwt>
<rscale>  0 0.47116805E+02</rscale>
<asrwt>0</asrwt>
<pdfrwt beam="1">  1        2 0.59009745E-01 0.47116805E+02</pdfrwt>
<pdfrwt beam="2">  1       -2 0.22260823E-03 0.47116805E+02</pdfrwt>
<totfact> 0.10666043E+06</totfact>
</mgrwt>
</event>
<event>
 4    1  0.4635140E-002  0.7563091E+02  0.7818608E-02  0.1341928E+00
          2   -1    0    0    0  501  0.00000000000E+00  0.00000000000E+00  0.27069354053E+03  0.27069354054E+03  0.25500000000E-02 0.  1.
         -2   -1    0    0  501    0 -0.00000000000E+00 -0.00000000000E+00 -0.52827585146E+01  0.52827591300E+01  0.25500000000E-02 0.  1.
          2    1    1    2    0  502  0.24984377942E+02  0.28306236380E+02  0.12492480444E+03  0.13050543640E+03  0.25500000000E-02 0. -1.
         -2    1    1    2  502    0 -0.24984377942E+02 -0.28306236380E+02  0.14048597757E+03  0.14547086327E+03  0.25500000000E-02 0. -1.
<mgrwt>
<rscale>  0 0.75630911E+02</rscale>
<asrwt>0</asrwt>
<pdfrwt beam="1">  1        2 0.41645187E-01 0.75630911E+02</pdfrwt>
<pdfrwt beam="2">  1       -2 0.81273160E-03 0.75630911E+02</pdfrwt>
<totfact> 0.28349317E+05</totfact>
</mgrwt>
</event>
<event>
 4    1  0.4635140E-002  0.6217946E+02  0.7818608E-02  0.1388907E+00
         -2   -1    0    0  501    0 -0.00000000000E+00  0.00000000000E+00  0.26630320092E+02  0.26630320214E+02  0.25500000000E-02 0.  1.
          2   -1    0    0    0  501  0.00000000000E+00 -0.00000000000E+00 -0.36295890317E+02  0.36295890406E+02  0.25500000000E-02 0.  1.
          2    1    1    2    0  502  0.30358752197E+02 -0.65067098123E+01 -0.64583353125E+01  0.31712792514E+02  0.25500000000E-02 0.  1.
         -2    1    1    2  502    0 -0.30358752197E+02  0.65067098123E+01 -0.32072349122E+01  0.31213418106E+02  0.25500000000E-02 0.  1.
<mgrwt>
<rscale>  0 0.62179456E+02</rscale>
<asrwt>0</asrwt>
<pdfrwt beam="2">  1        2 0.55839831E-02 0.62179456E+02</pdfrwt>
<pdfrwt beam="1">  1       -2 0.40969724E-02 0.62179456E+02</pdfrwt>
<totfact> 0.27197356E+05</totfact>
</mgrwt>
</event>
<event>
 4    1  0.4635140E-002  0.7339162E+02  0.7818608E-02  0.1348925E+00
         -2   -1    0    0  501    0 -0.00000000000E+00  0.00000000000E+00  0.90198234027E+00  0.90198594482E+00  0.25500000000E-02 0.  1.
          2   -1    0    0    0  501  0.00000000000E+00 -0.00000000000E+00 -0.14929113278E+04  0.14929113278E+04  0.25500000000E-02 0.  1.
          2    1    1    2    0  502 -0.27458221327E+02  0.24063986194E+02 -0.67107265261E+03  0.67206512664E+03  0.25500000000E-02 0.  1.
         -2    1    1    2  502    0  0.27458221327E+02 -0.24063986194E+02 -0.82093669284E+03  0.82174818710E+03  0.25500000000E-02 0.  1.
<mgrwt>
<rscale>  0 0.73391617E+02</rscale>
<asrwt>0</asrwt>
<pdfrwt beam="2">  1        2 0.22967669E+00 0.73391617E+02</pdfrwt>
<pdfrwt beam="1">  1       -2 0.13876799E-03 0.73391617E+02</pdfrwt>
<totfact> 0.41617785E+05</totfact>
</mgrwt>
</event>
<event>
 4    1  0.4635140E-002  0.8391662E+02  0.7818608E-02  0.1318290E+00
         -2   -1    0    0  501    0 -0.00000000000E+00  0.00000000000E+00  0.73688112256E+00  0.73688553472E+00  0.25500000000E-02 0. -1.
          2   -1    0    0    0  501  0.00000000000E+00 -0.00000000000E+00 -0.23891159586E+04  0.23891159586E+04  0.25500000000E-02 0. -1.
          2    1    1    2    0  502 -0.47964940078E+01 -0.36079089095E+02 -0.17887050024E+04  0.17890752619E+04  0.25500000000E-02 0. -1.
         -2    1    1    2  502    0  0.47964940078E+01  0.36079089095E+02 -0.59967407507E+03  0.60077758225E+03  0.25500000000E-02 0. -1.
<mgrwt>
<rscale>  0 0.83916619E+02</rscale>
<asrwt>0</asrwt>
<pdfrwt beam="2">  1        2 0.36755010E+00 0.83916619E+02</pdfrwt>
<pdfrwt beam="1">  1       -2 0.11336858E-03 0.83916619E+02</pdfrwt>
<totfact> 0.19851892E+05</totfact>
</mgrwt>
</event>
<event>
 4    1  0.4635140E-002  0.8776721E+02  0.7818608E-02  0.1308351E+00
          2   -1    0    0    0  501  0.00000000000E+00  0.00000000000E+00  0.23896323985E+02  0.23896324121E+02  0.25500000000E-02 0. -1.
         -2   -1    0    0  501    0 -0.00000000000E+00 -0.00000000000E+00 -0.80588582540E+02  0.80588582581E+02  0.25500000000E-02 0. -1.
          2    1    1    2    0  502  0.20635710637E+02  0.22963834618E+01  0.17678805351E+02  0.27269875240E+02  0.25500000000E-02 0.  1.
         -2    1    1    2  502    0 -0.20635710637E+02 -0.22963834618E+01 -0.74371063907E+02  0.77215031461E+02  0.25500000000E-02 0.  1.
<mgrwt>
<rscale>  0 0.87767212E+02</rscale>
<asrwt>0</asrwt>
<pdfrwt beam="1">  1        2 0.36763576E-02 0.87767212E+02</pdfrwt>
<pdfrwt beam="2">  1       -2 0.12398243E-01 0.87767212E+02</pdfrwt>
<totfact> 0.93243502E+04</totfact>
</mgrwt>
</event>
<event>
 4    1  0.4635140E-002  0.4376615E+02  0.7818608E-02  0.1482195E+00
          2   -1    0    0    0  501  0.00000000000E+00  0.00000000000E+00  0.19968715766E+00  0.19970343872E+00  0.25500000000E-02 0. -1.
         -2   -1    0    0  501    0 -0.00000000000E+00 -0.00000000000E+00 -0.23979983234E+04  0.23979983234E+04  0.25500000000E-02 0. -1.
          2    1    1    2    0  502  0.20840765240E+02  0.25243392026E+01 -0.86040893579E+03  0.86066500253E+03  0.25500000000E-02 0. -1.
         -2    1    1    2  502    0 -0.20840765240E+02 -0.25243392026E+01 -0.15373897005E+04  0.15375330243E+04  0.25500000000E-02 0. -1.
<mgrwt>
<rscale>  0 0.43766151E+02</rscale>
<asrwt>0</asrwt>
<pdfrwt beam="1">  1        2 0.30724274E-04 0.43766151E+02</pdfrwt>
<pdfrwt beam="2">  1       -2 0.36889976E+00 0.43766151E+02</pdfrwt>
<totfact> 0.21531137E+04</totfact>
</mgrwt>
</event>
<event>
 4    1  0.4635140E-002  0.4438328E+02  0.7818608E-02  0.1478229E+00
         -2   -1    0    0  501    0 -0.00000000000E+00  0.00000000000E+00  0.14190776918E+02  0.14190777148E+02  0.25500000000E-02 0. -1.
          2   -1    0    0    0  501  0.00000000000E+00 -0.00000000000E+00 -0.34703451342E+02  0.34703451436E+02  0.25500000000E-02 0. -1.
          2    1    1    2    0  502  0.19812274042E+02  0.88914656722E+01 -0.52218994004E+01  0.22335008493E+02  0.25500000000E-02 0. -1.
         -2    1    1    2  502    0 -0.19812274042E+02 -0.88914656722E+01 -0.15290775023E+02  0.26559220091E+02  0.25500000000E-02 0. -1.
<mgrwt>
<rscale>  0 0.44383283E+02</rscale>
<asrwt>0</asrwt>
<pdfrwt beam="2">  1        2 0.53389925E-02 0.44383283E+02</pdfrwt>
<pdfrwt beam="1">  1       -2 0.21831965E-02 0.44383283E+02</pdfrwt>
<totfact> 0.65367670E+05</totfact>
</mgrwt>
</event>
<event>
 4    1  0.4635140E-002  0.7945383E+02  0.7818608E-02  0.1330609E+00
         -2   -1    0    0  501    0 -0.00000000000E+00  0.00000000000E+00  0.14699176810E+01  0.14699198929E+01  0.25500000000E-02 0. -1.
          2   -1    0    0    0  501  0.00000000000E+00 -0.00000000000E+00 -0.10736836383E+04  0.10736836383E+04  0.25500000000E-02 0. -1.
          2    1    1    2    0  502  0.35724456345E+02  0.14096257070E+02 -0.39858319140E+03  0.40042914694E+03  0.25500000000E-02 0.  1.
         -2    1    1    2  502    0 -0.35724456345E+02 -0.14096257070E+02 -0.67363052918E+03  0.67472441122E+03  0.25500000000E-02 0.  1.
<mgrwt>
<rscale>  0 0.79453829E+02</rscale>
<asrwt>0</asrwt>
<pdfrwt beam="2">  1        2 0.16518147E+00 0.79453829E+02</pdfrwt>
<pdfrwt beam="1">  1       -2 0.22614221E-03 0.79453829E+02</pdfrwt>
<totfact> 0.35872669E+05</totfact>
</mgrwt>
</event>
<event>
 4    1  0.4635140E-002  0.5306729E+02  0.7818608E-02  0.1429466E+00
         -2   -1    0    0  501    0 -0.00000000000E+00  0.00000000000E+00  0.23981185236E+00  0.23982540948E+00  0.25500000000E-02 0. -1.
          2   -1    0    0    0  501  0.00000000000E+00 -0.00000000000E+00 -0.29356944635E+04  0.29356944635E+04  0.25500000000E-02 0. -1.
          2    1    1    2    0  502  0.32457365525E+01  0.26333352266E+02 -0.14548738174E+04  0.14551157358E+04  0.25500000000E-02 0.  1.
         -2    1    1    2  502    0 -0.32457365525E+01 -0.26333352266E+02 -0.14805808343E+04  0.14808185531E+04  0.25500000000E-02 0.  1.
<mgrwt>
<rscale>  0 0.53067287E+02</rscale>
<asrwt>0</asrwt>
<pdfrwt beam="2">  1        2 0.45161652E+00 0.53067287E+02</pdfrwt>
<pdfrwt beam="1">  1       -2 0.36897525E-04 0.53067287E+02</pdfrwt>
<totfact> 0.44083969E+05</totfact>
</mgrwt>
</event>
<event>
 4    1  0.4635140E-002  0.4213094E+02  0.7818608E-02  0.1493091E+00
          2   -1    0    0    0  501  0.00000000000E+00  0.00000000000E+00  0.20419626163E+01  0.20419642085E+01  0.25500000000E-02 0.  1.
         -2   -1    0    0  501    0 -0.00000000000E+00 -0.00000000000E+00 -0.21731730329E+03  0.21731730331E+03  0.25500000000E-02 0.  1.
          2    1    1    2    0  502 -0.18200610347E+02 -0.90926396303E+01 -0.13606768735E+03  0.13758035419E+03  0.25500000000E-02 0.  1.
         -2    1    1    2  502    0  0.18200610347E+02  0.90926396303E+01 -0.79207653326E+02  0.81778913323E+02  0.25500000000E-02 0.  1.
<mgrwt>
<rscale>  0 0.42130938E+02</rscale>
<asrwt>0</asrwt>
<pdfrwt beam="1">  1        2 0.31414839E-03 0.42130938E+02</pdfrwt>
<pdfrwt beam="2">  1       -2 0.33433413E-01 0.42130938E+02</pdfrwt>
<totfact> 0.41313211E+05</totfact>
</mgrwt>
</event>
<event>
 4    1  0.4635140E-002  0.5259030E+02  0.7818608E-02  0.1431851E+00
         -2   -1    0    0  501    0 -0.00000000000E+00  0.00000000000E+00  0.28607505703E+01  0.28607517068E+01  0.25500000000E-02 0.  1.
          2   -1    0    0    0  501  0.00000000000E+00 -0.00000000000E+00 -0.24169698614E+03  0.24169698616E+03  0.25500000000E-02 0.  1.
          2    1    1    2    0  502  0.15617199909E+02 -0.15352339685E+02 -0.51734511833E+02  0.56178741423E+02  0.25500000000E-02 0.  1.
         -2    1    1    2  502    0 -0.15617199909E+02  0.15352339685E+02 -0.18710172374E+03  0.18837899644E+03  0.25500000000E-02 0.  1.
<mgrwt>
<rscale>  0 0.52590301E+02</rscale>
<asrwt>0</asrwt>
<pdfrwt beam="2">  1        2 0.37184136E-01 0.52590301E+02</pdfrwt>
<pdfrwt beam="1">  1       -2 0.44011575E-03 0.52590301E+02</pdfrwt>
<totfact> 0.69156445E+05</totfact>
</mgrwt>
</event>
<event>
 4    1  0.4635140E-002  0.4701802E+02  0.7818608E-02  0.1462123E+00
          2   -1    0    0    0  501  0.00000000000E+00  0.00000000000E+00  0.13970859624E+03  0.13970859626E+03  0.25500000000E-02 0.  1.
         -2   -1    0    0  501    0 -0.00000000000E+00 -0.00000000000E+00 -0.39559023444E+01  0.39559031663E+01  0.25500000000E-02 0.  1.
          2    1    1    2    0  502  0.11180955479E+02 -0.19850762373E+02  0.50163004306E+02  0.55094405703E+02  0.25500000000E-02 0.  1.
         -2    1    1    2  502    0 -0.11180955479E+02  0.19850762373E+02  0.85589689589E+02  0.88570093727E+02  0.25500000000E-02 0.  1.
<mgrwt>
<rscale>  0 0.47018023E+02</rscale>
<asrwt>0</asrwt>
<pdfrwt beam="1">  1        2 0.21493630E-01 0.47018023E+02</pdfrwt>
<pdfrwt beam="2">  1       -2 0.60860042E-03 0.47018023E+02</pdfrwt>
<totfact> 0.76690383E+05</totfact>
</mgrwt>
</event>
<event>
 4    1  0.4635140E-002  0.8542055E+02  0.7818608E-02  0.1314336E+00
          2   -1    0    0    0  501  0.00000000000E+00  0.00000000000E+00  0.40408937706E+03  0.40408937707E+03  0.25500000000E-02 0.  1.
         -2   -1    0    0  501    0 -0.00000000000E+00 -0.00000000000E+00 -0.45142675694E+01  0.45142682896E+01  0.25500000000E-02 0.  1.
          2    1    1    2    0  502  0.57146036147E+01 -0.21948214527E+02  0.26670370800E+02  0.35009848621E+02  0.25500000000E-02 0. -1.
         -2    1    1    2  502    0 -0.57146036147E+01  0.21948214527E+02  0.37290473869E+03  0.37359379674E+03  0.25500000000E-02 0. -1.
<mgrwt>
<rscale>  0 0.85420553E+02</rscale>
<asrwt>0</asrwt>
<pdfrwt beam="1">  1        2 0.62167600E-01 0.85420553E+02</pdfrwt>
<pdfrwt beam="2">  1       -2 0.69450272E-03 0.85420553E+02</pdfrwt>
<totfact> 0.23805782E+05</totfact>
</mgrwt>
</event>
<event>
 4    1  0.4635140E-002  0.5330984E+02  0.7818608E-02  0.1428265E+00
         -2   -1    0    0  501    0 -0.00000000000E+00  0.00000000000E+00  0.72480514330E+00  0.72480962897E+00  0.25500000000E-02 0.  1.
          2   -1    0    0    0  501  0.00000000000E+00 -0.00000000000E+00 -0.98023954803E+03  0.98023954804E+03  0.25500000000E-02 0.  1.
          2    1    1    2    0  502 -0.22539677147E+02 -0.90005221766E+01 -0.28697795778E+03  0.28800242135E+03  0.25500000000E-02 0.  1.
         -2    1    1    2  502    0  0.22539677147E+02  0.90005221766E+01 -0.69253678511E+03  0.69296193632E+03  0.25500000000E-02 0.  1.
<mgrwt>
<rscale>  0 0.53309844E+02</rscale>
<asrwt>0</asrwt>
<pdfrwt beam="2">  1        2 0.15080502E+00 0.53309844E+02</pdfrwt>
<pdfrwt beam="1">  1       -2 0.11150961E-03 0.53309844E+02</pdfrwt>
<totfact> 0.98687162E+05</totfact>
</mgrwt>
</event>
<event>
 4    1  0.4635140E-002  0.4711826E+02  0.7818608E-02  0.1461535E+00
          2   -1    0    0    0  501  0.00000000000E+00  0.00000000000E+00  0.11760821997E+01  0.11760849642E+01  0.25500000000E-02 0.  1.
         -2   -1    0    0  501    0 -0.00000000000E+00 -0.00000000000E+00 -0.47193289711E+03  0.47193289712E+03  0.25500000000E-02 0.  1.
          2    1    1    2    0  502 -0.12365815788E+02  0.18150311066E+02 -0.32098266811E+03  0.32173315096E+03  0.25500000000E-02 0.  1.
         -2    1    1    2  502    0  0.12365815788E+02 -0.18150311066E+02 -0.14977414680E+03  0.15137583113E+03  0.25500000000E-02 0.  1.
<mgrwt>
<rscale>  0 0.47118257E+02</rscale>
<asrwt>0</asrwt>
<pdfrwt beam="1">  1        2 0.18093631E-03 0.47118257E+02</pdfrwt>
<pdfrwt beam="2">  1       -2 0.72604910E-01 0.47118257E+02</pdfrwt>
<totfact> 0.20034698E+05</totfact>
</mgrwt>
</event>
<event>
 4    1  0.4635140E-002  0.8121434E+02  0.7818608E-02  0.1325640E+00
         -2   -1    0    0  501    0 -0.00000000000E+00  0.00000000000E+00  0.37649345203E+01  0.37649353838E+01  0.25500000000E-02 0. -1.
          2   -1    0    0    0  501  0.00000000000E+00 -0.00000000000E+00 -0.43797367938E+03  0.43797367939E+03  0.25500000000E-02 0. -1.
          2    1    1    2    0  502 -0.23580909122E+02 -0.82881564121E+01 -0.39117392174E+03  0.39197166972E+03  0.25500000000E-02 0.  1.
         -2    1    1    2  502    0  0.23580909122E+02  0.82881564121E+01 -0.43034823122E+02  0.49766945047E+02  0.25500000000E-02 0.  1.
<mgrwt>
<rscale>  0 0.81214344E+02</rscale>
<asrwt>0</asrwt>
<pdfrwt beam="2">  1        2 0.67380526E-01 0.81214344E+02</pdfrwt>
<pdfrwt beam="1">  1       -2 0.57922111E-03 0.81214344E+02</pdfrwt>
<totfact> 0.27956269E+05</totfact>
</mgrwt>
</event>
<event>
 4    1  0.4635140E-002  0.4884946E+02  0.7818608E-02  0.1451648E+00
          2   -1    0    0    0  501  0.00000000000E+00  0.00000000000E+00  0.13676741211E+03  0.13676741213E+03  0.25500000000E-02 0. -1.
         -2   -1    0    0  501    0 -0.00000000000E+00 -0.00000000000E+00 -0.43619115889E+01  0.43619123342E+01  0.25500000000E-02 0. -1.
          2    1    1    2    0  502  0.86319086420E+01  0.21333299852E+02  0.89841576708E+02  0.92742268903E+02  0.25500000000E-02 0.  1.
         -2    1    1    2  502    0 -0.86319086420E+01 -0.21333299852E+02  0.42563923814E+02  0.48387055566E+02  0.25500000000E-02 0.  1.
<mgrwt>
<rscale>  0 0.48849459E+02</rscale>
<asrwt>0</asrwt>
<pdfrwt beam="1">  1        2 0.21041142E-01 0.48849459E+02</pdfrwt>
<pdfrwt beam="2">  1       -2 0.67106332E-03 0.48849459E+02</pdfrwt>
<totfact> 0.69255694E+05</totfact>
</mgrwt>
</event>
<event>
 4    1  0.4635140E-002  0.3406029E+03  0.7818608E-02  0.1066539E+00
          2   -1    0    0    0  501  0.00000000000E+00  0.00000000000E+00  0.25526178590E+04  0.25526178590E+04  0.25500000000E-02 0. -1.
         -2   -1    0    0  501    0 -0.00000000000E+00 -0.00000000000E+00 -0.11361896820E+02  0.11361897106E+02  0.25500000000E-02 0. -1.
          2    1    1    2    0  502 -0.94366601942E+02  0.91169755349E+02  0.45340204216E+03  0.47200677081E+03  0.25500000000E-02 0. -1.
         -2    1    1    2  502    0  0.94366601942E+02 -0.91169755349E+02  0.20878539200E+04  0.20919729853E+04  0.25500000000E-02 0. -1.
<mgrwt>
<rscale>  0 0.34060288E+03</rscale>
<asrwt>0</asrwt>
<pdfrwt beam="1">  1        2 0.39271092E+00 0.34060288E+03</pdfrwt>
<pdfrwt beam="2">  1       -2 0.17479820E-02 0.34060288E+03</pdfrwt>
<totfact> 0.35227773E+03</totfact>
</mgrwt>
</event>
<event>
 4    1  0.4635140E-002  0.5191238E+02  0.7818608E-02  0.1435291E+00
          2   -1    0    0    0  501  0.00000000000E+00  0.00000000000E+00  0.12363397509E+04  0.12363397509E+04  0.25500000000E-02 0. -1.
         -2   -1    0    0  501    0 -0.00000000000E+00 -0.00000000000E+00 -0.54493115163E+00  0.54493711794E+00  0.25500000000E-02 0. -1.
          2    1    1    2    0  502 -0.11345535029E+02  0.22784522073E+02  0.49671468596E+03  0.49736639902E+03  0.25500000000E-02 0.  1.
         -2    1    1    2  502    0  0.11345535029E+02 -0.22784522073E+02  0.73908013375E+03  0.73951828897E+03  0.25500000000E-02 0.  1.
<mgrwt>
<rscale>  0 0.51912378E+02</rscale>
<asrwt>0</asrwt>
<pdfrwt beam="1">  1        2 0.19020547E+00 0.51912378E+02</pdfrwt>
<pdfrwt beam="2">  1       -2 0.83836307E-04 0.51912378E+02</pdfrwt>
<totfact> 0.10461986E+06</totfact>
</mgrwt>
</event>
<event>
 4    1  0.4635140E-002  0.4516243E+02  0.7818608E-02  0.1473330E+00
         -2   -1    0    0  501    0 -0.00000000000E+00  0.00000000000E+00  0.23395005957E+01  0.23395019855E+01  0.25500000000E-02 0.  1.
          2   -1    0    0    0  501  0.00000000000E+00 -0.00000000000E+00 -0.21795720883E+03  0.21795720885E+03  0.25500000000E-02 0.  1.
          2    1    1    2    0  502  0.22506379481E+02 -0.17851416174E+01 -0.10569768487E+03  0.10808202645E+03  0.25500000000E-02 0. -1.
         -2    1    1    2  502    0 -0.22506379481E+02  0.17851416174E+01 -0.10992002336E+03  0.11221468438E+03  0.25500000000E-02 0. -1.
<mgrwt>
<rscale>  0 0.45162426E+02</rscale>
<asrwt>0</asrwt>
<pdfrwt beam="2">  1        2 0.33531862E-01 0.45162426E+02</pdfrwt>
<pdfrwt beam="1">  1       -2 0.35992345E-03 0.45162426E+02</pdfrwt>
<totfact> 0.97563562E+05</totfact>
</mgrwt>
</event>
<event>
 4    1  0.4635140E-002  0.5174497E+02  0.7818608E-02  0.1436151E+00
          2   -1    0    0    0  501  0.00000000000E+00  0.00000000000E+00  0.21358696604E+02  0.21358696756E+02  0.25500000000E-02 0.  1.
         -2   -1    0    0  501    0 -0.00000000000E+00 -0.00000000000E+00 -0.31340184006E+02  0.31340184110E+02  0.25500000000E-02 0.  1.
          2    1    1    2    0  502 -0.15668212719E+02  0.12469916276E+02 -0.21675484872E+02  0.29509631524E+02  0.25500000000E-02 0. -1.
         -2    1    1    2  502    0  0.15668212719E+02 -0.12469916276E+02  0.11693997470E+02  0.23189249342E+02  0.25500000000E-02 0. -1.
<mgrwt>
<rscale>  0 0.51744970E+02</rscale>
<asrwt>0</asrwt>
<pdfrwt beam="1">  1        2 0.32859533E-02 0.51744970E+02</pdfrwt>
<pdfrwt beam="2">  1       -2 0.48215668E-02 0.51744970E+02</pdfrwt>
<totfact> 0.40603732E+05</totfact>
</mgrwt>
</event>
<event>
 4    1  0.4635140E-002  0.4594230E+02  0.7818608E-02  0.1468543E+00
          2   -1    0    0    0  501  0.00000000000E+00  0.00000000000E+00  0.53478154586E+02  0.53478154647E+02  0.25500000000E-02 0. -1.
         -2   -1    0    0  501    0 -0.00000000000E+00 -0.00000000000E+00 -0.98670878449E+01  0.98670881744E+01  0.25500000000E-02 0. -1.
          2    1    1    2    0  502  0.17571021347E+02  0.11649560198E+02  0.92273839087E+01  0.23012989034E+02  0.25500000000E-02 0.  1.
         -2    1    1    2  502    0 -0.17571021347E+02 -0.11649560198E+02  0.34383682833E+02  0.40332253788E+02  0.25500000000E-02 0.  1.
<mgrwt>
<rscale>  0 0.45942297E+02</rscale>
<asrwt>0</asrwt>
<pdfrwt beam="1">  1        2 0.82274083E-02 0.45942297E+02</pdfrwt>
<pdfrwt beam="2">  1       -2 0.15180136E-02 0.45942297E+02</pdfrwt>
<totfact> 0.64497506E+05</totfact>
</mgrwt>
</event>
<event>
 4    1  0.4635140E-002  0.4501568E+02  0.7818608E-02  0.1474244E+00
          2   -1    0    0    0  501  0.00000000000E+00  0.00000000000E+00  0.10742503698E+04  0.10742503698E+04  0.25500000000E-02 0.  1.
         -2   -1    0    0  501    0 -0.00000000000E+00 -0.00000000000E+00 -0.47158381848E+00  0.47159071275E+00  0.25500000000E-02 0.  1.
          2    1    1    2    0  502 -0.54688395867E+01  0.21126948441E+02  0.66840812150E+03  0.66876428811E+03  0.25500000000E-02 0.  1.
         -2    1    1    2  502    0  0.54688395867E+01 -0.21126948441E+02  0.40537066444E+03  0.40595767237E+03  0.25500000000E-02 0.  1.
<mgrwt>
<rscale>  0 0.45015677E+02</rscale>
<asrwt>0</asrwt>
<pdfrwt beam="1">  1        2 0.16526852E+00 0.45015677E+02</pdfrwt>
<pdfrwt beam="2">  1       -2 0.72552225E-04 0.45015677E+02</pdfrwt>
<totfact> 0.14999639E+06</totfact>
</mgrwt>
</event>
<event>
 4    1  0.4635140E-002  0.4040282E+02  0.7818608E-02  0.1505268E+00
          2   -1    0    0    0  501  0.00000000000E+00  0.00000000000E+00  0.10415456773E+03  0.10415456776E+03  0.25500000000E-02 0.  1.
         -2   -1    0    0  501    0 -0.00000000000E+00 -0.00000000000E+00 -0.39181864868E+01  0.39181873166E+01  0.25500000000E-02 0.  1.
          2    1    1    2    0  502  0.40944733905E+00 -0.20188937548E+02  0.48567189910E+02  0.52597840152E+02  0.25500000000E-02 0.  1.
         -2    1    1    2  502    0 -0.40944733905E+00  0.20188937548E+02  0.51669191332E+02  0.55474914924E+02  0.25500000000E-02 0.  1.
<mgrwt>
<rscale>  0 0.40402825E+02</rscale>
<asrwt>0</asrwt>
<pdfrwt beam="1">  1        2 0.16023780E-01 0.40402825E+02</pdfrwt>
<pdfrwt beam="2">  1       -2 0.60279797E-03 0.40402825E+02</pdfrwt>
<totfact> 0.10299623E+06</totfact>
</mgrwt>
</event>
<event>
 4    1  0.4635140E-002  0.4274330E+02  0.7818608E-02  0.1488942E+00
         -2   -1    0    0  501    0 -0.00000000000E+00  0.00000000000E+00  0.28094295267E+00  0.28095452506E+00  0.25500000000E-02 0.  1.
          2   -1    0    0    0  501  0.00000000000E+00 -0.00000000000E+00 -0.16257321755E+04  0.16257321755E+04  0.25500000000E-02 0.  1.
          2    1    1    2    0  502  0.37118771450E+01 -0.20198973928E+02 -0.10376874918E+04  0.10378907010E+04  0.25500000000E-02 0.  1.
         -2    1    1    2  502    0 -0.37118771450E+01  0.20198973928E+02 -0.58776374070E+03  0.58812242897E+03  0.25500000000E-02 0.  1.
<mgrwt>
<rscale>  0 0.42743299E+02</rscale>
<asrwt>0</asrwt>
<pdfrwt beam="2">  1        2 0.25010511E+00 0.42743299E+02</pdfrwt>
<pdfrwt beam="1">  1       -2 0.43224185E-04 0.42743299E+02</pdfrwt>
<totfact> 0.15583140E+06</totfact>
</mgrwt>
</event>
<event>
 4    1  0.4635140E-002  0.6404705E+02  0.7818608E-02  0.1381592E+00
         -2   -1    0    0  501    0 -0.00000000000E+00  0.00000000000E+00  0.13406459652E+04  0.13406459652E+04  0.25500000000E-02 0. -1.
          2   -1    0    0    0  501  0.00000000000E+00 -0.00000000000E+00 -0.76493210571E+00  0.76493635608E+00  0.25500000000E-02 0. -1.
          2    1    1    2    0  502 -0.14479965281E+01 -0.29606321685E+02  0.41611417627E+03  0.41716859742E+03  0.25500000000E-02 0.  1.
         -2    1    1    2  502    0  0.14479965281E+01  0.29606321685E+02  0.92376685681E+03  0.92424230412E+03  0.25500000000E-02 0.  1.
<mgrwt>
<rscale>  0 0.64047045E+02</rscale>
<asrwt>0</asrwt>
<pdfrwt beam="2">  1        2 0.11768172E-03 0.64047045E+02</pdfrwt>
<pdfrwt beam="1">  1       -2 0.20625405E+00 0.64047045E+02</pdfrwt>
<totfact> 0.31432482E+04</totfact>
</mgrwt>
</event>
<event>
 4    1  0.4635140E-002  0.4362882E+02  0.7818608E-02  0.1483088E+00
         -2   -1    0    0  501    0 -0.00000000000E+00  0.00000000000E+00  0.13846441506E+03  0.13846441509E+03  0.25500000000E-02 0. -1.
          2   -1    0    0    0  501  0.00000000000E+00 -0.00000000000E+00 -0.34367559172E+01  0.34367568633E+01  0.25500000000E-02 0. -1.
          2    1    1    2    0  502  0.19730952341E+02  0.87058342323E+01  0.56841766444E+02  0.60795464049E+02  0.25500000000E-02 0.  1.
         -2    1    1    2  502    0 -0.19730952341E+02 -0.87058342323E+01  0.78185892702E+02  0.81105707901E+02  0.25500000000E-02 0.  1.
<mgrwt>
<rscale>  0 0.43628819E+02</rscale>
<asrwt>0</asrwt>
<pdfrwt beam="2">  1        2 0.52873170E-03 0.43628819E+02</pdfrwt>
<pdfrwt beam="1">  1       -2 0.21302220E-01 0.43628819E+02</pdfrwt>
<totfact> 0.44876771E+05</totfact>
</mgrwt>
</event>
<event>
 4    1  0.4635140E-002  0.4682152E+02  0.7818608E-02  0.1463280E+00
         -2   -1    0    0  501    0 -0.00000000000E+00  0.00000000000E+00  0.25722907004E+01  0.25722919644E+01  0.25500000000E-02 0. -1.
          2   -1    0    0    0  501  0.00000000000E+00 -0.00000000000E+00 -0.21306442294E+03  0.21306442296E+03  0.25500000000E-02 0. -1.
          2    1    1    2    0  502 -0.20530570955E+02  0.66980324858E+01 -0.63618887023E+02  0.67184304532E+02  0.25500000000E-02 0.  1.
         -2    1    1    2  502    0  0.20530570955E+02 -0.66980324858E+01 -0.14687324522E+03  0.14845241039E+03  0.25500000000E-02 0.  1.
<mgrwt>
<rscale>  0 0.46821524E+02</rscale>
<asrwt>0</asrwt>
<pdfrwt beam="2">  1        2 0.32779128E-01 0.46821524E+02</pdfrwt>
<pdfrwt beam="1">  1       -2 0.39573730E-03 0.46821524E+02</pdfrwt>
<totfact> 0.88554762E+05</totfact>
</mgrwt>
</event>
<event>
 4    1  0.4635140E-002  0.7934352E+02  0.7818608E-02  0.1330925E+00
         -2   -1    0    0  501    0 -0.00000000000E+00  0.00000000000E+00  0.44860837697E+00  0.44861562432E+00  0.25500000000E-02 0. -1.
          2   -1    0    0    0  501  0.00000000000E+00 -0.00000000000E+00 -0.35082618341E+04  0.35082618341E+04  0.25500000000E-02 0. -1.
          2    1    1    2    0  502  0.32383931070E+02 -0.13420617246E+02 -0.25753089981E+04  0.25755475666E+04  0.25500000000E-02 0.  1.
         -2    1    1    2  502    0 -0.32383931070E+02  0.13420617246E+02 -0.93250422755E+03  0.93316288309E+03  0.25500000000E-02 0.  1.
<mgrwt>
<rscale>  0 0.79343516E+02</rscale>
<asrwt>0</asrwt>
<pdfrwt beam="2">  1        2 0.53971062E+00 0.79343516E+02</pdfrwt>
<pdfrwt beam="1">  1       -2 0.69020040E-04 0.79343516E+02</pdfrwt>
<totfact> 0.90625051E+04</totfact>
</mgrwt>
</event>
<event>
 4    1  0.4635140E-002  0.4404036E+02  0.7818608E-02  0.1480423E+00
         -2   -1    0    0  501    0 -0.00000000000E+00  0.00000000000E+00  0.12053416141E+01  0.12053443115E+01  0.25500000000E-02 0. -1.
          2   -1    0    0    0  501  0.00000000000E+00 -0.00000000000E+00 -0.40228238179E+03  0.40228238180E+03  0.25500000000E-02 0. -1.
          2    1    1    2    0  502  0.20996133473E+02 -0.63352333078E+01 -0.18240970600E+03  0.18372336175E+03  0.25500000000E-02 0. -1.
         -2    1    1    2  502    0 -0.20996133473E+02  0.63352333078E+01 -0.21866733418E+03  0.21976436437E+03  0.25500000000E-02 0. -1.
<mgrwt>
<rscale>  0 0.44040356E+02</rscale>
<asrwt>0</asrwt>
<pdfrwt beam="2">  1        2 0.61889491E-01 0.44040356E+02</pdfrwt>
<pdfrwt beam="1">  1       -2 0.18543770E-03 0.44040356E+02</pdfrwt>
<totfact> 0.12790665E+06</totfact>
</mgrwt>
</event>
<event>
 4    1  0.4635140E-002  0.6705873E+02  0.7818608E-02  0.1370391E+00
         -2   -1    0    0  501    0 -0.00000000000E+00  0.00000000000E+00  0.45119970330E+01  0.45119977536E+01  0.25500000000E-02 0. -1.
          2   -1    0    0    0  501  0.00000000000E+00 -0.00000000000E+00 -0.24916202820E+03  0.24916202821E+03  0.25500000000E-02 0. -1.
          2    1    1    2    0  502 -0.23484139580E+02 -0.22364528793E+02 -0.15454414477E+03  0.15791000490E+03  0.25500000000E-02 0. -1.
         -2    1    1    2  502    0  0.23484139580E+02  0.22364528793E+02 -0.90105886397E+02  0.95764021061E+02  0.25500000000E-02 0. -1.
<mgrwt>
<rscale>  0 0.67058733E+02</rscale>
<asrwt>0</asrwt>
<pdfrwt beam="2">  1        2 0.38332609E-01 0.67058733E+02</pdfrwt>
<pdfrwt beam="1">  1       -2 0.69415364E-03 0.67058733E+02</pdfrwt>
<totfact> 0.37621010E+05</totfact>
</mgrwt>
</event>
<event>
 4    1  0.4635140E-002  0.5148567E+02  0.7818608E-02  0.1437489E+00
         -2   -1    0    0  501    0 -0.00000000000E+00  0.00000000000E+00  0.51022869497E+00  0.51023506708E+00  0.25500000000E-02 0.  1.
          2   -1    0    0    0  501  0.00000000000E+00 -0.00000000000E+00 -0.12988086740E+04  0.12988086740E+04  0.25500000000E-02 0.  1.
          2    1    1    2    0  502  0.86897686601E+01 -0.24227101457E+02 -0.63707083638E+03  0.63759055443E+03  0.25500000000E-02 0.  1.
         -2    1    1    2  502    0 -0.86897686601E+01  0.24227101457E+02 -0.66122760892E+03  0.66172835464E+03  0.25500000000E-02 0.  1.
<mgrwt>
<rscale>  0 0.51485672E+02</rscale>
<asrwt>0</asrwt>
<pdfrwt beam="2">  1        2 0.19981407E+00 0.51485672E+02</pdfrwt>
<pdfrwt beam="1">  1       -2 0.78498252E-04 0.51485672E+02</pdfrwt>
<totfact> 0.10595280E+06</totfact>
</mgrwt>
</event>
<event>
 4    1  0.4635140E-002  0.6534019E+02  0.7818608E-02  0.1376696E+00
          2   -1    0    0    0  501  0.00000000000E+00  0.00000000000E+00  0.37560607342E+02  0.37560607428E+02  0.25500000000E-02 0.  1.
         -2   -1    0    0  501    0 -0.00000000000E+00 -0.00000000000E+00 -0.28416344570E+02  0.28416344684E+02  0.25500000000E-02 0.  1.
          2    1    1    2    0  502  0.14236937463E+02  0.15784026664E+02  0.29623366581E+02  0.36460523037E+02  0.25500000000E-02 0. -1.
         -2    1    1    2  502    0 -0.14236937463E+02 -0.15784026664E+02 -0.20479103809E+02  0.29516429075E+02  0.25500000000E-02 0. -1.
<mgrwt>
<rscale>  0 0.65340192E+02</rscale>
<asrwt>0</asrwt>
<pdfrwt beam="1">  1        2 0.57785550E-02 0.65340192E+02</pdfrwt>
<pdfrwt beam="2">  1       -2 0.43717453E-02 0.65340192E+02</pdfrwt>
<totfact> 0.23936811E+05</totfact>
</mgrwt>
</event>
<event>
 4    1  0.4635140E-002  0.4889056E+02  0.7818608E-02  0.1451419E+00
         -2   -1    0    0  501    0 -0.00000000000E+00  0.00000000000E+00  0.13300681970E+01  0.13300706414E+01  0.25500000000E-02 0.  1.
          2   -1    0    0    0  501  0.00000000000E+00 -0.00000000000E+00 -0.44927850153E+03  0.44927850154E+03  0.25500000000E-02 0.  1.
          2    1    1    2    0  502 -0.94637939045E+01 -0.22290253693E+02 -0.19319438821E+03  0.19470616438E+03  0.25500000000E-02 0. -1.
         -2    1    1    2  502    0  0.94637939045E+01  0.22290253693E+02 -0.25475404513E+03  0.25590240780E+03  0.25500000000E-02 0. -1.
<mgrwt>
<rscale>  0 0.48890555E+02</rscale>
<asrwt>0</asrwt>
<pdfrwt beam="2">  1        2 0.69119649E-01 0.48890555E+02</pdfrwt>
<pdfrwt beam="1">  1       -2 0.20462642E-03 0.48890555E+02</pdfrwt>
<totfact> 0.10262993E+06</totfact>
</mgrwt>
</event>
<event>
 4    1  0.4635140E-002  0.6645747E+02  0.7818608E-02  0.1372571E+00
          2   -1    0    0    0  501  0.00000000000E+00  0.00000000000E+00  0.22027262958E+03  0.22027262959E+03  0.25500000000E-02 0.  1.
         -2   -1    0    0  501    0 -0.00000000000E+00 -0.00000000000E+00 -0.50126468468E+01  0.50126474954E+01  0.25500000000E-02 0.  1.
          2    1    1    2    0  502  0.30958121594E+01 -0.26980241516E+02  0.17253883269E+03  0.17466300776E+03  0.25500000000E-02 0.  1.
         -2    1    1    2  502    0 -0.30958121594E+01  0.26980241516E+02  0.42721150042E+02  0.50622269335E+02  0.25500000000E-02 0.  1.
<mgrwt>
<rscale>  0 0.66457474E+02</rscale>
<asrwt>0</asrwt>
<pdfrwt beam="1">  1        2 0.33888097E-01 0.66457474E+02</pdfrwt>
<pdfrwt beam="2">  1       -2 0.77117650E-03 0.66457474E+02</pdfrwt>
<totfact> 0.36871357E+05</totfact>
</mgrwt>
</event>
<event>
 4    1  0.4635140E-002  0.7829057E+02  0.7818608E-02  0.1333974E+00
         -2   -1    0    0  501    0 -0.00000000000E+00  0.00000000000E+00  0.21115154852E+03  0.21115154854E+03  0.25500000000E-02 0.  1.
          2   -1    0    0    0  501  0.00000000000E+00 -0.00000000000E+00 -0.72571257245E+01  0.72571261726E+01  0.25500000000E-02 0.  1.
          2    1    1    2    0  502 -0.10027082273E+02  0.33375338507E+02  0.15168702678E+03  0.15563871530E+03  0.25500000000E-02 0.  1.
         -2    1    1    2  502    0  0.10027082273E+02 -0.33375338507E+02  0.52207396021E+02  0.62769959417E+02  0.25500000000E-02 0.  1.
<mgrwt>
<rscale>  0 0.78290571E+02</rscale>
<asrwt>0</asrwt>
<pdfrwt beam="2">  1        2 0.11164809E-02 0.78290571E+02</pdfrwt>
<pdfrwt beam="1">  1       -2 0.32484853E-01 0.78290571E+02</pdfrwt>
<totfact> 0.89724373E+04</totfact>
</mgrwt>
</event>
<event>
 4    1  0.4635140E-002  0.6277342E+02  0.7818608E-02  0.1386548E+00
          2   -1    0    0    0  501  0.00000000000E+00  0.00000000000E+00  0.15977840831E+04  0.15977840831E+04  0.25500000000E-02 0. -1.
         -2   -1    0    0  501    0 -0.00000000000E+00 -0.00000000000E+00 -0.61655478611E+00  0.61656005934E+00  0.25500000000E-02 0. -1.
          2    1    1    2    0  502  0.22237541409E+02 -0.21611286557E+01  0.23727186307E+03  0.23832145463E+03  0.25500000000E-02 0.  1.
         -2    1    1    2  502    0 -0.22237541409E+02  0.21611286557E+01  0.13598956652E+04  0.13600791885E+04  0.25500000000E-02 0.  1.
<mgrwt>
<rscale>  0 0.62773422E+02</rscale>
<asrwt>0</asrwt>
<pdfrwt beam="1">  1        2 0.24581111E+00 0.62773422E+02</pdfrwt>
<pdfrwt beam="2">  1       -2 0.94855692E-04 0.62773422E+02</pdfrwt>
<totfact> 0.60344472E+05</totfact>
</mgrwt>
</event>
<event>
 4    1  0.4635140E-002  0.5100992E+02  0.7818608E-02  0.1439969E+00
         -2   -1    0    0  501    0 -0.00000000000E+00  0.00000000000E+00  0.13591102594E+01  0.13591126516E+01  0.25500000000E-02 0.  1.
          2   -1    0    0    0  501  0.00000000000E+00 -0.00000000000E+00 -0.47862374019E+03  0.47862374020E+03  0.25500000000E-02 0.  1.
          2    1    1    2    0  502 -0.10000831008E+01 -0.24012972653E+02 -0.15830278923E+03  0.16011682019E+03  0.25500000000E-02 0. -1.
         -2    1    1    2  502    0  0.10000831008E+01  0.24012972653E+02 -0.31896184070E+03  0.31986603266E+03  0.25500000000E-02 0. -1.
<mgrwt>
<rscale>  0 0.51009921E+02</rscale>
<asrwt>0</asrwt>
<pdfrwt beam="2">  1        2 0.73634287E-01 0.51009921E+02</pdfrwt>
<pdfrwt beam="1">  1       -2 0.20909445E-03 0.51009921E+02</pdfrwt>
<totfact> 0.94287244E+05</totfact>
</mgrwt>
</event>
<event>
 4    1  0.4635140E-002  0.8049880E+02  0.7818608E-02  0.1327642E+00
          2   -1    0    0    0  501  0.00000000000E+00  0.00000000000E+00  0.21268698095E+03  0.21268698096E+03  0.25500000000E-02 0.  1.
         -2   -1    0    0  501    0 -0.00000000000E+00 -0.00000000000E+00 -0.76168942523E+01  0.76168946792E+01  0.25500000000E-02 0.  1.
          2    1    1    2    0  502 -0.33340383771E+02 -0.17534825749E+02  0.14133138282E+03  0.14626554988E+03  0.25500000000E-02 0.  1.
         -2    1    1    2  502    0  0.33340383771E+02  0.17534825749E+02  0.63738703870E+02  0.74038325761E+02  0.25500000000E-02 0.  1.
<mgrwt>
<rscale>  0 0.80498802E+02</rscale>
<asrwt>0</asrwt>
<pdfrwt beam="1">  1        2 0.32721068E-01 0.80498802E+02</pdfrwt>
<pdfrwt beam="2">  1       -2 0.11718301E-02 0.80498802E+02</pdfrwt>
<totfact> 0.22050841E+05</totfact>
</mgrwt>
</event>
<event>
 4    1  0.4635140E-002  0.5702131E+02  0.7818608E-02  0.1410775E+00
         -2   -1    0    0  501    0 -0.00000000000E+00  0.00000000000E+00  0.11792009958E+02  0.11792010234E+02  0.25500000000E-02 0. -1.
          2   -1    0    0    0  501  0.00000000000E+00 -0.00000000000E+00 -0.68932902507E+02  0.68932902554E+02  0.25500000000E-02 0. -1.
          2    1    1    2    0  502  0.12780933371E+02  0.19021120933E+02 -0.52583199642E+02  0.57359813376E+02  0.25500000000E-02 0. -1.
         -2    1    1    2  502    0 -0.12780933371E+02 -0.19021120933E+02 -0.45576929058E+01  0.23365099412E+02  0.25500000000E-02 0. -1.
<mgrwt>
<rscale>  0 0.57021311E+02</rscale>
<asrwt>0</asrwt>
<pdfrwt beam="2">  1        2 0.10605062E-01 0.57021311E+02</pdfrwt>
<pdfrwt beam="1">  1       -2 0.18141554E-02 0.57021311E+02</pdfrwt>
<totfact> 0.39039248E+05</totfact>
</mgrwt>
</event>
<event>
 4    1  0.4635140E-002  0.7490329E+02  0.7818608E-02  0.1344171E+00
          2   -1    0    0    0  501  0.00000000000E+00  0.00000000000E+00  0.25445273453E+03  0.25445273455E+03  0.25500000000E-02 0.  1.
         -2   -1    0    0  501    0 -0.00000000000E+00 -0.00000000000E+00 -0.55123227467E+01  0.55123233365E+01  0.25500000000E-02 0.  1.
          2    1    1    2    0  502  0.44292763637E+01  0.34412113898E+02  0.17340718208E+03  0.17684417682E+03  0.25500000000E-02 0.  1.
         -2    1    1    2  502    0 -0.44292763637E+01 -0.34412113898E+02  0.75533229710E+02  0.83120881065E+02  0.25500000000E-02 0.  1.
<mgrwt>
<rscale>  0 0.74903289E+02</rscale>
<asrwt>0</asrwt>
<pdfrwt beam="1">  1        2 0.39146577E-01 0.74903289E+02</pdfrwt>
<pdfrwt beam="2">  1       -2 0.84804965E-03 0.74903289E+02</pdfrwt>
<totfact> 0.28429778E+05</totfact>
</mgrwt>
</event>
<event>
 4    1  0.4635140E-002  0.9112194E+02  0.7818608E-02  0.1300157E+00
          2   -1    0    0    0  501  0.00000000000E+00  0.00000000000E+00  0.25256792680E+03  0.25256792681E+03  0.25500000000E-02 0. -1.
         -2   -1    0    0  501    0 -0.00000000000E+00 -0.00000000000E+00 -0.82187875183E+01  0.82187879139E+01  0.25500000000E-02 0. -1.
          2    1    1    2    0  502  0.33690362533E+02  0.30646796704E+02  0.11862817773E+03  0.12707049710E+03  0.25500000000E-02 0. -1.
         -2    1    1    2  502    0 -0.33690362533E+02 -0.30646796704E+02  0.12572096154E+03  0.13371621762E+03  0.25500000000E-02 0. -1.
<mgrwt>
<rscale>  0 0.91121944E+02</rscale>
<asrwt>0</asrwt>
<pdfrwt beam="1">  1        2 0.38856603E-01 0.91121944E+02</pdfrwt>
<pdfrwt beam="2">  1       -2 0.12644289E-02 0.91121944E+02</pdfrwt>
<totfact> 0.16876875E+05</totfact>
</mgrwt>
</event>
<event>
 4    1  0.4635140E-002  0.5368135E+02  0.7818608E-02  0.1426440E+00
          2   -1    0    0    0  501  0.00000000000E+00  0.00000000000E+00  0.49012865983E+03  0.49012865983E+03  0.25500000000E-02 0.  1.
         -2   -1    0    0  501    0 -0.00000000000E+00 -0.00000000000E+00 -0.14698617024E+01  0.14698639143E+01  0.25500000000E-02 0.  1.
          2    1    1    2    0  502 -0.24856510088E+02  0.99997803325E+01  0.22961940426E+03  0.23117723183E+03  0.25500000000E-02 0.  1.
         -2    1    1    2  502    0  0.24856510088E+02 -0.99997803325E+01  0.25903939387E+03  0.26042129191E+03  0.25500000000E-02 0.  1.
<mgrwt>
<rscale>  0 0.53681352E+02</rscale>
<asrwt>0</asrwt>
<pdfrwt beam="1">  1        2 0.75404441E-01 0.53681352E+02</pdfrwt>
<pdfrwt beam="2">  1       -2 0.22613265E-03 0.53681352E+02</pdfrwt>
<totfact> 0.83660264E+05</totfact>
</mgrwt>
</event>
<event>
 4    1  0.4635140E-002  0.5157898E+02  0.7818608E-02  0.1437006E+00
          2   -1    0    0    0  501  0.00000000000E+00  0.00000000000E+00  0.19871369293E+03  0.19871369295E+03  0.25500000000E-02 0. -1.
         -2   -1    0    0  501    0 -0.00000000000E+00 -0.00000000000E+00 -0.33470142939E+01  0.33470152653E+01  0.25500000000E-02 0. -1.
          2    1    1    2    0  502 -0.92864377893E+01  0.23800247435E+02  0.11148271184E+03  0.11437256992E+03  0.25500000000E-02 0. -1.
         -2    1    1    2  502    0  0.92864377893E+01 -0.23800247435E+02  0.83883966795E+02  0.87688138289E+02  0.25500000000E-02 0. -1.
<mgrwt>
<rscale>  0 0.51578975E+02</rscale>
<asrwt>0</asrwt>
<pdfrwt beam="1">  1        2 0.30571332E-01 0.51578975E+02</pdfrwt>
<pdfrwt beam="2">  1       -2 0.51492544E-03 0.51578975E+02</pdfrwt>
<totfact> 0.67951286E+05</totfact>
</mgrwt>
</event>
<event>
 4    1  0.4635140E-002  0.5944666E+02  0.7818608E-02  0.1400169E+00
         -2   -1    0    0  501    0 -0.00000000000E+00  0.00000000000E+00  0.49152553033E+00  0.49153214489E+00  0.25500000000E-02 0.  1.
          2   -1    0    0    0  501  0.00000000000E+00 -0.00000000000E+00 -0.17974048808E+04  0.17974048808E+04  0.25500000000E-02 0.  1.
          2    1    1    2    0  502  0.23669529013E+02 -0.17931744640E+02 -0.93768354569E+03  0.93815362598E+03  0.25500000000E-02 0.  1.
         -2    1    1    2  502    0 -0.23669529013E+02  0.17931744640E+02 -0.85922980955E+03  0.85974278694E+03  0.25500000000E-02 0.  1.
<mgrwt>
<rscale>  0 0.59446660E+02</rscale>
<asrwt>0</asrwt>
<pdfrwt beam="2">  1        2 0.27651857E+00 0.59446660E+02</pdfrwt>
<pdfrwt beam="1">  1       -2 0.75621260E-04 0.59446660E+02</pdfrwt>
<totfact> 0.64811685E+05</totfact>
</mgrwt>
</event>
<event>
 4    1  0.4635140E-002  0.5952455E+02  0.7818608E-02  0.1399838E+00
          2   -1    0    0    0  501  0.00000000000E+00  0.00000000000E+00  0.22683657106E+04  0.22683657106E+04  0.25500000000E-02 0. -1.
         -2   -1    0    0  501    0 -0.00000000000E+00 -0.00000000000E+00 -0.39049412988E+00  0.39050245578E+00  0.25500000000E-02 0. -1.
          2    1    1    2    0  502 -0.35362424681E+01  0.27720868117E+02  0.15242512768E+04  0.15245074307E+04  0.25500000000E-02 0.  1.
         -2    1    1    2  502    0  0.35362424681E+01 -0.27720868117E+02  0.74372393974E+03  0.74424878239E+03  0.25500000000E-02 0.  1.
<mgrwt>
<rscale>  0 0.59524548E+02</rscale>
<asrwt>0</asrwt>
<pdfrwt beam="1">  1        2 0.34898430E+00 0.59524548E+02</pdfrwt>
<pdfrwt beam="2">  1       -2 0.60075807E-04 0.59524548E+02</pdfrwt>
<totfact> 0.51823158E+05</totfact>
</mgrwt>
</event>
<event>
 4    1  0.4635140E-002  0.5746917E+02  0.7818608E-02  0.1408770E+00
          2   -1    0    0    0  501  0.00000000000E+00  0.00000000000E+00  0.59363306187E+03  0.59363306188E+03  0.25500000000E-02 0.  1.
         -2   -1    0    0  501    0 -0.00000000000E+00 -0.00000000000E+00 -0.13908856309E+01  0.13908879685E+01  0.25500000000E-02 0.  1.
          2    1    1    2    0  502  0.52796190728E+01  0.28188637625E+02  0.27759179530E+03  0.27906930769E+03  0.25500000000E-02 0.  1.
         -2    1    1    2  502    0 -0.52796190728E+01 -0.28188637625E+02  0.31465038094E+03  0.31595464216E+03  0.25500000000E-02 0.  1.
<mgrwt>
<rscale>  0 0.57469171E+02</rscale>
<asrwt>0</asrwt>
<pdfrwt beam="1">  1        2 0.91328064E-01 0.57469171E+02</pdfrwt>
<pdfrwt beam="2">  1       -2 0.21398282E-03 0.57469171E+02</pdfrwt>
<totfact> 0.74650717E+05</totfact>
</mgrwt>
</event>
<event>
 4    1  0.4635140E-002  0.6829725E+02  0.7818608E-02  0.1365981E+00
         -2   -1    0    0  501    0 -0.00000000000E+00  0.00000000000E+00  0.86761559254E+01  0.86761563002E+01  0.25500000000E-02 0.  1.
          2   -1    0    0    0  501  0.00000000000E+00 -0.00000000000E+00 -0.13440612817E+03  0.13440612820E+03  0.25500000000E-02 0.  1.
          2    1    1    2    0  502 -0.21301401063E+02 -0.26366261181E+02 -0.54176664021E+02  0.63906496907E+02  0.25500000000E-02 0.  1.
         -2    1    1    2  502    0  0.21301401063E+02  0.26366261181E+02 -0.71553308225E+02  0.79175787589E+02  0.25500000000E-02 0.  1.
<mgrwt>
<rscale>  0 0.68297249E+02</rscale>
<asrwt>0</asrwt>
<pdfrwt beam="2">  1        2 0.20677864E-01 0.68297249E+02</pdfrwt>
<pdfrwt beam="1">  1       -2 0.13347933E-02 0.68297249E+02</pdfrwt>
<totfact> 0.29155369E+05</totfact>
</mgrwt>
</event>
<event>
 4    1  0.4635140E-002  0.5847961E+02  0.7818608E-02  0.1404325E+00
          2   -1    0    0    0  501  0.00000000000E+00  0.00000000000E+00  0.93597068533E+03  0.93597068534E+03  0.25500000000E-02 0. -1.
         -2   -1    0    0  501    0 -0.00000000000E+00 -0.00000000000E+00 -0.91345233737E+00  0.91345589666E+00  0.25500000000E-02 0. -1.
          2    1    1    2    0  502  0.22627118024E+02 -0.12104798590E+02  0.24297944648E+03  0.24433076768E+03  0.25500000000E-02 0. -1.
         -2    1    1    2  502    0 -0.22627118024E+02  0.12104798590E+02  0.69207778652E+03  0.69255337355E+03  0.25500000000E-02 0. -1.
<mgrwt>
<rscale>  0 0.58479613E+02</rscale>
<asrwt>0</asrwt>
<pdfrwt beam="1">  1        2 0.14399632E+00 0.58479613E+02</pdfrwt>
<pdfrwt beam="2">  1       -2 0.14053059E-03 0.58479613E+02</pdfrwt>
<totfact> 0.78058006E+05</totfact>
</mgrwt>
</event>
<event>
 4    1  0.4635140E-002  0.4597589E+02  0.7818608E-02  0.1468340E+00
          2   -1    0    0    0  501  0.00000000000E+00  0.00000000000E+00  0.30819475692E+03  0.30819475693E+03  0.25500000000E-02 0. -1.
         -2   -1    0    0  501    0 -0.00000000000E+00 -0.00000000000E+00 -0.17146474141E+01  0.17146493102E+01  0.25500000000E-02 0. -1.
          2    1    1    2    0  502  0.41485660486E+01  0.20137884100E+02  0.83938425634E+02  0.86419929881E+02  0.25500000000E-02 0. -1.
         -2    1    1    2  502    0 -0.41485660486E+01 -0.20137884100E+02  0.22254168388E+03  0.22348947636E+03  0.25500000000E-02 0. -1.
<mgrwt>
<rscale>  0 0.45975891E+02</rscale>
<asrwt>0</asrwt>
<pdfrwt beam="1">  1        2 0.47414605E-01 0.45975891E+02</pdfrwt>
<pdfrwt beam="2">  1       -2 0.26379191E-03 0.45975891E+02</pdfrwt>
<totfact> 0.10510748E+06</totfact>
</mgrwt>
</event>
<event>
 4    1  0.4635140E-002  0.8863793E+02  0.7818608E-02  0.1306184E+00
         -2   -1    0    0  501    0 -0.00000000000E+00  0.00000000000E+00  0.13014932870E+01  0.13014957850E+01  0.25500000000E-02 0. -1.
          2   -1    0    0    0  501  0.00000000000E+00 -0.00000000000E+00 -0.15091653614E+04  0.15091653614E+04  0.25500000000E-02 0. -1.
          2    1    1    2    0  502  0.12142165742E+02  0.23615012294E+02 -0.14926466208E+03  0.15160818035E+03  0.25500000000E-02 0.  1.
         -2    1    1    2  502    0 -0.12142165742E+02 -0.23615012294E+02 -0.13585992060E+04  0.13588586768E+04  0.25500000000E-02 0.  1.
<mgrwt>
<rscale>  0 0.88637926E+02</rscale>
<asrwt>0</asrwt>
<pdfrwt beam="2">  1        2 0.23217789E+00 0.88637926E+02</pdfrwt>
<pdfrwt beam="1">  1       -2 0.20023114E-03 0.88637926E+02</pdfrwt>
<totfact> 0.25358316E+05</totfact>
</mgrwt>
</event>
<event>
 4    1  0.4635140E-002  0.5308305E+02  0.7818608E-02  0.1429388E+00
          2   -1    0    0    0  501  0.00000000000E+00  0.00000000000E+00  0.33915008648E+03  0.33915008649E+03  0.25500000000E-02 0.  1.
         -2   -1    0    0  501    0 -0.00000000000E+00 -0.00000000000E+00 -0.20771108486E+01  0.20771124138E+01  0.25500000000E-02 0.  1.
          2    1    1    2    0  502  0.24158182521E+02 -0.10954598021E+02  0.17439842600E+03  0.17640417228E+03  0.25500000000E-02 0.  1.
         -2    1    1    2  502    0 -0.24158182521E+02  0.10954598021E+02  0.16267454962E+03  0.16482302661E+03  0.25500000000E-02 0.  1.
<mgrwt>
<rscale>  0 0.53083052E+02</rscale>
<asrwt>0</asrwt>
<pdfrwt beam="1">  1        2 0.52176925E-01 0.53083052E+02</pdfrwt>
<pdfrwt beam="2">  1       -2 0.31955570E-03 0.53083052E+02</pdfrwt>
<totfact> 0.76039949E+05</totfact>
</mgrwt>
</event>
<event>
 4    1  0.4635140E-002  0.4729801E+02  0.7818608E-02  0.1460485E+00
         -2   -1    0    0  501    0 -0.00000000000E+00  0.00000000000E+00  0.72363600618E+00  0.72364049910E+00  0.25500000000E-02 0. -1.
          2   -1    0    0    0  501  0.00000000000E+00 -0.00000000000E+00 -0.77286620578E+03  0.77286620579E+03  0.25500000000E-02 0. -1.
          2    1    1    2    0  502  0.19201903500E+02  0.10755098695E+02 -0.24453081397E+03  0.24551925430E+03  0.25500000000E-02 0. -1.
         -2    1    1    2  502    0 -0.19201903500E+02 -0.10755098695E+02 -0.52761175581E+03  0.52807059199E+03  0.25500000000E-02 0. -1.
<mgrwt>
<rscale>  0 0.47298015E+02</rscale>
<asrwt>0</asrwt>
<pdfrwt beam="2">  1        2 0.11890183E+00 0.47298015E+02</pdfrwt>
<pdfrwt beam="1">  1       -2 0.11132958E-03 0.47298015E+02</pdfrwt>
<totfact> 0.12872301E+06</totfact>
</mgrwt>
</event>
<event>
 4    1  0.4635140E-002  0.7576371E+02  0.7818608E-02  0.1341522E+00
         -2   -1    0    0  501    0 -0.00000000000E+00  0.00000000000E+00  0.59808350930E+01  0.59808356367E+01  0.25500000000E-02 0. -1.
          2   -1    0    0    0  501  0.00000000000E+00 -0.00000000000E+00 -0.23993889785E+03  0.23993889786E+03  0.25500000000E-02 0. -1.
          2    1    1    2    0  502  0.27400805197E+02  0.26157488697E+02 -0.11739851689E+03  0.12335894825E+03  0.25500000000E-02 0. -1.
         -2    1    1    2  502    0 -0.27400805197E+02 -0.26157488697E+02 -0.11655954587E+03  0.12256078524E+03  0.25500000000E-02 0. -1.
<mgrwt>
<rscale>  0 0.75763713E+02</rscale>
<asrwt>0</asrwt>
<pdfrwt beam="2">  1        2 0.36913669E-01 0.75763713E+02</pdfrwt>
<pdfrwt beam="1">  1       -2 0.92012870E-03 0.75763713E+02</pdfrwt>
<totfact> 0.27015033E+05</totfact>
</mgrwt>
</event>
<event>
 4    1  0.4635140E-002  0.4549914E+02  0.7818608E-02  0.1471249E+00
         -2   -1    0    0  501    0 -0.00000000000E+00  0.00000000000E+00  0.45868292150E+00  0.45869000967E+00  0.25500000000E-02 0.  1.
          2   -1    0    0    0  501  0.00000000000E+00 -0.00000000000E+00 -0.11283152104E+04  0.11283152104E+04  0.25500000000E-02 0.  1.
          2    1    1    2    0  502 -0.20133309447E+01  0.22012736556E+02 -0.43049340777E+03  0.43106053892E+03  0.25500000000E-02 0.  1.
         -2    1    1    2  502    0  0.20133309447E+01 -0.22012736556E+02 -0.69736311967E+03  0.69771336145E+03  0.25500000000E-02 0.  1.
<mgrwt>
<rscale>  0 0.45499139E+02</rscale>
<asrwt>0</asrwt>
<pdfrwt beam="2">  1        2 0.17358473E+00 0.45499139E+02</pdfrwt>
<pdfrwt beam="1">  1       -2 0.70568052E-04 0.45499139E+02</pdfrwt>
<totfact> 0.14594464E+06</totfact>
</mgrwt>
</event>
<event>
 4    1  0.4635140E-002  0.4618288E+02  0.7818608E-02  0.1467089E+00
         -2   -1    0    0  501    0 -0.00000000000E+00  0.00000000000E+00  0.11386760923E+02  0.11386761208E+02  0.25500000000E-02 0.  1.
          2   -1    0    0    0  501  0.00000000000E+00 -0.00000000000E+00 -0.46827600737E+02  0.46827600806E+02  0.25500000000E-02 0.  1.
          2    1    1    2    0  502  0.22647228475E+02 -0.62078161378E-01 -0.23401692152E+02  0.32565933325E+02  0.25500000000E-02 0. -1.
         -2    1    1    2  502    0 -0.22647228475E+02  0.62078161378E-01 -0.12039147663E+02  0.25648428689E+02  0.25500000000E-02 0. -1.
<mgrwt>
<rscale>  0 0.46182884E+02</rscale>
<asrwt>0</asrwt>
<pdfrwt beam="2">  1        2 0.72042462E-02 0.46182884E+02</pdfrwt>
<pdfrwt beam="1">  1       -2 0.17518094E-02 0.46182884E+02</pdfrwt>
<totfact> 0.62105493E+05</totfact>
</mgrwt>
</event>
<event>
 4    1  0.4635140E-002  0.4115269E+02  0.7818608E-02  0.1499896E+00
         -2   -1    0    0  501    0 -0.00000000000E+00  0.00000000000E+00  0.82875122610E+00  0.82875514916E+00  0.25500000000E-02 0.  1.
          2   -1    0    0    0  501  0.00000000000E+00 -0.00000000000E+00 -0.51087093093E+03  0.51087093093E+03  0.25500000000E-02 0.  1.
          2    1    1    2    0  502  0.20362169547E+02 -0.25746107605E+01 -0.27320791359E+03  0.27397775571E+03  0.25500000000E-02 0. -1.
         -2    1    1    2  502    0 -0.20362169547E+02  0.25746107605E+01 -0.23683426611E+03  0.23772193037E+03  0.25500000000E-02 0. -1.
<mgrwt>
<rscale>  0 0.41152687E+02</rscale>
<asrwt>0</asrwt>
<pdfrwt beam="2">  1        2 0.78595277E-01 0.41152687E+02</pdfrwt>
<pdfrwt beam="1">  1       -2 0.12750090E-03 0.41152687E+02</pdfrwt>
<totfact> 0.16273533E+06</totfact>
</mgrwt>
</event>
<event>
 4    1  0.4635140E-002  0.5720655E+02  0.7818608E-02  0.1409943E+00
          2   -1    0    0    0  501  0.00000000000E+00  0.00000000000E+00  0.76395586468E+00  0.76396012048E+00  0.25500000000E-02 0. -1.
         -2   -1    0    0  501    0 -0.00000000000E+00 -0.00000000000E+00 -0.10709322529E+04  0.10709322529E+04  0.25500000000E-02 0. -1.
          2    1    1    2    0  502  0.19811680583E+02 -0.14679969919E+02 -0.26351309752E+03  0.26466423403E+03  0.25500000000E-02 0. -1.
         -2    1    1    2  502    0 -0.19811680583E+02  0.14679969919E+02 -0.80665519949E+03  0.80703197896E+03  0.25500000000E-02 0. -1.
<mgrwt>
<rscale>  0 0.57206547E+02</rscale>
<asrwt>0</asrwt>
<pdfrwt beam="1">  1        2 0.11753286E-03 0.57206547E+02</pdfrwt>
<pdfrwt beam="2">  1       -2 0.16475761E+00 0.57206547E+02</pdfrwt>
<totfact> 0.56415627E+04</totfact>
</mgrwt>
</event>
<event>
 4    1  0.4635140E-002  0.4511854E+02  0.7818608E-02  0.1473603E+00
         -2   -1    0    0  501    0 -0.00000000000E+00  0.00000000000E+00  0.46999790708E+00  0.47000482461E+00  0.25500000000E-02 0. -1.
          2   -1    0    0    0  501  0.00000000000E+00 -0.00000000000E+00 -0.10828067075E+04  0.10828067075E+04  0.25500000000E-02 0. -1.
          2    1    1    2    0  502  0.58096450314E+01  0.20724961704E+02 -0.37895778254E+03  0.37956854054E+03  0.25500000000E-02 0. -1.
         -2    1    1    2  502    0 -0.58096450314E+01 -0.20724961704E+02 -0.70337892705E+03  0.70370817179E+03  0.25500000000E-02 0. -1.
<mgrwt>
<rscale>  0 0.45118539E+02</rscale>
<asrwt>0</asrwt>
<pdfrwt beam="2">  1        2 0.16658365E+00 0.45118539E+02</pdfrwt>
<pdfrwt beam="1">  1       -2 0.72308769E-04 0.45118539E+02</pdfrwt>
<totfact> 0.14915159E+06</totfact>
</mgrwt>
</event>
<event>
 4    1  0.4635140E-002  0.4259095E+02  0.7818608E-02  0.1489967E+00
          2   -1    0    0    0  501  0.00000000000E+00  0.00000000000E+00  0.21022971535E+02  0.21022971690E+02  0.25500000000E-02 0. -1.
         -2   -1    0    0  501    0 -0.00000000000E+00 -0.00000000000E+00 -0.21571509150E+02  0.21571509301E+02  0.25500000000E-02 0. -1.
          2    1    1    2    0  502 -0.42931261138E+01 -0.20045104326E+02 -0.60419026858E+01  0.21371516882E+02  0.25500000000E-02 0.  1.
         -2    1    1    2  502    0  0.42931261138E+01  0.20045104326E+02  0.54933650708E+01  0.21222964109E+02  0.25500000000E-02 0.  1.
<mgrwt>
<rscale>  0 0.42590949E+02</rscale>
<asrwt>0</asrwt>
<pdfrwt beam="1">  1        2 0.32343033E-02 0.42590949E+02</pdfrwt>
<pdfrwt beam="2">  1       -2 0.33186938E-02 0.42590949E+02</pdfrwt>
<totfact> 0.67557066E+05</totfact>
</mgrwt>
</event>
<event>
 4    1  0.4635140E-002  0.5801555E+02  0.7818608E-02  0.1406353E+00
         -2   -1    0    0  501    0 -0.00000000000E+00  0.00000000000E+00  0.32428765253E+00  0.32429767820E+00  0.25500000000E-02 0. -1.
          2   -1    0    0    0  501  0.00000000000E+00 -0.00000000000E+00 -0.25947270868E+04  0.25947270868E+04  0.25500000000E-02 0. -1.
          2    1    1    2    0  502  0.17602384418E+02 -0.20059052564E+02 -0.78868795334E+03  0.78913933958E+03  0.25500000000E-02 0.  1.
         -2    1    1    2  502    0 -0.17602384418E+02  0.20059052564E+02 -0.18057148458E+04  0.18059120449E+04  0.25500000000E-02 0.  1.
<mgrwt>
<rscale>  0 0.58015548E+02</rscale>
<asrwt>0</asrwt>
<pdfrwt beam="2">  1        2 0.39917216E+00 0.58015548E+02</pdfrwt>
<pdfrwt beam="1">  1       -2 0.49893257E-04 0.58015548E+02</pdfrwt>
<totfact> 0.45230425E+05</totfact>
</mgrwt>
</event>
<event>
 4    1  0.4635140E-002  0.4153543E+02  0.7818608E-02  0.1497207E+00
         -2   -1    0    0  501    0 -0.00000000000E+00  0.00000000000E+00  0.27000309235E+00  0.27001513361E+00  0.25500000000E-02 0.  1.
          2   -1    0    0    0  501  0.00000000000E+00 -0.00000000000E+00 -0.15973458455E+04  0.15973458455E+04  0.25500000000E-02 0.  1.
          2    1    1    2    0  502  0.10872201522E+02  0.17344048776E+02 -0.93331071797E+03  0.93353517184E+03  0.25500000000E-02 0. -1.
         -2    1    1    2  502    0 -0.10872201522E+02 -0.17344048776E+02 -0.66376512440E+03  0.66408068875E+03  0.25500000000E-02 0. -1.
<mgrwt>
<rscale>  0 0.41535428E+02</rscale>
<asrwt>0</asrwt>
<pdfrwt beam="2">  1        2 0.24573795E+00 0.41535428E+02</pdfrwt>
<pdfrwt beam="1">  1       -2 0.41541143E-04 0.41535428E+02</pdfrwt>
<totfact> 0.16849063E+06</totfact>
</mgrwt>
</event>
<event>
 4    1  0.4635140E-002  0.6966803E+02  0.7818608E-02  0.1361226E+00
         -2   -1    0    0  501    0 -0.00000000000E+00  0.00000000000E+00  0.29574165239E+01  0.29574176232E+01  0.25500000000E-02 0.  1.
          2   -1    0    0    0  501  0.00000000000E+00 -0.00000000000E+00 -0.41029332729E+03  0.41029332730E+03  0.25500000000E-02 0.  1.
          2    1    1    2    0  502 -0.18461837058E+01 -0.22635227786E+02 -0.36034229094E+03  0.36105723726E+03  0.25500000000E-02 0.  1.
         -2    1    1    2  502    0  0.18461837058E+01  0.22635227786E+02 -0.46993619831E+02  0.52193507666E+02  0.25500000000E-02 0.  1.
<mgrwt>
<rscale>  0 0.69668027E+02</rscale>
<asrwt>0</asrwt>
<pdfrwt beam="2">  1        2 0.63122005E-01 0.69668027E+02</pdfrwt>
<pdfrwt beam="1">  1       -2 0.45498757E-03 0.69668027E+02</pdfrwt>
<totfact> 0.40715193E+05</totfact>
</mgrwt>
</event>
<event>
 4    1  0.4635140E-002  0.6754600E+02  0.7818608E-02  0.1368643E+00
         -2   -1    0    0  501    0 -0.00000000000E+00  0.00000000000E+00  0.57624448929E+01  0.57624454571E+01  0.25500000000E-02 0.  1.
          2   -1    0    0    0  501  0.00000000000E+00 -0.00000000000E+00 -0.19793951482E+03  0.19793951484E+03  0.25500000000E-02 0.  1.
          2    1    1    2    0  502 -0.11227679706E+02 -0.21675908491E+02 -0.16647321683E+03  0.16825349247E+03  0.25500000000E-02 0.  1.
         -2    1    1    2  502    0  0.11227679706E+02  0.21675908491E+02 -0.25703853101E+02  0.35448467827E+02  0.25500000000E-02 0.  1.
<mgrwt>
<rscale>  0 0.67546002E+02</rscale>
<asrwt>0</asrwt>
<pdfrwt beam="2">  1        2 0.30452228E-01 0.67546002E+02</pdfrwt>
<pdfrwt beam="1">  1       -2 0.88653018E-03 0.67546002E+02</pdfrwt>
<totfact> 0.34064264E+05</totfact>
</mgrwt>
</event>
<event>
 4    1  0.4635140E-002  0.7163609E+02  0.7818608E-02  0.1354616E+00
         -2   -1    0    0  501    0 -0.00000000000E+00  0.00000000000E+00  0.34862288153E+01  0.34862297479E+01  0.25500000000E-02 0.  1.
          2   -1    0    0    0  501  0.00000000000E+00 -0.00000000000E+00 -0.36800002826E+03  0.36800002827E+03  0.25500000000E-02 0.  1.
          2    1    1    2    0  502  0.16300208134E+02  0.13016132310E+02 -0.31262215550E+02  0.37582477475E+02  0.25500000000E-02 0.  1.
         -2    1    1    2  502    0 -0.16300208134E+02 -0.13016132310E+02 -0.33325158389E+03  0.33390378054E+03  0.25500000000E-02 0.  1.
<mgrwt>
<rscale>  0 0.71636094E+02</rscale>
<asrwt>0</asrwt>
<pdfrwt beam="2">  1        2 0.56615358E-01 0.71636094E+02</pdfrwt>
<pdfrwt beam="1">  1       -2 0.53634326E-03 0.71636094E+02</pdfrwt>
<totfact> 0.36470582E+05</totfact>
</mgrwt>
</event>
<event>
 4    1  0.4635140E-002  0.1198624E+03  0.7818608E-02  0.1243324E+00
         -2   -1    0    0  501    0 -0.00000000000E+00  0.00000000000E+00  0.36468898556E+01  0.36468907471E+01  0.25500000000E-02 0. -1.
          2   -1    0    0    0  501  0.00000000000E+00 -0.00000000000E+00 -0.98487991032E+03  0.98487991032E+03  0.25500000000E-02 0. -1.
          2    1    1    2    0  502 -0.11732007407E+02 -0.25165439916E+02 -0.52598112971E+02  0.59476893485E+02  0.25500000000E-02 0. -1.
         -2    1    1    2  502    0  0.11732007407E+02  0.25165439916E+02 -0.92863490749E+03  0.92904990758E+03  0.25500000000E-02 0. -1.
<mgrwt>
<rscale>  0 0.11986240E+03</rscale>
<asrwt>0</asrwt>
<pdfrwt beam="2">  1        2 0.15151977E+00 0.11986240E+03</pdfrwt>
<pdfrwt beam="1">  1       -2 0.56106083E-03 0.11986240E+03</pdfrwt>
<totfact> 0.12039566E+05</totfact>
</mgrwt>
</event>
<event>
 4    1  0.4635140E-002  0.4738937E+02  0.7818608E-02  0.1459954E+00
         -2   -1    0    0  501    0 -0.00000000000E+00  0.00000000000E+00  0.37735072869E+01  0.37735081485E+01  0.25500000000E-02 0. -1.
          2   -1    0    0    0  501  0.00000000000E+00 -0.00000000000E+00 -0.14878416684E+03  0.14878416686E+03  0.25500000000E-02 0. -1.
          2    1    1    2    0  502  0.13070177755E+02 -0.19761577915E+02 -0.73464048893E+02  0.77190128867E+02  0.25500000000E-02 0. -1.
         -2    1    1    2  502    0 -0.13070177755E+02  0.19761577915E+02 -0.71546610659E+02  0.75367546143E+02  0.25500000000E-02 0. -1.
<mgrwt>
<rscale>  0 0.47389375E+02</rscale>
<asrwt>0</asrwt>
<pdfrwt beam="2">  1        2 0.22889867E-01 0.47389375E+02</pdfrwt>
<pdfrwt beam="1">  1       -2 0.58053977E-03 0.47389375E+02</pdfrwt>
<totfact> 0.76626311E+05</totfact>
</mgrwt>
</event>
<event>
 4    1  0.4635140E-002  0.9459954E+02  0.7818608E-02  0.1292081E+00
         -2   -1    0    0  501    0 -0.00000000000E+00  0.00000000000E+00  0.92301356131E+02  0.92301356166E+02  0.25500000000E-02 0. -1.
          2   -1    0    0    0  501  0.00000000000E+00 -0.00000000000E+00 -0.24238735120E+02  0.24238735254E+02  0.25500000000E-02 0. -1.
          2    1    1    2    0  502  0.23443845042E+01  0.47197046099E+02  0.31503351523E+02  0.56793648085E+02  0.25500000000E-02 0.  1.
         -2    1    1    2  502    0 -0.23443845042E+01 -0.47197046099E+02  0.36559269488E+02  0.59746443335E+02  0.25500000000E-02 0.  1.
<mgrwt>
<rscale>  0 0.94599538E+02</rscale>
<asrwt>0</asrwt>
<pdfrwt beam="2">  1        2 0.37290362E-02 0.94599538E+02</pdfrwt>
<pdfrwt beam="1">  1       -2 0.14200209E-01 0.94599538E+02</pdfrwt>
<totfact> 0.74574984E+04</totfact>
</mgrwt>
</event>
<event>
 4    1  0.4635140E-002  0.4630183E+02  0.7818608E-02  0.1466374E+00
          2   -1    0    0    0  501  0.00000000000E+00  0.00000000000E+00  0.13675892189E+02  0.13675892427E+02  0.25500000000E-02 0.  1.
         -2   -1    0    0  501    0 -0.00000000000E+00 -0.00000000000E+00 -0.39190482104E+02  0.39190482187E+02  0.25500000000E-02 0.  1.
          2    1    1    2    0  502 -0.13801685113E+02 -0.18482276642E+02 -0.10507168492E+02  0.25347221900E+02  0.25500000000E-02 0.  1.
         -2    1    1    2  502    0  0.13801685113E+02  0.18482276642E+02 -0.15007421423E+02  0.27519152714E+02  0.25500000000E-02 0.  1.
<mgrwt>
<rscale>  0 0.46301828E+02</rscale>
<asrwt>0</asrwt>
<pdfrwt beam="1">  1        2 0.21039835E-02 0.46301828E+02</pdfrwt>
<pdfrwt beam="2">  1       -2 0.60293049E-02 0.46301828E+02</pdfrwt>
<totfact> 0.50976317E+05</totfact>
</mgrwt>
</event>
<event>
 4    1  0.4635140E-002  0.5586795E+02  0.7818608E-02  0.1416038E+00
          2   -1    0    0    0  501  0.00000000000E+00  0.00000000000E+00  0.66441553404E+02  0.66441553453E+02  0.25500000000E-02 0. -1.
         -2   -1    0    0  501    0 -0.00000000000E+00 -0.00000000000E+00 -0.11744260785E+02  0.11744261062E+02  0.25500000000E-02 0. -1.
          2    1    1    2    0  502 -0.65115531260E+01  0.25275712021E+02  0.13420879115E+02  0.29349309106E+02  0.25500000000E-02 0. -1.
         -2    1    1    2  502    0  0.65115531260E+01 -0.25275712021E+02  0.41276413504E+02  0.48836505409E+02  0.25500000000E-02 0. -1.
<mgrwt>
<rscale>  0 0.55867949E+02</rscale>
<asrwt>0</asrwt>
<pdfrwt beam="1">  1        2 0.10221777E-01 0.55867949E+02</pdfrwt>
<pdfrwt beam="2">  1       -2 0.18068094E-02 0.55867949E+02</pdfrwt>
<totfact> 0.40828311E+05</totfact>
</mgrwt>
</event>
<event>
 4    1  0.4635140E-002  0.6539420E+02  0.7818608E-02  0.1376495E+00
          2   -1    0    0    0  501  0.00000000000E+00  0.00000000000E+00  0.24397829441E+03  0.24397829442E+03  0.25500000000E-02 0.  1.
         -2   -1    0    0  501    0 -0.00000000000E+00 -0.00000000000E+00 -0.43819485199E+01  0.43819492618E+01  0.25500000000E-02 0.  1.
          2    1    1    2    0  502  0.84742713447E+01  0.28401758464E+02  0.67361475860E+02  0.73593760572E+02  0.25500000000E-02 0.  1.
         -2    1    1    2  502    0 -0.84742713447E+01 -0.28401758464E+02  0.17223487003E+03  0.17476648311E+03  0.25500000000E-02 0.  1.
<mgrwt>
<rscale>  0 0.65394202E+02</rscale>
<asrwt>0</asrwt>
<pdfrwt beam="1">  1        2 0.37535118E-01 0.65394202E+02</pdfrwt>
<pdfrwt beam="2">  1       -2 0.67414605E-03 0.65394202E+02</pdfrwt>
<totfact> 0.39845803E+05</totfact>
</mgrwt>
</event>
<event>
 4    1  0.4635140E-002  0.4951853E+02  0.7818608E-02  0.1447956E+00
         -2   -1    0    0  501    0 -0.00000000000E+00  0.00000000000E+00  0.38912295375E+00  0.38913130899E+00  0.25500000000E-02 0.  1.
          2   -1    0    0    0  501  0.00000000000E+00 -0.00000000000E+00 -0.15753752113E+04  0.15753752113E+04  0.25500000000E-02 0.  1.
          2    1    1    2    0  502  0.21169009672E+02 -0.12215097110E+02 -0.91352334953E+03  0.91385023155E+03  0.25500000000E-02 0. -1.
         -2    1    1    2  502    0 -0.21169009672E+02  0.12215097110E+02 -0.66146273880E+03  0.66191411104E+03  0.25500000000E-02 0. -1.
<mgrwt>
<rscale>  0 0.49518531E+02</rscale>
<asrwt>0</asrwt>
<pdfrwt beam="2">  1        2 0.24236031E+00 0.49518531E+02</pdfrwt>
<pdfrwt beam="1">  1       -2 0.59866974E-04 0.49518531E+02</pdfrwt>
<totfact> 0.11009215E+06</totfact>
</mgrwt>
</event>
<event>
 4    1  0.4635140E-002  0.4553148E+02  0.7818608E-02  0.1471051E+00
         -2   -1    0    0  501    0 -0.00000000000E+00  0.00000000000E+00  0.17960175226E+00  0.17961985390E+00  0.25500000000E-02 0.  1.
          2   -1    0    0    0  501  0.00000000000E+00 -0.00000000000E+00 -0.28855662994E+04  0.28855662994E+04  0.25500000000E-02 0.  1.
          2    1    1    2    0  502  0.11286273195E+02  0.19713594103E+02 -0.13471374038E+04  0.13473289096E+04  0.25500000000E-02 0. -1.
         -2    1    1    2  502    0 -0.11286273195E+02 -0.19713594103E+02 -0.15382492938E+04  0.15384170097E+04  0.25500000000E-02 0. -1.
<mgrwt>
<rscale>  0 0.45531479E+02</rscale>
<asrwt>0</asrwt>
<pdfrwt beam="2">  1        2 0.44389615E+00 0.45531479E+02</pdfrwt>
<pdfrwt beam="1">  1       -2 0.27634742E-04 0.45531479E+02</pdfrwt>
<totfact> 0.67584786E+05</totfact>
</mgrwt>
</event>
<event>
 4    1  0.4635140E-002  0.4192190E+02  0.7818608E-02  0.1494526E+00
          2   -1    0    0    0  501  0.00000000000E+00  0.00000000000E+00  0.22430742000E+01  0.22430756495E+01  0.25500000000E-02 0.  1.
         -2   -1    0    0  501    0 -0.00000000000E+00 -0.00000000000E+00 -0.19587460034E+03  0.19587460036E+03  0.25500000000E-02 0.  1.
          2    1    1    2    0  502  0.11714246553E+02 -0.17374945900E+02 -0.99174367326E+02  0.10136403434E+03  0.25500000000E-02 0. -1.
         -2    1    1    2  502    0 -0.11714246553E+02  0.17374945900E+02 -0.94457158815E+02  0.96753641664E+02  0.25500000000E-02 0. -1.
<mgrwt>
<rscale>  0 0.41921899E+02</rscale>
<asrwt>0</asrwt>
<pdfrwt beam="1">  1        2 0.34508861E-03 0.41921899E+02</pdfrwt>
<pdfrwt beam="2">  1       -2 0.30134541E-01 0.41921899E+02</pdfrwt>
<totfact> 0.43677683E+05</totfact>
</mgrwt>
</event>
<event>
 4    1  0.4635140E-002  0.4300967E+02  0.7818608E-02  0.1487164E+00
         -2   -1    0    0  501    0 -0.00000000000E+00  0.00000000000E+00  0.46274639110E+00  0.46275341703E+00  0.25500000000E-02 0.  1.
          2   -1    0    0    0  501  0.00000000000E+00 -0.00000000000E+00 -0.99936926631E+03  0.99936926631E+03  0.25500000000E-02 0.  1.
          2    1    1    2    0  502  0.17553106195E+02 -0.12132945478E+02 -0.43734448273E+03  0.43786472396E+03  0.25500000000E-02 0. -1.
         -2    1    1    2  502    0 -0.17553106195E+02  0.12132945478E+02 -0.56156203719E+03  0.56196729577E+03  0.25500000000E-02 0. -1.
<mgrwt>
<rscale>  0 0.43009675E+02</rscale>
<asrwt>0</asrwt>
<pdfrwt beam="2">  1        2 0.15374739E+00 0.43009675E+02</pdfrwt>
<pdfrwt beam="1">  1       -2 0.71193093E-04 0.43009675E+02</pdfrwt>
<totfact> 0.16733465E+06</totfact>
</mgrwt>
</event>
<event>
 4    1  0.4635140E-002  0.5170084E+02  0.7818608E-02  0.1436378E+00
         -2   -1    0    0  501    0 -0.00000000000E+00  0.00000000000E+00  0.91160311727E+02  0.91160311762E+02  0.25500000000E-02 0. -1.
          2   -1    0    0    0  501  0.00000000000E+00 -0.00000000000E+00 -0.73304291283E+01  0.73304295718E+01  0.25500000000E-02 0. -1.
          2    1    1    2    0  502  0.24201134086E+02 -0.80419820267E+01  0.49969304711E+02  0.56100800224E+02  0.25500000000E-02 0. -1.
         -2    1    1    2  502    0 -0.24201134086E+02  0.80419820267E+01  0.33860577888E+02  0.42389941110E+02  0.25500000000E-02 0. -1.
<mgrwt>
<rscale>  0 0.51700841E+02</rscale>
<asrwt>0</asrwt>
<pdfrwt beam="2">  1        2 0.11277583E-02 0.51700841E+02</pdfrwt>
<pdfrwt beam="1">  1       -2 0.14024664E-01 0.51700841E+02</pdfrwt>
<totfact> 0.33282194E+05</totfact>
</mgrwt>
</event>
<event>
 4    1  0.4635140E-002  0.5081305E+02  0.7818608E-02  0.1441005E+00
         -2   -1    0    0  501    0 -0.00000000000E+00  0.00000000000E+00  0.22149252574E+02  0.22149252721E+02  0.25500000000E-02 0. -1.
          2   -1    0    0    0  501  0.00000000000E+00 -0.00000000000E+00 -0.29142811368E+02  0.29142811480E+02  0.25500000000E-02 0. -1.
          2    1    1    2    0  502  0.24347119664E+02  0.20454313899E+00 -0.10822425334E+02  0.26644867620E+02  0.25500000000E-02 0.  1.
         -2    1    1    2  502    0 -0.24347119664E+02 -0.20454313899E+00  0.38288665405E+01  0.24647196582E+02  0.25500000000E-02 0.  1.
<mgrwt>
<rscale>  0 0.50813049E+02</rscale>
<asrwt>0</asrwt>
<pdfrwt beam="2">  1        2 0.44835094E-02 0.50813049E+02</pdfrwt>
<pdfrwt beam="1">  1       -2 0.34075774E-02 0.50813049E+02</pdfrwt>
<totfact> 0.44790412E+05</totfact>
</mgrwt>
</event>
<event>
 4    1  0.4635140E-002  0.6824105E+02  0.7818608E-02  0.1366179E+00
          2   -1    0    0    0  501  0.00000000000E+00  0.00000000000E+00  0.17939885802E+03  0.17939885804E+03  0.25500000000E-02 0. -1.
         -2   -1    0    0  501    0 -0.00000000000E+00 -0.00000000000E+00 -0.64895067334E+01  0.64895072344E+01  0.25500000000E-02 0. -1.
          2    1    1    2    0  502 -0.23842502126E+01 -0.20265464589E+02  0.16094670965E+03  0.16223506729E+03  0.25500000000E-02 0.  1.
         -2    1    1    2  502    0  0.23842502126E+01  0.20265464589E+02  0.11962641634E+02  0.23653297983E+02  0.25500000000E-02 0.  1.
<mgrwt>
<rscale>  0 0.68241048E+02</rscale>
<asrwt>0</asrwt>
<pdfrwt beam="1">  1        2 0.27599826E-01 0.68241048E+02</pdfrwt>
<pdfrwt beam="2">  1       -2 0.99838562E-03 0.68241048E+02</pdfrwt>
<totfact> 0.32076464E+05</totfact>
</mgrwt>
</event>
<event>
 4    1  0.4635140E-002  0.8026077E+02  0.7818608E-02  0.1328313E+00
         -2   -1    0    0  501    0 -0.00000000000E+00  0.00000000000E+00  0.45045777563E+01  0.45045784781E+01  0.25500000000E-02 0.  1.
          2   -1    0    0    0  501  0.00000000000E+00 -0.00000000000E+00 -0.35751358254E+03  0.35751358255E+03  0.25500000000E-02 0.  1.
          2    1    1    2    0  502  0.23252504557E+02  0.32632675653E+02 -0.16654311506E+03  0.17129559151E+03  0.25500000000E-02 0.  1.
         -2    1    1    2  502    0 -0.23252504557E+02 -0.32632675653E+02 -0.18646588972E+03  0.19072256952E+03  0.25500000000E-02 0.  1.
<mgrwt>
<rscale>  0 0.80260772E+02</rscale>
<asrwt>0</asrwt>
<pdfrwt beam="2">  1        2 0.55002068E-01 0.80260772E+02</pdfrwt>
<pdfrwt beam="1">  1       -2 0.69301230E-03 0.80260772E+02</pdfrwt>
<totfact> 0.26841982E+05</totfact>
</mgrwt>
</event>
<event>
 4    1  0.4635140E-002  0.6658828E+02  0.7818608E-02  0.1372095E+00
          2   -1    0    0    0  501  0.00000000000E+00  0.00000000000E+00  0.83169304526E+03  0.83169304527E+03  0.25500000000E-02 0.  1.
         -2   -1    0    0  501    0 -0.00000000000E+00 -0.00000000000E+00 -0.13328221333E+01  0.13328245727E+01  0.25500000000E-02 0.  1.
          2    1    1    2    0  502  0.29138833050E+02  0.11668720298E+02  0.55407558723E+03  0.55496395107E+03  0.25500000000E-02 0. -1.
         -2    1    1    2  502    0 -0.29138833050E+02 -0.11668720298E+02  0.27628463590E+03  0.27806191877E+03  0.25500000000E-02 0. -1.
<mgrwt>
<rscale>  0 0.66588285E+02</rscale>
<asrwt>0</asrwt>
<pdfrwt beam="1">  1        2 0.12795272E+00 0.66588285E+02</pdfrwt>
<pdfrwt beam="2">  1       -2 0.20504983E-03 0.66588285E+02</pdfrwt>
<totfact> 0.55405950E+05</totfact>
</mgrwt>
</event>
<event>
 4    1  0.4635140E-002  0.6577925E+02  0.7818608E-02  0.1375064E+00
         -2   -1    0    0  501    0 -0.00000000000E+00  0.00000000000E+00  0.46646965727E+03  0.46646965728E+03  0.25500000000E-02 0.  1.
          2   -1    0    0    0  501  0.00000000000E+00 -0.00000000000E+00 -0.23189653325E+01  0.23189667345E+01  0.25500000000E-02 0.  1.
          2    1    1    2    0  502 -0.22384206634E+02  0.51976586190E+01  0.64384510878E+02  0.68362516112E+02  0.25500000000E-02 0.  1.
         -2    1    1    2  502    0  0.22384206634E+02 -0.51976586190E+01  0.39976618106E+03  0.40042610790E+03  0.25500000000E-02 0.  1.
<mgrwt>
<rscale>  0 0.65779246E+02</rscale>
<asrwt>0</asrwt>
<pdfrwt beam="2">  1        2 0.35676438E-03 0.65779246E+02</pdfrwt>
<pdfrwt beam="1">  1       -2 0.71764487E-01 0.65779246E+02</pdfrwt>
<totfact> 0.88238651E+04</totfact>
</mgrwt>
</event>
<event>
 4    1  0.4635140E-002  0.1055140E+03  0.7818608E-02  0.1269110E+00
         -2   -1    0    0  501    0 -0.00000000000E+00  0.00000000000E+00  0.20574465345E+03  0.20574465347E+03  0.25500000000E-02 0.  1.
          2   -1    0    0    0  501  0.00000000000E+00 -0.00000000000E+00 -0.13527933430E+02  0.13527933670E+02  0.25500000000E-02 0.  1.
          2    1    1    2    0  502 -0.36387266817E+02  0.37080059344E+02  0.77023856792E+02  0.92906611762E+02  0.25500000000E-02 0. -1.
         -2    1    1    2  502    0  0.36387266817E+02 -0.37080059344E+02  0.11519286323E+03  0.12636597538E+03  0.25500000000E-02 0. -1.
<mgrwt>
<rscale>  0 0.10551398E+03</rscale>
<asrwt>0</asrwt>
<pdfrwt beam="2">  1        2 0.20812206E-02 0.10551398E+03</pdfrwt>
<pdfrwt beam="1">  1       -2 0.31653023E-01 0.10551398E+03</pdfrwt>
<totfact> 0.42348056E+04</totfact>
</mgrwt>
</event>
<event>
 4    1  0.4635140E-002  0.7355913E+02  0.7818608E-02  0.1348392E+00
          2   -1    0    0    0  501  0.00000000000E+00  0.00000000000E+00  0.68267473999E+01  0.68267478762E+01  0.25500000000E-02 0. -1.
         -2   -1    0    0  501    0 -0.00000000000E+00 -0.00000000000E+00 -0.19815237658E+03  0.19815237659E+03  0.25500000000E-02 0. -1.
          2    1    1    2    0  502  0.29621682880E+02 -0.10834301774E+02 -0.14838094884E+03  0.15169618379E+03  0.25500000000E-02 0. -1.
         -2    1    1    2  502    0 -0.29621682880E+02  0.10834301774E+02 -0.42944680333E+02  0.53282940675E+02  0.25500000000E-02 0. -1.
<mgrwt>
<rscale>  0 0.73559126E+02</rscale>
<asrwt>0</asrwt>
<pdfrwt beam="1">  1        2 0.10502690E-02 0.73559126E+02</pdfrwt>
<pdfrwt beam="2">  1       -2 0.30484977E-01 0.73559126E+02</pdfrwt>
<totfact> 0.10799134E+05</totfact>
</mgrwt>
</event>
<event>
 4    1  0.4635140E-002  0.7614729E+02  0.7818608E-02  0.1340355E+00
         -2   -1    0    0  501    0 -0.00000000000E+00  0.00000000000E+00  0.62685498756E+01  0.62685503943E+01  0.25500000000E-02 0.  1.
          2   -1    0    0    0  501  0.00000000000E+00 -0.00000000000E+00 -0.23125004204E+03  0.23125004206E+03  0.25500000000E-02 0.  1.
          2    1    1    2    0  502  0.17514380804E+02 -0.23426716046E+02 -0.18851466218E+03  0.19077039189E+03  0.25500000000E-02 0. -1.
         -2    1    1    2  502    0 -0.17514380804E+02  0.23426716046E+02 -0.36466829988E+02  0.46748200559E+02  0.25500000000E-02 0. -1.
<mgrwt>
<rscale>  0 0.76147291E+02</rscale>
<asrwt>0</asrwt>
<pdfrwt beam="2">  1        2 0.35576923E-01 0.76147291E+02</pdfrwt>
<pdfrwt beam="1">  1       -2 0.96439251E-03 0.76147291E+02</pdfrwt>
<totfact> 0.26308865E+05</totfact>
</mgrwt>
</event>
<event>
 4    1  0.4635140E-002  0.9000841E+02  0.7818608E-02  0.1302831E+00
         -2   -1    0    0  501    0 -0.00000000000E+00  0.00000000000E+00  0.10522136522E+01  0.10522167422E+01  0.25500000000E-02 0.  1.
          2   -1    0    0    0  501  0.00000000000E+00 -0.00000000000E+00 -0.19248707750E+04  0.19248707750E+04  0.25500000000E-02 0.  1.
          2    1    1    2    0  502 -0.27998332817E+02 -0.31462867629E+02 -0.13012815044E+04  0.13019628921E+04  0.25500000000E-02 0.  1.
         -2    1    1    2  502    0  0.27998332817E+02  0.31462867629E+02 -0.62253705693E+03  0.62396009964E+03  0.25500000000E-02 0.  1.
<mgrwt>
<rscale>  0 0.90008406E+02</rscale>
<asrwt>0</asrwt>
<pdfrwt beam="2">  1        2 0.29613115E+00 0.90008406E+02</pdfrwt>
<pdfrwt beam="1">  1       -2 0.16188080E-03 0.90008406E+02</pdfrwt>
<totfact> 0.21065681E+05</totfact>
</mgrwt>
</event>
<event>
 4    1  0.4635140E-002  0.4179281E+02  0.7818608E-02  0.1495418E+00
         -2   -1    0    0  501    0 -0.00000000000E+00  0.00000000000E+00  0.68772715054E+01  0.68772719782E+01  0.25500000000E-02 0. -1.
          2   -1    0    0    0  501  0.00000000000E+00 -0.00000000000E+00 -0.63493161911E+02  0.63493161963E+02  0.25500000000E-02 0. -1.
          2    1    1    2    0  502  0.20667412214E+02  0.18229411570E+01 -0.24117132933E+02  0.31813537205E+02  0.25500000000E-02 0. -1.
         -2    1    1    2  502    0 -0.20667412214E+02 -0.18229411570E+01 -0.32498757473E+02  0.38556896735E+02  0.25500000000E-02 0. -1.
<mgrwt>
<rscale>  0 0.41792810E+02</rscale>
<asrwt>0</asrwt>
<pdfrwt beam="2">  1        2 0.97681784E-02 0.41792810E+02</pdfrwt>
<pdfrwt beam="1">  1       -2 0.10580419E-02 0.41792810E+02</pdfrwt>
<totfact> 0.84624963E+05</totfact>
</mgrwt>
</event>
<event>
 4    1  0.4635140E-002  0.5087520E+02  0.7818608E-02  0.1440677E+00
          2   -1    0    0    0  501  0.00000000000E+00  0.00000000000E+00  0.34311606080E+02  0.34311606175E+02  0.25500000000E-02 0.  1.
         -2   -1    0    0  501    0 -0.00000000000E+00 -0.00000000000E+00 -0.18858675132E+02  0.18858675305E+02  0.25500000000E-02 0.  1.
          2    1    1    2    0  502  0.21556104667E+02  0.67811066653E+01 -0.44804420412E+01  0.23037435261E+02  0.25500000000E-02 0.  1.
         -2    1    1    2  502    0 -0.21556104667E+02 -0.67811066653E+01  0.19933372989E+02  0.30132846219E+02  0.25500000000E-02 0.  1.
<mgrwt>
<rscale>  0 0.50875198E+02</rscale>
<asrwt>0</asrwt>
<pdfrwt beam="1">  1        2 0.52787086E-02 0.50875198E+02</pdfrwt>
<pdfrwt beam="2">  1       -2 0.29013347E-02 0.50875198E+02</pdfrwt>
<totfact> 0.45866504E+05</totfact>
</mgrwt>
</event>
<event>
 4    1  0.4635140E-002  0.4960142E+02  0.7818608E-02  0.1447503E+00
         -2   -1    0    0  501    0 -0.00000000000E+00  0.00000000000E+00  0.51498605999E+02  0.51498606062E+02  0.25500000000E-02 0.  1.
          2   -1    0    0    0  501  0.00000000000E+00 -0.00000000000E+00 -0.11943533196E+02  0.11943533468E+02  0.25500000000E-02 0.  1.
          2    1    1    2    0  502 -0.14593239895E+02 -0.20041738976E+02  0.18927805428E+02  0.31191277252E+02  0.25500000000E-02 0. -1.
         -2    1    1    2  502    0  0.14593239895E+02  0.20041738976E+02  0.20627267375E+02  0.32250862278E+02  0.25500000000E-02 0. -1.
<mgrwt>
<rscale>  0 0.49601424E+02</rscale>
<asrwt>0</asrwt>
<pdfrwt beam="2">  1        2 0.18374667E-02 0.49601424E+02</pdfrwt>
<pdfrwt beam="1">  1       -2 0.79228624E-02 0.49601424E+02</pdfrwt>
<totfact> 0.41345411E+05</totfact>
</mgrwt>
</event>
<event>
 4    1  0.4635140E-002  0.5459343E+02  0.7818608E-02  0.1422031E+00
         -2   -1    0    0  501    0 -0.00000000000E+00  0.00000000000E+00  0.71939350016E+00  0.71939801958E+00  0.25500000000E-02 0.  1.
          2   -1    0    0    0  501  0.00000000000E+00 -0.00000000000E+00 -0.10357449612E+04  0.10357449612E+04  0.25500000000E-02 0.  1.
          2    1    1    2    0  502 -0.13877020754E+02  0.20591812225E+02 -0.73273781736E+03  0.73315844361E+03  0.25500000000E-02 0.  1.
         -2    1    1    2  502    0  0.13877020754E+02 -0.20591812225E+02 -0.30228775037E+03  0.30330591564E+03  0.25500000000E-02 0.  1.
<mgrwt>
<rscale>  0 0.54593426E+02</rscale>
<asrwt>0</asrwt>
<pdfrwt beam="2">  1        2 0.15934419E+00 0.54593426E+02</pdfrwt>
<pdfrwt beam="1">  1       -2 0.11067710E-03 0.54593426E+02</pdfrwt>
<totfact> 0.93204960E+05</totfact>
</mgrwt>
</event>
<event>
 4    1  0.4635140E-002  0.7880267E+02  0.7818608E-02  0.1332484E+00
         -2   -1    0    0  501    0 -0.00000000000E+00  0.00000000000E+00  0.34383298340E+01  0.34383307796E+01  0.25500000000E-02 0. -1.
          2   -1    0    0    0  501  0.00000000000E+00 -0.00000000000E+00 -0.45151718520E+03  0.45151718521E+03  0.25500000000E-02 0. -1.
          2    1    1    2    0  502 -0.22869375111E+02 -0.31778478974E+02 -0.19848937944E+03  0.20231389918E+03  0.25500000000E-02 0. -1.
         -2    1    1    2  502    0  0.22869375111E+02  0.31778478974E+02 -0.24958947593E+03  0.25264161681E+03  0.25500000000E-02 0. -1.
<mgrwt>
<rscale>  0 0.78802671E+02</rscale>
<asrwt>0</asrwt>
<pdfrwt beam="2">  1        2 0.69464135E-01 0.78802671E+02</pdfrwt>
<pdfrwt beam="1">  1       -2 0.52897425E-03 0.78802671E+02</pdfrwt>
<totfact> 0.30563530E+05</totfact>
</mgrwt>
</event>
<event>
 4    1  0.4635140E-002  0.8902605E+02  0.7818608E-02  0.1305228E+00
          2   -1    0    0    0  501  0.00000000000E+00  0.00000000000E+00  0.97165526355E+03  0.97165526355E+03  0.25500000000E-02 0. -1.
         -2   -1    0    0  501    0 -0.00000000000E+00 -0.00000000000E+00 -0.20392093719E+01  0.20392109662E+01  0.25500000000E-02 0. -1.
          2    1    1    2    0  502 -0.29627439013E+02 -0.10853018829E+02  0.14140194947E+03  0.14487955163E+03  0.25500000000E-02 0.  1.
         -2    1    1    2  502    0  0.29627439013E+02  0.10853018829E+02  0.82821410470E+03  0.82881492289E+03  0.25500000000E-02 0.  1.
<mgrwt>
<rscale>  0 0.89026048E+02</rscale>
<asrwt>0</asrwt>
<pdfrwt beam="1">  1        2 0.14948556E+00 0.89026048E+02</pdfrwt>
<pdfrwt beam="2">  1       -2 0.31372436E-03 0.89026048E+02</pdfrwt>
<totfact> 0.26580392E+05</totfact>
</mgrwt>
</event>
<event>
 4    1  0.4635140E-002  0.5366456E+02  0.7818608E-02  0.1426522E+00
          2   -1    0    0    0  501  0.00000000000E+00  0.00000000000E+00  0.14574273627E+03  0.14574273629E+03  0.25500000000E-02 0. -1.
         -2   -1    0    0  501    0 -0.00000000000E+00 -0.00000000000E+00 -0.49400140374E+01  0.49400146955E+01  0.25500000000E-02 0. -1.
          2    1    1    2    0  502 -0.22060595129E+02 -0.37205576596E+01  0.28805273969E+02  0.36472677742E+02  0.25500000000E-02 0. -1.
         -2    1    1    2  502    0  0.22060595129E+02  0.37205576596E+01  0.11199744826E+03  0.11421007324E+03  0.25500000000E-02 0. -1.
<mgrwt>
<rscale>  0 0.53664559E+02</rscale>
<asrwt>0</asrwt>
<pdfrwt beam="1">  1        2 0.22421960E-01 0.53664559E+02</pdfrwt>
<pdfrwt beam="2">  1       -2 0.76000218E-03 0.53664559E+02</pdfrwt>
<totfact> 0.55675403E+05</totfact>
</mgrwt>
</event>
<event>
 4    1  0.4635140E-002  0.9812791E+02  0.7818608E-02  0.1284283E+00
          2   -1    0    0    0  501  0.00000000000E+00  0.00000000000E+00  0.12934823110E+03  0.12934823113E+03  0.25500000000E-02 0.  1.
         -2   -1    0    0  501    0 -0.00000000000E+00 -0.00000000000E+00 -0.18610781964E+02  0.18610782139E+02  0.25500000000E-02 0.  1.
          2    1    1    2    0  502  0.17956376270E+02  0.44961167723E+02  0.43369139090E+02  0.64998617552E+02  0.25500000000E-02 0. -1.
         -2    1    1    2  502    0 -0.17956376270E+02 -0.44961167723E+02  0.67368310047E+02  0.82960395713E+02  0.25500000000E-02 0. -1.
<mgrwt>
<rscale>  0 0.98127911E+02</rscale>
<asrwt>0</asrwt>
<pdfrwt beam="1">  1        2 0.19899729E-01 0.98127911E+02</pdfrwt>
<pdfrwt beam="2">  1       -2 0.28631971E-02 0.98127911E+02</pdfrwt>
<totfact> 0.10877819E+05</totfact>
</mgrwt>
</event>
<event>
 4    1  0.4635140E-002  0.4503130E+02  0.7818608E-02  0.1474146E+00
         -2   -1    0    0  501    0 -0.00000000000E+00  0.00000000000E+00  0.83853508354E+01  0.83853512231E+01  0.25500000000E-02 0. -1.
          2   -1    0    0    0  501  0.00000000000E+00 -0.00000000000E+00 -0.60457150188E+02  0.60457150242E+02  0.25500000000E-02 0. -1.
          2    1    1    2    0  502  0.54378596017E+01 -0.21472366074E+02 -0.32212131272E+02  0.39092892314E+02  0.25500000000E-02 0. -1.
         -2    1    1    2  502    0 -0.54378596017E+01  0.21472366074E+02 -0.19859668081E+02  0.29749609152E+02  0.25500000000E-02 0. -1.
<mgrwt>
<rscale>  0 0.45031297E+02</rscale>
<asrwt>0</asrwt>
<pdfrwt beam="2">  1        2 0.93010998E-02 0.45031297E+02</pdfrwt>
<pdfrwt beam="1">  1       -2 0.12900540E-02 0.45031297E+02</pdfrwt>
<totfact> 0.69493523E+05</totfact>
</mgrwt>
</event>
<event>
 4    1  0.4635140E-002  0.6158205E+02  0.7818608E-02  0.1391310E+00
         -2   -1    0    0  501    0 -0.00000000000E+00  0.00000000000E+00  0.35295146802E+00  0.35296067951E+00  0.25500000000E-02 0.  1.
          2   -1    0    0    0  501  0.00000000000E+00 -0.00000000000E+00 -0.26861336149E+04  0.26861336149E+04  0.25500000000E-02 0.  1.
          2    1    1    2    0  502 -0.31744660363E+01 -0.30293753965E+02 -0.15394351154E+04  0.15397364266E+04  0.25500000000E-02 0.  1.
         -2    1    1    2  502    0  0.31744660363E+01  0.30293753965E+02 -0.11463455480E+04  0.11467501489E+04  0.25500000000E-02 0.  1.
<mgrwt>
<rscale>  0 0.61582049E+02</rscale>
<asrwt>0</asrwt>
<pdfrwt beam="2">  1        2 0.41323496E+00 0.61582049E+02</pdfrwt>
<pdfrwt beam="1">  1       -2 0.54303086E-04 0.61582049E+02</pdfrwt>
<totfact> 0.36423107E+05</totfact>
</mgrwt>
</event>
<event>
 4    1  0.4635140E-002  0.5013819E+02  0.7818608E-02  0.1444598E+00
         -2   -1    0    0  501    0 -0.00000000000E+00  0.00000000000E+00  0.23268339612E+01  0.23268353585E+01  0.25500000000E-02 0. -1.
          2   -1    0    0    0  501  0.00000000000E+00 -0.00000000000E+00 -0.27009206290E+03  0.27009206291E+03  0.25500000000E-02 0. -1.
          2    1    1    2    0  502 -0.19106646447E+02  0.15029989317E+02 -0.16715282482E+03  0.16891131214E+03  0.25500000000E-02 0.  1.
         -2    1    1    2  502    0  0.19106646447E+02 -0.15029989317E+02 -0.10061240412E+03  0.10350758613E+03  0.25500000000E-02 0.  1.
<mgrwt>
<rscale>  0 0.50138192E+02</rscale>
<asrwt>0</asrwt>
<pdfrwt beam="2">  1        2 0.41552600E-01 0.50138192E+02</pdfrwt>
<pdfrwt beam="1">  1       -2 0.35797478E-03 0.50138192E+02</pdfrwt>
<totfact> 0.80992821E+05</totfact>
</mgrwt>
</event>
<event>
 4    1  0.4635140E-002  0.6731916E+02  0.7818608E-02  0.1369454E+00
          2   -1    0    0    0  501  0.00000000000E+00  0.00000000000E+00  0.41432556819E+02  0.41432556898E+02  0.25500000000E-02 0. -1.
         -2   -1    0    0  501    0 -0.00000000000E+00 -0.00000000000E+00 -0.27344856379E+02  0.27344856497E+02  0.25500000000E-02 0. -1.
          2    1    1    2    0  502  0.54362058428E+01 -0.23618144472E+02 -0.16820171130E+02  0.29500631274E+02  0.25500000000E-02 0. -1.
         -2    1    1    2  502    0 -0.54362058428E+01  0.23618144472E+02  0.30907871571E+02  0.39276782121E+02  0.25500000000E-02 0. -1.
<mgrwt>
<rscale>  0 0.67319160E+02</rscale>
<asrwt>0</asrwt>
<pdfrwt beam="1">  1        2 0.63742395E-02 0.67319160E+02</pdfrwt>
<pdfrwt beam="2">  1       -2 0.42069010E-02 0.67319160E+02</pdfrwt>
<totfact> 0.22516057E+05</totfact>
</mgrwt>
</event>
<event>
 4    1  0.4635140E-002  0.4903498E+02  0.7818608E-02  0.1450617E+00
          2   -1    0    0    0  501  0.00000000000E+00  0.00000000000E+00  0.69687459224E+03  0.69687459225E+03  0.25500000000E-02 0.  1.
         -2   -1    0    0  501    0 -0.00000000000E+00 -0.00000000000E+00 -0.86257416955E+00  0.86257793878E+00  0.25500000000E-02 0.  1.
          2    1    1    2    0  502  0.24056166919E+02 -0.74692718834E+00  0.28149183382E+03  0.28251886588E+03  0.25500000000E-02 0.  1.
         -2    1    1    2  502    0 -0.24056166919E+02  0.74692718834E+00  0.41452018425E+03  0.41521830430E+03  0.25500000000E-02 0.  1.
<mgrwt>
<rscale>  0 0.49034981E+02</rscale>
<asrwt>0</asrwt>
<pdfrwt beam="1">  1        2 0.10721184E+00 0.49034981E+02</pdfrwt>
<pdfrwt beam="2">  1       -2 0.13270356E-03 0.49034981E+02</pdfrwt>
<totfact> 0.11533881E+06</totfact>
</mgrwt>
</event>
<event>
 4    1  0.4635140E-002  0.5603758E+02  0.7818608E-02  0.1415255E+00
         -2   -1    0    0  501    0 -0.00000000000E+00  0.00000000000E+00  0.55795307665E+03  0.55795307665E+03  0.25500000000E-02 0.  1.
          2   -1    0    0    0  501  0.00000000000E+00 -0.00000000000E+00 -0.14070216234E+01  0.14070239341E+01  0.25500000000E-02 0.  1.
          2    1    1    2    0  502 -0.73046185984E+00  0.26181237806E+02  0.17892359134E+03  0.18083042424E+03  0.25500000000E-02 0. -1.
         -2    1    1    2  502    0  0.73046185984E+00 -0.26181237806E+02  0.37762246368E+03  0.37852967634E+03  0.25500000000E-02 0. -1.
<mgrwt>
<rscale>  0 0.56037584E+02</rscale>
<asrwt>0</asrwt>
<pdfrwt beam="2">  1        2 0.21646490E-03 0.56037584E+02</pdfrwt>
<pdfrwt beam="1">  1       -2 0.85838993E-01 0.56037584E+02</pdfrwt>
<totfact> 0.11456586E+05</totfact>
</mgrwt>
</event>
<event>
 4    1  0.4635140E-002  0.6905399E+02  0.7818608E-02  0.1363340E+00
         -2   -1    0    0  501    0 -0.00000000000E+00  0.00000000000E+00  0.10897582909E+01  0.10897612744E+01  0.25500000000E-02 0. -1.
          2   -1    0    0    0  501  0.00000000000E+00 -0.00000000000E+00 -0.10939230363E+04  0.10939230363E+04  0.25500000000E-02 0. -1.
          2    1    1    2    0  502  0.17086708085E+02 -0.29747686007E+02 -0.48452643988E+03  0.48573938626E+03  0.25500000000E-02 0. -1.
         -2    1    1    2  502    0 -0.17086708085E+02  0.29747686007E+02 -0.60830683816E+03  0.60927341135E+03  0.25500000000E-02 0. -1.
<mgrwt>
<rscale>  0 0.69053989E+02</rscale>
<asrwt>0</asrwt>
<pdfrwt beam="2">  1        2 0.16829497E+00 0.69053989E+02</pdfrwt>
<pdfrwt beam="1">  1       -2 0.16765623E-03 0.69053989E+02</pdfrwt>
<totfact> 0.51480180E+05</totfact>
</mgrwt>
</event>
<event>
 4    1  0.4635140E-002  0.5299906E+02  0.7818608E-02  0.1429806E+00
          2   -1    0    0    0  501  0.00000000000E+00  0.00000000000E+00  0.11014335801E+03  0.11014335804E+03  0.25500000000E-02 0.  1.
         -2   -1    0    0  501    0 -0.00000000000E+00 -0.00000000000E+00 -0.63755562956E+01  0.63755568056E+01  0.25500000000E-02 0.  1.
          2    1    1    2    0  502  0.23636775925E+02 -0.67676159220E+01  0.30150063820E+02  0.38904037788E+02  0.25500000000E-02 0.  1.
         -2    1    1    2  502    0 -0.23636775925E+02  0.67676159220E+01  0.73617737895E+02  0.77614877058E+02  0.25500000000E-02 0.  1.
<mgrwt>
<rscale>  0 0.52999065E+02</rscale>
<asrwt>0</asrwt>
<pdfrwt beam="1">  1        2 0.16945131E-01 0.52999065E+02</pdfrwt>
<pdfrwt beam="2">  1       -2 0.98085489E-03 0.52999065E+02</pdfrwt>
<totfact> 0.52989257E+05</totfact>
</mgrwt>
</event>
<event>
 4    1  0.4635140E-002  0.8556089E+02  0.7818608E-02  0.1313972E+00
         -2   -1    0    0  501    0 -0.00000000000E+00  0.00000000000E+00  0.16337848248E+01  0.16337868149E+01  0.25500000000E-02 0. -1.
          2   -1    0    0    0  501  0.00000000000E+00 -0.00000000000E+00 -0.11201998300E+04  0.11201998300E+04  0.25500000000E-02 0. -1.
          2    1    1    2    0  502 -0.32843329945E+02  0.10808383722E+02 -0.22897122438E+03  0.23156711140E+03  0.25500000000E-02 0. -1.
         -2    1    1    2  502    0  0.32843329945E+02 -0.10808383722E+02 -0.88959482083E+03  0.89026650545E+03  0.25500000000E-02 0. -1.
<mgrwt>
<rscale>  0 0.85560893E+02</rscale>
<asrwt>0</asrwt>
<pdfrwt beam="2">  1        2 0.17233782E+00 0.85560893E+02</pdfrwt>
<pdfrwt beam="1">  1       -2 0.25135256E-03 0.85560893E+02</pdfrwt>
<totfact> 0.29541089E+05</totfact>
</mgrwt>
</event>
<event>
 4    1  0.4635140E-002  0.2443212E+03  0.7818608E-02  0.1116947E+00
          2   -1    0    0    0  501  0.00000000000E+00  0.00000000000E+00  0.83844195154E+03  0.83844195154E+03  0.25500000000E-02 0.  1.
         -2   -1    0    0  501    0 -0.00000000000E+00 -0.00000000000E+00 -0.17798741129E+02  0.17798741311E+02  0.25500000000E-02 0.  1.
          2    1    1    2    0  502 -0.35635107231E+02 -0.93895781435E+02  0.65405764205E+03  0.66172326373E+03  0.25500000000E-02 0.  1.
         -2    1    1    2  502    0  0.35635107231E+02  0.93895781435E+02  0.16658556836E+03  0.19451742912E+03  0.25500000000E-02 0.  1.
<mgrwt>
<rscale>  0 0.24432119E+03</rscale>
<asrwt>0</asrwt>
<pdfrwt beam="1">  1        2 0.12899106E+00 0.24432119E+03</pdfrwt>
<pdfrwt beam="2">  1       -2 0.27382682E-02 0.24432119E+03</pdfrwt>
<totfact> 0.16041048E+04</totfact>
</mgrwt>
</event>
<event>
 4    1  0.4635140E-002  0.4645415E+02  0.7818608E-02  0.1465463E+00
          2   -1    0    0    0  501  0.00000000000E+00  0.00000000000E+00  0.36571984955E+02  0.36571985044E+02  0.25500000000E-02 0. -1.
         -2   -1    0    0  501    0 -0.00000000000E+00 -0.00000000000E+00 -0.14751644453E+02  0.14751644673E+02  0.25500000000E-02 0. -1.
          2    1    1    2    0  502 -0.13710819974E+02  0.18747093527E+02  0.10646813252E+02  0.25549848121E+02  0.25500000000E-02 0.  1.
         -2    1    1    2  502    0  0.13710819974E+02 -0.18747093527E+02  0.11173527250E+02  0.25773781597E+02  0.25500000000E-02 0.  1.
<mgrwt>
<rscale>  0 0.46454146E+02</rscale>
<asrwt>0</asrwt>
<pdfrwt beam="1">  1        2 0.56264592E-02 0.46454146E+02</pdfrwt>
<pdfrwt beam="2">  1       -2 0.22694838E-02 0.46454146E+02</pdfrwt>
<totfact> 0.58651409E+05</totfact>
</mgrwt>
</event>
<event>
 4    1  0.4635140E-002  0.5623953E+02  0.7818608E-02  0.1414326E+00
          2   -1    0    0    0  501  0.00000000000E+00  0.00000000000E+00  0.25270092158E+03  0.25270092160E+03  0.25500000000E-02 0. -1.
         -2   -1    0    0  501    0 -0.00000000000E+00 -0.00000000000E+00 -0.31290787330E+01  0.31290797721E+01  0.25500000000E-02 0. -1.
          2    1    1    2    0  502 -0.10583855221E+02 -0.21351330781E+02  0.56882656237E+02  0.61672797119E+02  0.25500000000E-02 0. -1.
         -2    1    1    2  502    0  0.10583855221E+02  0.21351330781E+02  0.19268918661E+03  0.19415720425E+03  0.25500000000E-02 0. -1.
<mgrwt>
<rscale>  0 0.56239531E+02</rscale>
<asrwt>0</asrwt>
<pdfrwt beam="1">  1        2 0.38877069E-01 0.56239531E+02</pdfrwt>
<pdfrwt beam="2">  1       -2 0.48139676E-03 0.56239531E+02</pdfrwt>
<totfact> 0.59297433E+05</totfact>
</mgrwt>
</event>
<event>
 4    1  0.4635140E-002  0.6330265E+02  0.7818608E-02  0.1384472E+00
         -2   -1    0    0  501    0 -0.00000000000E+00  0.00000000000E+00  0.20613450596E+02  0.20613450754E+02  0.25500000000E-02 0. -1.
          2   -1    0    0    0  501  0.00000000000E+00 -0.00000000000E+00 -0.48599644097E+02  0.48599644164E+02  0.25500000000E-02 0. -1.
          2    1    1    2    0  502  0.23167100566E+02 -0.20551958354E+02 -0.21138474299E+02  0.37495768335E+02  0.25500000000E-02 0.  1.
         -2    1    1    2  502    0 -0.23167100566E+02  0.20551958354E+02 -0.68477192019E+01  0.31717326583E+02  0.25500000000E-02 0.  1.
<mgrwt>
<rscale>  0 0.63302650E+02</rscale>
<asrwt>0</asrwt>
<pdfrwt beam="2">  1        2 0.74768683E-02 0.63302650E+02</pdfrwt>
<pdfrwt beam="1">  1       -2 0.31713001E-02 0.63302650E+02</pdfrwt>
<totfact> 0.27478031E+05</totfact>
</mgrwt>
</event>
<event>
 4    1  0.4635140E-002  0.1148904E+03  0.7818608E-02  0.1251773E+00
         -2   -1    0    0  501    0 -0.00000000000E+00  0.00000000000E+00  0.64837545450E+02  0.64837545500E+02  0.25500000000E-02 0. -1.
          2   -1    0    0    0  501  0.00000000000E+00 -0.00000000000E+00 -0.50895694622E+02  0.50895694686E+02  0.25500000000E-02 0. -1.
          2    1    1    2    0  502  0.17831730126E+02  0.49125741952E+02  0.30992091145E+02  0.60760339381E+02  0.25500000000E-02 0.  1.
         -2    1    1    2  502    0 -0.17831730126E+02 -0.49125741952E+02 -0.17050240317E+02  0.54972900806E+02  0.25500000000E-02 0.  1.
<mgrwt>
<rscale>  0 0.11489042E+03</rscale>
<asrwt>0</asrwt>
<pdfrwt beam="2">  1        2 0.78301068E-02 0.11489042E+03</pdfrwt>
<pdfrwt beam="1">  1       -2 0.99750070E-02 0.11489042E+03</pdfrwt>
<totfact> 0.51700421E+04</totfact>
</mgrwt>
</event>
<event>
 4    1  0.4635140E-002  0.4040046E+02  0.7818608E-02  0.1505285E+00
         -2   -1    0    0  501    0 -0.00000000000E+00  0.00000000000E+00  0.12823512540E+01  0.12823537894E+01  0.25500000000E-02 0. -1.
          2   -1    0    0    0  501  0.00000000000E+00 -0.00000000000E+00 -0.31820371027E+03  0.31820371028E+03  0.25500000000E-02 0. -1.
          2    1    1    2    0  502 -0.19435362544E+02  0.48837247169E+01 -0.13835318292E+03  0.13979695031E+03  0.25500000000E-02 0.  1.
         -2    1    1    2  502    0  0.19435362544E+02 -0.48837247169E+01 -0.17856817610E+03  0.17968911377E+03  0.25500000000E-02 0.  1.
<mgrwt>
<rscale>  0 0.40400462E+02</rscale>
<asrwt>0</asrwt>
<pdfrwt beam="2">  1        2 0.48954354E-01 0.40400462E+02</pdfrwt>
<pdfrwt beam="1">  1       -2 0.19728526E-03 0.40400462E+02</pdfrwt>
<totfact> 0.14571259E+06</totfact>
</mgrwt>
</event>
<event>
 4    1  0.4635140E-002  0.6810523E+02  0.7818608E-02  0.1366657E+00
          2   -1    0    0    0  501  0.00000000000E+00  0.00000000000E+00  0.88487516187E+02  0.88487516223E+02  0.25500000000E-02 0. -1.
         -2   -1    0    0  501    0 -0.00000000000E+00 -0.00000000000E+00 -0.13104452975E+02  0.13104453223E+02  0.25500000000E-02 0. -1.
          2    1    1    2    0  502  0.27235105593E+01  0.25404804482E+02  0.41116141880E+01  0.25879083799E+02  0.25500000000E-02 0.  1.
         -2    1    1    2  502    0 -0.27235105593E+01 -0.25404804482E+02  0.71271449024E+02  0.75712885647E+02  0.25500000000E-02 0.  1.
<mgrwt>
<rscale>  0 0.68105228E+02</rscale>
<asrwt>0</asrwt>
<pdfrwt beam="1">  1        2 0.13613465E-01 0.68105228E+02</pdfrwt>
<pdfrwt beam="2">  1       -2 0.20160696E-02 0.68105228E+02</pdfrwt>
<totfact> 0.26045248E+05</totfact>
</mgrwt>
</event>
<event>
 4    1  0.4635140E-002  0.4287459E+02  0.7818608E-02  0.1488064E+00
         -2   -1    0    0  501    0 -0.00000000000E+00  0.00000000000E+00  0.20507396468E+00  0.20508981810E+00  0.25500000000E-02 0.  1.
          2   -1    0    0    0  501  0.00000000000E+00 -0.00000000000E+00 -0.22408488439E+04  0.22408488439E+04  0.25500000000E-02 0.  1.
          2    1    1    2    0  502  0.13567263702E+02  0.15892314666E+02 -0.13705701683E+04  0.13707294491E+04  0.25500000000E-02 0. -1.
         -2    1    1    2  502    0 -0.13567263702E+02 -0.15892314666E+02 -0.87007360164E+03  0.87032448466E+03  0.25500000000E-02 0. -1.
<mgrwt>
<rscale>  0 0.42874586E+02</rscale>
<asrwt>0</asrwt>
<pdfrwt beam="2">  1        2 0.34472637E+00 0.42874586E+02</pdfrwt>
<pdfrwt beam="1">  1       -2 0.31552855E-04 0.42874586E+02</pdfrwt>
<totfact> 0.11972592E+06</totfact>
</mgrwt>
</event>
<event>
 4    1  0.4635140E-002  0.4466556E+02  0.7818608E-02  0.1476440E+00
          2   -1    0    0    0  501  0.00000000000E+00  0.00000000000E+00  0.69492886898E+03  0.69492886898E+03  0.25500000000E-02 0. -1.
         -2   -1    0    0  501    0 -0.00000000000E+00 -0.00000000000E+00 -0.71770149201E+00  0.71770602209E+00  0.25500000000E-02 0. -1.
          2    1    1    2    0  502  0.21838328641E+02  0.22714956093E+01  0.41071536066E+03  0.41130181105E+03  0.25500000000E-02 0.  1.
         -2    1    1    2  502    0 -0.21838328641E+02 -0.22714956093E+01  0.28349580683E+03  0.28434476395E+03  0.25500000000E-02 0.  1.
<mgrwt>
<rscale>  0 0.44665560E+02</rscale>
<asrwt>0</asrwt>
<pdfrwt beam="1">  1        2 0.10691263E+00 0.44665560E+02</pdfrwt>
<pdfrwt beam="2">  1       -2 0.11041545E-03 0.44665560E+02</pdfrwt>
<totfact> 0.14486164E+06</totfact>
</mgrwt>
</event>
<event>
 4    1  0.4635140E-002  0.4559844E+02  0.7818608E-02  0.1470640E+00
         -2   -1    0    0  501    0 -0.00000000000E+00  0.00000000000E+00  0.85349974175E+00  0.85350355106E+00  0.25500000000E-02 0. -1.
          2   -1    0    0    0  501  0.00000000000E+00 -0.00000000000E+00 -0.60902571183E+03  0.60902571184E+03  0.25500000000E-02 0. -1.
          2    1    1    2    0  502 -0.15985546326E+02 -0.13591070473E+02 -0.42337849114E+03  0.42389810292E+03  0.25500000000E-02 0. -1.
         -2    1    1    2  502    0  0.15985546326E+02  0.13591070473E+02 -0.18479372095E+03  0.18598111247E+03  0.25500000000E-02 0. -1.
<mgrwt>
<rscale>  0 0.45598441E+02</rscale>
<asrwt>0</asrwt>
<pdfrwt beam="2">  1        2 0.93695916E-01 0.45598441E+02</pdfrwt>
<pdfrwt beam="1">  1       -2 0.13130843E-03 0.45598441E+02</pdfrwt>
<totfact> 0.13335353E+06</totfact>
</mgrwt>
</event>
<event>
 4    1  0.4635140E-002  0.4735732E+02  0.7818608E-02  0.1460140E+00
         -2   -1    0    0  501    0 -0.00000000000E+00  0.00000000000E+00  0.81768845675E+01  0.81768849651E+01  0.25500000000E-02 0.  1.
          2   -1    0    0    0  501  0.00000000000E+00 -0.00000000000E+00 -0.68568759382E+02  0.68568759430E+02  0.25500000000E-02 0.  1.
          2    1    1    2    0  502  0.99919559510E+01  0.19262701185E+02 -0.45551856139E+02  0.50456540159E+02  0.25500000000E-02 0.  1.
         -2    1    1    2  502    0 -0.99919559510E+01 -0.19262701185E+02 -0.14840018676E+02  0.26289104235E+02  0.25500000000E-02 0.  1.
<mgrwt>
<rscale>  0 0.47357316E+02</rscale>
<asrwt>0</asrwt>
<pdfrwt beam="2">  1        2 0.10549040E-01 0.47357316E+02</pdfrwt>
<pdfrwt beam="1">  1       -2 0.12579823E-02 0.47357316E+02</pdfrwt>
<totfact> 0.62808011E+05</totfact>
</mgrwt>
</event>
<event>
 4    1  0.4635140E-002  0.4331172E+02  0.7818608E-02  0.1485165E+00
          2   -1    0    0    0  501  0.00000000000E+00  0.00000000000E+00  0.67555471928E+01  0.67555476741E+01  0.25500000000E-02 0.  1.
         -2   -1    0    0  501    0 -0.00000000000E+00 -0.00000000000E+00 -0.69420924461E+02  0.69420924508E+02  0.25500000000E-02 0.  1.
          2    1    1    2    0  502  0.19829190636E+02 -0.83001427892E+01 -0.26717006455E+02  0.34291217709E+02  0.25500000000E-02 0. -1.
         -2    1    1    2  502    0 -0.19829190636E+02  0.83001427892E+01 -0.35948370814E+02  0.41885254473E+02  0.25500000000E-02 0. -1.
<mgrwt>
<rscale>  0 0.43311724E+02</rscale>
<asrwt>0</asrwt>
<pdfrwt beam="1">  1        2 0.10393150E-02 0.43311724E+02</pdfrwt>
<pdfrwt beam="2">  1       -2 0.10680142E-01 0.43311724E+02</pdfrwt>
<totfact> 0.54196440E+05</totfact>
</mgrwt>
</event>
<event>
 4    1  0.4635140E-002  0.4118200E+02  0.7818608E-02  0.1499689E+00
          2   -1    0    0    0  501  0.00000000000E+00  0.00000000000E+00  0.62834446213E+02  0.62834446265E+02  0.25500000000E-02 0.  1.
         -2   -1    0    0  501    0 -0.00000000000E+00 -0.00000000000E+00 -0.67477215231E+01  0.67477220050E+01  0.25500000000E-02 0.  1.
          2    1    1    2    0  502 -0.10257260347E+02  0.17611629287E+02  0.23085964785E+02  0.30795172553E+02  0.25500000000E-02 0.  1.
         -2    1    1    2  502    0  0.10257260347E+02 -0.17611629287E+02  0.33000759905E+02  0.38786995717E+02  0.25500000000E-02 0.  1.
<mgrwt>
<rscale>  0 0.41182004E+02</rscale>
<asrwt>0</asrwt>
<pdfrwt beam="1">  1        2 0.96668380E-02 0.41182004E+02</pdfrwt>
<pdfrwt beam="2">  1       -2 0.10381110E-02 0.41182004E+02</pdfrwt>
<totfact> 0.87599286E+05</totfact>
</mgrwt>
</event>
<event>
 4    1  0.4635140E-002  0.5319415E+02  0.7818608E-02  0.1428837E+00
          2   -1    0    0    0  501  0.00000000000E+00  0.00000000000E+00  0.87631021614E+01  0.87631025324E+01  0.25500000000E-02 0.  1.
         -2   -1    0    0  501    0 -0.00000000000E+00 -0.00000000000E+00 -0.80725352680E+02  0.80725352720E+02  0.25500000000E-02 0.  1.
          2    1    1    2    0  502 -0.20521514864E+02  0.16802189163E+02 -0.39328177322E+02  0.47435763628E+02  0.25500000000E-02 0.  1.
         -2    1    1    2  502    0  0.20521514864E+02 -0.16802189163E+02 -0.32634073197E+02  0.42052691625E+02  0.25500000000E-02 0.  1.
<mgrwt>
<rscale>  0 0.53194155E+02</rscale>
<asrwt>0</asrwt>
<pdfrwt beam="1">  1        2 0.13481697E-02 0.53194155E+02</pdfrwt>
<pdfrwt beam="2">  1       -2 0.12419285E-01 0.53194155E+02</pdfrwt>
<totfact> 0.31933099E+05</totfact>
</mgrwt>
</event>
<event>
 4    1  0.4635140E-002  0.4169411E+02  0.7818608E-02  0.1496102E+00
          2   -1    0    0    0  501  0.00000000000E+00  0.00000000000E+00  0.11876961105E+04  0.11876961105E+04  0.25500000000E-02 0.  1.
         -2   -1    0    0  501    0 -0.00000000000E+00 -0.00000000000E+00 -0.36591390669E+00  0.36592279187E+00  0.25500000000E-02 0.  1.
          2    1    1    2    0  502 -0.20596825668E+02 -0.30377612802E+01  0.62412348234E+03  0.62447063857E+03  0.25500000000E-02 0. -1.
         -2    1    1    2  502    0  0.20596825668E+02  0.30377612802E+01  0.56320671421E+03  0.56359139468E+03  0.25500000000E-02 0. -1.
<mgrwt>
<rscale>  0 0.41694115E+02</rscale>
<asrwt>0</asrwt>
<pdfrwt beam="1">  1        2 0.18272067E+00 0.41694115E+02</pdfrwt>
<pdfrwt beam="2">  1       -2 0.56295688E-04 0.41694115E+02</pdfrwt>
<totfact> 0.17984293E+06</totfact>
</mgrwt>
</event>
<event>
 4    1  0.4635140E-002  0.5604292E+02  0.7818608E-02  0.1415230E+00
          2   -1    0    0    0  501  0.00000000000E+00  0.00000000000E+00  0.24659615605E+02  0.24659615737E+02  0.25500000000E-02 0.  1.
         -2   -1    0    0  501    0 -0.00000000000E+00 -0.00000000000E+00 -0.31841622682E+02  0.31841622784E+02  0.25500000000E-02 0.  1.
          2    1    1    2    0  502  0.23427961728E+02 -0.10035203438E+02 -0.15332165110E+02  0.29743066288E+02  0.25500000000E-02 0. -1.
         -2    1    1    2  502    0 -0.23427961728E+02  0.10035203438E+02  0.81501580325E+01  0.26758172233E+02  0.25500000000E-02 0. -1.
<mgrwt>
<rscale>  0 0.56042919E+02</rscale>
<asrwt>0</asrwt>
<pdfrwt beam="1">  1        2 0.37937870E-02 0.56042919E+02</pdfrwt>
<pdfrwt beam="2">  1       -2 0.48987112E-02 0.56042919E+02</pdfrwt>
<totfact> 0.33556134E+05</totfact>
</mgrwt>
</event>
<event>
 4    1  0.4635140E-002  0.5659132E+02  0.7818608E-02  0.1412720E+00
         -2   -1    0    0  501    0 -0.00000000000E+00  0.00000000000E+00  0.26553040111E+01  0.26553052355E+01  0.25500000000E-02 0.  1.
          2   -1    0    0    0  501  0.00000000000E+00 -0.00000000000E+00 -0.30152633013E+03  0.30152633015E+03  0.25500000000E-02 0.  1.
          2    1    1    2    0  502  0.20879619553E+02 -0.14517946852E+02 -0.82751210020E+02  0.86570734430E+02  0.25500000000E-02 0. -1.
         -2    1    1    2  502    0 -0.20879619553E+02  0.14517946852E+02 -0.21611981610E+03  0.21761090095E+03  0.25500000000E-02 0. -1.
<mgrwt>
<rscale>  0 0.56591316E+02</rscale>
<asrwt>0</asrwt>
<pdfrwt beam="2">  1        2 0.46388639E-01 0.56591316E+02</pdfrwt>
<pdfrwt beam="1">  1       -2 0.40850864E-03 0.56591316E+02</pdfrwt>
<totfact> 0.62117013E+05</totfact>
</mgrwt>
</event>
<event>
 4    1  0.4635140E-002  0.4058772E+02  0.7818608E-02  0.1503930E+00
          2   -1    0    0    0  501  0.00000000000E+00  0.00000000000E+00  0.22148125105E+04  0.22148125105E+04  0.25500000000E-02 0. -1.
         -2   -1    0    0  501    0 -0.00000000000E+00 -0.00000000000E+00 -0.18593963835E+00  0.18595712305E+00  0.25500000000E-02 0. -1.
          2    1    1    2    0  502  0.19374135417E+02  0.58046865777E+01  0.11984567151E+04  0.11986273606E+04  0.25500000000E-02 0.  1.
         -2    1    1    2  502    0 -0.19374135417E+02 -0.58046865777E+01  0.10161698557E+04  0.10163711070E+04  0.25500000000E-02 0.  1.
<mgrwt>
<rscale>  0 0.40587722E+02</rscale>
<asrwt>0</asrwt>
<pdfrwt beam="1">  1        2 0.34076309E+00 0.40587722E+02</pdfrwt>
<pdfrwt beam="2">  1       -2 0.28605538E-04 0.40587722E+02</pdfrwt>
<totfact> 0.13894179E+06</totfact>
</mgrwt>
</event>
<event>
 4    1  0.4635140E-002  0.7743037E+02  0.7818608E-02  0.1336506E+00
         -2   -1    0    0  501    0 -0.00000000000E+00  0.00000000000E+00  0.99876236014E+00  0.99876561541E+00  0.25500000000E-02 0. -1.
          2   -1    0    0    0  501  0.00000000000E+00 -0.00000000000E+00 -0.15007203334E+04  0.15007203334E+04  0.25500000000E-02 0. -1.
          2    1    1    2    0  502 -0.19428732916E+02 -0.24995830375E+02 -0.31766555723E+03  0.31923921040E+03  0.25500000000E-02 0.  1.
         -2    1    1    2  502    0  0.19428732916E+02  0.24995830375E+02 -0.11820560138E+04  0.11824798886E+04  0.25500000000E-02 0.  1.
<mgrwt>
<rscale>  0 0.77430367E+02</rscale>
<asrwt>0</asrwt>
<pdfrwt beam="2">  1        2 0.23087825E+00 0.77430367E+02</pdfrwt>
<pdfrwt beam="1">  1       -2 0.15365720E-03 0.77430367E+02</pdfrwt>
<totfact> 0.36165254E+05</totfact>
</mgrwt>
</event>
<event>
 4    1  0.4635140E-002  0.5847395E+02  0.7818608E-02  0.1404350E+00
          2   -1    0    0    0  501  0.00000000000E+00  0.00000000000E+00  0.12249852529E+03  0.12249852532E+03  0.25500000000E-02 0. -1.
         -2   -1    0    0  501    0 -0.00000000000E+00 -0.00000000000E+00 -0.69780483464E+01  0.69780488124E+01  0.25500000000E-02 0. -1.
          2    1    1    2    0  502 -0.22616898017E+02 -0.14460344120E+02  0.32111581576E+02  0.41854262696E+02  0.25500000000E-02 0. -1.
         -2    1    1    2  502    0  0.22616898017E+02  0.14460344120E+02  0.83408895370E+02  0.87622311436E+02  0.25500000000E-02 0. -1.
<mgrwt>
<rscale>  0 0.58473949E+02</rscale>
<asrwt>0</asrwt>
<pdfrwt beam="1">  1        2 0.18845926E-01 0.58473949E+02</pdfrwt>
<pdfrwt beam="2">  1       -2 0.10735460E-02 0.58473949E+02</pdfrwt>
<totfact> 0.42446138E+05</totfact>
</mgrwt>
</event>
<event>
 4    1  0.4635140E-002  0.4502709E+02  0.7818608E-02  0.1474173E+00
          2   -1    0    0    0  501  0.00000000000E+00  0.00000000000E+00  0.49241700021E+03  0.49241700021E+03  0.25500000000E-02 0. -1.
         -2   -1    0    0  501    0 -0.00000000000E+00 -0.00000000000E+00 -0.10293285410E+01  0.10293316997E+01  0.25500000000E-02 0. -1.
          2    1    1    2    0  502  0.15218665170E+02  0.16051943574E+02  0.19973576798E+03  0.20095683537E+03  0.25500000000E-02 0. -1.
         -2    1    1    2  502    0 -0.15218665170E+02 -0.16051943574E+02  0.29165190368E+03  0.29248949655E+03  0.25500000000E-02 0. -1.
<mgrwt>
<rscale>  0 0.45027088E+02</rscale>
<asrwt>0</asrwt>
<pdfrwt beam="1">  1        2 0.75756541E-01 0.45027088E+02</pdfrwt>
<pdfrwt beam="2">  1       -2 0.15835831E-03 0.45027088E+02</pdfrwt>
<totfact> 0.12933711E+06</totfact>
</mgrwt>
</event>
<event>
 4    1  0.4635140E-002  0.6282493E+02  0.7818608E-02  0.1386345E+00
         -2   -1    0    0  501    0 -0.00000000000E+00  0.00000000000E+00  0.11473388685E+01  0.11473417023E+01  0.25500000000E-02 0. -1.
          2   -1    0    0    0  501  0.00000000000E+00 -0.00000000000E+00 -0.86002644230E+03  0.86002644231E+03  0.25500000000E-02 0. -1.
          2    1    1    2    0  502 -0.23631713360E+02 -0.16300547550E+02 -0.60421831910E+03  0.60489994451E+03  0.25500000000E-02 0. -1.
         -2    1    1    2  502    0  0.23631713360E+02  0.16300547550E+02 -0.25466078433E+03  0.25627383950E+03  0.25500000000E-02 0. -1.
<mgrwt>
<rscale>  0 0.62824931E+02</rscale>
<asrwt>0</asrwt>
<pdfrwt beam="2">  1        2 0.13231125E+00 0.62824931E+02</pdfrwt>
<pdfrwt beam="1">  1       -2 0.17651458E-03 0.62824931E+02</pdfrwt>
<totfact> 0.64541035E+05</totfact>
</mgrwt>
</event>
<event>
 4    1  0.4635140E-002  0.5431274E+02  0.7818608E-02  0.1423377E+00
         -2   -1    0    0  501    0 -0.00000000000E+00  0.00000000000E+00  0.51399647961E+01  0.51399654287E+01  0.25500000000E-02 0.  1.
          2   -1    0    0    0  501  0.00000000000E+00 -0.00000000000E+00 -0.14347732879E+03  0.14347732882E+03  0.25500000000E-02 0.  1.
          2    1    1    2    0  502  0.38688327314E+01 -0.21041645670E+02 -0.23401679006E+02  0.31707369901E+02  0.25500000000E-02 0. -1.
         -2    1    1    2  502    0 -0.38688327314E+01  0.21041645670E+02 -0.11493568499E+03  0.11690992434E+03  0.25500000000E-02 0. -1.
<mgrwt>
<rscale>  0 0.54312741E+02</rscale>
<asrwt>0</asrwt>
<pdfrwt beam="2">  1        2 0.22073432E-01 0.54312741E+02</pdfrwt>
<pdfrwt beam="1">  1       -2 0.79076398E-03 0.54312741E+02</pdfrwt>
<totfact> 0.53744470E+05</totfact>
</mgrwt>
</event>
<event>
 4    1  0.4635140E-002  0.7452188E+02  0.7818608E-02  0.1345358E+00
         -2   -1    0    0  501    0 -0.00000000000E+00  0.00000000000E+00  0.14911829173E+01  0.14911850976E+01  0.25500000000E-02 0.  1.
          2   -1    0    0    0  501  0.00000000000E+00 -0.00000000000E+00 -0.93105722686E+03  0.93105722687E+03  0.25500000000E-02 0.  1.
          2    1    1    2    0  502  0.25414114579E+02  0.16235025148E+02 -0.73863826378E+03  0.73925363576E+03  0.25500000000E-02 0.  1.
         -2    1    1    2  502    0 -0.25414114579E+02 -0.16235025148E+02 -0.19092778017E+03  0.19329477620E+03  0.25500000000E-02 0.  1.
<mgrwt>
<rscale>  0 0.74521880E+02</rscale>
<asrwt>0</asrwt>
<pdfrwt beam="2">  1        2 0.14323911E+00 0.74521880E+02</pdfrwt>
<pdfrwt beam="1">  1       -2 0.22941367E-03 0.74521880E+02</pdfrwt>
<totfact> 0.42091610E+05</totfact>
</mgrwt>
</event>
<event>
 4    1  0.4635140E-002  0.9968596E+02  0.7818608E-02  0.1280958E+00
         -2   -1    0    0  501    0 -0.00000000000E+00  0.00000000000E+00  0.46911575993E+02  0.46911576062E+02  0.25500000000E-02 0. -1.
          2   -1    0    0    0  501  0.00000000000E+00 -0.00000000000E+00 -0.52957558274E+02  0.52957558336E+02  0.25500000000E-02 0. -1.
          2    1    1    2    0  502 -0.39921638258E+02 -0.24189620461E+01  0.26776143028E+02  0.48130555997E+02  0.25500000000E-02 0.  1.
         -2    1    1    2  502    0  0.39921638258E+02  0.24189620461E+01 -0.32822125310E+02  0.51738578401E+02  0.25500000000E-02 0.  1.
<mgrwt>
<rscale>  0 0.99685957E+02</rscale>
<asrwt>0</asrwt>
<pdfrwt beam="2">  1        2 0.81473167E-02 0.99685957E+02</pdfrwt>
<pdfrwt beam="1">  1       -2 0.72171655E-02 0.99685957E+02</pdfrwt>
<totfact> 0.79438694E+04</totfact>
</mgrwt>
</event>
<event>
 4    1  0.4635140E-002  0.4998724E+02  0.7818608E-02  0.1445410E+00
         -2   -1    0    0  501    0 -0.00000000000E+00  0.00000000000E+00  0.15393920391E+01  0.15393941511E+01  0.25500000000E-02 0. -1.
          2   -1    0    0    0  501  0.00000000000E+00 -0.00000000000E+00 -0.40579699180E+03  0.40579699181E+03  0.25500000000E-02 0. -1.
          2    1    1    2    0  502 -0.17290939882E+02  0.15364976426E+02 -0.12498495139E+03  0.12710742379E+03  0.25500000000E-02 0. -1.
         -2    1    1    2  502    0  0.17290939882E+02 -0.15364976426E+02 -0.27927264838E+03  0.28022896218E+03  0.25500000000E-02 0. -1.
<mgrwt>
<rscale>  0 0.49987242E+02</rscale>
<asrwt>0</asrwt>
<pdfrwt beam="2">  1        2 0.62430221E-01 0.49987242E+02</pdfrwt>
<pdfrwt beam="1">  1       -2 0.23683003E-03 0.49987242E+02</pdfrwt>
<totfact> 0.93928902E+05</totfact>
</mgrwt>
</event>
<event>
 4    1  0.4635140E-002  0.4146223E+02  0.7818608E-02  0.1497719E+00
         -2   -1    0    0  501    0 -0.00000000000E+00  0.00000000000E+00  0.19835999503E+01  0.19836015893E+01  0.25500000000E-02 0.  1.
          2   -1    0    0    0  501  0.00000000000E+00 -0.00000000000E+00 -0.21666616031E+03  0.21666616033E+03  0.25500000000E-02 0.  1.
          2    1    1    2    0  502 -0.14906385983E+01 -0.20674817844E+02 -0.10908282524E+03  0.11103482726E+03  0.25500000000E-02 0.  1.
         -2    1    1    2  502    0  0.14906385983E+01  0.20674817844E+02 -0.10559973512E+03  0.10761493465E+03  0.25500000000E-02 0.  1.
<mgrwt>
<rscale>  0 0.41462232E+02</rscale>
<asrwt>0</asrwt>
<pdfrwt beam="2">  1        2 0.33333237E-01 0.41462232E+02</pdfrwt>
<pdfrwt beam="1">  1       -2 0.30516952E-03 0.41462232E+02</pdfrwt>
<totfact> 0.12011276E+06</totfact>
</mgrwt>
</event>
<event>
 4    1  0.4635140E-002  0.4864009E+02  0.7818608E-02  0.1452818E+00
          2   -1    0    0    0  501  0.00000000000E+00  0.00000000000E+00  0.23555339222E+02  0.23555339360E+02  0.25500000000E-02 0. -1.
         -2   -1    0    0  501    0 -0.00000000000E+00 -0.00000000000E+00 -0.25109572591E+02  0.25109572721E+02  0.25500000000E-02 0. -1.
          2    1    1    2    0  502 -0.23760115858E+02  0.22206984438E+01 -0.54688482996E+01  0.24482298001E+02  0.25500000000E-02 0. -1.
         -2    1    1    2  502    0  0.23760115858E+02 -0.22206984438E+01  0.39146149299E+01  0.24182614080E+02  0.25500000000E-02 0. -1.
<mgrwt>
<rscale>  0 0.48640087E+02</rscale>
<asrwt>0</asrwt>
<pdfrwt beam="1">  1        2 0.36238984E-02 0.48640087E+02</pdfrwt>
<pdfrwt beam="2">  1       -2 0.38630112E-02 0.48640087E+02</pdfrwt>
<totfact> 0.48585174E+05</totfact>
</mgrwt>
</event>
<event>
 4    1  0.4635140E-002  0.2190084E+03  0.7818608E-02  0.1134624E+00
         -2   -1    0    0  501    0 -0.00000000000E+00  0.00000000000E+00  0.44161476451E+02  0.44161476524E+02  0.25500000000E-02 0.  1.
          2   -1    0    0    0  501  0.00000000000E+00 -0.00000000000E+00 -0.27153020166E+03  0.27153020167E+03  0.25500000000E-02 0.  1.
          2    1    1    2    0  502 -0.10372699273E+03 -0.10662310821E+02 -0.16188604072E+03  0.19256184482E+03  0.25500000000E-02 0.  1.
         -2    1    1    2  502    0  0.10372699273E+03  0.10662310821E+02 -0.65482684493E+02  0.12312983338E+03  0.25500000000E-02 0.  1.
<mgrwt>
<rscale>  0 0.21900844E+03</rscale>
<asrwt>0</asrwt>
<pdfrwt beam="2">  1        2 0.41773876E-01 0.21900844E+03</pdfrwt>
<pdfrwt beam="1">  1       -2 0.67940735E-02 0.21900844E+03</pdfrwt>
<totfact> 0.14508968E+04</totfact>
</mgrwt>
</event>
<event>
 4    1  0.4635140E-002  0.4643256E+02  0.7818608E-02  0.1465592E+00
         -2   -1    0    0  501    0 -0.00000000000E+00  0.00000000000E+00  0.57049774115E+00  0.57050344010E+00  0.25500000000E-02 0.  1.
          2   -1    0    0    0  501  0.00000000000E+00 -0.00000000000E+00 -0.94477676517E+03  0.94477676517E+03  0.25500000000E-02 0.  1.
          2    1    1    2    0  502 -0.31169060069E+00  0.23116196834E+02 -0.51548380601E+03  0.51600194764E+03  0.25500000000E-02 0.  1.
         -2    1    1    2  502    0  0.31169060069E+00 -0.23116196834E+02 -0.42872246142E+03  0.42934532097E+03  0.25500000000E-02 0.  1.
<mgrwt>
<rscale>  0 0.46432562E+02</rscale>
<asrwt>0</asrwt>
<pdfrwt beam="2">  1        2 0.14534902E+00 0.46432562E+02</pdfrwt>
<pdfrwt beam="1">  1       -2 0.87770078E-04 0.46432562E+02</pdfrwt>
<totfact> 0.13838323E+06</totfact>
</mgrwt>
</event>
<event>
 4    1  0.4635140E-002  0.8737600E+02  0.7818608E-02  0.1309333E+00
          2   -1    0    0    0  501  0.00000000000E+00  0.00000000000E+00  0.85645596285E+01  0.85645600082E+01  0.25500000000E-02 0. -1.
         -2   -1    0    0  501    0 -0.00000000000E+00 -0.00000000000E+00 -0.22285341668E+03  0.22285341669E+03  0.25500000000E-02 0. -1.
          2    1    1    2    0  502 -0.43156369104E+02 -0.50821568644E+01 -0.11908953509E+03  0.12676994079E+03  0.25500000000E-02 0. -1.
         -2    1    1    2  502    0  0.43156369104E+02  0.50821568644E+01 -0.95199321957E+02  0.10464803591E+03  0.25500000000E-02 0. -1.
<mgrwt>
<rscale>  0 0.87376002E+02</rscale>
<asrwt>0</asrwt>
<pdfrwt beam="1">  1        2 0.13176248E-02 0.87376002E+02</pdfrwt>
<pdfrwt beam="2">  1       -2 0.34285137E-01 0.87376002E+02</pdfrwt>
<totfact> 0.66198379E+04</totfact>
</mgrwt>
</event>
<event>
 4    1  0.4635140E-002  0.1017522E+03  0.7818608E-02  0.1276654E+00
         -2   -1    0    0  501    0 -0.00000000000E+00  0.00000000000E+00  0.36130232645E+03  0.36130232646E+03  0.25500000000E-02 0. -1.
          2   -1    0    0    0  501  0.00000000000E+00 -0.00000000000E+00 -0.71640142503E+01  0.71640147041E+01  0.25500000000E-02 0. -1.
          2    1    1    2    0  502  0.23898369946E+02  0.40692018590E+02  0.10822772746E+03  0.11806868111E+03  0.25500000000E-02 0.  1.
         -2    1    1    2  502    0 -0.23898369946E+02 -0.40692018590E+02  0.24591058475E+03  0.25039766005E+03  0.25500000000E-02 0.  1.
<mgrwt>
<rscale>  0 0.10175215E+03</rscale>
<asrwt>0</asrwt>
<pdfrwt beam="2">  1        2 0.11021561E-02 0.10175215E+03</pdfrwt>
<pdfrwt beam="1">  1       -2 0.55584972E-01 0.10175215E+03</pdfrwt>
<totfact> 0.34344708E+04</totfact>
</mgrwt>
</event>
<event>
 4    1  0.4635140E-002  0.1633829E+03  0.7818608E-02  0.1184930E+00
         -2   -1    0    0  501    0 -0.00000000000E+00  0.00000000000E+00  0.23764797365E+01  0.23764811046E+01  0.25500000000E-02 0.  1.
          2   -1    0    0    0  501  0.00000000000E+00 -0.00000000000E+00 -0.28081406882E+04  0.28081406882E+04  0.25500000000E-02 0.  1.
          2    1    1    2    0  502 -0.72591918135E+02 -0.26126696004E+02 -0.94088652106E+03  0.94404429787E+03  0.25500000000E-02 0.  1.
         -2    1    1    2  502    0  0.72591918135E+02  0.26126696004E+02 -0.18648776874E+04  0.18664728714E+04  0.25500000000E-02 0.  1.
<mgrwt>
<rscale>  0 0.16338288E+03</rscale>
<asrwt>0</asrwt>
<pdfrwt beam="2">  1        2 0.43201899E+00 0.16338288E+03</pdfrwt>
<pdfrwt beam="1">  1       -2 0.36561462E-03 0.16338288E+03</pdfrwt>
<totfact> 0.24200496E+04</totfact>
</mgrwt>
</event>
<event>
 4    1  0.4635140E-002  0.5051887E+02  0.7818608E-02  0.1442563E+00
         -2   -1    0    0  501    0 -0.00000000000E+00  0.00000000000E+00  0.23513914103E+01  0.23513927930E+01  0.25500000000E-02 0. -1.
          2   -1    0    0    0  501  0.00000000000E+00 -0.00000000000E+00 -0.27134528179E+03  0.27134528180E+03  0.25500000000E-02 0. -1.
          2    1    1    2    0  502  0.11290188291E+02  0.20332319828E+02 -0.81092608460E+02  0.84361618848E+02  0.25500000000E-02 0. -1.
         -2    1    1    2  502    0 -0.11290188291E+02 -0.20332319828E+02 -0.18790128192E+03  0.18933505575E+03  0.25500000000E-02 0. -1.
<mgrwt>
<rscale>  0 0.50518874E+02</rscale>
<asrwt>0</asrwt>
<pdfrwt beam="2">  1        2 0.41745403E-01 0.50518874E+02</pdfrwt>
<pdfrwt beam="1">  1       -2 0.36175285E-03 0.50518874E+02</pdfrwt>
<totfact> 0.79607542E+05</totfact>
</mgrwt>
</event>
<event>
 4    1  0.4635140E-002  0.5428619E+02  0.7818608E-02  0.1423505E+00
          2   -1    0    0    0  501  0.00000000000E+00  0.00000000000E+00  0.49684678588E+00  0.49685332960E+00  0.25500000000E-02 0.  1.
         -2   -1    0    0  501    0 -0.00000000000E+00 -0.00000000000E+00 -0.14828368725E+04  0.14828368725E+04  0.25500000000E-02 0.  1.
          2    1    1    2    0  502 -0.23652774278E+02 -0.97026378721E+01 -0.99033534288E+03  0.99066527459E+03  0.25500000000E-02 0.  1.
         -2    1    1    2  502    0  0.23652774278E+02  0.97026378721E+01 -0.49200468280E+03  0.49266845121E+03  0.25500000000E-02 0.  1.
<mgrwt>
<rscale>  0 0.54286189E+02</rscale>
<asrwt>0</asrwt>
<pdfrwt beam="1">  1        2 0.76439658E-04 0.54286189E+02</pdfrwt>
<pdfrwt beam="2">  1       -2 0.22812521E+00 0.54286189E+02</pdfrwt>
<totfact> 0.40623434E+04</totfact>
</mgrwt>
</event>
<event>
 4    1  0.4635140E-002  0.6913579E+02  0.7818608E-02  0.1363057E+00
          2   -1    0    0    0  501  0.00000000000E+00  0.00000000000E+00  0.78673481241E+01  0.78673485373E+01  0.25500000000E-02 0.  1.
         -2   -1    0    0  501    0 -0.00000000000E+00 -0.00000000000E+00 -0.15188588868E+03  0.15188588870E+03  0.25500000000E-02 0.  1.
          2    1    1    2    0  502 -0.19620796358E+02 -0.22073829864E+02 -0.30499274040E+02  0.42455097904E+02  0.25500000000E-02 0. -1.
         -2    1    1    2  502    0  0.19620796358E+02  0.22073829864E+02 -0.11351926652E+03  0.11729813933E+03  0.25500000000E-02 0. -1.
<mgrwt>
<rscale>  0 0.69135785E+02</rscale>
<asrwt>0</asrwt>
<pdfrwt beam="1">  1        2 0.12103614E-02 0.69135785E+02</pdfrwt>
<pdfrwt beam="2">  1       -2 0.23367058E-01 0.69135785E+02</pdfrwt>
<totfact> 0.13974909E+05</totfact>
</mgrwt>
</event>
<event>
 4    1  0.4635140E-002  0.6589999E+02  0.7818608E-02  0.1374618E+00
          2   -1    0    0    0  501  0.00000000000E+00  0.00000000000E+00  0.34988816565E+03  0.34988816565E+03  0.25500000000E-02 0.  1.
         -2   -1    0    0  501    0 -0.00000000000E+00 -0.00000000000E+00 -0.31029976252E+01  0.31029986730E+01  0.25500000000E-02 0.  1.
          2    1    1    2    0  502  0.19392783836E+02 -0.25608977954E+02  0.13410279257E+03  0.13789655107E+03  0.25500000000E-02 0. -1.
         -2    1    1    2  502    0 -0.19392783836E+02  0.25608977954E+02  0.21268237545E+03  0.21509461325E+03  0.25500000000E-02 0. -1.
<mgrwt>
<rscale>  0 0.65899995E+02</rscale>
<asrwt>0</asrwt>
<pdfrwt beam="1">  1        2 0.53828943E-01 0.65899995E+02</pdfrwt>
<pdfrwt beam="2">  1       -2 0.47738438E-03 0.65899995E+02</pdfrwt>
<totfact> 0.44425438E+05</totfact>
</mgrwt>
</event>
<event>
 4    1  0.4635140E-002  0.1466016E+03  0.7818608E-02  0.1204712E+00
         -2   -1    0    0  501    0 -0.00000000000E+00  0.00000000000E+00  0.32271270811E+02  0.32271270912E+02  0.25500000000E-02 0. -1.
          2   -1    0    0    0  501  0.00000000000E+00 -0.00000000000E+00 -0.16649512083E+03  0.16649512085E+03  0.25500000000E-02 0. -1.
          2    1    1    2    0  502  0.34988581172E+02  0.62166858788E+02 -0.89964341867E+02  0.11481507722E+03  0.25500000000E-02 0.  1.
         -2    1    1    2  502    0 -0.34988581172E+02 -0.62166858788E+02 -0.44259508152E+02  0.83951314536E+02  0.25500000000E-02 0.  1.
<mgrwt>
<rscale>  0 0.14660163E+03</rscale>
<asrwt>0</asrwt>
<pdfrwt beam="2">  1        2 0.25614634E-01 0.14660163E+03</pdfrwt>
<pdfrwt beam="1">  1       -2 0.49648110E-02 0.14660163E+03</pdfrwt>
<totfact> 0.38392151E+04</totfact>
</mgrwt>
</event>
<event>
 4    1  0.4635140E-002  0.5443032E+02  0.7818608E-02  0.1422812E+00
         -2   -1    0    0  501    0 -0.00000000000E+00  0.00000000000E+00  0.22309475339E+01  0.22309489912E+01  0.25500000000E-02 0. -1.
          2   -1    0    0    0  501  0.00000000000E+00 -0.00000000000E+00 -0.33199557346E+03  0.33199557347E+03  0.25500000000E-02 0. -1.
          2    1    1    2    0  502 -0.17803687914E+02 -0.14248311968E+02 -0.73664267032E+02  0.77112968696E+02  0.25500000000E-02 0. -1.
         -2    1    1    2  502    0  0.17803687914E+02  0.14248311968E+02 -0.25610035890E+03  0.25711355377E+03  0.25500000000E-02 0. -1.
<mgrwt>
<rscale>  0 0.54430321E+02</rscale>
<asrwt>0</asrwt>
<pdfrwt beam="2">  1        2 0.51076203E-01 0.54430321E+02</pdfrwt>
<pdfrwt beam="1">  1       -2 0.34322307E-03 0.54430321E+02</pdfrwt>
<totfact> 0.70877297E+05</totfact>
</mgrwt>
</event>
<event>
 4    1  0.4635140E-002  0.4571705E+02  0.7818608E-02  0.1469914E+00
         -2   -1    0    0  501    0 -0.00000000000E+00  0.00000000000E+00  0.97378465455E+02  0.97378465488E+02  0.25500000000E-02 0.  1.
          2   -1    0    0    0  501  0.00000000000E+00 -0.00000000000E+00 -0.53657867578E+01  0.53657873637E+01  0.25500000000E-02 0.  1.
          2    1    1    2    0  502 -0.13239951814E+02 -0.17390311436E+02  0.30965096844E+02  0.37901932470E+02  0.25500000000E-02 0.  1.
         -2    1    1    2  502    0  0.13239951814E+02  0.17390311436E+02  0.61047581853E+02  0.64842320382E+02  0.25500000000E-02 0.  1.
<mgrwt>
<rscale>  0 0.45717048E+02</rscale>
<asrwt>0</asrwt>
<pdfrwt beam="2">  1        2 0.82550572E-03 0.45717048E+02</pdfrwt>
<pdfrwt beam="1">  1       -2 0.14981302E-01 0.45717048E+02</pdfrwt>
<totfact> 0.44171660E+05</totfact>
</mgrwt>
</event>
<event>
 4    1  0.4635140E-002  0.1293921E+03  0.7818608E-02  0.1228361E+00
         -2   -1    0    0  501    0 -0.00000000000E+00  0.00000000000E+00  0.46685559506E+01  0.46685566470E+01  0.25500000000E-02 0. -1.
          2   -1    0    0    0  501  0.00000000000E+00 -0.00000000000E+00 -0.89654647759E+03  0.89654647759E+03  0.25500000000E-02 0. -1.
          2    1    1    2    0  502 -0.23878283378E+02  0.58074110946E+02 -0.55446843098E+03  0.55801255876E+03  0.25500000000E-02 0.  1.
         -2    1    1    2  502    0  0.23878283378E+02 -0.58074110946E+02 -0.33740949065E+03  0.34320247547E+03  0.25500000000E-02 0.  1.
<mgrwt>
<rscale>  0 0.12939208E+03</rscale>
<asrwt>0</asrwt>
<pdfrwt beam="2">  1        2 0.13793009E+00 0.12939208E+03</pdfrwt>
<pdfrwt beam="1">  1       -2 0.71824014E-03 0.12939208E+03</pdfrwt>
<totfact> 0.97006223E+04</totfact>
</mgrwt>
</event>
<event>
 4    1  0.4635140E-002  0.9806306E+02  0.7818608E-02  0.1284423E+00
          2   -1    0    0    0  501  0.00000000000E+00  0.00000000000E+00  0.38487396923E+03  0.38487396924E+03  0.25500000000E-02 0.  1.
         -2   -1    0    0  501    0 -0.00000000000E+00 -0.00000000000E+00 -0.62464364100E+01  0.62464369305E+01  0.25500000000E-02 0.  1.
          2    1    1    2    0  502 -0.22382053937E+02  0.43571868335E+02  0.18073457259E+03  0.18725503941E+03  0.25500000000E-02 0.  1.
         -2    1    1    2  502    0  0.22382053937E+02 -0.43571868335E+02  0.19789296023E+03  0.20386536676E+03  0.25500000000E-02 0.  1.
<mgrwt>
<rscale>  0 0.98063059E+02</rscale>
<asrwt>0</asrwt>
<pdfrwt beam="1">  1        2 0.59211393E-01 0.98063059E+02</pdfrwt>
<pdfrwt beam="2">  1       -2 0.96099004E-03 0.98063059E+02</pdfrwt>
<totfact> 0.16212032E+05</totfact>
</mgrwt>
</event>
<event>
 4    1  0.4635140E-002  0.4249411E+02  0.7818608E-02  0.1490620E+00
         -2   -1    0    0  501    0 -0.00000000000E+00  0.00000000000E+00  0.24959989598E+01  0.24960002624E+01  0.25500000000E-02 0.  1.
          2   -1    0    0    0  501  0.00000000000E+00 -0.00000000000E+00 -0.18086436195E+03  0.18086436197E+03  0.25500000000E-02 0.  1.
          2    1    1    2    0  502  0.20248370527E+02  0.63786873633E+01 -0.92929040170E+02  0.95323085739E+02  0.25500000000E-02 0.  1.
         -2    1    1    2  502    0 -0.20248370527E+02 -0.63786873633E+01 -0.85439322822E+02  0.88037276492E+02  0.25500000000E-02 0.  1.
<mgrwt>
<rscale>  0 0.42494112E+02</rscale>
<asrwt>0</asrwt>
<pdfrwt beam="2">  1        2 0.27825276E-01 0.42494112E+02</pdfrwt>
<pdfrwt beam="1">  1       -2 0.38400008E-03 0.42494112E+02</pdfrwt>
<totfact> 0.10665452E+06</totfact>
</mgrwt>
</event>
<event>
 4    1  0.4635140E-002  0.5868938E+02  0.7818608E-02  0.1403416E+00
         -2   -1    0    0  501    0 -0.00000000000E+00  0.00000000000E+00  0.75166033562E+00  0.75166466103E+00  0.25500000000E-02 0.  1.
          2   -1    0    0    0  501  0.00000000000E+00 -0.00000000000E+00 -0.11456083228E+04  0.11456083228E+04  0.25500000000E-02 0.  1.
          2    1    1    2    0  502 -0.26458704876E+02 -0.21226854611E+01 -0.81681464206E+03  0.81724581880E+03  0.25500000000E-02 0.  1.
         -2    1    1    2  502    0  0.26458704876E+02  0.21226854611E+01 -0.32804202041E+03  0.32911416867E+03  0.25500000000E-02 0.  1.
<mgrwt>
<rscale>  0 0.58689380E+02</rscale>
<asrwt>0</asrwt>
<pdfrwt beam="2">  1        2 0.17624604E+00 0.58689380E+02</pdfrwt>
<pdfrwt beam="1">  1       -2 0.11564130E-03 0.58689380E+02</pdfrwt>
<totfact> 0.77595399E+05</totfact>
</mgrwt>
</event>
<event>
 4    1  0.4635140E-002  0.4484810E+02  0.7818608E-02  0.1475292E+00
          2   -1    0    0    0  501  0.00000000000E+00  0.00000000000E+00  0.87546417344E+02  0.87546417382E+02  0.25500000000E-02 0. -1.
         -2   -1    0    0  501    0 -0.00000000000E+00 -0.00000000000E+00 -0.57436736745E+01  0.57436742406E+01  0.25500000000E-02 0. -1.
          2    1    1    2    0  502  0.10374803180E+02  0.18455092026E+02  0.56273427618E+02  0.60124251556E+02  0.25500000000E-02 0.  1.
         -2    1    1    2  502    0 -0.10374803180E+02 -0.18455092026E+02  0.25529316052E+02  0.33165840066E+02  0.25500000000E-02 0.  1.
<mgrwt>
<rscale>  0 0.44848103E+02</rscale>
<asrwt>0</asrwt>
<pdfrwt beam="1">  1        2 0.13468680E-01 0.44848103E+02</pdfrwt>
<pdfrwt beam="2">  1       -2 0.88364214E-03 0.44848103E+02</pdfrwt>
<totfact> 0.76152335E+05</totfact>
</mgrwt>
</event>
<event>
 4    1  0.4635140E-002  0.5398068E+02  0.7818608E-02  0.1424982E+00
         -2   -1    0    0  501    0 -0.00000000000E+00  0.00000000000E+00  0.12399555379E+01  0.12399581599E+01  0.25500000000E-02 0. -1.
          2   -1    0    0    0  501  0.00000000000E+00 -0.00000000000E+00 -0.58750314360E+03  0.58750314360E+03  0.25500000000E-02 0. -1.
          2    1    1    2    0  502  0.23781172766E+02  0.70683310199E+01 -0.40905600596E+03  0.40980766403E+03  0.25500000000E-02 0. -1.
         -2    1    1    2  502    0 -0.23781172766E+02 -0.70683310199E+01 -0.17720718210E+03  0.17893543773E+03  0.25500000000E-02 0. -1.
<mgrwt>
<rscale>  0 0.53980684E+02</rscale>
<asrwt>0</asrwt>
<pdfrwt beam="2">  1        2 0.90384877E-01 0.53980684E+02</pdfrwt>
<pdfrwt beam="1">  1       -2 0.19076306E-03 0.53980684E+02</pdfrwt>
<totfact> 0.87069006E+05</totfact>
</mgrwt>
</event>
<event>
 4    1  0.4635140E-002  0.1319916E+03  0.7818608E-02  0.1224530E+00
         -2   -1    0    0  501    0 -0.00000000000E+00  0.00000000000E+00  0.31107796604E+02  0.31107796708E+02  0.25500000000E-02 0. -1.
          2   -1    0    0    0  501  0.00000000000E+00 -0.00000000000E+00 -0.14001134130E+03  0.14001134132E+03  0.25500000000E-02 0. -1.
          2    1    1    2    0  502  0.63977801208E+02  0.15864198852E+02 -0.58675158381E+02  0.88247413957E+02  0.25500000000E-02 0. -1.
         -2    1    1    2  502    0 -0.63977801208E+02 -0.15864198852E+02 -0.50228386314E+02  0.82871724073E+02  0.25500000000E-02 0. -1.
<mgrwt>
<rscale>  0 0.13199158E+03</rscale>
<asrwt>0</asrwt>
<pdfrwt beam="2">  1        2 0.21540206E-01 0.13199158E+03</pdfrwt>
<pdfrwt beam="1">  1       -2 0.47858149E-02 0.13199158E+03</pdfrwt>
<totfact> 0.48594045E+04</totfact>
</mgrwt>
</event>
<event>
 4    1  0.4635140E-002  0.4733312E+02  0.7818608E-02  0.1460281E+00
         -2   -1    0    0  501    0 -0.00000000000E+00  0.00000000000E+00  0.36592022489E+00  0.36592910991E+00  0.25500000000E-02 0.  1.
          2   -1    0    0    0  501  0.00000000000E+00 -0.00000000000E+00 -0.15306592762E+04  0.15306592762E+04  0.25500000000E-02 0.  1.
          2    1    1    2    0  502 -0.17789949216E+02 -0.97628074896E+01 -0.37123003687E+03  0.37178425865E+03  0.25500000000E-02 0. -1.
         -2    1    1    2  502    0  0.17789949216E+02  0.97628074896E+01 -0.11590633191E+04  0.11592409466E+04  0.25500000000E-02 0. -1.
<mgrwt>
<rscale>  0 0.47333117E+02</rscale>
<asrwt>0</asrwt>
<pdfrwt beam="2">  1        2 0.23548092E+00 0.47333117E+02</pdfrwt>
<pdfrwt beam="1">  1       -2 0.56297329E-04 0.47333117E+02</pdfrwt>
<totfact> 0.12455001E+06</totfact>
</mgrwt>
</event>
<event>
 4    1  0.4635140E-002  0.7808683E+02  0.7818608E-02  0.1334570E+00
          2   -1    0    0    0  501  0.00000000000E+00  0.00000000000E+00  0.18130451709E+04  0.18130451709E+04  0.25500000000E-02 0.  1.
         -2   -1    0    0  501    0 -0.00000000000E+00 -0.00000000000E+00 -0.84078690853E+00  0.84079077543E+00  0.25500000000E-02 0.  1.
          2    1    1    2    0  502 -0.10429256215E+02  0.29467411408E+02  0.14495290851E+04  0.14498660857E+04  0.25500000000E-02 0. -1.
         -2    1    1    2  502    0  0.10429256215E+02 -0.29467411408E+02  0.36267529881E+03  0.36401987596E+03  0.25500000000E-02 0. -1.
<mgrwt>
<rscale>  0 0.78086827E+02</rscale>
<asrwt>0</asrwt>
<pdfrwt beam="1">  1        2 0.27892904E+00 0.78086827E+02</pdfrwt>
<pdfrwt beam="2">  1       -2 0.12935259E-03 0.78086827E+02</pdfrwt>
<totfact> 0.32006432E+05</totfact>
</mgrwt>
</event>
<event>
 4    1  0.4635140E-002  0.4785322E+02  0.7818608E-02  0.1457277E+00
         -2   -1    0    0  501    0 -0.00000000000E+00  0.00000000000E+00  0.26039276845E+01  0.26039289331E+01  0.25500000000E-02 0. -1.
          2   -1    0    0    0  501  0.00000000000E+00 -0.00000000000E+00 -0.21985342405E+03  0.21985342406E+03  0.25500000000E-02 0. -1.
          2    1    1    2    0  502 -0.10071181328E+01  0.23344465008E+02 -0.84691968807E+02  0.87856177474E+02  0.25500000000E-02 0. -1.
         -2    1    1    2  502    0  0.10071181328E+01 -0.23344465008E+02 -0.13255752756E+03  0.13460117552E+03  0.25500000000E-02 0. -1.
<mgrwt>
<rscale>  0 0.47853215E+02</rscale>
<asrwt>0</asrwt>
<pdfrwt beam="2">  1        2 0.33823589E-01 0.47853215E+02</pdfrwt>
<pdfrwt beam="1">  1       -2 0.40060453E-03 0.47853215E+02</pdfrwt>
<totfact> 0.84775021E+05</totfact>
</mgrwt>
</event>
<event>
 4    1  0.4635140E-002  0.4979957E+02  0.7818608E-02  0.1446426E+00
         -2   -1    0    0  501    0 -0.00000000000E+00  0.00000000000E+00  0.67651189682E+02  0.67651189730E+02  0.25500000000E-02 0. -1.
          2   -1    0    0    0  501  0.00000000000E+00 -0.00000000000E+00 -0.91646468669E+01  0.91646472216E+01  0.25500000000E-02 0. -1.
          2    1    1    2    0  502  0.32960399288E+00 -0.20576010847E+02  0.50866811768E+02  0.54871790632E+02  0.25500000000E-02 0.  1.
         -2    1    1    2  502    0 -0.32960399288E+00  0.20576010847E+02  0.76197310466E+01  0.21944046320E+02  0.25500000000E-02 0.  1.
<mgrwt>
<rscale>  0 0.49799569E+02</rscale>
<asrwt>0</asrwt>
<pdfrwt beam="2">  1        2 0.14099457E-02 0.49799569E+02</pdfrwt>
<pdfrwt beam="1">  1       -2 0.10407876E-01 0.49799569E+02</pdfrwt>
<totfact> 0.38910378E+05</totfact>
</mgrwt>
</event>
<event>
 4    1  0.4635140E-002  0.5316869E+02  0.7818608E-02  0.1428963E+00
         -2   -1    0    0  501    0 -0.00000000000E+00  0.00000000000E+00  0.30059719631E+01  0.30059730446E+01  0.25500000000E-02 0.  1.
          2   -1    0    0    0  501  0.00000000000E+00 -0.00000000000E+00 -0.23510774088E+03  0.23510774089E+03  0.25500000000E-02 0.  1.
          2    1    1    2    0  502  0.41154115457E+01 -0.22121388072E+02 -0.17945467221E+03  0.18085981258E+03  0.25500000000E-02 0.  1.
         -2    1    1    2  502    0 -0.41154115457E+01  0.22121388072E+02 -0.52647096706E+02  0.57253901357E+02  0.25500000000E-02 0.  1.
<mgrwt>
<rscale>  0 0.53168690E+02</rscale>
<asrwt>0</asrwt>
<pdfrwt beam="2">  1        2 0.36170407E-01 0.53168690E+02</pdfrwt>
<pdfrwt beam="1">  1       -2 0.46245750E-03 0.53168690E+02</pdfrwt>
<totfact> 0.66642653E+05</totfact>
</mgrwt>
</event>
<event>
 4    1  0.4635140E-002  0.5660885E+02  0.7818608E-02  0.1412640E+00
          2   -1    0    0    0  501  0.00000000000E+00  0.00000000000E+00  0.11127181278E+01  0.11127210497E+01  0.25500000000E-02 0. -1.
         -2   -1    0    0  501    0 -0.00000000000E+00 -0.00000000000E+00 -0.71998420427E+03  0.71998420427E+03  0.25500000000E-02 0. -1.
          2    1    1    2    0  502  0.61485057090E+01 -0.24415957424E+02 -0.52414730612E+03  0.52475169521E+03  0.25500000000E-02 0.  1.
         -2    1    1    2  502    0 -0.61485057090E+01  0.24415957424E+02 -0.19472418002E+03  0.19634523011E+03  0.25500000000E-02 0.  1.
<mgrwt>
<rscale>  0 0.56608852E+02</rscale>
<asrwt>0</asrwt>
<pdfrwt beam="1">  1        2 0.17118820E-03 0.56608852E+02</pdfrwt>
<pdfrwt beam="2">  1       -2 0.11076643E+00 0.56608852E+02</pdfrwt>
<totfact> 0.88945397E+04</totfact>
</mgrwt>
</event>
<event>
 4    1  0.4635140E-002  0.6522153E+02  0.7818608E-02  0.1377140E+00
         -2   -1    0    0  501    0 -0.00000000000E+00  0.00000000000E+00  0.19564959939E+01  0.19564976557E+01  0.25500000000E-02 0. -1.
          2   -1    0    0    0  501  0.00000000000E+00 -0.00000000000E+00 -0.54355407903E+03  0.54355407903E+03  0.25500000000E-02 0. -1.
          2    1    1    2    0  502  0.18303477541E+02  0.25860993445E+02 -0.33539847481E+03  0.33689159262E+03  0.25500000000E-02 0.  1.
         -2    1    1    2  502    0 -0.18303477541E+02 -0.25860993445E+02 -0.20619910823E+03  0.20861898406E+03  0.25500000000E-02 0.  1.
<mgrwt>
<rscale>  0 0.65221525E+02</rscale>
<asrwt>0</asrwt>
<pdfrwt beam="2">  1        2 0.83623584E-01 0.65221525E+02</pdfrwt>
<pdfrwt beam="1">  1       -2 0.30099994E-03 0.65221525E+02</pdfrwt>
<totfact> 0.52828325E+05</totfact>
</mgrwt>
</event>
<event>
 4    1  0.4635140E-002  0.9596422E+02  0.7818608E-02  0.1289019E+00
         -2   -1    0    0  501    0 -0.00000000000E+00  0.00000000000E+00  0.14544245992E+01  0.14544268347E+01  0.25500000000E-02 0.  1.
          2   -1    0    0    0  501  0.00000000000E+00 -0.00000000000E+00 -0.15829497811E+04  0.15829497811E+04  0.25500000000E-02 0.  1.
          2    1    1    2    0  502  0.34949349029E+01 -0.32665552568E+02 -0.21334977797E+03  0.21586426444E+03  0.25500000000E-02 0.  1.
         -2    1    1    2  502    0 -0.34949349029E+01  0.32665552568E+02 -0.13681455785E+04  0.13685399435E+04  0.25500000000E-02 0.  1.
<mgrwt>
<rscale>  0 0.95964220E+02</rscale>
<asrwt>0</asrwt>
<pdfrwt beam="2">  1        2 0.24352936E+00 0.95964220E+02</pdfrwt>
<pdfrwt beam="1">  1       -2 0.22375907E-03 0.95964220E+02</pdfrwt>
<totfact> 0.20153155E+05</totfact>
</mgrwt>
</event>
<event>
 4    1  0.4635140E-002  0.1281701E+03  0.7818608E-02  0.1230197E+00
         -2   -1    0    0  501    0 -0.00000000000E+00  0.00000000000E+00  0.46831035407E+01  0.46831042349E+01  0.25500000000E-02 0.  1.
          2   -1    0    0    0  501  0.00000000000E+00 -0.00000000000E+00 -0.87695936114E+03  0.87695936115E+03  0.25500000000E-02 0.  1.
          2    1    1    2    0  502 -0.50106509348E+02 -0.24794024134E+02 -0.22063781743E+03  0.22761030820E+03  0.25500000000E-02 0.  1.
         -2    1    1    2  502    0  0.50106509348E+02  0.24794024134E+02 -0.65163844018E+03  0.65403215719E+03  0.25500000000E-02 0.  1.
<mgrwt>
<rscale>  0 0.12817007E+03</rscale>
<asrwt>0</asrwt>
<pdfrwt beam="2">  1        2 0.13491669E+00 0.12817007E+03</pdfrwt>
<pdfrwt beam="1">  1       -2 0.72047822E-03 0.12817007E+03</pdfrwt>
<totfact> 0.99268806E+04</totfact>
</mgrwt>
</event>
<event>
 4    1  0.4635140E-002  0.8900290E+02  0.7818608E-02  0.1305284E+00
         -2   -1    0    0  501    0 -0.00000000000E+00  0.00000000000E+00  0.93867806130E+00  0.93868152494E+00  0.25500000000E-02 0.  1.
          2   -1    0    0    0  501  0.00000000000E+00 -0.00000000000E+00 -0.21097494134E+04  0.21097494134E+04  0.25500000000E-02 0.  1.
          2    1    1    2    0  502 -0.32832395517E+02  0.29596763491E+02 -0.93245366703E+03  0.93350081723E+03  0.25500000000E-02 0.  1.
         -2    1    1    2  502    0  0.32832395517E+02 -0.29596763491E+02 -0.11763570683E+04  0.11771872777E+04  0.25500000000E-02 0.  1.
<mgrwt>
<rscale>  0 0.89002902E+02</rscale>
<asrwt>0</asrwt>
<pdfrwt beam="2">  1        2 0.32457304E+00 0.89002902E+02</pdfrwt>
<pdfrwt beam="1">  1       -2 0.14441396E-03 0.89002902E+02</pdfrwt>
<totfact> 0.19883866E+05</totfact>
</mgrwt>
</event>
<event>
 4    1  0.4635140E-002  0.7515261E+02  0.7818608E-02  0.1343399E+00
          2   -1    0    0    0  501  0.00000000000E+00  0.00000000000E+00  0.17088267052E+04  0.17088267052E+04  0.25500000000E-02 0. -1.
         -2   -1    0    0  501    0 -0.00000000000E+00 -0.00000000000E+00 -0.82628354615E+00  0.82628748093E+00  0.25500000000E-02 0. -1.
          2    1    1    2    0  502 -0.32788030091E+02  0.85686681960E+01  0.48472032632E+03  0.48590356219E+03  0.25500000000E-02 0. -1.
         -2    1    1    2  502    0  0.32788030091E+02 -0.85686681960E+01  0.12232800953E+04  0.12237494304E+04  0.25500000000E-02 0. -1.
<mgrwt>
<rscale>  0 0.75152612E+02</rscale>
<asrwt>0</asrwt>
<pdfrwt beam="1">  1        2 0.26289410E+00 0.75152612E+02</pdfrwt>
<pdfrwt beam="2">  1       -2 0.12712197E-03 0.75152612E+02</pdfrwt>
<totfact> 0.36722459E+05</totfact>
</mgrwt>
</event>
<event>
 4    1  0.4635140E-002  0.9109403E+02  0.7818608E-02  0.1300224E+00
          2   -1    0    0    0  501  0.00000000000E+00  0.00000000000E+00  0.11930867300E+04  0.11930867300E+04  0.25500000000E-02 0.  1.
         -2   -1    0    0  501    0 -0.00000000000E+00 -0.00000000000E+00 -0.17387918776E+01  0.17387937474E+01  0.25500000000E-02 0.  1.
          2    1    1    2    0  502 -0.36617057803E+02 -0.26001136608E+00  0.95094536617E+03  0.95165012792E+03  0.25500000000E-02 0.  1.
         -2    1    1    2  502    0  0.36617057803E+02  0.26001136608E+00  0.24040257194E+03  0.24317539582E+03  0.25500000000E-02 0.  1.
<mgrwt>
<rscale>  0 0.91094031E+02</rscale>
<asrwt>0</asrwt>
<pdfrwt beam="1">  1        2 0.18355266E+00 0.91094031E+02</pdfrwt>
<pdfrwt beam="2">  1       -2 0.26750535E-03 0.91094031E+02</pdfrwt>
<totfact> 0.24943416E+05</totfact>
</mgrwt>
</event>
<event>
 4    1  0.4635140E-002  0.1602567E+03  0.7818608E-02  0.1188407E+00
         -2   -1    0    0  501    0 -0.00000000000E+00  0.00000000000E+00  0.50540073089E+02  0.50540073154E+02  0.25500000000E-02 0. -1.
          2   -1    0    0    0  501  0.00000000000E+00 -0.00000000000E+00 -0.12703877738E+03  0.12703877741E+03  0.25500000000E-02 0. -1.
          2    1    1    2    0  502 -0.50301659140E+02 -0.35540983059E+02 -0.95045123135E+02  0.11325631915E+03  0.25500000000E-02 0.  1.
         -2    1    1    2  502    0  0.50301659140E+02  0.35540983059E+02  0.18546418841E+02  0.64322531413E+02  0.25500000000E-02 0.  1.
<mgrwt>
<rscale>  0 0.16025666E+03</rscale>
<asrwt>0</asrwt>
<pdfrwt beam="2">  1        2 0.19544427E-01 0.16025666E+03</pdfrwt>
<pdfrwt beam="1">  1       -2 0.77753959E-02 0.16025666E+03</pdfrwt>
<totfact> 0.26481210E+04</totfact>
</mgrwt>
</event>
<event>
 4    1  0.4635140E-002  0.4289455E+02  0.7818608E-02  0.1487930E+00
         -2   -1    0    0  501    0 -0.00000000000E+00  0.00000000000E+00  0.10064609991E+02  0.10064610314E+02  0.25500000000E-02 0.  1.
          2   -1    0    0    0  501  0.00000000000E+00 -0.00000000000E+00 -0.45703262669E+02  0.45703262740E+02  0.25500000000E-02 0.  1.
          2    1    1    2    0  502  0.10799414955E+02 -0.18529827738E+02 -0.17740896022E+02  0.27833815360E+02  0.25500000000E-02 0.  1.
         -2    1    1    2  502    0 -0.10799414955E+02  0.18529827738E+02 -0.17897756657E+02  0.27934057693E+02  0.25500000000E-02 0.  1.
<mgrwt>
<rscale>  0 0.42894546E+02</rscale>
<asrwt>0</asrwt>
<pdfrwt beam="2">  1        2 0.70312711E-02 0.42894546E+02</pdfrwt>
<pdfrwt beam="1">  1       -2 0.15484016E-02 0.42894546E+02</pdfrwt>
<totfact> 0.74577302E+05</totfact>
</mgrwt>
</event>
<event>
 4    1  0.4635140E-002  0.5409162E+02  0.7818608E-02  0.1424444E+00
         -2   -1    0    0  501    0 -0.00000000000E+00  0.00000000000E+00  0.96319522989E+00  0.96319860536E+00  0.25500000000E-02 0. -1.
          2   -1    0    0    0  501  0.00000000000E+00 -0.00000000000E+00 -0.75942496236E+03  0.75942496237E+03  0.25500000000E-02 0. -1.
          2    1    1    2    0  502 -0.25349192253E+02 -0.93240210372E+01 -0.39889550707E+03  0.39980888495E+03  0.25500000000E-02 0. -1.
         -2    1    1    2  502    0  0.25349192253E+02  0.93240210372E+01 -0.35956626006E+03  0.36057927602E+03  0.25500000000E-02 0. -1.
<mgrwt>
<rscale>  0 0.54091618E+02</rscale>
<asrwt>0</asrwt>
<pdfrwt beam="2">  1        2 0.11683413E+00 0.54091618E+02</pdfrwt>
<pdfrwt beam="1">  1       -2 0.14818475E-03 0.54091618E+02</pdfrwt>
<totfact> 0.92089081E+05</totfact>
</mgrwt>
</event>
<event>
 4    1  0.4635140E-002  0.5819519E+02  0.7818608E-02  0.1405566E+00
          2   -1    0    0    0  501  0.00000000000E+00  0.00000000000E+00  0.67098301113E+03  0.67098301113E+03  0.25500000000E-02 0. -1.
         -2   -1    0    0  501    0 -0.00000000000E+00 -0.00000000000E+00 -0.12618338280E+01  0.12618364046E+01  0.25500000000E-02 0. -1.
          2    1    1    2    0  502 -0.16757213403E+02  0.18939728493E+02  0.16860149448E+03  0.17048748184E+03  0.25500000000E-02 0.  1.
         -2    1    1    2  502    0  0.16757213403E+02 -0.18939728493E+02  0.50111968282E+03  0.50175736570E+03  0.25500000000E-02 0.  1.
<mgrwt>
<rscale>  0 0.58195186E+02</rscale>
<asrwt>0</asrwt>
<pdfrwt beam="1">  1        2 0.10322842E+00 0.58195186E+02</pdfrwt>
<pdfrwt beam="2">  1       -2 0.19412797E-03 0.58195186E+02</pdfrwt>
<totfact> 0.74659558E+05</totfact>
</mgrwt>
</event>
<event>
 4    1  0.4635140E-002  0.4853830E+02  0.7818608E-02  0.1453389E+00
         -2   -1    0    0  501    0 -0.00000000000E+00  0.00000000000E+00  0.56203077990E+00  0.56203656469E+00  0.25500000000E-02 0.  1.
          2   -1    0    0    0  501  0.00000000000E+00 -0.00000000000E+00 -0.10479648679E+04  0.10479648679E+04  0.25500000000E-02 0.  1.
          2    1    1    2    0  502 -0.19357625693E+01 -0.24016281495E+02 -0.46085990908E+03  0.46148931164E+03  0.25500000000E-02 0. -1.
         -2    1    1    2  502    0  0.19357625693E+01  0.24016281495E+02 -0.58654292807E+03  0.58703759286E+03  0.25500000000E-02 0. -1.
<mgrwt>
<rscale>  0 0.48538296E+02</rscale>
<asrwt>0</asrwt>
<pdfrwt beam="2">  1        2 0.16122380E+00 0.48538296E+02</pdfrwt>
<pdfrwt beam="1">  1       -2 0.86467558E-04 0.48538296E+02</pdfrwt>
<totfact> 0.12471670E+06</totfact>
</mgrwt>
</event>
<event>
 4    1  0.4635140E-002  0.5143860E+02  0.7818608E-02  0.1437733E+00
         -2   -1    0    0  501    0 -0.00000000000E+00  0.00000000000E+00  0.40285459332E+01  0.40285467402E+01  0.25500000000E-02 0. -1.
          2   -1    0    0    0  501  0.00000000000E+00 -0.00000000000E+00 -0.16419877991E+03  0.16419877993E+03  0.25500000000E-02 0. -1.
          2    1    1    2    0  502  0.57716307027E+01 -0.21083781435E+02 -0.12440481116E+03  0.12631070662E+03  0.25500000000E-02 0.  1.
         -2    1    1    2  502    0 -0.57716307027E+01  0.21083781435E+02 -0.35765422811E+02  0.41916620044E+02  0.25500000000E-02 0.  1.
<mgrwt>
<rscale>  0 0.51438600E+02</rscale>
<asrwt>0</asrwt>
<pdfrwt beam="2">  1        2 0.25261346E-01 0.51438600E+02</pdfrwt>
<pdfrwt beam="1">  1       -2 0.61977649E-03 0.51438600E+02</pdfrwt>
<totfact> 0.64311862E+05</totfact>
</mgrwt>
</event>
<event>
 4    1  0.4635140E-002  0.6465601E+02  0.7818608E-02  0.1379270E+00
          2   -1    0    0    0  501  0.00000000000E+00  0.00000000000E+00  0.86558993369E+03  0.86558993370E+03  0.25500000000E-02 0.  1.
         -2   -1    0    0  501    0 -0.00000000000E+00 -0.00000000000E+00 -0.12073832283E+01  0.12073859211E+01  0.25500000000E-02 0.  1.
          2    1    1    2    0  502 -0.18050261879E+02  0.93186405105E+01  0.95042127557E+02  0.97188759802E+02  0.25500000000E-02 0. -1.
         -2    1    1    2  502    0  0.18050261879E+02 -0.93186405105E+01  0.76934042291E+03  0.76960855981E+03  0.25500000000E-02 0. -1.
<mgrwt>
<rscale>  0 0.64656011E+02</rscale>
<asrwt>0</asrwt>
<pdfrwt beam="1">  1        2 0.13316830E+00 0.64656011E+02</pdfrwt>
<pdfrwt beam="2">  1       -2 0.18575062E-03 0.64656011E+02</pdfrwt>
<totfact> 0.60057168E+05</totfact>
</mgrwt>
</event>
<event>
 4    1  0.4635140E-002  0.4919442E+02  0.7818608E-02  0.1449736E+00
          2   -1    0    0    0  501  0.00000000000E+00  0.00000000000E+00  0.33979084378E+01  0.33979093947E+01  0.25500000000E-02 0. -1.
         -2   -1    0    0  501    0 -0.00000000000E+00 -0.00000000000E+00 -0.17805737635E+03  0.17805737637E+03  0.25500000000E-02 0. -1.
          2    1    1    2    0  502 -0.14582518556E+02 -0.18405832123E+02 -0.11433379242E+03  0.11672035212E+03  0.25500000000E-02 0.  1.
         -2    1    1    2  502    0  0.14582518556E+02  0.18405832123E+02 -0.60325675495E+02  0.64734933645E+02  0.25500000000E-02 0.  1.
<mgrwt>
<rscale>  0 0.49194420E+02</rscale>
<asrwt>0</asrwt>
<pdfrwt beam="1">  1        2 0.52275536E-03 0.49194420E+02</pdfrwt>
<pdfrwt beam="2">  1       -2 0.27393435E-01 0.49194420E+02</pdfrwt>
<totfact> 0.30718206E+05</totfact>
</mgrwt>
</event>
<event>
 4    1  0.4635140E-002  0.4358750E+02  0.7818608E-02  0.1483357E+00
          2   -1    0    0    0  501  0.00000000000E+00  0.00000000000E+00  0.16504677981E+03  0.16504677983E+03  0.25500000000E-02 0.  1.
         -2   -1    0    0  501    0 -0.00000000000E+00 -0.00000000000E+00 -0.28777750174E+01  0.28777761472E+01  0.25500000000E-02 0.  1.
          2    1    1    2    0  502  0.19993745701E+02  0.12373077076E+01  0.48013523712E+02  0.52024794697E+02  0.25500000000E-02 0. -1.
         -2    1    1    2  502    0 -0.19993745701E+02 -0.12373077076E+01  0.11415548108E+03  0.11589976128E+03  0.25500000000E-02 0. -1.
<mgrwt>
<rscale>  0 0.43587503E+02</rscale>
<asrwt>0</asrwt>
<pdfrwt beam="1">  1        2 0.25391818E-01 0.43587503E+02</pdfrwt>
<pdfrwt beam="2">  1       -2 0.44273461E-03 0.43587503E+02</pdfrwt>
<totfact> 0.97354452E+05</totfact>
</mgrwt>
</event>
<event>
 4    1  0.4635140E-002  0.5358400E+02  0.7818608E-02  0.1426916E+00
         -2   -1    0    0  501    0 -0.00000000000E+00  0.00000000000E+00  0.29021491441E+02  0.29021491553E+02  0.25500000000E-02 0.  1.
          2   -1    0    0    0  501  0.00000000000E+00 -0.00000000000E+00 -0.24733779379E+02  0.24733779510E+02  0.25500000000E-02 0.  1.
          2    1    1    2    0  502  0.26198269961E+02  0.48566203271E+01  0.49590789954E+01  0.27102187752E+02  0.25500000000E-02 0.  1.
         -2    1    1    2  502    0 -0.26198269961E+02 -0.48566203271E+01 -0.67136693278E+00  0.26653083312E+02  0.25500000000E-02 0.  1.
<mgrwt>
<rscale>  0 0.53583997E+02</rscale>
<asrwt>0</asrwt>
<pdfrwt beam="2">  1        2 0.38051968E-02 0.53583997E+02</pdfrwt>
<pdfrwt beam="1">  1       -2 0.44648449E-02 0.53583997E+02</pdfrwt>
<totfact> 0.37876764E+05</totfact>
</mgrwt>
</event>
<event>
 4    1  0.4635140E-002  0.5959852E+02  0.7818608E-02  0.1399524E+00
         -2   -1    0    0  501    0 -0.00000000000E+00  0.00000000000E+00  0.29227043619E+00  0.29228156009E+00  0.25500000000E-02 0. -1.
          2   -1    0    0    0  501  0.00000000000E+00 -0.00000000000E+00 -0.30382098436E+04  0.30382098436E+04  0.25500000000E-02 0. -1.
          2    1    1    2    0  502  0.17696664639E+02 -0.22717321695E+02 -0.11281920816E+04  0.11285595339E+04  0.25500000000E-02 0. -1.
         -2    1    1    2  502    0 -0.17696664639E+02  0.22717321695E+02 -0.19097254916E+04  0.19099425913E+04  0.25500000000E-02 0. -1.
<mgrwt>
<rscale>  0 0.59598517E+02</rscale>
<asrwt>0</asrwt>
<pdfrwt beam="2">  1        2 0.46739161E+00 0.59598517E+02</pdfrwt>
<pdfrwt beam="1">  1       -2 0.44967972E-04 0.59598517E+02</pdfrwt>
<totfact> 0.30084257E+05</totfact>
</mgrwt>
</event>
<event>
 4    1  0.4635140E-002  0.6769383E+02  0.7818608E-02  0.1368116E+00
         -2   -1    0    0  501    0 -0.00000000000E+00  0.00000000000E+00  0.86720429030E+00  0.86720803941E+00  0.25500000000E-02 0.  1.
          2   -1    0    0    0  501  0.00000000000E+00 -0.00000000000E+00 -0.13210395079E+04  0.13210395079E+04  0.25500000000E-02 0.  1.
          2    1    1    2    0  502  0.28887178740E+02  0.51376993323E+01 -0.33056560958E+03  0.33186516433E+03  0.25500000000E-02 0. -1.
         -2    1    1    2  502    0 -0.28887178740E+02 -0.51376993323E+01 -0.98960669406E+03  0.99004155165E+03  0.25500000000E-02 0. -1.
<mgrwt>
<rscale>  0 0.67693829E+02</rscale>
<asrwt>0</asrwt>
<pdfrwt beam="2">  1        2 0.20323524E+00 0.67693829E+02</pdfrwt>
<pdfrwt beam="1">  1       -2 0.13341739E-03 0.67693829E+02</pdfrwt>
<totfact> 0.53028162E+05</totfact>
</mgrwt>
</event>
<event>
 4    1  0.4635140E-002  0.4347408E+02  0.7818608E-02  0.1484099E+00
          2   -1    0    0    0  501  0.00000000000E+00  0.00000000000E+00  0.22379044278E+01  0.22379058807E+01  0.25500000000E-02 0.  1.
         -2   -1    0    0  501    0 -0.00000000000E+00 -0.00000000000E+00 -0.21113444519E+03  0.21113444521E+03  0.25500000000E-02 0.  1.
          2    1    1    2    0  502 -0.21192143258E+02 -0.14864493703E+01 -0.12703717986E+03  0.12880124821E+03  0.25500000000E-02 0.  1.
         -2    1    1    2  502    0  0.21192143258E+02  0.14864493703E+01 -0.81859360908E+02  0.84571102880E+02  0.25500000000E-02 0.  1.
<mgrwt>
<rscale>  0 0.43474078E+02</rscale>
<asrwt>0</asrwt>
<pdfrwt beam="1">  1        2 0.34429327E-03 0.43474078E+02</pdfrwt>
<pdfrwt beam="2">  1       -2 0.32482207E-01 0.43474078E+02</pdfrwt>
<totfact> 0.38773722E+05</totfact>
</mgrwt>
</event>
<event>
 4    1  0.4635140E-002  0.1254253E+03  0.7818608E-02  0.1234406E+00
         -2   -1    0    0  501    0 -0.00000000000E+00  0.00000000000E+00  0.78513007734E+03  0.78513007735E+03  0.25500000000E-02 0. -1.
          2   -1    0    0    0  501  0.00000000000E+00 -0.00000000000E+00 -0.50092031470E+01  0.50092037961E+01  0.25500000000E-02 0. -1.
          2    1    1    2    0  502  0.19595127538E+02  0.28223776610E+02  0.72055812620E+03  0.72137685285E+03  0.25500000000E-02 0. -1.
         -2    1    1    2  502    0 -0.19595127538E+02 -0.28223776610E+02  0.59562747996E+02  0.68762428293E+02  0.25500000000E-02 0. -1.
<mgrwt>
<rscale>  0 0.12542530E+03</rscale>
<asrwt>0</asrwt>
<pdfrwt beam="2">  1        2 0.77064714E-03 0.12542530E+03</pdfrwt>
<pdfrwt beam="1">  1       -2 0.12078917E+00 0.12542530E+03</pdfrwt>
<totfact> 0.10519780E+04</totfact>
</mgrwt>
</event>
<event>
 4    1  0.4635140E-002  0.4097015E+02  0.7818608E-02  0.1501191E+00
          2   -1    0    0    0  501  0.00000000000E+00  0.00000000000E+00  0.35476262138E+03  0.35476262139E+03  0.25500000000E-02 0.  1.
         -2   -1    0    0  501    0 -0.00000000000E+00 -0.00000000000E+00 -0.11828692428E+01  0.11828719915E+01  0.25500000000E-02 0.  1.
          2    1    1    2    0  502 -0.19736598559E+02 -0.49590037210E+01  0.15639038723E+03  0.15770884017E+03  0.25500000000E-02 0. -1.
         -2    1    1    2  502    0  0.19736598559E+02  0.49590037210E+01  0.19718936490E+03  0.19823665321E+03  0.25500000000E-02 0. -1.
<mgrwt>
<rscale>  0 0.40970149E+02</rscale>
<asrwt>0</asrwt>
<pdfrwt beam="1">  1        2 0.54578844E-01 0.40970149E+02</pdfrwt>
<pdfrwt beam="2">  1       -2 0.18198017E-03 0.40970149E+02</pdfrwt>
<totfact> 0.14615799E+06</totfact>
</mgrwt>
</event>
<event>
 4    1  0.4635140E-002  0.5767060E+02  0.7818608E-02  0.1407876E+00
          2   -1    0    0    0  501  0.00000000000E+00  0.00000000000E+00  0.11668969163E+03  0.11668969166E+03  0.25500000000E-02 0.  1.
         -2   -1    0    0  501    0 -0.00000000000E+00 -0.00000000000E+00 -0.71255190935E+01  0.71255195497E+01  0.25500000000E-02 0.  1.
          2    1    1    2    0  502 -0.29467102331E+01 -0.25301992545E+02  0.83793623647E+02  0.87579936620E+02  0.25500000000E-02 0.  1.
         -2    1    1    2  502    0  0.29467102331E+01  0.25301992545E+02  0.25770548894E+02  0.36235274592E+02  0.25500000000E-02 0.  1.
<mgrwt>
<rscale>  0 0.57670604E+02</rscale>
<asrwt>0</asrwt>
<pdfrwt beam="1">  1        2 0.17952259E-01 0.57670604E+02</pdfrwt>
<pdfrwt beam="2">  1       -2 0.10962338E-02 0.57670604E+02</pdfrwt>
<totfact> 0.43374131E+05</totfact>
</mgrwt>
</event>
<event>
 4    1  0.4635140E-002  0.4794709E+02  0.7818608E-02  0.1456740E+00
         -2   -1    0    0  501    0 -0.00000000000E+00  0.00000000000E+00  0.17705210555E+01  0.17705228918E+01  0.25500000000E-02 0. -1.
          2   -1    0    0    0  501  0.00000000000E+00 -0.00000000000E+00 -0.32461093792E+03  0.32461093793E+03  0.25500000000E-02 0. -1.
          2    1    1    2    0  502  0.15802656050E+02  0.16217782780E+02 -0.21501534655E+03  0.21620439329E+03  0.25500000000E-02 0.  1.
         -2    1    1    2  502    0 -0.15802656050E+02 -0.16217782780E+02 -0.10782507031E+03  0.11017706753E+03  0.25500000000E-02 0.  1.
<mgrwt>
<rscale>  0 0.47947088E+02</rscale>
<asrwt>0</asrwt>
<pdfrwt beam="2">  1        2 0.49940097E-01 0.47947088E+02</pdfrwt>
<pdfrwt beam="1">  1       -2 0.27238825E-03 0.47947088E+02</pdfrwt>
<totfact> 0.96477642E+05</totfact>
</mgrwt>
</event>
<event>
 4    1  0.4635140E-002  0.4928554E+02  0.7818608E-02  0.1449234E+00
         -2   -1    0    0  501    0 -0.00000000000E+00  0.00000000000E+00  0.11293921122E+01  0.11293949910E+01  0.25500000000E-02 0. -1.
          2   -1    0    0    0  501  0.00000000000E+00 -0.00000000000E+00 -0.53769223829E+03  0.53769223829E+03  0.25500000000E-02 0. -1.
          2    1    1    2    0  502 -0.22299465350E+02 -0.84735500220E+01 -0.20071185560E+03  0.20212450665E+03  0.25500000000E-02 0. -1.
         -2    1    1    2  502    0  0.22299465350E+02  0.84735500220E+01 -0.33585099057E+03  0.33669712663E+03  0.25500000000E-02 0. -1.
<mgrwt>
<rscale>  0 0.49285541E+02</rscale>
<asrwt>0</asrwt>
<pdfrwt beam="2">  1        2 0.82721679E-01 0.49285541E+02</pdfrwt>
<pdfrwt beam="1">  1       -2 0.17375328E-03 0.49285541E+02</pdfrwt>
<totfact> 0.10638526E+06</totfact>
</mgrwt>
</event>
<event>
 4    1  0.4635140E-002  0.6130285E+02  0.7818608E-02  0.1392444E+00
          2   -1    0    0    0  501  0.00000000000E+00  0.00000000000E+00  0.26086381933E+03  0.26086381934E+03  0.25500000000E-02 0.  1.
         -2   -1    0    0  501    0 -0.00000000000E+00 -0.00000000000E+00 -0.36015335742E+01  0.36015344769E+01  0.25500000000E-02 0.  1.
          2    1    1    2    0  502  0.13848798218E+02  0.24502473919E+02  0.18099871077E+03  0.18317394396E+03  0.25500000000E-02 0. -1.
         -2    1    1    2  502    0 -0.13848798218E+02 -0.24502473919E+02  0.76263574986E+02  0.81291409856E+02  0.25500000000E-02 0. -1.
<mgrwt>
<rscale>  0 0.61302852E+02</rscale>
<asrwt>0</asrwt>
<pdfrwt beam="1">  1        2 0.40132907E-01 0.61302852E+02</pdfrwt>
<pdfrwt beam="2">  1       -2 0.55408200E-03 0.61302852E+02</pdfrwt>
<totfact> 0.48160021E+05</totfact>
</mgrwt>
</event>
<event>
 4    1  0.4635140E-002  0.9705499E+02  0.7818608E-02  0.1286614E+00
         -2   -1    0    0  501    0 -0.00000000000E+00  0.00000000000E+00  0.20852944256E+01  0.20852959847E+01  0.25500000000E-02 0. -1.
          2   -1    0    0    0  501  0.00000000000E+00 -0.00000000000E+00 -0.11292971409E+04  0.11292971409E+04  0.25500000000E-02 0. -1.
          2    1    1    2    0  502 -0.38133979439E+02 -0.29162441752E+02 -0.64625611961E+03  0.64803674320E+03  0.25500000000E-02 0. -1.
         -2    1    1    2  502    0  0.38133979439E+02  0.29162441752E+02 -0.48095572690E+03  0.48334569373E+03  0.25500000000E-02 0. -1.
<mgrwt>
<rscale>  0 0.97054993E+02</rscale>
<asrwt>0</asrwt>
<pdfrwt beam="2">  1        2 0.17373753E+00 0.97054993E+02</pdfrwt>
<pdfrwt beam="1">  1       -2 0.32081555E-03 0.97054993E+02</pdfrwt>
<totfact> 0.21190469E+05</totfact>
</mgrwt>
</event>
<event>
 4    1  0.4635140E-002  0.5859180E+02  0.7818608E-02  0.1403838E+00
         -2   -1    0    0  501    0 -0.00000000000E+00  0.00000000000E+00  0.14192330804E+01  0.14192353712E+01  0.25500000000E-02 0. -1.
          2   -1    0    0    0  501  0.00000000000E+00 -0.00000000000E+00 -0.60472732635E+03  0.60472732635E+03  0.25500000000E-02 0. -1.
          2    1    1    2    0  502  0.28431426596E+02  0.69113886241E+01 -0.31677511792E+03  0.31812354307E+03  0.25500000000E-02 0.  1.
         -2    1    1    2  502    0 -0.28431426596E+02 -0.69113886241E+01 -0.28653297534E+03  0.28802301866E+03  0.25500000000E-02 0.  1.
<mgrwt>
<rscale>  0 0.58591799E+02</rscale>
<asrwt>0</asrwt>
<pdfrwt beam="2">  1        2 0.93034767E-01 0.58591799E+02</pdfrwt>
<pdfrwt beam="1">  1       -2 0.21834421E-03 0.58591799E+02</pdfrwt>
<totfact> 0.71466841E+05</totfact>
</mgrwt>
</event>
<event>
 4    1  0.4635140E-002  0.5625349E+02  0.7818608E-02  0.1414262E+00
         -2   -1    0    0  501    0 -0.00000000000E+00  0.00000000000E+00  0.22832768248E+00  0.22834192144E+00  0.25500000000E-02 0.  1.
          2   -1    0    0    0  501  0.00000000000E+00 -0.00000000000E+00 -0.34647097020E+04  0.34647097020E+04  0.25500000000E-02 0.  1.
          2    1    1    2    0  502 -0.13388123317E+02 -0.24676391275E+02 -0.18379918831E+04  0.18382062801E+04  0.25500000000E-02 0. -1.
         -2    1    1    2  502    0  0.13388123317E+02  0.24676391275E+02 -0.16264894912E+04  0.16267317638E+04  0.25500000000E-02 0. -1.
<mgrwt>
<rscale>  0 0.56253491E+02</rscale>
<asrwt>0</asrwt>
<pdfrwt beam="2">  1        2 0.53299016E+00 0.56253491E+02</pdfrwt>
<pdfrwt beam="1">  1       -2 0.35131206E-04 0.56253491E+02</pdfrwt>
<totfact> 0.23366508E+05</totfact>
</mgrwt>
</event>
<event>
 4    1  0.4635140E-002  0.6459556E+02  0.7818608E-02  0.1379499E+00
         -2   -1    0    0  501    0 -0.00000000000E+00  0.00000000000E+00  0.10584233602E+02  0.10584233909E+02  0.25500000000E-02 0. -1.
          2   -1    0    0    0  501  0.00000000000E+00 -0.00000000000E+00 -0.98556647925E+02  0.98556647958E+02  0.25500000000E-02 0. -1.
          2    1    1    2    0  502 -0.10295988918E+02 -0.22565726766E+02 -0.90343926447E+01  0.26397720910E+02  0.25500000000E-02 0.  1.
         -2    1    1    2  502    0  0.10295988918E+02  0.22565726766E+02 -0.78938021678E+02  0.82743160957E+02  0.25500000000E-02 0.  1.
<mgrwt>
<rscale>  0 0.64595560E+02</rscale>
<asrwt>0</asrwt>
<pdfrwt beam="2">  1        2 0.15162561E-01 0.64595560E+02</pdfrwt>
<pdfrwt beam="1">  1       -2 0.16283437E-02 0.64595560E+02</pdfrwt>
<totfact> 0.30826168E+05</totfact>
</mgrwt>
</event>
<event>
 4    1  0.4635140E-002  0.4498826E+02  0.7818608E-02  0.1474415E+00
          2   -1    0    0    0  501  0.00000000000E+00  0.00000000000E+00  0.12533452505E+04  0.12533452505E+04  0.25500000000E-02 0. -1.
         -2   -1    0    0  501    0 -0.00000000000E+00 -0.00000000000E+00 -0.40370419194E+00  0.40371224541E+00  0.25500000000E-02 0. -1.
          2    1    1    2    0  502 -0.13567498665E+02 -0.16998095658E+02  0.78649802725E+03  0.78679867765E+03  0.25500000000E-02 0.  1.
         -2    1    1    2  502    0  0.13567498665E+02  0.16998095658E+02  0.46644351907E+03  0.46695028511E+03  0.25500000000E-02 0.  1.
<mgrwt>
<rscale>  0 0.44988255E+02</rscale>
<asrwt>0</asrwt>
<pdfrwt beam="1">  1        2 0.19282405E+00 0.44988255E+02</pdfrwt>
<pdfrwt beam="2">  1       -2 0.62108407E-04 0.44988255E+02</pdfrwt>
<totfact> 0.14855345E+06</totfact>
</mgrwt>
</event>
<event>
 4    1  0.4635140E-002  0.6387953E+02  0.7818608E-02  0.1382237E+00
          2   -1    0    0    0  501  0.00000000000E+00  0.00000000000E+00  0.19676206974E+03  0.19676206976E+03  0.25500000000E-02 0.  1.
         -2   -1    0    0  501    0 -0.00000000000E+00 -0.00000000000E+00 -0.51846801020E+01  0.51846807291E+01  0.25500000000E-02 0.  1.
          2    1    1    2    0  502  0.21855680028E+02 -0.55383502664E+01  0.16730864155E+03  0.16882098690E+03  0.25500000000E-02 0. -1.
         -2    1    1    2  502    0 -0.21855680028E+02  0.55383502664E+01  0.24268748093E+02  0.33125763594E+02  0.25500000000E-02 0. -1.
<mgrwt>
<rscale>  0 0.63879526E+02</rscale>
<asrwt>0</asrwt>
<pdfrwt beam="1">  1        2 0.30271089E-01 0.63879526E+02</pdfrwt>
<pdfrwt beam="2">  1       -2 0.79764310E-03 0.63879526E+02</pdfrwt>
<totfact> 0.39280344E+05</totfact>
</mgrwt>
</event>
<event>
 4    1  0.4635140E-002  0.9436373E+02  0.7818608E-02  0.1292616E+00
         -2   -1    0    0  501    0 -0.00000000000E+00  0.00000000000E+00  0.76830610892E+00  0.76831034062E+00  0.25500000000E-02 0. -1.
          2   -1    0    0    0  501  0.00000000000E+00 -0.00000000000E+00 -0.28974417656E+04  0.28974417656E+04  0.25500000000E-02 0. -1.
          2    1    1    2    0  502 -0.31747883360E+02 -0.21134790999E+02 -0.23014340932E+04  0.23017500935E+04  0.25500000000E-02 0. -1.
         -2    1    1    2  502    0  0.31747883360E+02  0.21134790999E+02 -0.59523936632E+03  0.59645998249E+03  0.25500000000E-02 0. -1.
<mgrwt>
<rscale>  0 0.94363729E+02</rscale>
<asrwt>0</asrwt>
<pdfrwt beam="2">  1        2 0.44575152E+00 0.94363729E+02</pdfrwt>
<pdfrwt beam="1">  1       -2 0.11820359E-03 0.94363729E+02</pdfrwt>
<totfact> 0.10127173E+05</totfact>
</mgrwt>
</event>
<event>
 4    1  0.4635140E-002  0.4186110E+02  0.7818608E-02  0.1494946E+00
          2   -1    0    0    0  501  0.00000000000E+00  0.00000000000E+00  0.12570198303E+04  0.12570198303E+04  0.25500000000E-02 0. -1.
         -2   -1    0    0  501    0 -0.00000000000E+00 -0.00000000000E+00 -0.34850844303E+00  0.34851777195E+00  0.25500000000E-02 0. -1.
          2    1    1    2    0  502 -0.20088725297E+02  0.53402541737E+01  0.70198793138E+03  0.70229561511E+03  0.25500000000E-02 0. -1.
         -2    1    1    2  502    0  0.20088725297E+02 -0.53402541737E+01  0.55468339043E+03  0.55507273292E+03  0.25500000000E-02 0. -1.
<mgrwt>
<rscale>  0 0.41861098E+02</rscale>
<asrwt>0</asrwt>
<pdfrwt beam="1">  1        2 0.19338930E+00 0.41861098E+02</pdfrwt>
<pdfrwt beam="2">  1       -2 0.53616948E-04 0.41861098E+02</pdfrwt>
<totfact> 0.17693949E+06</totfact>
</mgrwt>
</event>
<event>
 4    1  0.4635140E-002  0.5330376E+02  0.7818608E-02  0.1428295E+00
         -2   -1    0    0  501    0 -0.00000000000E+00  0.00000000000E+00  0.12629750007E+01  0.12629775749E+01  0.25500000000E-02 0.  1.
          2   -1    0    0    0  501  0.00000000000E+00 -0.00000000000E+00 -0.56241960753E+03  0.56241960754E+03  0.25500000000E-02 0.  1.
          2    1    1    2    0  502  0.26380115166E+02  0.23676646725E+01 -0.31195982699E+03  0.31308217767E+03  0.25500000000E-02 0.  1.
         -2    1    1    2  502    0 -0.26380115166E+02 -0.23676646725E+01 -0.24919680554E+03  0.25060040744E+03  0.25500000000E-02 0.  1.
<mgrwt>
<rscale>  0 0.53303757E+02</rscale>
<asrwt>0</asrwt>
<pdfrwt beam="2">  1        2 0.86525894E-01 0.53303757E+02</pdfrwt>
<pdfrwt beam="1">  1       -2 0.19430449E-03 0.53303757E+02</pdfrwt>
<totfact> 0.88750075E+05</totfact>
</mgrwt>
</event>
<event>
 4    1  0.4635140E-002  0.4518219E+02  0.7818608E-02  0.1473207E+00
         -2   -1    0    0  501    0 -0.00000000000E+00  0.00000000000E+00  0.30586171675E+01  0.30586182305E+01  0.25500000000E-02 0. -1.
          2   -1    0    0    0  501  0.00000000000E+00 -0.00000000000E+00 -0.16685887938E+03  0.16685887940E+03  0.25500000000E-02 0. -1.
          2    1    1    2    0  502 -0.20393969000E+02 -0.80242504051E+01 -0.10251729241E+03  0.10483366737E+03  0.25500000000E-02 0.  1.
         -2    1    1    2  502    0  0.20393969000E+02  0.80242504051E+01 -0.61282969810E+02  0.65083830261E+02  0.25500000000E-02 0.  1.
<mgrwt>
<rscale>  0 0.45182188E+02</rscale>
<asrwt>0</asrwt>
<pdfrwt beam="2">  1        2 0.25670590E-01 0.45182188E+02</pdfrwt>
<pdfrwt beam="1">  1       -2 0.47055670E-03 0.45182188E+02</pdfrwt>
<totfact> 0.89375640E+05</totfact>
</mgrwt>
</event>
<event>
 4    1  0.4635140E-002  0.1266990E+03  0.7818608E-02  0.1232438E+00
         -2   -1    0    0  501    0 -0.00000000000E+00  0.00000000000E+00  0.24052759924E+01  0.24052773442E+01  0.25500000000E-02 0.  1.
          2   -1    0    0    0  501  0.00000000000E+00 -0.00000000000E+00 -0.16684804990E+04  0.16684804990E+04  0.25500000000E-02 0.  1.
          2    1    1    2    0  502 -0.59286861178E+02  0.11368801353E+02 -0.57971582715E+03  0.58285042833E+03  0.25500000000E-02 0. -1.
         -2    1    1    2  502    0  0.59286861178E+02 -0.11368801353E+02 -0.10863593958E+04  0.10880353480E+04  0.25500000000E-02 0. -1.
<mgrwt>
<rscale>  0 0.12669897E+03</rscale>
<asrwt>0</asrwt>
<pdfrwt beam="2">  1        2 0.25668838E+00 0.12669897E+03</pdfrwt>
<pdfrwt beam="1">  1       -2 0.37004390E-03 0.12669897E+03</pdfrwt>
<totfact> 0.93067076E+04</totfact>
</mgrwt>
</event>
<event>
 4    1  0.4635140E-002  0.9527946E+02  0.7818608E-02  0.1290548E+00
         -2   -1    0    0  501    0 -0.00000000000E+00  0.00000000000E+00  0.24394321773E+02  0.24394321906E+02  0.25500000000E-02 0.  1.
          2   -1    0    0    0  501  0.00000000000E+00 -0.00000000000E+00 -0.93035735363E+02  0.93035735398E+02  0.25500000000E-02 0.  1.
          2    1    1    2    0  502 -0.21653689887E+02  0.41532809971E+02 -0.23598334675E+02  0.52447478450E+02  0.25500000000E-02 0.  1.
         -2    1    1    2  502    0  0.21653689887E+02 -0.41532809971E+02 -0.45043078916E+02  0.64982578854E+02  0.25500000000E-02 0.  1.
<mgrwt>
<rscale>  0 0.95279456E+02</rscale>
<asrwt>0</asrwt>
<pdfrwt beam="2">  1        2 0.14313190E-01 0.95279456E+02</pdfrwt>
<pdfrwt beam="1">  1       -2 0.37529726E-02 0.95279456E+02</pdfrwt>
<totfact> 0.10624608E+05</totfact>
</mgrwt>
</event>
<event>
 4    1  0.4635140E-002  0.4165167E+02  0.7818608E-02  0.1496397E+00
          2   -1    0    0    0  501  0.00000000000E+00  0.00000000000E+00  0.20272991612E+04  0.20272991612E+04  0.25500000000E-02 0. -1.
         -2   -1    0    0  501    0 -0.00000000000E+00 -0.00000000000E+00 -0.21392992346E+00  0.21394512065E+00  0.25500000000E-02 0. -1.
          2    1    1    2    0  502 -0.12302880816E+02  0.16743910279E+02  0.10823137007E+04  0.10825131251E+04  0.25500000000E-02 0.  1.
         -2    1    1    2  502    0  0.12302880816E+02 -0.16743910279E+02  0.94477153057E+03  0.94499998116E+03  0.25500000000E-02 0.  1.
<mgrwt>
<rscale>  0 0.41651668E+02</rscale>
<asrwt>0</asrwt>
<pdfrwt beam="1">  1        2 0.31187834E+00 0.41651668E+02</pdfrwt>
<pdfrwt beam="2">  1       -2 0.32914926E-04 0.41651668E+02</pdfrwt>
<totfact> 0.14287300E+06</totfact>
</mgrwt>
</event>
<event>
 4    1  0.4635140E-002  0.4999456E+02  0.7818608E-02  0.1445371E+00
         -2   -1    0    0  501    0 -0.00000000000E+00  0.00000000000E+00  0.55061738317E+00  0.55062328787E+00  0.25500000000E-02 0. -1.
          2   -1    0    0    0  501  0.00000000000E+00 -0.00000000000E+00 -0.11348364013E+04  0.11348364013E+04  0.25500000000E-02 0. -1.
          2    1    1    2    0  502 -0.14009304850E+02 -0.17901681761E+02 -0.33098599477E+03  0.33176566967E+03  0.25500000000E-02 0. -1.
         -2    1    1    2  502    0  0.14009304850E+02  0.17901681761E+02 -0.80329978914E+03  0.80362135491E+03  0.25500000000E-02 0. -1.
<mgrwt>
<rscale>  0 0.49994560E+02</rscale>
<asrwt>0</asrwt>
<pdfrwt beam="2">  1        2 0.17458834E+00 0.49994560E+02</pdfrwt>
<pdfrwt beam="1">  1       -2 0.84711729E-04 0.49994560E+02</pdfrwt>
<totfact> 0.11575685E+06</totfact>
</mgrwt>
</event>
<event>
 4    1  0.4635140E-002  0.5688280E+02  0.7818608E-02  0.1411399E+00
         -2   -1    0    0  501    0 -0.00000000000E+00  0.00000000000E+00  0.49609108001E+00  0.49609763370E+00  0.25500000000E-02 0. -1.
          2   -1    0    0    0  501  0.00000000000E+00 -0.00000000000E+00 -0.16305630296E+04  0.16305630296E+04  0.25500000000E-02 0. -1.
          2    1    1    2    0  502 -0.22881986218E+02  0.62937422798E+01 -0.12645089893E+04  0.12647316635E+04  0.25500000000E-02 0. -1.
         -2    1    1    2  502    0  0.22881986218E+02 -0.62937422798E+01 -0.36555794917E+03  0.36632746374E+03  0.25500000000E-02 0. -1.
<mgrwt>
<rscale>  0 0.56882796E+02</rscale>
<asrwt>0</asrwt>
<pdfrwt beam="2">  1        2 0.25085156E+00 0.56882796E+02</pdfrwt>
<pdfrwt beam="1">  1       -2 0.76323514E-04 0.56882796E+02</pdfrwt>
<totfact> 0.76660295E+05</totfact>
</mgrwt>
</event>
<event>
 4    1  0.4635140E-002  0.6889964E+02  0.7818608E-02  0.1363875E+00
         -2   -1    0    0  501    0 -0.00000000000E+00  0.00000000000E+00  0.58935792619E+02  0.58935792674E+02  0.25500000000E-02 0.  1.
          2   -1    0    0    0  501  0.00000000000E+00 -0.00000000000E+00 -0.20136999452E+02  0.20136999614E+02  0.25500000000E-02 0.  1.
          2    1    1    2    0  502 -0.16530302358E+02  0.29112831266E+02  0.28721705331E+02  0.44110590610E+02  0.25500000000E-02 0. -1.
         -2    1    1    2  502    0  0.16530302358E+02 -0.29112831266E+02  0.10077087836E+02  0.34962201677E+02  0.25500000000E-02 0. -1.
<mgrwt>
<rscale>  0 0.68899638E+02</rscale>
<asrwt>0</asrwt>
<pdfrwt beam="2">  1        2 0.30979999E-02 0.68899638E+02</pdfrwt>
<pdfrwt beam="1">  1       -2 0.90670450E-02 0.68899638E+02</pdfrwt>
<totfact> 0.18188283E+05</totfact>
</mgrwt>
</event>
<event>
 4    1  0.4635140E-002  0.1100436E+03  0.7818608E-02  0.1260489E+00
          2   -1    0    0    0  501  0.00000000000E+00  0.00000000000E+00  0.11754985771E+02  0.11754986047E+02  0.25500000000E-02 0. -1.
         -2   -1    0    0  501    0 -0.00000000000E+00 -0.00000000000E+00 -0.25754151203E+03  0.25754151204E+03  0.25500000000E-02 0. -1.
          2    1    1    2    0  502  0.42513899050E+02  0.17892853400E+01 -0.20825616163E+03  0.21255884366E+03  0.25500000000E-02 0. -1.
         -2    1    1    2  502    0 -0.42513899050E+02 -0.17892853400E+01 -0.37530364627E+02  0.56737654428E+02  0.25500000000E-02 0. -1.
<mgrwt>
<rscale>  0 0.11004357E+03</rscale>
<asrwt>0</asrwt>
<pdfrwt beam="1">  1        2 0.18084596E-02 0.11004357E+03</pdfrwt>
<pdfrwt beam="2">  1       -2 0.39621767E-01 0.11004357E+03</pdfrwt>
<totfact> 0.34086314E+04</totfact>
</mgrwt>
</event>
<event>
 4    1  0.4635140E-002  0.4254558E+02  0.7818608E-02  0.1490273E+00
          2   -1    0    0    0  501  0.00000000000E+00  0.00000000000E+00  0.15683439354E+04  0.15683439354E+04  0.25500000000E-02 0. -1.
         -2   -1    0    0  501    0 -0.00000000000E+00 -0.00000000000E+00 -0.28853540652E+00  0.28854667442E+00  0.25500000000E-02 0. -1.
          2    1    1    2    0  502 -0.55979625095E+01  0.20327407340E+02  0.67980435902E+03  0.68013124265E+03  0.25500000000E-02 0.  1.
         -2    1    1    2  502    0  0.55979625095E+01 -0.20327407340E+02  0.88825104098E+03  0.88850123944E+03  0.25500000000E-02 0.  1.
<mgrwt>
<rscale>  0 0.42545580E+02</rscale>
<asrwt>0</asrwt>
<pdfrwt beam="1">  1        2 0.24128780E+00 0.42545580E+02</pdfrwt>
<pdfrwt beam="2">  1       -2 0.44390172E-04 0.42545580E+02</pdfrwt>
<totfact> 0.16015566E+06</totfact>
</mgrwt>
</event>
<event>
 4    1  0.4635140E-002  0.4246921E+02  0.7818608E-02  0.1490789E+00
         -2   -1    0    0  501    0 -0.00000000000E+00  0.00000000000E+00  0.11145337009E+01  0.11145366181E+01  0.25500000000E-02 0.  1.
          2   -1    0    0    0  501  0.00000000000E+00 -0.00000000000E+00 -0.40457094340E+03  0.40457094340E+03  0.25500000000E-02 0.  1.
          2    1    1    2    0  502 -0.96713419334E+01  0.18591931820E+02 -0.16903456399E+03  0.17032873689E+03  0.25500000000E-02 0.  1.
         -2    1    1    2  502    0  0.96713419334E+01 -0.18591931820E+02 -0.23442184571E+03  0.23535674313E+03  0.25500000000E-02 0.  1.
<mgrwt>
<rscale>  0 0.42469214E+02</rscale>
<asrwt>0</asrwt>
<pdfrwt beam="2">  1        2 0.62241567E-01 0.42469214E+02</pdfrwt>
<pdfrwt beam="1">  1       -2 0.17146727E-03 0.42469214E+02</pdfrwt>
<totfact> 0.14000270E+06</totfact>
</mgrwt>
</event>
<event>
 4    1  0.4635140E-002  0.4713056E+02  0.7818608E-02  0.1461463E+00
          2   -1    0    0    0  501  0.00000000000E+00  0.00000000000E+00  0.99165076576E+03  0.99165076577E+03  0.25500000000E-02 0.  1.
         -2   -1    0    0  501    0 -0.00000000000E+00 -0.00000000000E+00 -0.55999499805E+00  0.56000080388E+00  0.25500000000E-02 0.  1.
          2    1    1    2    0  502  0.52684850865E+01 -0.22879220948E+02  0.45288295239E+03  0.45349110714E+03  0.25500000000E-02 0.  1.
         -2    1    1    2  502    0 -0.52684850865E+01  0.22879220948E+02  0.53820781837E+03  0.53871965943E+03  0.25500000000E-02 0.  1.
<mgrwt>
<rscale>  0 0.47130557E+02</rscale>
<asrwt>0</asrwt>
<pdfrwt beam="1">  1        2 0.15256179E+00 0.47130557E+02</pdfrwt>
<pdfrwt beam="2">  1       -2 0.86153449E-04 0.47130557E+02</pdfrwt>
<totfact> 0.13384095E+06</totfact>
</mgrwt>
</event>
<event>
 4    1  0.4635140E-002  0.1068382E+03  0.7818608E-02  0.1266540E+00
          2   -1    0    0    0  501  0.00000000000E+00  0.00000000000E+00  0.64173166400E+02  0.64173166450E+02  0.25500000000E-02 0. -1.
         -2   -1    0    0  501    0 -0.00000000000E+00 -0.00000000000E+00 -0.44467223919E+02  0.44467223992E+02  0.25500000000E-02 0. -1.
          2    1    1    2    0  502 -0.42908963580E+02  0.78563217743E+01 -0.21500576816E+02  0.48633072669E+02  0.25500000000E-02 0. -1.
         -2    1    1    2  502    0  0.42908963580E+02 -0.78563217743E+01  0.41206519296E+02  0.60007317773E+02  0.25500000000E-02 0. -1.
<mgrwt>
<rscale>  0 0.10683824E+03</rscale>
<asrwt>0</asrwt>
<pdfrwt beam="1">  1        2 0.98727948E-02 0.10683824E+03</pdfrwt>
<pdfrwt beam="2">  1       -2 0.68411114E-02 0.10683824E+03</pdfrwt>
<totfact> 0.68720500E+04</totfact>
</mgrwt>
</event>
<event>
 4    1  0.4635140E-002  0.5113064E+02  0.7818608E-02  0.1439337E+00
          2   -1    0    0    0  501  0.00000000000E+00  0.00000000000E+00  0.58205466816E+03  0.58205466817E+03  0.25500000000E-02 0.  1.
         -2   -1    0    0  501    0 -0.00000000000E+00 -0.00000000000E+00 -0.11228922069E+01  0.11228951023E+01  0.25500000000E-02 0.  1.
          2    1    1    2    0  502 -0.17905400774E+02  0.13786678448E+02  0.42681437593E+03  0.42741219845E+03  0.25500000000E-02 0. -1.
         -2    1    1    2  502    0  0.17905400774E+02 -0.13786678448E+02  0.15411740003E+03  0.15576536482E+03  0.25500000000E-02 0. -1.
<mgrwt>
<rscale>  0 0.51130636E+02</rscale>
<asrwt>0</asrwt>
<pdfrwt beam="1">  1        2 0.89546982E-01 0.51130636E+02</pdfrwt>
<pdfrwt beam="2">  1       -2 0.17275266E-03 0.51130636E+02</pdfrwt>
<totfact> 0.99381077E+05</totfact>
</mgrwt>
</event>
<event>
 4    1  0.4635140E-002  0.4846107E+02  0.7818608E-02  0.1453823E+00
          2   -1    0    0    0  501  0.00000000000E+00  0.00000000000E+00  0.27336740804E+03  0.27336740805E+03  0.25500000000E-02 0. -1.
         -2   -1    0    0  501    0 -0.00000000000E+00 -0.00000000000E+00 -0.21477268597E+01  0.21477283735E+01  0.25500000000E-02 0. -1.
          2    1    1    2    0  502 -0.18637335879E+02  0.10045273232E+02  0.68614819834E+02  0.71807042205E+02  0.25500000000E-02 0. -1.
         -2    1    1    2  502    0  0.18637335879E+02 -0.10045273232E+02  0.20260486134E+03  0.20370809422E+03  0.25500000000E-02 0. -1.
<mgrwt>
<rscale>  0 0.48461066E+02</rscale>
<asrwt>0</asrwt>
<pdfrwt beam="1">  1        2 0.42056529E-01 0.48461066E+02</pdfrwt>
<pdfrwt beam="2">  1       -2 0.33041959E-03 0.48461066E+02</pdfrwt>
<totfact> 0.88517296E+05</totfact>
</mgrwt>
</event>
<event>
 4    1  0.4635140E-002  0.4530466E+02  0.7818608E-02  0.1472449E+00
          2   -1    0    0    0  501  0.00000000000E+00  0.00000000000E+00  0.10347222095E+03  0.10347222098E+03  0.25500000000E-02 0.  1.
         -2   -1    0    0  501    0 -0.00000000000E+00 -0.00000000000E+00 -0.49590898566E+01  0.49590905122E+01  0.25500000000E-02 0.  1.
          2    1    1    2    0  502 -0.27585811541E+01 -0.22173636693E+02  0.58163074623E+02  0.62307489038E+02  0.25500000000E-02 0.  1.
         -2    1    1    2  502    0  0.27585811541E+01  0.22173636693E+02  0.40350056469E+02  0.46123822453E+02  0.25500000000E-02 0.  1.
<mgrwt>
<rscale>  0 0.45304661E+02</rscale>
<asrwt>0</asrwt>
<pdfrwt beam="1">  1        2 0.15918804E-01 0.45304661E+02</pdfrwt>
<pdfrwt beam="2">  1       -2 0.76293693E-03 0.45304661E+02</pdfrwt>
<totfact> 0.77411745E+05</totfact>
</mgrwt>
</event>
<event>
 4    1  0.4635140E-002  0.4504765E+02  0.7818608E-02  0.1474044E+00
          2   -1    0    0    0  501  0.00000000000E+00  0.00000000000E+00  0.30367098777E+01  0.30367109483E+01  0.25500000000E-02 0.  1.
         -2   -1    0    0  501    0 -0.00000000000E+00 -0.00000000000E+00 -0.16706326109E+03  0.16706326111E+03  0.25500000000E-02 0.  1.
          2    1    1    2    0  502  0.85805625518E+00  0.21770125474E+02 -0.10358878966E+03  0.10585514618E+03  0.25500000000E-02 0. -1.
         -2    1    1    2  502    0 -0.85805625518E+00 -0.21770125474E+02 -0.60437761550E+02  0.64244825872E+02  0.25500000000E-02 0. -1.
<mgrwt>
<rscale>  0 0.45047652E+02</rscale>
<asrwt>0</asrwt>
<pdfrwt beam="1">  1        2 0.46718635E-03 0.45047652E+02</pdfrwt>
<pdfrwt beam="2">  1       -2 0.25702033E-01 0.45047652E+02</pdfrwt>
<totfact> 0.38989233E+05</totfact>
</mgrwt>
</event>
<event>
 4    1  0.4635140E-002  0.7397755E+02  0.7818608E-02  0.1347067E+00
         -2   -1    0    0  501    0 -0.00000000000E+00  0.00000000000E+00  0.26943017044E+03  0.26943017045E+03  0.25500000000E-02 0.  1.
          2   -1    0    0    0  501  0.00000000000E+00 -0.00000000000E+00 -0.50780111444E+01  0.50780117846E+01  0.25500000000E-02 0.  1.
          2    1    1    2    0  502 -0.90324937946E+01  0.32109352255E+02  0.72854477784E+02  0.80127220007E+02  0.25500000000E-02 0. -1.
         -2    1    1    2  502    0  0.90324937946E+01 -0.32109352255E+02  0.19149768151E+03  0.19438096223E+03  0.25500000000E-02 0. -1.
<mgrwt>
<rscale>  0 0.73977551E+02</rscale>
<asrwt>0</asrwt>
<pdfrwt beam="2">  1        2 0.78123275E-03 0.73977551E+02</pdfrwt>
<pdfrwt beam="1">  1       -2 0.41450784E-01 0.73977551E+02</pdfrwt>
<totfact> 0.92254518E+04</totfact>
</mgrwt>
</event>
<event>
 4    1  0.4635140E-002  0.6201572E+02  0.7818608E-02  0.1389562E+00
         -2   -1    0    0  501    0 -0.00000000000E+00  0.00000000000E+00  0.20676623277E+01  0.20676639002E+01  0.25500000000E-02 0. -1.
          2   -1    0    0    0  501  0.00000000000E+00 -0.00000000000E+00 -0.46501163827E+03  0.46501163828E+03  0.25500000000E-02 0. -1.
          2    1    1    2    0  502  0.22793666908E+02 -0.17348321379E+02 -0.14204777922E+03  0.14490716716E+03  0.25500000000E-02 0. -1.
         -2    1    1    2  502    0 -0.22793666908E+02  0.17348321379E+02 -0.32089619672E+03  0.32217213502E+03  0.25500000000E-02 0. -1.
<mgrwt>
<rscale>  0 0.62015721E+02</rscale>
<asrwt>0</asrwt>
<pdfrwt beam="2">  1        2 0.71540169E-01 0.62015721E+02</pdfrwt>
<pdfrwt beam="1">  1       -2 0.31810239E-03 0.62015721E+02</pdfrwt>
<totfact> 0.57194468E+05</totfact>
</mgrwt>
</event>
<event>
 4    1  0.4635140E-002  0.6127728E+02  0.7818608E-02  0.1392548E+00
          2   -1    0    0    0  501  0.00000000000E+00  0.00000000000E+00  0.14300313870E+02  0.14300314097E+02  0.25500000000E-02 0. -1.
         -2   -1    0    0  501    0 -0.00000000000E+00 -0.00000000000E+00 -0.65643756383E+02  0.65643756433E+02  0.25500000000E-02 0. -1.
          2    1    1    2    0  502 -0.97194990641E+01 -0.27019933447E+02 -0.11731058705E+02  0.31018755784E+02  0.25500000000E-02 0.  1.
         -2    1    1    2  502    0  0.97194990641E+01  0.27019933447E+02 -0.39612383808E+02  0.48925314746E+02  0.25500000000E-02 0.  1.
<mgrwt>
<rscale>  0 0.61277282E+02</rscale>
<asrwt>0</asrwt>
<pdfrwt beam="1">  1        2 0.22000484E-02 0.61277282E+02</pdfrwt>
<pdfrwt beam="2">  1       -2 0.10099039E-01 0.61277282E+02</pdfrwt>
<totfact> 0.23648767E+05</totfact>
</mgrwt>
</event>
<event>
 4    1  0.4635140E-002  0.6302661E+02  0.7818608E-02  0.1385552E+00
          2   -1    0    0    0  501  0.00000000000E+00  0.00000000000E+00  0.26709579681E+04  0.26709579681E+04  0.25500000000E-02 0.  1.
         -2   -1    0    0  501    0 -0.00000000000E+00 -0.00000000000E+00 -0.37180547771E+00  0.37181422209E+00  0.25500000000E-02 0.  1.
          2    1    1    2    0  502 -0.12760771682E+02  0.27358317156E+02  0.17185678875E+04  0.17188330049E+04  0.25500000000E-02 0.  1.
         -2    1    1    2  502    0  0.12760771682E+02 -0.27358317156E+02  0.95201827518E+03  0.95249677747E+03  0.25500000000E-02 0.  1.
<mgrwt>
<rscale>  0 0.63026613E+02</rscale>
<asrwt>0</asrwt>
<pdfrwt beam="1">  1        2 0.41091275E+00 0.63026613E+02</pdfrwt>
<pdfrwt beam="2">  1       -2 0.57202052E-04 0.63026613E+02</pdfrwt>
<totfact> 0.34685655E+05</totfact>
</mgrwt>
</event>
<event>
 4    1  0.4635140E-002  0.4338903E+02  0.7818608E-02  0.1484657E+00
          2   -1    0    0    0  501  0.00000000000E+00  0.00000000000E+00  0.25495457991E+02  0.25495458119E+02  0.25500000000E-02 0.  1.
         -2   -1    0    0  501    0 -0.00000000000E+00 -0.00000000000E+00 -0.18460229640E+02  0.18460229816E+02  0.25500000000E-02 0.  1.
          2    1    1    2    0  502 -0.19615325963E+02 -0.74127750878E+01 -0.21175639331E+01  0.21075918263E+02  0.25500000000E-02 0.  1.
         -2    1    1    2  502    0  0.19615325963E+02  0.74127750878E+01  0.91527922845E+01  0.22879769672E+02  0.25500000000E-02 0.  1.
<mgrwt>
<rscale>  0 0.43389032E+02</rscale>
<asrwt>0</asrwt>
<pdfrwt beam="1">  1        2 0.39223782E-02 0.43389032E+02</pdfrwt>
<pdfrwt beam="2">  1       -2 0.28400354E-02 0.43389032E+02</pdfrwt>
<totfact> 0.66163888E+05</totfact>
</mgrwt>
</event>
<event>
 4    1  0.4635140E-002  0.4316668E+02  0.7818608E-02  0.1486122E+00
         -2   -1    0    0  501    0 -0.00000000000E+00  0.00000000000E+00  0.59665635111E+00  0.59666180021E+00  0.25500000000E-02 0.  1.
          2   -1    0    0    0  501  0.00000000000E+00 -0.00000000000E+00 -0.78074841531E+03  0.78074841531E+03  0.25500000000E-02 0.  1.
          2    1    1    2    0  502 -0.20951381779E+02  0.48699678275E+01 -0.42227082495E+03  0.42281831393E+03  0.25500000000E-02 0. -1.
         -2    1    1    2  502    0  0.20951381779E+02 -0.48699678275E+01 -0.35788093401E+03  0.35852676318E+03  0.25500000000E-02 0. -1.
<mgrwt>
<rscale>  0 0.43166683E+02</rscale>
<asrwt>0</asrwt>
<pdfrwt beam="2">  1        2 0.12011432E+00 0.43166683E+02</pdfrwt>
<pdfrwt beam="1">  1       -2 0.91794329E-04 0.43166683E+02</pdfrwt>
<totfact> 0.16113490E+06</totfact>
</mgrwt>
</event>
<event>
 4    1  0.4635140E-002  0.1460604E+03  0.7818608E-02  0.1205399E+00
          2   -1    0    0    0  501  0.00000000000E+00  0.00000000000E+00  0.75528046004E+03  0.75528046004E+03  0.25500000000E-02 0. -1.
         -2   -1    0    0  501    0 -0.00000000000E+00 -0.00000000000E+00 -0.70615003241E+01  0.70615007846E+01  0.25500000000E-02 0. -1.
          2    1    1    2    0  502  0.34002586917E+02 -0.38903631868E+02  0.10473061352E+03  0.11678257535E+03  0.25500000000E-02 0.  1.
         -2    1    1    2  502    0 -0.34002586917E+02  0.38903631868E+02  0.64348834619E+03  0.64555938548E+03  0.25500000000E-02 0.  1.
<mgrwt>
<rscale>  0 0.14606044E+03</rscale>
<asrwt>0</asrwt>
<pdfrwt beam="1">  1        2 0.11619704E+00 0.14606044E+03</pdfrwt>
<pdfrwt beam="2">  1       -2 0.10863842E-02 0.14606044E+03</pdfrwt>
<totfact> 0.67582637E+04</totfact>
</mgrwt>
</event>
<event>
 4    1  0.4635140E-002  0.5568778E+02  0.7818608E-02  0.1416874E+00
          2   -1    0    0    0  501  0.00000000000E+00  0.00000000000E+00  0.14131311582E+04  0.14131311582E+04  0.25500000000E-02 0. -1.
         -2   -1    0    0  501    0 -0.00000000000E+00 -0.00000000000E+00 -0.54862423328E+00  0.54863015944E+00  0.25500000000E-02 0. -1.
          2    1    1    2    0  502  0.19394228277E+01  0.27733205271E+02  0.66704454140E+03  0.66762363069E+03  0.25500000000E-02 0.  1.
         -2    1    1    2  502    0 -0.19394228277E+01 -0.27733205271E+02  0.74553799261E+03  0.74605615771E+03  0.25500000000E-02 0.  1.
<mgrwt>
<rscale>  0 0.55687779E+02</rscale>
<asrwt>0</asrwt>
<pdfrwt beam="1">  1        2 0.21740432E+00 0.55687779E+02</pdfrwt>
<pdfrwt beam="2">  1       -2 0.84404370E-04 0.55687779E+02</pdfrwt>
<totfact> 0.85443193E+05</totfact>
</mgrwt>
</event>
<event>
 4    1  0.4635140E-002  0.5831302E+02  0.7818608E-02  0.1405051E+00
          2   -1    0    0    0  501  0.00000000000E+00  0.00000000000E+00  0.99671384147E+02  0.99671384180E+02  0.25500000000E-02 0.  1.
         -2   -1    0    0  501    0 -0.00000000000E+00 -0.00000000000E+00 -0.85290489908E+01  0.85290493720E+01  0.25500000000E-02 0.  1.
          2    1    1    2    0  502 -0.13270689616E+02 -0.25955062903E+02  0.44512320985E+02  0.53208300284E+02  0.25500000000E-02 0.  1.
         -2    1    1    2  502    0  0.13270689616E+02  0.25955062903E+02  0.46630014172E+02  0.54992133268E+02  0.25500000000E-02 0.  1.
<mgrwt>
<rscale>  0 0.58313022E+02</rscale>
<asrwt>0</asrwt>
<pdfrwt beam="1">  1        2 0.15334059E-01 0.58313022E+02</pdfrwt>
<pdfrwt beam="2">  1       -2 0.13121614E-02 0.58313022E+02</pdfrwt>
<totfact> 0.40356925E+05</totfact>
</mgrwt>
</event>
<event>
 4    1  0.4635140E-002  0.5586781E+02  0.7818608E-02  0.1416039E+00
          2   -1    0    0    0  501  0.00000000000E+00  0.00000000000E+00  0.15129276393E+02  0.15129276608E+02  0.25500000000E-02 0. -1.
         -2   -1    0    0  501    0 -0.00000000000E+00 -0.00000000000E+00 -0.51575697323E+02  0.51575697386E+02  0.25500000000E-02 0. -1.
          2    1    1    2    0  502  0.25603270495E+02 -0.67786247415E+01 -0.76226043650E+01  0.27560502848E+02  0.25500000000E-02 0.  1.
         -2    1    1    2  502    0 -0.25603270495E+02  0.67786247415E+01 -0.28823816565E+02  0.39144471146E+02  0.25500000000E-02 0.  1.
<mgrwt>
<rscale>  0 0.55867808E+02</rscale>
<asrwt>0</asrwt>
<pdfrwt beam="1">  1        2 0.23275810E-02 0.55867808E+02</pdfrwt>
<pdfrwt beam="2">  1       -2 0.79347226E-02 0.55867808E+02</pdfrwt>
<totfact> 0.31041795E+05</totfact>
</mgrwt>
</event>
<event>
 4    1  0.4635140E-002  0.4370799E+02  0.7818608E-02  0.1482572E+00
          2   -1    0    0    0  501  0.00000000000E+00  0.00000000000E+00  0.39951864928E+01  0.39951873066E+01  0.25500000000E-02 0.  1.
         -2   -1    0    0  501    0 -0.00000000000E+00 -0.00000000000E+00 -0.11954312204E+03  0.11954312207E+03  0.25500000000E-02 0.  1.
          2    1    1    2    0  502  0.19716628299E+02  0.92714861837E+01 -0.62579945008E+02  0.66264284583E+02  0.25500000000E-02 0. -1.
         -2    1    1    2  502    0 -0.19716628299E+02 -0.92714861837E+01 -0.52967990541E+02  0.57274024793E+02  0.25500000000E-02 0. -1.
<mgrwt>
<rscale>  0 0.43707991E+02</rscale>
<asrwt>0</asrwt>
<pdfrwt beam="1">  1        2 0.61464423E-03 0.43707991E+02</pdfrwt>
<pdfrwt beam="2">  1       -2 0.18391247E-01 0.43707991E+02</pdfrwt>
<totfact> 0.46671939E+05</totfact>
</mgrwt>
</event>
<event>
 4    1  0.4635140E-002  0.9877820E+02  0.7818608E-02  0.1282886E+00
         -2   -1    0    0  501    0 -0.00000000000E+00  0.00000000000E+00  0.17188060990E+03  0.17188060992E+03  0.25500000000E-02 0.  1.
          2   -1    0    0    0  501  0.00000000000E+00 -0.00000000000E+00 -0.14191729166E+02  0.14191729395E+02  0.25500000000E-02 0.  1.
          2    1    1    2    0  502 -0.25636623808E+02  0.36731048472E+02  0.39651954159E+02  0.59822101913E+02  0.25500000000E-02 0. -1.
         -2    1    1    2  502    0  0.25636623808E+02 -0.36731048472E+02  0.11803692657E+03  0.12625023740E+03  0.25500000000E-02 0. -1.
<mgrwt>
<rscale>  0 0.98778198E+02</rscale>
<asrwt>0</asrwt>
<pdfrwt beam="2">  1        2 0.21833431E-02 0.98778198E+02</pdfrwt>
<pdfrwt beam="1">  1       -2 0.26443169E-01 0.98778198E+02</pdfrwt>
<totfact> 0.54109635E+04</totfact>
</mgrwt>
</event>
<event>
 4    1  0.4635140E-002  0.6425197E+02  0.7818608E-02  0.1380808E+00
         -2   -1    0    0  501    0 -0.00000000000E+00  0.00000000000E+00  0.42419076884E+02  0.42419076961E+02  0.25500000000E-02 0.  1.
          2   -1    0    0    0  501  0.00000000000E+00 -0.00000000000E+00 -0.24330533759E+02  0.24330533892E+02  0.25500000000E-02 0.  1.
          2    1    1    2    0  502 -0.27905391726E+02 -0.43957207392E+01  0.24937513545E+02  0.37681730805E+02  0.25500000000E-02 0.  1.
         -2    1    1    2  502    0  0.27905391726E+02  0.43957207392E+01 -0.68489704189E+01  0.29067880048E+02  0.25500000000E-02 0.  1.
<mgrwt>
<rscale>  0 0.64251966E+02</rscale>
<asrwt>0</asrwt>
<pdfrwt beam="2">  1        2 0.37431591E-02 0.64251966E+02</pdfrwt>
<pdfrwt beam="1">  1       -2 0.65260118E-02 0.64251966E+02</pdfrwt>
<totfact> 0.23024964E+05</totfact>
</mgrwt>
</event>
<event>
 4    1  0.4635140E-002  0.4478432E+02  0.7818608E-02  0.1475693E+00
         -2   -1    0    0  501    0 -0.00000000000E+00  0.00000000000E+00  0.13716856490E+01  0.13716880192E+01  0.25500000000E-02 0. -1.
          2   -1    0    0    0  501  0.00000000000E+00 -0.00000000000E+00 -0.36554181881E+03  0.36554181882E+03  0.25500000000E-02 0. -1.
          2    1    1    2    0  502  0.98895294154E+01  0.19758894003E+02 -0.15232756232E+03  0.15392174288E+03  0.25500000000E-02 0. -1.
         -2    1    1    2  502    0 -0.98895294154E+01 -0.19758894003E+02 -0.21184257084E+03  0.21299176395E+03  0.25500000000E-02 0. -1.
<mgrwt>
<rscale>  0 0.44784323E+02</rscale>
<asrwt>0</asrwt>
<pdfrwt beam="2">  1        2 0.56237126E-01 0.44784323E+02</pdfrwt>
<pdfrwt beam="1">  1       -2 0.21102904E-03 0.44784323E+02</pdfrwt>
<totfact> 0.11886914E+06</totfact>
</mgrwt>
</event>
<event>
 4    1  0.4635140E-002  0.1302718E+03  0.7818608E-02  0.1227053E+00
         -2   -1    0    0  501    0 -0.00000000000E+00  0.00000000000E+00  0.23338330251E+01  0.23338344182E+01  0.25500000000E-02 0.  1.
          2   -1    0    0    0  501  0.00000000000E+00 -0.00000000000E+00 -0.18179038331E+04  0.18179038331E+04  0.25500000000E-02 0.  1.
          2    1    1    2    0  502 -0.40964338472E+02  0.28022030931E+01 -0.16143015288E+04  0.16148236298E+04  0.25500000000E-02 0. -1.
         -2    1    1    2  502    0  0.40964338472E+02 -0.28022030931E+01 -0.20126847120E+03  0.20541403768E+03  0.25500000000E-02 0. -1.
<mgrwt>
<rscale>  0 0.13027180E+03</rscale>
<asrwt>0</asrwt>
<pdfrwt beam="2">  1        2 0.27967638E+00 0.13027180E+03</pdfrwt>
<pdfrwt beam="1">  1       -2 0.35905279E-03 0.13027180E+03</pdfrwt>
<totfact> 0.81677778E+04</totfact>
</mgrwt>
</event>
<event>
 4    1  0.4635140E-002  0.5274930E+02  0.7818608E-02  0.1431053E+00
         -2   -1    0    0  501    0 -0.00000000000E+00  0.00000000000E+00  0.97305718772E+02  0.97305718806E+02  0.25500000000E-02 0. -1.
          2   -1    0    0    0  501  0.00000000000E+00 -0.00000000000E+00 -0.71488296973E+01  0.71488301521E+01  0.25500000000E-02 0. -1.
          2    1    1    2    0  502 -0.21114725826E+02 -0.10181469066E+02  0.69015874661E+02  0.72888167220E+02  0.25500000000E-02 0.  1.
         -2    1    1    2  502    0  0.21114725826E+02  0.10181469066E+02  0.21141014414E+02  0.31566381738E+02  0.25500000000E-02 0.  1.
<mgrwt>
<rscale>  0 0.52749295E+02</rscale>
<asrwt>0</asrwt>
<pdfrwt beam="2">  1        2 0.10998200E-02 0.52749295E+02</pdfrwt>
<pdfrwt beam="1">  1       -2 0.14970110E-01 0.52749295E+02</pdfrwt>
<totfact> 0.31184324E+05</totfact>
</mgrwt>
</event>
<event>
 4    1  0.4635140E-002  0.4844146E+02  0.7818608E-02  0.1453934E+00
         -2   -1    0    0  501    0 -0.00000000000E+00  0.00000000000E+00  0.31779099507E+01  0.31779109738E+01  0.25500000000E-02 0. -1.
          2   -1    0    0    0  501  0.00000000000E+00 -0.00000000000E+00 -0.18460049827E+03  0.18460049828E+03  0.25500000000E-02 0. -1.
          2    1    1    2    0  502 -0.19502099270E+02 -0.12089619072E+02 -0.60646561013E+02  0.64842086135E+02  0.25500000000E-02 0. -1.
         -2    1    1    2  502    0  0.19502099270E+02  0.12089619072E+02 -0.12077602730E+03  0.12293632312E+03  0.25500000000E-02 0. -1.
<mgrwt>
<rscale>  0 0.48441464E+02</rscale>
<asrwt>0</asrwt>
<pdfrwt beam="2">  1        2 0.28400068E-01 0.48441464E+02</pdfrwt>
<pdfrwt beam="1">  1       -2 0.48890945E-03 0.48441464E+02</pdfrwt>
<totfact> 0.77611762E+05</totfact>
</mgrwt>
</event>
<event>
 4    1  0.4635140E-002  0.9418227E+02  0.7818608E-02  0.1293029E+00
         -2   -1    0    0  501    0 -0.00000000000E+00  0.00000000000E+00  0.55009398332E+03  0.55009398333E+03  0.25500000000E-02 0. -1.
          2   -1    0    0    0  501  0.00000000000E+00 -0.00000000000E+00 -0.40312654465E+01  0.40312662530E+01  0.25500000000E-02 0. -1.
          2    1    1    2    0  502  0.26673394770E+02 -0.34403865512E+02  0.37868624523E+03  0.38118023071E+03  0.25500000000E-02 0. -1.
         -2    1    1    2  502    0 -0.26673394770E+02  0.34403865512E+02  0.16737647265E+03  0.17294501887E+03  0.25500000000E-02 0. -1.
<mgrwt>
<rscale>  0 0.94182272E+02</rscale>
<asrwt>0</asrwt>
<pdfrwt beam="2">  1        2 0.62019477E-03 0.94182272E+02</pdfrwt>
<pdfrwt beam="1">  1       -2 0.84629840E-01 0.94182272E+02</pdfrwt>
<totfact> 0.30919267E+04</totfact>
</mgrwt>
</event>
<event>
 4    1  0.4635140E-002  0.4442567E+02  0.7818608E-02  0.1477959E+00
         -2   -1    0    0  501    0 -0.00000000000E+00  0.00000000000E+00  0.16835102594E+02  0.16835102787E+02  0.25500000000E-02 0. -1.
          2   -1    0    0    0  501  0.00000000000E+00 -0.00000000000E+00 -0.29308408992E+02  0.29308409103E+02  0.25500000000E-02 0. -1.
          2    1    1    2    0  502 -0.18964706669E+02 -0.85424536720E+01  0.18607233811E+01  0.20882909562E+02  0.25500000000E-02 0.  1.
         -2    1    1    2  502    0  0.18964706669E+02  0.85424536720E+01 -0.14334029779E+02  0.25260602328E+02  0.25500000000E-02 0.  1.
<mgrwt>
<rscale>  0 0.44425672E+02</rscale>
<asrwt>0</asrwt>
<pdfrwt beam="2">  1        2 0.45089860E-02 0.44425672E+02</pdfrwt>
<pdfrwt beam="1">  1       -2 0.25900158E-02 0.44425672E+02</pdfrwt>
<totfact> 0.63545853E+05</totfact>
</mgrwt>
</event>
<event>
 4    1  0.4635140E-002  0.4695148E+02  0.7818608E-02  0.1462514E+00
          2   -1    0    0    0  501  0.00000000000E+00  0.00000000000E+00  0.60830258069E+03  0.60830258070E+03  0.25500000000E-02 0. -1.
         -2   -1    0    0  501    0 -0.00000000000E+00 -0.00000000000E+00 -0.90597884258E+00  0.90598243124E+00  0.25500000000E-02 0. -1.
          2    1    1    2    0  502 -0.22765651273E+02  0.42402843354E+01  0.35370864828E+03  0.35446588378E+03  0.25500000000E-02 0.  1.
         -2    1    1    2  502    0  0.22765651273E+02 -0.42402843354E+01  0.25368795357E+03  0.25474267935E+03  0.25500000000E-02 0.  1.
<mgrwt>
<rscale>  0 0.46951480E+02</rscale>
<asrwt>0</asrwt>
<pdfrwt beam="1">  1        2 0.93584941E-01 0.46951480E+02</pdfrwt>
<pdfrwt beam="2">  1       -2 0.13938174E-03 0.46951480E+02</pdfrwt>
<totfact> 0.12410684E+06</totfact>
</mgrwt>
</event>
<event>
 4    1  0.4635140E-002  0.4464082E+02  0.7818608E-02  0.1476596E+00
          2   -1    0    0    0  501  0.00000000000E+00  0.00000000000E+00  0.28487145491E+03  0.28487145492E+03  0.25500000000E-02 0. -1.
         -2   -1    0    0  501    0 -0.00000000000E+00 -0.00000000000E+00 -0.17488605885E+01  0.17488624476E+01  0.25500000000E-02 0. -1.
          2    1    1    2    0  502 -0.14230086826E+02 -0.16094596480E+02  0.10268130257E+03  0.10490462959E+03  0.25500000000E-02 0. -1.
         -2    1    1    2  502    0  0.14230086826E+02  0.16094596480E+02  0.18044129175E+03  0.18171568777E+03  0.25500000000E-02 0. -1.
<mgrwt>
<rscale>  0 0.44640821E+02</rscale>
<asrwt>0</asrwt>
<pdfrwt beam="1">  1        2 0.43826364E-01 0.44640821E+02</pdfrwt>
<pdfrwt beam="2">  1       -2 0.26905570E-03 0.44640821E+02</pdfrwt>
<totfact> 0.10997678E+06</totfact>
</mgrwt>
</event>
<event>
 4    1  0.4635140E-002  0.6310645E+02  0.7818608E-02  0.1385239E+00
          2   -1    0    0    0  501  0.00000000000E+00  0.00000000000E+00  0.41965877390E+02  0.41965877468E+02  0.25500000000E-02 0. -1.
         -2   -1    0    0  501    0 -0.00000000000E+00 -0.00000000000E+00 -0.23724180920E+02  0.23724181057E+02  0.25500000000E-02 0. -1.
          2    1    1    2    0  502 -0.23274618509E+02 -0.85535380450E+00  0.31280085987E+02  0.38998503596E+02  0.25500000000E-02 0. -1.
         -2    1    1    2  502    0  0.23274618509E+02  0.85535380450E+00 -0.13038389517E+02  0.26691554929E+02  0.25500000000E-02 0. -1.
<mgrwt>
<rscale>  0 0.63106452E+02</rscale>
<asrwt>0</asrwt>
<pdfrwt beam="1">  1        2 0.64562888E-02 0.63106452E+02</pdfrwt>
<pdfrwt beam="2">  1       -2 0.36498740E-02 0.63106452E+02</pdfrwt>
<totfact> 0.26889371E+05</totfact>
</mgrwt>
</event>
<event>
 4    1  0.4635140E-002  0.8296969E+02  0.7818608E-02  0.1320829E+00
          2   -1    0    0    0  501  0.00000000000E+00  0.00000000000E+00  0.99659204686E+02  0.99659204718E+02  0.25500000000E-02 0.  1.
         -2   -1    0    0  501    0 -0.00000000000E+00 -0.00000000000E+00 -0.17268774053E+02  0.17268774241E+02  0.25500000000E-02 0.  1.
          2    1    1    2    0  502 -0.25921445454E+02  0.22785844875E+02  0.73635615573E+02  0.81322321342E+02  0.25500000000E-02 0.  1.
         -2    1    1    2  502    0  0.25921445454E+02 -0.22785844875E+02  0.87548150598E+01  0.35605657617E+02  0.25500000000E-02 0.  1.
<mgrwt>
<rscale>  0 0.82969688E+02</rscale>
<asrwt>0</asrwt>
<pdfrwt beam="1">  1        2 0.15332186E-01 0.82969688E+02</pdfrwt>
<pdfrwt beam="2">  1       -2 0.26567344E-02 0.82969688E+02</pdfrwt>
<totfact> 0.15858028E+05</totfact>
</mgrwt>
</event>
<event>
 4    1  0.4635140E-002  0.1165387E+03  0.7818608E-02  0.1248919E+00
         -2   -1    0    0  501    0 -0.00000000000E+00  0.00000000000E+00  0.66168761233E+01  0.66168766147E+01  0.25500000000E-02 0.  1.
          2   -1    0    0    0  501  0.00000000000E+00 -0.00000000000E+00 -0.51312987742E+03  0.51312987743E+03  0.25500000000E-02 0.  1.
          2    1    1    2    0  502  0.32116174109E+02 -0.16539357048E+01 -0.46996794013E+03  0.47106692613E+03  0.25500000000E-02 0. -1.
         -2    1    1    2  502    0 -0.32116174109E+02  0.16539357048E+01 -0.36545061169E+02  0.48679827907E+02  0.25500000000E-02 0. -1.
<mgrwt>
<rscale>  0 0.11653870E+03</rscale>
<asrwt>0</asrwt>
<pdfrwt beam="2">  1        2 0.78943026E-01 0.11653870E+03</pdfrwt>
<pdfrwt beam="1">  1       -2 0.10179814E-02 0.11653870E+03</pdfrwt>
<totfact> 0.11256427E+05</totfact>
</mgrwt>
</event>
<event>
 4    1  0.4635140E-002  0.6836414E+02  0.7818608E-02  0.1365746E+00
         -2   -1    0    0  501    0 -0.00000000000E+00  0.00000000000E+00  0.90515656047E+00  0.90516015238E+00  0.25500000000E-02 0.  1.
          2   -1    0    0    0  501  0.00000000000E+00 -0.00000000000E+00 -0.12908392686E+04  0.12908392686E+04  0.25500000000E-02 0.  1.
          2    1    1    2    0  502  0.30332745099E+02  0.13421896194E+02 -0.48893548562E+03  0.49005931460E+03  0.25500000000E-02 0.  1.
         -2    1    1    2  502    0 -0.30332745099E+02 -0.13421896194E+02 -0.80099862644E+03  0.80168511417E+03  0.25500000000E-02 0.  1.
<mgrwt>
<rscale>  0 0.68364141E+02</rscale>
<asrwt>0</asrwt>
<pdfrwt beam="2">  1        2 0.19858918E+00 0.68364141E+02</pdfrwt>
<pdfrwt beam="1">  1       -2 0.13925617E-03 0.68364141E+02</pdfrwt>
<totfact> 0.51944932E+05</totfact>
</mgrwt>
</event>
<event>
 4    1  0.4635140E-002  0.4524906E+02  0.7818608E-02  0.1472793E+00
          2   -1    0    0    0  501  0.00000000000E+00  0.00000000000E+00  0.55143439708E+01  0.55143445604E+01  0.25500000000E-02 0.  1.
         -2   -1    0    0  501    0 -0.00000000000E+00 -0.00000000000E+00 -0.92825054831E+02  0.92825054866E+02  0.25500000000E-02 0.  1.
          2    1    1    2    0  502 -0.55485400287E+01 -0.21679529809E+02 -0.36420873816E+02  0.42746559689E+02  0.25500000000E-02 0. -1.
         -2    1    1    2  502    0  0.55485400287E+01  0.21679529809E+02 -0.50889837044E+02  0.55592839737E+02  0.25500000000E-02 0. -1.
<mgrwt>
<rscale>  0 0.45249058E+02</rscale>
<asrwt>0</asrwt>
<pdfrwt beam="1">  1        2 0.84836072E-03 0.45249058E+02</pdfrwt>
<pdfrwt beam="2">  1       -2 0.14280777E-01 0.45249058E+02</pdfrwt>
<totfact> 0.45811677E+05</totfact>
</mgrwt>
</event>
<event>
 4    1  0.4635140E-002  0.8496801E+02  0.7818608E-02  0.1315516E+00
          2   -1    0    0    0  501  0.00000000000E+00  0.00000000000E+00  0.22855213150E+03  0.22855213151E+03  0.25500000000E-02 0. -1.
         -2   -1    0    0  501    0 -0.00000000000E+00 -0.00000000000E+00 -0.78970641418E+01  0.78970645535E+01  0.25500000000E-02 0. -1.
          2    1    1    2    0  502 -0.18291853342E+02 -0.22691649397E+02  0.19634215235E+03  0.19849368667E+03  0.25500000000E-02 0. -1.
         -2    1    1    2  502    0  0.18291853342E+02  0.22691649397E+02  0.24312915006E+02  0.37955509398E+02  0.25500000000E-02 0. -1.
<mgrwt>
<rscale>  0 0.84968015E+02</rscale>
<asrwt>0</asrwt>
<pdfrwt beam="1">  1        2 0.35161864E-01 0.84968015E+02</pdfrwt>
<pdfrwt beam="2">  1       -2 0.12149330E-02 0.84968015E+02</pdfrwt>
<totfact> 0.19605954E+05</totfact>
</mgrwt>
</event>
<event>
 4    1  0.4635140E-002  0.6231258E+02  0.7818608E-02  0.1388375E+00
         -2   -1    0    0  501    0 -0.00000000000E+00  0.00000000000E+00  0.60225862140E+03  0.60225862140E+03  0.25500000000E-02 0. -1.
          2   -1    0    0    0  501  0.00000000000E+00 -0.00000000000E+00 -0.16117887745E+01  0.16117907916E+01  0.25500000000E-02 0. -1.
          2    1    1    2    0  502  0.30558377946E+02 -0.45033140786E+01  0.33983126753E+03  0.34123215660E+03  0.25500000000E-02 0.  1.
         -2    1    1    2  502    0 -0.30558377946E+02  0.45033140786E+01  0.26081556510E+03  0.26263825560E+03  0.25500000000E-02 0.  1.
<mgrwt>
<rscale>  0 0.62312576E+02</rscale>
<asrwt>0</asrwt>
<pdfrwt beam="2">  1        2 0.24796743E-03 0.62312576E+02</pdfrwt>
<pdfrwt beam="1">  1       -2 0.92655259E-01 0.62312576E+02</pdfrwt>
<totfact> 0.82388222E+04</totfact>
</mgrwt>
</event>
<event>
 4    1  0.4635140E-002  0.7234790E+02  0.7818608E-02  0.1352286E+00
          2   -1    0    0    0  501  0.00000000000E+00  0.00000000000E+00  0.31542681752E+03  0.31542681753E+03  0.25500000000E-02 0.  1.
         -2   -1    0    0  501    0 -0.00000000000E+00 -0.00000000000E+00 -0.41485207206E+01  0.41485215044E+01  0.25500000000E-02 0.  1.
          2    1    1    2    0  502  0.11388909093E+02 -0.23593665639E+02  0.26582037290E+03  0.26710829070E+03  0.25500000000E-02 0. -1.
         -2    1    1    2  502    0 -0.11388909093E+02  0.23593665639E+02  0.45457923899E+02  0.52467048329E+02  0.25500000000E-02 0. -1.
<mgrwt>
<rscale>  0 0.72347904E+02</rscale>
<asrwt>0</asrwt>
<pdfrwt beam="1">  1        2 0.48527222E-01 0.72347904E+02</pdfrwt>
<pdfrwt beam="2">  1       -2 0.63823377E-03 0.72347904E+02</pdfrwt>
<totfact> 0.33641046E+05</totfact>
</mgrwt>
</event>
<event>
 4    1  0.4635140E-002  0.1173026E+03  0.7818608E-02  0.1247614E+00
         -2   -1    0    0  501    0 -0.00000000000E+00  0.00000000000E+00  0.56791515136E+01  0.56791520861E+01  0.25500000000E-02 0. -1.
          2   -1    0    0    0  501  0.00000000000E+00 -0.00000000000E+00 -0.60571944607E+03  0.60571944607E+03  0.25500000000E-02 0. -1.
          2    1    1    2    0  502 -0.18172096858E+02 -0.48201687133E+02 -0.44617845033E+03  0.44914233522E+03  0.25500000000E-02 0. -1.
         -2    1    1    2  502    0  0.18172096858E+02  0.48201687133E+02 -0.15386184423E+03  0.16225626294E+03  0.25500000000E-02 0. -1.
<mgrwt>
<rscale>  0 0.11730256E+03</rscale>
<asrwt>0</asrwt>
<pdfrwt beam="2">  1        2 0.93187556E-01 0.11730256E+03</pdfrwt>
<pdfrwt beam="1">  1       -2 0.87371614E-03 0.11730256E+03</pdfrwt>
<totfact> 0.11642591E+05</totfact>
</mgrwt>
</event>
<event>
 4    1  0.4635140E-002  0.4769399E+02  0.7818608E-02  0.1458192E+00
         -2   -1    0    0  501    0 -0.00000000000E+00  0.00000000000E+00  0.24577093981E+02  0.24577094113E+02  0.25500000000E-02 0. -1.
          2   -1    0    0    0  501  0.00000000000E+00 -0.00000000000E+00 -0.23138587569E+02  0.23138587710E+02  0.25500000000E-02 0. -1.
          2    1    1    2    0  502  0.18331356883E+02  0.14783555450E+02 -0.30357300594E+01  0.23744637719E+02  0.25500000000E-02 0. -1.
         -2    1    1    2  502    0 -0.18331356883E+02 -0.14783555450E+02  0.44742364715E+01  0.23971044104E+02  0.25500000000E-02 0. -1.
<mgrwt>
<rscale>  0 0.47693993E+02</rscale>
<asrwt>0</asrwt>
<pdfrwt beam="2">  1        2 0.35597827E-02 0.47693993E+02</pdfrwt>
<pdfrwt beam="1">  1       -2 0.37810914E-02 0.47693993E+02</pdfrwt>
<totfact> 0.51019366E+05</totfact>
</mgrwt>
</event>
<event>
 4    1  0.4635140E-002  0.8685238E+02  0.7818608E-02  0.1310658E+00
         -2   -1    0    0  501    0 -0.00000000000E+00  0.00000000000E+00  0.10576067655E+01  0.10576098396E+01  0.25500000000E-02 0. -1.
          2   -1    0    0    0  501  0.00000000000E+00 -0.00000000000E+00 -0.17831120255E+04  0.17831120255E+04  0.25500000000E-02 0. -1.
          2    1    1    2    0  502 -0.36395579929E+02 -0.14725631234E+02 -0.50982494087E+03  0.51133448230E+03  0.25500000000E-02 0. -1.
         -2    1    1    2  502    0  0.36395579929E+02  0.14725631234E+02 -0.12722294779E+04  0.12728351530E+04  0.25500000000E-02 0. -1.
<mgrwt>
<rscale>  0 0.86852382E+02</rscale>
<asrwt>0</asrwt>
<pdfrwt beam="2">  1        2 0.27432252E+00 0.86852382E+02</pdfrwt>
<pdfrwt beam="1">  1       -2 0.16271040E-03 0.86852382E+02</pdfrwt>
<totfact> 0.24517664E+05</totfact>
</mgrwt>
</event>
<event>
 4    1  0.4635140E-002  0.5216268E+02  0.7818608E-02  0.1434014E+00
          2   -1    0    0    0  501  0.00000000000E+00  0.00000000000E+00  0.18319365060E+03  0.18319365061E+03  0.25500000000E-02 0. -1.
         -2   -1    0    0  501    0 -0.00000000000E+00 -0.00000000000E+00 -0.37132082818E+01  0.37132091574E+01  0.25500000000E-02 0. -1.
          2    1    1    2    0  502 -0.21739990738E+02 -0.18033155852E+01  0.38517784463E+02  0.44266227203E+02  0.25500000000E-02 0.  1.
         -2    1    1    2  502    0  0.21739990738E+02  0.18033155852E+01  0.14096265785E+03  0.14264063257E+03  0.25500000000E-02 0.  1.
<mgrwt>
<rscale>  0 0.52162679E+02</rscale>
<asrwt>0</asrwt>
<pdfrwt beam="1">  1        2 0.28183642E-01 0.52162679E+02</pdfrwt>
<pdfrwt beam="2">  1       -2 0.57126282E-03 0.52162679E+02</pdfrwt>
<totfact> 0.64305176E+05</totfact>
</mgrwt>
</event>
<event>
 4    1  0.4635140E-002  0.6593074E+02  0.7818608E-02  0.1374504E+00
         -2   -1    0    0  501    0 -0.00000000000E+00  0.00000000000E+00  0.94341495659E+01  0.94341499105E+01  0.25500000000E-02 0. -1.
          2   -1    0    0    0  501  0.00000000000E+00 -0.00000000000E+00 -0.11518956084E+03  0.11518956086E+03  0.25500000000E-02 0. -1.
          2    1    1    2    0  502  0.25697849801E+02 -0.18382557115E+02 -0.35103824333E+02  0.47228978178E+02  0.25500000000E-02 0.  1.
         -2    1    1    2  502    0 -0.25697849801E+02  0.18382557115E+02 -0.70651586937E+02  0.77394732596E+02  0.25500000000E-02 0.  1.
<mgrwt>
<rscale>  0 0.65930738E+02</rscale>
<asrwt>0</asrwt>
<pdfrwt beam="2">  1        2 0.17721470E-01 0.65930738E+02</pdfrwt>
<pdfrwt beam="1">  1       -2 0.14514077E-02 0.65930738E+02</pdfrwt>
<totfact> 0.30529837E+05</totfact>
</mgrwt>
</event>
<event>
 4    1  0.4635140E-002  0.5403937E+02  0.7818608E-02  0.1424697E+00
         -2   -1    0    0  501    0 -0.00000000000E+00  0.00000000000E+00  0.11602909191E+01  0.11602937212E+01  0.25500000000E-02 0. -1.
          2   -1    0    0    0  501  0.00000000000E+00 -0.00000000000E+00 -0.62920632405E+03  0.62920632405E+03  0.25500000000E-02 0. -1.
          2    1    1    2    0  502  0.17808841746E+02 -0.19909021902E+02 -0.36146262144E+03  0.36244827314E+03  0.25500000000E-02 0.  1.
         -2    1    1    2  502    0 -0.17808841746E+02  0.19909021902E+02 -0.26658341169E+03  0.26791834463E+03  0.25500000000E-02 0.  1.
<mgrwt>
<rscale>  0 0.54039366E+02</rscale>
<asrwt>0</asrwt>
<pdfrwt beam="2">  1        2 0.96800700E-01 0.54039366E+02</pdfrwt>
<pdfrwt beam="1">  1       -2 0.17850701E-03 0.54039366E+02</pdfrwt>
<totfact> 0.88444997E+05</totfact>
</mgrwt>
</event>
<event>
 4    1  0.4635140E-002  0.5619234E+02  0.7818608E-02  0.1414543E+00
          2   -1    0    0    0  501  0.00000000000E+00  0.00000000000E+00  0.22905439062E+02  0.22905439204E+02  0.25500000000E-02 0. -1.
         -2   -1    0    0  501    0 -0.00000000000E+00 -0.00000000000E+00 -0.34463202742E+02  0.34463202836E+02  0.25500000000E-02 0. -1.
          2    1    1    2    0  502  0.23274621616E+02 -0.14968470934E+02 -0.81587890079E+00  0.27684450480E+02  0.25500000000E-02 0. -1.
         -2    1    1    2  502    0 -0.23274621616E+02  0.14968470934E+02 -0.10741884779E+02  0.29684191560E+02  0.25500000000E-02 0. -1.
<mgrwt>
<rscale>  0 0.56192341E+02</rscale>
<asrwt>0</asrwt>
<pdfrwt beam="1">  1        2 0.35239137E-02 0.56192341E+02</pdfrwt>
<pdfrwt beam="2">  1       -2 0.53020312E-02 0.56192341E+02</pdfrwt>
<totfact> 0.32893373E+05</totfact>
</mgrwt>
</event>
<event>
 4    1  0.4635140E-002  0.3281244E+03  0.7818608E-02  0.1071970E+00
         -2   -1    0    0  501    0 -0.00000000000E+00  0.00000000000E+00  0.98912337483E+01  0.98912340770E+01  0.25500000000E-02 0. -1.
          2   -1    0    0    0  501  0.00000000000E+00 -0.00000000000E+00 -0.27212385644E+04  0.27212385644E+04  0.25500000000E-02 0. -1.
          2    1    1    2    0  502  0.11022531389E+02 -0.15379600350E+03 -0.18222107547E+04  0.18287227076E+04  0.25500000000E-02 0. -1.
         -2    1    1    2  502    0 -0.11022531389E+02  0.15379600350E+03 -0.88913657598E+03  0.90240709086E+03  0.25500000000E-02 0. -1.
<mgrwt>
<rscale>  0 0.32812441E+03</rscale>
<asrwt>0</asrwt>
<pdfrwt beam="2">  1        2 0.41865149E+00 0.32812441E+03</pdfrwt>
<pdfrwt beam="1">  1       -2 0.15217305E-02 0.32812441E+03</pdfrwt>
<totfact> 0.34768875E+03</totfact>
</mgrwt>
</event>
<event>
 4    1  0.4635140E-002  0.8665574E+02  0.7818608E-02  0.1311159E+00
         -2   -1    0    0  501    0 -0.00000000000E+00  0.00000000000E+00  0.50132404092E+01  0.50132410577E+01  0.25500000000E-02 0.  1.
          2   -1    0    0    0  501  0.00000000000E+00 -0.00000000000E+00 -0.37446917916E+03  0.37446917917E+03  0.25500000000E-02 0.  1.
          2    1    1    2    0  502 -0.40856207762E+02 -0.80344917982E+01 -0.23719090991E+03  0.24081800291E+03  0.25500000000E-02 0. -1.
         -2    1    1    2  502    0  0.40856207762E+02  0.80344917982E+01 -0.13226502884E+03  0.13866441732E+03  0.25500000000E-02 0. -1.
<mgrwt>
<rscale>  0 0.86655736E+02</rscale>
<asrwt>0</asrwt>
<pdfrwt beam="2">  1        2 0.57610621E-01 0.86655736E+02</pdfrwt>
<pdfrwt beam="1">  1       -2 0.77126810E-03 0.86655736E+02</pdfrwt>
<totfact> 0.22304763E+05</totfact>
</mgrwt>
</event>
<event>
 4    1  0.4635140E-002  0.5482734E+02  0.7818608E-02  0.1420917E+00
          2   -1    0    0    0  501  0.00000000000E+00  0.00000000000E+00  0.86341776495E+02  0.86341776533E+02  0.25500000000E-02 0. -1.
         -2   -1    0    0  501    0 -0.00000000000E+00 -0.00000000000E+00 -0.87038903021E+01  0.87038906757E+01  0.25500000000E-02 0. -1.
          2    1    1    2    0  502  0.27199844618E+02 -0.34172100916E+01  0.38857398858E+02  0.47554246126E+02  0.25500000000E-02 0.  1.
         -2    1    1    2  502    0 -0.27199844618E+02  0.34172100916E+01  0.38780487335E+02  0.47491421083E+02  0.25500000000E-02 0.  1.
<mgrwt>
<rscale>  0 0.54827342E+02</rscale>
<asrwt>0</asrwt>
<pdfrwt beam="1">  1        2 0.13283350E-01 0.54827342E+02</pdfrwt>
<pdfrwt beam="2">  1       -2 0.13390601E-02 0.54827342E+02</pdfrwt>
<totfact> 0.45587617E+05</totfact>
</mgrwt>
</event>
<event>
 4    1  0.4635140E-002  0.4630610E+02  0.7818608E-02  0.1466349E+00
          2   -1    0    0    0  501  0.00000000000E+00  0.00000000000E+00  0.38786050625E+03  0.38786050626E+03  0.25500000000E-02 0. -1.
         -2   -1    0    0  501    0 -0.00000000000E+00 -0.00000000000E+00 -0.13821032100E+01  0.13821055624E+01  0.25500000000E-02 0. -1.
          2    1    1    2    0  502 -0.19182636528E+02  0.12783185865E+02  0.21142447719E+03  0.21267743873E+03  0.25500000000E-02 0. -1.
         -2    1    1    2  502    0  0.19182636528E+02 -0.12783185865E+02  0.17505392585E+03  0.17656517309E+03  0.25500000000E-02 0. -1.
<mgrwt>
<rscale>  0 0.46306099E+02</rscale>
<asrwt>0</asrwt>
<pdfrwt beam="1">  1        2 0.59670916E-01 0.46306099E+02</pdfrwt>
<pdfrwt beam="2">  1       -2 0.21263120E-03 0.46306099E+02</pdfrwt>
<totfact> 0.11173604E+06</totfact>
</mgrwt>
</event>
<event>
 4    1  0.4635140E-002  0.4622517E+02  0.7818608E-02  0.1466835E+00
         -2   -1    0    0  501    0 -0.00000000000E+00  0.00000000000E+00  0.72033012027E+02  0.72033012072E+02  0.25500000000E-02 0.  1.
          2   -1    0    0    0  501  0.00000000000E+00 -0.00000000000E+00 -0.74159277996E+01  0.74159282380E+01  0.25500000000E-02 0.  1.
          2    1    1    2    0  502  0.16930633245E+02 -0.11225626519E+02  0.13361021603E+02  0.24314150975E+02  0.25500000000E-02 0. -1.
         -2    1    1    2  502    0 -0.16930633245E+02  0.11225626519E+02  0.51256062623E+02  0.55134789335E+02  0.25500000000E-02 0. -1.
<mgrwt>
<rscale>  0 0.46225172E+02</rscale>
<asrwt>0</asrwt>
<pdfrwt beam="2">  1        2 0.11409120E-02 0.46225172E+02</pdfrwt>
<pdfrwt beam="1">  1       -2 0.11082002E-01 0.46225172E+02</pdfrwt>
<totfact> 0.45995288E+05</totfact>
</mgrwt>
</event>
<event>
 4    1  0.4635140E-002  0.4698371E+02  0.7818608E-02  0.1462324E+00
          2   -1    0    0    0  501  0.00000000000E+00  0.00000000000E+00  0.40546752021E+03  0.40546752022E+03  0.25500000000E-02 0. -1.
         -2   -1    0    0  501    0 -0.00000000000E+00 -0.00000000000E+00 -0.13610630239E+01  0.13610654126E+01  0.25500000000E-02 0. -1.
          2    1    1    2    0  502 -0.89426451648E+01  0.18902932368E+02  0.10936808145E+03  0.11134931073E+03  0.25500000000E-02 0. -1.
         -2    1    1    2  502    0  0.89426451648E+01 -0.18902932368E+02  0.29473837574E+03  0.29547927490E+03  0.25500000000E-02 0. -1.
<mgrwt>
<rscale>  0 0.46983714E+02</rscale>
<asrwt>0</asrwt>
<pdfrwt beam="1">  1        2 0.62379638E-01 0.46983714E+02</pdfrwt>
<pdfrwt beam="2">  1       -2 0.20939443E-03 0.46983714E+02</pdfrwt>
<totfact> 0.10943801E+06</totfact>
</mgrwt>
</event>
<event>
 4    1  0.4635140E-002  0.4359554E+02  0.7818608E-02  0.1483305E+00
         -2   -1    0    0  501    0 -0.00000000000E+00  0.00000000000E+00  0.38479113024E+01  0.38479121474E+01  0.25500000000E-02 0. -1.
          2   -1    0    0    0  501  0.00000000000E+00 -0.00000000000E+00 -0.12348069599E+03  0.12348069602E+03  0.25500000000E-02 0. -1.
          2    1    1    2    0  502 -0.19687698430E+01  0.21562073364E+02 -0.67172651438E+02  0.70575946117E+02  0.25500000000E-02 0.  1.
         -2    1    1    2  502    0  0.19687698430E+01 -0.21562073364E+02 -0.52460133254E+02  0.56752662052E+02  0.25500000000E-02 0.  1.
<mgrwt>
<rscale>  0 0.43595542E+02</rscale>
<asrwt>0</asrwt>
<pdfrwt beam="2">  1        2 0.18997027E-01 0.43595542E+02</pdfrwt>
<pdfrwt beam="1">  1       -2 0.59198651E-03 0.43595542E+02</pdfrwt>
<totfact> 0.89337075E+05</totfact>
</mgrwt>
</event>
<event>
 4    1  0.4635140E-002  0.1127697E+03  0.7818608E-02  0.1255525E+00
          2   -1    0    0    0  501  0.00000000000E+00  0.00000000000E+00  0.20533617776E+03  0.20533617778E+03  0.25500000000E-02 0.  1.
         -2   -1    0    0  501    0 -0.00000000000E+00 -0.00000000000E+00 -0.15483139664E+02  0.15483139874E+02  0.25500000000E-02 0.  1.
          2    1    1    2    0  502 -0.25049906918E+02  0.19180487344E+02  0.18643412456E+03  0.18908482683E+03  0.25500000000E-02 0.  1.
         -2    1    1    2  502    0  0.25049906918E+02 -0.19180487344E+02  0.34189135394E+01  0.31734490820E+02  0.25500000000E-02 0.  1.
<mgrwt>
<rscale>  0 0.11276965E+03</rscale>
<asrwt>0</asrwt>
<pdfrwt beam="1">  1        2 0.31590181E-01 0.11276965E+03</pdfrwt>
<pdfrwt beam="2">  1       -2 0.23820215E-02 0.11276965E+03</pdfrwt>
<totfact> 0.87470138E+04</totfact>
</mgrwt>
</event>
<event>
 4    1  0.4635140E-002  0.7349632E+02  0.7818608E-02  0.1348592E+00
         -2   -1    0    0  501    0 -0.00000000000E+00  0.00000000000E+00  0.61427194114E+00  0.61427723397E+00  0.25500000000E-02 0. -1.
          2   -1    0    0    0  501  0.00000000000E+00 -0.00000000000E+00 -0.21984096381E+04  0.21984096381E+04  0.25500000000E-02 0. -1.
          2    1    1    2    0  502 -0.18958457290E+02  0.29806375308E+02 -0.14019407209E+04  0.14023856916E+04  0.25500000000E-02 0. -1.
         -2    1    1    2  502    0  0.18958457290E+02 -0.29806375308E+02 -0.79585464522E+03  0.79663822368E+03  0.25500000000E-02 0. -1.
<mgrwt>
<rscale>  0 0.73496318E+02</rscale>
<asrwt>0</asrwt>
<pdfrwt beam="2">  1        2 0.33821057E+00 0.73496318E+02</pdfrwt>
<pdfrwt beam="1">  1       -2 0.94505543E-04 0.73496318E+02</pdfrwt>
<totfact> 0.31325320E+05</totfact>
</mgrwt>
</event>
<event>
 4    1  0.4635140E-002  0.6736438E+02  0.7818608E-02  0.1369292E+00
          2   -1    0    0    0  501  0.00000000000E+00  0.00000000000E+00  0.21602639940E+04  0.21602639940E+04  0.25500000000E-02 0. -1.
         -2   -1    0    0  501    0 -0.00000000000E+00 -0.00000000000E+00 -0.52515946672E+00  0.52516565766E+00  0.25500000000E-02 0. -1.
          2    1    1    2    0  502 -0.23220471198E+02 -0.21232809021E+02  0.14654071555E+04  0.14657449143E+04  0.25500000000E-02 0. -1.
         -2    1    1    2  502    0  0.23220471198E+02  0.21232809021E+02  0.69433167899E+03  0.69504424530E+03  0.25500000000E-02 0. -1.
<mgrwt>
<rscale>  0 0.67364376E+02</rscale>
<asrwt>0</asrwt>
<pdfrwt beam="1">  1        2 0.33235658E+00 0.67364376E+02</pdfrwt>
<pdfrwt beam="2">  1       -2 0.80792230E-04 0.67364376E+02</pdfrwt>
<totfact> 0.40030774E+05</totfact>
</mgrwt>
</event>
<event>
 4    1  0.4635140E-002  0.4414978E+02  0.7818608E-02  0.1479720E+00
         -2   -1    0    0  501    0 -0.00000000000E+00  0.00000000000E+00  0.14292932382E+01  0.14292955130E+01  0.25500000000E-02 0. -1.
          2   -1    0    0    0  501  0.00000000000E+00 -0.00000000000E+00 -0.34093803240E+03  0.34093803241E+03  0.25500000000E-02 0. -1.
          2    1    1    2    0  502 -0.10695618864E+02 -0.18775545559E+02 -0.20476520186E+03  0.20590217404E+03  0.25500000000E-02 0. -1.
         -2    1    1    2  502    0  0.10695618864E+02  0.18775545559E+02 -0.13474353730E+03  0.13646515389E+03  0.25500000000E-02 0. -1.
<mgrwt>
<rscale>  0 0.44149782E+02</rscale>
<asrwt>0</asrwt>
<pdfrwt beam="2">  1        2 0.52451940E-01 0.44149782E+02</pdfrwt>
<pdfrwt beam="1">  1       -2 0.21989171E-03 0.44149782E+02</pdfrwt>
<totfact> 0.12020933E+06</totfact>
</mgrwt>
</event>
<event>
 4    1  0.4635140E-002  0.1314858E+03  0.7818608E-02  0.1225268E+00
         -2   -1    0    0  501    0 -0.00000000000E+00  0.00000000000E+00  0.12280699439E+04  0.12280699439E+04  0.25500000000E-02 0. -1.
          2   -1    0    0    0  501  0.00000000000E+00 -0.00000000000E+00 -0.35194488780E+01  0.35194498017E+01  0.25500000000E-02 0. -1.
          2    1    1    2    0  502 -0.11919415845E+02 -0.52405928345E+02  0.96693553712E+03  0.96842799771E+03  0.25500000000E-02 0.  1.
         -2    1    1    2  502    0  0.11919415845E+02  0.52405928345E+02  0.25761495793E+03  0.26316139602E+03  0.25500000000E-02 0.  1.
<mgrwt>
<rscale>  0 0.13148582E+03</rscale>
<asrwt>0</asrwt>
<pdfrwt beam="2">  1        2 0.54145246E-03 0.13148582E+03</pdfrwt>
<pdfrwt beam="1">  1       -2 0.18893429E+00 0.13148582E+03</pdfrwt>
<totfact> 0.54693069E+03</totfact>
</mgrwt>
</event>
<event>
 4    1  0.4635140E-002  0.4512952E+02  0.7818608E-02  0.1473535E+00
          2   -1    0    0    0  501  0.00000000000E+00  0.00000000000E+00  0.10255583114E+04  0.10255583114E+04  0.25500000000E-02 0.  1.
         -2   -1    0    0  501    0 -0.00000000000E+00 -0.00000000000E+00 -0.49647595870E+00  0.49648250732E+00  0.25500000000E-02 0.  1.
          2    1    1    2    0  502 -0.20076024568E+02  0.50949117549E+01  0.71609361769E+03  0.71639310032E+03  0.25500000000E-02 0.  1.
         -2    1    1    2  502    0  0.20076024568E+02 -0.50949117549E+01  0.30896821774E+03  0.30966169358E+03  0.25500000000E-02 0.  1.
<mgrwt>
<rscale>  0 0.45129521E+02</rscale>
<asrwt>0</asrwt>
<pdfrwt beam="1">  1        2 0.15777773E+00 0.45129521E+02</pdfrwt>
<pdfrwt beam="2">  1       -2 0.76381651E-04 0.45129521E+02</pdfrwt>
<totfact> 0.14900615E+06</totfact>
</mgrwt>
</event>
<event>
 4    1  0.4635140E-002  0.4197802E+02  0.7818608E-02  0.1494140E+00
         -2   -1    0    0  501    0 -0.00000000000E+00  0.00000000000E+00  0.92408868636E+00  0.92409220468E+00  0.25500000000E-02 0.  1.
          2   -1    0    0    0  501  0.00000000000E+00 -0.00000000000E+00 -0.47672658093E+03  0.47672658094E+03  0.25500000000E-02 0.  1.
          2    1    1    2    0  502  0.12301189908E+02  0.16896657114E+02 -0.25985390810E+03  0.26069305679E+03  0.25500000000E-02 0. -1.
         -2    1    1    2  502    0 -0.12301189908E+02 -0.16896657114E+02 -0.21594858414E+03  0.21695761635E+03  0.25500000000E-02 0. -1.
<mgrwt>
<rscale>  0 0.41978017E+02</rscale>
<asrwt>0</asrwt>
<pdfrwt beam="2">  1        2 0.73342355E-01 0.41978017E+02</pdfrwt>
<pdfrwt beam="1">  1       -2 0.14216814E-03 0.41978017E+02</pdfrwt>
<totfact> 0.15185276E+06</totfact>
</mgrwt>
</event>
<event>
 4    1  0.4635140E-002  0.4476596E+02  0.7818608E-02  0.1475808E+00
         -2   -1    0    0  501    0 -0.00000000000E+00  0.00000000000E+00  0.11520158513E+01  0.11520186735E+01  0.25500000000E-02 0.  1.
          2   -1    0    0    0  501  0.00000000000E+00 -0.00000000000E+00 -0.43488749187E+03  0.43488749188E+03  0.25500000000E-02 0.  1.
          2    1    1    2    0  502 -0.13799253499E+02  0.17623237023E+02 -0.21683089303E+03  0.21798310499E+03  0.25500000000E-02 0.  1.
         -2    1    1    2  502    0  0.13799253499E+02 -0.17623237023E+02 -0.21690458299E+03  0.21805640556E+03  0.25500000000E-02 0.  1.
<mgrwt>
<rscale>  0 0.44765965E+02</rscale>
<asrwt>0</asrwt>
<pdfrwt beam="2">  1        2 0.66905637E-01 0.44765965E+02</pdfrwt>
<pdfrwt beam="1">  1       -2 0.17723377E-03 0.44765965E+02</pdfrwt>
<totfact> 0.12610553E+06</totfact>
</mgrwt>
</event>
<event>
 4    1  0.4635140E-002  0.5182522E+02  0.7818608E-02  0.1435738E+00
         -2   -1    0    0  501    0 -0.00000000000E+00  0.00000000000E+00  0.33424388987E+00  0.33425361691E+00  0.25500000000E-02 0. -1.
          2   -1    0    0    0  501  0.00000000000E+00 -0.00000000000E+00 -0.20088734164E+04  0.20088734164E+04  0.25500000000E-02 0. -1.
          2    1    1    2    0  502  0.23605794350E+02  0.70431999357E+01 -0.69261177971E+03  0.69304972231E+03  0.25500000000E-02 0.  1.
         -2    1    1    2  502    0 -0.23605794350E+02 -0.70431999357E+01 -0.13159273928E+04  0.13161579477E+04  0.25500000000E-02 0.  1.
<mgrwt>
<rscale>  0 0.51825223E+02</rscale>
<asrwt>0</asrwt>
<pdfrwt beam="2">  1        2 0.30904778E+00 0.51825223E+02</pdfrwt>
<pdfrwt beam="1">  1       -2 0.51424494E-04 0.51825223E+02</pdfrwt>
<totfact> 0.83821967E+05</totfact>
</mgrwt>
</event>
<event>
 4    1  0.4635140E-002  0.5394608E+02  0.7818608E-02  0.1425150E+00
          2   -1    0    0    0  501  0.00000000000E+00  0.00000000000E+00  0.52421286758E+03  0.52421286759E+03  0.25500000000E-02 0.  1.
         -2   -1    0    0  501    0 -0.00000000000E+00 -0.00000000000E+00 -0.13878792137E+01  0.13878815563E+01  0.25500000000E-02 0.  1.
          2    1    1    2    0  502 -0.52893304491E+01  0.19812905909E+02  0.43212957536E+03  0.43261587831E+03  0.25500000000E-02 0. -1.
         -2    1    1    2  502    0  0.52893304491E+01 -0.19812905909E+02  0.90695413005E+02  0.92984870833E+02  0.25500000000E-02 0. -1.
<mgrwt>
<rscale>  0 0.53946075E+02</rscale>
<asrwt>0</asrwt>
<pdfrwt beam="1">  1        2 0.80648246E-01 0.53946075E+02</pdfrwt>
<pdfrwt beam="2">  1       -2 0.21351976E-03 0.53946075E+02</pdfrwt>
<totfact> 0.84368389E+05</totfact>
</mgrwt>
</event>
<event>
 4    1  0.4635140E-002  0.4479238E+02  0.7818608E-02  0.1475642E+00
          2   -1    0    0    0  501  0.00000000000E+00  0.00000000000E+00  0.14362858281E+02  0.14362858508E+02  0.25500000000E-02 0. -1.
         -2   -1    0    0  501    0 -0.00000000000E+00 -0.00000000000E+00 -0.34922672519E+02  0.34922672612E+02  0.25500000000E-02 0. -1.
          2    1    1    2    0  502  0.76474830088E+01 -0.21030420935E+02 -0.11280401333E+02  0.25060128926E+02  0.25500000000E-02 0.  1.
         -2    1    1    2  502    0 -0.76474830088E+01  0.21030420935E+02 -0.92794129048E+01  0.24225402194E+02  0.25500000000E-02 0.  1.
<mgrwt>
<rscale>  0 0.44792383E+02</rscale>
<asrwt>0</asrwt>
<pdfrwt beam="1">  1        2 0.22096705E-02 0.44792383E+02</pdfrwt>
<pdfrwt beam="2">  1       -2 0.53727188E-02 0.44792383E+02</pdfrwt>
<totfact> 0.56108397E+05</totfact>
</mgrwt>
</event>
<event>
 4    1  0.4635140E-002  0.9981706E+02  0.7818608E-02  0.1280681E+00
          2   -1    0    0    0  501  0.00000000000E+00  0.00000000000E+00  0.78365265626E+03  0.78365265627E+03  0.25500000000E-02 0.  1.
         -2   -1    0    0  501    0 -0.00000000000E+00 -0.00000000000E+00 -0.31785268641E+01  0.31785278870E+01  0.25500000000E-02 0.  1.
          2    1    1    2    0  502 -0.26216996969E+02 -0.41439067335E+02  0.31699371739E+03  0.32076400063E+03  0.25500000000E-02 0.  1.
         -2    1    1    2  502    0  0.26216996969E+02  0.41439067335E+02  0.46348041201E+03  0.46606718352E+03  0.25500000000E-02 0.  1.
<mgrwt>
<rscale>  0 0.99817061E+02</rscale>
<asrwt>0</asrwt>
<pdfrwt beam="1">  1        2 0.12056197E+00 0.99817061E+02</pdfrwt>
<pdfrwt beam="2">  1       -2 0.48900413E-03 0.99817061E+02</pdfrwt>
<totfact> 0.19106885E+05</totfact>
</mgrwt>
</event>
<event>
 4    1  0.4635140E-002  0.1237760E+03  0.7818608E-02  0.1236995E+00
          2   -1    0    0    0  501  0.00000000000E+00  0.00000000000E+00  0.13293320366E+02  0.13293320611E+02  0.25500000000E-02 0.  1.
         -2   -1    0    0  501    0 -0.00000000000E+00 -0.00000000000E+00 -0.28812409576E+03  0.28812409577E+03  0.25500000000E-02 0.  1.
          2    1    1    2    0  502 -0.60992393573E+02 -0.93640644095E+01 -0.14893259039E+03  0.16121003152E+03  0.25500000000E-02 0. -1.
         -2    1    1    2  502    0  0.60992393573E+02  0.93640644095E+01 -0.12589818501E+03  0.14020738487E+03  0.25500000000E-02 0. -1.
<mgrwt>
<rscale>  0 0.12377602E+03</rscale>
<asrwt>0</asrwt>
<pdfrwt beam="1">  1        2 0.20451265E-02 0.12377602E+03</pdfrwt>
<pdfrwt beam="2">  1       -2 0.44326779E-01 0.12377602E+03</pdfrwt>
<totfact> 0.23646574E+04</totfact>
</mgrwt>
</event>
<event>
 4    1  0.4635140E-002  0.6509580E+02  0.7818608E-02  0.1377611E+00
         -2   -1    0    0  501    0 -0.00000000000E+00  0.00000000000E+00  0.15433537711E+01  0.15433558777E+01  0.25500000000E-02 0.  1.
          2   -1    0    0    0  501  0.00000000000E+00 -0.00000000000E+00 -0.68640462804E+03  0.68640462804E+03  0.25500000000E-02 0.  1.
          2    1    1    2    0  502 -0.22419606531E+02  0.87264199165E+01 -0.11075307148E+03  0.11333592551E+03  0.25500000000E-02 0. -1.
         -2    1    1    2  502    0  0.22419606531E+02 -0.87264199165E+01 -0.57410820279E+03  0.57461205841E+03  0.25500000000E-02 0. -1.
<mgrwt>
<rscale>  0 0.65095803E+02</rscale>
<asrwt>0</asrwt>
<pdfrwt beam="2">  1        2 0.10560047E+00 0.65095803E+02</pdfrwt>
<pdfrwt beam="1">  1       -2 0.23743975E-03 0.65095803E+02</pdfrwt>
<totfact> 0.56534625E+05</totfact>
</mgrwt>
</event>
<event>
 4    1  0.4635140E-002  0.1023079E+03  0.7818608E-02  0.1275516E+00
          2   -1    0    0    0  501  0.00000000000E+00  0.00000000000E+00  0.14876497006E+04  0.14876497006E+04  0.25500000000E-02 0.  1.
         -2   -1    0    0  501    0 -0.00000000000E+00 -0.00000000000E+00 -0.17589643782E+01  0.17589662266E+01  0.25500000000E-02 0.  1.
          2    1    1    2    0  502 -0.41973814128E+02 -0.24366195488E+02  0.50765661200E+03  0.50997132103E+03  0.25500000000E-02 0. -1.
         -2    1    1    2  502    0  0.41973814128E+02  0.24366195488E+02  0.97823412419E+03  0.97943734577E+03  0.25500000000E-02 0. -1.
<mgrwt>
<rscale>  0 0.10230785E+03</rscale>
<asrwt>0</asrwt>
<pdfrwt beam="1">  1        2 0.22887132E+00 0.10230785E+03</pdfrwt>
<pdfrwt beam="2">  1       -2 0.27060752E-03 0.10230785E+03</pdfrwt>
<totfact> 0.17444145E+05</totfact>
</mgrwt>
</event>
<event>
 4    1  0.4635140E-002  0.8358710E+02  0.7818608E-02  0.1319169E+00
         -2   -1    0    0  501    0 -0.00000000000E+00  0.00000000000E+00  0.85941757084E+00  0.85942135391E+00  0.25500000000E-02 0.  1.
          2   -1    0    0    0  501  0.00000000000E+00 -0.00000000000E+00 -0.20324193009E+04  0.20324193009E+04  0.25500000000E-02 0.  1.
          2    1    1    2    0  502  0.25207060314E+02 -0.16923371697E+02 -0.17144296083E+04  0.17146984220E+04  0.25500000000E-02 0. -1.
         -2    1    1    2  502    0 -0.25207060314E+02  0.16923371697E+02 -0.31713027505E+03  0.31858030033E+03  0.25500000000E-02 0. -1.
<mgrwt>
<rscale>  0 0.83587097E+02</rscale>
<asrwt>0</asrwt>
<pdfrwt beam="2">  1        2 0.31267605E+00 0.83587097E+02</pdfrwt>
<pdfrwt beam="1">  1       -2 0.13222001E-03 0.83587097E+02</pdfrwt>
<totfact> 0.24367611E+05</totfact>
</mgrwt>
</event>
<event>
 4    1  0.4635140E-002  0.4112057E+02  0.7818608E-02  0.1500124E+00
         -2   -1    0    0  501    0 -0.00000000000E+00  0.00000000000E+00  0.19486695510E+00  0.19488363885E+00  0.25500000000E-02 0. -1.
          2   -1    0    0    0  501  0.00000000000E+00 -0.00000000000E+00 -0.21692091521E+04  0.21692091521E+04  0.25500000000E-02 0. -1.
          2    1    1    2    0  502 -0.20499113062E+02 -0.28729354203E+00 -0.10022821043E+04  0.10024917520E+04  0.25500000000E-02 0.  1.
         -2    1    1    2  502    0  0.20499113062E+02  0.28729354203E+00 -0.11667321808E+04  0.11669122838E+04  0.25500000000E-02 0.  1.
<mgrwt>
<rscale>  0 0.41120568E+02</rscale>
<asrwt>0</asrwt>
<pdfrwt beam="2">  1        2 0.33370515E+00 0.41120568E+02</pdfrwt>
<pdfrwt beam="1">  1       -2 0.29982552E-04 0.41120568E+02</pdfrwt>
<totfact> 0.13776308E+06</totfact>
</mgrwt>
</event>
<event>
 4    1  0.4635140E-002  0.5016878E+02  0.7818608E-02  0.1444433E+00
         -2   -1    0    0  501    0 -0.00000000000E+00  0.00000000000E+00  0.89781612883E+00  0.89781975011E+00  0.25500000000E-02 0. -1.
          2   -1    0    0    0  501  0.00000000000E+00 -0.00000000000E+00 -0.70083992509E+03  0.70083992509E+03  0.25500000000E-02 0. -1.
          2    1    1    2    0  502 -0.22798409181E+02 -0.98634960341E+01 -0.39876859949E+03  0.39954155223E+03  0.25500000000E-02 0. -1.
         -2    1    1    2  502    0  0.22798409181E+02  0.98634960341E+01 -0.30117350947E+03  0.30219619261E+03  0.25500000000E-02 0. -1.
<mgrwt>
<rscale>  0 0.50168782E+02</rscale>
<asrwt>0</asrwt>
<pdfrwt beam="2">  1        2 0.10782109E+00 0.50168782E+02</pdfrwt>
<pdfrwt beam="1">  1       -2 0.13812640E-03 0.50168782E+02</pdfrwt>
<totfact> 0.10915480E+06</totfact>
</mgrwt>
</event>
<event>
 4    1  0.4635140E-002  0.5452587E+02  0.7818608E-02  0.1422354E+00
         -2   -1    0    0  501    0 -0.00000000000E+00  0.00000000000E+00  0.12568388847E+02  0.12568389106E+02  0.25500000000E-02 0.  1.
          2   -1    0    0    0  501  0.00000000000E+00 -0.00000000000E+00 -0.59137862164E+02  0.59137862219E+02  0.25500000000E-02 0.  1.
          2    1    1    2    0  502  0.20587989022E+02 -0.14282454820E+02 -0.91566497111E+01  0.26677669465E+02  0.25500000000E-02 0.  1.
         -2    1    1    2  502    0 -0.20587989022E+02  0.14282454820E+02 -0.37412823606E+02  0.45028581860E+02  0.25500000000E-02 0.  1.
<mgrwt>
<rscale>  0 0.54525871E+02</rscale>
<asrwt>0</asrwt>
<pdfrwt beam="2">  1        2 0.90981325E-02 0.54525871E+02</pdfrwt>
<pdfrwt beam="1">  1       -2 0.19335983E-02 0.54525871E+02</pdfrwt>
<totfact> 0.42405770E+05</totfact>
</mgrwt>
</event>
<event>
 4    1  0.4635140E-002  0.5880446E+02  0.7818608E-02  0.1402918E+00
         -2   -1    0    0  501    0 -0.00000000000E+00  0.00000000000E+00  0.60672873657E+00  0.60673409520E+00  0.25500000000E-02 0. -1.
          2   -1    0    0    0  501  0.00000000000E+00 -0.00000000000E+00 -0.14248332701E+04  0.14248332701E+04  0.25500000000E-02 0. -1.
          2    1    1    2    0  502  0.19092468037E+01  0.27749892113E+02 -0.48114294919E+03  0.48194630334E+03  0.25500000000E-02 0. -1.
         -2    1    1    2  502    0 -0.19092468037E+01 -0.27749892113E+02 -0.94308359218E+03  0.94349370087E+03  0.25500000000E-02 0. -1.
<mgrwt>
<rscale>  0 0.58804459E+02</rscale>
<asrwt>0</asrwt>
<pdfrwt beam="2">  1        2 0.21920244E+00 0.58804459E+02</pdfrwt>
<pdfrwt beam="1">  1       -2 0.93344435E-04 0.58804459E+02</pdfrwt>
<totfact> 0.74344987E+05</totfact>
</mgrwt>
</event>
<event>
 4    1  0.4635140E-002  0.4231876E+02  0.7818608E-02  0.1491810E+00
          2   -1    0    0    0  501  0.00000000000E+00  0.00000000000E+00  0.17331576352E+03  0.17331576354E+03  0.25500000000E-02 0. -1.
         -2   -1    0    0  501    0 -0.00000000000E+00 -0.00000000000E+00 -0.25832575525E+01  0.25832588111E+01  0.25500000000E-02 0. -1.
          2    1    1    2    0  502 -0.20320180074E+02  0.40946393299E+01  0.10302222943E+03  0.10508689525E+03  0.25500000000E-02 0.  1.
         -2    1    1    2  502    0  0.20320180074E+02 -0.40946393299E+01  0.67710276539E+02  0.70812127104E+02  0.25500000000E-02 0.  1.
<mgrwt>
<rscale>  0 0.42318760E+02</rscale>
<asrwt>0</asrwt>
<pdfrwt beam="1">  1        2 0.26663964E-01 0.42318760E+02</pdfrwt>
<pdfrwt beam="2">  1       -2 0.39742434E-03 0.42318760E+02</pdfrwt>
<totfact> 0.10630257E+06</totfact>
</mgrwt>
</event>
<event>
 4    1  0.4635140E-002  0.5718470E+02  0.7818608E-02  0.1410041E+00
         -2   -1    0    0  501    0 -0.00000000000E+00  0.00000000000E+00  0.19553675394E+01  0.19553692022E+01  0.25500000000E-02 0.  1.
          2   -1    0    0    0  501  0.00000000000E+00 -0.00000000000E+00 -0.41809134406E+03  0.41809134407E+03  0.25500000000E-02 0.  1.
          2    1    1    2    0  502  0.27376000971E+02  0.78228236620E+01 -0.22733571528E+03  0.22911169644E+03  0.25500000000E-02 0. -1.
         -2    1    1    2  502    0 -0.27376000971E+02 -0.78228236620E+01 -0.18880026125E+03  0.19093501683E+03  0.25500000000E-02 0. -1.
<mgrwt>
<rscale>  0 0.57184704E+02</rscale>
<asrwt>0</asrwt>
<pdfrwt beam="2">  1        2 0.64321674E-01 0.57184704E+02</pdfrwt>
<pdfrwt beam="1">  1       -2 0.30082624E-03 0.57184704E+02</pdfrwt>
<totfact> 0.67781147E+05</totfact>
</mgrwt>
</event>
<event>
 4    1  0.4635140E-002  0.4433256E+02  0.7818608E-02  0.1478552E+00
          2   -1    0    0    0  501  0.00000000000E+00  0.00000000000E+00  0.14864972313E+03  0.14864972315E+03  0.25500000000E-02 0. -1.
         -2   -1    0    0  501    0 -0.00000000000E+00 -0.00000000000E+00 -0.33053797381E+01  0.33053807217E+01  0.25500000000E-02 0. -1.
          2    1    1    2    0  502 -0.21095019172E+02 -0.64846820105E+01  0.65570365199E+02  0.69184707367E+02  0.25500000000E-02 0.  1.
         -2    1    1    2  502    0  0.21095019172E+02  0.64846820105E+01  0.79773978195E+02  0.82770396509E+02  0.25500000000E-02 0.  1.
<mgrwt>
<rscale>  0 0.44332555E+02</rscale>
<asrwt>0</asrwt>
<pdfrwt beam="1">  1        2 0.22869185E-01 0.44332555E+02</pdfrwt>
<pdfrwt beam="2">  1       -2 0.50852011E-03 0.44332555E+02</pdfrwt>
<totfact> 0.90428981E+05</totfact>
</mgrwt>
</event>
<event>
 4    1  0.4635140E-002  0.4920209E+02  0.7818608E-02  0.1449693E+00
         -2   -1    0    0  501    0 -0.00000000000E+00  0.00000000000E+00  0.57849823030E+01  0.57849828650E+01  0.25500000000E-02 0. -1.
          2   -1    0    0    0  501  0.00000000000E+00 -0.00000000000E+00 -0.10461767029E+03  0.10461767032E+03  0.25500000000E-02 0. -1.
          2    1    1    2    0  502 -0.22645992066E+02  0.41570163620E+00 -0.27870880116E+02  0.35913781887E+02  0.25500000000E-02 0. -1.
         -2    1    1    2  502    0  0.22645992066E+02 -0.41570163620E+00 -0.70961807868E+02  0.74488871296E+02  0.25500000000E-02 0. -1.
<mgrwt>
<rscale>  0 0.49202090E+02</rscale>
<asrwt>0</asrwt>
<pdfrwt beam="2">  1        2 0.16095025E-01 0.49202090E+02</pdfrwt>
<pdfrwt beam="1">  1       -2 0.88999740E-03 0.49202090E+02</pdfrwt>
<totfact> 0.63101547E+05</totfact>
</mgrwt>
</event>
<event>
 4    1  0.4635140E-002  0.5381471E+02  0.7818608E-02  0.1425789E+00
          2   -1    0    0    0  501  0.00000000000E+00  0.00000000000E+00  0.21711833042E+04  0.21711833042E+04  0.25500000000E-02 0.  1.
         -2   -1    0    0  501    0 -0.00000000000E+00 -0.00000000000E+00 -0.33345647131E+00  0.33346622131E+00  0.25500000000E-02 0.  1.
          2    1    1    2    0  502  0.21466397184E+02  0.14484841421E+02  0.13802656974E+04  0.13805086064E+04  0.25500000000E-02 0.  1.
         -2    1    1    2  502    0 -0.21466397184E+02 -0.14484841421E+02  0.79058415030E+03  0.79100816403E+03  0.25500000000E-02 0.  1.
<mgrwt>
<rscale>  0 0.53814708E+02</rscale>
<asrwt>0</asrwt>
<pdfrwt beam="1">  1        2 0.33402751E+00 0.53814708E+02</pdfrwt>
<pdfrwt beam="2">  1       -2 0.51301852E-04 0.53814708E+02</pdfrwt>
<totfact> 0.70480371E+05</totfact>
</mgrwt>
</event>
<event>
 4    1  0.4635140E-002  0.5992287E+02  0.7818608E-02  0.1398156E+00
          2   -1    0    0    0  501  0.00000000000E+00  0.00000000000E+00  0.14778108939E+02  0.14778109159E+02  0.25500000000E-02 0. -1.
         -2   -1    0    0  501    0 -0.00000000000E+00 -0.00000000000E+00 -0.60744424267E+02  0.60744424320E+02  0.25500000000E-02 0. -1.
          2    1    1    2    0  502  0.23569155083E+02 -0.18000128902E+02 -0.28356655695E+02  0.41031812543E+02  0.25500000000E-02 0.  1.
         -2    1    1    2  502    0 -0.23569155083E+02  0.18000128902E+02 -0.17609659632E+02  0.34490720936E+02  0.25500000000E-02 0.  1.
<mgrwt>
<rscale>  0 0.59922875E+02</rscale>
<asrwt>0</asrwt>
<pdfrwt beam="1">  1        2 0.22735553E-02 0.59922875E+02</pdfrwt>
<pdfrwt beam="2">  1       -2 0.93452959E-02 0.59922875E+02</pdfrwt>
<totfact> 0.25376986E+05</totfact>
</mgrwt>
</event>
<event>
 4    1  0.4635140E-002  0.6002863E+02  0.7818608E-02  0.1397712E+00
         -2   -1    0    0  501    0 -0.00000000000E+00  0.00000000000E+00  0.56976283663E+03  0.56976283663E+03  0.25500000000E-02 0. -1.
          2   -1    0    0    0  501  0.00000000000E+00 -0.00000000000E+00 -0.15811116098E+01  0.15811136661E+01  0.25500000000E-02 0. -1.
          2    1    1    2    0  502  0.22706903784E+02 -0.55255001282E+01  0.10483027374E+03  0.10740354245E+03  0.25500000000E-02 0.  1.
         -2    1    1    2  502    0 -0.22706903784E+02  0.55255001282E+01  0.46335145128E+03  0.46394040786E+03  0.25500000000E-02 0.  1.
<mgrwt>
<rscale>  0 0.60028634E+02</rscale>
<asrwt>0</asrwt>
<pdfrwt beam="2">  1        2 0.24324828E-03 0.60028634E+02</pdfrwt>
<pdfrwt beam="1">  1       -2 0.87655756E-01 0.60028634E+02</pdfrwt>
<totfact> 0.94840096E+04</totfact>
</mgrwt>
</event>
<event>
 4    1  0.4635140E-002  0.4333552E+02  0.7818608E-02  0.1485008E+00
          2   -1    0    0    0  501  0.00000000000E+00  0.00000000000E+00  0.88163186064E+00  0.88163554840E+00  0.25500000000E-02 0.  1.
         -2   -1    0    0  501    0 -0.00000000000E+00 -0.00000000000E+00 -0.53252488330E+03  0.53252488330E+03  0.25500000000E-02 0.  1.
          2    1    1    2    0  502 -0.18981064625E+02 -0.88910282549E+01 -0.33341978563E+03  0.33407796194E+03  0.25500000000E-02 0. -1.
         -2    1    1    2  502    0  0.18981064625E+02  0.88910282549E+01 -0.19822346581E+03  0.19932855691E+03  0.25500000000E-02 0. -1.
<mgrwt>
<rscale>  0 0.43335523E+02</rscale>
<asrwt>0</asrwt>
<pdfrwt beam="1">  1        2 0.13563638E-03 0.43335523E+02</pdfrwt>
<pdfrwt beam="2">  1       -2 0.81926648E-01 0.43335523E+02</pdfrwt>
<totfact> 0.22342118E+05</totfact>
</mgrwt>
</event>
<event>
 4    1  0.4635140E-002  0.6440144E+02  0.7818608E-02  0.1380237E+00
         -2   -1    0    0  501    0 -0.00000000000E+00  0.00000000000E+00  0.75509206472E+01  0.75509210778E+01  0.25500000000E-02 0. -1.
          2   -1    0    0    0  501  0.00000000000E+00 -0.00000000000E+00 -0.13731918682E+03  0.13731918684E+03  0.25500000000E-02 0. -1.
          2    1    1    2    0  502  0.24542909040E+02 -0.20178863237E+02 -0.76647330524E+02  0.82972008464E+02  0.25500000000E-02 0. -1.
         -2    1    1    2  502    0 -0.24542909040E+02  0.20178863237E+02 -0.53120935648E+02  0.61898099456E+02  0.25500000000E-02 0. -1.
<mgrwt>
<rscale>  0 0.64401438E+02</rscale>
<asrwt>0</asrwt>
<pdfrwt beam="2">  1        2 0.21126027E-01 0.64401438E+02</pdfrwt>
<pdfrwt beam="1">  1       -2 0.11616802E-02 0.64401438E+02</pdfrwt>
<totfact> 0.34215152E+05</totfact>
</mgrwt>
</event>
<event>
 4    1  0.4635140E-002  0.5465682E+02  0.7818608E-02  0.1421729E+00
         -2   -1    0    0  501    0 -0.00000000000E+00  0.00000000000E+00  0.34265708254E+01  0.34265717742E+01  0.25500000000E-02 0. -1.
          2   -1    0    0    0  501  0.00000000000E+00 -0.00000000000E+00 -0.21795608927E+03  0.21795608929E+03  0.25500000000E-02 0. -1.
          2    1    1    2    0  502 -0.20161914571E+02  0.17637623744E+02 -0.12917202522E+03  0.13192043313E+03  0.25500000000E-02 0.  1.
         -2    1    1    2  502    0  0.20161914571E+02 -0.17637623744E+02 -0.85357493226E+02  0.89462227934E+02  0.25500000000E-02 0.  1.
<mgrwt>
<rscale>  0 0.54656823E+02</rscale>
<asrwt>0</asrwt>
<pdfrwt beam="2">  1        2 0.33531695E-01 0.54656823E+02</pdfrwt>
<pdfrwt beam="1">  1       -2 0.52716499E-03 0.54656823E+02</pdfrwt>
<totfact> 0.60567691E+05</totfact>
</mgrwt>
</event>
<event>
 4    1  0.4635140E-002  0.4070837E+02  0.7818608E-02  0.1503062E+00
         -2   -1    0    0  501    0 -0.00000000000E+00  0.00000000000E+00  0.47559270653E+00  0.47559954268E+00  0.25500000000E-02 0. -1.
          2   -1    0    0    0  501  0.00000000000E+00 -0.00000000000E+00 -0.87110221578E+03  0.87110221578E+03  0.25500000000E-02 0. -1.
          2    1    1    2    0  502 -0.18637637720E+02  0.80010455406E+01 -0.47186515995E+03  0.47230086539E+03  0.25500000000E-02 0. -1.
         -2    1    1    2  502    0  0.18637637720E+02 -0.80010455406E+01 -0.39876146312E+03  0.39927694993E+03  0.25500000000E-02 0. -1.
<mgrwt>
<rscale>  0 0.40708370E+02</rscale>
<asrwt>0</asrwt>
<pdfrwt beam="2">  1        2 0.13401445E+00 0.40708370E+02</pdfrwt>
<pdfrwt beam="1">  1       -2 0.73169332E-04 0.40708370E+02</pdfrwt>
<totfact> 0.18882821E+06</totfact>
</mgrwt>
</event>
<event>
 4    1  0.4635140E-002  0.4359913E+02  0.7818608E-02  0.1483281E+00
         -2   -1    0    0  501    0 -0.00000000000E+00  0.00000000000E+00  0.20421625750E+02  0.20421625910E+02  0.25500000000E-02 0.  1.
          2   -1    0    0    0  501  0.00000000000E+00 -0.00000000000E+00 -0.23270475377E+02  0.23270475516E+02  0.25500000000E-02 0.  1.
          2    1    1    2    0  502  0.19985452828E+02  0.20994214694E+01 -0.98920023664E+01  0.22398160920E+02  0.25500000000E-02 0. -1.
         -2    1    1    2  502    0 -0.19985452828E+02 -0.20994214694E+01  0.70431527403E+01  0.21293940506E+02  0.25500000000E-02 0. -1.
<mgrwt>
<rscale>  0 0.43599126E+02</rscale>
<asrwt>0</asrwt>
<pdfrwt beam="2">  1        2 0.35800732E-02 0.43599126E+02</pdfrwt>
<pdfrwt beam="1">  1       -2 0.31417886E-02 0.43599126E+02</pdfrwt>
<totfact> 0.64503989E+05</totfact>
</mgrwt>
</event>
<event>
 4    1  0.4635140E-002  0.4374015E+02  0.7818608E-02  0.1482363E+00
          2   -1    0    0    0  501  0.00000000000E+00  0.00000000000E+00  0.95872030176E+03  0.95872030176E+03  0.25500000000E-02 0.  1.
         -2   -1    0    0  501    0 -0.00000000000E+00 -0.00000000000E+00 -0.49889113274E+00  0.49889764965E+00  0.25500000000E-02 0.  1.
          2    1    1    2    0  502  0.19724497940E+02  0.75744767975E+01  0.60291620488E+03  0.60328631563E+03  0.25500000000E-02 0.  1.
         -2    1    1    2  502    0 -0.19724497940E+02 -0.75744767975E+01  0.35530520575E+03  0.35593288378E+03  0.25500000000E-02 0.  1.
<mgrwt>
<rscale>  0 0.43740150E+02</rscale>
<asrwt>0</asrwt>
<pdfrwt beam="1">  1        2 0.14749559E+00 0.43740150E+02</pdfrwt>
<pdfrwt beam="2">  1       -2 0.76752902E-04 0.43740150E+02</pdfrwt>
<totfact> 0.16024511E+06</totfact>
</mgrwt>
</event>
<event>
 4    1  0.4635140E-002  0.4569468E+02  0.7818608E-02  0.1470051E+00
         -2   -1    0    0  501    0 -0.00000000000E+00  0.00000000000E+00  0.35556787395E+00  0.35557701765E+00  0.25500000000E-02 0. -1.
          2   -1    0    0    0  501  0.00000000000E+00 -0.00000000000E+00 -0.14680577433E+04  0.14680577433E+04  0.25500000000E-02 0. -1.
          2    1    1    2    0  502 -0.14023564322E+01 -0.22199720000E+02 -0.90146910282E+03  0.90174349874E+03  0.25500000000E-02 0. -1.
         -2    1    1    2  502    0  0.14023564322E+01  0.22199720000E+02 -0.56623307265E+03  0.56666982162E+03  0.25500000000E-02 0. -1.
<mgrwt>
<rscale>  0 0.45694677E+02</rscale>
<asrwt>0</asrwt>
<pdfrwt beam="2">  1        2 0.22585019E+00 0.45694677E+02</pdfrwt>
<pdfrwt beam="1">  1       -2 0.54704629E-04 0.45694677E+02</pdfrwt>
<totfact> 0.13786202E+06</totfact>
</mgrwt>
</event>
<event>
 4    1  0.4635140E-002  0.6053940E+02  0.7818608E-02  0.1395582E+00
          2   -1    0    0    0  501  0.00000000000E+00  0.00000000000E+00  0.66569657537E+00  0.66570145933E+00  0.25500000000E-02 0. -1.
         -2   -1    0    0  501    0 -0.00000000000E+00 -0.00000000000E+00 -0.13763798008E+04  0.13763798008E+04  0.25500000000E-02 0. -1.
          2    1    1    2    0  502  0.20787130143E+02 -0.20833029338E+02 -0.52679998842E+03  0.52762140565E+03  0.25500000000E-02 0.  1.
         -2    1    1    2  502    0 -0.20787130143E+02  0.20833029338E+02 -0.84891411577E+03  0.84942409658E+03  0.25500000000E-02 0.  1.
<mgrwt>
<rscale>  0 0.60539398E+02</rscale>
<asrwt>0</asrwt>
<pdfrwt beam="1">  1        2 0.10241634E-03 0.60539398E+02</pdfrwt>
<pdfrwt beam="2">  1       -2 0.21174846E+00 0.60539398E+02</pdfrwt>
<totfact> 0.34816790E+04</totfact>
</mgrwt>
</event>
<event>
 4    1  0.4635140E-002  0.4862033E+02  0.7818608E-02  0.1452928E+00
          2   -1    0    0    0  501  0.00000000000E+00  0.00000000000E+00  0.63827655809E+03  0.63827655810E+03  0.25500000000E-02 0.  1.
         -2   -1    0    0  501    0 -0.00000000000E+00 -0.00000000000E+00 -0.92590415176E+00  0.92590766318E+00  0.25500000000E-02 0.  1.
          2    1    1    2    0  502  0.22469082226E+02  0.37138384027E+01  0.43048648581E+03  0.43108846740E+03  0.25500000000E-02 0. -1.
         -2    1    1    2  502    0 -0.22469082226E+02 -0.37138384027E+01  0.20686416813E+03  0.20811399836E+03  0.25500000000E-02 0. -1.
<mgrwt>
<rscale>  0 0.48620327E+02</rscale>
<asrwt>0</asrwt>
<pdfrwt beam="1">  1        2 0.98196087E-01 0.48620327E+02</pdfrwt>
<pdfrwt beam="2">  1       -2 0.14244751E-03 0.48620327E+02</pdfrwt>
<totfact> 0.11533194E+06</totfact>
</mgrwt>
</event>
<event>
 4    1  0.4635140E-002  0.4592510E+02  0.7818608E-02  0.1468648E+00
         -2   -1    0    0  501    0 -0.00000000000E+00  0.00000000000E+00  0.27181300416E+00  0.27182496524E+00  0.25500000000E-02 0.  1.
          2   -1    0    0    0  501  0.00000000000E+00 -0.00000000000E+00 -0.19398154590E+04  0.19398154590E+04  0.25500000000E-02 0.  1.
          2    1    1    2    0  502  0.44066362882E+01  0.20495704803E+02 -0.57396383033E+03  0.57434655992E+03  0.25500000000E-02 0.  1.
         -2    1    1    2  502    0 -0.44066362882E+01 -0.20495704803E+02 -0.13655798157E+04  0.13657407240E+04  0.25500000000E-02 0.  1.
<mgrwt>
<rscale>  0 0.45925099E+02</rscale>
<asrwt>0</asrwt>
<pdfrwt beam="2">  1        2 0.29842206E+00 0.45925099E+02</pdfrwt>
<pdfrwt beam="1">  1       -2 0.41819859E-04 0.45925099E+02</pdfrwt>
<totfact> 0.11672616E+06</totfact>
</mgrwt>
</event>
<event>
 4    1  0.4635140E-002  0.1572498E+03  0.7818608E-02  0.1191837E+00
         -2   -1    0    0  501    0 -0.00000000000E+00  0.00000000000E+00  0.49167994935E+01  0.49168001547E+01  0.25500000000E-02 0.  1.
          2   -1    0    0    0  501  0.00000000000E+00 -0.00000000000E+00 -0.12572960431E+04  0.12572960431E+04  0.25500000000E-02 0.  1.
          2    1    1    2    0  502  0.33574248935E+02 -0.31120991861E+02 -0.11309380732E+03  0.12200801443E+03  0.25500000000E-02 0.  1.
         -2    1    1    2  502    0 -0.33574248935E+02  0.31120991861E+02 -0.11392854363E+04  0.11402048288E+04  0.25500000000E-02 0.  1.
<mgrwt>
<rscale>  0 0.15724978E+03</rscale>
<asrwt>0</asrwt>
<pdfrwt beam="2">  1        2 0.19342990E+00 0.15724978E+03</pdfrwt>
<pdfrwt beam="1">  1       -2 0.75643174E-03 0.15724978E+03</pdfrwt>
<totfact> 0.56666923E+04</totfact>
</mgrwt>
</event>
<event>
 4    1  0.4635140E-002  0.5793271E+02  0.7818608E-02  0.1406718E+00
         -2   -1    0    0  501    0 -0.00000000000E+00  0.00000000000E+00  0.35380150696E+01  0.35380159885E+01  0.25500000000E-02 0. -1.
          2   -1    0    0    0  501  0.00000000000E+00 -0.00000000000E+00 -0.23715263759E+03  0.23715263760E+03  0.25500000000E-02 0. -1.
          2    1    1    2    0  502 -0.19204772724E+02 -0.91826144539E+01 -0.35191152203E+02  0.41128589855E+02  0.25500000000E-02 0.  1.
         -2    1    1    2  502    0  0.19204772724E+02  0.91826144539E+01 -0.19842347032E+03  0.19956206374E+03  0.25500000000E-02 0.  1.
<mgrwt>
<rscale>  0 0.57932710E+02</rscale>
<asrwt>0</asrwt>
<pdfrwt beam="2">  1        2 0.36485009E-01 0.57932710E+02</pdfrwt>
<pdfrwt beam="1">  1       -2 0.54431027E-03 0.57932710E+02</pdfrwt>
<totfact> 0.53797481E+05</totfact>
</mgrwt>
</event>
<event>
 4    1  0.4635140E-002  0.4841816E+02  0.7818608E-02  0.1454065E+00
         -2   -1    0    0  501    0 -0.00000000000E+00  0.00000000000E+00  0.83174530878E+00  0.83174921772E+00  0.25500000000E-02 0. -1.
          2   -1    0    0    0  501  0.00000000000E+00 -0.00000000000E+00 -0.70463655705E+03  0.70463655705E+03  0.25500000000E-02 0. -1.
          2    1    1    2    0  502 -0.78345016440E+01 -0.22004027933E+02 -0.44465355471E+03  0.44526659473E+03  0.25500000000E-02 0. -1.
         -2    1    1    2  502    0  0.78345016440E+01  0.22004027933E+02 -0.25915125703E+03  0.26020171154E+03  0.25500000000E-02 0. -1.
<mgrwt>
<rscale>  0 0.48418159E+02</rscale>
<asrwt>0</asrwt>
<pdfrwt beam="2">  1        2 0.10840515E+00 0.48418159E+02</pdfrwt>
<pdfrwt beam="1">  1       -2 0.12796168E-03 0.48418159E+02</pdfrwt>
<totfact> 0.11928119E+06</totfact>
</mgrwt>
</event>
<event>
 4    1  0.4635140E-002  0.6926967E+02  0.7818608E-02  0.1362594E+00
          2   -1    0    0    0  501  0.00000000000E+00  0.00000000000E+00  0.17681263011E+04  0.17681263011E+04  0.25500000000E-02 0. -1.
         -2   -1    0    0  501    0 -0.00000000000E+00 -0.00000000000E+00 -0.67843994293E+00  0.67844473516E+00  0.25500000000E-02 0. -1.
          2    1    1    2    0  502  0.17909270087E+02 -0.22814944077E+02  0.40037016623E+03  0.40141939868E+03  0.25500000000E-02 0.  1.
         -2    1    1    2  502    0 -0.17909270087E+02  0.22814944077E+02  0.13670776949E+04  0.13673853471E+04  0.25500000000E-02 0.  1.
<mgrwt>
<rscale>  0 0.69269669E+02</rscale>
<asrwt>0</asrwt>
<pdfrwt beam="1">  1        2 0.27201993E+00 0.69269669E+02</pdfrwt>
<pdfrwt beam="2">  1       -2 0.10437555E-03 0.69269669E+02</pdfrwt>
<totfact> 0.44369904E+05</totfact>
</mgrwt>
</event>
<event>
 4    1  0.4635140E-002  0.7882969E+02  0.7818608E-02  0.1332406E+00
          2   -1    0    0    0  501  0.00000000000E+00  0.00000000000E+00  0.39226950821E+01  0.39226959109E+01  0.25500000000E-02 0.  1.
         -2   -1    0    0  501    0 -0.00000000000E+00 -0.00000000000E+00 -0.39603636754E+03  0.39603636755E+03  0.25500000000E-02 0.  1.
          2    1    1    2    0  502 -0.22001574806E+02 -0.13254347745E+02 -0.44372138771E+02  0.51270203176E+02  0.25500000000E-02 0.  1.
         -2    1    1    2  502    0  0.22001574806E+02  0.13254347745E+02 -0.34774153369E+03  0.34868886029E+03  0.25500000000E-02 0.  1.
<mgrwt>
<rscale>  0 0.78829692E+02</rscale>
<asrwt>0</asrwt>
<pdfrwt beam="1">  1        2 0.60349193E-03 0.78829692E+02</pdfrwt>
<pdfrwt beam="2">  1       -2 0.60928640E-01 0.78829692E+02</pdfrwt>
<totfact> 0.62493253E+04</totfact>
</mgrwt>
</event>
<event>
 4    1  0.4635140E-002  0.4829385E+02  0.7818608E-02  0.1454767E+00
         -2   -1    0    0  501    0 -0.00000000000E+00  0.00000000000E+00  0.25690709508E+00  0.25691975012E+00  0.25500000000E-02 0.  1.
          2   -1    0    0    0  501  0.00000000000E+00 -0.00000000000E+00 -0.22695345862E+04  0.22695345862E+04  0.25500000000E-02 0.  1.
          2    1    1    2    0  502 -0.21944699367E+02  0.78386373082E+01 -0.14321126383E+04  0.14323022108E+04  0.25500000000E-02 0. -1.
         -2    1    1    2  502    0  0.21944699367E+02 -0.78386373082E+01 -0.83716504077E+03  0.83748929519E+03  0.25500000000E-02 0. -1.
<mgrwt>
<rscale>  0 0.48293846E+02</rscale>
<asrwt>0</asrwt>
<pdfrwt beam="2">  1        2 0.34914311E+00 0.48293846E+02</pdfrwt>
<pdfrwt beam="1">  1       -2 0.39526960E-04 0.48293846E+02</pdfrwt>
<totfact> 0.87737789E+05</totfact>
</mgrwt>
</event>
<event>
 4    1  0.4635140E-002  0.4623752E+02  0.7818608E-02  0.1466761E+00
          2   -1    0    0    0  501  0.00000000000E+00  0.00000000000E+00  0.99437369684E+03  0.99437369684E+03  0.25500000000E-02 0. -1.
         -2   -1    0    0  501    0 -0.00000000000E+00 -0.00000000000E+00 -0.53749815398E+00  0.53750420281E+00  0.25500000000E-02 0. -1.
          2    1    1    2    0  502 -0.18073484575E+02 -0.14385498962E+02  0.51714451841E+03  0.51766016493E+03  0.25500000000E-02 0. -1.
         -2    1    1    2  502    0  0.18073484575E+02  0.14385498962E+02  0.47669168027E+03  0.47725103611E+03  0.25500000000E-02 0. -1.
<mgrwt>
<rscale>  0 0.46237519E+02</rscale>
<asrwt>0</asrwt>
<pdfrwt beam="1">  1        2 0.15297940E+00 0.46237519E+02</pdfrwt>
<pdfrwt beam="2">  1       -2 0.82693121E-04 0.46237519E+02</pdfrwt>
<totfact> 0.14027603E+06</totfact>
</mgrwt>
</event>
<event>
 4    1  0.4635140E-002  0.6816717E+02  0.7818608E-02  0.1366439E+00
          2   -1    0    0    0  501  0.00000000000E+00  0.00000000000E+00  0.97916840287E+03  0.97916840288E+03  0.25500000000E-02 0. -1.
         -2   -1    0    0  501    0 -0.00000000000E+00 -0.00000000000E+00 -0.11864039995E+01  0.11864067399E+01  0.25500000000E-02 0. -1.
          2    1    1    2    0  502  0.30220300265E+02  0.15719496491E+02  0.47245819556E+03  0.47368461625E+03  0.25500000000E-02 0.  1.
         -2    1    1    2  502    0 -0.30220300265E+02 -0.15719496491E+02  0.50552380332E+03  0.50667019337E+03  0.25500000000E-02 0.  1.
<mgrwt>
<rscale>  0 0.68167167E+02</rscale>
<asrwt>0</asrwt>
<pdfrwt beam="1">  1        2 0.15064162E+00 0.68167167E+02</pdfrwt>
<pdfrwt beam="2">  1       -2 0.18252350E-03 0.68167167E+02</pdfrwt>
<totfact> 0.53110089E+05</totfact>
</mgrwt>
</event>
<event>
 4    1  0.4635140E-002  0.4743350E+02  0.7818608E-02  0.1459697E+00
         -2   -1    0    0  501    0 -0.00000000000E+00  0.00000000000E+00  0.34900033677E+01  0.34900042993E+01  0.25500000000E-02 0. -1.
          2   -1    0    0    0  501  0.00000000000E+00 -0.00000000000E+00 -0.16117006952E+03  0.16117006954E+03  0.25500000000E-02 0. -1.
          2    1    1    2    0  502  0.19727420913E+02 -0.44770436857E+01 -0.35863590285E+02  0.41175383067E+02  0.25500000000E-02 0. -1.
         -2    1    1    2  502    0 -0.19727420913E+02  0.44770436857E+01 -0.12181647587E+03  0.12348469078E+03  0.25500000000E-02 0. -1.
<mgrwt>
<rscale>  0 0.47433497E+02</rscale>
<asrwt>0</asrwt>
<pdfrwt beam="2">  1        2 0.24795390E-01 0.47433497E+02</pdfrwt>
<pdfrwt beam="1">  1       -2 0.53692379E-03 0.47433497E+02</pdfrwt>
<totfact> 0.78344412E+05</totfact>
</mgrwt>
</event>
<event>
 4    1  0.4635140E-002  0.8531032E+02  0.7818608E-02  0.1314623E+00
          2   -1    0    0    0  501  0.00000000000E+00  0.00000000000E+00  0.82104467656E+03  0.82104467657E+03  0.25500000000E-02 0.  1.
         -2   -1    0    0  501    0 -0.00000000000E+00 -0.00000000000E+00 -0.22160328670E+01  0.22160343341E+01  0.25500000000E-02 0.  1.
          2    1    1    2    0  502  0.31823160835E+02  0.51105119270E+01  0.67903855141E+03  0.67980304883E+03  0.25500000000E-02 0.  1.
         -2    1    1    2  502    0 -0.31823160835E+02 -0.51105119270E+01  0.13979009229E+03  0.14345766207E+03  0.25500000000E-02 0.  1.
<mgrwt>
<rscale>  0 0.85310318E+02</rscale>
<asrwt>0</asrwt>
<pdfrwt beam="1">  1        2 0.12631470E+00 0.85310318E+02</pdfrwt>
<pdfrwt beam="2">  1       -2 0.34092789E-03 0.85310318E+02</pdfrwt>
<totfact> 0.29152649E+05</totfact>
</mgrwt>
</event>
<event>
 4    1  0.4635140E-002  0.8344609E+02  0.7818608E-02  0.1319547E+00
         -2   -1    0    0  501    0 -0.00000000000E+00  0.00000000000E+00  0.97619013308E+00  0.97619346362E+00  0.25500000000E-02 0.  1.
          2   -1    0    0    0  501  0.00000000000E+00 -0.00000000000E+00 -0.17832686976E+04  0.17832686976E+04  0.25500000000E-02 0.  1.
          2    1    1    2    0  502  0.33470556706E+02 -0.16854154701E+02 -0.12833598883E+04  0.12839069062E+04  0.25500000000E-02 0.  1.
         -2    1    1    2  502    0 -0.33470556706E+02  0.16854154701E+02 -0.49893261917E+03  0.50033798494E+03  0.25500000000E-02 0.  1.
<mgrwt>
<rscale>  0 0.83446085E+02</rscale>
<asrwt>0</asrwt>
<pdfrwt beam="2">  1        2 0.27434642E+00 0.83446085E+02</pdfrwt>
<pdfrwt beam="1">  1       -2 0.15018478E-03 0.83446085E+02</pdfrwt>
<totfact> 0.27228196E+05</totfact>
</mgrwt>
</event>
<event>
 4    1  0.4635140E-002  0.4555661E+02  0.7818608E-02  0.1470896E+00
          2   -1    0    0    0  501  0.00000000000E+00  0.00000000000E+00  0.86139648903E+01  0.86139652677E+01  0.25500000000E-02 0.  1.
         -2   -1    0    0  501    0 -0.00000000000E+00 -0.00000000000E+00 -0.60233711607E+02  0.60233711661E+02  0.25500000000E-02 0.  1.
          2    1    1    2    0  502 -0.20213349822E+02 -0.66588567947E+01 -0.13538775502E+02  0.25223368797E+02  0.25500000000E-02 0.  1.
         -2    1    1    2  502    0  0.20213349822E+02  0.66588567947E+01 -0.38080971214E+02  0.43624308132E+02  0.25500000000E-02 0.  1.
<mgrwt>
<rscale>  0 0.45556606E+02</rscale>
<asrwt>0</asrwt>
<pdfrwt beam="1">  1        2 0.13252254E-02 0.45556606E+02</pdfrwt>
<pdfrwt beam="2">  1       -2 0.92667246E-02 0.45556606E+02</pdfrwt>
<totfact> 0.49310371E+05</totfact>
</mgrwt>
</event>
<event>
 4    1  0.4635140E-002  0.5201489E+02  0.7818608E-02  0.1434767E+00
          2   -1    0    0    0  501  0.00000000000E+00  0.00000000000E+00  0.76943584032E+02  0.76943584074E+02  0.25500000000E-02 0.  1.
         -2   -1    0    0  501    0 -0.00000000000E+00 -0.00000000000E+00 -0.87906904465E+01  0.87906908163E+01  0.25500000000E-02 0.  1.
          2    1    1    2    0  502 -0.98985497379E+01  0.20456374248E+02  0.13231106086E+02  0.26296515151E+02  0.25500000000E-02 0. -1.
         -2    1    1    2  502    0  0.98985497379E+01 -0.20456374248E+02  0.54921787499E+02  0.59437759740E+02  0.25500000000E-02 0. -1.
<mgrwt>
<rscale>  0 0.52014892E+02</rscale>
<asrwt>0</asrwt>
<pdfrwt beam="1">  1        2 0.11837474E-01 0.52014892E+02</pdfrwt>
<pdfrwt beam="2">  1       -2 0.13524139E-02 0.52014892E+02</pdfrwt>
<totfact> 0.50761464E+05</totfact>
</mgrwt>
</event>
<event>
 4    1  0.4635140E-002  0.4709570E+02  0.7818608E-02  0.1461667E+00
          2   -1    0    0    0  501  0.00000000000E+00  0.00000000000E+00  0.28414217494E+01  0.28414228937E+01  0.25500000000E-02 0. -1.
         -2   -1    0    0  501    0 -0.00000000000E+00 -0.00000000000E+00 -0.19514916630E+03  0.19514916632E+03  0.25500000000E-02 0. -1.
          2    1    1    2    0  502  0.20485561026E+02  0.10970502652E+02 -0.11215731089E+03  0.11453939293E+03  0.25500000000E-02 0.  1.
         -2    1    1    2  502    0 -0.20485561026E+02 -0.10970502652E+02 -0.80150433661E+02  0.83451196286E+02  0.25500000000E-02 0.  1.
<mgrwt>
<rscale>  0 0.47095698E+02</rscale>
<asrwt>0</asrwt>
<pdfrwt beam="1">  1        2 0.43714205E-03 0.47095698E+02</pdfrwt>
<pdfrwt beam="2">  1       -2 0.30022938E-01 0.47095698E+02</pdfrwt>
<totfact> 0.32973430E+05</totfact>
</mgrwt>
</event>
<event>
 4    1  0.4635140E-002  0.4187718E+02  0.7818608E-02  0.1494835E+00
          2   -1    0    0    0  501  0.00000000000E+00  0.00000000000E+00  0.48815705444E+03  0.48815705445E+03  0.25500000000E-02 0.  1.
         -2   -1    0    0  501    0 -0.00000000000E+00 -0.00000000000E+00 -0.89812006850E+00  0.89812368855E+00  0.25500000000E-02 0.  1.
          2    1    1    2    0  502 -0.18389434956E+02 -0.99942630202E+01  0.25071308121E+03  0.25158518579E+03  0.25500000000E-02 0.  1.
         -2    1    1    2  502    0  0.18389434956E+02  0.99942630202E+01  0.23654585316E+03  0.23746999235E+03  0.25500000000E-02 0.  1.
<mgrwt>
<rscale>  0 0.41877179E+02</rscale>
<asrwt>0</asrwt>
<pdfrwt beam="1">  1        2 0.75101093E-01 0.41877179E+02</pdfrwt>
<pdfrwt beam="2">  1       -2 0.13817258E-03 0.41877179E+02</pdfrwt>
<totfact> 0.15386684E+06</totfact>
</mgrwt>
</event>
<event>
 4    1  0.4635140E-002  0.6225727E+02  0.7818608E-02  0.1388596E+00
          2   -1    0    0    0  501  0.00000000000E+00  0.00000000000E+00  0.17457282547E+01  0.17457301171E+01  0.25500000000E-02 0. -1.
         -2   -1    0    0  501    0 -0.00000000000E+00 -0.00000000000E+00 -0.55506427104E+03  0.55506427104E+03  0.25500000000E-02 0. -1.
          2    1    1    2    0  502  0.97050058008E+01  0.22518150251E+02 -0.44816791641E+03  0.44883820641E+03  0.25500000000E-02 0.  1.
         -2    1    1    2  502    0 -0.97050058008E+01 -0.22518150251E+02 -0.10515062637E+03  0.10797179475E+03  0.25500000000E-02 0.  1.
<mgrwt>
<rscale>  0 0.62257269E+02</rscale>
<asrwt>0</asrwt>
<pdfrwt beam="1">  1        2 0.26857416E-03 0.62257269E+02</pdfrwt>
<pdfrwt beam="2">  1       -2 0.85394363E-01 0.62257269E+02</pdfrwt>
<totfact> 0.88457167E+04</totfact>
</mgrwt>
</event>
<event>
 4    1  0.4635140E-002  0.5676016E+02  0.7818608E-02  0.1411954E+00
         -2   -1    0    0  501    0 -0.00000000000E+00  0.00000000000E+00  0.85482543395E+00  0.85482923735E+00  0.25500000000E-02 0. -1.
          2   -1    0    0    0  501  0.00000000000E+00 -0.00000000000E+00 -0.94221234407E+03  0.94221234407E+03  0.25500000000E-02 0. -1.
          2    1    1    2    0  502 -0.23802324962E+02  0.14316632727E+02 -0.37392293109E+03  0.37495316381E+03  0.25500000000E-02 0.  1.
         -2    1    1    2  502    0  0.23802324962E+02 -0.14316632727E+02 -0.56743458754E+03  0.56811400950E+03  0.25500000000E-02 0.  1.
<mgrwt>
<rscale>  0 0.56760158E+02</rscale>
<asrwt>0</asrwt>
<pdfrwt beam="2">  1        2 0.14495491E+00 0.56760158E+02</pdfrwt>
<pdfrwt beam="1">  1       -2 0.13151265E-03 0.56760158E+02</pdfrwt>
<totfact> 0.84169581E+05</totfact>
</mgrwt>
</event>
<event>
 4    1  0.4635140E-002  0.6004436E+02  0.7818608E-02  0.1397646E+00
         -2   -1    0    0  501    0 -0.00000000000E+00  0.00000000000E+00  0.11786550928E+01  0.11786578512E+01  0.25500000000E-02 0. -1.
          2   -1    0    0    0  501  0.00000000000E+00 -0.00000000000E+00 -0.76471068830E+03  0.76471068830E+03  0.25500000000E-02 0. -1.
          2    1    1    2    0  502 -0.22282054029E+02  0.19728532075E+02 -0.33134382050E+03  0.33267767027E+03  0.25500000000E-02 0.  1.
         -2    1    1    2  502    0  0.22282054029E+02 -0.19728532075E+02 -0.43218821271E+03  0.43321167588E+03  0.25500000000E-02 0.  1.
<mgrwt>
<rscale>  0 0.60044357E+02</rscale>
<asrwt>0</asrwt>
<pdfrwt beam="2">  1        2 0.11764740E+00 0.60044357E+02</pdfrwt>
<pdfrwt beam="1">  1       -2 0.18133238E-03 0.60044357E+02</pdfrwt>
<totfact> 0.70985031E+05</totfact>
</mgrwt>
</event>
<event>
 4    1  0.4635140E-002  0.5686885E+02  0.7818608E-02  0.1411462E+00
         -2   -1    0    0  501    0 -0.00000000000E+00  0.00000000000E+00  0.19222449705E+02  0.19222449874E+02  0.25500000000E-02 0.  1.
          2   -1    0    0    0  501  0.00000000000E+00 -0.00000000000E+00 -0.42061056492E+02  0.42061056570E+02  0.25500000000E-02 0.  1.
          2    1    1    2    0  502 -0.16706185330E+02  0.16439075077E+02  0.59294052456E+01  0.24176386635E+02  0.25500000000E-02 0.  1.
         -2    1    1    2  502    0  0.16706185330E+02 -0.16439075077E+02 -0.28768012033E+02  0.37107119809E+02  0.25500000000E-02 0.  1.
<mgrwt>
<rscale>  0 0.56868851E+02</rscale>
<asrwt>0</asrwt>
<pdfrwt beam="2">  1        2 0.64709318E-02 0.56868851E+02</pdfrwt>
<pdfrwt beam="1">  1       -2 0.29573000E-02 0.56868851E+02</pdfrwt>
<totfact> 0.35495298E+05</totfact>
</mgrwt>
</event>
<event>
 4    1  0.4635140E-002  0.6059134E+02  0.7818608E-02  0.1395367E+00
         -2   -1    0    0  501    0 -0.00000000000E+00  0.00000000000E+00  0.10653210020E+02  0.10653210325E+02  0.25500000000E-02 0. -1.
          2   -1    0    0    0  501  0.00000000000E+00 -0.00000000000E+00 -0.86155023122E+02  0.86155023160E+02  0.25500000000E-02 0. -1.
          2    1    1    2    0  502  0.13620866664E+02 -0.25708008241E+02 -0.24250576830E+02  0.37875060125E+02  0.25500000000E-02 0.  1.
         -2    1    1    2  502    0 -0.13620866664E+02  0.25708008241E+02 -0.51251236272E+02  0.58933173360E+02  0.25500000000E-02 0.  1.
<mgrwt>
<rscale>  0 0.60591338E+02</rscale>
<asrwt>0</asrwt>
<pdfrwt beam="2">  1        2 0.13254618E-01 0.60591338E+02</pdfrwt>
<pdfrwt beam="1">  1       -2 0.16389555E-02 0.60591338E+02</pdfrwt>
<totfact> 0.35170641E+05</totfact>
</mgrwt>
</event>
<event>
 4    1  0.4635140E-002  0.4986698E+02  0.7818608E-02  0.1446060E+00
          2   -1    0    0    0  501  0.00000000000E+00  0.00000000000E+00  0.62943488663E+02  0.62943488715E+02  0.25500000000E-02 0.  1.
         -2   -1    0    0  501    0 -0.00000000000E+00 -0.00000000000E+00 -0.98767788305E+01  0.98767791597E+01  0.25500000000E-02 0.  1.
          2    1    1    2    0  502 -0.20822731809E+02 -0.10107429994E+01  0.65603860747E+01  0.21855123733E+02  0.25500000000E-02 0. -1.
         -2    1    1    2  502    0  0.20822731809E+02  0.10107429994E+01  0.46506323758E+02  0.50965144142E+02  0.25500000000E-02 0. -1.
<mgrwt>
<rscale>  0 0.49866980E+02</rscale>
<asrwt>0</asrwt>
<pdfrwt beam="1">  1        2 0.96836138E-02 0.49866980E+02</pdfrwt>
<pdfrwt beam="2">  1       -2 0.15195044E-02 0.49866980E+02</pdfrwt>
<totfact> 0.54081139E+05</totfact>
</mgrwt>
</event>
<event>
 4    1  0.4635140E-002  0.4642140E+02  0.7818608E-02  0.1465658E+00
          2   -1    0    0    0  501  0.00000000000E+00  0.00000000000E+00  0.15536965609E+04  0.15536965609E+04  0.25500000000E-02 0.  1.
         -2   -1    0    0  501    0 -0.00000000000E+00 -0.00000000000E+00 -0.34674039991E+00  0.34674977640E+00  0.25500000000E-02 0.  1.
          2    1    1    2    0  502 -0.18816650835E+02  0.89854831984E+01  0.43538910172E+03  0.43588814524E+03  0.25500000000E-02 0. -1.
         -2    1    1    2  502    0  0.18816650835E+02 -0.89854831984E+01  0.11179607187E+04  0.11181551654E+04  0.25500000000E-02 0. -1.
<mgrwt>
<rscale>  0 0.46421403E+02</rscale>
<asrwt>0</asrwt>
<pdfrwt beam="1">  1        2 0.23903043E+00 0.46421403E+02</pdfrwt>
<pdfrwt beam="2">  1       -2 0.53345356E-04 0.46421403E+02</pdfrwt>
<totfact> 0.12988192E+06</totfact>
</mgrwt>
</event>
<event>
 4    1  0.4635140E-002  0.1005566E+03  0.7818608E-02  0.1279130E+00
         -2   -1    0    0  501    0 -0.00000000000E+00  0.00000000000E+00  0.25496067479E+02  0.25496067607E+02  0.25500000000E-02 0. -1.
          2   -1    0    0    0  501  0.00000000000E+00 -0.00000000000E+00 -0.99148960364E+02  0.99148960397E+02  0.25500000000E-02 0. -1.
          2    1    1    2    0  502  0.38447074825E+02  0.32031015468E+02 -0.30786250391E+02  0.58753355088E+02  0.25500000000E-02 0. -1.
         -2    1    1    2  502    0 -0.38447074825E+02 -0.32031015468E+02 -0.42866642494E+02  0.65891672916E+02  0.25500000000E-02 0. -1.
<mgrwt>
<rscale>  0 0.10055662E+03</rscale>
<asrwt>0</asrwt>
<pdfrwt beam="2">  1        2 0.15253686E-01 0.10055662E+03</pdfrwt>
<pdfrwt beam="1">  1       -2 0.39224720E-02 0.10055662E+03</pdfrwt>
<totfact> 0.93234633E+04</totfact>
</mgrwt>
</event>
<event>
 4    1  0.4635140E-002  0.5851658E+02  0.7818608E-02  0.1404165E+00
          2   -1    0    0    0  501  0.00000000000E+00  0.00000000000E+00  0.13453304346E+04  0.13453304346E+04  0.25500000000E-02 0.  1.
         -2   -1    0    0  501    0 -0.00000000000E+00 -0.00000000000E+00 -0.63630776382E+00  0.63631287336E+00  0.25500000000E-02 0.  1.
          2    1    1    2    0  502 -0.14811125601E+02  0.23611669790E+02  0.46768934587E+03  0.46851916144E+03  0.25500000000E-02 0. -1.
         -2    1    1    2  502    0  0.14811125601E+02 -0.23611669790E+02  0.87700478101E+03  0.87744758608E+03  0.25500000000E-02 0. -1.
<mgrwt>
<rscale>  0 0.58516584E+02</rscale>
<asrwt>0</asrwt>
<pdfrwt beam="1">  1        2 0.20697264E+00 0.58516584E+02</pdfrwt>
<pdfrwt beam="2">  1       -2 0.97894496E-04 0.58516584E+02</pdfrwt>
<totfact> 0.76410645E+05</totfact>
</mgrwt>
</event>
<event>
 4    1  0.4635140E-002  0.7960663E+02  0.7818608E-02  0.1330171E+00
          2   -1    0    0    0  501  0.00000000000E+00  0.00000000000E+00  0.89509668617E+02  0.89509668653E+02  0.25500000000E-02 0.  1.
         -2   -1    0    0  501    0 -0.00000000000E+00 -0.00000000000E+00 -0.17699806602E+02  0.17699806785E+02  0.25500000000E-02 0.  1.
          2    1    1    2    0  502  0.33860546391E+02  0.91071756151E+01  0.61273268736E+02  0.70596676392E+02  0.25500000000E-02 0. -1.
         -2    1    1    2  502    0 -0.33860546391E+02 -0.91071756151E+01  0.10536593279E+02  0.36612799046E+02  0.25500000000E-02 0. -1.
<mgrwt>
<rscale>  0 0.79606629E+02</rscale>
<asrwt>0</asrwt>
<pdfrwt beam="1">  1        2 0.13770718E-01 0.79606629E+02</pdfrwt>
<pdfrwt beam="2">  1       -2 0.27230472E-02 0.79606629E+02</pdfrwt>
<totfact> 0.17201865E+05</totfact>
</mgrwt>
</event>
<event>
 4    1  0.4635140E-002  0.2027438E+03  0.7818608E-02  0.1147444E+00
          2   -1    0    0    0  501  0.00000000000E+00  0.00000000000E+00  0.53286858189E+03  0.53286858190E+03  0.25500000000E-02 0.  1.
         -2   -1    0    0  501    0 -0.00000000000E+00 -0.00000000000E+00 -0.19284800971E+02  0.19284801140E+02  0.25500000000E-02 0.  1.
          2    1    1    2    0  502 -0.82107483593E+02  0.53364437425E+02  0.18541674280E+03  0.20968731616E+03  0.25500000000E-02 0.  1.
         -2    1    1    2  502    0  0.82107483593E+02 -0.53364437425E+02  0.32816703813E+03  0.34246606688E+03  0.25500000000E-02 0.  1.
<mgrwt>
<rscale>  0 0.20274382E+03</rscale>
<asrwt>0</asrwt>
<pdfrwt beam="1">  1        2 0.81979793E-01 0.20274382E+03</pdfrwt>
<pdfrwt beam="2">  1       -2 0.29668921E-02 0.20274382E+03</pdfrwt>
<totfact> 0.24220403E+04</totfact>
</mgrwt>
</event>
<event>
 4    1  0.4635140E-002  0.7492013E+02  0.7818608E-02  0.1344119E+00
         -2   -1    0    0  501    0 -0.00000000000E+00  0.00000000000E+00  0.58997192133E+00  0.58997743216E+00  0.25500000000E-02 0. -1.
          2   -1    0    0    0  501  0.00000000000E+00 -0.00000000000E+00 -0.23785031113E+04  0.23785031113E+04  0.25500000000E-02 0. -1.
          2    1    1    2    0  502  0.32593286631E+02  0.10596460151E+00 -0.60262798505E+03  0.60350875879E+03  0.25500000000E-02 0. -1.
         -2    1    1    2  502    0 -0.32593286631E+02 -0.10596460151E+00 -0.17752851543E+04  0.17755843299E+04  0.25500000000E-02 0. -1.
<mgrwt>
<rscale>  0 0.74920134E+02</rscale>
<asrwt>0</asrwt>
<pdfrwt beam="2">  1        2 0.36591588E+00 0.74920134E+02</pdfrwt>
<pdfrwt beam="1">  1       -2 0.90767239E-04 0.74920134E+02</pdfrwt>
<totfact> 0.26882988E+05</totfact>
</mgrwt>
</event>
<event>
 4    1  0.4635140E-002  0.4585318E+02  0.7818608E-02  0.1469085E+00
          2   -1    0    0    0  501  0.00000000000E+00  0.00000000000E+00  0.48578509301E+03  0.48578509302E+03  0.25500000000E-02 0. -1.
         -2   -1    0    0  501    0 -0.00000000000E+00 -0.00000000000E+00 -0.10820172211E+01  0.10820202259E+01  0.25500000000E-02 0. -1.
          2    1    1    2    0  502  0.21970449142E+02  0.64553988913E+01  0.23045301600E+03  0.23158792153E+03  0.25500000000E-02 0.  1.
         -2    1    1    2  502    0 -0.21970449142E+02 -0.64553988913E+01  0.25425005979E+03  0.25527919171E+03  0.25500000000E-02 0.  1.
<mgrwt>
<rscale>  0 0.45853182E+02</rscale>
<asrwt>0</asrwt>
<pdfrwt beam="1">  1        2 0.74736169E-01 0.45853182E+02</pdfrwt>
<pdfrwt beam="2">  1       -2 0.16646442E-03 0.45853182E+02</pdfrwt>
<totfact> 0.12319240E+06</totfact>
</mgrwt>
</event>
<event>
 4    1  0.4635140E-002  0.5453366E+02  0.7818608E-02  0.1422317E+00
         -2   -1    0    0  501    0 -0.00000000000E+00  0.00000000000E+00  0.52964997300E+01  0.52965003439E+01  0.25500000000E-02 0.  1.
          2   -1    0    0    0  501  0.00000000000E+00 -0.00000000000E+00 -0.14037194626E+03  0.14037194628E+03  0.25500000000E-02 0.  1.
          2    1    1    2    0  502  0.23565093638E+02 -0.44069411121E+01 -0.10223669592E+03  0.10500988890E+03  0.25500000000E-02 0.  1.
         -2    1    1    2  502    0 -0.23565093638E+02  0.44069411121E+01 -0.32838750611E+02  0.40658557725E+02  0.25500000000E-02 0.  1.
<mgrwt>
<rscale>  0 0.54533660E+02</rscale>
<asrwt>0</asrwt>
<pdfrwt beam="2">  1        2 0.21595681E-01 0.54533660E+02</pdfrwt>
<pdfrwt beam="1">  1       -2 0.81484627E-03 0.54533660E+02</pdfrwt>
<totfact> 0.52840147E+05</totfact>
</mgrwt>
</event>
<event>
 4    1  0.4635140E-002  0.1066464E+03  0.7818608E-02  0.1266909E+00
          2   -1    0    0    0  501  0.00000000000E+00  0.00000000000E+00  0.10204818614E+04  0.10204818614E+04  0.25500000000E-02 0.  1.
         -2   -1    0    0  501    0 -0.00000000000E+00 -0.00000000000E+00 -0.27862967418E+01  0.27862979087E+01  0.25500000000E-02 0.  1.
          2    1    1    2    0  502 -0.40743705965E+01  0.42786352259E+02  0.20602180242E+03  0.21045725341E+03  0.25500000000E-02 0. -1.
         -2    1    1    2  502    0  0.40743705965E+01 -0.42786352259E+02  0.81167376222E+03  0.81281090588E+03  0.25500000000E-02 0. -1.
<mgrwt>
<rscale>  0 0.10664644E+03</rscale>
<asrwt>0</asrwt>
<pdfrwt beam="1">  1        2 0.15699728E+00 0.10664644E+03</pdfrwt>
<pdfrwt beam="2">  1       -2 0.42866095E-03 0.10664644E+03</pdfrwt>
<totfact> 0.16508060E+05</totfact>
</mgrwt>
</event>
<event>
 4    1  0.4635140E-002  0.5136843E+02  0.7818608E-02  0.1438097E+00
         -2   -1    0    0  501    0 -0.00000000000E+00  0.00000000000E+00  0.40576831910E+00  0.40577633160E+00  0.25500000000E-02 0. -1.
          2   -1    0    0    0  501  0.00000000000E+00 -0.00000000000E+00 -0.16257368482E+04  0.16257368482E+04  0.25500000000E-02 0. -1.
          2    1    1    2    0  502  0.30000967438E+01  0.24630911740E+02 -0.60268841789E+03  0.60319898165E+03  0.25500000000E-02 0.  1.
         -2    1    1    2  502    0 -0.30000967438E+01 -0.24630911740E+02 -0.10226426619E+04  0.10229436428E+04  0.25500000000E-02 0.  1.
<mgrwt>
<rscale>  0 0.51368435E+02</rscale>
<asrwt>0</asrwt>
<pdfrwt beam="2">  1        2 0.25010815E+00 0.51368435E+02</pdfrwt>
<pdfrwt beam="1">  1       -2 0.62427813E-04 0.51368435E+02</pdfrwt>
<totfact> 0.99060077E+05</totfact>
</mgrwt>
</event>
<event>
 4    1  0.4635140E-002  0.5288050E+02  0.7818608E-02  0.1430396E+00
          2   -1    0    0    0  501  0.00000000000E+00  0.00000000000E+00  0.15600926789E+04  0.15600926789E+04  0.25500000000E-02 0.  1.
         -2   -1    0    0  501    0 -0.00000000000E+00 -0.00000000000E+00 -0.44810231592E+00  0.44810957145E+00  0.25500000000E-02 0.  1.
          2    1    1    2    0  502  0.89422581656E+01  0.18986517051E+02  0.12544173490E+04  0.12545928971E+04  0.25500000000E-02 0.  1.
         -2    1    1    2  502    0 -0.89422581656E+01 -0.18986517051E+02  0.30522722761E+03  0.30594789146E+03  0.25500000000E-02 0.  1.
<mgrwt>
<rscale>  0 0.52880499E+02</rscale>
<asrwt>0</asrwt>
<pdfrwt beam="1">  1        2 0.24001697E+00 0.52880499E+02</pdfrwt>
<pdfrwt beam="2">  1       -2 0.68938596E-04 0.52880499E+02</pdfrwt>
<totfact> 0.93896095E+05</totfact>
</mgrwt>
</event>
<event>
 4    1  0.4635140E-002  0.6335421E+02  0.7818608E-02  0.1384271E+00
          2   -1    0    0    0  501  0.00000000000E+00  0.00000000000E+00  0.24116875592E+04  0.24116875592E+04  0.25500000000E-02 0.  1.
         -2   -1    0    0  501    0 -0.00000000000E+00 -0.00000000000E+00 -0.41606941343E+00  0.41607722755E+00  0.25500000000E-02 0.  1.
          2    1    1    2    0  502 -0.28500867914E+02 -0.10567360975E+02  0.86622716099E+03  0.86676032618E+03  0.25500000000E-02 0.  1.
         -2    1    1    2  502    0  0.28500867914E+02  0.10567360975E+02  0.15450443288E+04  0.15453433103E+04  0.25500000000E-02 0.  1.
<mgrwt>
<rscale>  0 0.63354206E+02</rscale>
<asrwt>0</asrwt>
<pdfrwt beam="1">  1        2 0.37102966E+00 0.63354206E+02</pdfrwt>
<pdfrwt beam="2">  1       -2 0.64011142E-04 0.63354206E+02</pdfrwt>
<totfact> 0.40631768E+05</totfact>
</mgrwt>
</event>
<event>
 4    1  0.4635140E-002  0.4765416E+02  0.7818608E-02  0.1458421E+00
          2   -1    0    0    0  501  0.00000000000E+00  0.00000000000E+00  0.17338500295E+04  0.17338500295E+04  0.25500000000E-02 0. -1.
         -2   -1    0    0  501    0 -0.00000000000E+00 -0.00000000000E+00 -0.32743386229E+00  0.32744379163E+00  0.25500000000E-02 0. -1.
          2    1    1    2    0  502  0.22940723534E+02  0.52314549437E+01  0.73018681445E+03  0.73056582792E+03  0.25500000000E-02 0. -1.
         -2    1    1    2  502    0 -0.22940723534E+02 -0.52314549437E+01  0.10033357812E+04  0.10036116454E+04  0.25500000000E-02 0. -1.
<mgrwt>
<rscale>  0 0.47654163E+02</rscale>
<asrwt>0</asrwt>
<pdfrwt beam="1">  1        2 0.26674798E+00 0.47654163E+02</pdfrwt>
<pdfrwt beam="2">  1       -2 0.50374861E-04 0.47654163E+02</pdfrwt>
<totfact> 0.11527759E+06</totfact>
</mgrwt>
</event>
<event>
 4    1  0.4635140E-002  0.5338338E+02  0.7818608E-02  0.1427902E+00
          2   -1    0    0    0  501  0.00000000000E+00  0.00000000000E+00  0.15292556509E+01  0.15292577770E+01  0.25500000000E-02 0. -1.
         -2   -1    0    0  501    0 -0.00000000000E+00 -0.00000000000E+00 -0.46587746390E+03  0.46587746390E+03  0.25500000000E-02 0. -1.
          2    1    1    2    0  502 -0.12972779748E+00  0.24867244472E+02 -0.31708575610E+03  0.31805938661E+03  0.25500000000E-02 0.  1.
         -2    1    1    2  502    0  0.12972779748E+00 -0.24867244472E+02 -0.14726245214E+03  0.14934733507E+03  0.25500000000E-02 0.  1.
<mgrwt>
<rscale>  0 0.53383377E+02</rscale>
<asrwt>0</asrwt>
<pdfrwt beam="1">  1        2 0.23527064E-03 0.53383377E+02</pdfrwt>
<pdfrwt beam="2">  1       -2 0.71673343E-01 0.53383377E+02</pdfrwt>
<totfact> 0.14885542E+05</totfact>
</mgrwt>
</event>
<event>
 4    1  0.4635140E-002  0.1621475E+03  0.7818608E-02  0.1186293E+00
         -2   -1    0    0  501    0 -0.00000000000E+00  0.00000000000E+00  0.10820151555E+03  0.10820151558E+03  0.25500000000E-02 0.  1.
          2   -1    0    0    0  501  0.00000000000E+00 -0.00000000000E+00 -0.60747345014E+02  0.60747345068E+02  0.25500000000E-02 0.  1.
          2    1    1    2    0  502 -0.13231795420E+02  0.76709221838E+02  0.11444052056E+00  0.77842136585E+02  0.25500000000E-02 0. -1.
         -2    1    1    2  502    0  0.13231795420E+02 -0.76709221838E+02  0.47339730015E+02  0.91106724063E+02  0.25500000000E-02 0. -1.
<mgrwt>
<rscale>  0 0.16214752E+03</rscale>
<asrwt>0</asrwt>
<pdfrwt beam="2">  1        2 0.93457455E-02 0.16214752E+03</pdfrwt>
<pdfrwt beam="1">  1       -2 0.16646387E-01 0.16214752E+03</pdfrwt>
<totfact> 0.18908514E+04</totfact>
</mgrwt>
</event>
<event>
 4    1  0.4635140E-002  0.1332376E+03  0.7818608E-02  0.1222729E+00
          2   -1    0    0    0  501  0.00000000000E+00  0.00000000000E+00  0.14744438728E+03  0.14744438730E+03  0.25500000000E-02 0.  1.
         -2   -1    0    0  501    0 -0.00000000000E+00 -0.00000000000E+00 -0.30099930181E+02  0.30099930289E+02  0.25500000000E-02 0.  1.
          2    1    1    2    0  502 -0.36031062366E+02 -0.42770152011E+01  0.13312211678E+03  0.13797836170E+03  0.25500000000E-02 0.  1.
         -2    1    1    2  502    0  0.36031062366E+02  0.42770152011E+01 -0.15777659681E+02  0.39565955894E+02  0.25500000000E-02 0.  1.
<mgrwt>
<rscale>  0 0.13323762E+03</rscale>
<asrwt>0</asrwt>
<pdfrwt beam="1">  1        2 0.22683752E-01 0.13323762E+03</pdfrwt>
<pdfrwt beam="2">  1       -2 0.46307584E-02 0.13323762E+03</pdfrwt>
<totfact> 0.48236944E+04</totfact>
</mgrwt>
</event>
<event>
 4    1  0.4635140E-002  0.4759407E+02  0.7818608E-02  0.1458768E+00
         -2   -1    0    0  501    0 -0.00000000000E+00  0.00000000000E+00  0.58764251176E+00  0.58764804444E+00  0.25500000000E-02 0. -1.
          2   -1    0    0    0  501  0.00000000000E+00 -0.00000000000E+00 -0.96367475750E+03  0.96367475751E+03  0.25500000000E-02 0. -1.
          2    1    1    2    0  502 -0.79627005386E+01 -0.19929987968E+02 -0.68982909195E+03  0.69016286855E+03  0.25500000000E-02 0.  1.
         -2    1    1    2  502    0  0.79627005386E+01  0.19929987968E+02 -0.27325802304E+03  0.27409953700E+03  0.25500000000E-02 0.  1.
<mgrwt>
<rscale>  0 0.47594072E+02</rscale>
<asrwt>0</asrwt>
<pdfrwt beam="2">  1        2 0.14825639E+00 0.47594072E+02</pdfrwt>
<pdfrwt beam="1">  1       -2 0.90407737E-04 0.47594072E+02</pdfrwt>
<totfact> 0.13044825E+06</totfact>
</mgrwt>
</event>
<event>
 4    1  0.4635140E-002  0.5344640E+02  0.7818608E-02  0.1427592E+00
          2   -1    0    0    0  501  0.00000000000E+00  0.00000000000E+00  0.12096363866E+04  0.12096363866E+04  0.25500000000E-02 0.  1.
         -2   -1    0    0  501    0 -0.00000000000E+00 -0.00000000000E+00 -0.59036418030E+00  0.59036968746E+00  0.25500000000E-02 0.  1.
          2    1    1    2    0  502  0.25597160021E+02  0.58111293116E+01  0.49097528897E+03  0.49167643651E+03  0.25500000000E-02 0. -1.
         -2    1    1    2  502    0 -0.25597160021E+02 -0.58111293116E+01  0.71807073341E+03  0.71855031974E+03  0.25500000000E-02 0. -1.
<mgrwt>
<rscale>  0 0.53446397E+02</rscale>
<asrwt>0</asrwt>
<pdfrwt beam="1">  1        2 0.18609660E+00 0.53446397E+02</pdfrwt>
<pdfrwt beam="2">  1       -2 0.90826319E-04 0.53446397E+02</pdfrwt>
<totfact> 0.97584110E+05</totfact>
</mgrwt>
</event>
<event>
 4    1  0.4635140E-002  0.4458422E+02  0.7818608E-02  0.1476954E+00
         -2   -1    0    0  501    0 -0.00000000000E+00  0.00000000000E+00  0.52837105320E+00  0.52837720651E+00  0.25500000000E-02 0.  1.
          2   -1    0    0    0  501  0.00000000000E+00 -0.00000000000E+00 -0.94050451260E+03  0.94050451260E+03  0.25500000000E-02 0.  1.
          2    1    1    2    0  502  0.16229758211E+02 -0.15114661678E+02 -0.42241468744E+03  0.42299648488E+03  0.25500000000E-02 0. -1.
         -2    1    1    2  502    0 -0.16229758211E+02  0.15114661678E+02 -0.51756145410E+03  0.51803640492E+03  0.25500000000E-02 0. -1.
<mgrwt>
<rscale>  0 0.44584224E+02</rscale>
<asrwt>0</asrwt>
<pdfrwt beam="2">  1        2 0.14469166E+00 0.44584224E+02</pdfrwt>
<pdfrwt beam="1">  1       -2 0.81289080E-04 0.44584224E+02</pdfrwt>
<totfact> 0.15274235E+06</totfact>
</mgrwt>
</event>
<event>
 4    1  0.4635140E-002  0.7261319E+02  0.7818608E-02  0.1351426E+00
          2   -1    0    0    0  501  0.00000000000E+00  0.00000000000E+00  0.15978557200E+04  0.15978557200E+04  0.25500000000E-02 0.  1.
         -2   -1    0    0  501    0 -0.00000000000E+00 -0.00000000000E+00 -0.82495922366E+00  0.82496316475E+00  0.25500000000E-02 0.  1.
          2    1    1    2    0  502  0.45342957554E+01 -0.19753881524E+02  0.13531621466E+03  0.13682563221E+03  0.25500000000E-02 0. -1.
         -2    1    1    2  502    0 -0.45342957554E+01  0.19753881524E+02  0.14617145461E+04  0.14618550509E+04  0.25500000000E-02 0. -1.
<mgrwt>
<rscale>  0 0.72613193E+02</rscale>
<asrwt>0</asrwt>
<pdfrwt beam="1">  1        2 0.24582388E+00 0.72613193E+02</pdfrwt>
<pdfrwt beam="2">  1       -2 0.12691715E-03 0.72613193E+02</pdfrwt>
<totfact> 0.41580726E+05</totfact>
</mgrwt>
</event>
<event>
 4    1  0.4635140E-002  0.5432448E+02  0.7818608E-02  0.1423321E+00
          2   -1    0    0    0  501  0.00000000000E+00  0.00000000000E+00  0.57438514664E+03  0.57438514665E+03  0.25500000000E-02 0. -1.
         -2   -1    0    0  501    0 -0.00000000000E+00 -0.00000000000E+00 -0.12844804995E+01  0.12844830307E+01  0.25500000000E-02 0. -1.
          2    1    1    2    0  502 -0.26859543529E+02 -0.31573876443E+01  0.25977761279E+03  0.26118156958E+03  0.25500000000E-02 0. -1.
         -2    1    1    2  502    0  0.26859543529E+02  0.31573876443E+01  0.31332305336E+03  0.31448806010E+03  0.25500000000E-02 0. -1.
<mgrwt>
<rscale>  0 0.54324479E+02</rscale>
<asrwt>0</asrwt>
<pdfrwt beam="1">  1        2 0.88366911E-01 0.54324479E+02</pdfrwt>
<pdfrwt beam="2">  1       -2 0.19761266E-03 0.54324479E+02</pdfrwt>
<totfact> 0.85159972E+05</totfact>
</mgrwt>
</event>
<event>
 4    1  0.4635140E-002  0.4656296E+02  0.7818608E-02  0.1464814E+00
         -2   -1    0    0  501    0 -0.00000000000E+00  0.00000000000E+00  0.86426421854E+01  0.86426425616E+01  0.25500000000E-02 0.  1.
          2   -1    0    0    0  501  0.00000000000E+00 -0.00000000000E+00 -0.62715465053E+02  0.62715465105E+02  0.25500000000E-02 0.  1.
          2    1    1    2    0  502 -0.10696290202E+02 -0.20634722021E+02 -0.24966132322E+02  0.34110264534E+02  0.25500000000E-02 0.  1.
         -2    1    1    2  502    0  0.10696290202E+02  0.20634722021E+02 -0.29106690546E+02  0.37247843133E+02  0.25500000000E-02 0.  1.
<mgrwt>
<rscale>  0 0.46562961E+02</rscale>
<asrwt>0</asrwt>
<pdfrwt beam="2">  1        2 0.96485328E-02 0.46562961E+02</pdfrwt>
<pdfrwt beam="1">  1       -2 0.13296373E-02 0.46562961E+02</pdfrwt>
<totfact> 0.64336444E+05</totfact>
</mgrwt>
</event>
<event>
 4    1  0.4635140E-002  0.5216546E+02  0.7818608E-02  0.1434000E+00
          2   -1    0    0    0  501  0.00000000000E+00  0.00000000000E+00  0.32797292809E+01  0.32797302722E+01  0.25500000000E-02 0. -1.
         -2   -1    0    0  501    0 -0.00000000000E+00 -0.00000000000E+00 -0.20742830284E+03  0.20742830285E+03  0.25500000000E-02 0. -1.
          2    1    1    2    0  502 -0.24546852736E+02  0.87786157812E+01 -0.98702794637E+02  0.10208748087E+03  0.25500000000E-02 0.  1.
         -2    1    1    2  502    0  0.24546852736E+02 -0.87786157812E+01 -0.10544577892E+03  0.10862055226E+03  0.25500000000E-02 0.  1.
<mgrwt>
<rscale>  0 0.52165459E+02</rscale>
<asrwt>0</asrwt>
<pdfrwt beam="1">  1        2 0.50457398E-03 0.52165459E+02</pdfrwt>
<pdfrwt beam="2">  1       -2 0.31912036E-01 0.52165459E+02</pdfrwt>
<totfact> 0.25017245E+05</totfact>
</mgrwt>
</event>
<event>
 4    1  0.4635140E-002  0.5065316E+02  0.7818608E-02  0.1441850E+00
         -2   -1    0    0  501    0 -0.00000000000E+00  0.00000000000E+00  0.11479029638E+01  0.11479057962E+01  0.25500000000E-02 0. -1.
          2   -1    0    0    0  501  0.00000000000E+00 -0.00000000000E+00 -0.55878831257E+03  0.55878831258E+03  0.25500000000E-02 0. -1.
          2    1    1    2    0  502  0.20154544116E+02 -0.69235698351E+01 -0.43010457980E+03  0.43063219926E+03  0.25500000000E-02 0.  1.
         -2    1    1    2  502    0 -0.20154544116E+02  0.69235698351E+01 -0.12753582981E+03  0.12930401912E+03  0.25500000000E-02 0.  1.
<mgrwt>
<rscale>  0 0.50653156E+02</rscale>
<asrwt>0</asrwt>
<pdfrwt beam="2">  1        2 0.85967216E-01 0.50653156E+02</pdfrwt>
<pdfrwt beam="1">  1       -2 0.17660112E-03 0.50653156E+02</pdfrwt>
<totfact> 0.10054818E+06</totfact>
</mgrwt>
</event>
<event>
 4    1  0.4635140E-002  0.1003846E+03  0.7818608E-02  0.1279489E+00
          2   -1    0    0    0  501  0.00000000000E+00  0.00000000000E+00  0.54102801973E+02  0.54102802033E+02  0.25500000000E-02 0.  1.
         -2   -1    0    0  501    0 -0.00000000000E+00 -0.00000000000E+00 -0.46564440720E+02  0.46564440790E+02  0.25500000000E-02 0.  1.
          2    1    1    2    0  502 -0.27195369233E+02 -0.92129533187E+01  0.45053045089E+02  0.53425120448E+02  0.25500000000E-02 0.  1.
         -2    1    1    2  502    0  0.27195369233E+02  0.92129533187E+01 -0.37514683836E+02  0.47242122374E+02  0.25500000000E-02 0.  1.
<mgrwt>
<rscale>  0 0.10038459E+03</rscale>
<asrwt>0</asrwt>
<pdfrwt beam="1">  1        2 0.83235081E-02 0.10038459E+03</pdfrwt>
<pdfrwt beam="2">  1       -2 0.71637600E-02 0.10038459E+03</pdfrwt>
<totfact> 0.78318806E+04</totfact>
</mgrwt>
</event>
<event>
 4    1  0.4635140E-002  0.4681171E+02  0.7818608E-02  0.1463338E+00
          2   -1    0    0    0  501  0.00000000000E+00  0.00000000000E+00  0.34732606487E+03  0.34732606488E+03  0.25500000000E-02 0.  1.
         -2   -1    0    0  501    0 -0.00000000000E+00 -0.00000000000E+00 -0.15772894481E+01  0.15772915094E+01  0.25500000000E-02 0.  1.
          2    1    1    2    0  502 -0.21093566607E+02 -0.50621216164E+01  0.10735687783E+03  0.10952653949E+03  0.25500000000E-02 0.  1.
         -2    1    1    2  502    0  0.21093566607E+02  0.50621216164E+01  0.23839189759E+03  0.23937681690E+03  0.25500000000E-02 0.  1.
<mgrwt>
<rscale>  0 0.46811712E+02</rscale>
<asrwt>0</asrwt>
<pdfrwt beam="1">  1        2 0.53434822E-01 0.46811712E+02</pdfrwt>
<pdfrwt beam="2">  1       -2 0.24265988E-03 0.46811712E+02</pdfrwt>
<totfact> 0.10477346E+06</totfact>
</mgrwt>
</event>
<event>
 4    1  0.4635140E-002  0.4868126E+02  0.7818608E-02  0.1452587E+00
          2   -1    0    0    0  501  0.00000000000E+00  0.00000000000E+00  0.29689711859E+03  0.29689711860E+03  0.25500000000E-02 0.  1.
         -2   -1    0    0  501    0 -0.00000000000E+00 -0.00000000000E+00 -0.19955261553E+01  0.19955277845E+01  0.25500000000E-02 0.  1.
          2    1    1    2    0  502  0.17836999141E+02 -0.13589239016E+02  0.20558141794E+03  0.20680073830E+03  0.25500000000E-02 0. -1.
         -2    1    1    2  502    0 -0.17836999141E+02  0.13589239016E+02  0.89320174503E+02  0.92091908087E+02  0.25500000000E-02 0. -1.
<mgrwt>
<rscale>  0 0.48681258E+02</rscale>
<asrwt>0</asrwt>
<pdfrwt beam="1">  1        2 0.45676482E-01 0.48681258E+02</pdfrwt>
<pdfrwt beam="2">  1       -2 0.30700414E-03 0.48681258E+02</pdfrwt>
<totfact> 0.90077602E+05</totfact>
</mgrwt>
</event>
<event>
 4    1  0.4635140E-002  0.6027738E+02  0.7818608E-02  0.1396671E+00
          2   -1    0    0    0  501  0.00000000000E+00  0.00000000000E+00  0.81883749809E+03  0.81883749809E+03  0.25500000000E-02 0.  1.
         -2   -1    0    0  501    0 -0.00000000000E+00 -0.00000000000E+00 -0.11093038293E+01  0.11093067602E+01  0.25500000000E-02 0.  1.
          2    1    1    2    0  502  0.17006068468E+02 -0.14984674272E+02  0.13865094517E+03  0.14049139273E+03  0.25500000000E-02 0. -1.
         -2    1    1    2  502    0 -0.17006068468E+02  0.14984674272E+02  0.67907724909E+03  0.67945541212E+03  0.25500000000E-02 0. -1.
<mgrwt>
<rscale>  0 0.60277385E+02</rscale>
<asrwt>0</asrwt>
<pdfrwt beam="1">  1        2 0.12597507E+00 0.60277385E+02</pdfrwt>
<pdfrwt beam="2">  1       -2 0.17066226E-03 0.60277385E+02</pdfrwt>
<totfact> 0.71142786E+05</totfact>
</mgrwt>
</event>
<event>
 4    1  0.4635140E-002  0.5165885E+02  0.7818608E-02  0.1436594E+00
         -2   -1    0    0  501    0 -0.00000000000E+00  0.00000000000E+00  0.93277133421E+01  0.93277136907E+01  0.25500000000E-02 0. -1.
          2   -1    0    0    0  501  0.00000000000E+00 -0.00000000000E+00 -0.71524397218E+02  0.71524397263E+02  0.25500000000E-02 0. -1.
          2    1    1    2    0  502  0.78938015211E+00 -0.25792464293E+02 -0.32872350405E+02  0.41790737766E+02  0.25500000000E-02 0.  1.
         -2    1    1    2  502    0 -0.78938015211E+00  0.25792464293E+02 -0.29324333471E+02  0.39061373188E+02  0.25500000000E-02 0.  1.
<mgrwt>
<rscale>  0 0.51658846E+02</rscale>
<asrwt>0</asrwt>
<pdfrwt beam="2">  1        2 0.11003753E-01 0.51658846E+02</pdfrwt>
<pdfrwt beam="1">  1       -2 0.14350329E-02 0.51658846E+02</pdfrwt>
<totfact> 0.50805917E+05</totfact>
</mgrwt>
</event>
<event>
 4    1  0.4635140E-002  0.5619465E+02  0.7818608E-02  0.1414532E+00
         -2   -1    0    0  501    0 -0.00000000000E+00  0.00000000000E+00  0.36343886752E+00  0.36344781321E+00  0.25500000000E-02 0.  1.
          2   -1    0    0    0  501  0.00000000000E+00 -0.00000000000E+00 -0.21721674770E+04  0.21721674770E+04  0.25500000000E-02 0.  1.
          2    1    1    2    0  502 -0.85258574408E+01  0.24161328296E+02 -0.15317598561E+04  0.15319741241E+04  0.25500000000E-02 0.  1.
         -2    1    1    2  502    0  0.85258574408E+01 -0.24161328296E+02 -0.64004418199E+03  0.64055680071E+03  0.25500000000E-02 0.  1.
<mgrwt>
<rscale>  0 0.56194655E+02</rscale>
<asrwt>0</asrwt>
<pdfrwt beam="2">  1        2 0.33416922E+00 0.56194655E+02</pdfrwt>
<pdfrwt beam="1">  1       -2 0.55916100E-04 0.56194655E+02</pdfrwt>
<totfact> 0.63165031E+05</totfact>
</mgrwt>
</event>
<event>
 4    1  0.4635140E-002  0.4601389E+02  0.7818608E-02  0.1468110E+00
         -2   -1    0    0  501    0 -0.00000000000E+00  0.00000000000E+00  0.30530411989E+01  0.30530422638E+01  0.25500000000E-02 0. -1.
          2   -1    0    0    0  501  0.00000000000E+00 -0.00000000000E+00 -0.17337445793E+03  0.17337445795E+03  0.25500000000E-02 0. -1.
          2    1    1    2    0  502 -0.11037494391E+02  0.17367402664E+02 -0.12461158164E+03  0.12629924482E+03  0.25500000000E-02 0.  1.
         -2    1    1    2  502    0  0.11037494391E+02 -0.17367402664E+02 -0.45709835088E+02  0.50128255386E+02  0.25500000000E-02 0.  1.
<mgrwt>
<rscale>  0 0.46013887E+02</rscale>
<asrwt>0</asrwt>
<pdfrwt beam="2">  1        2 0.26672986E-01 0.46013887E+02</pdfrwt>
<pdfrwt beam="1">  1       -2 0.46969886E-03 0.46013887E+02</pdfrwt>
<totfact> 0.86453790E+05</totfact>
</mgrwt>
</event>
<event>
 4    1  0.4635140E-002  0.1307020E+03  0.7818608E-02  0.1226418E+00
          2   -1    0    0    0  501  0.00000000000E+00  0.00000000000E+00  0.25535798238E+03  0.25535798239E+03  0.25500000000E-02 0. -1.
         -2   -1    0    0  501    0 -0.00000000000E+00 -0.00000000000E+00 -0.16724564554E+02  0.16724564748E+02  0.25500000000E-02 0. -1.
          2    1    1    2    0  502  0.42055588447E+02  0.48976868963E+02  0.14047901634E+03  0.15460194129E+03  0.25500000000E-02 0. -1.
         -2    1    1    2  502    0 -0.42055588447E+02 -0.48976868963E+02  0.98154401486E+02  0.11748060585E+03  0.25500000000E-02 0. -1.
<mgrwt>
<rscale>  0 0.13070197E+03</rscale>
<asrwt>0</asrwt>
<pdfrwt beam="1">  1        2 0.39285843E-01 0.13070197E+03</pdfrwt>
<pdfrwt beam="2">  1       -2 0.25730099E-02 0.13070197E+03</pdfrwt>
<totfact> 0.63164870E+04</totfact>
</mgrwt>
</event>
<event>
 4    1  0.4635140E-002  0.5103969E+02  0.7818608E-02  0.1439813E+00
         -2   -1    0    0  501    0 -0.00000000000E+00  0.00000000000E+00  0.20306610132E+01  0.20306626142E+01  0.25500000000E-02 0. -1.
          2   -1    0    0    0  501  0.00000000000E+00 -0.00000000000E+00 -0.32071445270E+03  0.32071445271E+03  0.25500000000E-02 0. -1.
          2    1    1    2    0  502 -0.94578016918E+01 -0.23697574967E+02 -0.15626013591E+03  0.15832957763E+03  0.25500000000E-02 0. -1.
         -2    1    1    2  502    0  0.94578016918E+01  0.23697574967E+02 -0.16242365577E+03  0.16441553769E+03  0.25500000000E-02 0. -1.
<mgrwt>
<rscale>  0 0.51039694E+02</rscale>
<asrwt>0</asrwt>
<pdfrwt beam="2">  1        2 0.49340645E-01 0.51039694E+02</pdfrwt>
<pdfrwt beam="1">  1       -2 0.31240977E-03 0.51039694E+02</pdfrwt>
<totfact> 0.82260566E+05</totfact>
</mgrwt>
</event>
<event>
 4    1  0.4635140E-002  0.7799472E+02  0.7818608E-02  0.1334840E+00
          2   -1    0    0    0  501  0.00000000000E+00  0.00000000000E+00  0.18356101392E+04  0.18356101392E+04  0.25500000000E-02 0.  1.
         -2   -1    0    0  501    0 -0.00000000000E+00 -0.00000000000E+00 -0.82849315178E+00  0.82849707606E+00  0.25500000000E-02 0.  1.
          2    1    1    2    0  502  0.25994299462E+02  0.28968422509E+02  0.86009725681E+03  0.86097744703E+03  0.25500000000E-02 0. -1.
         -2    1    1    2  502    0 -0.25994299462E+02 -0.28968422509E+02  0.97468438920E+03  0.97546118922E+03  0.25500000000E-02 0. -1.
<mgrwt>
<rscale>  0 0.77994719E+02</rscale>
<asrwt>0</asrwt>
<pdfrwt beam="1">  1        2 0.28239878E+00 0.77994719E+02</pdfrwt>
<pdfrwt beam="2">  1       -2 0.12746204E-03 0.77994719E+02</pdfrwt>
<totfact> 0.31821556E+05</totfact>
</mgrwt>
</event>
<event>
 4    1  0.4635140E-002  0.1087069E+03  0.7818608E-02  0.1262983E+00
          2   -1    0    0    0  501  0.00000000000E+00  0.00000000000E+00  0.40255275059E+02  0.40255275140E+02  0.25500000000E-02 0. -1.
         -2   -1    0    0  501    0 -0.00000000000E+00 -0.00000000000E+00 -0.73389035569E+02  0.73389035613E+02  0.25500000000E-02 0. -1.
          2    1    1    2    0  502 -0.31735723283E+02  0.86337201468E+00 -0.62688666858E+02  0.70269271396E+02  0.25500000000E-02 0. -1.
         -2    1    1    2  502    0  0.31735723283E+02 -0.86337201468E+00  0.29554906348E+02  0.43375039358E+02  0.25500000000E-02 0. -1.
<mgrwt>
<rscale>  0 0.10870687E+03</rscale>
<asrwt>0</asrwt>
<pdfrwt beam="1">  1        2 0.61931192E-02 0.10870687E+03</pdfrwt>
<pdfrwt beam="2">  1       -2 0.11290621E-01 0.10870687E+03</pdfrwt>
<totfact> 0.56815054E+04</totfact>
</mgrwt>
</event>
<event>
 4    1  0.4635140E-002  0.8581037E+02  0.7818608E-02  0.1313327E+00
         -2   -1    0    0  501    0 -0.00000000000E+00  0.00000000000E+00  0.19899708245E+01  0.19899724583E+01  0.25500000000E-02 0. -1.
          2   -1    0    0    0  501  0.00000000000E+00 -0.00000000000E+00 -0.92506579756E+03  0.92506579756E+03  0.25500000000E-02 0. -1.
          2    1    1    2    0  502  0.10886003721E+02 -0.29414592422E+02 -0.14524474909E+03  0.14859259897E+03  0.25500000000E-02 0. -1.
         -2    1    1    2  502    0 -0.10886003721E+02  0.29414592422E+02 -0.77783107765E+03  0.77846317105E+03  0.25500000000E-02 0. -1.
<mgrwt>
<rscale>  0 0.85810366E+02</rscale>
<asrwt>0</asrwt>
<pdfrwt beam="2">  1        2 0.14231747E+00 0.85810366E+02</pdfrwt>
<pdfrwt beam="1">  1       -2 0.30615022E-03 0.85810366E+02</pdfrwt>
<totfact> 0.29158062E+05</totfact>
</mgrwt>
</event>
<event>
 4    1  0.4635140E-002  0.4327197E+02  0.7818608E-02  0.1485427E+00
         -2   -1    0    0  501    0 -0.00000000000E+00  0.00000000000E+00  0.82530070937E+01  0.82530074877E+01  0.25500000000E-02 0. -1.
          2   -1    0    0    0  501  0.00000000000E+00 -0.00000000000E+00 -0.56720646159E+02  0.56720646217E+02  0.25500000000E-02 0. -1.
          2    1    1    2    0  502 -0.93832724319E+01  0.18649735861E+02 -0.32761788998E+02  0.38848336825E+02  0.25500000000E-02 0.  1.
         -2    1    1    2  502    0  0.93832724319E+01 -0.18649735861E+02 -0.15705850067E+02  0.26125316879E+02  0.25500000000E-02 0.  1.
<mgrwt>
<rscale>  0 0.43271973E+02</rscale>
<asrwt>0</asrwt>
<pdfrwt beam="2">  1        2 0.87262530E-02 0.43271973E+02</pdfrwt>
<pdfrwt beam="1">  1       -2 0.12696935E-02 0.43271973E+02</pdfrwt>
<totfact> 0.75875321E+05</totfact>
</mgrwt>
</event>
<event>
 4    1  0.4635140E-002  0.4916114E+02  0.7818608E-02  0.1449919E+00
          2   -1    0    0    0  501  0.00000000000E+00  0.00000000000E+00  0.68649385818E+03  0.68649385818E+03  0.25500000000E-02 0. -1.
         -2   -1    0    0  501    0 -0.00000000000E+00 -0.00000000000E+00 -0.88012905585E+00  0.88013274990E+00  0.25500000000E-02 0. -1.
          2    1    1    2    0  502  0.14227083215E+02  0.19000248096E+02  0.25351290764E+03  0.25462170700E+03  0.25500000000E-02 0. -1.
         -2    1    1    2  502    0 -0.14227083215E+02 -0.19000248096E+02  0.43210082148E+03  0.43275228394E+03  0.25500000000E-02 0. -1.
<mgrwt>
<rscale>  0 0.49161142E+02</rscale>
<asrwt>0</asrwt>
<pdfrwt beam="1">  1        2 0.10561451E+00 0.49161142E+02</pdfrwt>
<pdfrwt beam="2">  1       -2 0.13540467E-03 0.49161142E+02</pdfrwt>
<totfact> 0.11422159E+06</totfact>
</mgrwt>
</event>
<event>
 4    1  0.4635140E-002  0.4914415E+02  0.7818608E-02  0.1450013E+00
         -2   -1    0    0  501    0 -0.00000000000E+00  0.00000000000E+00  0.55941014290E+00  0.55941595479E+00  0.25500000000E-02 0. -1.
          2   -1    0    0    0  501  0.00000000000E+00 -0.00000000000E+00 -0.10793219556E+04  0.10793219556E+04  0.25500000000E-02 0. -1.
          2    1    1    2    0  502 -0.17614217321E+02 -0.16911184706E+02 -0.47905156231E+03  0.47967348080E+03  0.25500000000E-02 0.  1.
         -2    1    1    2  502    0  0.17614217321E+02  0.16911184706E+02 -0.59971098317E+03  0.60020789079E+03  0.25500000000E-02 0.  1.
<mgrwt>
<rscale>  0 0.49144147E+02</rscale>
<asrwt>0</asrwt>
<pdfrwt beam="2">  1        2 0.16604787E+00 0.49144147E+02</pdfrwt>
<pdfrwt beam="1">  1       -2 0.86064410E-04 0.49144147E+02</pdfrwt>
<totfact> 0.12096107E+06</totfact>
</mgrwt>
</event>
<event>
 4    1  0.4635140E-002  0.2507195E+03  0.7818608E-02  0.1112851E+00
         -2   -1    0    0  501    0 -0.00000000000E+00  0.00000000000E+00  0.45193766599E+03  0.45193766600E+03  0.25500000000E-02 0.  1.
          2   -1    0    0    0  501  0.00000000000E+00 -0.00000000000E+00 -0.34772640804E+02  0.34772640898E+02  0.25500000000E-02 0.  1.
          2    1    1    2    0  502 -0.92512476746E+02 -0.55367291508E+02  0.84418530705E+02  0.13693277057E+03  0.25500000000E-02 0. -1.
         -2    1    1    2  502    0  0.92512476746E+02  0.55367291508E+02  0.33274649448E+03  0.34977753633E+03  0.25500000000E-02 0. -1.
<mgrwt>
<rscale>  0 0.25071949E+03</rscale>
<asrwt>0</asrwt>
<pdfrwt beam="2">  1        2 0.53496374E-02 0.25071949E+03</pdfrwt>
<pdfrwt beam="1">  1       -2 0.69528868E-01 0.25071949E+03</pdfrwt>
<totfact> 0.27613900E+03</totfact>
</mgrwt>
</event>
<event>
 4    1  0.4635140E-002  0.4803890E+02  0.7818608E-02  0.1456216E+00
          2   -1    0    0    0  501  0.00000000000E+00  0.00000000000E+00  0.20143581782E+03  0.20143581784E+03  0.25500000000E-02 0. -1.
         -2   -1    0    0  501    0 -0.00000000000E+00 -0.00000000000E+00 -0.28641076470E+01  0.28641087822E+01  0.25500000000E-02 0. -1.
          2    1    1    2    0  502 -0.39034158005E+01  0.19632503723E+02  0.15574764593E+03  0.15702866323E+03  0.25500000000E-02 0.  1.
         -2    1    1    2  502    0  0.39034158005E+01 -0.19632503723E+02  0.42824064248E+02  0.47271263391E+02  0.25500000000E-02 0.  1.
<mgrwt>
<rscale>  0 0.48038900E+02</rscale>
<asrwt>0</asrwt>
<pdfrwt beam="1">  1        2 0.30990141E-01 0.48038900E+02</pdfrwt>
<pdfrwt beam="2">  1       -2 0.44063183E-03 0.48038900E+02</pdfrwt>
<totfact> 0.81544876E+05</totfact>
</mgrwt>
</event>
<event>
 4    1  0.4635140E-002  0.1233586E+03  0.7818608E-02  0.1237657E+00
         -2   -1    0    0  501    0 -0.00000000000E+00  0.00000000000E+00  0.16603066936E+01  0.16603086518E+01  0.25500000000E-02 0. -1.
          2   -1    0    0    0  501  0.00000000000E+00 -0.00000000000E+00 -0.22913452149E+04  0.22913452149E+04  0.25500000000E-02 0. -1.
          2    1    1    2    0  502  0.59200803489E+02 -0.16403502301E+02 -0.12475458606E+04  0.12490574383E+04  0.25500000000E-02 0. -1.
         -2    1    1    2  502    0 -0.59200803489E+02  0.16403502301E+02 -0.10421390476E+04  0.10439480852E+04  0.25500000000E-02 0. -1.
<mgrwt>
<rscale>  0 0.12335863E+03</rscale>
<asrwt>0</asrwt>
<pdfrwt beam="2">  1        2 0.35251212E+00 0.12335863E+03</pdfrwt>
<pdfrwt beam="1">  1       -2 0.25543378E-03 0.12335863E+03</pdfrwt>
<totfact> 0.75022335E+04</totfact>
</mgrwt>
</event>
<event>
 4    1  0.4635140E-002  0.4959369E+02  0.7818608E-02  0.1447545E+00
          2   -1    0    0    0  501  0.00000000000E+00  0.00000000000E+00  0.30869132743E+03  0.30869132744E+03  0.25500000000E-02 0. -1.
         -2   -1    0    0  501    0 -0.00000000000E+00 -0.00000000000E+00 -0.19919035287E+01  0.19919051610E+01  0.25500000000E-02 0. -1.
          2    1    1    2    0  502 -0.87846016403E+01 -0.22610175666E+02  0.18559511294E+03  0.18717354306E+03  0.25500000000E-02 0.  1.
         -2    1    1    2  502    0  0.87846016403E+01  0.22610175666E+02  0.12110431097E+03  0.12350968954E+03  0.25500000000E-02 0.  1.
<mgrwt>
<rscale>  0 0.49593693E+02</rscale>
<asrwt>0</asrwt>
<pdfrwt beam="1">  1        2 0.47490925E-01 0.49593693E+02</pdfrwt>
<pdfrwt beam="2">  1       -2 0.30644713E-03 0.49593693E+02</pdfrwt>
<totfact> 0.87192556E+05</totfact>
</mgrwt>
</event>
<event>
 4    1  0.4635140E-002  0.4794483E+02  0.7818608E-02  0.1456753E+00
         -2   -1    0    0  501    0 -0.00000000000E+00  0.00000000000E+00  0.51662399041E+03  0.51662399042E+03  0.25500000000E-02 0. -1.
          2   -1    0    0    0  501  0.00000000000E+00 -0.00000000000E+00 -0.11123677564E+01  0.11123706792E+01  0.25500000000E-02 0. -1.
          2    1    1    2    0  502  0.22744271648E+02  0.10936579265E+01  0.17681780242E+03  0.17827796622E+03  0.25500000000E-02 0. -1.
         -2    1    1    2  502    0 -0.22744271648E+02 -0.10936579265E+01  0.33869382024E+03  0.33945839488E+03  0.25500000000E-02 0. -1.
<mgrwt>
<rscale>  0 0.47944828E+02</rscale>
<asrwt>0</asrwt>
<pdfrwt beam="2">  1        2 0.17113377E-03 0.47944828E+02</pdfrwt>
<pdfrwt beam="1">  1       -2 0.79480596E-01 0.47944828E+02</pdfrwt>
<totfact> 0.17907803E+05</totfact>
</mgrwt>
</event>
<event>
 4    1  0.4635140E-002  0.5120961E+02  0.7818608E-02  0.1438924E+00
         -2   -1    0    0  501    0 -0.00000000000E+00  0.00000000000E+00  0.29284940863E+00  0.29286051054E+00  0.25500000000E-02 0.  1.
          2   -1    0    0    0  501  0.00000000000E+00 -0.00000000000E+00 -0.22386716855E+04  0.22386716855E+04  0.25500000000E-02 0.  1.
          2    1    1    2    0  502  0.23844613260E+02 -0.71703643872E+01 -0.13801540600E+04  0.13803786470E+04  0.25500000000E-02 0.  1.
         -2    1    1    2  502    0 -0.23844613260E+02  0.71703643872E+01 -0.85822477605E+03  0.85858589899E+03  0.25500000000E-02 0.  1.
<mgrwt>
<rscale>  0 0.51209613E+02</rscale>
<asrwt>0</asrwt>
<pdfrwt beam="2">  1        2 0.34439733E+00 0.51209613E+02</pdfrwt>
<pdfrwt beam="1">  1       -2 0.45056402E-04 0.51209613E+02</pdfrwt>
<totfact> 0.77035923E+05</totfact>
</mgrwt>
</event>
<event>
 4    1  0.4635140E-002  0.5345383E+02  0.7818608E-02  0.1427556E+00
         -2   -1    0    0  501    0 -0.00000000000E+00  0.00000000000E+00  0.36054635778E+02  0.36054635868E+02  0.25500000000E-02 0.  1.
          2   -1    0    0    0  501  0.00000000000E+00 -0.00000000000E+00 -0.19812371697E+02  0.19812371861E+02  0.25500000000E-02 0.  1.
          2    1    1    2    0  502 -0.21591902592E+02 -0.15009786544E+02  0.13114246439E+02  0.29385156386E+02  0.25500000000E-02 0. -1.
         -2    1    1    2  502    0  0.21591902592E+02  0.15009786544E+02  0.31280176420E+01  0.26481851343E+02  0.25500000000E-02 0. -1.
<mgrwt>
<rscale>  0 0.53453825E+02</rscale>
<asrwt>0</asrwt>
<pdfrwt beam="2">  1        2 0.30480573E-02 0.53453825E+02</pdfrwt>
<pdfrwt beam="1">  1       -2 0.55468670E-02 0.53453825E+02</pdfrwt>
<totfact> 0.36744630E+05</totfact>
</mgrwt>
</event>
<event>
 4    1  0.4635140E-002  0.4069883E+02  0.7818608E-02  0.1503131E+00
          2   -1    0    0    0  501  0.00000000000E+00  0.00000000000E+00  0.18591756254E+04  0.18591756254E+04  0.25500000000E-02 0.  1.
         -2   -1    0    0  501    0 -0.00000000000E+00 -0.00000000000E+00 -0.22272509153E+00  0.22273968864E+00  0.25500000000E-02 0.  1.
          2    1    1    2    0  502 -0.78861325060E+01  0.18720867055E+02  0.98423731495E+03  0.98444692803E+03  0.25500000000E-02 0.  1.
         -2    1    1    2  502    0  0.78861325060E+01 -0.18720867055E+02  0.87471558537E+03  0.87495143708E+03  0.25500000000E-02 0.  1.
<mgrwt>
<rscale>  0 0.40698827E+02</rscale>
<asrwt>0</asrwt>
<pdfrwt beam="1">  1        2 0.28602590E+00 0.40698827E+02</pdfrwt>
<pdfrwt beam="2">  1       -2 0.34266656E-04 0.40698827E+02</pdfrwt>
<totfact> 0.16225840E+06</totfact>
</mgrwt>
</event>
<event>
 4    1  0.4635140E-002  0.5829135E+02  0.7818608E-02  0.1405145E+00
          2   -1    0    0    0  501  0.00000000000E+00  0.00000000000E+00  0.28467859965E+04  0.28467859965E+04  0.25500000000E-02 0. -1.
         -2   -1    0    0  501    0 -0.00000000000E+00 -0.00000000000E+00 -0.29839088335E+00  0.29840177910E+00  0.25500000000E-02 0. -1.
          2    1    1    2    0  502  0.21859114778E+02 -0.17819037726E+02  0.10638908781E+04  0.10642646004E+04  0.25500000000E-02 0.  1.
         -2    1    1    2  502    0 -0.21859114778E+02  0.17819037726E+02  0.17825967275E+04  0.17828197979E+04  0.25500000000E-02 0.  1.
<mgrwt>
<rscale>  0 0.58291354E+02</rscale>
<asrwt>0</asrwt>
<pdfrwt beam="1">  1        2 0.43796711E+00 0.58291354E+02</pdfrwt>
<pdfrwt beam="2">  1       -2 0.45907125E-04 0.58291354E+02</pdfrwt>
<totfact> 0.37208254E+05</totfact>
</mgrwt>
</event>
<event>
 4    1  0.4635140E-002  0.4278735E+02  0.7818608E-02  0.1488647E+00
         -2   -1    0    0  501    0 -0.00000000000E+00  0.00000000000E+00  0.46404206055E+00  0.46404906686E+00  0.25500000000E-02 0.  1.
          2   -1    0    0    0  501  0.00000000000E+00 -0.00000000000E+00 -0.98630249741E+03  0.98630249741E+03  0.25500000000E-02 0.  1.
          2    1    1    2    0  502  0.16366174851E+02 -0.12795852371E+02 -0.37509062569E+03  0.37566549350E+03  0.25500000000E-02 0. -1.
         -2    1    1    2  502    0 -0.16366174851E+02  0.12795852371E+02 -0.61074782965E+03  0.61110105298E+03  0.25500000000E-02 0. -1.
<mgrwt>
<rscale>  0 0.42787349E+02</rscale>
<asrwt>0</asrwt>
<pdfrwt beam="2">  1        2 0.15173717E+00 0.42787349E+02</pdfrwt>
<pdfrwt beam="1">  1       -2 0.71392415E-04 0.42787349E+02</pdfrwt>
<totfact> 0.16933994E+06</totfact>
</mgrwt>
</event>
<event>
 4    1  0.4635140E-002  0.4149261E+02  0.7818608E-02  0.1497506E+00
          2   -1    0    0    0  501  0.00000000000E+00  0.00000000000E+00  0.44084825791E+03  0.44084825792E+03  0.25500000000E-02 0. -1.
         -2   -1    0    0  501    0 -0.00000000000E+00 -0.00000000000E+00 -0.97631854862E+00  0.97632187873E+00  0.25500000000E-02 0. -1.
          2    1    1    2    0  502  0.20197501853E+02 -0.25348285296E+01  0.17728352178E+03  0.17844834417E+03  0.25500000000E-02 0. -1.
         -2    1    1    2  502    0 -0.20197501853E+02  0.25348285296E+01  0.26258841758E+03  0.26337623562E+03  0.25500000000E-02 0. -1.
<mgrwt>
<rscale>  0 0.41492605E+02</rscale>
<asrwt>0</asrwt>
<pdfrwt beam="1">  1        2 0.67822831E-01 0.41492605E+02</pdfrwt>
<pdfrwt beam="2">  1       -2 0.15020306E-03 0.41492605E+02</pdfrwt>
<totfact> 0.15235615E+06</totfact>
</mgrwt>
</event>
<event>
 4    1  0.4635140E-002  0.4100894E+02  0.7818608E-02  0.1500915E+00
         -2   -1    0    0  501    0 -0.00000000000E+00  0.00000000000E+00  0.69568078662E+01  0.69568083336E+01  0.25500000000E-02 0.  1.
          2   -1    0    0    0  501  0.00000000000E+00 -0.00000000000E+00 -0.60434811490E+02  0.60434811544E+02  0.25500000000E-02 0.  1.
          2    1    1    2    0  502  0.20442699317E+02  0.91890100630E+00 -0.28872211358E+02  0.35388598865E+02  0.25500000000E-02 0. -1.
         -2    1    1    2  502    0 -0.20442699317E+02 -0.91890100630E+00 -0.24605792265E+02  0.32003021012E+02  0.25500000000E-02 0. -1.
<mgrwt>
<rscale>  0 0.41008945E+02</rscale>
<asrwt>0</asrwt>
<pdfrwt beam="2">  1        2 0.92976630E-02 0.41008945E+02</pdfrwt>
<pdfrwt beam="1">  1       -2 0.10702782E-02 0.41008945E+02</pdfrwt>
<totfact> 0.87842919E+05</totfact>
</mgrwt>
</event>
<event>
 4    1  0.4635140E-002  0.4432014E+02  0.7818608E-02  0.1478631E+00
          2   -1    0    0    0  501  0.00000000000E+00  0.00000000000E+00  0.65695485320E+03  0.65695485321E+03  0.25500000000E-02 0. -1.
         -2   -1    0    0  501    0 -0.00000000000E+00 -0.00000000000E+00 -0.74749016617E+00  0.74749451571E+00  0.25500000000E-02 0. -1.
          2    1    1    2    0  502 -0.21320668106E+02 -0.60511799923E+00  0.41730519556E+03  0.41784992917E+03  0.25500000000E-02 0. -1.
         -2    1    1    2  502    0  0.21320668106E+02  0.60511799923E+00  0.23890216748E+03  0.23985241856E+03  0.25500000000E-02 0. -1.
<mgrwt>
<rscale>  0 0.44320141E+02</rscale>
<asrwt>0</asrwt>
<pdfrwt beam="1">  1        2 0.10106960E+00 0.44320141E+02</pdfrwt>
<pdfrwt beam="2">  1       -2 0.11499925E-03 0.44320141E+02</pdfrwt>
<totfact> 0.14569869E+06</totfact>
</mgrwt>
</event>
<event>
 4    1  0.4635140E-002  0.5307048E+02  0.7818608E-02  0.1429450E+00
          2   -1    0    0    0  501  0.00000000000E+00  0.00000000000E+00  0.83979826886E+03  0.83979826886E+03  0.25500000000E-02 0. -1.
         -2   -1    0    0  501    0 -0.00000000000E+00 -0.00000000000E+00 -0.83843622286E+00  0.83844010060E+00  0.25500000000E-02 0. -1.
          2    1    1    2    0  502 -0.20264915677E+02 -0.10454681555E+02  0.63443279277E+03  0.63484244952E+03  0.25500000000E-02 0. -1.
         -2    1    1    2  502    0  0.20264915677E+02  0.10454681555E+02  0.20452703987E+03  0.20579425944E+03  0.25500000000E-02 0. -1.
<mgrwt>
<rscale>  0 0.53070478E+02</rscale>
<asrwt>0</asrwt>
<pdfrwt beam="1">  1        2 0.12919968E+00 0.53070478E+02</pdfrwt>
<pdfrwt beam="2">  1       -2 0.12899054E-03 0.53070478E+02</pdfrwt>
<totfact> 0.98219994E+05</totfact>
</mgrwt>
</event>
<event>
 4    1  0.4635140E-002  0.5831282E+02  0.7818608E-02  0.1405052E+00
          2   -1    0    0    0  501  0.00000000000E+00  0.00000000000E+00  0.65965502278E+01  0.65965507207E+01  0.25500000000E-02 0. -1.
         -2   -1    0    0  501    0 -0.00000000000E+00 -0.00000000000E+00 -0.12886980606E+03  0.12886980609E+03  0.25500000000E-02 0. -1.
          2    1    1    2    0  502 -0.27132527617E+02  0.68290058826E+01 -0.80192655055E+02  0.84933334489E+02  0.25500000000E-02 0. -1.
         -2    1    1    2  502    0  0.27132527617E+02 -0.68290058826E+01 -0.42080600780E+02  0.50533022319E+02  0.25500000000E-02 0. -1.
<mgrwt>
<rscale>  0 0.58312818E+02</rscale>
<asrwt>0</asrwt>
<pdfrwt beam="1">  1        2 0.10148540E-02 0.58312818E+02</pdfrwt>
<pdfrwt beam="2">  1       -2 0.19826122E-01 0.58312818E+02</pdfrwt>
<totfact> 0.22539165E+05</totfact>
</mgrwt>
</event>
<event>
 4    1  0.4635140E-002  0.4836360E+02  0.7818608E-02  0.1454373E+00
         -2   -1    0    0  501    0 -0.00000000000E+00  0.00000000000E+00  0.46490085784E+00  0.46490785122E+00  0.25500000000E-02 0. -1.
          2   -1    0    0    0  501  0.00000000000E+00 -0.00000000000E+00 -0.12578060736E+04  0.12578060736E+04  0.25500000000E-02 0. -1.
          2    1    1    2    0  502 -0.17059170208E+01  0.20146422176E+02 -0.28354581546E+03  0.28426575233E+03  0.25500000000E-02 0. -1.
         -2    1    1    2  502    0  0.17059170208E+01 -0.20146422176E+02 -0.97379535732E+03  0.97400522915E+03  0.25500000000E-02 0. -1.
<mgrwt>
<rscale>  0 0.48363603E+02</rscale>
<asrwt>0</asrwt>
<pdfrwt beam="2">  1        2 0.19350590E+00 0.48363603E+02</pdfrwt>
<pdfrwt beam="1">  1       -2 0.71524754E-04 0.48363603E+02</pdfrwt>
<totfact> 0.12434075E+06</totfact>
</mgrwt>
</event>
<event>
 4    1  0.4635140E-002  0.8446487E+02  0.7818608E-02  0.1316838E+00
         -2   -1    0    0  501    0 -0.00000000000E+00  0.00000000000E+00  0.66582156585E+01  0.66582161468E+01  0.25500000000E-02 0. -1.
          2   -1    0    0    0  501  0.00000000000E+00 -0.00000000000E+00 -0.26787633808E+03  0.26787633809E+03  0.25500000000E-02 0. -1.
          2    1    1    2    0  502 -0.37822213510E+02 -0.18270130832E+02 -0.11634444653E+03  0.12369457450E+03  0.25500000000E-02 0. -1.
         -2    1    1    2  502    0  0.37822213510E+02  0.18270130832E+02 -0.14487367588E+03  0.15083997973E+03  0.25500000000E-02 0. -1.
<mgrwt>
<rscale>  0 0.84464868E+02</rscale>
<asrwt>0</asrwt>
<pdfrwt beam="2">  1        2 0.41211736E-01 0.84464868E+02</pdfrwt>
<pdfrwt beam="1">  1       -2 0.10243411E-02 0.84464868E+02</pdfrwt>
<totfact> 0.21109787E+05</totfact>
</mgrwt>
</event>
<event>
 4    1  0.4635140E-002  0.4576459E+02  0.7818608E-02  0.1469624E+00
         -2   -1    0    0  501    0 -0.00000000000E+00  0.00000000000E+00  0.23900697374E+02  0.23900697510E+02  0.25500000000E-02 0.  1.
          2   -1    0    0    0  501  0.00000000000E+00 -0.00000000000E+00 -0.21907283901E+02  0.21907284050E+02  0.25500000000E-02 0.  1.
          2    1    1    2    0  502 -0.21353241144E+02 -0.61862813666E+01  0.64211052170E+01  0.23140042853E+02  0.25500000000E-02 0.  1.
         -2    1    1    2  502    0  0.21353241144E+02  0.61862813666E+01 -0.44276917445E+01  0.22667938707E+02  0.25500000000E-02 0.  1.
<mgrwt>
<rscale>  0 0.45764588E+02</rscale>
<asrwt>0</asrwt>
<pdfrwt beam="2">  1        2 0.33703514E-02 0.45764588E+02</pdfrwt>
<pdfrwt beam="1">  1       -2 0.36770304E-02 0.45764588E+02</pdfrwt>
<totfact> 0.56384054E+05</totfact>
</mgrwt>
</event>
<event>
 4    1  0.4635140E-002  0.4188094E+02  0.7818608E-02  0.1494809E+00
          2   -1    0    0    0  501  0.00000000000E+00  0.00000000000E+00  0.38140091522E+01  0.38140100047E+01  0.25500000000E-02 0.  1.
         -2   -1    0    0  501    0 -0.00000000000E+00 -0.00000000000E+00 -0.11497170477E+03  0.11497170480E+03  0.25500000000E-02 0.  1.
          2    1    1    2    0  502 -0.10178951953E+01  0.20045381313E+02 -0.72513494202E+02  0.75240017746E+02  0.25500000000E-02 0.  1.
         -2    1    1    2  502    0  0.10178951953E+01 -0.20045381313E+02 -0.38644201419E+02  0.43545697060E+02  0.25500000000E-02 0.  1.
<mgrwt>
<rscale>  0 0.41880935E+02</rscale>
<asrwt>0</asrwt>
<pdfrwt beam="1">  1        2 0.58677079E-03 0.41880935E+02</pdfrwt>
<pdfrwt beam="2">  1       -2 0.17687952E-01 0.41880935E+02</pdfrwt>
<totfact> 0.52296348E+05</totfact>
</mgrwt>
</event>
<event>
 4    1  0.4635140E-002  0.7911610E+02  0.7818608E-02  0.1331579E+00
          2   -1    0    0    0  501  0.00000000000E+00  0.00000000000E+00  0.15688571970E+03  0.15688571972E+03  0.25500000000E-02 0. -1.
         -2   -1    0    0  501    0 -0.00000000000E+00 -0.00000000000E+00 -0.99743889814E+01  0.99743893074E+01  0.25500000000E-02 0. -1.
          2    1    1    2    0  502 -0.33743936606E+02  0.15243187128E+02  0.10281860372E+03  0.10928253881E+03  0.25500000000E-02 0.  1.
         -2    1    1    2  502    0  0.33743936606E+02 -0.15243187128E+02  0.44092726996E+02  0.57577570216E+02  0.25500000000E-02 0.  1.
<mgrwt>
<rscale>  0 0.79116098E+02</rscale>
<asrwt>0</asrwt>
<pdfrwt beam="1">  1        2 0.24136264E-01 0.79116098E+02</pdfrwt>
<pdfrwt beam="2">  1       -2 0.15345215E-02 0.79116098E+02</pdfrwt>
<totfact> 0.20780068E+05</totfact>
</mgrwt>
</event>
<event>
 4    1  0.4635140E-002  0.8634357E+02  0.7818608E-02  0.1311956E+00
          2   -1    0    0    0  501  0.00000000000E+00  0.00000000000E+00  0.30892644061E+04  0.30892644061E+04  0.25500000000E-02 0. -1.
         -2   -1    0    0  501    0 -0.00000000000E+00 -0.00000000000E+00 -0.60331344510E+00  0.60331883406E+00  0.25500000000E-02 0. -1.
          2    1    1    2    0  502 -0.31660769577E+02 -0.29171287076E+02  0.16599287158E+04  0.16604868894E+04  0.25500000000E-02 0. -1.
         -2    1    1    2  502    0  0.31660769577E+02  0.29171287076E+02  0.14287323769E+04  0.14293808356E+04  0.25500000000E-02 0. -1.
<mgrwt>
<rscale>  0 0.86343571E+02</rscale>
<asrwt>0</asrwt>
<pdfrwt beam="1">  1        2 0.47527523E+00 0.86343571E+02</pdfrwt>
<pdfrwt beam="2">  1       -2 0.92817129E-04 0.86343571E+02</pdfrwt>
<totfact> 0.10904609E+05</totfact>
</mgrwt>
</event>
<event>
 4    1  0.4635140E-002  0.4564006E+02  0.7818608E-02  0.1470385E+00
         -2   -1    0    0  501    0 -0.00000000000E+00  0.00000000000E+00  0.63020138944E+00  0.63020654849E+00  0.25500000000E-02 0. -1.
          2   -1    0    0    0  501  0.00000000000E+00 -0.00000000000E+00 -0.82632588808E+03  0.82632588808E+03  0.25500000000E-02 0. -1.
          2    1    1    2    0  502  0.20539656362E+02  0.99216462943E+01 -0.40086590295E+03  0.40151436924E+03  0.25500000000E-02 0.  1.
         -2    1    1    2  502    0 -0.20539656362E+02 -0.99216462943E+01 -0.42482978373E+03  0.42544172539E+03  0.25500000000E-02 0.  1.
<mgrwt>
<rscale>  0 0.45640064E+02</rscale>
<asrwt>0</asrwt>
<pdfrwt beam="2">  1        2 0.12712619E+00 0.45640064E+02</pdfrwt>
<pdfrwt beam="1">  1       -2 0.96955119E-04 0.45640064E+02</pdfrwt>
<totfact> 0.14205576E+06</totfact>
</mgrwt>
</event>
<event>
 4    1  0.4635140E-002  0.4403266E+02  0.7818608E-02  0.1480472E+00
         -2   -1    0    0  501    0 -0.00000000000E+00  0.00000000000E+00  0.62923508629E+01  0.62923513796E+01  0.25500000000E-02 0.  1.
          2   -1    0    0    0  501  0.00000000000E+00 -0.00000000000E+00 -0.77033014872E+02  0.77033014914E+02  0.25500000000E-02 0.  1.
          2    1    1    2    0  502 -0.21769735141E+02  0.30115032715E+00 -0.29178339407E+02  0.36405872557E+02  0.25500000000E-02 0. -1.
         -2    1    1    2  502    0  0.21769735141E+02 -0.30115032715E+00 -0.41562324603E+02  0.46919493737E+02  0.25500000000E-02 0. -1.
<mgrwt>
<rscale>  0 0.44032660E+02</rscale>
<asrwt>0</asrwt>
<pdfrwt beam="2">  1        2 0.11851232E-01 0.44032660E+02</pdfrwt>
<pdfrwt beam="1">  1       -2 0.96805407E-03 0.44032660E+02</pdfrwt>
<totfact> 0.77400304E+05</totfact>
</mgrwt>
</event>
<event>
 4    1  0.4635140E-002  0.4287714E+02  0.7818608E-02  0.1488047E+00
          2   -1    0    0    0  501  0.00000000000E+00  0.00000000000E+00  0.30386262092E+02  0.30386262199E+02  0.25500000000E-02 0. -1.
         -2   -1    0    0  501    0 -0.00000000000E+00 -0.00000000000E+00 -0.15125663202E+02  0.15125663417E+02  0.25500000000E-02 0. -1.
          2    1    1    2    0  502  0.84679906573E+01  0.19689578840E+02  0.71257071244E+01  0.22586768011E+02  0.25500000000E-02 0. -1.
         -2    1    1    2  502    0 -0.84679906573E+01 -0.19689578840E+02  0.81348917660E+01  0.22925157605E+02  0.25500000000E-02 0. -1.
<mgrwt>
<rscale>  0 0.42877144E+02</rscale>
<asrwt>0</asrwt>
<pdfrwt beam="1">  1        2 0.46748096E-02 0.42877144E+02</pdfrwt>
<pdfrwt beam="2">  1       -2 0.23270251E-02 0.42877144E+02</pdfrwt>
<totfact> 0.69962476E+05</totfact>
</mgrwt>
</event>
<event>
 4    1  0.4635140E-002  0.7830445E+02  0.7818608E-02  0.1333933E+00
         -2   -1    0    0  501    0 -0.00000000000E+00  0.00000000000E+00  0.18681001742E+03  0.18681001743E+03  0.25500000000E-02 0.  1.
          2   -1    0    0    0  501  0.00000000000E+00 -0.00000000000E+00 -0.82056454413E+01  0.82056458375E+01  0.25500000000E-02 0.  1.
          2    1    1    2    0  502 -0.35688049166E+02 -0.12966153020E+01  0.12927254449E+03  0.13411453624E+03  0.25500000000E-02 0.  1.
         -2    1    1    2  502    0  0.35688049166E+02  0.12966153020E+01  0.49331827482E+02  0.60901127031E+02  0.25500000000E-02 0.  1.
<mgrwt>
<rscale>  0 0.78304452E+02</rscale>
<asrwt>0</asrwt>
<pdfrwt beam="2">  1        2 0.12624071E-02 0.78304452E+02</pdfrwt>
<pdfrwt beam="1">  1       -2 0.28740001E-01 0.78304452E+02</pdfrwt>
<totfact> 0.94448619E+04</totfact>
</mgrwt>
</event>
<event>
 4    1  0.4635140E-002  0.6770292E+02  0.7818608E-02  0.1368083E+00
          2   -1    0    0    0  501  0.00000000000E+00  0.00000000000E+00  0.30282077453E+02  0.30282077561E+02  0.25500000000E-02 0. -1.
         -2   -1    0    0  501    0 -0.00000000000E+00 -0.00000000000E+00 -0.37841565223E+02  0.37841565309E+02  0.25500000000E-02 0. -1.
          2    1    1    2    0  502  0.30393921695E+02  0.83826170367E+01 -0.16179573282E+02  0.35437795395E+02  0.25500000000E-02 0.  1.
         -2    1    1    2  502    0 -0.30393921695E+02 -0.83826170367E+01  0.86200855119E+01  0.32685847474E+02  0.25500000000E-02 0.  1.
<mgrwt>
<rscale>  0 0.67702916E+02</rscale>
<asrwt>0</asrwt>
<pdfrwt beam="1">  1        2 0.46587812E-02 0.67702916E+02</pdfrwt>
<pdfrwt beam="2">  1       -2 0.58217792E-02 0.67702916E+02</pdfrwt>
<totfact> 0.20795025E+05</totfact>
</mgrwt>
</event>
<event>
 4    1  0.4635140E-002  0.6814454E+02  0.7818608E-02  0.1366519E+00
          2   -1    0    0    0  501  0.00000000000E+00  0.00000000000E+00  0.40700432300E+02  0.40700432380E+02  0.25500000000E-02 0.  1.
         -2   -1    0    0  501    0 -0.00000000000E+00 -0.00000000000E+00 -0.28523515917E+02  0.28523516031E+02  0.25500000000E-02 0.  1.
          2    1    1    2    0  502  0.37467845788E+01 -0.27045004407E+02  0.26793879392E+02  0.38254184574E+02  0.25500000000E-02 0. -1.
         -2    1    1    2  502    0 -0.37467845788E+01  0.27045004407E+02 -0.14616963008E+02  0.30969763837E+02  0.25500000000E-02 0. -1.
<mgrwt>
<rscale>  0 0.68144536E+02</rscale>
<asrwt>0</asrwt>
<pdfrwt beam="1">  1        2 0.62616050E-02 0.68144536E+02</pdfrwt>
<pdfrwt beam="2">  1       -2 0.43882332E-02 0.68144536E+02</pdfrwt>
<totfact> 0.21699673E+05</totfact>
</mgrwt>
</event>
<event>
 4    1  0.4635140E-002  0.5675360E+02  0.7818608E-02  0.1411983E+00
          2   -1    0    0    0  501  0.00000000000E+00  0.00000000000E+00  0.56650658907E+01  0.56650664646E+01  0.25500000000E-02 0. -1.
         -2   -1    0    0  501    0 -0.00000000000E+00 -0.00000000000E+00 -0.14214182047E+03  0.14214182050E+03  0.25500000000E-02 0. -1.
          2    1    1    2    0  502 -0.54616685679E+01  0.26674602703E+02 -0.47423262337E+02  0.54683910523E+02  0.25500000000E-02 0. -1.
         -2    1    1    2  502    0  0.54616685679E+01 -0.26674602703E+02 -0.89053492245E+02  0.93122976437E+02  0.25500000000E-02 0. -1.
<mgrwt>
<rscale>  0 0.56753602E+02</rscale>
<asrwt>0</asrwt>
<pdfrwt beam="1">  1        2 0.87154875E-03 0.56753602E+02</pdfrwt>
<pdfrwt beam="2">  1       -2 0.21867970E-01 0.56753602E+02</pdfrwt>
<totfact> 0.23369907E+05</totfact>
</mgrwt>
</event>
<event>
 4    1  0.4635140E-002  0.6353430E+02  0.7818608E-02  0.1383571E+00
          2   -1    0    0    0  501  0.00000000000E+00  0.00000000000E+00  0.18183954812E+01  0.18183972692E+01  0.25500000000E-02 0. -1.
         -2   -1    0    0  501    0 -0.00000000000E+00 -0.00000000000E+00 -0.55496797041E+03  0.55496797042E+03  0.25500000000E-02 0. -1.
          2    1    1    2    0  502  0.13128158450E+02 -0.20133153258E+02 -0.94541716585E+02  0.97549108585E+02  0.25500000000E-02 0.  1.
         -2    1    1    2  502    0 -0.13128158450E+02  0.20133153258E+02 -0.45860785835E+03  0.45923725910E+03  0.25500000000E-02 0.  1.
<mgrwt>
<rscale>  0 0.63534298E+02</rscale>
<asrwt>0</asrwt>
<pdfrwt beam="1">  1        2 0.27975373E-03 0.63534298E+02</pdfrwt>
<pdfrwt beam="2">  1       -2 0.85379553E-01 0.63534298E+02</pdfrwt>
<totfact> 0.84066529E+04</totfact>
</mgrwt>
</event>
<event>
 4    1  0.4635140E-002  0.5722535E+02  0.7818608E-02  0.1409859E+00
         -2   -1    0    0  501    0 -0.00000000000E+00  0.00000000000E+00  0.56407262329E+02  0.56407262387E+02  0.25500000000E-02 0. -1.
          2   -1    0    0    0  501  0.00000000000E+00 -0.00000000000E+00 -0.14513824646E+02  0.14513824870E+02  0.25500000000E-02 0. -1.
          2    1    1    2    0  502  0.24274512645E+02 -0.58542589840E+01  0.36332838573E+01  0.25233411789E+02  0.25500000000E-02 0.  1.
         -2    1    1    2  502    0 -0.24274512645E+02  0.58542589840E+01  0.38260153825E+02  0.45687675468E+02  0.25500000000E-02 0.  1.
<mgrwt>
<rscale>  0 0.57225348E+02</rscale>
<asrwt>0</asrwt>
<pdfrwt beam="2">  1        2 0.22328961E-02 0.57225348E+02</pdfrwt>
<pdfrwt beam="1">  1       -2 0.86780403E-02 0.57225348E+02</pdfrwt>
<totfact> 0.28797611E+05</totfact>
</mgrwt>
</event>
<event>
 4    1  0.4635140E-002  0.4313626E+02  0.7818608E-02  0.1486324E+00
          2   -1    0    0    0  501  0.00000000000E+00  0.00000000000E+00  0.14190359504E+02  0.14190359733E+02  0.25500000000E-02 0.  1.
         -2   -1    0    0  501    0 -0.00000000000E+00 -0.00000000000E+00 -0.32781713484E+02  0.32781713583E+02  0.25500000000E-02 0.  1.
          2    1    1    2    0  502  0.18473838841E+02  0.88715990598E+01 -0.16616310960E+02  0.26383513561E+02  0.25500000000E-02 0. -1.
         -2    1    1    2  502    0 -0.18473838841E+02 -0.88715990598E+01 -0.19750430200E+01  0.20588559756E+02  0.25500000000E-02 0. -1.
<mgrwt>
<rscale>  0 0.43136264E+02</rscale>
<asrwt>0</asrwt>
<pdfrwt beam="1">  1        2 0.21831323E-02 0.43136264E+02</pdfrwt>
<pdfrwt beam="2">  1       -2 0.50433405E-02 0.43136264E+02</pdfrwt>
<totfact> 0.61885963E+05</totfact>
</mgrwt>
</event>
<event>
 4    1  0.4635140E-002  0.9886262E+02  0.7818608E-02  0.1282706E+00
         -2   -1    0    0  501    0 -0.00000000000E+00  0.00000000000E+00  0.24761741957E+02  0.24761742089E+02  0.25500000000E-02 0. -1.
          2   -1    0    0    0  501  0.00000000000E+00 -0.00000000000E+00 -0.98678618972E+02  0.98678619005E+02  0.25500000000E-02 0. -1.
          2    1    1    2    0  502  0.47511038641E+02 -0.85761399321E+01 -0.23708772626E+02  0.53786195951E+02  0.25500000000E-02 0.  1.
         -2    1    1    2  502    0 -0.47511038641E+02  0.85761399321E+01 -0.50208104389E+02  0.69654165143E+02  0.25500000000E-02 0.  1.
<mgrwt>
<rscale>  0 0.98862622E+02</rscale>
<asrwt>0</asrwt>
<pdfrwt beam="2">  1        2 0.15181326E-01 0.98862622E+02</pdfrwt>
<pdfrwt beam="1">  1       -2 0.38094988E-02 0.98862622E+02</pdfrwt>
<totfact> 0.97619203E+04</totfact>
</mgrwt>
</event>
<event>
 4    1  0.4635140E-002  0.5093454E+02  0.7818608E-02  0.1440365E+00
         -2   -1    0    0  501    0 -0.00000000000E+00  0.00000000000E+00  0.19745770753E+00  0.19747417239E+00  0.25500000000E-02 0.  1.
          2   -1    0    0    0  501  0.00000000000E+00 -0.00000000000E+00 -0.32845248384E+04  0.32845248384E+04  0.25500000000E-02 0.  1.
          2    1    1    2    0  502 -0.16428348674E+02 -0.19348077110E+02 -0.15077684559E+04  0.15079820806E+04  0.25500000000E-02 0. -1.
         -2    1    1    2  502    0  0.16428348674E+02  0.19348077110E+02 -0.17765589248E+04  0.17767402320E+04  0.25500000000E-02 0. -1.
<mgrwt>
<rscale>  0 0.50934538E+02</rscale>
<asrwt>0</asrwt>
<pdfrwt beam="2">  1        2 0.50526776E+00 0.50934538E+02</pdfrwt>
<pdfrwt beam="1">  1       -2 0.30382006E-04 0.50934538E+02</pdfrwt>
<totfact> 0.36057067E+05</totfact>
</mgrwt>
</event>
<event>
 4    1  0.4635140E-002  0.6636183E+02  0.7818608E-02  0.1372921E+00
         -2   -1    0    0  501    0 -0.00000000000E+00  0.00000000000E+00  0.22311753263E+01  0.22311767835E+01  0.25500000000E-02 0. -1.
          2   -1    0    0    0  501  0.00000000000E+00 -0.00000000000E+00 -0.49344963508E+03  0.49344963509E+03  0.25500000000E-02 0. -1.
          2    1    1    2    0  502 -0.10087174548E+02  0.19846993471E+02 -0.61838709937E+02  0.65724274765E+02  0.25500000000E-02 0. -1.
         -2    1    1    2  502    0  0.10087174548E+02 -0.19846993471E+02 -0.42937974982E+03  0.42995653711E+03  0.25500000000E-02 0. -1.
<mgrwt>
<rscale>  0 0.66361827E+02</rscale>
<asrwt>0</asrwt>
<pdfrwt beam="2">  1        2 0.75915242E-01 0.66361827E+02</pdfrwt>
<pdfrwt beam="1">  1       -2 0.34325825E-03 0.66361827E+02</pdfrwt>
<totfact> 0.49051950E+05</totfact>
</mgrwt>
</event>
<event>
 4    1  0.4635140E-002  0.1312026E+03  0.7818608E-02  0.1225682E+00
          2   -1    0    0    0  501  0.00000000000E+00  0.00000000000E+00  0.25048804273E+04  0.25048804273E+04  0.25500000000E-02 0.  1.
         -2   -1    0    0  501    0 -0.00000000000E+00 -0.00000000000E+00 -0.17180574940E+01  0.17180593864E+01  0.25500000000E-02 0.  1.
          2    1    1    2    0  502  0.55115817003E+02  0.94598426900E+01  0.19068195807E+04  0.19076394196E+04  0.25500000000E-02 0. -1.
         -2    1    1    2  502    0 -0.55115817003E+02 -0.94598426900E+01  0.59634278905E+03  0.59895906702E+03  0.25500000000E-02 0. -1.
<mgrwt>
<rscale>  0 0.13120261E+03</rscale>
<asrwt>0</asrwt>
<pdfrwt beam="1">  1        2 0.38536783E+00 0.13120261E+03</pdfrwt>
<pdfrwt beam="2">  1       -2 0.26431558E-03 0.13120261E+03</pdfrwt>
<totfact> 0.55444889E+04</totfact>
</mgrwt>
</event>
<event>
 4    1  0.4635140E-002  0.4911459E+02  0.7818608E-02  0.1450177E+00
         -2   -1    0    0  501    0 -0.00000000000E+00  0.00000000000E+00  0.32220985922E+01  0.32220996012E+01  0.25500000000E-02 0. -1.
          2   -1    0    0    0  501  0.00000000000E+00 -0.00000000000E+00 -0.18716393965E+03  0.18716393967E+03  0.25500000000E-02 0. -1.
          2    1    1    2    0  502  0.22044150319E+02 -0.44899190550E+01 -0.53801659597E+02  0.58315714162E+02  0.25500000000E-02 0.  1.
         -2    1    1    2  502    0 -0.22044150319E+02  0.44899190550E+01 -0.13014018146E+03  0.13207032511E+03  0.25500000000E-02 0.  1.
<mgrwt>
<rscale>  0 0.49114591E+02</rscale>
<asrwt>0</asrwt>
<pdfrwt beam="2">  1        2 0.28794444E-01 0.49114591E+02</pdfrwt>
<pdfrwt beam="1">  1       -2 0.49570770E-03 0.49114591E+02</pdfrwt>
<totfact> 0.75319246E+05</totfact>
</mgrwt>
</event>
<event>
 4    1  0.4635140E-002  0.8723995E+02  0.7818608E-02  0.1309677E+00
         -2   -1    0    0  501    0 -0.00000000000E+00  0.00000000000E+00  0.18431594213E+01  0.18431611853E+01  0.25500000000E-02 0.  1.
          2   -1    0    0    0  501  0.00000000000E+00 -0.00000000000E+00 -0.10323043308E+04  0.10323043308E+04  0.25500000000E-02 0.  1.
          2    1    1    2    0  502  0.10056605646E+02 -0.42372327288E+02 -0.48582649149E+03  0.48777446558E+03  0.25500000000E-02 0. -1.
         -2    1    1    2  502    0 -0.10056605646E+02  0.42372327288E+02 -0.54463467985E+03  0.54637302637E+03  0.25500000000E-02 0. -1.
<mgrwt>
<rscale>  0 0.87239953E+02</rscale>
<asrwt>0</asrwt>
<pdfrwt beam="2">  1        2 0.15881559E+00 0.87239953E+02</pdfrwt>
<pdfrwt beam="1">  1       -2 0.28356395E-03 0.87239953E+02</pdfrwt>
<totfact> 0.28103656E+05</totfact>
</mgrwt>
</event>
<event>
 4    1  0.4635140E-002  0.7581335E+02  0.7818608E-02  0.1341371E+00
         -2   -1    0    0  501    0 -0.00000000000E+00  0.00000000000E+00  0.22313495885E+01  0.22313510456E+01  0.25500000000E-02 0.  1.
          2   -1    0    0    0  501  0.00000000000E+00 -0.00000000000E+00 -0.64396704534E+03  0.64396704535E+03  0.25500000000E-02 0.  1.
          2    1    1    2    0  502 -0.12328436392E+02 -0.35369262880E+02 -0.37052505438E+03  0.37241346785E+03  0.25500000000E-02 0.  1.
         -2    1    1    2  502    0  0.12328436392E+02  0.35369262880E+02 -0.27121064137E+03  0.27378492855E+03  0.25500000000E-02 0.  1.
<mgrwt>
<rscale>  0 0.75813352E+02</rscale>
<asrwt>0</asrwt>
<pdfrwt beam="2">  1        2 0.99071705E-01 0.75813352E+02</pdfrwt>
<pdfrwt beam="1">  1       -2 0.34328518E-03 0.75813352E+02</pdfrwt>
<totfact> 0.37631382E+05</totfact>
</mgrwt>
</event>
<event>
 4    1  0.4635140E-002  0.4849788E+02  0.7818608E-02  0.1453616E+00
         -2   -1    0    0  501    0 -0.00000000000E+00  0.00000000000E+00  0.50255729986E+00  0.50256376923E+00  0.25500000000E-02 0. -1.
          2   -1    0    0    0  501  0.00000000000E+00 -0.00000000000E+00 -0.11700301562E+04  0.11700301562E+04  0.25500000000E-02 0. -1.
          2    1    1    2    0  502  0.20245301319E+02  0.12013787611E+02 -0.72509957344E+03  0.72548162949E+03  0.25500000000E-02 0.  1.
         -2    1    1    2  502    0 -0.20245301319E+02 -0.12013787611E+02 -0.44442802550E+03  0.44505109052E+03  0.25500000000E-02 0.  1.
<mgrwt>
<rscale>  0 0.48497876E+02</rscale>
<asrwt>0</asrwt>
<pdfrwt beam="2">  1        2 0.18000246E+00 0.48497876E+02</pdfrwt>
<pdfrwt beam="1">  1       -2 0.77317942E-04 0.48497876E+02</pdfrwt>
<totfact> 0.12451375E+06</totfact>
</mgrwt>
</event>
<event>
 4    1  0.4635140E-002  0.4065939E+02  0.7818608E-02  0.1503414E+00
          2   -1    0    0    0  501  0.00000000000E+00  0.00000000000E+00  0.31192974402E+01  0.31192984825E+01  0.25500000000E-02 0. -1.
         -2   -1    0    0  501    0 -0.00000000000E+00 -0.00000000000E+00 -0.13249662562E+03  0.13249662565E+03  0.25500000000E-02 0. -1.
          2    1    1    2    0  502 -0.81751125533E+01 -0.18578235324E+02 -0.68510819479E+02  0.71454290880E+02  0.25500000000E-02 0. -1.
         -2    1    1    2  502    0  0.81751125533E+01  0.18578235324E+02 -0.60866508704E+02  0.64161633250E+02  0.25500000000E-02 0. -1.
<mgrwt>
<rscale>  0 0.40659388E+02</rscale>
<asrwt>0</asrwt>
<pdfrwt beam="1">  1        2 0.47989210E-03 0.40659388E+02</pdfrwt>
<pdfrwt beam="2">  1       -2 0.20384092E-01 0.40659388E+02</pdfrwt>
<totfact> 0.53913639E+05</totfact>
</mgrwt>
</event>
<event>
 4    1  0.4635140E-002  0.7509882E+02  0.7818608E-02  0.1343565E+00
         -2   -1    0    0  501    0 -0.00000000000E+00  0.00000000000E+00  0.23967365621E+01  0.23967379187E+01  0.25500000000E-02 0. -1.
          2   -1    0    0    0  501  0.00000000000E+00 -0.00000000000E+00 -0.58828232696E+03  0.58828232697E+03  0.25500000000E-02 0. -1.
          2    1    1    2    0  502  0.35924790101E+02 -0.10364169662E+02 -0.26575139862E+03  0.26836879929E+03  0.25500000000E-02 0. -1.
         -2    1    1    2  502    0 -0.35924790101E+02  0.10364169662E+02 -0.32013419178E+03  0.32231026560E+03  0.25500000000E-02 0. -1.
<mgrwt>
<rscale>  0 0.75098819E+02</rscale>
<asrwt>0</asrwt>
<pdfrwt beam="2">  1        2 0.90504858E-01 0.75098819E+02</pdfrwt>
<pdfrwt beam="1">  1       -2 0.36872928E-03 0.75098819E+02</pdfrwt>
<totfact> 0.37630202E+05</totfact>
</mgrwt>
</event>
<event>
 4    1  0.4635140E-002  0.8991286E+02  0.7818608E-02  0.1303063E+00
          2   -1    0    0    0  501  0.00000000000E+00  0.00000000000E+00  0.17620027149E+03  0.17620027150E+03  0.25500000000E-02 0. -1.
         -2   -1    0    0  501    0 -0.00000000000E+00 -0.00000000000E+00 -0.11470359335E+02  0.11470359619E+02  0.25500000000E-02 0. -1.
          2    1    1    2    0  502  0.13839003897E+02  0.26944619734E+02  0.15170282717E+03  0.15469737664E+03  0.25500000000E-02 0.  1.
         -2    1    1    2  502    0 -0.13839003897E+02 -0.26944619734E+02  0.13027084976E+02  0.32973254479E+02  0.25500000000E-02 0.  1.
<mgrwt>
<rscale>  0 0.89912857E+02</rscale>
<asrwt>0</asrwt>
<pdfrwt beam="1">  1        2 0.27107735E-01 0.89912857E+02</pdfrwt>
<pdfrwt beam="2">  1       -2 0.17646706E-02 0.89912857E+02</pdfrwt>
<totfact> 0.15349756E+05</totfact>
</mgrwt>
</event>
<event>
 4    1  0.4635140E-002  0.4696545E+02  0.7818608E-02  0.1462432E+00
         -2   -1    0    0  501    0 -0.00000000000E+00  0.00000000000E+00  0.32088753462E+01  0.32088763594E+01  0.25500000000E-02 0. -1.
          2   -1    0    0    0  501  0.00000000000E+00 -0.00000000000E+00 -0.17184781070E+03  0.17184781072E+03  0.25500000000E-02 0. -1.
          2    1    1    2    0  502 -0.20950979334E+02 -0.51892206056E+00 -0.44833210603E+02  0.49489691802E+02  0.25500000000E-02 0.  1.
         -2    1    1    2  502    0  0.20950979334E+02  0.51892206056E+00 -0.12380572475E+03  0.12556699527E+03  0.25500000000E-02 0.  1.
<mgrwt>
<rscale>  0 0.46965447E+02</rscale>
<asrwt>0</asrwt>
<pdfrwt beam="2">  1        2 0.26438118E-01 0.46965447E+02</pdfrwt>
<pdfrwt beam="1">  1       -2 0.49367334E-03 0.46965447E+02</pdfrwt>
<totfact> 0.81934329E+05</totfact>
</mgrwt>
</event>
<event>
 4    1  0.4635140E-002  0.7880067E+02  0.7818608E-02  0.1332490E+00
          2   -1    0    0    0  501  0.00000000000E+00  0.00000000000E+00  0.21366766316E+03  0.21366766318E+03  0.25500000000E-02 0. -1.
         -2   -1    0    0  501    0 -0.00000000000E+00 -0.00000000000E+00 -0.72654253209E+01  0.72654257684E+01  0.25500000000E-02 0. -1.
          2    1    1    2    0  502 -0.14298267700E+02  0.24697184471E+02  0.17936649373E+03  0.18162249437E+03  0.25500000000E-02 0.  1.
         -2    1    1    2  502    0  0.14298267700E+02 -0.24697184471E+02  0.27035744109E+02  0.39310594578E+02  0.25500000000E-02 0.  1.
<mgrwt>
<rscale>  0 0.78800673E+02</rscale>
<asrwt>0</asrwt>
<pdfrwt beam="1">  1        2 0.32871947E-01 0.78800673E+02</pdfrwt>
<pdfrwt beam="2">  1       -2 0.11177578E-02 0.78800673E+02</pdfrwt>
<totfact> 0.23368701E+05</totfact>
</mgrwt>
</event>
<event>
 4    1  0.4635140E-002  0.4744427E+02  0.7818608E-02  0.1459635E+00
          2   -1    0    0    0  501  0.00000000000E+00  0.00000000000E+00  0.53873928937E+01  0.53873934972E+01  0.25500000000E-02 0.  1.
         -2   -1    0    0  501    0 -0.00000000000E+00 -0.00000000000E+00 -0.10445490594E+03  0.10445490597E+03  0.25500000000E-02 0.  1.
          2    1    1    2    0  502 -0.36765305427E+00 -0.23604751318E+02 -0.44143701155E+02  0.50059822330E+02  0.25500000000E-02 0. -1.
         -2    1    1    2  502    0  0.36765305427E+00  0.23604751318E+02 -0.54923811888E+02  0.59782477135E+02  0.25500000000E-02 0. -1.
<mgrwt>
<rscale>  0 0.47444268E+02</rscale>
<asrwt>0</asrwt>
<pdfrwt beam="1">  1        2 0.82882980E-03 0.47444268E+02</pdfrwt>
<pdfrwt beam="2">  1       -2 0.16069984E-01 0.47444268E+02</pdfrwt>
<totfact> 0.39663878E+05</totfact>
</mgrwt>
</event>
<event>
 4    1  0.4635140E-002  0.4250986E+02  0.7818608E-02  0.1490514E+00
          2   -1    0    0    0  501  0.00000000000E+00  0.00000000000E+00  0.18484675401E+03  0.18484675403E+03  0.25500000000E-02 0. -1.
         -2   -1    0    0  501    0 -0.00000000000E+00 -0.00000000000E+00 -0.24440346442E+01  0.24440359745E+01  0.25500000000E-02 0. -1.
          2    1    1    2    0  502  0.77498222129E+01 -0.19582092301E+02  0.78543608248E+02  0.81317996079E+02  0.25500000000E-02 0. -1.
         -2    1    1    2  502    0 -0.77498222129E+01  0.19582092301E+02  0.10385911112E+03  0.10597279393E+03  0.25500000000E-02 0. -1.
<mgrwt>
<rscale>  0 0.42509858E+02</rscale>
<asrwt>0</asrwt>
<pdfrwt beam="1">  1        2 0.28437966E-01 0.42509858E+02</pdfrwt>
<pdfrwt beam="2">  1       -2 0.37600539E-03 0.42509858E+02</pdfrwt>
<totfact> 0.10730086E+06</totfact>
</mgrwt>
</event>
<event>
 4    1  0.4635140E-002  0.6570378E+02  0.7818608E-02  0.1375344E+00
          2   -1    0    0    0  501  0.00000000000E+00  0.00000000000E+00  0.31021153310E+01  0.31021163791E+01  0.25500000000E-02 0. -1.
         -2   -1    0    0  501    0 -0.00000000000E+00 -0.00000000000E+00 -0.34790659933E+03  0.34790659934E+03  0.25500000000E-02 0. -1.
          2    1    1    2    0  502 -0.31406529458E+02  0.78606823162E+01 -0.14261631835E+03  0.14624491337E+03  0.25500000000E-02 0. -1.
         -2    1    1    2  502    0  0.31406529458E+02 -0.78606823162E+01 -0.20218816565E+03  0.20476380235E+03  0.25500000000E-02 0. -1.
<mgrwt>
<rscale>  0 0.65703777E+02</rscale>
<asrwt>0</asrwt>
<pdfrwt beam="1">  1        2 0.47724887E-03 0.65703777E+02</pdfrwt>
<pdfrwt beam="2">  1       -2 0.53524061E-01 0.65703777E+02</pdfrwt>
<totfact> 0.10787540E+05</totfact>
</mgrwt>
</event>
<event>
 4    1  0.4635140E-002  0.5474078E+02  0.7818608E-02  0.1421329E+00
          2   -1    0    0    0  501  0.00000000000E+00  0.00000000000E+00  0.30141875971E+01  0.30141886757E+01  0.25500000000E-02 0.  1.
         -2   -1    0    0  501    0 -0.00000000000E+00 -0.00000000000E+00 -0.24853730251E+03  0.24853730253E+03  0.25500000000E-02 0.  1.
          2    1    1    2    0  502  0.83990946512E+01 -0.25069328119E+02 -0.90228047818E+02  0.94021894380E+02  0.25500000000E-02 0.  1.
         -2    1    1    2  502    0 -0.83990946512E+01  0.25069328119E+02 -0.15529506710E+03  0.15752959682E+03  0.25500000000E-02 0.  1.
<mgrwt>
<rscale>  0 0.54740778E+02</rscale>
<asrwt>0</asrwt>
<pdfrwt beam="1">  1        2 0.46372145E-03 0.54740778E+02</pdfrwt>
<pdfrwt beam="2">  1       -2 0.38236492E-01 0.54740778E+02</pdfrwt>
<totfact> 0.20461355E+05</totfact>
</mgrwt>
</event>
<event>
 4    1  0.4635140E-002  0.7628038E+02  0.7818608E-02  0.1339951E+00
         -2   -1    0    0  501    0 -0.00000000000E+00  0.00000000000E+00  0.32640816587E+01  0.32640826547E+01  0.25500000000E-02 0. -1.
          2   -1    0    0    0  501  0.00000000000E+00 -0.00000000000E+00 -0.44566101716E+03  0.44566101717E+03  0.25500000000E-02 0. -1.
          2    1    1    2    0  502  0.32810122016E+02  0.77669864057E+01 -0.11627611346E+03  0.12106595208E+03  0.25500000000E-02 0. -1.
         -2    1    1    2  502    0 -0.32810122016E+02 -0.77669864057E+01 -0.32612082204E+03  0.32785914774E+03  0.25500000000E-02 0. -1.
<mgrwt>
<rscale>  0 0.76280382E+02</rscale>
<asrwt>0</asrwt>
<pdfrwt beam="2">  1        2 0.68563185E-01 0.76280382E+02</pdfrwt>
<pdfrwt beam="1">  1       -2 0.50216684E-03 0.76280382E+02</pdfrwt>
<totfact> 0.33120976E+05</totfact>
</mgrwt>
</event>
<event>
 4    1  0.4635140E-002  0.5049666E+02  0.7818608E-02  0.1442681E+00
         -2   -1    0    0  501    0 -0.00000000000E+00  0.00000000000E+00  0.77351887001E+00  0.77352307319E+00  0.25500000000E-02 0.  1.
          2   -1    0    0    0  501  0.00000000000E+00 -0.00000000000E+00 -0.82412514371E+03  0.82412514371E+03  0.25500000000E-02 0.  1.
          2    1    1    2    0  502  0.19101757411E+02 -0.16469516486E+02 -0.39265351865E+03  0.39346271466E+03  0.25500000000E-02 0.  1.
         -2    1    1    2  502    0 -0.19101757411E+02  0.16469516486E+02 -0.43069810619E+03  0.43143595213E+03  0.25500000000E-02 0.  1.
<mgrwt>
<rscale>  0 0.50496657E+02</rscale>
<asrwt>0</asrwt>
<pdfrwt beam="2">  1        2 0.12678778E+00 0.50496657E+02</pdfrwt>
<pdfrwt beam="1">  1       -2 0.11900389E-03 0.50496657E+02</pdfrwt>
<totfact> 0.11077692E+06</totfact>
</mgrwt>
</event>
<event>
 4    1  0.4635140E-002  0.4470687E+02  0.7818608E-02  0.1476180E+00
         -2   -1    0    0  501    0 -0.00000000000E+00  0.00000000000E+00  0.62160967360E+01  0.62160972590E+01  0.25500000000E-02 0.  1.
          2   -1    0    0    0  501  0.00000000000E+00 -0.00000000000E+00 -0.80384217360E+02  0.80384217401E+02  0.25500000000E-02 0.  1.
          2    1    1    2    0  502 -0.16284417315E+02 -0.13840124897E+02 -0.49778116084E+02  0.54171876023E+02  0.25500000000E-02 0.  1.
         -2    1    1    2  502    0  0.16284417315E+02  0.13840124897E+02 -0.24390004540E+02  0.32428438637E+02  0.25500000000E-02 0.  1.
<mgrwt>
<rscale>  0 0.44706872E+02</rscale>
<asrwt>0</asrwt>
<pdfrwt beam="2">  1        2 0.12366802E-01 0.44706872E+02</pdfrwt>
<pdfrwt beam="1">  1       -2 0.95632268E-03 0.44706872E+02</pdfrwt>
<totfact> 0.75233270E+05</totfact>
</mgrwt>
</event>
<event>
 4    1  0.4635140E-002  0.6509416E+02  0.7818608E-02  0.1377618E+00
          2   -1    0    0    0  501  0.00000000000E+00  0.00000000000E+00  0.46420906896E+02  0.46420906966E+02  0.25500000000E-02 0. -1.
         -2   -1    0    0  501    0 -0.00000000000E+00 -0.00000000000E+00 -0.22819727043E+02  0.22819727186E+02  0.25500000000E-02 0. -1.
          2    1    1    2    0  502  0.19259848261E+02  0.24890670082E+02  0.20625144417E+02  0.37628231434E+02  0.25500000000E-02 0. -1.
         -2    1    1    2  502    0 -0.19259848261E+02 -0.24890670082E+02  0.29760354361E+01  0.31612402718E+02  0.25500000000E-02 0. -1.
<mgrwt>
<rscale>  0 0.65094160E+02</rscale>
<asrwt>0</asrwt>
<pdfrwt beam="1">  1        2 0.71416779E-02 0.65094160E+02</pdfrwt>
<pdfrwt beam="2">  1       -2 0.35107273E-02 0.65094160E+02</pdfrwt>
<totfact> 0.25251338E+05</totfact>
</mgrwt>
</event>
<event>
 4    1  0.4635140E-002  0.4010138E+02  0.7818608E-02  0.1507467E+00
          2   -1    0    0    0  501  0.00000000000E+00  0.00000000000E+00  0.52699096272E+03  0.52699096273E+03  0.25500000000E-02 0. -1.
         -2   -1    0    0  501    0 -0.00000000000E+00 -0.00000000000E+00 -0.76287640990E+00  0.76288067172E+00  0.25500000000E-02 0. -1.
          2    1    1    2    0  502  0.18073629052E+02 -0.86387806466E+01  0.25175100236E+03  0.25254673190E+03  0.25500000000E-02 0. -1.
         -2    1    1    2  502    0 -0.18073629052E+02  0.86387806466E+01  0.27447708395E+03  0.27520711150E+03  0.25500000000E-02 0. -1.
<mgrwt>
<rscale>  0 0.40101377E+02</rscale>
<asrwt>0</asrwt>
<pdfrwt beam="1">  1        2 0.81075561E-01 0.40101377E+02</pdfrwt>
<pdfrwt beam="2">  1       -2 0.11736589E-03 0.40101377E+02</pdfrwt>
<totfact> 0.17481673E+06</totfact>
</mgrwt>
</event>
<event>
 4    1  0.4635140E-002  0.4657146E+02  0.7818608E-02  0.1464763E+00
         -2   -1    0    0  501    0 -0.00000000000E+00  0.00000000000E+00  0.24815123978E+02  0.24815124109E+02  0.25500000000E-02 0.  1.
          2   -1    0    0    0  501  0.00000000000E+00 -0.00000000000E+00 -0.21850595603E+02  0.21850595752E+02  0.25500000000E-02 0.  1.
          2    1    1    2    0  502  0.22501462861E+02  0.56884721663E+01 -0.40587773018E+00  0.23212912134E+02  0.25500000000E-02 0. -1.
         -2    1    1    2  502    0 -0.22501462861E+02 -0.56884721663E+01  0.33704061044E+01  0.23452807727E+02  0.25500000000E-02 0. -1.
<mgrwt>
<rscale>  0 0.46571461E+02</rscale>
<asrwt>0</asrwt>
<pdfrwt beam="2">  1        2 0.33616301E-02 0.46571461E+02</pdfrwt>
<pdfrwt beam="1">  1       -2 0.38177114E-02 0.46571461E+02</pdfrwt>
<totfact> 0.53844369E+05</totfact>
</mgrwt>
</event>
<event>
 4    1  0.4635140E-002  0.4519490E+02  0.7818608E-02  0.1473129E+00
         -2   -1    0    0  501    0 -0.00000000000E+00  0.00000000000E+00  0.42052939340E+02  0.42052939417E+02  0.25500000000E-02 0. -1.
          2   -1    0    0    0  501  0.00000000000E+00 -0.00000000000E+00 -0.12142901981E+02  0.12142902249E+02  0.25500000000E-02 0. -1.
          2    1    1    2    0  502 -0.12612385784E+02 -0.18281308187E+02  0.19952246857E+02  0.29855831346E+02  0.25500000000E-02 0. -1.
         -2    1    1    2  502    0  0.12612385784E+02  0.18281308187E+02  0.99577905018E+01  0.24340010320E+02  0.25500000000E-02 0. -1.
<mgrwt>
<rscale>  0 0.45194899E+02</rscale>
<asrwt>0</asrwt>
<pdfrwt beam="2">  1        2 0.18681388E-02 0.45194899E+02</pdfrwt>
<pdfrwt beam="1">  1       -2 0.64696831E-02 0.45194899E+02</pdfrwt>
<totfact> 0.53401185E+05</totfact>
</mgrwt>
</event>
<event>
 4    1  0.4635140E-002  0.6480567E+02  0.7818608E-02  0.1378704E+00
          2   -1    0    0    0  501  0.00000000000E+00  0.00000000000E+00  0.15567214994E+04  0.15567214994E+04  0.25500000000E-02 0.  1.
         -2   -1    0    0  501    0 -0.00000000000E+00 -0.00000000000E+00 -0.67445596466E+00  0.67446078519E+00  0.25500000000E-02 0.  1.
          2    1    1    2    0  502 -0.31239992371E+02  0.85723687058E+01  0.76067362468E+03  0.76136311042E+03  0.25500000000E-02 0. -1.
         -2    1    1    2  502    0  0.31239992371E+02 -0.85723687058E+01  0.79537341874E+03  0.79603284974E+03  0.25500000000E-02 0. -1.
<mgrwt>
<rscale>  0 0.64805674E+02</rscale>
<asrwt>0</asrwt>
<pdfrwt beam="1">  1        2 0.23949398E+00 0.64805674E+02</pdfrwt>
<pdfrwt beam="2">  1       -2 0.10376354E-03 0.64805674E+02</pdfrwt>
<totfact> 0.56301972E+05</totfact>
</mgrwt>
</event>
<event>
 4    1  0.4635140E-002  0.6419520E+02  0.7818608E-02  0.1381025E+00
         -2   -1    0    0  501    0 -0.00000000000E+00  0.00000000000E+00  0.11977946436E+01  0.11977973580E+01  0.25500000000E-02 0. -1.
          2   -1    0    0    0  501  0.00000000000E+00 -0.00000000000E+00 -0.86012624798E+03  0.86012624799E+03  0.25500000000E-02 0. -1.
          2    1    1    2    0  502  0.31926592904E+02  0.32601444920E+01 -0.43705299552E+03  0.43822968496E+03  0.25500000000E-02 0.  1.
         -2    1    1    2  502    0 -0.31926592904E+02 -0.32601444920E+01 -0.42187545782E+03  0.42309436039E+03  0.25500000000E-02 0.  1.
<mgrwt>
<rscale>  0 0.64195196E+02</rscale>
<asrwt>0</asrwt>
<pdfrwt beam="2">  1        2 0.13232662E+00 0.64195196E+02</pdfrwt>
<pdfrwt beam="1">  1       -2 0.18427700E-03 0.64195196E+02</pdfrwt>
<totfact> 0.61106381E+05</totfact>
</mgrwt>
</event>
<event>
 4    1  0.4635140E-002  0.5699302E+02  0.7818608E-02  0.1410902E+00
         -2   -1    0    0  501    0 -0.00000000000E+00  0.00000000000E+00  0.21321043490E+02  0.21321043642E+02  0.25500000000E-02 0.  1.
          2   -1    0    0    0  501  0.00000000000E+00 -0.00000000000E+00 -0.38086836166E+02  0.38086836251E+02  0.25500000000E-02 0.  1.
          2    1    1    2    0  502  0.27469201618E+02 -0.22574199410E+01 -0.83753253273E+00  0.27574525373E+02  0.25500000000E-02 0.  1.
         -2    1    1    2  502    0 -0.27469201618E+02  0.22574199410E+01 -0.15928260143E+02  0.31833354520E+02  0.25500000000E-02 0.  1.
<mgrwt>
<rscale>  0 0.56993021E+02</rscale>
<asrwt>0</asrwt>
<pdfrwt beam="2">  1        2 0.58595133E-02 0.56993021E+02</pdfrwt>
<pdfrwt beam="1">  1       -2 0.32801606E-02 0.56993021E+02</pdfrwt>
<totfact> 0.34642733E+05</totfact>
</mgrwt>
</event>
<event>
 4    1  0.4635140E-002  0.6315666E+02  0.7818608E-02  0.1385043E+00
         -2   -1    0    0  501    0 -0.00000000000E+00  0.00000000000E+00  0.18445647257E+03  0.18445647258E+03  0.25500000000E-02 0. -1.
          2   -1    0    0    0  501  0.00000000000E+00 -0.00000000000E+00 -0.54061046601E+01  0.54061052615E+01  0.25500000000E-02 0. -1.
          2    1    1    2    0  502 -0.20373352546E+02 -0.20649726111E+01  0.16179035632E+03  0.16308113628E+03  0.25500000000E-02 0. -1.
         -2    1    1    2  502    0  0.20373352546E+02  0.20649726111E+01  0.17260011586E+02  0.26781441565E+02  0.25500000000E-02 0. -1.
<mgrwt>
<rscale>  0 0.63156664E+02</rscale>
<asrwt>0</asrwt>
<pdfrwt beam="2">  1        2 0.83170842E-03 0.63156664E+02</pdfrwt>
<pdfrwt beam="1">  1       -2 0.28377920E-01 0.63156664E+02</pdfrwt>
<totfact> 0.16316940E+05</totfact>
</mgrwt>
</event>
<event>
 4    1  0.4635140E-002  0.9097279E+02  0.7818608E-02  0.1300513E+00
         -2   -1    0    0  501    0 -0.00000000000E+00  0.00000000000E+00  0.42428330539E+01  0.42428338202E+01  0.25500000000E-02 0. -1.
          2   -1    0    0    0  501  0.00000000000E+00 -0.00000000000E+00 -0.48764872848E+03  0.48764872849E+03  0.25500000000E-02 0. -1.
          2    1    1    2    0  502  0.22279616682E+02  0.18373348155E+02 -0.51682516928E+02  0.59203410412E+02  0.25500000000E-02 0. -1.
         -2    1    1    2  502    0 -0.22279616682E+02 -0.18373348155E+02 -0.43172337850E+03  0.43268815189E+03  0.25500000000E-02 0. -1.
<mgrwt>
<rscale>  0 0.90972794E+02</rscale>
<asrwt>0</asrwt>
<pdfrwt beam="2">  1        2 0.75022837E-01 0.90972794E+02</pdfrwt>
<pdfrwt beam="1">  1       -2 0.65274399E-03 0.90972794E+02</pdfrwt>
<totfact> 0.21501160E+05</totfact>
</mgrwt>
</event>
<event>
 4    1  0.4635140E-002  0.7141029E+02  0.7818608E-02  0.1355362E+00
         -2   -1    0    0  501    0 -0.00000000000E+00  0.00000000000E+00  0.80260006897E+03  0.80260006898E+03  0.25500000000E-02 0.  1.
          2   -1    0    0    0  501  0.00000000000E+00 -0.00000000000E+00 -0.15884081537E+01  0.15884102006E+01  0.25500000000E-02 0.  1.
          2    1    1    2    0  502 -0.49359579186E+01  0.23567824527E+02  0.10360905281E+03  0.10637030537E+03  0.25500000000E-02 0. -1.
         -2    1    1    2  502    0  0.49359579186E+01 -0.23567824527E+02  0.69740260801E+03  0.69781817381E+03  0.25500000000E-02 0. -1.
<mgrwt>
<rscale>  0 0.71410288E+02</rscale>
<asrwt>0</asrwt>
<pdfrwt beam="2">  1        2 0.24437106E-03 0.71410288E+02</pdfrwt>
<pdfrwt beam="1">  1       -2 0.12347672E+00 0.71410288E+02</pdfrwt>
<totfact> 0.44545427E+04</totfact>
</mgrwt>
</event>
<event>
 4    1  0.4635140E-002  0.4931459E+02  0.7818608E-02  0.1449074E+00
          2   -1    0    0    0  501  0.00000000000E+00  0.00000000000E+00  0.29648653259E+01  0.29648664225E+01  0.25500000000E-02 0. -1.
         -2   -1    0    0  501    0 -0.00000000000E+00 -0.00000000000E+00 -0.20506232230E+03  0.20506232232E+03  0.25500000000E-02 0. -1.
          2    1    1    2    0  502  0.10195678952E+02 -0.22425198441E+02 -0.96542996496E+02  0.99636296465E+02  0.25500000000E-02 0.  1.
         -2    1    1    2  502    0 -0.10195678952E+02  0.22425198441E+02 -0.10555446048E+03  0.10839089227E+03  0.25500000000E-02 0.  1.
<mgrwt>
<rscale>  0 0.49314594E+02</rscale>
<asrwt>0</asrwt>
<pdfrwt beam="1">  1        2 0.45613337E-03 0.49314594E+02</pdfrwt>
<pdfrwt beam="2">  1       -2 0.31548039E-01 0.49314594E+02</pdfrwt>
<totfact> 0.28864686E+05</totfact>
</mgrwt>
</event>
<event>
 4    1  0.4635140E-002  0.5018420E+02  0.7818608E-02  0.1444351E+00
         -2   -1    0    0  501    0 -0.00000000000E+00  0.00000000000E+00  0.64119431643E+00  0.64119938703E+00  0.25500000000E-02 0.  1.
          2   -1    0    0    0  501  0.00000000000E+00 -0.00000000000E+00 -0.98193464257E+03  0.98193464257E+03  0.25500000000E-02 0.  1.
          2    1    1    2    0  502  0.13507036938E+02  0.16477043011E+02 -0.75016070850E+03  0.75046320468E+03  0.25500000000E-02 0.  1.
         -2    1    1    2  502    0 -0.13507036938E+02 -0.16477043011E+02 -0.23113273976E+03  0.23211263728E+03  0.25500000000E-02 0.  1.
<mgrwt>
<rscale>  0 0.50184197E+02</rscale>
<asrwt>0</asrwt>
<pdfrwt beam="2">  1        2 0.15106567E+00 0.50184197E+02</pdfrwt>
<pdfrwt beam="1">  1       -2 0.98646456E-04 0.50184197E+02</pdfrwt>
<totfact> 0.11462994E+06</totfact>
</mgrwt>
</event>
<event>
 4    1  0.4635140E-002  0.4612098E+02  0.7818608E-02  0.1467463E+00
          2   -1    0    0    0  501  0.00000000000E+00  0.00000000000E+00  0.17588284588E+04  0.17588284588E+04  0.25500000000E-02 0. -1.
         -2   -1    0    0  501    0 -0.00000000000E+00 -0.00000000000E+00 -0.30234708474E+00  0.30235783791E+00  0.25500000000E-02 0. -1.
          2    1    1    2    0  502 -0.21678454407E+02 -0.41189702428E+01  0.62378561628E+03  0.62417578965E+03  0.25500000000E-02 0.  1.
         -2    1    1    2  502    0  0.21678454407E+02  0.41189702428E+01  0.11347404954E+04  0.11349550269E+04  0.25500000000E-02 0.  1.
<mgrwt>
<rscale>  0 0.46120976E+02</rscale>
<asrwt>0</asrwt>
<pdfrwt beam="1">  1        2 0.27059468E+00 0.46120976E+02</pdfrwt>
<pdfrwt beam="2">  1       -2 0.46514786E-04 0.46120976E+02</pdfrwt>
<totfact> 0.12389307E+06</totfact>
</mgrwt>
</event>
<event>
 4    1  0.4635140E-002  0.5226198E+02  0.7818608E-02  0.1433509E+00
          2   -1    0    0    0  501  0.00000000000E+00  0.00000000000E+00  0.14472273769E+04  0.14472273769E+04  0.25500000000E-02 0. -1.
         -2   -1    0    0  501    0 -0.00000000000E+00 -0.00000000000E+00 -0.47181508478E+00  0.47182197567E+00  0.25500000000E-02 0. -1.
          2    1    1    2    0  502  0.87618625003E+01  0.19812683061E+02  0.11281472203E+04  0.11283552026E+04  0.25500000000E-02 0.  1.
         -2    1    1    2  502    0 -0.87618625003E+01 -0.19812683061E+02  0.31860834156E+03  0.31934399629E+03  0.25500000000E-02 0.  1.
<mgrwt>
<rscale>  0 0.52261982E+02</rscale>
<asrwt>0</asrwt>
<pdfrwt beam="1">  1        2 0.22264942E+00 0.52261982E+02</pdfrwt>
<pdfrwt beam="2">  1       -2 0.72587775E-04 0.52261982E+02</pdfrwt>
<totfact> 0.99388807E+05</totfact>
</mgrwt>
</event>
<event>
 4    1  0.4635140E-002  0.1113439E+03  0.7818608E-02  0.1258101E+00
         -2   -1    0    0  501    0 -0.00000000000E+00  0.00000000000E+00  0.42952630284E+02  0.42952630360E+02  0.25500000000E-02 0.  1.
          2   -1    0    0    0  501  0.00000000000E+00 -0.00000000000E+00 -0.72157831480E+02  0.72157831525E+02  0.25500000000E-02 0.  1.
          2    1    1    2    0  502 -0.20111155288E+01  0.22509362157E+02  0.37997318365E+02  0.44209865186E+02  0.25500000000E-02 0.  1.
         -2    1    1    2  502    0  0.20111155288E+01 -0.22509362157E+02 -0.67202519561E+02  0.70900596699E+02  0.25500000000E-02 0.  1.
<mgrwt>
<rscale>  0 0.11134395E+03</rscale>
<asrwt>0</asrwt>
<pdfrwt beam="2">  1        2 0.11101205E-01 0.11134395E+03</pdfrwt>
<pdfrwt beam="1">  1       -2 0.66080970E-02 0.11134395E+03</pdfrwt>
<totfact> 0.63194267E+04</totfact>
</mgrwt>
</event>
<event>
 4    1  0.4635140E-002  0.7561327E+02  0.7818608E-02  0.1341982E+00
          2   -1    0    0    0  501  0.00000000000E+00  0.00000000000E+00  0.76370447426E+02  0.76370447468E+02  0.25500000000E-02 0. -1.
         -2   -1    0    0  501    0 -0.00000000000E+00 -0.00000000000E+00 -0.18715899226E+02  0.18715899400E+02  0.25500000000E-02 0. -1.
          2    1    1    2    0  502  0.12159511685E+02 -0.32997928311E+02  0.11374035387E+02  0.36960596379E+02  0.25500000000E-02 0.  1.
         -2    1    1    2  502    0 -0.12159511685E+02  0.32997928311E+02  0.46280512813E+02  0.58125750489E+02  0.25500000000E-02 0.  1.
<mgrwt>
<rscale>  0 0.75613269E+02</rscale>
<asrwt>0</asrwt>
<pdfrwt beam="1">  1        2 0.11749300E-01 0.75613269E+02</pdfrwt>
<pdfrwt beam="2">  1       -2 0.28793691E-02 0.75613269E+02</pdfrwt>
<totfact> 0.18942371E+05</totfact>
</mgrwt>
</event>
<event>
 4    1  0.4635140E-002  0.4230928E+02  0.7818608E-02  0.1491874E+00
         -2   -1    0    0  501    0 -0.00000000000E+00  0.00000000000E+00  0.16017065520E+02  0.16017065723E+02  0.25500000000E-02 0. -1.
          2   -1    0    0    0  501  0.00000000000E+00 -0.00000000000E+00 -0.27940121911E+02  0.27940122027E+02  0.25500000000E-02 0. -1.
          2    1    1    2    0  502 -0.19183825061E+02  0.75090336363E+01 -0.10956489717E+02  0.23333439600E+02  0.25500000000E-02 0. -1.
         -2    1    1    2  502    0  0.19183825061E+02 -0.75090336363E+01 -0.96656667471E+00  0.20623748151E+02  0.25500000000E-02 0. -1.
<mgrwt>
<rscale>  0 0.42309279E+02</rscale>
<asrwt>0</asrwt>
<pdfrwt beam="2">  1        2 0.42984803E-02 0.42309279E+02</pdfrwt>
<pdfrwt beam="1">  1       -2 0.24641640E-02 0.42309279E+02</pdfrwt>
<totfact> 0.71500121E+05</totfact>
</mgrwt>
</event>
<event>
 4    1  0.4635140E-002  0.5505493E+02  0.7818608E-02  0.1419839E+00
          2   -1    0    0    0  501  0.00000000000E+00  0.00000000000E+00  0.29026396954E+03  0.29026396955E+03  0.25500000000E-02 0.  1.
         -2   -1    0    0  501    0 -0.00000000000E+00 -0.00000000000E+00 -0.26105935819E+01  0.26105948273E+01  0.25500000000E-02 0.  1.
          2    1    1    2    0  502  0.83232206148E+01 -0.25896996524E+02  0.12136340146E+03  0.12437445739E+03  0.25500000000E-02 0. -1.
         -2    1    1    2  502    0 -0.83232206148E+01  0.25896996524E+02  0.16628997450E+03  0.16850010699E+03  0.25500000000E-02 0. -1.
<mgrwt>
<rscale>  0 0.55054934E+02</rscale>
<asrwt>0</asrwt>
<pdfrwt beam="1">  1        2 0.44655982E-01 0.55054934E+02</pdfrwt>
<pdfrwt beam="2">  1       -2 0.40163000E-03 0.55054934E+02</pdfrwt>
<totfact> 0.65697334E+05</totfact>
</mgrwt>
</event>
<event>
 4    1  0.4635140E-002  0.7684923E+02  0.7818608E-02  0.1338238E+00
          2   -1    0    0    0  501  0.00000000000E+00  0.00000000000E+00  0.48279422055E+03  0.48279422056E+03  0.25500000000E-02 0. -1.
         -2   -1    0    0  501    0 -0.00000000000E+00 -0.00000000000E+00 -0.30581365934E+01  0.30581376566E+01  0.25500000000E-02 0. -1.
          2    1    1    2    0  502 -0.33745134486E+01  0.30966501598E+02  0.97635206608E+02  0.10248387745E+03  0.25500000000E-02 0. -1.
         -2    1    1    2  502    0  0.33745134486E+01 -0.30966501598E+02  0.38210087735E+03  0.38336848076E+03  0.25500000000E-02 0. -1.
<mgrwt>
<rscale>  0 0.76849227E+02</rscale>
<asrwt>0</asrwt>
<pdfrwt beam="1">  1        2 0.74276061E-01 0.76849227E+02</pdfrwt>
<pdfrwt beam="2">  1       -2 0.47048247E-03 0.76849227E+02</pdfrwt>
<totfact> 0.33362563E+05</totfact>
</mgrwt>
</event>
<event>
 4    1  0.4635140E-002  0.1182445E+03  0.7818608E-02  0.1246021E+00
         -2   -1    0    0  501    0 -0.00000000000E+00  0.00000000000E+00  0.18923993526E+01  0.18924010707E+01  0.25500000000E-02 0. -1.
          2   -1    0    0    0  501  0.00000000000E+00 -0.00000000000E+00 -0.18470937972E+04  0.18470937973E+04  0.25500000000E-02 0. -1.
          2    1    1    2    0  502 -0.50725081954E+02 -0.56892142844E+01 -0.13891068424E+04  0.13900443233E+04  0.25500000000E-02 0. -1.
         -2    1    1    2  502    0  0.50725081954E+02  0.56892142844E+01 -0.45609455547E+03  0.45894187501E+03  0.25500000000E-02 0. -1.
<mgrwt>
<rscale>  0 0.11824450E+03</rscale>
<asrwt>0</asrwt>
<pdfrwt beam="2">  1        2 0.28416684E+00 0.11824450E+03</pdfrwt>
<pdfrwt beam="1">  1       -2 0.29113997E-03 0.11824450E+03</pdfrwt>
<totfact> 0.10502062E+05</totfact>
</mgrwt>
</event>
<event>
 4    1  0.4635140E-002  0.7268141E+02  0.7818608E-02  0.1351205E+00
         -2   -1    0    0  501    0 -0.00000000000E+00  0.00000000000E+00  0.77023969227E+00  0.77024391335E+00  0.25500000000E-02 0.  1.
          2   -1    0    0    0  501  0.00000000000E+00 -0.00000000000E+00 -0.17145873905E+04  0.17145873905E+04  0.25500000000E-02 0.  1.
          2    1    1    2    0  502 -0.22607596217E+02  0.16753800514E+02 -0.13996576324E+04  0.13999404563E+04  0.25500000000E-02 0.  1.
         -2    1    1    2  502    0  0.22607596217E+02 -0.16753800514E+02 -0.31415951831E+03  0.31541717802E+03  0.25500000000E-02 0.  1.
<mgrwt>
<rscale>  0 0.72681411E+02</rscale>
<asrwt>0</asrwt>
<pdfrwt beam="2">  1        2 0.26377962E+00 0.72681411E+02</pdfrwt>
<pdfrwt beam="1">  1       -2 0.11850011E-03 0.72681411E+02</pdfrwt>
<totfact> 0.39958823E+05</totfact>
</mgrwt>
</event>
<event>
 4    1  0.4635140E-002  0.5321799E+02  0.7818608E-02  0.1428719E+00
          2   -1    0    0    0  501  0.00000000000E+00  0.00000000000E+00  0.95096635809E+02  0.95096635844E+02  0.25500000000E-02 0. -1.
         -2   -1    0    0  501    0 -0.00000000000E+00 -0.00000000000E+00 -0.74454632472E+01  0.74454636839E+01  0.25500000000E-02 0. -1.
          2    1    1    2    0  502  0.22783900648E+02 -0.30418088416E+01  0.69653741327E+02  0.73348499760E+02  0.25500000000E-02 0. -1.
         -2    1    1    2  502    0 -0.22783900648E+02  0.30418088416E+01  0.17997431236E+02  0.29193599767E+02  0.25500000000E-02 0. -1.
<mgrwt>
<rscale>  0 0.53217987E+02</rscale>
<asrwt>0</asrwt>
<pdfrwt beam="1">  1        2 0.14630251E-01 0.53217987E+02</pdfrwt>
<pdfrwt beam="2">  1       -2 0.11454560E-02 0.53217987E+02</pdfrwt>
<totfact> 0.50427135E+05</totfact>
</mgrwt>
</event>
<event>
 4    1  0.4635140E-002  0.4467593E+02  0.7818608E-02  0.1476375E+00
         -2   -1    0    0  501    0 -0.00000000000E+00  0.00000000000E+00  0.61575622371E+01  0.61575627651E+01  0.25500000000E-02 0. -1.
          2   -1    0    0    0  501  0.00000000000E+00 -0.00000000000E+00 -0.81036054431E+02  0.81036054471E+02  0.25500000000E-02 0. -1.
          2    1    1    2    0  502 -0.44341049416E+01 -0.19650671305E+02 -0.18600177128E+02  0.27418547829E+02  0.25500000000E-02 0.  1.
         -2    1    1    2  502    0  0.44341049416E+01  0.19650671305E+02 -0.56278315066E+02  0.59775069406E+02  0.25500000000E-02 0.  1.
<mgrwt>
<rscale>  0 0.44675925E+02</rscale>
<asrwt>0</asrwt>
<pdfrwt beam="2">  1        2 0.12467085E-01 0.44675925E+02</pdfrwt>
<pdfrwt beam="1">  1       -2 0.94731737E-03 0.44675925E+02</pdfrwt>
<totfact> 0.75504184E+05</totfact>
</mgrwt>
</event>
<event>
 4    1  0.4635140E-002  0.4459519E+02  0.7818608E-02  0.1476885E+00
          2   -1    0    0    0  501  0.00000000000E+00  0.00000000000E+00  0.49164116756E+03  0.49164116756E+03  0.25500000000E-02 0. -1.
         -2   -1    0    0  501    0 -0.00000000000E+00 -0.00000000000E+00 -0.10112701441E+01  0.10112733591E+01  0.25500000000E-02 0. -1.
          2    1    1    2    0  502 -0.13718047335E+02 -0.16651769977E+02  0.18309987927E+03  0.18436656981E+03  0.25500000000E-02 0.  1.
         -2    1    1    2  502    0  0.13718047335E+02  0.16651769977E+02  0.30753001814E+03  0.30828587112E+03  0.25500000000E-02 0.  1.
<mgrwt>
<rscale>  0 0.44595194E+02</rscale>
<asrwt>0</asrwt>
<pdfrwt beam="1">  1        2 0.75637037E-01 0.44595194E+02</pdfrwt>
<pdfrwt beam="2">  1       -2 0.15558041E-03 0.44595194E+02</pdfrwt>
<totfact> 0.13235213E+06</totfact>
</mgrwt>
</event>
<event>
 4    1  0.4635140E-002  0.7212569E+02  0.7818608E-02  0.1353010E+00
          2   -1    0    0    0  501  0.00000000000E+00  0.00000000000E+00  0.10173512819E+04  0.10173512819E+04  0.25500000000E-02 0. -1.
         -2   -1    0    0  501    0 -0.00000000000E+00 -0.00000000000E+00 -0.12783464005E+01  0.12783489438E+01  0.25500000000E-02 0. -1.
          2    1    1    2    0  502  0.16591397643E+02 -0.24571059802E+02  0.79799372990E+03  0.79854430336E+03  0.25500000000E-02 0.  1.
         -2    1    1    2  502    0 -0.16591397643E+02  0.24571059802E+02  0.21807920559E+03  0.22008532749E+03  0.25500000000E-02 0.  1.
<mgrwt>
<rscale>  0 0.72125686E+02</rscale>
<asrwt>0</asrwt>
<pdfrwt beam="1">  1        2 0.15651545E+00 0.72125686E+02</pdfrwt>
<pdfrwt beam="2">  1       -2 0.19666904E-03 0.72125686E+02</pdfrwt>
<totfact> 0.46034765E+05</totfact>
</mgrwt>
</event>
<event>
 4    1  0.4635140E-002  0.4409725E+02  0.7818608E-02  0.1480057E+00
          2   -1    0    0    0  501  0.00000000000E+00  0.00000000000E+00  0.43114103195E+03  0.43114103196E+03  0.25500000000E-02 0. -1.
         -2   -1    0    0  501    0 -0.00000000000E+00 -0.00000000000E+00 -0.11275687324E+01  0.11275716158E+01  0.25500000000E-02 0. -1.
          2    1    1    2    0  502  0.17669173186E+02  0.12130373547E+02  0.16426349101E+03  0.16565578810E+03  0.25500000000E-02 0. -1.
         -2    1    1    2  502    0 -0.17669173186E+02 -0.12130373547E+02  0.26574997221E+03  0.26661281548E+03  0.25500000000E-02 0. -1.
<mgrwt>
<rscale>  0 0.44097246E+02</rscale>
<asrwt>0</asrwt>
<pdfrwt beam="1">  1        2 0.66329304E-01 0.44097246E+02</pdfrwt>
<pdfrwt beam="2">  1       -2 0.17347256E-03 0.44097246E+02</pdfrwt>
<totfact> 0.13045764E+06</totfact>
</mgrwt>
</event>
<event>
 4    1  0.4635140E-002  0.5894186E+02  0.7818608E-02  0.1402327E+00
          2   -1    0    0    0  501  0.00000000000E+00  0.00000000000E+00  0.69653245788E+03  0.69653245789E+03  0.25500000000E-02 0. -1.
         -2   -1    0    0  501    0 -0.00000000000E+00 -0.00000000000E+00 -0.12469408627E+01  0.12469434701E+01  0.25500000000E-02 0. -1.
          2    1    1    2    0  502  0.15822268949E+02  0.21569860096E+02  0.49404387577E+03  0.49476757599E+03  0.25500000000E-02 0.  1.
         -2    1    1    2  502    0 -0.15822268949E+02 -0.21569860096E+02  0.20124164125E+03  0.20301182536E+03  0.25500000000E-02 0.  1.
<mgrwt>
<rscale>  0 0.58941859E+02</rscale>
<asrwt>0</asrwt>
<pdfrwt beam="1">  1        2 0.10715857E+00 0.58941859E+02</pdfrwt>
<pdfrwt beam="2">  1       -2 0.19183775E-03 0.58941859E+02</pdfrwt>
<totfact> 0.72937023E+05</totfact>
</mgrwt>
</event>
<event>
 4    1  0.4635140E-002  0.7663039E+02  0.7818608E-02  0.1338895E+00
         -2   -1    0    0  501    0 -0.00000000000E+00  0.00000000000E+00  0.81315573837E+00  0.81315973667E+00  0.25500000000E-02 0.  1.
          2   -1    0    0    0  501  0.00000000000E+00 -0.00000000000E+00 -0.18053743092E+04  0.18053743092E+04  0.25500000000E-02 0.  1.
          2    1    1    2    0  502 -0.32053994459E+02  0.76851021673E+01 -0.13626737107E+04  0.13630723243E+04  0.25500000000E-02 0.  1.
         -2    1    1    2  502    0  0.32053994459E+02 -0.76851021673E+01 -0.44188744274E+03  0.44311514464E+03  0.25500000000E-02 0.  1.
<mgrwt>
<rscale>  0 0.76630388E+02</rscale>
<asrwt>0</asrwt>
<pdfrwt beam="2">  1        2 0.27774669E+00 0.76630388E+02</pdfrwt>
<pdfrwt beam="1">  1       -2 0.12510264E-03 0.76630388E+02</pdfrwt>
<totfact> 0.33709471E+05</totfact>
</mgrwt>
</event>
<event>
 4    1  0.4635140E-002  0.4530658E+02  0.7818608E-02  0.1472437E+00
          2   -1    0    0    0  501  0.00000000000E+00  0.00000000000E+00  0.16847851688E+03  0.16847851690E+03  0.25500000000E-02 0. -1.
         -2   -1    0    0  501    0 -0.00000000000E+00 -0.00000000000E+00 -0.30459159969E+01  0.30459170644E+01  0.25500000000E-02 0. -1.
          2    1    1    2    0  502  0.20247045231E+02  0.55257974830E+01  0.11499489880E+03  0.11689441404E+03  0.25500000000E-02 0.  1.
         -2    1    1    2  502    0 -0.20247045231E+02 -0.55257974830E+01  0.50437702084E+02  0.54630019920E+02  0.25500000000E-02 0.  1.
<mgrwt>
<rscale>  0 0.45306578E+02</rscale>
<asrwt>0</asrwt>
<pdfrwt beam="1">  1        2 0.25919776E-01 0.45306578E+02</pdfrwt>
<pdfrwt beam="2">  1       -2 0.46860248E-03 0.45306578E+02</pdfrwt>
<totfact> 0.89036598E+05</totfact>
</mgrwt>
</event>
<event>
 4    1  0.4635140E-002  0.5287017E+02  0.7818608E-02  0.1430448E+00
         -2   -1    0    0  501    0 -0.00000000000E+00  0.00000000000E+00  0.14119968381E+01  0.14119991407E+01  0.25500000000E-02 0.  1.
          2   -1    0    0    0  501  0.00000000000E+00 -0.00000000000E+00 -0.49491120499E+03  0.49491120499E+03  0.25500000000E-02 0.  1.
          2    1    1    2    0  502 -0.23349532773E+02  0.15625346075E+01 -0.36217164744E+03  0.36292691332E+03  0.25500000000E-02 0.  1.
         -2    1    1    2  502    0  0.23349532773E+02 -0.15625346075E+01 -0.13132756070E+03  0.13339629081E+03  0.25500000000E-02 0.  1.
<mgrwt>
<rscale>  0 0.52870167E+02</rscale>
<asrwt>0</asrwt>
<pdfrwt beam="2">  1        2 0.76140047E-01 0.52870167E+02</pdfrwt>
<pdfrwt beam="1">  1       -2 0.21723086E-03 0.52870167E+02</pdfrwt>
<totfact> 0.87163438E+05</totfact>
</mgrwt>
</event>
<event>
 4    1  0.4635140E-002  0.4253560E+02  0.7818608E-02  0.1490340E+00
          2   -1    0    0    0  501  0.00000000000E+00  0.00000000000E+00  0.42978277220E+01  0.42978284785E+01  0.25500000000E-02 0. -1.
         -2   -1    0    0  501    0 -0.00000000000E+00 -0.00000000000E+00 -0.10524367510E+03  0.10524367513E+03  0.25500000000E-02 0. -1.
          2    1    1    2    0  502  0.18567446363E+02 -0.90826006759E+01 -0.37577038290E+02  0.42886798815E+02  0.25500000000E-02 0.  1.
         -2    1    1    2  502    0 -0.18567446363E+02  0.90826006759E+01 -0.63368809086E+02  0.66654704792E+02  0.25500000000E-02 0.  1.
<mgrwt>
<rscale>  0 0.42535596E+02</rscale>
<asrwt>0</asrwt>
<pdfrwt beam="1">  1        2 0.66120440E-03 0.42535596E+02</pdfrwt>
<pdfrwt beam="2">  1       -2 0.16191333E-01 0.42535596E+02</pdfrwt>
<totfact> 0.51570885E+05</totfact>
</mgrwt>
</event>
<event>
 4    1  0.4635140E-002  0.5267251E+02  0.7818608E-02  0.1431438E+00
          2   -1    0    0    0  501  0.00000000000E+00  0.00000000000E+00  0.81171162839E+03  0.81171162839E+03  0.25500000000E-02 0. -1.
         -2   -1    0    0  501    0 -0.00000000000E+00 -0.00000000000E+00 -0.85448655992E+00  0.85449036483E+00  0.25500000000E-02 0. -1.
          2    1    1    2    0  502 -0.22478217679E+02 -0.11042410788E+02  0.53112884952E+03  0.53171896703E+03  0.25500000000E-02 0. -1.
         -2    1    1    2  502    0  0.22478217679E+02  0.11042410788E+02  0.27972829231E+03  0.28084715172E+03  0.25500000000E-02 0. -1.
<mgrwt>
<rscale>  0 0.52672506E+02</rscale>
<asrwt>0</asrwt>
<pdfrwt beam="1">  1        2 0.12487862E+00 0.52672506E+02</pdfrwt>
<pdfrwt beam="2">  1       -2 0.13145986E-03 0.52672506E+02</pdfrwt>
<totfact> 0.99549551E+05</totfact>
</mgrwt>
</event>
<event>
 4    1  0.4635140E-002  0.4417487E+02  0.7818608E-02  0.1479559E+00
         -2   -1    0    0  501    0 -0.00000000000E+00  0.00000000000E+00  0.12117968825E+01  0.12117995655E+01  0.25500000000E-02 0. -1.
          2   -1    0    0    0  501  0.00000000000E+00 -0.00000000000E+00 -0.40258746132E+03  0.40258746132E+03  0.25500000000E-02 0. -1.
          2    1    1    2    0  502  0.13463011297E+02 -0.17355110979E+02 -0.22193378744E+03  0.22301806780E+03  0.25500000000E-02 0.  1.
         -2    1    1    2  502    0 -0.13463011297E+02  0.17355110979E+02 -0.17944187699E+03  0.18078119309E+03  0.25500000000E-02 0.  1.
<mgrwt>
<rscale>  0 0.44174870E+02</rscale>
<asrwt>0</asrwt>
<pdfrwt beam="2">  1        2 0.61936426E-01 0.44174870E+02</pdfrwt>
<pdfrwt beam="1">  1       -2 0.18643082E-03 0.44174870E+02</pdfrwt>
<totfact> 0.12698986E+06</totfact>
</mgrwt>
</event>
<event>
 4    1  0.4635140E-002  0.1526815E+03  0.7818608E-02  0.1197216E+00
          2   -1    0    0    0  501  0.00000000000E+00  0.00000000000E+00  0.27589063522E+03  0.27589063523E+03  0.25500000000E-02 0. -1.
         -2   -1    0    0  501    0 -0.00000000000E+00 -0.00000000000E+00 -0.21123993271E+02  0.21123993424E+02  0.25500000000E-02 0. -1.
          2    1    1    2    0  502 -0.56560191809E+02  0.42131273505E+02  0.70540896770E+02  0.99750276331E+02  0.25500000000E-02 0.  1.
         -2    1    1    2  502    0  0.56560191809E+02 -0.42131273505E+02  0.18422574518E+03  0.19726435232E+03  0.25500000000E-02 0.  1.
<mgrwt>
<rscale>  0 0.15268152E+03</rscale>
<asrwt>0</asrwt>
<pdfrwt beam="1">  1        2 0.42444709E-01 0.15268152E+03</pdfrwt>
<pdfrwt beam="2">  1       -2 0.32498454E-02 0.15268152E+03</pdfrwt>
<totfact> 0.42027425E+04</totfact>
</mgrwt>
</event>
<event>
 4    1  0.4635140E-002  0.4637958E+02  0.7818608E-02  0.1465908E+00
          2   -1    0    0    0  501  0.00000000000E+00  0.00000000000E+00  0.65483577163E+02  0.65483577213E+02  0.25500000000E-02 0. -1.
         -2   -1    0    0  501    0 -0.00000000000E+00 -0.00000000000E+00 -0.82122324418E+01  0.82122328377E+01  0.25500000000E-02 0. -1.
          2    1    1    2    0  502 -0.21568458283E+02 -0.68064584297E+01  0.36775190656E+02  0.43173382116E+02  0.25500000000E-02 0.  1.
         -2    1    1    2  502    0  0.21568458283E+02  0.68064584297E+01  0.20496154065E+02  0.30522427935E+02  0.25500000000E-02 0.  1.
<mgrwt>
<rscale>  0 0.46379581E+02</rscale>
<asrwt>0</asrwt>
<pdfrwt beam="1">  1        2 0.10074396E-01 0.46379581E+02</pdfrwt>
<pdfrwt beam="2">  1       -2 0.12634204E-02 0.46379581E+02</pdfrwt>
<totfact> 0.65568030E+05</totfact>
</mgrwt>
</event>
<event>
 4    1  0.4635140E-002  0.9625498E+02  0.7818608E-02  0.1288374E+00
          2   -1    0    0    0  501  0.00000000000E+00  0.00000000000E+00  0.10364541458E+04  0.10364541458E+04  0.25500000000E-02 0.  1.
         -2   -1    0    0  501    0 -0.00000000000E+00 -0.00000000000E+00 -0.22347874507E+01  0.22347889055E+01  0.25500000000E-02 0.  1.
          2    1    1    2    0  502 -0.39127609176E+01 -0.26011570079E+02  0.95202157152E+03  0.95238489285E+03  0.25500000000E-02 0. -1.
         -2    1    1    2  502    0  0.39127609176E+01  0.26011570079E+02  0.82197786867E+02  0.86304041900E+02  0.25500000000E-02 0. -1.
<mgrwt>
<rscale>  0 0.96254984E+02</rscale>
<asrwt>0</asrwt>
<pdfrwt beam="1">  1        2 0.15945475E+00 0.96254984E+02</pdfrwt>
<pdfrwt beam="2">  1       -2 0.34381299E-03 0.96254984E+02</pdfrwt>
<totfact> 0.21691847E+05</totfact>
</mgrwt>
</event>
<event>
 4    1  0.4635140E-002  0.1434413E+03  0.7818608E-02  0.1208772E+00
         -2   -1    0    0  501    0 -0.00000000000E+00  0.00000000000E+00  0.22746703812E+02  0.22746703955E+02  0.25500000000E-02 0.  1.
          2   -1    0    0    0  501  0.00000000000E+00 -0.00000000000E+00 -0.22613611540E+03  0.22613611541E+03  0.25500000000E-02 0.  1.
          2    1    1    2    0  502 -0.63409274922E+02 -0.23760561544E+02 -0.60688265712E+02  0.90930556100E+02  0.25500000000E-02 0. -1.
         -2    1    1    2  502    0  0.63409274922E+02  0.23760561544E+02 -0.14270114587E+03  0.15795226326E+03  0.25500000000E-02 0. -1.
<mgrwt>
<rscale>  0 0.14344129E+03</rscale>
<asrwt>0</asrwt>
<pdfrwt beam="2">  1        2 0.34790170E-01 0.14344129E+03</pdfrwt>
<pdfrwt beam="1">  1       -2 0.34994931E-02 0.14344129E+03</pdfrwt>
<totfact> 0.46265769E+04</totfact>
</mgrwt>
</event>
<event>
 4    1  0.4635140E-002  0.2040061E+03  0.7818608E-02  0.1146402E+00
         -2   -1    0    0  501    0 -0.00000000000E+00  0.00000000000E+00  0.36543626011E+01  0.36543634908E+01  0.25500000000E-02 0.  1.
          2   -1    0    0    0  501  0.00000000000E+00 -0.00000000000E+00 -0.28471776662E+04  0.28471776662E+04  0.25500000000E-02 0.  1.
          2    1    1    2    0  502 -0.81233621048E+02  0.33536151242E+02 -0.21453318224E+04  0.21471311564E+04  0.25500000000E-02 0. -1.
         -2    1    1    2  502    0  0.81233621048E+02 -0.33536151242E+02 -0.69819148116E+03  0.70370087324E+03  0.25500000000E-02 0. -1.
<mgrwt>
<rscale>  0 0.20400609E+03</rscale>
<asrwt>0</asrwt>
<pdfrwt beam="2">  1        2 0.43802556E+00 0.20400609E+03</pdfrwt>
<pdfrwt beam="1">  1       -2 0.56221197E-03 0.20400609E+03</pdfrwt>
<totfact> 0.12524748E+04</totfact>
</mgrwt>
</event>
<event>
 4    1  0.4635140E-002  0.7888242E+02  0.7818608E-02  0.1332253E+00
         -2   -1    0    0  501    0 -0.00000000000E+00  0.00000000000E+00  0.21671237389E+02  0.21671237539E+02  0.25500000000E-02 0. -1.
          2   -1    0    0    0  501  0.00000000000E+00 -0.00000000000E+00 -0.71782195721E+02  0.71782195766E+02  0.25500000000E-02 0. -1.
          2    1    1    2    0  502  0.24651449547E+02  0.59418891362E+01  0.10734167655E+02  0.27535837975E+02  0.25500000000E-02 0. -1.
         -2    1    1    2  502    0 -0.24651449547E+02 -0.59418891362E+01 -0.60845125987E+02  0.65917595330E+02  0.25500000000E-02 0. -1.
<mgrwt>
<rscale>  0 0.78882419E+02</rscale>
<asrwt>0</asrwt>
<pdfrwt beam="2">  1        2 0.11043415E-01 0.78882419E+02</pdfrwt>
<pdfrwt beam="1">  1       -2 0.33340366E-02 0.78882419E+02</pdfrwt>
<totfact> 0.16613470E+05</totfact>
</mgrwt>
</event>
<event>
 4    1  0.4635140E-002  0.4775470E+02  0.7818608E-02  0.1457843E+00
          2   -1    0    0    0  501  0.00000000000E+00  0.00000000000E+00  0.35289174133E+03  0.35289174134E+03  0.25500000000E-02 0.  1.
         -2   -1    0    0  501    0 -0.00000000000E+00 -0.00000000000E+00 -0.16155873055E+01  0.16155893179E+01  0.25500000000E-02 0.  1.
          2    1    1    2    0  502  0.23506324260E+02  0.24540301317E+01  0.15040009061E+03  0.15224571195E+03  0.25500000000E-02 0. -1.
         -2    1    1    2  502    0 -0.23506324260E+02 -0.24540301317E+01  0.20087606341E+03  0.20226161871E+03  0.25500000000E-02 0. -1.
<mgrwt>
<rscale>  0 0.47754697E+02</rscale>
<asrwt>0</asrwt>
<pdfrwt beam="1">  1        2 0.54291103E-01 0.47754697E+02</pdfrwt>
<pdfrwt beam="2">  1       -2 0.24855175E-03 0.47754697E+02</pdfrwt>
<totfact> 0.10028744E+06</totfact>
</mgrwt>
</event>
<event>
 4    1  0.4635140E-002  0.4495374E+02  0.7818608E-02  0.1474631E+00
         -2   -1    0    0  501    0 -0.00000000000E+00  0.00000000000E+00  0.69421031314E+03  0.69421031315E+03  0.25500000000E-02 0. -1.
          2   -1    0    0    0  501  0.00000000000E+00 -0.00000000000E+00 -0.72774501944E+00  0.72774948699E+00  0.25500000000E-02 0. -1.
          2    1    1    2    0  502 -0.18662571365E+02 -0.12423294149E+02  0.32191129735E+03  0.32269104911E+03  0.25500000000E-02 0.  1.
         -2    1    1    2  502    0  0.18662571365E+02  0.12423294149E+02  0.37157127077E+03  0.37224701352E+03  0.25500000000E-02 0.  1.
<mgrwt>
<rscale>  0 0.44953739E+02</rscale>
<asrwt>0</asrwt>
<pdfrwt beam="2">  1        2 0.11196127E-03 0.44953739E+02</pdfrwt>
<pdfrwt beam="1">  1       -2 0.10680144E+00 0.44953739E+02</pdfrwt>
<totfact> 0.16212897E+05</totfact>
</mgrwt>
</event>
<event>
 4    1  0.4635140E-002  0.7043598E+02  0.7818608E-02  0.1358617E+00
          2   -1    0    0    0  501  0.00000000000E+00  0.00000000000E+00  0.44426727609E+03  0.44426727610E+03  0.25500000000E-02 0.  1.
         -2   -1    0    0  501    0 -0.00000000000E+00 -0.00000000000E+00 -0.27918028024E+01  0.27918039670E+01  0.25500000000E-02 0.  1.
          2    1    1    2    0  502 -0.31654992983E+02  0.14252763008E+02  0.18312012903E+03  0.18638176278E+03  0.25500000000E-02 0.  1.
         -2    1    1    2  502    0  0.31654992983E+02 -0.14252763008E+02  0.25835534426E+03  0.26067731729E+03  0.25500000000E-02 0.  1.
<mgrwt>
<rscale>  0 0.70435982E+02</rscale>
<asrwt>0</asrwt>
<pdfrwt beam="1">  1        2 0.68348837E-01 0.70435982E+02</pdfrwt>
<pdfrwt beam="2">  1       -2 0.42950806E-03 0.70435982E+02</pdfrwt>
<totfact> 0.40669229E+05</totfact>
</mgrwt>
</event>
<event>
 4    1  0.4635140E-002  0.4041466E+02  0.7818608E-02  0.1505182E+00
          2   -1    0    0    0  501  0.00000000000E+00  0.00000000000E+00  0.26418904705E+02  0.26418904828E+02  0.25500000000E-02 0. -1.
         -2   -1    0    0  501    0 -0.00000000000E+00 -0.00000000000E+00 -0.15456210013E+02  0.15456210223E+02  0.25500000000E-02 0. -1.
          2    1    1    2    0  502 -0.22225668738E+01 -0.20083034934E+02  0.57516266499E+01  0.21008315289E+02  0.25500000000E-02 0. -1.
         -2    1    1    2  502    0  0.22225668738E+01  0.20083034934E+02  0.52110680418E+01  0.20866799762E+02  0.25500000000E-02 0. -1.
<mgrwt>
<rscale>  0 0.40414658E+02</rscale>
<asrwt>0</asrwt>
<pdfrwt beam="1">  1        2 0.40644469E-02 0.40414658E+02</pdfrwt>
<pdfrwt beam="2">  1       -2 0.23778785E-02 0.40414658E+02</pdfrwt>
<totfact> 0.79694803E+05</totfact>
</mgrwt>
</event>
<event>
 4    1  0.4635140E-002  0.4420075E+02  0.7818608E-02  0.1479394E+00
          2   -1    0    0    0  501  0.00000000000E+00  0.00000000000E+00  0.94898272996E+02  0.94898273030E+02  0.25500000000E-02 0. -1.
         -2   -1    0    0  501    0 -0.00000000000E+00 -0.00000000000E+00 -0.51468432156E+01  0.51468438473E+01  0.25500000000E-02 0. -1.
          2    1    1    2    0  502 -0.65264964773E+00  0.20653564918E+02  0.62615958248E+02  0.65937500174E+02  0.25500000000E-02 0.  1.
         -2    1    1    2  502    0  0.65264964773E+00 -0.20653564918E+02  0.27135471532E+02  0.34107616703E+02  0.25500000000E-02 0.  1.
<mgrwt>
<rscale>  0 0.44200750E+02</rscale>
<asrwt>0</asrwt>
<pdfrwt beam="1">  1        2 0.14599734E-01 0.44200750E+02</pdfrwt>
<pdfrwt beam="2">  1       -2 0.79182209E-03 0.44200750E+02</pdfrwt>
<totfact> 0.80541279E+05</totfact>
</mgrwt>
</event>
<event>
 4    1  0.4635140E-002  0.4518711E+02  0.7818608E-02  0.1473177E+00
          2   -1    0    0    0  501  0.00000000000E+00  0.00000000000E+00  0.90011325719E+02  0.90011325755E+02  0.25500000000E-02 0. -1.
         -2   -1    0    0  501    0 -0.00000000000E+00 -0.00000000000E+00 -0.56711606585E+01  0.56711612318E+01  0.25500000000E-02 0. -1.
          2    1    1    2    0  502  0.47605301484E+00 -0.22515139094E+02  0.46022834497E+02  0.51237285413E+02  0.25500000000E-02 0. -1.
         -2    1    1    2  502    0 -0.47605301484E+00  0.22515139094E+02  0.38317330564E+02  0.44445201574E+02  0.25500000000E-02 0. -1.
<mgrwt>
<rscale>  0 0.45187110E+02</rscale>
<asrwt>0</asrwt>
<pdfrwt beam="1">  1        2 0.13847895E-01 0.45187110E+02</pdfrwt>
<pdfrwt beam="2">  1       -2 0.87248638E-03 0.45187110E+02</pdfrwt>
<totfact> 0.75233007E+05</totfact>
</mgrwt>
</event>
<event>
 4    1  0.4635140E-002  0.4647826E+02  0.7818608E-02  0.1465319E+00
         -2   -1    0    0  501    0 -0.00000000000E+00  0.00000000000E+00  0.33587517966E+00  0.33588485945E+00  0.25500000000E-02 0. -1.
          2   -1    0    0    0  501  0.00000000000E+00 -0.00000000000E+00 -0.16078874567E+04  0.16078874567E+04  0.25500000000E-02 0. -1.
          2    1    1    2    0  502 -0.21615021556E+02 -0.85328607988E+01 -0.79699556107E+03  0.79733427321E+03  0.25500000000E-02 0. -1.
         -2    1    1    2  502    0  0.21615021556E+02  0.85328607988E+01 -0.81055602050E+03  0.81088906840E+03  0.25500000000E-02 0. -1.
<mgrwt>
<rscale>  0 0.46478265E+02</rscale>
<asrwt>0</asrwt>
<pdfrwt beam="2">  1        2 0.24736114E+00 0.46478265E+02</pdfrwt>
<pdfrwt beam="1">  1       -2 0.51675137E-04 0.46478265E+02</pdfrwt>
<totfact> 0.12757325E+06</totfact>
</mgrwt>
</event>
<event>
 4    1  0.4635140E-002  0.6526654E+02  0.7818608E-02  0.1376972E+00
          2   -1    0    0    0  501  0.00000000000E+00  0.00000000000E+00  0.13046987910E+04  0.13046987910E+04  0.25500000000E-02 0. -1.
         -2   -1    0    0  501    0 -0.00000000000E+00 -0.00000000000E+00 -0.81622501585E+00  0.81622899912E+00  0.25500000000E-02 0. -1.
          2    1    1    2    0  502  0.20340874030E+02  0.25464171364E+02  0.61873896641E+03  0.61959671056E+03  0.25500000000E-02 0.  1.
         -2    1    1    2  502    0 -0.20340874030E+02 -0.25464171364E+02  0.68514359955E+03  0.68591830942E+03  0.25500000000E-02 0.  1.
<mgrwt>
<rscale>  0 0.65266543E+02</rscale>
<asrwt>0</asrwt>
<pdfrwt beam="1">  1        2 0.20072284E+00 0.65266543E+02</pdfrwt>
<pdfrwt beam="2">  1       -2 0.12557342E-03 0.65266543E+02</pdfrwt>
<totfact> 0.58346422E+05</totfact>
</mgrwt>
</event>
<event>
 4    1  0.4635140E-002  0.4282990E+02  0.7818608E-02  0.1488362E+00
          2   -1    0    0    0  501  0.00000000000E+00  0.00000000000E+00  0.90601350685E+03  0.90601350685E+03  0.25500000000E-02 0.  1.
         -2   -1    0    0  501    0 -0.00000000000E+00 -0.00000000000E+00 -0.50617041802E+00  0.50617684121E+00  0.25500000000E-02 0.  1.
          2    1    1    2    0  502  0.20223802396E+02 -0.48089347325E+01  0.34385454357E+03  0.34448232927E+03  0.25500000000E-02 0.  1.
         -2    1    1    2  502    0 -0.20223802396E+02  0.48089347325E+01  0.56165279286E+03  0.56203735442E+03  0.25500000000E-02 0.  1.
<mgrwt>
<rscale>  0 0.42829903E+02</rscale>
<asrwt>0</asrwt>
<pdfrwt beam="1">  1        2 0.13938604E+00 0.42829903E+02</pdfrwt>
<pdfrwt beam="2">  1       -2 0.77873234E-04 0.42829903E+02</pdfrwt>
<totfact> 0.16777950E+06</totfact>
</mgrwt>
</event>
<event>
 4    1  0.4635140E-002  0.5658038E+02  0.7818608E-02  0.1412770E+00
         -2   -1    0    0  501    0 -0.00000000000E+00  0.00000000000E+00  0.44778761670E+01  0.44778768930E+01  0.25500000000E-02 0.  1.
          2   -1    0    0    0  501  0.00000000000E+00 -0.00000000000E+00 -0.17873089327E+03  0.17873089329E+03  0.25500000000E-02 0.  1.
          2    1    1    2    0  502 -0.92631157058E+01  0.26263997547E+02 -0.71023392717E+02  0.76288434243E+02  0.25500000000E-02 0. -1.
         -2    1    1    2  502    0  0.92631157058E+01 -0.26263997547E+02 -0.10322962439E+03  0.10692033594E+03  0.25500000000E-02 0. -1.
<mgrwt>
<rscale>  0 0.56580381E+02</rscale>
<asrwt>0</asrwt>
<pdfrwt beam="2">  1        2 0.27497055E-01 0.56580381E+02</pdfrwt>
<pdfrwt beam="1">  1       -2 0.68890422E-03 0.56580381E+02</pdfrwt>
<totfact> 0.51911223E+05</totfact>
</mgrwt>
</event>
<event>
 4    1  0.4635140E-002  0.6866789E+02  0.7818608E-02  0.1364682E+00
          2   -1    0    0    0  501  0.00000000000E+00  0.00000000000E+00  0.58906544349E+03  0.58906544350E+03  0.25500000000E-02 0.  1.
         -2   -1    0    0  501    0 -0.00000000000E+00 -0.00000000000E+00 -0.20011687929E+01  0.20011704176E+01  0.25500000000E-02 0.  1.
          2    1    1    2    0  502 -0.21532850514E+02  0.13637712437E+01  0.63643393695E+02  0.67201228343E+02  0.25500000000E-02 0. -1.
         -2    1    1    2  502    0  0.21532850514E+02 -0.13637712437E+01  0.52342088100E+03  0.52386538557E+03  0.25500000000E-02 0. -1.
<mgrwt>
<rscale>  0 0.68667892E+02</rscale>
<asrwt>0</asrwt>
<pdfrwt beam="1">  1        2 0.90625560E-01 0.68667892E+02</pdfrwt>
<pdfrwt beam="2">  1       -2 0.30787188E-03 0.68667892E+02</pdfrwt>
<totfact> 0.47407586E+05</totfact>
</mgrwt>
</event>
<event>
 4    1  0.4635140E-002  0.1004956E+03  0.7818608E-02  0.1279257E+00
         -2   -1    0    0  501    0 -0.00000000000E+00  0.00000000000E+00  0.75460414727E+01  0.75460419036E+01  0.25500000000E-02 0.  1.
          2   -1    0    0    0  501  0.00000000000E+00 -0.00000000000E+00 -0.33459123802E+03  0.33459123803E+03  0.25500000000E-02 0.  1.
          2    1    1    2    0  502 -0.18638294183E+02  0.37780210363E+02 -0.25676549218E+03  0.26019847864E+03  0.25500000000E-02 0. -1.
         -2    1    1    2  502    0  0.18638294183E+02 -0.37780210363E+02 -0.70279704369E+02  0.81938801296E+02  0.25500000000E-02 0. -1.
<mgrwt>
<rscale>  0 0.10049556E+03</rscale>
<asrwt>0</asrwt>
<pdfrwt beam="2">  1        2 0.51475564E-01 0.10049556E+03</pdfrwt>
<pdfrwt beam="1">  1       -2 0.11609297E-02 0.10049556E+03</pdfrwt>
<totfact> 0.14415810E+05</totfact>
</mgrwt>
</event>
<event>
 4    1  0.4635140E-002  0.5606540E+02  0.7818608E-02  0.1415127E+00
          2   -1    0    0    0  501  0.00000000000E+00  0.00000000000E+00  0.24850017724E+03  0.24850017725E+03  0.25500000000E-02 0.  1.
         -2   -1    0    0  501    0 -0.00000000000E+00 -0.00000000000E+00 -0.31623004615E+01  0.31623014896E+01  0.25500000000E-02 0.  1.
          2    1    1    2    0  502  0.13463495351E+01  0.26576290391E+02  0.83096641146E+02  0.87253444885E+02  0.25500000000E-02 0.  1.
         -2    1    1    2  502    0 -0.13463495351E+01 -0.26576290391E+02  0.16224123563E+03  0.16440903385E+03  0.25500000000E-02 0.  1.
<mgrwt>
<rscale>  0 0.56065403E+02</rscale>
<asrwt>0</asrwt>
<pdfrwt beam="1">  1        2 0.38230794E-01 0.56065403E+02</pdfrwt>
<pdfrwt beam="2">  1       -2 0.48650788E-03 0.56065403E+02</pdfrwt>
<totfact> 0.59416889E+05</totfact>
</mgrwt>
</event>
<event>
 4    1  0.4635140E-002  0.6739482E+02  0.7818608E-02  0.1369183E+00
         -2   -1    0    0  501    0 -0.00000000000E+00  0.00000000000E+00  0.95412333355E+01  0.95412336762E+01  0.25500000000E-02 0. -1.
          2   -1    0    0    0  501  0.00000000000E+00 -0.00000000000E+00 -0.11901140295E+03  0.11901140298E+03  0.25500000000E-02 0. -1.
          2    1    1    2    0  502 -0.27441932778E+02 -0.15361260894E+02 -0.31648758379E+02  0.44616946605E+02  0.25500000000E-02 0. -1.
         -2    1    1    2  502    0  0.27441932778E+02  0.15361260894E+02 -0.77821411234E+02  0.83935690048E+02  0.25500000000E-02 0. -1.
<mgrwt>
<rscale>  0 0.67394824E+02</rscale>
<asrwt>0</asrwt>
<pdfrwt beam="2">  1        2 0.18309446E-01 0.67394824E+02</pdfrwt>
<pdfrwt beam="1">  1       -2 0.14678822E-02 0.67394824E+02</pdfrwt>
<totfact> 0.29098156E+05</totfact>
</mgrwt>
</event>
<event>
 4    1  0.4635140E-002  0.5909768E+02  0.7818608E-02  0.1401658E+00
          2   -1    0    0    0  501  0.00000000000E+00  0.00000000000E+00  0.10708079520E+04  0.10708079520E+04  0.25500000000E-02 0.  1.
         -2   -1    0    0  501    0 -0.00000000000E+00 -0.00000000000E+00 -0.81539531162E+00  0.81539929894E+00  0.25500000000E-02 0.  1.
          2    1    1    2    0  502 -0.20930332274E+02 -0.20389403015E+02  0.45527800053E+03  0.45621471298E+03  0.25500000000E-02 0.  1.
         -2    1    1    2  502    0  0.20930332274E+02  0.20389403015E+02  0.61471455614E+03  0.61540863831E+03  0.25500000000E-02 0.  1.
<mgrwt>
<rscale>  0 0.59097679E+02</rscale>
<asrwt>0</asrwt>
<pdfrwt beam="1">  1        2 0.16473907E+00 0.59097679E+02</pdfrwt>
<pdfrwt beam="2">  1       -2 0.12544621E-03 0.59097679E+02</pdfrwt>
<totfact> 0.76438013E+05</totfact>
</mgrwt>
</event>
<event>
 4    1  0.4635140E-002  0.4500192E+02  0.7818608E-02  0.1474330E+00
          2   -1    0    0    0  501  0.00000000000E+00  0.00000000000E+00  0.57276292924E+01  0.57276298601E+01  0.25500000000E-02 0.  1.
         -2   -1    0    0  501    0 -0.00000000000E+00 -0.00000000000E+00 -0.88394885112E+02  0.88394885149E+02  0.25500000000E-02 0.  1.
          2    1    1    2    0  502 -0.17179208131E+02  0.11207798526E+02 -0.60679159368E+02  0.64052324922E+02  0.25500000000E-02 0. -1.
         -2    1    1    2  502    0  0.17179208131E+02 -0.11207798526E+02 -0.21988096452E+02  0.30070190087E+02  0.25500000000E-02 0. -1.
<mgrwt>
<rscale>  0 0.45001918E+02</rscale>
<asrwt>0</asrwt>
<pdfrwt beam="1">  1        2 0.88117385E-03 0.45001918E+02</pdfrwt>
<pdfrwt beam="2">  1       -2 0.13599212E-01 0.45001918E+02</pdfrwt>
<totfact> 0.46955093E+05</totfact>
</mgrwt>
</event>
<event>
 4    1  0.4635140E-002  0.8263078E+02  0.7818608E-02  0.1321747E+00
          2   -1    0    0    0  501  0.00000000000E+00  0.00000000000E+00  0.44556660853E+03  0.44556660854E+03  0.25500000000E-02 0.  1.
         -2   -1    0    0  501    0 -0.00000000000E+00 -0.00000000000E+00 -0.38309900647E+01  0.38309909134E+01  0.25500000000E-02 0.  1.
          2    1    1    2    0  502  0.27808379306E+02 -0.30015224850E+02  0.18974778930E+03  0.19410935895E+03  0.25500000000E-02 0.  1.
         -2    1    1    2  502    0 -0.27808379306E+02  0.30015224850E+02  0.25198782917E+03  0.25528824050E+03  0.25500000000E-02 0.  1.
<mgrwt>
<rscale>  0 0.82630780E+02</rscale>
<asrwt>0</asrwt>
<pdfrwt beam="1">  1        2 0.68548705E-01 0.82630780E+02</pdfrwt>
<pdfrwt beam="2">  1       -2 0.58938319E-03 0.82630780E+02</pdfrwt>
<totfact> 0.26874990E+05</totfact>
</mgrwt>
</event>
<event>
 4    1  0.4635140E-002  0.5105868E+02  0.7818608E-02  0.1439714E+00
          2   -1    0    0    0  501  0.00000000000E+00  0.00000000000E+00  0.41297726422E+03  0.41297726423E+03  0.25500000000E-02 0. -1.
         -2   -1    0    0  501    0 -0.00000000000E+00 -0.00000000000E+00 -0.15781660715E+01  0.15781681316E+01  0.25500000000E-02 0. -1.
          2    1    1    2    0  502 -0.23516923594E+02 -0.95955594934E+01  0.18479885195E+03  0.18653615239E+03  0.25500000000E-02 0.  1.
         -2    1    1    2  502    0  0.23516923594E+02  0.95955594934E+01  0.22660024619E+03  0.22801927997E+03  0.25500000000E-02 0.  1.
<mgrwt>
<rscale>  0 0.51058677E+02</rscale>
<asrwt>0</asrwt>
<pdfrwt beam="1">  1        2 0.63534903E-01 0.51058677E+02</pdfrwt>
<pdfrwt beam="2">  1       -2 0.24279517E-03 0.51058677E+02</pdfrwt>
<totfact> 0.89638177E+05</totfact>
</mgrwt>
</event>
<event>
 4    1  0.4635140E-002  0.5045522E+02  0.7818608E-02  0.1442902E+00
          2   -1    0    0    0  501  0.00000000000E+00  0.00000000000E+00  0.22228251947E+03  0.22228251948E+03  0.25500000000E-02 0.  1.
         -2   -1    0    0  501    0 -0.00000000000E+00 -0.00000000000E+00 -0.28631674421E+01  0.28631685777E+01  0.25500000000E-02 0.  1.
          2    1    1    2    0  502  0.11512438321E+02 -0.16776263194E+02  0.17626405765E+03  0.17743448725E+03  0.25500000000E-02 0.  1.
         -2    1    1    2  502    0 -0.11512438321E+02  0.16776263194E+02  0.43155294380E+02  0.47711200806E+02  0.25500000000E-02 0.  1.
<mgrwt>
<rscale>  0 0.50455216E+02</rscale>
<asrwt>0</asrwt>
<pdfrwt beam="1">  1        2 0.34197301E-01 0.50455216E+02</pdfrwt>
<pdfrwt beam="2">  1       -2 0.44048751E-03 0.50455216E+02</pdfrwt>
<totfact> 0.74564425E+05</totfact>
</mgrwt>
</event>
<event>
 4    1  0.4635140E-002  0.5631650E+02  0.7818608E-02  0.1413974E+00
          2   -1    0    0    0  501  0.00000000000E+00  0.00000000000E+00  0.15204044735E+03  0.15204044737E+03  0.25500000000E-02 0. -1.
         -2   -1    0    0  501    0 -0.00000000000E+00 -0.00000000000E+00 -0.52149749387E+01  0.52149755621E+01  0.25500000000E-02 0. -1.
          2    1    1    2    0  502 -0.26572235960E+02 -0.83707144892E+01  0.61989810002E+02  0.67962409725E+02  0.25500000000E-02 0.  1.
         -2    1    1    2  502    0  0.26572235960E+02  0.83707144892E+01  0.84835662407E+02  0.89293013206E+02  0.25500000000E-02 0.  1.
<mgrwt>
<rscale>  0 0.56316505E+02</rscale>
<asrwt>0</asrwt>
<pdfrwt beam="1">  1        2 0.23390839E-01 0.56316505E+02</pdfrwt>
<pdfrwt beam="2">  1       -2 0.80230387E-03 0.56316505E+02</pdfrwt>
<totfact> 0.49887756E+05</totfact>
</mgrwt>
</event>
<event>
 4    1  0.4635140E-002  0.4865535E+02  0.7818608E-02  0.1452732E+00
          2   -1    0    0    0  501  0.00000000000E+00  0.00000000000E+00  0.96291451166E+01  0.96291454543E+01  0.25500000000E-02 0.  1.
         -2   -1    0    0  501    0 -0.00000000000E+00 -0.00000000000E+00 -0.61462965836E+02  0.61462965889E+02  0.25500000000E-02 0.  1.
          2    1    1    2    0  502  0.19940164894E+02  0.10595440631E+02 -0.12688799615E+02  0.25901335493E+02  0.25500000000E-02 0.  1.
         -2    1    1    2  502    0 -0.19940164894E+02 -0.10595440631E+02 -0.39145021105E+02  0.45190775851E+02  0.25500000000E-02 0.  1.
<mgrwt>
<rscale>  0 0.48655352E+02</rscale>
<asrwt>0</asrwt>
<pdfrwt beam="1">  1        2 0.14814070E-02 0.48655352E+02</pdfrwt>
<pdfrwt beam="2">  1       -2 0.94558407E-02 0.48655352E+02</pdfrwt>
<totfact> 0.41931787E+05</totfact>
</mgrwt>
</event>
<event>
 4    1  0.4635140E-002  0.4785765E+02  0.7818608E-02  0.1457252E+00
          2   -1    0    0    0  501  0.00000000000E+00  0.00000000000E+00  0.85054752115E+03  0.85054752116E+03  0.25500000000E-02 0. -1.
         -2   -1    0    0  501    0 -0.00000000000E+00 -0.00000000000E+00 -0.67319772607E+00  0.67320255561E+00  0.25500000000E-02 0. -1.
          2    1    1    2    0  502  0.14341934668E+02  0.19142146087E+02  0.41266754948E+03  0.41336015682E+03  0.25500000000E-02 0. -1.
         -2    1    1    2  502    0 -0.14341934668E+02 -0.19142146087E+02  0.43720677395E+03  0.43786056689E+03  0.25500000000E-02 0. -1.
<mgrwt>
<rscale>  0 0.47857652E+02</rscale>
<asrwt>0</asrwt>
<pdfrwt beam="1">  1        2 0.13085377E+00 0.47857652E+02</pdfrwt>
<pdfrwt beam="2">  1       -2 0.10356901E-03 0.47857652E+02</pdfrwt>
<totfact> 0.12701992E+06</totfact>
</mgrwt>
</event>
<event>
 4    1  0.4635140E-002  0.7695970E+02  0.7818608E-02  0.1337908E+00
          2   -1    0    0    0  501  0.00000000000E+00  0.00000000000E+00  0.12180771933E+03  0.12180771936E+03  0.25500000000E-02 0.  1.
         -2   -1    0    0  501    0 -0.00000000000E+00 -0.00000000000E+00 -0.12156033787E+02  0.12156034055E+02  0.25500000000E-02 0.  1.
          2    1    1    2    0  502 -0.31994654453E+02  0.14165108225E+02  0.26953404056E+02  0.44167795975E+02  0.25500000000E-02 0.  1.
         -2    1    1    2  502    0  0.31994654453E+02 -0.14165108225E+02  0.82698281491E+02  0.89795957441E+02  0.25500000000E-02 0.  1.
<mgrwt>
<rscale>  0 0.76959698E+02</rscale>
<asrwt>0</asrwt>
<pdfrwt beam="1">  1        2 0.18739650E-01 0.76959698E+02</pdfrwt>
<pdfrwt beam="2">  1       -2 0.18701590E-02 0.76959698E+02</pdfrwt>
<totfact> 0.20624316E+05</totfact>
</mgrwt>
</event>
<event>
 4    1  0.4635140E-002  0.4870087E+02  0.7818608E-02  0.1452477E+00
         -2   -1    0    0  501    0 -0.00000000000E+00  0.00000000000E+00  0.56987873600E+00  0.56988444114E+00  0.25500000000E-02 0. -1.
          2   -1    0    0    0  501  0.00000000000E+00 -0.00000000000E+00 -0.10404680649E+04  0.10404680649E+04  0.25500000000E-02 0. -1.
          2    1    1    2    0  502 -0.13401723658E+02  0.19536012171E+02 -0.64026791657E+03  0.64070606908E+03  0.25500000000E-02 0. -1.
         -2    1    1    2  502    0  0.13401723658E+02 -0.19536012171E+02 -0.39963026956E+03  0.40033188022E+03  0.25500000000E-02 0. -1.
<mgrwt>
<rscale>  0 0.48700866E+02</rscale>
<asrwt>0</asrwt>
<pdfrwt beam="2">  1        2 0.16007049E+00 0.48700866E+02</pdfrwt>
<pdfrwt beam="1">  1       -2 0.87674924E-04 0.48700866E+02</pdfrwt>
<totfact> 0.12368351E+06</totfact>
</mgrwt>
</event>
<event>
 4    1  0.4635140E-002  0.4677412E+02  0.7818608E-02  0.1463561E+00
         -2   -1    0    0  501    0 -0.00000000000E+00  0.00000000000E+00  0.22351508375E+00  0.22352962927E+00  0.25500000000E-02 0.  1.
          2   -1    0    0    0  501  0.00000000000E+00 -0.00000000000E+00 -0.24469795457E+04  0.24469795457E+04  0.25500000000E-02 0.  1.
          2    1    1    2    0  502 -0.12809838506E+02 -0.19546218328E+02 -0.12704079947E+04  0.12706229258E+04  0.25500000000E-02 0. -1.
         -2    1    1    2  502    0  0.12809838506E+02  0.19546218328E+02 -0.11763480359E+04  0.11765801495E+04  0.25500000000E-02 0. -1.
<mgrwt>
<rscale>  0 0.46774123E+02</rscale>
<asrwt>0</asrwt>
<pdfrwt beam="2">  1        2 0.37643694E+00 0.46774123E+02</pdfrwt>
<pdfrwt beam="1">  1       -2 0.34390015E-04 0.46774123E+02</pdfrwt>
<totfact> 0.85709944E+05</totfact>
</mgrwt>
</event>
<event>
 4    1  0.4635140E-002  0.6735975E+02  0.7818608E-02  0.1369309E+00
         -2   -1    0    0  501    0 -0.00000000000E+00  0.00000000000E+00  0.43616421649E+01  0.43616429103E+01  0.25500000000E-02 0. -1.
          2   -1    0    0    0  501  0.00000000000E+00 -0.00000000000E+00 -0.26007036845E+03  0.26007036846E+03  0.25500000000E-02 0. -1.
          2    1    1    2    0  502 -0.23849898159E+02  0.13610778543E+02 -0.51302525423E+02  0.58189518438E+02  0.25500000000E-02 0. -1.
         -2    1    1    2  502    0  0.23849898159E+02 -0.13610778543E+02 -0.20440620086E+03  0.20624249294E+03  0.25500000000E-02 0. -1.
<mgrwt>
<rscale>  0 0.67359750E+02</rscale>
<asrwt>0</asrwt>
<pdfrwt beam="2">  1        2 0.40010814E-01 0.67359750E+02</pdfrwt>
<pdfrwt beam="1">  1       -2 0.67102213E-03 0.67359750E+02</pdfrwt>
<totfact> 0.37760135E+05</totfact>
</mgrwt>
</event>
<event>
 4    1  0.4635140E-002  0.4925997E+02  0.7818608E-02  0.1449374E+00
          2   -1    0    0    0  501  0.00000000000E+00  0.00000000000E+00  0.10837444485E+04  0.10837444485E+04  0.25500000000E-02 0.  1.
         -2   -1    0    0  501    0 -0.00000000000E+00 -0.00000000000E+00 -0.55975644066E+00  0.55976224896E+00  0.25500000000E-02 0.  1.
          2    1    1    2    0  502  0.23244625900E+02  0.79643394512E+01  0.50415440490E+03  0.50475281805E+03  0.25500000000E-02 0. -1.
         -2    1    1    2  502    0 -0.23244625900E+02 -0.79643394512E+01  0.57903028713E+03  0.57955139268E+03  0.25500000000E-02 0. -1.
<mgrwt>
<rscale>  0 0.49259967E+02</rscale>
<asrwt>0</asrwt>
<pdfrwt beam="1">  1        2 0.16672940E+00 0.49259967E+02</pdfrwt>
<pdfrwt beam="2">  1       -2 0.86117091E-04 0.49259967E+02</pdfrwt>
<totfact> 0.12025434E+06</totfact>
</mgrwt>
</event>
<event>
 4    1  0.4635140E-002  0.4825637E+02  0.7818608E-02  0.1454980E+00
         -2   -1    0    0  501    0 -0.00000000000E+00  0.00000000000E+00  0.27265689496E+00  0.27266881902E+00  0.25500000000E-02 0.  1.
          2   -1    0    0    0  501  0.00000000000E+00 -0.00000000000E+00 -0.21351247825E+04  0.21351247825E+04  0.25500000000E-02 0.  1.
          2    1    1    2    0  502  0.19750995869E+02  0.11916589936E+02 -0.13805233867E+04  0.13807160925E+04  0.25500000000E-02 0.  1.
         -2    1    1    2  502    0 -0.19750995869E+02 -0.11916589936E+02 -0.75432873893E+03  0.75468135881E+03  0.25500000000E-02 0.  1.
<mgrwt>
<rscale>  0 0.48256366E+02</rscale>
<asrwt>0</asrwt>
<pdfrwt beam="2">  1        2 0.32846735E+00 0.48256366E+02</pdfrwt>
<pdfrwt beam="1">  1       -2 0.41949842E-04 0.48256366E+02</pdfrwt>
<totfact> 0.94331623E+05</totfact>
</mgrwt>
</event>
<event>
 4    1  0.4635140E-002  0.1142636E+03  0.7818608E-02  0.1252872E+00
          2   -1    0    0    0  501  0.00000000000E+00  0.00000000000E+00  0.95187618222E+03  0.95187618222E+03  0.25500000000E-02 0.  1.
         -2   -1    0    0  501    0 -0.00000000000E+00 -0.00000000000E+00 -0.34290601257E+01  0.34290610739E+01  0.25500000000E-02 0.  1.
          2    1    1    2    0  502 -0.29850647254E+02 -0.39568439743E+02  0.23667258482E+03  0.24180702012E+03  0.25500000000E-02 0. -1.
         -2    1    1    2  502    0  0.29850647254E+02  0.39568439743E+02  0.71177453727E+03  0.71349822318E+03  0.25500000000E-02 0. -1.
<mgrwt>
<rscale>  0 0.11426357E+03</rscale>
<asrwt>0</asrwt>
<pdfrwt beam="1">  1        2 0.14644282E+00 0.11426357E+03</pdfrwt>
<pdfrwt beam="2">  1       -2 0.52754658E-03 0.11426357E+03</pdfrwt>
<totfact> 0.13666371E+05</totfact>
</mgrwt>
</event>
<event>
 4    1  0.4635140E-002  0.6382615E+02  0.7818608E-02  0.1382442E+00
          2   -1    0    0    0  501  0.00000000000E+00  0.00000000000E+00  0.16281537278E+02  0.16281537478E+02  0.25500000000E-02 0. -1.
         -2   -1    0    0  501    0 -0.00000000000E+00 -0.00000000000E+00 -0.62552097766E+02  0.62552097818E+02  0.25500000000E-02 0. -1.
          2    1    1    2    0  502  0.23681736356E+02 -0.15128117494E+02 -0.44541688923E+01  0.28452138808E+02  0.25500000000E-02 0.  1.
         -2    1    1    2  502    0 -0.23681736356E+02  0.15128117494E+02 -0.41816391595E+02  0.50381496487E+02  0.25500000000E-02 0.  1.
<mgrwt>
<rscale>  0 0.63826149E+02</rscale>
<asrwt>0</asrwt>
<pdfrwt beam="1">  1        2 0.25048519E-02 0.63826149E+02</pdfrwt>
<pdfrwt beam="2">  1       -2 0.96233996E-02 0.63826149E+02</pdfrwt>
<totfact> 0.21632927E+05</totfact>
</mgrwt>
</event>
<event>
 4    1  0.4635140E-002  0.5117240E+02  0.7818608E-02  0.1439119E+00
         -2   -1    0    0  501    0 -0.00000000000E+00  0.00000000000E+00  0.74112084091E+03  0.74112084092E+03  0.25500000000E-02 0. -1.
          2   -1    0    0    0  501  0.00000000000E+00 -0.00000000000E+00 -0.88332737813E+00  0.88333105881E+00  0.25500000000E-02 0. -1.
          2    1    1    2    0  502 -0.14469841725E+02  0.17540011621E+02  0.20001269988E+03  0.20130103936E+03  0.25500000000E-02 0.  1.
         -2    1    1    2  502    0  0.14469841725E+02 -0.17540011621E+02  0.54022481366E+03  0.54070313262E+03  0.25500000000E-02 0.  1.
<mgrwt>
<rscale>  0 0.51172403E+02</rscale>
<asrwt>0</asrwt>
<pdfrwt beam="2">  1        2 0.13589659E-03 0.51172403E+02</pdfrwt>
<pdfrwt beam="1">  1       -2 0.11401877E+00 0.51172403E+02</pdfrwt>
<totfact> 0.11100911E+05</totfact>
</mgrwt>
</event>
<event>
 4    1  0.4635140E-002  0.4454894E+02  0.7818608E-02  0.1477177E+00
         -2   -1    0    0  501    0 -0.00000000000E+00  0.00000000000E+00  0.48801749656E+00  0.48802415867E+00  0.25500000000E-02 0. -1.
          2   -1    0    0    0  501  0.00000000000E+00 -0.00000000000E+00 -0.10166614900E+04  0.10166614900E+04  0.25500000000E-02 0. -1.
          2    1    1    2    0  502 -0.14974094784E+02 -0.13843166449E+02 -0.30349304231E+03  0.30417738823E+03  0.25500000000E-02 0.  1.
         -2    1    1    2  502    0  0.14974094784E+02  0.13843166449E+02 -0.71268043023E+03  0.71297212598E+03  0.25500000000E-02 0.  1.
<mgrwt>
<rscale>  0 0.44548939E+02</rscale>
<asrwt>0</asrwt>
<pdfrwt beam="2">  1        2 0.15640777E+00 0.44548939E+02</pdfrwt>
<pdfrwt beam="1">  1       -2 0.75080941E-04 0.44548939E+02</pdfrwt>
<totfact> 0.15374107E+06</totfact>
</mgrwt>
</event>
<event>
 4    1  0.4635140E-002  0.4706740E+02  0.7818608E-02  0.1461833E+00
         -2   -1    0    0  501    0 -0.00000000000E+00  0.00000000000E+00  0.54726509297E+00  0.54727103384E+00  0.25500000000E-02 0.  1.
          2   -1    0    0    0  501  0.00000000000E+00 -0.00000000000E+00 -0.10119996813E+04  0.10119996814E+04  0.25500000000E-02 0.  1.
          2    1    1    2    0  502 -0.21771582398E+02  0.89304030755E+01 -0.49959590740E+03  0.50014980215E+03  0.25500000000E-02 0. -1.
         -2    1    1    2  502    0  0.21771582398E+02 -0.89304030755E+01 -0.51185650886E+03  0.51239715023E+03  0.25500000000E-02 0. -1.
<mgrwt>
<rscale>  0 0.47067403E+02</rscale>
<asrwt>0</asrwt>
<pdfrwt beam="2">  1        2 0.15569076E+00 0.47067403E+02</pdfrwt>
<pdfrwt beam="1">  1       -2 0.84195897E-04 0.47067403E+02</pdfrwt>
<totfact> 0.13439725E+06</totfact>
</mgrwt>
</event>
<event>
 4    1  0.4635140E-002  0.8206751E+02  0.7818608E-02  0.1323284E+00
          2   -1    0    0    0  501  0.00000000000E+00  0.00000000000E+00  0.46355279920E+03  0.46355279921E+03  0.25500000000E-02 0.  1.
         -2   -1    0    0  501    0 -0.00000000000E+00 -0.00000000000E+00 -0.36323128792E+01  0.36323137743E+01  0.25500000000E-02 0.  1.
          2    1    1    2    0  502  0.40824632077E+02 -0.21765328575E+01  0.20992946411E+03  0.21387325169E+03  0.25500000000E-02 0.  1.
         -2    1    1    2  502    0 -0.40824632077E+02  0.21765328575E+01  0.24999102221E+03  0.25331186129E+03  0.25500000000E-02 0.  1.
<mgrwt>
<rscale>  0 0.82067509E+02</rscale>
<asrwt>0</asrwt>
<pdfrwt beam="1">  1        2 0.71315863E-01 0.82067509E+02</pdfrwt>
<pdfrwt beam="2">  1       -2 0.55881706E-03 0.82067509E+02</pdfrwt>
<totfact> 0.27729423E+05</totfact>
</mgrwt>
</event>
<event>
 4    1  0.4635140E-002  0.4575934E+02  0.7818608E-02  0.1469656E+00
         -2   -1    0    0  501    0 -0.00000000000E+00  0.00000000000E+00  0.31965730893E+02  0.31965730995E+02  0.25500000000E-02 0.  1.
          2   -1    0    0    0  501  0.00000000000E+00 -0.00000000000E+00 -0.16376265816E+02  0.16376266014E+02  0.25500000000E-02 0.  1.
          2    1    1    2    0  502 -0.88535326464E+01  0.21087644609E+02  0.71219939444E+01  0.23954051844E+02  0.25500000000E-02 0.  1.
         -2    1    1    2  502    0  0.88535326464E+01 -0.21087644609E+02  0.84674711333E+01  0.24387945165E+02  0.25500000000E-02 0.  1.
<mgrwt>
<rscale>  0 0.45759341E+02</rscale>
<asrwt>0</asrwt>
<pdfrwt beam="2">  1        2 0.25194256E-02 0.45759341E+02</pdfrwt>
<pdfrwt beam="1">  1       -2 0.49178047E-02 0.45759341E+02</pdfrwt>
<totfact> 0.54055479E+05</totfact>
</mgrwt>
</event>
<event>
 4    1  0.4635140E-002  0.4465037E+02  0.7818608E-02  0.1476536E+00
         -2   -1    0    0  501    0 -0.00000000000E+00  0.00000000000E+00  0.37877618277E+01  0.37877626861E+01  0.25500000000E-02 0. -1.
          2   -1    0    0    0  501  0.00000000000E+00 -0.00000000000E+00 -0.13158532866E+03  0.13158532869E+03  0.25500000000E-02 0. -1.
          2    1    1    2    0  502 -0.12462154267E+02  0.18016374375E+02 -0.76945910578E+02  0.80003551144E+02  0.25500000000E-02 0.  1.
         -2    1    1    2  502    0  0.12462154267E+02 -0.18016374375E+02 -0.50851656259E+02  0.55369540231E+02  0.25500000000E-02 0.  1.
<mgrwt>
<rscale>  0 0.44650373E+02</rscale>
<asrwt>0</asrwt>
<pdfrwt beam="2">  1        2 0.20243893E-01 0.44650373E+02</pdfrwt>
<pdfrwt beam="1">  1       -2 0.58273276E-03 0.44650373E+02</pdfrwt>
<totfact> 0.85717561E+05</totfact>
</mgrwt>
</event>
<event>
 4    1  0.4635140E-002  0.4790751E+02  0.7818608E-02  0.1456966E+00
         -2   -1    0    0  501    0 -0.00000000000E+00  0.00000000000E+00  0.47509817285E+01  0.47509824128E+01  0.25500000000E-02 0.  1.
          2   -1    0    0    0  501  0.00000000000E+00 -0.00000000000E+00 -0.12077129883E+03  0.12077129885E+03  0.25500000000E-02 0.  1.
          2    1    1    2    0  502  0.89520932980E+01 -0.18285834048E+02 -0.91076415099E+02  0.93324300667E+02  0.25500000000E-02 0. -1.
         -2    1    1    2  502    0 -0.89520932980E+01  0.18285834048E+02 -0.24943902000E+02  0.32197980600E+02  0.25500000000E-02 0. -1.
<mgrwt>
<rscale>  0 0.47907506E+02</rscale>
<asrwt>0</asrwt>
<pdfrwt beam="2">  1        2 0.18580198E-01 0.47907506E+02</pdfrwt>
<pdfrwt beam="1">  1       -2 0.73092041E-03 0.47907506E+02</pdfrwt>
<totfact> 0.70168792E+05</totfact>
</mgrwt>
</event>
<event>
 4    1  0.4635140E-002  0.5972562E+02  0.7818608E-02  0.1398987E+00
         -2   -1    0    0  501    0 -0.00000000000E+00  0.00000000000E+00  0.60201227851E+03  0.60201227852E+03  0.25500000000E-02 0. -1.
          2   -1    0    0    0  501  0.00000000000E+00 -0.00000000000E+00 -0.14813433735E+01  0.14813455683E+01  0.25500000000E-02 0. -1.
          2    1    1    2    0  502 -0.17868993958E+02 -0.23213656469E+02  0.35884745558E+03  0.36004120760E+03  0.25500000000E-02 0.  1.
         -2    1    1    2  502    0  0.17868993958E+02  0.23213656469E+02  0.24168347956E+03  0.24345241649E+03  0.25500000000E-02 0.  1.
<mgrwt>
<rscale>  0 0.59725625E+02</rscale>
<asrwt>0</asrwt>
<pdfrwt beam="2">  1        2 0.22789907E-03 0.59725625E+02</pdfrwt>
<pdfrwt beam="1">  1       -2 0.92617304E-01 0.59725625E+02</pdfrwt>
<totfact> 0.91654703E+04</totfact>
</mgrwt>
</event>
<event>
 4    1  0.4635140E-002  0.5266822E+02  0.7818608E-02  0.1431459E+00
         -2   -1    0    0  501    0 -0.00000000000E+00  0.00000000000E+00  0.34584209851E+03  0.34584209852E+03  0.25500000000E-02 0. -1.
          2   -1    0    0    0  501  0.00000000000E+00 -0.00000000000E+00 -0.20052069406E+01  0.20052085620E+01  0.25500000000E-02 0. -1.
          2    1    1    2    0  502 -0.26891364444E+01 -0.20654951951E+02  0.65500527741E+02  0.68732653345E+02  0.25500000000E-02 0. -1.
         -2    1    1    2  502    0  0.26891364444E+01  0.20654951951E+02  0.27833636383E+03  0.27911465374E+03  0.25500000000E-02 0. -1.
<mgrwt>
<rscale>  0 0.52668217E+02</rscale>
<asrwt>0</asrwt>
<pdfrwt beam="2">  1        2 0.30849352E-03 0.52668217E+02</pdfrwt>
<pdfrwt beam="1">  1       -2 0.53206474E-01 0.52668217E+02</pdfrwt>
<totfact> 0.18812128E+05</totfact>
</mgrwt>
</event>
<event>
 4    1  0.4635140E-002  0.4633105E+02  0.7818608E-02  0.1466199E+00
         -2   -1    0    0  501    0 -0.00000000000E+00  0.00000000000E+00  0.18014620976E+01  0.18014639024E+01  0.25500000000E-02 0.  1.
          2   -1    0    0    0  501  0.00000000000E+00 -0.00000000000E+00 -0.29789205816E+03  0.29789205817E+03  0.25500000000E-02 0.  1.
          2    1    1    2    0  502 -0.21031373054E+02  0.59533958422E+01 -0.98410196671E+02  0.10080837460E+03  0.25500000000E-02 0. -1.
         -2    1    1    2  502    0  0.21031373054E+02 -0.59533958422E+01 -0.19768039939E+03  0.19888514747E+03  0.25500000000E-02 0. -1.
<mgrwt>
<rscale>  0 0.46331049E+02</rscale>
<asrwt>0</asrwt>
<pdfrwt beam="2">  1        2 0.45829509E-01 0.46331049E+02</pdfrwt>
<pdfrwt beam="1">  1       -2 0.27714839E-03 0.46331049E+02</pdfrwt>
<totfact> 0.10192589E+06</totfact>
</mgrwt>
</event>
<event>
 4    1  0.4635140E-002  0.4162385E+02  0.7818608E-02  0.1496591E+00
          2   -1    0    0    0  501  0.00000000000E+00  0.00000000000E+00  0.16452897963E+04  0.16452897963E+04  0.25500000000E-02 0.  1.
         -2   -1    0    0  501    0 -0.00000000000E+00 -0.00000000000E+00 -0.26325208656E+00  0.26326443660E+00  0.25500000000E-02 0.  1.
          2    1    1    2    0  502 -0.68305261327E+00 -0.20544458771E+02  0.95119464455E+03  0.95141672950E+03  0.25500000000E-02 0. -1.
         -2    1    1    2  502    0  0.68305261327E+00  0.20544458771E+02  0.69383189970E+03  0.69413633127E+03  0.25500000000E-02 0. -1.
<mgrwt>
<rscale>  0 0.41623846E+02</rscale>
<asrwt>0</asrwt>
<pdfrwt beam="1">  1        2 0.25312971E+00 0.41623846E+02</pdfrwt>
<pdfrwt beam="2">  1       -2 0.40499960E-04 0.41623846E+02</pdfrwt>
<totfact> 0.16530550E+06</totfact>
</mgrwt>
</event>
<event>
 4    1  0.4635140E-002  0.4300729E+02  0.7818608E-02  0.1487179E+00
         -2   -1    0    0  501    0 -0.00000000000E+00  0.00000000000E+00  0.99763554199E+00  0.99763880094E+00  0.25500000000E-02 0.  1.
          2   -1    0    0    0  501  0.00000000000E+00 -0.00000000000E+00 -0.46350184562E+03  0.46350184563E+03  0.25500000000E-02 0.  1.
          2    1    1    2    0  502 -0.15856661990E+02  0.14228287106E+02 -0.26279392438E+03  0.26365607253E+03  0.25500000000E-02 0.  1.
         -2    1    1    2  502    0  0.15856661990E+02 -0.14228287106E+02 -0.19971028570E+03  0.20084341190E+03  0.25500000000E-02 0.  1.
<mgrwt>
<rscale>  0 0.43007287E+02</rscale>
<asrwt>0</asrwt>
<pdfrwt beam="2">  1        2 0.71307805E-01 0.43007287E+02</pdfrwt>
<pdfrwt beam="1">  1       -2 0.15348301E-03 0.43007287E+02</pdfrwt>
<totfact> 0.14192499E+06</totfact>
</mgrwt>
</event>
<event>
 4    1  0.4635140E-002  0.5381483E+02  0.7818608E-02  0.1425788E+00
          2   -1    0    0    0  501  0.00000000000E+00  0.00000000000E+00  0.25745808421E+01  0.25745821049E+01  0.25500000000E-02 0. -1.
         -2   -1    0    0  501    0 -0.00000000000E+00 -0.00000000000E+00 -0.28121425921E+03  0.28121425923E+03  0.25500000000E-02 0. -1.
          2    1    1    2    0  502  0.14810156670E+02 -0.20333231319E+02 -0.88951530990E+02  0.92440012486E+02  0.25500000000E-02 0.  1.
         -2    1    1    2  502    0 -0.14810156670E+02  0.20333231319E+02 -0.18968814738E+03  0.19134882884E+03  0.25500000000E-02 0.  1.
<mgrwt>
<rscale>  0 0.53814832E+02</rscale>
<asrwt>0</asrwt>
<pdfrwt beam="1">  1        2 0.39608968E-03 0.53814832E+02</pdfrwt>
<pdfrwt beam="2">  1       -2 0.43263708E-01 0.53814832E+02</pdfrwt>
<totfact> 0.20055805E+05</totfact>
</mgrwt>
</event>
<event>
 4    1  0.4635140E-002  0.4866090E+02  0.7818608E-02  0.1452701E+00
         -2   -1    0    0  501    0 -0.00000000000E+00  0.00000000000E+00  0.42589852205E+02  0.42589852282E+02  0.25500000000E-02 0.  1.
          2   -1    0    0    0  501  0.00000000000E+00 -0.00000000000E+00 -0.13899336566E+02  0.13899336800E+02  0.25500000000E-02 0.  1.
          2    1    1    2    0  502  0.17341618235E+02 -0.15995251237E+02  0.74391860546E+01  0.24737042685E+02  0.25500000000E-02 0. -1.
         -2    1    1    2  502    0 -0.17341618235E+02  0.15995251237E+02  0.21251329585E+02  0.31752146396E+02  0.25500000000E-02 0. -1.
<mgrwt>
<rscale>  0 0.48660896E+02</rscale>
<asrwt>0</asrwt>
<pdfrwt beam="2">  1        2 0.21383595E-02 0.48660896E+02</pdfrwt>
<pdfrwt beam="1">  1       -2 0.65522850E-02 0.48660896E+02</pdfrwt>
<totfact> 0.44698162E+05</totfact>
</mgrwt>
</event>
<event>
 4    1  0.4635140E-002  0.7283299E+02  0.7818608E-02  0.1350716E+00
         -2   -1    0    0  501    0 -0.00000000000E+00  0.00000000000E+00  0.11733489930E+01  0.11733517639E+01  0.25500000000E-02 0.  1.
          2   -1    0    0    0  501  0.00000000000E+00 -0.00000000000E+00 -0.11302343954E+04  0.11302343955E+04  0.25500000000E-02 0.  1.
          2    1    1    2    0  502 -0.18901490549E+02  0.17241409571E+02 -0.16194740401E+03  0.16395576910E+03  0.25500000000E-02 0. -1.
         -2    1    1    2  502    0  0.18901490549E+02 -0.17241409571E+02 -0.96711364245E+03  0.96745197812E+03  0.25500000000E-02 0. -1.
<mgrwt>
<rscale>  0 0.72832986E+02</rscale>
<asrwt>0</asrwt>
<pdfrwt beam="2">  1        2 0.17388134E+00 0.72832986E+02</pdfrwt>
<pdfrwt beam="1">  1       -2 0.18051635E-03 0.72832986E+02</pdfrwt>
<totfact> 0.44844324E+05</totfact>
</mgrwt>
</event>
<event>
 4    1  0.4635140E-002  0.4434181E+02  0.7818608E-02  0.1478493E+00
          2   -1    0    0    0  501  0.00000000000E+00  0.00000000000E+00  0.10405186079E+04  0.10405186079E+04  0.25500000000E-02 0.  1.
         -2   -1    0    0  501    0 -0.00000000000E+00 -0.00000000000E+00 -0.47240425872E+00  0.47241114102E+00  0.25500000000E-02 0.  1.
          2    1    1    2    0  502 -0.10477973209E+01 -0.21960961527E+02  0.58711537820E+03  0.58752689218E+03  0.25500000000E-02 0. -1.
         -2    1    1    2  502    0  0.10477973209E+01  0.21960961527E+02  0.45293082549E+03  0.45346412691E+03  0.25500000000E-02 0. -1.
<mgrwt>
<rscale>  0 0.44341809E+02</rscale>
<asrwt>0</asrwt>
<pdfrwt beam="1">  1        2 0.16007985E+00 0.44341809E+02</pdfrwt>
<pdfrwt beam="2">  1       -2 0.72678078E-04 0.44341809E+02</pdfrwt>
<totfact> 0.15558502E+06</totfact>
</mgrwt>
</event>
<event>
 4    1  0.4635140E-002  0.1275466E+03  0.7818608E-02  0.1231142E+00
         -2   -1    0    0  501    0 -0.00000000000E+00  0.00000000000E+00  0.29441555244E+01  0.29441566287E+01  0.25500000000E-02 0.  1.
          2   -1    0    0    0  501  0.00000000000E+00 -0.00000000000E+00 -0.13813929105E+04  0.13813929105E+04  0.25500000000E-02 0.  1.
          2    1    1    2    0  502 -0.39467523783E+02  0.48558121243E+02 -0.82279823010E+03  0.82517422648E+03  0.25500000000E-02 0.  1.
         -2    1    1    2  502    0  0.39467523783E+02 -0.48558121243E+02 -0.55565052486E+03  0.55916284064E+03  0.25500000000E-02 0.  1.
<mgrwt>
<rscale>  0 0.12754664E+03</rscale>
<asrwt>0</asrwt>
<pdfrwt beam="2">  1        2 0.21252147E+00 0.12754664E+03</pdfrwt>
<pdfrwt beam="1">  1       -2 0.45294819E-03 0.12754664E+03</pdfrwt>
<totfact> 0.98663034E+04</totfact>
</mgrwt>
</event>
<event>
 4    1  0.4635140E-002  0.7848977E+02  0.7818608E-02  0.1333393E+00
          2   -1    0    0    0  501  0.00000000000E+00  0.00000000000E+00  0.31907524984E+03  0.31907524985E+03  0.25500000000E-02 0.  1.
         -2   -1    0    0  501    0 -0.00000000000E+00 -0.00000000000E+00 -0.48269514844E+01  0.48269521579E+01  0.25500000000E-02 0.  1.
          2    1    1    2    0  502 -0.35602181970E+02  0.10705200708E+02  0.10524532720E+03  0.11161852708E+03  0.25500000000E-02 0. -1.
         -2    1    1    2  502    0  0.35602181970E+02 -0.10705200708E+02  0.20900297116E+03  0.21228367493E+03  0.25500000000E-02 0. -1.
<mgrwt>
<rscale>  0 0.78489767E+02</rscale>
<asrwt>0</asrwt>
<pdfrwt beam="1">  1        2 0.49088488E-01 0.78489767E+02</pdfrwt>
<pdfrwt beam="2">  1       -2 0.74260816E-03 0.78489767E+02</pdfrwt>
<totfact> 0.27311726E+05</totfact>
</mgrwt>
</event>
<event>
 4    1  0.4635140E-002  0.4535436E+02  0.7818608E-02  0.1472141E+00
         -2   -1    0    0  501    0 -0.00000000000E+00  0.00000000000E+00  0.87114145255E+00  0.87114518471E+00  0.25500000000E-02 0. -1.
          2   -1    0    0    0  501  0.00000000000E+00 -0.00000000000E+00 -0.59032139263E+03  0.59032139264E+03  0.25500000000E-02 0. -1.
          2    1    1    2    0  502 -0.22140158474E+02 -0.28338476909E+01 -0.34692560305E+03  0.34764290784E+03  0.25500000000E-02 0.  1.
         -2    1    1    2  502    0  0.22140158474E+02  0.28338476909E+01 -0.24252464813E+03  0.24354962998E+03  0.25500000000E-02 0.  1.
<mgrwt>
<rscale>  0 0.45354362E+02</rscale>
<asrwt>0</asrwt>
<pdfrwt beam="2">  1        2 0.90818356E-01 0.45354362E+02</pdfrwt>
<pdfrwt beam="1">  1       -2 0.13402252E-03 0.45354362E+02</pdfrwt>
<totfact> 0.13398437E+06</totfact>
</mgrwt>
</event>
<event>
 4    1  0.4635140E-002  0.4091722E+02  0.7818608E-02  0.1501568E+00
         -2   -1    0    0  501    0 -0.00000000000E+00  0.00000000000E+00  0.65730963307E+00  0.65731457935E+00  0.25500000000E-02 0.  1.
          2   -1    0    0    0  501  0.00000000000E+00 -0.00000000000E+00 -0.63676700900E+03  0.63676700901E+03  0.25500000000E-02 0.  1.
          2    1    1    2    0  502 -0.16498459858E+02  0.12035695683E+02 -0.33711857382E+03  0.33773656889E+03  0.25500000000E-02 0. -1.
         -2    1    1    2  502    0  0.16498459858E+02 -0.12035695683E+02 -0.29899112555E+03  0.29968775469E+03  0.25500000000E-02 0. -1.
<mgrwt>
<rscale>  0 0.40917217E+02</rscale>
<asrwt>0</asrwt>
<pdfrwt beam="2">  1        2 0.97963662E-01 0.40917217E+02</pdfrwt>
<pdfrwt beam="1">  1       -2 0.10112545E-03 0.40917217E+02</pdfrwt>
<totfact> 0.17543585E+06</totfact>
</mgrwt>
</event>
<event>
 4    1  0.4635140E-002  0.6058186E+02  0.7818608E-02  0.1395406E+00
          2   -1    0    0    0  501  0.00000000000E+00  0.00000000000E+00  0.27673375008E+02  0.27673375126E+02  0.25500000000E-02 0. -1.
         -2   -1    0    0  501    0 -0.00000000000E+00 -0.00000000000E+00 -0.33156076225E+02  0.33156076323E+02  0.25500000000E-02 0. -1.
          2    1    1    2    0  502 -0.41403440284E+01 -0.21416330245E+02  0.18362129898E+02  0.28512619499E+02  0.25500000000E-02 0. -1.
         -2    1    1    2  502    0  0.41403440284E+01  0.21416330245E+02 -0.23844831115E+02  0.32316831949E+02  0.25500000000E-02 0. -1.
<mgrwt>
<rscale>  0 0.60581863E+02</rscale>
<asrwt>0</asrwt>
<pdfrwt beam="1">  1        2 0.42574423E-02 0.60581863E+02</pdfrwt>
<pdfrwt beam="2">  1       -2 0.51009348E-02 0.60581863E+02</pdfrwt>
<totfact> 0.27734783E+05</totfact>
</mgrwt>
</event>
<event>
 4    1  0.4635140E-002  0.5272667E+02  0.7818608E-02  0.1431166E+00
          2   -1    0    0    0  501  0.00000000000E+00  0.00000000000E+00  0.86975658995E+02  0.86975659032E+02  0.25500000000E-02 0. -1.
         -2   -1    0    0  501    0 -0.00000000000E+00 -0.00000000000E+00 -0.79910343813E+01  0.79910347882E+01  0.25500000000E-02 0. -1.
          2    1    1    2    0  502  0.16544689289E+02  0.20445918436E+02  0.42745887965E+02  0.50189374063E+02  0.25500000000E-02 0.  1.
         -2    1    1    2  502    0 -0.16544689289E+02 -0.20445918436E+02  0.36238736648E+02  0.44777319758E+02  0.25500000000E-02 0.  1.
<mgrwt>
<rscale>  0 0.52726673E+02</rscale>
<asrwt>0</asrwt>
<pdfrwt beam="1">  1        2 0.13380870E-01 0.52726673E+02</pdfrwt>
<pdfrwt beam="2">  1       -2 0.12293900E-02 0.52726673E+02</pdfrwt>
<totfact> 0.50487729E+05</totfact>
</mgrwt>
</event>
<event>
 4    1  0.4635140E-002  0.4243301E+02  0.7818608E-02  0.1491034E+00
          2   -1    0    0    0  501  0.00000000000E+00  0.00000000000E+00  0.13405470840E+02  0.13405471082E+02  0.25500000000E-02 0. -1.
         -2   -1    0    0  501    0 -0.00000000000E+00 -0.00000000000E+00 -0.33578832759E+02  0.33578832856E+02  0.25500000000E-02 0. -1.
          2    1    1    2    0  502  0.13137609097E+02 -0.16519573306E+02 -0.12473584269E+02  0.24517001978E+02  0.25500000000E-02 0.  1.
         -2    1    1    2  502    0 -0.13137609097E+02  0.16519573306E+02 -0.76997776502E+01  0.22467301960E+02  0.25500000000E-02 0.  1.
<mgrwt>
<rscale>  0 0.42433009E+02</rscale>
<asrwt>0</asrwt>
<pdfrwt beam="1">  1        2 0.20623802E-02 0.42433009E+02</pdfrwt>
<pdfrwt beam="2">  1       -2 0.51659743E-02 0.42433009E+02</pdfrwt>
<totfact> 0.64102959E+05</totfact>
</mgrwt>
</event>
<event>
 4    1  0.4635140E-002  0.4479795E+02  0.7818608E-02  0.1475607E+00
         -2   -1    0    0  501    0 -0.00000000000E+00  0.00000000000E+00  0.33648342195E+02  0.33648342292E+02  0.25500000000E-02 0. -1.
          2   -1    0    0    0  501  0.00000000000E+00 -0.00000000000E+00 -0.14910512021E+02  0.14910512239E+02  0.25500000000E-02 0. -1.
          2    1    1    2    0  502 -0.21061953299E+02  0.91956898756E+00  0.11664275615E+01  0.21114261617E+02  0.25500000000E-02 0. -1.
         -2    1    1    2  502    0  0.21061953299E+02 -0.91956898756E+00  0.17571402613E+02  0.27444592913E+02  0.25500000000E-02 0. -1.
<mgrwt>
<rscale>  0 0.44797947E+02</rscale>
<asrwt>0</asrwt>
<pdfrwt beam="2">  1        2 0.22939250E-02 0.44797947E+02</pdfrwt>
<pdfrwt beam="1">  1       -2 0.51766680E-02 0.44797947E+02</pdfrwt>
<totfact> 0.56400247E+05</totfact>
</mgrwt>
</event>
<event>
 4    1  0.4635140E-002  0.5572430E+02  0.7818608E-02  0.1416704E+00
         -2   -1    0    0  501    0 -0.00000000000E+00  0.00000000000E+00  0.62440656425E+01  0.62440661632E+01  0.25500000000E-02 0. -1.
          2   -1    0    0    0  501  0.00000000000E+00 -0.00000000000E+00 -0.12432592821E+03  0.12432592823E+03  0.25500000000E-02 0. -1.
          2    1    1    2    0  502  0.11627996440E+02  0.20484296885E+02 -0.24169596788E+02  0.33748868655E+02  0.25500000000E-02 0.  1.
         -2    1    1    2  502    0 -0.11627996440E+02 -0.20484296885E+02 -0.93912265776E+02  0.96821125741E+02  0.25500000000E-02 0.  1.
<mgrwt>
<rscale>  0 0.55724296E+02</rscale>
<asrwt>0</asrwt>
<pdfrwt beam="2">  1        2 0.19127064E-01 0.55724296E+02</pdfrwt>
<pdfrwt beam="1">  1       -2 0.96062562E-03 0.55724296E+02</pdfrwt>
<totfact> 0.48238619E+05</totfact>
</mgrwt>
</event>
<event>
 4    1  0.4635140E-002  0.5082329E+02  0.7818608E-02  0.1440951E+00
         -2   -1    0    0  501    0 -0.00000000000E+00  0.00000000000E+00  0.18069910730E+01  0.18069928723E+01  0.25500000000E-02 0.  1.
          2   -1    0    0    0  501  0.00000000000E+00 -0.00000000000E+00 -0.35736285764E+03  0.35736285765E+03  0.25500000000E-02 0.  1.
          2    1    1    2    0  502  0.22418372812E+02 -0.52029852874E+01 -0.25392411833E+03  0.25496492381E+03  0.25500000000E-02 0.  1.
         -2    1    1    2  502    0 -0.22418372812E+02  0.52029852874E+01 -0.10163174824E+03  0.10420492671E+03  0.25500000000E-02 0.  1.
<mgrwt>
<rscale>  0 0.50823295E+02</rscale>
<asrwt>0</asrwt>
<pdfrwt beam="2">  1        2 0.54978845E-01 0.50823295E+02</pdfrwt>
<pdfrwt beam="1">  1       -2 0.27799905E-03 0.50823295E+02</pdfrwt>
<totfact> 0.86311236E+05</totfact>
</mgrwt>
</event>
<event>
 4    1  0.4635140E-002  0.8256692E+02  0.7818608E-02  0.1321921E+00
          2   -1    0    0    0  501  0.00000000000E+00  0.00000000000E+00  0.14760974610E+04  0.14760974610E+04  0.25500000000E-02 0. -1.
         -2   -1    0    0  501    0 -0.00000000000E+00 -0.00000000000E+00 -0.11546134388E+01  0.11546162547E+01  0.25500000000E-02 0. -1.
          2    1    1    2    0  502  0.29449302344E+02 -0.28626623276E+02  0.66245670309E+03  0.66372858040E+03  0.25500000000E-02 0.  1.
         -2    1    1    2  502    0 -0.29449302344E+02  0.28626623276E+02  0.81248614444E+03  0.81352349683E+03  0.25500000000E-02 0.  1.
<mgrwt>
<rscale>  0 0.82566919E+02</rscale>
<asrwt>0</asrwt>
<pdfrwt beam="1">  1        2 0.22709158E+00 0.82566919E+02</pdfrwt>
<pdfrwt beam="2">  1       -2 0.17763332E-03 0.82566919E+02</pdfrwt>
<totfact> 0.30787521E+05</totfact>
</mgrwt>
</event>
<event>
 4    1  0.4635140E-002  0.5174647E+02  0.7818608E-02  0.1436143E+00
         -2   -1    0    0  501    0 -0.00000000000E+00  0.00000000000E+00  0.39183048056E+01  0.39183056354E+01  0.25500000000E-02 0. -1.
          2   -1    0    0    0  501  0.00000000000E+00 -0.00000000000E+00 -0.17084538101E+03  0.17084538103E+03  0.25500000000E-02 0. -1.
          2    1    1    2    0  502  0.24866450927E+02 -0.44779232911E+01 -0.10227733695E+03  0.10535200918E+03  0.25500000000E-02 0.  1.
         -2    1    1    2  502    0 -0.24866450927E+02  0.44779232911E+01 -0.64649739254E+02  0.69411677482E+02  0.25500000000E-02 0.  1.
<mgrwt>
<rscale>  0 0.51746472E+02</rscale>
<asrwt>0</asrwt>
<pdfrwt beam="2">  1        2 0.26283899E-01 0.51746472E+02</pdfrwt>
<pdfrwt beam="1">  1       -2 0.60281632E-03 0.51746472E+02</pdfrwt>
<totfact> 0.64154874E+05</totfact>
</mgrwt>
</event>
<event>
 4    1  0.4635140E-002  0.7152915E+02  0.7818608E-02  0.1354969E+00
          2   -1    0    0    0  501  0.00000000000E+00  0.00000000000E+00  0.80488569739E+01  0.80488573778E+01  0.25500000000E-02 0.  1.
         -2   -1    0    0  501    0 -0.00000000000E+00 -0.00000000000E+00 -0.15891758856E+03  0.15891758859E+03  0.25500000000E-02 0.  1.
          2    1    1    2    0  502  0.95960917723E+01  0.34452093749E+02 -0.76066031749E+02  0.84053988207E+02  0.25500000000E-02 0. -1.
         -2    1    1    2  502    0 -0.95960917723E+01 -0.34452093749E+02 -0.74802699842E+02  0.82912457756E+02  0.25500000000E-02 0. -1.
<mgrwt>
<rscale>  0 0.71529154E+02</rscale>
<asrwt>0</asrwt>
<pdfrwt beam="1">  1        2 0.12382858E-02 0.71529154E+02</pdfrwt>
<pdfrwt beam="2">  1       -2 0.24448857E-01 0.71529154E+02</pdfrwt>
<totfact> 0.12626275E+05</totfact>
</mgrwt>
</event>
<event>
 4    1  0.4635140E-002  0.7889185E+02  0.7818608E-02  0.1332226E+00
          2   -1    0    0    0  501  0.00000000000E+00  0.00000000000E+00  0.67704151023E+03  0.67704151024E+03  0.25500000000E-02 0.  1.
         -2   -1    0    0  501    0 -0.00000000000E+00 -0.00000000000E+00 -0.22982053208E+01  0.22982067355E+01  0.25500000000E-02 0.  1.
          2    1    1    2    0  502 -0.39238371369E+02 -0.17104696005E+01  0.36889951245E+03  0.37098440100E+03  0.25500000000E-02 0. -1.
         -2    1    1    2  502    0  0.39238371369E+02  0.17104696005E+01  0.30584379246E+03  0.30835531597E+03  0.25500000000E-02 0. -1.
<mgrwt>
<rscale>  0 0.78891847E+02</rscale>
<asrwt>0</asrwt>
<pdfrwt beam="1">  1        2 0.10416028E+00 0.78891847E+02</pdfrwt>
<pdfrwt beam="2">  1       -2 0.35357001E-03 0.78891847E+02</pdfrwt>
<totfact> 0.34366844E+05</totfact>
</mgrwt>
</event>
<event>
 4    1  0.4635140E-002  0.5012415E+02  0.7818608E-02  0.1444673E+00
          2   -1    0    0    0  501  0.00000000000E+00  0.00000000000E+00  0.39605825407E+02  0.39605825489E+02  0.25500000000E-02 0. -1.
         -2   -1    0    0  501    0 -0.00000000000E+00 -0.00000000000E+00 -0.15858969809E+02  0.15858970014E+02  0.25500000000E-02 0. -1.
          2    1    1    2    0  502 -0.59210803506E+01 -0.21353424780E+02  0.24829008630E+02  0.33279237046E+02  0.25500000000E-02 0.  1.
         -2    1    1    2  502    0  0.59210803506E+01  0.21353424780E+02 -0.10821530313E+01  0.22185558457E+02  0.25500000000E-02 0.  1.
<mgrwt>
<rscale>  0 0.50124150E+02</rscale>
<asrwt>0</asrwt>
<pdfrwt beam="1">  1        2 0.60932039E-02 0.50124150E+02</pdfrwt>
<pdfrwt beam="2">  1       -2 0.24398416E-02 0.50124150E+02</pdfrwt>
<totfact> 0.48858381E+05</totfact>
</mgrwt>
</event>
<event>
 4    1  0.4635140E-002  0.7944331E+02  0.7818608E-02  0.1330639E+00
          2   -1    0    0    0  501  0.00000000000E+00  0.00000000000E+00  0.10701473742E+04  0.10701473742E+04  0.25500000000E-02 0.  1.
         -2   -1    0    0  501    0 -0.00000000000E+00 -0.00000000000E+00 -0.14743845745E+01  0.14743867797E+01  0.25500000000E-02 0.  1.
          2    1    1    2    0  502  0.17617966612E+02 -0.32228002248E+02  0.73836302417E+03  0.73927599200E+03  0.25500000000E-02 0.  1.
         -2    1    1    2  502    0 -0.17617966612E+02  0.32228002248E+02  0.33030996545E+03  0.33234576898E+03  0.25500000000E-02 0.  1.
<mgrwt>
<rscale>  0 0.79443312E+02</rscale>
<asrwt>0</asrwt>
<pdfrwt beam="1">  1        2 0.16463862E+00 0.79443312E+02</pdfrwt>
<pdfrwt beam="2">  1       -2 0.22682780E-03 0.79443312E+02</pdfrwt>
<totfact> 0.35886116E+05</totfact>
</mgrwt>
</event>
<event>
 4    1  0.4635140E-002  0.6852526E+02  0.7818608E-02  0.1365181E+00
          2   -1    0    0    0  501  0.00000000000E+00  0.00000000000E+00  0.42425031656E+03  0.42425031656E+03  0.25500000000E-02 0. -1.
         -2   -1    0    0  501    0 -0.00000000000E+00 -0.00000000000E+00 -0.27670633901E+01  0.27670645651E+01  0.25500000000E-02 0. -1.
          2    1    1    2    0  502  0.21778979857E+02  0.60216601650E-01  0.45917864173E+02  0.50821037439E+02  0.25500000000E-02 0.  1.
         -2    1    1    2  502    0 -0.21778979857E+02 -0.60216601650E-01  0.37556538899E+03  0.37619634369E+03  0.25500000000E-02 0.  1.
<mgrwt>
<rscale>  0 0.68525259E+02</rscale>
<asrwt>0</asrwt>
<pdfrwt beam="1">  1        2 0.65269208E-01 0.68525259E+02</pdfrwt>
<pdfrwt beam="2">  1       -2 0.42570262E-03 0.68525259E+02</pdfrwt>
<totfact> 0.42976957E+05</totfact>
</mgrwt>
</event>
<event>
 4    1  0.4635140E-002  0.5171014E+02  0.7818608E-02  0.1436330E+00
         -2   -1    0    0  501    0 -0.00000000000E+00  0.00000000000E+00  0.45905122043E+00  0.45905830292E+00  0.25500000000E-02 0.  1.
          2   -1    0    0    0  501  0.00000000000E+00 -0.00000000000E+00 -0.14562199119E+04  0.14562199119E+04  0.25500000000E-02 0.  1.
          2    1    1    2    0  502 -0.15106969964E+02  0.20925690569E+02 -0.68442526673E+03  0.68491171023E+03  0.25500000000E-02 0.  1.
         -2    1    1    2  502    0  0.15106969964E+02 -0.20925690569E+02 -0.77133559395E+03  0.77176725997E+03  0.25500000000E-02 0.  1.
<mgrwt>
<rscale>  0 0.51710142E+02</rscale>
<asrwt>0</asrwt>
<pdfrwt beam="2">  1        2 0.22403014E+00 0.51710142E+02</pdfrwt>
<pdfrwt beam="1">  1       -2 0.70624975E-04 0.51710142E+02</pdfrwt>
<totfact> 0.10184399E+06</totfact>
</mgrwt>
</event>
<event>
 4    1  0.4635140E-002  0.5547786E+02  0.7818608E-02  0.1417852E+00
         -2   -1    0    0  501    0 -0.00000000000E+00  0.00000000000E+00  0.98061155871E+00  0.98061487424E+00  0.25500000000E-02 0.  1.
          2   -1    0    0    0  501  0.00000000000E+00 -0.00000000000E+00 -0.78466038583E+03  0.78466038584E+03  0.25500000000E-02 0.  1.
          2    1    1    2    0  502 -0.22994433581E+02  0.37237637957E+00 -0.61148485755E+03  0.61191716242E+03  0.25500000000E-02 0.  1.
         -2    1    1    2  502    0  0.22994433581E+02 -0.37237637957E+00 -0.17219491672E+03  0.17372383829E+03  0.25500000000E-02 0.  1.
<mgrwt>
<rscale>  0 0.55477864E+02</rscale>
<asrwt>0</asrwt>
<pdfrwt beam="2">  1        2 0.12071648E+00 0.55477864E+02</pdfrwt>
<pdfrwt beam="1">  1       -2 0.15086420E-03 0.55477864E+02</pdfrwt>
<totfact> 0.86982685E+05</totfact>
</mgrwt>
</event>
<event>
 4    1  0.4635140E-002  0.6069370E+02  0.7818608E-02  0.1394943E+00
         -2   -1    0    0  501    0 -0.00000000000E+00  0.00000000000E+00  0.38068332858E+02  0.38068332943E+02  0.25500000000E-02 0.  1.
          2   -1    0    0    0  501  0.00000000000E+00 -0.00000000000E+00 -0.24191528515E+02  0.24191528649E+02  0.25500000000E-02 0.  1.
          2    1    1    2    0  502  0.22088837132E+02 -0.17919937396E+02  0.17789176878E+02  0.33548408347E+02  0.25500000000E-02 0. -1.
         -2    1    1    2  502    0 -0.22088837132E+02  0.17919937396E+02 -0.39123725354E+01  0.28711453246E+02  0.25500000000E-02 0. -1.
<mgrwt>
<rscale>  0 0.60693695E+02</rscale>
<asrwt>0</asrwt>
<pdfrwt beam="2">  1        2 0.37217736E-02 0.60693695E+02</pdfrwt>
<pdfrwt beam="1">  1       -2 0.58566666E-02 0.60693695E+02</pdfrwt>
<totfact> 0.26919775E+05</totfact>
</mgrwt>
</event>
<event>
 4    1  0.4635140E-002  0.6894649E+02  0.7818608E-02  0.1363713E+00
         -2   -1    0    0  501    0 -0.00000000000E+00  0.00000000000E+00  0.32775779576E+00  0.32776771528E+00  0.25500000000E-02 0. -1.
          2   -1    0    0    0  501  0.00000000000E+00 -0.00000000000E+00 -0.36258075356E+04  0.36258075356E+04  0.25500000000E-02 0. -1.
          2    1    1    2    0  502  0.19976990958E+02  0.28046728088E+02 -0.17262313597E+04  0.17265747613E+04  0.25500000000E-02 0.  1.
         -2    1    1    2  502    0 -0.19976990958E+02 -0.28046728088E+02 -0.18992484180E+04  0.18995605420E+04  0.25500000000E-02 0.  1.
<mgrwt>
<rscale>  0 0.68946491E+02</rscale>
<asrwt>0</asrwt>
<pdfrwt beam="2">  1        2 0.55778442E+00 0.68946491E+02</pdfrwt>
<pdfrwt beam="1">  1       -2 0.50427943E-04 0.68946491E+02</pdfrwt>
<totfact> 0.11546015E+05</totfact>
</mgrwt>
</event>
<event>
 4    1  0.4635140E-002  0.5912833E+02  0.7818608E-02  0.1401527E+00
          2   -1    0    0    0  501  0.00000000000E+00  0.00000000000E+00  0.12771973462E+03  0.12771973464E+03  0.25500000000E-02 0. -1.
         -2   -1    0    0  501    0 -0.00000000000E+00 -0.00000000000E+00 -0.68434198947E+01  0.68434203698E+01  0.25500000000E-02 0. -1.
          2    1    1    2    0  502  0.29246331460E+02 -0.43015433149E+01  0.61426541720E+02  0.68169430193E+02  0.25500000000E-02 0. -1.
         -2    1    1    2  502    0 -0.29246331460E+02  0.43015433149E+01  0.59449773001E+02  0.66393724817E+02  0.25500000000E-02 0. -1.
<mgrwt>
<rscale>  0 0.59128328E+02</rscale>
<asrwt>0</asrwt>
<pdfrwt beam="1">  1        2 0.19649189E-01 0.59128328E+02</pdfrwt>
<pdfrwt beam="2">  1       -2 0.10528339E-02 0.59128328E+02</pdfrwt>
<totfact> 0.41756166E+05</totfact>
</mgrwt>
</event>
<event>
 4    1  0.4635140E-002  0.6905742E+02  0.7818608E-02  0.1363328E+00
          2   -1    0    0    0  501  0.00000000000E+00  0.00000000000E+00  0.29278247796E+03  0.29278247797E+03  0.25500000000E-02 0. -1.
         -2   -1    0    0  501    0 -0.00000000000E+00 -0.00000000000E+00 -0.40720734699E+01  0.40720742684E+01  0.25500000000E-02 0. -1.
          2    1    1    2    0  502  0.31267618002E+02 -0.11964141181E+02  0.10802520523E+03  0.11309398561E+03  0.25500000000E-02 0.  1.
         -2    1    1    2  502    0 -0.31267618002E+02  0.11964141181E+02  0.18068519926E+03  0.18376056663E+03  0.25500000000E-02 0.  1.
<mgrwt>
<rscale>  0 0.69057422E+02</rscale>
<asrwt>0</asrwt>
<pdfrwt beam="1">  1        2 0.45043457E-01 0.69057422E+02</pdfrwt>
<pdfrwt beam="2">  1       -2 0.62647292E-03 0.69057422E+02</pdfrwt>
<totfact> 0.36947808E+05</totfact>
</mgrwt>
</event>
<event>
 4    1  0.4635140E-002  0.5586177E+02  0.7818608E-02  0.1416067E+00
          2   -1    0    0    0  501  0.00000000000E+00  0.00000000000E+00  0.90180930274E+03  0.90180930275E+03  0.25500000000E-02 0. -1.
         -2   -1    0    0  501    0 -0.00000000000E+00 -0.00000000000E+00 -0.86507482576E+00  0.86507858410E+00  0.25500000000E-02 0. -1.
          2    1    1    2    0  502 -0.20806142596E+02  0.18799586858E+01  0.15089474399E+03  0.15233401978E+03  0.25500000000E-02 0. -1.
         -2    1    1    2  502    0  0.20806142596E+02 -0.18799586858E+01  0.75004948393E+03  0.75034036155E+03  0.25500000000E-02 0. -1.
<mgrwt>
<rscale>  0 0.55861766E+02</rscale>
<asrwt>0</asrwt>
<pdfrwt beam="1">  1        2 0.13873967E+00 0.55861766E+02</pdfrwt>
<pdfrwt beam="2">  1       -2 0.13308894E-03 0.55861766E+02</pdfrwt>
<totfact> 0.87232855E+05</totfact>
</mgrwt>
</event>
<event>
 4    1  0.4635140E-002  0.4906456E+02  0.7818608E-02  0.1450453E+00
          2   -1    0    0    0  501  0.00000000000E+00  0.00000000000E+00  0.14859250025E+03  0.14859250028E+03  0.25500000000E-02 0. -1.
         -2   -1    0    0  501    0 -0.00000000000E+00 -0.00000000000E+00 -0.40502218920E+01  0.40502226947E+01  0.25500000000E-02 0. -1.
          2    1    1    2    0  502 -0.21912970070E+02  0.44325883977E+01  0.10369230372E+03  0.10607506754E+03  0.25500000000E-02 0. -1.
         -2    1    1    2  502    0  0.21912970070E+02 -0.44325883977E+01  0.40849974641E+02  0.46567655426E+02  0.25500000000E-02 0. -1.
<mgrwt>
<rscale>  0 0.49064556E+02</rscale>
<asrwt>0</asrwt>
<pdfrwt beam="1">  1        2 0.22860386E-01 0.49064556E+02</pdfrwt>
<pdfrwt beam="2">  1       -2 0.62311110E-03 0.49064556E+02</pdfrwt>
<totfact> 0.70217334E+05</totfact>
</mgrwt>
</event>
<event>
 4    1  0.4635140E-002  0.4972926E+02  0.7818608E-02  0.1446807E+00
         -2   -1    0    0  501    0 -0.00000000000E+00  0.00000000000E+00  0.13447866443E+01  0.13447890620E+01  0.25500000000E-02 0. -1.
          2   -1    0    0    0  501  0.00000000000E+00 -0.00000000000E+00 -0.45973784088E+03  0.45973784089E+03  0.25500000000E-02 0. -1.
          2    1    1    2    0  502  0.17020586398E+02 -0.17434572234E+02 -0.27516960058E+03  0.27624621945E+03  0.25500000000E-02 0. -1.
         -2    1    1    2  502    0 -0.17020586398E+02  0.17434572234E+02 -0.18322345365E+03  0.18483641050E+03  0.25500000000E-02 0. -1.
<mgrwt>
<rscale>  0 0.49729262E+02</rscale>
<asrwt>0</asrwt>
<pdfrwt beam="2">  1        2 0.70728774E-01 0.49729262E+02</pdfrwt>
<pdfrwt beam="1">  1       -2 0.20689081E-03 0.49729262E+02</pdfrwt>
<totfact> 0.99137627E+05</totfact>
</mgrwt>
</event>
<event>
 4    1  0.4635140E-002  0.8313096E+02  0.7818608E-02  0.1320394E+00
         -2   -1    0    0  501    0 -0.00000000000E+00  0.00000000000E+00  0.56862061825E+02  0.56862061882E+02  0.25500000000E-02 0.  1.
          2   -1    0    0    0  501  0.00000000000E+00 -0.00000000000E+00 -0.30383865039E+02  0.30383865146E+02  0.25500000000E-02 0.  1.
          2    1    1    2    0  502 -0.21666422270E+02  0.29555961672E+02 -0.73455627983E+01  0.37375741112E+02  0.25500000000E-02 0.  1.
         -2    1    1    2  502    0  0.21666422270E+02 -0.29555961672E+02  0.33823759585E+02  0.49870185916E+02  0.25500000000E-02 0.  1.
<mgrwt>
<rscale>  0 0.83130962E+02</rscale>
<asrwt>0</asrwt>
<pdfrwt beam="2">  1        2 0.46744408E-02 0.83130962E+02</pdfrwt>
<pdfrwt beam="1">  1       -2 0.87480095E-02 0.83130962E+02</pdfrwt>
<totfact> 0.11635248E+05</totfact>
</mgrwt>
</event>
<event>
 4    1  0.4635140E-002  0.8646802E+02  0.7818608E-02  0.1311638E+00
          2   -1    0    0    0  501  0.00000000000E+00  0.00000000000E+00  0.15347672560E+04  0.15347672560E+04  0.25500000000E-02 0. -1.
         -2   -1    0    0  501    0 -0.00000000000E+00 -0.00000000000E+00 -0.12178898226E+01  0.12178924922E+01  0.25500000000E-02 0. -1.
          2    1    1    2    0  502 -0.36326817680E+02  0.11991033086E+02  0.11245945758E+04  0.11252450322E+04  0.25500000000E-02 0. -1.
         -2    1    1    2  502    0  0.36326817680E+02 -0.11991033086E+02  0.40895479035E+03  0.41074011627E+03  0.25500000000E-02 0. -1.
<mgrwt>
<rscale>  0 0.86468017E+02</rscale>
<asrwt>0</asrwt>
<pdfrwt beam="1">  1        2 0.23611858E+00 0.86468017E+02</pdfrwt>
<pdfrwt beam="2">  1       -2 0.18736744E-03 0.86468017E+02</pdfrwt>
<totfact> 0.26882252E+05</totfact>
</mgrwt>
</event>
<event>
 4    1  0.4635140E-002  0.6159513E+02  0.7818608E-02  0.1391257E+00
          2   -1    0    0    0  501  0.00000000000E+00  0.00000000000E+00  0.17618357175E+02  0.17618357359E+02  0.25500000000E-02 0.  1.
         -2   -1    0    0  501    0 -0.00000000000E+00 -0.00000000000E+00 -0.53835325710E+02  0.53835325770E+02  0.25500000000E-02 0.  1.
          2    1    1    2    0  502  0.36650372850E+01  0.29238353981E+02 -0.77212275895E+01  0.30461963229E+02  0.25500000000E-02 0.  1.
         -2    1    1    2  502    0 -0.36650372850E+01 -0.29238353981E+02 -0.28495740946E+02  0.40991719900E+02  0.25500000000E-02 0.  1.
<mgrwt>
<rscale>  0 0.61595130E+02</rscale>
<asrwt>0</asrwt>
<pdfrwt beam="1">  1        2 0.27105165E-02 0.61595130E+02</pdfrwt>
<pdfrwt beam="2">  1       -2 0.82823578E-02 0.61595130E+02</pdfrwt>
<totfact> 0.24323784E+05</totfact>
</mgrwt>
</event>
<event>
 4    1  0.4635140E-002  0.6694781E+02  0.7818608E-02  0.1370791E+00
          2   -1    0    0    0  501  0.00000000000E+00  0.00000000000E+00  0.20427606126E+03  0.20427606127E+03  0.25500000000E-02 0.  1.
         -2   -1    0    0  501    0 -0.00000000000E+00 -0.00000000000E+00 -0.54852349822E+01  0.54852355750E+01  0.25500000000E-02 0.  1.
          2    1    1    2    0  502 -0.29919266558E+02 -0.10673226369E+02  0.13246847743E+03  0.13622399858E+03  0.25500000000E-02 0.  1.
         -2    1    1    2  502    0  0.29919266558E+02  0.10673226369E+02  0.66322348852E+02  0.73537298266E+02  0.25500000000E-02 0.  1.
<mgrwt>
<rscale>  0 0.66947808E+02</rscale>
<asrwt>0</asrwt>
<pdfrwt beam="1">  1        2 0.31427089E-01 0.66947808E+02</pdfrwt>
<pdfrwt beam="2">  1       -2 0.84388228E-03 0.66947808E+02</pdfrwt>
<totfact> 0.35240463E+05</totfact>
</mgrwt>
</event>
<event>
 4    1  0.4635140E-002  0.4228913E+02  0.7818608E-02  0.1492011E+00
         -2   -1    0    0  501    0 -0.00000000000E+00  0.00000000000E+00  0.82113348589E+00  0.82113744534E+00  0.25500000000E-02 0.  1.
          2   -1    0    0    0  501  0.00000000000E+00 -0.00000000000E+00 -0.54448105487E+03  0.54448105488E+03  0.25500000000E-02 0.  1.
          2    1    1    2    0  502 -0.17855196460E+02  0.10893807642E+02 -0.31180247481E+03  0.31250322621E+03  0.25500000000E-02 0.  1.
         -2    1    1    2  502    0  0.17855196460E+02 -0.10893807642E+02 -0.23185744657E+03  0.23279896611E+03  0.25500000000E-02 0.  1.
<mgrwt>
<rscale>  0 0.42289134E+02</rscale>
<asrwt>0</asrwt>
<pdfrwt beam="2">  1        2 0.83766028E-01 0.42289134E+02</pdfrwt>
<pdfrwt beam="1">  1       -2 0.12632897E-03 0.42289134E+02</pdfrwt>
<totfact> 0.15525377E+06</totfact>
</mgrwt>
</event>
<event>
 4    1  0.4635140E-002  0.5962564E+02  0.7818608E-02  0.1399410E+00
         -2   -1    0    0  501    0 -0.00000000000E+00  0.00000000000E+00  0.33415214031E+02  0.33415214128E+02  0.25500000000E-02 0. -1.
          2   -1    0    0    0  501  0.00000000000E+00 -0.00000000000E+00 -0.26598789863E+02  0.26598789985E+02  0.25500000000E-02 0. -1.
          2    1    1    2    0  502  0.19856176269E+02 -0.57452202400E+01  0.25031365243E+02  0.32462971892E+02  0.25500000000E-02 0.  1.
         -2    1    1    2  502    0 -0.19856176269E+02  0.57452202400E+01 -0.18214941074E+02  0.27551032222E+02  0.25500000000E-02 0.  1.
<mgrwt>
<rscale>  0 0.59625641E+02</rscale>
<asrwt>0</asrwt>
<pdfrwt beam="2">  1        2 0.40921215E-02 0.59625641E+02</pdfrwt>
<pdfrwt beam="1">  1       -2 0.51408022E-02 0.59625641E+02</pdfrwt>
<totfact> 0.28752516E+05</totfact>
</mgrwt>
</event>
<event>
 4    1  0.4635140E-002  0.5805153E+02  0.7818608E-02  0.1406195E+00
          2   -1    0    0    0  501  0.00000000000E+00  0.00000000000E+00  0.56784231975E+02  0.56784232032E+02  0.25500000000E-02 0.  1.
         -2   -1    0    0  501    0 -0.00000000000E+00 -0.00000000000E+00 -0.14836780094E+02  0.14836780313E+02  0.25500000000E-02 0.  1.
          2    1    1    2    0  502  0.23786633074E+02 -0.12471035899E+02  0.34554185798E+02  0.43764396627E+02  0.25500000000E-02 0. -1.
         -2    1    1    2  502    0 -0.23786633074E+02  0.12471035899E+02  0.73932660828E+01  0.27856615718E+02  0.25500000000E-02 0. -1.
<mgrwt>
<rscale>  0 0.58051535E+02</rscale>
<asrwt>0</asrwt>
<pdfrwt beam="1">  1        2 0.87360358E-02 0.58051535E+02</pdfrwt>
<pdfrwt beam="2">  1       -2 0.22825816E-02 0.58051535E+02</pdfrwt>
<totfact> 0.35702550E+05</totfact>
</mgrwt>
</event>
<event>
 4    1  0.4635140E-002  0.6494658E+02  0.7818608E-02  0.1378173E+00
         -2   -1    0    0  501    0 -0.00000000000E+00  0.00000000000E+00  0.78698997461E+01  0.78699001592E+01  0.25500000000E-02 0. -1.
          2   -1    0    0    0  501  0.00000000000E+00 -0.00000000000E+00 -0.13399336798E+03  0.13399336801E+03  0.25500000000E-02 0. -1.
          2    1    1    2    0  502  0.31263822005E+02  0.29797031580E+01 -0.81101678102E+02  0.86970037339E+02  0.25500000000E-02 0. -1.
         -2    1    1    2  502    0 -0.31263822005E+02 -0.29797031580E+01 -0.45021790136E+02  0.54893230829E+02  0.25500000000E-02 0. -1.
<mgrwt>
<rscale>  0 0.64946575E+02</rscale>
<asrwt>0</asrwt>
<pdfrwt beam="2">  1        2 0.20614363E-01 0.64946575E+02</pdfrwt>
<pdfrwt beam="1">  1       -2 0.12107539E-02 0.64946575E+02</pdfrwt>
<totfact> 0.33220940E+05</totfact>
</mgrwt>
</event>
<event>
 4    1  0.4635140E-002  0.6038142E+02  0.7818608E-02  0.1396238E+00
         -2   -1    0    0  501    0 -0.00000000000E+00  0.00000000000E+00  0.47918151162E+02  0.47918151230E+02  0.25500000000E-02 0.  1.
          2   -1    0    0    0  501  0.00000000000E+00 -0.00000000000E+00 -0.19021581738E+02  0.19021581909E+02  0.25500000000E-02 0.  1.
          2    1    1    2    0  502 -0.14965380989E+02  0.23626983219E+02  0.18430835415E+01  0.28028448541E+02  0.25500000000E-02 0.  1.
         -2    1    1    2  502    0  0.14965380989E+02 -0.23626983219E+02  0.27053485882E+02  0.38911284598E+02  0.25500000000E-02 0.  1.
<mgrwt>
<rscale>  0 0.60381422E+02</rscale>
<asrwt>0</asrwt>
<pdfrwt beam="2">  1        2 0.29263972E-02 0.60381422E+02</pdfrwt>
<pdfrwt beam="1">  1       -2 0.73720233E-02 0.60381422E+02</pdfrwt>
<totfact> 0.26103987E+05</totfact>
</mgrwt>
</event>
<event>
 4    1  0.4635140E-002  0.5315801E+02  0.7818608E-02  0.1429016E+00
         -2   -1    0    0  501    0 -0.00000000000E+00  0.00000000000E+00  0.91762079751E+00  0.91762434063E+00  0.25500000000E-02 0.  1.
          2   -1    0    0    0  501  0.00000000000E+00 -0.00000000000E+00 -0.76986292691E+03  0.76986292691E+03  0.25500000000E-02 0.  1.
          2    1    1    2    0  502 -0.19358490430E+02  0.18150592355E+02 -0.40621480680E+03  0.40708066083E+03  0.25500000000E-02 0.  1.
         -2    1    1    2  502    0  0.19358490430E+02 -0.18150592355E+02 -0.36273049931E+03  0.36369989042E+03  0.25500000000E-02 0.  1.
<mgrwt>
<rscale>  0 0.53158014E+02</rscale>
<asrwt>0</asrwt>
<pdfrwt beam="2">  1        2 0.11843993E+00 0.53158014E+02</pdfrwt>
<pdfrwt beam="1">  1       -2 0.14117332E-03 0.53158014E+02</pdfrwt>
<totfact> 0.96413263E+05</totfact>
</mgrwt>
</event>
<event>
 4    1  0.4635140E-002  0.6372946E+02  0.7818608E-02  0.1382815E+00
         -2   -1    0    0  501    0 -0.00000000000E+00  0.00000000000E+00  0.42230828674E+00  0.42231598543E+00  0.25500000000E-02 0.  1.
          2   -1    0    0    0  501  0.00000000000E+00 -0.00000000000E+00 -0.24042905311E+04  0.24042905311E+04  0.25500000000E-02 0.  1.
          2    1    1    2    0  502 -0.27761937615E+02  0.15552469792E+02 -0.12645821503E+04  0.12649824581E+04  0.25500000000E-02 0.  1.
         -2    1    1    2  502    0  0.27761937615E+02 -0.15552469792E+02 -0.11392860725E+04  0.11397303890E+04  0.25500000000E-02 0.  1.
<mgrwt>
<rscale>  0 0.63729462E+02</rscale>
<asrwt>0</asrwt>
<pdfrwt beam="2">  1        2 0.36987989E+00 0.63729462E+02</pdfrwt>
<pdfrwt beam="1">  1       -2 0.64973023E-04 0.63729462E+02</pdfrwt>
<totfact> 0.40205260E+05</totfact>
</mgrwt>
</event>
<event>
 4    1  0.4635140E-002  0.5631358E+02  0.7818608E-02  0.1413987E+00
          2   -1    0    0    0  501  0.00000000000E+00  0.00000000000E+00  0.48096279155E+03  0.48096279155E+03  0.25500000000E-02 0.  1.
         -2   -1    0    0  501    0 -0.00000000000E+00 -0.00000000000E+00 -0.16483692213E+01  0.16483711937E+01  0.25500000000E-02 0.  1.
          2    1    1    2    0  502  0.16938444897E+02  0.13976641396E+02  0.88632457435E+02  0.91312485114E+02  0.25500000000E-02 0. -1.
         -2    1    1    2  502    0 -0.16938444897E+02 -0.13976641396E+02  0.39068196489E+03  0.39129867763E+03  0.25500000000E-02 0. -1.
<mgrwt>
<rscale>  0 0.56313577E+02</rscale>
<asrwt>0</asrwt>
<pdfrwt beam="1">  1        2 0.73994269E-01 0.56313577E+02</pdfrwt>
<pdfrwt beam="2">  1       -2 0.25359544E-03 0.56313577E+02</pdfrwt>
<totfact> 0.73767651E+05</totfact>
</mgrwt>
</event>
<event>
 4    1  0.4635140E-002  0.1057768E+03  0.7818608E-02  0.1268597E+00
         -2   -1    0    0  501    0 -0.00000000000E+00  0.00000000000E+00  0.13772113792E+02  0.13772114028E+02  0.25500000000E-02 0. -1.
          2   -1    0    0    0  501  0.00000000000E+00 -0.00000000000E+00 -0.20310485400E+03  0.20310485401E+03  0.25500000000E-02 0. -1.
          2    1    1    2    0  502  0.16459106642E+02  0.48913562446E+02 -0.11837796600E+03  0.12913861399E+03  0.25500000000E-02 0. -1.
         -2    1    1    2  502    0 -0.16459106642E+02 -0.48913562446E+02 -0.70954774206E+02  0.87738354052E+02  0.25500000000E-02 0. -1.
<mgrwt>
<rscale>  0 0.10577681E+03</rscale>
<asrwt>0</asrwt>
<pdfrwt beam="2">  1        2 0.31246899E-01 0.10577681E+03</pdfrwt>
<pdfrwt beam="1">  1       -2 0.21187869E-02 0.10577681E+03</pdfrwt>
<totfact> 0.10389772E+05</totfact>
</mgrwt>
</event>
<event>
 4    1  0.4635140E-002  0.4697640E+02  0.7818608E-02  0.1462367E+00
         -2   -1    0    0  501    0 -0.00000000000E+00  0.00000000000E+00  0.24763138553E+00  0.24764451458E+00  0.25500000000E-02 0.  1.
          2   -1    0    0    0  501  0.00000000000E+00 -0.00000000000E+00 -0.22278314478E+04  0.22278314478E+04  0.25500000000E-02 0.  1.
          2    1    1    2    0  502  0.39070804475E+01  0.21161565206E+02 -0.15602832215E+04  0.15604316097E+04  0.25500000000E-02 0. -1.
         -2    1    1    2  502    0 -0.39070804475E+01 -0.21161565206E+02 -0.66730059486E+03  0.66764748260E+03  0.25500000000E-02 0. -1.
<mgrwt>
<rscale>  0 0.46976403E+02</rscale>
<asrwt>0</asrwt>
<pdfrwt beam="2">  1        2 0.34272725E+00 0.46976403E+02</pdfrwt>
<pdfrwt beam="1">  1       -2 0.38099930E-04 0.46976403E+02</pdfrwt>
<totfact> 0.96149453E+05</totfact>
</mgrwt>
</event>
<event>
 4    1  0.4635140E-002  0.4233832E+02  0.7818608E-02  0.1491677E+00
          2   -1    0    0    0  501  0.00000000000E+00  0.00000000000E+00  0.44412530846E+01  0.44412538166E+01  0.25500000000E-02 0. -1.
         -2   -1    0    0  501    0 -0.00000000000E+00 -0.00000000000E+00 -0.10090244269E+03  0.10090244273E+03  0.25500000000E-02 0. -1.
          2    1    1    2    0  502 -0.15254376138E+02  0.13013042418E+02 -0.31337227105E+02  0.37202917540E+02  0.25500000000E-02 0. -1.
         -2    1    1    2  502    0  0.15254376138E+02 -0.13013042418E+02 -0.65123962505E+02  0.68140779004E+02  0.25500000000E-02 0. -1.
<mgrwt>
<rscale>  0 0.42338320E+02</rscale>
<asrwt>0</asrwt>
<pdfrwt beam="1">  1        2 0.68326984E-03 0.42338320E+02</pdfrwt>
<pdfrwt beam="2">  1       -2 0.15523451E-01 0.42338320E+02</pdfrwt>
<totfact> 0.52708300E+05</totfact>
</mgrwt>
</event>
<event>
 4    1  0.4635140E-002  0.7546740E+02  0.7818608E-02  0.1342430E+00
          2   -1    0    0    0  501  0.00000000000E+00  0.00000000000E+00  0.26981750022E+02  0.26981750143E+02  0.25500000000E-02 0.  1.
         -2   -1    0    0  501    0 -0.00000000000E+00 -0.00000000000E+00 -0.52770186529E+02  0.52770186591E+02  0.25500000000E-02 0.  1.
          2    1    1    2    0  502  0.17185965821E+02  0.33322863260E+02 -0.17385361602E+02  0.41328216047E+02  0.25500000000E-02 0.  1.
         -2    1    1    2  502    0 -0.17185965821E+02 -0.33322863260E+02 -0.84030749049E+01  0.38423720687E+02  0.25500000000E-02 0.  1.
<mgrwt>
<rscale>  0 0.75467397E+02</rscale>
<asrwt>0</asrwt>
<pdfrwt beam="1">  1        2 0.41510385E-02 0.75467397E+02</pdfrwt>
<pdfrwt beam="2">  1       -2 0.81184903E-02 0.75467397E+02</pdfrwt>
<totfact> 0.14951776E+05</totfact>
</mgrwt>
</event>
<event>
 4    1  0.4635140E-002  0.5883868E+02  0.7818608E-02  0.1402771E+00
          2   -1    0    0    0  501  0.00000000000E+00  0.00000000000E+00  0.20994521313E+03  0.20994521314E+03  0.25500000000E-02 0. -1.
         -2   -1    0    0  501    0 -0.00000000000E+00 -0.00000000000E+00 -0.41224926389E+01  0.41224934276E+01  0.25500000000E-02 0. -1.
          2    1    1    2    0  502  0.24462362347E+02 -0.69206418654E+00  0.16231700128E+03  0.16415143933E+03  0.25500000000E-02 0.  1.
         -2    1    1    2  502    0 -0.24462362347E+02  0.69206418654E+00  0.43505719209E+02  0.49916267237E+02  0.25500000000E-02 0.  1.
<mgrwt>
<rscale>  0 0.58838684E+02</rscale>
<asrwt>0</asrwt>
<pdfrwt beam="1">  1        2 0.32299266E-01 0.58838684E+02</pdfrwt>
<pdfrwt beam="2">  1       -2 0.63422965E-03 0.58838684E+02</pdfrwt>
<totfact> 0.49586805E+05</totfact>
</mgrwt>
</event>
<event>
 4    1  0.4635140E-002  0.4546333E+02  0.7818608E-02  0.1471470E+00
         -2   -1    0    0  501    0 -0.00000000000E+00  0.00000000000E+00  0.90105678948E+01  0.90105682557E+01  0.25500000000E-02 0. -1.
          2   -1    0    0    0  501  0.00000000000E+00 -0.00000000000E+00 -0.57346939234E+02  0.57346939291E+02  0.25500000000E-02 0. -1.
          2    1    1    2    0  502  0.17082790755E+02 -0.11995786935E+02 -0.37305071347E+02  0.42747970699E+02  0.25500000000E-02 0. -1.
         -2    1    1    2  502    0 -0.17082790755E+02  0.11995786935E+02 -0.11031299992E+02  0.23609536848E+02  0.25500000000E-02 0. -1.
<mgrwt>
<rscale>  0 0.45463326E+02</rscale>
<asrwt>0</asrwt>
<pdfrwt beam="2">  1        2 0.88226059E-02 0.45463326E+02</pdfrwt>
<pdfrwt beam="1">  1       -2 0.13862413E-02 0.45463326E+02</pdfrwt>
<totfact> 0.67131284E+05</totfact>
</mgrwt>
</event>
<event>
 4    1  0.4635140E-002  0.7714151E+02  0.7818608E-02  0.1337365E+00
          2   -1    0    0    0  501  0.00000000000E+00  0.00000000000E+00  0.20438624118E+02  0.20438624277E+02  0.25500000000E-02 0.  1.
         -2   -1    0    0  501    0 -0.00000000000E+00 -0.00000000000E+00 -0.72788806415E+02  0.72788806459E+02  0.25500000000E-02 0.  1.
          2    1    1    2    0  502 -0.37910068067E+02  0.48763410132E+01 -0.19924424031E+02  0.43103765984E+02  0.25500000000E-02 0.  1.
         -2    1    1    2  502    0  0.37910068067E+02 -0.48763410132E+01 -0.32425758266E+02  0.50123664752E+02  0.25500000000E-02 0.  1.
<mgrwt>
<rscale>  0 0.77141508E+02</rscale>
<asrwt>0</asrwt>
<pdfrwt beam="1">  1        2 0.31444038E-02 0.77141508E+02</pdfrwt>
<pdfrwt beam="2">  1       -2 0.11198278E-01 0.77141508E+02</pdfrwt>
<totfact> 0.13146188E+05</totfact>
</mgrwt>
</event>
<event>
 4    1  0.4635140E-002  0.7430995E+02  0.7818608E-02  0.1346021E+00
         -2   -1    0    0  501    0 -0.00000000000E+00  0.00000000000E+00  0.12272167691E+01  0.12272194184E+01  0.25500000000E-02 0. -1.
          2   -1    0    0    0  501  0.00000000000E+00 -0.00000000000E+00 -0.11248954066E+04  0.11248954066E+04  0.25500000000E-02 0. -1.
          2    1    1    2    0  502 -0.21054613547E+02 -0.14561034371E+02 -0.96992706287E+03  0.97026482352E+03  0.25500000000E-02 0.  1.
         -2    1    1    2  502    0  0.21054613547E+02  0.14561034371E+02 -0.15374112695E+03  0.15585780248E+03  0.25500000000E-02 0.  1.
<mgrwt>
<rscale>  0 0.74309945E+02</rscale>
<asrwt>0</asrwt>
<pdfrwt beam="2">  1        2 0.17306001E+00 0.74309945E+02</pdfrwt>
<pdfrwt beam="1">  1       -2 0.18880368E-03 0.74309945E+02</pdfrwt>
<totfact> 0.42594555E+05</totfact>
</mgrwt>
</event>
<event>
 4    1  0.4635140E-002  0.6463553E+02  0.7818608E-02  0.1379348E+00
         -2   -1    0    0  501    0 -0.00000000000E+00  0.00000000000E+00  0.55624776391E+00  0.55625360885E+00  0.25500000000E-02 0.  1.
          2   -1    0    0    0  501  0.00000000000E+00 -0.00000000000E+00 -0.18776390174E+04  0.18776390174E+04  0.25500000000E-02 0.  1.
          2    1    1    2    0  502 -0.10265748854E+02  0.26448826926E+02 -0.48883091013E+03  0.48965353542E+03  0.25500000000E-02 0.  1.
         -2    1    1    2  502    0  0.10265748854E+02 -0.26448826926E+02 -0.13882518595E+04  0.13885417356E+04  0.25500000000E-02 0.  1.
<mgrwt>
<rscale>  0 0.64635532E+02</rscale>
<asrwt>0</asrwt>
<pdfrwt beam="2">  1        2 0.28886247E+00 0.64635532E+02</pdfrwt>
<pdfrwt beam="1">  1       -2 0.85578532E-04 0.64635532E+02</pdfrwt>
<totfact> 0.50767419E+05</totfact>
</mgrwt>
</event>
<event>
 4    1  0.4635140E-002  0.6975263E+02  0.7818608E-02  0.1360936E+00
         -2   -1    0    0  501    0 -0.00000000000E+00  0.00000000000E+00  0.27714750143E+02  0.27714750260E+02  0.25500000000E-02 0.  1.
          2   -1    0    0    0  501  0.00000000000E+00 -0.00000000000E+00 -0.43888440766E+02  0.43888440840E+02  0.25500000000E-02 0.  1.
          2    1    1    2    0  502 -0.80053655924E+01 -0.26958555600E+02  0.13088254570E+02  0.31018575281E+02  0.25500000000E-02 0.  1.
         -2    1    1    2  502    0  0.80053655924E+01  0.26958555600E+02 -0.29261945193E+02  0.40584615820E+02  0.25500000000E-02 0.  1.
<mgrwt>
<rscale>  0 0.69752625E+02</rscale>
<asrwt>0</asrwt>
<pdfrwt beam="2">  1        2 0.67520678E-02 0.69752625E+02</pdfrwt>
<pdfrwt beam="1">  1       -2 0.42638077E-02 0.69752625E+02</pdfrwt>
<totfact> 0.20688717E+05</totfact>
</mgrwt>
</event>
<event>
 4    1  0.4635140E-002  0.5741593E+02  0.7818608E-02  0.1409007E+00
          2   -1    0    0    0  501  0.00000000000E+00  0.00000000000E+00  0.30668169779E+03  0.30668169780E+03  0.25500000000E-02 0.  1.
         -2   -1    0    0  501    0 -0.00000000000E+00 -0.00000000000E+00 -0.26873045330E+01  0.26873057429E+01  0.25500000000E-02 0.  1.
          2    1    1    2    0  502 -0.14800698115E+02 -0.21447497930E+02  0.87094115136E+02  0.90908969470E+02  0.25500000000E-02 0.  1.
         -2    1    1    2  502    0  0.14800698115E+02  0.21447497930E+02  0.21690027812E+03  0.21846003407E+03  0.25500000000E-02 0.  1.
<mgrwt>
<rscale>  0 0.57415932E+02</rscale>
<asrwt>0</asrwt>
<pdfrwt beam="1">  1        2 0.47181768E-01 0.57415932E+02</pdfrwt>
<pdfrwt beam="2">  1       -2 0.41343184E-03 0.57415932E+02</pdfrwt>
<totfact> 0.60245337E+05</totfact>
</mgrwt>
</event>
<event>
 4    1  0.4635140E-002  0.5326551E+02  0.7818608E-02  0.1428484E+00
          2   -1    0    0    0  501  0.00000000000E+00  0.00000000000E+00  0.31121234682E+03  0.31121234683E+03  0.25500000000E-02 0. -1.
         -2   -1    0    0  501    0 -0.00000000000E+00 -0.00000000000E+00 -0.22791623136E+01  0.22791637401E+01  0.25500000000E-02 0. -1.
          2    1    1    2    0  502 -0.20241850969E+02 -0.15835424790E+02  0.19558498620E+03  0.19726626687E+03  0.25500000000E-02 0. -1.
         -2    1    1    2  502    0  0.20241850969E+02  0.15835424790E+02  0.11334819831E+03  0.11622524371E+03  0.25500000000E-02 0. -1.
<mgrwt>
<rscale>  0 0.53265511E+02</rscale>
<asrwt>0</asrwt>
<pdfrwt beam="1">  1        2 0.47878782E-01 0.53265511E+02</pdfrwt>
<pdfrwt beam="2">  1       -2 0.35064076E-03 0.53265511E+02</pdfrwt>
<totfact> 0.73158529E+05</totfact>
</mgrwt>
</event>
<event>
 4    1  0.4635140E-002  0.6006237E+02  0.7818608E-02  0.1397570E+00
          2   -1    0    0    0  501  0.00000000000E+00  0.00000000000E+00  0.15939530471E+04  0.15939530471E+04  0.25500000000E-02 0.  1.
         -2   -1    0    0  501    0 -0.00000000000E+00 -0.00000000000E+00 -0.56580561401E+00  0.56581136021E+00  0.25500000000E-02 0.  1.
          2    1    1    2    0  502 -0.25647286523E+02 -0.15621758071E+02  0.80260176381E+03  0.80316337933E+03  0.25500000000E-02 0. -1.
         -2    1    1    2  502    0  0.25647286523E+02  0.15621758071E+02  0.79078547766E+03  0.79135547911E+03  0.25500000000E-02 0. -1.
<mgrwt>
<rscale>  0 0.60062373E+02</rscale>
<asrwt>0</asrwt>
<pdfrwt beam="1">  1        2 0.24522196E+00 0.60062373E+02</pdfrwt>
<pdfrwt beam="2">  1       -2 0.87048023E-04 0.60062373E+02</pdfrwt>
<totfact> 0.67563989E+05</totfact>
</mgrwt>
</event>
<event>
 4    1  0.4635140E-002  0.4931364E+02  0.7818608E-02  0.1449079E+00
         -2   -1    0    0  501    0 -0.00000000000E+00  0.00000000000E+00  0.96207690158E+03  0.96207690158E+03  0.25500000000E-02 0.  1.
          2   -1    0    0    0  501  0.00000000000E+00 -0.00000000000E+00 -0.63192057551E+00  0.63192572052E+00  0.25500000000E-02 0.  1.
          2    1    1    2    0  502  0.13014317244E+02 -0.16919690415E+02  0.23979156719E+03  0.24073978499E+03  0.25500000000E-02 0. -1.
         -2    1    1    2  502    0 -0.13014317244E+02  0.16919690415E+02  0.72165341382E+03  0.72196904231E+03  0.25500000000E-02 0. -1.
<mgrwt>
<rscale>  0 0.49313636E+02</rscale>
<asrwt>0</asrwt>
<pdfrwt beam="2">  1        2 0.97219550E-04 0.49313636E+02</pdfrwt>
<pdfrwt beam="1">  1       -2 0.14801091E+00 0.49313636E+02</pdfrwt>
<totfact> 0.92343151E+04</totfact>
</mgrwt>
</event>
<event>
 4    1  0.4635140E-002  0.9824647E+02  0.7818608E-02  0.1284027E+00
         -2   -1    0    0  501    0 -0.00000000000E+00  0.00000000000E+00  0.72846497931E+03  0.72846497931E+03  0.25500000000E-02 0. -1.
          2   -1    0    0    0  501  0.00000000000E+00 -0.00000000000E+00 -0.33125705805E+01  0.33125715619E+01  0.25500000000E-02 0. -1.
          2    1    1    2    0  502  0.43608021380E-01  0.25027400102E+02  0.47735905478E+02  0.53898880654E+02  0.25500000000E-02 0.  1.
         -2    1    1    2  502    0 -0.43608021380E-01 -0.25027400102E+02  0.67741650325E+03  0.67787867022E+03  0.25500000000E-02 0.  1.
<mgrwt>
<rscale>  0 0.98246466E+02</rscale>
<asrwt>0</asrwt>
<pdfrwt beam="2">  1        2 0.50962643E-03 0.98246466E+02</pdfrwt>
<pdfrwt beam="1">  1       -2 0.11207151E+00 0.98246466E+02</pdfrwt>
<totfact> 0.21542620E+04</totfact>
</mgrwt>
</event>
<event>
 4    1  0.4635140E-002  0.4573145E+02  0.7818608E-02  0.1469826E+00
          2   -1    0    0    0  501  0.00000000000E+00  0.00000000000E+00  0.31126572227E+02  0.31126572331E+02  0.25500000000E-02 0.  1.
         -2   -1    0    0  501    0 -0.00000000000E+00 -0.00000000000E+00 -0.16797270901E+02  0.16797271094E+02  0.25500000000E-02 0.  1.
          2    1    1    2    0  502 -0.18865038427E+02 -0.12902783124E+02  0.64462346252E+01  0.23747114236E+02  0.25500000000E-02 0.  1.
         -2    1    1    2  502    0  0.18865038427E+02  0.12902783124E+02  0.78830667007E+01  0.24176729189E+02  0.25500000000E-02 0.  1.
<mgrwt>
<rscale>  0 0.45731454E+02</rscale>
<asrwt>0</asrwt>
<pdfrwt beam="1">  1        2 0.47887034E-02 0.45731454E+02</pdfrwt>
<pdfrwt beam="2">  1       -2 0.25841956E-02 0.45731454E+02</pdfrwt>
<totfact> 0.59523529E+05</totfact>
</mgrwt>
</event>
<event>
 4    1  0.4635140E-002  0.5849106E+02  0.7818608E-02  0.1404275E+00
          2   -1    0    0    0  501  0.00000000000E+00  0.00000000000E+00  0.10338858470E+04  0.10338858470E+04  0.25500000000E-02 0. -1.
         -2   -1    0    0  501    0 -0.00000000000E+00 -0.00000000000E+00 -0.82726623045E+00  0.82727016055E+00  0.25500000000E-02 0. -1.
          2    1    1    2    0  502 -0.27717338387E+02 -0.13304559147E+01  0.67989235794E+03  0.68045840384E+03  0.25500000000E-02 0. -1.
         -2    1    1    2  502    0  0.27717338387E+02  0.13304559147E+01  0.35316622280E+03  0.35425471330E+03  0.25500000000E-02 0. -1.
<mgrwt>
<rscale>  0 0.58491055E+02</rscale>
<asrwt>0</asrwt>
<pdfrwt beam="1">  1        2 0.15906020E+00 0.58491055E+02</pdfrwt>
<pdfrwt beam="2">  1       -2 0.12727136E-03 0.58491055E+02</pdfrwt>
<totfact> 0.78431833E+05</totfact>
</mgrwt>
</event>
<event>
 4    1  0.4635140E-002  0.7070911E+02  0.7818608E-02  0.1357698E+00
         -2   -1    0    0  501    0 -0.00000000000E+00  0.00000000000E+00  0.54262076675E+00  0.54262675847E+00  0.25500000000E-02 0.  1.
          2   -1    0    0    0  501  0.00000000000E+00 -0.00000000000E+00 -0.23035200101E+04  0.23035200101E+04  0.25500000000E-02 0.  1.
          2    1    1    2    0  502  0.31260643949E+02  0.94374315397E+01 -0.15930758004E+04  0.15934104301E+04  0.25500000000E-02 0.  1.
         -2    1    1    2  502    0 -0.31260643949E+02 -0.94374315397E+01 -0.70990158889E+03  0.71065220670E+03  0.25500000000E-02 0.  1.
<mgrwt>
<rscale>  0 0.70709114E+02</rscale>
<asrwt>0</asrwt>
<pdfrwt beam="2">  1        2 0.35437986E+00 0.70709114E+02</pdfrwt>
<pdfrwt beam="1">  1       -2 0.83482423E-04 0.70709114E+02</pdfrwt>
<totfact> 0.32658831E+05</totfact>
</mgrwt>
</event>
<event>
 4    1  0.4635140E-002  0.5767245E+02  0.7818608E-02  0.1407867E+00
          2   -1    0    0    0  501  0.00000000000E+00  0.00000000000E+00  0.15433092447E+04  0.15433092447E+04  0.25500000000E-02 0.  1.
         -2   -1    0    0  501    0 -0.00000000000E+00 -0.00000000000E+00 -0.53879228174E+00  0.53879831604E+00  0.25500000000E-02 0.  1.
          2    1    1    2    0  502 -0.21713549816E+02  0.18450917566E+02  0.88993751397E+03  0.89039356095E+03  0.25500000000E-02 0. -1.
         -2    1    1    2  502    0  0.21713549816E+02 -0.18450917566E+02  0.65283293843E+03  0.65345448205E+03  0.25500000000E-02 0. -1.
<mgrwt>
<rscale>  0 0.57672446E+02</rscale>
<asrwt>0</asrwt>
<pdfrwt beam="1">  1        2 0.23742993E+00 0.57672446E+02</pdfrwt>
<pdfrwt beam="2">  1       -2 0.82892373E-04 0.57672446E+02</pdfrwt>
<totfact> 0.75907599E+05</totfact>
</mgrwt>
</event>
<event>
 4    1  0.4635140E-002  0.4628133E+02  0.7818608E-02  0.1466498E+00
         -2   -1    0    0  501    0 -0.00000000000E+00  0.00000000000E+00  0.60451129933E+00  0.60451667762E+00  0.25500000000E-02 0.  1.
          2   -1    0    0    0  501  0.00000000000E+00 -0.00000000000E+00 -0.88581951923E+03  0.88581951923E+03  0.25500000000E-02 0.  1.
          2    1    1    2    0  502  0.19733697522E+02  0.53748532106E+01 -0.64993980241E+03  0.65026152787E+03  0.25500000000E-02 0.  1.
         -2    1    1    2  502    0 -0.19733697522E+02 -0.53748532106E+01 -0.23527520552E+03  0.23616250804E+03  0.25500000000E-02 0.  1.
<mgrwt>
<rscale>  0 0.46281326E+02</rscale>
<asrwt>0</asrwt>
<pdfrwt beam="2">  1        2 0.13627889E+00 0.46281326E+02</pdfrwt>
<pdfrwt beam="1">  1       -2 0.93002861E-04 0.46281326E+02</pdfrwt>
<totfact> 0.13860030E+06</totfact>
</mgrwt>
</event>
<event>
 4    1  0.4635140E-002  0.9309821E+02  0.7818608E-02  0.1295518E+00
          2   -1    0    0    0  501  0.00000000000E+00  0.00000000000E+00  0.13383383639E+03  0.13383383642E+03  0.25500000000E-02 0. -1.
         -2   -1    0    0  501    0 -0.00000000000E+00 -0.00000000000E+00 -0.16190369341E+02  0.16190369542E+02  0.25500000000E-02 0. -1.
          2    1    1    2    0  502 -0.96505343910E+01  0.44285025081E+02  0.41727854252E+02  0.61607711266E+02  0.25500000000E-02 0. -1.
         -2    1    1    2  502    0  0.96505343910E+01 -0.44285025081E+02  0.75915612801E+02  0.88416494694E+02  0.25500000000E-02 0. -1.
<mgrwt>
<rscale>  0 0.93098212E+02</rscale>
<asrwt>0</asrwt>
<pdfrwt beam="1">  1        2 0.20589822E-01 0.93098212E+02</pdfrwt>
<pdfrwt beam="2">  1       -2 0.24908260E-02 0.93098212E+02</pdfrwt>
<totfact> 0.12711572E+05</totfact>
</mgrwt>
</event>
<event>
 4    1  0.4635140E-002  0.4926190E+02  0.7818608E-02  0.1449364E+00
         -2   -1    0    0  501    0 -0.00000000000E+00  0.00000000000E+00  0.41690292353E+01  0.41690300152E+01  0.25500000000E-02 0. -1.
          2   -1    0    0    0  501  0.00000000000E+00 -0.00000000000E+00 -0.14552157724E+03  0.14552157726E+03  0.25500000000E-02 0. -1.
          2    1    1    2    0  502  0.21959708042E+02 -0.11152444096E+02 -0.69827746239E+02  0.74044040529E+02  0.25500000000E-02 0.  1.
         -2    1    1    2  502    0 -0.21959708042E+02  0.11152444096E+02 -0.71524801763E+02  0.75646566746E+02  0.25500000000E-02 0.  1.
<mgrwt>
<rscale>  0 0.49261903E+02</rscale>
<asrwt>0</asrwt>
<pdfrwt beam="2">  1        2 0.22387931E-01 0.49261903E+02</pdfrwt>
<pdfrwt beam="1">  1       -2 0.64138929E-03 0.49261903E+02</pdfrwt>
<totfact> 0.69075723E+05</totfact>
</mgrwt>
</event>
<event>
 4    1  0.4635140E-002  0.5264042E+02  0.7818608E-02  0.1431599E+00
          2   -1    0    0    0  501  0.00000000000E+00  0.00000000000E+00  0.10835068780E+04  0.10835068780E+04  0.25500000000E-02 0.  1.
         -2   -1    0    0  501    0 -0.00000000000E+00 -0.00000000000E+00 -0.63935981870E+00  0.63936490385E+00  0.25500000000E-02 0.  1.
          2    1    1    2    0  502  0.23726628702E+02  0.40464484820E+01  0.32208940823E+03  0.32298748204E+03  0.25500000000E-02 0. -1.
         -2    1    1    2  502    0 -0.23726628702E+02 -0.40464484820E+01  0.76077810995E+03  0.76115876086E+03  0.25500000000E-02 0. -1.
<mgrwt>
<rscale>  0 0.52640422E+02</rscale>
<asrwt>0</asrwt>
<pdfrwt beam="1">  1        2 0.16669444E+00 0.52640422E+02</pdfrwt>
<pdfrwt beam="2">  1       -2 0.98362809E-04 0.52640422E+02</pdfrwt>
<totfact> 0.10204518E+06</totfact>
</mgrwt>
</event>
<event>
 4    1  0.4635140E-002  0.7642053E+02  0.7818608E-02  0.1339528E+00
         -2   -1    0    0  501    0 -0.00000000000E+00  0.00000000000E+00  0.16522447599E+01  0.16522467277E+01  0.25500000000E-02 0. -1.
          2   -1    0    0    0  501  0.00000000000E+00 -0.00000000000E+00 -0.88366053967E+03  0.88366053967E+03  0.25500000000E-02 0. -1.
          2    1    1    2    0  502  0.93923817954E+01 -0.21014063840E+02 -0.79433270672E+03  0.79466612907E+03  0.25500000000E-02 0.  1.
         -2    1    1    2  502    0 -0.93923817954E+01  0.21014063840E+02 -0.87675588183E+02  0.90646657327E+02  0.25500000000E-02 0.  1.
<mgrwt>
<rscale>  0 0.76420530E+02</rscale>
<asrwt>0</asrwt>
<pdfrwt beam="2">  1        2 0.13594740E+00 0.76420530E+02</pdfrwt>
<pdfrwt beam="1">  1       -2 0.25419236E-03 0.76420530E+02</pdfrwt>
<totfact> 0.39225387E+05</totfact>
</mgrwt>
</event>
<event>
 4    1  0.4635140E-002  0.4079856E+02  0.7818608E-02  0.1502416E+00
         -2   -1    0    0  501    0 -0.00000000000E+00  0.00000000000E+00  0.45871935101E+00  0.45872643862E+00  0.25500000000E-02 0. -1.
          2   -1    0    0    0  501  0.00000000000E+00 -0.00000000000E+00 -0.90715029150E+03  0.90715029150E+03  0.25500000000E-02 0. -1.
          2    1    1    2    0  502  0.11551329375E+02  0.16344199370E+02 -0.36558062889E+03  0.36612806815E+03  0.25500000000E-02 0. -1.
         -2    1    1    2  502    0 -0.11551329375E+02 -0.16344199370E+02 -0.54111094326E+03  0.54148094979E+03  0.25500000000E-02 0. -1.
<mgrwt>
<rscale>  0 0.40798559E+02</rscale>
<asrwt>0</asrwt>
<pdfrwt beam="2">  1        2 0.13956015E+00 0.40798559E+02</pdfrwt>
<pdfrwt beam="1">  1       -2 0.70573480E-04 0.40798559E+02</pdfrwt>
<totfact> 0.18871639E+06</totfact>
</mgrwt>
</event>
<event>
 4    1  0.4635140E-002  0.4128938E+02  0.7818608E-02  0.1498932E+00
          2   -1    0    0    0  501  0.00000000000E+00  0.00000000000E+00  0.51636924134E+03  0.51636924134E+03  0.25500000000E-02 0. -1.
         -2   -1    0    0  501    0 -0.00000000000E+00 -0.00000000000E+00 -0.82538255492E+00  0.82538649399E+00  0.25500000000E-02 0. -1.
          2    1    1    2    0  502 -0.19658953468E+02  0.62228914472E+01  0.27032522574E+03  0.27111054297E+03  0.25500000000E-02 0. -1.
         -2    1    1    2  502    0  0.19658953468E+02 -0.62228914472E+01  0.24521863304E+03  0.24608408487E+03  0.25500000000E-02 0. -1.
<mgrwt>
<rscale>  0 0.41289378E+02</rscale>
<asrwt>0</asrwt>
<pdfrwt beam="1">  1        2 0.79441537E-01 0.41289378E+02</pdfrwt>
<pdfrwt beam="2">  1       -2 0.12698205E-03 0.41289378E+02</pdfrwt>
<totfact> 0.16195639E+06</totfact>
</mgrwt>
</event>
<event>
 4    1  0.4635140E-002  0.4276014E+02  0.7818608E-02  0.1488829E+00
          2   -1    0    0    0  501  0.00000000000E+00  0.00000000000E+00  0.98667887374E+02  0.98667887407E+02  0.25500000000E-02 0. -1.
         -2   -1    0    0  501    0 -0.00000000000E+00 -0.00000000000E+00 -0.46327868469E+01  0.46327875487E+01  0.25500000000E-02 0. -1.
          2    1    1    2    0  502 -0.20352175372E+02  0.33339465245E+01  0.60636649998E+02  0.64047869374E+02  0.25500000000E-02 0.  1.
         -2    1    1    2  502    0  0.20352175372E+02 -0.33339465245E+01  0.33398450529E+02  0.39252805582E+02  0.25500000000E-02 0.  1.
<mgrwt>
<rscale>  0 0.42760137E+02</rscale>
<asrwt>0</asrwt>
<pdfrwt beam="1">  1        2 0.15179675E-01 0.42760137E+02</pdfrwt>
<pdfrwt beam="2">  1       -2 0.71273648E-03 0.42760137E+02</pdfrwt>
<totfact> 0.88321099E+05</totfact>
</mgrwt>
</event>
<event>
 4    1  0.4635140E-002  0.8386196E+02  0.7818608E-02  0.1318436E+00
          2   -1    0    0    0  501  0.00000000000E+00  0.00000000000E+00  0.43033863769E+02  0.43033863845E+02  0.25500000000E-02 0. -1.
         -2   -1    0    0  501    0 -0.00000000000E+00 -0.00000000000E+00 -0.40856359646E+02  0.40856359725E+02  0.25500000000E-02 0. -1.
          2    1    1    2    0  502 -0.30208706385E+02  0.28809101101E+02  0.50494763202E+01  0.42047918680E+02  0.25500000000E-02 0. -1.
         -2    1    1    2  502    0  0.30208706385E+02 -0.28809101101E+02 -0.28719721966E+01  0.41842304890E+02  0.25500000000E-02 0. -1.
<mgrwt>
<rscale>  0 0.83861959E+02</rscale>
<asrwt>0</asrwt>
<pdfrwt beam="1">  1        2 0.66205944E-02 0.83861959E+02</pdfrwt>
<pdfrwt beam="2">  1       -2 0.62855938E-02 0.83861959E+02</pdfrwt>
<totfact> 0.12342169E+05</totfact>
</mgrwt>
</event>
<event>
 4    1  0.4635140E-002  0.9357694E+02  0.7818608E-02  0.1294414E+00
          2   -1    0    0    0  501  0.00000000000E+00  0.00000000000E+00  0.24914415364E+03  0.24914415366E+03  0.25500000000E-02 0. -1.
         -2   -1    0    0  501    0 -0.00000000000E+00 -0.00000000000E+00 -0.87867241662E+01  0.87867245362E+01  0.25500000000E-02 0. -1.
          2    1    1    2    0  502 -0.25592259246E+02 -0.36107876934E+02  0.16201885687E+03  0.16795491210E+03  0.25500000000E-02 0.  1.
         -2    1    1    2  502    0  0.25592259246E+02  0.36107876934E+02  0.78338572606E+02  0.89975966093E+02  0.25500000000E-02 0.  1.
<mgrwt>
<rscale>  0 0.93576942E+02</rscale>
<asrwt>0</asrwt>
<pdfrwt beam="1">  1        2 0.38329872E-01 0.93576942E+02</pdfrwt>
<pdfrwt beam="2">  1       -2 0.13518037E-02 0.93576942E+02</pdfrwt>
<totfact> 0.15635428E+05</totfact>
</mgrwt>
</event>
<event>
 4    1  0.4635140E-002  0.4441953E+02  0.7818608E-02  0.1477998E+00
         -2   -1    0    0  501    0 -0.00000000000E+00  0.00000000000E+00  0.15445791223E+01  0.15445812272E+01  0.25500000000E-02 0. -1.
          2   -1    0    0    0  501  0.00000000000E+00 -0.00000000000E+00 -0.31935779837E+03  0.31935779838E+03  0.25500000000E-02 0. -1.
          2    1    1    2    0  502 -0.20610197909E+02  0.84919830968E-01 -0.21869276795E+03  0.21966181787E+03  0.25500000000E-02 0.  1.
         -2    1    1    2  502    0  0.20610197909E+02 -0.84919830968E-01 -0.99120451302E+02  0.10124056174E+03  0.25500000000E-02 0.  1.
<mgrwt>
<rscale>  0 0.44419533E+02</rscale>
<asrwt>0</asrwt>
<pdfrwt beam="2">  1        2 0.49131917E-01 0.44419533E+02</pdfrwt>
<pdfrwt beam="1">  1       -2 0.23762797E-03 0.44419533E+02</pdfrwt>
<totfact> 0.11580174E+06</totfact>
</mgrwt>
</event>
<event>
 4    1  0.4635140E-002  0.5354498E+02  0.7818608E-02  0.1427108E+00
          2   -1    0    0    0  501  0.00000000000E+00  0.00000000000E+00  0.33194684575E+01  0.33194694370E+01  0.25500000000E-02 0. -1.
         -2   -1    0    0  501    0 -0.00000000000E+00 -0.00000000000E+00 -0.21592798093E+03  0.21592798094E+03  0.25500000000E-02 0. -1.
          2    1    1    2    0  502  0.26538221962E+02 -0.22475212993E+01 -0.95137331713E+02  0.98794941515E+02  0.25500000000E-02 0. -1.
         -2    1    1    2  502    0 -0.26538221962E+02  0.22475212993E+01 -0.11747118076E+03  0.12045250887E+03  0.25500000000E-02 0. -1.
<mgrwt>
<rscale>  0 0.53544980E+02</rscale>
<asrwt>0</asrwt>
<pdfrwt beam="1">  1        2 0.51068770E-03 0.53544980E+02</pdfrwt>
<pdfrwt beam="2">  1       -2 0.33219679E-01 0.53544980E+02</pdfrwt>
<totfact> 0.23052973E+05</totfact>
</mgrwt>
</event>
<event>
 4    1  0.4635140E-002  0.1798600E+03  0.7818608E-02  0.1167939E+00
         -2   -1    0    0  501    0 -0.00000000000E+00  0.00000000000E+00  0.94357720851E+01  0.94357724297E+01  0.25500000000E-02 0.  1.
          2   -1    0    0    0  501  0.00000000000E+00 -0.00000000000E+00 -0.85710027401E+03  0.85710027401E+03  0.25500000000E-02 0.  1.
          2    1    1    2    0  502 -0.43912777589E+02  0.35740849114E+02 -0.87215303278E+02  0.10398196701E+03  0.25500000000E-02 0. -1.
         -2    1    1    2  502    0  0.43912777589E+02 -0.35740849114E+02 -0.76044919864E+03  0.76255407943E+03  0.25500000000E-02 0. -1.
<mgrwt>
<rscale>  0 0.17985998E+03</rscale>
<asrwt>0</asrwt>
<pdfrwt beam="2">  1        2 0.13186152E+00 0.17985998E+03</pdfrwt>
<pdfrwt beam="1">  1       -2 0.14516579E-02 0.17985998E+03</pdfrwt>
<totfact> 0.38716632E+04</totfact>
</mgrwt>
</event>
<event>
 4    1  0.4635140E-002  0.6196157E+02  0.7818608E-02  0.1389780E+00
         -2   -1    0    0  501    0 -0.00000000000E+00  0.00000000000E+00  0.23794658750E+01  0.23794672414E+01  0.25500000000E-02 0. -1.
          2   -1    0    0    0  501  0.00000000000E+00 -0.00000000000E+00 -0.40337153655E+03  0.40337153655E+03  0.25500000000E-02 0. -1.
          2    1    1    2    0  502  0.27425381464E+02 -0.30357925083E+01 -0.10824878644E+03  0.11171019361E+03  0.25500000000E-02 0. -1.
         -2    1    1    2  502    0 -0.27425381464E+02  0.30357925083E+01 -0.29274328423E+03  0.29404081018E+03  0.25500000000E-02 0. -1.
<mgrwt>
<rscale>  0 0.61961571E+02</rscale>
<asrwt>0</asrwt>
<pdfrwt beam="2">  1        2 0.62057105E-01 0.61961571E+02</pdfrwt>
<pdfrwt beam="1">  1       -2 0.36607210E-03 0.61961571E+02</pdfrwt>
<totfact> 0.54651799E+05</totfact>
</mgrwt>
</event>
<event>
 4    1  0.4635140E-002  0.4799175E+02  0.7818608E-02  0.1456485E+00
         -2   -1    0    0  501    0 -0.00000000000E+00  0.00000000000E+00  0.37395161655E+00  0.37396031075E+00  0.25500000000E-02 0.  1.
          2   -1    0    0    0  501  0.00000000000E+00 -0.00000000000E+00 -0.15397589287E+04  0.15397589287E+04  0.25500000000E-02 0.  1.
          2    1    1    2    0  502 -0.76338337928E+01 -0.22129282730E+02 -0.60042188401E+03  0.60087804036E+03  0.25500000000E-02 0. -1.
         -2    1    1    2  502    0  0.76338337928E+01  0.22129282730E+02 -0.93896309303E+03  0.93925484862E+03  0.25500000000E-02 0. -1.
<mgrwt>
<rscale>  0 0.47991751E+02</rscale>
<asrwt>0</asrwt>
<pdfrwt beam="2">  1        2 0.23688091E+00 0.47991751E+02</pdfrwt>
<pdfrwt beam="1">  1       -2 0.57532920E-04 0.47991751E+02</pdfrwt>
<totfact> 0.12009618E+06</totfact>
</mgrwt>
</event>
<event>
 4    1  0.4635140E-002  0.9429270E+02  0.7818608E-02  0.1292777E+00
         -2   -1    0    0  501    0 -0.00000000000E+00  0.00000000000E+00  0.18330970130E+01  0.18330987866E+01  0.25500000000E-02 0.  1.
          2   -1    0    0    0  501  0.00000000000E+00 -0.00000000000E+00 -0.12125801630E+04  0.12125801630E+04  0.25500000000E-02 0.  1.
          2    1    1    2    0  502 -0.31681757026E+02  0.14443702386E+02 -0.10147663765E+04  0.10153635571E+04  0.25500000000E-02 0.  1.
         -2    1    1    2  502    0  0.31681757026E+02 -0.14443702386E+02 -0.19598068954E+03  0.19904970471E+03  0.25500000000E-02 0.  1.
<mgrwt>
<rscale>  0 0.94292697E+02</rscale>
<asrwt>0</asrwt>
<pdfrwt beam="2">  1        2 0.18655015E+00 0.94292697E+02</pdfrwt>
<pdfrwt beam="1">  1       -2 0.28201603E-03 0.94292697E+02</pdfrwt>
<totfact> 0.22732444E+05</totfact>
</mgrwt>
</event>
<event>
 4    1  0.4635140E-002  0.8560196E+02  0.7818608E-02  0.1313866E+00
          2   -1    0    0    0  501  0.00000000000E+00  0.00000000000E+00  0.19221198209E+03  0.19221198210E+03  0.25500000000E-02 0. -1.
         -2   -1    0    0  501    0 -0.00000000000E+00 -0.00000000000E+00 -0.95307477376E+01  0.95307480787E+01  0.25500000000E-02 0. -1.
          2    1    1    2    0  502 -0.25751297311E+02  0.33690206417E+01  0.17152028151E+03  0.17347531983E+03  0.25500000000E-02 0.  1.
         -2    1    1    2  502    0  0.25751297311E+02 -0.33690206417E+01  0.11160952836E+02  0.28267410352E+02  0.25500000000E-02 0.  1.
<mgrwt>
<rscale>  0 0.85601961E+02</rscale>
<asrwt>0</asrwt>
<pdfrwt beam="1">  1        2 0.29571075E-01 0.85601961E+02</pdfrwt>
<pdfrwt beam="2">  1       -2 0.14662689E-02 0.85601961E+02</pdfrwt>
<totfact> 0.18060784E+05</totfact>
</mgrwt>
</event>
<event>
 4    1  0.4635140E-002  0.7428171E+02  0.7818608E-02  0.1346110E+00
         -2   -1    0    0  501    0 -0.00000000000E+00  0.00000000000E+00  0.93865081320E+02  0.93865081354E+02  0.25500000000E-02 0. -1.
          2   -1    0    0    0  501  0.00000000000E+00 -0.00000000000E+00 -0.14696018731E+02  0.14696018952E+02  0.25500000000E-02 0. -1.
          2    1    1    2    0  502  0.23213406959E+02  0.26044275545E+02  0.58201977519E+02  0.67857473759E+02  0.25500000000E-02 0. -1.
         -2    1    1    2  502    0 -0.23213406959E+02 -0.26044275545E+02  0.20967085069E+02  0.40703626548E+02  0.25500000000E-02 0. -1.
<mgrwt>
<rscale>  0 0.74281707E+02</rscale>
<asrwt>0</asrwt>
<pdfrwt beam="2">  1        2 0.22609261E-02 0.74281707E+02</pdfrwt>
<pdfrwt beam="1">  1       -2 0.14440781E-01 0.74281707E+02</pdfrwt>
<totfact> 0.13522480E+05</totfact>
</mgrwt>
</event>
<event>
 4    1  0.4635140E-002  0.4275925E+02  0.7818608E-02  0.1488835E+00
          2   -1    0    0    0  501  0.00000000000E+00  0.00000000000E+00  0.38185594690E+03  0.38185594691E+03  0.25500000000E-02 0. -1.
         -2   -1    0    0  501    0 -0.00000000000E+00 -0.00000000000E+00 -0.11970165445E+01  0.11970192607E+01  0.25500000000E-02 0. -1.
          2    1    1    2    0  502 -0.17710024034E+02 -0.11255835453E+02  0.15366619590E+03  0.15509235491E+03  0.25500000000E-02 0. -1.
         -2    1    1    2  502    0  0.17710024034E+02  0.11255835453E+02  0.22699273446E+03  0.22796061126E+03  0.25500000000E-02 0. -1.
<mgrwt>
<rscale>  0 0.42759252E+02</rscale>
<asrwt>0</asrwt>
<pdfrwt beam="1">  1        2 0.58747059E-01 0.42759252E+02</pdfrwt>
<pdfrwt beam="2">  1       -2 0.18415663E-03 0.42759252E+02</pdfrwt>
<totfact> 0.13506620E+06</totfact>
</mgrwt>
</event>
<event>
 4    1  0.4635140E-002  0.8221388E+02  0.7818608E-02  0.1322884E+00
          2   -1    0    0    0  501  0.00000000000E+00  0.00000000000E+00  0.10288192565E+03  0.10288192568E+03  0.25500000000E-02 0.  1.
         -2   -1    0    0  501    0 -0.00000000000E+00 -0.00000000000E+00 -0.16424464367E+02  0.16424464565E+02  0.25500000000E-02 0.  1.
          2    1    1    2    0  502  0.14891972364E+02 -0.16550760263E+02  0.93374654688E+02  0.95992315582E+02  0.25500000000E-02 0. -1.
         -2    1    1    2  502    0 -0.14891972364E+02  0.16550760263E+02 -0.69171934083E+01  0.23314074662E+02  0.25500000000E-02 0. -1.
<mgrwt>
<rscale>  0 0.82213880E+02</rscale>
<asrwt>0</asrwt>
<pdfrwt beam="1">  1        2 0.15827989E-01 0.82213880E+02</pdfrwt>
<pdfrwt beam="2">  1       -2 0.25268407E-02 0.82213880E+02</pdfrwt>
<totfact> 0.16410045E+05</totfact>
</mgrwt>
</event>
<event>
 4    1  0.4635140E-002  0.6620878E+02  0.7818608E-02  0.1373481E+00
          2   -1    0    0    0  501  0.00000000000E+00  0.00000000000E+00  0.19383137794E+04  0.19383137795E+04  0.25500000000E-02 0.  1.
         -2   -1    0    0  501    0 -0.00000000000E+00 -0.00000000000E+00 -0.56538573856E+00  0.56539148903E+00  0.25500000000E-02 0.  1.
          2    1    1    2    0  502 -0.32611109216E+02 -0.56787921091E+01  0.95689216602E+03  0.95746454270E+03  0.25500000000E-02 0. -1.
         -2    1    1    2  502    0  0.32611109216E+02  0.56787921091E+01  0.98085622769E+03  0.98141462824E+03  0.25500000000E-02 0. -1.
<mgrwt>
<rscale>  0 0.66208777E+02</rscale>
<asrwt>0</asrwt>
<pdfrwt beam="1">  1        2 0.29820655E+00 0.66208777E+02</pdfrwt>
<pdfrwt beam="2">  1       -2 0.86981571E-04 0.66208777E+02</pdfrwt>
<totfact> 0.46532258E+05</totfact>
</mgrwt>
</event>
<event>
 4    1  0.4635140E-002  0.4122321E+02  0.7818608E-02  0.1499398E+00
          2   -1    0    0    0  501  0.00000000000E+00  0.00000000000E+00  0.10569694628E+04  0.10569694628E+04  0.25500000000E-02 0. -1.
         -2   -1    0    0  501    0 -0.00000000000E+00 -0.00000000000E+00 -0.40193593540E+00  0.40194402429E+00  0.25500000000E-02 0. -1.
          2    1    1    2    0  502 -0.19928645811E+02 -0.30829673028E+01  0.63765788315E+03  0.63797667007E+03  0.25500000000E-02 0.  1.
         -2    1    1    2  502    0  0.19928645811E+02  0.30829673028E+01  0.41890964370E+03  0.41939473674E+03  0.25500000000E-02 0.  1.
<mgrwt>
<rscale>  0 0.41223211E+02</rscale>
<asrwt>0</asrwt>
<pdfrwt beam="1">  1        2 0.16261081E+00 0.41223211E+02</pdfrwt>
<pdfrwt beam="2">  1       -2 0.61836873E-04 0.41223211E+02</pdfrwt>
<totfact> 0.18571000E+06</totfact>
</mgrwt>
</event>
<event>
 4    1  0.4635140E-002  0.1092509E+03  0.7818608E-02  0.1261963E+00
          2   -1    0    0    0  501  0.00000000000E+00  0.00000000000E+00  0.12872464562E+03  0.12872464564E+03  0.25500000000E-02 0.  1.
         -2   -1    0    0  501    0 -0.00000000000E+00 -0.00000000000E+00 -0.23180807087E+02  0.23180807227E+02  0.25500000000E-02 0.  1.
          2    1    1    2    0  502 -0.76134451743E+01  0.35753786956E+02  0.10921098862E+03  0.11516656577E+03  0.25500000000E-02 0. -1.
         -2    1    1    2  502    0  0.76134451743E+01 -0.35753786956E+02 -0.36671500896E+01  0.36738887101E+02  0.25500000000E-02 0. -1.
<mgrwt>
<rscale>  0 0.10925093E+03</rscale>
<asrwt>0</asrwt>
<pdfrwt beam="1">  1        2 0.19803791E-01 0.10925093E+03</pdfrwt>
<pdfrwt beam="2">  1       -2 0.35662781E-02 0.10925093E+03</pdfrwt>
<totfact> 0.80600452E+04</totfact>
</mgrwt>
</event>
<event>
 4    1  0.4635140E-002  0.5444663E+02  0.7818608E-02  0.1422734E+00
          2   -1    0    0    0  501  0.00000000000E+00  0.00000000000E+00  0.12760932512E+03  0.12760932514E+03  0.25500000000E-02 0. -1.
         -2   -1    0    0  501    0 -0.00000000000E+00 -0.00000000000E+00 -0.58076394396E+01  0.58076399994E+01  0.25500000000E-02 0. -1.
          2    1    1    2    0  502 -0.23462216765E+02 -0.57161375122E+01  0.30103560141E+02  0.38592410954E+02  0.25500000000E-02 0.  1.
         -2    1    1    2  502    0  0.23462216765E+02  0.57161375122E+01  0.91698125535E+02  0.94824554186E+02  0.25500000000E-02 0.  1.
<mgrwt>
<rscale>  0 0.54446634E+02</rscale>
<asrwt>0</asrwt>
<pdfrwt beam="1">  1        2 0.19632203E-01 0.54446634E+02</pdfrwt>
<pdfrwt beam="2">  1       -2 0.89348309E-03 0.54446634E+02</pdfrwt>
<totfact> 0.51573434E+05</totfact>
</mgrwt>
</event>
<event>
 4    1  0.4635140E-002  0.6664251E+02  0.7818608E-02  0.1371897E+00
         -2   -1    0    0  501    0 -0.00000000000E+00  0.00000000000E+00  0.38675942521E+00  0.38676783151E+00  0.25500000000E-02 0.  1.
          2   -1    0    0    0  501  0.00000000000E+00 -0.00000000000E+00 -0.28707614778E+04  0.28707614778E+04  0.25500000000E-02 0.  1.
          2    1    1    2    0  502  0.23555270521E+02 -0.21747549503E+02 -0.18265053021E+04  0.18267866393E+04  0.25500000000E-02 0.  1.
         -2    1    1    2  502    0 -0.23555270521E+02  0.21747549503E+02 -0.10438694162E+04  0.10443616064E+04  0.25500000000E-02 0.  1.
<mgrwt>
<rscale>  0 0.66642513E+02</rscale>
<asrwt>0</asrwt>
<pdfrwt beam="2">  1        2 0.44163855E+00 0.66642513E+02</pdfrwt>
<pdfrwt beam="1">  1       -2 0.59504396E-04 0.66642513E+02</pdfrwt>
<totfact> 0.25860596E+05</totfact>
</mgrwt>
</event>
<event>
 4    1  0.4635140E-002  0.5898989E+02  0.7818608E-02  0.1402120E+00
         -2   -1    0    0  501    0 -0.00000000000E+00  0.00000000000E+00  0.86053928539E+00  0.86054306353E+00  0.25500000000E-02 0. -1.
          2   -1    0    0    0  501  0.00000000000E+00 -0.00000000000E+00 -0.10109358128E+04  0.10109358128E+04  0.25500000000E-02 0. -1.
          2    1    1    2    0  502 -0.15929105720E+02  0.24051281783E+02 -0.61042331370E+03  0.61110459209E+03  0.25500000000E-02 0.  1.
         -2    1    1    2  502    0  0.15929105720E+02 -0.24051281783E+02 -0.39965195981E+03  0.40069176376E+03  0.25500000000E-02 0.  1.
<mgrwt>
<rscale>  0 0.58989894E+02</rscale>
<asrwt>0</asrwt>
<pdfrwt beam="2">  1        2 0.15552764E+00 0.58989894E+02</pdfrwt>
<pdfrwt beam="1">  1       -2 0.13239176E-03 0.58989894E+02</pdfrwt>
<totfact> 0.76729768E+05</totfact>
</mgrwt>
</event>
<event>
 4    1  0.4635140E-002  0.5212128E+02  0.7818608E-02  0.1434225E+00
          2   -1    0    0    0  501  0.00000000000E+00  0.00000000000E+00  0.54635628084E+03  0.54635628085E+03  0.25500000000E-02 0. -1.
         -2   -1    0    0  501    0 -0.00000000000E+00 -0.00000000000E+00 -0.12430646928E+01  0.12430673083E+01  0.25500000000E-02 0. -1.
          2    1    1    2    0  502  0.19790957444E-01  0.22746931874E+02  0.13894382660E+03  0.14079350219E+03  0.25500000000E-02 0. -1.
         -2    1    1    2  502    0 -0.19790957444E-01 -0.22746931874E+02  0.40616938955E+03  0.40680584597E+03  0.25500000000E-02 0. -1.
<mgrwt>
<rscale>  0 0.52121279E+02</rscale>
<asrwt>0</asrwt>
<pdfrwt beam="1">  1        2 0.84054744E-01 0.52121279E+02</pdfrwt>
<pdfrwt beam="2">  1       -2 0.19124108E-03 0.52121279E+02</pdfrwt>
<totfact> 0.93057477E+05</totfact>
</mgrwt>
</event>
<event>
 4    1  0.4635140E-002  0.6089520E+02  0.7818608E-02  0.1394113E+00
          2   -1    0    0    0  501  0.00000000000E+00  0.00000000000E+00  0.41389366839E+03  0.41389366840E+03  0.25500000000E-02 0.  1.
         -2   -1    0    0  501    0 -0.00000000000E+00 -0.00000000000E+00 -0.22398410052E+01  0.22398424568E+01  0.25500000000E-02 0.  1.
          2    1    1    2    0  502 -0.28771107665E+02 -0.95875029908E+01  0.18728850129E+03  0.18972790932E+03  0.25500000000E-02 0. -1.
         -2    1    1    2  502    0  0.28771107665E+02  0.95875029908E+01  0.22436532609E+03  0.22640560154E+03  0.25500000000E-02 0. -1.
<mgrwt>
<rscale>  0 0.60895199E+02</rscale>
<asrwt>0</asrwt>
<pdfrwt beam="1">  1        2 0.63675946E-01 0.60895199E+02</pdfrwt>
<pdfrwt beam="2">  1       -2 0.34459105E-03 0.60895199E+02</pdfrwt>
<totfact> 0.57621203E+05</totfact>
</mgrwt>
</event>
<event>
 4    1  0.4635140E-002  0.4860706E+02  0.7818608E-02  0.1453003E+00
         -2   -1    0    0  501    0 -0.00000000000E+00  0.00000000000E+00  0.22342287282E+01  0.22342301834E+01  0.25500000000E-02 0. -1.
          2   -1    0    0    0  501  0.00000000000E+00 -0.00000000000E+00 -0.26436923181E+03  0.26436923182E+03  0.25500000000E-02 0. -1.
          2    1    1    2    0  502  0.19144018075E+02 -0.14217630155E+02 -0.15680966088E+03  0.15861243390E+03  0.25500000000E-02 0.  1.
         -2    1    1    2  502    0 -0.19144018075E+02  0.14217630155E+02 -0.10532534220E+03  0.10799102811E+03  0.25500000000E-02 0.  1.
<mgrwt>
<rscale>  0 0.48607058E+02</rscale>
<asrwt>0</asrwt>
<pdfrwt beam="2">  1        2 0.40672165E-01 0.48607058E+02</pdfrwt>
<pdfrwt beam="1">  1       -2 0.34372782E-03 0.48607058E+02</pdfrwt>
<totfact> 0.86843420E+05</totfact>
</mgrwt>
</event>
<event>
 4    1  0.4635140E-002  0.4964208E+02  0.7818608E-02  0.1447282E+00
         -2   -1    0    0  501    0 -0.00000000000E+00  0.00000000000E+00  0.12229770190E+01  0.12229796775E+01  0.25500000000E-02 0. -1.
          2   -1    0    0    0  501  0.00000000000E+00 -0.00000000000E+00 -0.50375709822E+03  0.50375709822E+03  0.25500000000E-02 0. -1.
          2    1    1    2    0  502  0.80630528022E+01 -0.22020180332E+02 -0.33402259252E+03  0.33484473040E+03  0.25500000000E-02 0. -1.
         -2    1    1    2  502    0 -0.80630528022E+01  0.22020180332E+02 -0.16851152868E+03  0.17013534749E+03  0.25500000000E-02 0. -1.
<mgrwt>
<rscale>  0 0.49642080E+02</rscale>
<asrwt>0</asrwt>
<pdfrwt beam="2">  1        2 0.77500927E-01 0.49642080E+02</pdfrwt>
<pdfrwt beam="1">  1       -2 0.18815092E-03 0.49642080E+02</pdfrwt>
<totfact> 0.10247598E+06</totfact>
</mgrwt>
</event>
<event>
 4    1  0.4635140E-002  0.4213342E+02  0.7818608E-02  0.1493074E+00
          2   -1    0    0    0  501  0.00000000000E+00  0.00000000000E+00  0.16289815023E+01  0.16289834982E+01  0.25500000000E-02 0.  1.
         -2   -1    0    0  501    0 -0.00000000000E+00 -0.00000000000E+00 -0.27244379599E+03  0.27244379600E+03  0.25500000000E-02 0.  1.
          2    1    1    2    0  502 -0.18256407849E+02 -0.95737733471E+01 -0.16365132688E+03  0.16494456754E+03  0.25500000000E-02 0. -1.
         -2    1    1    2  502    0  0.18256407849E+02  0.95737733471E+01 -0.10716348760E+03  0.10912821196E+03  0.25500000000E-02 0. -1.
<mgrwt>
<rscale>  0 0.42133416E+02</rscale>
<asrwt>0</asrwt>
<pdfrwt beam="1">  1        2 0.25061291E-03 0.42133416E+02</pdfrwt>
<pdfrwt beam="2">  1       -2 0.41914394E-01 0.42133416E+02</pdfrwt>
<totfact> 0.37102624E+05</totfact>
</mgrwt>
</event>
<event>
 4    1  0.4635140E-002  0.5614835E+02  0.7818608E-02  0.1414745E+00
          2   -1    0    0    0  501  0.00000000000E+00  0.00000000000E+00  0.24439255594E+02  0.24439255727E+02  0.25500000000E-02 0. -1.
         -2   -1    0    0  501    0 -0.00000000000E+00 -0.00000000000E+00 -0.32249724773E+02  0.32249724874E+02  0.25500000000E-02 0. -1.
          2    1    1    2    0  502  0.70650141018E+01 -0.26826297123E+02 -0.82589032149E+01  0.28944328122E+02  0.25500000000E-02 0.  1.
         -2    1    1    2  502    0 -0.70650141018E+01  0.26826297123E+02  0.44843403569E+00  0.27744652479E+02  0.25500000000E-02 0.  1.
<mgrwt>
<rscale>  0 0.56148349E+02</rscale>
<asrwt>0</asrwt>
<pdfrwt beam="1">  1        2 0.37598855E-02 0.56148349E+02</pdfrwt>
<pdfrwt beam="2">  1       -2 0.49614962E-02 0.56148349E+02</pdfrwt>
<totfact> 0.33334577E+05</totfact>
</mgrwt>
</event>
<event>
 4    1  0.4635140E-002  0.4413849E+02  0.7818608E-02  0.1479793E+00
         -2   -1    0    0  501    0 -0.00000000000E+00  0.00000000000E+00  0.46929874647E+00  0.46930567431E+00  0.25500000000E-02 0.  1.
          2   -1    0    0    0  501  0.00000000000E+00 -0.00000000000E+00 -0.10378205349E+04  0.10378205349E+04  0.25500000000E-02 0.  1.
          2    1    1    2    0  502  0.15420915935E+02 -0.14179510119E+02 -0.68197029794E+03  0.68229198327E+03  0.25500000000E-02 0. -1.
         -2    1    1    2  502    0 -0.15420915935E+02  0.14179510119E+02 -0.35538093818E+03  0.35599785727E+03  0.25500000000E-02 0. -1.
<mgrwt>
<rscale>  0 0.44138485E+02</rscale>
<asrwt>0</asrwt>
<pdfrwt beam="2">  1        2 0.15966286E+00 0.44138485E+02</pdfrwt>
<pdfrwt beam="1">  1       -2 0.72201171E-04 0.44138485E+02</pdfrwt>
<totfact> 0.15732677E+06</totfact>
</mgrwt>
</event>
<event>
 4    1  0.4635140E-002  0.7045910E+02  0.7818608E-02  0.1358539E+00
         -2   -1    0    0  501    0 -0.00000000000E+00  0.00000000000E+00  0.61302382071E+00  0.61302912431E+00  0.25500000000E-02 0.  1.
          2   -1    0    0    0  501  0.00000000000E+00 -0.00000000000E+00 -0.20245799306E+04  0.20245799306E+04  0.25500000000E-02 0.  1.
          2    1    1    2    0  502 -0.27053653434E+02  0.20989842920E+02 -0.12501284405E+04  0.12505972938E+04  0.25500000000E-02 0. -1.
         -2    1    1    2  502    0  0.27053653434E+02 -0.20989842920E+02 -0.77383846629E+03  0.77459566587E+03  0.25500000000E-02 0. -1.
<mgrwt>
<rscale>  0 0.70459097E+02</rscale>
<asrwt>0</asrwt>
<pdfrwt beam="2">  1        2 0.31146848E+00 0.70459097E+02</pdfrwt>
<pdfrwt beam="1">  1       -2 0.94313386E-04 0.70459097E+02</pdfrwt>
<totfact> 0.38140093E+05</totfact>
</mgrwt>
</event>
<event>
 4    1  0.4635140E-002  0.4691961E+02  0.7818608E-02  0.1462702E+00
         -2   -1    0    0  501    0 -0.00000000000E+00  0.00000000000E+00  0.32551283742E+02  0.32551283842E+02  0.25500000000E-02 0. -1.
          2   -1    0    0    0  501  0.00000000000E+00 -0.00000000000E+00 -0.16907551447E+02  0.16907551639E+02  0.25500000000E-02 0. -1.
          2    1    1    2    0  502  0.14404770761E+02 -0.16270234763E+02  0.17140211526E+02  0.27676792039E+02  0.25500000000E-02 0.  1.
         -2    1    1    2  502    0 -0.14404770761E+02  0.16270234763E+02 -0.14964792303E+01  0.21782043442E+02  0.25500000000E-02 0.  1.
<mgrwt>
<rscale>  0 0.46919613E+02</rscale>
<asrwt>0</asrwt>
<pdfrwt beam="2">  1        2 0.26011618E-02 0.46919613E+02</pdfrwt>
<pdfrwt beam="1">  1       -2 0.50078898E-02 0.46919613E+02</pdfrwt>
<totfact> 0.50822756E+05</totfact>
</mgrwt>
</event>
<event>
 4    1  0.4635140E-002  0.5483663E+02  0.7818608E-02  0.1420873E+00
         -2   -1    0    0  501    0 -0.00000000000E+00  0.00000000000E+00  0.95896962452E+00  0.95897301487E+00  0.25500000000E-02 0.  1.
          2   -1    0    0    0  501  0.00000000000E+00 -0.00000000000E+00 -0.78392740580E+03  0.78392740580E+03  0.25500000000E-02 0.  1.
          2    1    1    2    0  502 -0.22535164975E+01 -0.24058421214E+02 -0.20603164545E+03  0.20744378733E+03  0.25500000000E-02 0. -1.
         -2    1    1    2  502    0  0.22535164975E+01  0.24058421214E+02 -0.57693679073E+03  0.57744259149E+03  0.25500000000E-02 0. -1.
<mgrwt>
<rscale>  0 0.54836627E+02</rscale>
<asrwt>0</asrwt>
<pdfrwt beam="2">  1        2 0.12060370E+00 0.54836627E+02</pdfrwt>
<pdfrwt beam="1">  1       -2 0.14753468E-03 0.54836627E+02</pdfrwt>
<totfact> 0.89528547E+05</totfact>
</mgrwt>
</event>
<event>
 4    1  0.4635140E-002  0.7436515E+02  0.7818608E-02  0.1345848E+00
          2   -1    0    0    0  501  0.00000000000E+00  0.00000000000E+00  0.15621285536E+04  0.15621285536E+04  0.25500000000E-02 0.  1.
         -2   -1    0    0  501    0 -0.00000000000E+00 -0.00000000000E+00 -0.88503662555E+00  0.88504029912E+00  0.25500000000E-02 0.  1.
          2    1    1    2    0  502 -0.34097567246E+02 -0.14193253713E+02  0.87090494220E+03  0.87168773704E+03  0.25500000000E-02 0. -1.
         -2    1    1    2  502    0  0.34097567246E+02  0.14193253713E+02  0.69033857473E+03  0.69132585682E+03  0.25500000000E-02 0. -1.
<mgrwt>
<rscale>  0 0.74365149E+02</rscale>
<asrwt>0</asrwt>
<pdfrwt beam="1">  1        2 0.24032971E+00 0.74365149E+02</pdfrwt>
<pdfrwt beam="2">  1       -2 0.13615849E-03 0.74365149E+02</pdfrwt>
<totfact> 0.39501411E+05</totfact>
</mgrwt>
</event>
<event>
 4    1  0.4635140E-002  0.6295032E+02  0.7818608E-02  0.1385852E+00
          2   -1    0    0    0  501  0.00000000000E+00  0.00000000000E+00  0.15893033069E+02  0.15893033274E+02  0.25500000000E-02 0. -1.
         -2   -1    0    0  501    0 -0.00000000000E+00 -0.00000000000E+00 -0.62334588250E+02  0.62334588302E+02  0.25500000000E-02 0. -1.
          2    1    1    2    0  502 -0.18878207208E+02  0.25161234934E+02 -0.24588426510E+02  0.39925745773E+02  0.25500000000E-02 0.  1.
         -2    1    1    2  502    0  0.18878207208E+02 -0.25161234934E+02 -0.21853128671E+02  0.38301875803E+02  0.25500000000E-02 0.  1.
<mgrwt>
<rscale>  0 0.62950320E+02</rscale>
<asrwt>0</asrwt>
<pdfrwt beam="1">  1        2 0.24450821E-02 0.62950320E+02</pdfrwt>
<pdfrwt beam="2">  1       -2 0.95899366E-02 0.62950320E+02</pdfrwt>
<totfact> 0.22390718E+05</totfact>
</mgrwt>
</event>
<event>
 4    1  0.4635140E-002  0.5367135E+02  0.7818608E-02  0.1426489E+00
          2   -1    0    0    0  501  0.00000000000E+00  0.00000000000E+00  0.36430669842E+01  0.36430678767E+01  0.25500000000E-02 0. -1.
         -2   -1    0    0  501    0 -0.00000000000E+00 -0.00000000000E+00 -0.19767775098E+03  0.19767775099E+03  0.25500000000E-02 0. -1.
          2    1    1    2    0  502 -0.13459976348E+02 -0.22990475187E+02 -0.10912582247E+03  0.11233066388E+03  0.25500000000E-02 0.  1.
         -2    1    1    2  502    0  0.13459976348E+02  0.22990475187E+02 -0.84908861526E+02  0.88990154988E+02  0.25500000000E-02 0.  1.
<mgrwt>
<rscale>  0 0.53671347E+02</rscale>
<asrwt>0</asrwt>
<pdfrwt beam="1">  1        2 0.56047207E-03 0.53671347E+02</pdfrwt>
<pdfrwt beam="2">  1       -2 0.30411953E-01 0.53671347E+02</pdfrwt>
<totfact> 0.23790305E+05</totfact>
</mgrwt>
</event>
<event>
 4    1  0.4635140E-002  0.5260552E+02  0.7818608E-02  0.1431774E+00
         -2   -1    0    0  501    0 -0.00000000000E+00  0.00000000000E+00  0.22536705874E+01  0.22536720301E+01  0.25500000000E-02 0.  1.
          2   -1    0    0    0  501  0.00000000000E+00 -0.00000000000E+00 -0.30698135666E+03  0.30698135667E+03  0.25500000000E-02 0.  1.
          2    1    1    2    0  502 -0.17318915736E+02 -0.13163376889E+02 -0.23927951870E+03  0.24026632600E+03  0.25500000000E-02 0.  1.
         -2    1    1    2  502    0  0.17318915736E+02  0.13163376889E+02 -0.65448167375E+02  0.68968702704E+02  0.25500000000E-02 0.  1.
<mgrwt>
<rscale>  0 0.52605516E+02</rscale>
<asrwt>0</asrwt>
<pdfrwt beam="2">  1        2 0.47227868E-01 0.52605516E+02</pdfrwt>
<pdfrwt beam="1">  1       -2 0.34671891E-03 0.52605516E+02</pdfrwt>
<totfact> 0.75120148E+05</totfact>
</mgrwt>
</event>
<event>
 4    1  0.4635140E-002  0.4672351E+02  0.7818608E-02  0.1463860E+00
          2   -1    0    0    0  501  0.00000000000E+00  0.00000000000E+00  0.11202958393E+03  0.11202958396E+03  0.25500000000E-02 0.  1.
         -2   -1    0    0  501    0 -0.00000000000E+00 -0.00000000000E+00 -0.48716725967E+01  0.48716732641E+01  0.25500000000E-02 0.  1.
          2    1    1    2    0  502  0.20357841142E+02  0.39722099290E+01  0.80473937529E+02  0.83103999757E+02  0.25500000000E-02 0.  1.
         -2    1    1    2  502    0 -0.20357841142E+02 -0.39722099290E+01  0.26683973801E+02  0.33797257463E+02  0.25500000000E-02 0.  1.
<mgrwt>
<rscale>  0 0.46723506E+02</rscale>
<asrwt>0</asrwt>
<pdfrwt beam="1">  1        2 0.17235319E-01 0.46723506E+02</pdfrwt>
<pdfrwt beam="2">  1       -2 0.74948820E-03 0.46723506E+02</pdfrwt>
<totfact> 0.73186466E+05</totfact>
</mgrwt>
</event>
<event>
 4    1  0.4635140E-002  0.1605924E+03  0.7818608E-02  0.1188030E+00
          2   -1    0    0    0  501  0.00000000000E+00  0.00000000000E+00  0.23526431165E+03  0.23526431167E+03  0.25500000000E-02 0.  1.
         -2   -1    0    0  501    0 -0.00000000000E+00 -0.00000000000E+00 -0.27405260541E+02  0.27405260660E+02  0.25500000000E-02 0.  1.
          2    1    1    2    0  502  0.75373457484E+01  0.62204167080E+02  0.18605878025E+03  0.19632636017E+03  0.25500000000E-02 0.  1.
         -2    1    1    2  502    0 -0.75373457484E+01 -0.62204167080E+02  0.21800270861E+02  0.66343212156E+02  0.25500000000E-02 0.  1.
<mgrwt>
<rscale>  0 0.16059240E+03</rscale>
<asrwt>0</asrwt>
<pdfrwt beam="1">  1        2 0.36194509E-01 0.16059240E+03</pdfrwt>
<pdfrwt beam="2">  1       -2 0.42161939E-02 0.16059240E+03</pdfrwt>
<totfact> 0.34020413E+04</totfact>
</mgrwt>
</event>
<event>
 4    1  0.4635140E-002  0.5229797E+02  0.7818608E-02  0.1433327E+00
         -2   -1    0    0  501    0 -0.00000000000E+00  0.00000000000E+00  0.25558809655E+01  0.25558822376E+01  0.25500000000E-02 0.  1.
          2   -1    0    0    0  501  0.00000000000E+00 -0.00000000000E+00 -0.26752777339E+03  0.26752777340E+03  0.25500000000E-02 0.  1.
          2    1    1    2    0  502  0.21283962720E+02  0.15729677304E+01 -0.54457122796E+02  0.58489824126E+02  0.25500000000E-02 0. -1.
         -2    1    1    2  502    0 -0.21283962720E+02 -0.15729677304E+01 -0.21051476963E+03  0.21159383151E+03  0.25500000000E-02 0. -1.
<mgrwt>
<rscale>  0 0.52297966E+02</rscale>
<asrwt>0</asrwt>
<pdfrwt beam="2">  1        2 0.41158097E-01 0.52297966E+02</pdfrwt>
<pdfrwt beam="1">  1       -2 0.39321277E-03 0.52297966E+02</pdfrwt>
<totfact> 0.72646041E+05</totfact>
</mgrwt>
</event>
<event>
 4    1  0.4635140E-002  0.6875155E+02  0.7818608E-02  0.1364391E+00
         -2   -1    0    0  501    0 -0.00000000000E+00  0.00000000000E+00  0.26981500933E+01  0.26981512983E+01  0.25500000000E-02 0.  1.
          2   -1    0    0    0  501  0.00000000000E+00 -0.00000000000E+00 -0.43796434740E+03  0.43796434740E+03  0.25500000000E-02 0.  1.
          2    1    1    2    0  502 -0.31326570991E+02 -0.84106276534E+01 -0.29060034492E+03  0.29240494726E+03  0.25500000000E-02 0.  1.
         -2    1    1    2  502    0  0.31326570991E+02  0.84106276534E+01 -0.14466585238E+03  0.14825755144E+03  0.25500000000E-02 0.  1.
<mgrwt>
<rscale>  0 0.68751547E+02</rscale>
<asrwt>0</asrwt>
<pdfrwt beam="2">  1        2 0.67379074E-01 0.68751547E+02</pdfrwt>
<pdfrwt beam="1">  1       -2 0.41510045E-03 0.68751547E+02</pdfrwt>
<totfact> 0.43076606E+05</totfact>
</mgrwt>
</event>
<event>
 4    1  0.4635140E-002  0.5625010E+02  0.7818608E-02  0.1414278E+00
         -2   -1    0    0  501    0 -0.00000000000E+00  0.00000000000E+00  0.18672028793E+01  0.18672046205E+01  0.25500000000E-02 0.  1.
          2   -1    0    0    0  501  0.00000000000E+00 -0.00000000000E+00 -0.42363796729E+03  0.42363796730E+03  0.25500000000E-02 0.  1.
          2    1    1    2    0  502 -0.32443465170E+01  0.24241177717E+02 -0.31593640587E+03  0.31688163885E+03  0.25500000000E-02 0.  1.
         -2    1    1    2  502    0  0.32443465170E+01 -0.24241177717E+02 -0.10583435855E+03  0.10862353307E+03  0.25500000000E-02 0.  1.
<mgrwt>
<rscale>  0 0.56250099E+02</rscale>
<asrwt>0</asrwt>
<pdfrwt beam="2">  1        2 0.65174996E-01 0.56250099E+02</pdfrwt>
<pdfrwt beam="1">  1       -2 0.28726245E-03 0.56250099E+02</pdfrwt>
<totfact> 0.70965751E+05</totfact>
</mgrwt>
</event>
<event>
 4    1  0.4635140E-002  0.4915134E+02  0.7818608E-02  0.1449973E+00
         -2   -1    0    0  501    0 -0.00000000000E+00  0.00000000000E+00  0.68425607087E+02  0.68425607134E+02  0.25500000000E-02 0.  1.
          2   -1    0    0    0  501  0.00000000000E+00 -0.00000000000E+00 -0.88265708026E+01  0.88265711709E+01  0.25500000000E-02 0.  1.
          2    1    1    2    0  502  0.24160477785E+02  0.28086411606E+01  0.35322126176E+02  0.42886708384E+02  0.25500000000E-02 0.  1.
         -2    1    1    2  502    0 -0.24160477785E+02 -0.28086411606E+01  0.24276910109E+02  0.34365469921E+02  0.25500000000E-02 0.  1.
<mgrwt>
<rscale>  0 0.49151337E+02</rscale>
<asrwt>0</asrwt>
<pdfrwt beam="2">  1        2 0.13579340E-02 0.49151337E+02</pdfrwt>
<pdfrwt beam="1">  1       -2 0.10527017E-01 0.49151337E+02</pdfrwt>
<totfact> 0.40071313E+05</totfact>
</mgrwt>
</event>
<event>
 4    1  0.4635140E-002  0.4625555E+02  0.7818608E-02  0.1466652E+00
          2   -1    0    0    0  501  0.00000000000E+00  0.00000000000E+00  0.25927691022E+03  0.25927691024E+03  0.25500000000E-02 0.  1.
         -2   -1    0    0  501    0 -0.00000000000E+00 -0.00000000000E+00 -0.20630207821E+01  0.20630223581E+01  0.25500000000E-02 0.  1.
          2    1    1    2    0  502  0.63666928143E+01  0.22223048364E+02  0.13258281263E+03  0.13458306308E+03  0.25500000000E-02 0.  1.
         -2    1    1    2  502    0 -0.63666928143E+01 -0.22223048364E+02  0.12463107681E+03  0.12675686951E+03  0.25500000000E-02 0.  1.
<mgrwt>
<rscale>  0 0.46255545E+02</rscale>
<asrwt>0</asrwt>
<pdfrwt beam="1">  1        2 0.39888744E-01 0.46255545E+02</pdfrwt>
<pdfrwt beam="2">  1       -2 0.31738803E-03 0.46255545E+02</pdfrwt>
<totfact> 0.97538144E+05</totfact>
</mgrwt>
</event>
<event>
 4    1  0.4635140E-002  0.6262767E+02  0.7818608E-02  0.1387124E+00
          2   -1    0    0    0  501  0.00000000000E+00  0.00000000000E+00  0.15809033235E+04  0.15809033235E+04  0.25500000000E-02 0. -1.
         -2   -1    0    0  501    0 -0.00000000000E+00 -0.00000000000E+00 -0.62024803111E+00  0.62025327294E+00  0.25500000000E-02 0. -1.
          2    1    1    2    0  502  0.19661174689E+02  0.10262813492E+02  0.13483763025E+04  0.13485586900E+04  0.25500000000E-02 0. -1.
         -2    1    1    2  502    0 -0.19661174689E+02 -0.10262813492E+02  0.23190677297E+03  0.23296488681E+03  0.25500000000E-02 0. -1.
<mgrwt>
<rscale>  0 0.62627672E+02</rscale>
<asrwt>0</asrwt>
<pdfrwt beam="1">  1        2 0.24321425E+00 0.62627672E+02</pdfrwt>
<pdfrwt beam="2">  1       -2 0.95423822E-04 0.62627672E+02</pdfrwt>
<totfact> 0.60996883E+05</totfact>
</mgrwt>
</event>
<event>
 4    1  0.4635140E-002  0.9319721E+02  0.7818608E-02  0.1295289E+00
          2   -1    0    0    0  501  0.00000000000E+00  0.00000000000E+00  0.78466704485E+03  0.78466704485E+03  0.25500000000E-02 0.  1.
         -2   -1    0    0  501    0 -0.00000000000E+00 -0.00000000000E+00 -0.27673259936E+01  0.27673271684E+01  0.25500000000E-02 0.  1.
          2    1    1    2    0  502 -0.13882985460E+01  0.30598146240E+02  0.94235828224E+02  0.99088673690E+02  0.25500000000E-02 0. -1.
         -2    1    1    2  502    0  0.13882985460E+01 -0.30598146240E+02  0.68766389063E+03  0.68834569833E+03  0.25500000000E-02 0. -1.
<mgrwt>
<rscale>  0 0.93197210E+02</rscale>
<asrwt>0</asrwt>
<pdfrwt beam="1">  1        2 0.12071808E+00 0.93197210E+02</pdfrwt>
<pdfrwt beam="2">  1       -2 0.42574228E-03 0.93197210E+02</pdfrwt>
<totfact> 0.22924115E+05</totfact>
</mgrwt>
</event>
<event>
 4    1  0.4635140E-002  0.1259398E+03  0.7818608E-02  0.1233608E+00
         -2   -1    0    0  501    0 -0.00000000000E+00  0.00000000000E+00  0.46377857597E+03  0.46377857597E+03  0.25500000000E-02 0.  1.
          2   -1    0    0    0  501  0.00000000000E+00 -0.00000000000E+00 -0.85497899446E+01  0.85497903249E+01  0.25500000000E-02 0.  1.
          2    1    1    2    0  502 -0.25897303973E+02  0.10223061317E+02  0.15788901878E+02  0.32007354854E+02  0.25500000000E-02 0.  1.
         -2    1    1    2  502    0  0.25897303973E+02 -0.10223061317E+02  0.43943988414E+03  0.44032101144E+03  0.25500000000E-02 0.  1.
<mgrwt>
<rscale>  0 0.12593982E+03</rscale>
<asrwt>0</asrwt>
<pdfrwt beam="2">  1        2 0.13153522E-02 0.12593982E+03</pdfrwt>
<pdfrwt beam="1">  1       -2 0.71350555E-01 0.12593982E+03</pdfrwt>
<totfact> 0.16536361E+04</totfact>
</mgrwt>
</event>
<event>
 4    1  0.4635140E-002  0.6119582E+02  0.7818608E-02  0.1392881E+00
         -2   -1    0    0  501    0 -0.00000000000E+00  0.00000000000E+00  0.70355973712E+00  0.70356435825E+00  0.25500000000E-02 0. -1.
          2   -1    0    0    0  501  0.00000000000E+00 -0.00000000000E+00 -0.13307030493E+04  0.13307030493E+04  0.25500000000E-02 0. -1.
          2    1    1    2    0  502  0.14900783459E+02  0.23148021980E+02 -0.95556740247E+03  0.95596387220E+03  0.25500000000E-02 0. -1.
         -2    1    1    2  502    0 -0.14900783459E+02 -0.23148021980E+02 -0.37443208712E+03  0.37544274149E+03  0.25500000000E-02 0. -1.
<mgrwt>
<rscale>  0 0.61195822E+02</rscale>
<asrwt>0</asrwt>
<pdfrwt beam="2">  1        2 0.20472153E+00 0.61195822E+02</pdfrwt>
<pdfrwt beam="1">  1       -2 0.10824138E-03 0.61195822E+02</pdfrwt>
<totfact> 0.68417576E+05</totfact>
</mgrwt>
</event>
<event>
 4    1  0.4635140E-002  0.5432319E+02  0.7818608E-02  0.1423327E+00
         -2   -1    0    0  501    0 -0.00000000000E+00  0.00000000000E+00  0.24959764325E+01  0.24959777351E+01  0.25500000000E-02 0. -1.
          2   -1    0    0    0  501  0.00000000000E+00 -0.00000000000E+00 -0.29557652430E+03  0.29557652431E+03  0.25500000000E-02 0. -1.
          2    1    1    2    0  502 -0.16018692848E+02 -0.18049218083E+02 -0.21493670144E+03  0.21628721281E+03  0.25500000000E-02 0.  1.
         -2    1    1    2  502    0  0.16018692848E+02  0.18049218083E+02 -0.78143846431E+02  0.81785289237E+02  0.25500000000E-02 0.  1.
<mgrwt>
<rscale>  0 0.54323190E+02</rscale>
<asrwt>0</asrwt>
<pdfrwt beam="2">  1        2 0.45473284E-01 0.54323190E+02</pdfrwt>
<pdfrwt beam="1">  1       -2 0.38399671E-03 0.54323190E+02</pdfrwt>
<totfact> 0.68383707E+05</totfact>
</mgrwt>
</event>
<event>
 4    1  0.4635140E-002  0.5377265E+02  0.7818608E-02  0.1425994E+00
         -2   -1    0    0  501    0 -0.00000000000E+00  0.00000000000E+00  0.13569169350E+02  0.13569169589E+02  0.25500000000E-02 0.  1.
          2   -1    0    0    0  501  0.00000000000E+00 -0.00000000000E+00 -0.53273304773E+02  0.53273304835E+02  0.25500000000E-02 0.  1.
          2    1    1    2    0  502  0.26019058613E+02 -0.56083408720E+01 -0.15130152268E+02  0.30616440234E+02  0.25500000000E-02 0. -1.
         -2    1    1    2  502    0 -0.26019058613E+02  0.56083408720E+01 -0.24573983156E+02  0.36226034190E+02  0.25500000000E-02 0. -1.
<mgrwt>
<rscale>  0 0.53772651E+02</rscale>
<asrwt>0</asrwt>
<pdfrwt beam="2">  1        2 0.81958929E-02 0.53772651E+02</pdfrwt>
<pdfrwt beam="1">  1       -2 0.20875646E-02 0.53772651E+02</pdfrwt>
<totfact> 0.43033185E+05</totfact>
</mgrwt>
</event>
<event>
 4    1  0.4635140E-002  0.5368443E+02  0.7818608E-02  0.1426425E+00
         -2   -1    0    0  501    0 -0.00000000000E+00  0.00000000000E+00  0.18346611634E+01  0.18346629355E+01  0.25500000000E-02 0.  1.
          2   -1    0    0    0  501  0.00000000000E+00 -0.00000000000E+00 -0.39271785969E+03  0.39271785970E+03  0.25500000000E-02 0.  1.
          2    1    1    2    0  502 -0.13010952707E+02 -0.23272239725E+02 -0.21823981334E+03  0.21986245283E+03  0.25500000000E-02 0. -1.
         -2    1    1    2  502    0  0.13010952707E+02  0.23272239725E+02 -0.17264338518E+03  0.17469006980E+03  0.25500000000E-02 0. -1.
<mgrwt>
<rscale>  0 0.53684432E+02</rscale>
<asrwt>0</asrwt>
<pdfrwt beam="2">  1        2 0.60418065E-01 0.53684432E+02</pdfrwt>
<pdfrwt beam="1">  1       -2 0.28225601E-03 0.53684432E+02</pdfrwt>
<totfact> 0.77761254E+05</totfact>
</mgrwt>
</event>
<event>
 4    1  0.4635140E-002  0.4864518E+02  0.7818608E-02  0.1452789E+00
          2   -1    0    0    0  501  0.00000000000E+00  0.00000000000E+00  0.22770012289E+03  0.22770012290E+03  0.25500000000E-02 0.  1.
         -2   -1    0    0  501    0 -0.00000000000E+00 -0.00000000000E+00 -0.25981020685E+01  0.25981033199E+01  0.25500000000E-02 0.  1.
          2    1    1    2    0  502 -0.77948396719E+01 -0.22540834638E+02  0.13512673610E+03  0.13721546402E+03  0.25500000000E-02 0.  1.
         -2    1    1    2  502    0  0.77948396719E+01  0.22540834638E+02  0.89975284720E+02  0.93082762199E+02  0.25500000000E-02 0.  1.
<mgrwt>
<rscale>  0 0.48645177E+02</rscale>
<asrwt>0</asrwt>
<pdfrwt beam="1">  1        2 0.35030796E-01 0.48645177E+02</pdfrwt>
<pdfrwt beam="2">  1       -2 0.39970802E-03 0.48645177E+02</pdfrwt>
<totfact> 0.82351993E+05</totfact>
</mgrwt>
</event>
<event>
 4    1  0.4635140E-002  0.8003701E+02  0.7818608E-02  0.1328946E+00
          2   -1    0    0    0  501  0.00000000000E+00  0.00000000000E+00  0.15236544543E+02  0.15236544756E+02  0.25500000000E-02 0.  1.
         -2   -1    0    0  501    0 -0.00000000000E+00 -0.00000000000E+00 -0.10510786807E+03  0.10510786810E+03  0.25500000000E-02 0.  1.
          2    1    1    2    0  502 -0.32604118942E+02 -0.52414785767E+01 -0.78924523965E+02  0.85554556624E+02  0.25500000000E-02 0. -1.
         -2    1    1    2  502    0  0.32604118942E+02  0.52414785767E+01 -0.10946799565E+02  0.34789856235E+02  0.25500000000E-02 0. -1.
<mgrwt>
<rscale>  0 0.80037010E+02</rscale>
<asrwt>0</asrwt>
<pdfrwt beam="1">  1        2 0.23440839E-02 0.80037010E+02</pdfrwt>
<pdfrwt beam="2">  1       -2 0.16170441E-01 0.80037010E+02</pdfrwt>
<totfact> 0.10881159E+05</totfact>
</mgrwt>
</event>
<event>
 4    1  0.4635140E-002  0.5769615E+02  0.7818608E-02  0.1407762E+00
         -2   -1    0    0  501    0 -0.00000000000E+00  0.00000000000E+00  0.88304841206E+01  0.88304844888E+01  0.25500000000E-02 0. -1.
          2   -1    0    0    0  501  0.00000000000E+00 -0.00000000000E+00 -0.94242999561E+02  0.94242999596E+02  0.25500000000E-02 0. -1.
          2    1    1    2    0  502 -0.21310339651E+02 -0.13828373267E+02 -0.67126763279E+02  0.71772953388E+02  0.25500000000E-02 0.  1.
         -2    1    1    2  502    0  0.21310339651E+02  0.13828373267E+02 -0.18285752162E+02  0.31300530697E+02  0.25500000000E-02 0.  1.
<mgrwt>
<rscale>  0 0.57696147E+02</rscale>
<asrwt>0</asrwt>
<pdfrwt beam="2">  1        2 0.14498922E-01 0.57696147E+02</pdfrwt>
<pdfrwt beam="1">  1       -2 0.13585361E-02 0.57696147E+02</pdfrwt>
<totfact> 0.40871550E+05</totfact>
</mgrwt>
</event>
<event>
 4    1  0.4635140E-002  0.6536276E+02  0.7818608E-02  0.1376612E+00
         -2   -1    0    0  501    0 -0.00000000000E+00  0.00000000000E+00  0.44032815780E+02  0.44032815854E+02  0.25500000000E-02 0.  1.
          2   -1    0    0    0  501  0.00000000000E+00 -0.00000000000E+00 -0.24256286656E+02  0.24256286790E+02  0.25500000000E-02 0.  1.
          2    1    1    2    0  502 -0.21339658732E+02  0.13701347739E+02 -0.11649340943E+02  0.27907259191E+02  0.25500000000E-02 0. -1.
         -2    1    1    2  502    0  0.21339658732E+02 -0.13701347739E+02  0.31425870067E+02  0.40381843453E+02  0.25500000000E-02 0. -1.
<mgrwt>
<rscale>  0 0.65362760E+02</rscale>
<asrwt>0</asrwt>
<pdfrwt beam="2">  1        2 0.37317364E-02 0.65362760E+02</pdfrwt>
<pdfrwt beam="1">  1       -2 0.67742794E-02 0.65362760E+02</pdfrwt>
<totfact> 0.21937957E+05</totfact>
</mgrwt>
</event>
<event>
 4    1  0.4635140E-002  0.4091448E+02  0.7818608E-02  0.1501588E+00
          2   -1    0    0    0  501  0.00000000000E+00  0.00000000000E+00  0.53661063360E+03  0.53661063361E+03  0.25500000000E-02 0.  1.
         -2   -1    0    0  501    0 -0.00000000000E+00 -0.00000000000E+00 -0.77989053938E+00  0.77989470822E+00  0.25500000000E-02 0.  1.
          2    1    1    2    0  502  0.26416639730E+00  0.20343679515E+02  0.29597399460E+03  0.29667244659E+03  0.25500000000E-02 0.  1.
         -2    1    1    2  502    0 -0.26416639730E+00 -0.20343679515E+02  0.23985674847E+03  0.24071808173E+03  0.25500000000E-02 0.  1.
<mgrwt>
<rscale>  0 0.40914480E+02</rscale>
<asrwt>0</asrwt>
<pdfrwt beam="1">  1        2 0.82555600E-01 0.40914480E+02</pdfrwt>
<pdfrwt beam="2">  1       -2 0.11998331E-03 0.40914480E+02</pdfrwt>
<totfact> 0.16745054E+06</totfact>
</mgrwt>
</event>
<event>
 4    1  0.4635140E-002  0.5029478E+02  0.7818608E-02  0.1443758E+00
         -2   -1    0    0  501    0 -0.00000000000E+00  0.00000000000E+00  0.15678522213E+02  0.15678522421E+02  0.25500000000E-02 0.  1.
          2   -1    0    0    0  501  0.00000000000E+00 -0.00000000000E+00 -0.40334872118E+02  0.40334872199E+02  0.25500000000E-02 0.  1.
          2    1    1    2    0  502  0.23710307755E+02  0.69261966777E+01 -0.70759989726E+01  0.25694759431E+02  0.25500000000E-02 0.  1.
         -2    1    1    2  502    0 -0.23710307755E+02 -0.69261966777E+01 -0.17580350932E+02  0.30318635188E+02  0.25500000000E-02 0.  1.
<mgrwt>
<rscale>  0 0.50294779E+02</rscale>
<asrwt>0</asrwt>
<pdfrwt beam="2">  1        2 0.62053649E-02 0.50294779E+02</pdfrwt>
<pdfrwt beam="1">  1       -2 0.24120804E-02 0.50294779E+02</pdfrwt>
<totfact> 0.48584832E+05</totfact>
</mgrwt>
</event>
<event>
 4    1  0.4635140E-002  0.1122109E+03  0.7818608E-02  0.1256530E+00
          2   -1    0    0    0  501  0.00000000000E+00  0.00000000000E+00  0.37901625042E+03  0.37901625043E+03  0.25500000000E-02 0. -1.
         -2   -1    0    0  501    0 -0.00000000000E+00 -0.00000000000E+00 -0.83052453092E+01  0.83052457007E+01  0.25500000000E-02 0. -1.
          2    1    1    2    0  502 -0.12617379130E+02 -0.40172062663E+02  0.31334106255E+03  0.31615757837E+03  0.25500000000E-02 0. -1.
         -2    1    1    2  502    0  0.12617379130E+02  0.40172062663E+02  0.57369942556E+02  0.71163917754E+02  0.25500000000E-02 0. -1.
<mgrwt>
<rscale>  0 0.11221093E+03</rscale>
<asrwt>0</asrwt>
<pdfrwt beam="1">  1        2 0.58310194E-01 0.11221093E+03</pdfrwt>
<pdfrwt beam="2">  1       -2 0.12777300E-02 0.11221093E+03</pdfrwt>
<totfact> 0.11207153E+05</totfact>
</mgrwt>
</event>
